{
	 "smiles": "FC(F)(F)C(F)(Cl)Cl", 
	 "Tm": 216.55, 
	 "num_atms": 8, 
	 "gaussian": { 
		 "optdone": 1, 
		 "sigma_profile": "yes", 
		 "theory": "DFT", 
		 "functional": "B3LYP", 
		 "basiset": "6-31G**", 
		 "properties": { 
			 "R2extent": 2158.3749, 
			 "electric_dipole_moment_norm": 0.186081003867, 
			 "electric_quadrupole_moment_norm": 0.843484540463, 
			 "total_energy": -1395.93588002, 
			 "HOMO_LUMO_gap": 0.29452, 
			 "cosmo_polarized_energy": -0.87, 
			 "cosmo_cavitation_energy": 17.68, 
			 "cosmo_dispersion_energy": -12.76, 
			 "cosmo_repulsion_energy": 1.0, 
			 "cosmo_total_nonelectrostatic_energy": 5.92, 
			 "SMD_solvation_energy": 4.06 
		},
		"coords": [
			{
				"x": 1.3790152056,
				"y": -1.4747469814,
				"z": 0.9738058051,
				"element": "F" 
			},
			{
				"x": 0.7435927163,
				"y": -0.7773630071,
				"z": 1.9214034714,
				"element": "C" 
			},
			{
				"x": 1.3773943393,
				"y": 0.3874036769,
				"z": 2.09368467,
				"element": "F" 
			},
			{
				"x": 0.7710700897,
				"y": -1.4653599118,
				"z": 3.0654460284,
				"element": "F" 
			},
			{
				"x": -0.7215715325,
				"y": -0.5068616801,
				"z": 1.4695299645,
				"element": "C" 
			},
			{
				"x": -0.6567862757,
				"y": 0.1866713179,
				"z": 0.3165185042,
				"element": "F" 
			},
			{
				"x": -1.5732345192,
				"y": 0.4739050746,
				"z": 2.6918253906,
				"element": "Cl" 
			},
			{
				"x": -1.5710800236,
				"y": -2.0473484891,
				"z": 1.1753861658,
				"element": "Cl" 
			}
		],
		 "valence_orbital": [ 
			{
				"type": "occ",
				"energy": -0.40971,
				"method": "rhf"
			},
			{
				"type": "occ",
				"energy": -0.36756,
				"method": "rhf"
			},
			{
				"type": "occ",
				"energy": -0.35214,
				"method": "rhf"
			},
			{
				"type": "occ",
				"energy": -0.3478,
				"method": "rhf"
			},
			{
				"type": "occ",
				"energy": -0.33358,
				"method": "rhf"
			},
			{
				"type": "unocc",
				"energy": -0.03906,
				"method": "rhf"
			},
			{
				"type": "unocc",
				"energy": -0.00736,
				"method": "rhf"
			},
			{
				"type": "unocc",
				"energy": 0.06592,
				"method": "rhf"
			},
			{
				"type": "unocc",
				"energy": 0.16257,
				"method": "rhf"
			},
			{
				"type": "unocc",
				"energy": 0.16619,
				"method": "rhf"
			}
		],
		"cosmo_sigma_profile": { 
			"-0.025": 0.0,
			"-0.024": 0.0,
			"-0.023": 0.0,
			"-0.022": 0.0,
			"-0.021": 0.0,
			"-0.02": 0.0,
			"-0.019": 0.0,
			"-0.018": 0.0,
			"-0.017": 0.0,
			"-0.016": 0.0,
			"-0.015": 0.0,
			"-0.014": 0.0,
			"-0.013": 0.0,
			"-0.012": 0.0,
			"-0.011": 0.0,
			"-0.01": 0.0,
			"-0.009": 0.0,
			"-0.008": 0.0,
			"-0.007": 0.0,
			"-0.006": 0.237737782434,
			"-0.005": 2.46942022,
			"-0.004": 4.50334463761,
			"-0.003": 6.59933453219,
			"-0.002": 11.0105768501,
			"-0.001": 17.3714818733,
			"0.0": 31.0552570763,
			"0.001": 57.3070682165,
			"0.002": 16.1382586465,
			"0.003": 0.0,
			"0.004": 0.0,
			"0.005": 0.0,
			"0.006": 0.0,
			"0.007": 0.0,
			"0.008": 0.0,
			"0.009": 0.0,
			"0.01": 0.0,
			"0.011": 0.0,
			"0.012": 0.0,
			"0.013": 0.0,
			"0.014": 0.0,
			"0.015": 0.0,
			"0.016": 0.0,
			"0.017": 0.0,
			"0.018": 0.0,
			"0.019": 0.0,
			"0.02": 0.0,
			"0.021": 0.0,
			"0.022": 0.0,
			"0.023": 0.0,
			"0.024": 0.0,
			"0.025": 0.0
		}
	}
}
