{
	 "smiles": "CC1=CC=CC=C1NN=C1C(=O)OC(C)(C)OC1=O", 
	 "Tm": 379.15, 
	 "num_atms": 33, 
	 "gaussian": { 
		 "optdone": 1, 
		 "sigma_profile": "yes", 
		 "theory": "DFT", 
		 "functional": "B3LYP", 
		 "basiset": "6-31G**", 
		 "properties": { 
			 "R2extent": 6935.1853, 
			 "electric_dipole_moment_norm": 3.17486798151, 
			 "electric_quadrupole_moment_norm": 26.1581755698, 
			 "total_energy": -914.222546211, 
			 "HOMO_LUMO_gap": 0.13861, 
			 "cosmo_polarized_energy": -15.33, 
			 "cosmo_cavitation_energy": 37.12, 
			 "cosmo_dispersion_energy": -26.45, 
			 "cosmo_repulsion_energy": 2.03, 
			 "cosmo_total_nonelectrostatic_energy": 12.7, 
			 "SMD_solvation_energy": 7.66 
		},
		"coords": [
			{
				"x": 1.8394957242,
				"y": -2.256626466,
				"z": -0.265192603,
				"element": "C" 
			},
			{
				"x": 2.24326049,
				"y": -1.4793140751,
				"z": 0.9660987449,
				"element": "C" 
			},
			{
				"x": 3.3000232245,
				"y": -1.9110940695,
				"z": 1.7745503905,
				"element": "C" 
			},
			{
				"x": 3.6883894715,
				"y": -1.2051572369,
				"z": 2.9129536821,
				"element": "C" 
			},
			{
				"x": 3.012410928,
				"y": -0.0346816429,
				"z": 3.2654349664,
				"element": "C" 
			},
			{
				"x": 1.9561360079,
				"y": 0.4240404486,
				"z": 2.4855582638,
				"element": "C" 
			},
			{
				"x": 1.5775225794,
				"y": -0.2956281287,
				"z": 1.3455433335,
				"element": "C" 
			},
			{
				"x": 0.5094288089,
				"y": 0.1487178679,
				"z": 0.5377245641,
				"element": "N" 
			},
			{
				"x": -0.1438907288,
				"y": 1.2352866114,
				"z": 0.8199908176,
				"element": "N" 
			},
			{
				"x": -1.1529760827,
				"y": 1.6322633558,
				"z": 0.0648208012,
				"element": "C" 
			},
			{
				"x": -1.7545648043,
				"y": 2.9345361779,
				"z": 0.4300941402,
				"element": "C" 
			},
			{
				"x": -1.3544290331,
				"y": 3.6900635885,
				"z": 1.2787397197,
				"element": "O" 
			},
			{
				"x": -2.824766158,
				"y": 3.3029846565,
				"z": -0.3563517498,
				"element": "O" 
			},
			{
				"x": -3.5702097705,
				"y": 2.3094259575,
				"z": -1.0564372633,
				"element": "C" 
			},
			{
				"x": -4.4539578991,
				"y": 1.5238680445,
				"z": -0.0885585677,
				"element": "C" 
			},
			{
				"x": -4.3520881502,
				"y": 3.0400584558,
				"z": -2.1334391555,
				"element": "C" 
			},
			{
				"x": -2.7006573135,
				"y": 1.3891259305,
				"z": -1.7601613713,
				"element": "O" 
			},
			{
				"x": -1.6083037863,
				"y": 0.9073192202,
				"z": -1.1251489209,
				"element": "C" 
			},
			{
				"x": -1.0429135281,
				"y": -0.0822956079,
				"z": -1.5798476889,
				"element": "O" 
			},
			{
				"x": 1.9371105895,
				"y": -1.6601718584,
				"z": -1.1807222514,
				"element": "H" 
			},
			{
				"x": 2.4698349366,
				"y": -3.1409449913,
				"z": -0.3829454005,
				"element": "H" 
			},
			{
				"x": 0.7988087388,
				"y": -2.6002894469,
				"z": -0.2149204803,
				"element": "H" 
			},
			{
				"x": 3.8258884031,
				"y": -2.8213743109,
				"z": 1.4990988577,
				"element": "H" 
			},
			{
				"x": 4.5130291708,
				"y": -1.5663883027,
				"z": 3.5197242389,
				"element": "H" 
			},
			{
				"x": 3.3067366252,
				"y": 0.5238161636,
				"z": 4.1487656518,
				"element": "H" 
			},
			{
				"x": 1.4178004649,
				"y": 1.3300423334,
				"z": 2.7376883102,
				"element": "H" 
			},
			{
				"x": 0.2324518251,
				"y": -0.3639656327,
				"z": -0.3080047994,
				"element": "H" 
			},
			{
				"x": -5.0370415525,
				"y": 0.7787505183,
				"z": -0.6350377839,
				"element": "H" 
			},
			{
				"x": -5.1349091748,
				"y": 2.2079445935,
				"z": 0.4233053782,
				"element": "H" 
			},
			{
				"x": -3.8502710905,
				"y": 1.0105570491,
				"z": 0.6651413226,
				"element": "H" 
			},
			{
				"x": -3.6600097263,
				"y": 3.5732975876,
				"z": -2.7883018785,
				"element": "H" 
			},
			{
				"x": -4.9293146381,
				"y": 2.3268918787,
				"z": -2.7261467234,
				"element": "H" 
			},
			{
				"x": -5.0315245516,
				"y": 3.7598413308,
				"z": -1.671816546,
				"element": "H" 
			}
		],
		 "valence_orbital": [ 
			{
				"type": "occ",
				"energy": -0.29354,
				"method": "rhf"
			},
			{
				"type": "occ",
				"energy": -0.28357,
				"method": "rhf"
			},
			{
				"type": "occ",
				"energy": -0.26894,
				"method": "rhf"
			},
			{
				"type": "occ",
				"energy": -0.25639,
				"method": "rhf"
			},
			{
				"type": "occ",
				"energy": -0.22524,
				"method": "rhf"
			},
			{
				"type": "unocc",
				"energy": -0.08663,
				"method": "rhf"
			},
			{
				"type": "unocc",
				"energy": -0.00971,
				"method": "rhf"
			},
			{
				"type": "unocc",
				"energy": -0.00694,
				"method": "rhf"
			},
			{
				"type": "unocc",
				"energy": 0.00918,
				"method": "rhf"
			},
			{
				"type": "unocc",
				"energy": 0.08811,
				"method": "rhf"
			}
		],
		"cosmo_sigma_profile": { 
			"-0.025": 0.0,
			"-0.024": 0.0,
			"-0.023": 0.0,
			"-0.022": 0.0,
			"-0.021": 0.0,
			"-0.02": 0.0,
			"-0.019": 0.0,
			"-0.018": 0.0,
			"-0.017": 0.0,
			"-0.016": 0.0,
			"-0.015": 0.0,
			"-0.014": 0.0,
			"-0.013": 0.0,
			"-0.012": 0.0,
			"-0.011": 0.0,
			"-0.01": 0.0,
			"-0.009": 0.357617914177,
			"-0.008": 1.1840689101,
			"-0.007": 3.17411816031,
			"-0.006": 22.8221310978,
			"-0.005": 29.9117942993,
			"-0.004": 30.0281459226,
			"-0.003": 25.3192648935,
			"-0.002": 30.4261322165,
			"-0.001": 26.9469742907,
			"0.0": 16.8209153638,
			"0.001": 14.3831008615,
			"0.002": 13.0046491241,
			"0.003": 12.6979625024,
			"0.004": 14.4069414176,
			"0.005": 10.6788199578,
			"0.006": 3.86921868053,
			"0.007": 4.96772615449,
			"0.008": 5.48016728517,
			"0.009": 5.91886417817,
			"0.01": 5.95186350447,
			"0.011": 7.92826364914,
			"0.012": 7.04912736341,
			"0.013": 2.17363197539,
			"0.014": 0.0,
			"0.015": 0.0,
			"0.016": 0.0,
			"0.017": 0.0,
			"0.018": 0.0,
			"0.019": 0.0,
			"0.02": 0.0,
			"0.021": 0.0,
			"0.022": 0.0,
			"0.023": 0.0,
			"0.024": 0.0,
			"0.025": 0.0
		}
	}
}
