{
	 "smiles": "OC(=O)CNC(=O)C1=CC(OCC2=CC=CC=C2)=CC=C1", 
	 "Tm": 459.15, 
	 "num_atms": 36, 
	 "gaussian": { 
		 "optdone": 1, 
		 "sigma_profile": "yes", 
		 "theory": "DFT", 
		 "functional": "B3LYP", 
		 "basiset": "6-31G**", 
		 "properties": { 
			 "R2extent": 6341.6783, 
			 "electric_dipole_moment_norm": 7.56745551424, 
			 "electric_quadrupole_moment_norm": 26.5602803758, 
			 "total_energy": -974.397052397, 
			 "HOMO_LUMO_gap": 0.19857, 
			 "cosmo_polarized_energy": -22.41, 
			 "cosmo_cavitation_energy": 40.1, 
			 "cosmo_dispersion_energy": -26.56, 
			 "cosmo_repulsion_energy": 1.99, 
			 "cosmo_total_nonelectrostatic_energy": 15.53, 
			 "SMD_solvation_energy": 7.17 
		},
		"coords": [
			{
				"x": 0.9113939576,
				"y": 1.3363384488,
				"z": 3.4963355743,
				"element": "O" 
			},
			{
				"x": 0.2512291253,
				"y": 2.3199503652,
				"z": 2.8497324345,
				"element": "C" 
			},
			{
				"x": 0.0613946077,
				"y": 3.3946604621,
				"z": 3.3629643079,
				"element": "O" 
			},
			{
				"x": -0.246642683,
				"y": 1.9445561296,
				"z": 1.4543951793,
				"element": "C" 
			},
			{
				"x": -0.910217902,
				"y": 3.0721400683,
				"z": 0.8392575394,
				"element": "N" 
			},
			{
				"x": -0.8287214274,
				"y": 3.4810646167,
				"z": -0.4749489546,
				"element": "C" 
			},
			{
				"x": -1.0882621517,
				"y": 4.6366240341,
				"z": -0.7896186965,
				"element": "O" 
			},
			{
				"x": -0.4205236456,
				"y": 2.4687728042,
				"z": -1.5113138877,
				"element": "C" 
			},
			{
				"x": -0.753137548,
				"y": 1.1107403576,
				"z": -1.4293196231,
				"element": "C" 
			},
			{
				"x": -0.3373977122,
				"y": 0.226697874,
				"z": -2.4252129274,
				"element": "C" 
			},
			{
				"x": -0.6895798441,
				"y": -1.1096063045,
				"z": -2.3394908215,
				"element": "O" 
			},
			{
				"x": 0.3308826679,
				"y": -1.9746028634,
				"z": -1.8187957907,
				"element": "C" 
			},
			{
				"x": 0.4780260049,
				"y": -1.8929818859,
				"z": -0.3114132553,
				"element": "C" 
			},
			{
				"x": 1.7166796138,
				"y": -1.6295079045,
				"z": 0.2809293663,
				"element": "C" 
			},
			{
				"x": 1.8520961283,
				"y": -1.6045524173,
				"z": 1.6741529433,
				"element": "C" 
			},
			{
				"x": 0.7388911863,
				"y": -1.8327731368,
				"z": 2.4882270201,
				"element": "C" 
			},
			{
				"x": -0.5105742234,
				"y": -2.0771532507,
				"z": 1.9016777169,
				"element": "C" 
			},
			{
				"x": -0.6367537475,
				"y": -2.1091588388,
				"z": 0.5144976467,
				"element": "C" 
			},
			{
				"x": 0.3941725696,
				"y": 0.6901334574,
				"z": -3.5213784701,
				"element": "C" 
			},
			{
				"x": 0.7008088329,
				"y": 2.0494197602,
				"z": -3.6174282631,
				"element": "C" 
			},
			{
				"x": 0.2935248199,
				"y": 2.9366073773,
				"z": -2.6230770093,
				"element": "C" 
			},
			{
				"x": 0.9610084148,
				"y": 0.5323475152,
				"z": 2.9502932606,
				"element": "H" 
			},
			{
				"x": -0.9092758952,
				"y": 1.0736081151,
				"z": 1.5733674735,
				"element": "H" 
			},
			{
				"x": 0.6050488714,
				"y": 1.6027312589,
				"z": 0.8557317402,
				"element": "H" 
			},
			{
				"x": -1.0905971522,
				"y": 3.8384999306,
				"z": 1.4817879521,
				"element": "H" 
			},
			{
				"x": -1.3529891306,
				"y": 0.7229544713,
				"z": -0.6152637715,
				"element": "H" 
			},
			{
				"x": 0.0157214102,
				"y": -2.9815353693,
				"z": -2.1109769297,
				"element": "H" 
			},
			{
				"x": 1.2923407288,
				"y": -1.7662860424,
				"z": -2.3056845706,
				"element": "H" 
			},
			{
				"x": 2.5860082719,
				"y": -1.4543026372,
				"z": -0.3477694739,
				"element": "H" 
			},
			{
				"x": 2.8262084191,
				"y": -1.4222614117,
				"z": 2.1196676317,
				"element": "H" 
			},
			{
				"x": 0.8441554132,
				"y": -1.8430821993,
				"z": 3.5699895777,
				"element": "H" 
			},
			{
				"x": -1.3779791489,
				"y": -2.2590345589,
				"z": 2.5296360629,
				"element": "H" 
			},
			{
				"x": -1.6038163414,
				"y": -2.302887602,
				"z": 0.0587782774,
				"element": "H" 
			},
			{
				"x": 0.6957170319,
				"y": -0.0101346252,
				"z": -4.2945058928,
				"element": "H" 
			},
			{
				"x": 1.255390812,
				"y": 2.4161035324,
				"z": -4.4761688546,
				"element": "H" 
			},
			{
				"x": 0.5111696657,
				"y": 3.9968104689,
				"z": -2.6901545122,
				"element": "H" 
			}
		],
		 "valence_orbital": [ 
			{
				"type": "occ",
				"energy": -0.27653,
				"method": "rhf"
			},
			{
				"type": "occ",
				"energy": -0.26599,
				"method": "rhf"
			},
			{
				"type": "occ",
				"energy": -0.25946,
				"method": "rhf"
			},
			{
				"type": "occ",
				"energy": -0.25434,
				"method": "rhf"
			},
			{
				"type": "occ",
				"energy": -0.24055,
				"method": "rhf"
			},
			{
				"type": "unocc",
				"energy": -0.04198,
				"method": "rhf"
			},
			{
				"type": "unocc",
				"energy": -0.03818,
				"method": "rhf"
			},
			{
				"type": "unocc",
				"energy": -0.03391,
				"method": "rhf"
			},
			{
				"type": "unocc",
				"energy": -0.01127,
				"method": "rhf"
			},
			{
				"type": "unocc",
				"energy": 0.00087,
				"method": "rhf"
			}
		],
		"cosmo_sigma_profile": { 
			"-0.025": 0.0,
			"-0.024": 0.0,
			"-0.023": 0.0,
			"-0.022": 0.0,
			"-0.021": 0.0,
			"-0.02": 0.0,
			"-0.019": 0.0,
			"-0.018": 0.0,
			"-0.017": 0.0,
			"-0.016": 0.0,
			"-0.015": 0.0,
			"-0.014": 0.0,
			"-0.013": 0.0,
			"-0.012": 0.0489553630559,
			"-0.011": 0.460506276869,
			"-0.01": 1.45351173122,
			"-0.009": 2.88361899668,
			"-0.008": 4.92902265907,
			"-0.007": 10.3576892259,
			"-0.006": 27.6065948062,
			"-0.005": 29.5734100814,
			"-0.004": 27.9159787319,
			"-0.003": 24.1806844435,
			"-0.002": 21.6455248154,
			"-0.001": 20.9938017998,
			"0.0": 18.4769727211,
			"0.001": 15.902588497,
			"0.002": 17.3662330958,
			"0.003": 18.8113215956,
			"0.004": 18.2412311038,
			"0.005": 8.83686962937,
			"0.006": 4.1761373572,
			"0.007": 5.89502340998,
			"0.008": 5.76588344679,
			"0.009": 6.37806932299,
			"0.01": 7.99913544268,
			"0.011": 6.61982664839,
			"0.012": 4.70693632651,
			"0.013": 5.20696038164,
			"0.014": 3.37539865252,
			"0.015": 0.0694750266688,
			"0.016": 0.0,
			"0.017": 0.0,
			"0.018": 0.0,
			"0.019": 0.0,
			"0.02": 0.0,
			"0.021": 0.0,
			"0.022": 0.0,
			"0.023": 0.0,
			"0.024": 0.0,
			"0.025": 0.0
		}
	}
}
