{
	 "smiles": "CC[N+](C)(CC)CCOC(=O)C(O)(C1CCCCC1)C1=CC=CC=C1", 
	 "Tm": 464.65, 
	 "num_atms": 59, 
	 "gaussian": { 
		 "optdone": 1, 
		 "sigma_profile": "yes", 
		 "theory": "DFT", 
		 "functional": "B3LYP", 
		 "basiset": "6-31G**", 
		 "properties": { 
			 "R2extent": 10059.9562, 
			 "electric_dipole_moment_norm": 9.11497727973, 
			 "electric_quadrupole_moment_norm": 23.5198836428, 
			 "total_energy": -1100.94205951, 
			 "HOMO_LUMO_gap": 0.21952, 
			 "cosmo_polarized_energy": -58.74, 
			 "cosmo_cavitation_energy": 52.02, 
			 "cosmo_dispersion_energy": -34.4, 
			 "cosmo_repulsion_energy": 2.57, 
			 "cosmo_total_nonelectrostatic_energy": 20.19, 
			 "SMD_solvation_energy": 8.62 
		},
		"coords": [
			{
				"x": 1.2306246411,
				"y": 1.2383665758,
				"z": -3.6911585007,
				"element": "C" 
			},
			{
				"x": -0.2162922809,
				"y": 1.5562591747,
				"z": -3.3397173232,
				"element": "C" 
			},
			{
				"x": -0.6713508008,
				"y": 1.1385928896,
				"z": -1.934090817,
				"element": "N" 
			},
			{
				"x": -2.116366501,
				"y": 1.5411342952,
				"z": -1.7947637211,
				"element": "C" 
			},
			{
				"x": -0.5259479028,
				"y": -0.380134748,
				"z": -1.7243403291,
				"element": "C" 
			},
			{
				"x": -1.2436746368,
				"y": -1.2488823363,
				"z": -2.7468144555,
				"element": "C" 
			},
			{
				"x": 0.1859473419,
				"y": 1.8887936805,
				"z": -0.9105321982,
				"element": "C" 
			},
			{
				"x": -0.3266672977,
				"y": 1.9654143529,
				"z": 0.5184323122,
				"element": "C" 
			},
			{
				"x": -0.243275278,
				"y": 0.6750716024,
				"z": 1.1376810514,
				"element": "O" 
			},
			{
				"x": -1.0221709151,
				"y": 0.4983174374,
				"z": 2.2437035094,
				"element": "C" 
			},
			{
				"x": -1.798403013,
				"y": 1.3459404755,
				"z": 2.6281175944,
				"element": "O" 
			},
			{
				"x": -0.8549774984,
				"y": -0.8759026526,
				"z": 2.9257497291,
				"element": "C" 
			},
			{
				"x": -2.0535762554,
				"y": -1.08521359,
				"z": 3.6507138782,
				"element": "O" 
			},
			{
				"x": 0.4107985702,
				"y": -0.9299149967,
				"z": 3.8964381124,
				"element": "C" 
			},
			{
				"x": 0.0666300347,
				"y": -0.631655138,
				"z": 5.3750893771,
				"element": "C" 
			},
			{
				"x": -0.0209327526,
				"y": 0.8611992345,
				"z": 5.7251771415,
				"element": "C" 
			},
			{
				"x": 1.2779370981,
				"y": 1.5880690171,
				"z": 5.3530802221,
				"element": "C" 
			},
			{
				"x": 1.6050110831,
				"y": 1.3899272579,
				"z": 3.8666647395,
				"element": "C" 
			},
			{
				"x": 1.6526821238,
				"y": -0.0997550586,
				"z": 3.4729969997,
				"element": "C" 
			},
			{
				"x": -0.8107301871,
				"y": -1.9731221306,
				"z": 1.8412563301,
				"element": "C" 
			},
			{
				"x": -2.0248830648,
				"y": -2.4718147654,
				"z": 1.3439539575,
				"element": "C" 
			},
			{
				"x": -2.0417537563,
				"y": -3.4771182647,
				"z": 0.3749939235,
				"element": "C" 
			},
			{
				"x": -0.8441347101,
				"y": -3.9999900439,
				"z": -0.1188515336,
				"element": "C" 
			},
			{
				"x": 0.3691255922,
				"y": -3.5012472835,
				"z": 0.3605979971,
				"element": "C" 
			},
			{
				"x": 0.385808421,
				"y": -2.4963968576,
				"z": 1.3312237429,
				"element": "C" 
			},
			{
				"x": 1.4441821491,
				"y": 0.1671773201,
				"z": -3.6740240469,
				"element": "H" 
			},
			{
				"x": 1.9516159489,
				"y": 1.7558393407,
				"z": -3.0546730338,
				"element": "H" 
			},
			{
				"x": 1.4001901917,
				"y": 1.5846898662,
				"z": -4.7147348098,
				"element": "H" 
			},
			{
				"x": -0.8980528109,
				"y": 1.0619429786,
				"z": -4.0323181293,
				"element": "H" 
			},
			{
				"x": -0.4061561302,
				"y": 2.6311232622,
				"z": -3.3993815428,
				"element": "H" 
			},
			{
				"x": -2.5202750476,
				"y": 1.1385485774,
				"z": -0.8670672293,
				"element": "H" 
			},
			{
				"x": -2.1849335135,
				"y": 2.6298555941,
				"z": -1.7944629808,
				"element": "H" 
			},
			{
				"x": -2.678087007,
				"y": 1.1440096141,
				"z": -2.6380399288,
				"element": "H" 
			},
			{
				"x": -0.8906935725,
				"y": -0.5781607614,
				"z": -0.7177238839,
				"element": "H" 
			},
			{
				"x": 0.5459540318,
				"y": -0.5803727011,
				"z": -1.725205974,
				"element": "H" 
			},
			{
				"x": -2.3228868153,
				"y": -1.0788722231,
				"z": -2.7715168213,
				"element": "H" 
			},
			{
				"x": -1.0960397968,
				"y": -2.2842082529,
				"z": -2.429020658,
				"element": "H" 
			},
			{
				"x": -0.8422468169,
				"y": -1.1526892186,
				"z": -3.7584836286,
				"element": "H" 
			},
			{
				"x": 0.2769341508,
				"y": 2.9121421803,
				"z": -1.2846863392,
				"element": "H" 
			},
			{
				"x": 1.1726649928,
				"y": 1.4254905707,
				"z": -0.9290600756,
				"element": "H" 
			},
			{
				"x": -1.3412397292,
				"y": 2.3582537229,
				"z": 0.6025282101,
				"element": "H" 
			},
			{
				"x": 0.3315399816,
				"y": 2.6618767373,
				"z": 1.0509772651,
				"element": "H" 
			},
			{
				"x": -2.367683498,
				"y": -0.2181992908,
				"z": 3.9519686684,
				"element": "H" 
			},
			{
				"x": 0.6989446319,
				"y": -1.9856453526,
				"z": 3.8642784422,
				"element": "H" 
			},
			{
				"x": 0.871276017,
				"y": -1.0767643773,
				"z": 5.9754584044,
				"element": "H" 
			},
			{
				"x": -0.8494742836,
				"y": -1.1572484732,
				"z": 5.6508288647,
				"element": "H" 
			},
			{
				"x": -0.2245281005,
				"y": 0.9712707355,
				"z": 6.7960129845,
				"element": "H" 
			},
			{
				"x": -0.8643873575,
				"y": 1.3317832467,
				"z": 5.2018292147,
				"element": "H" 
			},
			{
				"x": 2.1019515245,
				"y": 1.1909609171,
				"z": 5.9616454281,
				"element": "H" 
			},
			{
				"x": 1.2052859048,
				"y": 2.6566873652,
				"z": 5.5841382661,
				"element": "H" 
			},
			{
				"x": 2.5689598233,
				"y": 1.8518008839,
				"z": 3.6216194799,
				"element": "H" 
			},
			{
				"x": 0.8521682729,
				"y": 1.9263645684,
				"z": 3.2738805388,
				"element": "H" 
			},
			{
				"x": 2.516357249,
				"y": -0.5506091297,
				"z": 3.9782588931,
				"element": "H" 
			},
			{
				"x": 1.8486343326,
				"y": -0.1914957891,
				"z": 2.3997502515,
				"element": "H" 
			},
			{
				"x": -2.9534476785,
				"y": -2.0979697491,
				"z": 1.7592343981,
				"element": "H" 
			},
			{
				"x": -2.9928874818,
				"y": -3.8695704364,
				"z": 0.0265568969,
				"element": "H" 
			},
			{
				"x": -0.8556352058,
				"y": -4.8027355261,
				"z": -0.8506703661,
				"element": "H" 
			},
			{
				"x": 1.3080211055,
				"y": -3.911151774,
				"z": -0.000723213,
				"element": "H" 
			},
			{
				"x": 1.3425464823,
				"y": -2.1441625539,
				"z": 1.6983247149,
				"element": "H" 
			}
		],
		 "valence_orbital": [ 
			{
				"type": "occ",
				"energy": -0.37806,
				"method": "rhf"
			},
			{
				"type": "occ",
				"energy": -0.37746,
				"method": "rhf"
			},
			{
				"type": "occ",
				"energy": -0.3634,
				"method": "rhf"
			},
			{
				"type": "occ",
				"energy": -0.34577,
				"method": "rhf"
			},
			{
				"type": "occ",
				"energy": -0.33895,
				"method": "rhf"
			},
			{
				"type": "unocc",
				"energy": -0.11943,
				"method": "rhf"
			},
			{
				"type": "unocc",
				"energy": -0.10158,
				"method": "rhf"
			},
			{
				"type": "unocc",
				"energy": -0.09535,
				"method": "rhf"
			},
			{
				"type": "unocc",
				"energy": -0.09188,
				"method": "rhf"
			},
			{
				"type": "unocc",
				"energy": -0.06326,
				"method": "rhf"
			}
		],
		"cosmo_sigma_profile": { 
			"-0.025": 0.0,
			"-0.024": 0.0,
			"-0.023": 0.0,
			"-0.022": 0.0,
			"-0.021": 0.0,
			"-0.02": 0.0,
			"-0.019": 0.0,
			"-0.018": 0.0,
			"-0.017": 0.0,
			"-0.016": 0.0,
			"-0.015": 0.0,
			"-0.014": 0.12527558704,
			"-0.013": 0.665559653867,
			"-0.012": 2.26336012315,
			"-0.011": 4.08621161123,
			"-0.01": 8.67817743361,
			"-0.009": 14.3074969672,
			"-0.008": 24.0322078887,
			"-0.007": 22.4938880742,
			"-0.006": 25.5446769878,
			"-0.005": 29.593992635,
			"-0.004": 25.6234078357,
			"-0.003": 32.4828920914,
			"-0.002": 44.7608450273,
			"-0.001": 45.9243603754,
			"0.0": 42.3367078973,
			"0.001": 28.2675110397,
			"0.002": 11.5771279491,
			"0.003": 6.7699613644,
			"0.004": 6.99995038736,
			"0.005": 8.27789810341,
			"0.006": 4.50177072229,
			"0.007": 2.51272202414,
			"0.008": 1.99895931764,
			"0.009": 3.38002148289,
			"0.01": 2.89762090319,
			"0.011": 1.39185817891,
			"0.012": 0.82164190974,
			"0.013": 0.487531615098,
			"0.014": 0.0163489281778,
			"0.015": 0.0,
			"0.016": 0.0,
			"0.017": 0.0,
			"0.018": 0.0,
			"0.019": 0.0,
			"0.02": 0.0,
			"0.021": 0.0,
			"0.022": 0.0,
			"0.023": 0.0,
			"0.024": 0.0,
			"0.025": 0.0
		}
	}
}
