{
	 "smiles": "COC1=CC(N=NC2=C(C=C(C=C2Br)N(=O)=O)N(=O)=O)=C(NC(C)=O)C(=C1)N(CCOC(C)=O)CCOC(C)=O", 
	 "Tm": 405.15, 
	 "num_atms": 65, 
	 "gaussian": { 
		 "optdone": 1, 
		 "sigma_profile": "yes", 
		 "theory": "DFT", 
		 "functional": "B3LYP", 
		 "basiset": "6-31G**", 
		 "properties": { 
			 "R2extent": 31961.6993, 
			 "electric_dipole_moment_norm": 5.88694383615, 
			 "electric_quadrupole_moment_norm": 27.2566815834, 
			 "total_energy": -4543.39704277, 
			 "HOMO_LUMO_gap": 0.09954, 
			 "cosmo_polarized_energy": -33.47, 
			 "cosmo_cavitation_energy": 71.71, 
			 "cosmo_dispersion_energy": -45.11, 
			 "cosmo_repulsion_energy": 3.37, 
			 "cosmo_total_nonelectrostatic_energy": 29.97, 
			 "SMD_solvation_energy": 17.58 
		},
		"coords": [
			{
				"x": 2.2520456088,
				"y": 2.8958544782,
				"z": -1.7788254303,
				"element": "C" 
			},
			{
				"x": 1.3600937434,
				"y": 3.3260793992,
				"z": -0.7593845642,
				"element": "O" 
			},
			{
				"x": 0.5669498669,
				"y": 2.4066860583,
				"z": -0.148020428,
				"element": "C" 
			},
			{
				"x": -0.2919466453,
				"y": 2.9160448224,
				"z": 0.8320931302,
				"element": "C" 
			},
			{
				"x": -1.1278882739,
				"y": 2.0319739351,
				"z": 1.507312493,
				"element": "C" 
			},
			{
				"x": -2.0381099752,
				"y": 2.504530449,
				"z": 2.50129674,
				"element": "N" 
			},
			{
				"x": -1.7228739385,
				"y": 3.3508427331,
				"z": 3.3492352896,
				"element": "N" 
			},
			{
				"x": -0.4181637553,
				"y": 3.8179738582,
				"z": 3.6668911902,
				"element": "C" 
			},
			{
				"x": -0.1000168245,
				"y": 5.1942627151,
				"z": 3.5913744797,
				"element": "C" 
			},
			{
				"x": 1.0408064502,
				"y": 5.7397620829,
				"z": 4.1638436382,
				"element": "C" 
			},
			{
				"x": 1.9002625489,
				"y": 4.8893323242,
				"z": 4.8412612237,
				"element": "C" 
			},
			{
				"x": 1.6277042601,
				"y": 3.5291996555,
				"z": 4.9756931143,
				"element": "C" 
			},
			{
				"x": 0.4742933638,
				"y": 3.0063809688,
				"z": 4.4081158061,
				"element": "C" 
			},
			{
				"x": 0.1023495512,
				"y": 1.1661860746,
				"z": 4.7098542665,
				"element": "Br" 
			},
			{
				"x": 3.1271118571,
				"y": 5.4337965077,
				"z": 5.4389986744,
				"element": "N" 
			},
			{
				"x": 3.335375852,
				"y": 6.6371024246,
				"z": 5.3019264101,
				"element": "O" 
			},
			{
				"x": 3.8619427863,
				"y": 4.6472165282,
				"z": 6.0337746844,
				"element": "O" 
			},
			{
				"x": -0.9779910596,
				"y": 6.1096197606,
				"z": 2.8524594296,
				"element": "N" 
			},
			{
				"x": -1.7846475449,
				"y": 5.6078012387,
				"z": 2.0672880004,
				"element": "O" 
			},
			{
				"x": -0.8502716167,
				"y": 7.3127429194,
				"z": 3.0598543238,
				"element": "O" 
			},
			{
				"x": -1.2018788024,
				"y": 0.6591114577,
				"z": 1.1783097119,
				"element": "C" 
			},
			{
				"x": -1.9769838472,
				"y": -0.2232146099,
				"z": 1.970576029,
				"element": "N" 
			},
			{
				"x": -3.3497032684,
				"y": -0.3800632723,
				"z": 2.0576292717,
				"element": "C" 
			},
			{
				"x": -4.2145720242,
				"y": 0.5380433733,
				"z": 1.220901889,
				"element": "C" 
			},
			{
				"x": -3.8090770927,
				"y": -1.2460744143,
				"z": 2.79011205,
				"element": "O" 
			},
			{
				"x": -0.3330519582,
				"y": 0.1471766855,
				"z": 0.1787060596,
				"element": "C" 
			},
			{
				"x": 0.5577971004,
				"y": 1.0461589896,
				"z": -0.4558883808,
				"element": "C" 
			},
			{
				"x": -0.3022605129,
				"y": -1.2201294724,
				"z": -0.1299326235,
				"element": "N" 
			},
			{
				"x": 0.8938402102,
				"y": -1.7821209182,
				"z": -0.7603368687,
				"element": "C" 
			},
			{
				"x": 0.9872863448,
				"y": -1.6774025002,
				"z": -2.2988590047,
				"element": "C" 
			},
			{
				"x": 0.3541556608,
				"y": -2.7787096484,
				"z": -2.9778662688,
				"element": "O" 
			},
			{
				"x": 1.122312218,
				"y": -3.8973026342,
				"z": -3.1279103348,
				"element": "C" 
			},
			{
				"x": 0.3735680189,
				"y": -4.9777780304,
				"z": -3.8598019944,
				"element": "C" 
			},
			{
				"x": 2.2540077507,
				"y": -3.9772852729,
				"z": -2.7026682316,
				"element": "O" 
			},
			{
				"x": -1.5417311491,
				"y": -1.9724113378,
				"z": -0.3922758514,
				"element": "C" 
			},
			{
				"x": -1.7535560367,
				"y": -3.1436754644,
				"z": 0.5788266311,
				"element": "C" 
			},
			{
				"x": -2.8289593046,
				"y": -3.9802362282,
				"z": 0.0991555104,
				"element": "O" 
			},
			{
				"x": -2.4975723102,
				"y": -4.9857159851,
				"z": -0.7386774683,
				"element": "C" 
			},
			{
				"x": -3.7187985006,
				"y": -5.7764075826,
				"z": -1.1385873214,
				"element": "C" 
			},
			{
				"x": -1.3608539548,
				"y": -5.212770051,
				"z": -1.103412193,
				"element": "O" 
			},
			{
				"x": 2.7762058833,
				"y": 3.7914334123,
				"z": -2.1138813154,
				"element": "H" 
			},
			{
				"x": 2.9827170575,
				"y": 2.1718392107,
				"z": -1.3970581357,
				"element": "H" 
			},
			{
				"x": 1.712567147,
				"y": 2.4552019236,
				"z": -2.626631126,
				"element": "H" 
			},
			{
				"x": -0.3364062286,
				"y": 3.9817906473,
				"z": 1.0074603245,
				"element": "H" 
			},
			{
				"x": 1.2485292167,
				"y": 6.7972459021,
				"z": 4.0736899473,
				"element": "H" 
			},
			{
				"x": 2.3142439378,
				"y": 2.8988440003,
				"z": 5.525496728,
				"element": "H" 
			},
			{
				"x": -1.4706241912,
				"y": -0.8678104669,
				"z": 2.5669425363,
				"element": "H" 
			},
			{
				"x": -5.1927923735,
				"y": 0.07139448,
				"z": 1.1045410041,
				"element": "H" 
			},
			{
				"x": -4.3276627609,
				"y": 1.4932877622,
				"z": 1.7414615766,
				"element": "H" 
			},
			{
				"x": -3.7773436243,
				"y": 0.7504041524,
				"z": 0.2411108179,
				"element": "H" 
			},
			{
				"x": 1.2191375652,
				"y": 0.6806685873,
				"z": -1.226192677,
				"element": "H" 
			},
			{
				"x": 0.9593640785,
				"y": -2.8415737379,
				"z": -0.4956390954,
				"element": "H" 
			},
			{
				"x": 1.7695872948,
				"y": -1.301822917,
				"z": -0.3153366695,
				"element": "H" 
			},
			{
				"x": 0.4687016856,
				"y": -0.791521295,
				"z": -2.6712308217,
				"element": "H" 
			},
			{
				"x": 2.0392040892,
				"y": -1.6440414615,
				"z": -2.5953181351,
				"element": "H" 
			},
			{
				"x": -0.2079106707,
				"y": -4.5593373317,
				"z": -4.6846542399,
				"element": "H" 
			},
			{
				"x": -0.3191515048,
				"y": -5.4500361999,
				"z": -3.1560342052,
				"element": "H" 
			},
			{
				"x": 1.0830400263,
				"y": -5.719479557,
				"z": -4.2268084927,
				"element": "H" 
			},
			{
				"x": -1.4922724652,
				"y": -2.379047198,
				"z": -1.4082767389,
				"element": "H" 
			},
			{
				"x": -2.3979608071,
				"y": -1.299346222,
				"z": -0.3572590156,
				"element": "H" 
			},
			{
				"x": -0.8441774394,
				"y": -3.7414890825,
				"z": 0.6694077115,
				"element": "H" 
			},
			{
				"x": -2.0852919594,
				"y": -2.8069964812,
				"z": 1.5601183303,
				"element": "H" 
			},
			{
				"x": -4.4511216442,
				"y": -5.1193192571,
				"z": -1.6164882121,
				"element": "H" 
			},
			{
				"x": -4.1949254481,
				"y": -6.198927839,
				"z": -0.2489947596,
				"element": "H" 
			},
			{
				"x": -3.4304516611,
				"y": -6.575043049,
				"z": -1.8211684202,
				"element": "H" 
			}
		],
		 "valence_orbital": [ 
			{
				"type": "occ",
				"energy": -0.27538,
				"method": "rhf"
			},
			{
				"type": "occ",
				"energy": -0.26145,
				"method": "rhf"
			},
			{
				"type": "occ",
				"energy": -0.25297,
				"method": "rhf"
			},
			{
				"type": "occ",
				"energy": -0.24216,
				"method": "rhf"
			},
			{
				"type": "occ",
				"energy": -0.22017,
				"method": "rhf"
			},
			{
				"type": "unocc",
				"energy": -0.12063,
				"method": "rhf"
			},
			{
				"type": "unocc",
				"energy": -0.10882,
				"method": "rhf"
			},
			{
				"type": "unocc",
				"energy": -0.09785,
				"method": "rhf"
			},
			{
				"type": "unocc",
				"energy": -0.04727,
				"method": "rhf"
			},
			{
				"type": "unocc",
				"energy": -0.03311,
				"method": "rhf"
			}
		],
		"cosmo_sigma_profile": { 
			"-0.025": 0.0,
			"-0.024": 0.0,
			"-0.023": 0.0,
			"-0.022": 0.0,
			"-0.021": 0.0,
			"-0.02": 0.0,
			"-0.019": 0.0,
			"-0.018": 0.0,
			"-0.017": 0.0,
			"-0.016": 0.0,
			"-0.015": 0.0,
			"-0.014": 0.0,
			"-0.013": 0.0900624852316,
			"-0.012": 0.70328445149,
			"-0.011": 0.83687508783,
			"-0.01": 1.55190454099,
			"-0.009": 4.26274464445,
			"-0.008": 10.6020502971,
			"-0.007": 17.6490463611,
			"-0.006": 34.3746406789,
			"-0.005": 45.4937098196,
			"-0.004": 52.9385455354,
			"-0.003": 53.0336750212,
			"-0.002": 46.5835428206,
			"-0.001": 42.7276610269,
			"0.0": 28.7828183486,
			"0.001": 32.8366094274,
			"0.002": 35.82548282,
			"0.003": 25.2015380132,
			"0.004": 18.3987079077,
			"0.005": 18.307307083,
			"0.006": 24.8182166285,
			"0.007": 22.4910739813,
			"0.008": 17.4335725898,
			"0.009": 12.1387892669,
			"0.01": 6.27038427129,
			"0.011": 4.56927180176,
			"0.012": 6.30357979418,
			"0.013": 4.95350892425,
			"0.014": 3.93922300021,
			"0.015": 0.703143923895,
			"0.016": 0.0,
			"0.017": 0.0,
			"0.018": 0.0,
			"0.019": 0.0,
			"0.02": 0.0,
			"0.021": 0.0,
			"0.022": 0.0,
			"0.023": 0.0,
			"0.024": 0.0,
			"0.025": 0.0
		}
	}
}
