{
	 "smiles": "FS(=O)(=O)C1=NC=C(Br)C=C1", 
	 "Tm": 366.15, 
	 "num_atms": 14, 
	 "gaussian": { 
		 "optdone": 1, 
		 "sigma_profile": "yes", 
		 "theory": "DFT", 
		 "functional": "B3LYP", 
		 "basiset": "6-31G**", 
		 "properties": { 
			 "R2extent": 4004.8174, 
			 "electric_dipole_moment_norm": 5.09791424898, 
			 "electric_quadrupole_moment_norm": 5.73077926726, 
			 "total_energy": -3466.88854347, 
			 "HOMO_LUMO_gap": 0.20455, 
			 "cosmo_polarized_energy": -10.78, 
			 "cosmo_cavitation_energy": 23.57, 
			 "cosmo_dispersion_energy": -18.46, 
			 "cosmo_repulsion_energy": 1.41, 
			 "cosmo_total_nonelectrostatic_energy": 6.51, 
			 "SMD_solvation_energy": 1.17 
		},
		"coords": [
			{
				"x": -0.3328951947,
				"y": -3.1271512945,
				"z": 0.0313735392,
				"element": "F" 
			},
			{
				"x": 0.2660466233,
				"y": -2.0161986866,
				"z": 1.0438046086,
				"element": "S" 
			},
			{
				"x": -0.4179692109,
				"y": -2.2049167047,
				"z": 2.3109761689,
				"element": "O" 
			},
			{
				"x": 1.7061203672,
				"y": -2.0746875149,
				"z": 0.9160085671,
				"element": "O" 
			},
			{
				"x": -0.3990298151,
				"y": -0.5425921607,
				"z": 0.2449826128,
				"element": "C" 
			},
			{
				"x": 0.1110810651,
				"y": -0.2558598449,
				"z": -0.9453058422,
				"element": "N" 
			},
			{
				"x": -0.3388307207,
				"y": 0.8375076798,
				"z": -1.5597640649,
				"element": "C" 
			},
			{
				"x": -1.3091227265,
				"y": 1.6668035145,
				"z": -0.9816191766,
				"element": "C" 
			},
			{
				"x": -1.8967471551,
				"y": 3.2098765458,
				"z": -1.9146002593,
				"element": "Br" 
			},
			{
				"x": -1.8327785402,
				"y": 1.3517886453,
				"z": 0.2700247787,
				"element": "C" 
			},
			{
				"x": -1.3665136577,
				"y": 0.204007456,
				"z": 0.9120632675,
				"element": "C" 
			},
			{
				"x": 0.0783272837,
				"y": 1.0667816278,
				"z": -2.535866654,
				"element": "H" 
			},
			{
				"x": -2.5838510139,
				"y": 1.9831726307,
				"z": 0.7308937103,
				"element": "H" 
			},
			{
				"x": -1.7337373045,
				"y": -0.1009318938,
				"z": 1.8845287438,
				"element": "H" 
			}
		],
		 "valence_orbital": [ 
			{
				"type": "occ",
				"energy": -0.3316,
				"method": "rhf"
			},
			{
				"type": "occ",
				"energy": -0.32803,
				"method": "rhf"
			},
			{
				"type": "occ",
				"energy": -0.32563,
				"method": "rhf"
			},
			{
				"type": "occ",
				"energy": -0.30403,
				"method": "rhf"
			},
			{
				"type": "occ",
				"energy": -0.28869,
				"method": "rhf"
			},
			{
				"type": "unocc",
				"energy": -0.08414,
				"method": "rhf"
			},
			{
				"type": "unocc",
				"energy": -0.06743,
				"method": "rhf"
			},
			{
				"type": "unocc",
				"energy": -0.02495,
				"method": "rhf"
			},
			{
				"type": "unocc",
				"energy": 0.0143,
				"method": "rhf"
			},
			{
				"type": "unocc",
				"energy": 0.04667,
				"method": "rhf"
			}
		],
		"cosmo_sigma_profile": { 
			"-0.025": 0.0,
			"-0.024": 0.0,
			"-0.023": 0.0,
			"-0.022": 0.0,
			"-0.021": 0.0,
			"-0.02": 0.0,
			"-0.019": 0.0,
			"-0.018": 0.0,
			"-0.017": 0.0,
			"-0.016": 0.0,
			"-0.015": 0.0,
			"-0.014": 0.0,
			"-0.013": 0.0,
			"-0.012": 0.0,
			"-0.011": 0.00259409956657,
			"-0.01": 2.79510431801,
			"-0.009": 5.97561963921,
			"-0.008": 5.6219837301,
			"-0.007": 5.24278598751,
			"-0.006": 7.51375463648,
			"-0.005": 8.81327635618,
			"-0.004": 12.925103364,
			"-0.003": 17.3259723547,
			"-0.002": 17.3317087063,
			"-0.001": 10.5478804491,
			"0.0": 9.03728171227,
			"0.001": 11.8043767429,
			"0.002": 22.6923814279,
			"0.003": 16.1592015411,
			"0.004": 4.90634056499,
			"0.005": 3.48198359233,
			"0.006": 3.85107198053,
			"0.007": 6.52825593885,
			"0.008": 13.5692332243,
			"0.009": 6.53362851067,
			"0.01": 1.0000380767,
			"0.011": 0.651442612011,
			"0.012": 0.147057117227,
			"0.013": 0.0,
			"0.014": 0.0,
			"0.015": 0.0,
			"0.016": 0.0,
			"0.017": 0.0,
			"0.018": 0.0,
			"0.019": 0.0,
			"0.02": 0.0,
			"0.021": 0.0,
			"0.022": 0.0,
			"0.023": 0.0,
			"0.024": 0.0,
			"0.025": 0.0
		}
	}
}
