{
	 "smiles": "ClC1=CC=C(C=NNP(=O)(N2CC2)N2CC2)C=C1", 
	 "Tm": 368.65, 
	 "num_atms": 32, 
	 "gaussian": { 
		 "optdone": 1, 
		 "sigma_profile": "yes", 
		 "theory": "DFT", 
		 "functional": "B3LYP", 
		 "basiset": "6-31G**", 
		 "properties": { 
			 "R2extent": 9622.4398, 
			 "electric_dipole_moment_norm": 5.04110050386, 
			 "electric_quadrupole_moment_norm": 11.0446660058, 
			 "total_energy": -1523.3114246, 
			 "HOMO_LUMO_gap": 0.16741, 
			 "cosmo_polarized_energy": -20.35, 
			 "cosmo_cavitation_energy": 40.46, 
			 "cosmo_dispersion_energy": -28.03, 
			 "cosmo_repulsion_energy": 2.16, 
			 "cosmo_total_nonelectrostatic_energy": 14.58, 
			 "SMD_solvation_energy": 3.15 
		},
		"coords": [
			{
				"x": -0.0037208829,
				"y": -7.2739674757,
				"z": 1.7077062987,
				"element": "Cl" 
			},
			{
				"x": -0.1111334941,
				"y": -5.6883945176,
				"z": 0.9574417073,
				"element": "C" 
			},
			{
				"x": 0.3172794227,
				"y": -4.562296006,
				"z": 1.6665048759,
				"element": "C" 
			},
			{
				"x": 0.2322417101,
				"y": -3.3090093254,
				"z": 1.0725544264,
				"element": "C" 
			},
			{
				"x": -0.2777120354,
				"y": -3.1632505039,
				"z": -0.2308009846,
				"element": "C" 
			},
			{
				"x": -0.3768829319,
				"y": -1.8554394725,
				"z": -0.8814334808,
				"element": "C" 
			},
			{
				"x": 0.0518719887,
				"y": -0.783377086,
				"z": -0.3184845505,
				"element": "N" 
			},
			{
				"x": -0.0653850665,
				"y": 0.3913562202,
				"z": -0.9895532684,
				"element": "N" 
			},
			{
				"x": 0.3246090662,
				"y": 1.8661048778,
				"z": -0.2155488866,
				"element": "P" 
			},
			{
				"x": -0.1392187545,
				"y": 1.9838094434,
				"z": 1.1903900111,
				"element": "O" 
			},
			{
				"x": 1.9779620117,
				"y": 2.1738479117,
				"z": -0.3843585048,
				"element": "N" 
			},
			{
				"x": 2.9789389931,
				"y": 1.1924550094,
				"z": 0.0469082873,
				"element": "C" 
			},
			{
				"x": 2.8300744441,
				"y": 1.5411809312,
				"z": -1.3933128331,
				"element": "C" 
			},
			{
				"x": -0.3312197421,
				"y": 2.886802293,
				"z": -1.4024516268,
				"element": "N" 
			},
			{
				"x": -1.5987496882,
				"y": 3.5810019983,
				"z": -1.0981677975,
				"element": "C" 
			},
			{
				"x": -0.3228191624,
				"y": 4.3374589449,
				"z": -1.1578288636,
				"element": "C" 
			},
			{
				"x": -0.7042228037,
				"y": -4.3103465033,
				"z": -0.9178411072,
				"element": "C" 
			},
			{
				"x": -0.6239523034,
				"y": -5.572954871,
				"z": -0.3329789716,
				"element": "C" 
			},
			{
				"x": 0.7082404617,
				"y": -4.6723271878,
				"z": 2.6720573334,
				"element": "H" 
			},
			{
				"x": 0.5534354365,
				"y": -2.4250841944,
				"z": 1.6129994321,
				"element": "H" 
			},
			{
				"x": -0.8375912293,
				"y": -1.8289733514,
				"z": -1.8788697861,
				"element": "H" 
			},
			{
				"x": -0.5270521856,
				"y": 0.4127209012,
				"z": -1.8984027082,
				"element": "H" 
			},
			{
				"x": 3.7997903667,
				"y": 1.6039228744,
				"z": 0.6287118408,
				"element": "H" 
			},
			{
				"x": 2.6316160937,
				"y": 0.2116357821,
				"z": 0.3651864189,
				"element": "H" 
			},
			{
				"x": 2.3829732492,
				"y": 0.7941282686,
				"z": -2.0461254994,
				"element": "H" 
			},
			{
				"x": 3.5424710957,
				"y": 2.2094696069,
				"z": -1.8705189343,
				"element": "H" 
			},
			{
				"x": -2.0346985574,
				"y": 3.414131015,
				"z": -0.1158861457,
				"element": "H" 
			},
			{
				"x": -2.2993330115,
				"y": 3.6256799032,
				"z": -1.9279168347,
				"element": "H" 
			},
			{
				"x": 0.0938049595,
				"y": 4.6942187537,
				"z": -0.2187806615,
				"element": "H" 
			},
			{
				"x": -0.0826283567,
				"y": 4.9391683526,
				"z": -2.0304770611,
				"element": "H" 
			},
			{
				"x": -1.1038330897,
				"y": -4.2163089893,
				"z": -1.9244624746,
				"element": "H" 
			},
			{
				"x": -0.9542560042,
				"y": -6.4555636033,
				"z": -0.8692596507,
				"element": "H" 
			}
		],
		 "valence_orbital": [ 
			{
				"type": "occ",
				"energy": -0.27386,
				"method": "rhf"
			},
			{
				"type": "occ",
				"energy": -0.26501,
				"method": "rhf"
			},
			{
				"type": "occ",
				"energy": -0.26193,
				"method": "rhf"
			},
			{
				"type": "occ",
				"energy": -0.25887,
				"method": "rhf"
			},
			{
				"type": "occ",
				"energy": -0.21564,
				"method": "rhf"
			},
			{
				"type": "unocc",
				"energy": -0.04823,
				"method": "rhf"
			},
			{
				"type": "unocc",
				"energy": -0.01363,
				"method": "rhf"
			},
			{
				"type": "unocc",
				"energy": 0.03058,
				"method": "rhf"
			},
			{
				"type": "unocc",
				"energy": 0.03941,
				"method": "rhf"
			},
			{
				"type": "unocc",
				"energy": 0.05551,
				"method": "rhf"
			}
		],
		"cosmo_sigma_profile": { 
			"-0.025": 0.0,
			"-0.024": 0.0,
			"-0.023": 0.0,
			"-0.022": 0.0,
			"-0.021": 0.0,
			"-0.02": 0.0,
			"-0.019": 0.0,
			"-0.018": 0.0,
			"-0.017": 0.0,
			"-0.016": 0.0,
			"-0.015": 0.121519476617,
			"-0.014": 0.917100217868,
			"-0.013": 1.38978672967,
			"-0.012": 1.02143795081,
			"-0.011": 0.956869843322,
			"-0.01": 1.20640870935,
			"-0.009": 1.47628102772,
			"-0.008": 3.00833997353,
			"-0.007": 12.5287306429,
			"-0.006": 20.7049395135,
			"-0.005": 23.5239912734,
			"-0.004": 23.7552288634,
			"-0.003": 26.6737275467,
			"-0.002": 21.9228142154,
			"-0.001": 22.5046712547,
			"0.0": 20.8656588694,
			"0.001": 21.9688489218,
			"0.002": 22.9397212535,
			"0.003": 27.0817539124,
			"0.004": 20.8188158946,
			"0.005": 11.8479157522,
			"0.006": 3.99062022858,
			"0.007": 3.4195339609,
			"0.008": 2.92069082701,
			"0.009": 2.55110679924,
			"0.01": 3.20329618687,
			"0.011": 2.62250784696,
			"0.012": 3.31185794616,
			"0.013": 2.39108663476,
			"0.014": 3.90256912698,
			"0.015": 5.83939848931,
			"0.016": 1.15779832266,
			"0.017": 0.0,
			"0.018": 0.0,
			"0.019": 0.0,
			"0.02": 0.0,
			"0.021": 0.0,
			"0.022": 0.0,
			"0.023": 0.0,
			"0.024": 0.0,
			"0.025": 0.0
		}
	}
}
