{
	 "smiles": "CCC1=CC=CC(C)=C1", 
	 "Tm": 177.35, 
	 "num_atms": 21, 
	 "gaussian": { 
		 "optdone": 1, 
		 "sigma_profile": "yes", 
		 "theory": "DFT", 
		 "functional": "B3LYP", 
		 "basiset": "6-31G**", 
		 "properties": { 
			 "R2extent": 1645.1609, 
			 "electric_dipole_moment_norm": 0.286248720521, 
			 "electric_quadrupole_moment_norm": 4.03703392109, 
			 "total_energy": -350.208350535, 
			 "HOMO_LUMO_gap": 0.23617, 
			 "cosmo_polarized_energy": -3.04, 
			 "cosmo_cavitation_energy": 23.61, 
			 "cosmo_dispersion_energy": -17.1, 
			 "cosmo_repulsion_energy": 1.42, 
			 "cosmo_total_nonelectrostatic_energy": 7.93, 
			 "SMD_solvation_energy": 4.09 
		},
		"coords": [
			{
				"x": -0.0967102651,
				"y": 0.9518256892,
				"z": -2.7359426444,
				"element": "C" 
			},
			{
				"x": -0.8192303356,
				"y": 1.3226330462,
				"z": -1.428204439,
				"element": "C" 
			},
			{
				"x": 0.0671628053,
				"y": 1.1885444574,
				"z": -0.2072103359,
				"element": "C" 
			},
			{
				"x": 0.8579105689,
				"y": 2.2593855389,
				"z": 0.2283677334,
				"element": "C" 
			},
			{
				"x": 1.7045778591,
				"y": 2.1121198336,
				"z": 1.3273979529,
				"element": "C" 
			},
			{
				"x": 1.7707443459,
				"y": 0.8955810405,
				"z": 2.0061866985,
				"element": "C" 
			},
			{
				"x": 0.9867408281,
				"y": -0.1912080898,
				"z": 1.5966781349,
				"element": "C" 
			},
			{
				"x": 1.0242542959,
				"y": -1.5008075522,
				"z": 2.3503274301,
				"element": "C" 
			},
			{
				"x": 0.1463690383,
				"y": -0.0243317285,
				"z": 0.4893571285,
				"element": "C" 
			},
			{
				"x": 0.257454474,
				"y": -0.0838112154,
				"z": -2.7074687702,
				"element": "H" 
			},
			{
				"x": 0.774747147,
				"y": 1.5945897155,
				"z": -2.8976867344,
				"element": "H" 
			},
			{
				"x": -0.7635764257,
				"y": 1.0596505113,
				"z": -3.5980914,
				"element": "H" 
			},
			{
				"x": -1.7028054711,
				"y": 0.6835501051,
				"z": -1.311523628,
				"element": "H" 
			},
			{
				"x": -1.1880965697,
				"y": 2.352911282,
				"z": -1.5005679378,
				"element": "H" 
			},
			{
				"x": 0.8093627412,
				"y": 3.2110290118,
				"z": -0.2958504928,
				"element": "H" 
			},
			{
				"x": 2.3149091631,
				"y": 2.9488752715,
				"z": 1.6566072199,
				"element": "H" 
			},
			{
				"x": 2.4328789093,
				"y": 0.7877579451,
				"z": 2.8620026108,
				"element": "H" 
			},
			{
				"x": 2.0243811738,
				"y": -1.7078023881,
				"z": 2.7440070798,
				"element": "H" 
			},
			{
				"x": 0.3366149365,
				"y": -1.4870909046,
				"z": 3.2055219219,
				"element": "H" 
			},
			{
				"x": 0.7316851808,
				"y": -2.3397160343,
				"z": 1.7117677764,
				"element": "H" 
			},
			{
				"x": -0.4664743999,
				"y": -0.8621855351,
				"z": 0.1606246953,
				"element": "H" 
			}
		],
		 "valence_orbital": [ 
			{
				"type": "occ",
				"energy": -0.3347,
				"method": "rhf"
			},
			{
				"type": "occ",
				"energy": -0.32528,
				"method": "rhf"
			},
			{
				"type": "occ",
				"energy": -0.32087,
				"method": "rhf"
			},
			{
				"type": "occ",
				"energy": -0.23726,
				"method": "rhf"
			},
			{
				"type": "occ",
				"energy": -0.22987,
				"method": "rhf"
			},
			{
				"type": "unocc",
				"energy": 0.0063,
				"method": "rhf"
			},
			{
				"type": "unocc",
				"energy": 0.00742,
				"method": "rhf"
			},
			{
				"type": "unocc",
				"energy": 0.0967,
				"method": "rhf"
			},
			{
				"type": "unocc",
				"energy": 0.11498,
				"method": "rhf"
			},
			{
				"type": "unocc",
				"energy": 0.12538,
				"method": "rhf"
			}
		],
		"cosmo_sigma_profile": { 
			"-0.025": 0.0,
			"-0.024": 0.0,
			"-0.023": 0.0,
			"-0.022": 0.0,
			"-0.021": 0.0,
			"-0.02": 0.0,
			"-0.019": 0.0,
			"-0.018": 0.0,
			"-0.017": 0.0,
			"-0.016": 0.0,
			"-0.015": 0.0,
			"-0.014": 0.0,
			"-0.013": 0.0,
			"-0.012": 0.0,
			"-0.011": 0.0,
			"-0.01": 0.0,
			"-0.009": 0.0,
			"-0.008": 0.0,
			"-0.007": 0.0,
			"-0.006": 0.187175214565,
			"-0.005": 4.01609078027,
			"-0.004": 14.1096222736,
			"-0.003": 24.2812079642,
			"-0.002": 24.728803959,
			"-0.001": 23.7412798686,
			"0.0": 25.9373553651,
			"0.001": 21.533366349,
			"0.002": 10.4192766903,
			"0.003": 7.75348431319,
			"0.004": 7.61705137033,
			"0.005": 7.26204285902,
			"0.006": 7.1578381389,
			"0.007": 6.08318115611,
			"0.008": 0.635005532859,
			"0.009": 0.0,
			"0.01": 0.0,
			"0.011": 0.0,
			"0.012": 0.0,
			"0.013": 0.0,
			"0.014": 0.0,
			"0.015": 0.0,
			"0.016": 0.0,
			"0.017": 0.0,
			"0.018": 0.0,
			"0.019": 0.0,
			"0.02": 0.0,
			"0.021": 0.0,
			"0.022": 0.0,
			"0.023": 0.0,
			"0.024": 0.0,
			"0.025": 0.0
		}
	}
}
