{
	 "smiles": "CC(=O)C1=C(N)C=C(S1)C1=CC=C(C=C1)C(C)(C)C", 
	 "Tm": 453.15, 
	 "num_atms": 38, 
	 "gaussian": { 
		 "optdone": 1, 
		 "sigma_profile": "yes", 
		 "theory": "DFT", 
		 "functional": "B3LYP", 
		 "basiset": "6-31G**", 
		 "properties": { 
			 "R2extent": 11024.2619, 
			 "electric_dipole_moment_norm": 3.93560049929, 
			 "electric_quadrupole_moment_norm": 25.1032988836, 
			 "total_energy": -1149.34414916, 
			 "HOMO_LUMO_gap": 0.14026, 
			 "cosmo_polarized_energy": -11.82, 
			 "cosmo_cavitation_energy": 41.21, 
			 "cosmo_dispersion_energy": -29.92, 
			 "cosmo_repulsion_energy": 2.24, 
			 "cosmo_total_nonelectrostatic_energy": 13.52, 
			 "SMD_solvation_energy": 7.13 
		},
		"coords": [
			{
				"x": -5.4447969262,
				"y": -0.4433891104,
				"z": 4.3203155434,
				"element": "C" 
			},
			{
				"x": -4.5142937012,
				"y": -1.6093155427,
				"z": 4.6100576491,
				"element": "C" 
			},
			{
				"x": -4.7921807599,
				"y": -2.4187143581,
				"z": 5.5098204127,
				"element": "O" 
			},
			{
				"x": -3.3138023698,
				"y": -1.7616037644,
				"z": 3.8194116112,
				"element": "C" 
			},
			{
				"x": -2.3880018077,
				"y": -2.8070935863,
				"z": 3.9593332056,
				"element": "C" 
			},
			{
				"x": -2.4751281943,
				"y": -3.7554083694,
				"z": 4.9320679263,
				"element": "N" 
			},
			{
				"x": -1.3302699435,
				"y": -2.7300985257,
				"z": 3.0016482497,
				"element": "C" 
			},
			{
				"x": -1.4278491078,
				"y": -1.6549161779,
				"z": 2.1498580747,
				"element": "C" 
			},
			{
				"x": -2.8463909788,
				"y": -0.6948690194,
				"z": 2.4966567264,
				"element": "S" 
			},
			{
				"x": -0.5107329682,
				"y": -1.2878288051,
				"z": 1.0644027685,
				"element": "C" 
			},
			{
				"x": 0.2566938318,
				"y": -2.2660854976,
				"z": 0.4131356251,
				"element": "C" 
			},
			{
				"x": 1.1393395144,
				"y": -1.9263152481,
				"z": -0.6106408422,
				"element": "C" 
			},
			{
				"x": 1.2927769782,
				"y": -0.6004901115,
				"z": -1.0406113798,
				"element": "C" 
			},
			{
				"x": 0.5149333839,
				"y": 0.3724997382,
				"z": -0.3882788622,
				"element": "C" 
			},
			{
				"x": -0.3623810938,
				"y": 0.0440852053,
				"z": 0.6381610702,
				"element": "C" 
			},
			{
				"x": 2.2531230443,
				"y": -0.1896974305,
				"z": -2.1702239686,
				"element": "C" 
			},
			{
				"x": 1.4491076193,
				"y": 0.4809842974,
				"z": -3.3099040214,
				"element": "C" 
			},
			{
				"x": 3.2947705029,
				"y": 0.8135906748,
				"z": -1.6190641904,
				"element": "C" 
			},
			{
				"x": 3.0110546072,
				"y": -1.3938775411,
				"z": -2.7605517948,
				"element": "C" 
			},
			{
				"x": -6.2841982907,
				"y": -0.4802720616,
				"z": 5.0157064458,
				"element": "H" 
			},
			{
				"x": -5.8227832511,
				"y": -0.4904706815,
				"z": 3.2925614915,
				"element": "H" 
			},
			{
				"x": -4.9216237239,
				"y": 0.5131236645,
				"z": 4.4320404371,
				"element": "H" 
			},
			{
				"x": -1.9534232575,
				"y": -4.6110325316,
				"z": 4.8345668614,
				"element": "H" 
			},
			{
				"x": -3.3416998573,
				"y": -3.7482433417,
				"z": 5.4617886549,
				"element": "H" 
			},
			{
				"x": -0.5014958488,
				"y": -3.4289879497,
				"z": 2.9798109767,
				"element": "H" 
			},
			{
				"x": 0.145403753,
				"y": -3.3090954303,
				"z": 0.6935671506,
				"element": "H" 
			},
			{
				"x": 1.7049647739,
				"y": -2.7214013432,
				"z": -1.0825711427,
				"element": "H" 
			},
			{
				"x": 0.5989814783,
				"y": 1.4152011967,
				"z": -0.6797761181,
				"element": "H" 
			},
			{
				"x": -0.9252206275,
				"y": 0.8315637279,
				"z": 1.1311924875,
				"element": "H" 
			},
			{
				"x": 0.9188999122,
				"y": 1.3733902219,
				"z": -2.964526538,
				"element": "H" 
			},
			{
				"x": 0.7068614292,
				"y": -0.2089355053,
				"z": -3.7245024811,
				"element": "H" 
			},
			{
				"x": 2.1204435906,
				"y": 0.7856536241,
				"z": -4.1206461135,
				"element": "H" 
			},
			{
				"x": 3.9833812662,
				"y": 1.1216877581,
				"z": -2.4138504302,
				"element": "H" 
			},
			{
				"x": 3.8846877435,
				"y": 0.3635545878,
				"z": -0.8138929564,
				"element": "H" 
			},
			{
				"x": 2.8210989663,
				"y": 1.7159902673,
				"z": -1.2214466749,
				"element": "H" 
			},
			{
				"x": 2.3292161343,
				"y": -2.1312978107,
				"z": -3.1968161936,
				"element": "H" 
			},
			{
				"x": 3.6257933369,
				"y": -1.8982096125,
				"z": -2.0076842482,
				"element": "H" 
			},
			{
				"x": 3.680240842,
				"y": -1.0529756078,
				"z": -3.5570154125,
				"element": "H" 
			}
		],
		 "valence_orbital": [ 
			{
				"type": "occ",
				"energy": -0.26552,
				"method": "rhf"
			},
			{
				"type": "occ",
				"energy": -0.25639,
				"method": "rhf"
			},
			{
				"type": "occ",
				"energy": -0.23895,
				"method": "rhf"
			},
			{
				"type": "occ",
				"energy": -0.22634,
				"method": "rhf"
			},
			{
				"type": "occ",
				"energy": -0.19691,
				"method": "rhf"
			},
			{
				"type": "unocc",
				"energy": -0.05665,
				"method": "rhf"
			},
			{
				"type": "unocc",
				"energy": -0.00961,
				"method": "rhf"
			},
			{
				"type": "unocc",
				"energy": 7e-05,
				"method": "rhf"
			},
			{
				"type": "unocc",
				"energy": 0.02769,
				"method": "rhf"
			},
			{
				"type": "unocc",
				"energy": 0.04827,
				"method": "rhf"
			}
		],
		"cosmo_sigma_profile": { 
			"-0.025": 0.0,
			"-0.024": 0.0,
			"-0.023": 0.0,
			"-0.022": 0.0,
			"-0.021": 0.0,
			"-0.02": 0.0,
			"-0.019": 0.0,
			"-0.018": 0.0,
			"-0.017": 0.0,
			"-0.016": 0.0,
			"-0.015": 0.0,
			"-0.014": 0.607597502063,
			"-0.013": 1.52879634758,
			"-0.012": 1.48868943599,
			"-0.011": 0.977213700263,
			"-0.01": 1.29007546398,
			"-0.009": 2.13497247503,
			"-0.008": 3.00467233349,
			"-0.007": 4.36147040963,
			"-0.006": 7.63505785001,
			"-0.005": 14.3590688461,
			"-0.004": 19.4173200147,
			"-0.003": 31.3062566508,
			"-0.002": 32.9589858286,
			"-0.001": 33.3762980594,
			"0.0": 28.9265863935,
			"0.001": 33.7521206279,
			"0.002": 25.3707269602,
			"0.003": 27.0808510562,
			"0.004": 19.8449838477,
			"0.005": 16.4097950482,
			"0.006": 3.54821109137,
			"0.007": 2.85176678914,
			"0.008": 2.80319876498,
			"0.009": 1.49986041336,
			"0.01": 2.25400321395,
			"0.011": 1.61206870619,
			"0.012": 2.10292832667,
			"0.013": 2.19024241745,
			"0.014": 1.60035437772,
			"0.015": 0.399947275768,
			"0.016": 0.0,
			"0.017": 0.0,
			"0.018": 0.0,
			"0.019": 0.0,
			"0.02": 0.0,
			"0.021": 0.0,
			"0.022": 0.0,
			"0.023": 0.0,
			"0.024": 0.0,
			"0.025": 0.0
		}
	}
}
