{
	 "smiles": "COC1=CC=C(C=C(/C(O)=O)C(=CC2=CC(OC)=C(OC)C=C2)C(O)=O)C=C1OC", 
	 "Tm": 497.15, 
	 "num_atms": 52, 
	 "gaussian": { 
		 "optdone": 1, 
		 "sigma_profile": "yes", 
		 "theory": "DFT", 
		 "functional": "B3LYP", 
		 "basiset": "6-31G**", 
		 "properties": { 
			 "R2extent": 21043.4586, 
			 "electric_dipole_moment_norm": 4.82028937098, 
			 "electric_quadrupole_moment_norm": 32.5068548931, 
			 "total_energy": -1453.31859344, 
			 "HOMO_LUMO_gap": 0.1335, 
			 "cosmo_polarized_energy": -27.14, 
			 "cosmo_cavitation_energy": 57.42, 
			 "cosmo_dispersion_energy": -38.8, 
			 "cosmo_repulsion_energy": 2.99, 
			 "cosmo_total_nonelectrostatic_energy": 21.62, 
			 "SMD_solvation_energy": 14.51 
		},
		"coords": [
			{
				"x": -4.3041141535,
				"y": -3.1899872236,
				"z": 4.9784808212,
				"element": "C" 
			},
			{
				"x": -3.6893367547,
				"y": -1.8972134034,
				"z": 4.8886933878,
				"element": "O" 
			},
			{
				"x": -2.9146719268,
				"y": -1.6941276975,
				"z": 3.7719778823,
				"element": "C" 
			},
			{
				"x": -3.3011480982,
				"y": -0.7184201927,
				"z": 2.8513536759,
				"element": "C" 
			},
			{
				"x": -2.5229152972,
				"y": -0.4601068809,
				"z": 1.7269587784,
				"element": "C" 
			},
			{
				"x": -1.3515306912,
				"y": -1.1963519933,
				"z": 1.4714955086,
				"element": "C" 
			},
			{
				"x": -0.5700881614,
				"y": -0.8776435536,
				"z": 0.2726650678,
				"element": "C" 
			},
			{
				"x": 0.2579169991,
				"y": -1.6527773656,
				"z": -0.4739126056,
				"element": "C" 
			},
			{
				"x": 0.4093872266,
				"y": -3.1350770189,
				"z": -0.3076071068,
				"element": "C" 
			},
			{
				"x": -0.7548861236,
				"y": -3.7828365715,
				"z": -0.0915417916,
				"element": "O" 
			},
			{
				"x": 1.4745481917,
				"y": -3.7148113284,
				"z": -0.3861392646,
				"element": "O" 
			},
			{
				"x": 1.1283846635,
				"y": -1.053441087,
				"z": -1.5125819394,
				"element": "C" 
			},
			{
				"x": 1.7094263973,
				"y": 0.1593841954,
				"z": -1.3050548832,
				"element": "C" 
			},
			{
				"x": 2.4225164392,
				"y": 1.0667835936,
				"z": -2.2046028212,
				"element": "C" 
			},
			{
				"x": 2.1764586746,
				"y": 1.1609681762,
				"z": -3.5894749169,
				"element": "C" 
			},
			{
				"x": 2.8589786384,
				"y": 2.0635478153,
				"z": -4.3899089695,
				"element": "C" 
			},
			{
				"x": 2.6131439622,
				"y": 2.0640546525,
				"z": -5.7408518312,
				"element": "O" 
			},
			{
				"x": 1.9756605096,
				"y": 3.233388898,
				"z": -6.260830135,
				"element": "C" 
			},
			{
				"x": 3.8316830805,
				"y": 2.9204496258,
				"z": -3.8181178015,
				"element": "C" 
			},
			{
				"x": 4.4764384282,
				"y": 3.7552057992,
				"z": -4.6788569097,
				"element": "O" 
			},
			{
				"x": 5.487857851,
				"y": 4.6071561514,
				"z": -4.1597415428,
				"element": "C" 
			},
			{
				"x": 4.0606544727,
				"y": 2.8628779082,
				"z": -2.4397371146,
				"element": "C" 
			},
			{
				"x": 3.3534853035,
				"y": 1.9585112775,
				"z": -1.6488434615,
				"element": "C" 
			},
			{
				"x": 1.2713040117,
				"y": -1.884461285,
				"z": -2.7469453241,
				"element": "C" 
			},
			{
				"x": 2.4656425439,
				"y": -1.7620176491,
				"z": -3.3655479891,
				"element": "O" 
			},
			{
				"x": 0.4098245081,
				"y": -2.6445337281,
				"z": -3.1467561331,
				"element": "O" 
			},
			{
				"x": -0.9498342651,
				"y": -2.1494221166,
				"z": 2.425306656,
				"element": "C" 
			},
			{
				"x": -1.7098197242,
				"y": -2.3972125474,
				"z": 3.5631189441,
				"element": "C" 
			},
			{
				"x": -1.2731737996,
				"y": -3.3519712295,
				"z": 4.4562067287,
				"element": "O" 
			},
			{
				"x": -0.8322747135,
				"y": -2.8347395796,
				"z": 5.7176364998,
				"element": "C" 
			},
			{
				"x": -3.5562809546,
				"y": -3.9880577727,
				"z": 4.9917969982,
				"element": "H" 
			},
			{
				"x": -4.9926157181,
				"y": -3.3478782724,
				"z": 4.1392158838,
				"element": "H" 
			},
			{
				"x": -4.8681495152,
				"y": -3.1934086755,
				"z": 5.9132379656,
				"element": "H" 
			},
			{
				"x": -4.2192314467,
				"y": -0.1709768969,
				"z": 3.0393361781,
				"element": "H" 
			},
			{
				"x": -2.8382714185,
				"y": 0.3019802841,
				"z": 1.0197958175,
				"element": "H" 
			},
			{
				"x": -0.6652607169,
				"y": 0.1565081943,
				"z": -0.054213809,
				"element": "H" 
			},
			{
				"x": -0.5217217833,
				"y": -4.7229305596,
				"z": -0.0097792373,
				"element": "H" 
			},
			{
				"x": 1.6181112272,
				"y": 0.5415145762,
				"z": -0.2894372563,
				"element": "H" 
			},
			{
				"x": 1.4352152964,
				"y": 0.5350139728,
				"z": -4.0708432116,
				"element": "H" 
			},
			{
				"x": 1.8158131195,
				"y": 3.0437834133,
				"z": -7.3242003361,
				"element": "H" 
			},
			{
				"x": 2.6020061566,
				"y": 4.1220475819,
				"z": -6.1390605099,
				"element": "H" 
			},
			{
				"x": 1.0052739767,
				"y": 3.3988461185,
				"z": -5.7747453129,
				"element": "H" 
			},
			{
				"x": 5.0827490631,
				"y": 5.3170788773,
				"z": -3.4275159435,
				"element": "H" 
			},
			{
				"x": 5.8832710679,
				"y": 5.1577552415,
				"z": -5.0143071312,
				"element": "H" 
			},
			{
				"x": 6.2968339161,
				"y": 4.0311937463,
				"z": -3.6938965737,
				"element": "H" 
			},
			{
				"x": 4.7882589276,
				"y": 3.5180514629,
				"z": -1.975890115,
				"element": "H" 
			},
			{
				"x": 3.5449653893,
				"y": 1.9310143648,
				"z": -0.57968893,
				"element": "H" 
			},
			{
				"x": 2.4267756801,
				"y": -2.357215799,
				"z": -4.1328753427,
				"element": "H" 
			},
			{
				"x": -0.0205220003,
				"y": -2.696505514,
				"z": 2.3139499962,
				"element": "H" 
			},
			{
				"x": -1.6362230413,
				"y": -2.300233153,
				"z": 6.2334946269,
				"element": "H" 
			},
			{
				"x": 0.0244254476,
				"y": -2.1627433246,
				"z": 5.5823997328,
				"element": "H" 
			},
			{
				"x": -0.5226408659,
				"y": -3.6977135077,
				"z": 6.3105851012,
				"element": "H" 
			}
		],
		 "valence_orbital": [ 
			{
				"type": "occ",
				"energy": -0.26075,
				"method": "rhf"
			},
			{
				"type": "occ",
				"energy": -0.24426,
				"method": "rhf"
			},
			{
				"type": "occ",
				"energy": -0.24203,
				"method": "rhf"
			},
			{
				"type": "occ",
				"energy": -0.2253,
				"method": "rhf"
			},
			{
				"type": "occ",
				"energy": -0.20288,
				"method": "rhf"
			},
			{
				"type": "unocc",
				"energy": -0.06938,
				"method": "rhf"
			},
			{
				"type": "unocc",
				"energy": -0.03395,
				"method": "rhf"
			},
			{
				"type": "unocc",
				"energy": -0.00137,
				"method": "rhf"
			},
			{
				"type": "unocc",
				"energy": -0.00114,
				"method": "rhf"
			},
			{
				"type": "unocc",
				"energy": 0.01729,
				"method": "rhf"
			}
		],
		"cosmo_sigma_profile": { 
			"-0.025": 0.0,
			"-0.024": 0.0,
			"-0.023": 0.0,
			"-0.022": 0.0,
			"-0.021": 0.0,
			"-0.02": 0.0,
			"-0.019": 0.167808605315,
			"-0.018": 1.34858148346,
			"-0.017": 2.00122663061,
			"-0.016": 1.53719088374,
			"-0.015": 1.75318785072,
			"-0.014": 1.2300190819,
			"-0.013": 0.913091892385,
			"-0.012": 1.14091429672,
			"-0.011": 1.90155634253,
			"-0.01": 1.9808592595,
			"-0.009": 0.973210750436,
			"-0.008": 0.957226653994,
			"-0.007": 10.3270125785,
			"-0.006": 29.0578317528,
			"-0.005": 34.2568186431,
			"-0.004": 38.0411875343,
			"-0.003": 44.5632327979,
			"-0.002": 38.2785474515,
			"-0.001": 27.0954295615,
			"0.0": 24.4479590971,
			"0.001": 25.2418504342,
			"0.002": 23.8689679472,
			"0.003": 27.0283987506,
			"0.004": 25.0870501543,
			"0.005": 15.6820424863,
			"0.006": 11.4974153202,
			"0.007": 10.9795992637,
			"0.008": 12.8276425574,
			"0.009": 11.0026324992,
			"0.01": 9.43841016087,
			"0.011": 12.1504527219,
			"0.012": 8.82811344234,
			"0.013": 0.311059066699,
			"0.014": 0.0,
			"0.015": 0.0,
			"0.016": 0.0,
			"0.017": 0.0,
			"0.018": 0.0,
			"0.019": 0.0,
			"0.02": 0.0,
			"0.021": 0.0,
			"0.022": 0.0,
			"0.023": 0.0,
			"0.024": 0.0,
			"0.025": 0.0
		}
	}
}
