{
	 "smiles": "CC(C)(C)OC(=O)NC(CC1=CC=C(F)C=C1)C(O)=O", 
	 "Tm": 403.15, 
	 "num_atms": 38, 
	 "gaussian": { 
		 "optdone": 1, 
		 "sigma_profile": "yes", 
		 "theory": "DFT", 
		 "functional": "B3LYP", 
		 "basiset": "6-31G**", 
		 "properties": { 
			 "R2extent": 7304.8577, 
			 "electric_dipole_moment_norm": 1.84457371769, 
			 "electric_quadrupole_moment_norm": 26.3577074356, 
			 "total_energy": -999.873099421, 
			 "HOMO_LUMO_gap": 0.22348, 
			 "cosmo_polarized_energy": -18.1, 
			 "cosmo_cavitation_energy": 41.97, 
			 "cosmo_dispersion_energy": -27.24, 
			 "cosmo_repulsion_energy": 2.1, 
			 "cosmo_total_nonelectrostatic_energy": 16.83, 
			 "SMD_solvation_energy": 9.36 
		},
		"coords": [
			{
				"x": 1.0066164692,
				"y": 2.1663086139,
				"z": 3.2543003325,
				"element": "C" 
			},
			{
				"x": 1.7039384772,
				"y": 1.6924211793,
				"z": 1.976220905,
				"element": "C" 
			},
			{
				"x": 2.4975711386,
				"y": 2.8283038276,
				"z": 1.3285418749,
				"element": "C" 
			},
			{
				"x": 2.5873132923,
				"y": 0.4642643805,
				"z": 2.2114461362,
				"element": "C" 
			},
			{
				"x": 0.6877559254,
				"y": 1.3855108477,
				"z": 0.9438207062,
				"element": "O" 
			},
			{
				"x": -0.2387863308,
				"y": 0.4310275124,
				"z": 1.1345562407,
				"element": "C" 
			},
			{
				"x": -0.3566557172,
				"y": -0.305637116,
				"z": 2.0946894381,
				"element": "O" 
			},
			{
				"x": -1.1316873522,
				"y": 0.4141215854,
				"z": 0.062037741,
				"element": "N" 
			},
			{
				"x": -0.7899378801,
				"y": 0.9671632074,
				"z": -1.2512938894,
				"element": "C" 
			},
			{
				"x": -1.6797463774,
				"y": 0.3350020007,
				"z": -2.3508188431,
				"element": "C" 
			},
			{
				"x": -1.521608245,
				"y": -1.1653072641,
				"z": -2.4718518155,
				"element": "C" 
			},
			{
				"x": -2.5162385552,
				"y": -2.0363094804,
				"z": -2.0064468352,
				"element": "C" 
			},
			{
				"x": -2.3668493126,
				"y": -3.422395147,
				"z": -2.0933640622,
				"element": "C" 
			},
			{
				"x": -1.2041636683,
				"y": -3.9305115318,
				"z": -2.6569968137,
				"element": "C" 
			},
			{
				"x": -1.048277826,
				"y": -5.2661056203,
				"z": -2.7497907903,
				"element": "F" 
			},
			{
				"x": -0.1957846089,
				"y": -3.098744664,
				"z": -3.135701933,
				"element": "C" 
			},
			{
				"x": -0.362975662,
				"y": -1.7194852827,
				"z": -3.038583549,
				"element": "C" 
			},
			{
				"x": -0.98441695,
				"y": 2.4941151311,
				"z": -1.2958347664,
				"element": "C" 
			},
			{
				"x": -1.7879486028,
				"y": 2.9999986293,
				"z": -0.3426898029,
				"element": "O" 
			},
			{
				"x": -0.4998957086,
				"y": 3.1739517413,
				"z": -2.1673870101,
				"element": "O" 
			},
			{
				"x": 0.4196552507,
				"y": 1.364120434,
				"z": 3.7029722027,
				"element": "H" 
			},
			{
				"x": 1.7583937661,
				"y": 2.4981114334,
				"z": 3.977333327,
				"element": "H" 
			},
			{
				"x": 0.3489212514,
				"y": 3.0136556428,
				"z": 3.0367612406,
				"element": "H" 
			},
			{
				"x": 1.8472597993,
				"y": 3.6797429306,
				"z": 1.1100490183,
				"element": "H" 
			},
			{
				"x": 3.2912859724,
				"y": 3.1599972966,
				"z": 2.0043213273,
				"element": "H" 
			},
			{
				"x": 2.9558892333,
				"y": 2.4966560025,
				"z": 0.3925143728,
				"element": "H" 
			},
			{
				"x": 2.015576487,
				"y": -0.353899921,
				"z": 2.6502433331,
				"element": "H" 
			},
			{
				"x": 3.0286243258,
				"y": 0.1259315971,
				"z": 1.2686896312,
				"element": "H" 
			},
			{
				"x": 3.4035725944,
				"y": 0.7287845582,
				"z": 2.8911381757,
				"element": "H" 
			},
			{
				"x": -1.6606595179,
				"y": -0.4505361316,
				"z": 0.0540837088,
				"element": "H" 
			},
			{
				"x": 0.2618712729,
				"y": 0.7864173952,
				"z": -1.4922336858,
				"element": "H" 
			},
			{
				"x": -2.7270205319,
				"y": 0.5852267981,
				"z": -2.1437625503,
				"element": "H" 
			},
			{
				"x": -1.4130399698,
				"y": 0.8326186392,
				"z": -3.2879253379,
				"element": "H" 
			},
			{
				"x": -3.4322214126,
				"y": -1.6295844067,
				"z": -1.5842298009,
				"element": "H" 
			},
			{
				"x": -3.1340024822,
				"y": -4.1017688644,
				"z": -1.7383761238,
				"element": "H" 
			},
			{
				"x": 0.6935563722,
				"y": -3.5355363777,
				"z": -3.5769240147,
				"element": "H" 
			},
			{
				"x": 0.4169895197,
				"y": -1.0633210499,
				"z": -3.4164503368,
				"element": "H" 
			},
			{
				"x": -2.0199744366,
				"y": 2.2617914735,
				"z": 0.2521422487,
				"element": "H" 
			}
		],
		 "valence_orbital": [ 
			{
				"type": "occ",
				"energy": -0.29612,
				"method": "rhf"
			},
			{
				"type": "occ",
				"energy": -0.2812,
				"method": "rhf"
			},
			{
				"type": "occ",
				"energy": -0.27487,
				"method": "rhf"
			},
			{
				"type": "occ",
				"energy": -0.26082,
				"method": "rhf"
			},
			{
				"type": "occ",
				"energy": -0.25236,
				"method": "rhf"
			},
			{
				"type": "unocc",
				"energy": -0.02888,
				"method": "rhf"
			},
			{
				"type": "unocc",
				"energy": -0.01772,
				"method": "rhf"
			},
			{
				"type": "unocc",
				"energy": 0.01494,
				"method": "rhf"
			},
			{
				"type": "unocc",
				"energy": 0.0291,
				"method": "rhf"
			},
			{
				"type": "unocc",
				"energy": 0.06563,
				"method": "rhf"
			}
		],
		"cosmo_sigma_profile": { 
			"-0.025": 0.0,
			"-0.024": 0.0,
			"-0.023": 0.0,
			"-0.022": 0.0,
			"-0.021": 0.0,
			"-0.02": 0.0,
			"-0.019": 0.0,
			"-0.018": 0.0,
			"-0.017": 0.0,
			"-0.016": 0.0,
			"-0.015": 0.129559668003,
			"-0.014": 0.674853670379,
			"-0.013": 0.43969302047,
			"-0.012": 0.673578169762,
			"-0.011": 1.13790725392,
			"-0.01": 3.03440088539,
			"-0.009": 3.14911539201,
			"-0.008": 3.97948014405,
			"-0.007": 12.3920371975,
			"-0.006": 14.8392572284,
			"-0.005": 16.6687596203,
			"-0.004": 28.5078592381,
			"-0.003": 25.4250423485,
			"-0.002": 26.8535457403,
			"-0.001": 27.3495299829,
			"0.0": 33.634577626,
			"0.001": 25.0705906146,
			"0.002": 17.9463011548,
			"0.003": 18.9872893103,
			"0.004": 19.0971539302,
			"0.005": 8.26572745397,
			"0.006": 4.19545125777,
			"0.007": 3.13874329527,
			"0.008": 4.04625279252,
			"0.009": 5.55180873274,
			"0.01": 6.1229394424,
			"0.011": 5.71406856559,
			"0.012": 9.09172960831,
			"0.013": 4.18498757432,
			"0.014": 0.129187986448,
			"0.015": 0.0,
			"0.016": 0.0,
			"0.017": 0.0,
			"0.018": 0.0,
			"0.019": 0.0,
			"0.02": 0.0,
			"0.021": 0.0,
			"0.022": 0.0,
			"0.023": 0.0,
			"0.024": 0.0,
			"0.025": 0.0
		}
	}
}
