{
	 "smiles": "NC1=C(Cl)C=C2C(=O)C3=C(C=CC=C3)C(=O)C2=C1", 
	 "Tm": 555.15, 
	 "num_atms": 26, 
	 "gaussian": { 
		 "optdone": 1, 
		 "sigma_profile": "yes", 
		 "theory": "DFT", 
		 "functional": "B3LYP", 
		 "basiset": "6-31G**", 
		 "properties": { 
			 "R2extent": 5667.8015, 
			 "electric_dipole_moment_norm": 2.25175907237, 
			 "electric_quadrupole_moment_norm": 22.3388299553, 
			 "total_energy": -1203.7305752, 
			 "HOMO_LUMO_gap": 0.12794, 
			 "cosmo_polarized_energy": -13.87, 
			 "cosmo_cavitation_energy": 32.34, 
			 "cosmo_dispersion_energy": -24.25, 
			 "cosmo_repulsion_energy": 1.81, 
			 "cosmo_total_nonelectrostatic_energy": 9.9, 
			 "SMD_solvation_energy": 5.71 
		},
		"coords": [
			{
				"x": 2.9693315961,
				"y": -2.8463348605,
				"z": -1.3210580857,
				"element": "N" 
			},
			{
				"x": 2.0252511542,
				"y": -2.1815050841,
				"z": -0.5826889211,
				"element": "C" 
			},
			{
				"x": 1.3058061047,
				"y": -2.8215411697,
				"z": 0.4577501831,
				"element": "C" 
			},
			{
				"x": 1.5956725082,
				"y": -4.531475328,
				"z": 0.757270486,
				"element": "Cl" 
			},
			{
				"x": 0.384027423,
				"y": -2.142207511,
				"z": 1.2343979439,
				"element": "C" 
			},
			{
				"x": 0.1342551033,
				"y": -0.783445534,
				"z": 1.0066105135,
				"element": "C" 
			},
			{
				"x": -0.8569436214,
				"y": -0.0793780521,
				"z": 1.8510811221,
				"element": "C" 
			},
			{
				"x": -1.4671867909,
				"y": -0.6548217294,
				"z": 2.748803018,
				"element": "O" 
			},
			{
				"x": -1.0878517316,
				"y": 1.3698080653,
				"z": 1.5668585042,
				"element": "C" 
			},
			{
				"x": -0.393362624,
				"y": 2.0357938873,
				"z": 0.5371013969,
				"element": "C" 
			},
			{
				"x": -0.6364328485,
				"y": 3.3940963181,
				"z": 0.3000385154,
				"element": "C" 
			},
			{
				"x": -1.5608021356,
				"y": 4.085526461,
				"z": 1.0787491759,
				"element": "C" 
			},
			{
				"x": -2.2506176889,
				"y": 3.4239147992,
				"z": 2.1015582208,
				"element": "C" 
			},
			{
				"x": -2.0150399727,
				"y": 2.0726139055,
				"z": 2.343936175,
				"element": "C" 
			},
			{
				"x": 0.6013627714,
				"y": 1.3212949287,
				"z": -0.3128688955,
				"element": "C" 
			},
			{
				"x": 1.2047623921,
				"y": 1.8958205353,
				"z": -1.21342782,
				"element": "O" 
			},
			{
				"x": 0.8347278151,
				"y": -0.1256282359,
				"z": -0.0250081391,
				"element": "C" 
			},
			{
				"x": 1.7591060896,
				"y": -0.8172224565,
				"z": -0.7997791713,
				"element": "C" 
			},
			{
				"x": 2.9707283427,
				"y": -3.8544911706,
				"z": -1.295426258,
				"element": "H" 
			},
			{
				"x": 3.275262343,
				"y": -2.4238177089,
				"z": -2.1832476781,
				"element": "H" 
			},
			{
				"x": -0.1583254072,
				"y": -2.6478195952,
				"z": 2.0252694529,
				"element": "H" 
			},
			{
				"x": -0.0883988999,
				"y": 3.8822094978,
				"z": -0.4988444504,
				"element": "H" 
			},
			{
				"x": -1.746241477,
				"y": 5.1391902092,
				"z": 0.8918275394,
				"element": "H" 
			},
			{
				"x": -2.9712633073,
				"y": 3.9648621967,
				"z": 2.7079702157,
				"element": "H" 
			},
			{
				"x": -2.535761882,
				"y": 1.5360046507,
				"z": 3.1298382647,
				"element": "H" 
			},
			{
				"x": 2.2810347435,
				"y": -0.2762470187,
				"z": -1.5833113082,
				"element": "H" 
			}
		],
		 "valence_orbital": [ 
			{
				"type": "occ",
				"energy": -0.26687,
				"method": "rhf"
			},
			{
				"type": "occ",
				"energy": -0.26655,
				"method": "rhf"
			},
			{
				"type": "occ",
				"energy": -0.2623,
				"method": "rhf"
			},
			{
				"type": "occ",
				"energy": -0.2544,
				"method": "rhf"
			},
			{
				"type": "occ",
				"energy": -0.22704,
				"method": "rhf"
			},
			{
				"type": "unocc",
				"energy": -0.0991,
				"method": "rhf"
			},
			{
				"type": "unocc",
				"energy": -0.05595,
				"method": "rhf"
			},
			{
				"type": "unocc",
				"energy": -0.01852,
				"method": "rhf"
			},
			{
				"type": "unocc",
				"energy": -0.0103,
				"method": "rhf"
			},
			{
				"type": "unocc",
				"energy": 0.02024,
				"method": "rhf"
			}
		],
		"cosmo_sigma_profile": { 
			"-0.025": 0.0,
			"-0.024": 0.0,
			"-0.023": 0.0,
			"-0.022": 0.0,
			"-0.021": 0.0,
			"-0.02": 0.0,
			"-0.019": 0.0,
			"-0.018": 0.0,
			"-0.017": 0.0,
			"-0.016": 0.0,
			"-0.015": 0.4179115379,
			"-0.014": 1.71589709735,
			"-0.013": 1.96931370388,
			"-0.012": 2.98019802386,
			"-0.011": 2.51700810676,
			"-0.01": 2.4104106043,
			"-0.009": 1.94375084702,
			"-0.008": 2.573722962,
			"-0.007": 6.83126233355,
			"-0.006": 11.4108904834,
			"-0.005": 13.4653061205,
			"-0.004": 12.157444786,
			"-0.003": 14.4957485252,
			"-0.002": 15.0823839945,
			"-0.001": 16.8269510575,
			"0.0": 25.6488972963,
			"0.001": 38.2507291677,
			"0.002": 28.8896211111,
			"0.003": 16.7254752737,
			"0.004": 10.3648815419,
			"0.005": 6.06689083678,
			"0.006": 3.22105324141,
			"0.007": 3.02771175966,
			"0.008": 4.42474734459,
			"0.009": 3.65156933736,
			"0.01": 4.84657451206,
			"0.011": 6.84289366524,
			"0.012": 4.38159248895,
			"0.013": 0.0481459886373,
			"0.014": 0.0,
			"0.015": 0.0,
			"0.016": 0.0,
			"0.017": 0.0,
			"0.018": 0.0,
			"0.019": 0.0,
			"0.02": 0.0,
			"0.021": 0.0,
			"0.022": 0.0,
			"0.023": 0.0,
			"0.024": 0.0,
			"0.025": 0.0
		}
	}
}
