{
	 "smiles": "ClC1=NC=CC=N1", 
	 "Tm": 339.65, 
	 "num_atms": 10, 
	 "gaussian": { 
		 "optdone": 1, 
		 "sigma_profile": "yes", 
		 "theory": "DFT", 
		 "functional": "B3LYP", 
		 "basiset": "6-31G**", 
		 "properties": { 
			 "R2extent": 1349.2537, 
			 "electric_dipole_moment_norm": 3.91210616037, 
			 "electric_quadrupole_moment_norm": 4.44718283861, 
			 "total_energy": -723.915000197, 
			 "HOMO_LUMO_gap": 0.21151, 
			 "cosmo_polarized_energy": -8.24, 
			 "cosmo_cavitation_energy": 16.34, 
			 "cosmo_dispersion_energy": -12.66, 
			 "cosmo_repulsion_energy": 1.07, 
			 "cosmo_total_nonelectrostatic_energy": 4.75, 
			 "SMD_solvation_energy": -0.06 
		},
		"coords": [
			{
				"x": 0.6503190879,
				"y": 3.5150950228,
				"z": -0.985463104,
				"element": "Cl" 
			},
			{
				"x": 0.0769377942,
				"y": 1.9131743503,
				"z": -0.5671232672,
				"element": "C" 
			},
			{
				"x": 1.0006614324,
				"y": 0.9591861695,
				"z": -0.5316420527,
				"element": "N" 
			},
			{
				"x": 0.5506520791,
				"y": -0.260292201,
				"z": -0.2104929331,
				"element": "C" 
			},
			{
				"x": -0.7912696602,
				"y": -0.5126552538,
				"z": 0.067250993,
				"element": "C" 
			},
			{
				"x": -1.6514132305,
				"y": 0.5810776186,
				"z": -0.0068679462,
				"element": "C" 
			},
			{
				"x": -1.2252467429,
				"y": 1.8096603488,
				"z": -0.3258151336,
				"element": "N" 
			},
			{
				"x": 1.2959188092,
				"y": -1.0523908353,
				"z": -0.1774740374,
				"element": "H" 
			},
			{
				"x": -1.1459083241,
				"y": -1.5035093583,
				"z": 0.3262908197,
				"element": "H" 
			},
			{
				"x": -2.7161512451,
				"y": 0.4805541384,
				"z": 0.1935366615,
				"element": "H" 
			}
		],
		 "valence_orbital": [ 
			{
				"type": "occ",
				"energy": -0.33604,
				"method": "rhf"
			},
			{
				"type": "occ",
				"energy": -0.32823,
				"method": "rhf"
			},
			{
				"type": "occ",
				"energy": -0.31815,
				"method": "rhf"
			},
			{
				"type": "occ",
				"energy": -0.28214,
				"method": "rhf"
			},
			{
				"type": "occ",
				"energy": -0.2703,
				"method": "rhf"
			},
			{
				"type": "unocc",
				"energy": -0.05879,
				"method": "rhf"
			},
			{
				"type": "unocc",
				"energy": -0.04289,
				"method": "rhf"
			},
			{
				"type": "unocc",
				"energy": 0.03721,
				"method": "rhf"
			},
			{
				"type": "unocc",
				"energy": 0.09188,
				"method": "rhf"
			},
			{
				"type": "unocc",
				"energy": 0.11155,
				"method": "rhf"
			}
		],
		"cosmo_sigma_profile": { 
			"-0.025": 0.0,
			"-0.024": 0.0,
			"-0.023": 0.0,
			"-0.022": 0.0,
			"-0.021": 0.0,
			"-0.02": 0.0,
			"-0.019": 0.0,
			"-0.018": 0.0,
			"-0.017": 0.0,
			"-0.016": 0.0,
			"-0.015": 0.0,
			"-0.014": 0.0,
			"-0.013": 0.0,
			"-0.012": 0.0,
			"-0.011": 0.0,
			"-0.01": 0.0,
			"-0.009": 3.90567551103,
			"-0.008": 8.73259102241,
			"-0.007": 6.83604138304,
			"-0.006": 5.30260660476,
			"-0.005": 4.46175059139,
			"-0.004": 5.86526308769,
			"-0.003": 8.89649362509,
			"-0.002": 11.2990723531,
			"-0.001": 13.8654709541,
			"0.0": 7.93489447829,
			"0.001": 6.72940656036,
			"0.002": 6.99099412872,
			"0.003": 7.22093292268,
			"0.004": 11.3538428187,
			"0.005": 6.7783701228,
			"0.006": 2.86986649378,
			"0.007": 2.94546615672,
			"0.008": 2.34095493688,
			"0.009": 2.54105235003,
			"0.01": 1.91497826459,
			"0.011": 1.9835800358,
			"0.012": 1.72538354397,
			"0.013": 1.60515934383,
			"0.014": 0.63363115928,
			"0.015": 0.0,
			"0.016": 0.0,
			"0.017": 0.0,
			"0.018": 0.0,
			"0.019": 0.0,
			"0.02": 0.0,
			"0.021": 0.0,
			"0.022": 0.0,
			"0.023": 0.0,
			"0.024": 0.0,
			"0.025": 0.0
		}
	}
}
