{
	 "smiles": "CC1=CC=C(C=C1)C1=C(SC=C1)C(=O)NN", 
	 "Tm": 545.15, 
	 "num_atms": 28, 
	 "gaussian": { 
		 "optdone": 1, 
		 "sigma_profile": "yes", 
		 "theory": "DFT", 
		 "functional": "B3LYP", 
		 "basiset": "6-31G**", 
		 "properties": { 
			 "R2extent": 5578.0861, 
			 "electric_dipole_moment_norm": 3.95874127217, 
			 "electric_quadrupole_moment_norm": 14.0117163613, 
			 "total_energy": -1047.40407542, 
			 "HOMO_LUMO_gap": 0.18132, 
			 "cosmo_polarized_energy": -13.18, 
			 "cosmo_cavitation_energy": 33.58, 
			 "cosmo_dispersion_energy": -24.26, 
			 "cosmo_repulsion_energy": 1.87, 
			 "cosmo_total_nonelectrostatic_energy": 11.18, 
			 "SMD_solvation_energy": 6.61 
		},
		"coords": [
			{
				"x": -3.4699456502,
				"y": 0.8591290099,
				"z": -0.2284571494,
				"element": "C" 
			},
			{
				"x": -1.9633242656,
				"y": 0.8705989776,
				"z": -0.1277021437,
				"element": "C" 
			},
			{
				"x": -1.1614852093,
				"y": 0.6806998404,
				"z": -1.2613147711,
				"element": "C" 
			},
			{
				"x": 0.2292148234,
				"y": 0.6625786894,
				"z": -1.1693934459,
				"element": "C" 
			},
			{
				"x": 0.8704123929,
				"y": 0.8304452464,
				"z": 0.0697896846,
				"element": "C" 
			},
			{
				"x": 0.068200851,
				"y": 1.0325236506,
				"z": 1.2051052967,
				"element": "C" 
			},
			{
				"x": -1.3216444953,
				"y": 1.0499243024,
				"z": 1.1050793761,
				"element": "C" 
			},
			{
				"x": 2.3515129979,
				"y": 0.8729773364,
				"z": 0.1842873229,
				"element": "C" 
			},
			{
				"x": 3.2587770908,
				"y": -0.0928837651,
				"z": -0.231246739,
				"element": "C" 
			},
			{
				"x": 4.9058983372,
				"y": 0.4063695934,
				"z": 0.0639701993,
				"element": "S" 
			},
			{
				"x": 4.378365052,
				"y": 1.8931688771,
				"z": 0.7563969484,
				"element": "C" 
			},
			{
				"x": 3.014811995,
				"y": 2.0055094268,
				"z": 0.7585055491,
				"element": "C" 
			},
			{
				"x": 3.1378962594,
				"y": -1.4640219347,
				"z": -0.7919446179,
				"element": "C" 
			},
			{
				"x": 4.1373890888,
				"y": -2.0894698338,
				"z": -1.1503242783,
				"element": "O" 
			},
			{
				"x": 1.8905077671,
				"y": -2.0179966415,
				"z": -0.8691598396,
				"element": "N" 
			},
			{
				"x": 1.7193387874,
				"y": -3.3596923281,
				"z": -1.261901147,
				"element": "N" 
			},
			{
				"x": -3.9282393592,
				"y": 1.4773707827,
				"z": 0.5491451863,
				"element": "H" 
			},
			{
				"x": -3.8659628896,
				"y": -0.1575105743,
				"z": -0.1115515782,
				"element": "H" 
			},
			{
				"x": -3.8089536583,
				"y": 1.2289926519,
				"z": -1.2007356676,
				"element": "H" 
			},
			{
				"x": -1.6315495329,
				"y": 0.5556698243,
				"z": -2.2336467965,
				"element": "H" 
			},
			{
				"x": 0.8283267669,
				"y": 0.5312255782,
				"z": -2.0651812749,
				"element": "H" 
			},
			{
				"x": 0.5415857444,
				"y": 1.1697575786,
				"z": 2.1731994386,
				"element": "H" 
			},
			{
				"x": -1.9183916206,
				"y": 1.2046563728,
				"z": 2.0006728239,
				"element": "H" 
			},
			{
				"x": 5.100918923,
				"y": 2.6147084545,
				"z": 1.1134926754,
				"element": "H" 
			},
			{
				"x": 2.4789226229,
				"y": 2.8728143957,
				"z": 1.1272848251,
				"element": "H" 
			},
			{
				"x": 1.0858123525,
				"y": -1.5819131752,
				"z": -0.4450822377,
				"element": "H" 
			},
			{
				"x": 1.9368773684,
				"y": -3.4159076287,
				"z": -2.2570225563,
				"element": "H" 
			},
			{
				"x": 2.45472746,
				"y": -3.899924708,
				"z": -0.8039650835,
				"element": "H" 
			}
		],
		 "valence_orbital": [ 
			{
				"type": "occ",
				"energy": -0.26176,
				"method": "rhf"
			},
			{
				"type": "occ",
				"energy": -0.25691,
				"method": "rhf"
			},
			{
				"type": "occ",
				"energy": -0.25217,
				"method": "rhf"
			},
			{
				"type": "occ",
				"energy": -0.24391,
				"method": "rhf"
			},
			{
				"type": "occ",
				"energy": -0.23065,
				"method": "rhf"
			},
			{
				"type": "unocc",
				"energy": -0.04933,
				"method": "rhf"
			},
			{
				"type": "unocc",
				"energy": -0.01302,
				"method": "rhf"
			},
			{
				"type": "unocc",
				"energy": -0.00906,
				"method": "rhf"
			},
			{
				"type": "unocc",
				"energy": 0.03801,
				"method": "rhf"
			},
			{
				"type": "unocc",
				"energy": 0.03921,
				"method": "rhf"
			}
		],
		"cosmo_sigma_profile": { 
			"-0.025": 0.0,
			"-0.024": 0.0,
			"-0.023": 0.0,
			"-0.022": 0.0,
			"-0.021": 0.0,
			"-0.02": 0.0,
			"-0.019": 0.0,
			"-0.018": 0.0,
			"-0.017": 0.0,
			"-0.016": 0.0,
			"-0.015": 0.0,
			"-0.014": 0.0,
			"-0.013": 0.0,
			"-0.012": 0.340933192812,
			"-0.011": 1.85900838668,
			"-0.01": 2.6124285131,
			"-0.009": 4.31055367104,
			"-0.008": 4.98269286264,
			"-0.007": 5.17575233801,
			"-0.006": 9.99322590523,
			"-0.005": 16.4581185326,
			"-0.004": 23.4180978068,
			"-0.003": 20.8273188293,
			"-0.002": 19.0294076126,
			"-0.001": 21.6853785027,
			"0.0": 23.8171370456,
			"0.001": 19.1314444342,
			"0.002": 20.5238711557,
			"0.003": 22.7783802093,
			"0.004": 17.4667093562,
			"0.005": 8.71509428463,
			"0.006": 3.05887034079,
			"0.007": 1.62191718739,
			"0.008": 2.3281260882,
			"0.009": 2.7740817287,
			"0.01": 2.63755005816,
			"0.011": 1.81374471857,
			"0.012": 2.30223315909,
			"0.013": 5.49932825428,
			"0.014": 2.92359484963,
			"0.015": 0.512606426268,
			"0.016": 0.580406545692,
			"0.017": 0.138464062013,
			"0.018": 0.0,
			"0.019": 0.0,
			"0.02": 0.0,
			"0.021": 0.0,
			"0.022": 0.0,
			"0.023": 0.0,
			"0.024": 0.0,
			"0.025": 0.0
		}
	}
}
