{
	 "smiles": "ClC1=NOC2=C1C=CC=C2", 
	 "Tm": 304.15, 
	 "num_atms": 14, 
	 "gaussian": { 
		 "optdone": 1, 
		 "sigma_profile": "yes", 
		 "theory": "DFT", 
		 "functional": "B3LYP", 
		 "basiset": "6-31G**", 
		 "properties": { 
			 "R2extent": 3128.0782, 
			 "electric_dipole_moment_norm": 3.71406911756, 
			 "electric_quadrupole_moment_norm": 11.639437696, 
			 "total_energy": -859.268820453, 
			 "HOMO_LUMO_gap": 0.19846, 
			 "cosmo_polarized_energy": -6.22, 
			 "cosmo_cavitation_energy": 20.56, 
			 "cosmo_dispersion_energy": -15.72, 
			 "cosmo_repulsion_energy": 1.26, 
			 "cosmo_total_nonelectrostatic_energy": 6.11, 
			 "SMD_solvation_energy": 3.11 
		},
		"coords": [
			{
				"x": -2.1579544591,
				"y": -3.6340547757,
				"z": -1.2468948876,
				"element": "Cl" 
			},
			{
				"x": -2.3930655569,
				"y": -2.1910131172,
				"z": -0.3321313886,
				"element": "C" 
			},
			{
				"x": -3.0137127318,
				"y": -2.2316954604,
				"z": 0.8151161712,
				"element": "N" 
			},
			{
				"x": -3.0350485963,
				"y": -0.9066159428,
				"z": 1.2914100039,
				"element": "O" 
			},
			{
				"x": -2.410511449,
				"y": -0.109462506,
				"z": 0.3855520161,
				"element": "C" 
			},
			{
				"x": -1.9652735205,
				"y": -0.8728421371,
				"z": -0.6985339839,
				"element": "C" 
			},
			{
				"x": -1.2879236526,
				"y": -0.2682196902,
				"z": -1.7666217133,
				"element": "C" 
			},
			{
				"x": -1.0837942382,
				"y": 1.1033318433,
				"z": -1.6971197873,
				"element": "C" 
			},
			{
				"x": -1.5413871239,
				"y": 1.8569786067,
				"z": -0.5931396951,
				"element": "C" 
			},
			{
				"x": -2.214623412,
				"y": 1.2692976098,
				"z": 0.4728492629,
				"element": "C" 
			},
			{
				"x": -0.9395922487,
				"y": -0.8538952017,
				"z": -2.6108991172,
				"element": "H" 
			},
			{
				"x": -0.5635981195,
				"y": 1.6108579951,
				"z": -2.5031236586,
				"element": "H" 
			},
			{
				"x": -1.3617159088,
				"y": 2.9277279863,
				"z": -0.5768551386,
				"element": "H" 
			},
			{
				"x": -2.5686989827,
				"y": 1.8406047901,
				"z": 1.323191916,
				"element": "H" 
			}
		],
		 "valence_orbital": [ 
			{
				"type": "occ",
				"energy": -0.3383,
				"method": "rhf"
			},
			{
				"type": "occ",
				"energy": -0.32178,
				"method": "rhf"
			},
			{
				"type": "occ",
				"energy": -0.30444,
				"method": "rhf"
			},
			{
				"type": "occ",
				"energy": -0.2672,
				"method": "rhf"
			},
			{
				"type": "occ",
				"energy": -0.25521,
				"method": "rhf"
			},
			{
				"type": "unocc",
				"energy": -0.05675,
				"method": "rhf"
			},
			{
				"type": "unocc",
				"energy": -0.00983,
				"method": "rhf"
			},
			{
				"type": "unocc",
				"energy": 0.0144,
				"method": "rhf"
			},
			{
				"type": "unocc",
				"energy": 0.02829,
				"method": "rhf"
			},
			{
				"type": "unocc",
				"energy": 0.08332,
				"method": "rhf"
			}
		],
		"cosmo_sigma_profile": { 
			"-0.025": 0.0,
			"-0.024": 0.0,
			"-0.023": 0.0,
			"-0.022": 0.0,
			"-0.021": 0.0,
			"-0.02": 0.0,
			"-0.019": 0.0,
			"-0.018": 0.0,
			"-0.017": 0.0,
			"-0.016": 0.0,
			"-0.015": 0.0,
			"-0.014": 0.0,
			"-0.013": 0.0,
			"-0.012": 0.0,
			"-0.011": 0.0,
			"-0.01": 0.0,
			"-0.009": 0.0565845085521,
			"-0.008": 2.5929866831,
			"-0.007": 6.38435574479,
			"-0.006": 9.45204023598,
			"-0.005": 10.0005016194,
			"-0.004": 8.0466738654,
			"-0.003": 10.7607439224,
			"-0.002": 14.3188651448,
			"-0.001": 14.4908884864,
			"0.0": 14.8759768266,
			"0.001": 16.8900844021,
			"0.002": 19.3975939185,
			"0.003": 17.992956432,
			"0.004": 4.22558307492,
			"0.005": 2.09281085454,
			"0.006": 3.45116749762,
			"0.007": 5.83130251016,
			"0.008": 2.29895430442,
			"0.009": 1.66681201197,
			"0.01": 1.51062498322,
			"0.011": 1.10047673755,
			"0.012": 1.26776576395,
			"0.013": 0.273350112561,
			"0.014": 0.0,
			"0.015": 0.0,
			"0.016": 0.0,
			"0.017": 0.0,
			"0.018": 0.0,
			"0.019": 0.0,
			"0.02": 0.0,
			"0.021": 0.0,
			"0.022": 0.0,
			"0.023": 0.0,
			"0.024": 0.0,
			"0.025": 0.0
		}
	}
}
