{
	 "smiles": "CCC=CC1=CC=CC=C1", 
	 "Tm": 230.05, 
	 "num_atms": 22, 
	 "gaussian": { 
		 "optdone": 1, 
		 "sigma_profile": "yes", 
		 "theory": "DFT", 
		 "functional": "B3LYP", 
		 "basiset": "6-31G**", 
		 "properties": { 
			 "R2extent": 2472.6297, 
			 "electric_dipole_moment_norm": 0.406196664191, 
			 "electric_quadrupole_moment_norm": 6.78136387683, 
			 "total_energy": -388.29135801, 
			 "HOMO_LUMO_gap": 0.18706, 
			 "cosmo_polarized_energy": -4.04, 
			 "cosmo_cavitation_energy": 25.27, 
			 "cosmo_dispersion_energy": -18.49, 
			 "cosmo_repulsion_energy": 1.52, 
			 "cosmo_total_nonelectrostatic_energy": 8.29, 
			 "SMD_solvation_energy": 4.36 
		},
		"coords": [
			{
				"x": 2.8159864339,
				"y": -2.50595034,
				"z": -2.6005214654,
				"element": "C" 
			},
			{
				"x": 1.9085247842,
				"y": -1.2629264025,
				"z": -2.5856498882,
				"element": "C" 
			},
			{
				"x": 1.798563035,
				"y": -0.6361295373,
				"z": -1.2240309088,
				"element": "C" 
			},
			{
				"x": 0.6533565877,
				"y": -0.4920012609,
				"z": -0.5404617888,
				"element": "C" 
			},
			{
				"x": 0.4672961941,
				"y": 0.1015096595,
				"z": 0.7930634151,
				"element": "C" 
			},
			{
				"x": 1.5171161334,
				"y": 0.6589410107,
				"z": 1.5480197351,
				"element": "C" 
			},
			{
				"x": 1.2824453942,
				"y": 1.2047139136,
				"z": 2.8066056002,
				"element": "C" 
			},
			{
				"x": -0.0069762456,
				"y": 1.2115681051,
				"z": 3.3477063024,
				"element": "C" 
			},
			{
				"x": -1.0597899094,
				"y": 0.6657486565,
				"z": 2.6129952904,
				"element": "C" 
			},
			{
				"x": -0.8228672385,
				"y": 0.1191425347,
				"z": 1.3523965134,
				"element": "C" 
			},
			{
				"x": 2.9021197424,
				"y": -2.9172499302,
				"z": -3.611603638,
				"element": "H" 
			},
			{
				"x": 3.8258552545,
				"y": -2.2624742342,
				"z": -2.2520902484,
				"element": "H" 
			},
			{
				"x": 2.4187203248,
				"y": -3.2882815354,
				"z": -1.9461451941,
				"element": "H" 
			},
			{
				"x": 2.3144018581,
				"y": -0.5248216415,
				"z": -3.2932152308,
				"element": "H" 
			},
			{
				"x": 0.9092116812,
				"y": -1.5270260899,
				"z": -2.9520674603,
				"element": "H" 
			},
			{
				"x": 2.7385156107,
				"y": -0.2978863158,
				"z": -0.7864217079,
				"element": "H" 
			},
			{
				"x": -0.2642069152,
				"y": -0.8509938772,
				"z": -1.0087150195,
				"element": "H" 
			},
			{
				"x": 2.5260022604,
				"y": 0.6684079693,
				"z": 1.1468067681,
				"element": "H" 
			},
			{
				"x": 2.1092149163,
				"y": 1.6291829273,
				"z": 3.3696312989,
				"element": "H" 
			},
			{
				"x": -0.1863122224,
				"y": 1.6390808084,
				"z": 4.3299123992,
				"element": "H" 
			},
			{
				"x": -2.0670529789,
				"y": 0.6650896723,
				"z": 3.0202787735,
				"element": "H" 
			},
			{
				"x": -1.6486247008,
				"y": -0.3046440926,
				"z": 0.785906454,
				"element": "H" 
			}
		],
		 "valence_orbital": [ 
			{
				"type": "occ",
				"energy": -0.33159,
				"method": "rhf"
			},
			{
				"type": "occ",
				"energy": -0.32856,
				"method": "rhf"
			},
			{
				"type": "occ",
				"energy": -0.28797,
				"method": "rhf"
			},
			{
				"type": "occ",
				"energy": -0.24646,
				"method": "rhf"
			},
			{
				"type": "occ",
				"energy": -0.21315,
				"method": "rhf"
			},
			{
				"type": "unocc",
				"energy": -0.02609,
				"method": "rhf"
			},
			{
				"type": "unocc",
				"energy": 0.00432,
				"method": "rhf"
			},
			{
				"type": "unocc",
				"energy": 0.06462,
				"method": "rhf"
			},
			{
				"type": "unocc",
				"energy": 0.09783,
				"method": "rhf"
			},
			{
				"type": "unocc",
				"energy": 0.10622,
				"method": "rhf"
			}
		],
		"cosmo_sigma_profile": { 
			"-0.025": 0.0,
			"-0.024": 0.0,
			"-0.023": 0.0,
			"-0.022": 0.0,
			"-0.021": 0.0,
			"-0.02": 0.0,
			"-0.019": 0.0,
			"-0.018": 0.0,
			"-0.017": 0.0,
			"-0.016": 0.0,
			"-0.015": 0.0,
			"-0.014": 0.0,
			"-0.013": 0.0,
			"-0.012": 0.0,
			"-0.011": 0.0,
			"-0.01": 0.0,
			"-0.009": 0.0,
			"-0.008": 0.0,
			"-0.007": 0.338844969552,
			"-0.006": 4.13195543896,
			"-0.005": 12.6628661505,
			"-0.004": 14.6632703504,
			"-0.003": 23.8285407949,
			"-0.002": 20.7330084158,
			"-0.001": 21.4904411209,
			"0.0": 19.6091916212,
			"0.001": 18.9509679661,
			"0.002": 12.2440929474,
			"0.003": 10.8818586149,
			"0.004": 12.3437472603,
			"0.005": 13.8282437193,
			"0.006": 12.4579565154,
			"0.007": 1.80123780043,
			"0.008": 0.0,
			"0.009": 0.0,
			"0.01": 0.0,
			"0.011": 0.0,
			"0.012": 0.0,
			"0.013": 0.0,
			"0.014": 0.0,
			"0.015": 0.0,
			"0.016": 0.0,
			"0.017": 0.0,
			"0.018": 0.0,
			"0.019": 0.0,
			"0.02": 0.0,
			"0.021": 0.0,
			"0.022": 0.0,
			"0.023": 0.0,
			"0.024": 0.0,
			"0.025": 0.0
		}
	}
}
