{
	 "smiles": "CC1=CC(C)=C(C)C2=C1C=C(N2)C(O)=O", 
	 "Tm": 501.15, 
	 "num_atms": 28, 
	 "gaussian": { 
		 "optdone": 1, 
		 "sigma_profile": "yes", 
		 "theory": "DFT", 
		 "functional": "B3LYP", 
		 "basiset": "6-31G**", 
		 "properties": { 
			 "R2extent": 3733.5842, 
			 "electric_dipole_moment_norm": 3.90489365028, 
			 "electric_quadrupole_moment_norm": 20.0324161049, 
			 "total_energy": -670.349855356, 
			 "HOMO_LUMO_gap": 0.15853, 
			 "cosmo_polarized_energy": -14.89, 
			 "cosmo_cavitation_energy": 31.22, 
			 "cosmo_dispersion_energy": -22.77, 
			 "cosmo_repulsion_energy": 1.76, 
			 "cosmo_total_nonelectrostatic_energy": 10.22, 
			 "SMD_solvation_energy": 6.14 
		},
		"coords": [
			{
				"x": -1.4777870202,
				"y": 0.4784632053,
				"z": -3.0379880081,
				"element": "C" 
			},
			{
				"x": -1.2107200701,
				"y": -0.187687437,
				"z": -1.7087559233,
				"element": "C" 
			},
			{
				"x": -2.1085916826,
				"y": -1.0990892055,
				"z": -1.1685914103,
				"element": "C" 
			},
			{
				"x": -1.9103130122,
				"y": -1.7528325133,
				"z": 0.0713180764,
				"element": "C" 
			},
			{
				"x": -2.9528228919,
				"y": -2.728331899,
				"z": 0.5670838899,
				"element": "C" 
			},
			{
				"x": -0.7633340222,
				"y": -1.502600793,
				"z": 0.8342355605,
				"element": "C" 
			},
			{
				"x": -0.5202884719,
				"y": -2.1819472968,
				"z": 2.1602006672,
				"element": "C" 
			},
			{
				"x": 0.1509051272,
				"y": -0.5812077977,
				"z": 0.2946873704,
				"element": "C" 
			},
			{
				"x": -0.0459884252,
				"y": 0.0804483888,
				"z": -0.9563335114,
				"element": "C" 
			},
			{
				"x": 1.087399336,
				"y": 0.9295655117,
				"z": -1.159232902,
				"element": "C" 
			},
			{
				"x": 1.9171684629,
				"y": 0.7703792874,
				"z": -0.0666925543,
				"element": "C" 
			},
			{
				"x": 1.3483890409,
				"y": -0.1382546639,
				"z": 0.8022420405,
				"element": "N" 
			},
			{
				"x": 3.211684666,
				"y": 1.3517475633,
				"z": 0.3189662383,
				"element": "C" 
			},
			{
				"x": 3.7690966155,
				"y": 2.2447233948,
				"z": -0.5362773644,
				"element": "O" 
			},
			{
				"x": 3.7715414528,
				"y": 1.0563201667,
				"z": 1.3550466998,
				"element": "O" 
			},
			{
				"x": -2.4112957867,
				"y": 1.0520930876,
				"z": -3.0141773322,
				"element": "H" 
			},
			{
				"x": -1.5749419661,
				"y": -0.2615018699,
				"z": -3.840530187,
				"element": "H" 
			},
			{
				"x": -0.6770296215,
				"y": 1.1660957129,
				"z": -3.3206339285,
				"element": "H" 
			},
			{
				"x": -3.0161439654,
				"y": -1.3278017108,
				"z": -1.7234668892,
				"element": "H" 
			},
			{
				"x": -2.5347225556,
				"y": -3.7325314246,
				"z": 0.7100067533,
				"element": "H" 
			},
			{
				"x": -3.3693298744,
				"y": -2.4215295806,
				"z": 1.5345767892,
				"element": "H" 
			},
			{
				"x": -3.7825943818,
				"y": -2.8124363973,
				"z": -0.1390772571,
				"element": "H" 
			},
			{
				"x": -0.4824427098,
				"y": -3.2726232522,
				"z": 2.0540502761,
				"element": "H" 
			},
			{
				"x": -1.3176862006,
				"y": -1.9603459511,
				"z": 2.8794605163,
				"element": "H" 
			},
			{
				"x": 0.4218933453,
				"y": -1.8710643866,
				"z": 2.6193255681,
				"element": "H" 
			},
			{
				"x": 1.2577871556,
				"y": 1.5741613098,
				"z": -2.0115075364,
				"element": "H" 
			},
			{
				"x": 1.8002124362,
				"y": -0.3946795126,
				"z": 1.6668083361,
				"element": "H" 
			},
			{
				"x": 3.2003550199,
				"y": 2.3689680638,
				"z": -1.309043978,
				"element": "H" 
			}
		],
		 "valence_orbital": [ 
			{
				"type": "occ",
				"energy": -0.31084,
				"method": "rhf"
			},
			{
				"type": "occ",
				"energy": -0.2786,
				"method": "rhf"
			},
			{
				"type": "occ",
				"energy": -0.27731,
				"method": "rhf"
			},
			{
				"type": "occ",
				"energy": -0.22565,
				"method": "rhf"
			},
			{
				"type": "occ",
				"energy": -0.20607,
				"method": "rhf"
			},
			{
				"type": "unocc",
				"energy": -0.04754,
				"method": "rhf"
			},
			{
				"type": "unocc",
				"energy": 0.01509,
				"method": "rhf"
			},
			{
				"type": "unocc",
				"energy": 0.02746,
				"method": "rhf"
			},
			{
				"type": "unocc",
				"energy": 0.05393,
				"method": "rhf"
			},
			{
				"type": "unocc",
				"energy": 0.07344,
				"method": "rhf"
			}
		],
		"cosmo_sigma_profile": { 
			"-0.025": 0.0,
			"-0.024": 0.0,
			"-0.023": 0.0,
			"-0.022": 0.0,
			"-0.021": 0.0,
			"-0.02": 0.0,
			"-0.019": 0.0431183044318,
			"-0.018": 0.881719931648,
			"-0.017": 1.11257558795,
			"-0.016": 1.03927718885,
			"-0.015": 1.10951843864,
			"-0.014": 1.41530791965,
			"-0.013": 1.56444481049,
			"-0.012": 2.44853936591,
			"-0.011": 2.33720653535,
			"-0.01": 1.89943419978,
			"-0.009": 2.04065798548,
			"-0.008": 2.93199880744,
			"-0.007": 2.68562920324,
			"-0.006": 3.78346650151,
			"-0.005": 5.52285658898,
			"-0.004": 18.6505051238,
			"-0.003": 20.5642133285,
			"-0.002": 23.8328625103,
			"-0.001": 23.9013153814,
			"0.0": 30.1679624758,
			"0.001": 16.642512903,
			"0.002": 11.110568692,
			"0.003": 13.0481096593,
			"0.004": 12.5558762746,
			"0.005": 11.730711492,
			"0.006": 8.75715286786,
			"0.007": 3.65813116013,
			"0.008": 2.57374301547,
			"0.009": 3.31108398589,
			"0.01": 4.4390406872,
			"0.011": 4.79807841271,
			"0.012": 4.09898248075,
			"0.013": 2.21459463338,
			"0.014": 0.291056538505,
			"0.015": 0.0,
			"0.016": 0.0,
			"0.017": 0.0,
			"0.018": 0.0,
			"0.019": 0.0,
			"0.02": 0.0,
			"0.021": 0.0,
			"0.022": 0.0,
			"0.023": 0.0,
			"0.024": 0.0,
			"0.025": 0.0
		}
	}
}
