{
	 "smiles": "CN(N)C1=CC=C(C=C1[N+]([O-])=O)C(F)(F)F", 
	 "Tm": 342.15, 
	 "num_atms": 24, 
	 "gaussian": { 
		 "optdone": 1, 
		 "sigma_profile": "yes", 
		 "theory": "DFT", 
		 "functional": "B3LYP", 
		 "basiset": "6-31G**", 
		 "properties": { 
			 "R2extent": 4538.8828, 
			 "electric_dipole_moment_norm": 6.07817029294, 
			 "electric_quadrupole_moment_norm": 10.9570871836, 
			 "total_energy": -923.754283934, 
			 "HOMO_LUMO_gap": 0.14406, 
			 "cosmo_polarized_energy": -13.35, 
			 "cosmo_cavitation_energy": 29.83, 
			 "cosmo_dispersion_energy": -21.09, 
			 "cosmo_repulsion_energy": 1.58, 
			 "cosmo_total_nonelectrostatic_energy": 10.32, 
			 "SMD_solvation_energy": 9.04 
		},
		"coords": [
			{
				"x": 2.4316864516,
				"y": -0.2165358099,
				"z": 0.8909586404,
				"element": "C" 
			},
			{
				"x": 1.7039705932,
				"y": 0.4586314584,
				"z": -0.1721291811,
				"element": "N" 
			},
			{
				"x": 2.4416333294,
				"y": 1.289394608,
				"z": -1.0336963215,
				"element": "N" 
			},
			{
				"x": 0.405604252,
				"y": 0.1766800047,
				"z": -0.5389386004,
				"element": "C" 
			},
			{
				"x": -0.0076305711,
				"y": 0.368066442,
				"z": -1.8829354943,
				"element": "C" 
			},
			{
				"x": -1.2499553006,
				"y": -0.0409526472,
				"z": -2.3234024521,
				"element": "C" 
			},
			{
				"x": -2.1574783092,
				"y": -0.6666398631,
				"z": -1.4503379622,
				"element": "C" 
			},
			{
				"x": -1.8109971522,
				"y": -0.8136845108,
				"z": -0.1191311421,
				"element": "C" 
			},
			{
				"x": -0.5712229209,
				"y": -0.3575411415,
				"z": 0.3446272003,
				"element": "C" 
			},
			{
				"x": -0.4279599395,
				"y": -0.3247313442,
				"z": 1.8007393938,
				"element": "N" 
			},
			{
				"x": 0.2294180626,
				"y": 0.5958667705,
				"z": 2.2963152581,
				"element": "O" 
			},
			{
				"x": -1.0248966276,
				"y": -1.1798569022,
				"z": 2.4581462332,
				"element": "O" 
			},
			{
				"x": -3.4725806567,
				"y": -1.1660574346,
				"z": -1.9711127922,
				"element": "C" 
			},
			{
				"x": -4.0578099064,
				"y": -0.2598612327,
				"z": -2.7892460561,
				"element": "F" 
			},
			{
				"x": -3.3257706653,
				"y": -2.2991073,
				"z": -2.6996549593,
				"element": "F" 
			},
			{
				"x": -4.3433346119,
				"y": -1.4429044195,
				"z": -0.977899196,
				"element": "F" 
			},
			{
				"x": 3.4218576106,
				"y": -0.4912739407,
				"z": 0.5068188727,
				"element": "H" 
			},
			{
				"x": 1.9209692004,
				"y": -1.1376921424,
				"z": 1.1790641658,
				"element": "H" 
			},
			{
				"x": 2.548617841,
				"y": 0.4062029056,
				"z": 1.7839516888,
				"element": "H" 
			},
			{
				"x": 2.7537645249,
				"y": 2.1083755635,
				"z": -0.5141113219,
				"element": "H" 
			},
			{
				"x": 3.2672796504,
				"y": 0.7915695944,
				"z": -1.365735714,
				"element": "H" 
			},
			{
				"x": 0.6957118507,
				"y": 0.8299992406,
				"z": -2.562316445,
				"element": "H" 
			},
			{
				"x": -1.5228325119,
				"y": 0.1116791521,
				"z": -3.3628166384,
				"element": "H" 
			},
			{
				"x": -2.5010441933,
				"y": -1.2380270509,
				"z": 0.5983428232,
				"element": "H" 
			}
		],
		 "valence_orbital": [ 
			{
				"type": "occ",
				"energy": -0.30398,
				"method": "rhf"
			},
			{
				"type": "occ",
				"energy": -0.29587,
				"method": "rhf"
			},
			{
				"type": "occ",
				"energy": -0.29354,
				"method": "rhf"
			},
			{
				"type": "occ",
				"energy": -0.27298,
				"method": "rhf"
			},
			{
				"type": "occ",
				"energy": -0.22609,
				"method": "rhf"
			},
			{
				"type": "unocc",
				"energy": -0.08203,
				"method": "rhf"
			},
			{
				"type": "unocc",
				"energy": -0.02571,
				"method": "rhf"
			},
			{
				"type": "unocc",
				"energy": -0.01055,
				"method": "rhf"
			},
			{
				"type": "unocc",
				"energy": 0.05037,
				"method": "rhf"
			},
			{
				"type": "unocc",
				"energy": 0.08525,
				"method": "rhf"
			}
		],
		"cosmo_sigma_profile": { 
			"-0.025": 0.0,
			"-0.024": 0.0,
			"-0.023": 0.0,
			"-0.022": 0.0,
			"-0.021": 0.0,
			"-0.02": 0.0,
			"-0.019": 0.0,
			"-0.018": 0.0,
			"-0.017": 0.0,
			"-0.016": 0.0,
			"-0.015": 0.0,
			"-0.014": 0.0,
			"-0.013": 0.0702929298961,
			"-0.012": 3.23855911505,
			"-0.011": 4.1977017091,
			"-0.01": 3.73542646245,
			"-0.009": 2.90750617377,
			"-0.008": 3.81344215885,
			"-0.007": 7.06640126502,
			"-0.006": 9.11867745247,
			"-0.005": 11.6336256285,
			"-0.004": 13.0027282764,
			"-0.003": 15.3127164951,
			"-0.002": 13.4074028648,
			"-0.001": 11.6335484058,
			"0.0": 16.0276014146,
			"0.001": 21.8321182837,
			"0.002": 24.9180537887,
			"0.003": 33.0669884441,
			"0.004": 7.30946745832,
			"0.005": 3.26025199205,
			"0.006": 5.25897050163,
			"0.007": 5.5258903702,
			"0.008": 9.67562888935,
			"0.009": 5.76132571295,
			"0.01": 4.60627227749,
			"0.011": 1.29279430867,
			"0.012": 0.0,
			"0.013": 0.0,
			"0.014": 0.0,
			"0.015": 0.0,
			"0.016": 0.0,
			"0.017": 0.0,
			"0.018": 0.0,
			"0.019": 0.0,
			"0.02": 0.0,
			"0.021": 0.0,
			"0.022": 0.0,
			"0.023": 0.0,
			"0.024": 0.0,
			"0.025": 0.0
		}
	}
}
