{
	 "smiles": "CC(=O)NCC1=CN=CC=C1C", 
	 "Tm": 365.15, 
	 "num_atms": 24, 
	 "gaussian": { 
		 "optdone": 1, 
		 "sigma_profile": "yes", 
		 "theory": "DFT", 
		 "functional": "B3LYP", 
		 "basiset": "6-31G**", 
		 "properties": { 
			 "R2extent": 2661.3889, 
			 "electric_dipole_moment_norm": 2.62033035704, 
			 "electric_quadrupole_moment_norm": 15.526624905, 
			 "total_energy": -534.939251342, 
			 "HOMO_LUMO_gap": 0.22209, 
			 "cosmo_polarized_energy": -14.5, 
			 "cosmo_cavitation_energy": 27.17, 
			 "cosmo_dispersion_energy": -19.49, 
			 "cosmo_repulsion_energy": 1.55, 
			 "cosmo_total_nonelectrostatic_energy": 9.24, 
			 "SMD_solvation_energy": 3.66 
		},
		"coords": [
			{
				"x": -1.8415593284,
				"y": -1.0329223212,
				"z": 3.3028595646,
				"element": "C" 
			},
			{
				"x": -2.0483815935,
				"y": -1.0056600498,
				"z": 1.7962329631,
				"element": "C" 
			},
			{
				"x": -2.8589211638,
				"y": -1.7400653929,
				"z": 1.241455883,
				"element": "O" 
			},
			{
				"x": -1.270006514,
				"y": -0.1111113213,
				"z": 1.1122289493,
				"element": "N" 
			},
			{
				"x": -1.3674161236,
				"y": 0.0709861611,
				"z": -0.3323900697,
				"element": "C" 
			},
			{
				"x": -0.0560246427,
				"y": -0.1364807864,
				"z": -1.0607135067,
				"element": "C" 
			},
			{
				"x": 0.5476341797,
				"y": 0.9530607904,
				"z": -1.699793678,
				"element": "C" 
			},
			{
				"x": 1.6946317734,
				"y": 0.9061599767,
				"z": -2.3854812816,
				"element": "N" 
			},
			{
				"x": 2.2944508074,
				"y": -0.2872886291,
				"z": -2.4566500132,
				"element": "C" 
			},
			{
				"x": 1.7844349397,
				"y": -1.4406548038,
				"z": -1.8626471051,
				"element": "C" 
			},
			{
				"x": 0.5875053641,
				"y": -1.3888782055,
				"z": -1.1402423192,
				"element": "C" 
			},
			{
				"x": 0.0482445187,
				"y": -2.6291712297,
				"z": -0.4717139569,
				"element": "C" 
			},
			{
				"x": -2.7806238018,
				"y": -0.7558740456,
				"z": 3.7901592708,
				"element": "H" 
			},
			{
				"x": -1.6088499127,
				"y": -2.056969673,
				"z": 3.6061164934,
				"element": "H" 
			},
			{
				"x": -1.0495322458,
				"y": -0.3660370755,
				"z": 3.6548353054,
				"element": "H" 
			},
			{
				"x": -0.6145890701,
				"y": 0.4625090601,
				"z": 1.621497758,
				"element": "H" 
			},
			{
				"x": -2.1308385331,
				"y": -0.6381891251,
				"z": -0.6636944462,
				"element": "H" 
			},
			{
				"x": -1.7426714558,
				"y": 1.0783871091,
				"z": -0.552360751,
				"element": "H" 
			},
			{
				"x": 0.0617034024,
				"y": 1.9285726518,
				"z": -1.6545015832,
				"element": "H" 
			},
			{
				"x": 3.2268485497,
				"y": -0.3262532716,
				"z": -3.0177452805,
				"element": "H" 
			},
			{
				"x": 2.3174315458,
				"y": -2.3821836216,
				"z": -1.9652172429,
				"element": "H" 
			},
			{
				"x": 0.3944497805,
				"y": -2.6848976806,
				"z": 0.5677199301,
				"element": "H" 
			},
			{
				"x": -1.0436225552,
				"y": -2.6510487498,
				"z": -0.4366502639,
				"element": "H" 
			},
			{
				"x": 0.4026020792,
				"y": -3.5288897668,
				"z": -0.9823046198,
				"element": "H" 
			}
		],
		 "valence_orbital": [ 
			{
				"type": "occ",
				"energy": -0.27489,
				"method": "rhf"
			},
			{
				"type": "occ",
				"energy": -0.26586,
				"method": "rhf"
			},
			{
				"type": "occ",
				"energy": -0.25879,
				"method": "rhf"
			},
			{
				"type": "occ",
				"energy": -0.25055,
				"method": "rhf"
			},
			{
				"type": "occ",
				"energy": -0.24574,
				"method": "rhf"
			},
			{
				"type": "unocc",
				"energy": -0.02365,
				"method": "rhf"
			},
			{
				"type": "unocc",
				"energy": -0.01167,
				"method": "rhf"
			},
			{
				"type": "unocc",
				"energy": 0.02632,
				"method": "rhf"
			},
			{
				"type": "unocc",
				"energy": 0.07109,
				"method": "rhf"
			},
			{
				"type": "unocc",
				"energy": 0.10742,
				"method": "rhf"
			}
		],
		"cosmo_sigma_profile": { 
			"-0.025": 0.0,
			"-0.024": 0.0,
			"-0.023": 0.0,
			"-0.022": 0.0,
			"-0.021": 0.0,
			"-0.02": 0.0,
			"-0.019": 0.0,
			"-0.018": 0.0,
			"-0.017": 0.0,
			"-0.016": 0.0,
			"-0.015": 0.0330245794566,
			"-0.014": 0.877383648552,
			"-0.013": 1.22501657961,
			"-0.012": 1.38819240235,
			"-0.011": 1.34980979076,
			"-0.01": 1.42899061747,
			"-0.009": 1.16794356865,
			"-0.008": 1.49583762796,
			"-0.007": 2.96773738946,
			"-0.006": 11.3473901032,
			"-0.005": 17.881913095,
			"-0.004": 18.3862175105,
			"-0.003": 19.458615061,
			"-0.002": 21.3211534563,
			"-0.001": 21.1875208927,
			"0.0": 15.5621737732,
			"0.001": 11.5014058895,
			"0.002": 12.1186901338,
			"0.003": 12.7228602085,
			"0.004": 5.5425849571,
			"0.005": 4.4321229395,
			"0.006": 2.8607504431,
			"0.007": 2.5597541332,
			"0.008": 3.30270391483,
			"0.009": 2.63193973372,
			"0.01": 2.15705096153,
			"0.011": 2.20264349277,
			"0.012": 2.23928196069,
			"0.013": 3.45383864918,
			"0.014": 5.30728803605,
			"0.015": 2.8212502401,
			"0.016": 1.18988643017,
			"0.017": 0.660364575151,
			"0.018": 0.0241038448834,
			"0.019": 0.0,
			"0.02": 0.0,
			"0.021": 0.0,
			"0.022": 0.0,
			"0.023": 0.0,
			"0.024": 0.0,
			"0.025": 0.0
		}
	}
}
