{
	 "smiles": "CN1C(=O)C=CN=C1N", 
	 "Tm": 531.15, 
	 "num_atms": 16, 
	 "gaussian": { 
		 "optdone": 1, 
		 "sigma_profile": "yes", 
		 "theory": "DFT", 
		 "functional": "B3LYP", 
		 "basiset": "6-31G**", 
		 "properties": { 
			 "R2extent": 1242.6978, 
			 "electric_dipole_moment_norm": 4.19979774394, 
			 "electric_quadrupole_moment_norm": 9.3700406632, 
			 "total_energy": -434.246267284, 
			 "HOMO_LUMO_gap": 0.19356, 
			 "cosmo_polarized_energy": -15.33, 
			 "cosmo_cavitation_energy": 19.56, 
			 "cosmo_dispersion_energy": -15.01, 
			 "cosmo_repulsion_energy": 1.22, 
			 "cosmo_total_nonelectrostatic_energy": 5.77, 
			 "SMD_solvation_energy": 2.88 
		},
		"coords": [
			{
				"x": 1.2241839693,
				"y": -0.4053263492,
				"z": -1.1272751685,
				"element": "C" 
			},
			{
				"x": 0.1052496417,
				"y": -0.645296906,
				"z": -0.2174283172,
				"element": "N" 
			},
			{
				"x": 0.4117246078,
				"y": -0.7815014072,
				"z": 1.1840989456,
				"element": "C" 
			},
			{
				"x": 1.5697731691,
				"y": -0.6560325063,
				"z": 1.5669829089,
				"element": "O" 
			},
			{
				"x": -0.7457833239,
				"y": -1.0711129066,
				"z": 1.9884663928,
				"element": "C" 
			},
			{
				"x": -1.9749358973,
				"y": -1.1807414881,
				"z": 1.404128231,
				"element": "C" 
			},
			{
				"x": -2.2227333981,
				"y": -1.0206798638,
				"z": 0.0752276457,
				"element": "N" 
			},
			{
				"x": -1.1775919259,
				"y": -0.7635716662,
				"z": -0.6825480924,
				"element": "C" 
			},
			{
				"x": -1.3784528549,
				"y": -0.6569260618,
				"z": -2.0371659496,
				"element": "N" 
			},
			{
				"x": 2.1318741736,
				"y": -0.4773034315,
				"z": -0.5299976207,
				"element": "H" 
			},
			{
				"x": 1.1700505341,
				"y": 0.5982335597,
				"z": -1.566094484,
				"element": "H" 
			},
			{
				"x": 1.2330338638,
				"y": -1.1543388548,
				"z": -1.9240754811,
				"element": "H" 
			},
			{
				"x": -0.5949327388,
				"y": -1.196354521,
				"z": 3.0529431942,
				"element": "H" 
			},
			{
				"x": -2.8514685772,
				"y": -1.4028951352,
				"z": 2.0097779011,
				"element": "H" 
			},
			{
				"x": -2.3578259913,
				"y": -0.6090300451,
				"z": -2.2803580857,
				"element": "H" 
			},
			{
				"x": -0.7654652522,
				"y": -0.0693224168,
				"z": -2.58078202,
				"element": "H" 
			}
		],
		 "valence_orbital": [ 
			{
				"type": "occ",
				"energy": -0.3193,
				"method": "rhf"
			},
			{
				"type": "occ",
				"energy": -0.28041,
				"method": "rhf"
			},
			{
				"type": "occ",
				"energy": -0.27649,
				"method": "rhf"
			},
			{
				"type": "occ",
				"energy": -0.25256,
				"method": "rhf"
			},
			{
				"type": "occ",
				"energy": -0.21859,
				"method": "rhf"
			},
			{
				"type": "unocc",
				"energy": -0.02503,
				"method": "rhf"
			},
			{
				"type": "unocc",
				"energy": 0.01933,
				"method": "rhf"
			},
			{
				"type": "unocc",
				"energy": 0.06121,
				"method": "rhf"
			},
			{
				"type": "unocc",
				"energy": 0.10319,
				"method": "rhf"
			},
			{
				"type": "unocc",
				"energy": 0.12473,
				"method": "rhf"
			}
		],
		"cosmo_sigma_profile": { 
			"-0.025": 0.0,
			"-0.024": 0.0,
			"-0.023": 0.0,
			"-0.022": 0.0,
			"-0.021": 0.0,
			"-0.02": 0.0,
			"-0.019": 0.0,
			"-0.018": 0.0,
			"-0.017": 0.0,
			"-0.016": 0.0,
			"-0.015": 0.241265044043,
			"-0.014": 2.17646126678,
			"-0.013": 2.97649312315,
			"-0.012": 2.60033871683,
			"-0.011": 2.99440574081,
			"-0.01": 2.19192700449,
			"-0.009": 1.95280743624,
			"-0.008": 2.61447302416,
			"-0.007": 5.2018440989,
			"-0.006": 8.20541165358,
			"-0.005": 8.92807452325,
			"-0.004": 10.0283771947,
			"-0.003": 11.299987031,
			"-0.002": 12.4329276538,
			"-0.001": 8.86538794034,
			"0.0": 6.30918477244,
			"0.001": 6.56145536213,
			"0.002": 8.22011621852,
			"0.003": 9.09971398332,
			"0.004": 7.45247190849,
			"0.005": 3.24438219555,
			"0.006": 3.93180470303,
			"0.007": 2.83416665086,
			"0.008": 2.12888671006,
			"0.009": 3.39177668192,
			"0.01": 3.19724969169,
			"0.011": 2.60738604408,
			"0.012": 2.89458863472,
			"0.013": 4.72115684544,
			"0.014": 4.5951989494,
			"0.015": 1.67135945537,
			"0.016": 0.0461041049532,
			"0.017": 0.0,
			"0.018": 0.0,
			"0.019": 0.0,
			"0.02": 0.0,
			"0.021": 0.0,
			"0.022": 0.0,
			"0.023": 0.0,
			"0.024": 0.0,
			"0.025": 0.0
		}
	}
}
