{
	 "smiles": "CC1=CC(=CC(C)=C1)N1CCC(C(O)=O)C1=O", 
	 "Tm": 389.15, 
	 "num_atms": 32, 
	 "gaussian": { 
		 "optdone": 1, 
		 "sigma_profile": "yes", 
		 "theory": "DFT", 
		 "functional": "B3LYP", 
		 "basiset": "6-31G**", 
		 "properties": { 
			 "R2extent": 5724.549, 
			 "electric_dipole_moment_norm": 4.2146341668, 
			 "electric_quadrupole_moment_norm": 18.3627293513, 
			 "total_energy": -784.893014097, 
			 "HOMO_LUMO_gap": 0.20221, 
			 "cosmo_polarized_energy": -16.64, 
			 "cosmo_cavitation_energy": 35.17, 
			 "cosmo_dispersion_energy": -25.23, 
			 "cosmo_repulsion_energy": 1.98, 
			 "cosmo_total_nonelectrostatic_energy": 11.92, 
			 "SMD_solvation_energy": 7.2 
		},
		"coords": [
			{
				"x": 1.7392274838,
				"y": -4.297459628,
				"z": 0.232492722,
				"element": "C" 
			},
			{
				"x": 1.0476694991,
				"y": -2.9820521984,
				"z": -0.0444544323,
				"element": "C" 
			},
			{
				"x": 1.4749798318,
				"y": -1.8136595391,
				"z": 0.5959046524,
				"element": "C" 
			},
			{
				"x": 0.8616328598,
				"y": -0.5804848327,
				"z": 0.3273116932,
				"element": "C" 
			},
			{
				"x": -0.1947266138,
				"y": -0.5229250064,
				"z": -0.5969733108,
				"element": "C" 
			},
			{
				"x": -0.6273156591,
				"y": -1.6827840295,
				"z": -1.2440765562,
				"element": "C" 
			},
			{
				"x": -1.745730911,
				"y": -1.6103567458,
				"z": -2.258439589,
				"element": "C" 
			},
			{
				"x": -0.0063971912,
				"y": -2.9048502769,
				"z": -0.9575644887,
				"element": "C" 
			},
			{
				"x": 1.3071374059,
				"y": 0.5790832017,
				"z": 1.0161423403,
				"element": "N" 
			},
			{
				"x": 2.2329676402,
				"y": 0.4848874913,
				"z": 2.1503570972,
				"element": "C" 
			},
			{
				"x": 2.1991632979,
				"y": 1.8877590025,
				"z": 2.7760653712,
				"element": "C" 
			},
			{
				"x": 1.8806722039,
				"y": 2.8011104755,
				"z": 1.5826740893,
				"element": "C" 
			},
			{
				"x": 1.1412645989,
				"y": 4.0832218083,
				"z": 1.905190718,
				"element": "C" 
			},
			{
				"x": 0.0177984682,
				"y": 3.8472113947,
				"z": 2.6245962221,
				"element": "O" 
			},
			{
				"x": 1.4932838865,
				"y": 5.1924952048,
				"z": 1.5786204997,
				"element": "O" 
			},
			{
				"x": 1.0645724086,
				"y": 1.8900015287,
				"z": 0.6423712961,
				"element": "C" 
			},
			{
				"x": 0.3660198974,
				"y": 2.284978017,
				"z": -0.2736315997,
				"element": "O" 
			},
			{
				"x": 1.0700863805,
				"y": -5.1443820334,
				"z": 0.054634062,
				"element": "H" 
			},
			{
				"x": 2.0927318706,
				"y": -4.3571467335,
				"z": 1.2666914331,
				"element": "H" 
			},
			{
				"x": 2.613057692,
				"y": -4.4308680715,
				"z": -0.4176843809,
				"element": "H" 
			},
			{
				"x": 2.2961274776,
				"y": -1.8793679324,
				"z": 1.3010275442,
				"element": "H" 
			},
			{
				"x": -0.6644223945,
				"y": 0.4272098152,
				"z": -0.8076432473,
				"element": "H" 
			},
			{
				"x": -2.3614108562,
				"y": -2.5151489653,
				"z": -2.240613332,
				"element": "H" 
			},
			{
				"x": -2.3961270825,
				"y": -0.7504353508,
				"z": -2.0761092572,
				"element": "H" 
			},
			{
				"x": -1.3477801432,
				"y": -1.5082291517,
				"z": -3.2758251778,
				"element": "H" 
			},
			{
				"x": -0.3513870883,
				"y": -3.8098576611,
				"z": -1.4529150295,
				"element": "H" 
			},
			{
				"x": 1.9003618341,
				"y": -0.2883037186,
				"z": 2.848439025,
				"element": "H" 
			},
			{
				"x": 3.2417782152,
				"y": 0.2180358975,
				"z": 1.8059299818,
				"element": "H" 
			},
			{
				"x": 3.137682111,
				"y": 2.1410856507,
				"z": 3.2739767088,
				"element": "H" 
			},
			{
				"x": 1.3908834221,
				"y": 1.9488378796,
				"z": 3.5090246099,
				"element": "H" 
			},
			{
				"x": 2.7886446365,
				"y": 3.0963393281,
				"z": 1.0461261977,
				"element": "H" 
			},
			{
				"x": -0.4056451819,
				"y": 4.7115551795,
				"z": 2.7581541374,
				"element": "H" 
			}
		],
		 "valence_orbital": [ 
			{
				"type": "occ",
				"energy": -0.28827,
				"method": "rhf"
			},
			{
				"type": "occ",
				"energy": -0.27827,
				"method": "rhf"
			},
			{
				"type": "occ",
				"energy": -0.25559,
				"method": "rhf"
			},
			{
				"type": "occ",
				"energy": -0.23455,
				"method": "rhf"
			},
			{
				"type": "occ",
				"energy": -0.21689,
				"method": "rhf"
			},
			{
				"type": "unocc",
				"energy": -0.01468,
				"method": "rhf"
			},
			{
				"type": "unocc",
				"energy": 0.0015,
				"method": "rhf"
			},
			{
				"type": "unocc",
				"energy": 0.00371,
				"method": "rhf"
			},
			{
				"type": "unocc",
				"energy": 0.03786,
				"method": "rhf"
			},
			{
				"type": "unocc",
				"energy": 0.06857,
				"method": "rhf"
			}
		],
		"cosmo_sigma_profile": { 
			"-0.025": 0.0,
			"-0.024": 0.0,
			"-0.023": 0.0,
			"-0.022": 0.0,
			"-0.021": 0.0,
			"-0.02": 0.0,
			"-0.019": 0.126629154895,
			"-0.018": 1.07218441695,
			"-0.017": 0.876981566153,
			"-0.016": 0.752323990261,
			"-0.015": 0.743203967655,
			"-0.014": 0.780755282355,
			"-0.013": 0.778070746601,
			"-0.012": 0.624038445805,
			"-0.011": 0.700212147055,
			"-0.01": 0.67289900674,
			"-0.009": 0.543845139608,
			"-0.008": 2.04572011439,
			"-0.007": 4.46840973054,
			"-0.006": 12.8435737679,
			"-0.005": 20.8665845971,
			"-0.004": 27.2322428462,
			"-0.003": 25.793917411,
			"-0.002": 22.180283333,
			"-0.001": 20.0179674727,
			"0.0": 25.9729714689,
			"0.001": 15.5407734349,
			"0.002": 11.6044205684,
			"0.003": 11.31783818,
			"0.004": 11.1421479623,
			"0.005": 12.9778720111,
			"0.006": 13.4489362416,
			"0.007": 5.13719459494,
			"0.008": 4.26005639367,
			"0.009": 2.80874150281,
			"0.01": 4.64131417603,
			"0.011": 7.50339061971,
			"0.012": 6.36732164811,
			"0.013": 1.58413369169,
			"0.014": 0.0,
			"0.015": 0.0,
			"0.016": 0.0,
			"0.017": 0.0,
			"0.018": 0.0,
			"0.019": 0.0,
			"0.02": 0.0,
			"0.021": 0.0,
			"0.022": 0.0,
			"0.023": 0.0,
			"0.024": 0.0,
			"0.025": 0.0
		}
	}
}
