{
	 "smiles": "CC1=C(SC(=N1)C(=NNC1=CC=CC=C1Cl)C#N)N=NC1=CC=C(Br)C=C1", 
	 "Tm": 514.15, 
	 "num_atms": 39, 
	 "gaussian": { 
		 "optdone": 1, 
		 "sigma_profile": "yes", 
		 "theory": "DFT", 
		 "functional": "B3LYP", 
		 "basiset": "6-31G**", 
		 "properties": { 
			 "R2extent": 20768.5459, 
			 "electric_dipole_moment_norm": 4.88926320216, 
			 "electric_quadrupole_moment_norm": 30.5745925801, 
			 "total_energy": -4451.30333552, 
			 "HOMO_LUMO_gap": 0.10819, 
			 "cosmo_polarized_energy": -20.19, 
			 "cosmo_cavitation_energy": 52.46, 
			 "cosmo_dispersion_energy": -36.31, 
			 "cosmo_repulsion_energy": 2.71, 
			 "cosmo_total_nonelectrostatic_energy": 18.86, 
			 "SMD_solvation_energy": 4.15 
		},
		"coords": [
			{
				"x": -2.5888581049,
				"y": -0.2137860628,
				"z": -1.3313017555,
				"element": "C" 
			},
			{
				"x": -1.2432840917,
				"y": -0.8688569916,
				"z": -1.2552244085,
				"element": "C" 
			},
			{
				"x": -0.545929004,
				"y": -1.4432070672,
				"z": -2.3141972112,
				"element": "C" 
			},
			{
				"x": 0.8891502443,
				"y": -2.2528008886,
				"z": -1.7196962072,
				"element": "S" 
			},
			{
				"x": 0.4845270846,
				"y": -1.6679755626,
				"z": -0.1077610096,
				"element": "C" 
			},
			{
				"x": -0.6387784704,
				"y": -1.0013365832,
				"z": -0.0372539801,
				"element": "N" 
			},
			{
				"x": 1.3839387768,
				"y": -1.9061739106,
				"z": 1.0170689576,
				"element": "C" 
			},
			{
				"x": 1.1237742816,
				"y": -1.3706279484,
				"z": 2.1840143858,
				"element": "N" 
			},
			{
				"x": 1.9255732218,
				"y": -1.6061744016,
				"z": 3.2021830044,
				"element": "N" 
			},
			{
				"x": 1.7582241909,
				"y": -1.0132011631,
				"z": 4.467531757,
				"element": "C" 
			},
			{
				"x": 2.9302377409,
				"y": -0.7440509347,
				"z": 5.1933023398,
				"element": "C" 
			},
			{
				"x": 2.8792332523,
				"y": -0.1927946551,
				"z": 6.4679688867,
				"element": "C" 
			},
			{
				"x": 1.6439259576,
				"y": 0.11566028,
				"z": 7.0394323924,
				"element": "C" 
			},
			{
				"x": 0.4720257058,
				"y": -0.1543490936,
				"z": 6.3364346348,
				"element": "C" 
			},
			{
				"x": 0.5145484878,
				"y": -0.7292515569,
				"z": 5.0641848272,
				"element": "C" 
			},
			{
				"x": -1.0066048811,
				"y": -1.1257371205,
				"z": 4.3003347106,
				"element": "Cl" 
			},
			{
				"x": 2.5512404061,
				"y": -2.7250483384,
				"z": 0.8335416879,
				"element": "C" 
			},
			{
				"x": 3.5296381419,
				"y": -3.3581468949,
				"z": 0.8177422634,
				"element": "N" 
			},
			{
				"x": -0.9466228476,
				"y": -1.743426898,
				"z": -3.6236854737,
				"element": "N" 
			},
			{
				"x": -1.4623901757,
				"y": -0.9144630087,
				"z": -4.4165470707,
				"element": "N" 
			},
			{
				"x": -1.4546159776,
				"y": 0.4971166828,
				"z": -4.2174131073,
				"element": "C" 
			},
			{
				"x": -2.5749264844,
				"y": 1.1948457842,
				"z": -4.6935917146,
				"element": "C" 
			},
			{
				"x": -2.6128166129,
				"y": 2.58572142,
				"z": -4.6590710016,
				"element": "C" 
			},
			{
				"x": -1.4982586103,
				"y": 3.2837291918,
				"z": -4.192975497,
				"element": "C" 
			},
			{
				"x": -1.5266611961,
				"y": 5.1907329622,
				"z": -4.166076266,
				"element": "Br" 
			},
			{
				"x": -0.3541375343,
				"y": 2.6085344475,
				"z": -3.7623256362,
				"element": "C" 
			},
			{
				"x": -0.3347329569,
				"y": 1.2167866634,
				"z": -3.7667087455,
				"element": "C" 
			},
			{
				"x": -3.2007489255,
				"y": -0.6466058218,
				"z": -2.1268159302,
				"element": "H" 
			},
			{
				"x": -3.101361184,
				"y": -0.3385682978,
				"z": -0.3751768767,
				"element": "H" 
			},
			{
				"x": -2.4977909631,
				"y": 0.8601882713,
				"z": -1.5319680282,
				"element": "H" 
			},
			{
				"x": 2.7915738091,
				"y": -2.1265815804,
				"z": 3.0524325594,
				"element": "H" 
			},
			{
				"x": 3.8893988569,
				"y": -0.9612766134,
				"z": 4.730454237,
				"element": "H" 
			},
			{
				"x": 3.8013404923,
				"y": 0.0067234737,
				"z": 7.0041864971,
				"element": "H" 
			},
			{
				"x": 1.5875920377,
				"y": 0.5562645799,
				"z": 8.0295065956,
				"element": "H" 
			},
			{
				"x": -0.4967004975,
				"y": 0.0603461402,
				"z": 6.7738305395,
				"element": "H" 
			},
			{
				"x": -3.4130685368,
				"y": 0.6286585113,
				"z": -5.0870754767,
				"element": "H" 
			},
			{
				"x": -3.4874714081,
				"y": 3.122860503,
				"z": -5.0073222552,
				"element": "H" 
			},
			{
				"x": 0.5131628804,
				"y": 3.1668359375,
				"z": -3.4288485323,
				"element": "H" 
			},
			{
				"x": 0.5583528945,
				"y": 0.6937365451,
				"z": -3.4443140917,
				"element": "H" 
			}
		],
		 "valence_orbital": [ 
			{
				"type": "occ",
				"energy": -0.26911,
				"method": "rhf"
			},
			{
				"type": "occ",
				"energy": -0.26058,
				"method": "rhf"
			},
			{
				"type": "occ",
				"energy": -0.25873,
				"method": "rhf"
			},
			{
				"type": "occ",
				"energy": -0.2374,
				"method": "rhf"
			},
			{
				"type": "occ",
				"energy": -0.20875,
				"method": "rhf"
			},
			{
				"type": "unocc",
				"energy": -0.10056,
				"method": "rhf"
			},
			{
				"type": "unocc",
				"energy": -0.07637,
				"method": "rhf"
			},
			{
				"type": "unocc",
				"energy": -0.02987,
				"method": "rhf"
			},
			{
				"type": "unocc",
				"energy": -0.02839,
				"method": "rhf"
			},
			{
				"type": "unocc",
				"energy": -0.01998,
				"method": "rhf"
			}
		],
		"cosmo_sigma_profile": { 
			"-0.025": 0.0,
			"-0.024": 0.0,
			"-0.023": 0.0,
			"-0.022": 0.0,
			"-0.021": 0.0,
			"-0.02": 0.0,
			"-0.019": 0.0,
			"-0.018": 0.0,
			"-0.017": 0.0,
			"-0.016": 0.0049650472095,
			"-0.015": 1.12627386166,
			"-0.014": 1.51525857824,
			"-0.013": 1.19587454419,
			"-0.012": 1.10680564569,
			"-0.011": 1.35010257344,
			"-0.01": 1.57381163544,
			"-0.009": 2.38755900013,
			"-0.008": 5.70117562262,
			"-0.007": 15.7587660948,
			"-0.006": 20.4946734471,
			"-0.005": 25.0536313231,
			"-0.004": 24.4779321965,
			"-0.003": 26.733929814,
			"-0.002": 30.3771845117,
			"-0.001": 39.8322595808,
			"0.0": 36.8294798545,
			"0.001": 42.5923057875,
			"0.002": 39.3550692723,
			"0.003": 30.8940627391,
			"0.004": 26.5701351253,
			"0.005": 9.59278231718,
			"0.006": 7.22475180147,
			"0.007": 6.43586725097,
			"0.008": 6.82905169931,
			"0.009": 5.39396199232,
			"0.01": 6.84910910541,
			"0.011": 6.44856181356,
			"0.012": 4.13609190674,
			"0.013": 2.25599534543,
			"0.014": 1.20834337537,
			"0.015": 0.0677753828554,
			"0.016": 0.0,
			"0.017": 0.0,
			"0.018": 0.0,
			"0.019": 0.0,
			"0.02": 0.0,
			"0.021": 0.0,
			"0.022": 0.0,
			"0.023": 0.0,
			"0.024": 0.0,
			"0.025": 0.0
		}
	}
}
