{
	 "smiles": "NS(=O)(=O)CCN1CCNCC1", 
	 "Tm": 418.15, 
	 "num_atms": 27, 
	 "gaussian": { 
		 "optdone": 1, 
		 "sigma_profile": "yes", 
		 "theory": "DFT", 
		 "functional": "B3LYP", 
		 "basiset": "6-31G**", 
		 "properties": { 
			 "R2extent": 4037.2528, 
			 "electric_dipole_moment_norm": 3.1006581898, 
			 "electric_quadrupole_moment_norm": 21.6465917019, 
			 "total_energy": -950.479884572, 
			 "HOMO_LUMO_gap": 0.26845, 
			 "cosmo_polarized_energy": -17.89, 
			 "cosmo_cavitation_energy": 29.5, 
			 "cosmo_dispersion_energy": -22.32, 
			 "cosmo_repulsion_energy": 1.76, 
			 "cosmo_total_nonelectrostatic_energy": 8.94, 
			 "SMD_solvation_energy": -0.45 
		},
		"coords": [
			{
				"x": 4.0689420327,
				"y": 1.5353876085,
				"z": -0.3792389388,
				"element": "N" 
			},
			{
				"x": 2.6679115976,
				"y": 2.1422089761,
				"z": 0.3695191386,
				"element": "S" 
			},
			{
				"x": 2.6926008551,
				"y": 1.6751776059,
				"z": 1.7599792704,
				"element": "O" 
			},
			{
				"x": 2.5524105906,
				"y": 3.5647894113,
				"z": 0.0341717483,
				"element": "O" 
			},
			{
				"x": 1.3499679317,
				"y": 1.2715875871,
				"z": -0.5064578724,
				"element": "C" 
			},
			{
				"x": 1.3845148304,
				"y": -0.2472918464,
				"z": -0.3118016094,
				"element": "C" 
			},
			{
				"x": 0.3269885023,
				"y": -0.8981492823,
				"z": -1.0792692659,
				"element": "N" 
			},
			{
				"x": -1.0031246401,
				"y": -0.7961832885,
				"z": -0.4756177324,
				"element": "C" 
			},
			{
				"x": -2.0660786355,
				"y": -1.1906058701,
				"z": -1.5387243481,
				"element": "C" 
			},
			{
				"x": -1.5409888685,
				"y": -2.0867437646,
				"z": -2.5765427471,
				"element": "N" 
			},
			{
				"x": -0.5756482591,
				"y": -3.018374678,
				"z": -1.9981431859,
				"element": "C" 
			},
			{
				"x": 0.6469319959,
				"y": -2.3070557195,
				"z": -1.3491946348,
				"element": "C" 
			},
			{
				"x": 4.5262910221,
				"y": 2.2864070413,
				"z": -0.8904476388,
				"element": "H" 
			},
			{
				"x": 4.6838293482,
				"y": 1.161369987,
				"z": 0.3392462099,
				"element": "H" 
			},
			{
				"x": 1.4448617766,
				"y": 1.5374963853,
				"z": -1.5617513435,
				"element": "H" 
			},
			{
				"x": 0.4351261661,
				"y": 1.7264606949,
				"z": -0.1161380402,
				"element": "H" 
			},
			{
				"x": 1.3394177009,
				"y": -0.4865661573,
				"z": 0.7644077373,
				"element": "H" 
			},
			{
				"x": 2.3464491123,
				"y": -0.6145385931,
				"z": -0.684053533,
				"element": "H" 
			},
			{
				"x": -1.1786891955,
				"y": 0.2288276882,
				"z": -0.1355838809,
				"element": "H" 
			},
			{
				"x": -1.0851474965,
				"y": -1.4405267043,
				"z": 0.4214798288,
				"element": "H" 
			},
			{
				"x": -2.4564036813,
				"y": -0.29680513,
				"z": -2.035060039,
				"element": "H" 
			},
			{
				"x": -2.9140605555,
				"y": -1.6771625423,
				"z": -1.0392590212,
				"element": "H" 
			},
			{
				"x": -1.0535573861,
				"y": -1.5167040282,
				"z": -3.2635418226,
				"element": "H" 
			},
			{
				"x": -1.1041385153,
				"y": -3.6165255745,
				"z": -1.246148567,
				"element": "H" 
			},
			{
				"x": -0.2365419623,
				"y": -3.7166261241,
				"z": -2.7700247111,
				"element": "H" 
			},
			{
				"x": 1.5120303821,
				"y": -2.331041673,
				"z": -2.0235541246,
				"element": "H" 
			},
			{
				"x": 0.9413053512,
				"y": -2.8446120093,
				"z": -0.4263508768,
				"element": "H" 
			}
		],
		 "valence_orbital": [ 
			{
				"type": "occ",
				"energy": -0.31596,
				"method": "rhf"
			},
			{
				"type": "occ",
				"energy": -0.30292,
				"method": "rhf"
			},
			{
				"type": "occ",
				"energy": -0.29376,
				"method": "rhf"
			},
			{
				"type": "occ",
				"energy": -0.22515,
				"method": "rhf"
			},
			{
				"type": "occ",
				"energy": -0.22154,
				"method": "rhf"
			},
			{
				"type": "unocc",
				"energy": 0.04691,
				"method": "rhf"
			},
			{
				"type": "unocc",
				"energy": 0.06945,
				"method": "rhf"
			},
			{
				"type": "unocc",
				"energy": 0.07849,
				"method": "rhf"
			},
			{
				"type": "unocc",
				"energy": 0.08357,
				"method": "rhf"
			},
			{
				"type": "unocc",
				"energy": 0.09408,
				"method": "rhf"
			}
		],
		"cosmo_sigma_profile": { 
			"-0.025": 0.0,
			"-0.024": 0.0,
			"-0.023": 0.0,
			"-0.022": 0.0,
			"-0.021": 0.0,
			"-0.02": 0.0,
			"-0.019": 0.0,
			"-0.018": 0.0,
			"-0.017": 0.0,
			"-0.016": 0.0,
			"-0.015": 0.522578294961,
			"-0.014": 2.39322889991,
			"-0.013": 2.60725735826,
			"-0.012": 2.6850773284,
			"-0.011": 2.32144575802,
			"-0.01": 1.83762958547,
			"-0.009": 2.70216801824,
			"-0.008": 6.74806382551,
			"-0.007": 7.29799887355,
			"-0.006": 5.15323930512,
			"-0.005": 6.97508912557,
			"-0.004": 13.6930775604,
			"-0.003": 26.6155161017,
			"-0.002": 33.7067912267,
			"-0.001": 25.9151769311,
			"0.0": 12.2891251987,
			"0.001": 5.25244380487,
			"0.002": 5.97078411213,
			"0.003": 5.24788377082,
			"0.004": 4.62019379057,
			"0.005": 4.00102875219,
			"0.006": 5.08780864698,
			"0.007": 4.18665527146,
			"0.008": 3.99165008681,
			"0.009": 5.88549094896,
			"0.01": 6.7588823335,
			"0.011": 12.1161063818,
			"0.012": 8.21747305528,
			"0.013": 0.717427216988,
			"0.014": 0.0879656310704,
			"0.015": 0.251821389416,
			"0.016": 1.3708820149,
			"0.017": 0.323388346528,
			"0.018": 0.656915955854,
			"0.019": 0.265753563306,
			"0.02": 0.0,
			"0.021": 0.0,
			"0.022": 0.0,
			"0.023": 0.0,
			"0.024": 0.0,
			"0.025": 0.0
		}
	}
}
