{
	 "smiles": "CC(CN1C=CN=C1)NC(=O)C1(N)CCCC1", 
	 "Tm": 513.15, 
	 "num_atms": 37, 
	 "gaussian": { 
		 "optdone": 1, 
		 "sigma_profile": "yes", 
		 "theory": "DFT", 
		 "functional": "B3LYP", 
		 "basiset": "6-31G**", 
		 "properties": { 
			 "R2extent": 6261.4002, 
			 "electric_dipole_moment_norm": 6.40165933645, 
			 "electric_quadrupole_moment_norm": 20.422349842, 
			 "total_energy": -763.581625723, 
			 "HOMO_LUMO_gap": 0.23713, 
			 "cosmo_polarized_energy": -18.37, 
			 "cosmo_cavitation_energy": 38.03, 
			 "cosmo_dispersion_energy": -26.13, 
			 "cosmo_repulsion_energy": 2.03, 
			 "cosmo_total_nonelectrostatic_energy": 13.93, 
			 "SMD_solvation_energy": 4.27 
		},
		"coords": [
			{
				"x": 1.957646885,
				"y": 3.4183897222,
				"z": 0.0612421747,
				"element": "C" 
			},
			{
				"x": 1.3412659273,
				"y": 2.0847117167,
				"z": -0.3559838066,
				"element": "C" 
			},
			{
				"x": 0.5077677984,
				"y": 2.1844625989,
				"z": -1.6567641767,
				"element": "C" 
			},
			{
				"x": 1.3139396116,
				"y": 2.4906151284,
				"z": -2.8289100911,
				"element": "N" 
			},
			{
				"x": 2.1551597407,
				"y": 1.6181301363,
				"z": -3.4944240479,
				"element": "C" 
			},
			{
				"x": 2.7411124872,
				"y": 2.3587472604,
				"z": -4.4916981079,
				"element": "C" 
			},
			{
				"x": 2.2898226514,
				"y": 3.65938188,
				"z": -4.4627487817,
				"element": "N" 
			},
			{
				"x": 1.4420992968,
				"y": 3.7013691375,
				"z": -3.4567755353,
				"element": "C" 
			},
			{
				"x": 0.5060407418,
				"y": 1.5599876595,
				"z": 0.7165823653,
				"element": "N" 
			},
			{
				"x": 0.1965993347,
				"y": 0.2396340632,
				"z": 0.8124444576,
				"element": "C" 
			},
			{
				"x": 0.5715290348,
				"y": -0.5967199025,
				"z": -0.0101045314,
				"element": "O" 
			},
			{
				"x": -0.7072577481,
				"y": -0.1289457974,
				"z": 2.011001663,
				"element": "C" 
			},
			{
				"x": -0.5503366992,
				"y": 0.8959545955,
				"z": 3.0557560216,
				"element": "N" 
			},
			{
				"x": -2.1777762432,
				"y": -0.1901124858,
				"z": 1.5191000971,
				"element": "C" 
			},
			{
				"x": -2.2937495005,
				"y": -1.5373160241,
				"z": 0.7885174036,
				"element": "C" 
			},
			{
				"x": -1.320207889,
				"y": -2.495476049,
				"z": 1.5321798701,
				"element": "C" 
			},
			{
				"x": -0.4435440714,
				"y": -1.5971171478,
				"z": 2.4421086492,
				"element": "C" 
			},
			{
				"x": 2.5824318875,
				"y": 3.2959118201,
				"z": 0.9509376048,
				"element": "H" 
			},
			{
				"x": 1.1798752972,
				"y": 4.158441599,
				"z": 0.2873973653,
				"element": "H" 
			},
			{
				"x": 2.581484641,
				"y": 3.8205851597,
				"z": -0.7405443776,
				"element": "H" 
			},
			{
				"x": 2.1339669546,
				"y": 1.3500819241,
				"z": -0.5385885444,
				"element": "H" 
			},
			{
				"x": 0.0044324699,
				"y": 1.2278238022,
				"z": -1.8150391539,
				"element": "H" 
			},
			{
				"x": -0.255859911,
				"y": 2.9623368029,
				"z": -1.5538763327,
				"element": "H" 
			},
			{
				"x": 2.2392991224,
				"y": 0.5820581194,
				"z": -3.2023163367,
				"element": "H" 
			},
			{
				"x": 3.455952939,
				"y": 2.0264304603,
				"z": -5.2320803864,
				"element": "H" 
			},
			{
				"x": 0.8790005993,
				"y": 4.568576703,
				"z": -3.1368167496,
				"element": "H" 
			},
			{
				"x": 0.1706405654,
				"y": 2.1506399097,
				"z": 1.4693263801,
				"element": "H" 
			},
			{
				"x": -1.2937243203,
				"y": 0.8003511515,
				"z": 3.7435483185,
				"element": "H" 
			},
			{
				"x": 0.3256744101,
				"y": 0.7525685522,
				"z": 3.5551388822,
				"element": "H" 
			},
			{
				"x": -2.8261292204,
				"y": -0.1790487169,
				"z": 2.4068072542,
				"element": "H" 
			},
			{
				"x": -2.4537710857,
				"y": 0.6728788263,
				"z": 0.9050916243,
				"element": "H" 
			},
			{
				"x": -3.3239026222,
				"y": -1.9060788755,
				"z": 0.7748160176,
				"element": "H" 
			},
			{
				"x": -1.9730318329,
				"y": -1.4221665896,
				"z": -0.2498893743,
				"element": "H" 
			},
			{
				"x": -0.704454654,
				"y": -3.0419176945,
				"z": 0.8153970208,
				"element": "H" 
			},
			{
				"x": -1.8641410471,
				"y": -3.2352536242,
				"z": 2.1285847184,
				"element": "H" 
			},
			{
				"x": -0.753037742,
				"y": -1.6918885563,
				"z": 3.4901286028,
				"element": "H" 
			},
			{
				"x": 0.6180821909,
				"y": -1.8526272655,
				"z": 2.3855538431,
				"element": "H" 
			}
		],
		 "valence_orbital": [ 
			{
				"type": "occ",
				"energy": -0.26682,
				"method": "rhf"
			},
			{
				"type": "occ",
				"energy": -0.25424,
				"method": "rhf"
			},
			{
				"type": "occ",
				"energy": -0.24858,
				"method": "rhf"
			},
			{
				"type": "occ",
				"energy": -0.24219,
				"method": "rhf"
			},
			{
				"type": "occ",
				"energy": -0.21668,
				"method": "rhf"
			},
			{
				"type": "unocc",
				"energy": 0.02045,
				"method": "rhf"
			},
			{
				"type": "unocc",
				"energy": 0.03563,
				"method": "rhf"
			},
			{
				"type": "unocc",
				"energy": 0.06331,
				"method": "rhf"
			},
			{
				"type": "unocc",
				"energy": 0.07681,
				"method": "rhf"
			},
			{
				"type": "unocc",
				"energy": 0.08754,
				"method": "rhf"
			}
		],
		"cosmo_sigma_profile": { 
			"-0.025": 0.0,
			"-0.024": 0.0,
			"-0.023": 0.0,
			"-0.022": 0.0,
			"-0.021": 0.0,
			"-0.02": 0.0,
			"-0.019": 0.0,
			"-0.018": 0.0,
			"-0.017": 0.0,
			"-0.016": 0.0,
			"-0.015": 0.0,
			"-0.014": 0.0,
			"-0.013": 0.0,
			"-0.012": 0.0,
			"-0.011": 0.168071077613,
			"-0.01": 2.47206151463,
			"-0.009": 3.25531876867,
			"-0.008": 8.42517200796,
			"-0.007": 9.11803414698,
			"-0.006": 12.1275726407,
			"-0.005": 13.9814979715,
			"-0.004": 18.1760211094,
			"-0.003": 28.0563548833,
			"-0.002": 32.072474614,
			"-0.001": 34.8799887578,
			"0.0": 30.7047438833,
			"0.001": 23.6016630497,
			"0.002": 13.8748881791,
			"0.003": 7.81468463537,
			"0.004": 7.19449256081,
			"0.005": 7.22855412168,
			"0.006": 7.53313014217,
			"0.007": 4.93504092799,
			"0.008": 3.6106609321,
			"0.009": 3.47425202372,
			"0.01": 4.48710785114,
			"0.011": 3.7878304769,
			"0.012": 2.60831441566,
			"0.013": 3.13008887069,
			"0.014": 4.47575840456,
			"0.015": 1.4493614043,
			"0.016": 1.14812325386,
			"0.017": 1.30898577919,
			"0.018": 0.907542865335,
			"0.019": 0.347133443843,
			"0.02": 0.0,
			"0.021": 0.0,
			"0.022": 0.0,
			"0.023": 0.0,
			"0.024": 0.0,
			"0.025": 0.0
		}
	}
}
