{
	 "smiles": "CC(Cl)C(=O)NC1=NC=CC=N1", 
	 "Tm": 422.15, 
	 "num_atms": 20, 
	 "gaussian": { 
		 "optdone": 1, 
		 "sigma_profile": "yes", 
		 "theory": "DFT", 
		 "functional": "B3LYP", 
		 "basiset": "6-31G**", 
		 "properties": { 
			 "R2extent": 4472.1122, 
			 "electric_dipole_moment_norm": 2.12584175563, 
			 "electric_quadrupole_moment_norm": 19.9838594178, 
			 "total_energy": -971.254619748, 
			 "HOMO_LUMO_gap": 0.20332, 
			 "cosmo_polarized_energy": -13.62, 
			 "cosmo_cavitation_energy": 26.41, 
			 "cosmo_dispersion_energy": -19.53, 
			 "cosmo_repulsion_energy": 1.58, 
			 "cosmo_total_nonelectrostatic_energy": 8.46, 
			 "SMD_solvation_energy": 2.54 
		},
		"coords": [
			{
				"x": 0.4892897513,
				"y": -0.6745281324,
				"z": -2.2296858315,
				"element": "C" 
			},
			{
				"x": 1.3665553275,
				"y": -1.277386154,
				"z": -1.1356552697,
				"element": "C" 
			},
			{
				"x": 1.6299062102,
				"y": -3.0662731593,
				"z": -1.461756456,
				"element": "Cl" 
			},
			{
				"x": 0.7992543102,
				"y": -0.9463354889,
				"z": 0.2626163822,
				"element": "C" 
			},
			{
				"x": 0.753438124,
				"y": 0.2282267151,
				"z": 0.5713499451,
				"element": "O" 
			},
			{
				"x": 0.3761706665,
				"y": -2.01117765,
				"z": 1.0235482019,
				"element": "N" 
			},
			{
				"x": -0.1907843781,
				"y": -2.0232547904,
				"z": 2.299495808,
				"element": "C" 
			},
			{
				"x": -0.4183603694,
				"y": -0.8745712465,
				"z": 2.938783213,
				"element": "N" 
			},
			{
				"x": -0.9639629787,
				"y": -0.9916788605,
				"z": 4.1535667144,
				"element": "C" 
			},
			{
				"x": -1.2815007496,
				"y": -2.2201357205,
				"z": 4.7283536968,
				"element": "C" 
			},
			{
				"x": -0.9970273881,
				"y": -3.3470410424,
				"z": 3.9572519101,
				"element": "C" 
			},
			{
				"x": -0.4522897282,
				"y": -3.2664736796,
				"z": 2.7427020235,
				"element": "N" 
			},
			{
				"x": 0.3657784316,
				"y": 0.391244616,
				"z": -2.021416789,
				"element": "H" 
			},
			{
				"x": -0.4960123254,
				"y": -1.1483123133,
				"z": -2.2460588859,
				"element": "H" 
			},
			{
				"x": 0.9557447682,
				"y": -0.7993228002,
				"z": -3.2090396782,
				"element": "H" 
			},
			{
				"x": 2.3675466476,
				"y": -0.8442707585,
				"z": -1.1652632884,
				"element": "H" 
			},
			{
				"x": 0.5045569423,
				"y": -2.938749753,
				"z": 0.6367382198,
				"element": "H" 
			},
			{
				"x": -1.152059634,
				"y": -0.0583637599,
				"z": 4.6815988108,
				"element": "H" 
			},
			{
				"x": -1.7237488519,
				"y": -2.2963671531,
				"z": 5.7147547124,
				"element": "H" 
			},
			{
				"x": -1.2113947758,
				"y": -4.3501288686,
				"z": 4.3219165606,
				"element": "H" 
			}
		],
		 "valence_orbital": [ 
			{
				"type": "occ",
				"energy": -0.31988,
				"method": "rhf"
			},
			{
				"type": "occ",
				"energy": -0.30786,
				"method": "rhf"
			},
			{
				"type": "occ",
				"energy": -0.26846,
				"method": "rhf"
			},
			{
				"type": "occ",
				"energy": -0.25502,
				"method": "rhf"
			},
			{
				"type": "occ",
				"energy": -0.24946,
				"method": "rhf"
			},
			{
				"type": "unocc",
				"energy": -0.04614,
				"method": "rhf"
			},
			{
				"type": "unocc",
				"energy": -0.0389,
				"method": "rhf"
			},
			{
				"type": "unocc",
				"energy": 0.00926,
				"method": "rhf"
			},
			{
				"type": "unocc",
				"energy": 0.03072,
				"method": "rhf"
			},
			{
				"type": "unocc",
				"energy": 0.09773,
				"method": "rhf"
			}
		],
		"cosmo_sigma_profile": { 
			"-0.025": 0.0,
			"-0.024": 0.0,
			"-0.023": 0.0,
			"-0.022": 0.0,
			"-0.021": 0.0,
			"-0.02": 0.0,
			"-0.019": 0.0,
			"-0.018": 0.0,
			"-0.017": 0.0,
			"-0.016": 0.0,
			"-0.015": 0.0,
			"-0.014": 0.0,
			"-0.013": 0.0,
			"-0.012": 0.0,
			"-0.011": 0.0,
			"-0.01": 0.0,
			"-0.009": 1.36501566185,
			"-0.008": 9.23313560182,
			"-0.007": 10.5739274676,
			"-0.006": 12.7645423542,
			"-0.005": 13.6672667932,
			"-0.004": 16.0097424332,
			"-0.003": 12.8081088628,
			"-0.002": 19.4967229317,
			"-0.001": 21.5260566096,
			"0.0": 18.3029247201,
			"0.001": 11.7048231499,
			"0.002": 8.70708569074,
			"0.003": 7.84608489589,
			"0.004": 8.17642835152,
			"0.005": 9.44725211872,
			"0.006": 4.74257194674,
			"0.007": 2.51173716577,
			"0.008": 2.22161464307,
			"0.009": 2.78323100392,
			"0.01": 3.20047562162,
			"0.011": 3.45252052789,
			"0.012": 4.83666578004,
			"0.013": 2.87749947993,
			"0.014": 0.96794689073,
			"0.015": 1.05476692852,
			"0.016": 1.25794917453,
			"0.017": 0.997500093316,
			"0.018": 0.727792719242,
			"0.019": 0.0650575648883,
			"0.02": 0.0,
			"0.021": 0.0,
			"0.022": 0.0,
			"0.023": 0.0,
			"0.024": 0.0,
			"0.025": 0.0
		}
	}
}
