{
	 "smiles": "CC1=CC=C(C)N1C1=C(F)C=CC(=C1)[N+]([O-])=O", 
	 "Tm": 330.15, 
	 "num_atms": 28, 
	 "gaussian": { 
		 "optdone": 1, 
		 "sigma_profile": "yes", 
		 "theory": "DFT", 
		 "functional": "B3LYP", 
		 "basiset": "6-31G**", 
		 "properties": { 
			 "R2extent": 4607.7649, 
			 "electric_dipole_moment_norm": 2.91411101196, 
			 "electric_quadrupole_moment_norm": 18.9861042734, 
			 "total_energy": -823.586989153, 
			 "HOMO_LUMO_gap": 0.10298, 
			 "cosmo_polarized_energy": -9.86, 
			 "cosmo_cavitation_energy": 32.88, 
			 "cosmo_dispersion_energy": -22.6, 
			 "cosmo_repulsion_energy": 1.73, 
			 "cosmo_total_nonelectrostatic_energy": 12.01, 
			 "SMD_solvation_energy": 8.59 
		},
		"coords": [
			{
				"x": -2.0215341373,
				"y": 1.6269292041,
				"z": -1.0468487929,
				"element": "C" 
			},
			{
				"x": -1.5407914857,
				"y": 1.3366472883,
				"z": 0.3393378865,
				"element": "C" 
			},
			{
				"x": -1.7665823253,
				"y": 2.0126627415,
				"z": 1.5140114965,
				"element": "C" 
			},
			{
				"x": -1.0429539509,
				"y": 1.3570744325,
				"z": 2.5532328255,
				"element": "C" 
			},
			{
				"x": -0.3720579604,
				"y": 0.2915054184,
				"z": 2.0039246613,
				"element": "C" 
			},
			{
				"x": 0.5014093628,
				"y": -0.7366797618,
				"z": 2.6476784571,
				"element": "C" 
			},
			{
				"x": -0.6789965334,
				"y": 0.274681454,
				"z": 0.639173891,
				"element": "N" 
			},
			{
				"x": -0.2096500995,
				"y": -0.6786935429,
				"z": -0.2944183368,
				"element": "C" 
			},
			{
				"x": 1.1550270774,
				"y": -0.7617266378,
				"z": -0.6161692678,
				"element": "C" 
			},
			{
				"x": 2.0144900373,
				"y": 0.0739930417,
				"z": -0.0165378813,
				"element": "F" 
			},
			{
				"x": 1.651043582,
				"y": -1.6828692385,
				"z": -1.5337662438,
				"element": "C" 
			},
			{
				"x": 0.7701556667,
				"y": -2.5449602116,
				"z": -2.1781617227,
				"element": "C" 
			},
			{
				"x": -0.5869135389,
				"y": -2.4623828981,
				"z": -1.8707057259,
				"element": "C" 
			},
			{
				"x": -1.0850874064,
				"y": -1.5551093115,
				"z": -0.9384921614,
				"element": "C" 
			},
			{
				"x": -1.5261730305,
				"y": -3.3727314491,
				"z": -2.5426521398,
				"element": "N" 
			},
			{
				"x": -2.7191096123,
				"y": -3.2714358696,
				"z": -2.2597915522,
				"element": "O" 
			},
			{
				"x": -1.0591890188,
				"y": -4.1782360175,
				"z": -3.3468912929,
				"element": "O" 
			},
			{
				"x": -2.5760931019,
				"y": 2.5682743144,
				"z": -1.0394481555,
				"element": "H" 
			},
			{
				"x": -1.1949434193,
				"y": 1.7346514274,
				"z": -1.7600242948,
				"element": "H" 
			},
			{
				"x": -2.6924152853,
				"y": 0.8552968979,
				"z": -1.4437616209,
				"element": "H" 
			},
			{
				"x": -2.3845733578,
				"y": 2.8949114231,
				"z": 1.6110703675,
				"element": "H" 
			},
			{
				"x": -1.0176114642,
				"y": 1.6319799601,
				"z": 3.5988734439,
				"element": "H" 
			},
			{
				"x": 0.1416482678,
				"y": -1.7582585851,
				"z": 2.4721240271,
				"element": "H" 
			},
			{
				"x": 1.537190944,
				"y": -0.6853976018,
				"z": 2.2935424137,
				"element": "H" 
			},
			{
				"x": 0.5114311447,
				"y": -0.5720952656,
				"z": 3.7276434831,
				"element": "H" 
			},
			{
				"x": 2.7154066214,
				"y": -1.6999200565,
				"z": -1.7390742164,
				"element": "H" 
			},
			{
				"x": 1.1114373981,
				"y": -3.2710450937,
				"z": -2.9047054289,
				"element": "H" 
			},
			{
				"x": -2.1433643742,
				"y": -1.5398660622,
				"z": -0.7123641192,
				"element": "H" 
			}
		],
		 "valence_orbital": [ 
			{
				"type": "occ",
				"energy": -0.29945,
				"method": "rhf"
			},
			{
				"type": "occ",
				"energy": -0.29644,
				"method": "rhf"
			},
			{
				"type": "occ",
				"energy": -0.28617,
				"method": "rhf"
			},
			{
				"type": "occ",
				"energy": -0.23811,
				"method": "rhf"
			},
			{
				"type": "occ",
				"energy": -0.19993,
				"method": "rhf"
			},
			{
				"type": "unocc",
				"energy": -0.09695,
				"method": "rhf"
			},
			{
				"type": "unocc",
				"energy": -0.0482,
				"method": "rhf"
			},
			{
				"type": "unocc",
				"energy": -0.00842,
				"method": "rhf"
			},
			{
				"type": "unocc",
				"energy": 0.03343,
				"method": "rhf"
			},
			{
				"type": "unocc",
				"energy": 0.06344,
				"method": "rhf"
			}
		],
		"cosmo_sigma_profile": { 
			"-0.025": 0.0,
			"-0.024": 0.0,
			"-0.023": 0.0,
			"-0.022": 0.0,
			"-0.021": 0.0,
			"-0.02": 0.0,
			"-0.019": 0.0,
			"-0.018": 0.0,
			"-0.017": 0.0,
			"-0.016": 0.0,
			"-0.015": 0.0,
			"-0.014": 0.0,
			"-0.013": 0.0,
			"-0.012": 0.0,
			"-0.011": 0.0,
			"-0.01": 0.0664718523695,
			"-0.009": 2.03415961838,
			"-0.008": 3.91312443596,
			"-0.007": 6.37174584311,
			"-0.006": 6.91865318064,
			"-0.005": 11.9779204041,
			"-0.004": 21.3977097815,
			"-0.003": 26.9445874998,
			"-0.002": 32.8020343834,
			"-0.001": 30.781142425,
			"0.0": 24.6366213522,
			"0.001": 13.3697760796,
			"0.002": 10.3015007274,
			"0.003": 13.6056896214,
			"0.004": 8.3722370612,
			"0.005": 8.55355582991,
			"0.006": 7.80936129447,
			"0.007": 13.7670306682,
			"0.008": 11.0070470377,
			"0.009": 6.04761431474,
			"0.01": 2.01146547994,
			"0.011": 0.0,
			"0.012": 0.0,
			"0.013": 0.0,
			"0.014": 0.0,
			"0.015": 0.0,
			"0.016": 0.0,
			"0.017": 0.0,
			"0.018": 0.0,
			"0.019": 0.0,
			"0.02": 0.0,
			"0.021": 0.0,
			"0.022": 0.0,
			"0.023": 0.0,
			"0.024": 0.0,
			"0.025": 0.0
		}
	}
}
