{
	 "smiles": "NC(=O)[C@H](CO)NC(=O)OCC1C2=C(C=CC=C2)C2=C1C=CC=C2", 
	 "Tm": 428.15, 
	 "num_atms": 42, 
	 "gaussian": { 
		 "optdone": 1, 
		 "sigma_profile": "yes", 
		 "theory": "DFT", 
		 "functional": "B3LYP", 
		 "basiset": "6-31G**", 
		 "properties": { 
			 "R2extent": 9621.6018, 
			 "electric_dipole_moment_norm": 3.12399678937, 
			 "electric_quadrupole_moment_norm": 30.6689654543, 
			 "total_energy": -1107.20832329, 
			 "HOMO_LUMO_gap": 0.18411, 
			 "cosmo_polarized_energy": -23.74, 
			 "cosmo_cavitation_energy": 45.37, 
			 "cosmo_dispersion_energy": -30.66, 
			 "cosmo_repulsion_energy": 2.34, 
			 "cosmo_total_nonelectrostatic_energy": 17.05, 
			 "SMD_solvation_energy": 8.25 
		},
		"coords": [
			{
				"x": -0.1218375332,
				"y": -0.3267495618,
				"z": -4.2130372197,
				"element": "N" 
			},
			{
				"x": -0.9490061025,
				"y": -1.2602032489,
				"z": -3.6834286256,
				"element": "C" 
			},
			{
				"x": -2.1642910529,
				"y": -1.097253171,
				"z": -3.5910385071,
				"element": "O" 
			},
			{
				"x": -0.289601031,
				"y": -2.5961755122,
				"z": -3.2830240277,
				"element": "C" 
			},
			{
				"x": -1.1988070799,
				"y": -3.3798713719,
				"z": -2.3091217595,
				"element": "C" 
			},
			{
				"x": -2.3969045664,
				"y": -3.7680225432,
				"z": -2.9406485186,
				"element": "O" 
			},
			{
				"x": 1.0987414794,
				"y": -2.439676163,
				"z": -2.8530718507,
				"element": "N" 
			},
			{
				"x": 1.5577503424,
				"y": -1.7717793575,
				"z": -1.7388719371,
				"element": "C" 
			},
			{
				"x": 2.7216243007,
				"y": -1.7761675801,
				"z": -1.3891559064,
				"element": "O" 
			},
			{
				"x": 0.5528218413,
				"y": -1.0905857957,
				"z": -1.130268674,
				"element": "O" 
			},
			{
				"x": 0.9321995417,
				"y": -0.1635570291,
				"z": -0.0871899912,
				"element": "C" 
			},
			{
				"x": -0.0871922183,
				"y": -0.232763963,
				"z": 1.056807659,
				"element": "C" 
			},
			{
				"x": 0.1132682917,
				"y": 0.9165212281,
				"z": 2.0358074368,
				"element": "C" 
			},
			{
				"x": 0.367740949,
				"y": 0.4183401415,
				"z": 3.3296442557,
				"element": "C" 
			},
			{
				"x": 0.5862123723,
				"y": 1.2956103946,
				"z": 4.3938561193,
				"element": "C" 
			},
			{
				"x": 0.5495450387,
				"y": 2.6711079853,
				"z": 4.1532148721,
				"element": "C" 
			},
			{
				"x": 0.2947956606,
				"y": 3.1649644954,
				"z": 2.8695140918,
				"element": "C" 
			},
			{
				"x": 0.0741259465,
				"y": 2.2868015564,
				"z": 1.8016554627,
				"element": "C" 
			},
			{
				"x": 0.3336746651,
				"y": -1.0491213634,
				"z": 3.2812898178,
				"element": "C" 
			},
			{
				"x": 0.0582352254,
				"y": -1.452054068,
				"z": 1.957238304,
				"element": "C" 
			},
			{
				"x": -0.0424925217,
				"y": -2.8031839336,
				"z": 1.6423281237,
				"element": "C" 
			},
			{
				"x": 0.1397390745,
				"y": -3.7525335494,
				"z": 2.6549832136,
				"element": "C" 
			},
			{
				"x": 0.4160875048,
				"y": -3.3523620539,
				"z": 3.9662411384,
				"element": "C" 
			},
			{
				"x": 0.5133335639,
				"y": -1.9973994871,
				"z": 4.2900418003,
				"element": "C" 
			},
			{
				"x": -0.5151066159,
				"y": 0.5640487625,
				"z": -4.4757955378,
				"element": "H" 
			},
			{
				"x": 0.8781116751,
				"y": -0.4445976247,
				"z": -4.1791649679,
				"element": "H" 
			},
			{
				"x": -0.2545402445,
				"y": -3.1901778848,
				"z": -4.2044730352,
				"element": "H" 
			},
			{
				"x": -1.3799055763,
				"y": -2.7730596494,
				"z": -1.4123774387,
				"element": "H" 
			},
			{
				"x": -0.6730629048,
				"y": -4.2916323952,
				"z": -2.0054062664,
				"element": "H" 
			},
			{
				"x": -2.8243906432,
				"y": -2.9295179525,
				"z": -3.18760533,
				"element": "H" 
			},
			{
				"x": 1.7836404077,
				"y": -3.0841779083,
				"z": -3.2201897561,
				"element": "H" 
			},
			{
				"x": 1.9398094187,
				"y": -0.4027594493,
				"z": 0.2553258085,
				"element": "H" 
			},
			{
				"x": 0.9325866502,
				"y": 0.8361888867,
				"z": -0.5340719198,
				"element": "H" 
			},
			{
				"x": -1.0914371099,
				"y": -0.1906790813,
				"z": 0.612023372,
				"element": "H" 
			},
			{
				"x": 0.7809080656,
				"y": 0.9194061431,
				"z": 5.394305421,
				"element": "H" 
			},
			{
				"x": 0.717827747,
				"y": 3.3649081732,
				"z": 4.9719475414,
				"element": "H" 
			},
			{
				"x": 0.2648868085,
				"y": 4.2373750449,
				"z": 2.7003642663,
				"element": "H" 
			},
			{
				"x": -0.1317228325,
				"y": 2.6793949749,
				"z": 0.8088811064,
				"element": "H" 
			},
			{
				"x": -0.2638289436,
				"y": -3.1232035771,
				"z": 0.6296277331,
				"element": "H" 
			},
			{
				"x": 0.0626870406,
				"y": -4.8100707274,
				"z": 2.4197043471,
				"element": "H" 
			},
			{
				"x": 0.5527794818,
				"y": -4.1021536933,
				"z": 4.7402612404,
				"element": "H" 
			},
			{
				"x": 0.7233938835,
				"y": -1.6909780906,
				"z": 5.3110781381,
				"element": "H" 
			}
		],
		 "valence_orbital": [ 
			{
				"type": "occ",
				"energy": -0.26793,
				"method": "rhf"
			},
			{
				"type": "occ",
				"energy": -0.25281,
				"method": "rhf"
			},
			{
				"type": "occ",
				"energy": -0.24672,
				"method": "rhf"
			},
			{
				"type": "occ",
				"energy": -0.24599,
				"method": "rhf"
			},
			{
				"type": "occ",
				"energy": -0.21719,
				"method": "rhf"
			},
			{
				"type": "unocc",
				"energy": -0.03308,
				"method": "rhf"
			},
			{
				"type": "unocc",
				"energy": -0.01474,
				"method": "rhf"
			},
			{
				"type": "unocc",
				"energy": 0.00522,
				"method": "rhf"
			},
			{
				"type": "unocc",
				"energy": 0.00763,
				"method": "rhf"
			},
			{
				"type": "unocc",
				"energy": 0.03434,
				"method": "rhf"
			}
		],
		"cosmo_sigma_profile": { 
			"-0.025": 0.0,
			"-0.024": 0.0,
			"-0.023": 0.0,
			"-0.022": 0.0,
			"-0.021": 0.0,
			"-0.02": 0.0,
			"-0.019": 0.0,
			"-0.018": 0.0,
			"-0.017": 0.0,
			"-0.016": 0.0,
			"-0.015": 0.903592150436,
			"-0.014": 2.86975628019,
			"-0.013": 3.21135162076,
			"-0.012": 3.32935322443,
			"-0.011": 3.05879697164,
			"-0.01": 4.06687042076,
			"-0.009": 3.55997858739,
			"-0.008": 5.09380847525,
			"-0.007": 5.21060277475,
			"-0.006": 18.5049404768,
			"-0.005": 28.0810323011,
			"-0.004": 31.9343175835,
			"-0.003": 30.1527513405,
			"-0.002": 21.8090627857,
			"-0.001": 20.4871513591,
			"0.0": 19.593748097,
			"0.001": 18.2197779627,
			"0.002": 19.7717075792,
			"0.003": 21.4994082037,
			"0.004": 22.2614775763,
			"0.005": 22.0874399862,
			"0.006": 14.2656462934,
			"0.007": 3.45299153896,
			"0.008": 3.43581605544,
			"0.009": 4.5062514655,
			"0.01": 4.32530136756,
			"0.011": 4.26169466294,
			"0.012": 7.23120110347,
			"0.013": 8.57918144637,
			"0.014": 3.23103376409,
			"0.015": 0.937240568999,
			"0.016": 0.0,
			"0.017": 0.0,
			"0.018": 0.0,
			"0.019": 0.0,
			"0.02": 0.0,
			"0.021": 0.0,
			"0.022": 0.0,
			"0.023": 0.0,
			"0.024": 0.0,
			"0.025": 0.0
		}
	}
}
