{
	 "smiles": "ClC1=NC=C(C=C1)S(=O)(=O)NC1CC1", 
	 "Tm": 368.15, 
	 "num_atms": 23, 
	 "gaussian": { 
		 "optdone": 1, 
		 "sigma_profile": "yes", 
		 "theory": "DFT", 
		 "functional": "B3LYP", 
		 "basiset": "6-31G**", 
		 "properties": { 
			 "R2extent": 5587.161, 
			 "electric_dipole_moment_norm": 4.065900091, 
			 "electric_quadrupole_moment_norm": 20.9263174794, 
			 "total_energy": -1428.49425094, 
			 "HOMO_LUMO_gap": 0.20969, 
			 "cosmo_polarized_energy": -14.19, 
			 "cosmo_cavitation_energy": 30.55, 
			 "cosmo_dispersion_energy": -22.22, 
			 "cosmo_repulsion_energy": 1.72, 
			 "cosmo_total_nonelectrostatic_energy": 10.06, 
			 "SMD_solvation_energy": 1.88 
		},
		"coords": [
			{
				"x": -0.4394675163,
				"y": 2.0120373767,
				"z": 4.2242230407,
				"element": "Cl" 
			},
			{
				"x": -1.1622044492,
				"y": 1.7485201414,
				"z": 2.645909528,
				"element": "C" 
			},
			{
				"x": -1.6318113625,
				"y": 0.5372015706,
				"z": 2.4044855684,
				"element": "N" 
			},
			{
				"x": -2.1830191304,
				"y": 0.3167252199,
				"z": 1.2025307876,
				"element": "C" 
			},
			{
				"x": -2.2597686237,
				"y": 1.3064773206,
				"z": 0.2245462597,
				"element": "C" 
			},
			{
				"x": -1.77068103,
				"y": 2.586828414,
				"z": 0.4996746638,
				"element": "C" 
			},
			{
				"x": -1.2042392925,
				"y": 2.8213700171,
				"z": 1.7453203071,
				"element": "C" 
			},
			{
				"x": -3.0133040268,
				"y": 0.95472185,
				"z": -1.3615554118,
				"element": "S" 
			},
			{
				"x": -3.7621790774,
				"y": -0.2961037896,
				"z": -1.2105973736,
				"element": "O" 
			},
			{
				"x": -3.6478833523,
				"y": 2.1837435204,
				"z": -1.8467930671,
				"element": "O" 
			},
			{
				"x": -1.6730082795,
				"y": 0.736313212,
				"z": -2.3782236173,
				"element": "N" 
			},
			{
				"x": -1.1432358711,
				"y": -0.6036334765,
				"z": -2.5164952144,
				"element": "C" 
			},
			{
				"x": -0.030620053,
				"y": -1.0219015572,
				"z": -1.5860779437,
				"element": "C" 
			},
			{
				"x": 0.2697893219,
				"y": -0.7105076042,
				"z": -3.0291979311,
				"element": "C" 
			},
			{
				"x": -2.5840917384,
				"y": -0.6749265706,
				"z": 1.0164959225,
				"element": "H" 
			},
			{
				"x": -1.848540473,
				"y": 3.375446514,
				"z": -0.2412100369,
				"element": "H" 
			},
			{
				"x": -0.8120249314,
				"y": 3.7925709893,
				"z": 2.0212552395,
				"element": "H" 
			},
			{
				"x": -1.9039110119,
				"y": 1.1904583366,
				"z": -3.2606261397,
				"element": "H" 
			},
			{
				"x": -1.8524620031,
				"y": -1.3702293312,
				"z": -2.8208669523,
				"element": "H" 
			},
			{
				"x": 0.2961101921,
				"y": -0.3015873804,
				"z": -0.8441906233,
				"element": "H" 
			},
			{
				"x": -0.0136104548,
				"y": -2.0562741631,
				"z": -1.2587570198,
				"element": "H" 
			},
			{
				"x": 0.7919143392,
				"y": 0.216836466,
				"z": -3.24160383,
				"element": "H" 
			},
			{
				"x": 0.494548824,
				"y": -1.5266870757,
				"z": -3.7081461561,
				"element": "H" 
			}
		],
		 "valence_orbital": [ 
			{
				"type": "occ",
				"energy": -0.31676,
				"method": "rhf"
			},
			{
				"type": "occ",
				"energy": -0.30551,
				"method": "rhf"
			},
			{
				"type": "occ",
				"energy": -0.28908,
				"method": "rhf"
			},
			{
				"type": "occ",
				"energy": -0.28745,
				"method": "rhf"
			},
			{
				"type": "occ",
				"energy": -0.27252,
				"method": "rhf"
			},
			{
				"type": "unocc",
				"energy": -0.06283,
				"method": "rhf"
			},
			{
				"type": "unocc",
				"energy": -0.05239,
				"method": "rhf"
			},
			{
				"type": "unocc",
				"energy": 0.02079,
				"method": "rhf"
			},
			{
				"type": "unocc",
				"energy": 0.05161,
				"method": "rhf"
			},
			{
				"type": "unocc",
				"energy": 0.06936,
				"method": "rhf"
			}
		],
		"cosmo_sigma_profile": { 
			"-0.025": 0.0,
			"-0.024": 0.0,
			"-0.023": 0.0,
			"-0.022": 0.0,
			"-0.021": 0.0,
			"-0.02": 0.0,
			"-0.019": 0.0,
			"-0.018": 0.0,
			"-0.017": 0.0,
			"-0.016": 0.0,
			"-0.015": 0.438850929363,
			"-0.014": 0.625758792273,
			"-0.013": 1.0779359501,
			"-0.012": 0.879988981802,
			"-0.011": 1.48190636282,
			"-0.01": 1.59001650332,
			"-0.009": 4.56259613156,
			"-0.008": 5.78260315239,
			"-0.007": 4.83098818481,
			"-0.006": 7.55449822302,
			"-0.005": 15.0231385195,
			"-0.004": 16.2553061996,
			"-0.003": 21.0069529747,
			"-0.002": 25.7371534622,
			"-0.001": 24.7751849573,
			"0.0": 16.9508912742,
			"0.001": 13.2268831291,
			"0.002": 11.9875261685,
			"0.003": 14.67946445,
			"0.004": 12.4494409013,
			"0.005": 6.33132016721,
			"0.006": 5.23649650333,
			"0.007": 4.56162866734,
			"0.008": 3.78563314306,
			"0.009": 5.92837408642,
			"0.01": 9.90431807088,
			"0.011": 7.45903911692,
			"0.012": 1.50406498246,
			"0.013": 0.626383607832,
			"0.014": 0.100528235752,
			"0.015": 0.0,
			"0.016": 0.0,
			"0.017": 0.0,
			"0.018": 0.0,
			"0.019": 0.0,
			"0.02": 0.0,
			"0.021": 0.0,
			"0.022": 0.0,
			"0.023": 0.0,
			"0.024": 0.0,
			"0.025": 0.0
		}
	}
}
