{
	 "smiles": "OC(=O)C1=NC(=O)NN1", 
	 "Tm": 476.15, 
	 "num_atms": 12, 
	 "gaussian": { 
		 "optdone": 1, 
		 "sigma_profile": "yes", 
		 "theory": "DFT", 
		 "functional": "B3LYP", 
		 "basiset": "6-31G**", 
		 "properties": { 
			 "R2extent": 2232.7548, 
			 "electric_dipole_moment_norm": 3.09844949289, 
			 "electric_quadrupole_moment_norm": 18.5595956836, 
			 "total_energy": -506.033329608, 
			 "HOMO_LUMO_gap": 0.17438, 
			 "cosmo_polarized_energy": -21.05, 
			 "cosmo_cavitation_energy": 17.74, 
			 "cosmo_dispersion_energy": -13.57, 
			 "cosmo_repulsion_energy": 1.14, 
			 "cosmo_total_nonelectrostatic_energy": 5.3, 
			 "SMD_solvation_energy": 4.13 
		},
		"coords": [
			{
				"x": -3.0086642094,
				"y": 2.4681053006,
				"z": -1.9558140976,
				"element": "O" 
			},
			{
				"x": -2.9745369909,
				"y": 1.1475467012,
				"z": -1.7675819016,
				"element": "C" 
			},
			{
				"x": -3.9445509435,
				"y": 0.427376178,
				"z": -1.7500520941,
				"element": "O" 
			},
			{
				"x": -1.5849829219,
				"y": 0.6109684502,
				"z": -1.5905539394,
				"element": "C" 
			},
			{
				"x": -0.5095633664,
				"y": 1.3311221832,
				"z": -1.7084645199,
				"element": "N" 
			},
			{
				"x": 0.573583728,
				"y": 0.4276068952,
				"z": -1.5646067785,
				"element": "C" 
			},
			{
				"x": 1.7569354765,
				"y": 0.6622041609,
				"z": -1.5180230871,
				"element": "O" 
			},
			{
				"x": -0.001287713,
				"y": -0.8782363775,
				"z": -1.4837872141,
				"element": "N" 
			},
			{
				"x": -1.3792357969,
				"y": -0.7035060358,
				"z": -1.311614322,
				"element": "N" 
			},
			{
				"x": -2.0884678606,
				"y": 2.7992335795,
				"z": -1.9507734391,
				"element": "H" 
			},
			{
				"x": 0.4387152424,
				"y": -1.5401897755,
				"z": -0.8538647941,
				"element": "H" 
			},
			{
				"x": -2.0108446443,
				"y": -1.4063312601,
				"z": -1.6831638124,
				"element": "H" 
			}
		],
		 "valence_orbital": [ 
			{
				"type": "occ",
				"energy": -0.34472,
				"method": "rhf"
			},
			{
				"type": "occ",
				"energy": -0.34118,
				"method": "rhf"
			},
			{
				"type": "occ",
				"energy": -0.31442,
				"method": "rhf"
			},
			{
				"type": "occ",
				"energy": -0.28337,
				"method": "rhf"
			},
			{
				"type": "occ",
				"energy": -0.26584,
				"method": "rhf"
			},
			{
				"type": "unocc",
				"energy": -0.09146,
				"method": "rhf"
			},
			{
				"type": "unocc",
				"energy": 0.01973,
				"method": "rhf"
			},
			{
				"type": "unocc",
				"energy": 0.04902,
				"method": "rhf"
			},
			{
				"type": "unocc",
				"energy": 0.06217,
				"method": "rhf"
			},
			{
				"type": "unocc",
				"energy": 0.08466,
				"method": "rhf"
			}
		],
		"cosmo_sigma_profile": { 
			"-0.025": 0.0,
			"-0.024": 0.0,
			"-0.023": 0.0,
			"-0.022": 0.0,
			"-0.021": 0.0,
			"-0.02": 0.0,
			"-0.019": 0.0557883964331,
			"-0.018": 1.19895477331,
			"-0.017": 2.69004575399,
			"-0.016": 2.71791265498,
			"-0.015": 2.95936492757,
			"-0.014": 3.19154549249,
			"-0.013": 3.48966381096,
			"-0.012": 2.14056897504,
			"-0.011": 2.42965952261,
			"-0.01": 2.69010845633,
			"-0.009": 3.3369906772,
			"-0.008": 5.06145279732,
			"-0.007": 5.41783387693,
			"-0.006": 5.20600458814,
			"-0.005": 5.33821651812,
			"-0.004": 3.23175501678,
			"-0.003": 4.35799387389,
			"-0.002": 4.93783143673,
			"-0.001": 5.82354012084,
			"0.0": 3.7992512489,
			"0.001": 4.53045672964,
			"0.002": 4.96733649063,
			"0.003": 5.41150695227,
			"0.004": 4.572392449,
			"0.005": 4.3415295201,
			"0.006": 4.90816665736,
			"0.007": 6.41838335612,
			"0.008": 7.09462307045,
			"0.009": 5.8950671962,
			"0.01": 6.77061925354,
			"0.011": 6.07131780485,
			"0.012": 6.46946827851,
			"0.013": 4.24660933271,
			"0.014": 0.494620194036,
			"0.015": 0.0,
			"0.016": 0.0,
			"0.017": 0.0,
			"0.018": 0.0,
			"0.019": 0.0,
			"0.02": 0.0,
			"0.021": 0.0,
			"0.022": 0.0,
			"0.023": 0.0,
			"0.024": 0.0,
			"0.025": 0.0
		}
	}
}
