{
	 "smiles": "COC1=C(Br)C=C(C=C1)C(=O)CCl", 
	 "Tm": 359.15, 
	 "num_atms": 21, 
	 "gaussian": { 
		 "optdone": 1, 
		 "sigma_profile": "yes", 
		 "theory": "DFT", 
		 "functional": "B3LYP", 
		 "basiset": "6-31G**", 
		 "properties": { 
			 "R2extent": 5431.1634, 
			 "electric_dipole_moment_norm": 3.66868014823, 
			 "electric_quadrupole_moment_norm": 14.3805090119, 
			 "total_energy": -3529.80713232, 
			 "HOMO_LUMO_gap": 0.16716, 
			 "cosmo_polarized_energy": -11.39, 
			 "cosmo_cavitation_energy": 29.5, 
			 "cosmo_dispersion_energy": -21.74, 
			 "cosmo_repulsion_energy": 1.74, 
			 "cosmo_total_nonelectrostatic_energy": 9.5, 
			 "SMD_solvation_energy": 5.06 
		},
		"coords": [
			{
				"x": -4.0492563058,
				"y": -0.4928380848,
				"z": 2.2903794177,
				"element": "C" 
			},
			{
				"x": -3.6634260816,
				"y": -0.7284866766,
				"z": 0.9401360359,
				"element": "O" 
			},
			{
				"x": -2.3532167164,
				"y": -0.696960123,
				"z": 0.6209048266,
				"element": "C" 
			},
			{
				"x": -2.0152136201,
				"y": -0.9289324223,
				"z": -0.728978784,
				"element": "C" 
			},
			{
				"x": -3.394487283,
				"y": -1.265631526,
				"z": -1.9981640098,
				"element": "Br" 
			},
			{
				"x": -0.6934396785,
				"y": -0.9134322693,
				"z": -1.1447481186,
				"element": "C" 
			},
			{
				"x": 0.3409504143,
				"y": -0.6704706584,
				"z": -0.2242035889,
				"element": "C" 
			},
			{
				"x": 0.0056843591,
				"y": -0.4403274254,
				"z": 1.1174828972,
				"element": "C" 
			},
			{
				"x": -1.317558165,
				"y": -0.4506639311,
				"z": 1.5378926329,
				"element": "C" 
			},
			{
				"x": 1.78003138,
				"y": -0.67338689,
				"z": -0.595090455,
				"element": "C" 
			},
			{
				"x": 2.6598019601,
				"y": -0.5182668359,
				"z": 0.2382213428,
				"element": "O" 
			},
			{
				"x": 2.1956776872,
				"y": -0.9170608868,
				"z": -2.0494037898,
				"element": "C" 
			},
			{
				"x": 1.7690528157,
				"y": 0.4866439874,
				"z": -3.1196854255,
				"element": "Cl" 
			},
			{
				"x": -5.1369644223,
				"y": -0.5647345253,
				"z": 2.3014549603,
				"element": "H" 
			},
			{
				"x": -3.7467591187,
				"y": 0.506588203,
				"z": 2.6242777316,
				"element": "H" 
			},
			{
				"x": -3.6274653656,
				"y": -1.2474308494,
				"z": 2.9646644091,
				"element": "H" 
			},
			{
				"x": -0.4818264094,
				"y": -1.0781862554,
				"z": -2.193950028,
				"element": "H" 
			},
			{
				"x": 0.8078674943,
				"y": -0.2557721741,
				"z": 1.8236038312,
				"element": "H" 
			},
			{
				"x": -1.5478431123,
				"y": -0.2688140589,
				"z": 2.5806229096,
				"element": "H" 
			},
			{
				"x": 3.2783815145,
				"y": -1.0233601375,
				"z": -2.0740772737,
				"element": "H" 
			},
			{
				"x": 1.7170086532,
				"y": -1.8006764601,
				"z": -2.4760395216,
				"element": "H" 
			}
		],
		 "valence_orbital": [ 
			{
				"type": "occ",
				"energy": -0.30606,
				"method": "rhf"
			},
			{
				"type": "occ",
				"energy": -0.28833,
				"method": "rhf"
			},
			{
				"type": "occ",
				"energy": -0.26328,
				"method": "rhf"
			},
			{
				"type": "occ",
				"energy": -0.2613,
				"method": "rhf"
			},
			{
				"type": "occ",
				"energy": -0.23815,
				"method": "rhf"
			},
			{
				"type": "unocc",
				"energy": -0.07099,
				"method": "rhf"
			},
			{
				"type": "unocc",
				"energy": -0.02545,
				"method": "rhf"
			},
			{
				"type": "unocc",
				"energy": 0.0022,
				"method": "rhf"
			},
			{
				"type": "unocc",
				"energy": 0.00277,
				"method": "rhf"
			},
			{
				"type": "unocc",
				"energy": 0.05285,
				"method": "rhf"
			}
		],
		"cosmo_sigma_profile": { 
			"-0.025": 0.0,
			"-0.024": 0.0,
			"-0.023": 0.0,
			"-0.022": 0.0,
			"-0.021": 0.0,
			"-0.02": 0.0,
			"-0.019": 0.0,
			"-0.018": 0.0,
			"-0.017": 0.0,
			"-0.016": 0.0,
			"-0.015": 0.0,
			"-0.014": 0.0,
			"-0.013": 0.0,
			"-0.012": 0.0,
			"-0.011": 0.000233025986839,
			"-0.01": 1.04867051421,
			"-0.009": 3.81857086754,
			"-0.008": 5.86034616985,
			"-0.007": 10.6282816366,
			"-0.006": 16.2078127543,
			"-0.005": 16.906464543,
			"-0.004": 15.7418306155,
			"-0.003": 10.4018499527,
			"-0.002": 9.68045540209,
			"-0.001": 13.3928628318,
			"0.0": 18.4751347982,
			"0.001": 22.533038389,
			"0.002": 22.292543915,
			"0.003": 16.1886413931,
			"0.004": 18.7772584215,
			"0.005": 14.2518380292,
			"0.006": 6.4815679571,
			"0.007": 3.33853167986,
			"0.008": 2.85842840344,
			"0.009": 4.1847654009,
			"0.01": 3.02500924754,
			"0.011": 3.87637975173,
			"0.012": 1.32401647569,
			"0.013": 0.0278700762119,
			"0.014": 0.0,
			"0.015": 0.0,
			"0.016": 0.0,
			"0.017": 0.0,
			"0.018": 0.0,
			"0.019": 0.0,
			"0.02": 0.0,
			"0.021": 0.0,
			"0.022": 0.0,
			"0.023": 0.0,
			"0.024": 0.0,
			"0.025": 0.0
		}
	}
}
