{
	 "smiles": "N[C@@H](CC1=CC=CC=C1Cl)C(O)=O", 
	 "Tm": 507.15, 
	 "num_atms": 23, 
	 "gaussian": { 
		 "optdone": 1, 
		 "sigma_profile": "yes", 
		 "theory": "DFT", 
		 "functional": "B3LYP", 
		 "basiset": "6-31G**", 
		 "properties": { 
			 "R2extent": 3160.6436, 
			 "electric_dipole_moment_norm": 5.62120238561, 
			 "electric_quadrupole_moment_norm": 15.3551720209, 
			 "total_energy": -1014.39481166, 
			 "HOMO_LUMO_gap": 0.22085, 
			 "cosmo_polarized_energy": -14.51, 
			 "cosmo_cavitation_energy": 28.18, 
			 "cosmo_dispersion_energy": -20.39, 
			 "cosmo_repulsion_energy": 1.62, 
			 "cosmo_total_nonelectrostatic_energy": 9.41, 
			 "SMD_solvation_energy": 5.18 
		},
		"coords": [
			{
				"x": -1.1777277773,
				"y": 1.6596414498,
				"z": -0.654141747,
				"element": "N" 
			},
			{
				"x": -1.5075545907,
				"y": 0.2548468658,
				"z": -0.3628624491,
				"element": "C" 
			},
			{
				"x": -0.6794012871,
				"y": -0.4316841704,
				"z": 0.7451255317,
				"element": "C" 
			},
			{
				"x": 0.7801170223,
				"y": -0.5945214063,
				"z": 0.3863213569,
				"element": "C" 
			},
			{
				"x": 1.1781837015,
				"y": -1.6870979739,
				"z": -0.4028191117,
				"element": "C" 
			},
			{
				"x": 2.5029772136,
				"y": -1.8808754055,
				"z": -0.7855002106,
				"element": "C" 
			},
			{
				"x": 3.4817068124,
				"y": -0.9733600862,
				"z": -0.3771048779,
				"element": "C" 
			},
			{
				"x": 3.1257125806,
				"y": 0.1193718577,
				"z": 0.4103565671,
				"element": "C" 
			},
			{
				"x": 1.7904981128,
				"y": 0.2971823236,
				"z": 0.7768859225,
				"element": "C" 
			},
			{
				"x": 1.4142889365,
				"y": 1.7036934439,
				"z": 1.7861941279,
				"element": "Cl" 
			},
			{
				"x": -3.0197993705,
				"y": 0.1482285526,
				"z": -0.047143859,
				"element": "C" 
			},
			{
				"x": -3.716919084,
				"y": 1.2267558629,
				"z": -0.4236007735,
				"element": "O" 
			},
			{
				"x": -3.5201698118,
				"y": -0.8303349543,
				"z": 0.4581567993,
				"element": "O" 
			},
			{
				"x": -0.4292987398,
				"y": 1.7316599558,
				"z": -1.3357832863,
				"element": "H" 
			},
			{
				"x": -0.856789057,
				"y": 2.1364205229,
				"z": 0.1855277832,
				"element": "H" 
			},
			{
				"x": -1.3712763121,
				"y": -0.3084950373,
				"z": -1.295318718,
				"element": "H" 
			},
			{
				"x": -0.7903232441,
				"y": 0.1334726284,
				"z": 1.6753482656,
				"element": "H" 
			},
			{
				"x": -1.1313437934,
				"y": -1.4117362686,
				"z": 0.9185972287,
				"element": "H" 
			},
			{
				"x": 0.4193236798,
				"y": -2.4021535709,
				"z": -0.7110489312,
				"element": "H" 
			},
			{
				"x": 2.7712492495,
				"y": -2.7401167182,
				"z": -1.3924769804,
				"element": "H" 
			},
			{
				"x": 4.5195896795,
				"y": -1.1140051322,
				"z": -0.6629357599,
				"element": "H" 
			},
			{
				"x": 3.871564513,
				"y": 0.8323517789,
				"z": 0.7437503744,
				"element": "H" 
			},
			{
				"x": -3.0325084338,
				"y": 1.8534554817,
				"z": -0.7651272528,
				"element": "H" 
			}
		],
		 "valence_orbital": [ 
			{
				"type": "occ",
				"energy": -0.30106,
				"method": "rhf"
			},
			{
				"type": "occ",
				"energy": -0.29624,
				"method": "rhf"
			},
			{
				"type": "occ",
				"energy": -0.27126,
				"method": "rhf"
			},
			{
				"type": "occ",
				"energy": -0.26022,
				"method": "rhf"
			},
			{
				"type": "occ",
				"energy": -0.24765,
				"method": "rhf"
			},
			{
				"type": "unocc",
				"energy": -0.0268,
				"method": "rhf"
			},
			{
				"type": "unocc",
				"energy": -0.02398,
				"method": "rhf"
			},
			{
				"type": "unocc",
				"energy": 0.01313,
				"method": "rhf"
			},
			{
				"type": "unocc",
				"energy": 0.01829,
				"method": "rhf"
			},
			{
				"type": "unocc",
				"energy": 0.0718,
				"method": "rhf"
			}
		],
		"cosmo_sigma_profile": { 
			"-0.025": 0.0,
			"-0.024": 0.0,
			"-0.023": 0.0,
			"-0.022": 0.0,
			"-0.021": 0.0,
			"-0.02": 0.0,
			"-0.019": 0.0,
			"-0.018": 0.0,
			"-0.017": 0.0,
			"-0.016": 0.0,
			"-0.015": 0.0,
			"-0.014": 0.0,
			"-0.013": 0.0,
			"-0.012": 0.516417259149,
			"-0.011": 1.44088665027,
			"-0.01": 2.23870783623,
			"-0.009": 3.04847485856,
			"-0.008": 5.06475862928,
			"-0.007": 10.9656112218,
			"-0.006": 15.6847894007,
			"-0.005": 16.9517248795,
			"-0.004": 16.1983503813,
			"-0.003": 12.3200661808,
			"-0.002": 13.4570030001,
			"-0.001": 13.0753899383,
			"0.0": 13.7644829705,
			"0.001": 13.0925435571,
			"0.002": 15.1207719558,
			"0.003": 15.759903521,
			"0.004": 16.9815178447,
			"0.005": 9.81397123385,
			"0.006": 2.95251614278,
			"0.007": 2.75241501026,
			"0.008": 2.26369795677,
			"0.009": 3.10063775572,
			"0.01": 4.22692487575,
			"0.011": 5.31967974993,
			"0.012": 5.40806550625,
			"0.013": 3.35280133716,
			"0.014": 0.61838472059,
			"0.015": 0.0,
			"0.016": 0.0,
			"0.017": 0.0,
			"0.018": 0.0,
			"0.019": 0.0,
			"0.02": 0.0,
			"0.021": 0.0,
			"0.022": 0.0,
			"0.023": 0.0,
			"0.024": 0.0,
			"0.025": 0.0
		}
	}
}
