{
	 "smiles": "CC(NC(=O)CCCCNC(=O)C12CC3CC(CC(C3)C1)C2)C(=O)NC(CCC(O)=O)C(N)=O", 
	 "Tm": 473.15, 
	 "num_atms": 72, 
	 "gaussian": { 
		 "optdone": 1, 
		 "sigma_profile": "yes", 
		 "theory": "DFT", 
		 "functional": "B3LYP", 
		 "basiset": "6-31G**", 
		 "properties": { 
			 "R2extent": 25907.9539, 
			 "electric_dipole_moment_norm": 4.57527650093, 
			 "electric_quadrupole_moment_norm": 46.6017098209, 
			 "total_energy": -1607.95275329, 
			 "HOMO_LUMO_gap": 0.19903, 
			 "cosmo_polarized_energy": -34.2, 
			 "cosmo_cavitation_energy": 68.86, 
			 "cosmo_dispersion_energy": -45.76, 
			 "cosmo_repulsion_energy": 3.5, 
			 "cosmo_total_nonelectrostatic_energy": 26.6, 
			 "SMD_solvation_energy": 11.16 
		},
		"coords": [
			{
				"x": 0.2866724748,
				"y": -1.1796896931,
				"z": -2.9524298046,
				"element": "C" 
			},
			{
				"x": 1.0730915558,
				"y": -0.5219295097,
				"z": -1.8010259841,
				"element": "C" 
			},
			{
				"x": 1.5473253105,
				"y": -1.4973578778,
				"z": -0.8362845951,
				"element": "N" 
			},
			{
				"x": 0.7457030914,
				"y": -2.0103818083,
				"z": 0.1289144797,
				"element": "C" 
			},
			{
				"x": -0.4498855672,
				"y": -1.6910090745,
				"z": 0.2064579857,
				"element": "O" 
			},
			{
				"x": 1.3874017932,
				"y": -3.0114151779,
				"z": 1.0759150979,
				"element": "C" 
			},
			{
				"x": 1.0333908753,
				"y": -4.4803600541,
				"z": 0.7391218955,
				"element": "C" 
			},
			{
				"x": -0.4581288269,
				"y": -4.8627783603,
				"z": 0.7403484211,
				"element": "C" 
			},
			{
				"x": -1.1914882142,
				"y": -4.7363218297,
				"z": 2.0817597717,
				"element": "C" 
			},
			{
				"x": -1.5141712368,
				"y": -3.3515583124,
				"z": 2.4066380681,
				"element": "N" 
			},
			{
				"x": -2.183153805,
				"y": -3.0536650345,
				"z": 3.5574174571,
				"element": "C" 
			},
			{
				"x": -2.4561993544,
				"y": -3.9258499847,
				"z": 4.3815913842,
				"element": "O" 
			},
			{
				"x": -2.5761202352,
				"y": -1.5755037419,
				"z": 3.7571501244,
				"element": "C" 
			},
			{
				"x": -3.2439544278,
				"y": -1.4122216614,
				"z": 5.1417740989,
				"element": "C" 
			},
			{
				"x": -3.6649832566,
				"y": 0.0529422446,
				"z": 5.3687258272,
				"element": "C" 
			},
			{
				"x": -2.4216989818,
				"y": 0.9635391768,
				"z": 5.3030444411,
				"element": "C" 
			},
			{
				"x": -1.7579762675,
				"y": 0.8244758797,
				"z": 3.9184340149,
				"element": "C" 
			},
			{
				"x": -2.7607183561,
				"y": 1.2433946884,
				"z": 2.8228378091,
				"element": "C" 
			},
			{
				"x": -4.0078287186,
				"y": 0.3372234819,
				"z": 2.8906417136,
				"element": "C" 
			},
			{
				"x": -4.668942554,
				"y": 0.4764445187,
				"z": 4.2768425858,
				"element": "C" 
			},
			{
				"x": -3.5865961658,
				"y": -1.1295851264,
				"z": 2.6620026572,
				"element": "C" 
			},
			{
				"x": -1.3354836941,
				"y": -0.6422343983,
				"z": 3.6887461706,
				"element": "C" 
			},
			{
				"x": 2.3060175196,
				"y": 0.2249329895,
				"z": -2.3263385697,
				"element": "C" 
			},
			{
				"x": 3.4416522404,
				"y": -0.2493446815,
				"z": -2.2020485158,
				"element": "O" 
			},
			{
				"x": 2.0630324011,
				"y": 1.3973236631,
				"z": -2.9552075903,
				"element": "N" 
			},
			{
				"x": 3.1024999122,
				"y": 2.1724221854,
				"z": -3.6479912729,
				"element": "C" 
			},
			{
				"x": 2.5252747008,
				"y": 2.9414482862,
				"z": -4.8423225944,
				"element": "C" 
			},
			{
				"x": 1.4329368467,
				"y": 3.9639409858,
				"z": -4.5094705482,
				"element": "C" 
			},
			{
				"x": 0.962101673,
				"y": 4.7021251282,
				"z": -5.7430100727,
				"element": "C" 
			},
			{
				"x": -0.1099936728,
				"y": 5.4842306869,
				"z": -5.4707363302,
				"element": "O" 
			},
			{
				"x": 1.4599043292,
				"y": 4.6346878783,
				"z": -6.8453089637,
				"element": "O" 
			},
			{
				"x": 3.8811720914,
				"y": 3.0830194434,
				"z": -2.6587864581,
				"element": "C" 
			},
			{
				"x": 4.6198916744,
				"y": 2.3914167373,
				"z": -1.7548567163,
				"element": "N" 
			},
			{
				"x": 3.8414692921,
				"y": 4.3063283536,
				"z": -2.7108359558,
				"element": "O" 
			},
			{
				"x": -0.0870028287,
				"y": -0.4299630341,
				"z": -3.6565799227,
				"element": "H" 
			},
			{
				"x": -0.5657632271,
				"y": -1.7183672518,
				"z": -2.5339974145,
				"element": "H" 
			},
			{
				"x": 0.9228948813,
				"y": -1.8826522623,
				"z": -3.4978817559,
				"element": "H" 
			},
			{
				"x": 0.4082970385,
				"y": 0.1767847267,
				"z": -1.2783326589,
				"element": "H" 
			},
			{
				"x": 2.5375732188,
				"y": -1.7057803402,
				"z": -0.8803647871,
				"element": "H" 
			},
			{
				"x": 2.4776143203,
				"y": -2.8996597299,
				"z": 1.0635942754,
				"element": "H" 
			},
			{
				"x": 1.0414636852,
				"y": -2.7697762893,
				"z": 2.0844640065,
				"element": "H" 
			},
			{
				"x": 1.4539199886,
				"y": -4.7231424418,
				"z": -0.2453158187,
				"element": "H" 
			},
			{
				"x": 1.5612921715,
				"y": -5.114305418,
				"z": 1.4624128859,
				"element": "H" 
			},
			{
				"x": -0.9973580074,
				"y": -4.2885420261,
				"z": -0.0223998033,
				"element": "H" 
			},
			{
				"x": -0.5204453217,
				"y": -5.9129138531,
				"z": 0.4308851486,
				"element": "H" 
			},
			{
				"x": -2.1172387636,
				"y": -5.3259048577,
				"z": 2.049686991,
				"element": "H" 
			},
			{
				"x": -0.5917242634,
				"y": -5.1704130014,
				"z": 2.892451723,
				"element": "H" 
			},
			{
				"x": -1.3480802862,
				"y": -2.6461805907,
				"z": 1.6928551276,
				"element": "H" 
			},
			{
				"x": -4.1094298258,
				"y": -2.0797540778,
				"z": 5.2080908812,
				"element": "H" 
			},
			{
				"x": -2.5480974188,
				"y": -1.7394444252,
				"z": 5.9223434248,
				"element": "H" 
			},
			{
				"x": -4.1356883377,
				"y": 0.144031476,
				"z": 6.3560489185,
				"element": "H" 
			},
			{
				"x": -1.7098011364,
				"y": 0.6865717308,
				"z": 6.091807084,
				"element": "H" 
			},
			{
				"x": -2.705799203,
				"y": 2.0092768563,
				"z": 5.4817821213,
				"element": "H" 
			},
			{
				"x": -0.8686178794,
				"y": 1.4666182722,
				"z": 3.8682457808,
				"element": "H" 
			},
			{
				"x": -3.0502758579,
				"y": 2.2939422365,
				"z": 2.9587561464,
				"element": "H" 
			},
			{
				"x": -2.291536659,
				"y": 1.1646753932,
				"z": 1.8330516205,
				"element": "H" 
			},
			{
				"x": -4.7203636178,
				"y": 0.6322569193,
				"z": 2.1092041247,
				"element": "H" 
			},
			{
				"x": -5.5690825459,
				"y": -0.149913285,
				"z": 4.3295783173,
				"element": "H" 
			},
			{
				"x": -4.9912598154,
				"y": 1.5138821511,
				"z": 4.4382022675,
				"element": "H" 
			},
			{
				"x": -3.1399051183,
				"y": -1.2338774603,
				"z": 1.6657426827,
				"element": "H" 
			},
			{
				"x": -4.466876485,
				"y": -1.7849244037,
				"z": 2.6891112429,
				"element": "H" 
			},
			{
				"x": -0.6050256209,
				"y": -0.9482324784,
				"z": 4.4495880284,
				"element": "H" 
			},
			{
				"x": -0.8445178428,
				"y": -0.730876743,
				"z": 2.7127811954,
				"element": "H" 
			},
			{
				"x": 1.1257018403,
				"y": 1.7723634523,
				"z": -2.9344118495,
				"element": "H" 
			},
			{
				"x": 3.8174293662,
				"y": 1.4328296585,
				"z": -4.0247917171,
				"element": "H" 
			},
			{
				"x": 2.146425887,
				"y": 2.2165144857,
				"z": -5.5704850296,
				"element": "H" 
			},
			{
				"x": 3.3488569112,
				"y": 3.4683299517,
				"z": -5.3301722119,
				"element": "H" 
			},
			{
				"x": 0.5439328028,
				"y": 3.5150917058,
				"z": -4.0470137708,
				"element": "H" 
			},
			{
				"x": 1.8187869407,
				"y": 4.6991418758,
				"z": -3.7964481995,
				"element": "H" 
			},
			{
				"x": -0.3317674452,
				"y": 5.938709565,
				"z": -6.3008842946,
				"element": "H" 
			},
			{
				"x": 4.5941614631,
				"y": 1.377937331,
				"z": -1.728971048,
				"element": "H" 
			},
			{
				"x": 5.1247925446,
				"y": 2.9139761807,
				"z": -1.0547437442,
				"element": "H" 
			}
		],
		 "valence_orbital": [ 
			{
				"type": "occ",
				"energy": -0.26923,
				"method": "rhf"
			},
			{
				"type": "occ",
				"energy": -0.26781,
				"method": "rhf"
			},
			{
				"type": "occ",
				"energy": -0.25658,
				"method": "rhf"
			},
			{
				"type": "occ",
				"energy": -0.22729,
				"method": "rhf"
			},
			{
				"type": "occ",
				"energy": -0.21827,
				"method": "rhf"
			},
			{
				"type": "unocc",
				"energy": -0.01924,
				"method": "rhf"
			},
			{
				"type": "unocc",
				"energy": -0.00033,
				"method": "rhf"
			},
			{
				"type": "unocc",
				"energy": 0.00345,
				"method": "rhf"
			},
			{
				"type": "unocc",
				"energy": 0.01197,
				"method": "rhf"
			},
			{
				"type": "unocc",
				"energy": 0.04401,
				"method": "rhf"
			}
		],
		"cosmo_sigma_profile": { 
			"-0.025": 0.0,
			"-0.024": 0.0,
			"-0.023": 0.0,
			"-0.022": 0.0,
			"-0.021": 0.0,
			"-0.02": 0.0,
			"-0.019": 0.0,
			"-0.018": 0.568980508908,
			"-0.017": 1.07899295327,
			"-0.016": 0.659850834019,
			"-0.015": 2.11181149771,
			"-0.014": 2.59834639895,
			"-0.013": 3.42943487952,
			"-0.012": 3.4462209158,
			"-0.011": 4.11710039291,
			"-0.01": 5.21262365816,
			"-0.009": 5.36555259914,
			"-0.008": 6.21709936205,
			"-0.007": 7.16022297399,
			"-0.006": 10.4175792559,
			"-0.005": 13.8202087243,
			"-0.004": 23.3919424992,
			"-0.003": 40.0203427279,
			"-0.002": 68.99090268,
			"-0.001": 82.2673537209,
			"0.0": 71.5830216662,
			"0.001": 47.4689689837,
			"0.002": 23.9663766764,
			"0.003": 11.7982701049,
			"0.004": 10.8675580841,
			"0.005": 10.2584899902,
			"0.006": 7.76133045336,
			"0.007": 7.5310574375,
			"0.008": 8.61233292046,
			"0.009": 8.10769857798,
			"0.01": 7.13799647848,
			"0.011": 9.29714093839,
			"0.012": 10.4860325975,
			"0.013": 6.10353962476,
			"0.014": 5.0000138428,
			"0.015": 5.52796199627,
			"0.016": 0.610753178218,
			"0.017": 0.0,
			"0.018": 0.0,
			"0.019": 0.0,
			"0.02": 0.0,
			"0.021": 0.0,
			"0.022": 0.0,
			"0.023": 0.0,
			"0.024": 0.0,
			"0.025": 0.0
		}
	}
}
