{
	 "smiles": "CCSCC1=CC=C(C=C1)C(O)=O", 
	 "Tm": 397.15, 
	 "num_atms": 25, 
	 "gaussian": { 
		 "optdone": 1, 
		 "sigma_profile": "yes", 
		 "theory": "DFT", 
		 "functional": "B3LYP", 
		 "basiset": "6-31G**", 
		 "properties": { 
			 "R2extent": 4397.4078, 
			 "electric_dipole_moment_norm": 4.97932112943, 
			 "electric_quadrupole_moment_norm": 29.1269072198, 
			 "total_energy": -936.947660446, 
			 "HOMO_LUMO_gap": 0.17441, 
			 "cosmo_polarized_energy": -16.56, 
			 "cosmo_cavitation_energy": 30.28, 
			 "cosmo_dispersion_energy": -21.62, 
			 "cosmo_repulsion_energy": 1.69, 
			 "cosmo_total_nonelectrostatic_energy": 10.34, 
			 "SMD_solvation_energy": 5.83 
		},
		"coords": [
			{
				"x": -0.1542603753,
				"y": 0.8373052461,
				"z": 3.1023116524,
				"element": "C" 
			},
			{
				"x": -1.5686778585,
				"y": 0.5150394263,
				"z": 2.6196765552,
				"element": "C" 
			},
			{
				"x": -1.8499311705,
				"y": -1.2243477209,
				"z": 2.0853611616,
				"element": "S" 
			},
			{
				"x": -1.3083250024,
				"y": -1.1921571709,
				"z": 0.3228264907,
				"element": "C" 
			},
			{
				"x": 0.1745471331,
				"y": -1.0485173109,
				"z": 0.0740234898,
				"element": "C" 
			},
			{
				"x": 1.081592955,
				"y": -2.0227965675,
				"z": 0.5224081957,
				"element": "C" 
			},
			{
				"x": 2.4408514968,
				"y": -1.9009787018,
				"z": 0.2668074309,
				"element": "C" 
			},
			{
				"x": 2.938295948,
				"y": -0.786500041,
				"z": -0.426457631,
				"element": "C" 
			},
			{
				"x": 2.0381763543,
				"y": 0.1825716923,
				"z": -0.8862044018,
				"element": "C" 
			},
			{
				"x": 0.6713445123,
				"y": 0.0486746874,
				"z": -0.6396628658,
				"element": "C" 
			},
			{
				"x": 4.4150433423,
				"y": -0.7184785034,
				"z": -0.6711814216,
				"element": "C" 
			},
			{
				"x": 4.9322434836,
				"y": 0.5059741486,
				"z": -0.964794486,
				"element": "O" 
			},
			{
				"x": 5.1421482068,
				"y": -1.6824124498,
				"z": -0.6182771969,
				"element": "O" 
			},
			{
				"x": 0.5807785639,
				"y": 0.7223571394,
				"z": 2.302537869,
				"element": "H" 
			},
			{
				"x": 0.1361558004,
				"y": 0.1782023424,
				"z": 3.9251386141,
				"element": "H" 
			},
			{
				"x": -0.1079150074,
				"y": 1.8724777767,
				"z": 3.461589103,
				"element": "H" 
			},
			{
				"x": -2.2911580488,
				"y": 0.6635520485,
				"z": 3.428449317,
				"element": "H" 
			},
			{
				"x": -1.8745248219,
				"y": 1.1740812661,
				"z": 1.7997710881,
				"element": "H" 
			},
			{
				"x": -1.8645804712,
				"y": -0.4075550859,
				"z": -0.1991187635,
				"element": "H" 
			},
			{
				"x": -1.6654173959,
				"y": -2.152236241,
				"z": -0.0648215115,
				"element": "H" 
			},
			{
				"x": 0.7110210702,
				"y": -2.8765724746,
				"z": 1.0824206722,
				"element": "H" 
			},
			{
				"x": 3.1439795635,
				"y": -2.6581951385,
				"z": 0.5966641804,
				"element": "H" 
			},
			{
				"x": 2.3817394887,
				"y": 1.0290540294,
				"z": -1.476523648,
				"element": "H" 
			},
			{
				"x": -0.0170040169,
				"y": 0.8008310877,
				"z": -1.0160677524,
				"element": "H" 
			},
			{
				"x": 4.27057625,
				"y": 1.1933265152,
				"z": -0.8071761419,
				"element": "H" 
			}
		],
		 "valence_orbital": [ 
			{
				"type": "occ",
				"energy": -0.31121,
				"method": "rhf"
			},
			{
				"type": "occ",
				"energy": -0.27638,
				"method": "rhf"
			},
			{
				"type": "occ",
				"energy": -0.2731,
				"method": "rhf"
			},
			{
				"type": "occ",
				"energy": -0.26167,
				"method": "rhf"
			},
			{
				"type": "occ",
				"energy": -0.22987,
				"method": "rhf"
			},
			{
				"type": "unocc",
				"energy": -0.05546,
				"method": "rhf"
			},
			{
				"type": "unocc",
				"energy": -0.02444,
				"method": "rhf"
			},
			{
				"type": "unocc",
				"energy": 0.02886,
				"method": "rhf"
			},
			{
				"type": "unocc",
				"energy": 0.04522,
				"method": "rhf"
			},
			{
				"type": "unocc",
				"energy": 0.05935,
				"method": "rhf"
			}
		],
		"cosmo_sigma_profile": { 
			"-0.025": 0.0,
			"-0.024": 0.0,
			"-0.023": 0.0,
			"-0.022": 0.0,
			"-0.021": 0.0,
			"-0.02": 0.0,
			"-0.019": 0.173519854829,
			"-0.018": 0.601448849074,
			"-0.017": 0.856626053857,
			"-0.016": 1.36749990352,
			"-0.015": 0.543428573822,
			"-0.014": 0.996750966229,
			"-0.013": 1.08122716515,
			"-0.012": 1.26892456211,
			"-0.011": 0.890083714627,
			"-0.01": 1.41810251504,
			"-0.009": 1.14209990132,
			"-0.008": 2.09950100109,
			"-0.007": 5.28089250998,
			"-0.006": 13.4450464078,
			"-0.005": 17.4890933912,
			"-0.004": 15.7521214571,
			"-0.003": 18.0001921756,
			"-0.002": 19.8017973953,
			"-0.001": 19.7092578062,
			"0.0": 19.473298289,
			"0.001": 17.1501464732,
			"0.002": 13.5045069681,
			"0.003": 13.3290713847,
			"0.004": 8.58530195408,
			"0.005": 5.60394184851,
			"0.006": 6.55251892686,
			"0.007": 5.39171574685,
			"0.008": 5.35999718738,
			"0.009": 4.71661543621,
			"0.01": 7.18523720113,
			"0.011": 5.68080203267,
			"0.012": 5.28991729707,
			"0.013": 1.79146245056,
			"0.014": 0.0940532487662,
			"0.015": 0.0,
			"0.016": 0.0,
			"0.017": 0.0,
			"0.018": 0.0,
			"0.019": 0.0,
			"0.02": 0.0,
			"0.021": 0.0,
			"0.022": 0.0,
			"0.023": 0.0,
			"0.024": 0.0,
			"0.025": 0.0
		}
	}
}
