{
	 "smiles": "CC1=C2NC(=CC2=C(C)C=C1)C(O)=O", 
	 "Tm": 480.15, 
	 "num_atms": 25, 
	 "gaussian": { 
		 "optdone": 1, 
		 "sigma_profile": "yes", 
		 "theory": "DFT", 
		 "functional": "B3LYP", 
		 "basiset": "6-31G**", 
		 "properties": { 
			 "R2extent": 3416.0146, 
			 "electric_dipole_moment_norm": 4.81384070987, 
			 "electric_quadrupole_moment_norm": 26.6969350589, 
			 "total_energy": -631.02643826, 
			 "HOMO_LUMO_gap": 0.1662, 
			 "cosmo_polarized_energy": -17.51, 
			 "cosmo_cavitation_energy": 29.09, 
			 "cosmo_dispersion_energy": -20.99, 
			 "cosmo_repulsion_energy": 1.64, 
			 "cosmo_total_nonelectrostatic_energy": 9.74, 
			 "SMD_solvation_energy": 5.84 
		},
		"coords": [
			{
				"x": -3.2493641109,
				"y": 0.9918783994,
				"z": -1.6581571728,
				"element": "C" 
			},
			{
				"x": -1.7677978531,
				"y": 0.9024565047,
				"z": -1.3981611936,
				"element": "C" 
			},
			{
				"x": -1.2146906952,
				"y": -0.143757952,
				"z": -0.6390920338,
				"element": "C" 
			},
			{
				"x": -1.8620679174,
				"y": -1.195560078,
				"z": -0.0093264634,
				"element": "N" 
			},
			{
				"x": -0.894709694,
				"y": -2.0260531806,
				"z": 0.5692343406,
				"element": "C" 
			},
			{
				"x": 0.3488161066,
				"y": -1.4754838679,
				"z": 0.3749254008,
				"element": "C" 
			},
			{
				"x": 0.1755274196,
				"y": -0.2726099448,
				"z": -0.3829423487,
				"element": "C" 
			},
			{
				"x": 1.0783649905,
				"y": 0.7013340167,
				"z": -0.8741662652,
				"element": "C" 
			},
			{
				"x": 2.5565409865,
				"y": 0.5951633894,
				"z": -0.602686407,
				"element": "C" 
			},
			{
				"x": 0.5318848335,
				"y": 1.7396155248,
				"z": -1.6170447898,
				"element": "C" 
			},
			{
				"x": -0.8534268228,
				"y": 1.8345471019,
				"z": -1.8755744886,
				"element": "C" 
			},
			{
				"x": -1.2394955446,
				"y": -3.2403606043,
				"z": 1.328231912,
				"element": "C" 
			},
			{
				"x": -2.5380295499,
				"y": -3.3101095511,
				"z": 1.7602372046,
				"element": "O" 
			},
			{
				"x": -0.4645632508,
				"y": -4.1362755937,
				"z": 1.5639195628,
				"element": "O" 
			},
			{
				"x": -3.8224461392,
				"y": 1.0209477815,
				"z": -0.7227017408,
				"element": "H" 
			},
			{
				"x": -3.4945857047,
				"y": 1.8932569872,
				"z": -2.2252111666,
				"element": "H" 
			},
			{
				"x": -3.6155634539,
				"y": 0.132462093,
				"z": -2.2358306725,
				"element": "H" 
			},
			{
				"x": -2.7629498002,
				"y": -1.5372543168,
				"z": -0.3131075641,
				"element": "H" 
			},
			{
				"x": 1.2665813356,
				"y": -1.884921387,
				"z": 0.7710005457,
				"element": "H" 
			},
			{
				"x": 3.1033774052,
				"y": 1.4239663422,
				"z": -1.0597873225,
				"element": "H" 
			},
			{
				"x": 2.7672542537,
				"y": 0.6052004406,
				"z": 0.4734780438,
				"element": "H" 
			},
			{
				"x": 2.9694588165,
				"y": -0.3400302391,
				"z": -0.9995145307,
				"element": "H" 
			},
			{
				"x": 1.189796381,
				"y": 2.5069446086,
				"z": -2.0164734515,
				"element": "H" 
			},
			{
				"x": -1.2194195885,
				"y": 2.6708678478,
				"z": -2.4658923302,
				"element": "H" 
			},
			{
				"x": -2.9309924037,
				"y": -2.4248243225,
				"z": 1.7460429312,
				"element": "H" 
			}
		],
		 "valence_orbital": [ 
			{
				"type": "occ",
				"energy": -0.31639,
				"method": "rhf"
			},
			{
				"type": "occ",
				"energy": -0.28231,
				"method": "rhf"
			},
			{
				"type": "occ",
				"energy": -0.27403,
				"method": "rhf"
			},
			{
				"type": "occ",
				"energy": -0.23411,
				"method": "rhf"
			},
			{
				"type": "occ",
				"energy": -0.21631,
				"method": "rhf"
			},
			{
				"type": "unocc",
				"energy": -0.05011,
				"method": "rhf"
			},
			{
				"type": "unocc",
				"energy": 0.00815,
				"method": "rhf"
			},
			{
				"type": "unocc",
				"energy": 0.02358,
				"method": "rhf"
			},
			{
				"type": "unocc",
				"energy": 0.04277,
				"method": "rhf"
			},
			{
				"type": "unocc",
				"energy": 0.08721,
				"method": "rhf"
			}
		],
		"cosmo_sigma_profile": { 
			"-0.025": 0.0,
			"-0.024": 0.0,
			"-0.023": 0.0,
			"-0.022": 0.0,
			"-0.021": 0.0,
			"-0.02": 0.0,
			"-0.019": 0.0,
			"-0.018": 0.723218861094,
			"-0.017": 1.79774352991,
			"-0.016": 1.91528151024,
			"-0.015": 2.12420124937,
			"-0.014": 1.55257408364,
			"-0.013": 1.5812891939,
			"-0.012": 2.22761299713,
			"-0.011": 1.76751204501,
			"-0.01": 1.73484389131,
			"-0.009": 2.02384790597,
			"-0.008": 2.15028366584,
			"-0.007": 2.48199715886,
			"-0.006": 3.51562910905,
			"-0.005": 8.98346561743,
			"-0.004": 20.3820172416,
			"-0.003": 19.9795655279,
			"-0.002": 18.3592748278,
			"-0.001": 16.9946723525,
			"0.0": 21.43095815,
			"0.001": 13.2107721525,
			"0.002": 11.4079738944,
			"0.003": 12.3704148818,
			"0.004": 14.2001335853,
			"0.005": 12.2690693059,
			"0.006": 7.93778346047,
			"0.007": 3.70461777782,
			"0.008": 2.78445988052,
			"0.009": 2.76298221627,
			"0.01": 4.83539964844,
			"0.011": 5.40972696018,
			"0.012": 6.1426230745,
			"0.013": 2.03454029595,
			"0.014": 0.0742554953089,
			"0.015": 0.0,
			"0.016": 0.0,
			"0.017": 0.0,
			"0.018": 0.0,
			"0.019": 0.0,
			"0.02": 0.0,
			"0.021": 0.0,
			"0.022": 0.0,
			"0.023": 0.0,
			"0.024": 0.0,
			"0.025": 0.0
		}
	}
}
