{
	 "smiles": "CC1(NC(=O)NC1=O)C1=CN=CC=C1", 
	 "Tm": 418.15, 
	 "num_atms": 23, 
	 "gaussian": { 
		 "optdone": 1, 
		 "sigma_profile": "yes", 
		 "theory": "DFT", 
		 "functional": "B3LYP", 
		 "basiset": "6-31G**", 
		 "properties": { 
			 "R2extent": 3572.7288, 
			 "electric_dipole_moment_norm": 2.86095286749, 
			 "electric_quadrupole_moment_norm": 8.12166810206, 
			 "total_energy": -663.118730719, 
			 "HOMO_LUMO_gap": 0.2193, 
			 "cosmo_polarized_energy": -18.38, 
			 "cosmo_cavitation_energy": 27.26, 
			 "cosmo_dispersion_energy": -19.59, 
			 "cosmo_repulsion_energy": 1.54, 
			 "cosmo_total_nonelectrostatic_energy": 9.22, 
			 "SMD_solvation_energy": 5.02 
		},
		"coords": [
			{
				"x": 0.7036814331,
				"y": 0.3024087629,
				"z": -0.0227296386,
				"element": "C" 
			},
			{
				"x": -0.2814266252,
				"y": -0.8386063416,
				"z": -0.3542430067,
				"element": "C" 
			},
			{
				"x": -0.6633715931,
				"y": -1.5848759757,
				"z": 0.84310032,
				"element": "N" 
			},
			{
				"x": -0.1661078758,
				"y": -2.865886178,
				"z": 0.8814575918,
				"element": "C" 
			},
			{
				"x": -0.2259048347,
				"y": -3.6738691047,
				"z": 1.7823404006,
				"element": "O" 
			},
			{
				"x": 0.4508631685,
				"y": -3.0644655855,
				"z": -0.3726669225,
				"element": "N" 
			},
			{
				"x": 0.4675501682,
				"y": -1.9374845041,
				"z": -1.1595291654,
				"element": "C" 
			},
			{
				"x": 0.9795485786,
				"y": -1.8089546462,
				"z": -2.2517544634,
				"element": "O" 
			},
			{
				"x": -1.4831515662,
				"y": -0.320618355,
				"z": -1.147917014,
				"element": "C" 
			},
			{
				"x": -2.7867208076,
				"y": -0.3850158086,
				"z": -0.6423865178,
				"element": "C" 
			},
			{
				"x": -3.8645989766,
				"y": 0.0888509732,
				"z": -1.2801239623,
				"element": "N" 
			},
			{
				"x": -3.6755374071,
				"y": 0.6457361081,
				"z": -2.4807699595,
				"element": "C" 
			},
			{
				"x": -2.4232668675,
				"y": 0.7466628986,
				"z": -3.0895149943,
				"element": "C" 
			},
			{
				"x": -1.3096903977,
				"y": 0.2594234663,
				"z": -2.41178189,
				"element": "C" 
			},
			{
				"x": 0.1998519199,
				"y": 1.0716398931,
				"z": 0.5703485805,
				"element": "H" 
			},
			{
				"x": 1.0752145036,
				"y": 0.7620352427,
				"z": -0.9408661978,
				"element": "H" 
			},
			{
				"x": 1.5570331949,
				"y": -0.0807458851,
				"z": 0.5447042962,
				"element": "H" 
			},
			{
				"x": -0.9413720714,
				"y": -1.1448321494,
				"z": 1.7074059244,
				"element": "H" 
			},
			{
				"x": 0.8857779042,
				"y": -3.9404581062,
				"z": -0.6255569499,
				"element": "H" 
			},
			{
				"x": -2.9737132889,
				"y": -0.8509230377,
				"z": 0.3216373557,
				"element": "H" 
			},
			{
				"x": -4.5652404681,
				"y": 1.0242940434,
				"z": -2.9809992514,
				"element": "H" 
			},
			{
				"x": -2.324413077,
				"y": 1.1947004989,
				"z": -4.0732734981,
				"element": "H" 
			},
			{
				"x": -0.3248050141,
				"y": 0.2978837905,
				"z": -2.8644810376,
				"element": "H" 
			}
		],
		 "valence_orbital": [ 
			{
				"type": "occ",
				"energy": -0.29026,
				"method": "rhf"
			},
			{
				"type": "occ",
				"energy": -0.28166,
				"method": "rhf"
			},
			{
				"type": "occ",
				"energy": -0.27734,
				"method": "rhf"
			},
			{
				"type": "occ",
				"energy": -0.26282,
				"method": "rhf"
			},
			{
				"type": "occ",
				"energy": -0.25494,
				"method": "rhf"
			},
			{
				"type": "unocc",
				"energy": -0.03564,
				"method": "rhf"
			},
			{
				"type": "unocc",
				"energy": -0.02453,
				"method": "rhf"
			},
			{
				"type": "unocc",
				"energy": -0.00843,
				"method": "rhf"
			},
			{
				"type": "unocc",
				"energy": 0.05094,
				"method": "rhf"
			},
			{
				"type": "unocc",
				"energy": 0.06637,
				"method": "rhf"
			}
		],
		"cosmo_sigma_profile": { 
			"-0.025": 0.0,
			"-0.024": 0.0,
			"-0.023": 0.0,
			"-0.022": 0.0,
			"-0.021": 0.0,
			"-0.02": 0.0,
			"-0.019": 0.0,
			"-0.018": 0.0,
			"-0.017": 0.723267955817,
			"-0.016": 1.41455983071,
			"-0.015": 1.89982255717,
			"-0.014": 2.64730154841,
			"-0.013": 1.94713383832,
			"-0.012": 1.76610008162,
			"-0.011": 2.380257897,
			"-0.01": 2.11363899182,
			"-0.009": 2.33667730249,
			"-0.008": 2.14290833497,
			"-0.007": 5.58566266831,
			"-0.006": 14.1352941882,
			"-0.005": 16.0970099809,
			"-0.004": 13.522979246,
			"-0.003": 15.781807133,
			"-0.002": 17.0383271671,
			"-0.001": 14.0418373562,
			"0.0": 10.5813935382,
			"0.001": 11.9445525204,
			"0.002": 14.4904742296,
			"0.003": 9.84183616864,
			"0.004": 5.0221093784,
			"0.005": 5.4157679129,
			"0.006": 3.49505342633,
			"0.007": 3.55634491618,
			"0.008": 3.13318850264,
			"0.009": 4.83158239116,
			"0.01": 4.62506867759,
			"0.011": 6.54379121154,
			"0.012": 9.25625827899,
			"0.013": 5.72232333694,
			"0.014": 0.937878624052,
			"0.015": 1.18041152801,
			"0.016": 0.744504408711,
			"0.017": 0.331829826815,
			"0.018": 0.0,
			"0.019": 0.0,
			"0.02": 0.0,
			"0.021": 0.0,
			"0.022": 0.0,
			"0.023": 0.0,
			"0.024": 0.0,
			"0.025": 0.0
		}
	}
}
