{
	 "smiles": "CSC1=NC2=CC(Cl)=C(OC3=C(Cl)C(Cl)=CC=C3)C=C2N1", 
	 "Tm": 448.15, 
	 "num_atms": 30, 
	 "gaussian": { 
		 "optdone": 1, 
		 "sigma_profile": "yes", 
		 "theory": "DFT", 
		 "functional": "B3LYP", 
		 "basiset": "6-31G**", 
		 "properties": { 
			 "R2extent": 13349.6066, 
			 "electric_dipole_moment_norm": 6.13044161949, 
			 "electric_quadrupole_moment_norm": 13.988549378, 
			 "total_energy": -2502.39776777, 
			 "HOMO_LUMO_gap": 0.18717, 
			 "cosmo_polarized_energy": -16.08, 
			 "cosmo_cavitation_energy": 42.35, 
			 "cosmo_dispersion_energy": -30.87, 
			 "cosmo_repulsion_energy": 2.34, 
			 "cosmo_total_nonelectrostatic_energy": 13.81, 
			 "SMD_solvation_energy": 4.72 
		},
		"coords": [
			{
				"x": 4.0671284525,
				"y": -1.189168682,
				"z": -4.1145808407,
				"element": "C" 
			},
			{
				"x": 4.3187304699,
				"y": -1.6472662689,
				"z": -2.3644361642,
				"element": "S" 
			},
			{
				"x": 2.6880418272,
				"y": -1.3710752245,
				"z": -1.7643747318,
				"element": "C" 
			},
			{
				"x": 1.6646227199,
				"y": -0.9397834301,
				"z": -2.4603397863,
				"element": "N" 
			},
			{
				"x": 0.6165815943,
				"y": -0.8879081082,
				"z": -1.5504960302,
				"element": "C" 
			},
			{
				"x": -0.7134312042,
				"y": -0.5061642063,
				"z": -1.7470649149,
				"element": "C" 
			},
			{
				"x": -1.5745024264,
				"y": -0.5488634887,
				"z": -0.6539615487,
				"element": "C" 
			},
			{
				"x": -3.2514353245,
				"y": -0.0899079416,
				"z": -0.8638754591,
				"element": "Cl" 
			},
			{
				"x": -1.126697875,
				"y": -0.9646420216,
				"z": 0.6197947126,
				"element": "C" 
			},
			{
				"x": -2.0206836671,
				"y": -1.0850045439,
				"z": 1.6679096669,
				"element": "O" 
			},
			{
				"x": -2.2383766664,
				"y": -0.0226934945,
				"z": 2.5068578613,
				"element": "C" 
			},
			{
				"x": -3.1187639786,
				"y": -0.2548507612,
				"z": 3.5813827396,
				"element": "C" 
			},
			{
				"x": -3.8414801028,
				"y": -1.8272525499,
				"z": 3.757810043,
				"element": "Cl" 
			},
			{
				"x": -3.3848478066,
				"y": 0.786193576,
				"z": 4.4791465599,
				"element": "C" 
			},
			{
				"x": -4.4689701526,
				"y": 0.544908179,
				"z": 5.8290286222,
				"element": "Cl" 
			},
			{
				"x": -2.7894403092,
				"y": 2.0395043684,
				"z": 4.3187442456,
				"element": "C" 
			},
			{
				"x": -1.9218331313,
				"y": 2.2497094927,
				"z": 3.2517371765,
				"element": "C" 
			},
			{
				"x": -1.6413286418,
				"y": 1.228055492,
				"z": 2.3459420856,
				"element": "C" 
			},
			{
				"x": 0.1965296597,
				"y": -1.3520998542,
				"z": 0.8295588452,
				"element": "C" 
			},
			{
				"x": 1.0491380669,
				"y": -1.3055600164,
				"z": -0.2689019042,
				"element": "C" 
			},
			{
				"x": 2.3897958575,
				"y": -1.610767777,
				"z": -0.4361888083,
				"element": "N" 
			},
			{
				"x": 3.744242147,
				"y": -0.1510631822,
				"z": -4.1879912445,
				"element": "H" 
			},
			{
				"x": 5.0367466148,
				"y": -1.3221895594,
				"z": -4.5975059285,
				"element": "H" 
			},
			{
				"x": 3.3223725069,
				"y": -1.8413689108,
				"z": -4.569985266,
				"element": "H" 
			},
			{
				"x": -1.0662140803,
				"y": -0.1906605566,
				"z": -2.7215605929,
				"element": "H" 
			},
			{
				"x": -3.0131738425,
				"y": 2.828454472,
				"z": 5.0268734829,
				"element": "H" 
			},
			{
				"x": -1.4581822629,
				"y": 3.2222937005,
				"z": 3.1204146793,
				"element": "H" 
			},
			{
				"x": -0.9675785874,
				"y": 1.3945600791,
				"z": 1.5141274776,
				"element": "H" 
			},
			{
				"x": 0.506521224,
				"y": -1.6810646232,
				"z": 1.8152101319,
				"element": "H" 
			},
			{
				"x": 3.0261889188,
				"y": -1.9556241585,
				"z": 0.2658248903,
				"element": "H" 
			}
		],
		 "valence_orbital": [ 
			{
				"type": "occ",
				"energy": -0.27795,
				"method": "rhf"
			},
			{
				"type": "occ",
				"energy": -0.24767,
				"method": "rhf"
			},
			{
				"type": "occ",
				"energy": -0.24274,
				"method": "rhf"
			},
			{
				"type": "occ",
				"energy": -0.23658,
				"method": "rhf"
			},
			{
				"type": "occ",
				"energy": -0.22255,
				"method": "rhf"
			},
			{
				"type": "unocc",
				"energy": -0.03538,
				"method": "rhf"
			},
			{
				"type": "unocc",
				"energy": -0.02061,
				"method": "rhf"
			},
			{
				"type": "unocc",
				"energy": -0.0087,
				"method": "rhf"
			},
			{
				"type": "unocc",
				"energy": -0.00329,
				"method": "rhf"
			},
			{
				"type": "unocc",
				"energy": 0.00321,
				"method": "rhf"
			}
		],
		"cosmo_sigma_profile": { 
			"-0.025": 0.0,
			"-0.024": 0.0,
			"-0.023": 0.0,
			"-0.022": 0.0,
			"-0.021": 0.0,
			"-0.02": 0.0,
			"-0.019": 0.0,
			"-0.018": 0.123888187377,
			"-0.017": 1.69319481623,
			"-0.016": 1.37773417779,
			"-0.015": 1.18045703907,
			"-0.014": 1.26711991326,
			"-0.013": 1.65445977913,
			"-0.012": 1.30824917513,
			"-0.011": 1.23774330482,
			"-0.01": 1.08456918499,
			"-0.009": 1.65073785125,
			"-0.008": 6.42363996,
			"-0.007": 10.8754850224,
			"-0.006": 13.6687144687,
			"-0.005": 14.7364450231,
			"-0.004": 13.2516653866,
			"-0.003": 18.6309550302,
			"-0.002": 20.290295047,
			"-0.001": 21.3951931531,
			"0.0": 30.7504576012,
			"0.001": 40.7991716834,
			"0.002": 38.784640569,
			"0.003": 36.7520938792,
			"0.004": 30.8830812622,
			"0.005": 16.8519896962,
			"0.006": 7.84934381245,
			"0.007": 5.40886239348,
			"0.008": 2.96377590485,
			"0.009": 1.87246247937,
			"0.01": 0.806619991319,
			"0.011": 1.88534456487,
			"0.012": 0.361686359226,
			"0.013": 0.722814293357,
			"0.014": 0.692764194643,
			"0.015": 0.253700756207,
			"0.016": 0.0,
			"0.017": 0.0,
			"0.018": 0.0,
			"0.019": 0.0,
			"0.02": 0.0,
			"0.021": 0.0,
			"0.022": 0.0,
			"0.023": 0.0,
			"0.024": 0.0,
			"0.025": 0.0
		}
	}
}
