{
	 "smiles": "OC(=O)C1=CC(F)=C(OC2=CC=C(Cl)C=C2)C=C1", 
	 "Tm": 402.15, 
	 "num_atms": 26, 
	 "gaussian": { 
		 "optdone": 1, 
		 "sigma_profile": "yes", 
		 "theory": "DFT", 
		 "functional": "B3LYP", 
		 "basiset": "6-31G**", 
		 "properties": { 
			 "R2extent": 8292.4999, 
			 "electric_dipole_moment_norm": 3.16298427122, 
			 "electric_quadrupole_moment_norm": 23.0423073745, 
			 "total_energy": -1285.89553428, 
			 "HOMO_LUMO_gap": 0.18408, 
			 "cosmo_polarized_energy": -16.32, 
			 "cosmo_cavitation_energy": 34.32, 
			 "cosmo_dispersion_energy": -24.67, 
			 "cosmo_repulsion_energy": 1.88, 
			 "cosmo_total_nonelectrostatic_energy": 11.53, 
			 "SMD_solvation_energy": 7.43 
		},
		"coords": [
			{
				"x": -5.0870098798,
				"y": 0.388816593,
				"z": -2.8285152335,
				"element": "O" 
			},
			{
				"x": -3.7807686414,
				"y": 0.7211683156,
				"z": -2.6428018091,
				"element": "C" 
			},
			{
				"x": -3.205966615,
				"y": 1.3933419624,
				"z": -3.4665370904,
				"element": "O" 
			},
			{
				"x": -3.1250829666,
				"y": 0.2171093825,
				"z": -1.3950982137,
				"element": "C" 
			},
			{
				"x": -3.8473408997,
				"y": -0.1904810264,
				"z": -0.2619102907,
				"element": "C" 
			},
			{
				"x": -3.1694807677,
				"y": -0.6270957611,
				"z": 0.8628223047,
				"element": "C" 
			},
			{
				"x": -3.858205508,
				"y": -1.0051325178,
				"z": 1.9526408538,
				"element": "F" 
			},
			{
				"x": -1.7677931601,
				"y": -0.675764325,
				"z": 0.9012890986,
				"element": "C" 
			},
			{
				"x": -1.2139500292,
				"y": -1.1778930249,
				"z": 2.0453653683,
				"element": "O" 
			},
			{
				"x": 0.0935087746,
				"y": -0.8677190622,
				"z": 2.389305531,
				"element": "C" 
			},
			{
				"x": 0.5279213349,
				"y": 0.4547516466,
				"z": 2.5033841447,
				"element": "C" 
			},
			{
				"x": 1.8280797958,
				"y": 0.7155956062,
				"z": 2.9331837306,
				"element": "C" 
			},
			{
				"x": 2.6731091365,
				"y": -0.3479743683,
				"z": 3.2537190661,
				"element": "C" 
			},
			{
				"x": 4.3093153569,
				"y": -0.0170075555,
				"z": 3.7982677979,
				"element": "Cl" 
			},
			{
				"x": 2.2366178751,
				"y": -1.6686405839,
				"z": 3.1511181221,
				"element": "C" 
			},
			{
				"x": 0.9386062324,
				"y": -1.9281696789,
				"z": 2.7122011688,
				"element": "C" 
			},
			{
				"x": -1.0505004249,
				"y": -0.2666877388,
				"z": -0.2275820752,
				"element": "C" 
			},
			{
				"x": -1.7260784721,
				"y": 0.1860843948,
				"z": -1.3574559142,
				"element": "C" 
			},
			{
				"x": -5.3558587817,
				"y": -0.2905837847,
				"z": -2.1951755682,
				"element": "H" 
			},
			{
				"x": -4.9303778009,
				"y": -0.1362601407,
				"z": -0.2043673923,
				"element": "H" 
			},
			{
				"x": -0.1444507911,
				"y": 1.2718535773,
				"z": 2.2646183715,
				"element": "H" 
			},
			{
				"x": 2.1797168956,
				"y": 1.7368160307,
				"z": 3.0278485052,
				"element": "H" 
			},
			{
				"x": 2.9037176777,
				"y": -2.4839739973,
				"z": 3.407161955,
				"element": "H" 
			},
			{
				"x": 0.5711790872,
				"y": -2.9448536984,
				"z": 2.6242875759,
				"element": "H" 
			},
			{
				"x": 0.0327031816,
				"y": -0.3047733508,
				"z": -0.2136598277,
				"element": "H" 
			},
			{
				"x": -1.1789106101,
				"y": 0.5161731057,
				"z": -2.2332101791,
				"element": "H" 
			}
		],
		 "valence_orbital": [ 
			{
				"type": "occ",
				"energy": -0.28419,
				"method": "rhf"
			},
			{
				"type": "occ",
				"energy": -0.27962,
				"method": "rhf"
			},
			{
				"type": "occ",
				"energy": -0.27814,
				"method": "rhf"
			},
			{
				"type": "occ",
				"energy": -0.26275,
				"method": "rhf"
			},
			{
				"type": "occ",
				"energy": -0.24127,
				"method": "rhf"
			},
			{
				"type": "unocc",
				"energy": -0.05719,
				"method": "rhf"
			},
			{
				"type": "unocc",
				"energy": -0.03637,
				"method": "rhf"
			},
			{
				"type": "unocc",
				"energy": -0.02375,
				"method": "rhf"
			},
			{
				"type": "unocc",
				"energy": -0.02362,
				"method": "rhf"
			},
			{
				"type": "unocc",
				"energy": 0.01876,
				"method": "rhf"
			}
		],
		"cosmo_sigma_profile": { 
			"-0.025": 0.0,
			"-0.024": 0.0,
			"-0.023": 0.0,
			"-0.022": 0.0,
			"-0.021": 0.0,
			"-0.02": 0.0,
			"-0.019": 0.410270034683,
			"-0.018": 1.129885838,
			"-0.017": 0.966341605862,
			"-0.016": 1.0491290157,
			"-0.015": 1.23347983931,
			"-0.014": 1.07769969714,
			"-0.013": 0.899933044707,
			"-0.012": 1.30655775628,
			"-0.011": 1.42986039414,
			"-0.01": 1.386209631,
			"-0.009": 1.1374037006,
			"-0.008": 5.62187273028,
			"-0.007": 11.6561094142,
			"-0.006": 14.149100026,
			"-0.005": 11.9709460419,
			"-0.004": 11.3305606214,
			"-0.003": 14.5595294239,
			"-0.002": 16.2701572846,
			"-0.001": 20.2718585887,
			"0.0": 23.1719383585,
			"0.001": 26.7573269625,
			"0.002": 28.3359343294,
			"0.003": 22.772094574,
			"0.004": 18.001130132,
			"0.005": 10.3317480051,
			"0.006": 4.50894611086,
			"0.007": 4.54805271722,
			"0.008": 3.00989519205,
			"0.009": 3.59231006758,
			"0.01": 4.64760588632,
			"0.011": 5.3745590057,
			"0.012": 4.53795154021,
			"0.013": 1.53025819662,
			"0.014": 0.0337241985566,
			"0.015": 0.0,
			"0.016": 0.0,
			"0.017": 0.0,
			"0.018": 0.0,
			"0.019": 0.0,
			"0.02": 0.0,
			"0.021": 0.0,
			"0.022": 0.0,
			"0.023": 0.0,
			"0.024": 0.0,
			"0.025": 0.0
		}
	}
}
