{
	 "smiles": "NC(=O)C12CC3CC(CC(C3)C1)C2", 
	 "Tm": 462.15, 
	 "num_atms": 30, 
	 "gaussian": { 
		 "optdone": 1, 
		 "sigma_profile": "yes", 
		 "theory": "DFT", 
		 "functional": "B3LYP", 
		 "basiset": "6-31G**", 
		 "properties": { 
			 "R2extent": 2692.0699, 
			 "electric_dipole_moment_norm": 3.43714290218, 
			 "electric_quadrupole_moment_norm": 16.5426556048, 
			 "total_energy": -559.439193207, 
			 "HOMO_LUMO_gap": 0.27056, 
			 "cosmo_polarized_energy": -11.55, 
			 "cosmo_cavitation_energy": 27.69, 
			 "cosmo_dispersion_energy": -21.04, 
			 "cosmo_repulsion_energy": 1.64, 
			 "cosmo_total_nonelectrostatic_energy": 8.28, 
			 "SMD_solvation_energy": 4.01 
		},
		"coords": [
			{
				"x": -4.1929575681,
				"y": 0.597247288,
				"z": 0.7161103633,
				"element": "N" 
			},
			{
				"x": -3.2599565098,
				"y": -0.057301118,
				"z": 1.475660048,
				"element": "C" 
			},
			{
				"x": -3.5826205674,
				"y": -0.6615590998,
				"z": 2.490448459,
				"element": "O" 
			},
			{
				"x": -1.8066453045,
				"y": 0.0175488559,
				"z": 0.9720840325,
				"element": "C" 
			},
			{
				"x": -0.8934735392,
				"y": -0.7604824417,
				"z": 1.9473738517,
				"element": "C" 
			},
			{
				"x": 0.5712301858,
				"y": -0.7076764528,
				"z": 1.471245181,
				"element": "C" 
			},
			{
				"x": 1.0408961159,
				"y": 0.7601638335,
				"z": 1.4091100104,
				"element": "C" 
			},
			{
				"x": 0.1497531381,
				"y": 1.54240316,
				"z": 0.4230502273,
				"element": "C" 
			},
			{
				"x": 0.2543328725,
				"y": 0.9071580591,
				"z": -0.9792709807,
				"element": "C" 
			},
			{
				"x": -0.2109279232,
				"y": -0.5626205421,
				"z": -0.9175442431,
				"element": "C" 
			},
			{
				"x": 0.6809920953,
				"y": -1.3424306543,
				"z": 0.0697471378,
				"element": "C" 
			},
			{
				"x": -1.6778199789,
				"y": -0.6162322972,
				"z": -0.4417621771,
				"element": "C" 
			},
			{
				"x": -1.3167784907,
				"y": 1.4911495892,
				"z": 0.9004918531,
				"element": "C" 
			},
			{
				"x": -5.1535314735,
				"y": 0.5634753545,
				"z": 1.0207794412,
				"element": "H" 
			},
			{
				"x": -3.9632227695,
				"y": 1.1026004851,
				"z": -0.1227185256,
				"element": "H" 
			},
			{
				"x": -0.9901232156,
				"y": -0.3355577527,
				"z": 2.9521859477,
				"element": "H" 
			},
			{
				"x": -1.2405689619,
				"y": -1.7965996532,
				"z": 2.0205788893,
				"element": "H" 
			},
			{
				"x": 1.1989772665,
				"y": -1.2651619885,
				"z": 2.1776876437,
				"element": "H" 
			},
			{
				"x": 2.0898004965,
				"y": 0.8110712084,
				"z": 1.0887934657,
				"element": "H" 
			},
			{
				"x": 0.9890419309,
				"y": 1.2152989602,
				"z": 2.4067488522,
				"element": "H" 
			},
			{
				"x": 0.47562809,
				"y": 2.5895163798,
				"z": 0.3792736478,
				"element": "H" 
			},
			{
				"x": -0.3597354773,
				"y": 1.4690258076,
				"z": -1.6962040894,
				"element": "H" 
			},
			{
				"x": 1.2898936351,
				"y": 0.9592021746,
				"z": -1.3394785146,
				"element": "H" 
			},
			{
				"x": -0.1415622975,
				"y": -1.0137743909,
				"z": -1.9156613942,
				"element": "H" 
			},
			{
				"x": 0.3715789052,
				"y": -2.3950210888,
				"z": 0.1069959431,
				"element": "H" 
			},
			{
				"x": 1.7235194671,
				"y": -1.3278321113,
				"z": -0.2742897091,
				"element": "H" 
			},
			{
				"x": -2.3163066987,
				"y": -0.0876621449,
				"z": -1.1621109727,
				"element": "H" 
			},
			{
				"x": -2.030706232,
				"y": -1.6548571967,
				"z": -0.4117700975,
				"element": "H" 
			},
			{
				"x": -1.4118857255,
				"y": 1.9579794391,
				"z": 1.8890478545,
				"element": "H" 
			},
			{
				"x": -1.9452214657,
				"y": 2.0753283379,
				"z": 0.2150978546,
				"element": "H" 
			}
		],
		 "valence_orbital": [ 
			{
				"type": "occ",
				"energy": -0.29663,
				"method": "rhf"
			},
			{
				"type": "occ",
				"energy": -0.28025,
				"method": "rhf"
			},
			{
				"type": "occ",
				"energy": -0.28018,
				"method": "rhf"
			},
			{
				"type": "occ",
				"energy": -0.25908,
				"method": "rhf"
			},
			{
				"type": "occ",
				"energy": -0.23535,
				"method": "rhf"
			},
			{
				"type": "unocc",
				"energy": 0.03521,
				"method": "rhf"
			},
			{
				"type": "unocc",
				"energy": 0.05518,
				"method": "rhf"
			},
			{
				"type": "unocc",
				"energy": 0.0845,
				"method": "rhf"
			},
			{
				"type": "unocc",
				"energy": 0.1187,
				"method": "rhf"
			},
			{
				"type": "unocc",
				"energy": 0.12485,
				"method": "rhf"
			}
		],
		"cosmo_sigma_profile": { 
			"-0.025": 0.0,
			"-0.024": 0.0,
			"-0.023": 0.0,
			"-0.022": 0.0,
			"-0.021": 0.0,
			"-0.02": 0.0,
			"-0.019": 0.0,
			"-0.018": 0.0,
			"-0.017": 0.0,
			"-0.016": 0.0,
			"-0.015": 0.0,
			"-0.014": 0.418511621368,
			"-0.013": 1.91588364869,
			"-0.012": 2.14754606806,
			"-0.011": 2.34775426787,
			"-0.01": 2.61184429355,
			"-0.009": 2.90955705826,
			"-0.008": 1.7269269655,
			"-0.007": 2.34018379465,
			"-0.006": 2.25999776611,
			"-0.005": 2.07998706088,
			"-0.004": 2.25149541254,
			"-0.003": 6.98821320867,
			"-0.002": 35.6343616753,
			"-0.001": 42.0488159768,
			"0.0": 37.5626709009,
			"0.001": 25.6164513264,
			"0.002": 9.20071817254,
			"0.003": 4.01813645028,
			"0.004": 3.66992958045,
			"0.005": 3.01067788923,
			"0.006": 1.4698182765,
			"0.007": 1.20830030646,
			"0.008": 1.18904319767,
			"0.009": 1.82091182415,
			"0.01": 1.3757722964,
			"0.011": 1.56778406108,
			"0.012": 1.88312499439,
			"0.013": 1.88204439149,
			"0.014": 5.87511402726,
			"0.015": 2.82745527201,
			"0.016": 0.035027533567,
			"0.017": 0.0,
			"0.018": 0.0,
			"0.019": 0.0,
			"0.02": 0.0,
			"0.021": 0.0,
			"0.022": 0.0,
			"0.023": 0.0,
			"0.024": 0.0,
			"0.025": 0.0
		}
	}
}
