{
	 "smiles": "O=CC1=CC=C(C=C1)N1CCCCC1", 
	 "Tm": 335.65, 
	 "num_atms": 29, 
	 "gaussian": { 
		 "optdone": 1, 
		 "sigma_profile": "yes", 
		 "theory": "DFT", 
		 "functional": "B3LYP", 
		 "basiset": "6-31G**", 
		 "properties": { 
			 "R2extent": 5269.8189, 
			 "electric_dipole_moment_norm": 6.73815149726, 
			 "electric_quadrupole_moment_norm": 29.0950437769, 
			 "total_energy": -596.289318428, 
			 "HOMO_LUMO_gap": 0.16044, 
			 "cosmo_polarized_energy": -10.88, 
			 "cosmo_cavitation_energy": 30.48, 
			 "cosmo_dispersion_energy": -22.57, 
			 "cosmo_repulsion_energy": 1.76, 
			 "cosmo_total_nonelectrostatic_energy": 9.67, 
			 "SMD_solvation_energy": 4.74 
		},
		"coords": [
			{
				"x": -3.6461968716,
				"y": 4.8974587251,
				"z": 2.8112275441,
				"element": "O" 
			},
			{
				"x": -3.6771324685,
				"y": 3.6887642174,
				"z": 2.6417536861,
				"element": "C" 
			},
			{
				"x": -2.5365972756,
				"y": 2.8614033466,
				"z": 2.235104754,
				"element": "C" 
			},
			{
				"x": -2.677243203,
				"y": 1.4758403284,
				"z": 2.06913837,
				"element": "C" 
			},
			{
				"x": -1.6076262605,
				"y": 0.6806741874,
				"z": 1.6871983853,
				"element": "C" 
			},
			{
				"x": -0.3310048769,
				"y": 1.2513800424,
				"z": 1.44647728,
				"element": "C" 
			},
			{
				"x": -0.1970380622,
				"y": 2.657492839,
				"z": 1.6130364327,
				"element": "C" 
			},
			{
				"x": -1.2741590732,
				"y": 3.4334775908,
				"z": 1.9993574913,
				"element": "C" 
			},
			{
				"x": 0.7399185941,
				"y": 0.4734058564,
				"z": 1.0630484013,
				"element": "N" 
			},
			{
				"x": 2.1137664554,
				"y": 0.9812947688,
				"z": 1.1305722507,
				"element": "C" 
			},
			{
				"x": 3.1008649034,
				"y": -0.1639379328,
				"z": 1.3810406207,
				"element": "C" 
			},
			{
				"x": 3.0607496239,
				"y": -1.2263462302,
				"z": 0.262022441,
				"element": "C" 
			},
			{
				"x": 1.6633917717,
				"y": -1.2914828334,
				"z": -0.3902063065,
				"element": "C" 
			},
			{
				"x": 0.5483032971,
				"y": -0.8987401106,
				"z": 0.5847800501,
				"element": "C" 
			},
			{
				"x": -4.6239421625,
				"y": 3.1203082705,
				"z": 2.7949454986,
				"element": "H" 
			},
			{
				"x": -3.6439201882,
				"y": 1.0123658859,
				"z": 2.2566014948,
				"element": "H" 
			},
			{
				"x": -1.7497872372,
				"y": -0.3900813346,
				"z": 1.606556267,
				"element": "H" 
			},
			{
				"x": 0.7502818761,
				"y": 3.1401151996,
				"z": 1.4046543048,
				"element": "H" 
			},
			{
				"x": -1.1675353401,
				"y": 4.5078858044,
				"z": 2.1154120092,
				"element": "H" 
			},
			{
				"x": 2.1805055517,
				"y": 1.6954338247,
				"z": 1.9561182099,
				"element": "H" 
			},
			{
				"x": 2.3875381291,
				"y": 1.5258066468,
				"z": 0.2119184964,
				"element": "H" 
			},
			{
				"x": 2.84743432,
				"y": -0.6229784092,
				"z": 2.343768062,
				"element": "H" 
			},
			{
				"x": 4.1084345692,
				"y": 0.2509618708,
				"z": 1.4893755209,
				"element": "H" 
			},
			{
				"x": 3.8085089844,
				"y": -0.9997905282,
				"z": -0.505930204,
				"element": "H" 
			},
			{
				"x": 3.332602034,
				"y": -2.2022591162,
				"z": 0.6791009796,
				"element": "H" 
			},
			{
				"x": 1.4604376967,
				"y": -2.2949489633,
				"z": -0.7787320202,
				"element": "H" 
			},
			{
				"x": 1.6172456297,
				"y": -0.6099309574,
				"z": -1.247606128,
				"element": "H" 
			},
			{
				"x": -0.413928496,
				"y": -0.9550816116,
				"z": 0.0673868668,
				"element": "H" 
			},
			{
				"x": 0.504828079,
				"y": -1.6151913777,
				"z": 1.4218792415,
				"element": "H" 
			}
		],
		 "valence_orbital": [ 
			{
				"type": "occ",
				"energy": -0.32708,
				"method": "rhf"
			},
			{
				"type": "occ",
				"energy": -0.28307,
				"method": "rhf"
			},
			{
				"type": "occ",
				"energy": -0.25338,
				"method": "rhf"
			},
			{
				"type": "occ",
				"energy": -0.23313,
				"method": "rhf"
			},
			{
				"type": "occ",
				"energy": -0.19778,
				"method": "rhf"
			},
			{
				"type": "unocc",
				"energy": -0.03734,
				"method": "rhf"
			},
			{
				"type": "unocc",
				"energy": -0.00147,
				"method": "rhf"
			},
			{
				"type": "unocc",
				"energy": 0.06285,
				"method": "rhf"
			},
			{
				"type": "unocc",
				"energy": 0.06354,
				"method": "rhf"
			},
			{
				"type": "unocc",
				"energy": 0.09861,
				"method": "rhf"
			}
		],
		"cosmo_sigma_profile": { 
			"-0.025": 0.0,
			"-0.024": 0.0,
			"-0.023": 0.0,
			"-0.022": 0.0,
			"-0.021": 0.0,
			"-0.02": 0.0,
			"-0.019": 0.0,
			"-0.018": 0.0,
			"-0.017": 0.0,
			"-0.016": 0.0,
			"-0.015": 0.0,
			"-0.014": 0.0,
			"-0.013": 0.0,
			"-0.012": 0.0,
			"-0.011": 0.0,
			"-0.01": 0.0,
			"-0.009": 0.0,
			"-0.008": 0.0,
			"-0.007": 0.313084222882,
			"-0.006": 6.75014482355,
			"-0.005": 12.9684669697,
			"-0.004": 20.7112956956,
			"-0.003": 37.0343462281,
			"-0.002": 38.3324978665,
			"-0.001": 24.8542407659,
			"0.0": 18.3562694117,
			"0.001": 13.2796042086,
			"0.002": 9.88174983342,
			"0.003": 11.258016791,
			"0.004": 11.1213285351,
			"0.005": 12.6057551243,
			"0.006": 3.18616776985,
			"0.007": 1.92095996616,
			"0.008": 1.2262347262,
			"0.009": 1.98825377596,
			"0.01": 1.92572676479,
			"0.011": 2.25008334428,
			"0.012": 3.9227487035,
			"0.013": 4.34965179111,
			"0.014": 1.32452291143,
			"0.015": 0.093981093472,
			"0.016": 0.0,
			"0.017": 0.0,
			"0.018": 0.0,
			"0.019": 0.0,
			"0.02": 0.0,
			"0.021": 0.0,
			"0.022": 0.0,
			"0.023": 0.0,
			"0.024": 0.0,
			"0.025": 0.0
		}
	}
}
