{
	 "smiles": "NC1=CC(=CC=C1)C1=CNN=C1", 
	 "Tm": 463.15, 
	 "num_atms": 21, 
	 "gaussian": { 
		 "optdone": 1, 
		 "sigma_profile": "yes", 
		 "theory": "DFT", 
		 "functional": "B3LYP", 
		 "basiset": "6-31G**", 
		 "properties": { 
			 "R2extent": 2774.647, 
			 "electric_dipole_moment_norm": 3.11449975919, 
			 "electric_quadrupole_moment_norm": 16.0019890361, 
			 "total_energy": -512.619179694, 
			 "HOMO_LUMO_gap": 0.18936, 
			 "cosmo_polarized_energy": -15.67, 
			 "cosmo_cavitation_energy": 25.19, 
			 "cosmo_dispersion_energy": -18.79, 
			 "cosmo_repulsion_energy": 1.49, 
			 "cosmo_total_nonelectrostatic_energy": 7.89, 
			 "SMD_solvation_energy": 3.53 
		},
		"coords": [
			{
				"x": -0.2387244894,
				"y": 2.8990616207,
				"z": -0.7142561206,
				"element": "N" 
			},
			{
				"x": -0.1361112043,
				"y": 1.7454677206,
				"z": 0.0696247139,
				"element": "C" 
			},
			{
				"x": 0.7216670444,
				"y": 0.7016522012,
				"z": -0.3073882712,
				"element": "C" 
			},
			{
				"x": 0.8833271219,
				"y": -0.4380119685,
				"z": 0.4936088139,
				"element": "C" 
			},
			{
				"x": 0.156505378,
				"y": -0.5339798083,
				"z": 1.692516956,
				"element": "C" 
			},
			{
				"x": -0.7042475453,
				"y": 0.4968250072,
				"z": 2.0657835834,
				"element": "C" 
			},
			{
				"x": -0.8551678231,
				"y": 1.6308116473,
				"z": 1.2718560073,
				"element": "C" 
			},
			{
				"x": 1.7956779467,
				"y": -1.5165540559,
				"z": 0.0856580199,
				"element": "C" 
			},
			{
				"x": 2.9329231248,
				"y": -1.4264755093,
				"z": -0.706470452,
				"element": "C" 
			},
			{
				"x": 3.4410252186,
				"y": -2.6815524478,
				"z": -0.8014019223,
				"element": "N" 
			},
			{
				"x": 2.7188685526,
				"y": -3.6025743701,
				"z": -0.1277966021,
				"element": "N" 
			},
			{
				"x": 1.7262584698,
				"y": -2.9000486338,
				"z": 0.4107159819,
				"element": "C" 
			},
			{
				"x": -0.0068514327,
				"y": 2.7718835574,
				"z": -1.6900558538,
				"element": "H" 
			},
			{
				"x": -1.1025100105,
				"y": 3.4122589774,
				"z": -0.6022790857,
				"element": "H" 
			},
			{
				"x": 1.2566240422,
				"y": 0.7728705253,
				"z": -1.2515800679,
				"element": "H" 
			},
			{
				"x": 0.2831388781,
				"y": -1.3989547401,
				"z": 2.3352825245,
				"element": "H" 
			},
			{
				"x": -1.2638041551,
				"y": 0.4197913789,
				"z": 2.9941057457,
				"element": "H" 
			},
			{
				"x": -1.5252146969,
				"y": 2.4307196875,
				"z": 1.5770213049,
				"element": "H" 
			},
			{
				"x": 3.4150783692,
				"y": -0.5787835306,
				"z": -1.1707608061,
				"element": "H" 
			},
			{
				"x": 4.2709836013,
				"y": -2.9750801404,
				"z": -1.2920138873,
				"element": "H" 
			},
			{
				"x": 0.9736536096,
				"y": -3.4060271185,
				"z": 1.0004294177,
				"element": "H" 
			}
		],
		 "valence_orbital": [ 
			{
				"type": "occ",
				"energy": -0.28405,
				"method": "rhf"
			},
			{
				"type": "occ",
				"energy": -0.26915,
				"method": "rhf"
			},
			{
				"type": "occ",
				"energy": -0.25192,
				"method": "rhf"
			},
			{
				"type": "occ",
				"energy": -0.21669,
				"method": "rhf"
			},
			{
				"type": "occ",
				"energy": -0.19711,
				"method": "rhf"
			},
			{
				"type": "unocc",
				"energy": -0.00775,
				"method": "rhf"
			},
			{
				"type": "unocc",
				"energy": 0.01854,
				"method": "rhf"
			},
			{
				"type": "unocc",
				"energy": 0.02635,
				"method": "rhf"
			},
			{
				"type": "unocc",
				"energy": 0.08032,
				"method": "rhf"
			},
			{
				"type": "unocc",
				"energy": 0.08198,
				"method": "rhf"
			}
		],
		"cosmo_sigma_profile": { 
			"-0.025": 0.0,
			"-0.024": 0.0,
			"-0.023": 0.0,
			"-0.022": 0.0,
			"-0.021": 0.0,
			"-0.02": 0.0,
			"-0.019": 0.0,
			"-0.018": 0.0,
			"-0.017": 0.330849341259,
			"-0.016": 1.86063555138,
			"-0.015": 1.15401012384,
			"-0.014": 1.27967751407,
			"-0.013": 1.19375561477,
			"-0.012": 2.73170666436,
			"-0.011": 4.19743623287,
			"-0.01": 3.50627660759,
			"-0.009": 5.33656245672,
			"-0.008": 6.32457313979,
			"-0.007": 6.5008590734,
			"-0.006": 8.73778058555,
			"-0.005": 11.4493726295,
			"-0.004": 10.2920929739,
			"-0.003": 10.7347809113,
			"-0.002": 8.78971289042,
			"-0.001": 7.73299995102,
			"0.0": 9.04968208442,
			"0.001": 8.3640764006,
			"0.002": 9.65317792918,
			"0.003": 10.0391989905,
			"0.004": 14.6960747612,
			"0.005": 16.5035684099,
			"0.006": 12.5258779956,
			"0.007": 10.3827153084,
			"0.008": 2.63238120139,
			"0.009": 2.20463886188,
			"0.01": 2.58879634302,
			"0.011": 1.84207007071,
			"0.012": 2.49666162601,
			"0.013": 1.27473455433,
			"0.014": 1.65950628621,
			"0.015": 1.92690495917,
			"0.016": 0.893407660914,
			"0.017": 0.0293490809478,
			"0.018": 0.0,
			"0.019": 0.0,
			"0.02": 0.0,
			"0.021": 0.0,
			"0.022": 0.0,
			"0.023": 0.0,
			"0.024": 0.0,
			"0.025": 0.0
		}
	}
}
