{
	 "smiles": "NC1=NNC(=O)NC1=O", 
	 "Tm": 608.15, 
	 "num_atms": 13, 
	 "gaussian": { 
		 "optdone": 1, 
		 "sigma_profile": "yes", 
		 "theory": "DFT", 
		 "functional": "B3LYP", 
		 "basiset": "6-31G**", 
		 "properties": { 
			 "R2extent": 1801.7681, 
			 "electric_dipole_moment_norm": 2.65435630803, 
			 "electric_quadrupole_moment_norm": 5.73097846445, 
			 "total_energy": -486.193890032, 
			 "HOMO_LUMO_gap": 0.17121, 
			 "cosmo_polarized_energy": -15.95, 
			 "cosmo_cavitation_energy": 18.07, 
			 "cosmo_dispersion_energy": -14.05, 
			 "cosmo_repulsion_energy": 1.18, 
			 "cosmo_total_nonelectrostatic_energy": 5.2, 
			 "SMD_solvation_energy": 4.22 
		},
		"coords": [
			{
				"x": 0.3223627131,
				"y": 0.0140960253,
				"z": 1.2498653567,
				"element": "N" 
			},
			{
				"x": 0.6614986513,
				"y": 0.4459727951,
				"z": -0.0001364494,
				"element": "C" 
			},
			{
				"x": 1.1445445415,
				"y": -0.3574108931,
				"z": -0.8950075535,
				"element": "N" 
			},
			{
				"x": 1.5113938698,
				"y": 0.2028727341,
				"z": -2.0939085416,
				"element": "N" 
			},
			{
				"x": 1.423968496,
				"y": 1.5181765713,
				"z": -2.4746315016,
				"element": "C" 
			},
			{
				"x": 1.7726425345,
				"y": 1.9513846882,
				"z": -3.5586435874,
				"element": "O" 
			},
			{
				"x": 0.8750967563,
				"y": 2.3268424386,
				"z": -1.4677063354,
				"element": "N" 
			},
			{
				"x": 0.4544272445,
				"y": 1.9081187968,
				"z": -0.2232963192,
				"element": "C" 
			},
			{
				"x": -0.0498921704,
				"y": 2.6465556324,
				"z": 0.6091116703,
				"element": "O" 
			},
			{
				"x": -0.2611485928,
				"y": 0.6447926609,
				"z": 1.7804868485,
				"element": "H" 
			},
			{
				"x": 0.2086238393,
				"y": -0.9775344978,
				"z": 1.3908821898,
				"element": "H" 
			},
			{
				"x": 1.8923887723,
				"y": -0.4421252416,
				"z": -2.7697078176,
				"element": "H" 
			},
			{
				"x": 0.7688933448,
				"y": 3.3083582897,
				"z": -1.6968079594,
				"element": "H" 
			}
		],
		 "valence_orbital": [ 
			{
				"type": "occ",
				"energy": -0.32582,
				"method": "rhf"
			},
			{
				"type": "occ",
				"energy": -0.29843,
				"method": "rhf"
			},
			{
				"type": "occ",
				"energy": -0.2817,
				"method": "rhf"
			},
			{
				"type": "occ",
				"energy": -0.2811,
				"method": "rhf"
			},
			{
				"type": "occ",
				"energy": -0.22551,
				"method": "rhf"
			},
			{
				"type": "unocc",
				"energy": -0.0543,
				"method": "rhf"
			},
			{
				"type": "unocc",
				"energy": 0.01338,
				"method": "rhf"
			},
			{
				"type": "unocc",
				"energy": 0.07348,
				"method": "rhf"
			},
			{
				"type": "unocc",
				"energy": 0.0827,
				"method": "rhf"
			},
			{
				"type": "unocc",
				"energy": 0.09723,
				"method": "rhf"
			}
		],
		"cosmo_sigma_profile": { 
			"-0.025": 0.0,
			"-0.024": 0.0,
			"-0.023": 0.0,
			"-0.022": 0.0,
			"-0.021": 0.0,
			"-0.02": 0.0,
			"-0.019": 0.0,
			"-0.018": 0.00980647808727,
			"-0.017": 0.762866532599,
			"-0.016": 2.02432979375,
			"-0.015": 2.66566721036,
			"-0.014": 2.08776075808,
			"-0.013": 2.75696965738,
			"-0.012": 3.61425816503,
			"-0.011": 3.65752565051,
			"-0.01": 3.83316801882,
			"-0.009": 3.80935834119,
			"-0.008": 2.48703254377,
			"-0.007": 4.01169626652,
			"-0.006": 6.10442626543,
			"-0.005": 5.53565425763,
			"-0.004": 6.26105607044,
			"-0.003": 8.39973254682,
			"-0.002": 7.96553901559,
			"-0.001": 7.20239752112,
			"0.0": 5.32692355951,
			"0.001": 5.2010848547,
			"0.002": 4.87973457374,
			"0.003": 4.43108735879,
			"0.004": 4.29521328754,
			"0.005": 4.07127674411,
			"0.006": 4.25143995004,
			"0.007": 5.13947055187,
			"0.008": 3.46759385111,
			"0.009": 4.1337775869,
			"0.01": 5.33461877292,
			"0.011": 6.58105120247,
			"0.012": 7.3767421031,
			"0.013": 6.05869540654,
			"0.014": 0.237673652529,
			"0.015": 0.0,
			"0.016": 0.0,
			"0.017": 0.0,
			"0.018": 0.0,
			"0.019": 0.0,
			"0.02": 0.0,
			"0.021": 0.0,
			"0.022": 0.0,
			"0.023": 0.0,
			"0.024": 0.0,
			"0.025": 0.0
		}
	}
}
