{
	 "smiles": "OC(=O)C1CCCCN1C1=NC=CC=N1", 
	 "Tm": 430.15, 
	 "num_atms": 28, 
	 "gaussian": { 
		 "optdone": 1, 
		 "sigma_profile": "yes", 
		 "theory": "DFT", 
		 "functional": "B3LYP", 
		 "basiset": "6-31G**", 
		 "properties": { 
			 "R2extent": 3942.6059, 
			 "electric_dipole_moment_norm": 1.78173060814, 
			 "electric_quadrupole_moment_norm": 13.3831683252, 
			 "total_energy": -703.620075695, 
			 "HOMO_LUMO_gap": 0.18543, 
			 "cosmo_polarized_energy": -13.3, 
			 "cosmo_cavitation_energy": 30.11, 
			 "cosmo_dispersion_energy": -21.95, 
			 "cosmo_repulsion_energy": 1.73, 
			 "cosmo_total_nonelectrostatic_energy": 9.89, 
			 "SMD_solvation_energy": 3.57 
		},
		"coords": [
			{
				"x": 1.4148344024,
				"y": 2.1929103684,
				"z": 2.1645254056,
				"element": "O" 
			},
			{
				"x": 1.1055606623,
				"y": 0.8853482753,
				"z": 1.9928660094,
				"element": "C" 
			},
			{
				"x": 1.5622872946,
				"y": 0.0046506211,
				"z": 2.6862106431,
				"element": "O" 
			},
			{
				"x": -0.0327046698,
				"y": 0.6686152615,
				"z": 0.9980902304,
				"element": "C" 
			},
			{
				"x": -1.3309640383,
				"y": 0.9243848831,
				"z": 1.803876748,
				"element": "C" 
			},
			{
				"x": -2.5866813425,
				"y": 0.9462866164,
				"z": 0.9334558437,
				"element": "C" 
			},
			{
				"x": -2.4080047059,
				"y": 2.0011908266,
				"z": -0.1585569821,
				"element": "C" 
			},
			{
				"x": -1.1791048548,
				"y": 1.6874333837,
				"z": -1.0054584001,
				"element": "C" 
			},
			{
				"x": 0.0457905243,
				"y": 1.5167861307,
				"z": -0.2001538737,
				"element": "N" 
			},
			{
				"x": 1.2441237115,
				"y": 1.549043516,
				"z": -0.8873214501,
				"element": "C" 
			},
			{
				"x": 2.2981804177,
				"y": 0.9365176357,
				"z": -0.3126975724,
				"element": "N" 
			},
			{
				"x": 3.4606762713,
				"y": 1.0033116644,
				"z": -0.9594333635,
				"element": "C" 
			},
			{
				"x": 3.6067263024,
				"y": 1.6547454491,
				"z": -2.1820617665,
				"element": "C" 
			},
			{
				"x": 2.4468644863,
				"y": 2.2339333421,
				"z": -2.697077057,
				"element": "C" 
			},
			{
				"x": 1.2699160379,
				"y": 2.1897989148,
				"z": -2.0756723123,
				"element": "N" 
			},
			{
				"x": 2.091651804,
				"y": 2.2078137672,
				"z": 2.8611587975,
				"element": "H" 
			},
			{
				"x": 0.0206914167,
				"y": -0.3939926331,
				"z": 0.7223464602,
				"element": "H" 
			},
			{
				"x": -1.2352778246,
				"y": 1.8915373565,
				"z": 2.3114451145,
				"element": "H" 
			},
			{
				"x": -1.3894896991,
				"y": 0.1533251023,
				"z": 2.5783743253,
				"element": "H" 
			},
			{
				"x": -2.7513809845,
				"y": -0.0394948807,
				"z": 0.4766454345,
				"element": "H" 
			},
			{
				"x": -3.4646445954,
				"y": 1.1615535205,
				"z": 1.5526287558,
				"element": "H" 
			},
			{
				"x": -3.280882496,
				"y": 2.0434214945,
				"z": -0.8197082987,
				"element": "H" 
			},
			{
				"x": -2.2983658734,
				"y": 2.9922188927,
				"z": 0.2997391271,
				"element": "H" 
			},
			{
				"x": -1.366573323,
				"y": 0.7671603486,
				"z": -1.585125986,
				"element": "H" 
			},
			{
				"x": -0.982843456,
				"y": 2.4801247472,
				"z": -1.7252695766,
				"element": "H" 
			},
			{
				"x": 4.3028712602,
				"y": 0.5058545783,
				"z": -0.4802225885,
				"element": "H" 
			},
			{
				"x": 4.5548173748,
				"y": 1.6977557898,
				"z": -2.7045020236,
				"element": "H" 
			},
			{
				"x": 2.4608258968,
				"y": 2.7553650273,
				"z": -3.6537016439,
				"element": "H" 
			}
		],
		 "valence_orbital": [ 
			{
				"type": "occ",
				"energy": -0.30266,
				"method": "rhf"
			},
			{
				"type": "occ",
				"energy": -0.2981,
				"method": "rhf"
			},
			{
				"type": "occ",
				"energy": -0.26223,
				"method": "rhf"
			},
			{
				"type": "occ",
				"energy": -0.24309,
				"method": "rhf"
			},
			{
				"type": "occ",
				"energy": -0.21891,
				"method": "rhf"
			},
			{
				"type": "unocc",
				"energy": -0.03348,
				"method": "rhf"
			},
			{
				"type": "unocc",
				"energy": -0.00463,
				"method": "rhf"
			},
			{
				"type": "unocc",
				"energy": 0.0265,
				"method": "rhf"
			},
			{
				"type": "unocc",
				"energy": 0.0799,
				"method": "rhf"
			},
			{
				"type": "unocc",
				"energy": 0.09727,
				"method": "rhf"
			}
		],
		"cosmo_sigma_profile": { 
			"-0.025": 0.0,
			"-0.024": 0.0,
			"-0.023": 0.0,
			"-0.022": 0.0,
			"-0.021": 0.0,
			"-0.02": 0.0,
			"-0.019": 0.0,
			"-0.018": 0.523909670948,
			"-0.017": 0.786226886285,
			"-0.016": 1.33847553422,
			"-0.015": 0.488554619549,
			"-0.014": 0.28341253093,
			"-0.013": 0.537736788286,
			"-0.012": 0.584975843729,
			"-0.011": 0.956444663324,
			"-0.01": 1.13685099067,
			"-0.009": 0.417983758023,
			"-0.008": 0.850735404398,
			"-0.007": 6.99115911138,
			"-0.006": 8.36453064052,
			"-0.005": 9.21057526093,
			"-0.004": 17.9571333213,
			"-0.003": 29.2664933502,
			"-0.002": 28.169860666,
			"-0.001": 24.1559745798,
			"0.0": 19.9567914725,
			"0.001": 13.6786083905,
			"0.002": 9.99741054425,
			"0.003": 8.36799326687,
			"0.004": 6.73136940764,
			"0.005": 5.6235710286,
			"0.006": 5.93834420576,
			"0.007": 5.9827576419,
			"0.008": 4.30743335709,
			"0.009": 4.01850417469,
			"0.01": 4.81939624872,
			"0.011": 5.90704170598,
			"0.012": 6.91484879994,
			"0.013": 2.32894608449,
			"0.014": 0.155920538488,
			"0.015": 0.0,
			"0.016": 0.0,
			"0.017": 0.0,
			"0.018": 0.0,
			"0.019": 0.0,
			"0.02": 0.0,
			"0.021": 0.0,
			"0.022": 0.0,
			"0.023": 0.0,
			"0.024": 0.0,
			"0.025": 0.0
		}
	}
}
