{
	 "smiles": "OC(=O)CC1NC(=O)N(C1=O)C1=CC=C(F)C=C1", 
	 "Tm": 498.15, 
	 "num_atms": 27, 
	 "gaussian": { 
		 "optdone": 1, 
		 "sigma_profile": "yes", 
		 "theory": "DFT", 
		 "functional": "B3LYP", 
		 "basiset": "6-31G**", 
		 "properties": { 
			 "R2extent": 5625.9524, 
			 "electric_dipole_moment_norm": 5.49145354164, 
			 "electric_quadrupole_moment_norm": 32.5482499502, 
			 "total_energy": -934.869272271, 
			 "HOMO_LUMO_gap": 0.20445, 
			 "cosmo_polarized_energy": -26.24, 
			 "cosmo_cavitation_energy": 32.65, 
			 "cosmo_dispersion_energy": -23.03, 
			 "cosmo_repulsion_energy": 1.76, 
			 "cosmo_total_nonelectrostatic_energy": 11.37, 
			 "SMD_solvation_energy": 8.43 
		},
		"coords": [
			{
				"x": 0.3875350781,
				"y": 4.0785125373,
				"z": 1.0988050453,
				"element": "O" 
			},
			{
				"x": 1.0168058826,
				"y": 3.8132407089,
				"z": 2.2638567427,
				"element": "C" 
			},
			{
				"x": 0.7098967285,
				"y": 4.3718882633,
				"z": 3.2860084209,
				"element": "O" 
			},
			{
				"x": 2.177474281,
				"y": 2.8114332192,
				"z": 2.1999664728,
				"element": "C" 
			},
			{
				"x": 2.0260485448,
				"y": 1.6080303905,
				"z": 1.256270805,
				"element": "C" 
			},
			{
				"x": 1.7284242055,
				"y": 1.9354196443,
				"z": -0.1429362914,
				"element": "N" 
			},
			{
				"x": 0.7525988224,
				"y": 1.0719955904,
				"z": -0.6610342353,
				"element": "C" 
			},
			{
				"x": 0.4581705217,
				"y": 0.9503735063,
				"z": -1.8266930548,
				"element": "O" 
			},
			{
				"x": 0.1710539776,
				"y": 0.4065624341,
				"z": 0.4408517872,
				"element": "N" 
			},
			{
				"x": 0.8530123004,
				"y": 0.6910691219,
				"z": 1.626479978,
				"element": "C" 
			},
			{
				"x": 0.5988121031,
				"y": 0.2813735344,
				"z": 2.7359822603,
				"element": "O" 
			},
			{
				"x": -0.9740888348,
				"y": -0.4466469242,
				"z": 0.3356182476,
				"element": "C" 
			},
			{
				"x": -2.0192339227,
				"y": -0.1059614949,
				"z": -0.5303688537,
				"element": "C" 
			},
			{
				"x": -3.1319558715,
				"y": -0.9369816603,
				"z": -0.6332358851,
				"element": "C" 
			},
			{
				"x": -3.1876854818,
				"y": -2.0888295164,
				"z": 0.1434142582,
				"element": "C" 
			},
			{
				"x": -4.2663239625,
				"y": -2.8897381087,
				"z": 0.0488994638,
				"element": "F" 
			},
			{
				"x": -2.1624472883,
				"y": -2.4371551249,
				"z": 1.0150476454,
				"element": "C" 
			},
			{
				"x": -1.0438757699,
				"y": -1.611971487,
				"z": 1.1069981056,
				"element": "C" 
			},
			{
				"x": 0.7793153121,
				"y": 3.5407430804,
				"z": 0.3819552399,
				"element": "H" 
			},
			{
				"x": 3.0810995887,
				"y": 3.3686853313,
				"z": 1.9218698531,
				"element": "H" 
			},
			{
				"x": 2.327033693,
				"y": 2.4367091181,
				"z": 3.2139695106,
				"element": "H" 
			},
			{
				"x": 2.9388994574,
				"y": 1.0004503298,
				"z": 1.3283335916,
				"element": "H" 
			},
			{
				"x": 2.4844642355,
				"y": 2.1385970789,
				"z": -0.7864755121,
				"element": "H" 
			},
			{
				"x": -1.9579899693,
				"y": 0.792114816,
				"z": -1.1315303759,
				"element": "H" 
			},
			{
				"x": -3.9523020985,
				"y": -0.6980583642,
				"z": -1.3005583778,
				"element": "H" 
			},
			{
				"x": -2.2438528466,
				"y": -3.3419467921,
				"z": 1.6067560419,
				"element": "H" 
			},
			{
				"x": -0.2411886865,
				"y": -1.8629092324,
				"z": 1.788149116,
				"element": "H" 
			}
		],
		 "valence_orbital": [ 
			{
				"type": "occ",
				"energy": -0.31105,
				"method": "rhf"
			},
			{
				"type": "occ",
				"energy": -0.2915,
				"method": "rhf"
			},
			{
				"type": "occ",
				"energy": -0.2738,
				"method": "rhf"
			},
			{
				"type": "occ",
				"energy": -0.27153,
				"method": "rhf"
			},
			{
				"type": "occ",
				"energy": -0.24832,
				"method": "rhf"
			},
			{
				"type": "unocc",
				"energy": -0.04387,
				"method": "rhf"
			},
			{
				"type": "unocc",
				"energy": -0.02515,
				"method": "rhf"
			},
			{
				"type": "unocc",
				"energy": -0.02304,
				"method": "rhf"
			},
			{
				"type": "unocc",
				"energy": 0.00358,
				"method": "rhf"
			},
			{
				"type": "unocc",
				"energy": 0.02871,
				"method": "rhf"
			}
		],
		"cosmo_sigma_profile": { 
			"-0.025": 0.0,
			"-0.024": 0.0,
			"-0.023": 0.0,
			"-0.022": 0.0,
			"-0.021": 0.0,
			"-0.02": 0.0,
			"-0.019": 0.0,
			"-0.018": 0.0,
			"-0.017": 0.243302558111,
			"-0.016": 1.81300291788,
			"-0.015": 1.6481926678,
			"-0.014": 1.55797643744,
			"-0.013": 1.23482437258,
			"-0.012": 1.53150473715,
			"-0.011": 3.67296893496,
			"-0.01": 9.3181586276,
			"-0.009": 9.49094309413,
			"-0.008": 7.91066711302,
			"-0.007": 13.7062912042,
			"-0.006": 14.8946034882,
			"-0.005": 13.6170635475,
			"-0.004": 10.1856812165,
			"-0.003": 9.64068644629,
			"-0.002": 8.79954984776,
			"-0.001": 9.25873434616,
			"0.0": 14.5276208272,
			"0.001": 15.3530494705,
			"0.002": 17.9871053728,
			"0.003": 14.9983742878,
			"0.004": 16.7357532415,
			"0.005": 6.5486449373,
			"0.006": 5.0139780957,
			"0.007": 4.90347435691,
			"0.008": 6.06490252361,
			"0.009": 6.70356382431,
			"0.01": 10.624485057,
			"0.011": 14.1111702051,
			"0.012": 6.95185884121,
			"0.013": 2.2615799753,
			"0.014": 0.0658817726732,
			"0.015": 0.0,
			"0.016": 0.0,
			"0.017": 0.0,
			"0.018": 0.0,
			"0.019": 0.0,
			"0.02": 0.0,
			"0.021": 0.0,
			"0.022": 0.0,
			"0.023": 0.0,
			"0.024": 0.0,
			"0.025": 0.0
		}
	}
}
