{
	 "smiles": "BrC1=CC(Br)=C(OC2=C(Br)C=C(Br)C=C2)C=C1", 
	 "Tm": 351.95, 
	 "num_atms": 23, 
	 "gaussian": { 
		 "optdone": 1, 
		 "sigma_profile": "yes", 
		 "theory": "DFT", 
		 "functional": "B3LYP", 
		 "basiset": "6-31G**", 
		 "properties": { 
			 "R2extent": 15846.7453, 
			 "electric_dipole_moment_norm": 1.73471946147, 
			 "electric_quadrupole_moment_norm": 5.88882314389, 
			 "total_energy": -10821.7141476, 
			 "HOMO_LUMO_gap": 0.19298, 
			 "cosmo_polarized_energy": -7.69, 
			 "cosmo_cavitation_energy": 37.92, 
			 "cosmo_dispersion_energy": -28.02, 
			 "cosmo_repulsion_energy": 2.21, 
			 "cosmo_total_nonelectrostatic_energy": 12.11, 
			 "SMD_solvation_energy": 2.07 
		},
		"coords": [
			{
				"x": -0.4174021128,
				"y": 7.1498735006,
				"z": -0.4264036349,
				"element": "Br" 
			},
			{
				"x": -0.3598329278,
				"y": 5.2698151829,
				"z": -0.108254419,
				"element": "C" 
			},
			{
				"x": 0.638858149,
				"y": 4.7474619666,
				"z": 0.710141642,
				"element": "C" 
			},
			{
				"x": 0.6860618047,
				"y": 3.3721777585,
				"z": 0.9358695708,
				"element": "C" 
			},
			{
				"x": 2.0542268738,
				"y": 2.6571463212,
				"z": 2.0436243902,
				"element": "Br" 
			},
			{
				"x": -0.264914905,
				"y": 2.5237250792,
				"z": 0.3542507824,
				"element": "C" 
			},
			{
				"x": -0.2250546635,
				"y": 1.187061625,
				"z": 0.670025902,
				"element": "O" 
			},
			{
				"x": -0.4712332739,
				"y": 0.2384942856,
				"z": -0.2932116935,
				"element": "C" 
			},
			{
				"x": -1.2196681068,
				"y": -0.8910051431,
				"z": 0.0622404136,
				"element": "C" 
			},
			{
				"x": -1.9603370225,
				"y": -1.037192047,
				"z": 1.8057922016,
				"element": "Br" 
			},
			{
				"x": -1.4281724552,
				"y": -1.9190048632,
				"z": -0.8567542954,
				"element": "C" 
			},
			{
				"x": -0.891678556,
				"y": -1.8075470308,
				"z": -2.1372144136,
				"element": "C" 
			},
			{
				"x": -1.1869819613,
				"y": -3.208347614,
				"z": -3.3979892688,
				"element": "Br" 
			},
			{
				"x": -0.1446280114,
				"y": -0.6902937882,
				"z": -2.5081381103,
				"element": "C" 
			},
			{
				"x": 0.0669260438,
				"y": 0.3264277622,
				"z": -1.5806573689,
				"element": "C" 
			},
			{
				"x": -1.2650487829,
				"y": 3.0693053738,
				"z": -0.4562101442,
				"element": "C" 
			},
			{
				"x": -1.3141241523,
				"y": 4.440158372,
				"z": -0.6953817521,
				"element": "C" 
			},
			{
				"x": 1.3779506036,
				"y": 5.3946312307,
				"z": 1.1646504272,
				"element": "H" 
			},
			{
				"x": -2.0073531321,
				"y": -2.7880112806,
				"z": -0.5721014902,
				"element": "H" 
			},
			{
				"x": 0.2757499601,
				"y": -0.6181874504,
				"z": -3.5042204393,
				"element": "H" 
			},
			{
				"x": 0.6583308209,
				"y": 1.195077874,
				"z": -1.8494983045,
				"element": "H" 
			},
			{
				"x": -2.0092203547,
				"y": 2.4127819253,
				"z": -0.8941127792,
				"element": "H" 
			},
			{
				"x": -2.0921538376,
				"y": 4.8582509599,
				"z": -1.3230472161,
				"element": "H" 
			}
		],
		 "valence_orbital": [ 
			{
				"type": "occ",
				"energy": -0.29449,
				"method": "rhf"
			},
			{
				"type": "occ",
				"energy": -0.26874,
				"method": "rhf"
			},
			{
				"type": "occ",
				"energy": -0.26485,
				"method": "rhf"
			},
			{
				"type": "occ",
				"energy": -0.254,
				"method": "rhf"
			},
			{
				"type": "occ",
				"energy": -0.23486,
				"method": "rhf"
			},
			{
				"type": "unocc",
				"energy": -0.04188,
				"method": "rhf"
			},
			{
				"type": "unocc",
				"energy": -0.037,
				"method": "rhf"
			},
			{
				"type": "unocc",
				"energy": -0.03028,
				"method": "rhf"
			},
			{
				"type": "unocc",
				"energy": -0.02574,
				"method": "rhf"
			},
			{
				"type": "unocc",
				"energy": -0.02095,
				"method": "rhf"
			}
		],
		"cosmo_sigma_profile": { 
			"-0.025": 0.0,
			"-0.024": 0.0,
			"-0.023": 0.0,
			"-0.022": 0.0,
			"-0.021": 0.0,
			"-0.02": 0.0,
			"-0.019": 0.0,
			"-0.018": 0.0,
			"-0.017": 0.0,
			"-0.016": 0.0,
			"-0.015": 0.0,
			"-0.014": 0.0,
			"-0.013": 0.0,
			"-0.012": 0.0,
			"-0.011": 0.0,
			"-0.01": 0.0,
			"-0.009": 0.71156799639,
			"-0.008": 8.75546411832,
			"-0.007": 10.9117629088,
			"-0.006": 10.9958611952,
			"-0.005": 12.9401612757,
			"-0.004": 16.7674500106,
			"-0.003": 16.1272056601,
			"-0.002": 17.2214832886,
			"-0.001": 23.1108447245,
			"0.0": 34.4559948634,
			"0.001": 48.6970031333,
			"0.002": 33.3434021859,
			"0.003": 29.9248928778,
			"0.004": 40.7445110069,
			"0.005": 8.17254391403,
			"0.006": 2.69581971185,
			"0.007": 2.41228228884,
			"0.008": 1.41924486971,
			"0.009": 0.0,
			"0.01": 0.0,
			"0.011": 0.0,
			"0.012": 0.0,
			"0.013": 0.0,
			"0.014": 0.0,
			"0.015": 0.0,
			"0.016": 0.0,
			"0.017": 0.0,
			"0.018": 0.0,
			"0.019": 0.0,
			"0.02": 0.0,
			"0.021": 0.0,
			"0.022": 0.0,
			"0.023": 0.0,
			"0.024": 0.0,
			"0.025": 0.0
		}
	}
}
