{
	 "smiles": "CC(C)=CCCC(C)=C/C=C/C(/C)=C/C=C/C(/C)=CC=CC=C(/C)C=CC=C(/C)C=CC=C(/C)CCC=C(C)C", 
	 "Tm": 448.15, 
	 "num_atms": 96, 
	 "gaussian": { 
		 "optdone": 1, 
		 "sigma_profile": "yes", 
		 "theory": "DFT", 
		 "functional": "B3LYP", 
		 "basiset": "6-31G**", 
		 "properties": { 
			 "R2extent": 65347.9132, 
			 "electric_dipole_moment_norm": 1.92392146929, 
			 "electric_quadrupole_moment_norm": 8.22732950902, 
			 "total_energy": -1557.87824329, 
			 "HOMO_LUMO_gap": 0.08851, 
			 "cosmo_polarized_energy": -12.03, 
			 "cosmo_cavitation_energy": 97.44, 
			 "cosmo_dispersion_energy": -61.94, 
			 "cosmo_repulsion_energy": 4.82, 
			 "cosmo_total_nonelectrostatic_energy": 40.32, 
			 "SMD_solvation_energy": 16.75 
		},
		"coords": [
			{
				"x": -5.0825052401,
				"y": 7.5808439714,
				"z": 4.0564880249,
				"element": "C" 
			},
			{
				"x": -5.3976419528,
				"y": 7.3544340081,
				"z": 2.5964279783,
				"element": "C" 
			},
			{
				"x": -6.7411212654,
				"y": 6.7141442225,
				"z": 2.3443455478,
				"element": "C" 
			},
			{
				"x": -4.5226943808,
				"y": 7.7166464299,
				"z": 1.6441009782,
				"element": "C" 
			},
			{
				"x": -4.6521525708,
				"y": 7.5706904539,
				"z": 0.1528323686,
				"element": "C" 
			},
			{
				"x": -3.5373873038,
				"y": 6.6880195435,
				"z": -0.4800116798,
				"element": "C" 
			},
			{
				"x": -2.1468667135,
				"y": 7.278552863,
				"z": -0.397763246,
				"element": "C" 
			},
			{
				"x": -1.8471581436,
				"y": 8.3739432279,
				"z": -1.3900696502,
				"element": "C" 
			},
			{
				"x": -1.1978247618,
				"y": 6.8763823445,
				"z": 0.4823255663,
				"element": "C" 
			},
			{
				"x": -1.3152483711,
				"y": 5.852921805,
				"z": 1.4973031683,
				"element": "C" 
			},
			{
				"x": -0.2996568058,
				"y": 5.5147262423,
				"z": 2.3319236264,
				"element": "C" 
			},
			{
				"x": -0.3176299396,
				"y": 4.4852767671,
				"z": 3.3671241353,
				"element": "C" 
			},
			{
				"x": 0.6909674451,
				"y": 4.6616560117,
				"z": 4.4788692257,
				"element": "C" 
			},
			{
				"x": -1.167016545,
				"y": 3.4159181586,
				"z": 3.2864289852,
				"element": "C" 
			},
			{
				"x": -1.3823995712,
				"y": 2.3304426832,
				"z": 4.2171801477,
				"element": "C" 
			},
			{
				"x": -1.1795527307,
				"y": 2.3148198702,
				"z": 5.5647931964,
				"element": "C" 
			},
			{
				"x": -1.4150479739,
				"y": 1.1928569239,
				"z": 6.4648543887,
				"element": "C" 
			},
			{
				"x": -1.8953836766,
				"y": 1.5757274368,
				"z": 7.848904823,
				"element": "C" 
			},
			{
				"x": -1.2176884174,
				"y": -0.127432721,
				"z": 6.1632719547,
				"element": "C" 
			},
			{
				"x": -0.6133358732,
				"y": -0.6896205089,
				"z": 4.985856077,
				"element": "C" 
			},
			{
				"x": -0.5696901709,
				"y": -2.0351789453,
				"z": 4.7517940883,
				"element": "C" 
			},
			{
				"x": 0.0229533314,
				"y": -2.7582469465,
				"z": 3.6547955394,
				"element": "C" 
			},
			{
				"x": 1.0111268085,
				"y": -2.4042880016,
				"z": 2.7699838759,
				"element": "C" 
			},
			{
				"x": 1.7672487465,
				"y": -1.1005714214,
				"z": 2.855625488,
				"element": "C" 
			},
			{
				"x": 1.3492690386,
				"y": -3.3537293835,
				"z": 1.7284015959,
				"element": "C" 
			},
			{
				"x": 2.2140266032,
				"y": -3.1432454792,
				"z": 0.6947122817,
				"element": "C" 
			},
			{
				"x": 2.5714794224,
				"y": -4.044779908,
				"z": -0.3770879075,
				"element": "C" 
			},
			{
				"x": 2.5699639337,
				"y": -5.4132629109,
				"z": -0.436702525,
				"element": "C" 
			},
			{
				"x": 2.2449778512,
				"y": -6.2925270021,
				"z": 0.7458073783,
				"element": "C" 
			},
			{
				"x": 2.9326078525,
				"y": -6.0327565543,
				"z": -1.7017986645,
				"element": "C" 
			},
			{
				"x": 2.961231657,
				"y": -7.363460335,
				"z": -1.9716320109,
				"element": "C" 
			},
			{
				"x": 3.3123380414,
				"y": -8.0127902163,
				"z": -3.2275863822,
				"element": "C" 
			},
			{
				"x": 3.1593316195,
				"y": -7.5867177812,
				"z": -4.5048472388,
				"element": "C" 
			},
			{
				"x": 2.474741991,
				"y": -6.2999981908,
				"z": -4.8912135933,
				"element": "C" 
			},
			{
				"x": 3.6722630578,
				"y": -8.4532171341,
				"z": -5.6366005849,
				"element": "C" 
			},
			{
				"x": 5.0390737206,
				"y": -8.0093645466,
				"z": -6.2313372888,
				"element": "C" 
			},
			{
				"x": 5.0019362165,
				"y": -6.7250824759,
				"z": -7.014292915,
				"element": "C" 
			},
			{
				"x": 5.761216772,
				"y": -5.6271971059,
				"z": -6.8668809814,
				"element": "C" 
			},
			{
				"x": 6.8351213848,
				"y": -5.4526170015,
				"z": -5.8207144699,
				"element": "C" 
			},
			{
				"x": 5.5903688421,
				"y": -4.4421024067,
				"z": -7.7883753412,
				"element": "C" 
			},
			{
				"x": -4.1011786101,
				"y": 8.0424972252,
				"z": 4.1951469556,
				"element": "H" 
			},
			{
				"x": -5.0956431598,
				"y": 6.6350652144,
				"z": 4.6145734196,
				"element": "H" 
			},
			{
				"x": -5.8343738148,
				"y": 8.2284844825,
				"z": 4.5275153453,
				"element": "H" 
			},
			{
				"x": -6.9490301195,
				"y": 6.5388182069,
				"z": 1.2873047523,
				"element": "H" 
			},
			{
				"x": -7.5489264175,
				"y": 7.3410393956,
				"z": 2.7448119123,
				"element": "H" 
			},
			{
				"x": -6.8123859584,
				"y": 5.7503306907,
				"z": 2.8653860585,
				"element": "H" 
			},
			{
				"x": -3.586821019,
				"y": 8.1673171251,
				"z": 1.9740577619,
				"element": "H" 
			},
			{
				"x": -5.6205462172,
				"y": 7.141751073,
				"z": -0.1215386331,
				"element": "H" 
			},
			{
				"x": -4.6183262532,
				"y": 8.5656249605,
				"z": -0.3140698717,
				"element": "H" 
			},
			{
				"x": -3.7873932434,
				"y": 6.5428826302,
				"z": -1.54021983,
				"element": "H" 
			},
			{
				"x": -3.5727897455,
				"y": 5.698802162,
				"z": -0.0149887221,
				"element": "H" 
			},
			{
				"x": -0.8409980511,
				"y": 8.7807963826,
				"z": -1.2576793853,
				"element": "H" 
			},
			{
				"x": -2.5597863371,
				"y": 9.2046512937,
				"z": -1.302088335,
				"element": "H" 
			},
			{
				"x": -1.9329420204,
				"y": 8.0044169891,
				"z": -2.4212123426,
				"element": "H" 
			},
			{
				"x": -0.2266845591,
				"y": 7.3704920661,
				"z": 0.4316646698,
				"element": "H" 
			},
			{
				"x": -2.2748087638,
				"y": 5.3556689657,
				"z": 1.6119678537,
				"element": "H" 
			},
			{
				"x": 0.6258961859,
				"y": 6.0873647744,
				"z": 2.254245328,
				"element": "H" 
			},
			{
				"x": 0.2959622648,
				"y": 5.2888118208,
				"z": 5.2890442244,
				"element": "H" 
			},
			{
				"x": 1.5888177549,
				"y": 5.1651226312,
				"z": 4.1039831777,
				"element": "H" 
			},
			{
				"x": 0.985338933,
				"y": 3.7048957534,
				"z": 4.9183962389,
				"element": "H" 
			},
			{
				"x": -1.7386438523,
				"y": 3.3277029612,
				"z": 2.3643590706,
				"element": "H" 
			},
			{
				"x": -1.8226372428,
				"y": 1.4382377178,
				"z": 3.7748278188,
				"element": "H" 
			},
			{
				"x": -0.9112226463,
				"y": 3.2482808424,
				"z": 6.0560412972,
				"element": "H" 
			},
			{
				"x": -1.1782774051,
				"y": 2.2477748894,
				"z": 8.3387622805,
				"element": "H" 
			},
			{
				"x": -2.8499821203,
				"y": 2.1151755942,
				"z": 7.8071988747,
				"element": "H" 
			},
			{
				"x": -2.0258019226,
				"y": 0.7003253131,
				"z": 8.4903388246,
				"element": "H" 
			},
			{
				"x": -1.5026194389,
				"y": -0.850137363,
				"z": 6.9285028234,
				"element": "H" 
			},
			{
				"x": -0.1837891275,
				"y": -0.0014465878,
				"z": 4.2674803158,
				"element": "H" 
			},
			{
				"x": -1.100453273,
				"y": -2.6655960234,
				"z": 5.4670473814,
				"element": "H" 
			},
			{
				"x": -0.3754723459,
				"y": -3.7652793194,
				"z": 3.5296439118,
				"element": "H" 
			},
			{
				"x": 1.3144300614,
				"y": -0.3201733561,
				"z": 2.2306416022,
				"element": "H" 
			},
			{
				"x": 2.8005231915,
				"y": -1.2254358456,
				"z": 2.5200331077,
				"element": "H" 
			},
			{
				"x": 1.7916122338,
				"y": -0.7271875302,
				"z": 3.8818686945,
				"element": "H" 
			},
			{
				"x": 0.8050491386,
				"y": -4.2935278074,
				"z": 1.7684440142,
				"element": "H" 
			},
			{
				"x": 2.6586737673,
				"y": -2.1534047209,
				"z": 0.6053317128,
				"element": "H" 
			},
			{
				"x": 2.9230224253,
				"y": -3.5379147068,
				"z": -1.2763529841,
				"element": "H" 
			},
			{
				"x": 2.880342478,
				"y": -7.1834444449,
				"z": 0.7541512268,
				"element": "H" 
			},
			{
				"x": 2.4006412051,
				"y": -5.7610417657,
				"z": 1.6865952915,
				"element": "H" 
			},
			{
				"x": 1.2042185333,
				"y": -6.6409029206,
				"z": 0.7256806365,
				"element": "H" 
			},
			{
				"x": 3.2158688598,
				"y": -5.3384215935,
				"z": -2.4891101203,
				"element": "H" 
			},
			{
				"x": 2.7370744298,
				"y": -8.0544377308,
				"z": -1.1600706697,
				"element": "H" 
			},
			{
				"x": 3.7326733512,
				"y": -9.0121686411,
				"z": -3.1025000505,
				"element": "H" 
			},
			{
				"x": 3.1959788599,
				"y": -5.5003680631,
				"z": -5.1005198086,
				"element": "H" 
			},
			{
				"x": 1.8958912589,
				"y": -6.43835975,
				"z": -5.8119304502,
				"element": "H" 
			},
			{
				"x": 1.7994020373,
				"y": -5.9497042861,
				"z": -4.1064531341,
				"element": "H" 
			},
			{
				"x": 3.7875907136,
				"y": -9.4834390931,
				"z": -5.2805266393,
				"element": "H" 
			},
			{
				"x": 2.9318549499,
				"y": -8.4803491493,
				"z": -6.4488536623,
				"element": "H" 
			},
			{
				"x": 5.773529703,
				"y": -7.9651250675,
				"z": -5.4217323283,
				"element": "H" 
			},
			{
				"x": 5.3695164741,
				"y": -8.8148104567,
				"z": -6.904873283,
				"element": "H" 
			},
			{
				"x": 4.265185346,
				"y": -6.7132457501,
				"z": -7.8202843087,
				"element": "H" 
			},
			{
				"x": 7.8156704347,
				"y": -5.3084336301,
				"z": -6.2938444261,
				"element": "H" 
			},
			{
				"x": 6.915077486,
				"y": -6.2986185983,
				"z": -5.1362578793,
				"element": "H" 
			},
			{
				"x": 6.6469052615,
				"y": -4.5522882357,
				"z": -5.2213254872,
				"element": "H" 
			},
			{
				"x": 6.5230377989,
				"y": -4.2210584487,
				"z": -8.3247611886,
				"element": "H" 
			},
			{
				"x": 5.336881384,
				"y": -3.534661199,
				"z": -7.2239005199,
				"element": "H" 
			},
			{
				"x": 4.8051252153,
				"y": -4.6106650626,
				"z": -8.5305884837,
				"element": "H" 
			}
		],
		 "valence_orbital": [ 
			{
				"type": "occ",
				"energy": -0.22855,
				"method": "rhf"
			},
			{
				"type": "occ",
				"energy": -0.22537,
				"method": "rhf"
			},
			{
				"type": "occ",
				"energy": -0.20573,
				"method": "rhf"
			},
			{
				"type": "occ",
				"energy": -0.1857,
				"method": "rhf"
			},
			{
				"type": "occ",
				"energy": -0.16364,
				"method": "rhf"
			},
			{
				"type": "unocc",
				"energy": -0.07513,
				"method": "rhf"
			},
			{
				"type": "unocc",
				"energy": -0.05094,
				"method": "rhf"
			},
			{
				"type": "unocc",
				"energy": -0.02098,
				"method": "rhf"
			},
			{
				"type": "unocc",
				"energy": 0.00645,
				"method": "rhf"
			},
			{
				"type": "unocc",
				"energy": 0.02928,
				"method": "rhf"
			}
		],
		"cosmo_sigma_profile": { 
			"-0.025": 0.0,
			"-0.024": 0.0,
			"-0.023": 0.0,
			"-0.022": 0.0,
			"-0.021": 0.0,
			"-0.02": 0.0,
			"-0.019": 0.0,
			"-0.018": 0.0,
			"-0.017": 0.0,
			"-0.016": 0.0,
			"-0.015": 0.0,
			"-0.014": 0.0,
			"-0.013": 0.0,
			"-0.012": 0.0,
			"-0.011": 0.0,
			"-0.01": 0.0,
			"-0.009": 0.0,
			"-0.008": 0.0,
			"-0.007": 0.0,
			"-0.006": 0.0479395339789,
			"-0.005": 13.9661851442,
			"-0.004": 61.1845697516,
			"-0.003": 99.8314286613,
			"-0.002": 98.4449772765,
			"-0.001": 97.6230659627,
			"0.0": 97.9129576516,
			"0.001": 89.1350479437,
			"0.002": 46.0885657401,
			"0.003": 40.5643303994,
			"0.004": 39.7957401957,
			"0.005": 42.8720250712,
			"0.006": 30.9426446126,
			"0.007": 4.97065931071,
			"0.008": 0.128285271765,
			"0.009": 0.0,
			"0.01": 0.0,
			"0.011": 0.0,
			"0.012": 0.0,
			"0.013": 0.0,
			"0.014": 0.0,
			"0.015": 0.0,
			"0.016": 0.0,
			"0.017": 0.0,
			"0.018": 0.0,
			"0.019": 0.0,
			"0.02": 0.0,
			"0.021": 0.0,
			"0.022": 0.0,
			"0.023": 0.0,
			"0.024": 0.0,
			"0.025": 0.0
		}
	}
}
