{
	 "smiles": "OC(=O)C1=C2CCCCC2=CS1", 
	 "Tm": 477.15, 
	 "num_atms": 22, 
	 "gaussian": { 
		 "optdone": 1, 
		 "sigma_profile": "yes", 
		 "theory": "DFT", 
		 "functional": "B3LYP", 
		 "basiset": "6-31G**", 
		 "properties": { 
			 "R2extent": 2749.4705, 
			 "electric_dipole_moment_norm": 3.37063990809, 
			 "electric_quadrupole_moment_norm": 13.0406443326, 
			 "total_energy": -897.641210343, 
			 "HOMO_LUMO_gap": 0.18564, 
			 "cosmo_polarized_energy": -9.59, 
			 "cosmo_cavitation_energy": 25.9, 
			 "cosmo_dispersion_energy": -20.09, 
			 "cosmo_repulsion_energy": 1.56, 
			 "cosmo_total_nonelectrostatic_energy": 7.36, 
			 "SMD_solvation_energy": 4.75 
		},
		"coords": [
			{
				"x": -1.5414409516,
				"y": -0.7832701143,
				"z": 2.4674301279,
				"element": "O" 
			},
			{
				"x": -0.6869637111,
				"y": 0.2426707608,
				"z": 2.7284209133,
				"element": "C" 
			},
			{
				"x": -0.3744870898,
				"y": 0.5434380536,
				"z": 3.8668413763,
				"element": "O" 
			},
			{
				"x": -0.2053288847,
				"y": 0.9254649308,
				"z": 1.5271071352,
				"element": "C" 
			},
			{
				"x": -0.4413722372,
				"y": 0.6986750116,
				"z": 0.1798092076,
				"element": "C" 
			},
			{
				"x": -1.3297710387,
				"y": -0.3735393157,
				"z": -0.4120873965,
				"element": "C" 
			},
			{
				"x": -1.1049660125,
				"y": -0.5497823896,
				"z": -1.9236621948,
				"element": "C" 
			},
			{
				"x": -1.0409303553,
				"y": 0.8008174527,
				"z": -2.6477700605,
				"element": "C" 
			},
			{
				"x": 0.1684123585,
				"y": 1.613935585,
				"z": -2.1597560553,
				"element": "C" 
			},
			{
				"x": 0.2398765813,
				"y": 1.6500358423,
				"z": -0.6492482967,
				"element": "C" 
			},
			{
				"x": 0.9615160145,
				"y": 2.558256526,
				"z": 0.0873466591,
				"element": "C" 
			},
			{
				"x": 0.8483547621,
				"y": 2.2928480909,
				"z": 1.7838938496,
				"element": "S" 
			},
			{
				"x": -1.7760676731,
				"y": -1.1446411003,
				"z": 3.3384140648,
				"element": "H" 
			},
			{
				"x": -1.1833796272,
				"y": -1.3193843741,
				"z": 0.1152193822,
				"element": "H" 
			},
			{
				"x": -2.3774639254,
				"y": -0.0973312517,
				"z": -0.2287926436,
				"element": "H" 
			},
			{
				"x": -0.1661499911,
				"y": -1.0934657411,
				"z": -2.0962200414,
				"element": "H" 
			},
			{
				"x": -1.9066536782,
				"y": -1.1717982327,
				"z": -2.3366455592,
				"element": "H" 
			},
			{
				"x": -1.9660897069,
				"y": 1.3614727886,
				"z": -2.4578468016,
				"element": "H" 
			},
			{
				"x": -0.9753840957,
				"y": 0.6551461195,
				"z": -3.7315880819,
				"element": "H" 
			},
			{
				"x": 0.1398713239,
				"y": 2.6332227479,
				"z": -2.5615480993,
				"element": "H" 
			},
			{
				"x": 1.0859760294,
				"y": 1.1544286617,
				"z": -2.5544871891,
				"element": "H" 
			},
			{
				"x": 1.5613419089,
				"y": 3.3761999481,
				"z": -0.2910302962,
				"element": "H" 
			}
		],
		 "valence_orbital": [ 
			{
				"type": "occ",
				"energy": -0.32178,
				"method": "rhf"
			},
			{
				"type": "occ",
				"energy": -0.3136,
				"method": "rhf"
			},
			{
				"type": "occ",
				"energy": -0.27421,
				"method": "rhf"
			},
			{
				"type": "occ",
				"energy": -0.24395,
				"method": "rhf"
			},
			{
				"type": "occ",
				"energy": -0.23588,
				"method": "rhf"
			},
			{
				"type": "unocc",
				"energy": -0.05024,
				"method": "rhf"
			},
			{
				"type": "unocc",
				"energy": 0.03247,
				"method": "rhf"
			},
			{
				"type": "unocc",
				"energy": 0.03451,
				"method": "rhf"
			},
			{
				"type": "unocc",
				"energy": 0.07912,
				"method": "rhf"
			},
			{
				"type": "unocc",
				"energy": 0.08614,
				"method": "rhf"
			}
		],
		"cosmo_sigma_profile": { 
			"-0.025": 0.0,
			"-0.024": 0.0,
			"-0.023": 0.0,
			"-0.022": 0.0,
			"-0.021": 0.0,
			"-0.02": 0.0,
			"-0.019": 0.0,
			"-0.018": 0.696743015747,
			"-0.017": 0.828470082403,
			"-0.016": 0.970833883572,
			"-0.015": 0.822797552712,
			"-0.014": 0.844035436246,
			"-0.013": 0.396620936337,
			"-0.012": 0.36020576376,
			"-0.011": 0.538674999,
			"-0.01": 0.963538296113,
			"-0.009": 1.20718802766,
			"-0.008": 2.72518136187,
			"-0.007": 2.79854905833,
			"-0.006": 3.18135751463,
			"-0.005": 3.07579570155,
			"-0.004": 7.78842169975,
			"-0.003": 20.2715725194,
			"-0.002": 26.8527302779,
			"-0.001": 28.0079772997,
			"0.0": 22.3560951467,
			"0.001": 14.4882587888,
			"0.002": 12.9165013538,
			"0.003": 17.9477989409,
			"0.004": 11.9131977308,
			"0.005": 4.49218001914,
			"0.006": 2.89503397379,
			"0.007": 2.468985019,
			"0.008": 2.07680364742,
			"0.009": 1.3107137948,
			"0.01": 1.74461028147,
			"0.011": 3.16240381676,
			"0.012": 5.385424128,
			"0.013": 0.678108338009,
			"0.014": 0.0,
			"0.015": 0.0,
			"0.016": 0.0,
			"0.017": 0.0,
			"0.018": 0.0,
			"0.019": 0.0,
			"0.02": 0.0,
			"0.021": 0.0,
			"0.022": 0.0,
			"0.023": 0.0,
			"0.024": 0.0,
			"0.025": 0.0
		}
	}
}
