{
	 "smiles": "ClC1=CC=C(C(CN2C=CN=C2)OCC2=CSC3=C2C=CC=C3Cl)C(Cl)=C1", 
	 "Tm": 419.15, 
	 "num_atms": 42, 
	 "gaussian": { 
		 "optdone": 1, 
		 "sigma_profile": "yes", 
		 "theory": "DFT", 
		 "functional": "B3LYP", 
		 "basiset": "6-31G**", 
		 "properties": { 
			 "R2extent": 17689.6383, 
			 "electric_dipole_moment_norm": 5.94361890266, 
			 "electric_quadrupole_moment_norm": 21.4460514044, 
			 "total_energy": -2734.63674654, 
			 "HOMO_LUMO_gap": 0.17578, 
			 "cosmo_polarized_energy": -19.6, 
			 "cosmo_cavitation_energy": 53.91, 
			 "cosmo_dispersion_energy": -36.57, 
			 "cosmo_repulsion_energy": 2.72, 
			 "cosmo_total_nonelectrostatic_energy": 20.07, 
			 "SMD_solvation_energy": 6.48 
		},
		"coords": [
			{
				"x": -3.0846565831,
				"y": -4.1863964723,
				"z": -4.1465990549,
				"element": "Cl" 
			},
			{
				"x": -2.0543258448,
				"y": -3.2562287964,
				"z": -3.0780039559,
				"element": "C" 
			},
			{
				"x": -0.7551838717,
				"y": -2.9406748598,
				"z": -3.4681965298,
				"element": "C" 
			},
			{
				"x": 0.0372210308,
				"y": -2.1949747781,
				"z": -2.5990900865,
				"element": "C" 
			},
			{
				"x": -0.4156463145,
				"y": -1.7558810832,
				"z": -1.3460951397,
				"element": "C" 
			},
			{
				"x": 0.5488791891,
				"y": -0.9630069109,
				"z": -0.4672424099,
				"element": "C" 
			},
			{
				"x": 1.0041957621,
				"y": -1.7377071432,
				"z": 0.7848113755,
				"element": "C" 
			},
			{
				"x": 2.1824062383,
				"y": -1.149523699,
				"z": 1.3999269,
				"element": "N" 
			},
			{
				"x": 3.4904446369,
				"y": -1.5772443087,
				"z": 1.2465278929,
				"element": "C" 
			},
			{
				"x": 4.2555217192,
				"y": -0.6882410955,
				"z": 1.9582182678,
				"element": "C" 
			},
			{
				"x": 3.4640892899,
				"y": 0.2767759917,
				"z": 2.5406424847,
				"element": "N" 
			},
			{
				"x": 2.2343104421,
				"y": -0.0261138011,
				"z": 2.1843177749,
				"element": "C" 
			},
			{
				"x": 0.0150832431,
				"y": 0.2702139717,
				"z": -0.0138296838,
				"element": "O" 
			},
			{
				"x": -0.0059532393,
				"y": 1.2951579773,
				"z": -0.9968019134,
				"element": "C" 
			},
			{
				"x": -0.7190560706,
				"y": 2.4983984989,
				"z": -0.4506757681,
				"element": "C" 
			},
			{
				"x": -1.4073059292,
				"y": 2.5254620952,
				"z": 0.7202765443,
				"element": "C" 
			},
			{
				"x": -2.1436824756,
				"y": 4.0712547824,
				"z": 1.073346091,
				"element": "S" 
			},
			{
				"x": -1.5111882875,
				"y": 4.7321076426,
				"z": -0.4186434442,
				"element": "C" 
			},
			{
				"x": -0.7598357604,
				"y": 3.769833059,
				"z": -1.141218238,
				"element": "C" 
			},
			{
				"x": -0.1771524903,
				"y": 4.1340789586,
				"z": -2.3686824709,
				"element": "C" 
			},
			{
				"x": -0.3452059236,
				"y": 5.425092091,
				"z": -2.8509420061,
				"element": "C" 
			},
			{
				"x": -1.0892973495,
				"y": 6.3765172983,
				"z": -2.133701288,
				"element": "C" 
			},
			{
				"x": -1.6691221258,
				"y": 6.0272833773,
				"z": -0.9206338724,
				"element": "C" 
			},
			{
				"x": -2.6003636824,
				"y": 7.2077932558,
				"z": -0.0171725218,
				"element": "Cl" 
			},
			{
				"x": -1.7318114023,
				"y": -2.1007939626,
				"z": -0.9930667538,
				"element": "C" 
			},
			{
				"x": -2.4366145717,
				"y": -1.6293782007,
				"z": 0.5480887602,
				"element": "Cl" 
			},
			{
				"x": -2.5527346052,
				"y": -2.8407048863,
				"z": -1.845152752,
				"element": "C" 
			},
			{
				"x": -0.3761801595,
				"y": -3.2640225891,
				"z": -4.4307238337,
				"element": "H" 
			},
			{
				"x": 1.0489460769,
				"y": -1.9393070912,
				"z": -2.9031670892,
				"element": "H" 
			},
			{
				"x": 1.4500569329,
				"y": -0.7704928657,
				"z": -1.0699233584,
				"element": "H" 
			},
			{
				"x": 1.2402141758,
				"y": -2.7687518393,
				"z": 0.5103645704,
				"element": "H" 
			},
			{
				"x": 0.1887374896,
				"y": -1.7611227969,
				"z": 1.5104184305,
				"element": "H" 
			},
			{
				"x": 3.7353367966,
				"y": -2.4612764858,
				"z": 0.6768737414,
				"element": "H" 
			},
			{
				"x": 5.3287455128,
				"y": -0.6938182936,
				"z": 2.0913191761,
				"element": "H" 
			},
			{
				"x": 1.3412943559,
				"y": 0.5242731414,
				"z": 2.4432772392,
				"element": "H" 
			},
			{
				"x": 1.0258555271,
				"y": 1.5609072325,
				"z": -1.2825764243,
				"element": "H" 
			},
			{
				"x": -0.5123621855,
				"y": 0.9423068694,
				"z": -1.9100218092,
				"element": "H" 
			},
			{
				"x": -1.5315023577,
				"y": 1.7043878009,
				"z": 1.4111912295,
				"element": "H" 
			},
			{
				"x": 0.4014690417,
				"y": 3.411810308,
				"z": -2.9366830082,
				"element": "H" 
			},
			{
				"x": 0.102850875,
				"y": 5.7124475479,
				"z": -3.7970864499,
				"element": "H" 
			},
			{
				"x": -1.2162649541,
				"y": 7.3829164746,
				"z": -2.5165098992,
				"element": "H" 
			},
			{
				"x": -3.5636121515,
				"y": -3.0888564153,
				"z": -1.546160717,
				"element": "H" 
			}
		],
		 "valence_orbital": [ 
			{
				"type": "occ",
				"energy": -0.26138,
				"method": "rhf"
			},
			{
				"type": "occ",
				"energy": -0.25812,
				"method": "rhf"
			},
			{
				"type": "occ",
				"energy": -0.24628,
				"method": "rhf"
			},
			{
				"type": "occ",
				"energy": -0.22311,
				"method": "rhf"
			},
			{
				"type": "occ",
				"energy": -0.22224,
				"method": "rhf"
			},
			{
				"type": "unocc",
				"energy": -0.04646,
				"method": "rhf"
			},
			{
				"type": "unocc",
				"energy": -0.04237,
				"method": "rhf"
			},
			{
				"type": "unocc",
				"energy": -0.03558,
				"method": "rhf"
			},
			{
				"type": "unocc",
				"energy": -0.01308,
				"method": "rhf"
			},
			{
				"type": "unocc",
				"energy": -0.0071,
				"method": "rhf"
			}
		],
		"cosmo_sigma_profile": { 
			"-0.025": 0.0,
			"-0.024": 0.0,
			"-0.023": 0.0,
			"-0.022": 0.0,
			"-0.021": 0.0,
			"-0.02": 0.0,
			"-0.019": 0.0,
			"-0.018": 0.0,
			"-0.017": 0.0,
			"-0.016": 0.0,
			"-0.015": 0.0,
			"-0.014": 0.0,
			"-0.013": 0.0,
			"-0.012": 0.0,
			"-0.011": 0.0,
			"-0.01": 0.0,
			"-0.009": 1.55868615039,
			"-0.008": 11.6707559078,
			"-0.007": 19.677544823,
			"-0.006": 26.5975215547,
			"-0.005": 26.6792032666,
			"-0.004": 24.4994246636,
			"-0.003": 22.6121664029,
			"-0.002": 23.9852680087,
			"-0.001": 25.1199091597,
			"0.0": 33.40885072,
			"0.001": 46.5101466654,
			"0.002": 50.9951447277,
			"0.003": 48.2289000829,
			"0.004": 43.705919863,
			"0.005": 12.8602276057,
			"0.006": 5.57173139703,
			"0.007": 2.5429131288,
			"0.008": 1.71293882048,
			"0.009": 1.64383159879,
			"0.01": 2.36671423406,
			"0.011": 0.556721909498,
			"0.012": 1.2449028218,
			"0.013": 1.49247996275,
			"0.014": 1.35248744868,
			"0.015": 1.51574160496,
			"0.016": 0.807494944159,
			"0.017": 1.18544516552,
			"0.018": 1.06843143029,
			"0.019": 0.171986327444,
			"0.02": 0.0,
			"0.021": 0.0,
			"0.022": 0.0,
			"0.023": 0.0,
			"0.024": 0.0,
			"0.025": 0.0
		}
	}
}
