{
	 "smiles": "CC1=C(SC(=N1)C1=CC=CC=C1)N=C=O", 
	 "Tm": 355.65, 
	 "num_atms": 23, 
	 "gaussian": { 
		 "optdone": 1, 
		 "sigma_profile": "yes", 
		 "theory": "DFT", 
		 "functional": "B3LYP", 
		 "basiset": "6-31G**", 
		 "properties": { 
			 "R2extent": 4999.2061, 
			 "electric_dipole_moment_norm": 2.0996949707, 
			 "electric_quadrupole_moment_norm": 9.31757409361, 
			 "total_energy": -1006.90540187, 
			 "HOMO_LUMO_gap": 0.15421, 
			 "cosmo_polarized_energy": -6.57, 
			 "cosmo_cavitation_energy": 30.35, 
			 "cosmo_dispersion_energy": -22.49, 
			 "cosmo_repulsion_energy": 1.71, 
			 "cosmo_total_nonelectrostatic_energy": 9.57, 
			 "SMD_solvation_energy": 5.89 
		},
		"coords": [
			{
				"x": -1.0022572338,
				"y": -2.0266774553,
				"z": 0.0425555648,
				"element": "C" 
			},
			{
				"x": -0.6632960376,
				"y": -0.5670545055,
				"z": 0.0784045201,
				"element": "C" 
			},
			{
				"x": -1.5461105199,
				"y": 0.4731716515,
				"z": 0.2772486323,
				"element": "C" 
			},
			{
				"x": -0.7070580539,
				"y": 2.0090043451,
				"z": 0.2407466801,
				"element": "S" 
			},
			{
				"x": 0.795406212,
				"y": 1.1243764579,
				"z": -0.0443725394,
				"element": "C" 
			},
			{
				"x": 0.6380630277,
				"y": -0.1725998508,
				"z": -0.0983718069,
				"element": "N" 
			},
			{
				"x": 2.0879715574,
				"y": 1.8019994676,
				"z": -0.2027562839,
				"element": "C" 
			},
			{
				"x": 3.2401463125,
				"y": 1.0261170644,
				"z": -0.4253102703,
				"element": "C" 
			},
			{
				"x": 4.480334498,
				"y": 1.6379416165,
				"z": -0.5795133488,
				"element": "C" 
			},
			{
				"x": 4.5949257637,
				"y": 3.0295014697,
				"z": -0.5150281904,
				"element": "C" 
			},
			{
				"x": 3.4561313821,
				"y": 3.8069199236,
				"z": -0.2944806229,
				"element": "C" 
			},
			{
				"x": 2.2121019692,
				"y": 3.1995216344,
				"z": -0.1394327564,
				"element": "C" 
			},
			{
				"x": -2.902330588,
				"y": 0.4581164723,
				"z": 0.4853596299,
				"element": "N" 
			},
			{
				"x": -3.8687336545,
				"y": -0.2575997365,
				"z": 0.5913657358,
				"element": "C" 
			},
			{
				"x": -4.8825029842,
				"y": -0.8471579678,
				"z": 0.7122405949,
				"element": "O" 
			},
			{
				"x": -0.7192217913,
				"y": -2.4612144652,
				"z": -0.9219025831,
				"element": "H" 
			},
			{
				"x": -0.4487079697,
				"y": -2.5666444806,
				"z": 0.8178636294,
				"element": "H" 
			},
			{
				"x": -2.0685141028,
				"y": -2.2072204299,
				"z": 0.1973955139,
				"element": "H" 
			},
			{
				"x": 3.1381145193,
				"y": -0.0522382461,
				"z": -0.473245018,
				"element": "H" 
			},
			{
				"x": 5.3620429448,
				"y": 1.0271523444,
				"z": -0.7507984618,
				"element": "H" 
			},
			{
				"x": 5.5641586103,
				"y": 3.5043096758,
				"z": -0.6357483091,
				"element": "H" 
			},
			{
				"x": 3.5355042655,
				"y": 4.8887513585,
				"z": -0.2429337319,
				"element": "H" 
			},
			{
				"x": 1.3357318733,
				"y": 3.819123656,
				"z": 0.0314134219,
				"element": "H" 
			}
		],
		 "valence_orbital": [ 
			{
				"type": "occ",
				"energy": -0.28169,
				"method": "rhf"
			},
			{
				"type": "occ",
				"energy": -0.27567,
				"method": "rhf"
			},
			{
				"type": "occ",
				"energy": -0.27431,
				"method": "rhf"
			},
			{
				"type": "occ",
				"energy": -0.25898,
				"method": "rhf"
			},
			{
				"type": "occ",
				"energy": -0.21521,
				"method": "rhf"
			},
			{
				"type": "unocc",
				"energy": -0.061,
				"method": "rhf"
			},
			{
				"type": "unocc",
				"energy": -0.00993,
				"method": "rhf"
			},
			{
				"type": "unocc",
				"energy": 0.00086,
				"method": "rhf"
			},
			{
				"type": "unocc",
				"energy": 0.00656,
				"method": "rhf"
			},
			{
				"type": "unocc",
				"energy": 0.0102,
				"method": "rhf"
			}
		],
		"cosmo_sigma_profile": { 
			"-0.025": 0.0,
			"-0.024": 0.0,
			"-0.023": 0.0,
			"-0.022": 0.0,
			"-0.021": 0.0,
			"-0.02": 0.0,
			"-0.019": 0.0,
			"-0.018": 0.0,
			"-0.017": 0.0,
			"-0.016": 0.0,
			"-0.015": 0.0,
			"-0.014": 0.0,
			"-0.013": 0.0,
			"-0.012": 0.0,
			"-0.011": 0.0,
			"-0.01": 0.0,
			"-0.009": 0.0,
			"-0.008": 0.035459634289,
			"-0.007": 2.28597896898,
			"-0.006": 12.2343625383,
			"-0.005": 17.6715179302,
			"-0.004": 20.1488239434,
			"-0.003": 19.1458746319,
			"-0.002": 20.4871635275,
			"-0.001": 23.7545464128,
			"0.0": 24.8210642649,
			"0.001": 24.378460404,
			"0.002": 19.2574298471,
			"0.003": 17.2425832831,
			"0.004": 16.1127349653,
			"0.005": 10.7555385502,
			"0.006": 4.1714547451,
			"0.007": 8.97514824235,
			"0.008": 2.82255710837,
			"0.009": 1.04917861134,
			"0.01": 1.16930899711,
			"0.011": 1.04729666581,
			"0.012": 0.165352415893,
			"0.013": 0.0,
			"0.014": 0.0,
			"0.015": 0.0,
			"0.016": 0.0,
			"0.017": 0.0,
			"0.018": 0.0,
			"0.019": 0.0,
			"0.02": 0.0,
			"0.021": 0.0,
			"0.022": 0.0,
			"0.023": 0.0,
			"0.024": 0.0,
			"0.025": 0.0
		}
	}
}
