{
	 "smiles": "CCOC(=O)CC(=O)C1=CC(OC)=C(OC)C(OC)=C1", 
	 "Tm": 361.65, 
	 "num_atms": 38, 
	 "gaussian": { 
		 "optdone": 1, 
		 "sigma_profile": "yes", 
		 "theory": "DFT", 
		 "functional": "B3LYP", 
		 "basiset": "6-31G**", 
		 "properties": { 
			 "R2extent": 7434.0309, 
			 "electric_dipole_moment_norm": 3.00441074089, 
			 "electric_quadrupole_moment_norm": 15.4861680719, 
			 "total_energy": -995.643849745, 
			 "HOMO_LUMO_gap": 0.17821, 
			 "cosmo_polarized_energy": -13.91, 
			 "cosmo_cavitation_energy": 42.29, 
			 "cosmo_dispersion_energy": -28.49, 
			 "cosmo_repulsion_energy": 2.27, 
			 "cosmo_total_nonelectrostatic_energy": 16.07, 
			 "SMD_solvation_energy": 11.1 
		},
		"coords": [
			{
				"x": -2.5421954338,
				"y": 3.551954177,
				"z": 4.4526664398,
				"element": "C" 
			},
			{
				"x": -1.2986498694,
				"y": 3.1291781383,
				"z": 3.6858849793,
				"element": "C" 
			},
			{
				"x": -1.471796015,
				"y": 3.3181787447,
				"z": 2.2585082476,
				"element": "O" 
			},
			{
				"x": -2.0620560896,
				"y": 2.3157664633,
				"z": 1.5814511898,
				"element": "C" 
			},
			{
				"x": -2.4574464,
				"y": 1.2853185328,
				"z": 2.0877126461,
				"element": "O" 
			},
			{
				"x": -2.1476672345,
				"y": 2.6469796651,
				"z": 0.0993231193,
				"element": "C" 
			},
			{
				"x": -0.7843040219,
				"y": 2.565288744,
				"z": -0.6158423424,
				"element": "C" 
			},
			{
				"x": -0.2338262399,
				"y": 3.5937985909,
				"z": -0.9710535235,
				"element": "O" 
			},
			{
				"x": -0.1825013743,
				"y": 1.2245989941,
				"z": -0.88092027,
				"element": "C" 
			},
			{
				"x": -0.7775360305,
				"y": 0.0268923526,
				"z": -0.4554638679,
				"element": "C" 
			},
			{
				"x": -0.1710952603,
				"y": -1.1932440592,
				"z": -0.7491898777,
				"element": "C" 
			},
			{
				"x": -0.797827459,
				"y": -2.3596052703,
				"z": -0.3744752322,
				"element": "O" 
			},
			{
				"x": -0.1568464677,
				"y": -3.0751480884,
				"z": 0.6887311147,
				"element": "C" 
			},
			{
				"x": 1.0320720236,
				"y": -1.2345922885,
				"z": -1.4768533878,
				"element": "C" 
			},
			{
				"x": 1.6352527601,
				"y": -2.4311965553,
				"z": -1.774599079,
				"element": "O" 
			},
			{
				"x": 0.9970385106,
				"y": -3.1733554068,
				"z": -2.826080916,
				"element": "C" 
			},
			{
				"x": 1.6365481915,
				"y": -0.0290726695,
				"z": -1.8881583229,
				"element": "C" 
			},
			{
				"x": 2.7744336328,
				"y": -0.0326811221,
				"z": -2.6538850847,
				"element": "O" 
			},
			{
				"x": 3.9628128662,
				"y": -0.4983093212,
				"z": -2.0059217997,
				"element": "C" 
			},
			{
				"x": 1.0312655674,
				"y": 1.1858902567,
				"z": -1.5844539388,
				"element": "C" 
			},
			{
				"x": -3.3868252492,
				"y": 2.9051089948,
				"z": 4.2030143074,
				"element": "H" 
			},
			{
				"x": -2.3575569747,
				"y": 3.4745745475,
				"z": 5.5292914325,
				"element": "H" 
			},
			{
				"x": -2.8075863704,
				"y": 4.5881023423,
				"z": 4.2235273847,
				"element": "H" 
			},
			{
				"x": -1.0544701065,
				"y": 2.0811144747,
				"z": 3.8744355968,
				"element": "H" 
			},
			{
				"x": -0.4394622473,
				"y": 3.7552669756,
				"z": 3.9365201552,
				"element": "H" 
			},
			{
				"x": -2.4864527479,
				"y": 3.6774714092,
				"z": -0.0187679935,
				"element": "H" 
			},
			{
				"x": -2.8665056739,
				"y": 1.961351429,
				"z": -0.3536766884,
				"element": "H" 
			},
			{
				"x": -1.6960679689,
				"y": 0.0107339624,
				"z": 0.1198437587,
				"element": "H" 
			},
			{
				"x": -0.7654635652,
				"y": -3.9635281024,
				"z": 0.868363445,
				"element": "H" 
			},
			{
				"x": 0.8589218289,
				"y": -3.3738308423,
				"z": 0.4111063995,
				"element": "H" 
			},
			{
				"x": -0.1266373419,
				"y": -2.4674058915,
				"z": 1.6014250487,
				"element": "H" 
			},
			{
				"x": 1.0198688307,
				"y": -2.6068646025,
				"z": -3.7637794933,
				"element": "H" 
			},
			{
				"x": 1.574061687,
				"y": -4.0926278764,
				"z": -2.9424290508,
				"element": "H" 
			},
			{
				"x": -0.0363045107,
				"y": -3.4151272748,
				"z": -2.5601138317,
				"element": "H" 
			},
			{
				"x": 4.7620890821,
				"y": -0.4152775829,
				"z": -2.7450728662,
				"element": "H" 
			},
			{
				"x": 3.8625174049,
				"y": -1.5397103666,
				"z": -1.6873963975,
				"element": "H" 
			},
			{
				"x": 4.2063235552,
				"y": 0.1314534222,
				"z": -1.1405930542,
				"element": "H" 
			},
			{
				"x": 1.4888747116,
				"y": 2.1114551033,
				"z": -1.9139782467,
				"element": "H" 
			}
		],
		 "valence_orbital": [ 
			{
				"type": "occ",
				"energy": -0.28075,
				"method": "rhf"
			},
			{
				"type": "occ",
				"energy": -0.26713,
				"method": "rhf"
			},
			{
				"type": "occ",
				"energy": -0.24943,
				"method": "rhf"
			},
			{
				"type": "occ",
				"energy": -0.23912,
				"method": "rhf"
			},
			{
				"type": "occ",
				"energy": -0.23721,
				"method": "rhf"
			},
			{
				"type": "unocc",
				"energy": -0.059,
				"method": "rhf"
			},
			{
				"type": "unocc",
				"energy": -0.00188,
				"method": "rhf"
			},
			{
				"type": "unocc",
				"energy": 0.00457,
				"method": "rhf"
			},
			{
				"type": "unocc",
				"energy": 0.04106,
				"method": "rhf"
			},
			{
				"type": "unocc",
				"energy": 0.07366,
				"method": "rhf"
			}
		],
		"cosmo_sigma_profile": { 
			"-0.025": 0.0,
			"-0.024": 0.0,
			"-0.023": 0.0,
			"-0.022": 0.0,
			"-0.021": 0.0,
			"-0.02": 0.0,
			"-0.019": 0.0,
			"-0.018": 0.0,
			"-0.017": 0.0,
			"-0.016": 0.0,
			"-0.015": 0.0,
			"-0.014": 0.0,
			"-0.013": 0.0,
			"-0.012": 0.0,
			"-0.011": 0.0,
			"-0.01": 0.0,
			"-0.009": 0.0,
			"-0.008": 0.950944544109,
			"-0.007": 4.0623260159,
			"-0.006": 11.7819283019,
			"-0.005": 23.8946113245,
			"-0.004": 37.6349879215,
			"-0.003": 44.7858944976,
			"-0.002": 36.8061904842,
			"-0.001": 26.428554293,
			"0.0": 25.9695832881,
			"0.001": 21.4199548278,
			"0.002": 20.9682426394,
			"0.003": 11.7171158375,
			"0.004": 10.2361568388,
			"0.005": 9.5818634834,
			"0.006": 7.94302332844,
			"0.007": 7.20721822102,
			"0.008": 6.40193815264,
			"0.009": 6.25797311562,
			"0.01": 6.39913618324,
			"0.011": 9.99275784106,
			"0.012": 3.65030738242,
			"0.013": 0.171440259665,
			"0.014": 0.0,
			"0.015": 0.0,
			"0.016": 0.0,
			"0.017": 0.0,
			"0.018": 0.0,
			"0.019": 0.0,
			"0.02": 0.0,
			"0.021": 0.0,
			"0.022": 0.0,
			"0.023": 0.0,
			"0.024": 0.0,
			"0.025": 0.0
		}
	}
}
