{
	 "smiles": "CCOC1=CC=C(C=C1)S(Cl)(=O)=O", 
	 "Tm": 315.65, 
	 "num_atms": 22, 
	 "gaussian": { 
		 "optdone": 1, 
		 "sigma_profile": "yes", 
		 "theory": "DFT", 
		 "functional": "B3LYP", 
		 "basiset": "6-31G**", 
		 "properties": { 
			 "R2extent": 6602.0442, 
			 "electric_dipole_moment_norm": 7.32933009899, 
			 "electric_quadrupole_moment_norm": 20.1596867369, 
			 "total_energy": -1394.25741873, 
			 "HOMO_LUMO_gap": 0.17245, 
			 "cosmo_polarized_energy": -10.97, 
			 "cosmo_cavitation_energy": 29.64, 
			 "cosmo_dispersion_energy": -22.25, 
			 "cosmo_repulsion_energy": 1.74, 
			 "cosmo_total_nonelectrostatic_energy": 9.13, 
			 "SMD_solvation_energy": 4.2 
		},
		"coords": [
			{
				"x": 1.374098827,
				"y": -2.9876271947,
				"z": -1.263910949,
				"element": "C" 
			},
			{
				"x": 0.9836955784,
				"y": -1.5779734282,
				"z": -0.8598331343,
				"element": "C" 
			},
			{
				"x": -0.4050872756,
				"y": -1.6026831923,
				"z": -0.5014986362,
				"element": "O" 
			},
			{
				"x": -1.0062169962,
				"y": -0.4619463097,
				"z": -0.0974250596,
				"element": "C" 
			},
			{
				"x": -2.3699069969,
				"y": -0.5810664035,
				"z": 0.2344915907,
				"element": "C" 
			},
			{
				"x": -3.0852118692,
				"y": 0.5242732148,
				"z": 0.6619766647,
				"element": "C" 
			},
			{
				"x": -2.4316016818,
				"y": 1.7601728314,
				"z": 0.7529502434,
				"element": "C" 
			},
			{
				"x": -1.0822748834,
				"y": 1.8979902321,
				"z": 0.4305190838,
				"element": "C" 
			},
			{
				"x": -0.3651852896,
				"y": 0.7844903795,
				"z": 0.0000186482,
				"element": "C" 
			},
			{
				"x": -3.3410707103,
				"y": 3.184805834,
				"z": 1.2890091235,
				"element": "S" 
			},
			{
				"x": -3.0895741999,
				"y": 3.09620437,
				"z": 3.4174970707,
				"element": "Cl" 
			},
			{
				"x": -2.6507096483,
				"y": 4.3961713828,
				"z": 0.8610432003,
				"element": "O" 
			},
			{
				"x": -4.7644698331,
				"y": 2.9735589875,
				"z": 1.0525298111,
				"element": "O" 
			},
			{
				"x": 0.7780421128,
				"y": -3.3242376123,
				"z": -2.1164170053,
				"element": "H" 
			},
			{
				"x": 1.2182039088,
				"y": -3.6840609589,
				"z": -0.4356466889,
				"element": "H" 
			},
			{
				"x": 2.4306678108,
				"y": -3.0149078291,
				"z": -1.546442406,
				"element": "H" 
			},
			{
				"x": 1.1365817434,
				"y": -0.8730251515,
				"z": -1.6878077551,
				"element": "H" 
			},
			{
				"x": 1.5777680441,
				"y": -1.2337202814,
				"z": -0.0028826434,
				"element": "H" 
			},
			{
				"x": -2.8400496667,
				"y": -1.5540276576,
				"z": 0.1428644388,
				"element": "H" 
			},
			{
				"x": -4.1371007714,
				"y": 0.4442077289,
				"z": 0.9120780599,
				"element": "H" 
			},
			{
				"x": -0.6023175365,
				"y": 2.8674359293,
				"z": 0.5045513901,
				"element": "H" 
			},
			{
				"x": 0.6803193336,
				"y": 0.8963651289,
				"z": -0.2578650474,
				"element": "H" 
			}
		],
		 "valence_orbital": [ 
			{
				"type": "occ",
				"energy": -0.32875,
				"method": "rhf"
			},
			{
				"type": "occ",
				"energy": -0.31965,
				"method": "rhf"
			},
			{
				"type": "occ",
				"energy": -0.3051,
				"method": "rhf"
			},
			{
				"type": "occ",
				"energy": -0.28628,
				"method": "rhf"
			},
			{
				"type": "occ",
				"energy": -0.25471,
				"method": "rhf"
			},
			{
				"type": "unocc",
				"energy": -0.08226,
				"method": "rhf"
			},
			{
				"type": "unocc",
				"energy": -0.03467,
				"method": "rhf"
			},
			{
				"type": "unocc",
				"energy": -0.02924,
				"method": "rhf"
			},
			{
				"type": "unocc",
				"energy": 0.0592,
				"method": "rhf"
			},
			{
				"type": "unocc",
				"energy": 0.07765,
				"method": "rhf"
			}
		],
		"cosmo_sigma_profile": { 
			"-0.025": 0.0,
			"-0.024": 0.0,
			"-0.023": 0.0,
			"-0.022": 0.0,
			"-0.021": 0.0,
			"-0.02": 0.0,
			"-0.019": 0.0,
			"-0.018": 0.0,
			"-0.017": 0.0,
			"-0.016": 0.0,
			"-0.015": 0.0,
			"-0.014": 0.0,
			"-0.013": 0.0,
			"-0.012": 0.0,
			"-0.011": 0.0,
			"-0.01": 0.0,
			"-0.009": 0.409852846796,
			"-0.008": 5.0755464012,
			"-0.007": 9.0470175132,
			"-0.006": 11.9421557403,
			"-0.005": 15.0211472879,
			"-0.004": 17.5692619353,
			"-0.003": 17.3441497183,
			"-0.002": 15.4218058106,
			"-0.001": 18.594867474,
			"0.0": 21.6419338589,
			"0.001": 24.093252066,
			"0.002": 17.430750747,
			"0.003": 13.5748139367,
			"0.004": 15.7646884193,
			"0.005": 6.75677589946,
			"0.006": 4.66609692114,
			"0.007": 5.95913387682,
			"0.008": 10.8963827646,
			"0.009": 7.39225902513,
			"0.01": 0.352877529359,
			"0.011": 0.0,
			"0.012": 0.0,
			"0.013": 0.0,
			"0.014": 0.0,
			"0.015": 0.0,
			"0.016": 0.0,
			"0.017": 0.0,
			"0.018": 0.0,
			"0.019": 0.0,
			"0.02": 0.0,
			"0.021": 0.0,
			"0.022": 0.0,
			"0.023": 0.0,
			"0.024": 0.0,
			"0.025": 0.0
		}
	}
}
