{
	 "smiles": "CC(C(O)=O)C1=CC=C(C=C1)C1CCCC(C1)=NO", 
	 "Tm": 451.15, 
	 "num_atms": 38, 
	 "gaussian": { 
		 "optdone": 1, 
		 "sigma_profile": "yes", 
		 "theory": "DFT", 
		 "functional": "B3LYP", 
		 "basiset": "6-31G**", 
		 "properties": { 
			 "R2extent": 7608.1981, 
			 "electric_dipole_moment_norm": 2.11865628642, 
			 "electric_quadrupole_moment_norm": 3.81357254946, 
			 "total_energy": -863.450544856, 
			 "HOMO_LUMO_gap": 0.22241, 
			 "cosmo_polarized_energy": -15.23, 
			 "cosmo_cavitation_energy": 39.44, 
			 "cosmo_dispersion_energy": -27.49, 
			 "cosmo_repulsion_energy": 2.15, 
			 "cosmo_total_nonelectrostatic_energy": 14.1, 
			 "SMD_solvation_energy": 7.0 
		},
		"coords": [
			{
				"x": -2.460484346,
				"y": -2.0250714406,
				"z": -3.5136235224,
				"element": "C" 
			},
			{
				"x": -1.0495927012,
				"y": -2.6370025237,
				"z": -3.4922631355,
				"element": "C" 
			},
			{
				"x": -0.3695245965,
				"y": -2.4476701835,
				"z": -4.8414455065,
				"element": "C" 
			},
			{
				"x": 0.4740737404,
				"y": -3.4663406178,
				"z": -5.1306818695,
				"element": "O" 
			},
			{
				"x": -0.5216582462,
				"y": -1.4990735251,
				"z": -5.5817948834,
				"element": "O" 
			},
			{
				"x": -0.1746554152,
				"y": -2.0354362181,
				"z": -2.3937558688,
				"element": "C" 
			},
			{
				"x": 0.1901131564,
				"y": -2.7962835161,
				"z": -1.2765862717,
				"element": "C" 
			},
			{
				"x": 0.9551934375,
				"y": -2.2385556285,
				"z": -0.255631031,
				"element": "C" 
			},
			{
				"x": 1.3892942108,
				"y": -0.9041054322,
				"z": -0.3080004824,
				"element": "C" 
			},
			{
				"x": 1.0370005328,
				"y": -0.1523745973,
				"z": -1.4374853153,
				"element": "C" 
			},
			{
				"x": 0.2660690465,
				"y": -0.7096130536,
				"z": -2.4605926671,
				"element": "C" 
			},
			{
				"x": 2.2321736046,
				"y": -0.3636405126,
				"z": 0.8473691187,
				"element": "C" 
			},
			{
				"x": 1.4380614175,
				"y": -0.3257345833,
				"z": 2.1803635582,
				"element": "C" 
			},
			{
				"x": 0.3997505217,
				"y": 0.8032689125,
				"z": 2.2132470588,
				"element": "C" 
			},
			{
				"x": 1.0691801326,
				"y": 2.174078492,
				"z": 1.9975425868,
				"element": "C" 
			},
			{
				"x": 1.902700599,
				"y": 2.1636475441,
				"z": 0.7399719834,
				"element": "C" 
			},
			{
				"x": 2.880253982,
				"y": 1.0207258658,
				"z": 0.5867391985,
				"element": "C" 
			},
			{
				"x": 1.7021888547,
				"y": 3.12112678,
				"z": -0.0878749263,
				"element": "N" 
			},
			{
				"x": 2.5167874413,
				"y": 3.0130084058,
				"z": -1.2428437957,
				"element": "O" 
			},
			{
				"x": -2.4132283695,
				"y": -0.9608276984,
				"z": -3.754484188,
				"element": "H" 
			},
			{
				"x": -3.0883299005,
				"y": -2.5129511917,
				"z": -4.2659206417,
				"element": "H" 
			},
			{
				"x": -2.9345839997,
				"y": -2.1425936367,
				"z": -2.5354766493,
				"element": "H" 
			},
			{
				"x": -1.1175573218,
				"y": -3.7148838098,
				"z": -3.3139917755,
				"element": "H" 
			},
			{
				"x": 0.8918799692,
				"y": -3.2374659985,
				"z": -5.9783905397,
				"element": "H" 
			},
			{
				"x": -0.1234653023,
				"y": -3.835118096,
				"z": -1.207074999,
				"element": "H" 
			},
			{
				"x": 1.2309023522,
				"y": -2.8583948229,
				"z": 0.5946355999,
				"element": "H" 
			},
			{
				"x": 1.3739859637,
				"y": 0.8726795277,
				"z": -1.5466049596,
				"element": "H" 
			},
			{
				"x": 0.0167801528,
				"y": -0.1059428749,
				"z": -3.3288414629,
				"element": "H" 
			},
			{
				"x": 3.0576611182,
				"y": -1.0748713073,
				"z": 0.9862649122,
				"element": "H" 
			},
			{
				"x": 2.1510287853,
				"y": -0.183892495,
				"z": 3.004846518,
				"element": "H" 
			},
			{
				"x": 0.9516199362,
				"y": -1.291747385,
				"z": 2.3513790865,
				"element": "H" 
			},
			{
				"x": -0.3494278751,
				"y": 0.6375015302,
				"z": 1.4295927163,
				"element": "H" 
			},
			{
				"x": -0.1332829638,
				"y": 0.7980377523,
				"z": 3.1708096843,
				"element": "H" 
			},
			{
				"x": 0.3350147665,
				"y": 2.9821278761,
				"z": 1.9397913279,
				"element": "H" 
			},
			{
				"x": 1.7261796412,
				"y": 2.3854453502,
				"z": 2.8549312474,
				"element": "H" 
			},
			{
				"x": 3.3694862982,
				"y": 1.0570623128,
				"z": -0.3867278743,
				"element": "H" 
			},
			{
				"x": 3.6633216987,
				"y": 1.1629532888,
				"z": 1.3450578601,
				"element": "H" 
			},
			{
				"x": 2.2100896781,
				"y": 3.7636275102,
				"z": -1.7678500915,
				"element": "H" 
			}
		],
		 "valence_orbital": [ 
			{
				"type": "occ",
				"energy": -0.27311,
				"method": "rhf"
			},
			{
				"type": "occ",
				"energy": -0.2643,
				"method": "rhf"
			},
			{
				"type": "occ",
				"energy": -0.24913,
				"method": "rhf"
			},
			{
				"type": "occ",
				"energy": -0.2422,
				"method": "rhf"
			},
			{
				"type": "occ",
				"energy": -0.23215,
				"method": "rhf"
			},
			{
				"type": "unocc",
				"energy": -0.00974,
				"method": "rhf"
			},
			{
				"type": "unocc",
				"energy": -0.00325,
				"method": "rhf"
			},
			{
				"type": "unocc",
				"energy": 0.01267,
				"method": "rhf"
			},
			{
				"type": "unocc",
				"energy": 0.02295,
				"method": "rhf"
			},
			{
				"type": "unocc",
				"energy": 0.07828,
				"method": "rhf"
			}
		],
		"cosmo_sigma_profile": { 
			"-0.025": 0.0,
			"-0.024": 0.0,
			"-0.023": 0.0,
			"-0.022": 0.0,
			"-0.021": 0.0,
			"-0.02": 0.0,
			"-0.019": 0.0201841673291,
			"-0.018": 0.753976417082,
			"-0.017": 1.22629499007,
			"-0.016": 1.7140664869,
			"-0.015": 2.05818201154,
			"-0.014": 1.44663520827,
			"-0.013": 1.06425975396,
			"-0.012": 1.11426080678,
			"-0.011": 2.0595805125,
			"-0.01": 1.3540517225,
			"-0.009": 0.737558800979,
			"-0.008": 1.30937064259,
			"-0.007": 1.68057925251,
			"-0.006": 4.9390624594,
			"-0.005": 13.2084483747,
			"-0.004": 26.8668454702,
			"-0.003": 32.8685430834,
			"-0.002": 30.9048106363,
			"-0.001": 31.6083200816,
			"0.0": 31.3346230455,
			"0.001": 18.615602456,
			"0.002": 15.6958026742,
			"0.003": 15.0221787704,
			"0.004": 13.1159241231,
			"0.005": 13.5641362653,
			"0.006": 11.4825040705,
			"0.007": 5.42582030586,
			"0.008": 5.56912066455,
			"0.009": 6.20666928657,
			"0.01": 3.87035308879,
			"0.011": 4.79907091081,
			"0.012": 5.1874983251,
			"0.013": 0.874438496007,
			"0.014": 0.784663976512,
			"0.015": 0.013665015968,
			"0.016": 0.0,
			"0.017": 0.0,
			"0.018": 0.0,
			"0.019": 0.0,
			"0.02": 0.0,
			"0.021": 0.0,
			"0.022": 0.0,
			"0.023": 0.0,
			"0.024": 0.0,
			"0.025": 0.0
		}
	}
}
