{
	 "smiles": "CC(=O)[C@H]1CC[C@H]2[C@@H]3CC=C4C[C@H](CC[C@]4(C)[C@H]3CC[C@]12C)OC(=O)CCC(O)=O", 
	 "Tm": 453.0, 
	 "num_atms": 66, 
	 "gaussian": { 
		 "optdone": 1, 
		 "sigma_profile": "yes", 
		 "theory": "DFT", 
		 "functional": "B3LYP", 
		 "basiset": "6-31G**", 
		 "properties": { 
			 "R2extent": 23417.6139, 
			 "electric_dipole_moment_norm": 3.31643185366, 
			 "electric_quadrupole_moment_norm": 48.3578380635, 
			 "total_energy": -1350.51655119, 
			 "HOMO_LUMO_gap": 0.22288, 
			 "cosmo_polarized_energy": -23.67, 
			 "cosmo_cavitation_energy": 60.5, 
			 "cosmo_dispersion_energy": -41.31, 
			 "cosmo_repulsion_energy": 3.07, 
			 "cosmo_total_nonelectrostatic_energy": 22.25, 
			 "SMD_solvation_energy": 11.22 
		},
		"coords": [
			{
				"x": -3.4897046612,
				"y": 2.6273111361,
				"z": -5.448043637,
				"element": "C" 
			},
			{
				"x": -4.2143072337,
				"y": 1.4394635133,
				"z": -4.8386695186,
				"element": "C" 
			},
			{
				"x": -4.8846466446,
				"y": 0.6916042866,
				"z": -5.5292499477,
				"element": "O" 
			},
			{
				"x": -4.0654588958,
				"y": 1.2334390268,
				"z": -3.3330527989,
				"element": "C" 
			},
			{
				"x": -5.306696583,
				"y": 0.5631060847,
				"z": -2.6751278687,
				"element": "C" 
			},
			{
				"x": -4.7679025525,
				"y": -0.3565624498,
				"z": -1.5412697498,
				"element": "C" 
			},
			{
				"x": -3.2801611794,
				"y": 0.0184747494,
				"z": -1.4412623959,
				"element": "C" 
			},
			{
				"x": -2.3150012002,
				"y": -0.8955339339,
				"z": -0.6741030073,
				"element": "C" 
			},
			{
				"x": -2.8082870031,
				"y": -1.1287364904,
				"z": 0.7642546062,
				"element": "C" 
			},
			{
				"x": -1.732136613,
				"y": -1.5912537163,
				"z": 1.7029079025,
				"element": "C" 
			},
			{
				"x": -0.4253032862,
				"y": -1.6063748282,
				"z": 1.4185448064,
				"element": "C" 
			},
			{
				"x": 0.6057253233,
				"y": -1.9558621389,
				"z": 2.4669018701,
				"element": "C" 
			},
			{
				"x": 1.4001723277,
				"y": -0.6942201081,
				"z": 2.8639106964,
				"element": "C" 
			},
			{
				"x": 1.4534292767,
				"y": 0.3205621287,
				"z": 1.7107513824,
				"element": "C" 
			},
			{
				"x": 1.4760274061,
				"y": -0.3842287962,
				"z": 0.3499793652,
				"element": "C" 
			},
			{
				"x": 0.1513119739,
				"y": -1.1752162479,
				"z": 0.0644118515,
				"element": "C" 
			},
			{
				"x": 0.5088071826,
				"y": -2.4416098761,
				"z": -0.7537786324,
				"element": "C" 
			},
			{
				"x": -0.8881801652,
				"y": -0.2754499121,
				"z": -0.6873641969,
				"element": "C" 
			},
			{
				"x": -0.4549347678,
				"y": 0.1026056851,
				"z": -2.1239651674,
				"element": "C" 
			},
			{
				"x": -1.4798315613,
				"y": 0.9794443267,
				"z": -2.8724799672,
				"element": "C" 
			},
			{
				"x": -2.8638763638,
				"y": 0.3104969947,
				"z": -2.9077093492,
				"element": "C" 
			},
			{
				"x": -2.8341524147,
				"y": -0.9562531514,
				"z": -3.7916513444,
				"element": "C" 
			},
			{
				"x": 2.744224602,
				"y": -1.154717017,
				"z": 3.2014521159,
				"element": "O" 
			},
			{
				"x": 3.4578683208,
				"y": -0.40341496,
				"z": 4.062278429,
				"element": "C" 
			},
			{
				"x": 3.0532831624,
				"y": 0.6176526058,
				"z": 4.5821436889,
				"element": "O" 
			},
			{
				"x": 4.8368007966,
				"y": -0.9963713872,
				"z": 4.2772808295,
				"element": "C" 
			},
			{
				"x": 5.5498277112,
				"y": -0.369162009,
				"z": 5.4709855385,
				"element": "C" 
			},
			{
				"x": 7.0361910006,
				"y": -0.6937208134,
				"z": 5.4957611397,
				"element": "C" 
			},
			{
				"x": 7.70168079,
				"y": -0.2745931279,
				"z": 6.6054411809,
				"element": "O" 
			},
			{
				"x": 7.6299357422,
				"y": -1.2652583122,
				"z": 4.6155502693,
				"element": "O" 
			},
			{
				"x": -2.440943513,
				"y": 2.6582695373,
				"z": -5.1340911082,
				"element": "H" 
			},
			{
				"x": -3.5556614204,
				"y": 2.5857827166,
				"z": -6.5362867898,
				"element": "H" 
			},
			{
				"x": -3.9514829851,
				"y": 3.557426698,
				"z": -5.0935571841,
				"element": "H" 
			},
			{
				"x": -3.883102045,
				"y": 2.215221789,
				"z": -2.8763291874,
				"element": "H" 
			},
			{
				"x": -5.9876841334,
				"y": 1.3263753828,
				"z": -2.2863130495,
				"element": "H" 
			},
			{
				"x": -5.8563018482,
				"y": -0.0020055445,
				"z": -3.4311102344,
				"element": "H" 
			},
			{
				"x": -5.3007604331,
				"y": -0.2051918752,
				"z": -0.5979343148,
				"element": "H" 
			},
			{
				"x": -4.8855005719,
				"y": -1.414030312,
				"z": -1.8049475406,
				"element": "H" 
			},
			{
				"x": -3.2396359658,
				"y": 0.9938938211,
				"z": -0.9267330623,
				"element": "H" 
			},
			{
				"x": -2.2744061488,
				"y": -1.8722049592,
				"z": -1.1742644285,
				"element": "H" 
			},
			{
				"x": -3.6409150342,
				"y": -1.8448011449,
				"z": 0.7616543473,
				"element": "H" 
			},
			{
				"x": -3.2361780074,
				"y": -0.1944169218,
				"z": 1.1639464774,
				"element": "H" 
			},
			{
				"x": -2.0550969198,
				"y": -1.8925247291,
				"z": 2.6998396704,
				"element": "H" 
			},
			{
				"x": 0.1406532453,
				"y": -2.4115852743,
				"z": 3.3458816994,
				"element": "H" 
			},
			{
				"x": 1.3251098041,
				"y": -2.6839497453,
				"z": 2.0725388985,
				"element": "H" 
			},
			{
				"x": 0.9852986199,
				"y": -0.2214917259,
				"z": 3.7562656128,
				"element": "H" 
			},
			{
				"x": 2.3203959076,
				"y": 0.9745876006,
				"z": 1.8424482317,
				"element": "H" 
			},
			{
				"x": 0.5678452522,
				"y": 0.9634758167,
				"z": 1.7832776745,
				"element": "H" 
			},
			{
				"x": 1.6651271822,
				"y": 0.3393927941,
				"z": -0.4477674272,
				"element": "H" 
			},
			{
				"x": 2.325687714,
				"y": -1.0775791085,
				"z": 0.3314085111,
				"element": "H" 
			},
			{
				"x": -0.3830026912,
				"y": -2.9862564261,
				"z": -1.0767588936,
				"element": "H" 
			},
			{
				"x": 1.0983729148,
				"y": -2.190461683,
				"z": -1.6413163786,
				"element": "H" 
			},
			{
				"x": 1.1110039757,
				"y": -3.1299705729,
				"z": -0.1524276032,
				"element": "H" 
			},
			{
				"x": -0.9566579466,
				"y": 0.6631098566,
				"z": -0.1125559471,
				"element": "H" 
			},
			{
				"x": -0.2780593236,
				"y": -0.8066527542,
				"z": -2.7077263684,
				"element": "H" 
			},
			{
				"x": 0.503212605,
				"y": 0.632791693,
				"z": -2.1006642991,
				"element": "H" 
			},
			{
				"x": -1.1055604544,
				"y": 1.1779472743,
				"z": -3.8850196481,
				"element": "H" 
			},
			{
				"x": -1.5630859767,
				"y": 1.9530643968,
				"z": -2.3687581865,
				"element": "H" 
			},
			{
				"x": -2.1865894676,
				"y": -1.7320566183,
				"z": -3.3771203468,
				"element": "H" 
			},
			{
				"x": -2.4578987647,
				"y": -0.7159072794,
				"z": -4.7913166574,
				"element": "H" 
			},
			{
				"x": -3.828135312,
				"y": -1.387837932,
				"z": -3.9265647457,
				"element": "H" 
			},
			{
				"x": 5.4282750005,
				"y": -0.8355981776,
				"z": 3.3686261282,
				"element": "H" 
			},
			{
				"x": 4.752200089,
				"y": -2.0819878349,
				"z": 4.379636094,
				"element": "H" 
			},
			{
				"x": 5.4239430102,
				"y": 0.7203869224,
				"z": 5.4418901031,
				"element": "H" 
			},
			{
				"x": 5.0917625927,
				"y": -0.6951316192,
				"z": 6.4137220893,
				"element": "H" 
			},
			{
				"x": 7.0937665595,
				"y": 0.1712946769,
				"z": 7.2124997725,
				"element": "H" 
			}
		],
		 "valence_orbital": [ 
			{
				"type": "occ",
				"energy": -0.27994,
				"method": "rhf"
			},
			{
				"type": "occ",
				"energy": -0.27904,
				"method": "rhf"
			},
			{
				"type": "occ",
				"energy": -0.27205,
				"method": "rhf"
			},
			{
				"type": "occ",
				"energy": -0.24005,
				"method": "rhf"
			},
			{
				"type": "occ",
				"energy": -0.23657,
				"method": "rhf"
			},
			{
				"type": "unocc",
				"energy": -0.01369,
				"method": "rhf"
			},
			{
				"type": "unocc",
				"energy": 0.00281,
				"method": "rhf"
			},
			{
				"type": "unocc",
				"energy": 0.01226,
				"method": "rhf"
			},
			{
				"type": "unocc",
				"energy": 0.02087,
				"method": "rhf"
			},
			{
				"type": "unocc",
				"energy": 0.05324,
				"method": "rhf"
			}
		],
		"cosmo_sigma_profile": { 
			"-0.025": 0.0,
			"-0.024": 0.0,
			"-0.023": 0.0,
			"-0.022": 0.0,
			"-0.021": 0.0,
			"-0.02": 0.0,
			"-0.019": 0.694395687273,
			"-0.018": 1.17460524476,
			"-0.017": 1.1756463803,
			"-0.016": 1.23897356691,
			"-0.015": 0.718565333268,
			"-0.014": 1.16053914179,
			"-0.013": 0.805246203508,
			"-0.012": 1.507007836,
			"-0.011": 1.32043713117,
			"-0.01": 1.26617060164,
			"-0.009": 1.26704644633,
			"-0.008": 2.36042596991,
			"-0.007": 4.69193245131,
			"-0.006": 11.0311334552,
			"-0.005": 15.7276554505,
			"-0.004": 25.6039437773,
			"-0.003": 49.291813876,
			"-0.002": 66.7228407291,
			"-0.001": 70.893193277,
			"0.0": 56.7491514467,
			"0.001": 36.72303454,
			"0.002": 20.1642343591,
			"0.003": 11.3603690573,
			"0.004": 10.0640939547,
			"0.005": 7.91170376451,
			"0.006": 9.38868070496,
			"0.007": 6.90287390634,
			"0.008": 6.45933339991,
			"0.009": 6.50943927414,
			"0.01": 8.39858234253,
			"0.011": 10.0891091744,
			"0.012": 12.7891023936,
			"0.013": 4.46168556388,
			"0.014": 0.627267853496,
			"0.015": 0.0,
			"0.016": 0.0,
			"0.017": 0.0,
			"0.018": 0.0,
			"0.019": 0.0,
			"0.02": 0.0,
			"0.021": 0.0,
			"0.022": 0.0,
			"0.023": 0.0,
			"0.024": 0.0,
			"0.025": 0.0
		}
	}
}
