{
	 "smiles": "COC1=C(Cl)C=C(NC#N)C=C1", 
	 "Tm": 369.15, 
	 "num_atms": 19, 
	 "gaussian": { 
		 "optdone": 1, 
		 "sigma_profile": "yes", 
		 "theory": "DFT", 
		 "functional": "B3LYP", 
		 "basiset": "6-31G**", 
		 "properties": { 
			 "R2extent": 3787.8212, 
			 "electric_dipole_moment_norm": 5.15089086372, 
			 "electric_quadrupole_moment_norm": 24.6302724354, 
			 "total_energy": -953.940508531, 
			 "HOMO_LUMO_gap": 0.20099, 
			 "cosmo_polarized_energy": -15.67, 
			 "cosmo_cavitation_energy": 26.33, 
			 "cosmo_dispersion_energy": -18.71, 
			 "cosmo_repulsion_energy": 1.49, 
			 "cosmo_total_nonelectrostatic_energy": 9.11, 
			 "SMD_solvation_energy": 7.36 
		},
		"coords": [
			{
				"x": 2.1838666599,
				"y": -0.037087424,
				"z": 0.5858964326,
				"element": "C" 
			},
			{
				"x": 1.8607899049,
				"y": 0.7520754693,
				"z": -0.5638768696,
				"element": "O" 
			},
			{
				"x": 0.5239562043,
				"y": 0.8426759397,
				"z": -0.8484366501,
				"element": "C" 
			},
			{
				"x": -0.2930832393,
				"y": 1.8274517774,
				"z": -0.2709778909,
				"element": "C" 
			},
			{
				"x": 0.3881794537,
				"y": 2.9501662055,
				"z": 0.8857614638,
				"element": "Cl" 
			},
			{
				"x": -1.6388115797,
				"y": 1.9470898427,
				"z": -0.6116982425,
				"element": "C" 
			},
			{
				"x": -2.1878119772,
				"y": 1.0661984557,
				"z": -1.547748982,
				"element": "C" 
			},
			{
				"x": -3.550157903,
				"y": 1.1586282929,
				"z": -1.9169659976,
				"element": "N" 
			},
			{
				"x": -4.4072051152,
				"y": 2.0529448144,
				"z": -1.4192812937,
				"element": "C" 
			},
			{
				"x": -5.1514558112,
				"y": 2.8368342902,
				"z": -0.9785908273,
				"element": "N" 
			},
			{
				"x": -1.390436372,
				"y": 0.0800403209,
				"z": -2.1384225745,
				"element": "C" 
			},
			{
				"x": -0.0491605966,
				"y": -0.023485286,
				"z": -1.78386949,
				"element": "C" 
			},
			{
				"x": 1.8416649452,
				"y": -1.0724957237,
				"z": 0.4616192038,
				"element": "H" 
			},
			{
				"x": 1.7434153744,
				"y": 0.3833440636,
				"z": 1.4968409492,
				"element": "H" 
			},
			{
				"x": 3.2718376854,
				"y": -0.0221336647,
				"z": 0.6705975286,
				"element": "H" 
			},
			{
				"x": -2.246987221,
				"y": 2.7199365837,
				"z": -0.1552782344,
				"element": "H" 
			},
			{
				"x": -3.9000348048,
				"y": 0.5129596033,
				"z": -2.6103485398,
				"element": "H" 
			},
			{
				"x": -1.8139526819,
				"y": -0.6008487948,
				"z": -2.8717037315,
				"element": "H" 
			},
			{
				"x": 0.5863870741,
				"y": -0.7749947661,
				"z": -2.2409162541,
				"element": "H" 
			}
		],
		 "valence_orbital": [ 
			{
				"type": "occ",
				"energy": -0.31844,
				"method": "rhf"
			},
			{
				"type": "occ",
				"energy": -0.29758,
				"method": "rhf"
			},
			{
				"type": "occ",
				"energy": -0.28513,
				"method": "rhf"
			},
			{
				"type": "occ",
				"energy": -0.26443,
				"method": "rhf"
			},
			{
				"type": "occ",
				"energy": -0.23024,
				"method": "rhf"
			},
			{
				"type": "unocc",
				"energy": -0.02925,
				"method": "rhf"
			},
			{
				"type": "unocc",
				"energy": -0.01692,
				"method": "rhf"
			},
			{
				"type": "unocc",
				"energy": 0.01283,
				"method": "rhf"
			},
			{
				"type": "unocc",
				"energy": 0.02391,
				"method": "rhf"
			},
			{
				"type": "unocc",
				"energy": 0.06176,
				"method": "rhf"
			}
		],
		"cosmo_sigma_profile": { 
			"-0.025": 0.0,
			"-0.024": 0.0,
			"-0.023": 0.0,
			"-0.022": 0.0,
			"-0.021": 0.0,
			"-0.02": 0.0,
			"-0.019": 0.0,
			"-0.018": 0.855677410267,
			"-0.017": 1.94034937916,
			"-0.016": 1.48551830721,
			"-0.015": 1.3198224138,
			"-0.014": 1.34476736041,
			"-0.013": 1.18622902814,
			"-0.012": 1.25009614812,
			"-0.011": 1.06463659356,
			"-0.01": 0.868082876645,
			"-0.009": 1.71022555534,
			"-0.008": 2.66931704504,
			"-0.007": 5.10776285522,
			"-0.006": 7.66719701636,
			"-0.005": 9.71088716872,
			"-0.004": 13.1105470998,
			"-0.003": 18.91050333,
			"-0.002": 15.3585159959,
			"-0.001": 13.7995366317,
			"0.0": 13.4906245596,
			"0.001": 17.5987186718,
			"0.002": 20.9230399481,
			"0.003": 13.2911820329,
			"0.004": 10.8943201847,
			"0.005": 6.21085361589,
			"0.006": 4.0704330301,
			"0.007": 3.83577490475,
			"0.008": 3.32604925619,
			"0.009": 4.64549709781,
			"0.01": 4.73737796811,
			"0.011": 4.87906229324,
			"0.012": 3.44149965001,
			"0.013": 2.49945383984,
			"0.014": 0.728799482653,
			"0.015": 0.0,
			"0.016": 0.0,
			"0.017": 0.0,
			"0.018": 0.0,
			"0.019": 0.0,
			"0.02": 0.0,
			"0.021": 0.0,
			"0.022": 0.0,
			"0.023": 0.0,
			"0.024": 0.0,
			"0.025": 0.0
		}
	}
}
