{
	 "smiles": "OC(=O)C1=NN(C=C1)C1=C(C=CC=C1)[N+]([O-])=O", 
	 "Tm": 497.15, 
	 "num_atms": 24, 
	 "gaussian": { 
		 "optdone": 1, 
		 "sigma_profile": "yes", 
		 "theory": "DFT", 
		 "functional": "B3LYP", 
		 "basiset": "6-31G**", 
		 "properties": { 
			 "R2extent": 4705.5486, 
			 "electric_dipole_moment_norm": 7.30658477129, 
			 "electric_quadrupole_moment_norm": 21.7345984741, 
			 "total_energy": -850.308302183, 
			 "HOMO_LUMO_gap": 0.15877, 
			 "cosmo_polarized_energy": -18.22, 
			 "cosmo_cavitation_energy": 30.43, 
			 "cosmo_dispersion_energy": -21.8, 
			 "cosmo_repulsion_energy": 1.67, 
			 "cosmo_total_nonelectrostatic_energy": 10.3, 
			 "SMD_solvation_energy": 8.57 
		},
		"coords": [
			{
				"x": 1.9409242544,
				"y": -3.5975596852,
				"z": -0.8972390477,
				"element": "O" 
			},
			{
				"x": 2.338686695,
				"y": -3.0468851423,
				"z": 0.2707382506,
				"element": "C" 
			},
			{
				"x": 3.0349511306,
				"y": -3.6394811201,
				"z": 1.0608294115,
				"element": "O" 
			},
			{
				"x": 1.8463254039,
				"y": -1.6626283173,
				"z": 0.5004209087,
				"element": "C" 
			},
			{
				"x": 1.0404257185,
				"y": -1.0862951795,
				"z": -0.3908975267,
				"element": "N" 
			},
			{
				"x": 0.7986376704,
				"y": 0.1498183396,
				"z": 0.1031297245,
				"element": "N" 
			},
			{
				"x": 1.4325734396,
				"y": 0.345776013,
				"z": 1.3054888365,
				"element": "C" 
			},
			{
				"x": 2.1222063872,
				"y": -0.806262014,
				"z": 1.591928591,
				"element": "C" 
			},
			{
				"x": -0.1196774458,
				"y": 0.9957486,
				"z": -0.570058991,
				"element": "C" 
			},
			{
				"x": 0.0215713623,
				"y": 2.3914400834,
				"z": -0.6769214721,
				"element": "C" 
			},
			{
				"x": -0.973854585,
				"y": 3.1690072549,
				"z": -1.2720720388,
				"element": "C" 
			},
			{
				"x": -2.1006699235,
				"y": 2.5642475527,
				"z": -1.8170682765,
				"element": "C" 
			},
			{
				"x": -2.23509248,
				"y": 1.1758382727,
				"z": -1.7505525926,
				"element": "C" 
			},
			{
				"x": -1.2638415486,
				"y": 0.4044108854,
				"z": -1.1192521667,
				"element": "C" 
			},
			{
				"x": 1.2344688882,
				"y": 3.1125223981,
				"z": -0.2486709673,
				"element": "N" 
			},
			{
				"x": 2.3106613282,
				"y": 2.5256780526,
				"z": -0.3314889236,
				"element": "O" 
			},
			{
				"x": 1.0889215161,
				"y": 4.2735912265,
				"z": 0.1306462024,
				"element": "O" 
			},
			{
				"x": 1.4050761238,
				"y": -2.9421358455,
				"z": -1.3773204849,
				"element": "H" 
			},
			{
				"x": 1.3342322777,
				"y": 1.2696265368,
				"z": 1.8532521862,
				"element": "H" 
			},
			{
				"x": 2.7361239802,
				"y": -1.0215082502,
				"z": 2.4519573504,
				"element": "H" 
			},
			{
				"x": -0.8280811538,
				"y": 4.2414324202,
				"z": -1.3128306883,
				"element": "H" 
			},
			{
				"x": -2.8628686988,
				"y": 3.1717649203,
				"z": -2.2931564901,
				"element": "H" 
			},
			{
				"x": -3.1091296001,
				"y": 0.6897959625,
				"z": -2.1723334805,
				"element": "H" 
			},
			{
				"x": -1.3732707403,
				"y": -0.6694429645,
				"z": -1.0292283151,
				"element": "H" 
			}
		],
		 "valence_orbital": [ 
			{
				"type": "occ",
				"energy": -0.30889,
				"method": "rhf"
			},
			{
				"type": "occ",
				"energy": -0.29507,
				"method": "rhf"
			},
			{
				"type": "occ",
				"energy": -0.27933,
				"method": "rhf"
			},
			{
				"type": "occ",
				"energy": -0.27412,
				"method": "rhf"
			},
			{
				"type": "occ",
				"energy": -0.26629,
				"method": "rhf"
			},
			{
				"type": "unocc",
				"energy": -0.10752,
				"method": "rhf"
			},
			{
				"type": "unocc",
				"energy": -0.06082,
				"method": "rhf"
			},
			{
				"type": "unocc",
				"energy": -0.0359,
				"method": "rhf"
			},
			{
				"type": "unocc",
				"energy": -0.0244,
				"method": "rhf"
			},
			{
				"type": "unocc",
				"energy": 0.01131,
				"method": "rhf"
			}
		],
		"cosmo_sigma_profile": { 
			"-0.025": 0.0,
			"-0.024": 0.0,
			"-0.023": 0.0,
			"-0.022": 0.0,
			"-0.021": 0.0,
			"-0.02": 0.0,
			"-0.019": 0.0,
			"-0.018": 0.0,
			"-0.017": 0.0,
			"-0.016": 0.0498085043005,
			"-0.015": 0.477641400244,
			"-0.014": 0.433688465535,
			"-0.013": 1.1841975252,
			"-0.012": 1.67298380707,
			"-0.011": 2.34811510773,
			"-0.01": 2.07210408804,
			"-0.009": 3.64024882434,
			"-0.008": 9.61698805255,
			"-0.007": 14.6691615338,
			"-0.006": 13.4540879767,
			"-0.005": 11.0291901915,
			"-0.004": 12.7880073692,
			"-0.003": 13.6065094691,
			"-0.002": 13.0348055457,
			"-0.001": 17.5944120991,
			"0.0": 20.3465480154,
			"0.001": 22.0807798118,
			"0.002": 10.3988218394,
			"0.003": 8.67303128727,
			"0.004": 6.79472976193,
			"0.005": 6.81122728819,
			"0.006": 9.53721422577,
			"0.007": 11.4414063026,
			"0.008": 8.18969564761,
			"0.009": 7.0978357492,
			"0.01": 6.13588116779,
			"0.011": 5.3548679212,
			"0.012": 4.0320712057,
			"0.013": 1.10406839504,
			"0.014": 0.0,
			"0.015": 0.0,
			"0.016": 0.0,
			"0.017": 0.0,
			"0.018": 0.0,
			"0.019": 0.0,
			"0.02": 0.0,
			"0.021": 0.0,
			"0.022": 0.0,
			"0.023": 0.0,
			"0.024": 0.0,
			"0.025": 0.0
		}
	}
}
