{
	 "smiles": "OCC(=O)CO", 
	 "Tm": 363.15, 
	 "num_atms": 12, 
	 "gaussian": { 
		 "optdone": 1, 
		 "sigma_profile": "yes", 
		 "theory": "DFT", 
		 "functional": "B3LYP", 
		 "basiset": "6-31G**", 
		 "properties": { 
			 "R2extent": 776.4402, 
			 "electric_dipole_moment_norm": 2.6914749135, 
			 "electric_quadrupole_moment_norm": 7.76235676647, 
			 "total_energy": -343.574548994, 
			 "HOMO_LUMO_gap": 0.22954, 
			 "cosmo_polarized_energy": -12.67, 
			 "cosmo_cavitation_energy": 15.84, 
			 "cosmo_dispersion_energy": -11.93, 
			 "cosmo_repulsion_energy": 1.07, 
			 "cosmo_total_nonelectrostatic_energy": 4.98, 
			 "SMD_solvation_energy": 3.69 
		},
		"coords": [
			{
				"x": -1.8159471951,
				"y": 1.4391763878,
				"z": -1.8459053693,
				"element": "O" 
			},
			{
				"x": -1.7081511131,
				"y": 0.3131270219,
				"z": -1.0246850736,
				"element": "C" 
			},
			{
				"x": -0.4415018499,
				"y": 0.3664681189,
				"z": -0.1867726254,
				"element": "C" 
			},
			{
				"x": 0.3187032761,
				"y": 1.3138956209,
				"z": -0.296061768,
				"element": "O" 
			},
			{
				"x": -0.1286754922,
				"y": -0.7945059249,
				"z": 0.7503597464,
				"element": "C" 
			},
			{
				"x": -1.1984117797,
				"y": -1.7043199103,
				"z": 0.9272551578,
				"element": "O" 
			},
			{
				"x": -1.0159352213,
				"y": 1.9650084128,
				"z": -1.6660992799,
				"element": "H" 
			},
			{
				"x": -2.5724833335,
				"y": 0.2253032513,
				"z": -0.3455736291,
				"element": "H" 
			},
			{
				"x": -1.6952737735,
				"y": -0.6236385022,
				"z": -1.6057525401,
				"element": "H" 
			},
			{
				"x": 0.6949610993,
				"y": -1.35836678,
				"z": 0.2950645787,
				"element": "H" 
			},
			{
				"x": 0.2569827035,
				"y": -0.3830143908,
				"z": 1.6935314281,
				"element": "H" 
			},
			{
				"x": -1.8191673207,
				"y": -1.3288333054,
				"z": 1.5640393743,
				"element": "H" 
			}
		],
		 "valence_orbital": [ 
			{
				"type": "occ",
				"energy": -0.3557,
				"method": "rhf"
			},
			{
				"type": "occ",
				"energy": -0.34695,
				"method": "rhf"
			},
			{
				"type": "occ",
				"energy": -0.32286,
				"method": "rhf"
			},
			{
				"type": "occ",
				"energy": -0.27034,
				"method": "rhf"
			},
			{
				"type": "occ",
				"energy": -0.26486,
				"method": "rhf"
			},
			{
				"type": "unocc",
				"energy": -0.03532,
				"method": "rhf"
			},
			{
				"type": "unocc",
				"energy": 0.04603,
				"method": "rhf"
			},
			{
				"type": "unocc",
				"energy": 0.1071,
				"method": "rhf"
			},
			{
				"type": "unocc",
				"energy": 0.12002,
				"method": "rhf"
			},
			{
				"type": "unocc",
				"energy": 0.1344,
				"method": "rhf"
			}
		],
		"cosmo_sigma_profile": { 
			"-0.025": 0.0,
			"-0.024": 0.0,
			"-0.023": 0.0,
			"-0.022": 0.0,
			"-0.021": 0.0,
			"-0.02": 0.0,
			"-0.019": 0.0,
			"-0.018": 0.0,
			"-0.017": 0.466842808189,
			"-0.016": 1.22006151218,
			"-0.015": 1.62102711166,
			"-0.014": 1.17034251419,
			"-0.013": 1.00334409595,
			"-0.012": 1.46234114808,
			"-0.011": 1.14194131066,
			"-0.01": 2.19902947064,
			"-0.009": 2.03015240274,
			"-0.008": 4.23087551036,
			"-0.007": 8.75034446715,
			"-0.006": 7.72471752416,
			"-0.005": 8.39363469269,
			"-0.004": 7.07469722204,
			"-0.003": 6.27978980186,
			"-0.002": 6.35532137513,
			"-0.001": 5.27807365615,
			"0.0": 4.71603820416,
			"0.001": 4.59098149142,
			"0.002": 2.9367693358,
			"0.003": 2.9037634296,
			"0.004": 3.67270894307,
			"0.005": 4.24154752986,
			"0.006": 3.18126131128,
			"0.007": 2.40203216778,
			"0.008": 4.65479094996,
			"0.009": 4.76599751612,
			"0.01": 4.28821406641,
			"0.011": 4.78855286218,
			"0.012": 4.12386576262,
			"0.013": 3.47046616238,
			"0.014": 2.48293656268,
			"0.015": 0.171149244842,
			"0.016": 0.0,
			"0.017": 0.0,
			"0.018": 0.0,
			"0.019": 0.0,
			"0.02": 0.0,
			"0.021": 0.0,
			"0.022": 0.0,
			"0.023": 0.0,
			"0.024": 0.0,
			"0.025": 0.0
		}
	}
}
