{
	 "smiles": "C(=N/C1=CC=CC=C1)C1=CC=CC=C1", 
	 "Tm": 327.15, 
	 "num_atms": 25, 
	 "gaussian": { 
		 "optdone": 1, 
		 "sigma_profile": "yes", 
		 "theory": "DFT", 
		 "functional": "B3LYP", 
		 "basiset": "6-31G**", 
		 "properties": { 
			 "R2extent": 4973.6369, 
			 "electric_dipole_moment_norm": 1.41701148196, 
			 "electric_quadrupole_moment_norm": 10.3304500173, 
			 "total_energy": -556.757308987, 
			 "HOMO_LUMO_gap": 0.15956, 
			 "cosmo_polarized_energy": -7.41, 
			 "cosmo_cavitation_energy": 29.57, 
			 "cosmo_dispersion_energy": -21.67, 
			 "cosmo_repulsion_energy": 1.69, 
			 "cosmo_total_nonelectrostatic_energy": 9.59, 
			 "SMD_solvation_energy": 3.96 
		},
		"coords": [
			{
				"x": 0.5347931837,
				"y": -0.790401696,
				"z": -0.7125190699,
				"element": "C" 
			},
			{
				"x": 1.4439741026,
				"y": -0.5734144609,
				"z": -1.5886288818,
				"element": "N" 
			},
			{
				"x": 2.7978781602,
				"y": -0.7715490461,
				"z": -1.2658538447,
				"element": "C" 
			},
			{
				"x": 3.6389366533,
				"y": -1.2840079446,
				"z": -2.2682176702,
				"element": "C" 
			},
			{
				"x": 4.9901382621,
				"y": -1.5011536944,
				"z": -2.0129083917,
				"element": "C" 
			},
			{
				"x": 5.5330682431,
				"y": -1.1801416774,
				"z": -0.7652084069,
				"element": "C" 
			},
			{
				"x": 4.7107862275,
				"y": -0.6388552583,
				"z": 0.2250129432,
				"element": "C" 
			},
			{
				"x": 3.3527461693,
				"y": -0.435929999,
				"z": -0.0176125779,
				"element": "C" 
			},
			{
				"x": -0.8893497284,
				"y": -0.5448345196,
				"z": -0.9715598178,
				"element": "C" 
			},
			{
				"x": -1.8307570267,
				"y": -0.8281817779,
				"z": 0.0300244971,
				"element": "C" 
			},
			{
				"x": -3.1893377377,
				"y": -0.6036696454,
				"z": -0.1899430622,
				"element": "C" 
			},
			{
				"x": -3.6200267732,
				"y": -0.0937787967,
				"z": -1.4158579873,
				"element": "C" 
			},
			{
				"x": -2.6878886208,
				"y": 0.1910997638,
				"z": -2.421030324,
				"element": "C" 
			},
			{
				"x": -1.3326779158,
				"y": -0.030675717,
				"z": -2.2031466876,
				"element": "C" 
			},
			{
				"x": 0.7742055235,
				"y": -1.1884578157,
				"z": 0.2854175462,
				"element": "H" 
			},
			{
				"x": 3.2049606765,
				"y": -1.5161219725,
				"z": -3.2356455529,
				"element": "H" 
			},
			{
				"x": 5.6251743451,
				"y": -1.9119294,
				"z": -2.7928284772,
				"element": "H" 
			},
			{
				"x": 6.5905175638,
				"y": -1.3352192677,
				"z": -0.572588496,
				"element": "H" 
			},
			{
				"x": 5.1294473499,
				"y": -0.3646759915,
				"z": 1.1894895364,
				"element": "H" 
			},
			{
				"x": 2.7248996209,
				"y": 0.0164015148,
				"z": 0.7443720173,
				"element": "H" 
			},
			{
				"x": -1.4921314649,
				"y": -1.2261891575,
				"z": 0.9837616099,
				"element": "H" 
			},
			{
				"x": -3.9095681635,
				"y": -0.826051017,
				"z": 0.5919887793,
				"element": "H" 
			},
			{
				"x": -4.6777609301,
				"y": 0.0820294236,
				"z": -1.5900552737,
				"element": "H" 
			},
			{
				"x": -3.0242565298,
				"y": 0.5879088198,
				"z": -3.3746877394,
				"element": "H" 
			},
			{
				"x": -0.5949711904,
				"y": 0.1838993331,
				"z": -2.9691746679,
				"element": "H" 
			}
		],
		 "valence_orbital": [ 
			{
				"type": "occ",
				"energy": -0.27805,
				"method": "rhf"
			},
			{
				"type": "occ",
				"energy": -0.2563,
				"method": "rhf"
			},
			{
				"type": "occ",
				"energy": -0.25086,
				"method": "rhf"
			},
			{
				"type": "occ",
				"energy": -0.24736,
				"method": "rhf"
			},
			{
				"type": "occ",
				"energy": -0.21713,
				"method": "rhf"
			},
			{
				"type": "unocc",
				"energy": -0.05757,
				"method": "rhf"
			},
			{
				"type": "unocc",
				"energy": -0.00504,
				"method": "rhf"
			},
			{
				"type": "unocc",
				"energy": 0.00159,
				"method": "rhf"
			},
			{
				"type": "unocc",
				"energy": 0.01299,
				"method": "rhf"
			},
			{
				"type": "unocc",
				"energy": 0.05508,
				"method": "rhf"
			}
		],
		"cosmo_sigma_profile": { 
			"-0.025": 0.0,
			"-0.024": 0.0,
			"-0.023": 0.0,
			"-0.022": 0.0,
			"-0.021": 0.0,
			"-0.02": 0.0,
			"-0.019": 0.0,
			"-0.018": 0.0,
			"-0.017": 0.0,
			"-0.016": 0.0,
			"-0.015": 0.0,
			"-0.014": 0.0,
			"-0.013": 0.0,
			"-0.012": 0.0,
			"-0.011": 0.0,
			"-0.01": 0.0,
			"-0.009": 0.0,
			"-0.008": 0.0519875578788,
			"-0.007": 2.80814471973,
			"-0.006": 15.7294137272,
			"-0.005": 20.9739891903,
			"-0.004": 23.6883783051,
			"-0.003": 19.5005462936,
			"-0.002": 14.6949805475,
			"-0.001": 14.4839419389,
			"0.0": 14.8233239404,
			"0.001": 14.1582003271,
			"0.002": 17.6937245824,
			"0.003": 20.4244059865,
			"0.004": 22.9651477819,
			"0.005": 20.4264419439,
			"0.006": 8.12735627397,
			"0.007": 1.67127809935,
			"0.008": 1.43445970422,
			"0.009": 1.2482362179,
			"0.01": 1.40812925487,
			"0.011": 0.993037806989,
			"0.012": 0.330973928323,
			"0.013": 0.0,
			"0.014": 0.0,
			"0.015": 0.0,
			"0.016": 0.0,
			"0.017": 0.0,
			"0.018": 0.0,
			"0.019": 0.0,
			"0.02": 0.0,
			"0.021": 0.0,
			"0.022": 0.0,
			"0.023": 0.0,
			"0.024": 0.0,
			"0.025": 0.0
		}
	}
}
