{
	 "smiles": "[O-][N+](=O)C1=C(C2=C(C=C1)C(=O)C1=C(C=CC=C1)C2=O)[N+]([O-])=O", 
	 "Tm": 614.15, 
	 "num_atms": 28, 
	 "gaussian": { 
		 "optdone": 1, 
		 "sigma_profile": "yes", 
		 "theory": "DFT", 
		 "functional": "B3LYP", 
		 "basiset": "6-31G**", 
		 "properties": { 
			 "R2extent": 6630.1277, 
			 "electric_dipole_moment_norm": 7.24093163343, 
			 "electric_quadrupole_moment_norm": 23.1608742849, 
			 "total_energy": -1097.73166713, 
			 "HOMO_LUMO_gap": 0.14831, 
			 "cosmo_polarized_energy": -17.83, 
			 "cosmo_cavitation_energy": 34.89, 
			 "cosmo_dispersion_energy": -25.06, 
			 "cosmo_repulsion_energy": 1.81, 
			 "cosmo_total_nonelectrostatic_energy": 11.65, 
			 "SMD_solvation_energy": 10.99 
		},
		"coords": [
			{
				"x": -4.0612162937,
				"y": 1.9515998373,
				"z": 1.0996732948,
				"element": "O" 
			},
			{
				"x": -3.8652650056,
				"y": 0.7883364289,
				"z": 1.4294956001,
				"element": "N" 
			},
			{
				"x": -4.6883758802,
				"y": 0.0489847351,
				"z": 1.9630932285,
				"element": "O" 
			},
			{
				"x": -2.5313325625,
				"y": 0.207956737,
				"z": 1.150896993,
				"element": "C" 
			},
			{
				"x": -1.4255828983,
				"y": 1.0001408763,
				"z": 0.8284046654,
				"element": "C" 
			},
			{
				"x": -0.1821241769,
				"y": 0.3938190937,
				"z": 0.5754043304,
				"element": "C" 
			},
			{
				"x": -0.0951659716,
				"y": -1.0122786501,
				"z": 0.618781738,
				"element": "C" 
			},
			{
				"x": -1.2120292222,
				"y": -1.7899368948,
				"z": 0.9354205644,
				"element": "C" 
			},
			{
				"x": -2.4262689755,
				"y": -1.181781778,
				"z": 1.2116291259,
				"element": "C" 
			},
			{
				"x": 1.190525784,
				"y": -1.7324830623,
				"z": 0.320869558,
				"element": "C" 
			},
			{
				"x": 1.2304264275,
				"y": -2.9555854672,
				"z": 0.3616397075,
				"element": "O" 
			},
			{
				"x": 2.3763560982,
				"y": -0.9152446331,
				"z": -0.0258473297,
				"element": "C" 
			},
			{
				"x": 2.3027036605,
				"y": 0.4904900788,
				"z": -0.0387907787,
				"element": "C" 
			},
			{
				"x": 3.4395462889,
				"y": 1.2413893463,
				"z": -0.3616098678,
				"element": "C" 
			},
			{
				"x": 4.6341443992,
				"y": 0.5973481774,
				"z": -0.6734029686,
				"element": "C" 
			},
			{
				"x": 4.7062722495,
				"y": -0.8011991394,
				"z": -0.6610559048,
				"element": "C" 
			},
			{
				"x": 3.5824055846,
				"y": -1.5555668344,
				"z": -0.3365211963,
				"element": "C" 
			},
			{
				"x": 1.0454358487,
				"y": 1.2153888203,
				"z": 0.2957976086,
				"element": "C" 
			},
			{
				"x": 1.0158173238,
				"y": 2.4351528632,
				"z": 0.35417279,
				"element": "O" 
			},
			{
				"x": -1.5531536326,
				"y": 2.4813176791,
				"z": 0.7637838116,
				"element": "N" 
			},
			{
				"x": -1.4868232985,
				"y": 3.0704580178,
				"z": 1.8305863698,
				"element": "O" 
			},
			{
				"x": -1.7188563743,
				"y": 2.9564938595,
				"z": -0.3465755918,
				"element": "O" 
			},
			{
				"x": -1.1003743919,
				"y": -2.8677517292,
				"z": 0.9594338057,
				"element": "H" 
			},
			{
				"x": -3.3082528301,
				"y": -1.7527854803,
				"z": 1.4728371196,
				"element": "H" 
			},
			{
				"x": 3.3615647194,
				"y": 2.3230534226,
				"z": -0.3611315149,
				"element": "H" 
			},
			{
				"x": 5.5126532182,
				"y": 1.1831978365,
				"z": -0.9261539153,
				"element": "H" 
			},
			{
				"x": 5.6404286668,
				"y": -1.2985251637,
				"z": -0.9036487875,
				"element": "H" 
			},
			{
				"x": 3.6118412445,
				"y": -2.6395889773,
				"z": -0.3159824558,
				"element": "H" 
			}
		],
		 "valence_orbital": [ 
			{
				"type": "occ",
				"energy": -0.2968,
				"method": "rhf"
			},
			{
				"type": "occ",
				"energy": -0.29407,
				"method": "rhf"
			},
			{
				"type": "occ",
				"energy": -0.29046,
				"method": "rhf"
			},
			{
				"type": "occ",
				"energy": -0.28889,
				"method": "rhf"
			},
			{
				"type": "occ",
				"energy": -0.28625,
				"method": "rhf"
			},
			{
				"type": "unocc",
				"energy": -0.13794,
				"method": "rhf"
			},
			{
				"type": "unocc",
				"energy": -0.11118,
				"method": "rhf"
			},
			{
				"type": "unocc",
				"energy": -0.08135,
				"method": "rhf"
			},
			{
				"type": "unocc",
				"energy": -0.07413,
				"method": "rhf"
			},
			{
				"type": "unocc",
				"energy": -0.04818,
				"method": "rhf"
			}
		],
		"cosmo_sigma_profile": { 
			"-0.025": 0.0,
			"-0.024": 0.0,
			"-0.023": 0.0,
			"-0.022": 0.0,
			"-0.021": 0.0,
			"-0.02": 0.0,
			"-0.019": 0.0,
			"-0.018": 0.0,
			"-0.017": 0.0,
			"-0.016": 0.0,
			"-0.015": 0.0,
			"-0.014": 0.0,
			"-0.013": 0.0,
			"-0.012": 0.0,
			"-0.011": 0.0314330307409,
			"-0.01": 1.75678431751,
			"-0.009": 5.67546349617,
			"-0.008": 8.77633211861,
			"-0.007": 15.1123751375,
			"-0.006": 17.8738907856,
			"-0.005": 21.3556812042,
			"-0.004": 18.0390137216,
			"-0.003": 17.3093475129,
			"-0.002": 19.0729640569,
			"-0.001": 15.4302315742,
			"0.0": 18.9195343049,
			"0.001": 18.3815706609,
			"0.002": 9.36684020504,
			"0.003": 7.9581884708,
			"0.004": 9.40568060674,
			"0.005": 12.7456141782,
			"0.006": 24.3511179161,
			"0.007": 19.5120164752,
			"0.008": 11.1099531707,
			"0.009": 6.2324464201,
			"0.01": 4.45836062863,
			"0.011": 0.36410330874,
			"0.012": 0.0,
			"0.013": 0.0,
			"0.014": 0.0,
			"0.015": 0.0,
			"0.016": 0.0,
			"0.017": 0.0,
			"0.018": 0.0,
			"0.019": 0.0,
			"0.02": 0.0,
			"0.021": 0.0,
			"0.022": 0.0,
			"0.023": 0.0,
			"0.024": 0.0,
			"0.025": 0.0
		}
	}
}
