{
	 "smiles": "COC(=O)CCC1=CC=CC=C1O", 
	 "Tm": 315.15, 
	 "num_atms": 25, 
	 "gaussian": { 
		 "optdone": 1, 
		 "sigma_profile": "yes", 
		 "theory": "DFT", 
		 "functional": "B3LYP", 
		 "basiset": "6-31G**", 
		 "properties": { 
			 "R2extent": 2528.2067, 
			 "electric_dipole_moment_norm": 2.52110051565, 
			 "electric_quadrupole_moment_norm": 14.0936932016, 
			 "total_energy": -613.976656018, 
			 "HOMO_LUMO_gap": 0.21649, 
			 "cosmo_polarized_energy": -13.68, 
			 "cosmo_cavitation_energy": 28.68, 
			 "cosmo_dispersion_energy": -19.88, 
			 "cosmo_repulsion_energy": 1.59, 
			 "cosmo_total_nonelectrostatic_energy": 10.38, 
			 "SMD_solvation_energy": 6.37 
		},
		"coords": [
			{
				"x": 2.3175505912,
				"y": -1.2636980141,
				"z": -1.5408538776,
				"element": "C" 
			},
			{
				"x": 0.8962292605,
				"y": -1.3468826154,
				"z": -1.3675909343,
				"element": "O" 
			},
			{
				"x": 0.1671590083,
				"y": -0.7146336155,
				"z": -2.316409192,
				"element": "C" 
			},
			{
				"x": 0.6556588701,
				"y": -0.1689130753,
				"z": -3.2821177475,
				"element": "O" 
			},
			{
				"x": -1.314893392,
				"y": -0.7675547952,
				"z": -2.008017818,
				"element": "C" 
			},
			{
				"x": -1.8242163442,
				"y": 0.5096893073,
				"z": -1.2849816953,
				"element": "C" 
			},
			{
				"x": -1.4069787583,
				"y": 0.6254002838,
				"z": 0.1648796469,
				"element": "C" 
			},
			{
				"x": -2.2118748017,
				"y": 0.1207176065,
				"z": 1.1910923472,
				"element": "C" 
			},
			{
				"x": -1.8459597484,
				"y": 0.218154564,
				"z": 2.5350855028,
				"element": "C" 
			},
			{
				"x": -0.6457130443,
				"y": 0.8420602698,
				"z": 2.8725349605,
				"element": "C" 
			},
			{
				"x": 0.1762633599,
				"y": 1.3583843196,
				"z": 1.8708051344,
				"element": "C" 
			},
			{
				"x": -0.1995099566,
				"y": 1.2479615125,
				"z": 0.5293161061,
				"element": "C" 
			},
			{
				"x": 0.5797566574,
				"y": 1.7410763895,
				"z": -0.4847109846,
				"element": "O" 
			},
			{
				"x": 2.6178957035,
				"y": -1.6871783155,
				"z": -2.5026051837,
				"element": "H" 
			},
			{
				"x": 2.7508406112,
				"y": -1.8337747455,
				"z": -0.7186345182,
				"element": "H" 
			},
			{
				"x": 2.6423110163,
				"y": -0.2206952047,
				"z": -1.4993496896,
				"element": "H" 
			},
			{
				"x": -1.5388072158,
				"y": -1.6509530849,
				"z": -1.4040097109,
				"element": "H" 
			},
			{
				"x": -1.8318979462,
				"y": -0.8534451955,
				"z": -2.9680595742,
				"element": "H" 
			},
			{
				"x": -1.4868170072,
				"y": 1.3844830798,
				"z": -1.8486998773,
				"element": "H" 
			},
			{
				"x": -2.9183966321,
				"y": 0.4958396808,
				"z": -1.3324006848,
				"element": "H" 
			},
			{
				"x": -3.1529759172,
				"y": -0.3552930697,
				"z": 0.9246496781,
				"element": "H" 
			},
			{
				"x": -2.4943936992,
				"y": -0.1825101011,
				"z": 3.3079429099,
				"element": "H" 
			},
			{
				"x": -0.3450724219,
				"y": 0.9325946892,
				"z": 3.9122837795,
				"element": "H" 
			},
			{
				"x": 1.1135580673,
				"y": 1.8484394695,
				"z": 2.12811056,
				"element": "H" 
			},
			{
				"x": 1.3525837394,
				"y": 2.1806306601,
				"z": -0.1080591374,
				"element": "H" 
			}
		],
		 "valence_orbital": [ 
			{
				"type": "occ",
				"energy": -0.32911,
				"method": "rhf"
			},
			{
				"type": "occ",
				"energy": -0.29048,
				"method": "rhf"
			},
			{
				"type": "occ",
				"energy": -0.25906,
				"method": "rhf"
			},
			{
				"type": "occ",
				"energy": -0.24552,
				"method": "rhf"
			},
			{
				"type": "occ",
				"energy": -0.21987,
				"method": "rhf"
			},
			{
				"type": "unocc",
				"energy": -0.00338,
				"method": "rhf"
			},
			{
				"type": "unocc",
				"energy": 0.0124,
				"method": "rhf"
			},
			{
				"type": "unocc",
				"energy": 0.02172,
				"method": "rhf"
			},
			{
				"type": "unocc",
				"energy": 0.06285,
				"method": "rhf"
			},
			{
				"type": "unocc",
				"energy": 0.09521,
				"method": "rhf"
			}
		],
		"cosmo_sigma_profile": { 
			"-0.025": 0.0,
			"-0.024": 0.0,
			"-0.023": 0.0,
			"-0.022": 0.0,
			"-0.021": 0.0,
			"-0.02": 0.0,
			"-0.019": 0.0,
			"-0.018": 0.179569044703,
			"-0.017": 1.11475131963,
			"-0.016": 0.97069632281,
			"-0.015": 0.754866268491,
			"-0.014": 1.33623120098,
			"-0.013": 0.852616128646,
			"-0.012": 0.957815301053,
			"-0.011": 0.826800809994,
			"-0.01": 0.876950688894,
			"-0.009": 1.64087504942,
			"-0.008": 0.970180570706,
			"-0.007": 1.47976573662,
			"-0.006": 6.21581776874,
			"-0.005": 18.905060902,
			"-0.004": 24.0294910215,
			"-0.003": 27.4331453012,
			"-0.002": 19.9006564428,
			"-0.001": 13.786496623,
			"0.0": 11.259409968,
			"0.001": 9.83949614767,
			"0.002": 10.0404983996,
			"0.003": 10.3532490855,
			"0.004": 10.4391949554,
			"0.005": 11.2227275108,
			"0.006": 12.2144605638,
			"0.007": 7.15355215322,
			"0.008": 4.07882265915,
			"0.009": 3.47223738039,
			"0.01": 3.3153845586,
			"0.011": 2.9860515298,
			"0.012": 4.53877293518,
			"0.013": 2.72991355409,
			"0.014": 0.238814974783,
			"0.015": 0.0,
			"0.016": 0.0,
			"0.017": 0.0,
			"0.018": 0.0,
			"0.019": 0.0,
			"0.02": 0.0,
			"0.021": 0.0,
			"0.022": 0.0,
			"0.023": 0.0,
			"0.024": 0.0,
			"0.025": 0.0
		}
	}
}
