{
	 "smiles": "CC1=C(NC(=O)CN2CCCCC2)C=C(N)C=C1", 
	 "Tm": 382.15, 
	 "num_atms": 39, 
	 "gaussian": { 
		 "optdone": 1, 
		 "sigma_profile": "yes", 
		 "theory": "DFT", 
		 "functional": "B3LYP", 
		 "basiset": "6-31G**", 
		 "properties": { 
			 "R2extent": 6386.7947, 
			 "electric_dipole_moment_norm": 3.86241766903, 
			 "electric_quadrupole_moment_norm": 11.5163741017, 
			 "total_energy": -785.638485969, 
			 "HOMO_LUMO_gap": 0.17706, 
			 "cosmo_polarized_energy": -14.75, 
			 "cosmo_cavitation_energy": 39.31, 
			 "cosmo_dispersion_energy": -28.04, 
			 "cosmo_repulsion_energy": 2.2, 
			 "cosmo_total_nonelectrostatic_energy": 13.46, 
			 "SMD_solvation_energy": 4.27 
		},
		"coords": [
			{
				"x": 3.2639194993,
				"y": -2.0783102279,
				"z": -0.5574768157,
				"element": "C" 
			},
			{
				"x": 3.0144281729,
				"y": -0.5899200504,
				"z": -0.5264465153,
				"element": "C" 
			},
			{
				"x": 1.7316410687,
				"y": -0.0531135131,
				"z": -0.7677309012,
				"element": "C" 
			},
			{
				"x": 0.6729980469,
				"y": -0.9433582064,
				"z": -1.0834084078,
				"element": "N" 
			},
			{
				"x": -0.6172068787,
				"y": -1.0431688404,
				"z": -0.5944956851,
				"element": "C" 
			},
			{
				"x": -1.3371587671,
				"y": -1.9522154028,
				"z": -0.9911965782,
				"element": "O" 
			},
			{
				"x": -1.0930302125,
				"y": -0.0180286047,
				"z": 0.4592016557,
				"element": "C" 
			},
			{
				"x": -2.2304123981,
				"y": -0.4261616315,
				"z": 1.2423734855,
				"element": "N" 
			},
			{
				"x": -1.9761318047,
				"y": -1.5474674555,
				"z": 2.1479749058,
				"element": "C" 
			},
			{
				"x": -3.2302430361,
				"y": -1.838773534,
				"z": 2.975785763,
				"element": "C" 
			},
			{
				"x": -4.4144345912,
				"y": -2.2801847228,
				"z": 2.078210351,
				"element": "C" 
			},
			{
				"x": -4.224839758,
				"y": -1.8111634623,
				"z": 0.6207429116,
				"element": "C" 
			},
			{
				"x": -3.5369825985,
				"y": -0.4431747067,
				"z": 0.5516831831,
				"element": "C" 
			},
			{
				"x": 1.5198220598,
				"y": 1.3286599526,
				"z": -0.7515506452,
				"element": "C" 
			},
			{
				"x": 2.5623457937,
				"y": 2.217200269,
				"z": -0.4473114594,
				"element": "C" 
			},
			{
				"x": 2.3227971357,
				"y": 3.5897274434,
				"z": -0.3585534725,
				"element": "N" 
			},
			{
				"x": 3.8386593251,
				"y": 1.6893402825,
				"z": -0.1986433058,
				"element": "C" 
			},
			{
				"x": 4.0450867867,
				"y": 0.3139604803,
				"z": -0.25088211,
				"element": "C" 
			},
			{
				"x": 3.1513668601,
				"y": -2.5022216229,
				"z": -1.5653653765,
				"element": "H" 
			},
			{
				"x": 2.570806976,
				"y": -2.6211863213,
				"z": 0.0951633321,
				"element": "H" 
			},
			{
				"x": 4.2817393992,
				"y": -2.3050956051,
				"z": -0.2296010949,
				"element": "H" 
			},
			{
				"x": 0.9028609667,
				"y": -1.7370120524,
				"z": -1.6703367848,
				"element": "H" 
			},
			{
				"x": -1.3381132885,
				"y": 0.9155907724,
				"z": -0.0624089028,
				"element": "H" 
			},
			{
				"x": -0.2548958203,
				"y": 0.2220163226,
				"z": 1.1255952615,
				"element": "H" 
			},
			{
				"x": -1.6614638964,
				"y": -2.4624615098,
				"z": 1.6152108511,
				"element": "H" 
			},
			{
				"x": -1.1472872469,
				"y": -1.2644350225,
				"z": 2.8112653431,
				"element": "H" 
			},
			{
				"x": -3.0057805463,
				"y": -2.6026360207,
				"z": 3.728265627,
				"element": "H" 
			},
			{
				"x": -3.4915807375,
				"y": -0.9239549363,
				"z": 3.5206788818,
				"element": "H" 
			},
			{
				"x": -5.3489650807,
				"y": -1.8771728354,
				"z": 2.4864309111,
				"element": "H" 
			},
			{
				"x": -4.5177376463,
				"y": -3.3713647672,
				"z": 2.0942207769,
				"element": "H" 
			},
			{
				"x": -3.6034468193,
				"y": -2.5217871935,
				"z": 0.0687835898,
				"element": "H" 
			},
			{
				"x": -5.1917071988,
				"y": -1.7606833049,
				"z": 0.1061957628,
				"element": "H" 
			},
			{
				"x": -4.195402238,
				"y": 0.3208693484,
				"z": 0.9976127681,
				"element": "H" 
			},
			{
				"x": -3.3959576818,
				"y": -0.1684278099,
				"z": -0.4983855578,
				"element": "H" 
			},
			{
				"x": 0.5386932403,
				"y": 1.7214691054,
				"z": -0.9973314667,
				"element": "H" 
			},
			{
				"x": 1.5143396206,
				"y": 3.9207715688,
				"z": -0.8668760346,
				"element": "H" 
			},
			{
				"x": 3.1308447338,
				"y": 4.1762324524,
				"z": -0.5152528608,
				"element": "H" 
			},
			{
				"x": 4.6637302669,
				"y": 2.3567459877,
				"z": 0.0356782417,
				"element": "H" 
			},
			{
				"x": 5.0421982933,
				"y": -0.074804625,
				"z": -0.0593196279,
				"element": "H" 
			}
		],
		 "valence_orbital": [ 
			{
				"type": "occ",
				"energy": -0.27983,
				"method": "rhf"
			},
			{
				"type": "occ",
				"energy": -0.25227,
				"method": "rhf"
			},
			{
				"type": "occ",
				"energy": -0.22995,
				"method": "rhf"
			},
			{
				"type": "occ",
				"energy": -0.2024,
				"method": "rhf"
			},
			{
				"type": "occ",
				"energy": -0.18602,
				"method": "rhf"
			},
			{
				"type": "unocc",
				"energy": -0.00896,
				"method": "rhf"
			},
			{
				"type": "unocc",
				"energy": 0.00871,
				"method": "rhf"
			},
			{
				"type": "unocc",
				"energy": 0.03849,
				"method": "rhf"
			},
			{
				"type": "unocc",
				"energy": 0.07503,
				"method": "rhf"
			},
			{
				"type": "unocc",
				"energy": 0.08601,
				"method": "rhf"
			}
		],
		"cosmo_sigma_profile": { 
			"-0.025": 0.0,
			"-0.024": 0.0,
			"-0.023": 0.0,
			"-0.022": 0.0,
			"-0.021": 0.0,
			"-0.02": 0.0,
			"-0.019": 0.0,
			"-0.018": 0.0,
			"-0.017": 0.0,
			"-0.016": 0.0,
			"-0.015": 0.0,
			"-0.014": 0.0,
			"-0.013": 0.24986995303,
			"-0.012": 3.04086851096,
			"-0.011": 3.85620910553,
			"-0.01": 4.32990341087,
			"-0.009": 4.35225093749,
			"-0.008": 4.46861079226,
			"-0.007": 6.3952877838,
			"-0.006": 7.50994111368,
			"-0.005": 10.4957038026,
			"-0.004": 13.6581900776,
			"-0.003": 22.272037155,
			"-0.002": 28.5121818645,
			"-0.001": 37.3708142526,
			"0.0": 45.083645809,
			"0.001": 27.8791523607,
			"0.002": 13.51255853,
			"0.003": 11.2004881022,
			"0.004": 10.523434095,
			"0.005": 9.95297360574,
			"0.006": 12.081789083,
			"0.007": 6.8024281316,
			"0.008": 3.0234787006,
			"0.009": 3.00290536334,
			"0.01": 3.26330822798,
			"0.011": 2.44753918115,
			"0.012": 3.28704358048,
			"0.013": 3.74792468469,
			"0.014": 3.18369530313,
			"0.015": 0.639623739337,
			"0.016": 0.0,
			"0.017": 0.0,
			"0.018": 0.0,
			"0.019": 0.0,
			"0.02": 0.0,
			"0.021": 0.0,
			"0.022": 0.0,
			"0.023": 0.0,
			"0.024": 0.0,
			"0.025": 0.0
		}
	}
}
