{
	 "smiles": "CC(C)OC1=CC=C(CCC(O)=O)C=C1", 
	 "Tm": 348.15, 
	 "num_atms": 31, 
	 "gaussian": { 
		 "optdone": 1, 
		 "sigma_profile": "yes", 
		 "theory": "DFT", 
		 "functional": "B3LYP", 
		 "basiset": "6-31G**", 
		 "properties": { 
			 "R2extent": 6648.2896, 
			 "electric_dipole_moment_norm": 4.93098965929, 
			 "electric_quadrupole_moment_norm": 28.1008846884, 
			 "total_energy": -692.609635447, 
			 "HOMO_LUMO_gap": 0.2089, 
			 "cosmo_polarized_energy": -17.13, 
			 "cosmo_cavitation_energy": 34.6, 
			 "cosmo_dispersion_energy": -24.49, 
			 "cosmo_repulsion_energy": 1.96, 
			 "cosmo_total_nonelectrostatic_energy": 12.06, 
			 "SMD_solvation_energy": 7.15 
		},
		"coords": [
			{
				"x": 3.0335978358,
				"y": 2.0652565602,
				"z": 2.1594309016,
				"element": "C" 
			},
			{
				"x": 1.5727528446,
				"y": 2.3185898215,
				"z": 1.7845712255,
				"element": "C" 
			},
			{
				"x": 0.8674633327,
				"y": 3.2437882205,
				"z": 2.7702067259,
				"element": "C" 
			},
			{
				"x": 0.8241045963,
				"y": 1.0899526471,
				"z": 1.8032777686,
				"element": "O" 
			},
			{
				"x": 0.9057202705,
				"y": 0.2083306591,
				"z": 0.7640538992,
				"element": "C" 
			},
			{
				"x": 0.1800200247,
				"y": -0.9822473443,
				"z": 0.9277792622,
				"element": "C" 
			},
			{
				"x": 0.1750032512,
				"y": -1.9452282663,
				"z": -0.0733370753,
				"element": "C" 
			},
			{
				"x": 0.8883333256,
				"y": -1.7628525562,
				"z": -1.2691474652,
				"element": "C" 
			},
			{
				"x": 0.850335321,
				"y": -2.8007113867,
				"z": -2.3695687539,
				"element": "C" 
			},
			{
				"x": -0.3471183486,
				"y": -2.6120547038,
				"z": -3.3148260564,
				"element": "C" 
			},
			{
				"x": -0.3946548071,
				"y": -3.6492394667,
				"z": -4.4292646774,
				"element": "C" 
			},
			{
				"x": -1.4455703187,
				"y": -3.5306282417,
				"z": -5.2889976137,
				"element": "O" 
			},
			{
				"x": 0.4132696485,
				"y": -4.5297208332,
				"z": -4.5852309248,
				"element": "O" 
			},
			{
				"x": 1.6098236733,
				"y": -0.5750881146,
				"z": -1.4145860324,
				"element": "C" 
			},
			{
				"x": 1.6291003304,
				"y": 0.4062299408,
				"z": -0.4188970137,
				"element": "C" 
			},
			{
				"x": 3.6016878891,
				"y": 3.0010156112,
				"z": 2.1370386221,
				"element": "H" 
			},
			{
				"x": 3.509166736,
				"y": 1.360854658,
				"z": 1.4721171536,
				"element": "H" 
			},
			{
				"x": 3.0934105102,
				"y": 1.6486980277,
				"z": 3.1698429235,
				"element": "H" 
			},
			{
				"x": 1.5118078613,
				"y": 2.7586609308,
				"z": 0.7798424311,
				"element": "H" 
			},
			{
				"x": 0.878125562,
				"y": 2.8084218274,
				"z": 3.7742918012,
				"element": "H" 
			},
			{
				"x": -0.173324079,
				"y": 3.4002111461,
				"z": 2.4743908107,
				"element": "H" 
			},
			{
				"x": 1.3699652368,
				"y": 4.2151082495,
				"z": 2.8081869295,
				"element": "H" 
			},
			{
				"x": -0.3687929986,
				"y": -1.1276952093,
				"z": 1.8526766512,
				"element": "H" 
			},
			{
				"x": -0.3884622295,
				"y": -2.8631971786,
				"z": 0.0794657266,
				"element": "H" 
			},
			{
				"x": 0.8024795645,
				"y": -3.8088995999,
				"z": -1.9454409257,
				"element": "H" 
			},
			{
				"x": 1.7698992647,
				"y": -2.7653703635,
				"z": -2.9619394507,
				"element": "H" 
			},
			{
				"x": -0.3192990686,
				"y": -1.6117521653,
				"z": -3.768990231,
				"element": "H" 
			},
			{
				"x": -1.2893852574,
				"y": -2.6589880077,
				"z": -2.7513664454,
				"element": "H" 
			},
			{
				"x": -2.002403611,
				"y": -2.7816306793,
				"z": -5.0327467969,
				"element": "H" 
			},
			{
				"x": 2.1839598618,
				"y": -0.4069068344,
				"z": -2.3231668163,
				"element": "H" 
			},
			{
				"x": 2.2130837778,
				"y": 1.3049926518,
				"z": -0.5764665536,
				"element": "H" 
			}
		],
		 "valence_orbital": [ 
			{
				"type": "occ",
				"energy": -0.31393,
				"method": "rhf"
			},
			{
				"type": "occ",
				"energy": -0.30943,
				"method": "rhf"
			},
			{
				"type": "occ",
				"energy": -0.27052,
				"method": "rhf"
			},
			{
				"type": "occ",
				"energy": -0.25127,
				"method": "rhf"
			},
			{
				"type": "occ",
				"energy": -0.21355,
				"method": "rhf"
			},
			{
				"type": "unocc",
				"energy": -0.00465,
				"method": "rhf"
			},
			{
				"type": "unocc",
				"energy": 0.01083,
				"method": "rhf"
			},
			{
				"type": "unocc",
				"energy": 0.01382,
				"method": "rhf"
			},
			{
				"type": "unocc",
				"energy": 0.05693,
				"method": "rhf"
			},
			{
				"type": "unocc",
				"energy": 0.08582,
				"method": "rhf"
			}
		],
		"cosmo_sigma_profile": { 
			"-0.025": 0.0,
			"-0.024": 0.0,
			"-0.023": 0.0,
			"-0.022": 0.0,
			"-0.021": 0.0,
			"-0.02": 0.0,
			"-0.019": 0.313655091644,
			"-0.018": 1.19371114041,
			"-0.017": 0.862434760302,
			"-0.016": 1.20106682962,
			"-0.015": 0.984085120173,
			"-0.014": 1.92432019117,
			"-0.013": 0.798890609565,
			"-0.012": 0.459021126465,
			"-0.011": 1.61651592751,
			"-0.01": 1.16482272625,
			"-0.009": 1.09185601299,
			"-0.008": 2.10653718046,
			"-0.007": 3.87546630556,
			"-0.006": 6.78684793238,
			"-0.005": 14.8015091571,
			"-0.004": 27.2377559944,
			"-0.003": 30.0161424099,
			"-0.002": 23.7504120724,
			"-0.001": 20.1592829478,
			"0.0": 23.4314372082,
			"0.001": 17.5887767488,
			"0.002": 9.58264451505,
			"0.003": 11.2857979773,
			"0.004": 11.9305624261,
			"0.005": 11.7034699824,
			"0.006": 12.4985784733,
			"0.007": 4.26842984664,
			"0.008": 4.25852584676,
			"0.009": 4.95071111571,
			"0.01": 5.67239392,
			"0.011": 6.0618322313,
			"0.012": 5.74954079004,
			"0.013": 2.14867336345,
			"0.014": 0.106253959927,
			"0.015": 0.0,
			"0.016": 0.0,
			"0.017": 0.0,
			"0.018": 0.0,
			"0.019": 0.0,
			"0.02": 0.0,
			"0.021": 0.0,
			"0.022": 0.0,
			"0.023": 0.0,
			"0.024": 0.0,
			"0.025": 0.0
		}
	}
}
