{
	 "smiles": "NCC1=CC2=C(OCC2)C=C1", 
	 "Tm": 312.15, 
	 "num_atms": 22, 
	 "gaussian": { 
		 "optdone": 1, 
		 "sigma_profile": "yes", 
		 "theory": "DFT", 
		 "functional": "B3LYP", 
		 "basiset": "6-31G**", 
		 "properties": { 
			 "R2extent": 2254.9882, 
			 "electric_dipole_moment_norm": 1.31723657329, 
			 "electric_quadrupole_moment_norm": 11.3371613568, 
			 "total_energy": -479.550893893, 
			 "HOMO_LUMO_gap": 0.20379, 
			 "cosmo_polarized_energy": -8.46, 
			 "cosmo_cavitation_energy": 24.59, 
			 "cosmo_dispersion_energy": -18.71, 
			 "cosmo_repulsion_energy": 1.54, 
			 "cosmo_total_nonelectrostatic_energy": 7.42, 
			 "SMD_solvation_energy": 3.24 
		},
		"coords": [
			{
				"x": 0.1188583839,
				"y": 3.0579619335,
				"z": -1.1508706714,
				"element": "N" 
			},
			{
				"x": 1.1647407436,
				"y": 2.0473791197,
				"z": -1.3531900281,
				"element": "C" 
			},
			{
				"x": 0.9784085401,
				"y": 0.8599992814,
				"z": -0.4279087271,
				"element": "C" 
			},
			{
				"x": 0.5976351077,
				"y": 1.0574682279,
				"z": 0.91238064,
				"element": "C" 
			},
			{
				"x": 0.4561096613,
				"y": -0.0379587334,
				"z": 1.7514426393,
				"element": "C" 
			},
			{
				"x": 0.6973441066,
				"y": -1.3276649755,
				"z": 1.2677536164,
				"element": "C" 
			},
			{
				"x": 0.5239102758,
				"y": -2.3031584237,
				"z": 2.2103301716,
				"element": "O" 
			},
			{
				"x": -0.0869481771,
				"y": -1.680213447,
				"z": 3.3686854793,
				"element": "C" 
			},
			{
				"x": 0.1157526482,
				"y": -0.1522529179,
				"z": 3.2215689843,
				"element": "C" 
			},
			{
				"x": 1.0762648255,
				"y": -1.5587981792,
				"z": -0.0485249004,
				"element": "C" 
			},
			{
				"x": 1.2086768702,
				"y": -0.4435324381,
				"z": -0.8848372491,
				"element": "C" 
			},
			{
				"x": 0.2952871491,
				"y": 3.8641056411,
				"z": -1.7451233322,
				"element": "H" 
			},
			{
				"x": -0.7824505985,
				"y": 2.6774028826,
				"z": -1.4304737433,
				"element": "H" 
			},
			{
				"x": 1.2409316908,
				"y": 1.6755964838,
				"z": -2.3899021017,
				"element": "H" 
			},
			{
				"x": 2.125300038,
				"y": 2.5360866891,
				"z": -1.136012658,
				"element": "H" 
			},
			{
				"x": 0.4060839465,
				"y": 2.0679428908,
				"z": 1.2609135739,
				"element": "H" 
			},
			{
				"x": -1.1521248016,
				"y": -1.9433204745,
				"z": 3.3715816082,
				"element": "H" 
			},
			{
				"x": 0.3817598118,
				"y": -2.1051825821,
				"z": 4.2591654287,
				"element": "H" 
			},
			{
				"x": 0.9412448939,
				"y": 0.2086667138,
				"z": 3.8482331098,
				"element": "H" 
			},
			{
				"x": -0.7804178381,
				"y": 0.4062848042,
				"z": 3.5089683397,
				"element": "H" 
			},
			{
				"x": 1.248494481,
				"y": -2.5667490107,
				"z": -0.4102678417,
				"element": "H" 
			},
			{
				"x": 1.4933382415,
				"y": -0.5968634858,
				"z": -1.9233123382,
				"element": "H" 
			}
		],
		 "valence_orbital": [ 
			{
				"type": "occ",
				"energy": -0.3194,
				"method": "rhf"
			},
			{
				"type": "occ",
				"energy": -0.29906,
				"method": "rhf"
			},
			{
				"type": "occ",
				"energy": -0.24033,
				"method": "rhf"
			},
			{
				"type": "occ",
				"energy": -0.23275,
				"method": "rhf"
			},
			{
				"type": "occ",
				"energy": -0.20038,
				"method": "rhf"
			},
			{
				"type": "unocc",
				"energy": 0.00341,
				"method": "rhf"
			},
			{
				"type": "unocc",
				"energy": 0.02002,
				"method": "rhf"
			},
			{
				"type": "unocc",
				"energy": 0.09206,
				"method": "rhf"
			},
			{
				"type": "unocc",
				"energy": 0.10015,
				"method": "rhf"
			},
			{
				"type": "unocc",
				"energy": 0.11471,
				"method": "rhf"
			}
		],
		"cosmo_sigma_profile": { 
			"-0.025": 0.0,
			"-0.024": 0.0,
			"-0.023": 0.0,
			"-0.022": 0.0,
			"-0.021": 0.0,
			"-0.02": 0.0,
			"-0.019": 0.0,
			"-0.018": 0.0,
			"-0.017": 0.0,
			"-0.016": 0.0,
			"-0.015": 0.0,
			"-0.014": 0.0,
			"-0.013": 0.0,
			"-0.012": 0.0,
			"-0.011": 0.0,
			"-0.01": 0.764768330875,
			"-0.009": 2.94590217234,
			"-0.008": 2.03716472171,
			"-0.007": 3.19399129725,
			"-0.006": 5.11710648272,
			"-0.005": 14.4896677296,
			"-0.004": 20.7813307614,
			"-0.003": 22.8847397547,
			"-0.002": 19.9217195461,
			"-0.001": 17.1245915044,
			"0.0": 10.1405183692,
			"0.001": 8.08112396125,
			"0.002": 8.55568294149,
			"0.003": 9.0655567338,
			"0.004": 10.904402029,
			"0.005": 9.648296247,
			"0.006": 10.0837628435,
			"0.007": 3.70866489768,
			"0.008": 2.15582292035,
			"0.009": 2.62326075422,
			"0.01": 2.19551196589,
			"0.011": 2.66843635281,
			"0.012": 1.48095100225,
			"0.013": 0.815361564464,
			"0.014": 0.523140747917,
			"0.015": 0.198909002915,
			"0.016": 0.892327945678,
			"0.017": 0.430280732046,
			"0.018": 0.08102171935,
			"0.019": 0.0,
			"0.02": 0.0,
			"0.021": 0.0,
			"0.022": 0.0,
			"0.023": 0.0,
			"0.024": 0.0,
			"0.025": 0.0
		}
	}
}
