{
	 "smiles": "CC(C)C1=CC(O)=C(O)C=C1", 
	 "Tm": 351.15, 
	 "num_atms": 23, 
	 "gaussian": { 
		 "optdone": 1, 
		 "sigma_profile": "yes", 
		 "theory": "DFT", 
		 "functional": "B3LYP", 
		 "basiset": "6-31G**", 
		 "properties": { 
			 "R2extent": 2327.3047, 
			 "electric_dipole_moment_norm": 2.51906987001, 
			 "electric_quadrupole_moment_norm": 9.98963690932, 
			 "total_energy": -500.642651913, 
			 "HOMO_LUMO_gap": 0.20949, 
			 "cosmo_polarized_energy": -9.96, 
			 "cosmo_cavitation_energy": 25.77, 
			 "cosmo_dispersion_energy": -18.79, 
			 "cosmo_repulsion_energy": 1.53, 
			 "cosmo_total_nonelectrostatic_energy": 8.51, 
			 "SMD_solvation_energy": 5.1 
		},
		"coords": [
			{
				"x": -1.5036730507,
				"y": -1.4824743225,
				"z": 0.7558834944,
				"element": "C" 
			},
			{
				"x": -0.2562867585,
				"y": -1.5005460506,
				"z": -0.1478794489,
				"element": "C" 
			},
			{
				"x": 0.8633841901,
				"y": -2.3556272815,
				"z": 0.4752162772,
				"element": "C" 
			},
			{
				"x": 0.2208818027,
				"y": -0.0961452559,
				"z": -0.4930129041,
				"element": "C" 
			},
			{
				"x": 0.6656149792,
				"y": 0.7856972014,
				"z": 0.5072948745,
				"element": "C" 
			},
			{
				"x": 1.0997627606,
				"y": 2.0655040692,
				"z": 0.1859277855,
				"element": "C" 
			},
			{
				"x": 1.5502590438,
				"y": 2.9894623413,
				"z": 1.1041804936,
				"element": "O" 
			},
			{
				"x": 1.1041496359,
				"y": 2.5082059433,
				"z": -1.1485389367,
				"element": "C" 
			},
			{
				"x": 1.5312674351,
				"y": 3.7656221221,
				"z": -1.4601055769,
				"element": "O" 
			},
			{
				"x": 0.6659586707,
				"y": 1.6430897799,
				"z": -2.1451267315,
				"element": "C" 
			},
			{
				"x": 0.2300498993,
				"y": 0.3559724048,
				"z": -1.8158300108,
				"element": "C" 
			},
			{
				"x": -2.3145833714,
				"y": -0.9068472779,
				"z": 0.2991636352,
				"element": "H" 
			},
			{
				"x": -1.2828503905,
				"y": -1.0311525768,
				"z": 1.7299497957,
				"element": "H" 
			},
			{
				"x": -1.8665465565,
				"y": -2.5001158885,
				"z": 0.9383841862,
				"element": "H" 
			},
			{
				"x": -0.5443443872,
				"y": -1.977377822,
				"z": -1.0939600182,
				"element": "H" 
			},
			{
				"x": 1.1905286361,
				"y": -1.9435736856,
				"z": 1.4367062516,
				"element": "H" 
			},
			{
				"x": 0.5163976396,
				"y": -3.3791361347,
				"z": 0.6557916113,
				"element": "H" 
			},
			{
				"x": 1.737675081,
				"y": -2.4015817308,
				"z": -0.1813055614,
				"element": "H" 
			},
			{
				"x": 0.674511655,
				"y": 0.4730511564,
				"z": 1.5502329729,
				"element": "H" 
			},
			{
				"x": 1.5163548366,
				"y": 2.6107428892,
				"z": 1.9909185904,
				"element": "H" 
			},
			{
				"x": 1.7891568639,
				"y": 4.1965456277,
				"z": -0.6316868255,
				"element": "H" 
			},
			{
				"x": 0.6718248196,
				"y": 1.990910634,
				"z": -3.17311045,
				"element": "H" 
			},
			{
				"x": -0.1088934344,
				"y": -0.3064261426,
				"z": -2.6078935045,
				"element": "H" 
			}
		],
		 "valence_orbital": [ 
			{
				"type": "occ",
				"energy": -0.3255,
				"method": "rhf"
			},
			{
				"type": "occ",
				"energy": -0.32191,
				"method": "rhf"
			},
			{
				"type": "occ",
				"energy": -0.30948,
				"method": "rhf"
			},
			{
				"type": "occ",
				"energy": -0.23309,
				"method": "rhf"
			},
			{
				"type": "occ",
				"energy": -0.2015,
				"method": "rhf"
			},
			{
				"type": "unocc",
				"energy": 0.00799,
				"method": "rhf"
			},
			{
				"type": "unocc",
				"energy": 0.02348,
				"method": "rhf"
			},
			{
				"type": "unocc",
				"energy": 0.05591,
				"method": "rhf"
			},
			{
				"type": "unocc",
				"energy": 0.085,
				"method": "rhf"
			},
			{
				"type": "unocc",
				"energy": 0.11174,
				"method": "rhf"
			}
		],
		"cosmo_sigma_profile": { 
			"-0.025": 0.0,
			"-0.024": 0.0,
			"-0.023": 0.0,
			"-0.022": 0.0,
			"-0.021": 0.0,
			"-0.02": 0.0,
			"-0.019": 0.0,
			"-0.018": 0.63227538133,
			"-0.017": 1.00048986705,
			"-0.016": 1.20596724044,
			"-0.015": 1.31342708103,
			"-0.014": 0.834798268121,
			"-0.013": 1.79280311568,
			"-0.012": 1.05377716478,
			"-0.011": 1.5215181238,
			"-0.01": 2.35527147022,
			"-0.009": 1.55828054717,
			"-0.008": 1.77952017171,
			"-0.007": 0.78127285716,
			"-0.006": 3.21137000662,
			"-0.005": 6.19312725049,
			"-0.004": 9.26893809365,
			"-0.003": 14.4967883914,
			"-0.002": 18.9453827123,
			"-0.001": 19.419692748,
			"0.0": 20.6883624702,
			"0.001": 21.1191319056,
			"0.002": 14.6721302258,
			"0.003": 11.1168361712,
			"0.004": 11.0322607326,
			"0.005": 11.0634938984,
			"0.006": 10.1888431678,
			"0.007": 5.98898002106,
			"0.008": 2.06628978853,
			"0.009": 1.45559852376,
			"0.01": 1.42085881032,
			"0.011": 1.99377560023,
			"0.012": 1.75465232423,
			"0.013": 0.0418030863752,
			"0.014": 0.0,
			"0.015": 0.0,
			"0.016": 0.0,
			"0.017": 0.0,
			"0.018": 0.0,
			"0.019": 0.0,
			"0.02": 0.0,
			"0.021": 0.0,
			"0.022": 0.0,
			"0.023": 0.0,
			"0.024": 0.0,
			"0.025": 0.0
		}
	}
}
