{
	 "smiles": "CCOC(=O)C1=CC2=CC=CC=C2OC1=S", 
	 "Tm": 364.15, 
	 "num_atms": 26, 
	 "gaussian": { 
		 "optdone": 1, 
		 "sigma_profile": "yes", 
		 "theory": "DFT", 
		 "functional": "B3LYP", 
		 "basiset": "6-31G**", 
		 "properties": { 
			 "R2extent": 5002.6675, 
			 "electric_dipole_moment_norm": 4.54401083295, 
			 "electric_quadrupole_moment_norm": 22.9672585645, 
			 "total_energy": -1087.16005926, 
			 "HOMO_LUMO_gap": 0.12164, 
			 "cosmo_polarized_energy": -14.92, 
			 "cosmo_cavitation_energy": 32.64, 
			 "cosmo_dispersion_energy": -23.93, 
			 "cosmo_repulsion_energy": 1.83, 
			 "cosmo_total_nonelectrostatic_energy": 10.54, 
			 "SMD_solvation_energy": 6.02 
		},
		"coords": [
			{
				"x": 5.091811666,
				"y": -0.2672660554,
				"z": -0.0587472313,
				"element": "C" 
			},
			{
				"x": 4.3711635549,
				"y": -0.1317546844,
				"z": -1.3912643743,
				"element": "C" 
			},
			{
				"x": 2.9481294211,
				"y": 0.0669837912,
				"z": -1.1995977496,
				"element": "O" 
			},
			{
				"x": 2.1948131933,
				"y": -1.0304060207,
				"z": -1.0926177846,
				"element": "C" 
			},
			{
				"x": 2.6276770565,
				"y": -2.1681322794,
				"z": -1.0713141225,
				"element": "O" 
			},
			{
				"x": 0.7321954124,
				"y": -0.7324141562,
				"z": -0.9023895949,
				"element": "C" 
			},
			{
				"x": 0.0534698996,
				"y": -1.6213990616,
				"z": -0.1174371326,
				"element": "C" 
			},
			{
				"x": -1.3258640624,
				"y": -1.4371933555,
				"z": 0.2117693367,
				"element": "C" 
			},
			{
				"x": -2.0754673275,
				"y": -2.3025806666,
				"z": 1.0338009131,
				"element": "C" 
			},
			{
				"x": -3.400965202,
				"y": -2.0162519206,
				"z": 1.3229342128,
				"element": "C" 
			},
			{
				"x": -3.9998131729,
				"y": -0.8576046623,
				"z": 0.7982878001,
				"element": "C" 
			},
			{
				"x": -3.2834315739,
				"y": 0.0124979897,
				"z": -0.0162380663,
				"element": "C" 
			},
			{
				"x": -1.9512283634,
				"y": -0.28893188,
				"z": -0.3064990168,
				"element": "C" 
			},
			{
				"x": -1.275705453,
				"y": 0.5659019914,
				"z": -1.1222525598,
				"element": "O" 
			},
			{
				"x": 0.0346085456,
				"y": 0.3866969278,
				"z": -1.5239047567,
				"element": "C" 
			},
			{
				"x": 0.5852581538,
				"y": 1.4141210545,
				"z": -2.685918512,
				"element": "S" 
			},
			{
				"x": 6.1719402143,
				"y": -0.3302925109,
				"z": -0.2277501671,
				"element": "H" 
			},
			{
				"x": 4.8946790774,
				"y": 0.5983552318,
				"z": 0.5803507467,
				"element": "H" 
			},
			{
				"x": 4.7730593966,
				"y": -1.1738848311,
				"z": 0.4614230974,
				"element": "H" 
			},
			{
				"x": 4.6917254599,
				"y": 0.7592788546,
				"z": -1.9350957587,
				"element": "H" 
			},
			{
				"x": 4.5215389027,
				"y": -1.0153031582,
				"z": -2.0154679992,
				"element": "H" 
			},
			{
				"x": 0.5908060431,
				"y": -2.4815857794,
				"z": 0.2709562362,
				"element": "H" 
			},
			{
				"x": -1.5976169557,
				"y": -3.1913678603,
				"z": 1.4358007463,
				"element": "H" 
			},
			{
				"x": -3.9770834685,
				"y": -2.683972314,
				"z": 1.9550916809,
				"element": "H" 
			},
			{
				"x": -5.0376509806,
				"y": -0.6370336889,
				"z": 1.0286903666,
				"element": "H" 
			},
			{
				"x": -3.7276494372,
				"y": 0.9086390444,
				"z": -0.4347103102,
				"element": "H" 
			}
		],
		 "valence_orbital": [ 
			{
				"type": "occ",
				"energy": -0.30045,
				"method": "rhf"
			},
			{
				"type": "occ",
				"energy": -0.28157,
				"method": "rhf"
			},
			{
				"type": "occ",
				"energy": -0.26658,
				"method": "rhf"
			},
			{
				"type": "occ",
				"energy": -0.22624,
				"method": "rhf"
			},
			{
				"type": "occ",
				"energy": -0.21485,
				"method": "rhf"
			},
			{
				"type": "unocc",
				"energy": -0.09321,
				"method": "rhf"
			},
			{
				"type": "unocc",
				"energy": -0.04622,
				"method": "rhf"
			},
			{
				"type": "unocc",
				"energy": -0.01885,
				"method": "rhf"
			},
			{
				"type": "unocc",
				"energy": 0.00824,
				"method": "rhf"
			},
			{
				"type": "unocc",
				"energy": 0.06935,
				"method": "rhf"
			}
		],
		"cosmo_sigma_profile": { 
			"-0.025": 0.0,
			"-0.024": 0.0,
			"-0.023": 0.0,
			"-0.022": 0.0,
			"-0.021": 0.0,
			"-0.02": 0.0,
			"-0.019": 0.0,
			"-0.018": 0.0,
			"-0.017": 0.0,
			"-0.016": 0.0,
			"-0.015": 0.0,
			"-0.014": 0.0,
			"-0.013": 0.0,
			"-0.012": 0.0,
			"-0.011": 0.0,
			"-0.01": 0.61735806949,
			"-0.009": 2.37146487951,
			"-0.008": 5.13470674901,
			"-0.007": 10.2329730578,
			"-0.006": 14.1281459226,
			"-0.005": 17.1177952589,
			"-0.004": 21.05530196,
			"-0.003": 22.2162114351,
			"-0.002": 24.0616115956,
			"-0.001": 22.7823683737,
			"0.0": 22.2251408307,
			"0.001": 16.5843228452,
			"0.002": 15.6259738865,
			"0.003": 9.80934581038,
			"0.004": 7.14055483877,
			"0.005": 6.12086688127,
			"0.006": 9.58841522578,
			"0.007": 8.84353517253,
			"0.008": 6.39299888362,
			"0.009": 7.20252904709,
			"0.01": 6.24213910701,
			"0.011": 6.47240884203,
			"0.012": 2.47134990734,
			"0.013": 0.0,
			"0.014": 0.0,
			"0.015": 0.0,
			"0.016": 0.0,
			"0.017": 0.0,
			"0.018": 0.0,
			"0.019": 0.0,
			"0.02": 0.0,
			"0.021": 0.0,
			"0.022": 0.0,
			"0.023": 0.0,
			"0.024": 0.0,
			"0.025": 0.0
		}
	}
}
