{
	 "smiles": "CC1=NC(COC2=C(C=CC=C2)C(O)=O)=CS1", 
	 "Tm": 290.15, 
	 "num_atms": 28, 
	 "gaussian": { 
		 "optdone": 1, 
		 "sigma_profile": "yes", 
		 "theory": "DFT", 
		 "functional": "B3LYP", 
		 "basiset": "6-31G**", 
		 "properties": { 
			 "R2extent": 6277.0823, 
			 "electric_dipole_moment_norm": 3.76427109146, 
			 "electric_quadrupole_moment_norm": 21.6398578852, 
			 "total_energy": -1142.50419614, 
			 "HOMO_LUMO_gap": 0.19008, 
			 "cosmo_polarized_energy": -17.78, 
			 "cosmo_cavitation_energy": 34.66, 
			 "cosmo_dispersion_energy": -25.26, 
			 "cosmo_repulsion_energy": 1.94, 
			 "cosmo_total_nonelectrostatic_energy": 11.34, 
			 "SMD_solvation_energy": 5.4 
		},
		"coords": [
			{
				"x": 2.3957674597,
				"y": -1.9377677508,
				"z": 2.3380182672,
				"element": "C" 
			},
			{
				"x": 0.9566052699,
				"y": -1.7625046652,
				"z": 1.960012753,
				"element": "C" 
			},
			{
				"x": 0.5269558675,
				"y": -0.9249567611,
				"z": 1.064362657,
				"element": "N" 
			},
			{
				"x": -0.8481688355,
				"y": -0.9776356961,
				"z": 0.9296458837,
				"element": "C" 
			},
			{
				"x": -1.5285298231,
				"y": -0.0820050769,
				"z": -0.0585614659,
				"element": "C" 
			},
			{
				"x": -1.2352780081,
				"y": -0.5707983433,
				"z": -1.3829855581,
				"element": "O" 
			},
			{
				"x": -0.9946988194,
				"y": 0.2759588807,
				"z": -2.4148977594,
				"element": "C" 
			},
			{
				"x": -1.6495215946,
				"y": 1.506423592,
				"z": -2.6561493597,
				"element": "C" 
			},
			{
				"x": -1.2576647533,
				"y": 2.2668031682,
				"z": -3.7779789023,
				"element": "C" 
			},
			{
				"x": -0.2723330064,
				"y": 1.8306990074,
				"z": -4.653225151,
				"element": "C" 
			},
			{
				"x": 0.3533492867,
				"y": 0.6025064919,
				"z": -4.4137791192,
				"element": "C" 
			},
			{
				"x": 0.0004940299,
				"y": -0.1569501676,
				"z": -3.3067138293,
				"element": "C" 
			},
			{
				"x": -2.8403158705,
				"y": 1.9641228509,
				"z": -1.8741884621,
				"element": "C" 
			},
			{
				"x": -2.9484392837,
				"y": 3.312625989,
				"z": -1.7004903634,
				"element": "O" 
			},
			{
				"x": -3.7048475749,
				"y": 1.2375559647,
				"z": -1.4412443285,
				"element": "O" 
			},
			{
				"x": -1.4818028183,
				"y": -1.8736506586,
				"z": 1.7425289315,
				"element": "C" 
			},
			{
				"x": -0.3270166642,
				"y": -2.7041163507,
				"z": 2.7312450512,
				"element": "S" 
			},
			{
				"x": 2.7364565294,
				"y": -2.9628649623,
				"z": 2.1580503428,
				"element": "H" 
			},
			{
				"x": 2.5642510225,
				"y": -1.7124033197,
				"z": 3.3964183714,
				"element": "H" 
			},
			{
				"x": 2.997149559,
				"y": -1.2564156018,
				"z": 1.7334943438,
				"element": "H" 
			},
			{
				"x": -1.1462865187,
				"y": 0.9404985636,
				"z": 0.0437431415,
				"element": "H" 
			},
			{
				"x": -2.6087728898,
				"y": -0.0683945272,
				"z": 0.0932954113,
				"element": "H" 
			},
			{
				"x": -1.7858153227,
				"y": 3.1918698342,
				"z": -3.9944608974,
				"element": "H" 
			},
			{
				"x": -0.005872878,
				"y": 2.4292993513,
				"z": -5.5181712179,
				"element": "H" 
			},
			{
				"x": 1.1271784258,
				"y": 0.2429418498,
				"z": -5.0857834975,
				"element": "H" 
			},
			{
				"x": 0.4911293064,
				"y": -1.0985658282,
				"z": -3.0853958763,
				"element": "H" 
			},
			{
				"x": -2.1239203658,
				"y": 3.7405743676,
				"z": -1.9718165857,
				"element": "H" 
			},
			{
				"x": -2.5393517299,
				"y": -2.0879502015,
				"z": 1.8052272191,
				"element": "H" 
			}
		],
		 "valence_orbital": [ 
			{
				"type": "occ",
				"energy": -0.2764,
				"method": "rhf"
			},
			{
				"type": "occ",
				"energy": -0.27443,
				"method": "rhf"
			},
			{
				"type": "occ",
				"energy": -0.2628,
				"method": "rhf"
			},
			{
				"type": "occ",
				"energy": -0.2448,
				"method": "rhf"
			},
			{
				"type": "occ",
				"energy": -0.23214,
				"method": "rhf"
			},
			{
				"type": "unocc",
				"energy": -0.04206,
				"method": "rhf"
			},
			{
				"type": "unocc",
				"energy": -0.02601,
				"method": "rhf"
			},
			{
				"type": "unocc",
				"energy": -0.0099,
				"method": "rhf"
			},
			{
				"type": "unocc",
				"energy": 0.01675,
				"method": "rhf"
			},
			{
				"type": "unocc",
				"energy": 0.03603,
				"method": "rhf"
			}
		],
		"cosmo_sigma_profile": { 
			"-0.025": 0.0,
			"-0.024": 0.0,
			"-0.023": 0.0,
			"-0.022": 0.0,
			"-0.021": 0.0,
			"-0.02": 0.0,
			"-0.019": 0.0,
			"-0.018": 0.656326472574,
			"-0.017": 0.886988812959,
			"-0.016": 1.05091073937,
			"-0.015": 0.896566153644,
			"-0.014": 0.820668404872,
			"-0.013": 1.23161056632,
			"-0.012": 0.835284755033,
			"-0.011": 1.03272333658,
			"-0.01": 1.30170030863,
			"-0.009": 3.14192229471,
			"-0.008": 4.40259826645,
			"-0.007": 8.72617727625,
			"-0.006": 17.3077877311,
			"-0.005": 20.3235000236,
			"-0.004": 20.4523002864,
			"-0.003": 17.4518406305,
			"-0.002": 17.2751102385,
			"-0.001": 17.533761501,
			"0.0": 14.3939380455,
			"0.001": 19.1739803643,
			"0.002": 23.8802691632,
			"0.003": 22.1071243672,
			"0.004": 14.6885374943,
			"0.005": 5.50056475712,
			"0.006": 5.21036948251,
			"0.007": 5.02047932321,
			"0.008": 7.49505779199,
			"0.009": 6.2872025513,
			"0.01": 7.19200709886,
			"0.011": 5.82630184093,
			"0.012": 4.40953321296,
			"0.013": 1.82136819528,
			"0.014": 0.702517211208,
			"0.015": 0.379680938583,
			"0.016": 0.0,
			"0.017": 0.0,
			"0.018": 0.0,
			"0.019": 0.0,
			"0.02": 0.0,
			"0.021": 0.0,
			"0.022": 0.0,
			"0.023": 0.0,
			"0.024": 0.0,
			"0.025": 0.0
		}
	}
}
