{
	 "smiles": "CCOC(=O)C1=C(C)NC(=O)NC1C1=CC=CO1", 
	 "Tm": 479.15, 
	 "num_atms": 32, 
	 "gaussian": { 
		 "optdone": 1, 
		 "sigma_profile": "yes", 
		 "theory": "DFT", 
		 "functional": "B3LYP", 
		 "basiset": "6-31G**", 
		 "properties": { 
			 "R2extent": 4764.7611, 
			 "electric_dipole_moment_norm": 3.32369647832, 
			 "electric_quadrupole_moment_norm": 15.6935852468, 
			 "total_energy": -876.122395718, 
			 "HOMO_LUMO_gap": 0.17832, 
			 "cosmo_polarized_energy": -17.76, 
			 "cosmo_cavitation_energy": 36.06, 
			 "cosmo_dispersion_energy": -25.01, 
			 "cosmo_repulsion_energy": 1.97, 
			 "cosmo_total_nonelectrostatic_energy": 13.02, 
			 "SMD_solvation_energy": 8.03 
		},
		"coords": [
			{
				"x": -1.6579748712,
				"y": -3.9268097455,
				"z": 1.0948613213,
				"element": "C" 
			},
			{
				"x": -2.1655686007,
				"y": -2.8893453327,
				"z": 0.1042303789,
				"element": "C" 
			},
			{
				"x": -1.6516151102,
				"y": -1.5709683037,
				"z": 0.4048201285,
				"element": "O" 
			},
			{
				"x": -0.4178611148,
				"y": -1.2811499498,
				"z": -0.0898504583,
				"element": "C" 
			},
			{
				"x": 0.229437396,
				"y": -2.0812965612,
				"z": -0.7504821563,
				"element": "O" 
			},
			{
				"x": 0.0726159967,
				"y": 0.0589891872,
				"z": 0.2432996373,
				"element": "C" 
			},
			{
				"x": -0.5679113398,
				"y": 0.9991110668,
				"z": 0.9952139646,
				"element": "C" 
			},
			{
				"x": -1.9492649339,
				"y": 0.900190266,
				"z": 1.5922980448,
				"element": "C" 
			},
			{
				"x": 0.0887195008,
				"y": 2.181069414,
				"z": 1.2788251468,
				"element": "N" 
			},
			{
				"x": 1.4559056337,
				"y": 2.4193117461,
				"z": 1.0825813025,
				"element": "C" 
			},
			{
				"x": 1.9831221857,
				"y": 3.4414868576,
				"z": 1.492989915,
				"element": "O" 
			},
			{
				"x": 2.1109055227,
				"y": 1.3868959043,
				"z": 0.4694893475,
				"element": "N" 
			},
			{
				"x": 1.4327546779,
				"y": 0.3853724042,
				"z": -0.3639016702,
				"element": "C" 
			},
			{
				"x": 1.3366769592,
				"y": 0.8125657201,
				"z": -1.8038481492,
				"element": "C" 
			},
			{
				"x": 1.7003583968,
				"y": 0.2196342426,
				"z": -2.9769205097,
				"element": "C" 
			},
			{
				"x": 1.32858167,
				"y": 1.1262554754,
				"z": -4.0244900923,
				"element": "C" 
			},
			{
				"x": 0.7684264533,
				"y": 2.2032751959,
				"z": -3.4096073092,
				"element": "C" 
			},
			{
				"x": 0.7619074639,
				"y": 2.0297610259,
				"z": -2.0562736507,
				"element": "O" 
			},
			{
				"x": -2.1230281605,
				"y": -4.8967754832,
				"z": 0.8886257798,
				"element": "H" 
			},
			{
				"x": -1.9043735253,
				"y": -3.6402177394,
				"z": 2.1217897644,
				"element": "H" 
			},
			{
				"x": -0.5749559487,
				"y": -4.039643985,
				"z": 1.0076815918,
				"element": "H" 
			},
			{
				"x": -1.8850896961,
				"y": -3.1532443913,
				"z": -0.9178969794,
				"element": "H" 
			},
			{
				"x": -3.2511253505,
				"y": -2.7767628208,
				"z": 0.1655092709,
				"element": "H" 
			},
			{
				"x": -2.6830244086,
				"y": 0.6162202625,
				"z": 0.8377926909,
				"element": "H" 
			},
			{
				"x": -2.2444991146,
				"y": 1.8557457367,
				"z": 2.0351179921,
				"element": "H" 
			},
			{
				"x": -1.9812412087,
				"y": 0.1328483218,
				"z": 2.3701121563,
				"element": "H" 
			},
			{
				"x": -0.3725182912,
				"y": 2.9012683783,
				"z": 1.814567957,
				"element": "H" 
			},
			{
				"x": 3.0656523725,
				"y": 1.6171776436,
				"z": 0.2285268856,
				"element": "H" 
			},
			{
				"x": 2.0289059929,
				"y": -0.5304761512,
				"z": -0.3549551304,
				"element": "H" 
			},
			{
				"x": 2.1579397895,
				"y": -0.7536303938,
				"z": -3.078521963,
				"element": "H" 
			},
			{
				"x": 1.4644174533,
				"y": 0.9913034959,
				"z": -5.0879484381,
				"element": "H" 
			},
			{
				"x": 0.3535242099,
				"y": 3.1334385126,
				"z": -3.7658367694,
				"element": "H" 
			}
		],
		 "valence_orbital": [ 
			{
				"type": "occ",
				"energy": -0.27126,
				"method": "rhf"
			},
			{
				"type": "occ",
				"energy": -0.26811,
				"method": "rhf"
			},
			{
				"type": "occ",
				"energy": -0.2574,
				"method": "rhf"
			},
			{
				"type": "occ",
				"energy": -0.22834,
				"method": "rhf"
			},
			{
				"type": "occ",
				"energy": -0.21719,
				"method": "rhf"
			},
			{
				"type": "unocc",
				"energy": -0.03887,
				"method": "rhf"
			},
			{
				"type": "unocc",
				"energy": 0.01375,
				"method": "rhf"
			},
			{
				"type": "unocc",
				"energy": 0.05792,
				"method": "rhf"
			},
			{
				"type": "unocc",
				"energy": 0.07197,
				"method": "rhf"
			},
			{
				"type": "unocc",
				"energy": 0.07915,
				"method": "rhf"
			}
		],
		"cosmo_sigma_profile": { 
			"-0.025": 0.0,
			"-0.024": 0.0,
			"-0.023": 0.0,
			"-0.022": 0.0,
			"-0.021": 0.0,
			"-0.02": 0.0,
			"-0.019": 0.0,
			"-0.018": 0.0,
			"-0.017": 0.0,
			"-0.016": 0.0873137259739,
			"-0.015": 1.31453120142,
			"-0.014": 2.20058647421,
			"-0.013": 2.39088130545,
			"-0.012": 2.31556716354,
			"-0.011": 1.73195165576,
			"-0.01": 1.84436817834,
			"-0.009": 3.32865946547,
			"-0.008": 3.54327074266,
			"-0.007": 6.89133280118,
			"-0.006": 9.66198293289,
			"-0.005": 13.3829676048,
			"-0.004": 22.8447914456,
			"-0.003": 23.9911864047,
			"-0.002": 24.4584723491,
			"-0.001": 24.5033965874,
			"0.0": 23.7758944568,
			"0.001": 17.4574983036,
			"0.002": 14.8821254925,
			"0.003": 17.5103272814,
			"0.004": 13.9912256112,
			"0.005": 13.1064801496,
			"0.006": 8.05585710667,
			"0.007": 4.63556143599,
			"0.008": 3.64750052226,
			"0.009": 2.18381558302,
			"0.01": 2.27558261799,
			"0.011": 3.82541418552,
			"0.012": 4.76005618604,
			"0.013": 7.85063901128,
			"0.014": 3.1020015173,
			"0.015": 0.0497285092833,
			"0.016": 0.0,
			"0.017": 0.0,
			"0.018": 0.0,
			"0.019": 0.0,
			"0.02": 0.0,
			"0.021": 0.0,
			"0.022": 0.0,
			"0.023": 0.0,
			"0.024": 0.0,
			"0.025": 0.0
		}
	}
}
