{
	 "smiles": "CC(C)(C)OC(=O)N1CCN(C(C1)C(O)=O)C(=O)OCC1C2=C(C=CC=C2)C2=C1C=CC=C2", 
	 "Tm": 437.15, 
	 "num_atms": 61, 
	 "gaussian": { 
		 "optdone": 1, 
		 "sigma_profile": "yes", 
		 "theory": "DFT", 
		 "functional": "B3LYP", 
		 "basiset": "6-31G**", 
		 "properties": { 
			 "R2extent": 23148.36, 
			 "electric_dipole_moment_norm": 3.92322937005, 
			 "electric_quadrupole_moment_norm": 14.2720535127, 
			 "total_energy": -1530.46015735, 
			 "HOMO_LUMO_gap": 0.18436, 
			 "cosmo_polarized_energy": -23.99, 
			 "cosmo_cavitation_energy": 62.87, 
			 "cosmo_dispersion_energy": -42.13, 
			 "cosmo_repulsion_energy": 3.16, 
			 "cosmo_total_nonelectrostatic_energy": 23.9, 
			 "SMD_solvation_energy": 10.86 
		},
		"coords": [
			{
				"x": -2.661415555,
				"y": 1.857713608,
				"z": 5.4772147752,
				"element": "C" 
			},
			{
				"x": -1.3882484691,
				"y": 2.5297136981,
				"z": 4.9526516297,
				"element": "C" 
			},
			{
				"x": -0.1532229615,
				"y": 1.9974176017,
				"z": 5.6845069696,
				"element": "C" 
			},
			{
				"x": -1.4561422676,
				"y": 4.057769357,
				"z": 5.0428535376,
				"element": "C" 
			},
			{
				"x": -1.1355699873,
				"y": 2.1153938241,
				"z": 3.5615939987,
				"element": "O" 
			},
			{
				"x": -2.0192010534,
				"y": 2.4104578409,
				"z": 2.5780356963,
				"element": "C" 
			},
			{
				"x": -3.0731256018,
				"y": 3.0114251009,
				"z": 2.7285006085,
				"element": "O" 
			},
			{
				"x": -1.5743801226,
				"y": 1.952386669,
				"z": 1.3587684832,
				"element": "N" 
			},
			{
				"x": -0.3555663643,
				"y": 1.1689567039,
				"z": 1.1633629231,
				"element": "C" 
			},
			{
				"x": 0.4214906795,
				"y": 1.6875069517,
				"z": -0.0578091328,
				"element": "C" 
			},
			{
				"x": -0.4630459466,
				"y": 1.7754666381,
				"z": -1.2261775604,
				"element": "N" 
			},
			{
				"x": -1.6142695845,
				"y": 2.6529133229,
				"z": -0.9737388652,
				"element": "C" 
			},
			{
				"x": -2.4482769552,
				"y": 2.1037509551,
				"z": 0.192342044,
				"element": "C" 
			},
			{
				"x": -2.3721348923,
				"y": 2.9835636198,
				"z": -2.2622223919,
				"element": "C" 
			},
			{
				"x": -3.7038392635,
				"y": 2.8135047299,
				"z": -2.1257820375,
				"element": "O" 
			},
			{
				"x": -1.852794394,
				"y": 3.4517821662,
				"z": -3.2464743626,
				"element": "O" 
			},
			{
				"x": -0.672758203,
				"y": 0.6849511305,
				"z": -2.0448108172,
				"element": "C" 
			},
			{
				"x": -1.6860654222,
				"y": 0.4950937803,
				"z": -2.6962734682,
				"element": "O" 
			},
			{
				"x": 0.40103805,
				"y": -0.1440859453,
				"z": -2.0652558544,
				"element": "O" 
			},
			{
				"x": 0.2658070154,
				"y": -1.2965632452,
				"z": -2.9266690614,
				"element": "C" 
			},
			{
				"x": 1.5978846553,
				"y": -2.049716235,
				"z": -2.9053732268,
				"element": "C" 
			},
			{
				"x": 1.5018761527,
				"y": -3.3935594199,
				"z": -3.6146102537,
				"element": "C" 
			},
			{
				"x": 2.459758362,
				"y": -3.4709581912,
				"z": -4.6461068975,
				"element": "C" 
			},
			{
				"x": 2.5613280888,
				"y": -4.6217682368,
				"z": -5.4304923223,
				"element": "C" 
			},
			{
				"x": 1.6972903024,
				"y": -5.6896743863,
				"z": -5.1771235988,
				"element": "C" 
			},
			{
				"x": 0.7470584393,
				"y": -5.6121487731,
				"z": -4.1535032869,
				"element": "C" 
			},
			{
				"x": 0.6457455978,
				"y": -4.4603762682,
				"z": -3.3640614104,
				"element": "C" 
			},
			{
				"x": 3.2188557151,
				"y": -2.2138045488,
				"z": -4.6761240054,
				"element": "C" 
			},
			{
				"x": 2.7263211287,
				"y": -1.3636993883,
				"z": -3.6636156219,
				"element": "C" 
			},
			{
				"x": 3.2726100772,
				"y": -0.0973791578,
				"z": -3.4807942824,
				"element": "C" 
			},
			{
				"x": 4.3178869658,
				"y": 0.3167275278,
				"z": -4.3148810986,
				"element": "C" 
			},
			{
				"x": 4.8094756357,
				"y": -0.5280522625,
				"z": -5.3156204726,
				"element": "C" 
			},
			{
				"x": 4.2639232878,
				"y": -1.7996856562,
				"z": -5.5043620309,
				"element": "C" 
			},
			{
				"x": -2.7782971867,
				"y": 2.0764444677,
				"z": 6.5436170744,
				"element": "H" 
			},
			{
				"x": -3.5411855002,
				"y": 2.2177409243,
				"z": 4.9439938631,
				"element": "H" 
			},
			{
				"x": -2.5935113611,
				"y": 0.7714861387,
				"z": 5.3594298197,
				"element": "H" 
			},
			{
				"x": -0.2153920342,
				"y": 2.2386868708,
				"z": 6.7497021583,
				"element": "H" 
			},
			{
				"x": -0.0798422789,
				"y": 0.9109100905,
				"z": 5.5799827225,
				"element": "H" 
			},
			{
				"x": 0.7595093489,
				"y": 2.4464945013,
				"z": 5.2816527207,
				"element": "H" 
			},
			{
				"x": -1.5253353309,
				"y": 4.3600312002,
				"z": 6.09288339,
				"element": "H" 
			},
			{
				"x": -2.3235309476,
				"y": 4.4426324466,
				"z": 4.5065966188,
				"element": "H" 
			},
			{
				"x": -0.5496823759,
				"y": 4.5040000896,
				"z": 4.6212397271,
				"element": "H" 
			},
			{
				"x": 0.2554971013,
				"y": 1.23181312,
				"z": 2.0618286672,
				"element": "H" 
			},
			{
				"x": -0.6126580399,
				"y": 0.1111520113,
				"z": 0.9969565517,
				"element": "H" 
			},
			{
				"x": 1.2572861729,
				"y": 1.0284195729,
				"z": -0.2870258343,
				"element": "H" 
			},
			{
				"x": 0.8138994945,
				"y": 2.6901145255,
				"z": 0.1456170296,
				"element": "H" 
			},
			{
				"x": -1.1888370807,
				"y": 3.6143297729,
				"z": -0.6566146121,
				"element": "H" 
			},
			{
				"x": -3.2562128027,
				"y": 2.7804401592,
				"z": 0.463778517,
				"element": "H" 
			},
			{
				"x": -2.8841860652,
				"y": 1.1381326789,
				"z": -0.095401715,
				"element": "H" 
			},
			{
				"x": -4.0973864135,
				"y": 3.0779639156,
				"z": -2.9741967194,
				"element": "H" 
			},
			{
				"x": 0.0048010613,
				"y": -0.9701403769,
				"z": -3.9361474868,
				"element": "H" 
			},
			{
				"x": -0.5488495173,
				"y": -1.9228409045,
				"z": -2.5502340626,
				"element": "H" 
			},
			{
				"x": 1.8765385698,
				"y": -2.1960248857,
				"z": -1.8515529597,
				"element": "H" 
			},
			{
				"x": 3.2978048487,
				"y": -4.6896894821,
				"z": -6.2263360137,
				"element": "H" 
			},
			{
				"x": 1.7642942264,
				"y": -6.5904308667,
				"z": -5.7805774315,
				"element": "H" 
			},
			{
				"x": 0.0837337024,
				"y": -6.4520072486,
				"z": -3.9686637526,
				"element": "H" 
			},
			{
				"x": -0.092094092,
				"y": -4.4109158823,
				"z": -2.5671519447,
				"element": "H" 
			},
			{
				"x": 2.8890472394,
				"y": 0.5642983249,
				"z": -2.7111994057,
				"element": "H" 
			},
			{
				"x": 4.750255838,
				"y": 1.3045308771,
				"z": -4.1841724957,
				"element": "H" 
			},
			{
				"x": 5.6221340565,
				"y": -0.191064893,
				"z": -5.9528690774,
				"element": "H" 
			},
			{
				"x": 4.6479062567,
				"y": -2.4512306596,
				"z": -6.2844839553,
				"element": "H" 
			}
		],
		 "valence_orbital": [ 
			{
				"type": "occ",
				"energy": -0.26466,
				"method": "rhf"
			},
			{
				"type": "occ",
				"energy": -0.25257,
				"method": "rhf"
			},
			{
				"type": "occ",
				"energy": -0.24623,
				"method": "rhf"
			},
			{
				"type": "occ",
				"energy": -0.23396,
				"method": "rhf"
			},
			{
				"type": "occ",
				"energy": -0.21715,
				"method": "rhf"
			},
			{
				"type": "unocc",
				"energy": -0.03279,
				"method": "rhf"
			},
			{
				"type": "unocc",
				"energy": -0.01454,
				"method": "rhf"
			},
			{
				"type": "unocc",
				"energy": 0.00569,
				"method": "rhf"
			},
			{
				"type": "unocc",
				"energy": 0.01027,
				"method": "rhf"
			},
			{
				"type": "unocc",
				"energy": 0.0346,
				"method": "rhf"
			}
		],
		"cosmo_sigma_profile": { 
			"-0.025": 0.0,
			"-0.024": 0.0,
			"-0.023": 0.0,
			"-0.022": 0.0,
			"-0.021": 0.0,
			"-0.02": 0.0,
			"-0.019": 0.224837641534,
			"-0.018": 0.988148842638,
			"-0.017": 0.849840207954,
			"-0.016": 0.864730183452,
			"-0.015": 0.706775656105,
			"-0.014": 1.06215404313,
			"-0.013": 0.362382566564,
			"-0.012": 0.382342145176,
			"-0.011": 0.989743947293,
			"-0.01": 0.727716977149,
			"-0.009": 1.10313429814,
			"-0.008": 4.39777480887,
			"-0.007": 5.09471875842,
			"-0.006": 21.4915786382,
			"-0.005": 38.1738580768,
			"-0.004": 44.8348061743,
			"-0.003": 47.9831511258,
			"-0.002": 39.1856527622,
			"-0.001": 39.870037355,
			"0.0": 45.3125534433,
			"0.001": 38.4072875768,
			"0.002": 26.3532773071,
			"0.003": 24.3473903014,
			"0.004": 25.0997199013,
			"0.005": 24.6746072382,
			"0.006": 16.9456502413,
			"0.007": 5.78225896903,
			"0.008": 5.06819553273,
			"0.009": 5.88633991211,
			"0.01": 6.68563138634,
			"0.011": 8.52122492716,
			"0.012": 8.99435182998,
			"0.013": 3.92025923046,
			"0.014": 0.340905344008,
			"0.015": 0.0,
			"0.016": 0.0,
			"0.017": 0.0,
			"0.018": 0.0,
			"0.019": 0.0,
			"0.02": 0.0,
			"0.021": 0.0,
			"0.022": 0.0,
			"0.023": 0.0,
			"0.024": 0.0,
			"0.025": 0.0
		}
	}
}
