{
	 "smiles": "OC1=CC=CC(O)=C1O", 
	 "Tm": 406.15, 
	 "num_atms": 15, 
	 "gaussian": { 
		 "optdone": 1, 
		 "sigma_profile": "yes", 
		 "theory": "DFT", 
		 "functional": "B3LYP", 
		 "basiset": "6-31G**", 
		 "properties": { 
			 "R2extent": 1960.9106, 
			 "electric_dipole_moment_norm": 2.17969286598, 
			 "electric_quadrupole_moment_norm": 10.9978630915, 
			 "total_energy": -457.909871741, 
			 "HOMO_LUMO_gap": 0.22098, 
			 "cosmo_polarized_energy": -12.73, 
			 "cosmo_cavitation_energy": 19.05, 
			 "cosmo_dispersion_energy": -14.62, 
			 "cosmo_repulsion_energy": 1.2, 
			 "cosmo_total_nonelectrostatic_energy": 5.63, 
			 "SMD_solvation_energy": 4.19 
		},
		"coords": [
			{
				"x": 0.0276371513,
				"y": 0.8379012564,
				"z": -1.2573270202,
				"element": "O" 
			},
			{
				"x": -0.8107084208,
				"y": 0.312357062,
				"z": -0.3217157912,
				"element": "C" 
			},
			{
				"x": -0.383437256,
				"y": -0.7295816644,
				"z": 0.5055156008,
				"element": "C" 
			},
			{
				"x": -1.2658001319,
				"y": -1.2413392166,
				"z": 1.4586754188,
				"element": "C" 
			},
			{
				"x": -2.5547045564,
				"y": -0.7295864213,
				"z": 1.6196319977,
				"element": "C" 
			},
			{
				"x": -2.9776394544,
				"y": 0.3123497924,
				"z": 0.7902111689,
				"element": "C" 
			},
			{
				"x": -4.2264780423,
				"y": 0.8380455899,
				"z": 0.9256827141,
				"element": "O" 
			},
			{
				"x": -2.110603881,
				"y": 0.8100122939,
				"z": -0.187595369,
				"element": "C" 
			},
			{
				"x": -2.5315150195,
				"y": 1.8682319458,
				"z": -1.0079365098,
				"element": "O" 
			},
			{
				"x": -0.4136855844,
				"y": 1.6234177528,
				"z": -1.6171660638,
				"element": "H" 
			},
			{
				"x": 0.6236500606,
				"y": -1.1149042801,
				"z": 0.3928046538,
				"element": "H" 
			},
			{
				"x": -0.9352308393,
				"y": -2.0507338717,
				"z": 2.102941527,
				"element": "H" 
			},
			{
				"x": -3.2334936793,
				"y": -1.1149293909,
				"z": 2.3720691107,
				"element": "H" 
			},
			{
				"x": -4.2615358575,
				"y": 1.6237143095,
				"z": 0.3575368147,
				"element": "H" 
			},
			{
				"x": -2.9401544892,
				"y": 1.4932448425,
				"z": -1.8029282526,
				"element": "H" 
			}
		],
		 "valence_orbital": [ 
			{
				"type": "occ",
				"energy": -0.35946,
				"method": "rhf"
			},
			{
				"type": "occ",
				"energy": -0.32672,
				"method": "rhf"
			},
			{
				"type": "occ",
				"energy": -0.31055,
				"method": "rhf"
			},
			{
				"type": "occ",
				"energy": -0.22949,
				"method": "rhf"
			},
			{
				"type": "occ",
				"energy": -0.21385,
				"method": "rhf"
			},
			{
				"type": "unocc",
				"energy": 0.00713,
				"method": "rhf"
			},
			{
				"type": "unocc",
				"energy": 0.02014,
				"method": "rhf"
			},
			{
				"type": "unocc",
				"energy": 0.03406,
				"method": "rhf"
			},
			{
				"type": "unocc",
				"energy": 0.10409,
				"method": "rhf"
			},
			{
				"type": "unocc",
				"energy": 0.10682,
				"method": "rhf"
			}
		],
		"cosmo_sigma_profile": { 
			"-0.025": 0.0,
			"-0.024": 0.0,
			"-0.023": 0.0,
			"-0.022": 0.0,
			"-0.021": 0.0,
			"-0.02": 0.0,
			"-0.019": 0.0,
			"-0.018": 0.911434667448,
			"-0.017": 1.16602672715,
			"-0.016": 1.28649810858,
			"-0.015": 1.43669767073,
			"-0.014": 2.01891017142,
			"-0.013": 3.07845056296,
			"-0.012": 2.26740547249,
			"-0.011": 2.96129103311,
			"-0.01": 3.19240107445,
			"-0.009": 2.72071904276,
			"-0.008": 1.55084531085,
			"-0.007": 1.49838275467,
			"-0.006": 5.15442846021,
			"-0.005": 7.80460713801,
			"-0.004": 7.28047812379,
			"-0.003": 7.75998596251,
			"-0.002": 6.40991480361,
			"-0.001": 5.53448968904,
			"0.0": 5.89892034256,
			"0.001": 6.94104090076,
			"0.002": 8.77994570888,
			"0.003": 9.75982480971,
			"0.004": 13.6075650405,
			"0.005": 11.3326629298,
			"0.006": 9.67415024921,
			"0.007": 3.17734122322,
			"0.008": 4.07639570258,
			"0.009": 3.14771138387,
			"0.01": 4.41013613826,
			"0.011": 4.92187851607,
			"0.012": 1.60610659183,
			"0.013": 0.0,
			"0.014": 0.0,
			"0.015": 0.0,
			"0.016": 0.0,
			"0.017": 0.0,
			"0.018": 0.0,
			"0.019": 0.0,
			"0.02": 0.0,
			"0.021": 0.0,
			"0.022": 0.0,
			"0.023": 0.0,
			"0.024": 0.0,
			"0.025": 0.0
		}
	}
}
