{
	 "smiles": "ClC1=CC=C(Cl)C(Cl)=C1", 
	 "Tm": 290.15, 
	 "num_atms": 12, 
	 "gaussian": { 
		 "optdone": 1, 
		 "sigma_profile": "yes", 
		 "theory": "DFT", 
		 "functional": "B3LYP", 
		 "basiset": "6-31G**", 
		 "properties": { 
			 "R2extent": 2727.0566, 
			 "electric_dipole_moment_norm": 1.39600728866, 
			 "electric_quadrupole_moment_norm": 4.76968835984, 
			 "total_energy": -1611.01890744, 
			 "HOMO_LUMO_gap": 0.21622, 
			 "cosmo_polarized_energy": -3.88, 
			 "cosmo_cavitation_energy": 21.79, 
			 "cosmo_dispersion_energy": -16.69, 
			 "cosmo_repulsion_energy": 1.37, 
			 "cosmo_total_nonelectrostatic_energy": 6.47, 
			 "SMD_solvation_energy": 2.97 
		},
		"coords": [
			{
				"x": 2.7210892496,
				"y": 0.7510786636,
				"z": 3.1114831042,
				"element": "Cl" 
			},
			{
				"x": 1.8540788492,
				"y": 0.6891803372,
				"z": 1.589875108,
				"element": "C" 
			},
			{
				"x": 2.160604288,
				"y": -0.3033256357,
				"z": 0.6593353802,
				"element": "C" 
			},
			{
				"x": 1.463358063,
				"y": -0.3395892052,
				"z": -0.5448115836,
				"element": "C" 
			},
			{
				"x": 0.4694647793,
				"y": 0.6013595534,
				"z": -0.8242271632,
				"element": "C" 
			},
			{
				"x": -0.3742098876,
				"y": 0.5110474818,
				"z": -2.3484126677,
				"element": "Cl" 
			},
			{
				"x": 0.1727481278,
				"y": 1.5930643289,
				"z": 0.1213678569,
				"element": "C" 
			},
			{
				"x": -1.0578519903,
				"y": 2.7940500032,
				"z": -0.1725196697,
				"element": "Cl" 
			},
			{
				"x": 0.867259961,
				"y": 1.6371798421,
				"z": 1.3323441814,
				"element": "C" 
			},
			{
				"x": 2.9309220157,
				"y": -1.0354140746,
				"z": 0.8718910495,
				"element": "H" 
			},
			{
				"x": 1.6864338706,
				"y": -1.1031085608,
				"z": -1.2816443619,
				"element": "H" 
			},
			{
				"x": 0.6337026738,
				"y": 2.4055772661,
				"z": 2.0589187658,
				"element": "H" 
			}
		],
		 "valence_orbital": [ 
			{
				"type": "occ",
				"energy": -0.32715,
				"method": "rhf"
			},
			{
				"type": "occ",
				"energy": -0.32453,
				"method": "rhf"
			},
			{
				"type": "occ",
				"energy": -0.31837,
				"method": "rhf"
			},
			{
				"type": "occ",
				"energy": -0.27442,
				"method": "rhf"
			},
			{
				"type": "occ",
				"energy": -0.25427,
				"method": "rhf"
			},
			{
				"type": "unocc",
				"energy": -0.03805,
				"method": "rhf"
			},
			{
				"type": "unocc",
				"energy": -0.03638,
				"method": "rhf"
			},
			{
				"type": "unocc",
				"energy": -0.01381,
				"method": "rhf"
			},
			{
				"type": "unocc",
				"energy": 0.02648,
				"method": "rhf"
			},
			{
				"type": "unocc",
				"energy": 0.05583,
				"method": "rhf"
			}
		],
		"cosmo_sigma_profile": { 
			"-0.025": 0.0,
			"-0.024": 0.0,
			"-0.023": 0.0,
			"-0.022": 0.0,
			"-0.021": 0.0,
			"-0.02": 0.0,
			"-0.019": 0.0,
			"-0.018": 0.0,
			"-0.017": 0.0,
			"-0.016": 0.0,
			"-0.015": 0.0,
			"-0.014": 0.0,
			"-0.013": 0.0,
			"-0.012": 0.0,
			"-0.011": 0.0,
			"-0.01": 0.0,
			"-0.009": 2.01007193884,
			"-0.008": 5.33313982532,
			"-0.007": 5.05603238192,
			"-0.006": 5.48810145913,
			"-0.005": 4.28042502336,
			"-0.004": 5.62036874811,
			"-0.003": 8.30305653604,
			"-0.002": 10.8042563186,
			"-0.001": 16.3543594532,
			"0.0": 28.7487001698,
			"0.001": 25.7677910647,
			"0.002": 16.3899300993,
			"0.003": 22.2943876671,
			"0.004": 22.1194039336,
			"0.005": 3.90318704693,
			"0.006": 0.0722185321967,
			"0.007": 0.0,
			"0.008": 0.0,
			"0.009": 0.0,
			"0.01": 0.0,
			"0.011": 0.0,
			"0.012": 0.0,
			"0.013": 0.0,
			"0.014": 0.0,
			"0.015": 0.0,
			"0.016": 0.0,
			"0.017": 0.0,
			"0.018": 0.0,
			"0.019": 0.0,
			"0.02": 0.0,
			"0.021": 0.0,
			"0.022": 0.0,
			"0.023": 0.0,
			"0.024": 0.0,
			"0.025": 0.0
		}
	}
}
