{
	 "smiles": "CCCCCC(O)=O", 
	 "Tm": 270.2, 
	 "num_atms": 20, 
	 "gaussian": { 
		 "optdone": 1, 
		 "sigma_profile": "yes", 
		 "theory": "DFT", 
		 "functional": "B3LYP", 
		 "basiset": "6-31G**", 
		 "properties": { 
			 "R2extent": 1826.0688, 
			 "electric_dipole_moment_norm": 4.18297547088, 
			 "electric_quadrupole_moment_norm": 20.0596468952, 
			 "total_energy": -386.3378316, 
			 "HOMO_LUMO_gap": 0.27466, 
			 "cosmo_polarized_energy": -12.81, 
			 "cosmo_cavitation_energy": 21.86, 
			 "cosmo_dispersion_energy": -15.8, 
			 "cosmo_repulsion_energy": 1.33, 
			 "cosmo_total_nonelectrostatic_energy": 7.39, 
			 "SMD_solvation_energy": 4.44 
		},
		"coords": [
			{
				"x": -0.5962862587,
				"y": 0.3347820102,
				"z": -2.3167460989,
				"element": "C" 
			},
			{
				"x": -1.1155424206,
				"y": 0.5567076769,
				"z": -0.890743565,
				"element": "C" 
			},
			{
				"x": -0.2104225167,
				"y": -0.0137691133,
				"z": 0.2159306803,
				"element": "C" 
			},
			{
				"x": 1.2083372066,
				"y": 0.5718397205,
				"z": 0.334562073,
				"element": "C" 
			},
			{
				"x": 1.2784320767,
				"y": 2.0538746187,
				"z": 0.7670096014,
				"element": "C" 
			},
			{
				"x": 0.9174652197,
				"y": 3.0847588796,
				"z": -0.2952936662,
				"element": "C" 
			},
			{
				"x": 1.6619257679,
				"y": 3.0370523467,
				"z": -1.4387701776,
				"element": "O" 
			},
			{
				"x": 0.0613231321,
				"y": 3.9248219021,
				"z": -0.1756559809,
				"element": "O" 
			},
			{
				"x": 0.3179077584,
				"y": 0.903348478,
				"z": -2.5132191093,
				"element": "H" 
			},
			{
				"x": -0.3847757041,
				"y": -0.7249944926,
				"z": -2.5034436019,
				"element": "H" 
			},
			{
				"x": -1.3367652687,
				"y": 0.6603677731,
				"z": -3.0540450769,
				"element": "H" 
			},
			{
				"x": -1.2882249227,
				"y": 1.6257674935,
				"z": -0.7229642455,
				"element": "H" 
			},
			{
				"x": -2.0979243002,
				"y": 0.077865285,
				"z": -0.7920031168,
				"element": "H" 
			},
			{
				"x": -0.1125447136,
				"y": -1.0975195592,
				"z": 0.0651623783,
				"element": "H" 
			},
			{
				"x": -0.7130417026,
				"y": 0.1126687168,
				"z": 1.1842404519,
				"element": "H" 
			},
			{
				"x": 1.7551789515,
				"y": -0.012821023,
				"z": 1.0834122923,
				"element": "H" 
			},
			{
				"x": 1.7565627653,
				"y": 0.4201192726,
				"z": -0.6060157998,
				"element": "H" 
			},
			{
				"x": 0.618526728,
				"y": 2.2346036549,
				"z": 1.6188522898,
				"element": "H" 
			},
			{
				"x": 2.301979081,
				"y": 2.2805632879,
				"z": 1.0970824247,
				"element": "H" 
			},
			{
				"x": 2.3129891207,
				"y": 2.3232630718,
				"z": -1.3834517529,
				"element": "H" 
			}
		],
		 "valence_orbital": [ 
			{
				"type": "occ",
				"energy": -0.33345,
				"method": "rhf"
			},
			{
				"type": "occ",
				"energy": -0.32828,
				"method": "rhf"
			},
			{
				"type": "occ",
				"energy": -0.32723,
				"method": "rhf"
			},
			{
				"type": "occ",
				"energy": -0.3086,
				"method": "rhf"
			},
			{
				"type": "occ",
				"energy": -0.26626,
				"method": "rhf"
			},
			{
				"type": "unocc",
				"energy": 0.0084,
				"method": "rhf"
			},
			{
				"type": "unocc",
				"energy": 0.04327,
				"method": "rhf"
			},
			{
				"type": "unocc",
				"energy": 0.09032,
				"method": "rhf"
			},
			{
				"type": "unocc",
				"energy": 0.11647,
				"method": "rhf"
			},
			{
				"type": "unocc",
				"energy": 0.12456,
				"method": "rhf"
			}
		],
		"cosmo_sigma_profile": { 
			"-0.025": 0.0,
			"-0.024": 0.0,
			"-0.023": 0.0,
			"-0.022": 0.0,
			"-0.021": 0.0,
			"-0.02": 0.0,
			"-0.019": 0.0422076412399,
			"-0.018": 0.544747950182,
			"-0.017": 0.864441973408,
			"-0.016": 1.09872198608,
			"-0.015": 1.11756527789,
			"-0.014": 0.610130611731,
			"-0.013": 1.07271084173,
			"-0.012": 0.975873769817,
			"-0.011": 1.33577175951,
			"-0.01": 1.27913987858,
			"-0.009": 1.53912653093,
			"-0.008": 1.88015689638,
			"-0.007": 2.70405698237,
			"-0.006": 3.64427894977,
			"-0.005": 3.68337045676,
			"-0.004": 7.13430318674,
			"-0.003": 13.7135927554,
			"-0.002": 22.2883801341,
			"-0.001": 20.746207782,
			"0.0": 22.4861614349,
			"0.001": 17.3917220605,
			"0.002": 7.67930327014,
			"0.003": 3.11007522234,
			"0.004": 2.11047849018,
			"0.005": 2.40052458992,
			"0.006": 2.38491503495,
			"0.007": 1.74223256052,
			"0.008": 2.66198676988,
			"0.009": 2.79487461749,
			"0.01": 3.94759783842,
			"0.011": 5.17703048867,
			"0.012": 5.46505800011,
			"0.013": 3.32308680866,
			"0.014": 0.255377107665,
			"0.015": 0.0,
			"0.016": 0.0,
			"0.017": 0.0,
			"0.018": 0.0,
			"0.019": 0.0,
			"0.02": 0.0,
			"0.021": 0.0,
			"0.022": 0.0,
			"0.023": 0.0,
			"0.024": 0.0,
			"0.025": 0.0
		}
	}
}
