{
	 "smiles": "OC(=O)C1=CC=C(OC2=C(Cl)C=CC=C2)C=C1", 
	 "Tm": 418.15, 
	 "num_atms": 26, 
	 "gaussian": { 
		 "optdone": 1, 
		 "sigma_profile": "yes", 
		 "theory": "DFT", 
		 "functional": "B3LYP", 
		 "basiset": "6-31G**", 
		 "properties": { 
			 "R2extent": 5676.1826, 
			 "electric_dipole_moment_norm": 6.39878504483, 
			 "electric_quadrupole_moment_norm": 21.880616481, 
			 "total_energy": -1186.66854116, 
			 "HOMO_LUMO_gap": 0.20079, 
			 "cosmo_polarized_energy": -16.54, 
			 "cosmo_cavitation_energy": 33.31, 
			 "cosmo_dispersion_energy": -23.79, 
			 "cosmo_repulsion_energy": 1.85, 
			 "cosmo_total_nonelectrostatic_energy": 11.37, 
			 "SMD_solvation_energy": 6.74 
		},
		"coords": [
			{
				"x": 4.0249523104,
				"y": -1.8015174717,
				"z": 2.5214757194,
				"element": "O" 
			},
			{
				"x": 4.0676214813,
				"y": -0.6952059188,
				"z": 1.7271594047,
				"element": "C" 
			},
			{
				"x": 5.1026062061,
				"y": -0.0810870005,
				"z": 1.6089576625,
				"element": "O" 
			},
			{
				"x": 2.7976392515,
				"y": -0.3090763547,
				"z": 1.039831707,
				"element": "C" 
			},
			{
				"x": 2.8868021592,
				"y": 0.5516202213,
				"z": -0.0667497825,
				"element": "C" 
			},
			{
				"x": 1.7479841059,
				"y": 0.9542966655,
				"z": -0.746540628,
				"element": "C" 
			},
			{
				"x": 0.4903680118,
				"y": 0.5138832351,
				"z": -0.3130399713,
				"element": "C" 
			},
			{
				"x": -0.5811485945,
				"y": 0.9671999782,
				"z": -1.045256591,
				"element": "O" 
			},
			{
				"x": -1.8680640855,
				"y": 0.6324123604,
				"z": -0.6735755912,
				"element": "C" 
			},
			{
				"x": -2.5169763304,
				"y": -0.4608369011,
				"z": -1.2625624643,
				"element": "C" 
			},
			{
				"x": -1.6624829682,
				"y": -1.4759513511,
				"z": -2.4012157399,
				"element": "Cl" 
			},
			{
				"x": -3.8485609228,
				"y": -0.7371231317,
				"z": -0.948048603,
				"element": "C" 
			},
			{
				"x": -4.5307094473,
				"y": 0.0757335319,
				"z": -0.0429350378,
				"element": "C" 
			},
			{
				"x": -3.8872851221,
				"y": 1.166308739,
				"z": 0.5454517755,
				"element": "C" 
			},
			{
				"x": -2.5584441249,
				"y": 1.4437624995,
				"z": 0.2284888491,
				"element": "C" 
			},
			{
				"x": 0.3749169782,
				"y": -0.3236226432,
				"z": 0.7995221357,
				"element": "C" 
			},
			{
				"x": 1.530732558,
				"y": -0.7285211399,
				"z": 1.4653573558,
				"element": "C" 
			},
			{
				"x": 3.1998165692,
				"y": -2.2838636166,
				"z": 2.3751255728,
				"element": "H" 
			},
			{
				"x": 3.8687087803,
				"y": 0.8916531206,
				"z": -0.3773960784,
				"element": "H" 
			},
			{
				"x": 1.803533294,
				"y": 1.6081215066,
				"z": -1.61019995,
				"element": "H" 
			},
			{
				"x": -4.3381580777,
				"y": -1.5840427987,
				"z": -1.4160396071,
				"element": "H" 
			},
			{
				"x": -5.566522601,
				"y": -0.1435988669,
				"z": 0.1961709919,
				"element": "H" 
			},
			{
				"x": -4.4182001333,
				"y": 1.8034633892,
				"z": 1.2455663932,
				"element": "H" 
			},
			{
				"x": -2.0385138958,
				"y": 2.2919989306,
				"z": 0.6618090648,
				"element": "H" 
			},
			{
				"x": -0.5993146939,
				"y": -0.6481329703,
				"z": 1.1452923806,
				"element": "H" 
			},
			{
				"x": 1.4186992912,
				"y": -1.3496740127,
				"z": 2.3509510316,
				"element": "H" 
			}
		],
		 "valence_orbital": [ 
			{
				"type": "occ",
				"energy": -0.27488,
				"method": "rhf"
			},
			{
				"type": "occ",
				"energy": -0.27311,
				"method": "rhf"
			},
			{
				"type": "occ",
				"energy": -0.26918,
				"method": "rhf"
			},
			{
				"type": "occ",
				"energy": -0.25989,
				"method": "rhf"
			},
			{
				"type": "occ",
				"energy": -0.24473,
				"method": "rhf"
			},
			{
				"type": "unocc",
				"energy": -0.04394,
				"method": "rhf"
			},
			{
				"type": "unocc",
				"energy": -0.03177,
				"method": "rhf"
			},
			{
				"type": "unocc",
				"energy": -0.027,
				"method": "rhf"
			},
			{
				"type": "unocc",
				"energy": -0.02098,
				"method": "rhf"
			},
			{
				"type": "unocc",
				"energy": 0.0162,
				"method": "rhf"
			}
		],
		"cosmo_sigma_profile": { 
			"-0.025": 0.0,
			"-0.024": 0.0,
			"-0.023": 0.0,
			"-0.022": 0.0,
			"-0.021": 0.0,
			"-0.02": 0.0,
			"-0.019": 0.107029370137,
			"-0.018": 0.751018977798,
			"-0.017": 1.10757770777,
			"-0.016": 1.12285351157,
			"-0.015": 0.688352968246,
			"-0.014": 1.1734667811,
			"-0.013": 0.897903853516,
			"-0.012": 1.1600360379,
			"-0.011": 1.11733452556,
			"-0.01": 1.19439183905,
			"-0.009": 0.727825544526,
			"-0.008": 4.05470461464,
			"-0.007": 12.5782490945,
			"-0.006": 15.6457066905,
			"-0.005": 16.4110449337,
			"-0.004": 12.6877786953,
			"-0.003": 13.5628441674,
			"-0.002": 14.4647978495,
			"-0.001": 17.2089044493,
			"0.0": 18.2613197505,
			"0.001": 23.4384709828,
			"0.002": 29.1578657482,
			"0.003": 29.2203966828,
			"0.004": 14.8137211401,
			"0.005": 6.144069335,
			"0.006": 5.08542709957,
			"0.007": 3.77351959577,
			"0.008": 3.14555424103,
			"0.009": 3.91006406871,
			"0.01": 3.38703940531,
			"0.011": 5.85320563989,
			"0.012": 5.21100359846,
			"0.013": 2.04374151395,
			"0.014": 0.194432148773,
			"0.015": 0.0,
			"0.016": 0.0,
			"0.017": 0.0,
			"0.018": 0.0,
			"0.019": 0.0,
			"0.02": 0.0,
			"0.021": 0.0,
			"0.022": 0.0,
			"0.023": 0.0,
			"0.024": 0.0,
			"0.025": 0.0
		}
	}
}
