{
	 "smiles": "ClC(=O)C1=CC=C(S1)C1=CC=CS1", 
	 "Tm": 346.95, 
	 "num_atms": 18, 
	 "gaussian": { 
		 "optdone": 1, 
		 "sigma_profile": "yes", 
		 "theory": "DFT", 
		 "functional": "B3LYP", 
		 "basiset": "6-31G**", 
		 "properties": { 
			 "R2extent": 5607.8489, 
			 "electric_dipole_moment_norm": 6.11360077205, 
			 "electric_quadrupole_moment_norm": 15.6738074494, 
			 "total_energy": -1677.74537251, 
			 "HOMO_LUMO_gap": 0.13709, 
			 "cosmo_polarized_energy": -8.74, 
			 "cosmo_cavitation_energy": 28.28, 
			 "cosmo_dispersion_energy": -21.82, 
			 "cosmo_repulsion_energy": 1.62, 
			 "cosmo_total_nonelectrostatic_energy": 8.08, 
			 "SMD_solvation_energy": 5.08 
		},
		"coords": [
			{
				"x": 4.0627970742,
				"y": 4.1511527605,
				"z": -1.0830926101,
				"element": "Cl" 
			},
			{
				"x": 3.1338883703,
				"y": 2.8863816845,
				"z": -2.0314590583,
				"element": "C" 
			},
			{
				"x": 3.2980343903,
				"y": 2.7923984825,
				"z": -3.2143683198,
				"element": "O" 
			},
			{
				"x": 2.2468711823,
				"y": 2.088444853,
				"z": -1.2092307035,
				"element": "C" 
			},
			{
				"x": 1.9966850345,
				"y": 2.1176496719,
				"z": 0.149969854,
				"element": "C" 
			},
			{
				"x": 1.0610384658,
				"y": 1.1479407114,
				"z": 0.5593081577,
				"element": "C" 
			},
			{
				"x": 0.5795536629,
				"y": 0.3708416394,
				"z": -0.4862461913,
				"element": "C" 
			},
			{
				"x": 1.2932770548,
				"y": 0.8519743309,
				"z": -2.0020150457,
				"element": "S" 
			},
			{
				"x": -0.3962197382,
				"y": -0.6971768886,
				"z": -0.3976288025,
				"element": "C" 
			},
			{
				"x": -1.3253334137,
				"y": -0.9013857977,
				"z": 0.603489954,
				"element": "C" 
			},
			{
				"x": -2.1350900257,
				"y": -2.0504752441,
				"z": 0.3958910937,
				"element": "C" 
			},
			{
				"x": -1.8257447372,
				"y": -2.7149815864,
				"z": -0.7614435998,
				"element": "C" 
			},
			{
				"x": -0.5278251017,
				"y": -1.9523751528,
				"z": -1.6142102355,
				"element": "S" 
			},
			{
				"x": 2.4895909261,
				"y": 2.8120793632,
				"z": 0.8182477564,
				"element": "H" 
			},
			{
				"x": 0.7618786801,
				"y": 0.9967859786,
				"z": 1.5893498521,
				"element": "H" 
			},
			{
				"x": -1.4366475788,
				"y": -0.2299632148,
				"z": 1.4468856617,
				"element": "H" 
			},
			{
				"x": -2.9200371177,
				"y": -2.3658414502,
				"z": 1.0732693092,
				"element": "H" 
			},
			{
				"x": -2.2793171282,
				"y": -3.6101501412,
				"z": -1.1637170723,
				"element": "H" 
			}
		],
		 "valence_orbital": [ 
			{
				"type": "occ",
				"energy": -0.29443,
				"method": "rhf"
			},
			{
				"type": "occ",
				"energy": -0.29224,
				"method": "rhf"
			},
			{
				"type": "occ",
				"energy": -0.27938,
				"method": "rhf"
			},
			{
				"type": "occ",
				"energy": -0.27142,
				"method": "rhf"
			},
			{
				"type": "occ",
				"energy": -0.22952,
				"method": "rhf"
			},
			{
				"type": "unocc",
				"energy": -0.09243,
				"method": "rhf"
			},
			{
				"type": "unocc",
				"energy": -0.03366,
				"method": "rhf"
			},
			{
				"type": "unocc",
				"energy": -0.01565,
				"method": "rhf"
			},
			{
				"type": "unocc",
				"energy": 0.01232,
				"method": "rhf"
			},
			{
				"type": "unocc",
				"energy": 0.01925,
				"method": "rhf"
			}
		],
		"cosmo_sigma_profile": { 
			"-0.025": 0.0,
			"-0.024": 0.0,
			"-0.023": 0.0,
			"-0.022": 0.0,
			"-0.021": 0.0,
			"-0.02": 0.0,
			"-0.019": 0.0,
			"-0.018": 0.0,
			"-0.017": 0.0,
			"-0.016": 0.0,
			"-0.015": 0.0,
			"-0.014": 0.0,
			"-0.013": 0.0,
			"-0.012": 0.0,
			"-0.011": 0.0,
			"-0.01": 0.0941508817799,
			"-0.009": 2.94021300337,
			"-0.008": 8.12036969028,
			"-0.007": 9.74412381628,
			"-0.006": 8.70909901027,
			"-0.005": 8.46858045244,
			"-0.004": 8.19149879488,
			"-0.003": 10.7080230935,
			"-0.002": 15.1192460605,
			"-0.001": 19.9463196002,
			"0.0": 25.5841501074,
			"0.001": 31.5672088857,
			"0.002": 27.2235826673,
			"0.003": 21.31218237,
			"0.004": 14.7911346104,
			"0.005": 7.74444432812,
			"0.006": 2.92083594895,
			"0.007": 2.7234700547,
			"0.008": 3.13859964403,
			"0.009": 4.68643916662,
			"0.01": 1.43809482139,
			"0.011": 0.0104648738325,
			"0.012": 0.0,
			"0.013": 0.0,
			"0.014": 0.0,
			"0.015": 0.0,
			"0.016": 0.0,
			"0.017": 0.0,
			"0.018": 0.0,
			"0.019": 0.0,
			"0.02": 0.0,
			"0.021": 0.0,
			"0.022": 0.0,
			"0.023": 0.0,
			"0.024": 0.0,
			"0.025": 0.0
		}
	}
}
