{
	 "smiles": "CSC1=C(C)C(N)=CC=C1", 
	 "Tm": 318.15, 
	 "num_atms": 21, 
	 "gaussian": { 
		 "optdone": 1, 
		 "sigma_profile": "yes", 
		 "theory": "DFT", 
		 "functional": "B3LYP", 
		 "basiset": "6-31G**", 
		 "properties": { 
			 "R2extent": 1927.8316, 
			 "electric_dipole_moment_norm": 3.33642897272, 
			 "electric_quadrupole_moment_norm": 5.28697659253, 
			 "total_energy": -764.427224951, 
			 "HOMO_LUMO_gap": 0.19486, 
			 "cosmo_polarized_energy": -9.43, 
			 "cosmo_cavitation_energy": 24.93, 
			 "cosmo_dispersion_energy": -18.75, 
			 "cosmo_repulsion_energy": 1.47, 
			 "cosmo_total_nonelectrostatic_energy": 7.66, 
			 "SMD_solvation_energy": 4.28 
		},
		"coords": [
			{
				"x": 0.7657136457,
				"y": -0.8676769543,
				"z": -3.4047914561,
				"element": "C" 
			},
			{
				"x": -0.1366226691,
				"y": 0.6166226337,
				"z": -2.8171567545,
				"element": "S" 
			},
			{
				"x": 0.3174856291,
				"y": 0.6366531553,
				"z": -1.0729876977,
				"element": "C" 
			},
			{
				"x": -0.2593310695,
				"y": -0.2510787304,
				"z": -0.1427093065,
				"element": "C" 
			},
			{
				"x": -1.3023184355,
				"y": -1.2753099672,
				"z": -0.5141095046,
				"element": "C" 
			},
			{
				"x": 0.1487136027,
				"y": -0.1606829283,
				"z": 1.2104607284,
				"element": "C" 
			},
			{
				"x": -0.4272110845,
				"y": -1.0031342695,
				"z": 2.1692230307,
				"element": "N" 
			},
			{
				"x": 1.0759991471,
				"y": 0.8156892077,
				"z": 1.6046416141,
				"element": "C" 
			},
			{
				"x": 1.6089220335,
				"y": 1.7001527051,
				"z": 0.6733041171,
				"element": "C" 
			},
			{
				"x": 1.2416826333,
				"y": 1.6099146311,
				"z": -0.6675242042,
				"element": "C" 
			},
			{
				"x": 0.5923572631,
				"y": -0.9297547764,
				"z": -4.4819882012,
				"element": "H" 
			},
			{
				"x": 0.3906380958,
				"y": -1.7781724795,
				"z": -2.9317820602,
				"element": "H" 
			},
			{
				"x": 1.8370151901,
				"y": -0.7671323135,
				"z": -3.2189311216,
				"element": "H" 
			},
			{
				"x": -0.9071587431,
				"y": -2.3013406177,
				"z": -0.4726103414,
				"element": "H" 
			},
			{
				"x": -2.1501422547,
				"y": -1.2301855106,
				"z": 0.1796051419,
				"element": "H" 
			},
			{
				"x": -1.6774641448,
				"y": -1.1040566674,
				"z": -1.5238784268,
				"element": "H" 
			},
			{
				"x": -0.6826301483,
				"y": -1.9243244002,
				"z": 1.8418556415,
				"element": "H" 
			},
			{
				"x": 0.0795325137,
				"y": -1.0480828122,
				"z": 3.0428853607,
				"element": "H" 
			},
			{
				"x": 1.3711229103,
				"y": 0.876896837,
				"z": 2.6497159023,
				"element": "H" 
			},
			{
				"x": 2.3240454842,
				"y": 2.4530803938,
				"z": 0.9923892833,
				"element": "H" 
			},
			{
				"x": 1.6624504009,
				"y": 2.2835228636,
				"z": -1.4056117451,
				"element": "H" 
			}
		],
		 "valence_orbital": [ 
			{
				"type": "occ",
				"energy": -0.3138,
				"method": "rhf"
			},
			{
				"type": "occ",
				"energy": -0.29826,
				"method": "rhf"
			},
			{
				"type": "occ",
				"energy": -0.24119,
				"method": "rhf"
			},
			{
				"type": "occ",
				"energy": -0.21677,
				"method": "rhf"
			},
			{
				"type": "occ",
				"energy": -0.20204,
				"method": "rhf"
			},
			{
				"type": "unocc",
				"energy": -0.00718,
				"method": "rhf"
			},
			{
				"type": "unocc",
				"energy": 0.01594,
				"method": "rhf"
			},
			{
				"type": "unocc",
				"energy": 0.05846,
				"method": "rhf"
			},
			{
				"type": "unocc",
				"energy": 0.0764,
				"method": "rhf"
			},
			{
				"type": "unocc",
				"energy": 0.08631,
				"method": "rhf"
			}
		],
		"cosmo_sigma_profile": { 
			"-0.025": 0.0,
			"-0.024": 0.0,
			"-0.023": 0.0,
			"-0.022": 0.0,
			"-0.021": 0.0,
			"-0.02": 0.0,
			"-0.019": 0.0,
			"-0.018": 0.0,
			"-0.017": 0.0,
			"-0.016": 0.0,
			"-0.015": 0.0,
			"-0.014": 0.0,
			"-0.013": 0.107818896983,
			"-0.012": 1.3313174963,
			"-0.011": 2.803557972,
			"-0.01": 2.50005741724,
			"-0.009": 3.28287597426,
			"-0.008": 3.20325774108,
			"-0.007": 3.27840009444,
			"-0.006": 5.54377736618,
			"-0.005": 10.5758177791,
			"-0.004": 13.183336832,
			"-0.003": 18.7538156979,
			"-0.002": 15.6748824067,
			"-0.001": 18.1104968007,
			"0.0": 13.4109322684,
			"0.001": 11.3796859158,
			"0.002": 12.0111559207,
			"0.003": 11.962751421,
			"0.004": 10.7028115403,
			"0.005": 11.3426512217,
			"0.006": 12.4562857774,
			"0.007": 6.60484411389,
			"0.008": 3.62856411848,
			"0.009": 2.4956705575,
			"0.01": 1.64774123661,
			"0.011": 0.942177794122,
			"0.012": 0.288953832177,
			"0.013": 0.576583068454,
			"0.014": 0.752505493469,
			"0.015": 0.0955511881668,
			"0.016": 0.0,
			"0.017": 0.0,
			"0.018": 0.0,
			"0.019": 0.0,
			"0.02": 0.0,
			"0.021": 0.0,
			"0.022": 0.0,
			"0.023": 0.0,
			"0.024": 0.0,
			"0.025": 0.0
		}
	}
}
