{
	 "smiles": "NC(=O)C(F)(F)C(F)(F)C(F)(F)F", 
	 "Tm": 377.15, 
	 "num_atms": 15, 
	 "gaussian": { 
		 "optdone": 1, 
		 "sigma_profile": "yes", 
		 "theory": "DFT", 
		 "functional": "B3LYP", 
		 "basiset": "6-31G**", 
		 "properties": { 
			 "R2extent": 1920.2308, 
			 "electric_dipole_moment_norm": 3.62340947865, 
			 "electric_quadrupole_moment_norm": 12.561570075, 
			 "total_energy": -982.478284268, 
			 "HOMO_LUMO_gap": 0.26203, 
			 "cosmo_polarized_energy": -10.54, 
			 "cosmo_cavitation_energy": 22.66, 
			 "cosmo_dispersion_energy": -15.43, 
			 "cosmo_repulsion_energy": 1.12, 
			 "cosmo_total_nonelectrostatic_energy": 8.34, 
			 "SMD_solvation_energy": 7.23 
		},
		"coords": [
			{
				"x": 2.0544852979,
				"y": 1.9981054114,
				"z": -0.1344131979,
				"element": "N" 
			},
			{
				"x": 0.7962550837,
				"y": 1.8995365401,
				"z": 0.355187834,
				"element": "C" 
			},
			{
				"x": -0.0278692901,
				"y": 2.7912637136,
				"z": 0.405430071,
				"element": "O" 
			},
			{
				"x": 0.431524543,
				"y": 0.4773059255,
				"z": 0.8567125206,
				"element": "C" 
			},
			{
				"x": 1.5705362742,
				"y": -0.194088873,
				"z": 1.2259342411,
				"element": "F" 
			},
			{
				"x": -0.3722154099,
				"y": 0.5784816172,
				"z": 1.9334703512,
				"element": "F" 
			},
			{
				"x": -0.2561684707,
				"y": -0.429039341,
				"z": -0.19503742,
				"element": "C" 
			},
			{
				"x": -0.4739605138,
				"y": -1.6353466857,
				"z": 0.3768357386,
				"element": "F" 
			},
			{
				"x": 0.6056237988,
				"y": -0.582821142,
				"z": -1.2344430337,
				"element": "F" 
			},
			{
				"x": -1.6028103647,
				"y": 0.0639065805,
				"z": -0.7738972892,
				"element": "C" 
			},
			{
				"x": -2.1220221615,
				"y": -0.9056483108,
				"z": -1.5409636291,
				"element": "F" 
			},
			{
				"x": -1.4117361143,
				"y": 1.150425284,
				"z": -1.532352731,
				"element": "F" 
			},
			{
				"x": -2.4671187498,
				"y": 0.34966073,
				"z": 0.2038140333,
				"element": "F" 
			},
			{
				"x": 2.7091077197,
				"y": 1.2365817407,
				"z": -0.0566272469,
				"element": "H" 
			},
			{
				"x": 2.3692683573,
				"y": 2.8983768097,
				"z": -0.4637502419,
				"element": "H" 
			}
		],
		 "valence_orbital": [ 
			{
				"type": "occ",
				"energy": -0.41727,
				"method": "rhf"
			},
			{
				"type": "occ",
				"energy": -0.40359,
				"method": "rhf"
			},
			{
				"type": "occ",
				"energy": -0.36125,
				"method": "rhf"
			},
			{
				"type": "occ",
				"energy": -0.29902,
				"method": "rhf"
			},
			{
				"type": "occ",
				"energy": -0.28354,
				"method": "rhf"
			},
			{
				"type": "unocc",
				"energy": -0.02151,
				"method": "rhf"
			},
			{
				"type": "unocc",
				"energy": 0.04535,
				"method": "rhf"
			},
			{
				"type": "unocc",
				"energy": 0.06993,
				"method": "rhf"
			},
			{
				"type": "unocc",
				"energy": 0.07646,
				"method": "rhf"
			},
			{
				"type": "unocc",
				"energy": 0.11038,
				"method": "rhf"
			}
		],
		"cosmo_sigma_profile": { 
			"-0.025": 0.0,
			"-0.024": 0.0,
			"-0.023": 0.0,
			"-0.022": 0.0,
			"-0.021": 0.0,
			"-0.02": 0.0,
			"-0.019": 0.0,
			"-0.018": 0.0,
			"-0.017": 0.0,
			"-0.016": 1.02491118285,
			"-0.015": 2.27553760417,
			"-0.014": 2.37457851228,
			"-0.013": 2.08298386794,
			"-0.012": 1.98589930741,
			"-0.011": 1.92012998657,
			"-0.01": 1.94223885379,
			"-0.009": 1.85389953905,
			"-0.008": 1.86874937086,
			"-0.007": 1.62885683192,
			"-0.006": 2.10430425532,
			"-0.005": 3.04016602224,
			"-0.004": 3.05215019168,
			"-0.003": 4.64222674194,
			"-0.002": 8.37874669302,
			"-0.001": 13.6575189,
			"0.0": 22.9593242668,
			"0.001": 50.2824072423,
			"0.002": 27.1539564902,
			"0.003": 5.10613964849,
			"0.004": 2.67734357282,
			"0.005": 2.41990058358,
			"0.006": 2.049951468,
			"0.007": 1.76403242219,
			"0.008": 1.52488412757,
			"0.009": 1.90472059258,
			"0.01": 2.03902392908,
			"0.011": 3.7479938327,
			"0.012": 3.45979600106,
			"0.013": 0.287289406683,
			"0.014": 0.0,
			"0.015": 0.0,
			"0.016": 0.0,
			"0.017": 0.0,
			"0.018": 0.0,
			"0.019": 0.0,
			"0.02": 0.0,
			"0.021": 0.0,
			"0.022": 0.0,
			"0.023": 0.0,
			"0.024": 0.0,
			"0.025": 0.0
		}
	}
}
