{
	 "smiles": "COC(=O)C1=CC=C(CCl)C=C1", 
	 "Tm": 313.15, 
	 "num_atms": 21, 
	 "gaussian": { 
		 "optdone": 1, 
		 "sigma_profile": "yes", 
		 "theory": "DFT", 
		 "functional": "B3LYP", 
		 "basiset": "6-31G**", 
		 "properties": { 
			 "R2extent": 3959.3582, 
			 "electric_dipole_moment_norm": 2.55531263058, 
			 "electric_quadrupole_moment_norm": 14.8064053099, 
			 "total_energy": -959.039590548, 
			 "HOMO_LUMO_gap": 0.20216, 
			 "cosmo_polarized_energy": -9.91, 
			 "cosmo_cavitation_energy": 27.43, 
			 "cosmo_dispersion_energy": -19.99, 
			 "cosmo_repulsion_energy": 1.61, 
			 "cosmo_total_nonelectrostatic_energy": 9.05, 
			 "SMD_solvation_energy": 5.93 
		},
		"coords": [
			{
				"x": -3.6839861293,
				"y": -0.1336618026,
				"z": 1.2719712686,
				"element": "C" 
			},
			{
				"x": -2.4254283603,
				"y": 0.160776702,
				"z": 0.6462478704,
				"element": "O" 
			},
			{
				"x": -1.3403928621,
				"y": 0.0173618792,
				"z": 1.4405418195,
				"element": "C" 
			},
			{
				"x": -1.4087439459,
				"y": -0.3366032013,
				"z": 2.6015062488,
				"element": "O" 
			},
			{
				"x": -0.0688192457,
				"y": 0.3406947794,
				"z": 0.7319617086,
				"element": "C" 
			},
			{
				"x": -0.035237255,
				"y": 0.7378298955,
				"z": -0.6117662988,
				"element": "C" 
			},
			{
				"x": 1.1833570317,
				"y": 1.0225272593,
				"z": -1.2211525277,
				"element": "C" 
			},
			{
				"x": 2.3833136507,
				"y": 0.916683926,
				"z": -0.5047218977,
				"element": "C" 
			},
			{
				"x": 3.6940954555,
				"y": 1.2198623452,
				"z": -1.1679793617,
				"element": "C" 
			},
			{
				"x": 4.15350057,
				"y": 2.9908685876,
				"z": -1.0177633793,
				"element": "Cl" 
			},
			{
				"x": 2.3414306039,
				"y": 0.5205988119,
				"z": 0.8394892543,
				"element": "C" 
			},
			{
				"x": 1.1272600839,
				"y": 0.2339864933,
				"z": 1.4538366362,
				"element": "C" 
			},
			{
				"x": -4.439811623,
				"y": 0.0313997428,
				"z": 0.5042723821,
				"element": "H" 
			},
			{
				"x": -3.7080632253,
				"y": -1.1696846234,
				"z": 1.6190510484,
				"element": "H" 
			},
			{
				"x": -3.8526887662,
				"y": 0.5269334768,
				"z": 2.1260533819,
				"element": "H" 
			},
			{
				"x": -0.9607092635,
				"y": 0.8183845967,
				"z": -1.169842822,
				"element": "H" 
			},
			{
				"x": 1.2062622478,
				"y": 1.3324695988,
				"z": -2.2624515449,
				"element": "H" 
			},
			{
				"x": 4.5176905018,
				"y": 0.6673255367,
				"z": -0.7156594705,
				"element": "H" 
			},
			{
				"x": 3.6664687692,
				"y": 1.0179072466,
				"z": -2.2388416084,
				"element": "H" 
			},
			{
				"x": 3.2662462872,
				"y": 0.4390844374,
				"z": 1.4041978226,
				"element": "H" 
			},
			{
				"x": 1.0812554747,
				"y": -0.0767456881,
				"z": 2.4919494699,
				"element": "H" 
			}
		],
		 "valence_orbital": [ 
			{
				"type": "occ",
				"energy": -0.30008,
				"method": "rhf"
			},
			{
				"type": "occ",
				"energy": -0.29749,
				"method": "rhf"
			},
			{
				"type": "occ",
				"energy": -0.27779,
				"method": "rhf"
			},
			{
				"type": "occ",
				"energy": -0.26663,
				"method": "rhf"
			},
			{
				"type": "occ",
				"energy": -0.26229,
				"method": "rhf"
			},
			{
				"type": "unocc",
				"energy": -0.06013,
				"method": "rhf"
			},
			{
				"type": "unocc",
				"energy": -0.01637,
				"method": "rhf"
			},
			{
				"type": "unocc",
				"energy": 0.01508,
				"method": "rhf"
			},
			{
				"type": "unocc",
				"energy": 0.06221,
				"method": "rhf"
			},
			{
				"type": "unocc",
				"energy": 0.08746,
				"method": "rhf"
			}
		],
		"cosmo_sigma_profile": { 
			"-0.025": 0.0,
			"-0.024": 0.0,
			"-0.023": 0.0,
			"-0.022": 0.0,
			"-0.021": 0.0,
			"-0.02": 0.0,
			"-0.019": 0.0,
			"-0.018": 0.0,
			"-0.017": 0.0,
			"-0.016": 0.0,
			"-0.015": 0.0,
			"-0.014": 0.0,
			"-0.013": 0.0,
			"-0.012": 0.0,
			"-0.011": 0.0,
			"-0.01": 0.0,
			"-0.009": 0.0,
			"-0.008": 4.25545401079,
			"-0.007": 10.5266895903,
			"-0.006": 15.4321655705,
			"-0.005": 17.6069239392,
			"-0.004": 16.7042583983,
			"-0.003": 17.3960580384,
			"-0.002": 12.0176444622,
			"-0.001": 11.8298714866,
			"0.0": 12.9839714636,
			"0.001": 15.4027902936,
			"0.002": 15.9307273753,
			"0.003": 20.2574481026,
			"0.004": 10.7847296077,
			"0.005": 9.41478325183,
			"0.006": 12.4850686464,
			"0.007": 5.80835880992,
			"0.008": 1.09039875623,
			"0.009": 2.33605180692,
			"0.01": 1.40651381965,
			"0.011": 3.12656016158,
			"0.012": 4.07674240733,
			"0.013": 0.1417138931,
			"0.014": 0.0,
			"0.015": 0.0,
			"0.016": 0.0,
			"0.017": 0.0,
			"0.018": 0.0,
			"0.019": 0.0,
			"0.02": 0.0,
			"0.021": 0.0,
			"0.022": 0.0,
			"0.023": 0.0,
			"0.024": 0.0,
			"0.025": 0.0
		}
	}
}
