{
	 "smiles": "COC(=O)C(=O)CC(=O)C1=CC=C(Br)C=C1", 
	 "Tm": 378.15, 
	 "num_atms": 25, 
	 "gaussian": { 
		 "optdone": 1, 
		 "sigma_profile": "yes", 
		 "theory": "DFT", 
		 "functional": "B3LYP", 
		 "basiset": "6-31G**", 
		 "properties": { 
			 "R2extent": 9706.419, 
			 "electric_dipole_moment_norm": 2.65918757142, 
			 "electric_quadrupole_moment_norm": 11.972592173, 
			 "total_energy": -3296.87886055, 
			 "HOMO_LUMO_gap": 0.165, 
			 "cosmo_polarized_energy": -13.99, 
			 "cosmo_cavitation_energy": 33.49, 
			 "cosmo_dispersion_energy": -23.74, 
			 "cosmo_repulsion_energy": 1.87, 
			 "cosmo_total_nonelectrostatic_energy": 11.62, 
			 "SMD_solvation_energy": 7.43 
		},
		"coords": [
			{
				"x": -0.1568523844,
				"y": -0.8891515042,
				"z": 3.731855816,
				"element": "C" 
			},
			{
				"x": -0.7215696661,
				"y": -1.0866770317,
				"z": 2.420551587,
				"element": "O" 
			},
			{
				"x": -0.9514670412,
				"y": 0.0330044677,
				"z": 1.7167668831,
				"element": "C" 
			},
			{
				"x": -0.7445028159,
				"y": 1.1578518308,
				"z": 2.1014356147,
				"element": "O" 
			},
			{
				"x": -1.5352689241,
				"y": -0.2866077263,
				"z": 0.3175669482,
				"element": "C" 
			},
			{
				"x": -2.0500752821,
				"y": 0.6130164154,
				"z": -0.3081422916,
				"element": "O" 
			},
			{
				"x": -1.4023863865,
				"y": -1.7068996415,
				"z": -0.2160340586,
				"element": "C" 
			},
			{
				"x": 0.0057427422,
				"y": -1.9802735388,
				"z": -0.7922035435,
				"element": "C" 
			},
			{
				"x": 0.8194266435,
				"y": -2.5921322233,
				"z": -0.121426331,
				"element": "O" 
			},
			{
				"x": 0.3322410002,
				"y": -1.4974174882,
				"z": -2.1666736012,
				"element": "C" 
			},
			{
				"x": 1.5655088806,
				"y": -1.8869182109,
				"z": -2.7170451246,
				"element": "C" 
			},
			{
				"x": 1.9365324928,
				"y": -1.4810601504,
				"z": -3.9926989068,
				"element": "C" 
			},
			{
				"x": 1.0669204961,
				"y": -0.6670750678,
				"z": -4.7234180555,
				"element": "C" 
			},
			{
				"x": 1.56612981,
				"y": -0.1046892209,
				"z": -6.4751605759,
				"element": "Br" 
			},
			{
				"x": -0.1567515493,
				"y": -0.2565134531,
				"z": -4.1962115768,
				"element": "C" 
			},
			{
				"x": -0.5238187803,
				"y": -0.6771903364,
				"z": -2.9189152258,
				"element": "C" 
			},
			{
				"x": 0.8063565416,
				"y": -0.3802412733,
				"z": 3.6532106161,
				"element": "H" 
			},
			{
				"x": -0.8303490021,
				"y": -0.2873989836,
				"z": 4.3466448888,
				"element": "H" 
			},
			{
				"x": -0.033614722,
				"y": -1.8864611766,
				"z": 4.1511897381,
				"element": "H" 
			},
			{
				"x": -1.5402266986,
				"y": -2.4230608215,
				"z": 0.5937819998,
				"element": "H" 
			},
			{
				"x": -2.1665951067,
				"y": -1.8445271236,
				"z": -0.9837705408,
				"element": "H" 
			},
			{
				"x": 2.2208141016,
				"y": -2.5145974393,
				"z": -2.1227016678,
				"element": "H" 
			},
			{
				"x": 2.8847450331,
				"y": -1.786757392,
				"z": -4.4196933895,
				"element": "H" 
			},
			{
				"x": -0.8123472968,
				"y": 0.3841861937,
				"z": -4.7743082831,
				"element": "H" 
			},
			{
				"x": -1.4656920856,
				"y": -0.3323091041,
				"z": -2.5066009193,
				"element": "H" 
			}
		],
		 "valence_orbital": [ 
			{
				"type": "occ",
				"energy": -0.29756,
				"method": "rhf"
			},
			{
				"type": "occ",
				"energy": -0.27781,
				"method": "rhf"
			},
			{
				"type": "occ",
				"energy": -0.27729,
				"method": "rhf"
			},
			{
				"type": "occ",
				"energy": -0.26358,
				"method": "rhf"
			},
			{
				"type": "occ",
				"energy": -0.25681,
				"method": "rhf"
			},
			{
				"type": "unocc",
				"energy": -0.09181,
				"method": "rhf"
			},
			{
				"type": "unocc",
				"energy": -0.06765,
				"method": "rhf"
			},
			{
				"type": "unocc",
				"energy": -0.02647,
				"method": "rhf"
			},
			{
				"type": "unocc",
				"energy": -0.00202,
				"method": "rhf"
			},
			{
				"type": "unocc",
				"energy": 0.01841,
				"method": "rhf"
			}
		],
		"cosmo_sigma_profile": { 
			"-0.025": 0.0,
			"-0.024": 0.0,
			"-0.023": 0.0,
			"-0.022": 0.0,
			"-0.021": 0.0,
			"-0.02": 0.0,
			"-0.019": 0.0,
			"-0.018": 0.0,
			"-0.017": 0.0,
			"-0.016": 0.0,
			"-0.015": 0.0,
			"-0.014": 0.0,
			"-0.013": 0.0,
			"-0.012": 0.0,
			"-0.011": 0.0342648840293,
			"-0.01": 0.351297307762,
			"-0.009": 1.34904483367,
			"-0.008": 5.97430188793,
			"-0.007": 14.6019236847,
			"-0.006": 21.6685957089,
			"-0.005": 21.9374123532,
			"-0.004": 20.7391480077,
			"-0.003": 17.0123124133,
			"-0.002": 12.0424119015,
			"-0.001": 14.1923945041,
			"0.0": 17.5519748741,
			"0.001": 25.7462302299,
			"0.002": 22.2393302658,
			"0.003": 14.6760658412,
			"0.004": 14.5687782124,
			"0.005": 4.99294032575,
			"0.006": 4.71036595778,
			"0.007": 4.32533778336,
			"0.008": 6.11321366128,
			"0.009": 8.35439348212,
			"0.01": 8.64135960156,
			"0.011": 7.68889010619,
			"0.012": 2.31761220144,
			"0.013": 0.0555529822292,
			"0.014": 0.0,
			"0.015": 0.0,
			"0.016": 0.0,
			"0.017": 0.0,
			"0.018": 0.0,
			"0.019": 0.0,
			"0.02": 0.0,
			"0.021": 0.0,
			"0.022": 0.0,
			"0.023": 0.0,
			"0.024": 0.0,
			"0.025": 0.0
		}
	}
}
