{
	 "smiles": "OC(=O)C(F)C(F)(F)F", 
	 "Tm": 301.85, 
	 "num_atms": 11, 
	 "gaussian": { 
		 "optdone": 1, 
		 "sigma_profile": "yes", 
		 "theory": "DFT", 
		 "functional": "B3LYP", 
		 "basiset": "6-31G**", 
		 "properties": { 
			 "R2extent": 1848.4149, 
			 "electric_dipole_moment_norm": 1.65364558174, 
			 "electric_quadrupole_moment_norm": 9.97756519949, 
			 "total_energy": -665.328575141, 
			 "HOMO_LUMO_gap": 0.2779, 
			 "cosmo_polarized_energy": -9.52, 
			 "cosmo_cavitation_energy": 17.86, 
			 "cosmo_dispersion_energy": -12.46, 
			 "cosmo_repulsion_energy": 0.98, 
			 "cosmo_total_nonelectrostatic_energy": 6.38, 
			 "SMD_solvation_energy": 6.1 
		},
		"coords": [
			{
				"x": 2.6429851724,
				"y": -0.7419265036,
				"z": 2.7331482538,
				"element": "O" 
			},
			{
				"x": 1.5297051316,
				"y": -0.3106310341,
				"z": 2.1255087746,
				"element": "C" 
			},
			{
				"x": 0.5459891433,
				"y": 0.1071989355,
				"z": 2.6873257377,
				"element": "O" 
			},
			{
				"x": 1.6300338409,
				"y": -0.3968814438,
				"z": 0.6016101552,
				"element": "C" 
			},
			{
				"x": 2.8917475298,
				"y": -0.7405835495,
				"z": 0.1871608448,
				"element": "F" 
			},
			{
				"x": 0.6488017229,
				"y": -1.4409518407,
				"z": 0.0492812058,
				"element": "C" 
			},
			{
				"x": 0.8396249978,
				"y": -2.6386847637,
				"z": 0.6307591031,
				"element": "F" 
			},
			{
				"x": -0.6173431984,
				"y": -1.0577130851,
				"z": 0.268732002,
				"element": "F" 
			},
			{
				"x": 0.8294474534,
				"y": -1.5823908177,
				"z": -1.2729876844,
				"element": "F" 
			},
			{
				"x": 2.4864669987,
				"y": -0.6533225098,
				"z": 3.6892930432,
				"element": "H" 
			},
			{
				"x": 1.3520412076,
				"y": 0.5774866125,
				"z": 0.1856685642,
				"element": "H" 
			}
		],
		 "valence_orbital": [ 
			{
				"type": "occ",
				"energy": -0.41498,
				"method": "rhf"
			},
			{
				"type": "occ",
				"energy": -0.39463,
				"method": "rhf"
			},
			{
				"type": "occ",
				"energy": -0.37126,
				"method": "rhf"
			},
			{
				"type": "occ",
				"energy": -0.34331,
				"method": "rhf"
			},
			{
				"type": "occ",
				"energy": -0.30246,
				"method": "rhf"
			},
			{
				"type": "unocc",
				"energy": -0.02456,
				"method": "rhf"
			},
			{
				"type": "unocc",
				"energy": 0.04774,
				"method": "rhf"
			},
			{
				"type": "unocc",
				"energy": 0.07767,
				"method": "rhf"
			},
			{
				"type": "unocc",
				"energy": 0.11036,
				"method": "rhf"
			},
			{
				"type": "unocc",
				"energy": 0.15321,
				"method": "rhf"
			}
		],
		"cosmo_sigma_profile": { 
			"-0.025": 0.0,
			"-0.024": 0.0,
			"-0.023": 0.0,
			"-0.022": 0.0,
			"-0.021": 0.0,
			"-0.02": 0.327620430874,
			"-0.019": 1.19164419647,
			"-0.018": 0.759160559326,
			"-0.017": 0.638040594454,
			"-0.016": 1.44613532251,
			"-0.015": 0.660186088363,
			"-0.014": 0.233086140716,
			"-0.013": 1.13942089878,
			"-0.012": 2.50404578016,
			"-0.011": 3.43246060074,
			"-0.01": 2.27705350647,
			"-0.009": 3.32810194083,
			"-0.008": 2.28540191156,
			"-0.007": 1.79827363261,
			"-0.006": 2.56615428222,
			"-0.005": 2.80711764634,
			"-0.004": 2.59911619046,
			"-0.003": 4.0125781906,
			"-0.002": 4.7697190595,
			"-0.001": 5.76244163082,
			"0.0": 9.67755924835,
			"0.001": 18.8367554337,
			"0.002": 28.5885977647,
			"0.003": 9.76424927118,
			"0.004": 7.18841594219,
			"0.005": 3.64778826569,
			"0.006": 3.49787946335,
			"0.007": 3.94442629552,
			"0.008": 3.6200730266,
			"0.009": 2.44797521894,
			"0.01": 5.24354398033,
			"0.011": 1.55199107964,
			"0.012": 0.0,
			"0.013": 0.0,
			"0.014": 0.0,
			"0.015": 0.0,
			"0.016": 0.0,
			"0.017": 0.0,
			"0.018": 0.0,
			"0.019": 0.0,
			"0.02": 0.0,
			"0.021": 0.0,
			"0.022": 0.0,
			"0.023": 0.0,
			"0.024": 0.0,
			"0.025": 0.0
		}
	}
}
