{
	 "smiles": "NC1=NN=C(N1)C1=C(Cl)C=C(Cl)C=C1", 
	 "Tm": 502.15, 
	 "num_atms": 20, 
	 "gaussian": { 
		 "optdone": 1, 
		 "sigma_profile": "yes", 
		 "theory": "DFT", 
		 "functional": "B3LYP", 
		 "basiset": "6-31G**", 
		 "properties": { 
			 "R2extent": 4814.7722, 
			 "electric_dipole_moment_norm": 3.8033705394, 
			 "electric_quadrupole_moment_norm": 14.6771007355, 
			 "total_energy": -1447.84460619, 
			 "HOMO_LUMO_gap": 0.16549, 
			 "cosmo_polarized_energy": -18.47, 
			 "cosmo_cavitation_energy": 28.39, 
			 "cosmo_dispersion_energy": -21.64, 
			 "cosmo_repulsion_energy": 1.7, 
			 "cosmo_total_nonelectrostatic_energy": 8.45, 
			 "SMD_solvation_energy": 2.11 
		},
		"coords": [
			{
				"x": -0.2417130846,
				"y": 3.982529957,
				"z": -0.8333179715,
				"element": "N" 
			},
			{
				"x": 0.0004083236,
				"y": 2.7239564062,
				"z": -0.3088178808,
				"element": "C" 
			},
			{
				"x": 0.8238610946,
				"y": 2.4409039693,
				"z": 0.6804369172,
				"element": "N" 
			},
			{
				"x": 0.8329404926,
				"y": 1.0741453606,
				"z": 0.8165282182,
				"element": "N" 
			},
			{
				"x": 0.0105160644,
				"y": 0.5568693714,
				"z": -0.0754708443,
				"element": "C" 
			},
			{
				"x": -0.5432151718,
				"y": 1.5810357319,
				"z": -0.820238387,
				"element": "N" 
			},
			{
				"x": -0.2395263951,
				"y": -0.8822350927,
				"z": -0.1976516269,
				"element": "C" 
			},
			{
				"x": -1.0944509386,
				"y": -1.5252432023,
				"z": -1.1101786345,
				"element": "C" 
			},
			{
				"x": -2.0471455543,
				"y": -0.6364151162,
				"z": -2.3095599275,
				"element": "Cl" 
			},
			{
				"x": -1.2516006634,
				"y": -2.9119197521,
				"z": -1.1339179558,
				"element": "C" 
			},
			{
				"x": -0.540745222,
				"y": -3.6892772789,
				"z": -0.2270893665,
				"element": "C" 
			},
			{
				"x": -0.7343806991,
				"y": -5.4305912719,
				"z": -0.2528424942,
				"element": "Cl" 
			},
			{
				"x": 0.321207962,
				"y": -3.096065804,
				"z": 0.6978606821,
				"element": "C" 
			},
			{
				"x": 0.4598081991,
				"y": -1.7174945079,
				"z": 0.7014931999,
				"element": "C" 
			},
			{
				"x": 0.235292982,
				"y": 4.687221074,
				"z": -0.2828961651,
				"element": "H" 
			},
			{
				"x": -1.223079963,
				"y": 4.2125623294,
				"z": -0.9421748017,
				"element": "H" 
			},
			{
				"x": -1.1486511347,
				"y": 1.4864893767,
				"z": -1.621106911,
				"element": "H" 
			},
			{
				"x": -1.9199105028,
				"y": -3.3699141589,
				"z": -1.8522476897,
				"element": "H" 
			},
			{
				"x": 0.8729203718,
				"y": -3.7079649895,
				"z": 1.4021545456,
				"element": "H" 
			},
			{
				"x": 1.1230638393,
				"y": -1.2333924021,
				"z": 1.4093370935,
				"element": "H" 
			}
		],
		 "valence_orbital": [ 
			{
				"type": "occ",
				"energy": -0.30556,
				"method": "rhf"
			},
			{
				"type": "occ",
				"energy": -0.276,
				"method": "rhf"
			},
			{
				"type": "occ",
				"energy": -0.26933,
				"method": "rhf"
			},
			{
				"type": "occ",
				"energy": -0.25531,
				"method": "rhf"
			},
			{
				"type": "occ",
				"energy": -0.21648,
				"method": "rhf"
			},
			{
				"type": "unocc",
				"energy": -0.05099,
				"method": "rhf"
			},
			{
				"type": "unocc",
				"energy": -0.02982,
				"method": "rhf"
			},
			{
				"type": "unocc",
				"energy": -0.00615,
				"method": "rhf"
			},
			{
				"type": "unocc",
				"energy": 0.0378,
				"method": "rhf"
			},
			{
				"type": "unocc",
				"energy": 0.04155,
				"method": "rhf"
			}
		],
		"cosmo_sigma_profile": { 
			"-0.025": 0.0,
			"-0.024": 0.0,
			"-0.023": 0.0,
			"-0.022": 0.0,
			"-0.021": 0.0,
			"-0.02": 0.0,
			"-0.019": 0.0,
			"-0.018": 0.0,
			"-0.017": 0.0,
			"-0.016": 0.300133205303,
			"-0.015": 1.49184057355,
			"-0.014": 3.1186533825,
			"-0.013": 3.96902946769,
			"-0.012": 2.92030045561,
			"-0.011": 3.62850641396,
			"-0.01": 2.67611262083,
			"-0.009": 3.31534231353,
			"-0.008": 5.68519531626,
			"-0.007": 6.53694040523,
			"-0.006": 7.17388724567,
			"-0.005": 7.64964566633,
			"-0.004": 9.35294800822,
			"-0.003": 9.77611464077,
			"-0.002": 12.0408650366,
			"-0.001": 17.3679426318,
			"0.0": 23.41235145,
			"0.001": 27.9588994005,
			"0.002": 19.608268239,
			"0.003": 17.0358774648,
			"0.004": 14.535617509,
			"0.005": 3.33083866477,
			"0.006": 2.48968213867,
			"0.007": 2.88605768686,
			"0.008": 2.05524452257,
			"0.009": 2.2846839525,
			"0.01": 2.7942621884,
			"0.011": 3.21252553667,
			"0.012": 2.20878144577,
			"0.013": 3.72230169564,
			"0.014": 3.81049784725,
			"0.015": 2.17651610739,
			"0.016": 1.35848862313,
			"0.017": 0.862216417511,
			"0.018": 0.163470259722,
			"0.019": 0.0,
			"0.02": 0.0,
			"0.021": 0.0,
			"0.022": 0.0,
			"0.023": 0.0,
			"0.024": 0.0,
			"0.025": 0.0
		}
	}
}
