{
	 "smiles": "CC1=CC=C(C=C1)N1C=NN=C1SCC(O)=O", 
	 "Tm": 492.15, 
	 "num_atms": 28, 
	 "gaussian": { 
		 "optdone": 1, 
		 "sigma_profile": "yes", 
		 "theory": "DFT", 
		 "functional": "B3LYP", 
		 "basiset": "6-31G**", 
		 "properties": { 
			 "R2extent": 5961.6025, 
			 "electric_dipole_moment_norm": 4.60863939683, 
			 "electric_quadrupole_moment_norm": 27.9041316143, 
			 "total_energy": -1138.67685328, 
			 "HOMO_LUMO_gap": 0.20729, 
			 "cosmo_polarized_energy": -19.11, 
			 "cosmo_cavitation_energy": 34.47, 
			 "cosmo_dispersion_energy": -24.56, 
			 "cosmo_repulsion_energy": 1.87, 
			 "cosmo_total_nonelectrostatic_energy": 11.79, 
			 "SMD_solvation_energy": 5.34 
		},
		"coords": [
			{
				"x": -0.3609133676,
				"y": -3.672267905,
				"z": -1.7320116286,
				"element": "C" 
			},
			{
				"x": -0.0542432685,
				"y": -2.2861955338,
				"z": -1.2164281986,
				"element": "C" 
			},
			{
				"x": 0.433228175,
				"y": -2.0985283371,
				"z": 0.0862225351,
				"element": "C" 
			},
			{
				"x": 0.7468812308,
				"y": -0.8319426676,
				"z": 0.5716656833,
				"element": "C" 
			},
			{
				"x": 0.5553226936,
				"y": 0.279055291,
				"z": -0.2558992879,
				"element": "C" 
			},
			{
				"x": 0.0631833517,
				"y": 0.1220180853,
				"z": -1.5521047961,
				"element": "C" 
			},
			{
				"x": -0.2316983444,
				"y": -1.1569677573,
				"z": -2.0247378712,
				"element": "C" 
			},
			{
				"x": 0.8974459828,
				"y": 1.5879992433,
				"z": 0.2132216194,
				"element": "N" 
			},
			{
				"x": 1.8234637017,
				"y": 2.439134892,
				"z": -0.3416773577,
				"element": "C" 
			},
			{
				"x": 1.953575841,
				"y": 3.5292813952,
				"z": 0.371233925,
				"element": "N" 
			},
			{
				"x": 1.0741654308,
				"y": 3.4290871485,
				"z": 1.4295782076,
				"element": "N" 
			},
			{
				"x": 0.4608670116,
				"y": 2.2709326895,
				"z": 1.3286642555,
				"element": "C" 
			},
			{
				"x": -0.7872314186,
				"y": 1.6783488967,
				"z": 2.4323854853,
				"element": "S" 
			},
			{
				"x": 0.0221524534,
				"y": 2.1386981099,
				"z": 3.9989200066,
				"element": "C" 
			},
			{
				"x": 1.1767922425,
				"y": 1.234341686,
				"z": 4.3991887574,
				"element": "C" 
			},
			{
				"x": 1.613936803,
				"y": 1.5689128346,
				"z": 5.6331219347,
				"element": "O" 
			},
			{
				"x": 1.6732560247,
				"y": 0.3476511845,
				"z": 3.7426661231,
				"element": "O" 
			},
			{
				"x": 0.5606362329,
				"y": -4.2274155583,
				"z": -1.9455763294,
				"element": "H" 
			},
			{
				"x": -0.9454051717,
				"y": -3.6361632396,
				"z": -2.6553467062,
				"element": "H" 
			},
			{
				"x": -0.9248613512,
				"y": -4.2557214496,
				"z": -0.9969490853,
				"element": "H" 
			},
			{
				"x": 0.5779088446,
				"y": -2.9612120878,
				"z": 0.7315586024,
				"element": "H" 
			},
			{
				"x": 1.1309435246,
				"y": -0.6924484122,
				"z": 1.5768299852,
				"element": "H" 
			},
			{
				"x": -0.0975937928,
				"y": 0.9943057074,
				"z": -2.1782501936,
				"element": "H" 
			},
			{
				"x": -0.6147797633,
				"y": -1.2749914376,
				"z": -3.0347621535,
				"element": "H" 
			},
			{
				"x": 2.3668725267,
				"y": 2.1970286281,
				"z": -1.2435388112,
				"element": "H" 
			},
			{
				"x": 0.3885022436,
				"y": 3.1656726326,
				"z": 3.9180142519,
				"element": "H" 
			},
			{
				"x": -0.7450059602,
				"y": 2.1182735227,
				"z": 4.7777286687,
				"element": "H" 
			},
			{
				"x": 2.3670981231,
				"y": 0.9856124388,
				"z": 5.827582378,
				"element": "H" 
			}
		],
		 "valence_orbital": [ 
			{
				"type": "occ",
				"energy": -0.28839,
				"method": "rhf"
			},
			{
				"type": "occ",
				"energy": -0.26342,
				"method": "rhf"
			},
			{
				"type": "occ",
				"energy": -0.26043,
				"method": "rhf"
			},
			{
				"type": "occ",
				"energy": -0.24243,
				"method": "rhf"
			},
			{
				"type": "occ",
				"energy": -0.22998,
				"method": "rhf"
			},
			{
				"type": "unocc",
				"energy": -0.02269,
				"method": "rhf"
			},
			{
				"type": "unocc",
				"energy": -0.01518,
				"method": "rhf"
			},
			{
				"type": "unocc",
				"energy": -0.00744,
				"method": "rhf"
			},
			{
				"type": "unocc",
				"energy": 0.00365,
				"method": "rhf"
			},
			{
				"type": "unocc",
				"energy": 0.03136,
				"method": "rhf"
			}
		],
		"cosmo_sigma_profile": { 
			"-0.025": 0.0,
			"-0.024": 0.0,
			"-0.023": 0.0,
			"-0.022": 0.0,
			"-0.021": 0.0,
			"-0.02": 0.0,
			"-0.019": 0.404274173254,
			"-0.018": 1.09145963517,
			"-0.017": 1.11303524571,
			"-0.016": 0.265755381777,
			"-0.015": 0.94513957839,
			"-0.014": 0.808276241995,
			"-0.013": 0.487567820674,
			"-0.012": 0.84729999785,
			"-0.011": 1.37204092156,
			"-0.01": 3.94452527449,
			"-0.009": 4.33409783225,
			"-0.008": 6.14642664576,
			"-0.007": 8.23911759714,
			"-0.006": 12.0320647067,
			"-0.005": 17.4344360899,
			"-0.004": 18.9020764877,
			"-0.003": 17.8068470471,
			"-0.002": 21.7804754616,
			"-0.001": 19.3944370355,
			"0.0": 20.7327458209,
			"0.001": 16.3479134924,
			"0.002": 15.7263039948,
			"0.003": 15.0289571452,
			"0.004": 16.3473436433,
			"0.005": 11.7288002771,
			"0.006": 8.54419863525,
			"0.007": 6.04007132553,
			"0.008": 4.89828015824,
			"0.009": 5.16185529529,
			"0.01": 3.31596110139,
			"0.011": 3.72818255249,
			"0.012": 3.21897457974,
			"0.013": 3.53513846518,
			"0.014": 2.51127356955,
			"0.015": 2.0189752612,
			"0.016": 1.02583351863,
			"0.017": 0.203934643218,
			"0.018": 0.0,
			"0.019": 0.0,
			"0.02": 0.0,
			"0.021": 0.0,
			"0.022": 0.0,
			"0.023": 0.0,
			"0.024": 0.0,
			"0.025": 0.0
		}
	}
}
