{
	 "smiles": "CN1C=CC2=C1C=CC=C2S(Cl)(=O)=O", 
	 "Tm": 369.15, 
	 "num_atms": 22, 
	 "gaussian": { 
		 "optdone": 1, 
		 "sigma_profile": "yes", 
		 "theory": "DFT", 
		 "functional": "B3LYP", 
		 "basiset": "6-31G**", 
		 "properties": { 
			 "R2extent": 3951.9021, 
			 "electric_dipole_moment_norm": 8.24546591225, 
			 "electric_quadrupole_moment_norm": 12.1718135383, 
			 "total_energy": -1411.29427361, 
			 "HOMO_LUMO_gap": 0.14842, 
			 "cosmo_polarized_energy": -13.09, 
			 "cosmo_cavitation_energy": 29.21, 
			 "cosmo_dispersion_energy": -21.73, 
			 "cosmo_repulsion_energy": 1.64, 
			 "cosmo_total_nonelectrostatic_energy": 9.12, 
			 "SMD_solvation_energy": 3.87 
		},
		"coords": [
			{
				"x": -0.6427477961,
				"y": 3.3496090996,
				"z": -0.0945349107,
				"element": "C" 
			},
			{
				"x": 0.0536020449,
				"y": 2.0802027344,
				"z": -0.1878365498,
				"element": "N" 
			},
			{
				"x": 0.9672552878,
				"y": 1.7201944042,
				"z": -1.1581415037,
				"element": "C" 
			},
			{
				"x": 1.438132926,
				"y": 0.4505649933,
				"z": -0.935115707,
				"element": "C" 
			},
			{
				"x": 0.7819685251,
				"y": -0.0218848498,
				"z": 0.2425344444,
				"element": "C" 
			},
			{
				"x": -0.0812769527,
				"y": 1.0249024161,
				"z": 0.6909019311,
				"element": "C" 
			},
			{
				"x": -0.8810311941,
				"y": 0.9083688818,
				"z": 1.8302225504,
				"element": "C" 
			},
			{
				"x": -0.829331218,
				"y": -0.2810300108,
				"z": 2.5524834715,
				"element": "C" 
			},
			{
				"x": -0.0028054456,
				"y": -1.3407280114,
				"z": 2.1453004554,
				"element": "C" 
			},
			{
				"x": 0.791647935,
				"y": -1.2028910715,
				"z": 1.0111345146,
				"element": "C" 
			},
			{
				"x": 1.8152556428,
				"y": -2.5763750027,
				"z": 0.536776268,
				"element": "S" 
			},
			{
				"x": 0.6338549715,
				"y": -3.4802769336,
				"z": -1.0135468059,
				"element": "Cl" 
			},
			{
				"x": 3.0235099209,
				"y": -2.0968934598,
				"z": -0.1258799285,
				"element": "O" 
			},
			{
				"x": 1.8673248134,
				"y": -3.5522295833,
				"z": 1.6192815045,
				"element": "O" 
			},
			{
				"x": -0.3365539108,
				"y": 3.9831432276,
				"z": -0.9282179825,
				"element": "H" 
			},
			{
				"x": -1.7272971677,
				"y": 3.206598836,
				"z": -0.1467914912,
				"element": "H" 
			},
			{
				"x": -0.398413545,
				"y": 3.8638620457,
				"z": 0.8411211224,
				"element": "H" 
			},
			{
				"x": 1.2169458507,
				"y": 2.4161126727,
				"z": -1.9470218894,
				"element": "H" 
			},
			{
				"x": 2.1664608567,
				"y": -0.079635165,
				"z": -1.5275215532,
				"element": "H" 
			},
			{
				"x": -1.5276131858,
				"y": 1.7203016937,
				"z": 2.1485028264,
				"element": "H" 
			},
			{
				"x": -1.4369499023,
				"y": -0.396284753,
				"z": 3.4438346188,
				"element": "H" 
			},
			{
				"x": 0.0304615434,
				"y": -2.2648321642,
				"z": 2.7102146146,
				"element": "H" 
			}
		],
		 "valence_orbital": [ 
			{
				"type": "occ",
				"energy": -0.31844,
				"method": "rhf"
			},
			{
				"type": "occ",
				"energy": -0.30025,
				"method": "rhf"
			},
			{
				"type": "occ",
				"energy": -0.29617,
				"method": "rhf"
			},
			{
				"type": "occ",
				"energy": -0.24898,
				"method": "rhf"
			},
			{
				"type": "occ",
				"energy": -0.22919,
				"method": "rhf"
			},
			{
				"type": "unocc",
				"energy": -0.08077,
				"method": "rhf"
			},
			{
				"type": "unocc",
				"energy": -0.03817,
				"method": "rhf"
			},
			{
				"type": "unocc",
				"energy": -0.00465,
				"method": "rhf"
			},
			{
				"type": "unocc",
				"energy": 0.04496,
				"method": "rhf"
			},
			{
				"type": "unocc",
				"energy": 0.06532,
				"method": "rhf"
			}
		],
		"cosmo_sigma_profile": { 
			"-0.025": 0.0,
			"-0.024": 0.0,
			"-0.023": 0.0,
			"-0.022": 0.0,
			"-0.021": 0.0,
			"-0.02": 0.0,
			"-0.019": 0.0,
			"-0.018": 0.0,
			"-0.017": 0.0,
			"-0.016": 0.0,
			"-0.015": 0.0,
			"-0.014": 0.0,
			"-0.013": 0.0,
			"-0.012": 0.0,
			"-0.011": 0.0,
			"-0.01": 0.366540130701,
			"-0.009": 2.76148664956,
			"-0.008": 4.20420519678,
			"-0.007": 9.71147739444,
			"-0.006": 17.021936321,
			"-0.005": 16.3349775468,
			"-0.004": 14.8267933446,
			"-0.003": 16.4055868379,
			"-0.002": 11.9555360261,
			"-0.001": 11.6565265542,
			"0.0": 13.2058231749,
			"0.001": 16.9115890973,
			"0.002": 24.6554867707,
			"0.003": 22.1121556043,
			"0.004": 21.1141963175,
			"0.005": 9.19229496559,
			"0.006": 3.32795943738,
			"0.007": 5.68102016962,
			"0.008": 7.88010589985,
			"0.009": 6.98531533081,
			"0.01": 0.761470008926,
			"0.011": 0.0,
			"0.012": 0.0,
			"0.013": 0.0,
			"0.014": 0.0,
			"0.015": 0.0,
			"0.016": 0.0,
			"0.017": 0.0,
			"0.018": 0.0,
			"0.019": 0.0,
			"0.02": 0.0,
			"0.021": 0.0,
			"0.022": 0.0,
			"0.023": 0.0,
			"0.024": 0.0,
			"0.025": 0.0
		}
	}
}
