{
	 "smiles": "NC1=NN=C(SCC(O)=O)S1", 
	 "Tm": 470.15, 
	 "num_atms": 16, 
	 "gaussian": { 
		 "optdone": 1, 
		 "sigma_profile": "yes", 
		 "theory": "DFT", 
		 "functional": "B3LYP", 
		 "basiset": "6-31G**", 
		 "properties": { 
			 "R2extent": 2875.5082, 
			 "electric_dipole_moment_norm": 3.34433493837, 
			 "electric_quadrupole_moment_norm": 20.2539095754, 
			 "total_energy": -1266.48718871, 
			 "HOMO_LUMO_gap": 0.19714, 
			 "cosmo_polarized_energy": -20.41, 
			 "cosmo_cavitation_energy": 24.76, 
			 "cosmo_dispersion_energy": -19.09, 
			 "cosmo_repulsion_energy": 1.49, 
			 "cosmo_total_nonelectrostatic_energy": 7.16, 
			 "SMD_solvation_energy": 3.32 
		},
		"coords": [
			{
				"x": 3.219094484,
				"y": -3.5351669937,
				"z": 1.2642826192,
				"element": "N" 
			},
			{
				"x": 2.4809866291,
				"y": -2.4317898679,
				"z": 0.9041558867,
				"element": "C" 
			},
			{
				"x": 1.4564394996,
				"y": -1.9937562652,
				"z": 1.5778109177,
				"element": "N" 
			},
			{
				"x": 0.8255298593,
				"y": -0.9395706355,
				"z": 0.9615640313,
				"element": "N" 
			},
			{
				"x": 1.384332489,
				"y": -0.578454694,
				"z": -0.1506842476,
				"element": "C" 
			},
			{
				"x": 0.8459497946,
				"y": 0.7573946344,
				"z": -1.1661727451,
				"element": "S" 
			},
			{
				"x": -0.5058456646,
				"y": 1.386013583,
				"z": -0.109696424,
				"element": "C" 
			},
			{
				"x": -1.7440720879,
				"y": 0.5192771178,
				"z": 0.0749438964,
				"element": "C" 
			},
			{
				"x": -1.9192543554,
				"y": -0.4029734233,
				"z": -0.8888840137,
				"element": "O" 
			},
			{
				"x": -2.5228519071,
				"y": 0.6992221151,
				"z": 0.9819793976,
				"element": "O" 
			},
			{
				"x": 2.7905405652,
				"y": -1.5546752682,
				"z": -0.6029556039,
				"element": "S" 
			},
			{
				"x": 2.9994478875,
				"y": -3.8524525413,
				"z": 2.2007761375,
				"element": "H" 
			},
			{
				"x": 4.2111919979,
				"y": -3.4968412269,
				"z": 1.0756185711,
				"element": "H" 
			},
			{
				"x": -0.8149036779,
				"y": 2.3216282714,
				"z": -0.5874911331,
				"element": "H" 
			},
			{
				"x": -0.1228042757,
				"y": 1.6180477445,
				"z": 0.8841889175,
				"element": "H" 
			},
			{
				"x": -2.7349812374,
				"y": -0.8787025502,
				"z": -0.6587362077,
				"element": "H" 
			}
		],
		 "valence_orbital": [ 
			{
				"type": "occ",
				"energy": -0.30342,
				"method": "rhf"
			},
			{
				"type": "occ",
				"energy": -0.28557,
				"method": "rhf"
			},
			{
				"type": "occ",
				"energy": -0.27052,
				"method": "rhf"
			},
			{
				"type": "occ",
				"energy": -0.26478,
				"method": "rhf"
			},
			{
				"type": "occ",
				"energy": -0.221,
				"method": "rhf"
			},
			{
				"type": "unocc",
				"energy": -0.02386,
				"method": "rhf"
			},
			{
				"type": "unocc",
				"energy": -0.01509,
				"method": "rhf"
			},
			{
				"type": "unocc",
				"energy": 0.00217,
				"method": "rhf"
			},
			{
				"type": "unocc",
				"energy": 0.01877,
				"method": "rhf"
			},
			{
				"type": "unocc",
				"energy": 0.03821,
				"method": "rhf"
			}
		],
		"cosmo_sigma_profile": { 
			"-0.025": 0.0,
			"-0.024": 0.0,
			"-0.023": 0.0,
			"-0.022": 0.0,
			"-0.021": 0.0,
			"-0.02": 0.0,
			"-0.019": 0.355147262452,
			"-0.018": 0.884941295894,
			"-0.017": 0.960970341152,
			"-0.016": 1.16745617797,
			"-0.015": 2.34120423548,
			"-0.014": 2.75293975372,
			"-0.013": 3.75163616241,
			"-0.012": 3.51024526267,
			"-0.011": 4.70029317375,
			"-0.01": 5.19159514957,
			"-0.009": 4.10586990745,
			"-0.008": 5.29255192751,
			"-0.007": 5.61406502119,
			"-0.006": 6.69406276298,
			"-0.005": 7.2026640552,
			"-0.004": 6.4720183291,
			"-0.003": 6.65591966259,
			"-0.002": 8.42315259826,
			"-0.001": 13.4789657358,
			"0.0": 14.2215426348,
			"0.001": 12.8284808792,
			"0.002": 10.6502706037,
			"0.003": 10.0439723586,
			"0.004": 6.81973695635,
			"0.005": 7.119097193,
			"0.006": 7.25496604877,
			"0.007": 7.11020761274,
			"0.008": 6.6805520773,
			"0.009": 6.53872319198,
			"0.01": 5.59930878084,
			"0.011": 8.59556015752,
			"0.012": 5.32965341992,
			"0.013": 1.3927742086,
			"0.014": 1.23404259426,
			"0.015": 0.598481168289,
			"0.016": 0.0,
			"0.017": 0.0,
			"0.018": 0.0,
			"0.019": 0.0,
			"0.02": 0.0,
			"0.021": 0.0,
			"0.022": 0.0,
			"0.023": 0.0,
			"0.024": 0.0,
			"0.0": 0.0
		}
	}
}
