{
	 "smiles": "CN1C(CO)=NN=C1C1=CC=CC=C1", 
	 "Tm": 458.15, 
	 "num_atms": 25, 
	 "gaussian": { 
		 "optdone": 1, 
		 "sigma_profile": "yes", 
		 "theory": "DFT", 
		 "functional": "B3LYP", 
		 "basiset": "6-31G**", 
		 "properties": { 
			 "R2extent": 3469.128, 
			 "electric_dipole_moment_norm": 4.21091963115, 
			 "electric_quadrupole_moment_norm": 10.9318429137, 
			 "total_energy": -627.146621406, 
			 "HOMO_LUMO_gap": 0.19708, 
			 "cosmo_polarized_energy": -18.24, 
			 "cosmo_cavitation_energy": 28.66, 
			 "cosmo_dispersion_energy": -21.0, 
			 "cosmo_repulsion_energy": 1.64, 
			 "cosmo_total_nonelectrostatic_energy": 9.31, 
			 "SMD_solvation_energy": 2.87 
		},
		"coords": [
			{
				"x": 1.0251600273,
				"y": -0.4892235641,
				"z": 2.4046334476,
				"element": "C" 
			},
			{
				"x": 0.9305556055,
				"y": -1.0705062366,
				"z": 1.0686489028,
				"element": "N" 
			},
			{
				"x": 1.9001302375,
				"y": -1.8271786024,
				"z": 0.4541561397,
				"element": "C" 
			},
			{
				"x": 3.1793853507,
				"y": -2.2647189071,
				"z": 1.0948968058,
				"element": "C" 
			},
			{
				"x": 4.0146209142,
				"y": -1.1716891212,
				"z": 1.4833084176,
				"element": "O" 
			},
			{
				"x": 1.5604208153,
				"y": -2.0838850073,
				"z": -0.791050308,
				"element": "N" 
			},
			{
				"x": 0.3414494421,
				"y": -1.4997559331,
				"z": -1.0171762323,
				"element": "N" 
			},
			{
				"x": -0.0333540865,
				"y": -0.893838291,
				"z": 0.0974794494,
				"element": "C" 
			},
			{
				"x": -1.2848106689,
				"y": -0.135062702,
				"z": 0.2318514441,
				"element": "C" 
			},
			{
				"x": -2.013421499,
				"y": -0.0676637783,
				"z": 1.4308329233,
				"element": "C" 
			},
			{
				"x": -3.2083961038,
				"y": 0.6500921052,
				"z": 1.4922930713,
				"element": "C" 
			},
			{
				"x": -3.6971792522,
				"y": 1.3000692941,
				"z": 0.3587553471,
				"element": "C" 
			},
			{
				"x": -2.9881714801,
				"y": 1.2217706222,
				"z": -0.8432784104,
				"element": "C" 
			},
			{
				"x": -1.7927217426,
				"y": 0.5120118463,
				"z": -0.9086392299,
				"element": "C" 
			},
			{
				"x": 0.50856249,
				"y": 0.4713615992,
				"z": 2.4203442864,
				"element": "H" 
			},
			{
				"x": 0.5766647939,
				"y": -1.1452821901,
				"z": 3.1578397997,
				"element": "H" 
			},
			{
				"x": 2.0799046344,
				"y": -0.3367133424,
				"z": 2.6364730754,
				"element": "H" 
			},
			{
				"x": 2.9901258294,
				"y": -2.8243768042,
				"z": 2.0169987717,
				"element": "H" 
			},
			{
				"x": 3.6778604181,
				"y": -2.9381391822,
				"z": 0.3875450787,
				"element": "H" 
			},
			{
				"x": 4.2447050022,
				"y": -0.6863992872,
				"z": 0.6791109331,
				"element": "H" 
			},
			{
				"x": -1.6695581925,
				"y": -0.6006490122,
				"z": 2.3109071158,
				"element": "H" 
			},
			{
				"x": -3.7626692517,
				"y": 0.6899826362,
				"z": 2.4255277299,
				"element": "H" 
			},
			{
				"x": -4.6275866355,
				"y": 1.8581033604,
				"z": 0.4088599728,
				"element": "H" 
			},
			{
				"x": -3.3669408183,
				"y": 1.7186141648,
				"z": -1.7317323077,
				"element": "H" 
			},
			{
				"x": -1.2361358295,
				"y": 0.4400763332,
				"z": -1.836586224,
				"element": "H" 
			}
		],
		 "valence_orbital": [ 
			{
				"type": "occ",
				"energy": -0.28707,
				"method": "rhf"
			},
			{
				"type": "occ",
				"energy": -0.2794,
				"method": "rhf"
			},
			{
				"type": "occ",
				"energy": -0.25894,
				"method": "rhf"
			},
			{
				"type": "occ",
				"energy": -0.24632,
				"method": "rhf"
			},
			{
				"type": "occ",
				"energy": -0.22999,
				"method": "rhf"
			},
			{
				"type": "unocc",
				"energy": -0.03291,
				"method": "rhf"
			},
			{
				"type": "unocc",
				"energy": -0.00951,
				"method": "rhf"
			},
			{
				"type": "unocc",
				"energy": 0.01799,
				"method": "rhf"
			},
			{
				"type": "unocc",
				"energy": 0.0588,
				"method": "rhf"
			},
			{
				"type": "unocc",
				"energy": 0.0778,
				"method": "rhf"
			}
		],
		"cosmo_sigma_profile": { 
			"-0.025": 0.0,
			"-0.024": 0.0,
			"-0.023": 0.0,
			"-0.022": 0.0,
			"-0.021": 0.0,
			"-0.02": 0.0,
			"-0.019": 0.0,
			"-0.018": 0.0,
			"-0.017": 0.105666318591,
			"-0.016": 0.955460474078,
			"-0.015": 1.27516004219,
			"-0.014": 0.642897497363,
			"-0.013": 0.618881022095,
			"-0.012": 0.877540578492,
			"-0.011": 1.19844451716,
			"-0.01": 0.605979186674,
			"-0.009": 1.06707555813,
			"-0.008": 1.75744359565,
			"-0.007": 7.95816987074,
			"-0.006": 18.9451601782,
			"-0.005": 21.52084821,
			"-0.004": 24.3239449469,
			"-0.003": 18.258814134,
			"-0.002": 13.13453134,
			"-0.001": 11.1031443353,
			"0.0": 12.0518630287,
			"0.001": 10.2647815451,
			"0.002": 10.8266264821,
			"0.003": 11.0229954733,
			"0.004": 14.8718110341,
			"0.005": 9.66576468914,
			"0.006": 3.00847371664,
			"0.007": 2.76919560287,
			"0.008": 3.32086589059,
			"0.009": 2.32657595348,
			"0.01": 2.52036206079,
			"0.011": 4.02983992144,
			"0.012": 4.13289602316,
			"0.013": 2.86822956741,
			"0.014": 4.41480055955,
			"0.015": 2.34356739088,
			"0.016": 2.29063757307,
			"0.017": 1.33669404564,
			"0.018": 0.0767258676084,
			"0.019": 0.0,
			"0.02": 0.0,
			"0.021": 0.0,
			"0.022": 0.0,
			"0.023": 0.0,
			"0.024": 0.0,
			"0.025": 0.0
		}
	}
}
