{
	 "smiles": "NC(=O)OCC(Cl)(Cl)Cl", 
	 "Tm": 337.15, 
	 "num_atms": 13, 
	 "gaussian": { 
		 "optdone": 1, 
		 "sigma_profile": "yes", 
		 "theory": "DFT", 
		 "functional": "B3LYP", 
		 "basiset": "6-31G**", 
		 "properties": { 
			 "R2extent": 3179.1247, 
			 "electric_dipole_moment_norm": 2.77680006302, 
			 "electric_quadrupole_moment_norm": 14.7323897569, 
			 "total_energy": -1702.51224316, 
			 "HOMO_LUMO_gap": 0.24324, 
			 "cosmo_polarized_energy": -10.89, 
			 "cosmo_cavitation_energy": 22.94, 
			 "cosmo_dispersion_energy": -16.84, 
			 "cosmo_repulsion_energy": 1.42, 
			 "cosmo_total_nonelectrostatic_energy": 7.52, 
			 "SMD_solvation_energy": 4.2 
		},
		"coords": [
			{
				"x": -1.1592082246,
				"y": -2.699910827,
				"z": 2.011391087,
				"element": "N" 
			},
			{
				"x": -0.8703481778,
				"y": -1.4861521225,
				"z": 1.4749555042,
				"element": "C" 
			},
			{
				"x": -1.5895798461,
				"y": -0.5101987224,
				"z": 1.4803850865,
				"element": "O" 
			},
			{
				"x": 0.3693904918,
				"y": -1.544174765,
				"z": 0.8737667645,
				"element": "O" 
			},
			{
				"x": 0.8396297622,
				"y": -0.3411487569,
				"z": 0.2975378849,
				"element": "C" 
			},
			{
				"x": 2.1312932432,
				"y": 0.1204557555,
				"z": 0.9917447571,
				"element": "C" 
			},
			{
				"x": 3.4114340078,
				"y": -1.1368338803,
				"z": 0.8483222869,
				"element": "Cl" 
			},
			{
				"x": 2.6742024005,
				"y": 1.6234062049,
				"z": 0.1572692634,
				"element": "Cl" 
			},
			{
				"x": 1.8298251734,
				"y": 0.4662208514,
				"z": 2.7272376563,
				"element": "Cl" 
			},
			{
				"x": -1.9809043009,
				"y": -2.7640545819,
				"z": 2.5889339861,
				"element": "H" 
			},
			{
				"x": -0.4361724291,
				"y": -3.3958058289,
				"z": 2.0978235102,
				"element": "H" 
			},
			{
				"x": 1.0722045212,
				"y": -0.523267717,
				"z": -0.7549926531,
				"element": "H" 
			},
			{
				"x": 0.0852333782,
				"y": 0.4430643901,
				"z": 0.3910248659,
				"element": "H" 
			}
		],
		 "valence_orbital": [ 
			{
				"type": "occ",
				"energy": -0.32327,
				"method": "rhf"
			},
			{
				"type": "occ",
				"energy": -0.31271,
				"method": "rhf"
			},
			{
				"type": "occ",
				"energy": -0.30995,
				"method": "rhf"
			},
			{
				"type": "occ",
				"energy": -0.29305,
				"method": "rhf"
			},
			{
				"type": "occ",
				"energy": -0.28759,
				"method": "rhf"
			},
			{
				"type": "unocc",
				"energy": -0.04435,
				"method": "rhf"
			},
			{
				"type": "unocc",
				"energy": -0.00594,
				"method": "rhf"
			},
			{
				"type": "unocc",
				"energy": 0.00239,
				"method": "rhf"
			},
			{
				"type": "unocc",
				"energy": 0.04147,
				"method": "rhf"
			},
			{
				"type": "unocc",
				"energy": 0.07116,
				"method": "rhf"
			}
		],
		"cosmo_sigma_profile": { 
			"-0.025": 0.0,
			"-0.024": 0.0,
			"-0.023": 0.0,
			"-0.022": 0.0,
			"-0.021": 0.0,
			"-0.02": 0.0,
			"-0.019": 0.0,
			"-0.018": 0.0,
			"-0.017": 0.0,
			"-0.016": 0.0346497458322,
			"-0.015": 1.51537638716,
			"-0.014": 2.69231851485,
			"-0.013": 2.05245025886,
			"-0.012": 1.70023397381,
			"-0.011": 2.70802050719,
			"-0.01": 1.66821605902,
			"-0.009": 3.02173756429,
			"-0.008": 4.33654128077,
			"-0.007": 4.319360109,
			"-0.006": 6.07611139498,
			"-0.005": 5.00094388887,
			"-0.004": 7.46071296497,
			"-0.003": 8.38219555557,
			"-0.002": 9.60354303631,
			"-0.001": 11.1626704818,
			"0.0": 14.1443469327,
			"0.001": 16.7017376172,
			"0.002": 24.5724731364,
			"0.003": 31.1231631089,
			"0.004": 7.22488941473,
			"0.005": 3.41814876874,
			"0.006": 4.45528670548,
			"0.007": 2.50055181437,
			"0.008": 1.17408108876,
			"0.009": 0.886133260381,
			"0.01": 1.51011067817,
			"0.011": 2.34542301698,
			"0.012": 4.65889819783,
			"0.013": 2.21451793005,
			"0.014": 0.00772019501331,
			"0.015": 0.0,
			"0.016": 0.0,
			"0.017": 0.0,
			"0.018": 0.0,
			"0.019": 0.0,
			"0.02": 0.0,
			"0.021": 0.0,
			"0.022": 0.0,
			"0.023": 0.0,
			"0.024": 0.0,
			"0.025": 0.0
		}
	}
}
