{
	 "smiles": "CN1CCC23C4OC5=C2C(CC1C3C=CC4O)=CC=C5OCCN1CCOCC1", 
	 "Tm": 364.15, 
	 "num_atms": 59, 
	 "gaussian": { 
		 "optdone": 1, 
		 "sigma_profile": "yes", 
		 "theory": "DFT", 
		 "functional": "B3LYP", 
		 "basiset": "6-31G**", 
		 "properties": { 
			 "R2extent": 13771.8076, 
			 "electric_dipole_moment_norm": 4.55616336516, 
			 "electric_quadrupole_moment_norm": 11.636823729, 
			 "total_energy": -1304.82364913, 
			 "HOMO_LUMO_gap": 0.19421, 
			 "cosmo_polarized_energy": -19.31, 
			 "cosmo_cavitation_energy": 54.57, 
			 "cosmo_dispersion_energy": -37.57, 
			 "cosmo_repulsion_energy": 2.83, 
			 "cosmo_total_nonelectrostatic_energy": 19.83, 
			 "SMD_solvation_energy": 4.67 
		},
		"coords": [
			{
				"x": -3.9081040426,
				"y": -2.9326684598,
				"z": -3.1249663549,
				"element": "C" 
			},
			{
				"x": -2.7483082934,
				"y": -2.1577747453,
				"z": -2.7219811372,
				"element": "N" 
			},
			{
				"x": -2.734401773,
				"y": -0.8131918804,
				"z": -3.2815269357,
				"element": "C" 
			},
			{
				"x": -1.6258919227,
				"y": 0.0353871657,
				"z": -2.6389244774,
				"element": "C" 
			},
			{
				"x": -0.3057574176,
				"y": -0.7774236646,
				"z": -2.4355927033,
				"element": "C" 
			},
			{
				"x": 0.9480760372,
				"y": 0.1337311697,
				"z": -2.4819400012,
				"element": "C" 
			},
			{
				"x": 1.112483333,
				"y": 0.607129729,
				"z": -1.1014441177,
				"element": "O" 
			},
			{
				"x": 0.6000926993,
				"y": -0.3869047286,
				"z": -0.2935024159,
				"element": "C" 
			},
			{
				"x": -0.172028178,
				"y": -1.2875771401,
				"z": -1.0138209363,
				"element": "C" 
			},
			{
				"x": -0.6035083977,
				"y": -2.4976562054,
				"z": -0.4958762777,
				"element": "C" 
			},
			{
				"x": -1.154488411,
				"y": -3.5294542278,
				"z": -1.4576323066,
				"element": "C" 
			},
			{
				"x": -1.4814030966,
				"y": -2.9183123778,
				"z": -2.8396877294,
				"element": "C" 
			},
			{
				"x": -0.3399762661,
				"y": -1.9977210972,
				"z": -3.3706398574,
				"element": "C" 
			},
			{
				"x": 1.0033274329,
				"y": -2.6693740978,
				"z": -3.4740065467,
				"element": "C" 
			},
			{
				"x": 2.153895751,
				"y": -2.0248950825,
				"z": -3.2546429228,
				"element": "C" 
			},
			{
				"x": 2.2648542804,
				"y": -0.5496963812,
				"z": -2.9498012665,
				"element": "C" 
			},
			{
				"x": 2.8118697703,
				"y": 0.1258347959,
				"z": -4.0950527764,
				"element": "O" 
			},
			{
				"x": -0.3526150028,
				"y": -2.7172572301,
				"z": 0.8690720607,
				"element": "C" 
			},
			{
				"x": 0.3230176293,
				"y": -1.7621943468,
				"z": 1.6319782683,
				"element": "C" 
			},
			{
				"x": 0.8470612616,
				"y": -0.5858588079,
				"z": 1.0670884574,
				"element": "C" 
			},
			{
				"x": 1.6354972085,
				"y": 0.2182810018,
				"z": 1.8479887993,
				"element": "O" 
			},
			{
				"x": 1.4232007314,
				"y": 1.6320883587,
				"z": 1.7676778054,
				"element": "C" 
			},
			{
				"x": 0.0638925066,
				"y": 2.0751648936,
				"z": 2.312527078,
				"element": "C" 
			},
			{
				"x": -0.2065832058,
				"y": 1.6060473017,
				"z": 3.6634417809,
				"element": "N" 
			},
			{
				"x": -1.5974947074,
				"y": 1.8013190486,
				"z": 4.1061376016,
				"element": "C" 
			},
			{
				"x": -1.7490989244,
				"y": 2.9876168293,
				"z": 5.0578402058,
				"element": "C" 
			},
			{
				"x": -0.9562806116,
				"y": 2.8275952205,
				"z": 6.2346811895,
				"element": "O" 
			},
			{
				"x": 0.1858666787,
				"y": 1.9919732112,
				"z": 6.056736624,
				"element": "C" 
			},
			{
				"x": 0.7661630171,
				"y": 2.0881198523,
				"z": 4.6506169722,
				"element": "C" 
			},
			{
				"x": -3.9412694713,
				"y": -3.1461308825,
				"z": -4.2118249364,
				"element": "H" 
			},
			{
				"x": -3.9211044373,
				"y": -3.8920750829,
				"z": -2.5976255017,
				"element": "H" 
			},
			{
				"x": -4.8255314666,
				"y": -2.3969654132,
				"z": -2.8589974476,
				"element": "H" 
			},
			{
				"x": -2.628036663,
				"y": -0.8102324385,
				"z": -4.3855895675,
				"element": "H" 
			},
			{
				"x": -3.7085031901,
				"y": -0.354651443,
				"z": -3.0767550672,
				"element": "H" 
			},
			{
				"x": -1.4325494867,
				"y": 0.9013284019,
				"z": -3.2836025014,
				"element": "H" 
			},
			{
				"x": -1.9643070581,
				"y": 0.4200361866,
				"z": -1.6726128314,
				"element": "H" 
			},
			{
				"x": 0.8100002965,
				"y": 1.030631651,
				"z": -3.0893475424,
				"element": "H" 
			},
			{
				"x": -0.4134744212,
				"y": -4.333514662,
				"z": -1.576303114,
				"element": "H" 
			},
			{
				"x": -2.0599914774,
				"y": -4.00267336,
				"z": -1.0604275218,
				"element": "H" 
			},
			{
				"x": -1.6026661309,
				"y": -3.7392691961,
				"z": -3.566417113,
				"element": "H" 
			},
			{
				"x": -0.6286757288,
				"y": -1.6880468773,
				"z": -4.3858735436,
				"element": "H" 
			},
			{
				"x": 1.0210718943,
				"y": -3.7176101776,
				"z": -3.7702876511,
				"element": "H" 
			},
			{
				"x": 3.1016156654,
				"y": -2.543771953,
				"z": -3.3814556497,
				"element": "H" 
			},
			{
				"x": 2.999683489,
				"y": -0.3833643888,
				"z": -2.1555718177,
				"element": "H" 
			},
			{
				"x": 2.365433208,
				"y": -0.2304018084,
				"z": -4.8752706723,
				"element": "H" 
			},
			{
				"x": -0.6757332348,
				"y": -3.6421507991,
				"z": 1.3402003018,
				"element": "H" 
			},
			{
				"x": 0.5078535124,
				"y": -1.9248243417,
				"z": 2.6888656831,
				"element": "H" 
			},
			{
				"x": 2.2403859059,
				"y": 2.0627105119,
				"z": 2.352119987,
				"element": "H" 
			},
			{
				"x": 1.5236881825,
				"y": 1.9846980829,
				"z": 0.7354389076,
				"element": "H" 
			},
			{
				"x": 0.0362796274,
				"y": 3.1827395163,
				"z": 2.2220837725,
				"element": "H" 
			},
			{
				"x": -0.7196211436,
				"y": 1.6824697801,
				"z": 1.6549044704,
				"element": "H" 
			},
			{
				"x": -1.9565168619,
				"y": 0.8951531966,
				"z": 4.6135011973,
				"element": "H" 
			},
			{
				"x": -2.2405830356,
				"y": 1.9469268713,
				"z": 3.2321468002,
				"element": "H" 
			},
			{
				"x": -2.7905149412,
				"y": 3.0919929333,
				"z": 5.3844920546,
				"element": "H" 
			},
			{
				"x": -1.4688894574,
				"y": 3.9198724009,
				"z": 4.5410248547,
				"element": "H" 
			},
			{
				"x": -0.0661990295,
				"y": 0.9425512673,
				"z": 6.2759792115,
				"element": "H" 
			},
			{
				"x": 0.9281231451,
				"y": 2.3160611682,
				"z": 6.7931763325,
				"element": "H" 
			},
			{
				"x": 1.0556367649,
				"y": 3.1415309677,
				"z": 4.4666345936,
				"element": "H" 
			},
			{
				"x": 1.6822374575,
				"y": 1.4870517834,
				"z": 4.5942462321,
				"element": "H" 
			}
		],
		 "valence_orbital": [ 
			{
				"type": "occ",
				"energy": -0.24015,
				"method": "rhf"
			},
			{
				"type": "occ",
				"energy": -0.21888,
				"method": "rhf"
			},
			{
				"type": "occ",
				"energy": -0.20733,
				"method": "rhf"
			},
			{
				"type": "occ",
				"energy": -0.20138,
				"method": "rhf"
			},
			{
				"type": "occ",
				"energy": -0.19772,
				"method": "rhf"
			},
			{
				"type": "unocc",
				"energy": -0.00351,
				"method": "rhf"
			},
			{
				"type": "unocc",
				"energy": 0.01022,
				"method": "rhf"
			},
			{
				"type": "unocc",
				"energy": 0.01983,
				"method": "rhf"
			},
			{
				"type": "unocc",
				"energy": 0.07014,
				"method": "rhf"
			},
			{
				"type": "unocc",
				"energy": 0.08065,
				"method": "rhf"
			}
		],
		"cosmo_sigma_profile": { 
			"-0.025": 0.0,
			"-0.024": 0.0,
			"-0.023": 0.0,
			"-0.022": 0.0,
			"-0.021": 0.0,
			"-0.02": 0.0,
			"-0.019": 0.0,
			"-0.018": 0.0,
			"-0.017": 0.0,
			"-0.016": 0.0,
			"-0.015": 0.254285199717,
			"-0.014": 0.872767482972,
			"-0.013": 0.949920239497,
			"-0.012": 0.601387490385,
			"-0.011": 0.963342834557,
			"-0.01": 1.30153500445,
			"-0.009": 1.05860078263,
			"-0.008": 1.05076317197,
			"-0.007": 1.07622047363,
			"-0.006": 4.04069719129,
			"-0.005": 21.491010869,
			"-0.004": 43.3058295286,
			"-0.003": 68.9835310927,
			"-0.002": 62.4408521753,
			"-0.001": 46.2610421596,
			"0.0": 33.4538233288,
			"0.001": 18.4570805517,
			"0.002": 14.6903637397,
			"0.003": 11.8998917742,
			"0.004": 14.2124613649,
			"0.005": 14.369505767,
			"0.006": 15.7589520655,
			"0.007": 8.70217165756,
			"0.008": 8.35749145699,
			"0.009": 4.84083601629,
			"0.01": 4.98497634398,
			"0.011": 5.16111968647,
			"0.012": 5.21763135672,
			"0.013": 4.94036806853,
			"0.014": 3.64198212825,
			"0.015": 0.408669006987,
			"0.016": 0.0,
			"0.017": 0.0,
			"0.018": 0.0,
			"0.019": 0.0,
			"0.02": 0.0,
			"0.021": 0.0,
			"0.022": 0.0,
			"0.023": 0.0,
			"0.024": 0.0,
			"0.025": 0.0
		}
	}
}
