{
	 "smiles": "CCN1C(=CC2=C1C=CC=C2)C1=CC=CC=C1", 
	 "Tm": 359.15, 
	 "num_atms": 32, 
	 "gaussian": { 
		 "optdone": 1, 
		 "sigma_profile": "yes", 
		 "theory": "DFT", 
		 "functional": "B3LYP", 
		 "basiset": "6-31G**", 
		 "properties": { 
			 "R2extent": 4835.5342, 
			 "electric_dipole_moment_norm": 2.29319819684, 
			 "electric_quadrupole_moment_norm": 6.70564429865, 
			 "total_energy": -673.510926315, 
			 "HOMO_LUMO_gap": 0.16416, 
			 "cosmo_polarized_energy": -7.44, 
			 "cosmo_cavitation_energy": 34.23, 
			 "cosmo_dispersion_energy": -24.66, 
			 "cosmo_repulsion_energy": 1.88, 
			 "cosmo_total_nonelectrostatic_energy": 11.45, 
			 "SMD_solvation_energy": 5.25 
		},
		"coords": [
			{
				"x": -1.1317001937,
				"y": 1.6821394685,
				"z": -1.4832337786,
				"element": "C" 
			},
			{
				"x": -0.1999216327,
				"y": 1.223002142,
				"z": -0.3562676256,
				"element": "C" 
			},
			{
				"x": -0.5847336944,
				"y": -0.0527192243,
				"z": 0.2401747233,
				"element": "N" 
			},
			{
				"x": 0.1023847569,
				"y": -1.271189698,
				"z": 0.1645802821,
				"element": "C" 
			},
			{
				"x": -0.4857236315,
				"y": -2.1730723836,
				"z": 1.0262360414,
				"element": "C" 
			},
			{
				"x": -1.57393816,
				"y": -1.5142376251,
				"z": 1.6771512742,
				"element": "C" 
			},
			{
				"x": -1.6013817751,
				"y": -0.1839567562,
				"z": 1.1730370289,
				"element": "C" 
			},
			{
				"x": -2.5271795914,
				"y": 0.7612609856,
				"z": 1.6342897539,
				"element": "C" 
			},
			{
				"x": -3.4459068863,
				"y": 0.3511573078,
				"z": 2.5948495473,
				"element": "C" 
			},
			{
				"x": -3.4480676659,
				"y": -0.9692171034,
				"z": 3.0895265311,
				"element": "C" 
			},
			{
				"x": -2.5222106131,
				"y": -1.9016503145,
				"z": 2.6406753391,
				"element": "C" 
			},
			{
				"x": 1.2614787107,
				"y": -1.51465957,
				"z": -0.7102813536,
				"element": "C" 
			},
			{
				"x": 2.3667640201,
				"y": -2.2196329025,
				"z": -0.1986719498,
				"element": "C" 
			},
			{
				"x": 3.4638686488,
				"y": -2.5145784034,
				"z": -1.0053474085,
				"element": "C" 
			},
			{
				"x": 3.487538777,
				"y": -2.1028977627,
				"z": -2.3397536267,
				"element": "C" 
			},
			{
				"x": 2.3984252152,
				"y": -1.4031629863,
				"z": -2.8619951753,
				"element": "C" 
			},
			{
				"x": 1.2947658888,
				"y": -1.11640724,
				"z": -2.0591140604,
				"element": "C" 
			},
			{
				"x": -0.8022468069,
				"y": 2.6524899464,
				"z": -1.8691329116,
				"element": "H" 
			},
			{
				"x": -1.1366376309,
				"y": 0.9684637118,
				"z": -2.3122171332,
				"element": "H" 
			},
			{
				"x": -2.1612765103,
				"y": 1.7868641568,
				"z": -1.1310306923,
				"element": "H" 
			},
			{
				"x": -0.1804852024,
				"y": 1.9768191085,
				"z": 0.4402284624,
				"element": "H" 
			},
			{
				"x": 0.8227646962,
				"y": 1.1244332416,
				"z": -0.7252264021,
				"element": "H" 
			},
			{
				"x": -0.1888589362,
				"y": -3.206378331,
				"z": 1.1378809614,
				"element": "H" 
			},
			{
				"x": -2.5356366875,
				"y": 1.7805681938,
				"z": 1.2612902331,
				"element": "H" 
			},
			{
				"x": -4.1772043274,
				"y": 1.0621229184,
				"z": 2.9684059568,
				"element": "H" 
			},
			{
				"x": -4.1836861979,
				"y": -1.2559530013,
				"z": 3.8354959251,
				"element": "H" 
			},
			{
				"x": -2.5224307844,
				"y": -2.9150914039,
				"z": 3.0327414934,
				"element": "H" 
			},
			{
				"x": 2.3597495274,
				"y": -2.5200676544,
				"z": 0.8444575966,
				"element": "H" 
			},
			{
				"x": 4.3069323131,
				"y": -3.0579189847,
				"z": -0.5879370845,
				"element": "H" 
			},
			{
				"x": 4.3454931877,
				"y": -2.3268737332,
				"z": -2.9669065454,
				"element": "H" 
			},
			{
				"x": 2.4005410575,
				"y": -1.0898908413,
				"z": -3.9022627492,
				"element": "H" 
			},
			{
				"x": 0.4386201286,
				"y": -0.6086652612,
				"z": -2.4907426532,
				"element": "H" 
			}
		],
		 "valence_orbital": [ 
			{
				"type": "occ",
				"energy": -0.26883,
				"method": "rhf"
			},
			{
				"type": "occ",
				"energy": -0.25659,
				"method": "rhf"
			},
			{
				"type": "occ",
				"energy": -0.25402,
				"method": "rhf"
			},
			{
				"type": "occ",
				"energy": -0.20928,
				"method": "rhf"
			},
			{
				"type": "occ",
				"energy": -0.19143,
				"method": "rhf"
			},
			{
				"type": "unocc",
				"energy": -0.02727,
				"method": "rhf"
			},
			{
				"type": "unocc",
				"energy": -0.0054,
				"method": "rhf"
			},
			{
				"type": "unocc",
				"energy": 0.01403,
				"method": "rhf"
			},
			{
				"type": "unocc",
				"energy": 0.033,
				"method": "rhf"
			},
			{
				"type": "unocc",
				"energy": 0.07655,
				"method": "rhf"
			}
		],
		"cosmo_sigma_profile": { 
			"-0.025": 0.0,
			"-0.024": 0.0,
			"-0.023": 0.0,
			"-0.022": 0.0,
			"-0.021": 0.0,
			"-0.02": 0.0,
			"-0.019": 0.0,
			"-0.018": 0.0,
			"-0.017": 0.0,
			"-0.016": 0.0,
			"-0.015": 0.0,
			"-0.014": 0.0,
			"-0.013": 0.0,
			"-0.012": 0.0,
			"-0.011": 0.0,
			"-0.01": 0.0,
			"-0.009": 0.0,
			"-0.008": 0.0,
			"-0.007": 0.00720491270154,
			"-0.006": 7.50381864504,
			"-0.005": 22.5046033907,
			"-0.004": 30.057161172,
			"-0.003": 30.3913697062,
			"-0.002": 27.9723419365,
			"-0.001": 20.2016285123,
			"0.0": 20.6267343086,
			"0.001": 16.4451732824,
			"0.002": 15.9836579085,
			"0.003": 16.1146176785,
			"0.004": 18.7227142215,
			"0.005": 20.540156593,
			"0.006": 16.0253917237,
			"0.007": 9.37555060902,
			"0.008": 0.919646503517,
			"0.009": 0.0,
			"0.01": 0.0,
			"0.011": 0.0,
			"0.012": 0.0,
			"0.013": 0.0,
			"0.014": 0.0,
			"0.015": 0.0,
			"0.016": 0.0,
			"0.017": 0.0,
			"0.018": 0.0,
			"0.019": 0.0,
			"0.02": 0.0,
			"0.021": 0.0,
			"0.022": 0.0,
			"0.023": 0.0,
			"0.024": 0.0,
			"0.025": 0.0
		}
	}
}
