{
	 "smiles": "C(N1CCOC(C1)C1=NNN=N1)C1=CC=CC=C1", 
	 "Tm": 452.15, 
	 "num_atms": 33, 
	 "gaussian": { 
		 "optdone": 1, 
		 "sigma_profile": "yes", 
		 "theory": "DFT", 
		 "functional": "B3LYP", 
		 "basiset": "6-31G**", 
		 "properties": { 
			 "R2extent": 5334.3651, 
			 "electric_dipole_moment_norm": 3.02759367981, 
			 "electric_quadrupole_moment_norm": 19.2108170227, 
			 "total_energy": -815.221988299, 
			 "HOMO_LUMO_gap": 0.19246, 
			 "cosmo_polarized_energy": -16.89, 
			 "cosmo_cavitation_energy": 35.6, 
			 "cosmo_dispersion_energy": -25.19, 
			 "cosmo_repulsion_energy": 1.95, 
			 "cosmo_total_nonelectrostatic_energy": 12.36, 
			 "SMD_solvation_energy": 2.44 
		},
		"coords": [
			{
				"x": 0.466637159,
				"y": 1.8239992854,
				"z": 0.1386594341,
				"element": "C" 
			},
			{
				"x": 1.0877009933,
				"y": 0.5086564955,
				"z": -0.0118954865,
				"element": "N" 
			},
			{
				"x": 1.2392364816,
				"y": 0.1083542574,
				"z": -1.4131477401,
				"element": "C" 
			},
			{
				"x": 1.7727925632,
				"y": -1.3175497145,
				"z": -1.4791533613,
				"element": "C" 
			},
			{
				"x": 3.0072681943,
				"y": -1.4471313104,
				"z": -0.7673176403,
				"element": "O" 
			},
			{
				"x": 2.9295754906,
				"y": -1.0058632849,
				"z": 0.5749149139,
				"element": "C" 
			},
			{
				"x": 2.3766528841,
				"y": 0.4253230116,
				"z": 0.6684378432,
				"element": "C" 
			},
			{
				"x": 2.1549442601,
				"y": -1.9689350063,
				"z": 1.4531273679,
				"element": "C" 
			},
			{
				"x": 1.8376539839,
				"y": -1.7004454091,
				"z": 2.7187403021,
				"element": "N" 
			},
			{
				"x": 1.2324868227,
				"y": -2.8298162067,
				"z": 3.0736560045,
				"element": "N" 
			},
			{
				"x": 1.1628250953,
				"y": -3.7481454209,
				"z": 2.1177618346,
				"element": "N" 
			},
			{
				"x": 1.7527356047,
				"y": -3.2136158224,
				"z": 1.0772352324,
				"element": "N" 
			},
			{
				"x": -0.9965292204,
				"y": 1.8428188239,
				"z": -0.2642866849,
				"element": "C" 
			},
			{
				"x": -1.8592151919,
				"y": 0.8156581156,
				"z": 0.1434064794,
				"element": "C" 
			},
			{
				"x": -3.2134541569,
				"y": 0.8544073743,
				"z": -0.1863111692,
				"element": "C" 
			},
			{
				"x": -3.7275390208,
				"y": 1.9233896965,
				"z": -0.9254513731,
				"element": "C" 
			},
			{
				"x": -2.8762543767,
				"y": 2.9491157523,
				"z": -1.3371491513,
				"element": "C" 
			},
			{
				"x": -1.5186659259,
				"y": 2.9044471474,
				"z": -1.0111014816,
				"element": "C" 
			},
			{
				"x": 0.548456424,
				"y": 2.0982143864,
				"z": 1.1991091298,
				"element": "H" 
			},
			{
				"x": 1.0123171674,
				"y": 2.6050729226,
				"z": -0.4257152148,
				"element": "H" 
			},
			{
				"x": 0.2641398879,
				"y": 0.1570200744,
				"z": -1.9076378752,
				"element": "H" 
			},
			{
				"x": 1.9272768757,
				"y": 0.7895505591,
				"z": -1.9517567266,
				"element": "H" 
			},
			{
				"x": 1.9986533697,
				"y": -1.5996964886,
				"z": -2.5110124027,
				"element": "H" 
			},
			{
				"x": 1.0308935751,
				"y": -2.0185732718,
				"z": -1.0779906478,
				"element": "H" 
			},
			{
				"x": 3.9665971841,
				"y": -0.9958155167,
				"z": 0.9323989392,
				"element": "H" 
			},
			{
				"x": 2.2506070637,
				"y": 0.6970072262,
				"z": 1.7211387659,
				"element": "H" 
			},
			{
				"x": 3.1259954075,
				"y": 1.1087666234,
				"z": 0.2243441198,
				"element": "H" 
			},
			{
				"x": 0.8518765488,
				"y": -2.9814078191,
				"z": 3.9980468573,
				"element": "H" 
			},
			{
				"x": -1.4501155557,
				"y": -0.0167938691,
				"z": 0.7078993882,
				"element": "H" 
			},
			{
				"x": -3.8699524006,
				"y": 0.0498509463,
				"z": 0.133802005,
				"element": "H" 
			},
			{
				"x": -4.7828144742,
				"y": 1.9531338008,
				"z": -1.1816229638,
				"element": "H" 
			},
			{
				"x": -3.2651424103,
				"y": 3.7807731498,
				"z": -1.9181470531,
				"element": "H" 
			},
			{
				"x": -0.857440303,
				"y": 3.7026294915,
				"z": -1.3406816447,
				"element": "H" 
			}
		],
		 "valence_orbital": [ 
			{
				"type": "occ",
				"energy": -0.28572,
				"method": "rhf"
			},
			{
				"type": "occ",
				"energy": -0.26189,
				"method": "rhf"
			},
			{
				"type": "occ",
				"energy": -0.24842,
				"method": "rhf"
			},
			{
				"type": "occ",
				"energy": -0.24315,
				"method": "rhf"
			},
			{
				"type": "occ",
				"energy": -0.22245,
				"method": "rhf"
			},
			{
				"type": "unocc",
				"energy": -0.02999,
				"method": "rhf"
			},
			{
				"type": "unocc",
				"energy": -0.00287,
				"method": "rhf"
			},
			{
				"type": "unocc",
				"energy": 0.00065,
				"method": "rhf"
			},
			{
				"type": "unocc",
				"energy": 0.02738,
				"method": "rhf"
			},
			{
				"type": "unocc",
				"energy": 0.06361,
				"method": "rhf"
			}
		],
		"cosmo_sigma_profile": { 
			"-0.025": 0.0,
			"-0.024": 0.0,
			"-0.023": 0.0,
			"-0.022": 0.0,
			"-0.021": 0.0,
			"-0.02": 0.418221186424,
			"-0.019": 2.04447261739,
			"-0.018": 1.44620529364,
			"-0.017": 0.953881542269,
			"-0.016": 0.71880902631,
			"-0.015": 1.49685515373,
			"-0.014": 0.900046549622,
			"-0.013": 0.269225718616,
			"-0.012": 0.741600311432,
			"-0.011": 1.00990318483,
			"-0.01": 0.42302904804,
			"-0.009": 0.772733195576,
			"-0.008": 0.830330635917,
			"-0.007": 3.53709801426,
			"-0.006": 6.66749662934,
			"-0.005": 18.1973423894,
			"-0.004": 23.2154900663,
			"-0.003": 35.5554365157,
			"-0.002": 30.8283493576,
			"-0.001": 22.2514893812,
			"0.0": 14.812650737,
			"0.001": 13.3230147024,
			"0.002": 13.026664878,
			"0.003": 12.6031588669,
			"0.004": 13.4464911323,
			"0.005": 12.798145064,
			"0.006": 13.9655585549,
			"0.007": 6.93442244262,
			"0.008": 5.92856327469,
			"0.009": 5.48155428019,
			"0.01": 4.33389857427,
			"0.011": 4.91777309355,
			"0.012": 4.05925916155,
			"0.013": 2.53096566472,
			"0.014": 0.884691721926,
			"0.015": 0.129426736354,
			"0.016": 0.0,
			"0.017": 0.0,
			"0.018": 0.0,
			"0.019": 0.0,
			"0.02": 0.0,
			"0.021": 0.0,
			"0.022": 0.0,
			"0.023": 0.0,
			"0.024": 0.0,
			"0.025": 0.0
		}
	}
}
