{
	 "smiles": "NC1=NN=C(N1)C1=CC=CS1", 
	 "Tm": 476.15, 
	 "num_atms": 17, 
	 "gaussian": { 
		 "optdone": 1, 
		 "sigma_profile": "yes", 
		 "theory": "DFT", 
		 "functional": "B3LYP", 
		 "basiset": "6-31G**", 
		 "properties": { 
			 "R2extent": 2810.4579, 
			 "electric_dipole_moment_norm": 4.46811924863, 
			 "electric_quadrupole_moment_norm": 18.3037649859, 
			 "total_energy": -849.414397834, 
			 "HOMO_LUMO_gap": 0.16427, 
			 "cosmo_polarized_energy": -21.79, 
			 "cosmo_cavitation_energy": 23.51, 
			 "cosmo_dispersion_energy": -18.26, 
			 "cosmo_repulsion_energy": 1.42, 
			 "cosmo_total_nonelectrostatic_energy": 6.67, 
			 "SMD_solvation_energy": 1.85 
		},
		"coords": [
			{
				"x": 3.8294361628,
				"y": -1.3401441859,
				"z": 0.3658925952,
				"element": "N" 
			},
			{
				"x": 2.9186273208,
				"y": -0.296222233,
				"z": 0.280713649,
				"element": "C" 
			},
			{
				"x": 2.9970011004,
				"y": 0.7460892935,
				"z": -0.5152682521,
				"element": "N" 
			},
			{
				"x": 1.8393200762,
				"y": 1.4821104441,
				"z": -0.3437385514,
				"element": "N" 
			},
			{
				"x": 1.0993124586,
				"y": 0.8732960493,
				"z": 0.5578474092,
				"element": "C" 
			},
			{
				"x": 1.7485553751,
				"y": -0.2697293121,
				"z": 0.9927893749,
				"element": "N" 
			},
			{
				"x": -0.1925176096,
				"y": 1.3245095647,
				"z": 1.0343303692,
				"element": "C" 
			},
			{
				"x": -0.9424364937,
				"y": 2.3611885796,
				"z": 0.5292716487,
				"element": "C" 
			},
			{
				"x": -2.1699832885,
				"y": 2.5515012662,
				"z": 1.2249015726,
				"element": "C" 
			},
			{
				"x": -2.3513765085,
				"y": 1.6635088043,
				"z": 2.2498707607,
				"element": "C" 
			},
			{
				"x": -1.0064182401,
				"y": 0.5748334834,
				"z": 2.3914143255,
				"element": "S" 
			},
			{
				"x": 4.6126925368,
				"y": -1.1600840809,
				"z": -0.2523936119,
				"element": "H" 
			},
			{
				"x": 4.160840725,
				"y": -1.523311546,
				"z": 1.3074367268,
				"element": "H" 
			},
			{
				"x": 1.3769977045,
				"y": -1.0086356901,
				"z": 1.5706042648,
				"element": "H" 
			},
			{
				"x": -0.608003598,
				"y": 2.951461463,
				"z": -0.3147391445,
				"element": "H" 
			},
			{
				"x": -2.8929635203,
				"y": 3.318010461,
				"z": 0.9703559349,
				"element": "H" 
			},
			{
				"x": -3.1841842016,
				"y": 1.578417639,
				"z": 2.9334109284,
				"element": "H" 
			}
		],
		 "valence_orbital": [ 
			{
				"type": "occ",
				"energy": -0.29901,
				"method": "rhf"
			},
			{
				"type": "occ",
				"energy": -0.26527,
				"method": "rhf"
			},
			{
				"type": "occ",
				"energy": -0.25918,
				"method": "rhf"
			},
			{
				"type": "occ",
				"energy": -0.24936,
				"method": "rhf"
			},
			{
				"type": "occ",
				"energy": -0.20428,
				"method": "rhf"
			},
			{
				"type": "unocc",
				"energy": -0.04001,
				"method": "rhf"
			},
			{
				"type": "unocc",
				"energy": 0.01254,
				"method": "rhf"
			},
			{
				"type": "unocc",
				"energy": 0.03935,
				"method": "rhf"
			},
			{
				"type": "unocc",
				"energy": 0.05044,
				"method": "rhf"
			},
			{
				"type": "unocc",
				"energy": 0.05679,
				"method": "rhf"
			}
		],
		"cosmo_sigma_profile": { 
			"-0.025": 0.0,
			"-0.024": 0.0,
			"-0.023": 0.0,
			"-0.022": 0.0,
			"-0.021": 0.0,
			"-0.02": 0.0,
			"-0.019": 0.0,
			"-0.018": 0.139427210966,
			"-0.017": 1.13136257628,
			"-0.016": 0.951620073072,
			"-0.015": 1.01832987921,
			"-0.014": 2.68240712566,
			"-0.013": 4.6863033857,
			"-0.012": 4.39168916014,
			"-0.011": 3.75243183468,
			"-0.01": 3.31598142906,
			"-0.009": 4.3657561344,
			"-0.008": 5.26960518763,
			"-0.007": 6.16022683582,
			"-0.006": 6.95110288028,
			"-0.005": 7.40320760392,
			"-0.004": 8.61176176306,
			"-0.003": 8.04652347331,
			"-0.002": 7.62506346098,
			"-0.001": 8.42421818038,
			"0.0": 11.0939919698,
			"0.001": 11.7100120869,
			"0.002": 11.4998635381,
			"0.003": 16.9741215634,
			"0.004": 15.6177340981,
			"0.005": 5.61037508444,
			"0.006": 3.12780705834,
			"0.007": 2.42737326689,
			"0.008": 2.18274786377,
			"0.009": 3.34847700496,
			"0.01": 2.73452230161,
			"0.011": 2.21289627236,
			"0.012": 2.17464903393,
			"0.013": 4.35001805986,
			"0.014": 3.4343847684,
			"0.015": 3.3663225992,
			"0.016": 2.06586740471,
			"0.017": 1.77557021496,
			"0.018": 0.114327004749,
			"0.019": 0.0,
			"0.02": 0.0,
			"0.021": 0.0,
			"0.022": 0.0,
			"0.023": 0.0,
			"0.024": 0.0,
			"0.025": 0.0
		}
	}
}
