{
	 "smiles": "ClC1=C(Cl)C(=O)N(CC2=CC=CC=C2)N=C1", 
	 "Tm": 361.15, 
	 "num_atms": 24, 
	 "gaussian": { 
		 "optdone": 1, 
		 "sigma_profile": "yes", 
		 "theory": "DFT", 
		 "functional": "B3LYP", 
		 "basiset": "6-31G**", 
		 "properties": { 
			 "R2extent": 6029.6475, 
			 "electric_dipole_moment_norm": 2.73811901494, 
			 "electric_quadrupole_moment_norm": 8.75020935521, 
			 "total_energy": -1529.07403766, 
			 "HOMO_LUMO_gap": 0.16747, 
			 "cosmo_polarized_energy": -9.66, 
			 "cosmo_cavitation_energy": 32.38, 
			 "cosmo_dispersion_energy": -23.49, 
			 "cosmo_repulsion_energy": 1.83, 
			 "cosmo_total_nonelectrostatic_energy": 10.72, 
			 "SMD_solvation_energy": 4.69 
		},
		"coords": [
			{
				"x": 1.7050996535,
				"y": 0.7937103727,
				"z": -5.1337385225,
				"element": "Cl" 
			},
			{
				"x": 1.5277084337,
				"y": 0.7239642275,
				"z": -3.4073738519,
				"element": "C" 
			},
			{
				"x": 1.2085018639,
				"y": 1.8122756944,
				"z": -2.6449918131,
				"element": "C" 
			},
			{
				"x": 0.9417711196,
				"y": 3.3846457254,
				"z": -3.2923033651,
				"element": "Cl" 
			},
			{
				"x": 1.0618970253,
				"y": 1.6729583522,
				"z": -1.1898292089,
				"element": "C" 
			},
			{
				"x": 0.7576673449,
				"y": 2.5766315159,
				"z": -0.4227481976,
				"element": "O" 
			},
			{
				"x": 1.3159880197,
				"y": 0.3679707505,
				"z": -0.7256613979,
				"element": "N" 
			},
			{
				"x": 1.1822743525,
				"y": 0.1043045869,
				"z": 0.7259308487,
				"element": "C" 
			},
			{
				"x": -0.2171065692,
				"y": -0.3217507537,
				"z": 1.1192378428,
				"element": "C" 
			},
			{
				"x": -1.1907123051,
				"y": 0.635486262,
				"z": 1.4356586652,
				"element": "C" 
			},
			{
				"x": -2.4801413039,
				"y": 0.2355996892,
				"z": 1.7881819296,
				"element": "C" 
			},
			{
				"x": -2.8090095693,
				"y": -1.1211516784,
				"z": 1.8277721652,
				"element": "C" 
			},
			{
				"x": -1.8438538471,
				"y": -2.0792346397,
				"z": 1.5117057083,
				"element": "C" 
			},
			{
				"x": -0.5540994398,
				"y": -1.6803606813,
				"z": 1.1584707245,
				"element": "C" 
			},
			{
				"x": 1.6261532397,
				"y": -0.6956720762,
				"z": -1.4750652567,
				"element": "N" 
			},
			{
				"x": 1.7304648197,
				"y": -0.5353080136,
				"z": -2.7648830922,
				"element": "C" 
			},
			{
				"x": 1.4679262138,
				"y": 1.0262645756,
				"z": 1.2328601072,
				"element": "H" 
			},
			{
				"x": 1.9077360709,
				"y": -0.6788504809,
				"z": 0.9502381886,
				"element": "H" 
			},
			{
				"x": -0.9327170479,
				"y": 1.6890452598,
				"z": 1.3913022829,
				"element": "H" 
			},
			{
				"x": -3.2278118966,
				"y": 0.9843095634,
				"z": 2.0339191134,
				"element": "H" 
			},
			{
				"x": -3.8124832946,
				"y": -1.4306198508,
				"z": 2.1058717934,
				"element": "H" 
			},
			{
				"x": -2.0933300785,
				"y": -3.1360146199,
				"z": 1.5433968815,
				"element": "H" 
			},
			{
				"x": 0.1968513486,
				"y": -2.4261834964,
				"z": 0.9112835483,
				"element": "H" 
			},
			{
				"x": 1.9879258461,
				"y": -1.4134202846,
				"z": -3.3462350936,
				"element": "H" 
			}
		],
		 "valence_orbital": [ 
			{
				"type": "occ",
				"energy": -0.29198,
				"method": "rhf"
			},
			{
				"type": "occ",
				"energy": -0.27381,
				"method": "rhf"
			},
			{
				"type": "occ",
				"energy": -0.25417,
				"method": "rhf"
			},
			{
				"type": "occ",
				"energy": -0.25234,
				"method": "rhf"
			},
			{
				"type": "occ",
				"energy": -0.24704,
				"method": "rhf"
			},
			{
				"type": "unocc",
				"energy": -0.07957,
				"method": "rhf"
			},
			{
				"type": "unocc",
				"energy": -0.02053,
				"method": "rhf"
			},
			{
				"type": "unocc",
				"energy": -0.01384,
				"method": "rhf"
			},
			{
				"type": "unocc",
				"energy": -0.00834,
				"method": "rhf"
			},
			{
				"type": "unocc",
				"energy": -0.00445,
				"method": "rhf"
			}
		],
		"cosmo_sigma_profile": { 
			"-0.025": 0.0,
			"-0.024": 0.0,
			"-0.023": 0.0,
			"-0.022": 0.0,
			"-0.021": 0.0,
			"-0.02": 0.0,
			"-0.019": 0.0,
			"-0.018": 0.0,
			"-0.017": 0.0,
			"-0.016": 0.0,
			"-0.015": 0.0,
			"-0.014": 0.0,
			"-0.013": 0.0,
			"-0.012": 0.0,
			"-0.011": 0.0,
			"-0.01": 1.06675200995,
			"-0.009": 1.48242349589,
			"-0.008": 1.40382891069,
			"-0.007": 4.0707455447,
			"-0.006": 11.7079815498,
			"-0.005": 17.5756053169,
			"-0.004": 25.8841139665,
			"-0.003": 27.1239172627,
			"-0.002": 20.3170332318,
			"-0.001": 18.4824563258,
			"0.0": 17.7747562942,
			"0.001": 19.4464856807,
			"0.002": 24.5191979297,
			"0.003": 23.6892997884,
			"0.004": 14.5945586757,
			"0.005": 12.9387110812,
			"0.006": 6.44966440246,
			"0.007": 2.33482578551,
			"0.008": 2.7681193613,
			"0.009": 1.84930377036,
			"0.01": 2.19111367846,
			"0.011": 2.30610801029,
			"0.012": 3.08663641642,
			"0.013": 1.86876317007,
			"0.014": 0.0936278155574,
			"0.015": 0.0,
			"0.016": 0.0,
			"0.017": 0.0,
			"0.018": 0.0,
			"0.019": 0.0,
			"0.02": 0.0,
			"0.021": 0.0,
			"0.022": 0.0,
			"0.023": 0.0,
			"0.024": 0.0,
			"0.025": 0.0
		}
	}
}
