{
	 "smiles": "CC(C)(CCC(O)=O)C(O)=O", 
	 "Tm": 357.15, 
	 "num_atms": 23, 
	 "gaussian": { 
		 "optdone": 1, 
		 "sigma_profile": "yes", 
		 "theory": "DFT", 
		 "functional": "B3LYP", 
		 "basiset": "6-31G**", 
		 "properties": { 
			 "R2extent": 2668.0675, 
			 "electric_dipole_moment_norm": 3.203683583, 
			 "electric_quadrupole_moment_norm": 21.8486210823, 
			 "total_energy": -574.898346196, 
			 "HOMO_LUMO_gap": 0.27392, 
			 "cosmo_polarized_energy": -22.31, 
			 "cosmo_cavitation_energy": 26.0, 
			 "cosmo_dispersion_energy": -18.3, 
			 "cosmo_repulsion_energy": 1.48, 
			 "cosmo_total_nonelectrostatic_energy": 9.19, 
			 "SMD_solvation_energy": 6.61 
		},
		"coords": [
			{
				"x": 1.4883711258,
				"y": -3.2953482335,
				"z": 0.1882149798,
				"element": "C" 
			},
			{
				"x": 1.0321516547,
				"y": -2.1063797022,
				"z": -0.6762464107,
				"element": "C" 
			},
			{
				"x": 1.699070624,
				"y": -2.2067441679,
				"z": -2.0651498348,
				"element": "C" 
			},
			{
				"x": 1.4360969908,
				"y": -0.7457781031,
				"z": -0.0344768558,
				"element": "C" 
			},
			{
				"x": 0.9060550462,
				"y": -0.4964758103,
				"z": 1.3800523114,
				"element": "C" 
			},
			{
				"x": 1.2677379807,
				"y": 0.8938173178,
				"z": 1.8860165698,
				"element": "C" 
			},
			{
				"x": 0.7938535267,
				"y": 1.2005605825,
				"z": 3.1234091589,
				"element": "O" 
			},
			{
				"x": 1.9282030432,
				"y": 1.6972774082,
				"z": 1.2758674373,
				"element": "O" 
			},
			{
				"x": -0.5084337788,
				"y": -2.1313113502,
				"z": -0.7682833731,
				"element": "C" 
			},
			{
				"x": -1.0736980014,
				"y": -1.5474965698,
				"z": -1.8556944757,
				"element": "O" 
			},
			{
				"x": -1.2213534988,
				"y": -2.5820182122,
				"z": 0.0977449253,
				"element": "O" 
			},
			{
				"x": 1.3120941894,
				"y": -4.2417886031,
				"z": -0.3324365386,
				"element": "H" 
			},
			{
				"x": 2.5601701852,
				"y": -3.2190634994,
				"z": 0.3992823577,
				"element": "H" 
			},
			{
				"x": 0.9389707887,
				"y": -3.3368892371,
				"z": 1.1292590032,
				"element": "H" 
			},
			{
				"x": 2.7829254923,
				"y": -2.2986095047,
				"z": -1.947701961,
				"element": "H" 
			},
			{
				"x": 1.5384049946,
				"y": -1.3132528337,
				"z": -2.6833663097,
				"element": "H" 
			},
			{
				"x": 1.3489730656,
				"y": -3.0827625196,
				"z": -2.6204061315,
				"element": "H" 
			},
			{
				"x": 2.5300526623,
				"y": -0.6863591386,
				"z": -0.0212085399,
				"element": "H" 
			},
			{
				"x": 1.1022679988,
				"y": 0.0753127132,
				"z": -0.6788507264,
				"element": "H" 
			},
			{
				"x": 1.3137208507,
				"y": -1.2296531755,
				"z": 2.0879964532,
				"element": "H" 
			},
			{
				"x": -0.1839260032,
				"y": -0.6174627431,
				"z": 1.4194915254,
				"element": "H" 
			},
			{
				"x": 0.269533192,
				"y": 0.4660683669,
				"z": 3.4737380979,
				"element": "H" 
			},
			{
				"x": -0.3917421296,
				"y": -1.2472429845,
				"z": -2.4723516628,
				"element": "H" 
			}
		],
		 "valence_orbital": [ 
			{
				"type": "occ",
				"energy": -0.34447,
				"method": "rhf"
			},
			{
				"type": "occ",
				"energy": -0.32003,
				"method": "rhf"
			},
			{
				"type": "occ",
				"energy": -0.31816,
				"method": "rhf"
			},
			{
				"type": "occ",
				"energy": -0.27558,
				"method": "rhf"
			},
			{
				"type": "occ",
				"energy": -0.27264,
				"method": "rhf"
			},
			{
				"type": "unocc",
				"energy": 0.00128,
				"method": "rhf"
			},
			{
				"type": "unocc",
				"energy": 0.00882,
				"method": "rhf"
			},
			{
				"type": "unocc",
				"energy": 0.03972,
				"method": "rhf"
			},
			{
				"type": "unocc",
				"energy": 0.05417,
				"method": "rhf"
			},
			{
				"type": "unocc",
				"energy": 0.08979,
				"method": "rhf"
			}
		],
		"cosmo_sigma_profile": { 
			"-0.025": 0.0,
			"-0.024": 0.0,
			"-0.023": 0.0,
			"-0.022": 0.0,
			"-0.021": 0.0,
			"-0.02": 0.0,
			"-0.019": 0.463154932191,
			"-0.018": 1.10927590391,
			"-0.017": 1.66376573933,
			"-0.016": 1.85185151548,
			"-0.015": 2.09492924868,
			"-0.014": 2.15170403397,
			"-0.013": 2.80838161845,
			"-0.012": 1.52275259107,
			"-0.011": 2.48425807348,
			"-0.01": 2.54319514114,
			"-0.009": 1.99683515479,
			"-0.008": 2.73428318408,
			"-0.007": 5.31743203472,
			"-0.006": 7.69708378121,
			"-0.005": 12.8090526982,
			"-0.004": 19.9565123306,
			"-0.003": 15.5501849617,
			"-0.002": 12.8992255226,
			"-0.001": 13.3103073533,
			"0.0": 12.1487139381,
			"0.001": 7.88214453047,
			"0.002": 4.4652327211,
			"0.003": 3.47073585153,
			"0.004": 5.11401330363,
			"0.005": 4.66723438831,
			"0.006": 3.41710094945,
			"0.007": 4.86755179997,
			"0.008": 5.66291045158,
			"0.009": 6.25891084462,
			"0.01": 8.05638046404,
			"0.011": 10.4305761585,
			"0.012": 10.4281673333,
			"0.013": 4.25701562121,
			"0.014": 0.235672356433,
			"0.015": 0.0,
			"0.016": 0.0,
			"0.017": 0.0,
			"0.018": 0.0,
			"0.019": 0.0,
			"0.02": 0.0,
			"0.021": 0.0,
			"0.022": 0.0,
			"0.023": 0.0,
			"0.024": 0.0,
			"0.025": 0.0
		}
	}
}
