{
	 "smiles": "OC(=O)COC1=CC=C(C=C1)[N+]([O-])=O", 
	 "Tm": 458.15, 
	 "num_atms": 21, 
	 "gaussian": { 
		 "optdone": 1, 
		 "sigma_profile": "yes", 
		 "theory": "DFT", 
		 "functional": "B3LYP", 
		 "basiset": "6-31G**", 
		 "properties": { 
			 "R2extent": 4264.223, 
			 "electric_dipole_moment_norm": 4.58310687853, 
			 "electric_quadrupole_moment_norm": 24.4607347895, 
			 "total_energy": -739.833932668, 
			 "HOMO_LUMO_gap": 0.17489, 
			 "cosmo_polarized_energy": -18.22, 
			 "cosmo_cavitation_energy": 26.89, 
			 "cosmo_dispersion_energy": -19.56, 
			 "cosmo_repulsion_energy": 1.54, 
			 "cosmo_total_nonelectrostatic_energy": 8.88, 
			 "SMD_solvation_energy": 8.41 
		},
		"coords": [
			{
				"x": 1.9276620085,
				"y": 1.8579178926,
				"z": -1.5741713208,
				"element": "O" 
			},
			{
				"x": 2.9144522509,
				"y": 1.1858704226,
				"z": -0.9528094004,
				"element": "C" 
			},
			{
				"x": 3.6714779097,
				"y": 0.4502107784,
				"z": -1.5325779604,
				"element": "O" 
			},
			{
				"x": 3.0415893567,
				"y": 1.4692364421,
				"z": 0.5489112976,
				"element": "C" 
			},
			{
				"x": 1.8435421383,
				"y": 1.9973579791,
				"z": 1.1187792548,
				"element": "O" 
			},
			{
				"x": 0.8565949155,
				"y": 1.1249426611,
				"z": 1.5082833224,
				"element": "C" 
			},
			{
				"x": 0.8370116946,
				"y": -0.238494031,
				"z": 1.1854261745,
				"element": "C" 
			},
			{
				"x": -0.2217889213,
				"y": -1.0287517556,
				"z": 1.6279475561,
				"element": "C" 
			},
			{
				"x": -1.240667659,
				"y": -0.4506078972,
				"z": 2.3789551818,
				"element": "C" 
			},
			{
				"x": -1.2331208269,
				"y": 0.9085726265,
				"z": 2.7005572857,
				"element": "C" 
			},
			{
				"x": -0.179241517,
				"y": 1.6959319737,
				"z": 2.2634313412,
				"element": "C" 
			},
			{
				"x": -2.3516598142,
				"y": -1.2886670567,
				"z": 2.8421848944,
				"element": "N" 
			},
			{
				"x": -3.2403611351,
				"y": -0.7446905657,
				"z": 3.4980848328,
				"element": "O" 
			},
			{
				"x": -2.3276055108,
				"y": -2.4836236363,
				"z": 2.5476103611,
				"element": "O" 
			},
			{
				"x": 1.4419123374,
				"y": 2.3795091936,
				"z": -0.9126662516,
				"element": "H" 
			},
			{
				"x": 3.7990680787,
				"y": 2.2468794854,
				"z": 0.6861322471,
				"element": "H" 
			},
			{
				"x": 3.3806279818,
				"y": 0.5656665939,
				"z": 1.0609985561,
				"element": "H" 
			},
			{
				"x": 1.6180703597,
				"y": -0.6913039268,
				"z": 0.5863837884,
				"element": "H" 
			},
			{
				"x": -0.2685618835,
				"y": -2.0846763101,
				"z": 1.3929223628,
				"element": "H" 
			},
			{
				"x": -2.0438155302,
				"y": 1.3209482014,
				"z": 3.2878501615,
				"element": "H" 
			},
			{
				"x": -0.131986234,
				"y": 2.7533709287,
				"z": 2.4994663148,
				"element": "H" 
			}
		],
		 "valence_orbital": [ 
			{
				"type": "occ",
				"energy": -0.31167,
				"method": "rhf"
			},
			{
				"type": "occ",
				"energy": -0.29542,
				"method": "rhf"
			},
			{
				"type": "occ",
				"energy": -0.2946,
				"method": "rhf"
			},
			{
				"type": "occ",
				"energy": -0.29327,
				"method": "rhf"
			},
			{
				"type": "occ",
				"energy": -0.26762,
				"method": "rhf"
			},
			{
				"type": "unocc",
				"energy": -0.09273,
				"method": "rhf"
			},
			{
				"type": "unocc",
				"energy": -0.04359,
				"method": "rhf"
			},
			{
				"type": "unocc",
				"energy": -0.01374,
				"method": "rhf"
			},
			{
				"type": "unocc",
				"energy": -0.00306,
				"method": "rhf"
			},
			{
				"type": "unocc",
				"energy": 0.05849,
				"method": "rhf"
			}
		],
		"cosmo_sigma_profile": { 
			"-0.025": 0.0,
			"-0.024": 0.0,
			"-0.023": 0.0,
			"-0.022": 0.0,
			"-0.021": 0.0,
			"-0.02": 0.0,
			"-0.019": 0.0,
			"-0.018": 0.0,
			"-0.017": 0.111280464455,
			"-0.016": 1.0759383092,
			"-0.015": 0.445367387393,
			"-0.014": 0.522733879185,
			"-0.013": 0.978511635594,
			"-0.012": 1.23820695715,
			"-0.011": 1.58598824503,
			"-0.01": 4.97286268569,
			"-0.009": 6.16046653371,
			"-0.008": 9.69522355498,
			"-0.007": 11.5141063825,
			"-0.006": 11.8202548143,
			"-0.005": 9.87529259942,
			"-0.004": 8.74304893103,
			"-0.003": 11.4396324963,
			"-0.002": 11.5990065919,
			"-0.001": 13.7568539632,
			"0.0": 16.280580785,
			"0.001": 15.6667087869,
			"0.002": 7.75889292495,
			"0.003": 5.44130182311,
			"0.004": 4.99818016318,
			"0.005": 5.80736934741,
			"0.006": 6.06060588251,
			"0.007": 9.68503435991,
			"0.008": 12.1466243294,
			"0.009": 9.01540377724,
			"0.01": 7.62764920687,
			"0.011": 6.08107191626,
			"0.012": 3.25466219613,
			"0.013": 0.243266016042,
			"0.014": 0.0,
			"0.015": 0.0,
			"0.016": 0.0,
			"0.017": 0.0,
			"0.018": 0.0,
			"0.019": 0.0,
			"0.02": 0.0,
			"0.021": 0.0,
			"0.022": 0.0,
			"0.023": 0.0,
			"0.024": 0.0,
			"0.025": 0.0
		}
	}
}
