{
	 "smiles": "OC(=O)C1=CC=C(COC2=CC3=C(C=CC=C3)C=C2)O1", 
	 "Tm": 445.15, 
	 "num_atms": 32, 
	 "gaussian": { 
		 "optdone": 1, 
		 "sigma_profile": "yes", 
		 "theory": "DFT", 
		 "functional": "B3LYP", 
		 "basiset": "6-31G**", 
		 "properties": { 
			 "R2extent": 7639.8637, 
			 "electric_dipole_moment_norm": 4.49736640824, 
			 "electric_quadrupole_moment_norm": 23.8257136976, 
			 "total_energy": -917.815783825, 
			 "HOMO_LUMO_gap": 0.16122, 
			 "cosmo_polarized_energy": -16.95, 
			 "cosmo_cavitation_energy": 37.61, 
			 "cosmo_dispersion_energy": -26.45, 
			 "cosmo_repulsion_energy": 2.03, 
			 "cosmo_total_nonelectrostatic_energy": 13.2, 
			 "SMD_solvation_energy": 7.88 
		},
		"coords": [
			{
				"x": 3.5631434621,
				"y": -3.6734874443,
				"z": -0.9929498176,
				"element": "O" 
			},
			{
				"x": 3.1387062798,
				"y": -2.8880706591,
				"z": -2.0146864688,
				"element": "C" 
			},
			{
				"x": 3.2888398983,
				"y": -3.211817264,
				"z": -3.1699117938,
				"element": "O" 
			},
			{
				"x": 2.4899723667,
				"y": -1.6284192085,
				"z": -1.6204966837,
				"element": "C" 
			},
			{
				"x": 1.9574951177,
				"y": -0.6067186978,
				"z": -2.3547273474,
				"element": "C" 
			},
			{
				"x": 1.4751367055,
				"y": 0.3569715234,
				"z": -1.4210290248,
				"element": "C" 
			},
			{
				"x": 1.7395865894,
				"y": -0.1392154687,
				"z": -0.1748428579,
				"element": "C" 
			},
			{
				"x": 1.5130065227,
				"y": 0.3875210543,
				"z": 1.2112681768,
				"element": "C" 
			},
			{
				"x": 0.3122257827,
				"y": 1.1351944078,
				"z": 1.3205265691,
				"element": "O" 
			},
			{
				"x": -0.8846267578,
				"y": 0.4617876755,
				"z": 1.3881368565,
				"element": "C" 
			},
			{
				"x": -1.0413929551,
				"y": -0.904561115,
				"z": 1.2902871936,
				"element": "C" 
			},
			{
				"x": -2.338053061,
				"y": -1.4833505377,
				"z": 1.393538003,
				"element": "C" 
			},
			{
				"x": -3.4755924993,
				"y": -0.63795643,
				"z": 1.596321466,
				"element": "C" 
			},
			{
				"x": -4.7640869259,
				"y": -1.2238538685,
				"z": 1.6974933894,
				"element": "C" 
			},
			{
				"x": -4.9290557886,
				"y": -2.5883146233,
				"z": 1.6019065729,
				"element": "C" 
			},
			{
				"x": -3.8055818679,
				"y": -3.4251809805,
				"z": 1.399319346,
				"element": "C" 
			},
			{
				"x": -2.5416880951,
				"y": -2.8859947174,
				"z": 1.2974680381,
				"element": "C" 
			},
			{
				"x": -3.2672171125,
				"y": 0.7668335161,
				"z": 1.6861090074,
				"element": "C" 
			},
			{
				"x": -2.01038773,
				"y": 1.3063587767,
				"z": 1.5852940061,
				"element": "C" 
			},
			{
				"x": 2.3574932479,
				"y": -1.352962586,
				"z": -0.2763178021,
				"element": "O" 
			},
			{
				"x": 3.3589255856,
				"y": -3.247943932,
				"z": -0.1458347188,
				"element": "H" 
			},
			{
				"x": 1.9230240318,
				"y": -0.5655998717,
				"z": -3.4331840782,
				"element": "H" 
			},
			{
				"x": 0.9857101744,
				"y": 1.2954483084,
				"z": -1.6354928616,
				"element": "H" 
			},
			{
				"x": 2.3034617183,
				"y": 1.0937449341,
				"z": 1.4874638212,
				"element": "H" 
			},
			{
				"x": 1.5424527439,
				"y": -0.4422917573,
				"z": 1.9294723198,
				"element": "H" 
			},
			{
				"x": -0.1984817203,
				"y": -1.5642751506,
				"z": 1.119484142,
				"element": "H" 
			},
			{
				"x": -5.6223160731,
				"y": -0.5745757966,
				"z": 1.8519069638,
				"element": "H" 
			},
			{
				"x": -5.9198053515,
				"y": -3.0259564313,
				"z": 1.6804777596,
				"element": "H" 
			},
			{
				"x": -3.9436212633,
				"y": -4.4999374368,
				"z": 1.3233608781,
				"element": "H" 
			},
			{
				"x": -1.6811082729,
				"y": -3.5314257998,
				"z": 1.1407068014,
				"element": "H" 
			},
			{
				"x": -4.1251160109,
				"y": 1.4162259066,
				"z": 1.8395491102,
				"element": "H" 
			},
			{
				"x": -1.8412487418,
				"y": 2.3757236739,
				"z": 1.6567830337,
				"element": "H" 
			}
		],
		 "valence_orbital": [ 
			{
				"type": "occ",
				"energy": -0.2857,
				"method": "rhf"
			},
			{
				"type": "occ",
				"energy": -0.27853,
				"method": "rhf"
			},
			{
				"type": "occ",
				"energy": -0.25072,
				"method": "rhf"
			},
			{
				"type": "occ",
				"energy": -0.23609,
				"method": "rhf"
			},
			{
				"type": "occ",
				"energy": -0.21455,
				"method": "rhf"
			},
			{
				"type": "unocc",
				"energy": -0.05333,
				"method": "rhf"
			},
			{
				"type": "unocc",
				"energy": -0.03966,
				"method": "rhf"
			},
			{
				"type": "unocc",
				"energy": -0.00812,
				"method": "rhf"
			},
			{
				"type": "unocc",
				"energy": 0.02043,
				"method": "rhf"
			},
			{
				"type": "unocc",
				"energy": 0.02919,
				"method": "rhf"
			}
		],
		"cosmo_sigma_profile": { 
			"-0.025": 0.0,
			"-0.024": 0.0,
			"-0.023": 0.0,
			"-0.022": 0.0,
			"-0.021": 0.0,
			"-0.02": 0.0,
			"-0.019": 0.0,
			"-0.018": 0.0,
			"-0.017": 0.207684361926,
			"-0.016": 0.861760988037,
			"-0.015": 0.566023656472,
			"-0.014": 0.348953566348,
			"-0.013": 0.633862008958,
			"-0.012": 1.15931967582,
			"-0.011": 1.13257381052,
			"-0.01": 0.76912716803,
			"-0.009": 1.87458876813,
			"-0.008": 6.75533272418,
			"-0.007": 9.24981607863,
			"-0.006": 20.1184191514,
			"-0.005": 22.7228253562,
			"-0.004": 21.6610381264,
			"-0.003": 21.5497841265,
			"-0.002": 16.622513335,
			"-0.001": 19.7792647837,
			"0.0": 16.2917471159,
			"0.001": 18.1344841267,
			"0.002": 19.7616138732,
			"0.003": 21.4830529585,
			"0.004": 27.5704961171,
			"0.005": 16.3388638329,
			"0.006": 7.20320290029,
			"0.007": 3.68440040665,
			"0.008": 3.93432068137,
			"0.009": 4.45976738765,
			"0.01": 5.22143572266,
			"0.011": 5.03347662348,
			"0.012": 5.38899284491,
			"0.013": 1.52526594067,
			"0.014": 0.0340049596103,
			"0.015": 0.0,
			"0.016": 0.0,
			"0.017": 0.0,
			"0.018": 0.0,
			"0.019": 0.0,
			"0.02": 0.0,
			"0.021": 0.0,
			"0.022": 0.0,
			"0.023": 0.0,
			"0.024": 0.0,
			"0.025": 0.0
		}
	}
}
