{
	 "smiles": "CC(C)C1=NC(O)=CC=N1", 
	 "Tm": 513.15, 
	 "num_atms": 20, 
	 "gaussian": { 
		 "optdone": 1, 
		 "sigma_profile": "yes", 
		 "theory": "DFT", 
		 "functional": "B3LYP", 
		 "basiset": "6-31G**", 
		 "properties": { 
			 "R2extent": 1923.9774, 
			 "electric_dipole_moment_norm": 3.00085921696, 
			 "electric_quadrupole_moment_norm": 15.8651433728, 
			 "total_energy": -457.509146577, 
			 "HOMO_LUMO_gap": 0.22329, 
			 "cosmo_polarized_energy": -13.05, 
			 "cosmo_cavitation_energy": 23.45, 
			 "cosmo_dispersion_energy": -17.2, 
			 "cosmo_repulsion_energy": 1.42, 
			 "cosmo_total_nonelectrostatic_energy": 7.67, 
			 "SMD_solvation_energy": 2.24 
		},
		"coords": [
			{
				"x": -1.2222637392,
				"y": -1.2052665926,
				"z": -0.2105235167,
				"element": "C" 
			},
			{
				"x": -0.207987235,
				"y": -0.7827064985,
				"z": 0.8676557283,
				"element": "C" 
			},
			{
				"x": -0.8946341721,
				"y": -0.5911434079,
				"z": 2.2320827777,
				"element": "C" 
			},
			{
				"x": 0.5183559234,
				"y": 0.4827569496,
				"z": 0.452057267,
				"element": "C" 
			},
			{
				"x": 1.8476798148,
				"y": 0.4018374005,
				"z": 0.2943582563,
				"element": "N" 
			},
			{
				"x": 2.4810144152,
				"y": 1.5130533677,
				"z": -0.0698102602,
				"element": "C" 
			},
			{
				"x": 3.817982918,
				"y": 1.3809232607,
				"z": -0.2157644801,
				"element": "O" 
			},
			{
				"x": 1.8078464859,
				"y": 2.7246879539,
				"z": -0.2842169333,
				"element": "C" 
			},
			{
				"x": 0.4331320519,
				"y": 2.6903041577,
				"z": -0.0913392282,
				"element": "C" 
			},
			{
				"x": -0.2271252258,
				"y": 1.5861298067,
				"z": 0.2746663663,
				"element": "N" 
			},
			{
				"x": -1.9733525881,
				"y": -0.4232371633,
				"z": -0.3555641105,
				"element": "H" 
			},
			{
				"x": -1.73333604,
				"y": -2.1266451165,
				"z": 0.0879702048,
				"element": "H" 
			},
			{
				"x": -0.7299080734,
				"y": -1.3881333032,
				"z": -1.1713107266,
				"element": "H" 
			},
			{
				"x": 0.5593207421,
				"y": -1.5579618012,
				"z": 0.9596775903,
				"element": "H" 
			},
			{
				"x": -1.6337109881,
				"y": 0.2135897899,
				"z": 2.1779867994,
				"element": "H" 
			},
			{
				"x": -1.4050756103,
				"y": -1.5118053383,
				"z": 2.5338426045,
				"element": "H" 
			},
			{
				"x": -0.1688852525,
				"y": -0.3362939648,
				"z": 3.0113825849,
				"element": "H" 
			},
			{
				"x": 4.1956024109,
				"y": 2.2307933372,
				"z": -0.4800281261,
				"element": "H" 
			},
			{
				"x": 2.3206136263,
				"y": 3.6343086839,
				"z": -0.5816119612,
				"element": "H" 
			},
			{
				"x": -0.1643694639,
				"y": 3.5891084787,
				"z": -0.2372108369,
				"element": "H" 
			}
		],
		 "valence_orbital": [ 
			{
				"type": "occ",
				"energy": -0.3262,
				"method": "rhf"
			},
			{
				"type": "occ",
				"energy": -0.29414,
				"method": "rhf"
			},
			{
				"type": "occ",
				"energy": -0.29189,
				"method": "rhf"
			},
			{
				"type": "occ",
				"energy": -0.25938,
				"method": "rhf"
			},
			{
				"type": "occ",
				"energy": -0.25015,
				"method": "rhf"
			},
			{
				"type": "unocc",
				"energy": -0.02686,
				"method": "rhf"
			},
			{
				"type": "unocc",
				"energy": -0.01477,
				"method": "rhf"
			},
			{
				"type": "unocc",
				"energy": 0.05781,
				"method": "rhf"
			},
			{
				"type": "unocc",
				"energy": 0.10461,
				"method": "rhf"
			},
			{
				"type": "unocc",
				"energy": 0.11182,
				"method": "rhf"
			}
		],
		"cosmo_sigma_profile": { 
			"-0.025": 0.0,
			"-0.024": 0.0,
			"-0.023": 0.0,
			"-0.022": 0.0,
			"-0.021": 0.0,
			"-0.02": 0.0158004464145,
			"-0.019": 0.856745087044,
			"-0.018": 1.27079540353,
			"-0.017": 1.23281712191,
			"-0.016": 1.20266381581,
			"-0.015": 1.02183949076,
			"-0.014": 0.735563187101,
			"-0.013": 0.53567323965,
			"-0.012": 1.16878141577,
			"-0.011": 1.64690007358,
			"-0.01": 0.869902888561,
			"-0.009": 1.50124990897,
			"-0.008": 2.4348673933,
			"-0.007": 4.36020347654,
			"-0.006": 5.18103947826,
			"-0.005": 3.55142851997,
			"-0.004": 3.80005051881,
			"-0.003": 13.0733237128,
			"-0.002": 17.1385424919,
			"-0.001": 24.6625703582,
			"0.0": 22.9038936886,
			"0.001": 23.4811012043,
			"0.002": 9.56745679851,
			"0.003": 5.1006945893,
			"0.004": 4.58890193748,
			"0.005": 3.59837454164,
			"0.006": 3.68327849534,
			"0.007": 4.15786641706,
			"0.008": 2.93199184371,
			"0.009": 3.53851971185,
			"0.01": 3.73936376063,
			"0.011": 3.95047419657,
			"0.012": 2.93942902495,
			"0.013": 1.6196123787,
			"0.014": 1.44138817315,
			"0.015": 1.17560564509,
			"0.016": 0.147843450249,
			"0.017": 0.0,
			"0.018": 0.0,
			"0.019": 0.0,
			"0.02": 0.0,
			"0.021": 0.0,
			"0.022": 0.0,
			"0.023": 0.0,
			"0.024": 0.0,
			"0.025": 0.0
		}
	}
}
