{
	 "smiles": "CC(C)=CCSC1=C(C=CC=C1)C(O)=O", 
	 "Tm": 412.15, 
	 "num_atms": 29, 
	 "gaussian": { 
		 "optdone": 1, 
		 "sigma_profile": "yes", 
		 "theory": "DFT", 
		 "functional": "B3LYP", 
		 "basiset": "6-31G**", 
		 "properties": { 
			 "R2extent": 5404.507, 
			 "electric_dipole_moment_norm": 2.07209643839, 
			 "electric_quadrupole_moment_norm": 12.5643364859, 
			 "total_energy": -1014.35326666, 
			 "HOMO_LUMO_gap": 0.16124, 
			 "cosmo_polarized_energy": -10.72, 
			 "cosmo_cavitation_energy": 33.86, 
			 "cosmo_dispersion_energy": -24.38, 
			 "cosmo_repulsion_energy": 1.89, 
			 "cosmo_total_nonelectrostatic_energy": 11.37, 
			 "SMD_solvation_energy": 6.64 
		},
		"coords": [
			{
				"x": -0.7610954562,
				"y": -1.877887808,
				"z": 1.7453959073,
				"element": "C" 
			},
			{
				"x": 0.6678550392,
				"y": -2.2340252325,
				"z": 2.0713945571,
				"element": "C" 
			},
			{
				"x": 0.8617290696,
				"y": -3.6009052347,
				"z": 2.6804280996,
				"element": "C" 
			},
			{
				"x": 1.7196379937,
				"y": -1.4254714864,
				"z": 1.8555987526,
				"element": "C" 
			},
			{
				"x": 1.6759173506,
				"y": -0.0457113436,
				"z": 1.2740124345,
				"element": "C" 
			},
			{
				"x": 1.9956360151,
				"y": -0.1566978442,
				"z": -0.5625156062,
				"element": "S" 
			},
			{
				"x": 2.1851792841,
				"y": 1.5665873622,
				"z": -1.0377520369,
				"element": "C" 
			},
			{
				"x": 1.1188376571,
				"y": 2.4803096963,
				"z": -1.2349921187,
				"element": "C" 
			},
			{
				"x": 1.3970000026,
				"y": 3.7729594222,
				"z": -1.7109701022,
				"element": "C" 
			},
			{
				"x": 2.6999962916,
				"y": 4.1775514207,
				"z": -1.9852852557,
				"element": "C" 
			},
			{
				"x": 3.7501039776,
				"y": 3.2789365161,
				"z": -1.8031431666,
				"element": "C" 
			},
			{
				"x": 3.4882763,
				"y": 1.990309052,
				"z": -1.3390574794,
				"element": "C" 
			},
			{
				"x": -0.3056306369,
				"y": 2.1380736697,
				"z": -0.9522194696,
				"element": "C" 
			},
			{
				"x": -1.1657800282,
				"y": 2.8750016776,
				"z": -1.7033655678,
				"element": "O" 
			},
			{
				"x": -0.7170064587,
				"y": 1.3263697439,
				"z": -0.1472086008,
				"element": "O" 
			},
			{
				"x": -1.3702861351,
				"y": -1.8528442331,
				"z": 2.6591468011,
				"element": "H" 
			},
			{
				"x": -1.202847985,
				"y": -2.6502794382,
				"z": 1.1027488363,
				"element": "H" 
			},
			{
				"x": -0.8643896653,
				"y": -0.9209271241,
				"z": 1.2324503068,
				"element": "H" 
			},
			{
				"x": 1.9119043798,
				"y": -3.8047751723,
				"z": 2.9064503702,
				"element": "H" 
			},
			{
				"x": 0.4981827285,
				"y": -4.3862394559,
				"z": 2.0047408761,
				"element": "H" 
			},
			{
				"x": 0.2858560394,
				"y": -3.7015586948,
				"z": 3.6100681651,
				"element": "H" 
			},
			{
				"x": 2.7126260139,
				"y": -1.8000284769,
				"z": 2.1003155026,
				"element": "H" 
			},
			{
				"x": 2.4666739498,
				"y": 0.5780116477,
				"z": 1.6992716365,
				"element": "H" 
			},
			{
				"x": 0.7149833155,
				"y": 0.4481000895,
				"z": 1.4031936448,
				"element": "H" 
			},
			{
				"x": 0.5725610081,
				"y": 4.4597963515,
				"z": -1.8624667541,
				"element": "H" 
			},
			{
				"x": 2.8904254634,
				"y": 5.184398534,
				"z": -2.3441739743,
				"element": "H" 
			},
			{
				"x": 4.7720889011,
				"y": 3.576611642,
				"z": -2.0198818145,
				"element": "H" 
			},
			{
				"x": 4.3013064549,
				"y": 1.2851156457,
				"z": -1.2028930192,
				"element": "H" 
			},
			{
				"x": -2.0542408702,
				"y": 2.6056190736,
				"z": -1.4170909249,
				"element": "H" 
			}
		],
		 "valence_orbital": [ 
			{
				"type": "occ",
				"energy": -0.28139,
				"method": "rhf"
			},
			{
				"type": "occ",
				"energy": -0.26484,
				"method": "rhf"
			},
			{
				"type": "occ",
				"energy": -0.26245,
				"method": "rhf"
			},
			{
				"type": "occ",
				"energy": -0.22754,
				"method": "rhf"
			},
			{
				"type": "occ",
				"energy": -0.21423,
				"method": "rhf"
			},
			{
				"type": "unocc",
				"energy": -0.05299,
				"method": "rhf"
			},
			{
				"type": "unocc",
				"energy": -0.02041,
				"method": "rhf"
			},
			{
				"type": "unocc",
				"energy": 0.01887,
				"method": "rhf"
			},
			{
				"type": "unocc",
				"energy": 0.04168,
				"method": "rhf"
			},
			{
				"type": "unocc",
				"energy": 0.05721,
				"method": "rhf"
			}
		],
		"cosmo_sigma_profile": { 
			"-0.025": 0.0,
			"-0.024": 0.0,
			"-0.023": 0.0,
			"-0.022": 0.0,
			"-0.021": 0.0,
			"-0.02": 0.0,
			"-0.019": 0.0410432947778,
			"-0.018": 0.68457896191,
			"-0.017": 0.864637723543,
			"-0.016": 0.871455150234,
			"-0.015": 0.401206109278,
			"-0.014": 1.08792037177,
			"-0.013": 0.459730894795,
			"-0.012": 0.766946286516,
			"-0.011": 1.32571562385,
			"-0.01": 0.790076012321,
			"-0.009": 0.104458837116,
			"-0.008": 0.265605441589,
			"-0.007": 4.58492573118,
			"-0.006": 8.40086742324,
			"-0.005": 11.9996284685,
			"-0.004": 15.8706370664,
			"-0.003": 25.1960195987,
			"-0.002": 23.5163921861,
			"-0.001": 25.0363232451,
			"0.0": 28.0890650226,
			"0.001": 27.172032078,
			"0.002": 20.1230825257,
			"0.003": 21.5134155751,
			"0.004": 11.7091286749,
			"0.005": 10.3349216669,
			"0.006": 8.72470526496,
			"0.007": 5.59338958342,
			"0.008": 5.20109933917,
			"0.009": 4.36857413789,
			"0.01": 3.52550538453,
			"0.011": 1.53919541982,
			"0.012": 0.0673614139267,
			"0.013": 0.0,
			"0.014": 0.0,
			"0.015": 0.0,
			"0.016": 0.0,
			"0.017": 0.0,
			"0.018": 0.0,
			"0.019": 0.0,
			"0.02": 0.0,
			"0.021": 0.0,
			"0.022": 0.0,
			"0.023": 0.0,
			"0.024": 0.0,
			"0.025": 0.0
		}
	}
}
