{
	 "smiles": "FC(F)(F)C1=CC=CN=C1Cl", 
	 "Tm": 312.15, 
	 "num_atms": 14, 
	 "gaussian": { 
		 "optdone": 1, 
		 "sigma_profile": "yes", 
		 "theory": "DFT", 
		 "functional": "B3LYP", 
		 "basiset": "6-31G**", 
		 "properties": { 
			 "R2extent": 2076.8994, 
			 "electric_dipole_moment_norm": 3.69004289406, 
			 "electric_quadrupole_moment_norm": 3.10692838508, 
			 "total_energy": -1044.90588138, 
			 "HOMO_LUMO_gap": 0.22035, 
			 "cosmo_polarized_energy": -6.59, 
			 "cosmo_cavitation_energy": 21.53, 
			 "cosmo_dispersion_energy": -15.82, 
			 "cosmo_repulsion_energy": 1.21, 
			 "cosmo_total_nonelectrostatic_energy": 6.91, 
			 "SMD_solvation_energy": 3.34 
		},
		"coords": [
			{
				"x": -1.6161882429,
				"y": 0.1218491898,
				"z": 2.5921210349,
				"element": "F" 
			},
			{
				"x": -1.8682595278,
				"y": -0.5105730011,
				"z": 1.4303738382,
				"element": "C" 
			},
			{
				"x": -2.0055022746,
				"y": -1.8262984505,
				"z": 1.713551857,
				"element": "F" 
			},
			{
				"x": -3.0589518344,
				"y": -0.0753639748,
				"z": 0.9765504467,
				"element": "F" 
			},
			{
				"x": -0.7656708104,
				"y": -0.2912819078,
				"z": 0.4189729586,
				"element": "C" 
			},
			{
				"x": -0.0553537436,
				"y": -1.3834531245,
				"z": -0.0810693631,
				"element": "C" 
			},
			{
				"x": 0.9601942227,
				"y": -1.1802963255,
				"z": -1.0127809551,
				"element": "C" 
			},
			{
				"x": 1.2286287079,
				"y": 0.1254111451,
				"z": -1.4128845895,
				"element": "C" 
			},
			{
				"x": 0.5585297729,
				"y": 1.1862896445,
				"z": -0.9448607279,
				"element": "N" 
			},
			{
				"x": -0.4013648203,
				"y": 0.9798670312,
				"z": -0.0623969655,
				"element": "C" 
			},
			{
				"x": -1.2306723146,
				"y": 2.4197506997,
				"z": 0.5012748883,
				"element": "Cl" 
			},
			{
				"x": -0.3055218388,
				"y": -2.379651492,
				"z": 0.2646448294,
				"element": "H" 
			},
			{
				"x": 1.5269182381,
				"y": -2.0119095812,
				"z": -1.4166342099,
				"element": "H" 
			},
			{
				"x": 2.0107144657,
				"y": 0.339860147,
				"z": -2.1375630421,
				"element": "H" 
			}
		],
		 "valence_orbital": [ 
			{
				"type": "occ",
				"energy": -0.35214,
				"method": "rhf"
			},
			{
				"type": "occ",
				"energy": -0.32209,
				"method": "rhf"
			},
			{
				"type": "occ",
				"energy": -0.31659,
				"method": "rhf"
			},
			{
				"type": "occ",
				"energy": -0.28924,
				"method": "rhf"
			},
			{
				"type": "occ",
				"energy": -0.2768,
				"method": "rhf"
			},
			{
				"type": "unocc",
				"energy": -0.05645,
				"method": "rhf"
			},
			{
				"type": "unocc",
				"energy": -0.04677,
				"method": "rhf"
			},
			{
				"type": "unocc",
				"energy": 0.02507,
				"method": "rhf"
			},
			{
				"type": "unocc",
				"energy": 0.0914,
				"method": "rhf"
			},
			{
				"type": "unocc",
				"energy": 0.09853,
				"method": "rhf"
			}
		],
		"cosmo_sigma_profile": { 
			"-0.025": 0.0,
			"-0.024": 0.0,
			"-0.023": 0.0,
			"-0.022": 0.0,
			"-0.021": 0.0,
			"-0.02": 0.0,
			"-0.019": 0.0,
			"-0.018": 0.0,
			"-0.017": 0.0,
			"-0.016": 0.0,
			"-0.015": 0.0,
			"-0.014": 0.0,
			"-0.013": 0.0,
			"-0.012": 0.0,
			"-0.011": 0.0,
			"-0.01": 0.00567200852258,
			"-0.009": 1.75294350734,
			"-0.008": 6.66734115994,
			"-0.007": 7.08971667062,
			"-0.006": 5.0566614299,
			"-0.005": 5.88621493556,
			"-0.004": 7.32794934355,
			"-0.003": 8.70820826714,
			"-0.002": 15.0619857779,
			"-0.001": 15.9422588976,
			"0.0": 16.1503385043,
			"0.001": 12.879845188,
			"0.002": 27.8675377386,
			"0.003": 23.7530592668,
			"0.004": 9.76967453408,
			"0.005": 2.32188767297,
			"0.006": 2.23532153664,
			"0.007": 1.5618336981,
			"0.008": 1.51983412221,
			"0.009": 0.652327459811,
			"0.01": 0.978183211719,
			"0.011": 0.956730014524,
			"0.012": 0.970410845218,
			"0.013": 0.703048282949,
			"0.014": 0.407667925105,
			"0.015": 0.0,
			"0.016": 0.0,
			"0.017": 0.0,
			"0.018": 0.0,
			"0.019": 0.0,
			"0.02": 0.0,
			"0.021": 0.0,
			"0.022": 0.0,
			"0.023": 0.0,
			"0.024": 0.0,
			"0.025": 0.0
		}
	}
}
