{
	 "smiles": "CN1CCNC(C1)C1=CC=CC=C1", 
	 "Tm": 331.15, 
	 "num_atms": 29, 
	 "gaussian": { 
		 "optdone": 1, 
		 "sigma_profile": "yes", 
		 "theory": "DFT", 
		 "functional": "B3LYP", 
		 "basiset": "6-31G**", 
		 "properties": { 
			 "R2extent": 3833.9267, 
			 "electric_dipole_moment_norm": 0.636106610561, 
			 "electric_quadrupole_moment_norm": 9.41239693967, 
			 "total_energy": -538.290446774, 
			 "HOMO_LUMO_gap": 0.1893, 
			 "cosmo_polarized_energy": -7.06, 
			 "cosmo_cavitation_energy": 29.81, 
			 "cosmo_dispersion_energy": -21.73, 
			 "cosmo_repulsion_energy": 1.71, 
			 "cosmo_total_nonelectrostatic_energy": 9.79, 
			 "SMD_solvation_energy": -0.08 
		},
		"coords": [
			{
				"x": 0.7394798446,
				"y": 0.0167142693,
				"z": -3.1226440506,
				"element": "C" 
			},
			{
				"x": 0.7501496843,
				"y": -0.2587524883,
				"z": -1.695680446,
				"element": "N" 
			},
			{
				"x": -0.3332850289,
				"y": -1.1734602225,
				"z": -1.3101840852,
				"element": "C" 
			},
			{
				"x": -0.6860027996,
				"y": -1.0042119943,
				"z": 0.1635367813,
				"element": "C" 
			},
			{
				"x": -1.2533107196,
				"y": 0.3316029989,
				"z": 0.3623011636,
				"element": "N" 
			},
			{
				"x": -0.5321779541,
				"y": 1.4305093154,
				"z": -0.3173606438,
				"element": "C" 
			},
			{
				"x": 0.8392184979,
				"y": 0.9315630328,
				"z": -0.8432663631,
				"element": "C" 
			},
			{
				"x": -0.357595952,
				"y": 2.6469110354,
				"z": 0.5720008496,
				"element": "C" 
			},
			{
				"x": -0.7552674864,
				"y": 3.9157024533,
				"z": 0.131372438,
				"element": "C" 
			},
			{
				"x": -0.5643553575,
				"y": 5.0456287712,
				"z": 0.928105743,
				"element": "C" 
			},
			{
				"x": 0.0284717749,
				"y": 4.9239187015,
				"z": 2.1858819182,
				"element": "C" 
			},
			{
				"x": 0.4289344414,
				"y": 3.6652258816,
				"z": 2.6390144068,
				"element": "C" 
			},
			{
				"x": 0.2379431142,
				"y": 2.5386008816,
				"z": 1.8386229846,
				"element": "C" 
			},
			{
				"x": -0.1688381073,
				"y": 0.5445199485,
				"z": -3.4741532135,
				"element": "H" 
			},
			{
				"x": 0.8010511452,
				"y": -0.9278367942,
				"z": -3.675181648,
				"element": "H" 
			},
			{
				"x": 1.6124003189,
				"y": 0.6174889385,
				"z": -3.39684868,
				"element": "H" 
			},
			{
				"x": -1.2520847112,
				"y": -0.9811935381,
				"z": -1.8952248643,
				"element": "H" 
			},
			{
				"x": -0.0288704191,
				"y": -2.2084798599,
				"z": -1.5154466727,
				"element": "H" 
			},
			{
				"x": 0.2137564955,
				"y": -1.2124878448,
				"z": 0.7704463082,
				"element": "H" 
			},
			{
				"x": -1.4390219269,
				"y": -1.749924512,
				"z": 0.443607603,
				"element": "H" 
			},
			{
				"x": -1.3802706218,
				"y": 0.5372576926,
				"z": 1.3463331279,
				"element": "H" 
			},
			{
				"x": -1.1231162578,
				"y": 1.7449420033,
				"z": -1.1911022324,
				"element": "H" 
			},
			{
				"x": 1.3296924191,
				"y": 1.7333887129,
				"z": -1.4034422065,
				"element": "H" 
			},
			{
				"x": 1.4823029921,
				"y": 0.719435231,
				"z": 0.0219582804,
				"element": "H" 
			},
			{
				"x": -1.2251797715,
				"y": 4.015369167,
				"z": -0.8440068928,
				"element": "H" 
			},
			{
				"x": -0.8852269318,
				"y": 6.0195749906,
				"z": 0.5690293381,
				"element": "H" 
			},
			{
				"x": 0.1743745845,
				"y": 5.8012991594,
				"z": 2.809402258,
				"element": "H" 
			},
			{
				"x": 0.8919645004,
				"y": 3.5603776805,
				"z": 3.61634562,
				"element": "H" 
			},
			{
				"x": 0.5563642323,
				"y": 1.564816389,
				"z": 2.2028831783,
				"element": "H" 
			}
		],
		 "valence_orbital": [ 
			{
				"type": "occ",
				"energy": -0.32355,
				"method": "rhf"
			},
			{
				"type": "occ",
				"energy": -0.25049,
				"method": "rhf"
			},
			{
				"type": "occ",
				"energy": -0.24963,
				"method": "rhf"
			},
			{
				"type": "occ",
				"energy": -0.21216,
				"method": "rhf"
			},
			{
				"type": "occ",
				"energy": -0.19307,
				"method": "rhf"
			},
			{
				"type": "unocc",
				"energy": -0.00377,
				"method": "rhf"
			},
			{
				"type": "unocc",
				"energy": -0.00158,
				"method": "rhf"
			},
			{
				"type": "unocc",
				"energy": 0.08249,
				"method": "rhf"
			},
			{
				"type": "unocc",
				"energy": 0.09412,
				"method": "rhf"
			},
			{
				"type": "unocc",
				"energy": 0.10149,
				"method": "rhf"
			}
		],
		"cosmo_sigma_profile": { 
			"-0.025": 0.0,
			"-0.024": 0.0,
			"-0.023": 0.0,
			"-0.022": 0.0,
			"-0.021": 0.0,
			"-0.02": 0.0,
			"-0.019": 0.0,
			"-0.018": 0.0,
			"-0.017": 0.0,
			"-0.016": 0.0,
			"-0.015": 0.0,
			"-0.014": 0.0,
			"-0.013": 0.0,
			"-0.012": 0.0,
			"-0.011": 0.0,
			"-0.01": 0.00630422834824,
			"-0.009": 0.660994043123,
			"-0.008": 0.538913524992,
			"-0.007": 1.43517692352,
			"-0.006": 4.03828777692,
			"-0.005": 12.4556626538,
			"-0.004": 19.9399380397,
			"-0.003": 28.4061088801,
			"-0.002": 30.9285750295,
			"-0.001": 31.4556279761,
			"0.0": 27.3913399012,
			"0.001": 12.9717212214,
			"0.002": 8.77011918712,
			"0.003": 10.9869483128,
			"0.004": 9.64601919667,
			"0.005": 9.49708513554,
			"0.006": 9.88657504997,
			"0.007": 2.98776238066,
			"0.008": 1.63078508639,
			"0.009": 0.911478909292,
			"0.01": 0.888780358227,
			"0.011": 1.24781714822,
			"0.012": 1.57450452626,
			"0.013": 0.952320610236,
			"0.014": 0.893675969409,
			"0.015": 1.16819033471,
			"0.016": 0.276741649653,
			"0.017": 1.09637719341,
			"0.018": 0.251229925725,
			"0.019": 0.0,
			"0.02": 0.0,
			"0.021": 0.0,
			"0.022": 0.0,
			"0.023": 0.0,
			"0.024": 0.0,
			"0.025": 0.0
		}
	}
}
