{
	 "smiles": "NCCCNCCN", 
	 "Tm": 283.15, 
	 "num_atms": 23, 
	 "gaussian": { 
		 "optdone": 1, 
		 "sigma_profile": "yes", 
		 "theory": "DFT", 
		 "functional": "B3LYP", 
		 "basiset": "6-31G**", 
		 "properties": { 
			 "R2extent": 1735.3023, 
			 "electric_dipole_moment_norm": 3.13681218118, 
			 "electric_quadrupole_moment_norm": 13.3765887232, 
			 "total_energy": -363.813162678, 
			 "HOMO_LUMO_gap": 0.28146, 
			 "cosmo_polarized_energy": -10.93, 
			 "cosmo_cavitation_energy": 24.51, 
			 "cosmo_dispersion_energy": -17.34, 
			 "cosmo_repulsion_energy": 1.48, 
			 "cosmo_total_nonelectrostatic_energy": 8.64, 
			 "SMD_solvation_energy": 0.45 
		},
		"coords": [
			{
				"x": 2.6904348862,
				"y": 0.4486609708,
				"z": 2.46602408,
				"element": "N" 
			},
			{
				"x": 2.2585331935,
				"y": 1.5406564487,
				"z": 1.5926521052,
				"element": "C" 
			},
			{
				"x": 1.9945380341,
				"y": 1.1836714962,
				"z": 0.1161681725,
				"element": "C" 
			},
			{
				"x": 0.9041884801,
				"y": 0.130560053,
				"z": -0.1023632249,
				"element": "C" 
			},
			{
				"x": -0.3855040338,
				"y": 0.5699585912,
				"z": 0.4332684772,
				"element": "N" 
			},
			{
				"x": -1.4903419876,
				"y": -0.366651593,
				"z": 0.2012300329,
				"element": "C" 
			},
			{
				"x": -1.5262657057,
				"y": -1.4689102772,
				"z": 1.2745949865,
				"element": "C" 
			},
			{
				"x": -1.6668567996,
				"y": -0.9898083513,
				"z": 2.6497451038,
				"element": "N" 
			},
			{
				"x": 3.4895562125,
				"y": -0.0353258479,
				"z": 2.0619662853,
				"element": "H" 
			},
			{
				"x": 1.9497289777,
				"y": -0.2408627574,
				"z": 2.5628433334,
				"element": "H" 
			},
			{
				"x": 3.0237787174,
				"y": 2.3262232237,
				"z": 1.6294756668,
				"element": "H" 
			},
			{
				"x": 1.3490924391,
				"y": 1.9681113891,
				"z": 2.0269827387,
				"element": "H" 
			},
			{
				"x": 1.7275220872,
				"y": 2.1010510043,
				"z": -0.4301385759,
				"element": "H" 
			},
			{
				"x": 2.9232989795,
				"y": 0.8181521927,
				"z": -0.3434505509,
				"element": "H" 
			},
			{
				"x": 1.1933734688,
				"y": -0.7958113024,
				"z": 0.4096786645,
				"element": "H" 
			},
			{
				"x": 0.8473020038,
				"y": -0.1210845501,
				"z": -1.1782427257,
				"element": "H" 
			},
			{
				"x": -0.6151907212,
				"y": 1.4723771047,
				"z": 0.0258326504,
				"element": "H" 
			},
			{
				"x": -2.4281467668,
				"y": 0.2009083459,
				"z": 0.2535734917,
				"element": "H" 
			},
			{
				"x": -1.4479327481,
				"y": -0.8269207842,
				"z": -0.8044879235,
				"element": "H" 
			},
			{
				"x": -0.606631827,
				"y": -2.0657878347,
				"z": 1.2119656832,
				"element": "H" 
			},
			{
				"x": -2.3489698438,
				"y": -2.1587173608,
				"z": 1.0516708458,
				"element": "H" 
			},
			{
				"x": -2.5947753298,
				"y": -0.5876108702,
				"z": 2.771850224,
				"element": "H" 
			},
			{
				"x": -1.0169317168,
				"y": -0.213639291,
				"z": 2.770060459,
				"element": "H" 
			}
		],
		 "valence_orbital": [ 
			{
				"type": "occ",
				"energy": -0.33586,
				"method": "rhf"
			},
			{
				"type": "occ",
				"energy": -0.32458,
				"method": "rhf"
			},
			{
				"type": "occ",
				"energy": -0.23531,
				"method": "rhf"
			},
			{
				"type": "occ",
				"energy": -0.22634,
				"method": "rhf"
			},
			{
				"type": "occ",
				"energy": -0.2215,
				"method": "rhf"
			},
			{
				"type": "unocc",
				"energy": 0.05996,
				"method": "rhf"
			},
			{
				"type": "unocc",
				"energy": 0.08865,
				"method": "rhf"
			},
			{
				"type": "unocc",
				"energy": 0.09849,
				"method": "rhf"
			},
			{
				"type": "unocc",
				"energy": 0.11392,
				"method": "rhf"
			},
			{
				"type": "unocc",
				"energy": 0.12945,
				"method": "rhf"
			}
		],
		"cosmo_sigma_profile": { 
			"-0.025": 0.0,
			"-0.024": 0.0,
			"-0.023": 0.0,
			"-0.022": 0.0,
			"-0.021": 0.0,
			"-0.02": 0.0,
			"-0.019": 0.0,
			"-0.018": 0.0,
			"-0.017": 0.0,
			"-0.016": 0.0,
			"-0.015": 0.0,
			"-0.014": 0.0,
			"-0.013": 0.0,
			"-0.012": 0.0,
			"-0.011": 0.0,
			"-0.01": 0.114594199809,
			"-0.009": 3.32030942133,
			"-0.008": 3.80093992004,
			"-0.007": 5.61934538561,
			"-0.006": 6.75663974827,
			"-0.005": 8.48438498892,
			"-0.004": 10.4416998293,
			"-0.003": 19.4474040762,
			"-0.002": 21.7049949789,
			"-0.001": 31.6117192302,
			"0.0": 26.0908682543,
			"0.001": 11.4806439005,
			"0.002": 4.23694497692,
			"0.003": 2.73366715037,
			"0.004": 3.30444806593,
			"0.005": 3.46334021867,
			"0.006": 3.47354439953,
			"0.007": 1.82210614324,
			"0.008": 1.38873274547,
			"0.009": 2.0062311271,
			"0.01": 2.5486959571,
			"0.011": 1.43421543219,
			"0.012": 0.958829213143,
			"0.013": 1.49730465672,
			"0.014": 2.07176767894,
			"0.015": 1.04877861457,
			"0.016": 1.09409761463,
			"0.017": 0.897157543907,
			"0.018": 1.57003967021,
			"0.019": 1.56480653777,
			"0.02": 0.937948732833,
			"0.021": 0.326965155469,
			"0.022": 0.0,
			"0.023": 0.0,
			"0.024": 0.0,
			"0.025": 0.0
		}
	}
}
