{
	 "smiles": "FC1=CC2=C(NC(=O)C2=O)C=C1", 
	 "Tm": 498.65, 
	 "num_atms": 16, 
	 "gaussian": { 
		 "optdone": 1, 
		 "sigma_profile": "yes", 
		 "theory": "DFT", 
		 "functional": "B3LYP", 
		 "basiset": "6-31G**", 
		 "properties": { 
			 "R2extent": 2071.5978, 
			 "electric_dipole_moment_norm": 5.33209700118, 
			 "electric_quadrupole_moment_norm": 14.0137024169, 
			 "total_energy": -612.290900528, 
			 "HOMO_LUMO_gap": 0.13549, 
			 "cosmo_polarized_energy": -15.17, 
			 "cosmo_cavitation_energy": 22.21, 
			 "cosmo_dispersion_energy": -16.28, 
			 "cosmo_repulsion_energy": 1.26, 
			 "cosmo_total_nonelectrostatic_energy": 7.2, 
			 "SMD_solvation_energy": 5.71 
		},
		"coords": [
			{
				"x": 2.2898115025,
				"y": 0.8489863997,
				"z": -2.9727019893,
				"element": "F" 
			},
			{
				"x": 1.3835994706,
				"y": 0.521879854,
				"z": -2.0290338613,
				"element": "C" 
			},
			{
				"x": 1.823904674,
				"y": 0.1401511001,
				"z": -0.7663846623,
				"element": "C" 
			},
			{
				"x": 0.8501252091,
				"y": -0.1877552603,
				"z": 0.1726991063,
				"element": "C" 
			},
			{
				"x": -0.5216913191,
				"y": -0.1350517798,
				"z": -0.1427555289,
				"element": "C" 
			},
			{
				"x": -1.2917902562,
				"y": -0.5105471876,
				"z": 0.9700865856,
				"element": "N" 
			},
			{
				"x": -0.505602748,
				"y": -0.8282744609,
				"z": 2.0666357422,
				"element": "C" 
			},
			{
				"x": -0.8814982943,
				"y": -1.1842429947,
				"z": 3.1596634483,
				"element": "O" 
			},
			{
				"x": 0.9725847944,
				"y": -0.624153833,
				"z": 1.5755689757,
				"element": "C" 
			},
			{
				"x": 1.9558839222,
				"y": -0.8049716548,
				"z": 2.2577183605,
				"element": "O" 
			},
			{
				"x": -0.9483449008,
				"y": 0.2482198424,
				"z": -1.4089378912,
				"element": "C" 
			},
			{
				"x": 0.028643986,
				"y": 0.5788065292,
				"z": -2.3561671921,
				"element": "C" 
			},
			{
				"x": 2.8805823634,
				"y": 0.1001890633,
				"z": -0.5253878316,
				"element": "H" 
			},
			{
				"x": -2.300161586,
				"y": -0.551362896,
				"z": 0.9913585084,
				"element": "H" 
			},
			{
				"x": -2.0015963417,
				"y": 0.2934357508,
				"z": -1.6663039926,
				"element": "H" 
			},
			{
				"x": -0.2527504762,
				"y": 0.8840915276,
				"z": -3.3583577778,
				"element": "H" 
			}
		],
		 "valence_orbital": [ 
			{
				"type": "occ",
				"energy": -0.32696,
				"method": "rhf"
			},
			{
				"type": "occ",
				"energy": -0.31573,
				"method": "rhf"
			},
			{
				"type": "occ",
				"energy": -0.28996,
				"method": "rhf"
			},
			{
				"type": "occ",
				"energy": -0.25305,
				"method": "rhf"
			},
			{
				"type": "occ",
				"energy": -0.24035,
				"method": "rhf"
			},
			{
				"type": "unocc",
				"energy": -0.10486,
				"method": "rhf"
			},
			{
				"type": "unocc",
				"energy": -0.03005,
				"method": "rhf"
			},
			{
				"type": "unocc",
				"energy": 0.00567,
				"method": "rhf"
			},
			{
				"type": "unocc",
				"energy": 0.06989,
				"method": "rhf"
			},
			{
				"type": "unocc",
				"energy": 0.07501,
				"method": "rhf"
			}
		],
		"cosmo_sigma_profile": { 
			"-0.025": 0.0,
			"-0.024": 0.0,
			"-0.023": 0.0,
			"-0.022": 0.0,
			"-0.021": 0.0,
			"-0.02": 0.0,
			"-0.019": 0.0,
			"-0.018": 0.0,
			"-0.017": 0.658015828479,
			"-0.016": 1.53583048759,
			"-0.015": 1.11342388006,
			"-0.014": 1.81153107643,
			"-0.013": 0.969217268411,
			"-0.012": 1.05906598978,
			"-0.011": 1.13264170883,
			"-0.01": 1.19702865643,
			"-0.009": 3.50827392556,
			"-0.008": 6.68069976172,
			"-0.007": 7.86796603474,
			"-0.006": 7.63808708816,
			"-0.005": 6.25909760391,
			"-0.004": 8.06802319601,
			"-0.003": 8.93444910853,
			"-0.002": 8.89454926333,
			"-0.001": 15.4657338137,
			"0.0": 19.2319469682,
			"0.001": 15.48347931,
			"0.002": 6.60639953486,
			"0.003": 6.81386242945,
			"0.004": 11.7367854932,
			"0.005": 3.10751067751,
			"0.006": 2.99166223304,
			"0.007": 2.3104871597,
			"0.008": 3.77039855056,
			"0.009": 5.00730163022,
			"0.01": 8.54744111501,
			"0.011": 8.05009119728,
			"0.012": 3.138350631,
			"0.013": 0.19181727132,
			"0.014": 0.0,
			"0.015": 0.0,
			"0.016": 0.0,
			"0.017": 0.0,
			"0.018": 0.0,
			"0.019": 0.0,
			"0.02": 0.0,
			"0.021": 0.0,
			"0.022": 0.0,
			"0.023": 0.0,
			"0.024": 0.0,
			"0.025": 0.0
		}
	}
}
