{
	 "smiles": "CCOC1=CC=C(C=C1OC)C(NC(=O)C1=CC=CC=C1)NC(=O)C1=CC=CC=C1", 
	 "Tm": 484.15, 
	 "num_atms": 54, 
	 "gaussian": { 
		 "optdone": 1, 
		 "sigma_profile": "yes", 
		 "theory": "DFT", 
		 "functional": "B3LYP", 
		 "basiset": "6-31G**", 
		 "properties": { 
			 "R2extent": 13895.0918, 
			 "electric_dipole_moment_norm": 4.16504422546, 
			 "electric_quadrupole_moment_norm": 27.8419375062, 
			 "total_energy": -1339.42155392, 
			 "HOMO_LUMO_gap": 0.16877, 
			 "cosmo_polarized_energy": -24.44, 
			 "cosmo_cavitation_energy": 57.86, 
			 "cosmo_dispersion_energy": -36.98, 
			 "cosmo_repulsion_energy": 2.88, 
			 "cosmo_total_nonelectrostatic_energy": 23.75, 
			 "SMD_solvation_energy": 11.6 
		},
		"coords": [
			{
				"x": 3.6254275836,
				"y": 2.4616722775,
				"z": 5.6185383589,
				"element": "C" 
			},
			{
				"x": 2.3068068956,
				"y": 2.3053753785,
				"z": 4.8817664889,
				"element": "C" 
			},
			{
				"x": 2.6028789476,
				"y": 1.8213787472,
				"z": 3.5722713278,
				"element": "O" 
			},
			{
				"x": 1.5727237008,
				"y": 1.6003780417,
				"z": 2.7144377431,
				"element": "C" 
			},
			{
				"x": 0.2262854334,
				"y": 1.8048557291,
				"z": 3.0021213232,
				"element": "C" 
			},
			{
				"x": -0.7617958828,
				"y": 1.5391863527,
				"z": 2.0423946964,
				"element": "C" 
			},
			{
				"x": -0.408701189,
				"y": 1.0644240064,
				"z": 0.7850274251,
				"element": "C" 
			},
			{
				"x": 0.9512436384,
				"y": 0.8570705589,
				"z": 0.4865321555,
				"element": "C" 
			},
			{
				"x": 1.9399705365,
				"y": 1.1153232391,
				"z": 1.4289395847,
				"element": "C" 
			},
			{
				"x": 3.2744260287,
				"y": 0.9377065684,
				"z": 1.2320595128,
				"element": "O" 
			},
			{
				"x": 3.7040174947,
				"y": 0.4690933118,
				"z": -0.035638041,
				"element": "C" 
			},
			{
				"x": -1.4352410431,
				"y": 0.8244916946,
				"z": -0.319903442,
				"element": "C" 
			},
			{
				"x": -2.8004851878,
				"y": 0.5642693741,
				"z": 0.1748808801,
				"element": "N" 
			},
			{
				"x": -3.1730961057,
				"y": -0.3989050222,
				"z": 1.1016375949,
				"element": "C" 
			},
			{
				"x": -4.0882545718,
				"y": -0.1769509463,
				"z": 1.8874732323,
				"element": "O" 
			},
			{
				"x": -2.4685215217,
				"y": -1.7232974131,
				"z": 1.0877895278,
				"element": "C" 
			},
			{
				"x": -2.0562640691,
				"y": -2.3596132167,
				"z": -0.0911931643,
				"element": "C" 
			},
			{
				"x": -1.4682761508,
				"y": -3.6242804416,
				"z": -0.0370809265,
				"element": "C" 
			},
			{
				"x": -1.2803267634,
				"y": -4.2578996665,
				"z": 1.1922778203,
				"element": "C" 
			},
			{
				"x": -1.7018267161,
				"y": -3.6333064421,
				"z": 2.3694578127,
				"element": "C" 
			},
			{
				"x": -2.3051443395,
				"y": -2.379454502,
				"z": 2.3159978671,
				"element": "C" 
			},
			{
				"x": -1.4814191934,
				"y": 1.9967695351,
				"z": -1.1938629468,
				"element": "N" 
			},
			{
				"x": -1.2902039408,
				"y": 2.049488825,
				"z": -2.566476514,
				"element": "C" 
			},
			{
				"x": -0.8594613099,
				"y": 3.0753215075,
				"z": -3.0810907288,
				"element": "O" 
			},
			{
				"x": -1.6429119919,
				"y": 0.8545905728,
				"z": -3.4034436534,
				"element": "C" 
			},
			{
				"x": -0.9074983387,
				"y": 0.6629824472,
				"z": -4.5825940194,
				"element": "C" 
			},
			{
				"x": -1.2133457096,
				"y": -0.3907072138,
				"z": -5.4400408438,
				"element": "C" 
			},
			{
				"x": -2.276222334,
				"y": -1.2486995947,
				"z": -5.1429955995,
				"element": "C" 
			},
			{
				"x": -3.0310863782,
				"y": -1.0466457292,
				"z": -3.9863121577,
				"element": "C" 
			},
			{
				"x": -2.7158072127,
				"y": -0.0014729838,
				"z": -3.1149700668,
				"element": "C" 
			},
			{
				"x": 3.4473411116,
				"y": 2.8323309519,
				"z": 6.6326830331,
				"element": "H" 
			},
			{
				"x": 4.2754796121,
				"y": 3.1700684982,
				"z": 5.0978320398,
				"element": "H" 
			},
			{
				"x": 4.1453295042,
				"y": 1.5020414205,
				"z": 5.6845760186,
				"element": "H" 
			},
			{
				"x": 1.647565676,
				"y": 1.5959409455,
				"z": 5.4020807255,
				"element": "H" 
			},
			{
				"x": 1.7783520552,
				"y": 3.2670369819,
				"z": 4.8141081091,
				"element": "H" 
			},
			{
				"x": -0.0721640102,
				"y": 2.1683761211,
				"z": 3.9778196214,
				"element": "H" 
			},
			{
				"x": -1.8032320002,
				"y": 1.6929841678,
				"z": 2.3039561111,
				"element": "H" 
			},
			{
				"x": 1.2251104142,
				"y": 0.4897149336,
				"z": -0.4963991009,
				"element": "H" 
			},
			{
				"x": 3.4231645703,
				"y": 1.1613207382,
				"z": -0.8400625368,
				"element": "H" 
			},
			{
				"x": 3.2962676501,
				"y": -0.5253957301,
				"z": -0.2596666725,
				"element": "H" 
			},
			{
				"x": 4.7916817742,
				"y": 0.4064319769,
				"z": 0.0209729328,
				"element": "H" 
			},
			{
				"x": -1.112573528,
				"y": -0.0300904065,
				"z": -0.9168264682,
				"element": "H" 
			},
			{
				"x": -3.3502918233,
				"y": 1.4088513664,
				"z": 0.2926697806,
				"element": "H" 
			},
			{
				"x": -2.2252558125,
				"y": -1.8891666048,
				"z": -1.0545832625,
				"element": "H" 
			},
			{
				"x": -1.1638884097,
				"y": -4.1161747331,
				"z": -0.956442254,
				"element": "H" 
			},
			{
				"x": -0.8159383886,
				"y": -5.2391167373,
				"z": 1.2329868583,
				"element": "H" 
			},
			{
				"x": -1.5666655202,
				"y": -4.1282147268,
				"z": 3.326768157,
				"element": "H" 
			},
			{
				"x": -2.6610673944,
				"y": -1.8910524114,
				"z": 3.2168389666,
				"element": "H" 
			},
			{
				"x": -1.1685465577,
				"y": 2.8580178859,
				"z": -0.7597308162,
				"element": "H" 
			},
			{
				"x": -0.1067539456,
				"y": 1.3580418649,
				"z": -4.8121343365,
				"element": "H" 
			},
			{
				"x": -0.6311883469,
				"y": -0.538222657,
				"z": -6.3450535022,
				"element": "H" 
			},
			{
				"x": -2.521528135,
				"y": -2.0648102883,
				"z": -5.816709713,
				"element": "H" 
			},
			{
				"x": -3.8726812943,
				"y": -1.6964105822,
				"z": -3.7640272994,
				"element": "H" 
			},
			{
				"x": -3.3135075107,
				"y": 0.1599520292,
				"z": -2.2235576392,
				"element": "H" 
			}
		],
		 "valence_orbital": [ 
			{
				"type": "occ",
				"energy": -0.25765,
				"method": "rhf"
			},
			{
				"type": "occ",
				"energy": -0.24935,
				"method": "rhf"
			},
			{
				"type": "occ",
				"energy": -0.24369,
				"method": "rhf"
			},
			{
				"type": "occ",
				"energy": -0.23913,
				"method": "rhf"
			},
			{
				"type": "occ",
				"energy": -0.20909,
				"method": "rhf"
			},
			{
				"type": "unocc",
				"energy": -0.04032,
				"method": "rhf"
			},
			{
				"type": "unocc",
				"energy": -0.03695,
				"method": "rhf"
			},
			{
				"type": "unocc",
				"energy": -0.01179,
				"method": "rhf"
			},
			{
				"type": "unocc",
				"energy": -0.00894,
				"method": "rhf"
			},
			{
				"type": "unocc",
				"energy": -0.00158,
				"method": "rhf"
			}
		],
		"cosmo_sigma_profile": { 
			"-0.025": 0.0,
			"-0.024": 0.0,
			"-0.023": 0.0,
			"-0.022": 0.0,
			"-0.021": 0.0,
			"-0.02": 0.0,
			"-0.019": 0.0,
			"-0.018": 0.0,
			"-0.017": 0.0,
			"-0.016": 0.0,
			"-0.015": 0.0,
			"-0.014": 0.0,
			"-0.013": 0.519589642817,
			"-0.012": 1.29424563993,
			"-0.011": 2.03415750718,
			"-0.01": 1.94319356132,
			"-0.009": 2.26576703802,
			"-0.008": 3.59674760473,
			"-0.007": 7.00672130872,
			"-0.006": 25.899176592,
			"-0.005": 39.229630421,
			"-0.004": 48.8240775956,
			"-0.003": 43.1461157198,
			"-0.002": 35.7091698053,
			"-0.001": 32.7591384926,
			"0.0": 26.9736120251,
			"0.001": 29.3580434889,
			"0.002": 25.7744149782,
			"0.003": 30.1275565786,
			"0.004": 35.3927605145,
			"0.005": 16.244987281,
			"0.006": 5.56368378184,
			"0.007": 4.14910857905,
			"0.008": 4.36869600609,
			"0.009": 4.87670210102,
			"0.01": 4.87903772656,
			"0.011": 4.77903985659,
			"0.012": 6.56476104398,
			"0.013": 11.738494151,
			"0.014": 4.98223406567,
			"0.015": 0.380322511811,
			"0.016": 0.0,
			"0.017": 0.0,
			"0.018": 0.0,
			"0.019": 0.0,
			"0.02": 0.0,
			"0.021": 0.0,
			"0.022": 0.0,
			"0.023": 0.0,
			"0.024": 0.0,
			"0.025": 0.0
		}
	}
}
