{
	 "smiles": "NC1=CC(=CC=C1)C1=C2C(=C3CCCN13)C(=O)NNC2=O", 
	 "Tm": 605.15, 
	 "num_atms": 35, 
	 "gaussian": { 
		 "optdone": 1, 
		 "sigma_profile": "yes", 
		 "theory": "DFT", 
		 "functional": "B3LYP", 
		 "basiset": "6-31G**", 
		 "properties": { 
			 "R2extent": 6689.0303, 
			 "electric_dipole_moment_norm": 5.27092294195, 
			 "electric_quadrupole_moment_norm": 19.7736000784, 
			 "total_energy": -949.488074158, 
			 "HOMO_LUMO_gap": 0.16396, 
			 "cosmo_polarized_energy": -27.01, 
			 "cosmo_cavitation_energy": 38.04, 
			 "cosmo_dispersion_energy": -27.7, 
			 "cosmo_repulsion_energy": 2.11, 
			 "cosmo_total_nonelectrostatic_energy": 12.45, 
			 "SMD_solvation_energy": 6.42 
		},
		"coords": [
			{
				"x": -2.5933837421,
				"y": -3.8026669688,
				"z": 0.020653431,
				"element": "N" 
			},
			{
				"x": -1.4501090225,
				"y": -3.0260077841,
				"z": -0.1917487129,
				"element": "C" 
			},
			{
				"x": -1.3987593148,
				"y": -1.6965335774,
				"z": 0.253449313,
				"element": "C" 
			},
			{
				"x": -0.2863277667,
				"y": -0.8796721481,
				"z": -0.0111741907,
				"element": "C" 
			},
			{
				"x": 0.7892727828,
				"y": -1.4036773919,
				"z": -0.7472883883,
				"element": "C" 
			},
			{
				"x": 0.7371326615,
				"y": -2.72367335,
				"z": -1.1893537104,
				"element": "C" 
			},
			{
				"x": -0.3596524126,
				"y": -3.5369090986,
				"z": -0.9144477556,
				"element": "C" 
			},
			{
				"x": -0.2466258809,
				"y": 0.5025239667,
				"z": 0.4942199386,
				"element": "C" 
			},
			{
				"x": 0.2091048103,
				"y": 1.7065071318,
				"z": -0.0615600175,
				"element": "C" 
			},
			{
				"x": -0.0085380936,
				"y": 2.7555700165,
				"z": 0.8928973903,
				"element": "C" 
			},
			{
				"x": -0.5817842819,
				"y": 2.1815850811,
				"z": 2.0061065476,
				"element": "C" 
			},
			{
				"x": -1.0656583762,
				"y": 2.5138075531,
				"z": 3.381113059,
				"element": "C" 
			},
			{
				"x": -1.0731569792,
				"y": 1.1137846109,
				"z": 4.055936767,
				"element": "C" 
			},
			{
				"x": -1.2656296102,
				"y": 0.105570583,
				"z": 2.8963967236,
				"element": "C" 
			},
			{
				"x": -0.7184825369,
				"y": 0.8431403956,
				"z": 1.7513369265,
				"element": "N" 
			},
			{
				"x": 0.2981773626,
				"y": 4.1549901292,
				"z": 0.6430637927,
				"element": "C" 
			},
			{
				"x": 0.0444199892,
				"y": 5.0959783796,
				"z": 1.3905003471,
				"element": "O" 
			},
			{
				"x": 0.94450839,
				"y": 4.3686904885,
				"z": -0.5706765574,
				"element": "N" 
			},
			{
				"x": 0.973600329,
				"y": 3.3828397266,
				"z": -1.5934137568,
				"element": "N" 
			},
			{
				"x": 0.8196309917,
				"y": 2.0128210902,
				"z": -1.3540522681,
				"element": "C" 
			},
			{
				"x": 1.1896257194,
				"y": 1.2222449732,
				"z": -2.2176228376,
				"element": "O" 
			},
			{
				"x": -2.4430345524,
				"y": -4.8014818265,
				"z": -0.0149544517,
				"element": "H" 
			},
			{
				"x": -3.153319679,
				"y": -3.5367927737,
				"z": 0.8188155771,
				"element": "H" 
			},
			{
				"x": -2.2616832611,
				"y": -1.2875041072,
				"z": 0.7709595322,
				"element": "H" 
			},
			{
				"x": 1.6341205279,
				"y": -0.772970658,
				"z": -0.987494491,
				"element": "H" 
			},
			{
				"x": 1.5698357841,
				"y": -3.1290985743,
				"z": -1.7570585137,
				"element": "H" 
			},
			{
				"x": -0.3851177405,
				"y": -4.5637794805,
				"z": -1.2709697221,
				"element": "H" 
			},
			{
				"x": -0.4227257207,
				"y": 3.2356213032,
				"z": 3.8891145208,
				"element": "H" 
			},
			{
				"x": -2.0721775524,
				"y": 2.9511621055,
				"z": 3.3471057649,
				"element": "H" 
			},
			{
				"x": -0.1059411715,
				"y": 0.9335260296,
				"z": 4.5351095203,
				"element": "H" 
			},
			{
				"x": -1.8491217877,
				"y": 1.0091092837,
				"z": 4.8179205597,
				"element": "H" 
			},
			{
				"x": -0.7357442622,
				"y": -0.8384710643,
				"z": 3.039478697,
				"element": "H" 
			},
			{
				"x": -2.3256806476,
				"y": -0.1183458907,
				"z": 2.7297196825,
				"element": "H" 
			},
			{
				"x": 0.8011090356,
				"y": 5.3025762419,
				"z": -0.9380158315,
				"element": "H" 
			},
			{
				"x": 1.7069160087,
				"y": 3.5607356044,
				"z": -2.2702668857,
				"element": "H" 
			}
		],
		 "valence_orbital": [ 
			{
				"type": "occ",
				"energy": -0.25137,
				"method": "rhf"
			},
			{
				"type": "occ",
				"energy": -0.24723,
				"method": "rhf"
			},
			{
				"type": "occ",
				"energy": -0.21872,
				"method": "rhf"
			},
			{
				"type": "occ",
				"energy": -0.21259,
				"method": "rhf"
			},
			{
				"type": "occ",
				"energy": -0.19759,
				"method": "rhf"
			},
			{
				"type": "unocc",
				"energy": -0.03363,
				"method": "rhf"
			},
			{
				"type": "unocc",
				"energy": -0.01203,
				"method": "rhf"
			},
			{
				"type": "unocc",
				"energy": 0.01075,
				"method": "rhf"
			},
			{
				"type": "unocc",
				"energy": 0.02349,
				"method": "rhf"
			},
			{
				"type": "unocc",
				"energy": 0.06742,
				"method": "rhf"
			}
		],
		"cosmo_sigma_profile": { 
			"-0.025": 0.0,
			"-0.024": 0.0,
			"-0.023": 0.0,
			"-0.022": 0.0,
			"-0.021": 0.0,
			"-0.02": 0.0,
			"-0.019": 0.0,
			"-0.018": 0.0,
			"-0.017": 0.0,
			"-0.016": 0.477054978397,
			"-0.015": 3.10036487425,
			"-0.014": 2.84149009864,
			"-0.013": 2.76498839643,
			"-0.012": 3.65342859038,
			"-0.011": 3.63263324579,
			"-0.01": 4.9043596218,
			"-0.009": 4.3305645328,
			"-0.008": 4.69569172151,
			"-0.007": 7.65752337604,
			"-0.006": 11.8836821985,
			"-0.005": 22.7207275055,
			"-0.004": 24.9382085862,
			"-0.003": 21.4561851245,
			"-0.002": 19.5342457016,
			"-0.001": 17.6124241438,
			"0.0": 12.6220586386,
			"0.001": 14.4578043611,
			"0.002": 17.0645397031,
			"0.003": 16.4578194958,
			"0.004": 12.1302705388,
			"0.005": 13.5358332611,
			"0.006": 13.5547619531,
			"0.007": 7.39332423014,
			"0.008": 3.95674512771,
			"0.009": 3.59599040864,
			"0.01": 4.20576601789,
			"0.011": 4.44512852109,
			"0.012": 5.2561190262,
			"0.013": 8.66606295373,
			"0.014": 7.64404940405,
			"0.015": 0.777056513895,
			"0.016": 0.0,
			"0.017": 0.0,
			"0.018": 0.0,
			"0.019": 0.0,
			"0.02": 0.0,
			"0.021": 0.0,
			"0.022": 0.0,
			"0.023": 0.0,
			"0.024": 0.0,
			"0.025": 0.0
		}
	}
}
