{
	 "smiles": "CCC(CC)NC(=O)C(=O)NN", 
	 "Tm": 451.15, 
	 "num_atms": 27, 
	 "gaussian": { 
		 "optdone": 1, 
		 "sigma_profile": "yes", 
		 "theory": "DFT", 
		 "functional": "B3LYP", 
		 "basiset": "6-31G**", 
		 "properties": { 
			 "R2extent": 2897.5087, 
			 "electric_dipole_moment_norm": 2.38561604203, 
			 "electric_quadrupole_moment_norm": 10.4643130496, 
			 "total_energy": -590.494827677, 
			 "HOMO_LUMO_gap": 0.20467, 
			 "cosmo_polarized_energy": -12.82, 
			 "cosmo_cavitation_energy": 29.52, 
			 "cosmo_dispersion_energy": -20.96, 
			 "cosmo_repulsion_energy": 1.71, 
			 "cosmo_total_nonelectrostatic_energy": 10.27, 
			 "SMD_solvation_energy": 6.48 
		},
		"coords": [
			{
				"x": -3.5083759782,
				"y": 0.9326190693,
				"z": -0.8613738841,
				"element": "C" 
			},
			{
				"x": -2.5684406885,
				"y": 0.2111884865,
				"z": 0.1141672641,
				"element": "C" 
			},
			{
				"x": -1.1332505446,
				"y": -0.0485971899,
				"z": -0.3894763835,
				"element": "C" 
			},
			{
				"x": -1.0423428245,
				"y": -0.88353007,
				"z": -1.6827032658,
				"element": "C" 
			},
			{
				"x": -1.660717066,
				"y": -2.2806133733,
				"z": -1.5651367956,
				"element": "C" 
			},
			{
				"x": -0.4463608223,
				"y": 1.2444110247,
				"z": -0.5625595326,
				"element": "N" 
			},
			{
				"x": 0.8369626495,
				"y": 1.616751664,
				"z": -0.349007228,
				"element": "C" 
			},
			{
				"x": 1.2361218391,
				"y": 2.7647141609,
				"z": -0.5589766391,
				"element": "O" 
			},
			{
				"x": 1.8380693019,
				"y": 0.570230081,
				"z": 0.1842738505,
				"element": "C" 
			},
			{
				"x": 1.650181702,
				"y": -0.6446245257,
				"z": 0.2378553033,
				"element": "O" 
			},
			{
				"x": 2.9904992545,
				"y": 1.1679061445,
				"z": 0.5638908363,
				"element": "N" 
			},
			{
				"x": 4.1299396649,
				"y": 0.4184566249,
				"z": 0.9105395084,
				"element": "N" 
			},
			{
				"x": -3.1433637841,
				"y": 1.9283488578,
				"z": -1.1406007644,
				"element": "H" 
			},
			{
				"x": -3.6556775174,
				"y": 0.3640833303,
				"z": -1.7847475596,
				"element": "H" 
			},
			{
				"x": -4.4915366535,
				"y": 1.0773562396,
				"z": -0.4032549108,
				"element": "H" 
			},
			{
				"x": -2.5000541399,
				"y": 0.7837119026,
				"z": 1.0469849808,
				"element": "H" 
			},
			{
				"x": -3.0074979679,
				"y": -0.7559750929,
				"z": 0.382246735,
				"element": "H" 
			},
			{
				"x": -0.5948496674,
				"y": -0.5894020331,
				"z": 0.3893653812,
				"element": "H" 
			},
			{
				"x": 0.0211988097,
				"y": -0.9801086085,
				"z": -1.9220214871,
				"element": "H" 
			},
			{
				"x": -1.5045333836,
				"y": -0.3336570498,
				"z": -2.5124877183,
				"element": "H" 
			},
			{
				"x": -1.224879921,
				"y": -2.8335041977,
				"z": -0.725491169,
				"element": "H" 
			},
			{
				"x": -2.7451086661,
				"y": -2.2448007597,
				"z": -1.4167337924,
				"element": "H" 
			},
			{
				"x": -1.4747370062,
				"y": -2.8613819504,
				"z": -2.4739613417,
				"element": "H" 
			},
			{
				"x": -0.9905833392,
				"y": 2.004015085,
				"z": -0.9551476579,
				"element": "H" 
			},
			{
				"x": 3.1216310907,
				"y": 2.1394303331,
				"z": 0.3098903894,
				"element": "H" 
			},
			{
				"x": 4.0624566434,
				"y": -0.4613580126,
				"z": 0.3969388248,
				"element": "H" 
			},
			{
				"x": 4.0470490145,
				"y": 0.1648298594,
				"z": 1.8954270563,
				"element": "H" 
			}
		],
		 "valence_orbital": [ 
			{
				"type": "occ",
				"energy": -0.3014,
				"method": "rhf"
			},
			{
				"type": "occ",
				"energy": -0.299,
				"method": "rhf"
			},
			{
				"type": "occ",
				"energy": -0.25634,
				"method": "rhf"
			},
			{
				"type": "occ",
				"energy": -0.25425,
				"method": "rhf"
			},
			{
				"type": "occ",
				"energy": -0.24012,
				"method": "rhf"
			},
			{
				"type": "unocc",
				"energy": -0.03545,
				"method": "rhf"
			},
			{
				"type": "unocc",
				"energy": 0.06719,
				"method": "rhf"
			},
			{
				"type": "unocc",
				"energy": 0.08558,
				"method": "rhf"
			},
			{
				"type": "unocc",
				"energy": 0.0904,
				"method": "rhf"
			},
			{
				"type": "unocc",
				"energy": 0.0924,
				"method": "rhf"
			}
		],
		"cosmo_sigma_profile": { 
			"-0.025": 0.0,
			"-0.024": 0.0,
			"-0.023": 0.0,
			"-0.022": 0.0,
			"-0.021": 0.0,
			"-0.02": 0.0,
			"-0.019": 0.0,
			"-0.018": 0.0,
			"-0.017": 0.0,
			"-0.016": 0.0,
			"-0.015": 0.0,
			"-0.014": 0.0,
			"-0.013": 0.110936366868,
			"-0.012": 2.6527486127,
			"-0.011": 3.48006207133,
			"-0.01": 5.37947902339,
			"-0.009": 3.68500479755,
			"-0.008": 2.75197628926,
			"-0.007": 4.49852257415,
			"-0.006": 4.19652995616,
			"-0.005": 4.03557314368,
			"-0.004": 6.03650121007,
			"-0.003": 25.0020891642,
			"-0.002": 32.5067930703,
			"-0.001": 29.1842281875,
			"0.0": 27.6450551929,
			"0.001": 24.073662399,
			"0.002": 8.60647059905,
			"0.003": 4.33709414381,
			"0.004": 3.21940862831,
			"0.005": 2.88551953513,
			"0.006": 2.65343567252,
			"0.007": 3.9806147632,
			"0.008": 3.44888472997,
			"0.009": 3.35830542252,
			"0.01": 3.59769667726,
			"0.011": 4.23960995857,
			"0.012": 5.11347122667,
			"0.013": 5.53653398226,
			"0.014": 2.35190145874,
			"0.015": 0.565538427644,
			"0.016": 0.454459567332,
			"0.017": 0.0563429209829,
			"0.018": 0.0,
			"0.019": 0.0,
			"0.02": 0.0,
			"0.021": 0.0,
			"0.022": 0.0,
			"0.023": 0.0,
			"0.024": 0.0,
			"0.025": 0.0
		}
	}
}
