{
	 "smiles": "COC(=O)C1=C(N)C(C#N)=C(SC)S1", 
	 "Tm": 480.15, 
	 "num_atms": 22, 
	 "gaussian": { 
		 "optdone": 1, 
		 "sigma_profile": "yes", 
		 "theory": "DFT", 
		 "functional": "B3LYP", 
		 "basiset": "6-31G**", 
		 "properties": { 
			 "R2extent": 5025.7979, 
			 "electric_dipole_moment_norm": 2.42369476213, 
			 "electric_quadrupole_moment_norm": 8.77113056054, 
			 "total_energy": -1365.98773775, 
			 "HOMO_LUMO_gap": 0.14808, 
			 "cosmo_polarized_energy": -11.66, 
			 "cosmo_cavitation_energy": 30.56, 
			 "cosmo_dispersion_energy": -22.66, 
			 "cosmo_repulsion_energy": 1.71, 
			 "cosmo_total_nonelectrostatic_energy": 9.62, 
			 "SMD_solvation_energy": 7.43 
		},
		"coords": [
			{
				"x": -4.7232765799,
				"y": -1.5922865148,
				"z": 0.1642550019,
				"element": "C" 
			},
			{
				"x": -3.4626463693,
				"y": -1.5817848948,
				"z": -0.5233069989,
				"element": "O" 
			},
			{
				"x": -2.4777067967,
				"y": -0.8718484478,
				"z": 0.0735586127,
				"element": "C" 
			},
			{
				"x": -2.6297649572,
				"y": -0.272899629,
				"z": 1.1350092948,
				"element": "O" 
			},
			{
				"x": -1.2384420757,
				"y": -0.8961131194,
				"z": -0.6721122266,
				"element": "C" 
			},
			{
				"x": -0.0789033652,
				"y": -0.2250497278,
				"z": -0.2832503556,
				"element": "C" 
			},
			{
				"x": 0.0625931367,
				"y": 0.4730434537,
				"z": 0.869047547,
				"element": "N" 
			},
			{
				"x": 0.9706719778,
				"y": -0.3725001197,
				"z": -1.2650580011,
				"element": "C" 
			},
			{
				"x": 2.2233769023,
				"y": 0.279871222,
				"z": -1.1188818756,
				"element": "C" 
			},
			{
				"x": 3.2346189545,
				"y": 0.8347375537,
				"z": -0.9517576409,
				"element": "N" 
			},
			{
				"x": 0.6018756153,
				"y": -1.1634358227,
				"z": -2.3471759762,
				"element": "C" 
			},
			{
				"x": 1.512525665,
				"y": -1.5618541799,
				"z": -3.8015176545,
				"element": "S" 
			},
			{
				"x": 3.0775396076,
				"y": -2.2370522892,
				"z": -3.1179463578,
				"element": "C" 
			},
			{
				"x": -1.020320319,
				"y": -1.7442314959,
				"z": -2.1901354794,
				"element": "S" 
			},
			{
				"x": -5.3847045543,
				"y": -2.2048331381,
				"z": -0.4479895578,
				"element": "H" 
			},
			{
				"x": -5.119047333,
				"y": -0.578044175,
				"z": 0.259234016,
				"element": "H" 
			},
			{
				"x": -4.6144577462,
				"y": -2.0243163076,
				"z": 1.1621301424,
				"element": "H" 
			},
			{
				"x": -0.7747497728,
				"y": 0.6041450484,
				"z": 1.4235499012,
				"element": "H" 
			},
			{
				"x": 0.853549931,
				"y": 1.085823016,
				"z": 0.9895522097,
				"element": "H" 
			},
			{
				"x": 3.6501650623,
				"y": -2.5629978314,
				"z": -3.9891559568,
				"element": "H" 
			},
			{
				"x": 3.6406459386,
				"y": -1.4745851306,
				"z": -2.5800449602,
				"element": "H" 
			},
			{
				"x": 2.8730570781,
				"y": -3.0953874703,
				"z": -2.4763036844,
				"element": "H" 
			}
		],
		 "valence_orbital": [ 
			{
				"type": "occ",
				"energy": -0.30748,
				"method": "rhf"
			},
			{
				"type": "occ",
				"energy": -0.28769,
				"method": "rhf"
			},
			{
				"type": "occ",
				"energy": -0.27516,
				"method": "rhf"
			},
			{
				"type": "occ",
				"energy": -0.24653,
				"method": "rhf"
			},
			{
				"type": "occ",
				"energy": -0.21956,
				"method": "rhf"
			},
			{
				"type": "unocc",
				"energy": -0.07148,
				"method": "rhf"
			},
			{
				"type": "unocc",
				"energy": -0.01838,
				"method": "rhf"
			},
			{
				"type": "unocc",
				"energy": -0.00621,
				"method": "rhf"
			},
			{
				"type": "unocc",
				"energy": 0.02811,
				"method": "rhf"
			},
			{
				"type": "unocc",
				"energy": 0.03817,
				"method": "rhf"
			}
		],
		"cosmo_sigma_profile": { 
			"-0.025": 0.0,
			"-0.024": 0.0,
			"-0.023": 0.0,
			"-0.022": 0.0,
			"-0.021": 0.0,
			"-0.02": 0.0,
			"-0.019": 0.0,
			"-0.018": 0.0,
			"-0.017": 0.0,
			"-0.016": 0.0,
			"-0.015": 0.0647317253618,
			"-0.014": 0.871273021418,
			"-0.013": 0.965103518159,
			"-0.012": 0.645743491963,
			"-0.011": 1.33151054362,
			"-0.01": 2.61181244343,
			"-0.009": 2.0669990535,
			"-0.008": 3.21068179954,
			"-0.007": 5.65851822544,
			"-0.006": 10.8061428033,
			"-0.005": 13.6567588881,
			"-0.004": 16.9412491007,
			"-0.003": 22.4213403495,
			"-0.002": 18.7992865695,
			"-0.001": 21.9843968468,
			"0.0": 22.6669096217,
			"0.001": 22.0925215546,
			"0.002": 17.7846352658,
			"0.003": 11.8363280808,
			"0.004": 8.62263927717,
			"0.005": 8.7263454856,
			"0.006": 7.88267750038,
			"0.007": 5.31344724756,
			"0.008": 4.31155778066,
			"0.009": 4.23613474554,
			"0.01": 4.21383354029,
			"0.011": 4.84528770461,
			"0.012": 4.01110851179,
			"0.013": 0.698280918145,
			"0.014": 0.0,
			"0.015": 0.0,
			"0.016": 0.0,
			"0.017": 0.0,
			"0.018": 0.0,
			"0.019": 0.0,
			"0.02": 0.0,
			"0.021": 0.0,
			"0.022": 0.0,
			"0.023": 0.0,
			"0.024": 0.0,
			"0.025": 0.0
		}
	}
}
