{
	 "smiles": "O=CC1=C(OCC(=O)NCC2CC2)C=CC=C1", 
	 "Tm": 367.15, 
	 "num_atms": 32, 
	 "gaussian": { 
		 "optdone": 1, 
		 "sigma_profile": "yes", 
		 "theory": "DFT", 
		 "functional": "B3LYP", 
		 "basiset": "6-31G**", 
		 "properties": { 
			 "R2extent": 5689.8439, 
			 "electric_dipole_moment_norm": 3.96080674989, 
			 "electric_quadrupole_moment_norm": 27.114845853, 
			 "total_energy": -784.804581254, 
			 "HOMO_LUMO_gap": 0.17767, 
			 "cosmo_polarized_energy": -17.13, 
			 "cosmo_cavitation_energy": 36.7, 
			 "cosmo_dispersion_energy": -24.84, 
			 "cosmo_repulsion_energy": 1.95, 
			 "cosmo_total_nonelectrostatic_energy": 13.81, 
			 "SMD_solvation_energy": 7.2 
		},
		"coords": [
			{
				"x": 1.4964118254,
				"y": -3.2439613639,
				"z": -1.109389536,
				"element": "O" 
			},
			{
				"x": 1.3598119068,
				"y": -2.0411772223,
				"z": -1.2578841983,
				"element": "C" 
			},
			{
				"x": 2.3866065522,
				"y": -1.0477119451,
				"z": -0.8686441509,
				"element": "C" 
			},
			{
				"x": 2.1757389089,
				"y": 0.3416973087,
				"z": -1.0261339346,
				"element": "C" 
			},
			{
				"x": 0.9641528686,
				"y": 0.7177539069,
				"z": -1.5330008276,
				"element": "O" 
			},
			{
				"x": 0.7135742634,
				"y": 2.1047994628,
				"z": -1.7610232084,
				"element": "C" 
			},
			{
				"x": -0.652566778,
				"y": 2.2791362923,
				"z": -2.4340869293,
				"element": "C" 
			},
			{
				"x": -0.7296641982,
				"y": 2.8953103063,
				"z": -3.4899534591,
				"element": "O" 
			},
			{
				"x": -1.7488490857,
				"y": 1.7594399678,
				"z": -1.8136857485,
				"element": "N" 
			},
			{
				"x": -1.8800853394,
				"y": 1.1309730437,
				"z": -0.5019860436,
				"element": "C" 
			},
			{
				"x": -2.6845660264,
				"y": -0.1493743403,
				"z": -0.5759975097,
				"element": "C" 
			},
			{
				"x": -3.4543716855,
				"y": -0.6194749572,
				"z": 0.6317068143,
				"element": "C" 
			},
			{
				"x": -4.1960167373,
				"y": -0.0921010949,
				"z": -0.5722383385,
				"element": "C" 
			},
			{
				"x": 3.1804230356,
				"y": 1.2457095659,
				"z": -0.6609649118,
				"element": "C" 
			},
			{
				"x": 4.3828828313,
				"y": 0.7662672246,
				"z": -0.1379389907,
				"element": "C" 
			},
			{
				"x": 4.6025438652,
				"y": -0.6033173285,
				"z": 0.0289936651,
				"element": "C" 
			},
			{
				"x": 3.603189294,
				"y": -1.4974509805,
				"z": -0.3379936589,
				"element": "C" 
			},
			{
				"x": 0.4379882827,
				"y": -1.6268108909,
				"z": -1.7071195576,
				"element": "H" 
			},
			{
				"x": 1.4482777878,
				"y": 2.5268835927,
				"z": -2.4516555812,
				"element": "H" 
			},
			{
				"x": 0.7500566746,
				"y": 2.6610174151,
				"z": -0.8127451175,
				"element": "H" 
			},
			{
				"x": -2.6053149113,
				"y": 1.9205442685,
				"z": -2.3301416358,
				"element": "H" 
			},
			{
				"x": -0.8816569759,
				"y": 0.9229460848,
				"z": -0.1156514853,
				"element": "H" 
			},
			{
				"x": -2.3678010563,
				"y": 1.8255490606,
				"z": 0.1986800731,
				"element": "H" 
			},
			{
				"x": -2.2325333763,
				"y": -0.9193791597,
				"z": -1.1972054048,
				"element": "H" 
			},
			{
				"x": -3.4855241039,
				"y": -1.6851166464,
				"z": 0.8344983718,
				"element": "H" 
			},
			{
				"x": -3.4317396564,
				"y": 0.0003545786,
				"z": 1.5240762011,
				"element": "H" 
			},
			{
				"x": -4.7395270637,
				"y": -0.7953441118,
				"z": -1.1952660523,
				"element": "H" 
			},
			{
				"x": -4.671510719,
				"y": 0.881797492,
				"z": -0.4834997003,
				"element": "H" 
			},
			{
				"x": 3.0384009486,
				"y": 2.3128208747,
				"z": -0.7796020316,
				"element": "H" 
			},
			{
				"x": 5.1546258177,
				"y": 1.478259471,
				"z": 0.140777971,
				"element": "H" 
			},
			{
				"x": 5.5417428551,
				"y": -0.9626914914,
				"z": 0.4368601303,
				"element": "H" 
			},
			{
				"x": 3.7302999954,
				"y": -2.5701483843,
				"z": -0.2302852145,
				"element": "H" 
			}
		],
		 "valence_orbital": [ 
			{
				"type": "occ",
				"energy": -0.26614,
				"method": "rhf"
			},
			{
				"type": "occ",
				"energy": -0.25918,
				"method": "rhf"
			},
			{
				"type": "occ",
				"energy": -0.25287,
				"method": "rhf"
			},
			{
				"type": "occ",
				"energy": -0.24938,
				"method": "rhf"
			},
			{
				"type": "occ",
				"energy": -0.24043,
				"method": "rhf"
			},
			{
				"type": "unocc",
				"energy": -0.06276,
				"method": "rhf"
			},
			{
				"type": "unocc",
				"energy": -0.00588,
				"method": "rhf"
			},
			{
				"type": "unocc",
				"energy": 0.00686,
				"method": "rhf"
			},
			{
				"type": "unocc",
				"energy": 0.0372,
				"method": "rhf"
			},
			{
				"type": "unocc",
				"energy": 0.07558,
				"method": "rhf"
			}
		],
		"cosmo_sigma_profile": { 
			"-0.025": 0.0,
			"-0.024": 0.0,
			"-0.023": 0.0,
			"-0.022": 0.0,
			"-0.021": 0.0,
			"-0.02": 0.0,
			"-0.019": 0.0,
			"-0.018": 0.0,
			"-0.017": 0.0,
			"-0.016": 0.0,
			"-0.015": 0.0,
			"-0.014": 0.0,
			"-0.013": 0.0982053188429,
			"-0.012": 0.807088748517,
			"-0.011": 1.06183990672,
			"-0.01": 0.758170097635,
			"-0.009": 0.429318762902,
			"-0.008": 4.94979647596,
			"-0.007": 12.2580129131,
			"-0.006": 13.0891138257,
			"-0.005": 23.3564442699,
			"-0.004": 26.2099337764,
			"-0.003": 26.4553055297,
			"-0.002": 22.6899765836,
			"-0.001": 21.3559015181,
			"0.0": 20.6858311614,
			"0.001": 20.5342743227,
			"0.002": 20.1402611193,
			"0.003": 20.1031090997,
			"0.004": 13.2154387017,
			"0.005": 5.47668751289,
			"0.006": 3.08738340233,
			"0.007": 2.66117969016,
			"0.008": 2.46564274921,
			"0.009": 3.79033433035,
			"0.01": 3.03592298933,
			"0.011": 5.21455869724,
			"0.012": 6.25593012679,
			"0.013": 5.45967752524,
			"0.014": 4.93512686041,
			"0.015": 0.428845471224,
			"0.016": 0.0,
			"0.017": 0.0,
			"0.018": 0.0,
			"0.019": 0.0,
			"0.02": 0.0,
			"0.021": 0.0,
			"0.022": 0.0,
			"0.023": 0.0,
			"0.024": 0.0,
			"0.025": 0.0
		}
	}
}
