{
	 "smiles": "CNC1=C(C=C(F)C=C1)[N+]([O-])=O", 
	 "Tm": 345.15, 
	 "num_atms": 19, 
	 "gaussian": { 
		 "optdone": 1, 
		 "sigma_profile": "yes", 
		 "theory": "DFT", 
		 "functional": "B3LYP", 
		 "basiset": "6-31G**", 
		 "properties": { 
			 "R2extent": 2996.5163, 
			 "electric_dipole_moment_norm": 4.99501235334, 
			 "electric_quadrupole_moment_norm": 11.9173861534, 
			 "total_energy": -630.649587617, 
			 "HOMO_LUMO_gap": 0.12882, 
			 "cosmo_polarized_energy": -9.56, 
			 "cosmo_cavitation_energy": 23.78, 
			 "cosmo_dispersion_energy": -17.73, 
			 "cosmo_repulsion_energy": 1.38, 
			 "cosmo_total_nonelectrostatic_energy": 7.43, 
			 "SMD_solvation_energy": 6.14 
		},
		"coords": [
			{
				"x": -1.6877644982,
				"y": -0.0848570108,
				"z": -2.4273802526,
				"element": "C" 
			},
			{
				"x": -1.7493432664,
				"y": 0.7053077588,
				"z": -1.2176242263,
				"element": "N" 
			},
			{
				"x": -0.6635939378,
				"y": 1.1107222921,
				"z": -0.5100597408,
				"element": "C" 
			},
			{
				"x": -0.7519953382,
				"y": 1.8891084881,
				"z": 0.6860805474,
				"element": "C" 
			},
			{
				"x": 0.3946111471,
				"y": 2.2909006658,
				"z": 1.3915446207,
				"element": "C" 
			},
			{
				"x": 1.6363100358,
				"y": 1.9297615778,
				"z": 0.9253183426,
				"element": "C" 
			},
			{
				"x": 2.7441227464,
				"y": 2.3110480288,
				"z": 1.5959344069,
				"element": "F" 
			},
			{
				"x": 1.7745263631,
				"y": 1.1688841063,
				"z": -0.239743705,
				"element": "C" 
			},
			{
				"x": 0.6496004479,
				"y": 0.7709552465,
				"z": -0.9376301295,
				"element": "C" 
			},
			{
				"x": -2.0211508094,
				"y": 2.3088457519,
				"z": 1.2413602032,
				"element": "N" 
			},
			{
				"x": -3.0740997465,
				"y": 1.981695136,
				"z": 0.6558138973,
				"element": "O" 
			},
			{
				"x": -2.0212407892,
				"y": 2.9769776799,
				"z": 2.2759275361,
				"element": "O" 
			},
			{
				"x": -1.1430807396,
				"y": 0.4296078682,
				"z": -3.2302042506,
				"element": "H" 
			},
			{
				"x": -1.211378182,
				"y": -1.0601114717,
				"z": -2.2605923865,
				"element": "H" 
			},
			{
				"x": -2.7076941893,
				"y": -0.2623247019,
				"z": -2.772063881,
				"element": "H" 
			},
			{
				"x": -2.6403972705,
				"y": 0.9949141171,
				"z": -0.8350152504,
				"element": "H" 
			},
			{
				"x": 0.2800219136,
				"y": 2.8789879752,
				"z": 2.2919449629,
				"element": "H" 
			},
			{
				"x": 2.7671365154,
				"y": 0.8983218724,
				"z": -0.5843552021,
				"element": "H" 
			},
			{
				"x": 0.7704095977,
				"y": 0.1822546198,
				"z": -1.8383554924,
				"element": "H" 
			}
		],
		 "valence_orbital": [ 
			{
				"type": "occ",
				"energy": -0.3061,
				"method": "rhf"
			},
			{
				"type": "occ",
				"energy": -0.30263,
				"method": "rhf"
			},
			{
				"type": "occ",
				"energy": -0.28691,
				"method": "rhf"
			},
			{
				"type": "occ",
				"energy": -0.28298,
				"method": "rhf"
			},
			{
				"type": "occ",
				"energy": -0.21617,
				"method": "rhf"
			},
			{
				"type": "unocc",
				"energy": -0.08735,
				"method": "rhf"
			},
			{
				"type": "unocc",
				"energy": -0.00808,
				"method": "rhf"
			},
			{
				"type": "unocc",
				"energy": 0.00943,
				"method": "rhf"
			},
			{
				"type": "unocc",
				"energy": 0.07343,
				"method": "rhf"
			},
			{
				"type": "unocc",
				"energy": 0.09421,
				"method": "rhf"
			}
		],
		"cosmo_sigma_profile": { 
			"-0.025": 0.0,
			"-0.024": 0.0,
			"-0.023": 0.0,
			"-0.022": 0.0,
			"-0.021": 0.0,
			"-0.02": 0.0,
			"-0.019": 0.0,
			"-0.018": 0.0,
			"-0.017": 0.0,
			"-0.016": 0.0,
			"-0.015": 0.0,
			"-0.014": 0.0,
			"-0.013": 0.0,
			"-0.012": 0.0,
			"-0.011": 0.291186464779,
			"-0.01": 0.830069902515,
			"-0.009": 1.1199644428,
			"-0.008": 3.03999804964,
			"-0.007": 7.08941438116,
			"-0.006": 10.0585823749,
			"-0.005": 12.9601366622,
			"-0.004": 12.5681036457,
			"-0.003": 14.0392122672,
			"-0.002": 13.914930328,
			"-0.001": 13.5207714713,
			"0.0": 19.0615336815,
			"0.001": 21.0034963511,
			"0.002": 11.1679607534,
			"0.003": 7.69501160361,
			"0.004": 12.7336163146,
			"0.005": 4.5577497096,
			"0.006": 2.54976123928,
			"0.007": 3.96142912896,
			"0.008": 6.27050995865,
			"0.009": 4.7730169446,
			"0.01": 4.3348189175,
			"0.011": 2.75659695105,
			"0.012": 0.167222741971,
			"0.013": 0.0,
			"0.014": 0.0,
			"0.015": 0.0,
			"0.016": 0.0,
			"0.017": 0.0,
			"0.018": 0.0,
			"0.019": 0.0,
			"0.02": 0.0,
			"0.021": 0.0,
			"0.022": 0.0,
			"0.023": 0.0,
			"0.024": 0.0,
			"0.025": 0.0
		}
	}
}
