{
	 "smiles": "NC1=CC=C(N=NC2=CC=CC=C2)C(N)=N1", 
	 "Tm": 412.15, 
	 "num_atms": 27, 
	 "gaussian": { 
		 "optdone": 1, 
		 "sigma_profile": "yes", 
		 "theory": "DFT", 
		 "functional": "B3LYP", 
		 "basiset": "6-31G**", 
		 "properties": { 
			 "R2extent": 4477.894, 
			 "electric_dipole_moment_norm": 4.05053092322, 
			 "electric_quadrupole_moment_norm": 8.9337452734, 
			 "total_energy": -699.517798283, 
			 "HOMO_LUMO_gap": 0.12899, 
			 "cosmo_polarized_energy": -15.96, 
			 "cosmo_cavitation_energy": 31.49, 
			 "cosmo_dispersion_energy": -22.91, 
			 "cosmo_repulsion_energy": 1.82, 
			 "cosmo_total_nonelectrostatic_energy": 10.4, 
			 "SMD_solvation_energy": 2.26 
		},
		"coords": [
			{
				"x": 1.7486271186,
				"y": -0.836571479,
				"z": -4.108519963,
				"element": "N" 
			},
			{
				"x": 1.6422533416,
				"y": -0.212651053,
				"z": -2.8924640598,
				"element": "C" 
			},
			{
				"x": 0.6292831459,
				"y": -0.5838608723,
				"z": -1.9736731322,
				"element": "C" 
			},
			{
				"x": 0.5502318105,
				"y": 0.103271491,
				"z": -0.779545624,
				"element": "C" 
			},
			{
				"x": 1.4539827467,
				"y": 1.1472850162,
				"z": -0.4952929429,
				"element": "C" 
			},
			{
				"x": 1.4446740187,
				"y": 2.0654497222,
				"z": 0.5666324606,
				"element": "N" 
			},
			{
				"x": 0.9017331882,
				"y": 1.9228131054,
				"z": 1.6944742919,
				"element": "N" 
			},
			{
				"x": 0.3663176342,
				"y": 0.6862425138,
				"z": 2.170108296,
				"element": "C" 
			},
			{
				"x": -0.9549042547,
				"y": 0.6669953873,
				"z": 2.6385022727,
				"element": "C" 
			},
			{
				"x": -1.4668654551,
				"y": -0.4841885184,
				"z": 3.2368267539,
				"element": "C" 
			},
			{
				"x": -0.6568083426,
				"y": -1.6086033609,
				"z": 3.4125773493,
				"element": "C" 
			},
			{
				"x": 0.6729331583,
				"y": -1.5743473652,
				"z": 2.9823159571,
				"element": "C" 
			},
			{
				"x": 1.186220176,
				"y": -0.4384742963,
				"z": 2.359921307,
				"element": "C" 
			},
			{
				"x": 2.4180198599,
				"y": 1.453407891,
				"z": -1.5105457261,
				"element": "C" 
			},
			{
				"x": 3.3273563448,
				"y": 2.4441218693,
				"z": -1.2993852229,
				"element": "N" 
			},
			{
				"x": 2.5113211928,
				"y": 0.7791532441,
				"z": -2.665349874,
				"element": "N" 
			},
			{
				"x": 2.5945095458,
				"y": -0.6508594511,
				"z": -4.6261809077,
				"element": "H" 
			},
			{
				"x": 1.3299274868,
				"y": -1.744660357,
				"z": -4.2296797184,
				"element": "H" 
			},
			{
				"x": -0.0783415432,
				"y": -1.368913509,
				"z": -2.2192325803,
				"element": "H" 
			},
			{
				"x": -0.2319940234,
				"y": -0.1428963389,
				"z": -0.0735230131,
				"element": "H" 
			},
			{
				"x": -1.5659432823,
				"y": 1.5569938464,
				"z": 2.5226886655,
				"element": "H" 
			},
			{
				"x": -2.4976323171,
				"y": -0.4968335742,
				"z": 3.5801102889,
				"element": "H" 
			},
			{
				"x": -1.0527422524,
				"y": -2.498203417,
				"z": 3.8932033352,
				"element": "H" 
			},
			{
				"x": 1.3148947724,
				"y": -2.4381632957,
				"z": 3.1321460853,
				"element": "H" 
			},
			{
				"x": 2.2184546004,
				"y": -0.409397315,
				"z": 2.0253345541,
				"element": "H" 
			},
			{
				"x": 3.1191207826,
				"y": 3.0769537016,
				"z": -0.5385704724,
				"element": "H" 
			},
			{
				"x": 3.8124705464,
				"y": 2.7896364146,
				"z": -2.1128783807,
				"element": "H" 
			}
		],
		 "valence_orbital": [ 
			{
				"type": "occ",
				"energy": -0.25081,
				"method": "rhf"
			},
			{
				"type": "occ",
				"energy": -0.24725,
				"method": "rhf"
			},
			{
				"type": "occ",
				"energy": -0.24579,
				"method": "rhf"
			},
			{
				"type": "occ",
				"energy": -0.2133,
				"method": "rhf"
			},
			{
				"type": "occ",
				"energy": -0.18919,
				"method": "rhf"
			},
			{
				"type": "unocc",
				"energy": -0.0602,
				"method": "rhf"
			},
			{
				"type": "unocc",
				"energy": -0.00575,
				"method": "rhf"
			},
			{
				"type": "unocc",
				"energy": 0.00498,
				"method": "rhf"
			},
			{
				"type": "unocc",
				"energy": 0.01429,
				"method": "rhf"
			},
			{
				"type": "unocc",
				"energy": 0.04154,
				"method": "rhf"
			}
		],
		"cosmo_sigma_profile": { 
			"-0.025": 0.0,
			"-0.024": 0.0,
			"-0.023": 0.0,
			"-0.022": 0.0,
			"-0.021": 0.0,
			"-0.02": 0.0,
			"-0.019": 0.0,
			"-0.018": 0.0,
			"-0.017": 0.0,
			"-0.016": 0.0,
			"-0.015": 0.0251133380899,
			"-0.014": 1.15758346216,
			"-0.013": 3.53973689024,
			"-0.012": 3.02170450233,
			"-0.011": 4.3345070564,
			"-0.01": 4.70533563827,
			"-0.009": 3.99558289768,
			"-0.008": 3.56932870221,
			"-0.007": 4.7329373547,
			"-0.006": 10.0268761926,
			"-0.005": 15.6369240173,
			"-0.004": 17.2131490987,
			"-0.003": 15.1892207057,
			"-0.002": 13.3480544881,
			"-0.001": 14.2379747967,
			"0.0": 12.9868700772,
			"0.001": 16.4621499665,
			"0.002": 21.407195792,
			"0.003": 19.070194606,
			"0.004": 18.1382066175,
			"0.005": 13.5723578474,
			"0.006": 6.37821152914,
			"0.007": 5.49433034855,
			"0.008": 4.59792066182,
			"0.009": 4.30807435376,
			"0.01": 4.02548218667,
			"0.011": 2.53796914044,
			"0.012": 2.60190121485,
			"0.013": 2.84480049496,
			"0.014": 1.06980113366,
			"0.015": 1.02436696768,
			"0.016": 0.313979155745,
			"0.017": 0.0,
			"0.018": 0.0,
			"0.019": 0.0,
			"0.02": 0.0,
			"0.021": 0.0,
			"0.022": 0.0,
			"0.023": 0.0,
			"0.024": 0.0,
			"0.025": 0.0
		}
	}
}
