{
	 "smiles": "CC1=C(C2=C(C=C1)N=C(C=C2Cl)C(F)(F)F)[N+]([O-])=O", 
	 "Tm": 393.15, 
	 "num_atms": 25, 
	 "gaussian": { 
		 "optdone": 1, 
		 "sigma_profile": "yes", 
		 "theory": "DFT", 
		 "functional": "B3LYP", 
		 "basiset": "6-31G**", 
		 "properties": { 
			 "R2extent": 6222.4636, 
			 "electric_dipole_moment_norm": 2.90724395089, 
			 "electric_quadrupole_moment_norm": 20.5113859071, 
			 "total_energy": -1442.34624445, 
			 "HOMO_LUMO_gap": 0.16323, 
			 "cosmo_polarized_energy": -9.68, 
			 "cosmo_cavitation_energy": 33.53, 
			 "cosmo_dispersion_energy": -23.52, 
			 "cosmo_repulsion_energy": 1.71, 
			 "cosmo_total_nonelectrostatic_energy": 11.71, 
			 "SMD_solvation_energy": 7.61 
		},
		"coords": [
			{
				"x": -2.7448909513,
				"y": 0.4043929723,
				"z": -3.7657259143,
				"element": "C" 
			},
			{
				"x": -1.8745943146,
				"y": 0.0821414388,
				"z": -2.5751959714,
				"element": "C" 
			},
			{
				"x": -0.6952977291,
				"y": 0.7648443999,
				"z": -2.3327681104,
				"element": "C" 
			},
			{
				"x": 0.1584960896,
				"y": 0.4984128416,
				"z": -1.2254657903,
				"element": "C" 
			},
			{
				"x": -0.2631994905,
				"y": -0.5514070185,
				"z": -0.3287186426,
				"element": "C" 
			},
			{
				"x": -1.4722778977,
				"y": -1.2491138066,
				"z": -0.5807995217,
				"element": "C" 
			},
			{
				"x": -2.2492842826,
				"y": -0.9406618295,
				"z": -1.6669089974,
				"element": "C" 
			},
			{
				"x": 0.438887198,
				"y": -0.9268246496,
				"z": 0.770953231,
				"element": "N" 
			},
			{
				"x": 1.5621251038,
				"y": -0.299194496,
				"z": 1.0309836962,
				"element": "C" 
			},
			{
				"x": 2.0862682737,
				"y": 0.7425907764,
				"z": 0.2405668966,
				"element": "C" 
			},
			{
				"x": 1.3885752566,
				"y": 1.1385255982,
				"z": -0.8793571341,
				"element": "C" 
			},
			{
				"x": 2.080214189,
				"y": 2.4340720261,
				"z": -1.8200740758,
				"element": "Cl" 
			},
			{
				"x": 2.2986510374,
				"y": -0.7670302238,
				"z": 2.2758652431,
				"element": "C" 
			},
			{
				"x": 3.4424971579,
				"y": -0.0692813679,
				"z": 2.4572674961,
				"element": "F" 
			},
			{
				"x": 2.6228316261,
				"y": -2.0685279316,
				"z": 2.1869194807,
				"element": "F" 
			},
			{
				"x": 1.5423664225,
				"y": -0.6060044205,
				"z": 3.3755974805,
				"element": "F" 
			},
			{
				"x": -0.3709640233,
				"y": 1.8154547725,
				"z": -3.3286760235,
				"element": "N" 
			},
			{
				"x": -0.8319703324,
				"y": 2.9334634179,
				"z": -3.126127785,
				"element": "O" 
			},
			{
				"x": 0.2771744827,
				"y": 1.4680406639,
				"z": -4.3098427973,
				"element": "O" 
			},
			{
				"x": -3.0813357462,
				"y": 1.4456806528,
				"z": -3.7355393507,
				"element": "H" 
			},
			{
				"x": -2.1953658874,
				"y": 0.2664251389,
				"z": -4.7025008875,
				"element": "H" 
			},
			{
				"x": -3.6249401972,
				"y": -0.2407926768,
				"z": -3.7856459754,
				"element": "H" 
			},
			{
				"x": -1.7466755348,
				"y": -2.0288335545,
				"z": 0.1207615403,
				"element": "H" 
			},
			{
				"x": -3.1726760462,
				"y": -1.4819111548,
				"z": -1.8489460112,
				"element": "H" 
			},
			{
				"x": 3.0177855962,
				"y": 1.2233384308,
				"z": 0.506977924,
				"element": "H" 
			}
		],
		 "valence_orbital": [ 
			{
				"type": "occ",
				"energy": -0.31936,
				"method": "rhf"
			},
			{
				"type": "occ",
				"energy": -0.30472,
				"method": "rhf"
			},
			{
				"type": "occ",
				"energy": -0.29336,
				"method": "rhf"
			},
			{
				"type": "occ",
				"energy": -0.28715,
				"method": "rhf"
			},
			{
				"type": "occ",
				"energy": -0.2579,
				"method": "rhf"
			},
			{
				"type": "unocc",
				"energy": -0.09467,
				"method": "rhf"
			},
			{
				"type": "unocc",
				"energy": -0.08487,
				"method": "rhf"
			},
			{
				"type": "unocc",
				"energy": -0.05708,
				"method": "rhf"
			},
			{
				"type": "unocc",
				"energy": -0.01721,
				"method": "rhf"
			},
			{
				"type": "unocc",
				"energy": 0.00724,
				"method": "rhf"
			}
		],
		"cosmo_sigma_profile": { 
			"-0.025": 0.0,
			"-0.024": 0.0,
			"-0.023": 0.0,
			"-0.022": 0.0,
			"-0.021": 0.0,
			"-0.02": 0.0,
			"-0.019": 0.0,
			"-0.018": 0.0,
			"-0.017": 0.0,
			"-0.016": 0.0,
			"-0.015": 0.0,
			"-0.014": 0.0,
			"-0.013": 0.0,
			"-0.012": 0.0,
			"-0.011": 0.0,
			"-0.01": 0.0175037541765,
			"-0.009": 0.713508281845,
			"-0.008": 5.43420353264,
			"-0.007": 6.42723054725,
			"-0.006": 9.39462989567,
			"-0.005": 13.1891027358,
			"-0.004": 17.5480231991,
			"-0.003": 24.4798483709,
			"-0.002": 30.6071221064,
			"-0.001": 22.0393999731,
			"0.0": 18.9935444094,
			"0.001": 20.5540050205,
			"0.002": 35.9517232247,
			"0.003": 22.412436836,
			"0.004": 7.80412253183,
			"0.005": 5.5251351758,
			"0.006": 9.49744101722,
			"0.007": 10.8618405987,
			"0.008": 6.27920031945,
			"0.009": 2.67081831798,
			"0.01": 1.1472214528,
			"0.011": 0.479539756548,
			"0.012": 0.0915444111996,
			"0.013": 0.0,
			"0.014": 0.0,
			"0.015": 0.0,
			"0.016": 0.0,
			"0.017": 0.0,
			"0.018": 0.0,
			"0.019": 0.0,
			"0.02": 0.0,
			"0.021": 0.0,
			"0.022": 0.0,
			"0.023": 0.0,
			"0.024": 0.0,
			"0.025": 0.0
		}
	}
}
