{
	 "smiles": "CC1=C(CO)SC(=N1)C1CCN(CC1)C(=O)OC(C)(C)C", 
	 "Tm": 425.15, 
	 "num_atms": 45, 
	 "gaussian": { 
		 "optdone": 1, 
		 "sigma_profile": "yes", 
		 "theory": "DFT", 
		 "functional": "B3LYP", 
		 "basiset": "6-31G**", 
		 "properties": { 
			 "R2extent": 11390.6155, 
			 "electric_dipole_moment_norm": 2.67771353584, 
			 "electric_quadrupole_moment_norm": 15.1900334575, 
			 "total_energy": -1319.45434071, 
			 "HOMO_LUMO_gap": 0.19938, 
			 "cosmo_polarized_energy": -14.71, 
			 "cosmo_cavitation_energy": 46.87, 
			 "cosmo_dispersion_energy": -32.75, 
			 "cosmo_repulsion_energy": 2.53, 
			 "cosmo_total_nonelectrostatic_energy": 16.66, 
			 "SMD_solvation_energy": 6.43 
		},
		"coords": [
			{
				"x": 2.1943251559,
				"y": -4.0233065613,
				"z": -2.4411168345,
				"element": "C" 
			},
			{
				"x": 2.4067295302,
				"y": -2.5951363752,
				"z": -2.8544819069,
				"element": "C" 
			},
			{
				"x": 2.9967330409,
				"y": -2.1744134274,
				"z": -4.0227616369,
				"element": "C" 
			},
			{
				"x": 3.5577015783,
				"y": -3.0005112752,
				"z": -5.1529443943,
				"element": "C" 
			},
			{
				"x": 2.6413503379,
				"y": -3.9658656699,
				"z": -5.6600940541,
				"element": "O" 
			},
			{
				"x": 3.0319739885,
				"y": -0.4267660222,
				"z": -4.0518342687,
				"element": "S" 
			},
			{
				"x": 2.2533557405,
				"y": -0.4016606433,
				"z": -2.4777972067,
				"element": "C" 
			},
			{
				"x": 1.9973358165,
				"y": -1.5873751736,
				"z": -2.0033640788,
				"element": "N" 
			},
			{
				"x": 1.8853514959,
				"y": 0.8913338231,
				"z": -1.7923315655,
				"element": "C" 
			},
			{
				"x": 2.3532895872,
				"y": 0.8835710889,
				"z": -0.3102775402,
				"element": "C" 
			},
			{
				"x": 1.466222269,
				"y": 1.7587847695,
				"z": 0.5759986877,
				"element": "C" 
			},
			{
				"x": 0.0890175256,
				"y": 1.2547341631,
				"z": 0.562051655,
				"element": "N" 
			},
			{
				"x": -0.4009264588,
				"y": 0.6044230277,
				"z": -0.6614159078,
				"element": "C" 
			},
			{
				"x": 0.3511492491,
				"y": 1.1604876876,
				"z": -1.8714271686,
				"element": "C" 
			},
			{
				"x": -0.6305860028,
				"y": 1.3079792181,
				"z": 1.7237396029,
				"element": "C" 
			},
			{
				"x": -0.2226108186,
				"y": 1.8272197145,
				"z": 2.7555898019,
				"element": "O" 
			},
			{
				"x": -1.8418298112,
				"y": 0.7124002435,
				"z": 1.5667567399,
				"element": "O" 
			},
			{
				"x": -2.8090092021,
				"y": 0.6727496891,
				"z": 2.6715821651,
				"element": "C" 
			},
			{
				"x": -2.2355849526,
				"y": -0.1305974853,
				"z": 3.8444061994,
				"element": "C" 
			},
			{
				"x": -3.2040267341,
				"y": 2.0959195135,
				"z": 3.0815550256,
				"element": "C" 
			},
			{
				"x": -3.9989883416,
				"y": -0.0600002448,
				"z": 2.0452063582,
				"element": "C" 
			},
			{
				"x": 2.8729719357,
				"y": -4.295116392,
				"z": -1.624019828,
				"element": "H" 
			},
			{
				"x": 1.174218044,
				"y": -4.1582152804,
				"z": -2.067938996,
				"element": "H" 
			},
			{
				"x": 2.3552473392,
				"y": -4.7016807681,
				"z": -3.2799043069,
				"element": "H" 
			},
			{
				"x": 3.9207613396,
				"y": -2.3371082101,
				"z": -5.9519741605,
				"element": "H" 
			},
			{
				"x": 4.4203750772,
				"y": -3.5809632684,
				"z": -4.8078577723,
				"element": "H" 
			},
			{
				"x": 1.8190057321,
				"y": -3.5026481653,
				"z": -5.8691115854,
				"element": "H" 
			},
			{
				"x": 2.3905599995,
				"y": 1.7064358856,
				"z": -2.3226938792,
				"element": "H" 
			},
			{
				"x": 2.3213380952,
				"y": -0.1439132098,
				"z": 0.0638702067,
				"element": "H" 
			},
			{
				"x": 3.3926329646,
				"y": 1.2214222643,
				"z": -0.2433492879,
				"element": "H" 
			},
			{
				"x": 1.4980925137,
				"y": 2.806631742,
				"z": 0.240664076,
				"element": "H" 
			},
			{
				"x": 1.8112604149,
				"y": 1.7474443161,
				"z": 1.6109032653,
				"element": "H" 
			},
			{
				"x": -0.2674267902,
				"y": -0.4844089829,
				"z": -0.6084623044,
				"element": "H" 
			},
			{
				"x": -1.4701322775,
				"y": 0.799859591,
				"z": -0.7582021371,
				"element": "H" 
			},
			{
				"x": -0.0643209529,
				"y": 0.7293104378,
				"z": -2.7873305592,
				"element": "H" 
			},
			{
				"x": 0.1827776839,
				"y": 2.2422375761,
				"z": -1.9248550302,
				"element": "H" 
			},
			{
				"x": -1.3733330168,
				"y": 0.3764676589,
				"z": 4.2773483555,
				"element": "H" 
			},
			{
				"x": -1.9301800563,
				"y": -1.1265178722,
				"z": 3.5077166235,
				"element": "H" 
			},
			{
				"x": -3.0021125256,
				"y": -0.2532881283,
				"z": 4.6167611275,
				"element": "H" 
			},
			{
				"x": -2.3539405212,
				"y": 2.6275863418,
				"z": 3.5091228134,
				"element": "H" 
			},
			{
				"x": -4.0083979693,
				"y": 2.055425674,
				"z": 3.8234624122,
				"element": "H" 
			},
			{
				"x": -3.571437517,
				"y": 2.6524872944,
				"z": 2.2132270227,
				"element": "H" 
			},
			{
				"x": -4.80465162,
				"y": -0.1650388947,
				"z": 2.7780030724,
				"element": "H" 
			},
			{
				"x": -4.3845620383,
				"y": 0.4939348269,
				"z": 1.1840520598,
				"element": "H" 
			},
			{
				"x": -3.7037188485,
				"y": -1.0582144973,
				"z": 1.7089291393,
				"element": "H" 
			}
		],
		 "valence_orbital": [ 
			{
				"type": "occ",
				"energy": -0.27873,
				"method": "rhf"
			},
			{
				"type": "occ",
				"energy": -0.26842,
				"method": "rhf"
			},
			{
				"type": "occ",
				"energy": -0.2518,
				"method": "rhf"
			},
			{
				"type": "occ",
				"energy": -0.23217,
				"method": "rhf"
			},
			{
				"type": "occ",
				"energy": -0.22674,
				"method": "rhf"
			},
			{
				"type": "unocc",
				"energy": -0.02736,
				"method": "rhf"
			},
			{
				"type": "unocc",
				"energy": 0.00605,
				"method": "rhf"
			},
			{
				"type": "unocc",
				"energy": 0.03545,
				"method": "rhf"
			},
			{
				"type": "unocc",
				"energy": 0.06251,
				"method": "rhf"
			},
			{
				"type": "unocc",
				"energy": 0.08007,
				"method": "rhf"
			}
		],
		"cosmo_sigma_profile": { 
			"-0.025": 0.0,
			"-0.024": 0.0,
			"-0.023": 0.0,
			"-0.022": 0.0,
			"-0.021": 0.0,
			"-0.02": 0.0,
			"-0.019": 0.0,
			"-0.018": 0.0,
			"-0.017": 0.0,
			"-0.016": 0.0700489830528,
			"-0.015": 1.22681947655,
			"-0.014": 0.523553933898,
			"-0.013": 0.784949047716,
			"-0.012": 0.77110349059,
			"-0.011": 1.29085085017,
			"-0.01": 0.793857653036,
			"-0.009": 0.717219992155,
			"-0.008": 0.866676379071,
			"-0.007": 0.940332064257,
			"-0.006": 5.04786396732,
			"-0.005": 12.8147704699,
			"-0.004": 36.6246737225,
			"-0.003": 43.5688887991,
			"-0.002": 41.5650797649,
			"-0.001": 39.4153908832,
			"0.0": 42.9865428887,
			"0.001": 39.0936601657,
			"0.002": 23.5956809489,
			"0.003": 16.1118897347,
			"0.004": 12.0882447356,
			"0.005": 8.83845176214,
			"0.006": 6.28152969371,
			"0.007": 5.35036536505,
			"0.008": 4.43481313881,
			"0.009": 3.89256167442,
			"0.01": 3.18961565177,
			"0.011": 3.19892317931,
			"0.012": 3.32434307938,
			"0.013": 4.33638662861,
			"0.014": 3.52648231919,
			"0.015": 0.0941410276267,
			"0.016": 0.0,
			"0.017": 0.0,
			"0.018": 0.0,
			"0.019": 0.0,
			"0.02": 0.0,
			"0.021": 0.0,
			"0.022": 0.0,
			"0.023": 0.0,
			"0.024": 0.0,
			"0.025": 0.0
		}
	}
}
