{
	 "smiles": "CN(C(Cl)=S)C1=CC=CC=C1", 
	 "Tm": 305.65, 
	 "num_atms": 19, 
	 "gaussian": { 
		 "optdone": 1, 
		 "sigma_profile": "yes", 
		 "theory": "DFT", 
		 "functional": "B3LYP", 
		 "basiset": "6-31G**", 
		 "properties": { 
			 "R2extent": 3030.6281, 
			 "electric_dipole_moment_norm": 5.0814109389, 
			 "electric_quadrupole_moment_norm": 9.55172476205, 
			 "total_energy": -1222.7924346, 
			 "HOMO_LUMO_gap": 0.17677, 
			 "cosmo_polarized_energy": -10.94, 
			 "cosmo_cavitation_energy": 26.5, 
			 "cosmo_dispersion_energy": -19.1, 
			 "cosmo_repulsion_energy": 1.51, 
			 "cosmo_total_nonelectrostatic_energy": 8.92, 
			 "SMD_solvation_energy": 3.94 
		},
		"coords": [
			{
				"x": -3.476988081,
				"y": 0.4756660431,
				"z": -0.5783926487,
				"element": "C" 
			},
			{
				"x": -2.0312093295,
				"y": 0.2070090279,
				"z": -0.6806536248,
				"element": "N" 
			},
			{
				"x": -1.4255641773,
				"y": -0.3271085775,
				"z": -1.7651226057,
				"element": "C" 
			},
			{
				"x": -2.6021020307,
				"y": -0.6787015095,
				"z": -3.0850602495,
				"element": "Cl" 
			},
			{
				"x": 0.1685963323,
				"y": -0.6588471776,
				"z": -1.9702214728,
				"element": "S" 
			},
			{
				"x": -1.2296479116,
				"y": 0.5499688182,
				"z": 0.4749494144,
				"element": "C" 
			},
			{
				"x": -1.0495750833,
				"y": -0.3892709872,
				"z": 1.4916720292,
				"element": "C" 
			},
			{
				"x": -0.3336823614,
				"y": -0.0336345999,
				"z": 2.6349590362,
				"element": "C" 
			},
			{
				"x": 0.1948768744,
				"y": 1.2528329147,
				"z": 2.7599417489,
				"element": "C" 
			},
			{
				"x": 0.008575313,
				"y": 2.1867205113,
				"z": 1.7386237691,
				"element": "C" 
			},
			{
				"x": -0.7060597975,
				"y": 1.8385360482,
				"z": 0.5922354126,
				"element": "C" 
			},
			{
				"x": -4.0569573661,
				"y": -0.4447599727,
				"z": -0.6839736553,
				"element": "H" 
			},
			{
				"x": -3.6601898302,
				"y": 0.9037502346,
				"z": 0.4061904215,
				"element": "H" 
			},
			{
				"x": -3.8009858499,
				"y": 1.1843542552,
				"z": -1.344872818,
				"element": "H" 
			},
			{
				"x": -1.4582964713,
				"y": -1.3882521398,
				"z": 1.3778505086,
				"element": "H" 
			},
			{
				"x": -0.1879417124,
				"y": -0.7627890628,
				"z": 3.4262231778,
				"element": "H" 
			},
			{
				"x": 0.752383055,
				"y": 1.5264885411,
				"z": 3.6507023888,
				"element": "H" 
			},
			{
				"x": 0.4208577159,
				"y": 3.1868975685,
				"z": 1.8317814891,
				"element": "H" 
			},
			{
				"x": -0.8505892885,
				"y": 2.5518400642,
				"z": -0.2129323214,
				"element": "H" 
			}
		],
		 "valence_orbital": [ 
			{
				"type": "occ",
				"energy": -0.30902,
				"method": "rhf"
			},
			{
				"type": "occ",
				"energy": -0.26907,
				"method": "rhf"
			},
			{
				"type": "occ",
				"energy": -0.26704,
				"method": "rhf"
			},
			{
				"type": "occ",
				"energy": -0.23535,
				"method": "rhf"
			},
			{
				"type": "occ",
				"energy": -0.21678,
				"method": "rhf"
			},
			{
				"type": "unocc",
				"energy": -0.04001,
				"method": "rhf"
			},
			{
				"type": "unocc",
				"energy": -0.02496,
				"method": "rhf"
			},
			{
				"type": "unocc",
				"energy": -0.01704,
				"method": "rhf"
			},
			{
				"type": "unocc",
				"energy": 0.01245,
				"method": "rhf"
			},
			{
				"type": "unocc",
				"energy": 0.07576,
				"method": "rhf"
			}
		],
		"cosmo_sigma_profile": { 
			"-0.025": 0.0,
			"-0.024": 0.0,
			"-0.023": 0.0,
			"-0.022": 0.0,
			"-0.021": 0.0,
			"-0.02": 0.0,
			"-0.019": 0.0,
			"-0.018": 0.0,
			"-0.017": 0.0,
			"-0.016": 0.0,
			"-0.015": 0.0,
			"-0.014": 0.0,
			"-0.013": 0.0,
			"-0.012": 0.0,
			"-0.011": 0.0,
			"-0.01": 0.0,
			"-0.009": 0.0,
			"-0.008": 0.183475377909,
			"-0.007": 6.69526061322,
			"-0.006": 17.7469677912,
			"-0.005": 21.7514508143,
			"-0.004": 23.2013091517,
			"-0.003": 15.7090208152,
			"-0.002": 10.8744439286,
			"-0.001": 10.0732819082,
			"0.0": 11.3853127343,
			"0.001": 11.8070429441,
			"0.002": 14.7962624052,
			"0.003": 14.5384111026,
			"0.004": 16.4020925242,
			"0.005": 10.2706710253,
			"0.006": 7.90195234031,
			"0.007": 9.98399981805,
			"0.008": 6.28563921252,
			"0.009": 4.7277330024,
			"0.01": 2.34904978798,
			"0.011": 0.0756877546499,
			"0.012": 0.0,
			"0.013": 0.0,
			"0.014": 0.0,
			"0.015": 0.0,
			"0.016": 0.0,
			"0.017": 0.0,
			"0.018": 0.0,
			"0.019": 0.0,
			"0.02": 0.0,
			"0.021": 0.0,
			"0.022": 0.0,
			"0.023": 0.0,
			"0.024": 0.0,
			"0.025": 0.0
		}
	}
}
