{
	 "smiles": "CC1(C)CCC2=C(C1)C=C(S2)C(O)=O", 
	 "Tm": 412.15, 
	 "num_atms": 28, 
	 "gaussian": { 
		 "optdone": 1, 
		 "sigma_profile": "yes", 
		 "theory": "DFT", 
		 "functional": "B3LYP", 
		 "basiset": "6-31G**", 
		 "properties": { 
			 "R2extent": 4693.2998, 
			 "electric_dipole_moment_norm": 5.7364956585, 
			 "electric_quadrupole_moment_norm": 30.5796061969, 
			 "total_energy": -976.264081934, 
			 "HOMO_LUMO_gap": 0.18439, 
			 "cosmo_polarized_energy": -12.69, 
			 "cosmo_cavitation_energy": 30.99, 
			 "cosmo_dispersion_energy": -22.93, 
			 "cosmo_repulsion_energy": 1.74, 
			 "cosmo_total_nonelectrostatic_energy": 9.8, 
			 "SMD_solvation_energy": 5.59 
		},
		"coords": [
			{
				"x": 0.6053798806,
				"y": -3.3207435279,
				"z": 1.1123660178,
				"element": "C" 
			},
			{
				"x": 0.2528944693,
				"y": -1.8574047157,
				"z": 0.7956638605,
				"element": "C" 
			},
			{
				"x": 0.4957877291,
				"y": -0.9981692198,
				"z": 2.0529159368,
				"element": "C" 
			},
			{
				"x": 1.1312584155,
				"y": -1.3677605716,
				"z": -0.3824391523,
				"element": "C" 
			},
			{
				"x": 0.8612988088,
				"y": 0.0933410846,
				"z": -0.7917091026,
				"element": "C" 
			},
			{
				"x": -0.6178023317,
				"y": 0.3459343275,
				"z": -0.8544637311,
				"element": "C" 
			},
			{
				"x": -1.5841318157,
				"y": -0.4706671023,
				"z": -0.3127939375,
				"element": "C" 
			},
			{
				"x": -1.2362890175,
				"y": -1.7719501392,
				"z": 0.3714561208,
				"element": "C" 
			},
			{
				"x": -2.9002715206,
				"y": 0.0416259646,
				"z": -0.5014582831,
				"element": "C" 
			},
			{
				"x": -2.93988556,
				"y": 1.2353161142,
				"z": -1.1779462056,
				"element": "C" 
			},
			{
				"x": -1.3186658453,
				"y": 1.7556913438,
				"z": -1.599386459,
				"element": "S" 
			},
			{
				"x": -4.182856699,
				"y": 1.9696613505,
				"z": -1.4994393471,
				"element": "C" 
			},
			{
				"x": -4.0691416934,
				"y": 3.1443953701,
				"z": -2.1775401347,
				"element": "O" 
			},
			{
				"x": -5.277215367,
				"y": 1.5624459558,
				"z": -1.1821207551,
				"element": "O" 
			},
			{
				"x": 1.6420982186,
				"y": -3.4103019205,
				"z": 1.4555637006,
				"element": "H" 
			},
			{
				"x": 0.4878558284,
				"y": -3.9593667089,
				"z": 0.229545801,
				"element": "H" 
			},
			{
				"x": -0.0418194888,
				"y": -3.7188434016,
				"z": 1.9020560411,
				"element": "H" 
			},
			{
				"x": 0.173001029,
				"y": 0.0379436975,
				"z": 1.9140692796,
				"element": "H" 
			},
			{
				"x": 1.5582935423,
				"y": -0.989241418,
				"z": 2.3215772077,
				"element": "H" 
			},
			{
				"x": -0.0588977801,
				"y": -1.402069827,
				"z": 2.9069198344,
				"element": "H" 
			},
			{
				"x": 2.1911818122,
				"y": -1.4794755811,
				"z": -0.1245367635,
				"element": "H" 
			},
			{
				"x": 0.9474832804,
				"y": -2.0182215153,
				"z": -1.2472949238,
				"element": "H" 
			},
			{
				"x": 1.3239245659,
				"y": 0.7811758285,
				"z": -0.0707661357,
				"element": "H" 
			},
			{
				"x": 1.335681041,
				"y": 0.3037397649,
				"z": -1.7575606313,
				"element": "H" 
			},
			{
				"x": -1.4648639837,
				"y": -2.6039752588,
				"z": -0.3099697031,
				"element": "H" 
			},
			{
				"x": -1.8804025562,
				"y": -1.916545823,
				"z": 1.2481178043,
				"element": "H" 
			},
			{
				"x": -3.8078564029,
				"y": -0.440096264,
				"z": -0.1558386788,
				"element": "H" 
			},
			{
				"x": -3.1458385591,
				"y": 3.3596621928,
				"z": -2.3718876602,
				"element": "H" 
			}
		],
		 "valence_orbital": [ 
			{
				"type": "occ",
				"energy": -0.31958,
				"method": "rhf"
			},
			{
				"type": "occ",
				"energy": -0.31126,
				"method": "rhf"
			},
			{
				"type": "occ",
				"energy": -0.27064,
				"method": "rhf"
			},
			{
				"type": "occ",
				"energy": -0.25973,
				"method": "rhf"
			},
			{
				"type": "occ",
				"energy": -0.23844,
				"method": "rhf"
			},
			{
				"type": "unocc",
				"energy": -0.05405,
				"method": "rhf"
			},
			{
				"type": "unocc",
				"energy": -0.00382,
				"method": "rhf"
			},
			{
				"type": "unocc",
				"energy": 0.03112,
				"method": "rhf"
			},
			{
				"type": "unocc",
				"energy": 0.06359,
				"method": "rhf"
			},
			{
				"type": "unocc",
				"energy": 0.0699,
				"method": "rhf"
			}
		],
		"cosmo_sigma_profile": { 
			"-0.025": 0.0,
			"-0.024": 0.0,
			"-0.023": 0.0,
			"-0.022": 0.0,
			"-0.021": 0.0,
			"-0.02": 0.0,
			"-0.019": 0.0,
			"-0.018": 0.205030728676,
			"-0.017": 0.605740227353,
			"-0.016": 0.927506322733,
			"-0.015": 0.978674811635,
			"-0.014": 0.949829997837,
			"-0.013": 0.324373793079,
			"-0.012": 1.26146411214,
			"-0.011": 1.6025166144,
			"-0.01": 1.00367120078,
			"-0.009": 0.369780793447,
			"-0.008": 1.03374179979,
			"-0.007": 2.33257746749,
			"-0.006": 2.33627530557,
			"-0.005": 5.86165590475,
			"-0.004": 12.4241814893,
			"-0.003": 29.2800006446,
			"-0.002": 39.6774387673,
			"-0.001": 27.9972063946,
			"0.0": 22.5657719366,
			"0.001": 24.936275473,
			"0.002": 18.1210111703,
			"0.003": 14.2983700516,
			"0.004": 4.9888571882,
			"0.005": 2.50737609532,
			"0.006": 2.69721367953,
			"0.007": 2.1985359119,
			"0.008": 2.14330615514,
			"0.009": 3.34815802271,
			"0.01": 4.53280408317,
			"0.011": 4.50045592111,
			"0.012": 6.08698331185,
			"0.013": 2.3716768075,
			"0.014": 0.205590739629,
			"0.015": 0.0,
			"0.016": 0.0,
			"0.017": 0.0,
			"0.018": 0.0,
			"0.019": 0.0,
			"0.02": 0.0,
			"0.021": 0.0,
			"0.022": 0.0,
			"0.023": 0.0,
			"0.024": 0.0,
			"0.025": 0.0
		}
	}
}
