{
	 "smiles": "CC1=CC(=O)NC(=N1)C1=CC=NC=C1", 
	 "Tm": 515.15, 
	 "num_atms": 23, 
	 "gaussian": { 
		 "optdone": 1, 
		 "sigma_profile": "yes", 
		 "theory": "DFT", 
		 "functional": "B3LYP", 
		 "basiset": "6-31G**", 
		 "properties": { 
			 "R2extent": 3281.6237, 
			 "electric_dipole_moment_norm": 1.84142125001, 
			 "electric_quadrupole_moment_norm": 18.9531791776, 
			 "total_energy": -625.983191929, 
			 "HOMO_LUMO_gap": 0.16113, 
			 "cosmo_polarized_energy": -15.47, 
			 "cosmo_cavitation_energy": 27.74, 
			 "cosmo_dispersion_energy": -20.52, 
			 "cosmo_repulsion_energy": 1.6, 
			 "cosmo_total_nonelectrostatic_energy": 8.82, 
			 "SMD_solvation_energy": 3.11 
		},
		"coords": [
			{
				"x": 2.5633438494,
				"y": -0.0369840621,
				"z": -2.6773311889,
				"element": "C" 
			},
			{
				"x": 1.5233447232,
				"y": 0.3645967456,
				"z": -1.6691518812,
				"element": "C" 
			},
			{
				"x": 1.2341689046,
				"y": 1.6735459705,
				"z": -1.3941181061,
				"element": "C" 
			},
			{
				"x": 0.2381506705,
				"y": 2.0226809487,
				"z": -0.4050263787,
				"element": "C" 
			},
			{
				"x": -0.111244298,
				"y": 3.1362765698,
				"z": -0.0402485023,
				"element": "O" 
			},
			{
				"x": -0.3537331265,
				"y": 0.8707362075,
				"z": 0.1746652339,
				"element": "N" 
			},
			{
				"x": -0.0300974801,
				"y": -0.410812522,
				"z": -0.160133127,
				"element": "C" 
			},
			{
				"x": 0.8839168169,
				"y": -0.6906483876,
				"z": -1.0512099484,
				"element": "N" 
			},
			{
				"x": -0.7458559614,
				"y": -1.5221306335,
				"z": 0.5186335203,
				"element": "C" 
			},
			{
				"x": -1.960768942,
				"y": -1.3493306542,
				"z": 1.1942088068,
				"element": "C" 
			},
			{
				"x": -2.5557439613,
				"y": -2.4551169256,
				"z": 1.8029362811,
				"element": "C" 
			},
			{
				"x": -2.034600331,
				"y": -3.6864714429,
				"z": 1.7839702311,
				"element": "N" 
			},
			{
				"x": -0.8765037304,
				"y": -3.8448128404,
				"z": 1.1274948652,
				"element": "C" 
			},
			{
				"x": -0.2004666465,
				"y": -2.8118867764,
				"z": 0.4831713686,
				"element": "C" 
			},
			{
				"x": 3.3304236651,
				"y": -0.6546702203,
				"z": -2.1980851893,
				"element": "H" 
			},
			{
				"x": 2.1071076954,
				"y": -0.6500939703,
				"z": -3.4617942528,
				"element": "H" 
			},
			{
				"x": 3.0411773263,
				"y": 0.8309171277,
				"z": -3.1362969495,
				"element": "H" 
			},
			{
				"x": 1.7440390655,
				"y": 2.4895906172,
				"z": -1.8917320859,
				"element": "H" 
			},
			{
				"x": -1.0259615773,
				"y": 1.0673915976,
				"z": 0.9059861233,
				"element": "H" 
			},
			{
				"x": -2.4699104773,
				"y": -0.3909977172,
				"z": 1.2331521476,
				"element": "H" 
			},
			{
				"x": -3.5020525615,
				"y": -2.3406180134,
				"z": 2.328103684,
				"element": "H" 
			},
			{
				"x": -0.4663978651,
				"y": -4.8527268708,
				"z": 1.1176447207,
				"element": "H" 
			},
			{
				"x": 0.7318642414,
				"y": -2.984334748,
				"z": -0.0409393723,
				"element": "H" 
			}
		],
		 "valence_orbital": [ 
			{
				"type": "occ",
				"energy": -0.28885,
				"method": "rhf"
			},
			{
				"type": "occ",
				"energy": -0.27911,
				"method": "rhf"
			},
			{
				"type": "occ",
				"energy": -0.26992,
				"method": "rhf"
			},
			{
				"type": "occ",
				"energy": -0.26107,
				"method": "rhf"
			},
			{
				"type": "occ",
				"energy": -0.24083,
				"method": "rhf"
			},
			{
				"type": "unocc",
				"energy": -0.0797,
				"method": "rhf"
			},
			{
				"type": "unocc",
				"energy": -0.03023,
				"method": "rhf"
			},
			{
				"type": "unocc",
				"energy": -0.0215,
				"method": "rhf"
			},
			{
				"type": "unocc",
				"energy": 0.01621,
				"method": "rhf"
			},
			{
				"type": "unocc",
				"energy": 0.06328,
				"method": "rhf"
			}
		],
		"cosmo_sigma_profile": { 
			"-0.025": 0.0,
			"-0.024": 0.0,
			"-0.023": 0.0,
			"-0.022": 0.0,
			"-0.021": 0.0,
			"-0.02": 0.0,
			"-0.019": 0.0,
			"-0.018": 0.0,
			"-0.017": 0.140584570288,
			"-0.016": 0.913359651392,
			"-0.015": 1.22594154137,
			"-0.014": 1.4071259558,
			"-0.013": 1.14043370782,
			"-0.012": 1.38585721278,
			"-0.011": 0.941347164077,
			"-0.01": 0.99274931727,
			"-0.009": 2.11458166224,
			"-0.008": 1.91602589785,
			"-0.007": 7.77111312335,
			"-0.006": 12.6121610277,
			"-0.005": 12.7955687476,
			"-0.004": 15.5231504671,
			"-0.003": 16.1134041443,
			"-0.002": 17.1039217348,
			"-0.001": 21.2821955249,
			"0.0": 20.3660946323,
			"0.001": 22.3387874146,
			"0.002": 11.9590967921,
			"0.003": 7.04081650789,
			"0.004": 4.90191506331,
			"0.005": 3.74962371388,
			"0.006": 3.42727116093,
			"0.007": 3.86794090753,
			"0.008": 3.85479387802,
			"0.009": 3.90902758539,
			"0.01": 2.26688780725,
			"0.011": 3.58118087085,
			"0.012": 2.54190734144,
			"0.013": 6.23552187862,
			"0.014": 5.13092382109,
			"0.015": 1.52496747406,
			"0.016": 0.606217515441,
			"0.017": 0.0978700706104,
			"0.018": 0.0,
			"0.019": 0.0,
			"0.02": 0.0,
			"0.021": 0.0,
			"0.022": 0.0,
			"0.023": 0.0,
			"0.024": 0.0,
			"0.025": 0.0
		}
	}
}
