{
	 "smiles": "C[C@H](NC(C)=O)C(O)=O", 
	 "Tm": 410.15, 
	 "num_atms": 18, 
	 "gaussian": { 
		 "optdone": 1, 
		 "sigma_profile": "yes", 
		 "theory": "DFT", 
		 "functional": "B3LYP", 
		 "basiset": "6-31G**", 
		 "properties": { 
			 "R2extent": 2133.3598, 
			 "electric_dipole_moment_norm": 3.72861572705, 
			 "electric_quadrupole_moment_norm": 17.0416344131, 
			 "total_energy": -476.402654159, 
			 "HOMO_LUMO_gap": 0.25444, 
			 "cosmo_polarized_energy": -18.39, 
			 "cosmo_cavitation_energy": 21.96, 
			 "cosmo_dispersion_energy": -15.77, 
			 "cosmo_repulsion_energy": 1.32, 
			 "cosmo_total_nonelectrostatic_energy": 7.51, 
			 "SMD_solvation_energy": 5.82 
		},
		"coords": [
			{
				"x": 0.3031803061,
				"y": -0.0177053605,
				"z": -2.5420617296,
				"element": "C" 
			},
			{
				"x": 1.3855099522,
				"y": 0.6673320616,
				"z": -1.6872534322,
				"element": "C" 
			},
			{
				"x": 0.9239416275,
				"y": 0.9731959795,
				"z": -0.3210625805,
				"element": "N" 
			},
			{
				"x": 0.4945767307,
				"y": -0.0120206887,
				"z": 0.5597372826,
				"element": "C" 
			},
			{
				"x": 0.3744334842,
				"y": 0.4476104763,
				"z": 2.0053441405,
				"element": "C" 
			},
			{
				"x": 0.2332264521,
				"y": -1.1515850288,
				"z": 0.2135891315,
				"element": "O" 
			},
			{
				"x": 1.7860012364,
				"y": 1.9791248603,
				"z": -2.3726137846,
				"element": "C" 
			},
			{
				"x": 0.9806058561,
				"y": 3.038410207,
				"z": -2.0988808304,
				"element": "O" 
			},
			{
				"x": 2.7139900755,
				"y": 2.0780447665,
				"z": -3.1330864265,
				"element": "O" 
			},
			{
				"x": -0.600021551,
				"y": 0.5991833479,
				"z": -2.5915379091,
				"element": "H" 
			},
			{
				"x": 0.0450912057,
				"y": -0.9837322051,
				"z": -2.1122328184,
				"element": "H" 
			},
			{
				"x": 0.686088663,
				"y": -0.1556334037,
				"z": -3.5568311571,
				"element": "H" 
			},
			{
				"x": 2.2807761227,
				"y": 0.0362999345,
				"z": -1.6672106564,
				"element": "H" 
			},
			{
				"x": 1.4200698197,
				"y": 1.7334070761,
				"z": 0.1301039193,
				"element": "H" 
			},
			{
				"x": -0.4524265486,
				"y": -0.0888909189,
				"z": 2.4726997222,
				"element": "H" 
			},
			{
				"x": 0.2135217091,
				"y": 1.5250028367,
				"z": 2.1014628254,
				"element": "H" 
			},
			{
				"x": 1.2907230122,
				"y": 0.1833143268,
				"z": 2.5449491937,
				"element": "H" 
			},
			{
				"x": 0.2745118466,
				"y": 2.7480417326,
				"z": -1.4974148904,
				"element": "H" 
			}
		],
		 "valence_orbital": [ 
			{
				"type": "occ",
				"energy": -0.36493,
				"method": "rhf"
			},
			{
				"type": "occ",
				"energy": -0.32336,
				"method": "rhf"
			},
			{
				"type": "occ",
				"energy": -0.2878,
				"method": "rhf"
			},
			{
				"type": "occ",
				"energy": -0.2804,
				"method": "rhf"
			},
			{
				"type": "occ",
				"energy": -0.26308,
				"method": "rhf"
			},
			{
				"type": "unocc",
				"energy": -0.00864,
				"method": "rhf"
			},
			{
				"type": "unocc",
				"energy": 0.00576,
				"method": "rhf"
			},
			{
				"type": "unocc",
				"energy": 0.05083,
				"method": "rhf"
			},
			{
				"type": "unocc",
				"energy": 0.08512,
				"method": "rhf"
			},
			{
				"type": "unocc",
				"energy": 0.11585,
				"method": "rhf"
			}
		],
		"cosmo_sigma_profile": { 
			"-0.025": 0.0,
			"-0.024": 0.0,
			"-0.023": 0.0,
			"-0.022": 0.0,
			"-0.021": 0.0,
			"-0.02": 0.0,
			"-0.019": 0.0,
			"-0.018": 0.0,
			"-0.017": 0.0323289215727,
			"-0.016": 0.482229595001,
			"-0.015": 1.98401367418,
			"-0.014": 2.4981496337,
			"-0.013": 2.63814976468,
			"-0.012": 2.25446596326,
			"-0.011": 2.94994988596,
			"-0.01": 2.60861735386,
			"-0.009": 2.13855473498,
			"-0.008": 2.50711410973,
			"-0.007": 4.12811498016,
			"-0.006": 9.55756820461,
			"-0.005": 10.736833981,
			"-0.004": 11.7449702123,
			"-0.003": 12.9376545484,
			"-0.002": 15.6005010537,
			"-0.001": 14.6645992591,
			"0.0": 8.46221692625,
			"0.001": 4.50243080481,
			"0.002": 4.47583019514,
			"0.003": 3.46963371822,
			"0.004": 3.85477373934,
			"0.005": 4.07751838514,
			"0.006": 3.7155853826,
			"0.007": 3.26736773351,
			"0.008": 4.24402392666,
			"0.009": 5.68298004973,
			"0.01": 7.16888491578,
			"0.011": 7.11282852285,
			"0.012": 7.13279728639,
			"0.013": 3.90759050584,
			"0.014": 1.67514284045,
			"0.015": 0.0802147179755,
			"0.016": 0.0,
			"0.017": 0.0,
			"0.018": 0.0,
			"0.019": 0.0,
			"0.02": 0.0,
			"0.021": 0.0,
			"0.022": 0.0,
			"0.023": 0.0,
			"0.024": 0.0,
			"0.025": 0.0
		}
	}
}
