{
	 "smiles": "OCCC1=CNC2=CC=CC=C12", 
	 "Tm": 331.65, 
	 "num_atms": 23, 
	 "gaussian": { 
		 "optdone": 1, 
		 "sigma_profile": "yes", 
		 "theory": "DFT", 
		 "functional": "B3LYP", 
		 "basiset": "6-31G**", 
		 "properties": { 
			 "R2extent": 2983.8941, 
			 "electric_dipole_moment_norm": 2.23607134949, 
			 "electric_quadrupole_moment_norm": 16.9000683534, 
			 "total_energy": -517.665418357, 
			 "HOMO_LUMO_gap": 0.19095, 
			 "cosmo_polarized_energy": -12.74, 
			 "cosmo_cavitation_energy": 26.43, 
			 "cosmo_dispersion_energy": -19.3, 
			 "cosmo_repulsion_energy": 1.55, 
			 "cosmo_total_nonelectrostatic_energy": 8.68, 
			 "SMD_solvation_energy": 4.21 
		},
		"coords": [
			{
				"x": 0.1658685877,
				"y": -2.2794600005,
				"z": -4.7740751566,
				"element": "O" 
			},
			{
				"x": -0.2436512473,
				"y": -2.1822658885,
				"z": -3.4166774606,
				"element": "C" 
			},
			{
				"x": -0.0519779653,
				"y": -0.7680111262,
				"z": -2.8402620751,
				"element": "C" 
			},
			{
				"x": -0.5160524978,
				"y": -0.6384587876,
				"z": -1.4182700846,
				"element": "C" 
			},
			{
				"x": -1.6951819029,
				"y": -0.0819631641,
				"z": -0.9882182255,
				"element": "C" 
			},
			{
				"x": -1.7936503929,
				"y": -0.1766204514,
				"z": 0.3886011104,
				"element": "N" 
			},
			{
				"x": -0.6662986154,
				"y": -0.8004457888,
				"z": 0.8814727991,
				"element": "C" 
			},
			{
				"x": -0.3022342328,
				"y": -1.1141683958,
				"z": 2.1954655418,
				"element": "C" 
			},
			{
				"x": 0.9189293171,
				"y": -1.749654296,
				"z": 2.3892693998,
				"element": "C" 
			},
			{
				"x": 1.7594445971,
				"y": -2.0638209638,
				"z": 1.3012705046,
				"element": "C" 
			},
			{
				"x": 1.3927174858,
				"y": -1.7507282386,
				"z": -0.0016009405,
				"element": "C" 
			},
			{
				"x": 0.1625115028,
				"y": -1.1095333144,
				"z": -0.2330465326,
				"element": "C" 
			},
			{
				"x": 1.117068091,
				"y": -2.1143775291,
				"z": -4.8060389347,
				"element": "H" 
			},
			{
				"x": -1.307164942,
				"y": -2.4405163334,
				"z": -3.4037244264,
				"element": "H" 
			},
			{
				"x": 0.2743661653,
				"y": -2.919137193,
				"z": -2.7831817158,
				"element": "H" 
			},
			{
				"x": 1.013597686,
				"y": -0.5030053817,
				"z": -2.9104474089,
				"element": "H" 
			},
			{
				"x": -0.5893334,
				"y": -0.0627972699,
				"z": -3.4841318969,
				"element": "H" 
			},
			{
				"x": -2.4822864439,
				"y": 0.38606214,
				"z": -1.5633956141,
				"element": "H" 
			},
			{
				"x": -2.5577482406,
				"y": 0.1730238863,
				"z": 0.9426087191,
				"element": "H" 
			},
			{
				"x": -0.9484873905,
				"y": -0.8705632303,
				"z": 3.034342425,
				"element": "H" 
			},
			{
				"x": 1.2315278046,
				"y": -2.0076048415,
				"z": 3.3969164734,
				"element": "H" 
			},
			{
				"x": 2.7077223907,
				"y": -2.5589876404,
				"z": 1.489005172,
				"element": "H" 
			},
			{
				"x": 2.0505136432,
				"y": -1.9978661913,
				"z": -0.8306816731,
				"element": "H" 
			}
		],
		 "valence_orbital": [ 
			{
				"type": "occ",
				"energy": -0.31655,
				"method": "rhf"
			},
			{
				"type": "occ",
				"energy": -0.27271,
				"method": "rhf"
			},
			{
				"type": "occ",
				"energy": -0.25957,
				"method": "rhf"
			},
			{
				"type": "occ",
				"energy": -0.21824,
				"method": "rhf"
			},
			{
				"type": "occ",
				"energy": -0.19779,
				"method": "rhf"
			},
			{
				"type": "unocc",
				"energy": -0.00684,
				"method": "rhf"
			},
			{
				"type": "unocc",
				"energy": 0.02981,
				"method": "rhf"
			},
			{
				"type": "unocc",
				"energy": 0.06615,
				"method": "rhf"
			},
			{
				"type": "unocc",
				"energy": 0.07629,
				"method": "rhf"
			},
			{
				"type": "unocc",
				"energy": 0.08406,
				"method": "rhf"
			}
		],
		"cosmo_sigma_profile": { 
			"-0.025": 0.0,
			"-0.024": 0.0,
			"-0.023": 0.0,
			"-0.022": 0.0,
			"-0.021": 0.0,
			"-0.02": 0.0,
			"-0.019": 0.0,
			"-0.018": 0.0,
			"-0.017": 0.0,
			"-0.016": 0.185703302765,
			"-0.015": 2.25584159505,
			"-0.014": 2.68817744635,
			"-0.013": 1.41079302602,
			"-0.012": 2.24872304836,
			"-0.011": 1.82177199406,
			"-0.01": 2.83127629836,
			"-0.009": 2.65059413521,
			"-0.008": 2.80702766215,
			"-0.007": 4.24302907884,
			"-0.006": 5.70021364869,
			"-0.005": 8.86844057979,
			"-0.004": 14.9468753699,
			"-0.003": 18.0549246666,
			"-0.002": 17.4704708433,
			"-0.001": 14.1293648985,
			"0.0": 13.2454109111,
			"0.001": 10.4656801663,
			"0.002": 10.3270406842,
			"0.003": 9.57581514227,
			"0.004": 10.5818384521,
			"0.005": 14.2919303273,
			"0.006": 13.9437567728,
			"0.007": 10.1554204764,
			"0.008": 3.35303803236,
			"0.009": 1.09210260646,
			"0.01": 1.89167480759,
			"0.011": 0.983842231298,
			"0.012": 1.71222838712,
			"0.013": 1.27953186015,
			"0.014": 2.51644717558,
			"0.015": 1.15958789295,
			"0.016": 0.0,
			"0.017": 0.0,
			"0.018": 0.0,
			"0.019": 0.0,
			"0.02": 0.0,
			"0.021": 0.0,
			"0.022": 0.0,
			"0.023": 0.0,
			"0.024": 0.0,
			"0.025": 0.0
		}
	}
}
