{
	 "smiles": "OC1=CC=C2C=CC=CC2=C1N(=O)=O", 
	 "Tm": 377.15, 
	 "num_atms": 21, 
	 "gaussian": { 
		 "optdone": 1, 
		 "sigma_profile": "yes", 
		 "theory": "DFT", 
		 "functional": "B3LYP", 
		 "basiset": "6-31G**", 
		 "properties": { 
			 "R2extent": 3624.197, 
			 "electric_dipole_moment_norm": 4.29207553871, 
			 "electric_quadrupole_moment_norm": 11.4431391724, 
			 "total_energy": -665.617989881, 
			 "HOMO_LUMO_gap": 0.13709, 
			 "cosmo_polarized_energy": -8.5, 
			 "cosmo_cavitation_energy": 25.02, 
			 "cosmo_dispersion_energy": -19.31, 
			 "cosmo_repulsion_energy": 1.46, 
			 "cosmo_total_nonelectrostatic_energy": 7.17, 
			 "SMD_solvation_energy": 6.29 
		},
		"coords": [
			{
				"x": 3.2553005175,
				"y": -3.3828459017,
				"z": 1.1662796715,
				"element": "O" 
			},
			{
				"x": 2.1016422975,
				"y": -2.7371285568,
				"z": 1.0698671733,
				"element": "C" 
			},
			{
				"x": 0.9476565833,
				"y": -3.4792696237,
				"z": 1.4404766255,
				"element": "C" 
			},
			{
				"x": -0.288343021,
				"y": -2.9091207463,
				"z": 1.3778796067,
				"element": "C" 
			},
			{
				"x": -0.4743774627,
				"y": -1.5639438335,
				"z": 0.9447874248,
				"element": "C" 
			},
			{
				"x": -1.7813602154,
				"y": -1.0234549377,
				"z": 0.8999486691,
				"element": "C" 
			},
			{
				"x": -2.0024550035,
				"y": 0.2726514559,
				"z": 0.4875920026,
				"element": "C" 
			},
			{
				"x": -0.900879476,
				"y": 1.0591512896,
				"z": 0.1082233091,
				"element": "C" 
			},
			{
				"x": 0.3911556171,
				"y": 0.5625653368,
				"z": 0.1397094746,
				"element": "C" 
			},
			{
				"x": 0.6565186501,
				"y": -0.7680873288,
				"z": 0.5587945974,
				"element": "C" 
			},
			{
				"x": 1.9656360625,
				"y": -1.3954333159,
				"z": 0.6324642199,
				"element": "C" 
			},
			{
				"x": 3.1666339851,
				"y": -0.6940473984,
				"z": 0.2703065117,
				"element": "N" 
			},
			{
				"x": 4.2752237384,
				"y": -1.2990471654,
				"z": 0.3582907264,
				"element": "O" 
			},
			{
				"x": 3.1322512778,
				"y": 0.4700153145,
				"z": -0.1188818624,
				"element": "O" 
			},
			{
				"x": 3.9512294423,
				"y": -2.7245785757,
				"z": 0.8720640013,
				"element": "H" 
			},
			{
				"x": 1.1034842288,
				"y": -4.5007384856,
				"z": 1.7680804548,
				"element": "H" 
			},
			{
				"x": -1.165186453,
				"y": -3.4842370479,
				"z": 1.6632343121,
				"element": "H" 
			},
			{
				"x": -2.610721431,
				"y": -1.6583137768,
				"z": 1.2001738504,
				"element": "H" 
			},
			{
				"x": -3.0080158869,
				"y": 0.6802073834,
				"z": 0.455824635,
				"element": "H" 
			},
			{
				"x": -1.0580368854,
				"y": 2.0829121144,
				"z": -0.2190376173,
				"element": "H" 
			},
			{
				"x": 1.2064434344,
				"y": 1.1990437998,
				"z": -0.1592777863,
				"element": "H" 
			}
		],
		 "valence_orbital": [ 
			{
				"type": "occ",
				"energy": -0.31004,
				"method": "rhf"
			},
			{
				"type": "occ",
				"energy": -0.30308,
				"method": "rhf"
			},
			{
				"type": "occ",
				"energy": -0.29341,
				"method": "rhf"
			},
			{
				"type": "occ",
				"energy": -0.25137,
				"method": "rhf"
			},
			{
				"type": "occ",
				"energy": -0.23651,
				"method": "rhf"
			},
			{
				"type": "unocc",
				"energy": -0.09942,
				"method": "rhf"
			},
			{
				"type": "unocc",
				"energy": -0.03899,
				"method": "rhf"
			},
			{
				"type": "unocc",
				"energy": -0.02264,
				"method": "rhf"
			},
			{
				"type": "unocc",
				"energy": 0.02155,
				"method": "rhf"
			},
			{
				"type": "unocc",
				"energy": 0.0826,
				"method": "rhf"
			}
		],
		"cosmo_sigma_profile": { 
			"-0.025": 0.0,
			"-0.024": 0.0,
			"-0.023": 0.0,
			"-0.022": 0.0,
			"-0.021": 0.0,
			"-0.02": 0.0,
			"-0.019": 0.0,
			"-0.018": 0.0,
			"-0.017": 0.0,
			"-0.016": 0.0,
			"-0.015": 0.0,
			"-0.014": 0.0,
			"-0.013": 0.0,
			"-0.012": 0.0,
			"-0.011": 0.0,
			"-0.01": 0.0,
			"-0.009": 0.492491644709,
			"-0.008": 4.51971450373,
			"-0.007": 7.84143222155,
			"-0.006": 14.0189634041,
			"-0.005": 13.8305877066,
			"-0.004": 13.9960619303,
			"-0.003": 12.0553683121,
			"-0.002": 11.7070472401,
			"-0.001": 15.0020158394,
			"0.0": 15.5359241495,
			"0.001": 18.5563957643,
			"0.002": 17.8061090803,
			"0.003": 14.7280064204,
			"0.004": 12.0078659153,
			"0.005": 3.90733783767,
			"0.006": 4.6167508078,
			"0.007": 5.43241049464,
			"0.008": 5.27512621461,
			"0.009": 5.23904806214,
			"0.01": 4.40077302236,
			"0.011": 1.01469452927,
			"0.012": 0.0,
			"0.013": 0.0,
			"0.014": 0.0,
			"0.015": 0.0,
			"0.016": 0.0,
			"0.017": 0.0,
			"0.018": 0.0,
			"0.019": 0.0,
			"0.02": 0.0,
			"0.021": 0.0,
			"0.022": 0.0,
			"0.023": 0.0,
			"0.024": 0.0,
			"0.025": 0.0
		}
	}
}
