{
	 "smiles": "CCOC(=O)C1=C(C)NC(C)=C(C1C1=CC=C2OCOC2=C1)C(=O)OCC", 
	 "Tm": 408.15, 
	 "num_atms": 50, 
	 "gaussian": { 
		 "optdone": 1, 
		 "sigma_profile": "yes", 
		 "theory": "DFT", 
		 "functional": "B3LYP", 
		 "basiset": "6-31G**", 
		 "properties": { 
			 "R2extent": 10279.6308, 
			 "electric_dipole_moment_norm": 1.07233471454, 
			 "electric_quadrupole_moment_norm": 17.103382314, 
			 "total_energy": -1282.08970215, 
			 "HOMO_LUMO_gap": 0.15119, 
			 "cosmo_polarized_energy": -20.04, 
			 "cosmo_cavitation_energy": 52.36, 
			 "cosmo_dispersion_energy": -34.74, 
			 "cosmo_repulsion_energy": 2.71, 
			 "cosmo_total_nonelectrostatic_energy": 20.33, 
			 "SMD_solvation_energy": 11.38 
		},
		"coords": [
			{
				"x": -0.4123034585,
				"y": -4.9922544543,
				"z": 2.120977493,
				"element": "C" 
			},
			{
				"x": -1.3431054318,
				"y": -4.2043151776,
				"z": 1.2100384625,
				"element": "C" 
			},
			{
				"x": -0.8798057989,
				"y": -2.850637754,
				"z": 1.0243764519,
				"element": "O" 
			},
			{
				"x": -1.258450786,
				"y": -1.9450990231,
				"z": 1.9672592114,
				"element": "C" 
			},
			{
				"x": -1.9472320183,
				"y": -2.2565734021,
				"z": 2.929916897,
				"element": "O" 
			},
			{
				"x": -0.7290732336,
				"y": -0.6045468806,
				"z": 1.6734341882,
				"element": "C" 
			},
			{
				"x": -0.939462742,
				"y": 0.4099860026,
				"z": 2.5587806678,
				"element": "C" 
			},
			{
				"x": -1.7510035345,
				"y": 0.3470691764,
				"z": 3.8269655064,
				"element": "C" 
			},
			{
				"x": -0.3403267391,
				"y": 1.6380077512,
				"z": 2.3238526777,
				"element": "N" 
			},
			{
				"x": 0.6669796963,
				"y": 1.8407473161,
				"z": 1.3918153502,
				"element": "C" 
			},
			{
				"x": 1.3985388104,
				"y": 3.1494748776,
				"z": 1.5426012424,
				"element": "C" 
			},
			{
				"x": 0.9192880181,
				"y": 0.8661227148,
				"z": 0.4740704672,
				"element": "C" 
			},
			{
				"x": 0.0138835657,
				"y": -0.3594962541,
				"z": 0.3597222259,
				"element": "C" 
			},
			{
				"x": -0.9557141172,
				"y": -0.2431553831,
				"z": -0.8258245463,
				"element": "C" 
			},
			{
				"x": -0.9430533316,
				"y": -1.1996320566,
				"z": -1.8448644874,
				"element": "C" 
			},
			{
				"x": -1.8178623928,
				"y": -1.1363478393,
				"z": -2.9454969469,
				"element": "C" 
			},
			{
				"x": -2.7030718811,
				"y": -0.0780441405,
				"z": -2.9766198234,
				"element": "C" 
			},
			{
				"x": -3.6388549026,
				"y": 0.2356371759,
				"z": -3.9368191518,
				"element": "O" 
			},
			{
				"x": -4.3820361856,
				"y": 1.3353821384,
				"z": -3.400855619,
				"element": "C" 
			},
			{
				"x": -3.6789420143,
				"y": 1.8339055486,
				"z": -2.2587691715,
				"element": "O" 
			},
			{
				"x": -2.7259991816,
				"y": 0.8815481207,
				"z": -1.9675170643,
				"element": "C" 
			},
			{
				"x": -1.87158158,
				"y": 0.8314393114,
				"z": -0.8866311426,
				"element": "C" 
			},
			{
				"x": 2.0542223487,
				"y": 1.0152369072,
				"z": -0.4510875158,
				"element": "C" 
			},
			{
				"x": 2.8104020683,
				"y": 1.9742034759,
				"z": -0.5256561149,
				"element": "O" 
			},
			{
				"x": 2.1987383754,
				"y": -0.0751135488,
				"z": -1.249041414,
				"element": "O" 
			},
			{
				"x": 3.2808548788,
				"y": -0.0168364363,
				"z": -2.1987999903,
				"element": "C" 
			},
			{
				"x": 3.2361283476,
				"y": -1.2934182991,
				"z": -3.0181111617,
				"element": "C" 
			},
			{
				"x": 0.6125108209,
				"y": -4.9779517975,
				"z": 1.7377098776,
				"element": "H" 
			},
			{
				"x": -0.7424456912,
				"y": -6.0349765015,
				"z": 2.1807865153,
				"element": "H" 
			},
			{
				"x": -0.4193459553,
				"y": -4.5713033895,
				"z": 3.1291966449,
				"element": "H" 
			},
			{
				"x": -1.365149265,
				"y": -4.6254088265,
				"z": 0.2015314072,
				"element": "H" 
			},
			{
				"x": -2.3575118731,
				"y": -4.1796021363,
				"z": 1.6149983103,
				"element": "H" 
			},
			{
				"x": -2.7553540803,
				"y": -0.0307351947,
				"z": 3.6323855271,
				"element": "H" 
			},
			{
				"x": -1.821357878,
				"y": 1.3372493174,
				"z": 4.2902995339,
				"element": "H" 
			},
			{
				"x": -1.3024197959,
				"y": -0.3455453285,
				"z": 4.5437441017,
				"element": "H" 
			},
			{
				"x": -0.4802464866,
				"y": 2.3588069351,
				"z": 3.014992028,
				"element": "H" 
			},
			{
				"x": 2.432820116,
				"y": 2.9848547153,
				"z": 1.8562772489,
				"element": "H" 
			},
			{
				"x": 0.9031757538,
				"y": 3.785480901,
				"z": 2.284419553,
				"element": "H" 
			},
			{
				"x": 1.4535651546,
				"y": 3.6807908264,
				"z": 0.592091433,
				"element": "H" 
			},
			{
				"x": 0.6425916726,
				"y": -1.2280587965,
				"z": 0.1592860047,
				"element": "H" 
			},
			{
				"x": -0.2369714937,
				"y": -2.0207608966,
				"z": -1.7802510001,
				"element": "H" 
			},
			{
				"x": -1.799836382,
				"y": -1.8808878231,
				"z": -3.7337246975,
				"element": "H" 
			},
			{
				"x": -4.4594976608,
				"y": 2.1247738633,
				"z": -4.1550358619,
				"element": "H" 
			},
			{
				"x": -5.3811528351,
				"y": 0.9892848476,
				"z": -3.0957875922,
				"element": "H" 
			},
			{
				"x": -1.9051599383,
				"y": 1.5935814215,
				"z": -0.1162663528,
				"element": "H" 
			},
			{
				"x": 3.159674902,
				"y": 0.8747637722,
				"z": -2.8221866282,
				"element": "H" 
			},
			{
				"x": 4.2269172237,
				"y": 0.0913415235,
				"z": -1.6577021142,
				"element": "H" 
			},
			{
				"x": 4.041646272,
				"y": -1.2894527806,
				"z": -3.7592782083,
				"element": "H" 
			},
			{
				"x": 2.2818976858,
				"y": -1.3827382479,
				"z": -3.5451409715,
				"element": "H" 
			},
			{
				"x": 3.3609929543,
				"y": -2.1731962716,
				"z": -2.3797614509,
				"element": "H" 
			}
		],
		 "valence_orbital": [ 
			{
				"type": "occ",
				"energy": -0.26146,
				"method": "rhf"
			},
			{
				"type": "occ",
				"energy": -0.24877,
				"method": "rhf"
			},
			{
				"type": "occ",
				"energy": -0.23279,
				"method": "rhf"
			},
			{
				"type": "occ",
				"energy": -0.20189,
				"method": "rhf"
			},
			{
				"type": "occ",
				"energy": -0.19641,
				"method": "rhf"
			},
			{
				"type": "unocc",
				"energy": -0.04522,
				"method": "rhf"
			},
			{
				"type": "unocc",
				"energy": 0.00777,
				"method": "rhf"
			},
			{
				"type": "unocc",
				"energy": 0.0086,
				"method": "rhf"
			},
			{
				"type": "unocc",
				"energy": 0.02469,
				"method": "rhf"
			},
			{
				"type": "unocc",
				"energy": 0.06165,
				"method": "rhf"
			}
		],
		"cosmo_sigma_profile": { 
			"-0.025": 0.0,
			"-0.024": 0.0,
			"-0.023": 0.0,
			"-0.022": 0.0,
			"-0.021": 0.0,
			"-0.02": 0.0,
			"-0.019": 0.0,
			"-0.018": 0.0,
			"-0.017": 0.0,
			"-0.016": 0.100140810064,
			"-0.015": 1.37737184936,
			"-0.014": 1.39057497801,
			"-0.013": 1.66032543264,
			"-0.012": 1.20929319375,
			"-0.011": 1.37933575089,
			"-0.01": 1.97325574927,
			"-0.009": 1.03894685031,
			"-0.008": 3.1889440933,
			"-0.007": 8.31441605811,
			"-0.006": 11.3794501807,
			"-0.005": 18.1013592544,
			"-0.004": 32.4639133804,
			"-0.003": 40.8550954585,
			"-0.002": 44.5050099628,
			"-0.001": 42.7549375299,
			"0.0": 37.9625197257,
			"0.001": 31.0253643632,
			"0.002": 23.1001558183,
			"0.003": 24.1241717917,
			"0.004": 19.6653636545,
			"0.005": 15.6520078658,
			"0.006": 10.9883099322,
			"0.007": 7.948425774,
			"0.008": 6.30505859498,
			"0.009": 5.79004165637,
			"0.01": 6.16521818803,
			"0.011": 2.75030073308,
			"0.012": 3.96654435452,
			"0.013": 5.30279997337,
			"0.014": 0.805203677714,
			"0.015": 0.0,
			"0.016": 0.0,
			"0.017": 0.0,
			"0.018": 0.0,
			"0.019": 0.0,
			"0.02": 0.0,
			"0.021": 0.0,
			"0.022": 0.0,
			"0.023": 0.0,
			"0.024": 0.0,
			"0.025": 0.0
		}
	}
}
