{
	 "smiles": "CC1=NC2=C(C=C(S2)C(O)=O)C(C)=C1", 
	 "Tm": 472.15, 
	 "num_atms": 23, 
	 "gaussian": { 
		 "optdone": 1, 
		 "sigma_profile": "yes", 
		 "theory": "DFT", 
		 "functional": "B3LYP", 
		 "basiset": "6-31G**", 
		 "properties": { 
			 "R2extent": 3667.9706, 
			 "electric_dipole_moment_norm": 7.0627533597, 
			 "electric_quadrupole_moment_norm": 13.6423233472, 
			 "total_energy": -989.895719399, 
			 "HOMO_LUMO_gap": 0.16996, 
			 "cosmo_polarized_energy": -18.45, 
			 "cosmo_cavitation_energy": 29.08, 
			 "cosmo_dispersion_energy": -21.78, 
			 "cosmo_repulsion_energy": 1.66, 
			 "cosmo_total_nonelectrostatic_energy": 8.96, 
			 "SMD_solvation_energy": 4.23 
		},
		"coords": [
			{
				"x": -0.8068991076,
				"y": -3.7031620853,
				"z": 1.7196149797,
				"element": "C" 
			},
			{
				"x": -0.4650791387,
				"y": -2.3467506853,
				"z": 1.1578214074,
				"element": "C" 
			},
			{
				"x": -1.4221764122,
				"y": -1.7121990424,
				"z": 0.4744145544,
				"element": "N" 
			},
			{
				"x": -1.100877092,
				"y": -0.5140626901,
				"z": -0.0146668043,
				"element": "C" 
			},
			{
				"x": 0.1513252286,
				"y": 0.1337562654,
				"z": 0.1221277191,
				"element": "C" 
			},
			{
				"x": 0.1615649124,
				"y": 1.4081384692,
				"z": -0.5277666626,
				"element": "C" 
			},
			{
				"x": -1.0302729754,
				"y": 1.7092068765,
				"z": -1.1348840924,
				"element": "C" 
			},
			{
				"x": -2.2434883904,
				"y": 0.4595206962,
				"z": -0.9272816327,
				"element": "S" 
			},
			{
				"x": -1.4221973059,
				"y": 2.93267617,
				"z": -1.8733594681,
				"element": "C" 
			},
			{
				"x": -0.4128005496,
				"y": 3.7684508378,
				"z": -2.2370152885,
				"element": "O" 
			},
			{
				"x": -2.5688666053,
				"y": 3.2009587433,
				"z": -2.1466724771,
				"element": "O" 
			},
			{
				"x": 1.1587714068,
				"y": -0.5436762024,
				"z": 0.850856225,
				"element": "C" 
			},
			{
				"x": 2.5214111996,
				"y": 0.0635681361,
				"z": 1.0568848749,
				"element": "C" 
			},
			{
				"x": 0.820693698,
				"y": -1.7891819557,
				"z": 1.3592344682,
				"element": "C" 
			},
			{
				"x": -0.1380393168,
				"y": -4.4752100464,
				"z": 1.3221046174,
				"element": "H" 
			},
			{
				"x": -0.7025202875,
				"y": -3.7161645832,
				"z": 2.8106648928,
				"element": "H" 
			},
			{
				"x": -1.8348550356,
				"y": -3.9606082498,
				"z": 1.4612949767,
				"element": "H" 
			},
			{
				"x": 1.0165514767,
				"y": 2.0768167375,
				"z": -0.5063553475,
				"element": "H" 
			},
			{
				"x": 0.4446536635,
				"y": 3.3456820217,
				"z": -2.090801755,
				"element": "H" 
			},
			{
				"x": 3.0163158042,
				"y": 0.2604616869,
				"z": 0.0987498082,
				"element": "H" 
			},
			{
				"x": 2.4518769651,
				"y": 1.020269109,
				"z": 1.5875225322,
				"element": "H" 
			},
			{
				"x": 3.166152466,
				"y": -0.5987905672,
				"z": 1.6392319171,
				"element": "H" 
			},
			{
				"x": 1.5547553963,
				"y": -2.3557996415,
				"z": 1.9255805551,
				"element": "H" 
			}
		],
		 "valence_orbital": [ 
			{
				"type": "occ",
				"energy": -0.30778,
				"method": "rhf"
			},
			{
				"type": "occ",
				"energy": -0.2811,
				"method": "rhf"
			},
			{
				"type": "occ",
				"energy": -0.27111,
				"method": "rhf"
			},
			{
				"type": "occ",
				"energy": -0.25264,
				"method": "rhf"
			},
			{
				"type": "occ",
				"energy": -0.24335,
				"method": "rhf"
			},
			{
				"type": "unocc",
				"energy": -0.07339,
				"method": "rhf"
			},
			{
				"type": "unocc",
				"energy": -0.02582,
				"method": "rhf"
			},
			{
				"type": "unocc",
				"energy": 0.0009,
				"method": "rhf"
			},
			{
				"type": "unocc",
				"energy": 0.01897,
				"method": "rhf"
			},
			{
				"type": "unocc",
				"energy": 0.04904,
				"method": "rhf"
			}
		],
		"cosmo_sigma_profile": { 
			"-0.025": 0.0,
			"-0.024": 0.0,
			"-0.023": 0.0,
			"-0.022": 0.0,
			"-0.021": 0.0,
			"-0.02": 0.0321877258209,
			"-0.019": 0.811997320906,
			"-0.018": 0.872650829378,
			"-0.017": 1.50409402778,
			"-0.016": 0.784467932861,
			"-0.015": 0.818106191104,
			"-0.014": 0.787865788484,
			"-0.013": 1.4074907674,
			"-0.012": 1.3595251851,
			"-0.011": 1.06069888578,
			"-0.01": 1.13178084622,
			"-0.009": 1.4246074924,
			"-0.008": 1.92230324912,
			"-0.007": 2.93000984722,
			"-0.006": 7.91133291547,
			"-0.005": 15.9856580549,
			"-0.004": 15.9903172066,
			"-0.003": 16.9180995561,
			"-0.002": 15.8258259234,
			"-0.001": 20.9903731376,
			"0.0": 23.2981369493,
			"0.001": 23.6671048602,
			"0.002": 16.8121702793,
			"0.003": 10.9475499341,
			"0.004": 8.01731199273,
			"0.005": 5.34354114623,
			"0.006": 3.73991103798,
			"0.007": 3.37745463269,
			"0.008": 4.0699220335,
			"0.009": 5.23462105756,
			"0.01": 6.68373561307,
			"0.011": 6.30861771378,
			"0.012": 4.04057757297,
			"0.013": 1.86302993883,
			"0.014": 0.444344658172,
			"0.015": 0.0238038428367,
			"0.016": 0.0,
			"0.017": 0.0,
			"0.018": 0.0,
			"0.019": 0.0,
			"0.02": 0.0,
			"0.021": 0.0,
			"0.022": 0.0,
			"0.023": 0.0,
			"0.024": 0.0,
			"0.025": 0.0
		}
	}
}
