{
	 "smiles": "OC(=O)CC1=NN(C(=O)C1)C1=C(Cl)C=C(Cl)C=C1", 
	 "Tm": 453.15, 
	 "num_atms": 26, 
	 "gaussian": { 
		 "optdone": 1, 
		 "sigma_profile": "yes", 
		 "theory": "DFT", 
		 "functional": "B3LYP", 
		 "basiset": "6-31G**", 
		 "properties": { 
			 "R2extent": 7598.6505, 
			 "electric_dipole_moment_norm": 3.19175728087, 
			 "electric_quadrupole_moment_norm": 18.284415855, 
			 "total_energy": -1679.5377731, 
			 "HOMO_LUMO_gap": 0.19343, 
			 "cosmo_polarized_energy": -18.96, 
			 "cosmo_cavitation_energy": 35.6, 
			 "cosmo_dispersion_energy": -25.42, 
			 "cosmo_repulsion_energy": 2.01, 
			 "cosmo_total_nonelectrostatic_energy": 12.19, 
			 "SMD_solvation_energy": 6.65 
		},
		"coords": [
			{
				"x": 1.7307479356,
				"y": -3.2084254436,
				"z": 3.1655110807,
				"element": "O" 
			},
			{
				"x": 1.8698916617,
				"y": -2.1758321951,
				"z": 4.0316497944,
				"element": "C" 
			},
			{
				"x": 2.684393553,
				"y": -2.1711233891,
				"z": 4.922874944,
				"element": "O" 
			},
			{
				"x": 0.8635239665,
				"y": -1.0581937999,
				"z": 3.7816125105,
				"element": "C" 
			},
			{
				"x": 0.4404213472,
				"y": -0.8566816949,
				"z": 2.3579956129,
				"element": "C" 
			},
			{
				"x": 0.8409946258,
				"y": 0.180948468,
				"z": 1.7055020391,
				"element": "N" 
			},
			{
				"x": 0.3095873191,
				"y": 0.115763952,
				"z": 0.4143083857,
				"element": "N" 
			},
			{
				"x": -0.5773305789,
				"y": -0.9580268587,
				"z": 0.2418548794,
				"element": "C" 
			},
			{
				"x": -1.2722059529,
				"y": -1.1679984184,
				"z": -0.7268653637,
				"element": "O" 
			},
			{
				"x": -0.4578660843,
				"y": -1.7447907791,
				"z": 1.5461092939,
				"element": "C" 
			},
			{
				"x": 0.4702260199,
				"y": 1.2247700656,
				"z": -0.4487404722,
				"element": "C" 
			},
			{
				"x": 0.9217011533,
				"y": 1.077088426,
				"z": -1.7701226729,
				"element": "C" 
			},
			{
				"x": 1.3994993336,
				"y": -0.4808402687,
				"z": -2.3966132295,
				"element": "Cl" 
			},
			{
				"x": 1.0450862993,
				"y": 2.1873676352,
				"z": -2.6072574727,
				"element": "C" 
			},
			{
				"x": 0.7499439465,
				"y": 3.4526509659,
				"z": -2.1073232577,
				"element": "C" 
			},
			{
				"x": 0.917742187,
				"y": 4.8464142459,
				"z": -3.1583644468,
				"element": "Cl" 
			},
			{
				"x": 0.3362095795,
				"y": 3.6302656011,
				"z": -0.7868850162,
				"element": "C" 
			},
			{
				"x": 0.1927170375,
				"y": 2.5122885597,
				"z": 0.026639907,
				"element": "C" 
			},
			{
				"x": 2.3998513342,
				"y": -3.8679504827,
				"z": 3.4169955953,
				"element": "H" 
			},
			{
				"x": -0.0124778481,
				"y": -1.2889002688,
				"z": 4.4043410356,
				"element": "H" 
			},
			{
				"x": 1.3079477182,
				"y": -0.1385271633,
				"z": 4.1661468055,
				"element": "H" 
			},
			{
				"x": -0.0157748424,
				"y": -2.7296703963,
				"z": 1.3633456373,
				"element": "H" 
			},
			{
				"x": -1.4424153534,
				"y": -1.9080045196,
				"z": 1.997470475,
				"element": "H" 
			},
			{
				"x": 1.3866916854,
				"y": 2.0604101699,
				"z": -3.6268956994,
				"element": "H" 
			},
			{
				"x": 0.1188307101,
				"y": 4.6225842642,
				"z": -0.4094595354,
				"element": "H" 
			},
			{
				"x": -0.1344367533,
				"y": 2.6218133248,
				"z": 1.0546691704,
				"element": "H" 
			}
		],
		 "valence_orbital": [ 
			{
				"type": "occ",
				"energy": -0.29908,
				"method": "rhf"
			},
			{
				"type": "occ",
				"energy": -0.27535,
				"method": "rhf"
			},
			{
				"type": "occ",
				"energy": -0.26652,
				"method": "rhf"
			},
			{
				"type": "occ",
				"energy": -0.26109,
				"method": "rhf"
			},
			{
				"type": "occ",
				"energy": -0.2346,
				"method": "rhf"
			},
			{
				"type": "unocc",
				"energy": -0.04117,
				"method": "rhf"
			},
			{
				"type": "unocc",
				"energy": -0.03453,
				"method": "rhf"
			},
			{
				"type": "unocc",
				"energy": -0.02853,
				"method": "rhf"
			},
			{
				"type": "unocc",
				"energy": -0.00908,
				"method": "rhf"
			},
			{
				"type": "unocc",
				"energy": 0.00477,
				"method": "rhf"
			}
		],
		"cosmo_sigma_profile": { 
			"-0.025": 0.0,
			"-0.024": 0.0,
			"-0.023": 0.0,
			"-0.022": 0.0,
			"-0.021": 0.0,
			"-0.02": 0.0,
			"-0.019": 0.149549168662,
			"-0.018": 1.09170588441,
			"-0.017": 0.692825049289,
			"-0.016": 1.29625551229,
			"-0.015": 0.578061436036,
			"-0.014": 0.682612979986,
			"-0.013": 0.512516067465,
			"-0.012": 1.05382194443,
			"-0.011": 0.668699324952,
			"-0.01": 0.690849463064,
			"-0.009": 6.91184951754,
			"-0.008": 11.8683979338,
			"-0.007": 13.5325950209,
			"-0.006": 13.0469012822,
			"-0.005": 12.9645971263,
			"-0.004": 15.1821269103,
			"-0.003": 14.2740081747,
			"-0.002": 15.4427991634,
			"-0.001": 15.6676801567,
			"0.0": 23.1627684193,
			"0.001": 30.2927221509,
			"0.002": 22.8932999104,
			"0.003": 18.9267415562,
			"0.004": 19.7173231144,
			"0.005": 6.76137830815,
			"0.006": 4.27251825241,
			"0.007": 4.25824587932,
			"0.008": 3.40448425469,
			"0.009": 4.8766940797,
			"0.01": 5.94402659812,
			"0.011": 9.01289053336,
			"0.012": 8.22573484534,
			"0.013": 1.62436449019,
			"0.014": 0.0,
			"0.015": 0.0,
			"0.016": 0.0,
			"0.017": 0.0,
			"0.018": 0.0,
			"0.019": 0.0,
			"0.02": 0.0,
			"0.021": 0.0,
			"0.022": 0.0,
			"0.023": 0.0,
			"0.024": 0.0,
			"0.025": 0.0
		}
	}
}
