{
	 "smiles": "CC(=O)N1C(C)=CC2=C1C=C1NC(C)=CC1=C2", 
	 "Tm": 552.15, 
	 "num_atms": 31, 
	 "gaussian": { 
		 "optdone": 1, 
		 "sigma_profile": "yes", 
		 "theory": "DFT", 
		 "functional": "B3LYP", 
		 "basiset": "6-31G**", 
		 "properties": { 
			 "R2extent": 5567.4969, 
			 "electric_dipole_moment_norm": 4.25876972845, 
			 "electric_quadrupole_moment_norm": 15.5427401629, 
			 "total_energy": -726.683039423, 
			 "HOMO_LUMO_gap": 0.16915, 
			 "cosmo_polarized_energy": -13.59, 
			 "cosmo_cavitation_energy": 33.72, 
			 "cosmo_dispersion_energy": -24.91, 
			 "cosmo_repulsion_energy": 1.89, 
			 "cosmo_total_nonelectrostatic_energy": 10.7, 
			 "SMD_solvation_energy": 6.01 
		},
		"coords": [
			{
				"x": -1.8124721586,
				"y": -1.2453351383,
				"z": 0.3408700494,
				"element": "C" 
			},
			{
				"x": -1.1070146111,
				"y": -1.1394196981,
				"z": -0.9960931051,
				"element": "C" 
			},
			{
				"x": -1.6038237803,
				"y": -1.6430704278,
				"z": -1.9905995597,
				"element": "O" 
			},
			{
				"x": 0.1166682058,
				"y": -0.4560431973,
				"z": -1.0611942146,
				"element": "N" 
			},
			{
				"x": 0.8547811125,
				"y": -0.3036016962,
				"z": -2.279395094,
				"element": "C" 
			},
			{
				"x": 0.4280509646,
				"y": -0.8398497393,
				"z": -3.6089179976,
				"element": "C" 
			},
			{
				"x": 1.9852725806,
				"y": 0.3989433794,
				"z": -2.0180347498,
				"element": "C" 
			},
			{
				"x": 2.0296669881,
				"y": 0.7328101457,
				"z": -0.6186675581,
				"element": "C" 
			},
			{
				"x": 0.8483836498,
				"y": 0.1902232197,
				"z": -0.0231828868,
				"element": "C" 
			},
			{
				"x": 0.5928819498,
				"y": 0.3449502548,
				"z": 1.340798135,
				"element": "C" 
			},
			{
				"x": 1.5525678065,
				"y": 1.0530482956,
				"z": 2.0693038312,
				"element": "C" 
			},
			{
				"x": 1.5718621338,
				"y": 1.3610983037,
				"z": 3.4174092699,
				"element": "N" 
			},
			{
				"x": 2.7200616978,
				"y": 2.0830993871,
				"z": 3.7210071898,
				"element": "C" 
			},
			{
				"x": 2.9899773273,
				"y": 2.5445317782,
				"z": 5.1161323054,
				"element": "C" 
			},
			{
				"x": 3.4512512025,
				"y": 2.2471914902,
				"z": 2.5724176664,
				"element": "C" 
			},
			{
				"x": 2.7392837246,
				"y": 1.6046928914,
				"z": 1.5001169614,
				"element": "C" 
			},
			{
				"x": 2.9719003083,
				"y": 1.4355005095,
				"z": 0.1305948346,
				"element": "C" 
			},
			{
				"x": -1.2007109757,
				"y": -1.7737561812,
				"z": 1.0777259355,
				"element": "H" 
			},
			{
				"x": -2.7302721916,
				"y": -1.8059838111,
				"z": 0.1667741853,
				"element": "H" 
			},
			{
				"x": -2.0621701923,
				"y": -0.2593669269,
				"z": 0.7432709065,
				"element": "H" 
			},
			{
				"x": -0.5344743643,
				"y": -0.434420296,
				"z": -3.9309337713,
				"element": "H" 
			},
			{
				"x": 1.1915465171,
				"y": -0.565675953,
				"z": -4.342992634,
				"element": "H" 
			},
			{
				"x": 0.3174145339,
				"y": -1.9271566286,
				"z": -3.6024103663,
				"element": "H" 
			},
			{
				"x": 2.7300745185,
				"y": 0.6608862701,
				"z": -2.7575521915,
				"element": "H" 
			},
			{
				"x": -0.2809952582,
				"y": -0.043421555,
				"z": 1.8410923934,
				"element": "H" 
			},
			{
				"x": 0.8623071558,
				"y": 1.1030369286,
				"z": 4.0837101223,
				"element": "H" 
			},
			{
				"x": 3.9345503772,
				"y": 3.0912057327,
				"z": 5.1542107443,
				"element": "H" 
			},
			{
				"x": 2.2009991551,
				"y": 3.2124228376,
				"z": 5.4847219332,
				"element": "H" 
			},
			{
				"x": 3.0609741253,
				"y": 1.7033758068,
				"z": 5.8174434862,
				"element": "H" 
			},
			{
				"x": 4.3949499415,
				"y": 2.7698265736,
				"z": 2.5008347076,
				"element": "H" 
			},
			{
				"x": 3.862307556,
				"y": 1.8389574438,
				"z": -0.343260529,
				"element": "H" 
			}
		],
		 "valence_orbital": [ 
			{
				"type": "occ",
				"energy": -0.277,
				"method": "rhf"
			},
			{
				"type": "occ",
				"energy": -0.25575,
				"method": "rhf"
			},
			{
				"type": "occ",
				"energy": -0.24597,
				"method": "rhf"
			},
			{
				"type": "occ",
				"energy": -0.19665,
				"method": "rhf"
			},
			{
				"type": "occ",
				"energy": -0.18465,
				"method": "rhf"
			},
			{
				"type": "unocc",
				"energy": -0.0155,
				"method": "rhf"
			},
			{
				"type": "unocc",
				"energy": -0.01127,
				"method": "rhf"
			},
			{
				"type": "unocc",
				"energy": 0.049,
				"method": "rhf"
			},
			{
				"type": "unocc",
				"energy": 0.07463,
				"method": "rhf"
			},
			{
				"type": "unocc",
				"energy": 0.07592,
				"method": "rhf"
			}
		],
		"cosmo_sigma_profile": { 
			"-0.025": 0.0,
			"-0.024": 0.0,
			"-0.023": 0.0,
			"-0.022": 0.0,
			"-0.021": 0.0,
			"-0.02": 0.0,
			"-0.019": 0.0,
			"-0.018": 0.0,
			"-0.017": 0.0,
			"-0.016": 0.0236202495489,
			"-0.015": 0.915283707417,
			"-0.014": 1.6367504835,
			"-0.013": 0.802757039732,
			"-0.012": 1.06178003092,
			"-0.011": 1.12803545043,
			"-0.01": 1.96173236868,
			"-0.009": 1.32658288049,
			"-0.008": 1.81725682802,
			"-0.007": 4.86505718662,
			"-0.006": 9.98724223389,
			"-0.005": 16.6579294433,
			"-0.004": 24.2143750072,
			"-0.003": 22.3635114307,
			"-0.002": 24.5110615066,
			"-0.001": 23.0927181544,
			"0.0": 21.9696052207,
			"0.001": 14.1132794922,
			"0.002": 11.3177581765,
			"0.003": 12.8484343695,
			"0.004": 12.0668902097,
			"0.005": 19.5642504685,
			"0.006": 18.9609932293,
			"0.007": 8.35392961688,
			"0.008": 1.69302685529,
			"0.009": 1.93432776812,
			"0.01": 1.72726393238,
			"0.011": 1.6649701264,
			"0.012": 2.61149037712,
			"0.013": 2.54878043115,
			"0.014": 0.445208901761,
			"0.015": 0.0,
			"0.016": 0.0,
			"0.017": 0.0,
			"0.018": 0.0,
			"0.019": 0.0,
			"0.02": 0.0,
			"0.021": 0.0,
			"0.022": 0.0,
			"0.023": 0.0,
			"0.024": 0.0,
			"0.025": 0.0
		}
	}
}
