{
	 "smiles": "CC1CCC2=C(C1)C=C(S2)C(=O)NN", 
	 "Tm": 396.15, 
	 "num_atms": 28, 
	 "gaussian": { 
		 "optdone": 1, 
		 "sigma_profile": "yes", 
		 "theory": "DFT", 
		 "functional": "B3LYP", 
		 "basiset": "6-31G**", 
		 "properties": { 
			 "R2extent": 5283.2182, 
			 "electric_dipole_moment_norm": 4.63760016496, 
			 "electric_quadrupole_moment_norm": 29.2048149392, 
			 "total_energy": -972.403216718, 
			 "HOMO_LUMO_gap": 0.18373, 
			 "cosmo_polarized_energy": -15.72, 
			 "cosmo_cavitation_energy": 31.45, 
			 "cosmo_dispersion_energy": -23.8, 
			 "cosmo_repulsion_energy": 1.87, 
			 "cosmo_total_nonelectrostatic_energy": 9.52, 
			 "SMD_solvation_energy": 5.77 
		},
		"coords": [
			{
				"x": 1.9580845642,
				"y": 2.5129626945,
				"z": 0.5833858525,
				"element": "C" 
			},
			{
				"x": 0.8983917789,
				"y": 1.5158921994,
				"z": 1.0633632482,
				"element": "C" 
			},
			{
				"x": 1.1819132506,
				"y": 1.0223550526,
				"z": 2.4940365158,
				"element": "C" 
			},
			{
				"x": 0.0379648132,
				"y": 0.1496333947,
				"z": 3.0420313709,
				"element": "C" 
			},
			{
				"x": -0.392745651,
				"y": -0.8568068685,
				"z": 2.0102089949,
				"element": "C" 
			},
			{
				"x": -0.0785652817,
				"y": -0.7896489515,
				"z": 0.6710693255,
				"element": "C" 
			},
			{
				"x": 0.7806843992,
				"y": 0.3153416082,
				"z": 0.1026917075,
				"element": "C" 
			},
			{
				"x": -0.6389359926,
				"y": -1.869388854,
				"z": -0.0723140177,
				"element": "C" 
			},
			{
				"x": -1.3718719095,
				"y": -2.7432232127,
				"z": 0.6992460482,
				"element": "C" 
			},
			{
				"x": -1.3781103845,
				"y": -2.2366536479,
				"z": 2.3780413165,
				"element": "S" 
			},
			{
				"x": -2.1337527799,
				"y": -3.9782399451,
				"z": 0.4267070108,
				"element": "C" 
			},
			{
				"x": -2.7164587227,
				"y": -4.5749271832,
				"z": 1.3328017896,
				"element": "O" 
			},
			{
				"x": -2.2181931541,
				"y": -4.4918481178,
				"z": -0.849867976,
				"element": "N" 
			},
			{
				"x": -1.5881258769,
				"y": -3.9761908112,
				"z": -1.984966529,
				"element": "N" 
			},
			{
				"x": 2.9555552353,
				"y": 2.0567901835,
				"z": 0.5850527018,
				"element": "H" 
			},
			{
				"x": 1.7511220732,
				"y": 2.853709742,
				"z": -0.437180284,
				"element": "H" 
			},
			{
				"x": 1.9951229223,
				"y": 3.3964240587,
				"z": 1.2298295283,
				"element": "H" 
			},
			{
				"x": -0.0756138867,
				"y": 2.0280144916,
				"z": 1.0767510693,
				"element": "H" 
			},
			{
				"x": 2.1155745663,
				"y": 0.443065116,
				"z": 2.4923469044,
				"element": "H" 
			},
			{
				"x": 1.342156293,
				"y": 1.8762380896,
				"z": 3.1629510471,
				"element": "H" 
			},
			{
				"x": -0.8152643402,
				"y": 0.7878605115,
				"z": 3.313786688,
				"element": "H" 
			},
			{
				"x": 0.3493969888,
				"y": -0.3492502833,
				"z": 3.9675673078,
				"element": "H" 
			},
			{
				"x": 0.3786239615,
				"y": 0.6487609137,
				"z": -0.8627342502,
				"element": "H" 
			},
			{
				"x": 1.7886915101,
				"y": -0.0732573339,
				"z": -0.1102440022,
				"element": "H" 
			},
			{
				"x": -0.5132366281,
				"y": -2.0068515312,
				"z": -1.1373850229,
				"element": "H" 
			},
			{
				"x": -2.7548422237,
				"y": -5.3523673168,
				"z": -0.8946617796,
				"element": "H" 
			},
			{
				"x": -2.2787400044,
				"y": -3.7546950542,
				"z": -2.6979718695,
				"element": "H" 
			},
			{
				"x": -0.9303255205,
				"y": -4.6539989446,
				"z": -2.3631426959,
				"element": "H" 
			}
		],
		 "valence_orbital": [ 
			{
				"type": "occ",
				"energy": -0.28191,
				"method": "rhf"
			},
			{
				"type": "occ",
				"energy": -0.2526,
				"method": "rhf"
			},
			{
				"type": "occ",
				"energy": -0.24629,
				"method": "rhf"
			},
			{
				"type": "occ",
				"energy": -0.23477,
				"method": "rhf"
			},
			{
				"type": "occ",
				"energy": -0.21562,
				"method": "rhf"
			},
			{
				"type": "unocc",
				"energy": -0.03189,
				"method": "rhf"
			},
			{
				"type": "unocc",
				"energy": 0.04488,
				"method": "rhf"
			},
			{
				"type": "unocc",
				"energy": 0.05036,
				"method": "rhf"
			},
			{
				"type": "unocc",
				"energy": 0.06257,
				"method": "rhf"
			},
			{
				"type": "unocc",
				"energy": 0.08775,
				"method": "rhf"
			}
		],
		"cosmo_sigma_profile": { 
			"-0.025": 0.0,
			"-0.024": 0.0,
			"-0.023": 0.0,
			"-0.022": 0.0,
			"-0.021": 0.0,
			"-0.02": 0.0,
			"-0.019": 0.0,
			"-0.018": 0.0,
			"-0.017": 0.0,
			"-0.016": 0.0,
			"-0.015": 0.0,
			"-0.014": 0.0803748621559,
			"-0.013": 1.34629230613,
			"-0.012": 3.76045597719,
			"-0.011": 5.24561802512,
			"-0.01": 4.62379473037,
			"-0.009": 4.1572742601,
			"-0.008": 3.61009999559,
			"-0.007": 1.89445079717,
			"-0.006": 2.15685135471,
			"-0.005": 2.9361684478,
			"-0.004": 9.08871659638,
			"-0.003": 20.5827110772,
			"-0.002": 36.2590380012,
			"-0.001": 28.7103487543,
			"0.0": 21.2307187002,
			"0.001": 21.3387481676,
			"0.002": 13.6904779663,
			"0.003": 12.0074695375,
			"0.004": 19.5645968385,
			"0.005": 12.9151142318,
			"0.006": 2.65113474661,
			"0.007": 1.58624790451,
			"0.008": 1.90641051658,
			"0.009": 1.27325559023,
			"0.01": 1.63177061334,
			"0.011": 1.93675600778,
			"0.012": 1.42005849626,
			"0.013": 3.31109691591,
			"0.014": 6.08168337769,
			"0.015": 0.812674673883,
			"0.016": 0.0,
			"0.017": 0.0,
			"0.018": 0.0,
			"0.019": 0.0,
			"0.02": 0.0,
			"0.021": 0.0,
			"0.022": 0.0,
			"0.023": 0.0,
			"0.024": 0.0,
			"0.025": 0.0
		}
	}
}
