{
	 "smiles": "CCN(C(Cl)=S)C1=CC=CC=C1", 
	 "Tm": 330.15, 
	 "num_atms": 22, 
	 "gaussian": { 
		 "optdone": 1, 
		 "sigma_profile": "yes", 
		 "theory": "DFT", 
		 "functional": "B3LYP", 
		 "basiset": "6-31G**", 
		 "properties": { 
			 "R2extent": 3051.2236, 
			 "electric_dipole_moment_norm": 5.11328770362, 
			 "electric_quadrupole_moment_norm": 14.0805444579, 
			 "total_energy": -1262.11083674, 
			 "HOMO_LUMO_gap": 0.1752, 
			 "cosmo_polarized_energy": -10.63, 
			 "cosmo_cavitation_energy": 28.82, 
			 "cosmo_dispersion_energy": -20.54, 
			 "cosmo_repulsion_energy": 1.62, 
			 "cosmo_total_nonelectrostatic_energy": 9.9, 
			 "SMD_solvation_energy": 4.12 
		},
		"coords": [
			{
				"x": 0.2267738341,
				"y": -0.7779815149,
				"z": -2.0110667867,
				"element": "C" 
			},
			{
				"x": -0.752584099,
				"y": -0.1795152377,
				"z": -1.0006135864,
				"element": "C" 
			},
			{
				"x": -0.1928415705,
				"y": -0.0861791526,
				"z": 0.3701086063,
				"element": "N" 
			},
			{
				"x": -0.270185176,
				"y": -1.0382991992,
				"z": 1.3278013319,
				"element": "C" 
			},
			{
				"x": -1.1284292705,
				"y": -2.5245200105,
				"z": 0.7658596272,
				"element": "Cl" 
			},
			{
				"x": 0.3053659409,
				"y": -0.9711188749,
				"z": 2.8643534167,
				"element": "S" 
			},
			{
				"x": 0.5342358015,
				"y": 1.1320878761,
				"z": 0.6581263685,
				"element": "C" 
			},
			{
				"x": 1.9239781107,
				"y": 1.1646086331,
				"z": 0.525994644,
				"element": "C" 
			},
			{
				"x": 2.6063445937,
				"y": 2.3621465489,
				"z": 0.7406167412,
				"element": "C" 
			},
			{
				"x": 1.9039917358,
				"y": 3.5196304906,
				"z": 1.082481073,
				"element": "C" 
			},
			{
				"x": 0.5144217639,
				"y": 3.4793097852,
				"z": 1.2128104223,
				"element": "C" 
			},
			{
				"x": -0.174814674,
				"y": 2.2851796216,
				"z": 1.0002243955,
				"element": "C" 
			},
			{
				"x": 0.4851062261,
				"y": -1.8058736886,
				"z": -1.7442026732,
				"element": "H" 
			},
			{
				"x": 1.1455550325,
				"y": -0.1870492666,
				"z": -2.0660693504,
				"element": "H" 
			},
			{
				"x": -0.2310771922,
				"y": -0.7865843445,
				"z": -3.0054964869,
				"element": "H" 
			},
			{
				"x": -1.6742263573,
				"y": -0.7596139809,
				"z": -0.9614428599,
				"element": "H" 
			},
			{
				"x": -1.0149041618,
				"y": 0.8422211515,
				"z": -1.2861326171,
				"element": "H" 
			},
			{
				"x": 2.460406756,
				"y": 0.2556672829,
				"z": 0.2746655547,
				"element": "H" 
			},
			{
				"x": 3.6873225094,
				"y": 2.3889787948,
				"z": 0.6417427594,
				"element": "H" 
			},
			{
				"x": 2.438456933,
				"y": 4.4500023396,
				"z": 1.2494174863,
				"element": "H" 
			},
			{
				"x": -0.0348572291,
				"y": 4.3758048994,
				"z": 1.484138231,
				"element": "H" 
			},
			{
				"x": -1.2540395071,
				"y": 2.2386978468,
				"z": 1.1085837027,
				"element": "H" 
			}
		],
		 "valence_orbital": [ 
			{
				"type": "occ",
				"energy": -0.30691,
				"method": "rhf"
			},
			{
				"type": "occ",
				"energy": -0.26951,
				"method": "rhf"
			},
			{
				"type": "occ",
				"energy": -0.26575,
				"method": "rhf"
			},
			{
				"type": "occ",
				"energy": -0.23413,
				"method": "rhf"
			},
			{
				"type": "occ",
				"energy": -0.21553,
				"method": "rhf"
			},
			{
				"type": "unocc",
				"energy": -0.04033,
				"method": "rhf"
			},
			{
				"type": "unocc",
				"energy": -0.02294,
				"method": "rhf"
			},
			{
				"type": "unocc",
				"energy": -0.01739,
				"method": "rhf"
			},
			{
				"type": "unocc",
				"energy": 0.01219,
				"method": "rhf"
			},
			{
				"type": "unocc",
				"energy": 0.07844,
				"method": "rhf"
			}
		],
		"cosmo_sigma_profile": { 
			"-0.025": 0.0,
			"-0.024": 0.0,
			"-0.023": 0.0,
			"-0.022": 0.0,
			"-0.021": 0.0,
			"-0.02": 0.0,
			"-0.019": 0.0,
			"-0.018": 0.0,
			"-0.017": 0.0,
			"-0.016": 0.0,
			"-0.015": 0.0,
			"-0.014": 0.0,
			"-0.013": 0.0,
			"-0.012": 0.0,
			"-0.011": 0.0,
			"-0.01": 0.0,
			"-0.009": 0.0,
			"-0.008": 0.0497916269229,
			"-0.007": 4.16536879921,
			"-0.006": 14.0495167902,
			"-0.005": 19.9016353067,
			"-0.004": 25.0913438142,
			"-0.003": 20.5396784952,
			"-0.002": 18.674462868,
			"-0.001": 16.4338139929,
			"0.0": 17.2740263646,
			"0.001": 14.1243759529,
			"0.002": 12.4966592315,
			"0.003": 14.3332081837,
			"0.004": 15.2539069665,
			"0.005": 10.8128044564,
			"0.006": 7.9374652637,
			"0.007": 9.66104300352,
			"0.008": 6.14377125244,
			"0.009": 5.00024777863,
			"0.01": 2.19965354608,
			"0.011": 0.203372231858,
			"0.012": 0.0,
			"0.013": 0.0,
			"0.014": 0.0,
			"0.015": 0.0,
			"0.016": 0.0,
			"0.017": 0.0,
			"0.018": 0.0,
			"0.019": 0.0,
			"0.02": 0.0,
			"0.021": 0.0,
			"0.022": 0.0,
			"0.023": 0.0,
			"0.024": 0.0,
			"0.025": 0.0
		}
	}
}
