{
	 "smiles": "OC(=O)CC1=CC=CN=C1", 
	 "Tm": 417.15, 
	 "num_atms": 17, 
	 "gaussian": { 
		 "optdone": 1, 
		 "sigma_profile": "yes", 
		 "theory": "DFT", 
		 "functional": "B3LYP", 
		 "basiset": "6-31G**", 
		 "properties": { 
			 "R2extent": 1888.002, 
			 "electric_dipole_moment_norm": 3.33327958173, 
			 "electric_quadrupole_moment_norm": 9.77080912003, 
			 "total_energy": -476.170629957, 
			 "HOMO_LUMO_gap": 0.22823, 
			 "cosmo_polarized_energy": -13.56, 
			 "cosmo_cavitation_energy": 21.79, 
			 "cosmo_dispersion_energy": -15.94, 
			 "cosmo_repulsion_energy": 1.31, 
			 "cosmo_total_nonelectrostatic_energy": 7.16, 
			 "SMD_solvation_energy": 3.5 
		},
		"coords": [
			{
				"x": 1.4935393195,
				"y": -1.7236314345,
				"z": -2.49572107,
				"element": "O" 
			},
			{
				"x": 0.6223105924,
				"y": -0.8061962303,
				"z": -2.0102095844,
				"element": "C" 
			},
			{
				"x": 0.136992481,
				"y": 0.0639192335,
				"z": -2.6949069325,
				"element": "O" 
			},
			{
				"x": 0.3993689212,
				"y": -1.0125490659,
				"z": -0.5184923952,
				"element": "C" 
			},
			{
				"x": -0.8622825551,
				"y": -0.3757392427,
				"z": 0.0101233602,
				"element": "C" 
			},
			{
				"x": -1.9140763417,
				"y": -1.146874281,
				"z": 0.5089943946,
				"element": "C" 
			},
			{
				"x": -3.0557344393,
				"y": -0.5120383545,
				"z": 0.9967966344,
				"element": "C" 
			},
			{
				"x": -3.1024721727,
				"y": 0.8809271661,
				"z": 0.9682485833,
				"element": "C" 
			},
			{
				"x": -2.106751418,
				"y": 1.642566328,
				"z": 0.4956959467,
				"element": "N" 
			},
			{
				"x": -1.0219052229,
				"y": 1.0177144352,
				"z": 0.0298413998,
				"element": "C" 
			},
			{
				"x": 1.6184285715,
				"y": -1.5072523728,
				"z": -3.4353609467,
				"element": "H" 
			},
			{
				"x": 0.4200845702,
				"y": -2.0861782052,
				"z": -0.3108639124,
				"element": "H" 
			},
			{
				"x": 1.2853512875,
				"y": -0.5940170672,
				"z": -0.0209493833,
				"element": "H" 
			},
			{
				"x": -1.8403027407,
				"y": -2.2318470437,
				"z": 0.5166394751,
				"element": "H" 
			},
			{
				"x": -3.8898214291,
				"y": -1.0835162141,
				"z": 1.3919382772,
				"element": "H" 
			},
			{
				"x": -3.9761877303,
				"y": 1.4114060698,
				"z": 1.342931968,
				"element": "H" 
			},
			{
				"x": -0.2302416935,
				"y": 1.6570062793,
				"z": -0.3562058147,
				"element": "H" 
			}
		],
		 "valence_orbital": [ 
			{
				"type": "occ",
				"energy": -0.32646,
				"method": "rhf"
			},
			{
				"type": "occ",
				"energy": -0.29043,
				"method": "rhf"
			},
			{
				"type": "occ",
				"energy": -0.27859,
				"method": "rhf"
			},
			{
				"type": "occ",
				"energy": -0.25656,
				"method": "rhf"
			},
			{
				"type": "occ",
				"energy": -0.25056,
				"method": "rhf"
			},
			{
				"type": "unocc",
				"energy": -0.02233,
				"method": "rhf"
			},
			{
				"type": "unocc",
				"energy": -0.01409,
				"method": "rhf"
			},
			{
				"type": "unocc",
				"energy": 0.00461,
				"method": "rhf"
			},
			{
				"type": "unocc",
				"energy": 0.07325,
				"method": "rhf"
			},
			{
				"type": "unocc",
				"energy": 0.08862,
				"method": "rhf"
			}
		],
		"cosmo_sigma_profile": { 
			"-0.025": 0.0,
			"-0.024": 0.0,
			"-0.023": 0.0,
			"-0.022": 0.0,
			"-0.021": 0.0,
			"-0.02": 0.0,
			"-0.019": 0.0843204265552,
			"-0.018": 0.689280378801,
			"-0.017": 0.926500662604,
			"-0.016": 0.86283312338,
			"-0.015": 1.11913215439,
			"-0.014": 0.778880287587,
			"-0.013": 0.625994098456,
			"-0.012": 0.173643067226,
			"-0.011": 0.625636221629,
			"-0.01": 0.828138893779,
			"-0.009": 0.530684366901,
			"-0.008": 3.8342913632,
			"-0.007": 9.70890213798,
			"-0.006": 13.7523542713,
			"-0.005": 13.9758783965,
			"-0.004": 10.8535541986,
			"-0.003": 9.98395850156,
			"-0.002": 8.77197767147,
			"-0.001": 9.30631289675,
			"0.0": 8.00065285731,
			"0.001": 8.91793812665,
			"0.002": 11.5942264202,
			"0.003": 12.4265244017,
			"0.004": 5.2615743419,
			"0.005": 5.88216797244,
			"0.006": 3.89411633732,
			"0.007": 3.84568162941,
			"0.008": 5.08355392634,
			"0.009": 4.87555567202,
			"0.01": 3.74450796562,
			"0.011": 5.29591841568,
			"0.012": 3.49360413403,
			"0.013": 0.824445937556,
			"0.014": 0.956663559483,
			"0.015": 0.961267947052,
			"0.016": 0.789867795832,
			"0.017": 0.440097085767,
			"0.018": 0.0,
			"0.019": 0.0,
			"0.02": 0.0,
			"0.021": 0.0,
			"0.022": 0.0,
			"0.023": 0.0,
			"0.024": 0.0,
			"0.025": 0.0
		}
	}
}
