{
	 "smiles": "FC1=C2N=C(C=C(Cl)C2=CC(Br)=C1)C(F)(F)F", 
	 "Tm": 365.15, 
	 "num_atms": 20, 
	 "gaussian": { 
		 "optdone": 1, 
		 "sigma_profile": "yes", 
		 "theory": "DFT", 
		 "functional": "B3LYP", 
		 "basiset": "6-31G**", 
		 "properties": { 
			 "R2extent": 7020.421, 
			 "electric_dipole_moment_norm": 2.49506089705, 
			 "electric_quadrupole_moment_norm": 8.44874428421, 
			 "total_energy": -3868.57797896, 
			 "HOMO_LUMO_gap": 0.16182, 
			 "cosmo_polarized_energy": -6.34, 
			 "cosmo_cavitation_energy": 31.43, 
			 "cosmo_dispersion_energy": -22.86, 
			 "cosmo_repulsion_energy": 1.69, 
			 "cosmo_total_nonelectrostatic_energy": 10.25, 
			 "SMD_solvation_energy": 4.24 
		},
		"coords": [
			{
				"x": -0.5889230068,
				"y": -2.3222198762,
				"z": 1.6765671493,
				"element": "F" 
			},
			{
				"x": 0.1089407136,
				"y": -1.2383571747,
				"z": 1.3314874872,
				"element": "C" 
			},
			{
				"x": -0.416688905,
				"y": -0.3997351981,
				"z": 0.3054083114,
				"element": "C" 
			},
			{
				"x": -1.5936385291,
				"y": -0.7390422866,
				"z": -0.2694014185,
				"element": "N" 
			},
			{
				"x": -2.0579296319,
				"y": 0.0501175233,
				"z": -1.212873209,
				"element": "C" 
			},
			{
				"x": -1.4135394804,
				"y": 1.2237737274,
				"z": -1.6656046546,
				"element": "C" 
			},
			{
				"x": -0.2170669241,
				"y": 1.5682475634,
				"z": -1.0812106859,
				"element": "C" 
			},
			{
				"x": 0.6064315047,
				"y": 3.012614463,
				"z": -1.6166322559,
				"element": "Cl" 
			},
			{
				"x": 0.3471547002,
				"y": 0.7616577195,
				"z": -0.0528024361,
				"element": "C" 
			},
			{
				"x": 1.5724321574,
				"y": 1.0405186962,
				"z": 0.6033119313,
				"element": "C" 
			},
			{
				"x": 2.0179998431,
				"y": 0.186002352,
				"z": 1.5846412706,
				"element": "C" 
			},
			{
				"x": 3.6615467553,
				"y": 0.5470978066,
				"z": 2.4747850821,
				"element": "Br" 
			},
			{
				"x": 1.2943789345,
				"y": -0.966998322,
				"z": 1.9650721293,
				"element": "C" 
			},
			{
				"x": -3.3818345227,
				"y": -0.3798272769,
				"z": -1.8249341828,
				"element": "C" 
			},
			{
				"x": -3.2786293238,
				"y": -1.5881847028,
				"z": -2.4041970507,
				"element": "F" 
			},
			{
				"x": -4.3474230276,
				"y": -0.4505455515,
				"z": -0.8932930905,
				"element": "F" 
			},
			{
				"x": -3.7875902116,
				"y": 0.4966900097,
				"z": -2.7723763271,
				"element": "F" 
			},
			{
				"x": -1.8520911438,
				"y": 1.8289211229,
				"z": -2.4475929775,
				"element": "H" 
			},
			{
				"x": 2.1448422873,
				"y": 1.9168358597,
				"z": 0.3301716828,
				"element": "H" 
			},
			{
				"x": 1.6579278107,
				"y": -1.6304664548,
				"z": 2.7395732447,
				"element": "H" 
			}
		],
		 "valence_orbital": [ 
			{
				"type": "occ",
				"energy": -0.3109,
				"method": "rhf"
			},
			{
				"type": "occ",
				"energy": -0.30771,
				"method": "rhf"
			},
			{
				"type": "occ",
				"energy": -0.29546,
				"method": "rhf"
			},
			{
				"type": "occ",
				"energy": -0.28015,
				"method": "rhf"
			},
			{
				"type": "occ",
				"energy": -0.25307,
				"method": "rhf"
			},
			{
				"type": "unocc",
				"energy": -0.09125,
				"method": "rhf"
			},
			{
				"type": "unocc",
				"energy": -0.05896,
				"method": "rhf"
			},
			{
				"type": "unocc",
				"energy": -0.01491,
				"method": "rhf"
			},
			{
				"type": "unocc",
				"energy": -0.00901,
				"method": "rhf"
			},
			{
				"type": "unocc",
				"energy": 0.00368,
				"method": "rhf"
			}
		],
		"cosmo_sigma_profile": { 
			"-0.025": 0.0,
			"-0.024": 0.0,
			"-0.023": 0.0,
			"-0.022": 0.0,
			"-0.021": 0.0,
			"-0.02": 0.0,
			"-0.019": 0.0,
			"-0.018": 0.0,
			"-0.017": 0.0,
			"-0.016": 0.0,
			"-0.015": 0.0,
			"-0.014": 0.0,
			"-0.013": 0.0,
			"-0.012": 0.0,
			"-0.011": 0.0,
			"-0.01": 0.241492227411,
			"-0.009": 2.37647296583,
			"-0.008": 2.75057987368,
			"-0.007": 4.3260428178,
			"-0.006": 5.07412169779,
			"-0.005": 8.46081101302,
			"-0.004": 12.4535373757,
			"-0.003": 20.8620990058,
			"-0.002": 29.8283390755,
			"-0.001": 26.8122844451,
			"0.0": 24.1735722958,
			"0.001": 21.9291014967,
			"0.002": 41.8157521371,
			"0.003": 36.7402831816,
			"0.004": 11.4121514538,
			"0.005": 2.61399139661,
			"0.006": 2.07204407156,
			"0.007": 1.73788578059,
			"0.008": 1.19019498494,
			"0.009": 1.57909919924,
			"0.01": 0.882282582085,
			"0.011": 0.964547284523,
			"0.012": 0.296908223797,
			"0.013": 0.0,
			"0.014": 0.0,
			"0.015": 0.0,
			"0.016": 0.0,
			"0.017": 0.0,
			"0.018": 0.0,
			"0.019": 0.0,
			"0.02": 0.0,
			"0.021": 0.0,
			"0.022": 0.0,
			"0.023": 0.0,
			"0.024": 0.0,
			"0.025": 0.0
		}
	}
}
