{
	 "smiles": "BrC1=CC=CC=C1I", 
	 "Tm": 282.9, 
	 "num_atms": 12, 
	 "gaussian": { 
		 "optdone": 1, 
		 "sigma_profile": "no", 
		 "theory": "DFT", 
		 "functional": "B3LYP", 
		 "basiset": "6-31G**", 
		 "properties": { 
			 "R2extent": 4139.4157, 
			 "electric_dipole_moment_norm": 2.41387061998, 
			 "electric_quadrupole_moment_norm": 6.48809080932, 
			 "total_energy": -2813.83230544, 
			 "HOMO_LUMO_gap": 0.19339, 
			 "cosmo_polarized_energy": -87607.03, 
			 "cosmo_cavitation_energy": 21.27, 
			 "cosmo_dispersion_energy": -17.68, 
			 "cosmo_repulsion_energy": 1.41, 
			 "cosmo_total_nonelectrostatic_energy": 5.0, 
			 "SMD_solvation_energy": 1.78 
		},
		"coords": [
			{
				"x": 0.1593674564,
				"y": 0.1326111762,
				"z": -4.8069092214,
				"element": "Br" 
			},
			{
				"x": 0.0619220311,
				"y": -0.0566960804,
				"z": -2.9132343044,
				"element": "C" 
			},
			{
				"x": -1.0587389963,
				"y": -0.7091207789,
				"z": -2.3901400335,
				"element": "C" 
			},
			{
				"x": -1.1932646035,
				"y": -0.8815374765,
				"z": -1.0148519278,
				"element": "C" 
			},
			{
				"x": -0.2062196358,
				"y": -0.4017287533,
				"z": -0.1534900167,
				"element": "C" 
			},
			{
				"x": 0.9124116696,
				"y": 0.249109436,
				"z": -0.6703112622,
				"element": "C" 
			},
			{
				"x": 1.0550980922,
				"y": 0.4264849281,
				"z": -2.0516207629,
				"element": "C" 
			},
			{
				"x": 2.7875821862,
				"y": 1.4264728928,
				"z": -2.7368755703,
				"element": "I" 
			},
			{
				"x": -1.8187614109,
				"y": -1.0774408162,
				"z": -3.0694204797,
				"element": "H" 
			},
			{
				"x": -2.0684520848,
				"y": -1.3898641667,
				"z": -0.6225110114,
				"element": "H" 
			},
			{
				"x": -0.3009400372,
				"y": -0.5306712413,
				"z": 0.9201622746,
				"element": "H" 
			},
			{
				"x": 1.680195333,
				"y": 0.6224808802,
				"z": -0.0023976844,
				"element": "H" 
			}
		],
		 "valence_orbital": [ 
			{
				"type": "occ",
				"energy": -0.30317,
				"method": "rhf"
			},
			{
				"type": "occ",
				"energy": -0.30177,
				"method": "rhf"
			},
			{
				"type": "occ",
				"energy": -0.26245,
				"method": "rhf"
			},
			{
				"type": "occ",
				"energy": -0.25682,
				"method": "rhf"
			},
			{
				"type": "occ",
				"energy": -0.24443,
				"method": "rhf"
			},
			{
				"type": "unocc",
				"energy": -0.05104,
				"method": "rhf"
			},
			{
				"type": "unocc",
				"energy": -0.02801,
				"method": "rhf"
			},
			{
				"type": "unocc",
				"energy": -0.02546,
				"method": "rhf"
			},
			{
				"type": "unocc",
				"energy": 0.0139,
				"method": "rhf"
			},
			{
				"type": "unocc",
				"energy": 0.04783,
				"method": "rhf"
			}
		],
		"cosmo_sigma_profile": { 
			"0.0": 0.0,
			"0.0": 0.0,
			"0.0": 0.0,
			"0.0": 0.0,
			"0.0": 0.0,
			"0.0": 0.0,
			"0.0": 0.0,
			"0.0": 0.0,
			"0.0": 0.0,
			"0.0": 0.0,
			"0.0": 0.0,
			"0.0": 0.0,
			"0.0": 0.0,
			"0.0": 0.0,
			"0.0": 0.0,
			"0.0": 0.0,
			"0.0": 0.0,
			"0.0": 0.0,
			"0.0": 0.0,
			"0.0": 0.0,
			"0.0": 0.0,
			"0.0": 0.0,
			"0.0": 0.0,
			"0.0": 0.0,
			"0.0": 0.0,
			"0.0": 0.0,
			"0.0": 0.0,
			"0.0": 0.0,
			"0.0": 0.0,
			"0.0": 0.0,
			"0.0": 0.0,
			"0.0": 0.0,
			"0.0": 0.0,
			"0.0": 0.0,
			"0.0": 0.0,
			"0.0": 0.0,
			"0.0": 0.0,
			"0.0": 0.0,
			"0.0": 0.0,
			"0.0": 0.0,
			"0.0": 0.0,
			"0.0": 0.0,
			"0.0": 0.0,
			"0.0": 0.0,
			"0.0": 0.0,
			"0.0": 0.0,
			"0.0": 0.0,
			"0.0": 0.0,
			"0.0": 0.0,
			"0.0": 0.0,
			"0.0": 0.0
		}
	}
}
