{
	 "smiles": "CC(C)CNC(=O)C1=C(Cl)C=C(N)C=C1", 
	 "Tm": 374.15, 
	 "num_atms": 30, 
	 "gaussian": { 
		 "optdone": 1, 
		 "sigma_profile": "yes", 
		 "theory": "DFT", 
		 "functional": "B3LYP", 
		 "basiset": "6-31G**", 
		 "properties": { 
			 "R2extent": 4575.5143, 
			 "electric_dipole_moment_norm": 5.46150208642, 
			 "electric_quadrupole_moment_norm": 22.5437817344, 
			 "total_energy": -1073.15623185, 
			 "HOMO_LUMO_gap": 0.19923, 
			 "cosmo_polarized_energy": -17.2, 
			 "cosmo_cavitation_energy": 34.53, 
			 "cosmo_dispersion_energy": -23.78, 
			 "cosmo_repulsion_energy": 1.9, 
			 "cosmo_total_nonelectrostatic_energy": 12.65, 
			 "SMD_solvation_energy": 5.81 
		},
		"coords": [
			{
				"x": -0.0167453832,
				"y": -2.2862555657,
				"z": -1.4680288561,
				"element": "C" 
			},
			{
				"x": 0.7062879705,
				"y": -2.3399604567,
				"z": -0.1154721547,
				"element": "C" 
			},
			{
				"x": 1.9738189672,
				"y": -3.2047739445,
				"z": -0.1896392157,
				"element": "C" 
			},
			{
				"x": 0.9957955873,
				"y": -0.9281568015,
				"z": 0.4424590591,
				"element": "C" 
			},
			{
				"x": 1.8881537215,
				"y": -0.1349822303,
				"z": -0.3914095327,
				"element": "N" 
			},
			{
				"x": 1.6174964527,
				"y": 0.9803248959,
				"z": -1.1373788743,
				"element": "C" 
			},
			{
				"x": 2.3942695015,
				"y": 1.3672830738,
				"z": -2.0060968297,
				"element": "O" 
			},
			{
				"x": 0.3226969288,
				"y": 1.7160987733,
				"z": -0.9002286426,
				"element": "C" 
			},
			{
				"x": -0.0858321472,
				"y": 2.3095463344,
				"z": 0.3018545871,
				"element": "C" 
			},
			{
				"x": 0.9104110763,
				"y": 2.1985629527,
				"z": 1.7538516996,
				"element": "Cl" 
			},
			{
				"x": -1.2623064457,
				"y": 3.0473597601,
				"z": 0.4036505868,
				"element": "C" 
			},
			{
				"x": -2.0855256469,
				"y": 3.2226955905,
				"z": -0.7203599262,
				"element": "C" 
			},
			{
				"x": -3.2376981265,
				"y": 3.9934395626,
				"z": -0.6380602955,
				"element": "N" 
			},
			{
				"x": -1.6788416817,
				"y": 2.6572168683,
				"z": -1.9433886119,
				"element": "C" 
			},
			{
				"x": -0.494727596,
				"y": 1.9408800029,
				"z": -2.0208260749,
				"element": "C" 
			},
			{
				"x": -0.9417457587,
				"y": -1.7028596521,
				"z": -1.4040361124,
				"element": "H" 
			},
			{
				"x": -0.2772461656,
				"y": -3.2926302969,
				"z": -1.8122075647,
				"element": "H" 
			},
			{
				"x": 0.6160650584,
				"y": -1.8259405432,
				"z": -2.2343697201,
				"element": "H" 
			},
			{
				"x": 0.030052157,
				"y": -2.8052900987,
				"z": 0.6165134455,
				"element": "H" 
			},
			{
				"x": 2.6829680783,
				"y": -2.8178018615,
				"z": -0.9313548033,
				"element": "H" 
			},
			{
				"x": 1.7294622448,
				"y": -4.2294742699,
				"z": -0.4877039114,
				"element": "H" 
			},
			{
				"x": 2.4868789989,
				"y": -3.2516648318,
				"z": 0.7775927092,
				"element": "H" 
			},
			{
				"x": 0.0570266191,
				"y": -0.3803797752,
				"z": 0.5413395746,
				"element": "H" 
			},
			{
				"x": 1.4225163364,
				"y": -1.0156001313,
				"z": 1.450266661,
				"element": "H" 
			},
			{
				"x": 2.7926807622,
				"y": -0.5294407014,
				"z": -0.6176511627,
				"element": "H" 
			},
			{
				"x": -1.5271508242,
				"y": 3.5024441882,
				"z": 1.3523448088,
				"element": "H" 
			},
			{
				"x": -3.9313814081,
				"y": 3.8323468266,
				"z": -1.3538073165,
				"element": "H" 
			},
			{
				"x": -3.6393787511,
				"y": 4.102062352,
				"z": 0.2819214393,
				"element": "H" 
			},
			{
				"x": -2.2876874425,
				"y": 2.8002344612,
				"z": -2.8319506368,
				"element": "H" 
			},
			{
				"x": -0.1715130835,
				"y": 1.5344155184,
				"z": -2.9738243287,
				"element": "H" 
			}
		],
		 "valence_orbital": [ 
			{
				"type": "occ",
				"energy": -0.30692,
				"method": "rhf"
			},
			{
				"type": "occ",
				"energy": -0.25066,
				"method": "rhf"
			},
			{
				"type": "occ",
				"energy": -0.24497,
				"method": "rhf"
			},
			{
				"type": "occ",
				"energy": -0.23721,
				"method": "rhf"
			},
			{
				"type": "occ",
				"energy": -0.21235,
				"method": "rhf"
			},
			{
				"type": "unocc",
				"energy": -0.01312,
				"method": "rhf"
			},
			{
				"type": "unocc",
				"energy": -0.01019,
				"method": "rhf"
			},
			{
				"type": "unocc",
				"energy": 0.03002,
				"method": "rhf"
			},
			{
				"type": "unocc",
				"energy": 0.04813,
				"method": "rhf"
			},
			{
				"type": "unocc",
				"energy": 0.07022,
				"method": "rhf"
			}
		],
		"cosmo_sigma_profile": { 
			"-0.025": 0.0,
			"-0.024": 0.0,
			"-0.023": 0.0,
			"-0.022": 0.0,
			"-0.021": 0.0,
			"-0.02": 0.0,
			"-0.019": 0.0,
			"-0.018": 0.0,
			"-0.017": 0.0,
			"-0.016": 0.0,
			"-0.015": 0.0,
			"-0.014": 0.116968916865,
			"-0.013": 2.24246905848,
			"-0.012": 3.56851336791,
			"-0.011": 3.96963119558,
			"-0.01": 4.61678356465,
			"-0.009": 3.91885807521,
			"-0.008": 4.79615869757,
			"-0.007": 5.91144508631,
			"-0.006": 6.55807424327,
			"-0.005": 7.27598157137,
			"-0.004": 10.102584431,
			"-0.003": 22.2978056709,
			"-0.002": 29.5608339928,
			"-0.001": 25.761909822,
			"0.0": 23.6458874988,
			"0.001": 25.837893342,
			"0.002": 19.0438418632,
			"0.003": 16.8142320521,
			"0.004": 18.6526487322,
			"0.005": 10.4851076721,
			"0.006": 3.61363685936,
			"0.007": 1.88594332117,
			"0.008": 2.13073056175,
			"0.009": 2.29598663268,
			"0.01": 2.04068554223,
			"0.011": 2.27983619625,
			"0.012": 2.2406534778,
			"0.013": 3.51135878456,
			"0.014": 5.86172258539,
			"0.015": 1.92624393641,
			"0.016": 0.054193354025,
			"0.017": 0.0,
			"0.018": 0.0,
			"0.019": 0.0,
			"0.02": 0.0,
			"0.021": 0.0,
			"0.022": 0.0,
			"0.023": 0.0,
			"0.024": 0.0,
			"0.025": 0.0
		}
	}
}
