{
	 "smiles": "COC(=O)C1=C(SC)C=C(C=C1)C(F)(F)F", 
	 "Tm": 323.15, 
	 "num_atms": 25, 
	 "gaussian": { 
		 "optdone": 1, 
		 "sigma_profile": "yes", 
		 "theory": "DFT", 
		 "functional": "B3LYP", 
		 "basiset": "6-31G**", 
		 "properties": { 
			 "R2extent": 5780.976, 
			 "electric_dipole_moment_norm": 3.02783929891, 
			 "electric_quadrupole_moment_norm": 11.2749420123, 
			 "total_energy": -1234.65428606, 
			 "HOMO_LUMO_gap": 0.161, 
			 "cosmo_polarized_energy": -8.22, 
			 "cosmo_cavitation_energy": 32.41, 
			 "cosmo_dispersion_energy": -23.1, 
			 "cosmo_repulsion_energy": 1.71, 
			 "cosmo_total_nonelectrostatic_energy": 11.03, 
			 "SMD_solvation_energy": 8.3 
		},
		"coords": [
			{
				"x": -1.715193599,
				"y": -0.0744730324,
				"z": 3.6809588734,
				"element": "C" 
			},
			{
				"x": -1.837158687,
				"y": 0.1851456698,
				"z": 2.2718265158,
				"element": "O" 
			},
			{
				"x": -0.6705327004,
				"y": 0.4075284536,
				"z": 1.6253751066,
				"element": "C" 
			},
			{
				"x": 0.4043823269,
				"y": 0.4048074321,
				"z": 2.1883712209,
				"element": "O" 
			},
			{
				"x": -0.8962121559,
				"y": 0.6152574746,
				"z": 0.158314019,
				"element": "C" 
			},
			{
				"x": -0.085031561,
				"y": 1.4692820464,
				"z": -0.6264528184,
				"element": "C" 
			},
			{
				"x": 1.1977484928,
				"y": 2.5477167785,
				"z": 0.0257947674,
				"element": "S" 
			},
			{
				"x": 2.6080825228,
				"y": 1.3945846519,
				"z": 0.2338031928,
				"element": "C" 
			},
			{
				"x": -0.3665766798,
				"y": 1.5901070224,
				"z": -1.9932512483,
				"element": "C" 
			},
			{
				"x": -1.4075551946,
				"y": 0.8739999475,
				"z": -2.5853875218,
				"element": "C" 
			},
			{
				"x": -2.2023897222,
				"y": 0.0281651899,
				"z": -1.8120678573,
				"element": "C" 
			},
			{
				"x": -1.9482564062,
				"y": -0.0869881374,
				"z": -0.4498735248,
				"element": "C" 
			},
			{
				"x": -1.63615185,
				"y": 0.9755534373,
				"z": -4.0714491746,
				"element": "C" 
			},
			{
				"x": -0.9126146485,
				"y": 0.0517264338,
				"z": -4.7444179569,
				"element": "F" 
			},
			{
				"x": -2.9323952444,
				"y": 0.7709664858,
				"z": -4.3920278198,
				"element": "F" 
			},
			{
				"x": -1.2805922785,
				"y": 2.1845650458,
				"z": -4.5540418428,
				"element": "F" 
			},
			{
				"x": -1.1080657142,
				"y": -0.9659710986,
				"z": 3.8572442422,
				"element": "H" 
			},
			{
				"x": -1.2499606992,
				"y": 0.7748900371,
				"z": 4.1864786275,
				"element": "H" 
			},
			{
				"x": -2.7331791895,
				"y": -0.2248509755,
				"z": 4.0393576144,
				"element": "H" 
			},
			{
				"x": 2.8733389389,
				"y": 0.9322670338,
				"z": -0.719128257,
				"element": "H" 
			},
			{
				"x": 2.3647516313,
				"y": 0.6464280975,
				"z": 0.9865246504,
				"element": "H" 
			},
			{
				"x": 3.4426072981,
				"y": 2.0109320789,
				"z": 0.5770019353,
				"element": "H" 
			},
			{
				"x": 0.2349105862,
				"y": 2.2634522925,
				"z": -2.5926536888,
				"element": "H" 
			},
			{
				"x": -3.0188220536,
				"y": -0.5215166426,
				"z": -2.2670613534,
				"element": "H" 
			},
			{
				"x": -2.5718334131,
				"y": -0.7262757227,
				"z": 0.1637622983,
				"element": "H" 
			}
		],
		 "valence_orbital": [ 
			{
				"type": "occ",
				"energy": -0.31351,
				"method": "rhf"
			},
			{
				"type": "occ",
				"energy": -0.2899,
				"method": "rhf"
			},
			{
				"type": "occ",
				"energy": -0.27726,
				"method": "rhf"
			},
			{
				"type": "occ",
				"energy": -0.27227,
				"method": "rhf"
			},
			{
				"type": "occ",
				"energy": -0.22655,
				"method": "rhf"
			},
			{
				"type": "unocc",
				"energy": -0.06555,
				"method": "rhf"
			},
			{
				"type": "unocc",
				"energy": -0.03364,
				"method": "rhf"
			},
			{
				"type": "unocc",
				"energy": 0.02386,
				"method": "rhf"
			},
			{
				"type": "unocc",
				"energy": 0.04504,
				"method": "rhf"
			},
			{
				"type": "unocc",
				"energy": 0.0711,
				"method": "rhf"
			}
		],
		"cosmo_sigma_profile": { 
			"-0.025": 0.0,
			"-0.024": 0.0,
			"-0.023": 0.0,
			"-0.022": 0.0,
			"-0.021": 0.0,
			"-0.02": 0.0,
			"-0.019": 0.0,
			"-0.018": 0.0,
			"-0.017": 0.0,
			"-0.016": 0.0,
			"-0.015": 0.0,
			"-0.014": 0.0,
			"-0.013": 0.0,
			"-0.012": 0.0,
			"-0.011": 0.0,
			"-0.01": 0.0,
			"-0.009": 0.00957571709999,
			"-0.008": 1.42498902359,
			"-0.007": 5.47224509693,
			"-0.006": 14.1568679919,
			"-0.005": 15.5710817652,
			"-0.004": 19.1844697534,
			"-0.003": 19.1472218955,
			"-0.002": 19.5748020747,
			"-0.001": 23.5603349618,
			"0.0": 26.8369413365,
			"0.001": 25.1992605877,
			"0.002": 29.3926402027,
			"0.003": 26.2332544581,
			"0.004": 5.88857762348,
			"0.005": 5.9144340767,
			"0.006": 5.20129177391,
			"0.007": 4.53056041068,
			"0.008": 3.73414684837,
			"0.009": 4.07579888129,
			"0.01": 2.740447953,
			"0.011": 2.82564086879,
			"0.012": 0.440417951737,
			"0.013": 0.0,
			"0.014": 0.0,
			"0.015": 0.0,
			"0.016": 0.0,
			"0.017": 0.0,
			"0.018": 0.0,
			"0.019": 0.0,
			"0.02": 0.0,
			"0.021": 0.0,
			"0.022": 0.0,
			"0.023": 0.0,
			"0.024": 0.0,
			"0.025": 0.0
		}
	}
}
