{
	 "smiles": "FC(F)(F)COC(=O)NCC1=NN=C2CCCN12", 
	 "Tm": 405.15, 
	 "num_atms": 29, 
	 "gaussian": { 
		 "optdone": 1, 
		 "sigma_profile": "yes", 
		 "theory": "DFT", 
		 "functional": "B3LYP", 
		 "basiset": "6-31G**", 
		 "properties": { 
			 "R2extent": 5294.1185, 
			 "electric_dipole_moment_norm": 3.98438345293, 
			 "electric_quadrupole_moment_norm": 27.26900559, 
			 "total_energy": -1018.56855484, 
			 "HOMO_LUMO_gap": 0.25453, 
			 "cosmo_polarized_energy": -20.14, 
			 "cosmo_cavitation_energy": 34.18, 
			 "cosmo_dispersion_energy": -23.58, 
			 "cosmo_repulsion_energy": 1.78, 
			 "cosmo_total_nonelectrostatic_energy": 12.38, 
			 "SMD_solvation_energy": 4.09 
		},
		"coords": [
			{
				"x": -2.2782495512,
				"y": 1.1260061994,
				"z": -0.6649697586,
				"element": "F" 
			},
			{
				"x": -2.1768986786,
				"y": 2.4653822759,
				"z": -0.8153944901,
				"element": "C" 
			},
			{
				"x": -2.8425243002,
				"y": 2.812087769,
				"z": -1.9355739299,
				"element": "F" 
			},
			{
				"x": -2.7972752098,
				"y": 3.0364515445,
				"z": 0.2323988097,
				"element": "F" 
			},
			{
				"x": -0.7262539231,
				"y": 2.9076938576,
				"z": -0.9274426847,
				"element": "C" 
			},
			{
				"x": -0.0079710635,
				"y": 2.5089915927,
				"z": 0.2316692744,
				"element": "O" 
			},
			{
				"x": 0.6891843436,
				"y": 1.3298394355,
				"z": 0.115971244,
				"element": "C" 
			},
			{
				"x": 0.8305777627,
				"y": 0.7185460151,
				"z": -0.929411576,
				"element": "O" 
			},
			{
				"x": 1.2023788717,
				"y": 0.9800330808,
				"z": 1.3207110168,
				"element": "N" 
			},
			{
				"x": 1.8170248503,
				"y": -0.3317011704,
				"z": 1.5252599542,
				"element": "C" 
			},
			{
				"x": 0.859814973,
				"y": -1.3636300618,
				"z": 2.0378748909,
				"element": "C" 
			},
			{
				"x": 0.8009135593,
				"y": -1.7603727602,
				"z": 3.2965787488,
				"element": "N" 
			},
			{
				"x": -0.2312230303,
				"y": -2.676615142,
				"z": 3.4194058396,
				"element": "N" 
			},
			{
				"x": -0.7617341726,
				"y": -2.7884853176,
				"z": 2.2252156928,
				"element": "C" 
			},
			{
				"x": -1.8497857557,
				"y": -3.5760352027,
				"z": 1.5583001589,
				"element": "C" 
			},
			{
				"x": -1.9979597566,
				"y": -2.8226973652,
				"z": 0.2030541138,
				"element": "C" 
			},
			{
				"x": -0.6351435249,
				"y": -2.1203841266,
				"z": -0.0476616164,
				"element": "C" 
			},
			{
				"x": -0.12656464,
				"y": -1.9869857,
				"z": 1.3215029839,
				"element": "N" 
			},
			{
				"x": -0.6956934948,
				"y": 3.997531176,
				"z": -0.9782988659,
				"element": "H" 
			},
			{
				"x": -0.2899916376,
				"y": 2.4673529535,
				"z": -1.8256286543,
				"element": "H" 
			},
			{
				"x": 0.874893433,
				"y": 1.489676543,
				"z": 2.1295743228,
				"element": "H" 
			},
			{
				"x": 2.6170867828,
				"y": -0.2361248683,
				"z": 2.2622087884,
				"element": "H" 
			},
			{
				"x": 2.2543782323,
				"y": -0.6280529476,
				"z": 0.5693921892,
				"element": "H" 
			},
			{
				"x": -2.7759768927,
				"y": -3.5941728689,
				"z": 2.1373411302,
				"element": "H" 
			},
			{
				"x": -1.5350866249,
				"y": -4.616412867,
				"z": 1.4106310537,
				"element": "H" 
			},
			{
				"x": -2.7773412943,
				"y": -2.0598659661,
				"z": 0.2921200632,
				"element": "H" 
			},
			{
				"x": -2.2718470531,
				"y": -3.4831542806,
				"z": -0.622688023,
				"element": "H" 
			},
			{
				"x": -0.7273484753,
				"y": -1.1513867463,
				"z": -0.5380558829,
				"element": "H" 
			},
			{
				"x": 0.0498162705,
				"y": -2.7406150516,
				"z": -0.6374847936,
				"element": "H" 
			}
		],
		 "valence_orbital": [ 
			{
				"type": "occ",
				"energy": -0.29879,
				"method": "rhf"
			},
			{
				"type": "occ",
				"energy": -0.28489,
				"method": "rhf"
			},
			{
				"type": "occ",
				"energy": -0.27602,
				"method": "rhf"
			},
			{
				"type": "occ",
				"energy": -0.24624,
				"method": "rhf"
			},
			{
				"type": "occ",
				"energy": -0.2458,
				"method": "rhf"
			},
			{
				"type": "unocc",
				"energy": 0.00873,
				"method": "rhf"
			},
			{
				"type": "unocc",
				"energy": 0.03607,
				"method": "rhf"
			},
			{
				"type": "unocc",
				"energy": 0.04219,
				"method": "rhf"
			},
			{
				"type": "unocc",
				"energy": 0.07256,
				"method": "rhf"
			},
			{
				"type": "unocc",
				"energy": 0.08592,
				"method": "rhf"
			}
		],
		"cosmo_sigma_profile": { 
			"-0.025": 0.0,
			"-0.024": 0.0,
			"-0.023": 0.0,
			"-0.022": 0.0,
			"-0.021": 0.0,
			"-0.02": 0.0,
			"-0.019": 0.0,
			"-0.018": 0.0,
			"-0.017": 0.0,
			"-0.016": 0.107297979221,
			"-0.015": 0.865824787032,
			"-0.014": 1.27363846218,
			"-0.013": 0.523232492734,
			"-0.012": 0.999531126082,
			"-0.011": 0.894979148729,
			"-0.01": 1.76575113873,
			"-0.009": 3.79207393789,
			"-0.008": 3.88311465553,
			"-0.007": 8.91109886245,
			"-0.006": 16.3694999307,
			"-0.005": 23.2943038036,
			"-0.004": 24.9240836856,
			"-0.003": 21.1659755634,
			"-0.002": 20.9517328585,
			"-0.001": 15.2243220541,
			"0.0": 12.1647847467,
			"0.001": 14.1257336836,
			"0.002": 26.3915987623,
			"0.003": 21.9972178517,
			"0.004": 6.82300202529,
			"0.005": 4.12139903475,
			"0.006": 4.90226922942,
			"0.007": 4.00037806917,
			"0.008": 1.76184021067,
			"0.009": 2.52296528822,
			"0.01": 3.67675619927,
			"0.011": 3.85354716102,
			"0.012": 5.33749289556,
			"0.013": 2.12680240875,
			"0.014": 4.17273524168,
			"0.015": 3.24980898329,
			"0.016": 2.3459983417,
			"0.017": 2.35267727209,
			"0.018": 0.564974984479,
			"0.019": 0.0,
			"0.02": 0.0,
			"0.021": 0.0,
			"0.022": 0.0,
			"0.023": 0.0,
			"0.024": 0.0,
			"0.025": 0.0
		}
	}
}
