{
	 "smiles": "CC1=NC(CSCC(O)=O)=CS1", 
	 "Tm": 429.15, 
	 "num_atms": 21, 
	 "gaussian": { 
		 "optdone": 1, 
		 "sigma_profile": "yes", 
		 "theory": "DFT", 
		 "functional": "B3LYP", 
		 "basiset": "6-31G**", 
		 "properties": { 
			 "R2extent": 3463.8625, 
			 "electric_dipole_moment_norm": 7.01150034586, 
			 "electric_quadrupole_moment_norm": 22.2777680933, 
			 "total_energy": -1273.75542909, 
			 "HOMO_LUMO_gap": 0.18286, 
			 "cosmo_polarized_energy": -16.42, 
			 "cosmo_cavitation_energy": 27.82, 
			 "cosmo_dispersion_energy": -21.09, 
			 "cosmo_repulsion_energy": 1.59, 
			 "cosmo_total_nonelectrostatic_energy": 8.32, 
			 "SMD_solvation_energy": 4.98 
		},
		"coords": [
			{
				"x": 1.0194802355,
				"y": -1.921902062,
				"z": -1.5819137648,
				"element": "C" 
			},
			{
				"x": 0.7557436437,
				"y": -1.0529688446,
				"z": -0.3911577433,
				"element": "C" 
			},
			{
				"x": -0.166379118,
				"y": -0.1288585937,
				"z": -0.3485506767,
				"element": "N" 
			},
			{
				"x": -0.2087038459,
				"y": 0.5317575712,
				"z": 0.8641236703,
				"element": "C" 
			},
			{
				"x": -1.2253689218,
				"y": 1.6143357134,
				"z": 1.0791986032,
				"element": "C" 
			},
			{
				"x": -1.2320275803,
				"y": 2.9533803913,
				"z": -0.1920795845,
				"element": "S" 
			},
			{
				"x": -2.4809488265,
				"y": 2.3585395584,
				"z": -1.4145950762,
				"element": "C" 
			},
			{
				"x": -1.9437265864,
				"y": 1.8598197499,
				"z": -2.7638491186,
				"element": "C" 
			},
			{
				"x": -1.0829515857,
				"y": 0.8385931146,
				"z": -2.7423042827,
				"element": "O" 
			},
			{
				"x": -2.3260683504,
				"y": 2.3536510317,
				"z": -3.8008183704,
				"element": "O" 
			},
			{
				"x": 0.708933249,
				"y": 0.0959292153,
				"z": 1.7755385248,
				"element": "C" 
			},
			{
				"x": 1.6625771652,
				"y": -1.1881594362,
				"z": 1.1020595525,
				"element": "S" 
			},
			{
				"x": 2.0905483859,
				"y": -2.0093076128,
				"z": -1.7845879196,
				"element": "H" 
			},
			{
				"x": 0.5278674218,
				"y": -1.4883410064,
				"z": -2.4553765746,
				"element": "H" 
			},
			{
				"x": 0.6244513926,
				"y": -2.9320362066,
				"z": -1.4263395334,
				"element": "H" 
			},
			{
				"x": -1.0395495116,
				"y": 2.1114613135,
				"z": 2.0342600094,
				"element": "H" 
			},
			{
				"x": -2.2364093677,
				"y": 1.1954454958,
				"z": 1.1250063817,
				"element": "H" 
			},
			{
				"x": -3.0747288789,
				"y": 1.5698894031,
				"z": -0.9401591413,
				"element": "H" 
			},
			{
				"x": -3.1397453024,
				"y": 3.1994823864,
				"z": -1.6316101407,
				"element": "H" 
			},
			{
				"x": -0.844656697,
				"y": 0.5440371337,
				"z": -1.822679941,
				"element": "H" 
			},
			{
				"x": 0.8780630789,
				"y": 0.4525516838,
				"z": 2.7814351256,
				"element": "H" 
			}
		],
		 "valence_orbital": [ 
			{
				"type": "occ",
				"energy": -0.30793,
				"method": "rhf"
			},
			{
				"type": "occ",
				"energy": -0.28863,
				"method": "rhf"
			},
			{
				"type": "occ",
				"energy": -0.26287,
				"method": "rhf"
			},
			{
				"type": "occ",
				"energy": -0.2574,
				"method": "rhf"
			},
			{
				"type": "occ",
				"energy": -0.23123,
				"method": "rhf"
			},
			{
				"type": "unocc",
				"energy": -0.04837,
				"method": "rhf"
			},
			{
				"type": "unocc",
				"energy": -0.00754,
				"method": "rhf"
			},
			{
				"type": "unocc",
				"energy": 0.00048,
				"method": "rhf"
			},
			{
				"type": "unocc",
				"energy": 0.0129,
				"method": "rhf"
			},
			{
				"type": "unocc",
				"energy": 0.0458,
				"method": "rhf"
			}
		],
		"cosmo_sigma_profile": { 
			"-0.025": 0.0,
			"-0.024": 0.0,
			"-0.023": 0.0,
			"-0.022": 0.0,
			"-0.021": 0.0,
			"-0.02": 0.0,
			"-0.019": 0.0,
			"-0.018": 0.0,
			"-0.017": 0.0,
			"-0.016": 0.0,
			"-0.015": 0.0,
			"-0.014": 0.0,
			"-0.013": 0.0,
			"-0.012": 0.0,
			"-0.011": 0.0,
			"-0.01": 0.899991902017,
			"-0.009": 5.30125938006,
			"-0.008": 8.77818707776,
			"-0.007": 9.7847384127,
			"-0.006": 13.0458572639,
			"-0.005": 15.0760915452,
			"-0.004": 15.9002613726,
			"-0.003": 15.8952354412,
			"-0.002": 19.0858838624,
			"-0.001": 14.892423617,
			"0.0": 14.02651972,
			"0.001": 15.4617394868,
			"0.002": 16.3210164001,
			"0.003": 10.2609399988,
			"0.004": 6.04621938819,
			"0.005": 7.22448576905,
			"0.006": 5.06850177018,
			"0.007": 3.21703104486,
			"0.008": 5.77693236286,
			"0.009": 3.83570965293,
			"0.01": 3.07311885798,
			"0.011": 4.04028164541,
			"0.012": 7.26853999344,
			"0.013": 4.44832968087,
			"0.014": 1.1585257437,
			"0.015": 0.0,
			"0.016": 0.0,
			"0.017": 0.0,
			"0.018": 0.0,
			"0.019": 0.0,
			"0.02": 0.0,
			"0.021": 0.0,
			"0.022": 0.0,
			"0.023": 0.0,
			"0.024": 0.0,
			"0.025": 0.0
		}
	}
}
