{
	 "smiles": "CCOC(=O)C(=O)CC(=O)C1=C(OCC)C=CC=C1", 
	 "Tm": 365.15, 
	 "num_atms": 35, 
	 "gaussian": { 
		 "optdone": 1, 
		 "sigma_profile": "yes", 
		 "theory": "DFT", 
		 "functional": "B3LYP", 
		 "basiset": "6-31G**", 
		 "properties": { 
			 "R2extent": 5941.3691, 
			 "electric_dipole_moment_norm": 4.27384959609, 
			 "electric_quadrupole_moment_norm": 22.0298854981, 
			 "total_energy": -919.242640423, 
			 "HOMO_LUMO_gap": 0.15244, 
			 "cosmo_polarized_energy": -15.57, 
			 "cosmo_cavitation_energy": 39.32, 
			 "cosmo_dispersion_energy": -26.32, 
			 "cosmo_repulsion_energy": 2.09, 
			 "cosmo_total_nonelectrostatic_energy": 15.09, 
			 "SMD_solvation_energy": 9.11 
		},
		"coords": [
			{
				"x": -2.7101877117,
				"y": -3.686233566,
				"z": -0.6189311089,
				"element": "C" 
			},
			{
				"x": -1.2601111448,
				"y": -3.6412367953,
				"z": -0.179950559,
				"element": "C" 
			},
			{
				"x": -1.0861740282,
				"y": -2.4471601148,
				"z": 0.6253303901,
				"element": "O" 
			},
			{
				"x": 0.1442983413,
				"y": -2.2412728702,
				"z": 1.095866038,
				"element": "C" 
			},
			{
				"x": 1.1021727415,
				"y": -2.9622748595,
				"z": 0.9065861318,
				"element": "O" 
			},
			{
				"x": 0.230257574,
				"y": -0.9509549551,
				"z": 1.9446336431,
				"element": "C" 
			},
			{
				"x": -0.761656373,
				"y": -0.287976108,
				"z": 2.154225355,
				"element": "O" 
			},
			{
				"x": 1.6004489529,
				"y": -0.6501838038,
				"z": 2.525706051,
				"element": "C" 
			},
			{
				"x": 2.798197605,
				"y": -0.6937781264,
				"z": 1.5608564947,
				"element": "C" 
			},
			{
				"x": 3.8143282737,
				"y": -1.270987646,
				"z": 1.9061743188,
				"element": "O" 
			},
			{
				"x": 2.7159478345,
				"y": -0.0566853511,
				"z": 0.2054435681,
				"element": "C" 
			},
			{
				"x": 1.9376721759,
				"y": 1.0836818011,
				"z": -0.1054579276,
				"element": "C" 
			},
			{
				"x": 1.270343797,
				"y": 1.6708841552,
				"z": 0.9238780409,
				"element": "O" 
			},
			{
				"x": 0.3695027009,
				"y": 2.7539402064,
				"z": 0.6609151723,
				"element": "C" 
			},
			{
				"x": -0.2609165108,
				"y": 3.1534941351,
				"z": 1.9829393979,
				"element": "C" 
			},
			{
				"x": 1.9158807846,
				"y": 1.5742324371,
				"z": -1.4190780907,
				"element": "C" 
			},
			{
				"x": 2.6743867128,
				"y": 0.9514036464,
				"z": -2.4099357967,
				"element": "C" 
			},
			{
				"x": 3.4716737739,
				"y": -0.1542938343,
				"z": -2.1101991568,
				"element": "C" 
			},
			{
				"x": 3.4923181626,
				"y": -0.6395138343,
				"z": -0.8068367211,
				"element": "C" 
			},
			{
				"x": -3.379056155,
				"y": -3.7258613624,
				"z": 0.245179693,
				"element": "H" 
			},
			{
				"x": -2.9661941343,
				"y": -2.8046981725,
				"z": -1.2131446509,
				"element": "H" 
			},
			{
				"x": -2.8824585519,
				"y": -4.5772155997,
				"z": -1.2306298273,
				"element": "H" 
			},
			{
				"x": -0.5693743609,
				"y": -3.5920063992,
				"z": -1.0275667673,
				"element": "H" 
			},
			{
				"x": -0.9810141441,
				"y": -4.5106877527,
				"z": 0.4234942545,
				"element": "H" 
			},
			{
				"x": 1.8235782884,
				"y": -1.4053513935,
				"z": 3.287474613,
				"element": "H" 
			},
			{
				"x": 1.5399573535,
				"y": 0.330799066,
				"z": 3.0004316166,
				"element": "H" 
			},
			{
				"x": 0.9227783302,
				"y": 3.5922683697,
				"z": 0.2165520557,
				"element": "H" 
			},
			{
				"x": -0.3937335366,
				"y": 2.4275106278,
				"z": -0.0577998261,
				"element": "H" 
			},
			{
				"x": 0.5031087632,
				"y": 3.498807704,
				"z": 2.6857279714,
				"element": "H" 
			},
			{
				"x": -0.784762619,
				"y": 2.3015919698,
				"z": 2.4222929779,
				"element": "H" 
			},
			{
				"x": -0.9743510905,
				"y": 3.9678687969,
				"z": 1.8230691649,
				"element": "H" 
			},
			{
				"x": 1.3222411408,
				"y": 2.4445899258,
				"z": -1.6693250061,
				"element": "H" 
			},
			{
				"x": 2.6431195993,
				"y": 1.3437461774,
				"z": -3.4226494143,
				"element": "H" 
			},
			{
				"x": 4.0655275509,
				"y": -0.6318341396,
				"z": -2.8828616432,
				"element": "H" 
			},
			{
				"x": 4.0990499037,
				"y": -1.4971123341,
				"z": -0.5367104526,
				"element": "H" 
			}
		],
		 "valence_orbital": [ 
			{
				"type": "occ",
				"energy": -0.31268,
				"method": "rhf"
			},
			{
				"type": "occ",
				"energy": -0.2639,
				"method": "rhf"
			},
			{
				"type": "occ",
				"energy": -0.25654,
				"method": "rhf"
			},
			{
				"type": "occ",
				"energy": -0.2398,
				"method": "rhf"
			},
			{
				"type": "occ",
				"energy": -0.22964,
				"method": "rhf"
			},
			{
				"type": "unocc",
				"energy": -0.0772,
				"method": "rhf"
			},
			{
				"type": "unocc",
				"energy": -0.04555,
				"method": "rhf"
			},
			{
				"type": "unocc",
				"energy": 0.00337,
				"method": "rhf"
			},
			{
				"type": "unocc",
				"energy": 0.03191,
				"method": "rhf"
			},
			{
				"type": "unocc",
				"energy": 0.05601,
				"method": "rhf"
			}
		],
		"cosmo_sigma_profile": { 
			"-0.025": 0.0,
			"-0.024": 0.0,
			"-0.023": 0.0,
			"-0.022": 0.0,
			"-0.021": 0.0,
			"-0.02": 0.0,
			"-0.019": 0.0,
			"-0.018": 0.0,
			"-0.017": 0.0,
			"-0.016": 0.0,
			"-0.015": 0.0,
			"-0.014": 0.0,
			"-0.013": 0.0,
			"-0.012": 0.0,
			"-0.011": 0.0,
			"-0.01": 0.0852776219745,
			"-0.009": 1.22557439234,
			"-0.008": 2.23028863702,
			"-0.007": 5.63601984441,
			"-0.006": 16.8033735204,
			"-0.005": 28.9243188653,
			"-0.004": 36.6257392074,
			"-0.003": 28.5493662319,
			"-0.002": 23.0193599497,
			"-0.001": 24.7672332897,
			"0.0": 22.9808319045,
			"0.001": 17.1935284408,
			"0.002": 15.8329370784,
			"0.003": 15.9341086981,
			"0.004": 17.1099315808,
			"0.005": 9.73309683501,
			"0.006": 5.98457510407,
			"0.007": 5.96394436043,
			"0.008": 5.49538654497,
			"0.009": 7.03462910531,
			"0.01": 7.99738293216,
			"0.011": 6.73167902103,
			"0.012": 4.77741157308,
			"0.013": 0.491131217146,
			"0.014": 0.0,
			"0.015": 0.0,
			"0.016": 0.0,
			"0.017": 0.0,
			"0.018": 0.0,
			"0.019": 0.0,
			"0.02": 0.0,
			"0.021": 0.0,
			"0.022": 0.0,
			"0.023": 0.0,
			"0.024": 0.0,
			"0.025": 0.0
		}
	}
}
