{
	 "smiles": "CN1C(S)=NN=C1CC1=CC=CS1", 
	 "Tm": 432.15, 
	 "num_atms": 22, 
	 "gaussian": { 
		 "optdone": 1, 
		 "sigma_profile": "yes", 
		 "theory": "DFT", 
		 "functional": "B3LYP", 
		 "basiset": "6-31G**", 
		 "properties": { 
			 "R2extent": 3936.4987, 
			 "electric_dipole_moment_norm": 5.15770497896, 
			 "electric_quadrupole_moment_norm": 14.5402288641, 
			 "total_energy": -1270.86346999, 
			 "HOMO_LUMO_gap": 0.20674, 
			 "cosmo_polarized_energy": -16.92, 
			 "cosmo_cavitation_energy": 29.34, 
			 "cosmo_dispersion_energy": -21.73, 
			 "cosmo_repulsion_energy": 1.63, 
			 "cosmo_total_nonelectrostatic_energy": 9.24, 
			 "SMD_solvation_energy": 2.36 
		},
		"coords": [
			{
				"x": -1.3659356266,
				"y": 0.8324963487,
				"z": -1.8598623849,
				"element": "C" 
			},
			{
				"x": -1.3932243754,
				"y": -0.6185189521,
				"z": -1.7402916335,
				"element": "N" 
			},
			{
				"x": -1.5251451643,
				"y": -1.5357318604,
				"z": -2.7513586301,
				"element": "C" 
			},
			{
				"x": -1.6640825335,
				"y": -1.0608839766,
				"z": -4.4488631057,
				"element": "S" 
			},
			{
				"x": -1.5333758941,
				"y": -2.762846784,
				"z": -2.2866983459,
				"element": "N" 
			},
			{
				"x": -1.4051068459,
				"y": -2.6670653879,
				"z": -0.9137024224,
				"element": "N" 
			},
			{
				"x": -1.3279539062,
				"y": -1.3952231062,
				"z": -0.6000979921,
				"element": "C" 
			},
			{
				"x": -1.1920658435,
				"y": -0.8778942564,
				"z": 0.8010511668,
				"element": "C" 
			},
			{
				"x": 0.0990624335,
				"y": -0.1563678995,
				"z": 1.1037261642,
				"element": "C" 
			},
			{
				"x": 0.2579409526,
				"y": 1.0678343144,
				"z": 1.7017479385,
				"element": "C" 
			},
			{
				"x": 1.6259461737,
				"y": 1.4414444373,
				"z": 1.8810186835,
				"element": "C" 
			},
			{
				"x": 2.4927918859,
				"y": 0.4943081631,
				"z": 1.4139412315,
				"element": "C" 
			},
			{
				"x": 1.6535907923,
				"y": -0.871814701,
				"z": 0.7487216873,
				"element": "S" 
			},
			{
				"x": -0.7645148316,
				"y": 1.1180384928,
				"z": -2.7266826482,
				"element": "H" 
			},
			{
				"x": -2.376335636,
				"y": 1.237571151,
				"z": -1.9774012173,
				"element": "H" 
			},
			{
				"x": -0.9044659933,
				"y": 1.2549044166,
				"z": -0.9671639588,
				"element": "H" 
			},
			{
				"x": -1.6402730127,
				"y": -2.3377223049,
				"z": -4.8746195866,
				"element": "H" 
			},
			{
				"x": -1.3056769289,
				"y": -1.756925557,
				"z": 1.4447303713,
				"element": "H" 
			},
			{
				"x": -2.0205003751,
				"y": -0.2002891045,
				"z": 1.0433968312,
				"element": "H" 
			},
			{
				"x": -0.5814798216,
				"y": 1.6801874336,
				"z": 2.0156448317,
				"element": "H" 
			},
			{
				"x": 1.94406004,
				"y": 2.3731845107,
				"z": 2.3347672444,
				"element": "H" 
			},
			{
				"x": 3.5738445108,
				"y": 0.5145146222,
				"z": 1.4134957749,
				"element": "H" 
			}
		],
		 "valence_orbital": [ 
			{
				"type": "occ",
				"energy": -0.28808,
				"method": "rhf"
			},
			{
				"type": "occ",
				"energy": -0.25758,
				"method": "rhf"
			},
			{
				"type": "occ",
				"energy": -0.25291,
				"method": "rhf"
			},
			{
				"type": "occ",
				"energy": -0.23879,
				"method": "rhf"
			},
			{
				"type": "occ",
				"energy": -0.22714,
				"method": "rhf"
			},
			{
				"type": "unocc",
				"energy": -0.0204,
				"method": "rhf"
			},
			{
				"type": "unocc",
				"energy": 0.00548,
				"method": "rhf"
			},
			{
				"type": "unocc",
				"energy": 0.01275,
				"method": "rhf"
			},
			{
				"type": "unocc",
				"energy": 0.0314,
				"method": "rhf"
			},
			{
				"type": "unocc",
				"energy": 0.04427,
				"method": "rhf"
			}
		],
		"cosmo_sigma_profile": { 
			"-0.025": 0.0,
			"-0.024": 0.0,
			"-0.023": 0.0,
			"-0.022": 0.0,
			"-0.021": 0.0,
			"-0.02": 0.0,
			"-0.019": 0.0,
			"-0.018": 0.0,
			"-0.017": 0.0,
			"-0.016": 0.0,
			"-0.015": 0.0,
			"-0.014": 0.0,
			"-0.013": 0.0854414528999,
			"-0.012": 1.36615810782,
			"-0.011": 1.45242279413,
			"-0.01": 1.25884331613,
			"-0.009": 1.26751792946,
			"-0.008": 3.53946380868,
			"-0.007": 12.816812814,
			"-0.006": 18.814262662,
			"-0.005": 19.4537997884,
			"-0.004": 20.447520464,
			"-0.003": 15.2840199879,
			"-0.002": 14.1326774143,
			"-0.001": 12.3034162083,
			"0.0": 11.9236029531,
			"0.001": 15.285432641,
			"0.002": 16.7523060479,
			"0.003": 14.3733353846,
			"0.004": 16.6970013483,
			"0.005": 11.128492148,
			"0.006": 5.51657687235,
			"0.007": 3.36673341656,
			"0.008": 2.13425542837,
			"0.009": 1.22958989189,
			"0.01": 1.56951749382,
			"0.011": 1.95715865754,
			"0.012": 3.01967166327,
			"0.013": 3.33827629714,
			"0.014": 2.80994511184,
			"0.015": 2.73470105179,
			"0.016": 2.26116930191,
			"0.017": 0.999031241585,
			"0.018": 0.0,
			"0.019": 0.0,
			"0.02": 0.0,
			"0.021": 0.0,
			"0.022": 0.0,
			"0.023": 0.0,
			"0.024": 0.0,
			"0.025": 0.0
		}
	}
}
