{
	 "smiles": "C1CNC2=C(SC1)C=CC=C2", 
	 "Tm": 296.15, 
	 "num_atms": 22, 
	 "gaussian": { 
		 "optdone": 1, 
		 "sigma_profile": "yes", 
		 "theory": "DFT", 
		 "functional": "B3LYP", 
		 "basiset": "6-31G**", 
		 "properties": { 
			 "R2extent": 2170.509, 
			 "electric_dipole_moment_norm": 2.81112743397, 
			 "electric_quadrupole_moment_norm": 7.98404582965, 
			 "total_energy": -802.525081456, 
			 "HOMO_LUMO_gap": 0.1962, 
			 "cosmo_polarized_energy": -9.12, 
			 "cosmo_cavitation_energy": 25.05, 
			 "cosmo_dispersion_energy": -19.48, 
			 "cosmo_repulsion_energy": 1.5, 
			 "cosmo_total_nonelectrostatic_energy": 7.07, 
			 "SMD_solvation_energy": 2.32 
		},
		"coords": [
			{
				"x": -1.2393248815,
				"y": 0.9653488126,
				"z": 2.8435760023,
				"element": "C" 
			},
			{
				"x": -0.0947887175,
				"y": -0.029706546,
				"z": 3.0471420314,
				"element": "C" 
			},
			{
				"x": 0.0706745089,
				"y": -1.00863076,
				"z": 1.9608959965,
				"element": "N" 
			},
			{
				"x": 0.8641064351,
				"y": -0.70371501,
				"z": 0.8387935735,
				"element": "C" 
			},
			{
				"x": 0.5443553075,
				"y": 0.3494241715,
				"z": -0.0507729355,
				"element": "C" 
			},
			{
				"x": -0.9692041357,
				"y": 1.2919133515,
				"z": 0.035941127,
				"element": "S" 
			},
			{
				"x": -0.9900964205,
				"y": 1.9848586637,
				"z": 1.7357252497,
				"element": "C" 
			},
			{
				"x": 1.3636079271,
				"y": 0.580064305,
				"z": -1.1666000745,
				"element": "C" 
			},
			{
				"x": 2.462463698,
				"y": -0.2300787396,
				"z": -1.4441662761,
				"element": "C" 
			},
			{
				"x": 2.7678821395,
				"y": -1.282945687,
				"z": -0.5806486459,
				"element": "C" 
			},
			{
				"x": 1.9874686607,
				"y": -1.5001028549,
				"z": 0.5509277687,
				"element": "C" 
			},
			{
				"x": -1.3784769624,
				"y": 1.5117449589,
				"z": 3.7872544602,
				"element": "H" 
			},
			{
				"x": -2.1640721006,
				"y": 0.4145828147,
				"z": 2.6406794503,
				"element": "H" 
			},
			{
				"x": 0.8411803687,
				"y": 0.5243741423,
				"z": 3.2303029399,
				"element": "H" 
			},
			{
				"x": -0.3036609284,
				"y": -0.6076384636,
				"z": 3.9534615478,
				"element": "H" 
			},
			{
				"x": 0.354748442,
				"y": -1.9012176781,
				"z": 2.345330855,
				"element": "H" 
			},
			{
				"x": -0.0582348774,
				"y": 2.5352556976,
				"z": 1.9049319645,
				"element": "H" 
			},
			{
				"x": -1.8030709574,
				"y": 2.7172488354,
				"z": 1.701912887,
				"element": "H" 
			},
			{
				"x": 1.1104609886,
				"y": 1.4007821661,
				"z": -1.8307434818,
				"element": "H" 
			},
			{
				"x": 3.0729721555,
				"y": -0.0378119663,
				"z": -2.3210300313,
				"element": "H" 
			},
			{
				"x": 3.6233175287,
				"y": -1.9237840767,
				"z": -0.7744705665,
				"element": "H" 
			},
			{
				"x": 2.243091821,
				"y": -2.3061661371,
				"z": 1.2358561576,
				"element": "H" 
			}
		],
		 "valence_orbital": [ 
			{
				"type": "occ",
				"energy": -0.30597,
				"method": "rhf"
			},
			{
				"type": "occ",
				"energy": -0.27959,
				"method": "rhf"
			},
			{
				"type": "occ",
				"energy": -0.25615,
				"method": "rhf"
			},
			{
				"type": "occ",
				"energy": -0.21667,
				"method": "rhf"
			},
			{
				"type": "occ",
				"energy": -0.20285,
				"method": "rhf"
			},
			{
				"type": "unocc",
				"energy": -0.00665,
				"method": "rhf"
			},
			{
				"type": "unocc",
				"energy": 0.00501,
				"method": "rhf"
			},
			{
				"type": "unocc",
				"energy": 0.0609,
				"method": "rhf"
			},
			{
				"type": "unocc",
				"energy": 0.07423,
				"method": "rhf"
			},
			{
				"type": "unocc",
				"energy": 0.0851,
				"method": "rhf"
			}
		],
		"cosmo_sigma_profile": { 
			"-0.025": 0.0,
			"-0.024": 0.0,
			"-0.023": 0.0,
			"-0.022": 0.0,
			"-0.021": 0.0,
			"-0.02": 0.0,
			"-0.019": 0.0,
			"-0.018": 0.0,
			"-0.017": 0.0,
			"-0.016": 0.0,
			"-0.015": 0.0,
			"-0.014": 0.0,
			"-0.013": 0.0,
			"-0.012": 0.764671847515,
			"-0.011": 1.8821050858,
			"-0.01": 1.19228175637,
			"-0.009": 1.61749793984,
			"-0.008": 1.75001133657,
			"-0.007": 2.15082136968,
			"-0.006": 5.88249064899,
			"-0.005": 13.0954371322,
			"-0.004": 18.3139131461,
			"-0.003": 24.794213973,
			"-0.002": 21.0328582957,
			"-0.001": 16.8787367317,
			"0.0": 10.8358131907,
			"0.001": 7.9793708568,
			"0.002": 9.04565070258,
			"0.003": 9.82212940233,
			"0.004": 10.3336786507,
			"0.005": 12.9956495209,
			"0.006": 12.5291709946,
			"0.007": 4.20994162453,
			"0.008": 3.28342997503,
			"0.009": 2.59623108178,
			"0.01": 2.19772911922,
			"0.011": 1.01779804795,
			"0.012": 1.17386456931,
			"0.013": 1.09778823814,
			"0.014": 0.672939816534,
			"0.015": 0.239435621397,
			"0.016": 0.0,
			"0.017": 0.0,
			"0.018": 0.0,
			"0.019": 0.0,
			"0.02": 0.0,
			"0.021": 0.0,
			"0.022": 0.0,
			"0.023": 0.0,
			"0.024": 0.0,
			"0.025": 0.0
		}
	}
}
