{
	 "smiles": "CN1C=NC2=C(C(C)=C(S2)C(O)=O)C1=O", 
	 "Tm": 489.15, 
	 "num_atms": 23, 
	 "gaussian": { 
		 "optdone": 1, 
		 "sigma_profile": "yes", 
		 "theory": "DFT", 
		 "functional": "B3LYP", 
		 "basiset": "6-31G**", 
		 "properties": { 
			 "R2extent": 4425.4742, 
			 "electric_dipole_moment_norm": 3.47145832324, 
			 "electric_quadrupole_moment_norm": 29.4262339342, 
			 "total_energy": -1081.17601051, 
			 "HOMO_LUMO_gap": 0.16107, 
			 "cosmo_polarized_energy": -16.16, 
			 "cosmo_cavitation_energy": 28.89, 
			 "cosmo_dispersion_energy": -22.0, 
			 "cosmo_repulsion_energy": 1.64, 
			 "cosmo_total_nonelectrostatic_energy": 8.52, 
			 "SMD_solvation_energy": 5.15 
		},
		"coords": [
			{
				"x": 2.4744795122,
				"y": 2.0790270411,
				"z": -1.5732399707,
				"element": "C" 
			},
			{
				"x": 1.9761227818,
				"y": 1.4805240369,
				"z": -0.3329113417,
				"element": "N" 
			},
			{
				"x": 2.5980633398,
				"y": 1.711578768,
				"z": 0.8606720184,
				"element": "C" 
			},
			{
				"x": 2.2322622891,
				"y": 1.2271315191,
				"z": 2.0109489987,
				"element": "N" 
			},
			{
				"x": 1.1311634235,
				"y": 0.4289829477,
				"z": 1.9654391092,
				"element": "C" 
			},
			{
				"x": 0.3918712452,
				"y": 0.1025440965,
				"z": 0.8220187564,
				"element": "C" 
			},
			{
				"x": -0.7211981087,
				"y": -0.7637237932,
				"z": 1.092055605,
				"element": "C" 
			},
			{
				"x": -1.673912264,
				"y": -1.2632171824,
				"z": 0.0371816488,
				"element": "C" 
			},
			{
				"x": -0.7832708979,
				"y": -1.0631816202,
				"z": 2.4414720013,
				"element": "C" 
			},
			{
				"x": 0.4876656865,
				"y": -0.3111939368,
				"z": 3.3935993677,
				"element": "S" 
			},
			{
				"x": -1.7229258766,
				"y": -1.8943225138,
				"z": 3.2000429331,
				"element": "C" 
			},
			{
				"x": -2.6927208771,
				"y": -2.4609685923,
				"z": 2.4393375725,
				"element": "O" 
			},
			{
				"x": -1.6549667902,
				"y": -2.0714803983,
				"z": 4.4033535905,
				"element": "O" 
			},
			{
				"x": 0.8191495455,
				"y": 0.6555365397,
				"z": -0.4532281333,
				"element": "C" 
			},
			{
				"x": 0.3164334125,
				"y": 0.4955484425,
				"z": -1.5601885354,
				"element": "O" 
			},
			{
				"x": 2.7313905781,
				"y": 1.2941615606,
				"z": -2.2874736632,
				"element": "H" 
			},
			{
				"x": 1.6995414881,
				"y": 2.703759803,
				"z": -2.0219540424,
				"element": "H" 
			},
			{
				"x": 3.3553250752,
				"y": 2.6815100266,
				"z": -1.3485143387,
				"element": "H" 
			},
			{
				"x": 3.4706681806,
				"y": 2.3591321774,
				"z": 0.8169072567,
				"element": "H" 
			},
			{
				"x": -1.3897959896,
				"y": -0.8719435669,
				"z": -0.9381325239,
				"element": "H" 
			},
			{
				"x": -1.6755566722,
				"y": -2.3564850675,
				"z": 0.0047449182,
				"element": "H" 
			},
			{
				"x": -2.6989642579,
				"y": -0.9589760876,
				"z": 0.2673454805,
				"element": "H" 
			},
			{
				"x": -3.236324824,
				"y": -2.9759442001,
				"z": 3.0589232925,
				"element": "H" 
			}
		],
		 "valence_orbital": [ 
			{
				"type": "occ",
				"energy": -0.29369,
				"method": "rhf"
			},
			{
				"type": "occ",
				"energy": -0.28333,
				"method": "rhf"
			},
			{
				"type": "occ",
				"energy": -0.27171,
				"method": "rhf"
			},
			{
				"type": "occ",
				"energy": -0.26374,
				"method": "rhf"
			},
			{
				"type": "occ",
				"energy": -0.23111,
				"method": "rhf"
			},
			{
				"type": "unocc",
				"energy": -0.07004,
				"method": "rhf"
			},
			{
				"type": "unocc",
				"energy": -0.02911,
				"method": "rhf"
			},
			{
				"type": "unocc",
				"energy": -0.00329,
				"method": "rhf"
			},
			{
				"type": "unocc",
				"energy": 0.01966,
				"method": "rhf"
			},
			{
				"type": "unocc",
				"energy": 0.0742,
				"method": "rhf"
			}
		],
		"cosmo_sigma_profile": { 
			"-0.025": 0.0,
			"-0.024": 0.0,
			"-0.023": 0.0,
			"-0.022": 0.0,
			"-0.021": 0.0,
			"-0.02": 0.0,
			"-0.019": 0.105147766263,
			"-0.018": 0.912308269817,
			"-0.017": 1.03101493675,
			"-0.016": 0.979419642238,
			"-0.015": 0.383850709982,
			"-0.014": 0.403911649716,
			"-0.013": 0.383113048203,
			"-0.012": 1.20054310891,
			"-0.011": 3.96215273734,
			"-0.01": 3.16350584733,
			"-0.009": 2.65967328528,
			"-0.008": 3.43348796139,
			"-0.007": 4.29743256238,
			"-0.006": 7.69075087542,
			"-0.005": 11.4563588458,
			"-0.004": 19.8277686223,
			"-0.003": 15.6570793193,
			"-0.002": 13.6686108369,
			"-0.001": 22.5277714442,
			"0.0": 24.0118606179,
			"0.001": 17.4090228096,
			"0.002": 13.4250259966,
			"0.003": 10.8843027603,
			"0.004": 7.02296814611,
			"0.005": 7.28146987797,
			"0.006": 5.80417819692,
			"0.007": 3.65917030821,
			"0.008": 4.16580929908,
			"0.009": 4.05025696839,
			"0.01": 4.96680041712,
			"0.011": 7.35663965831,
			"0.012": 7.68220438045,
			"0.013": 1.5636416166,
			"0.014": 0.32370147794,
			"0.015": 0.0,
			"0.016": 0.0,
			"0.017": 0.0,
			"0.018": 0.0,
			"0.019": 0.0,
			"0.02": 0.0,
			"0.021": 0.0,
			"0.022": 0.0,
			"0.023": 0.0,
			"0.024": 0.0,
			"0.025": 0.0
		}
	}
}
