{
	 "smiles": "CC1=NN(CC2=CC(=CC=C2)C(O)=O)C(C)=C1", 
	 "Tm": 494.15, 
	 "num_atms": 31, 
	 "gaussian": { 
		 "optdone": 1, 
		 "sigma_profile": "yes", 
		 "theory": "DFT", 
		 "functional": "B3LYP", 
		 "basiset": "6-31G**", 
		 "properties": { 
			 "R2extent": 4839.9472, 
			 "electric_dipole_moment_norm": 6.08962234954, 
			 "electric_quadrupole_moment_norm": 25.5862336337, 
			 "total_energy": -763.778483834, 
			 "HOMO_LUMO_gap": 0.18837, 
			 "cosmo_polarized_energy": -17.25, 
			 "cosmo_cavitation_energy": 35.33, 
			 "cosmo_dispersion_energy": -24.2, 
			 "cosmo_repulsion_energy": 1.89, 
			 "cosmo_total_nonelectrostatic_energy": 13.03, 
			 "SMD_solvation_energy": 6.38 
		},
		"coords": [
			{
				"x": 2.3111024105,
				"y": -2.1864504156,
				"z": 2.8072468259,
				"element": "C" 
			},
			{
				"x": 1.4797225845,
				"y": -2.0342975134,
				"z": 1.5693364906,
				"element": "C" 
			},
			{
				"x": 0.3924503132,
				"y": -1.2606582783,
				"z": 1.576083808,
				"element": "N" 
			},
			{
				"x": -0.1283325148,
				"y": -1.3669899603,
				"z": 0.3229581723,
				"element": "N" 
			},
			{
				"x": -1.2787596573,
				"y": -0.5501741168,
				"z": -0.0310994607,
				"element": "C" 
			},
			{
				"x": -0.9090799187,
				"y": 0.8229574166,
				"z": -0.5701632732,
				"element": "C" 
			},
			{
				"x": 0.0101091278,
				"y": 1.6209070316,
				"z": 0.1214292184,
				"element": "C" 
			},
			{
				"x": 0.3456854749,
				"y": 2.8950147225,
				"z": -0.3476014706,
				"element": "C" 
			},
			{
				"x": -0.2660182195,
				"y": 3.3895046683,
				"z": -1.5092834852,
				"element": "C" 
			},
			{
				"x": -1.1779191754,
				"y": 2.6012304082,
				"z": -2.2024279217,
				"element": "C" 
			},
			{
				"x": -1.4941557258,
				"y": 1.3204926328,
				"z": -1.7376545064,
				"element": "C" 
			},
			{
				"x": 1.3243040591,
				"y": 3.7908580643,
				"z": 0.3556669493,
				"element": "C" 
			},
			{
				"x": 2.158216872,
				"y": 3.2076731803,
				"z": 1.2546919258,
				"element": "O" 
			},
			{
				"x": 1.3946717837,
				"y": 4.9803886635,
				"z": 0.1501515351,
				"element": "O" 
			},
			{
				"x": 0.6188048131,
				"y": -2.1777210845,
				"z": -0.4849479788,
				"element": "C" 
			},
			{
				"x": 0.2743431803,
				"y": -2.4518487807,
				"z": -1.9148212378,
				"element": "C" 
			},
			{
				"x": 1.6641994108,
				"y": -2.6327308669,
				"z": 0.2989539484,
				"element": "C" 
			},
			{
				"x": 3.3529077412,
				"y": -1.8970517896,
				"z": 2.6294323269,
				"element": "H" 
			},
			{
				"x": 2.3187018991,
				"y": -3.2242848512,
				"z": 3.158971962,
				"element": "H" 
			},
			{
				"x": 1.9089698071,
				"y": -1.5587086279,
				"z": 3.6057426793,
				"element": "H" 
			},
			{
				"x": -1.8740180854,
				"y": -0.454622679,
				"z": 0.8817553925,
				"element": "H" 
			},
			{
				"x": -1.8828096638,
				"y": -1.0918956125,
				"z": -0.7642519871,
				"element": "H" 
			},
			{
				"x": 0.4267438738,
				"y": 1.2207529829,
				"z": 1.0429391081,
				"element": "H" 
			},
			{
				"x": -0.0071312088,
				"y": 4.3875855045,
				"z": -1.8451228522,
				"element": "H" 
			},
			{
				"x": -1.6433804159,
				"y": 2.9778518377,
				"z": -3.1083376779,
				"element": "H" 
			},
			{
				"x": -2.2069008628,
				"y": 0.7082312128,
				"z": -2.2851518456,
				"element": "H" 
			},
			{
				"x": 2.0761945296,
				"y": 2.2443560802,
				"z": 1.219613996,
				"element": "H" 
			},
			{
				"x": -0.7022258407,
				"y": -2.9408642477,
				"z": -2.0159050895,
				"element": "H" 
			},
			{
				"x": 1.0225476534,
				"y": -3.1152818473,
				"z": -2.3535165598,
				"element": "H" 
			},
			{
				"x": 0.2477630505,
				"y": -1.533633908,
				"z": -2.5127247263,
				"element": "H" 
			},
			{
				"x": 2.4461927042,
				"y": -3.3138898265,
				"z": -0.0053642655,
				"element": "H" 
			}
		],
		 "valence_orbital": [ 
			{
				"type": "occ",
				"energy": -0.27517,
				"method": "rhf"
			},
			{
				"type": "occ",
				"energy": -0.26995,
				"method": "rhf"
			},
			{
				"type": "occ",
				"energy": -0.26344,
				"method": "rhf"
			},
			{
				"type": "occ",
				"energy": -0.24073,
				"method": "rhf"
			},
			{
				"type": "occ",
				"energy": -0.2393,
				"method": "rhf"
			},
			{
				"type": "unocc",
				"energy": -0.05093,
				"method": "rhf"
			},
			{
				"type": "unocc",
				"energy": -0.02616,
				"method": "rhf"
			},
			{
				"type": "unocc",
				"energy": 0.01623,
				"method": "rhf"
			},
			{
				"type": "unocc",
				"energy": 0.04892,
				"method": "rhf"
			},
			{
				"type": "unocc",
				"energy": 0.06535,
				"method": "rhf"
			}
		],
		"cosmo_sigma_profile": { 
			"-0.025": 0.0,
			"-0.024": 0.0,
			"-0.023": 0.0,
			"-0.022": 0.0,
			"-0.021": 0.0,
			"-0.02": 0.0,
			"-0.019": 0.0,
			"-0.018": 0.0,
			"-0.017": 0.315773814926,
			"-0.016": 0.895066479564,
			"-0.015": 1.58705064363,
			"-0.014": 0.763392804497,
			"-0.013": 0.732772485185,
			"-0.012": 1.374150027,
			"-0.011": 0.842974290437,
			"-0.01": 0.856771050258,
			"-0.009": 1.5289325755,
			"-0.008": 1.81501041243,
			"-0.007": 7.70929378381,
			"-0.006": 13.0542737048,
			"-0.005": 17.7717023804,
			"-0.004": 22.5404853252,
			"-0.003": 25.1640450476,
			"-0.002": 23.6774794018,
			"-0.001": 25.6078965619,
			"0.0": 22.4151162916,
			"0.001": 16.4107776028,
			"0.002": 17.1858670851,
			"0.003": 19.1896365248,
			"0.004": 9.713337081,
			"0.005": 7.77279612481,
			"0.006": 7.99739734818,
			"0.007": 4.04912333381,
			"0.008": 4.32220211695,
			"0.009": 3.89672498407,
			"0.01": 5.82579108406,
			"0.011": 6.48239035143,
			"0.012": 5.12749504985,
			"0.013": 2.76026404439,
			"0.014": 0.764122449389,
			"0.015": 0.411078468724,
			"0.016": 0.459522900236,
			"0.017": 0.0,
			"0.018": 0.0,
			"0.019": 0.0,
			"0.02": 0.0,
			"0.021": 0.0,
			"0.022": 0.0,
			"0.023": 0.0,
			"0.024": 0.0,
			"0.025": 0.0
		}
	}
}
