{
	 "smiles": "NC1=NC(=CS1)C1=CC=C(C=C1)C#N", 
	 "Tm": 541.15, 
	 "num_atms": 21, 
	 "gaussian": { 
		 "optdone": 1, 
		 "sigma_profile": "yes", 
		 "theory": "DFT", 
		 "functional": "B3LYP", 
		 "basiset": "6-31G**", 
		 "properties": { 
			 "R2extent": 4889.4408, 
			 "electric_dipole_moment_norm": 7.04133866392, 
			 "electric_quadrupole_moment_norm": 24.9686434369, 
			 "total_energy": -947.711052104, 
			 "HOMO_LUMO_gap": 0.1542, 
			 "cosmo_polarized_energy": -15.8, 
			 "cosmo_cavitation_energy": 28.7, 
			 "cosmo_dispersion_energy": -21.29, 
			 "cosmo_repulsion_energy": 1.62, 
			 "cosmo_total_nonelectrostatic_energy": 9.03, 
			 "SMD_solvation_energy": 4.94 
		},
		"coords": [
			{
				"x": -1.4567873223,
				"y": 2.4323163935,
				"z": 3.2602394715,
				"element": "N" 
			},
			{
				"x": -0.6476809671,
				"y": 1.5123698328,
				"z": 2.6389757623,
				"element": "C" 
			},
			{
				"x": -1.0795715631,
				"y": 0.5775186116,
				"z": 1.8475557936,
				"element": "N" 
			},
			{
				"x": -0.0461096373,
				"y": -0.2499804296,
				"z": 1.4292098165,
				"element": "C" 
			},
			{
				"x": 1.1928949646,
				"y": 0.0779484824,
				"z": 1.9120094966,
				"element": "C" 
			},
			{
				"x": 1.0950789998,
				"y": 1.4689651607,
				"z": 2.9559730291,
				"element": "S" 
			},
			{
				"x": -0.3605021303,
				"y": -1.3684306431,
				"z": 0.522885641,
				"element": "C" 
			},
			{
				"x": 0.632848811,
				"y": -2.2420829639,
				"z": 0.0437200399,
				"element": "C" 
			},
			{
				"x": 0.3140917881,
				"y": -3.2890594796,
				"z": -0.8092717936,
				"element": "C" 
			},
			{
				"x": -1.0192482446,
				"y": -3.4913568977,
				"z": -1.2090455518,
				"element": "C" 
			},
			{
				"x": -2.0193896388,
				"y": -2.6253957882,
				"z": -0.7362890064,
				"element": "C" 
			},
			{
				"x": -1.6901760127,
				"y": -1.5800182704,
				"z": 0.1172818462,
				"element": "C" 
			},
			{
				"x": -1.3520466389,
				"y": -4.570742216,
				"z": -2.0901160283,
				"element": "C" 
			},
			{
				"x": -1.6214388318,
				"y": -5.4476735098,
				"z": -2.8063034776,
				"element": "N" 
			},
			{
				"x": -2.3865272361,
				"y": 2.4797113451,
				"z": 2.864679109,
				"element": "H" 
			},
			{
				"x": -1.0530624457,
				"y": 3.3309927067,
				"z": 3.4809754275,
				"element": "H" 
			},
			{
				"x": 2.1468820118,
				"y": -0.3917238377,
				"z": 1.7271999229,
				"element": "H" 
			},
			{
				"x": 1.6681239569,
				"y": -2.1057506734,
				"z": 0.3387859259,
				"element": "H" 
			},
			{
				"x": 1.0890313095,
				"y": -3.9560135881,
				"z": -1.1720199986,
				"element": "H" 
			},
			{
				"x": -3.0489410774,
				"y": -2.7791688058,
				"z": -1.0422775512,
				"element": "H" 
			},
			{
				"x": -2.4567700954,
				"y": -0.9088254293,
				"z": 0.4856321253,
				"element": "H" 
			}
		],
		 "valence_orbital": [ 
			{
				"type": "occ",
				"energy": -0.29534,
				"method": "rhf"
			},
			{
				"type": "occ",
				"energy": -0.28691,
				"method": "rhf"
			},
			{
				"type": "occ",
				"energy": -0.27039,
				"method": "rhf"
			},
			{
				"type": "occ",
				"energy": -0.26032,
				"method": "rhf"
			},
			{
				"type": "occ",
				"energy": -0.21572,
				"method": "rhf"
			},
			{
				"type": "unocc",
				"energy": -0.06152,
				"method": "rhf"
			},
			{
				"type": "unocc",
				"energy": -0.0201,
				"method": "rhf"
			},
			{
				"type": "unocc",
				"energy": -0.00585,
				"method": "rhf"
			},
			{
				"type": "unocc",
				"energy": -0.00058,
				"method": "rhf"
			},
			{
				"type": "unocc",
				"energy": 0.04264,
				"method": "rhf"
			}
		],
		"cosmo_sigma_profile": { 
			"-0.025": 0.0,
			"-0.024": 0.0,
			"-0.023": 0.0,
			"-0.022": 0.0,
			"-0.021": 0.0,
			"-0.02": 0.0,
			"-0.019": 0.0,
			"-0.018": 0.0,
			"-0.017": 0.0,
			"-0.016": 0.0,
			"-0.015": 0.642038446851,
			"-0.014": 2.30364017319,
			"-0.013": 2.87951346344,
			"-0.012": 2.32642096989,
			"-0.011": 3.27375615422,
			"-0.01": 3.01368303562,
			"-0.009": 4.89960710878,
			"-0.008": 6.49511220684,
			"-0.007": 9.14466871458,
			"-0.006": 9.40061570785,
			"-0.005": 10.5619550487,
			"-0.004": 9.01921912328,
			"-0.003": 9.27469780682,
			"-0.002": 9.64816823892,
			"-0.001": 13.32308689,
			"0.0": 15.3354610483,
			"0.001": 18.6378330675,
			"0.002": 28.7875372482,
			"0.003": 24.8588600964,
			"0.004": 9.79260990228,
			"0.005": 5.12463331645,
			"0.006": 5.75430418896,
			"0.007": 4.72116885346,
			"0.008": 5.10122289367,
			"0.009": 6.1292143094,
			"0.01": 5.32624017174,
			"0.011": 4.15783493024,
			"0.012": 2.45270007957,
			"0.013": 1.82921851211,
			"0.014": 0.189896188803,
			"0.015": 0.0,
			"0.016": 0.0,
			"0.017": 0.0,
			"0.018": 0.0,
			"0.019": 0.0,
			"0.02": 0.0,
			"0.021": 0.0,
			"0.022": 0.0,
			"0.023": 0.0,
			"0.024": 0.0,
			"0.025": 0.0
		}
	}
}
