{
	 "smiles": "CC1=CC(=NN1)C(O)=O", 
	 "Tm": 515.15, 
	 "num_atms": 15, 
	 "gaussian": { 
		 "optdone": 1, 
		 "sigma_profile": "yes", 
		 "theory": "DFT", 
		 "functional": "B3LYP", 
		 "basiset": "6-31G**", 
		 "properties": { 
			 "R2extent": 1387.8977, 
			 "electric_dipole_moment_norm": 7.00891522349, 
			 "electric_quadrupole_moment_norm": 7.85272545553, 
			 "total_energy": -454.097681856, 
			 "HOMO_LUMO_gap": 0.23105, 
			 "cosmo_polarized_energy": -16.27, 
			 "cosmo_cavitation_energy": 19.81, 
			 "cosmo_dispersion_energy": -14.92, 
			 "cosmo_repulsion_energy": 1.25, 
			 "cosmo_total_nonelectrostatic_energy": 6.14, 
			 "SMD_solvation_energy": 4.24 
		},
		"coords": [
			{
				"x": -0.2667435683,
				"y": -0.0511085264,
				"z": -2.6960776347,
				"element": "C" 
			},
			{
				"x": -0.2008923599,
				"y": 0.1264594503,
				"z": -1.2128599129,
				"element": "C" 
			},
			{
				"x": 0.7996015473,
				"y": -0.1288491832,
				"z": -0.2941376247,
				"element": "C" 
			},
			{
				"x": 0.2560181284,
				"y": 0.2483343167,
				"z": 0.9540360174,
				"element": "C" 
			},
			{
				"x": -0.9930257078,
				"y": 0.7072894851,
				"z": 0.8325006362,
				"element": "N" 
			},
			{
				"x": -1.2469387281,
				"y": 0.6241898847,
				"z": -0.4837658032,
				"element": "N" 
			},
			{
				"x": 0.8938206611,
				"y": 0.1884692045,
				"z": 2.2945136649,
				"element": "C" 
			},
			{
				"x": 0.109606627,
				"y": 0.6256411877,
				"z": 3.3051736339,
				"element": "O" 
			},
			{
				"x": 2.0191093514,
				"y": -0.2139165461,
				"z": 2.479481439,
				"element": "O" 
			},
			{
				"x": -1.0666156331,
				"y": -0.7415092935,
				"z": -2.987105548,
				"element": "H" 
			},
			{
				"x": -0.4417426532,
				"y": 0.9001818206,
				"z": -3.2114086599,
				"element": "H" 
			},
			{
				"x": 0.6767218332,
				"y": -0.4602437213,
				"z": -3.0621766468,
				"element": "H" 
			},
			{
				"x": 1.7837507789,
				"y": -0.528993022,
				"z": -0.4813675011,
				"element": "H" 
			},
			{
				"x": -2.1480440545,
				"y": 0.9199349294,
				"z": -0.8294141048,
				"element": "H" 
			},
			{
				"x": -0.7450262224,
				"y": 0.8991200137,
				"z": 2.9264080446,
				"element": "H" 
			}
		],
		 "valence_orbital": [ 
			{
				"type": "occ",
				"energy": -0.32178,
				"method": "rhf"
			},
			{
				"type": "occ",
				"energy": -0.30453,
				"method": "rhf"
			},
			{
				"type": "occ",
				"energy": -0.27466,
				"method": "rhf"
			},
			{
				"type": "occ",
				"energy": -0.26442,
				"method": "rhf"
			},
			{
				"type": "occ",
				"energy": -0.26182,
				"method": "rhf"
			},
			{
				"type": "unocc",
				"energy": -0.03077,
				"method": "rhf"
			},
			{
				"type": "unocc",
				"energy": 0.01666,
				"method": "rhf"
			},
			{
				"type": "unocc",
				"energy": 0.05938,
				"method": "rhf"
			},
			{
				"type": "unocc",
				"energy": 0.09902,
				"method": "rhf"
			},
			{
				"type": "unocc",
				"energy": 0.107,
				"method": "rhf"
			}
		],
		"cosmo_sigma_profile": { 
			"-0.025": 0.0,
			"-0.024": 0.0,
			"-0.023": 0.0,
			"-0.022": 0.0,
			"-0.021": 0.0,
			"-0.02": 0.0,
			"-0.019": 0.0,
			"-0.018": 0.139373661311,
			"-0.017": 1.41851113432,
			"-0.016": 1.08170083978,
			"-0.015": 1.71423334755,
			"-0.014": 1.39426946995,
			"-0.013": 1.27494614865,
			"-0.012": 1.70904889047,
			"-0.011": 1.84696810076,
			"-0.01": 1.70832290714,
			"-0.009": 1.83195480651,
			"-0.008": 2.12908511954,
			"-0.007": 3.35359945204,
			"-0.006": 7.93102720773,
			"-0.005": 10.5213745922,
			"-0.004": 9.69119541012,
			"-0.003": 10.3473589779,
			"-0.002": 11.7095004998,
			"-0.001": 10.9650301777,
			"0.0": 7.34190640105,
			"0.001": 7.69758573786,
			"0.002": 10.0238590541,
			"0.003": 7.55631831434,
			"0.004": 6.11366989561,
			"0.005": 4.17954910045,
			"0.006": 3.75281650102,
			"0.007": 3.65696061384,
			"0.008": 4.0100906092,
			"0.009": 4.41349287775,
			"0.01": 5.18167487477,
			"0.011": 4.89024015761,
			"0.012": 5.79036914809,
			"0.013": 2.22760572,
			"0.014": 0.214475046763,
			"0.015": 0.0,
			"0.016": 0.0,
			"0.017": 0.0,
			"0.018": 0.0,
			"0.019": 0.0,
			"0.02": 0.0,
			"0.021": 0.0,
			"0.022": 0.0,
			"0.023": 0.0,
			"0.024": 0.0,
			"0.025": 0.0
		}
	}
}
