{
	 "smiles": "NCC(CC(O)=O)C1=CC=C(Cl)C=C1", 
	 "Tm": 481.15, 
	 "num_atms": 26, 
	 "gaussian": { 
		 "optdone": 1, 
		 "sigma_profile": "yes", 
		 "theory": "DFT", 
		 "functional": "B3LYP", 
		 "basiset": "6-31G**", 
		 "properties": { 
			 "R2extent": 5221.3596, 
			 "electric_dipole_moment_norm": 2.75672592036, 
			 "electric_quadrupole_moment_norm": 14.6065420103, 
			 "total_energy": -1053.70392307, 
			 "HOMO_LUMO_gap": 0.20534, 
			 "cosmo_polarized_energy": -14.29, 
			 "cosmo_cavitation_energy": 30.98, 
			 "cosmo_dispersion_energy": -21.98, 
			 "cosmo_repulsion_energy": 1.76, 
			 "cosmo_total_nonelectrostatic_energy": 10.76, 
			 "SMD_solvation_energy": 4.37 
		},
		"coords": [
			{
				"x": 0.0399844512,
				"y": -0.4813808437,
				"z": 2.7556397909,
				"element": "N" 
			},
			{
				"x": -0.8032350789,
				"y": -0.8009429612,
				"z": 1.6124544281,
				"element": "C" 
			},
			{
				"x": -0.7925882174,
				"y": 0.2002315428,
				"z": 0.4185043198,
				"element": "C" 
			},
			{
				"x": 0.6323743496,
				"y": 0.6328776931,
				"z": -0.0306013659,
				"element": "C" 
			},
			{
				"x": 1.5348863442,
				"y": -0.4964685873,
				"z": -0.4717795957,
				"element": "C" 
			},
			{
				"x": 1.9850824088,
				"y": -0.3406716697,
				"z": -1.7354644694,
				"element": "O" 
			},
			{
				"x": 1.8534820444,
				"y": -1.4468476444,
				"z": 0.2173952336,
				"element": "O" 
			},
			{
				"x": -1.6446339148,
				"y": -0.2957771411,
				"z": -0.739837725,
				"element": "C" 
			},
			{
				"x": -1.4126088085,
				"y": -1.5389105537,
				"z": -1.3499765275,
				"element": "C" 
			},
			{
				"x": -2.1991669317,
				"y": -1.9840386462,
				"z": -2.4118301369,
				"element": "C" 
			},
			{
				"x": -3.2394031253,
				"y": -1.1791456881,
				"z": -2.8739232305,
				"element": "C" 
			},
			{
				"x": -4.2373091833,
				"y": -1.7342596544,
				"z": -4.2118280982,
				"element": "Cl" 
			},
			{
				"x": -3.5001199175,
				"y": 0.0574439385,
				"z": -2.2879873777,
				"element": "C" 
			},
			{
				"x": -2.7008242808,
				"y": 0.4852329082,
				"z": -1.2275708522,
				"element": "C" 
			},
			{
				"x": -0.0955810904,
				"y": 0.4756530429,
				"z": 3.070948709,
				"element": "H" 
			},
			{
				"x": 1.0177600393,
				"y": -0.6024590765,
				"z": 2.5075347636,
				"element": "H" 
			},
			{
				"x": -0.507697057,
				"y": -1.7932296285,
				"z": 1.2641711143,
				"element": "H" 
			},
			{
				"x": -1.843667562,
				"y": -0.885566278,
				"z": 1.9499340394,
				"element": "H" 
			},
			{
				"x": -1.2549989959,
				"y": 1.1284962771,
				"z": 0.7813944276,
				"element": "H" 
			},
			{
				"x": 1.1283372042,
				"y": 1.1018786358,
				"z": 0.8271739326,
				"element": "H" 
			},
			{
				"x": 0.5603359567,
				"y": 1.3767524839,
				"z": -0.8265340231,
				"element": "H" 
			},
			{
				"x": 2.5631612939,
				"y": -1.1020992731,
				"z": -1.9161843961,
				"element": "H" 
			},
			{
				"x": -0.6105903019,
				"y": -2.1789859714,
				"z": -0.9952229019,
				"element": "H" 
			},
			{
				"x": -2.010322846,
				"y": -2.9466068788,
				"z": -2.8743555035,
				"element": "H" 
			},
			{
				"x": -4.3142624819,
				"y": 0.6735364619,
				"z": -2.6535808923,
				"element": "H" 
			},
			{
				"x": -2.9067942989,
				"y": 1.450287512,
				"z": -0.7711736629,
				"element": "H" 
			}
		],
		 "valence_orbital": [ 
			{
				"type": "occ",
				"energy": -0.31198,
				"method": "rhf"
			},
			{
				"type": "occ",
				"energy": -0.28532,
				"method": "rhf"
			},
			{
				"type": "occ",
				"energy": -0.26468,
				"method": "rhf"
			},
			{
				"type": "occ",
				"energy": -0.24852,
				"method": "rhf"
			},
			{
				"type": "occ",
				"energy": -0.22711,
				"method": "rhf"
			},
			{
				"type": "unocc",
				"energy": -0.02177,
				"method": "rhf"
			},
			{
				"type": "unocc",
				"energy": -0.015,
				"method": "rhf"
			},
			{
				"type": "unocc",
				"energy": -0.00021,
				"method": "rhf"
			},
			{
				"type": "unocc",
				"energy": 0.02945,
				"method": "rhf"
			},
			{
				"type": "unocc",
				"energy": 0.06818,
				"method": "rhf"
			}
		],
		"cosmo_sigma_profile": { 
			"-0.025": 0.0,
			"-0.024": 0.0,
			"-0.023": 0.0,
			"-0.022": 0.0,
			"-0.021": 0.0,
			"-0.02": 0.0,
			"-0.019": 0.00310708154684,
			"-0.018": 0.613864072574,
			"-0.017": 1.11254066505,
			"-0.016": 0.964588666354,
			"-0.015": 0.361451969175,
			"-0.014": 0.957956708824,
			"-0.013": 0.705674626983,
			"-0.012": 0.60632502396,
			"-0.011": 0.896860535641,
			"-0.01": 1.1027250671,
			"-0.009": 1.7483736578,
			"-0.008": 2.33611021799,
			"-0.007": 8.11426355205,
			"-0.006": 16.2272593182,
			"-0.005": 17.9114168111,
			"-0.004": 16.5965157425,
			"-0.003": 17.3491237237,
			"-0.002": 15.8477203488,
			"-0.001": 14.0017414933,
			"0.0": 13.675464157,
			"0.001": 14.6556615948,
			"0.002": 18.9375673219,
			"0.003": 18.381539777,
			"0.004": 22.5221145715,
			"0.005": 13.0527327393,
			"0.006": 3.89395581788,
			"0.007": 2.91192826952,
			"0.008": 3.38329235092,
			"0.009": 3.63912226738,
			"0.01": 3.28590379344,
			"0.011": 3.13917142122,
			"0.012": 2.89842277711,
			"0.013": 0.568631554327,
			"0.014": 0.301682305868,
			"0.015": 0.819304988945,
			"0.016": 1.01961656686,
			"0.017": 0.520869969652,
			"0.018": 0.706255735255,
			"0.019": 0.411075060418,
			"0.02": 0.190959019112,
			"0.021": 0.0,
			"0.022": 0.0,
			"0.023": 0.0,
			"0.024": 0.0,
			"0.025": 0.0
		}
	}
}
