{
	 "smiles": "CN1C(=O)N(C=C(C(N)=S)C1=O)C1=CC=CC=C1", 
	 "Tm": 503.15, 
	 "num_atms": 29, 
	 "gaussian": { 
		 "optdone": 1, 
		 "sigma_profile": "yes", 
		 "theory": "DFT", 
		 "functional": "B3LYP", 
		 "basiset": "6-31G**", 
		 "properties": { 
			 "R2extent": 5586.7845, 
			 "electric_dipole_moment_norm": 2.94154274659, 
			 "electric_quadrupole_moment_norm": 24.6937899602, 
			 "total_energy": -1176.84596694, 
			 "HOMO_LUMO_gap": 0.13806, 
			 "cosmo_polarized_energy": -17.26, 
			 "cosmo_cavitation_energy": 34.74, 
			 "cosmo_dispersion_energy": -25.69, 
			 "cosmo_repulsion_energy": 1.92, 
			 "cosmo_total_nonelectrostatic_energy": 10.98, 
			 "SMD_solvation_energy": 6.41 
		},
		"coords": [
			{
				"x": -1.1646604728,
				"y": 2.9136814083,
				"z": 0.257343486,
				"element": "C" 
			},
			{
				"x": -0.3215521525,
				"y": 1.7271835306,
				"z": 0.0491317047,
				"element": "N" 
			},
			{
				"x": -0.9916188849,
				"y": 0.5110245855,
				"z": 0.1223401641,
				"element": "C" 
			},
			{
				"x": -2.1856769062,
				"y": 0.4356538572,
				"z": 0.3421766823,
				"element": "O" 
			},
			{
				"x": -0.1799367717,
				"y": -0.6286758642,
				"z": -0.0790648208,
				"element": "N" 
			},
			{
				"x": 1.1547977998,
				"y": -0.5111316072,
				"z": -0.3217974827,
				"element": "C" 
			},
			{
				"x": 1.821750254,
				"y": 0.6771541281,
				"z": -0.3838763571,
				"element": "C" 
			},
			{
				"x": 3.2862370206,
				"y": 0.669266179,
				"z": -0.6574053896,
				"element": "C" 
			},
			{
				"x": 3.8645351411,
				"y": 1.8757032074,
				"z": -0.7189543143,
				"element": "N" 
			},
			{
				"x": 4.1709262546,
				"y": -0.7467624965,
				"z": -0.8726463457,
				"element": "S" 
			},
			{
				"x": 1.0567318958,
				"y": 1.9078723144,
				"z": -0.1865580552,
				"element": "C" 
			},
			{
				"x": 1.5201833874,
				"y": 3.0511130842,
				"z": -0.2176792624,
				"element": "O" 
			},
			{
				"x": -0.769781544,
				"y": -1.9423719781,
				"z": 0.0410552855,
				"element": "C" 
			},
			{
				"x": -0.1717685446,
				"y": -2.8730853136,
				"z": 0.8933779309,
				"element": "C" 
			},
			{
				"x": -0.6990409536,
				"y": -4.1618804528,
				"z": 0.9825412231,
				"element": "C" 
			},
			{
				"x": -1.8254517474,
				"y": -4.5107728874,
				"z": 0.2373414929,
				"element": "C" 
			},
			{
				"x": -2.423354457,
				"y": -3.5681416963,
				"z": -0.6025636139,
				"element": "C" 
			},
			{
				"x": -1.898166824,
				"y": -2.2816998614,
				"z": -0.708998991,
				"element": "C" 
			},
			{
				"x": -1.626266395,
				"y": 2.8683548916,
				"z": 1.2456342179,
				"element": "H" 
			},
			{
				"x": -0.5263041549,
				"y": 3.7885595935,
				"z": 0.1707666976,
				"element": "H" 
			},
			{
				"x": -1.9570306939,
				"y": 2.9367690293,
				"z": -0.4931402271,
				"element": "H" 
			},
			{
				"x": 1.7038940369,
				"y": -1.4330339438,
				"z": -0.4829063797,
				"element": "H" 
			},
			{
				"x": 4.8566286187,
				"y": 1.9155848905,
				"z": -0.8979085049,
				"element": "H" 
			},
			{
				"x": 3.3003421336,
				"y": 2.711725793,
				"z": -0.5768842064,
				"element": "H" 
			},
			{
				"x": 0.6926071041,
				"y": -2.5899848127,
				"z": 1.486065812,
				"element": "H" 
			},
			{
				"x": -0.2315918483,
				"y": -4.8862647306,
				"z": 1.6421538537,
				"element": "H" 
			},
			{
				"x": -2.2383389896,
				"y": -5.5121270566,
				"z": 0.3118893031,
				"element": "H" 
			},
			{
				"x": -3.3005448382,
				"y": -3.8349124669,
				"z": -1.1838891491,
				"element": "H" 
			},
			{
				"x": -2.359247468,
				"y": -1.5469013246,
				"z": -1.3571447537,
				"element": "H" 
			}
		],
		 "valence_orbital": [ 
			{
				"type": "occ",
				"energy": -0.28137,
				"method": "rhf"
			},
			{
				"type": "occ",
				"energy": -0.27002,
				"method": "rhf"
			},
			{
				"type": "occ",
				"energy": -0.25266,
				"method": "rhf"
			},
			{
				"type": "occ",
				"energy": -0.21705,
				"method": "rhf"
			},
			{
				"type": "occ",
				"energy": -0.208,
				"method": "rhf"
			},
			{
				"type": "unocc",
				"energy": -0.06994,
				"method": "rhf"
			},
			{
				"type": "unocc",
				"energy": -0.03659,
				"method": "rhf"
			},
			{
				"type": "unocc",
				"energy": -0.0222,
				"method": "rhf"
			},
			{
				"type": "unocc",
				"energy": -0.01929,
				"method": "rhf"
			},
			{
				"type": "unocc",
				"energy": 0.01828,
				"method": "rhf"
			}
		],
		"cosmo_sigma_profile": { 
			"-0.025": 0.0,
			"-0.024": 0.0,
			"-0.023": 0.0,
			"-0.022": 0.0,
			"-0.021": 0.0,
			"-0.02": 0.0,
			"-0.019": 0.0,
			"-0.018": 0.0,
			"-0.017": 0.0,
			"-0.016": 0.0,
			"-0.015": 0.533179987327,
			"-0.014": 0.864459644297,
			"-0.013": 1.32829386276,
			"-0.012": 0.375162505653,
			"-0.011": 1.49123718389,
			"-0.01": 2.31263578406,
			"-0.009": 1.36114006451,
			"-0.008": 4.07288672275,
			"-0.007": 11.0133438423,
			"-0.006": 22.0547876961,
			"-0.005": 23.3643504651,
			"-0.004": 24.7152669268,
			"-0.003": 22.0685365819,
			"-0.002": 18.2150894383,
			"-0.001": 14.6749051406,
			"0.0": 13.3731646873,
			"0.001": 14.1137185146,
			"0.002": 14.1260017915,
			"0.003": 14.1928899452,
			"0.004": 16.3574751185,
			"0.005": 7.06067664428,
			"0.006": 7.18718470205,
			"0.007": 5.86377327185,
			"0.008": 8.3029793288,
			"0.009": 9.574386071,
			"0.01": 11.4587582373,
			"0.011": 7.60925757517,
			"0.012": 3.77119915693,
			"0.013": 0.0479074092502,
			"0.014": 0.0,
			"0.015": 0.0,
			"0.016": 0.0,
			"0.017": 0.0,
			"0.018": 0.0,
			"0.019": 0.0,
			"0.02": 0.0,
			"0.021": 0.0,
			"0.022": 0.0,
			"0.023": 0.0,
			"0.024": 0.0,
			"0.025": 0.0
		}
	}
}
