{
	 "smiles": "COC1=CC(Cl)=CC=C1CO", 
	 "Tm": 320.15, 
	 "num_atms": 20, 
	 "gaussian": { 
		 "optdone": 1, 
		 "sigma_profile": "yes", 
		 "theory": "DFT", 
		 "functional": "B3LYP", 
		 "basiset": "6-31G**", 
		 "properties": { 
			 "R2extent": 3425.1976, 
			 "electric_dipole_moment_norm": 2.41833720974, 
			 "electric_quadrupole_moment_norm": 14.2491360271, 
			 "total_energy": -920.89472631, 
			 "HOMO_LUMO_gap": 0.21455, 
			 "cosmo_polarized_energy": -9.11, 
			 "cosmo_cavitation_energy": 25.39, 
			 "cosmo_dispersion_energy": -18.9, 
			 "cosmo_repulsion_energy": 1.54, 
			 "cosmo_total_nonelectrostatic_energy": 8.03, 
			 "SMD_solvation_energy": 4.86 
		},
		"coords": [
			{
				"x": 3.0984863736,
				"y": 0.7153976751,
				"z": -1.304143438,
				"element": "C" 
			},
			{
				"x": 2.0584673152,
				"y": 0.7628486757,
				"z": -0.3380841458,
				"element": "O" 
			},
			{
				"x": 1.5879330339,
				"y": -0.4126913747,
				"z": 0.1747944537,
				"element": "C" 
			},
			{
				"x": 2.0851677068,
				"y": -1.6699844833,
				"z": -0.1794418625,
				"element": "C" 
			},
			{
				"x": 1.532066376,
				"y": -2.8044320484,
				"z": 0.4196701786,
				"element": "C" 
			},
			{
				"x": 2.1629108869,
				"y": -4.3854868876,
				"z": -0.0315252424,
				"element": "Cl" 
			},
			{
				"x": 0.5084658652,
				"y": -2.714597516,
				"z": 1.3538565848,
				"element": "C" 
			},
			{
				"x": 0.027565192,
				"y": -1.4447218366,
				"z": 1.6894782657,
				"element": "C" 
			},
			{
				"x": 0.541849629,
				"y": -0.2872262026,
				"z": 1.1124610337,
				"element": "C" 
			},
			{
				"x": 0.0117521406,
				"y": 1.0863070353,
				"z": 1.4807802995,
				"element": "C" 
			},
			{
				"x": -1.2170314267,
				"y": 1.0471977836,
				"z": 2.1908658974,
				"element": "O" 
			},
			{
				"x": 3.3039117342,
				"y": 1.7517291104,
				"z": -1.5756677967,
				"element": "H" 
			},
			{
				"x": 4.0090659167,
				"y": 0.2619335341,
				"z": -0.8930936201,
				"element": "H" 
			},
			{
				"x": 2.7921392441,
				"y": 0.1601453322,
				"z": -2.199605678,
				"element": "H" 
			},
			{
				"x": 2.8835199378,
				"y": -1.7832422352,
				"z": -0.9005817981,
				"element": "H" 
			},
			{
				"x": 0.098510674,
				"y": -3.6080807779,
				"z": 1.8099135487,
				"element": "H" 
			},
			{
				"x": -0.7671427798,
				"y": -1.3411689301,
				"z": 2.4211336461,
				"element": "H" 
			},
			{
				"x": 0.7212261002,
				"y": 1.5952809021,
				"z": 2.1438503004,
				"element": "H" 
			},
			{
				"x": -0.0608997078,
				"y": 1.7058669578,
				"z": 0.5757629886,
				"element": "H" 
			},
			{
				"x": -1.890064212,
				"y": 0.702925286,
				"z": 1.5887763843,
				"element": "H" 
			}
		],
		 "valence_orbital": [ 
			{
				"type": "occ",
				"energy": -0.31026,
				"method": "rhf"
			},
			{
				"type": "occ",
				"energy": -0.30978,
				"method": "rhf"
			},
			{
				"type": "occ",
				"energy": -0.27744,
				"method": "rhf"
			},
			{
				"type": "occ",
				"energy": -0.24881,
				"method": "rhf"
			},
			{
				"type": "occ",
				"energy": -0.22476,
				"method": "rhf"
			},
			{
				"type": "unocc",
				"energy": -0.01021,
				"method": "rhf"
			},
			{
				"type": "unocc",
				"energy": 0.00043,
				"method": "rhf"
			},
			{
				"type": "unocc",
				"energy": 0.03104,
				"method": "rhf"
			},
			{
				"type": "unocc",
				"energy": 0.07934,
				"method": "rhf"
			},
			{
				"type": "unocc",
				"energy": 0.09545,
				"method": "rhf"
			}
		],
		"cosmo_sigma_profile": { 
			"-0.025": 0.0,
			"-0.024": 0.0,
			"-0.023": 0.0,
			"-0.022": 0.0,
			"-0.021": 0.0,
			"-0.02": 0.0,
			"-0.019": 0.0,
			"-0.018": 0.0,
			"-0.017": 0.0,
			"-0.016": 0.285087391904,
			"-0.015": 0.914737262945,
			"-0.014": 1.12348178365,
			"-0.013": 0.863097593473,
			"-0.012": 0.362692694248,
			"-0.011": 1.18007984429,
			"-0.01": 0.870123226508,
			"-0.009": 1.05147991639,
			"-0.008": 1.41808380902,
			"-0.007": 4.15926042719,
			"-0.006": 10.1165080289,
			"-0.005": 16.0477108333,
			"-0.004": 17.0299671407,
			"-0.003": 14.6456410917,
			"-0.002": 11.1463609784,
			"-0.001": 11.7164275522,
			"0.0": 10.9485913257,
			"0.001": 13.3206243594,
			"0.002": 16.8770650082,
			"0.003": 18.64776296,
			"0.004": 20.3729686876,
			"0.005": 13.9948092232,
			"0.006": 3.86655482211,
			"0.007": 2.64864505901,
			"0.008": 2.02964420571,
			"0.009": 0.771624773003,
			"0.01": 1.15214398639,
			"0.011": 1.14863370551,
			"0.012": 1.53242158597,
			"0.013": 1.75612820097,
			"0.014": 1.57222359427,
			"0.015": 0.00921046623978,
			"0.016": 0.0,
			"0.017": 0.0,
			"0.018": 0.0,
			"0.019": 0.0,
			"0.02": 0.0,
			"0.021": 0.0,
			"0.022": 0.0,
			"0.023": 0.0,
			"0.024": 0.0,
			"0.025": 0.0
		}
	}
}
