{
	 "smiles": "O=C1CCCCC1C1=CCCCC1", 
	 "Tm": 195.15, 
	 "num_atms": 31, 
	 "gaussian": { 
		 "optdone": 1, 
		 "sigma_profile": "yes", 
		 "theory": "DFT", 
		 "functional": "B3LYP", 
		 "basiset": "6-31G**", 
		 "properties": { 
			 "R2extent": 2831.1247, 
			 "electric_dipole_moment_norm": 2.77859179622, 
			 "electric_quadrupole_moment_norm": 12.0002015129, 
			 "total_energy": -543.353625002, 
			 "HOMO_LUMO_gap": 0.20922, 
			 "cosmo_polarized_energy": -6.47, 
			 "cosmo_cavitation_energy": 30.13, 
			 "cosmo_dispersion_energy": -21.98, 
			 "cosmo_repulsion_energy": 1.76, 
			 "cosmo_total_nonelectrostatic_energy": 9.91, 
			 "SMD_solvation_energy": 4.29 
		},
		"coords": [
			{
				"x": 3.2542580787,
				"y": 0.278556832,
				"z": -0.440853209,
				"element": "O" 
			},
			{
				"x": 2.1157995413,
				"y": -0.1478489846,
				"z": -0.4967679999,
				"element": "C" 
			},
			{
				"x": 1.4732645692,
				"y": -0.5821061621,
				"z": -1.8053945943,
				"element": "C" 
			},
			{
				"x": 0.8768781519,
				"y": -2.0000504531,
				"z": -1.6951355972,
				"element": "C" 
			},
			{
				"x": -0.0952434662,
				"y": -2.0974640939,
				"z": -0.5122517854,
				"element": "C" 
			},
			{
				"x": 0.5854473905,
				"y": -1.6823915824,
				"z": 0.8029568108,
				"element": "C" 
			},
			{
				"x": 1.2376725096,
				"y": -0.2791238669,
				"z": 0.7628333327,
				"element": "C" 
			},
			{
				"x": 0.2940243546,
				"y": 0.9215520563,
				"z": 0.8608543685,
				"element": "C" 
			},
			{
				"x": -1.0321713498,
				"y": 0.8185301427,
				"z": 1.0318609919,
				"element": "C" 
			},
			{
				"x": -1.9728032113,
				"y": 1.9927628132,
				"z": 1.1637590938,
				"element": "C" 
			},
			{
				"x": -1.3181136156,
				"y": 3.3250690112,
				"z": 0.773735702,
				"element": "C" 
			},
			{
				"x": 0.0988021306,
				"y": 3.4124378875,
				"z": 1.3504483384,
				"element": "C" 
			},
			{
				"x": 0.9772440922,
				"y": 2.2787149614,
				"z": 0.8048965522,
				"element": "C" 
			},
			{
				"x": 0.6644552986,
				"y": 0.127114638,
				"z": -2.0323382153,
				"element": "H" 
			},
			{
				"x": 2.2227265075,
				"y": -0.5074027808,
				"z": -2.5975863327,
				"element": "H" 
			},
			{
				"x": 1.6924402598,
				"y": -2.7237155015,
				"z": -1.5627891715,
				"element": "H" 
			},
			{
				"x": 0.3742722525,
				"y": -2.2636067884,
				"z": -2.6325682789,
				"element": "H" 
			},
			{
				"x": -0.4727475611,
				"y": -3.1227125265,
				"z": -0.4197134687,
				"element": "H" 
			},
			{
				"x": -0.9640639352,
				"y": -1.4585863773,
				"z": -0.708290124,
				"element": "H" 
			},
			{
				"x": -0.1172195885,
				"y": -1.738304198,
				"z": 1.641720752,
				"element": "H" 
			},
			{
				"x": 1.3787643968,
				"y": -2.4085306379,
				"z": 1.0243432154,
				"element": "H" 
			},
			{
				"x": 1.9428805384,
				"y": -0.1936321942,
				"z": 1.6002785146,
				"element": "H" 
			},
			{
				"x": -1.4947098096,
				"y": -0.1628713867,
				"z": 1.1019228368,
				"element": "H" 
			},
			{
				"x": -2.8676965924,
				"y": 1.8141404912,
				"z": 0.5524242997,
				"element": "H" 
			},
			{
				"x": -2.3371376755,
				"y": 2.0435865464,
				"z": 2.2018085354,
				"element": "H" 
			},
			{
				"x": -1.2651245861,
				"y": 3.3986810206,
				"z": -0.3208346485,
				"element": "H" 
			},
			{
				"x": -1.9337501158,
				"y": 4.1644178789,
				"z": 1.1165518977,
				"element": "H" 
			},
			{
				"x": 0.0484305743,
				"y": 3.3394460121,
				"z": 2.4452297336,
				"element": "H" 
			},
			{
				"x": 0.5547696247,
				"y": 4.3819431246,
				"z": 1.1199322163,
				"element": "H" 
			},
			{
				"x": 1.2651094009,
				"y": 2.5022171007,
				"z": -0.2332929209,
				"element": "H" 
			},
			{
				"x": 1.9256418348,
				"y": 2.2299770175,
				"z": 1.3542591547,
				"element": "H" 
			}
		],
		 "valence_orbital": [ 
			{
				"type": "occ",
				"energy": -0.32244,
				"method": "rhf"
			},
			{
				"type": "occ",
				"energy": -0.31433,
				"method": "rhf"
			},
			{
				"type": "occ",
				"energy": -0.29712,
				"method": "rhf"
			},
			{
				"type": "occ",
				"energy": -0.24522,
				"method": "rhf"
			},
			{
				"type": "occ",
				"energy": -0.22425,
				"method": "rhf"
			},
			{
				"type": "unocc",
				"energy": -0.01503,
				"method": "rhf"
			},
			{
				"type": "unocc",
				"energy": 0.0299,
				"method": "rhf"
			},
			{
				"type": "unocc",
				"energy": 0.0813,
				"method": "rhf"
			},
			{
				"type": "unocc",
				"energy": 0.09961,
				"method": "rhf"
			},
			{
				"type": "unocc",
				"energy": 0.11116,
				"method": "rhf"
			}
		],
		"cosmo_sigma_profile": { 
			"-0.025": 0.0,
			"-0.024": 0.0,
			"-0.023": 0.0,
			"-0.022": 0.0,
			"-0.021": 0.0,
			"-0.02": 0.0,
			"-0.019": 0.0,
			"-0.018": 0.0,
			"-0.017": 0.0,
			"-0.016": 0.0,
			"-0.015": 0.0,
			"-0.014": 0.0,
			"-0.013": 0.0,
			"-0.012": 0.0,
			"-0.011": 0.0,
			"-0.01": 0.0,
			"-0.009": 0.0,
			"-0.008": 0.0,
			"-0.007": 0.0,
			"-0.006": 0.0,
			"-0.005": 1.04479358471,
			"-0.004": 12.2802735199,
			"-0.003": 30.6525035585,
			"-0.002": 41.6305677252,
			"-0.001": 47.7423301992,
			"0.0": 40.2654948309,
			"0.001": 20.0633947896,
			"0.002": 7.52684142563,
			"0.003": 4.93965907959,
			"0.004": 3.98768057255,
			"0.005": 3.16606084885,
			"0.006": 2.70144472649,
			"0.007": 1.4029690271,
			"0.008": 1.45366223693,
			"0.009": 1.59080441553,
			"0.01": 1.69794848518,
			"0.011": 2.82369133566,
			"0.012": 4.02525147464,
			"0.013": 3.10002230893,
			"0.014": 0.531525236859,
			"0.015": 0.0,
			"0.016": 0.0,
			"0.017": 0.0,
			"0.018": 0.0,
			"0.019": 0.0,
			"0.02": 0.0,
			"0.021": 0.0,
			"0.022": 0.0,
			"0.023": 0.0,
			"0.024": 0.0,
			"0.025": 0.0
		}
	}
}
