{
	 "smiles": "CCCCCCCCCCCC(C)CC", 
	 "Tm": 241.15, 
	 "num_atms": 47, 
	 "gaussian": { 
		 "optdone": 1, 
		 "sigma_profile": "yes", 
		 "theory": "DFT", 
		 "functional": "B3LYP", 
		 "basiset": "6-31G**", 
		 "properties": { 
			 "R2extent": 7084.5877, 
			 "electric_dipole_moment_norm": 0.0630215836043, 
			 "electric_quadrupole_moment_norm": 0.534162615689, 
			 "total_energy": -590.92533885, 
			 "HOMO_LUMO_gap": 0.36328, 
			 "cosmo_polarized_energy": -1.06, 
			 "cosmo_cavitation_energy": 44.35, 
			 "cosmo_dispersion_energy": -29.62, 
			 "cosmo_repulsion_energy": 2.41, 
			 "cosmo_total_nonelectrostatic_energy": 17.13, 
			 "SMD_solvation_energy": 6.15 
		},
		"coords": [
			{
				"x": -0.2384909591,
				"y": 4.3197696501,
				"z": -2.3215461301,
				"element": "C" 
			},
			{
				"x": 1.1317361832,
				"y": 3.6311294503,
				"z": -2.3342335481,
				"element": "C" 
			},
			{
				"x": 1.8166736602,
				"y": 3.5449800127,
				"z": -0.9598351989,
				"element": "C" 
			},
			{
				"x": 1.0844911934,
				"y": 2.6651325587,
				"z": 0.0649747914,
				"element": "C" 
			},
			{
				"x": 1.8244189981,
				"y": 2.5334821487,
				"z": 1.4110906537,
				"element": "C" 
			},
			{
				"x": 3.0985771191,
				"y": 1.6561734755,
				"z": 1.400636954,
				"element": "C" 
			},
			{
				"x": 2.8942536794,
				"y": 0.1878974038,
				"z": 1.816023757,
				"element": "C" 
			},
			{
				"x": 1.9982673279,
				"y": -0.6528126514,
				"z": 0.8956104353,
				"element": "C" 
			},
			{
				"x": 1.9256839683,
				"y": -2.125842928,
				"z": 1.3220516827,
				"element": "C" 
			},
			{
				"x": 1.1244834616,
				"y": -3.0367670182,
				"z": 0.3731452149,
				"element": "C" 
			},
			{
				"x": -0.3661516488,
				"y": -2.7163842006,
				"z": 0.1303298271,
				"element": "C" 
			},
			{
				"x": -1.3868850945,
				"y": -2.9537880483,
				"z": 1.2744166746,
				"element": "C" 
			},
			{
				"x": -1.3662499561,
				"y": -1.8662378987,
				"z": 2.3625645642,
				"element": "C" 
			},
			{
				"x": -1.2987055854,
				"y": -4.3567410321,
				"z": 1.9089920403,
				"element": "C" 
			},
			{
				"x": -1.522863903,
				"y": -5.5196751072,
				"z": 0.9355618799,
				"element": "C" 
			},
			{
				"x": -0.6486552776,
				"y": 4.3995048512,
				"z": -3.3338061308,
				"element": "H" 
			},
			{
				"x": -0.1655742268,
				"y": 5.3344686841,
				"z": -1.9124720696,
				"element": "H" 
			},
			{
				"x": -0.967018627,
				"y": 3.771215075,
				"z": -1.7158553675,
				"element": "H" 
			},
			{
				"x": 1.7939118779,
				"y": 4.1719841541,
				"z": -3.0226099123,
				"element": "H" 
			},
			{
				"x": 1.0274432447,
				"y": 2.6187285613,
				"z": -2.7486274592,
				"element": "H" 
			},
			{
				"x": 1.9279151841,
				"y": 4.5584587675,
				"z": -0.5469622692,
				"element": "H" 
			},
			{
				"x": 2.8364373683,
				"y": 3.1649643011,
				"z": -1.1036714716,
				"element": "H" 
			},
			{
				"x": 0.0898208445,
				"y": 3.0867567724,
				"z": 0.2565118512,
				"element": "H" 
			},
			{
				"x": 0.9145876743,
				"y": 1.6719550903,
				"z": -0.3705679415,
				"element": "H" 
			},
			{
				"x": 2.0860828254,
				"y": 3.5448711391,
				"z": 1.7497450477,
				"element": "H" 
			},
			{
				"x": 1.13169752,
				"y": 2.1406213385,
				"z": 2.1676315969,
				"element": "H" 
			},
			{
				"x": 3.5676896351,
				"y": 1.6887205801,
				"z": 0.4079513553,
				"element": "H" 
			},
			{
				"x": 3.8348653877,
				"y": 2.0924945324,
				"z": 2.086992092,
				"element": "H" 
			},
			{
				"x": 2.4822061057,
				"y": 0.1622720944,
				"z": 2.8354258476,
				"element": "H" 
			},
			{
				"x": 3.8802211383,
				"y": -0.2935716454,
				"z": 1.8797649863,
				"element": "H" 
			},
			{
				"x": 0.9891295513,
				"y": -0.2254811739,
				"z": 0.87562852,
				"element": "H" 
			},
			{
				"x": 2.377144436,
				"y": -0.5938894318,
				"z": -0.135556924,
				"element": "H" 
			},
			{
				"x": 2.9492794334,
				"y": -2.5220581127,
				"z": 1.3805128607,
				"element": "H" 
			},
			{
				"x": 1.5280543577,
				"y": -2.189456893,
				"z": 2.3421981061,
				"element": "H" 
			},
			{
				"x": 1.2194562291,
				"y": -4.0724174715,
				"z": 0.7232393315,
				"element": "H" 
			},
			{
				"x": 1.6214376422,
				"y": -3.0149324783,
				"z": -0.6070190502,
				"element": "H" 
			},
			{
				"x": -0.6825048303,
				"y": -3.3270892559,
				"z": -0.7248114333,
				"element": "H" 
			},
			{
				"x": -0.4678956674,
				"y": -1.6771815158,
				"z": -0.2084395942,
				"element": "H" 
			},
			{
				"x": -2.3757738178,
				"y": -2.8880779499,
				"z": 0.7941056585,
				"element": "H" 
			},
			{
				"x": -2.2250276905,
				"y": -1.9777626308,
				"z": 3.0343241402,
				"element": "H" 
			},
			{
				"x": -0.464467931,
				"y": -1.9153071241,
				"z": 2.9805853037,
				"element": "H" 
			},
			{
				"x": -1.4167633757,
				"y": -0.8630559774,
				"z": 1.9252315183,
				"element": "H" 
			},
			{
				"x": -2.0490630398,
				"y": -4.4159177409,
				"z": 2.7086271238,
				"element": "H" 
			},
			{
				"x": -0.3268304803,
				"y": -4.474802519,
				"z": 2.4069494328,
				"element": "H" 
			},
			{
				"x": -2.4881574181,
				"y": -5.4254819504,
				"z": 0.424261934,
				"element": "H" 
			},
			{
				"x": -0.7459801383,
				"y": -5.5679068946,
				"z": 0.1656835352,
				"element": "H" 
			},
			{
				"x": -1.5208063797,
				"y": -6.4793409912,
				"z": 1.4630457836,
				"element": "H" 
			}
		],
		 "valence_orbital": [ 
			{
				"type": "occ",
				"energy": -0.30345,
				"method": "rhf"
			},
			{
				"type": "occ",
				"energy": -0.3001,
				"method": "rhf"
			},
			{
				"type": "occ",
				"energy": -0.29523,
				"method": "rhf"
			},
			{
				"type": "occ",
				"energy": -0.29414,
				"method": "rhf"
			},
			{
				"type": "occ",
				"energy": -0.29201,
				"method": "rhf"
			},
			{
				"type": "unocc",
				"energy": 0.07127,
				"method": "rhf"
			},
			{
				"type": "unocc",
				"energy": 0.08836,
				"method": "rhf"
			},
			{
				"type": "unocc",
				"energy": 0.09499,
				"method": "rhf"
			},
			{
				"type": "unocc",
				"energy": 0.10058,
				"method": "rhf"
			},
			{
				"type": "unocc",
				"energy": 0.10933,
				"method": "rhf"
			}
		],
		"cosmo_sigma_profile": { 
			"-0.025": 0.0,
			"-0.024": 0.0,
			"-0.023": 0.0,
			"-0.022": 0.0,
			"-0.021": 0.0,
			"-0.02": 0.0,
			"-0.019": 0.0,
			"-0.018": 0.0,
			"-0.017": 0.0,
			"-0.016": 0.0,
			"-0.015": 0.0,
			"-0.014": 0.0,
			"-0.013": 0.0,
			"-0.012": 0.0,
			"-0.011": 0.0,
			"-0.01": 0.0,
			"-0.009": 0.0,
			"-0.008": 0.0,
			"-0.007": 0.0,
			"-0.006": 0.0,
			"-0.005": 0.0,
			"-0.004": 0.00106839789947,
			"-0.003": 3.89087826138,
			"-0.002": 37.8121327485,
			"-0.001": 84.0793391153,
			"0.0": 87.5679927965,
			"0.001": 80.3406423252,
			"0.002": 42.6591177887,
			"0.003": 1.79139082051,
			"0.004": 0.0,
			"0.005": 0.0,
			"0.006": 0.0,
			"0.007": 0.0,
			"0.008": 0.0,
			"0.009": 0.0,
			"0.01": 0.0,
			"0.011": 0.0,
			"0.012": 0.0,
			"0.013": 0.0,
			"0.014": 0.0,
			"0.015": 0.0,
			"0.016": 0.0,
			"0.017": 0.0,
			"0.018": 0.0,
			"0.019": 0.0,
			"0.02": 0.0,
			"0.021": 0.0,
			"0.022": 0.0,
			"0.023": 0.0,
			"0.024": 0.0,
			"0.025": 0.0
		}
	}
}
