{
	 "smiles": "O=C1OCCC2=C1N1N=CC=C1N=C2", 
	 "Tm": 487.15, 
	 "num_atms": 21, 
	 "gaussian": { 
		 "optdone": 1, 
		 "sigma_profile": "yes", 
		 "theory": "DFT", 
		 "functional": "B3LYP", 
		 "basiset": "6-31G**", 
		 "properties": { 
			 "R2extent": 2522.4213, 
			 "electric_dipole_moment_norm": 4.80522431839, 
			 "electric_quadrupole_moment_norm": 14.9732181644, 
			 "total_energy": -661.840707059, 
			 "HOMO_LUMO_gap": 0.14572, 
			 "cosmo_polarized_energy": -18.29, 
			 "cosmo_cavitation_energy": 25.12, 
			 "cosmo_dispersion_energy": -19.18, 
			 "cosmo_repulsion_energy": 1.48, 
			 "cosmo_total_nonelectrostatic_energy": 7.41, 
			 "SMD_solvation_energy": 3.0 
		},
		"coords": [
			{
				"x": 1.2195834124,
				"y": -1.9292527689,
				"z": 0.5920177234,
				"element": "O" 
			},
			{
				"x": 0.4673090946,
				"y": -1.26543925,
				"z": -0.0730829105,
				"element": "C" 
			},
			{
				"x": -0.3474966328,
				"y": -1.8683600577,
				"z": -0.9826368694,
				"element": "O" 
			},
			{
				"x": -1.1370721155,
				"y": -1.0651181258,
				"z": -1.8802982435,
				"element": "C" 
			},
			{
				"x": -1.881171778,
				"y": 0.0240302186,
				"z": -1.1224898116,
				"element": "C" 
			},
			{
				"x": -0.877209361,
				"y": 0.8397018459,
				"z": -0.3499630675,
				"element": "C" 
			},
			{
				"x": 0.2774665756,
				"y": 0.2149278613,
				"z": 0.0786008015,
				"element": "C" 
			},
			{
				"x": 1.2027620441,
				"y": 0.9799443281,
				"z": 0.7467563658,
				"element": "N" 
			},
			{
				"x": 2.4052702584,
				"y": 0.5965488318,
				"z": 1.2050671721,
				"element": "N" 
			},
			{
				"x": 2.9154489078,
				"y": 1.7107964738,
				"z": 1.7601316763,
				"element": "C" 
			},
			{
				"x": 2.0703611894,
				"y": 2.8208366201,
				"z": 1.671944883,
				"element": "C" 
			},
			{
				"x": 0.9437558364,
				"y": 2.3525896303,
				"z": 1.0014464426,
				"element": "C" 
			},
			{
				"x": -0.1941723677,
				"y": 2.952500756,
				"z": 0.604972676,
				"element": "N" 
			},
			{
				"x": -1.0657927127,
				"y": 2.2186851524,
				"z": -0.0523634939,
				"element": "C" 
			},
			{
				"x": -1.8148031687,
				"y": -1.7678518667,
				"z": -2.3682217293,
				"element": "H" 
			},
			{
				"x": -0.4799763986,
				"y": -0.6247814404,
				"z": -2.6408819899,
				"element": "H" 
			},
			{
				"x": -2.4326372734,
				"y": 0.6578591813,
				"z": -1.8254671549,
				"element": "H" 
			},
			{
				"x": -2.6205831407,
				"y": -0.4291705787,
				"z": -0.4486660945,
				"element": "H" 
			},
			{
				"x": 3.8990779683,
				"y": 1.6554421865,
				"z": 2.2073769229,
				"element": "H" 
			},
			{
				"x": 2.2301775408,
				"y": 3.8273169697,
				"z": 2.0242803658,
				"element": "H" 
			},
			{
				"x": -1.9776978788,
				"y": 2.7142940325,
				"z": -0.3824236644,
				"element": "H" 
			}
		],
		 "valence_orbital": [ 
			{
				"type": "occ",
				"energy": -0.3076,
				"method": "rhf"
			},
			{
				"type": "occ",
				"energy": -0.29449,
				"method": "rhf"
			},
			{
				"type": "occ",
				"energy": -0.26507,
				"method": "rhf"
			},
			{
				"type": "occ",
				"energy": -0.26177,
				"method": "rhf"
			},
			{
				"type": "occ",
				"energy": -0.23427,
				"method": "rhf"
			},
			{
				"type": "unocc",
				"energy": -0.08855,
				"method": "rhf"
			},
			{
				"type": "unocc",
				"energy": -0.02373,
				"method": "rhf"
			},
			{
				"type": "unocc",
				"energy": 0.02145,
				"method": "rhf"
			},
			{
				"type": "unocc",
				"energy": 0.06919,
				"method": "rhf"
			},
			{
				"type": "unocc",
				"energy": 0.08138,
				"method": "rhf"
			}
		],
		"cosmo_sigma_profile": { 
			"-0.025": 0.0,
			"-0.024": 0.0,
			"-0.023": 0.0,
			"-0.022": 0.0,
			"-0.021": 0.0,
			"-0.02": 0.0,
			"-0.019": 0.0,
			"-0.018": 0.0,
			"-0.017": 0.0,
			"-0.016": 0.0,
			"-0.015": 0.0,
			"-0.014": 0.0,
			"-0.013": 0.0,
			"-0.012": 0.0,
			"-0.011": 0.0,
			"-0.01": 0.0,
			"-0.009": 0.782942768008,
			"-0.008": 7.30615065762,
			"-0.007": 18.9653101772,
			"-0.006": 20.8599285501,
			"-0.005": 17.4930455346,
			"-0.004": 16.7128134817,
			"-0.003": 12.4665490064,
			"-0.002": 10.1352074992,
			"-0.001": 7.34216019981,
			"0.0": 7.78749712154,
			"0.001": 8.3483221156,
			"0.002": 9.59668099815,
			"0.003": 10.1164977297,
			"0.004": 6.5983889479,
			"0.005": 4.62273233348,
			"0.006": 3.85195013076,
			"0.007": 5.06973493327,
			"0.008": 4.56067336828,
			"0.009": 5.04532341691,
			"0.01": 5.79255534934,
			"0.011": 6.73178127901,
			"0.012": 4.12873259443,
			"0.013": 2.82695177382,
			"0.014": 1.87304670312,
			"0.015": 1.01004239111,
			"0.016": 1.15781918789,
			"0.017": 0.925192413519,
			"0.018": 0.0789010996297,
			"0.019": 0.0,
			"0.02": 0.0,
			"0.021": 0.0,
			"0.022": 0.0,
			"0.023": 0.0,
			"0.024": 0.0,
			"0.025": 0.0
		}
	}
}
