{
	 "smiles": "CC(C)(C)OC(=O)N1CC2NCCOC2C1", 
	 "Tm": 328.15, 
	 "num_atms": 36, 
	 "gaussian": { 
		 "optdone": 1, 
		 "sigma_profile": "yes", 
		 "theory": "DFT", 
		 "functional": "B3LYP", 
		 "basiset": "6-31G**", 
		 "properties": { 
			 "R2extent": 5739.5632, 
			 "electric_dipole_moment_norm": 2.60719325329, 
			 "electric_quadrupole_moment_norm": 17.4995290388, 
			 "total_energy": -766.401760854, 
			 "HOMO_LUMO_gap": 0.28648, 
			 "cosmo_polarized_energy": -12.74, 
			 "cosmo_cavitation_energy": 35.89, 
			 "cosmo_dispersion_energy": -25.82, 
			 "cosmo_repulsion_energy": 2.03, 
			 "cosmo_total_nonelectrostatic_energy": 12.1, 
			 "SMD_solvation_energy": 3.69 
		},
		"coords": [
			{
				"x": 1.9877300162,
				"y": -4.3969661165,
				"z": 0.2682835429,
				"element": "C" 
			},
			{
				"x": 1.2993981235,
				"y": -3.3722997316,
				"z": 1.1770028605,
				"element": "C" 
			},
			{
				"x": 2.2735371337,
				"y": -2.8429731131,
				"z": 2.2331738275,
				"element": "C" 
			},
			{
				"x": 0.0378691078,
				"y": -3.9393251265,
				"z": 1.8378306051,
				"element": "C" 
			},
			{
				"x": 0.9672358441,
				"y": -2.1620272272,
				"z": 0.4131177614,
				"element": "O" 
			},
			{
				"x": 0.1145722896,
				"y": -2.21913391,
				"z": -0.6429547058,
				"element": "C" 
			},
			{
				"x": -0.4594913733,
				"y": -3.2176038031,
				"z": -1.0568194481,
				"element": "O" 
			},
			{
				"x": -0.0276453949,
				"y": -0.9837624391,
				"z": -1.2010599806,
				"element": "N" 
			},
			{
				"x": -0.945914642,
				"y": -0.7694721163,
				"z": -2.3304342775,
				"element": "C" 
			},
			{
				"x": -1.1394955629,
				"y": 0.7505905756,
				"z": -2.2846219052,
				"element": "C" 
			},
			{
				"x": -1.5085859802,
				"y": 1.4204975738,
				"z": -3.5290180023,
				"element": "N" 
			},
			{
				"x": -0.9599549266,
				"y": 2.7938224012,
				"z": -3.5857371699,
				"element": "C" 
			},
			{
				"x": -0.6663081325,
				"y": 3.3917636356,
				"z": -2.2021218201,
				"element": "C" 
			},
			{
				"x": 0.2483499471,
				"y": 2.5893425083,
				"z": -1.4383635068,
				"element": "O" 
			},
			{
				"x": 0.2420429892,
				"y": 1.2310973733,
				"z": -1.838615451,
				"element": "C" 
			},
			{
				"x": 0.6041444889,
				"y": 0.2538826649,
				"z": -0.7192146462,
				"element": "C" 
			},
			{
				"x": 2.8604792975,
				"y": -3.9478180705,
				"z": -0.2166181289,
				"element": "H" 
			},
			{
				"x": 2.3318610148,
				"y": -5.2471507268,
				"z": 0.8664239775,
				"element": "H" 
			},
			{
				"x": 1.3029317785,
				"y": -4.7579012189,
				"z": -0.4992808895,
				"element": "H" 
			},
			{
				"x": 3.1546917135,
				"y": -2.4008488552,
				"z": 1.7589388924,
				"element": "H" 
			},
			{
				"x": 1.7945843332,
				"y": -2.0777571597,
				"z": 2.8510487905,
				"element": "H" 
			},
			{
				"x": 2.6027594916,
				"y": -3.6584580227,
				"z": 2.8841197021,
				"element": "H" 
			},
			{
				"x": 0.3083799509,
				"y": -4.7736704952,
				"z": 2.4933641792,
				"element": "H" 
			},
			{
				"x": -0.4477972685,
				"y": -3.1714713968,
				"z": 2.4486680268,
				"element": "H" 
			},
			{
				"x": -0.6682191607,
				"y": -4.2934569889,
				"z": 1.0865488157,
				"element": "H" 
			},
			{
				"x": -1.8630390711,
				"y": -1.3461599302,
				"z": -2.1891748066,
				"element": "H" 
			},
			{
				"x": -0.4962024142,
				"y": -1.0703539073,
				"z": -3.2852485223,
				"element": "H" 
			},
			{
				"x": -1.8345251516,
				"y": 0.9774751121,
				"z": -1.4562970541,
				"element": "H" 
			},
			{
				"x": -2.5180091931,
				"y": 1.444515854,
				"z": -3.6272388439,
				"element": "H" 
			},
			{
				"x": -1.6619930913,
				"y": 3.4436924689,
				"z": -4.1180314039,
				"element": "H" 
			},
			{
				"x": -0.0315692794,
				"y": 2.790581324,
				"z": -4.1712821167,
				"element": "H" 
			},
			{
				"x": -0.2102697534,
				"y": 4.3827052347,
				"z": -2.3039146708,
				"element": "H" 
			},
			{
				"x": -1.6057861491,
				"y": 3.5122003739,
				"z": -1.6408479167,
				"element": "H" 
			},
			{
				"x": 0.9397556687,
				"y": 1.0809087245,
				"z": -2.6793562631,
				"element": "H" 
			},
			{
				"x": 0.1773779769,
				"y": 0.5919916042,
				"z": 0.2337836597,
				"element": "H" 
			},
			{
				"x": 1.6805053791,
				"y": 0.1250429266,
				"z": -0.5854531111,
				"element": "H" 
			}
		],
		 "valence_orbital": [ 
			{
				"type": "occ",
				"energy": -0.27983,
				"method": "rhf"
			},
			{
				"type": "occ",
				"energy": -0.25936,
				"method": "rhf"
			},
			{
				"type": "occ",
				"energy": -0.24913,
				"method": "rhf"
			},
			{
				"type": "occ",
				"energy": -0.23266,
				"method": "rhf"
			},
			{
				"type": "occ",
				"energy": -0.22968,
				"method": "rhf"
			},
			{
				"type": "unocc",
				"energy": 0.0568,
				"method": "rhf"
			},
			{
				"type": "unocc",
				"energy": 0.06827,
				"method": "rhf"
			},
			{
				"type": "unocc",
				"energy": 0.08558,
				"method": "rhf"
			},
			{
				"type": "unocc",
				"energy": 0.09801,
				"method": "rhf"
			},
			{
				"type": "unocc",
				"energy": 0.10471,
				"method": "rhf"
			}
		],
		"cosmo_sigma_profile": { 
			"-0.025": 0.0,
			"-0.024": 0.0,
			"-0.023": 0.0,
			"-0.022": 0.0,
			"-0.021": 0.0,
			"-0.02": 0.0,
			"-0.019": 0.0,
			"-0.018": 0.0,
			"-0.017": 0.0,
			"-0.016": 0.0,
			"-0.015": 0.0,
			"-0.014": 0.0,
			"-0.013": 0.0,
			"-0.012": 0.0,
			"-0.011": 0.678171490771,
			"-0.01": 1.6524115881,
			"-0.009": 1.37701640964,
			"-0.008": 1.77529125115,
			"-0.007": 1.76757308552,
			"-0.006": 2.7408533742,
			"-0.005": 10.7289108186,
			"-0.004": 37.543860356,
			"-0.003": 39.0835047514,
			"-0.002": 28.5374357542,
			"-0.001": 27.2525220071,
			"0.0": 30.2502218842,
			"0.001": 26.6684600052,
			"0.002": 10.9274613184,
			"0.003": 7.76697251279,
			"0.004": 6.14740301675,
			"0.005": 6.23938382742,
			"0.006": 5.31003207447,
			"0.007": 5.12005077603,
			"0.008": 4.38651893259,
			"0.009": 2.55647484909,
			"0.01": 2.98439784823,
			"0.011": 3.78814043419,
			"0.012": 3.47965198321,
			"0.013": 4.23824329762,
			"0.014": 3.39927536192,
			"0.015": 0.441084347733,
			"0.016": 0.44419936779,
			"0.017": 0.269790619587,
			"0.018": 0.0,
			"0.019": 0.0,
			"0.02": 0.0,
			"0.021": 0.0,
			"0.022": 0.0,
			"0.023": 0.0,
			"0.024": 0.0,
			"0.025": 0.0
		}
	}
}
