{
	 "smiles": "O=C1C2=CC=C3C4=C(C=CC=C4)C(=O)C4=C3C2=C(C=C4)C2=C1C=CC=C2", 
	 "Tm": 658.15, 
	 "num_atms": 38, 
	 "gaussian": { 
		 "optdone": 1, 
		 "sigma_profile": "yes", 
		 "theory": "DFT", 
		 "functional": "B3LYP", 
		 "basiset": "6-31G**", 
		 "properties": { 
			 "R2extent": 9949.4692, 
			 "electric_dipole_moment_norm": 0.000244948974278, 
			 "electric_quadrupole_moment_norm": 29.9609446036, 
			 "total_energy": -1072.29459177, 
			 "HOMO_LUMO_gap": 0.10994, 
			 "cosmo_polarized_energy": -14.04, 
			 "cosmo_cavitation_energy": 40.88, 
			 "cosmo_dispersion_energy": -30.77, 
			 "cosmo_repulsion_energy": 2.14, 
			 "cosmo_total_nonelectrostatic_energy": 12.25, 
			 "SMD_solvation_energy": 6.45 
		},
		"coords": [
			{
				"x": -1.6813458216,
				"y": -2.9538935734,
				"z": -0.4641476059,
				"element": "O" 
			},
			{
				"x": -0.7806483058,
				"y": -2.1445910905,
				"z": -0.6822234174,
				"element": "C" 
			},
			{
				"x": -0.777376321,
				"y": -0.8014678359,
				"z": -0.0529709189,
				"element": "C" 
			},
			{
				"x": -1.8162589946,
				"y": -0.4596698368,
				"z": 0.7982516401,
				"element": "C" 
			},
			{
				"x": -1.8603589231,
				"y": 0.7939745647,
				"z": 1.416888598,
				"element": "C" 
			},
			{
				"x": -0.8669181135,
				"y": 1.7467771863,
				"z": 1.2044486434,
				"element": "C" 
			},
			{
				"x": -0.9010849674,
				"y": 3.0749149623,
				"z": 1.8512925709,
				"element": "C" 
			},
			{
				"x": 0.1308791317,
				"y": 4.0118315723,
				"z": 1.6059623174,
				"element": "C" 
			},
			{
				"x": 0.1105791908,
				"y": 5.274844745,
				"z": 2.2128766283,
				"element": "C" 
			},
			{
				"x": -0.9229984605,
				"y": 5.6332262893,
				"z": 3.0679225943,
				"element": "C" 
			},
			{
				"x": -1.9497300528,
				"y": 4.7164930563,
				"z": 3.3192522531,
				"element": "C" 
			},
			{
				"x": -1.9382525724,
				"y": 3.4606833044,
				"z": 2.7215286032,
				"element": "C" 
			},
			{
				"x": 1.2645110738,
				"y": 3.6916349326,
				"z": 0.7023642056,
				"element": "C" 
			},
			{
				"x": 2.165022175,
				"y": 4.5010688495,
				"z": 0.4840076851,
				"element": "O" 
			},
			{
				"x": 1.2611783005,
				"y": 2.3485515398,
				"z": 0.0730270571,
				"element": "C" 
			},
			{
				"x": 0.2178333279,
				"y": 1.4152325731,
				"z": 0.3276813034,
				"element": "C" 
			},
			{
				"x": 0.2659578836,
				"y": 0.1318629279,
				"z": -0.3076471102,
				"element": "C" 
			},
			{
				"x": 1.3506846516,
				"y": -0.1996655948,
				"z": -1.1844452052,
				"element": "C" 
			},
			{
				"x": 2.3441214735,
				"y": 0.7531420536,
				"z": -1.3968950128,
				"element": "C" 
			},
			{
				"x": 2.3000465808,
				"y": 2.0067669242,
				"z": -0.7782237431,
				"element": "C" 
			},
			{
				"x": 1.3847877996,
				"y": -1.5277557043,
				"z": -1.8313895674,
				"element": "C" 
			},
			{
				"x": 0.352841597,
				"y": -2.4646866286,
				"z": -1.586033702,
				"element": "C" 
			},
			{
				"x": 0.3730490162,
				"y": -3.7276344443,
				"z": -2.1930887693,
				"element": "C" 
			},
			{
				"x": 1.4065252506,
				"y": -4.0859412333,
				"z": -3.04828875,
				"element": "C" 
			},
			{
				"x": 2.4332443301,
				"y": -3.1691978685,
				"z": -3.2996357681,
				"element": "C" 
			},
			{
				"x": 2.4218519109,
				"y": -1.9134511502,
				"z": -2.701779874,
				"element": "C" 
			},
			{
				"x": -2.595679217,
				"y": -1.1945103261,
				"z": 0.9709312278,
				"element": "H" 
			},
			{
				"x": -2.6948958378,
				"y": 1.0101023244,
				"z": 2.0732095625,
				"element": "H" 
			},
			{
				"x": 0.9271543835,
				"y": 5.9529982438,
				"z": 1.9889680545,
				"element": "H" 
			},
			{
				"x": -0.9347655089,
				"y": 6.6128041106,
				"z": 3.5359954007,
				"element": "H" 
			},
			{
				"x": -2.7654198163,
				"y": 4.9816662476,
				"z": 3.9857111752,
				"element": "H" 
			},
			{
				"x": -2.7514757921,
				"y": 2.7790969786,
				"z": 2.9413929975,
				"element": "H" 
			},
			{
				"x": 3.1786368449,
				"y": 0.5370258129,
				"z": -2.0532477702,
				"element": "H" 
			},
			{
				"x": 3.0794736732,
				"y": 2.7416033249,
				"z": -0.95088777,
				"element": "H" 
			},
			{
				"x": -0.443502174,
				"y": -4.4058045622,
				"z": -1.9691477389,
				"element": "H" 
			},
			{
				"x": 1.418226246,
				"y": -5.0654694224,
				"z": -3.516465818,
				"element": "H" 
			},
			{
				"x": 3.2488524747,
				"y": -3.4343144956,
				"z": -3.9662168106,
				"element": "H" 
			},
			{
				"x": 3.235053563,
				"y": -1.2318487575,
				"z": -2.9216771658,
				"element": "H" 
			}
		],
		 "valence_orbital": [ 
			{
				"type": "occ",
				"energy": -0.26052,
				"method": "rhf"
			},
			{
				"type": "occ",
				"energy": -0.25648,
				"method": "rhf"
			},
			{
				"type": "occ",
				"energy": -0.24999,
				"method": "rhf"
			},
			{
				"type": "occ",
				"energy": -0.24687,
				"method": "rhf"
			},
			{
				"type": "occ",
				"energy": -0.22213,
				"method": "rhf"
			},
			{
				"type": "unocc",
				"energy": -0.11219,
				"method": "rhf"
			},
			{
				"type": "unocc",
				"energy": -0.05797,
				"method": "rhf"
			},
			{
				"type": "unocc",
				"energy": -0.04087,
				"method": "rhf"
			},
			{
				"type": "unocc",
				"energy": -0.03795,
				"method": "rhf"
			},
			{
				"type": "unocc",
				"energy": -0.01949,
				"method": "rhf"
			}
		],
		"cosmo_sigma_profile": { 
			"-0.025": 0.0,
			"-0.024": 0.0,
			"-0.023": 0.0,
			"-0.022": 0.0,
			"-0.021": 0.0,
			"-0.02": 0.0,
			"-0.019": 0.0,
			"-0.018": 0.0,
			"-0.017": 0.0,
			"-0.016": 0.0,
			"-0.015": 0.0,
			"-0.014": 0.0,
			"-0.013": 0.0,
			"-0.012": 0.0,
			"-0.011": 0.0111611754128,
			"-0.01": 1.56333410027,
			"-0.009": 3.52193272118,
			"-0.008": 3.8597620664,
			"-0.007": 9.95794546083,
			"-0.006": 20.2211298262,
			"-0.005": 20.7088766631,
			"-0.004": 18.8091134138,
			"-0.003": 18.2129623404,
			"-0.002": 20.2454256307,
			"-0.001": 24.3792433179,
			"0.0": 33.6702869835,
			"0.001": 49.5648113212,
			"0.002": 34.709661487,
			"0.003": 28.0039857174,
			"0.004": 9.32475301896,
			"0.005": 3.59971177996,
			"0.006": 4.74146675512,
			"0.007": 2.04558124183,
			"0.008": 2.7156486995,
			"0.009": 4.25699692451,
			"0.01": 3.57428590006,
			"0.011": 4.52533746786,
			"0.012": 8.79420623835,
			"0.013": 1.28521859473,
			"0.014": 0.0,
			"0.015": 0.0,
			"0.016": 0.0,
			"0.017": 0.0,
			"0.018": 0.0,
			"0.019": 0.0,
			"0.02": 0.0,
			"0.021": 0.0,
			"0.022": 0.0,
			"0.023": 0.0,
			"0.024": 0.0,
			"0.025": 0.0
		}
	}
}
