{
	 "smiles": "NC(=O)C1=NC=C(Cl)N=C1", 
	 "Tm": 440.15, 
	 "num_atms": 14, 
	 "gaussian": { 
		 "optdone": 1, 
		 "sigma_profile": "yes", 
		 "theory": "DFT", 
		 "functional": "B3LYP", 
		 "basiset": "6-31G**", 
		 "properties": { 
			 "R2extent": 2324.6152, 
			 "electric_dipole_moment_norm": 3.30753522884, 
			 "electric_quadrupole_moment_norm": 16.7384648552, 
			 "total_energy": -892.605725095, 
			 "HOMO_LUMO_gap": 0.18321, 
			 "cosmo_polarized_energy": -17.16, 
			 "cosmo_cavitation_energy": 21.4, 
			 "cosmo_dispersion_energy": -16.09, 
			 "cosmo_repulsion_energy": 1.33, 
			 "cosmo_total_nonelectrostatic_energy": 6.63, 
			 "SMD_solvation_energy": 1.68 
		},
		"coords": [
			{
				"x": 1.0068004682,
				"y": -0.1148138852,
				"z": -2.6547069309,
				"element": "N" 
			},
			{
				"x": 0.4066746356,
				"y": 0.828893787,
				"z": -1.8543529869,
				"element": "C" 
			},
			{
				"x": 0.6101527237,
				"y": 2.0240111454,
				"z": -1.9639413971,
				"element": "O" 
			},
			{
				"x": -0.4842927378,
				"y": 0.2617709779,
				"z": -0.7698374534,
				"element": "C" 
			},
			{
				"x": -1.5253919526,
				"y": 1.0218187414,
				"z": -0.3899888311,
				"element": "N" 
			},
			{
				"x": -2.2979523842,
				"y": 0.5548960248,
				"z": 0.5823876446,
				"element": "C" 
			},
			{
				"x": -2.0207405393,
				"y": -0.682335465,
				"z": 1.189406003,
				"element": "C" 
			},
			{
				"x": -3.0733393882,
				"y": -1.2641669361,
				"z": 2.4620126361,
				"element": "Cl" 
			},
			{
				"x": -0.9938126331,
				"y": -1.4340526812,
				"z": 0.8452697693,
				"element": "N" 
			},
			{
				"x": -0.2199364515,
				"y": -0.9592068221,
				"z": -0.1413026305,
				"element": "C" 
			},
			{
				"x": 0.593574316,
				"y": -1.0277572474,
				"z": -2.7707221315,
				"element": "H" 
			},
			{
				"x": 1.537687785,
				"y": 0.2482542591,
				"z": -3.4342029673,
				"element": "H" 
			},
			{
				"x": -3.1470507669,
				"y": 1.1557979505,
				"z": 0.8963577596,
				"element": "H" 
			},
			{
				"x": 0.6431269252,
				"y": -1.561709849,
				"z": -0.4127784839,
				"element": "H" 
			}
		],
		 "valence_orbital": [ 
			{
				"type": "occ",
				"energy": -0.32579,
				"method": "rhf"
			},
			{
				"type": "occ",
				"energy": -0.28867,
				"method": "rhf"
			},
			{
				"type": "occ",
				"energy": -0.28545,
				"method": "rhf"
			},
			{
				"type": "occ",
				"energy": -0.27947,
				"method": "rhf"
			},
			{
				"type": "occ",
				"energy": -0.26079,
				"method": "rhf"
			},
			{
				"type": "unocc",
				"energy": -0.07758,
				"method": "rhf"
			},
			{
				"type": "unocc",
				"energy": -0.06119,
				"method": "rhf"
			},
			{
				"type": "unocc",
				"energy": 0.02062,
				"method": "rhf"
			},
			{
				"type": "unocc",
				"energy": 0.02669,
				"method": "rhf"
			},
			{
				"type": "unocc",
				"energy": 0.06956,
				"method": "rhf"
			}
		],
		"cosmo_sigma_profile": { 
			"-0.025": 0.0,
			"-0.024": 0.0,
			"-0.023": 0.0,
			"-0.022": 0.0,
			"-0.021": 0.0,
			"-0.02": 0.0,
			"-0.019": 0.0,
			"-0.018": 0.0,
			"-0.017": 0.0,
			"-0.016": 0.0126246188653,
			"-0.015": 1.13830985681,
			"-0.014": 2.62241483489,
			"-0.013": 2.95082782745,
			"-0.012": 3.07300861936,
			"-0.011": 2.36506584679,
			"-0.01": 3.11906601956,
			"-0.009": 4.98348945549,
			"-0.008": 4.76143988216,
			"-0.007": 4.91792773731,
			"-0.006": 5.06820206452,
			"-0.005": 7.69900129856,
			"-0.004": 10.9930151526,
			"-0.003": 14.317096028,
			"-0.002": 10.7081190517,
			"-0.001": 9.70767130609,
			"0.0": 7.340664408,
			"0.001": 8.57331216271,
			"0.002": 10.3359030066,
			"0.003": 13.1661578912,
			"0.004": 6.87883346326,
			"0.005": 4.2430851553,
			"0.006": 4.73556372304,
			"0.007": 3.19206386151,
			"0.008": 2.70581435575,
			"0.009": 2.37182022658,
			"0.01": 3.22959994646,
			"0.011": 3.80868114234,
			"0.012": 4.90772836603,
			"0.013": 6.18037721083,
			"0.014": 2.59758940967,
			"0.015": 1.72509948351,
			"0.016": 0.076434182072,
			"0.017": 0.0,
			"0.018": 0.0,
			"0.019": 0.0,
			"0.02": 0.0,
			"0.021": 0.0,
			"0.022": 0.0,
			"0.023": 0.0,
			"0.024": 0.0,
			"0.025": 0.0
		}
	}
}
