{
	 "smiles": "COC1=CC(NCC2=NN=C3CCCCCN23)=CC=C1", 
	 "Tm": 451.15, 
	 "num_atms": 40, 
	 "gaussian": { 
		 "optdone": 1, 
		 "sigma_profile": "yes", 
		 "theory": "DFT", 
		 "functional": "B3LYP", 
		 "basiset": "6-31G**", 
		 "properties": { 
			 "R2extent": 7353.3125, 
			 "electric_dipole_moment_norm": 6.98248493733, 
			 "electric_quadrupole_moment_norm": 22.3996919372, 
			 "total_energy": -877.865120711, 
			 "HOMO_LUMO_gap": 0.20628, 
			 "cosmo_polarized_energy": -22.93, 
			 "cosmo_cavitation_energy": 41.04, 
			 "cosmo_dispersion_energy": -28.81, 
			 "cosmo_repulsion_energy": 2.23, 
			 "cosmo_total_nonelectrostatic_energy": 14.46, 
			 "SMD_solvation_energy": 4.26 
		},
		"coords": [
			{
				"x": 1.4517800625,
				"y": -3.5548189674,
				"z": -4.1688635825,
				"element": "C" 
			},
			{
				"x": 2.4147260813,
				"y": -3.2565855748,
				"z": -3.1745673903,
				"element": "O" 
			},
			{
				"x": 1.976491211,
				"y": -2.9172272274,
				"z": -1.9243033602,
				"element": "C" 
			},
			{
				"x": 0.6323483021,
				"y": -2.8422143248,
				"z": -1.5602212344,
				"element": "C" 
			},
			{
				"x": 0.2732378826,
				"y": -2.4882326486,
				"z": -0.2429462845,
				"element": "C" 
			},
			{
				"x": -1.0984636786,
				"y": -2.4006398889,
				"z": 0.0604440863,
				"element": "N" 
			},
			{
				"x": -1.5688656325,
				"y": -2.3862401966,
				"z": 1.4446729634,
				"element": "C" 
			},
			{
				"x": -1.4281975374,
				"y": -1.0594166444,
				"z": 2.1347658304,
				"element": "C" 
			},
			{
				"x": -0.8205933228,
				"y": -0.9045837173,
				"z": 3.2897512526,
				"element": "N" 
			},
			{
				"x": -0.9109815637,
				"y": 0.4259051959,
				"z": 3.6375964084,
				"element": "N" 
			},
			{
				"x": -1.5734033641,
				"y": 1.0399782971,
				"z": 2.681584697,
				"element": "C" 
			},
			{
				"x": -1.8817911578,
				"y": 2.5020810468,
				"z": 2.6483731225,
				"element": "C" 
			},
			{
				"x": -1.32433695,
				"y": 3.2439578814,
				"z": 1.4168935542,
				"element": "C" 
			},
			{
				"x": -2.0546988671,
				"y": 2.9426341566,
				"z": 0.0985857288,
				"element": "C" 
			},
			{
				"x": -1.9635186938,
				"y": 1.4951349648,
				"z": -0.4120203331,
				"element": "C" 
			},
			{
				"x": -2.655068742,
				"y": 0.4401247893,
				"z": 0.4622066083,
				"element": "C" 
			},
			{
				"x": -1.9293388391,
				"y": 0.1455593779,
				"z": 1.6988347656,
				"element": "N" 
			},
			{
				"x": 1.2734651838,
				"y": -2.2084810921,
				"z": 0.6975670866,
				"element": "C" 
			},
			{
				"x": 2.6149084966,
				"y": -2.2858255693,
				"z": 0.3062238057,
				"element": "C" 
			},
			{
				"x": 2.9818938016,
				"y": -2.6359835347,
				"z": -0.985506159,
				"element": "C" 
			},
			{
				"x": 2.0137937561,
				"y": -3.796433457,
				"z": -5.0726936866,
				"element": "H" 
			},
			{
				"x": 0.8320401294,
				"y": -4.4177196941,
				"z": -3.8902963445,
				"element": "H" 
			},
			{
				"x": 0.7965619034,
				"y": -2.69711055,
				"z": -4.3722245762,
				"element": "H" 
			},
			{
				"x": -0.1525140146,
				"y": -3.048001131,
				"z": -2.2803712496,
				"element": "H" 
			},
			{
				"x": -1.6584413277,
				"y": -3.002025469,
				"z": -0.5285293326,
				"element": "H" 
			},
			{
				"x": -1.0468405657,
				"y": -3.1123903169,
				"z": 2.0830339158,
				"element": "H" 
			},
			{
				"x": -2.6257821721,
				"y": -2.6778861793,
				"z": 1.4214766325,
				"element": "H" 
			},
			{
				"x": -1.4546057007,
				"y": 2.9180552889,
				"z": 3.5645956224,
				"element": "H" 
			},
			{
				"x": -2.9689654222,
				"y": 2.6612077106,
				"z": 2.7049123394,
				"element": "H" 
			},
			{
				"x": -1.3943447794,
				"y": 4.3211698839,
				"z": 1.6092032001,
				"element": "H" 
			},
			{
				"x": -0.2561211592,
				"y": 3.0153721872,
				"z": 1.3135584169,
				"element": "H" 
			},
			{
				"x": -1.6538226552,
				"y": 3.6037224695,
				"z": -0.67934593,
				"element": "H" 
			},
			{
				"x": -3.115234435,
				"y": 3.2135516716,
				"z": 0.2084500617,
				"element": "H" 
			},
			{
				"x": -0.9162264432,
				"y": 1.199904049,
				"z": -0.5494312551,
				"element": "H" 
			},
			{
				"x": -2.4337138773,
				"y": 1.4482301518,
				"z": -1.4021949452,
				"element": "H" 
			},
			{
				"x": -2.722154569,
				"y": -0.4972750694,
				"z": -0.0900321544,
				"element": "H" 
			},
			{
				"x": -3.6734895572,
				"y": 0.7624521951,
				"z": 0.7160519228,
				"element": "H" 
			},
			{
				"x": 1.0230376557,
				"y": -1.9288938081,
				"z": 1.7136067084,
				"element": "H" 
			},
			{
				"x": 3.3872860821,
				"y": -2.0687754802,
				"z": 1.0387862741,
				"element": "H" 
			},
			{
				"x": 4.0197444792,
				"y": -2.7005807761,
				"z": -1.292727186,
				"element": "H" 
			}
		],
		 "valence_orbital": [ 
			{
				"type": "occ",
				"energy": -0.27452,
				"method": "rhf"
			},
			{
				"type": "occ",
				"energy": -0.23961,
				"method": "rhf"
			},
			{
				"type": "occ",
				"energy": -0.23839,
				"method": "rhf"
			},
			{
				"type": "occ",
				"energy": -0.22198,
				"method": "rhf"
			},
			{
				"type": "occ",
				"energy": -0.19635,
				"method": "rhf"
			},
			{
				"type": "unocc",
				"energy": 0.00993,
				"method": "rhf"
			},
			{
				"type": "unocc",
				"energy": 0.02001,
				"method": "rhf"
			},
			{
				"type": "unocc",
				"energy": 0.02676,
				"method": "rhf"
			},
			{
				"type": "unocc",
				"energy": 0.04897,
				"method": "rhf"
			},
			{
				"type": "unocc",
				"energy": 0.06844,
				"method": "rhf"
			}
		],
		"cosmo_sigma_profile": { 
			"-0.025": 0.0,
			"-0.024": 0.0,
			"-0.023": 0.0,
			"-0.022": 0.0,
			"-0.021": 0.0,
			"-0.02": 0.0,
			"-0.019": 0.0,
			"-0.018": 0.0,
			"-0.017": 0.0,
			"-0.016": 0.0,
			"-0.015": 0.0,
			"-0.014": 0.0,
			"-0.013": 0.796602820532,
			"-0.012": 1.73722967234,
			"-0.011": 1.38767363221,
			"-0.01": 2.09702823563,
			"-0.009": 1.84044615096,
			"-0.008": 2.66924198284,
			"-0.007": 5.28036563228,
			"-0.006": 10.5433043939,
			"-0.005": 25.061335257,
			"-0.004": 32.0432906027,
			"-0.003": 43.1070990315,
			"-0.002": 35.0502785508,
			"-0.001": 28.0164737974,
			"0.0": 22.2636819546,
			"0.001": 11.514647035,
			"0.002": 12.2136124191,
			"0.003": 10.5248828967,
			"0.004": 12.3428364337,
			"0.005": 12.5625969491,
			"0.006": 13.7363490776,
			"0.007": 8.85179439804,
			"0.008": 3.64987501799,
			"0.009": 2.07899632765,
			"0.01": 3.58427233481,
			"0.011": 3.52761906215,
			"0.012": 2.11774054633,
			"0.013": 2.6472526173,
			"0.014": 2.81186098845,
			"0.015": 2.6864632356,
			"0.016": 2.86013063714,
			"0.017": 2.18207058317,
			"0.018": 0.830895631368,
			"0.019": 0.0,
			"0.02": 0.0,
			"0.021": 0.0,
			"0.022": 0.0,
			"0.023": 0.0,
			"0.024": 0.0,
			"0.025": 0.0
		}
	}
}
