{
	 "smiles": "OC(=O)CC1=CC2=C(NC1=O)C=CC=C2", 
	 "Tm": 552.15, 
	 "num_atms": 24, 
	 "gaussian": { 
		 "optdone": 1, 
		 "sigma_profile": "yes", 
		 "theory": "DFT", 
		 "functional": "B3LYP", 
		 "basiset": "6-31G**", 
		 "properties": { 
			 "R2extent": 3946.5082, 
			 "electric_dipole_moment_norm": 8.10001868702, 
			 "electric_quadrupole_moment_norm": 23.9468331328, 
			 "total_energy": -705.067142939, 
			 "HOMO_LUMO_gap": 0.16333, 
			 "cosmo_polarized_energy": -18.84, 
			 "cosmo_cavitation_energy": 28.3, 
			 "cosmo_dispersion_energy": -21.07, 
			 "cosmo_repulsion_energy": 1.61, 
			 "cosmo_total_nonelectrostatic_energy": 8.84, 
			 "SMD_solvation_energy": 6.09 
		},
		"coords": [
			{
				"x": -1.408432513,
				"y": 2.6934964018,
				"z": -2.8220155451,
				"element": "O" 
			},
			{
				"x": -1.8707191228,
				"y": 1.5489341844,
				"z": -3.3393052678,
				"element": "C" 
			},
			{
				"x": -1.8973201368,
				"y": 1.3416096463,
				"z": -4.5298446643,
				"element": "O" 
			},
			{
				"x": -2.3997866805,
				"y": 0.5172270971,
				"z": -2.3194782836,
				"element": "C" 
			},
			{
				"x": -1.370827627,
				"y": -0.0129027342,
				"z": -1.3515395713,
				"element": "C" 
			},
			{
				"x": -0.9005623281,
				"y": -1.291000099,
				"z": -1.3880373568,
				"element": "C" 
			},
			{
				"x": 0.0383057114,
				"y": -1.7998183305,
				"z": -0.4262844793,
				"element": "C" 
			},
			{
				"x": 0.4729518527,
				"y": -0.9327101728,
				"z": 0.6045019954,
				"element": "C" 
			},
			{
				"x": -0.0200773584,
				"y": 0.3601976823,
				"z": 0.6118199077,
				"element": "N" 
			},
			{
				"x": -0.8954093184,
				"y": 0.8973809121,
				"z": -0.3075745815,
				"element": "C" 
			},
			{
				"x": -1.2343424043,
				"y": 2.0909509944,
				"z": -0.2140607392,
				"element": "O" 
			},
			{
				"x": 1.378268259,
				"y": -1.3781554213,
				"z": 1.5802005395,
				"element": "C" 
			},
			{
				"x": 1.8497961681,
				"y": -2.6819682657,
				"z": 1.5275410125,
				"element": "C" 
			},
			{
				"x": 1.4298812545,
				"y": -3.5577779539,
				"z": 0.5112069464,
				"element": "C" 
			},
			{
				"x": 0.5348268315,
				"y": -3.1190452621,
				"z": -0.4508373017,
				"element": "C" 
			},
			{
				"x": -1.4341399708,
				"y": 2.6560637471,
				"z": -1.8337187682,
				"element": "H" 
			},
			{
				"x": -2.8255770703,
				"y": -0.3018951416,
				"z": -2.8995911664,
				"element": "H" 
			},
			{
				"x": -3.206121977,
				"y": 0.9974830739,
				"z": -1.7499440789,
				"element": "H" 
			},
			{
				"x": -1.2510794933,
				"y": -1.9668186005,
				"z": -2.1648647149,
				"element": "H" 
			},
			{
				"x": 0.293424304,
				"y": 1.0113161115,
				"z": 1.3222610753,
				"element": "H" 
			},
			{
				"x": 1.7033033548,
				"y": -0.7010241307,
				"z": 2.3653113512,
				"element": "H" 
			},
			{
				"x": 2.5511099629,
				"y": -3.0258823281,
				"z": 2.2815467877,
				"element": "H" 
			},
			{
				"x": 1.8071071566,
				"y": -4.5747432495,
				"z": 0.4821113431,
				"element": "H" 
			},
			{
				"x": 0.2031211453,
				"y": -3.7870181612,
				"z": -1.24080444,
				"element": "H" 
			}
		],
		 "valence_orbital": [ 
			{
				"type": "occ",
				"energy": -0.29025,
				"method": "rhf"
			},
			{
				"type": "occ",
				"energy": -0.28709,
				"method": "rhf"
			},
			{
				"type": "occ",
				"energy": -0.26774,
				"method": "rhf"
			},
			{
				"type": "occ",
				"energy": -0.25052,
				"method": "rhf"
			},
			{
				"type": "occ",
				"energy": -0.23762,
				"method": "rhf"
			},
			{
				"type": "unocc",
				"energy": -0.07429,
				"method": "rhf"
			},
			{
				"type": "unocc",
				"energy": -0.02754,
				"method": "rhf"
			},
			{
				"type": "unocc",
				"energy": -0.00852,
				"method": "rhf"
			},
			{
				"type": "unocc",
				"energy": 0.029,
				"method": "rhf"
			},
			{
				"type": "unocc",
				"energy": 0.06433,
				"method": "rhf"
			}
		],
		"cosmo_sigma_profile": { 
			"-0.025": 0.0,
			"-0.024": 0.0,
			"-0.023": 0.0,
			"-0.022": 0.0,
			"-0.021": 0.0,
			"-0.02": 0.0,
			"-0.019": 0.0,
			"-0.018": 0.0,
			"-0.017": 0.038664635006,
			"-0.016": 1.24309153497,
			"-0.015": 0.936100835598,
			"-0.014": 1.17500100839,
			"-0.013": 1.4283936621,
			"-0.012": 0.924401646943,
			"-0.011": 1.5897153243,
			"-0.01": 0.892107251125,
			"-0.009": 1.13068912199,
			"-0.008": 5.33819381956,
			"-0.007": 12.0069112842,
			"-0.006": 13.6695241731,
			"-0.005": 15.3043478627,
			"-0.004": 14.8562126764,
			"-0.003": 15.4463390462,
			"-0.002": 17.2200120077,
			"-0.001": 14.7583787423,
			"0.0": 15.2086155587,
			"0.001": 13.8280330952,
			"0.002": 12.8750404789,
			"0.003": 12.5172117461,
			"0.004": 10.1954371487,
			"0.005": 3.16773501953,
			"0.006": 3.31235117876,
			"0.007": 3.15653400832,
			"0.008": 4.16759260266,
			"0.009": 3.44076976921,
			"0.01": 4.11401333292,
			"0.011": 7.08267913714,
			"0.012": 9.24025350815,
			"0.013": 5.55284848617,
			"0.014": 0.774726991904,
			"0.015": 0.0,
			"0.016": 0.0,
			"0.017": 0.0,
			"0.018": 0.0,
			"0.019": 0.0,
			"0.02": 0.0,
			"0.021": 0.0,
			"0.022": 0.0,
			"0.023": 0.0,
			"0.024": 0.0,
			"0.025": 0.0
		}
	}
}
