{
	 "smiles": "OC(=O)C1=CC=C(C=C1)C1=CC=CN=C1", 
	 "Tm": 545.15, 
	 "num_atms": 24, 
	 "gaussian": { 
		 "optdone": 1, 
		 "sigma_profile": "yes", 
		 "theory": "DFT", 
		 "functional": "B3LYP", 
		 "basiset": "6-31G**", 
		 "properties": { 
			 "R2extent": 4656.066, 
			 "electric_dipole_moment_norm": 4.84614740696, 
			 "electric_quadrupole_moment_norm": 23.52516447, 
			 "total_energy": -667.908169142, 
			 "HOMO_LUMO_gap": 0.18191, 
			 "cosmo_polarized_energy": -17.67, 
			 "cosmo_cavitation_energy": 29.02, 
			 "cosmo_dispersion_energy": -21.34, 
			 "cosmo_repulsion_energy": 1.63, 
			 "cosmo_total_nonelectrostatic_energy": 9.32, 
			 "SMD_solvation_energy": 4.52 
		},
		"coords": [
			{
				"x": -5.237144679,
				"y": -1.476709042,
				"z": 0.835545301,
				"element": "O" 
			},
			{
				"x": -4.2260650657,
				"y": -1.3225633658,
				"z": 1.733078901,
				"element": "C" 
			},
			{
				"x": -4.4469375623,
				"y": -1.435336875,
				"z": 2.9158753227,
				"element": "O" 
			},
			{
				"x": -2.8692627418,
				"y": -1.0148551265,
				"z": 1.1759952147,
				"element": "C" 
			},
			{
				"x": -1.7569773401,
				"y": -1.2568212854,
				"z": 1.993490698,
				"element": "C" 
			},
			{
				"x": -0.4728152524,
				"y": -0.9862981651,
				"z": 1.5370513651,
				"element": "C" 
			},
			{
				"x": -0.2586988923,
				"y": -0.4498475698,
				"z": 0.2538180572,
				"element": "C" 
			},
			{
				"x": -1.3798153909,
				"y": -0.1887358289,
				"z": -0.5517354063,
				"element": "C" 
			},
			{
				"x": -2.6661659122,
				"y": -0.4665263646,
				"z": -0.098199255,
				"element": "C" 
			},
			{
				"x": 1.1107177376,
				"y": -0.1621569328,
				"z": -0.2329919352,
				"element": "C" 
			},
			{
				"x": 1.4027445003,
				"y": 0.9676437895,
				"z": -1.0117373445,
				"element": "C" 
			},
			{
				"x": 2.7091985955,
				"y": 1.1834837506,
				"z": -1.4399932086,
				"element": "C" 
			},
			{
				"x": 3.6929585486,
				"y": 0.263353634,
				"z": -1.0742771677,
				"element": "C" 
			},
			{
				"x": 3.4419250207,
				"y": -0.8262916069,
				"z": -0.3379346844,
				"element": "N" 
			},
			{
				"x": 2.183315455,
				"y": -1.0227042297,
				"z": 0.0625258797,
				"element": "C" 
			},
			{
				"x": -4.8823661668,
				"y": -1.5273729328,
				"z": -0.0626339516,
				"element": "H" 
			},
			{
				"x": -1.9250412944,
				"y": -1.6511840753,
				"z": 2.9898415328,
				"element": "H" 
			},
			{
				"x": 0.3754314693,
				"y": -1.164933844,
				"z": 2.1904010045,
				"element": "H" 
			},
			{
				"x": -1.2417441501,
				"y": 0.2188988519,
				"z": -1.5484341685,
				"element": "H" 
			},
			{
				"x": -3.5087789418,
				"y": -0.2205263758,
				"z": -0.7402952413,
				"element": "H" 
			},
			{
				"x": 0.6192971385,
				"y": 1.6794289651,
				"z": -1.2556697381,
				"element": "H" 
			},
			{
				"x": 2.965356486,
				"y": 2.053785068,
				"z": -2.0360036692,
				"element": "H" 
			},
			{
				"x": 4.7263328096,
				"y": 0.4065663671,
				"z": -1.3844460444,
				"element": "H" 
			},
			{
				"x": 2.0031356285,
				"y": -1.9298968057,
				"z": 0.6368285381,
				"element": "H" 
			}
		],
		 "valence_orbital": [ 
			{
				"type": "occ",
				"energy": -0.28817,
				"method": "rhf"
			},
			{
				"type": "occ",
				"energy": -0.27867,
				"method": "rhf"
			},
			{
				"type": "occ",
				"energy": -0.27383,
				"method": "rhf"
			},
			{
				"type": "occ",
				"energy": -0.26377,
				"method": "rhf"
			},
			{
				"type": "occ",
				"energy": -0.24953,
				"method": "rhf"
			},
			{
				"type": "unocc",
				"energy": -0.06762,
				"method": "rhf"
			},
			{
				"type": "unocc",
				"energy": -0.03492,
				"method": "rhf"
			},
			{
				"type": "unocc",
				"energy": -0.02781,
				"method": "rhf"
			},
			{
				"type": "unocc",
				"energy": -0.01371,
				"method": "rhf"
			},
			{
				"type": "unocc",
				"energy": 0.04662,
				"method": "rhf"
			}
		],
		"cosmo_sigma_profile": { 
			"-0.025": 0.0,
			"-0.024": 0.0,
			"-0.023": 0.0,
			"-0.022": 0.0,
			"-0.021": 0.0,
			"-0.02": 0.0,
			"-0.019": 0.474902432862,
			"-0.018": 0.779984435353,
			"-0.017": 0.894877379403,
			"-0.016": 0.512682118458,
			"-0.015": 0.908611549526,
			"-0.014": 0.603073866527,
			"-0.013": 2.07725663785,
			"-0.012": 1.30509108715,
			"-0.011": 0.727189054253,
			"-0.01": 1.15894378244,
			"-0.009": 1.01485770854,
			"-0.008": 2.50732810974,
			"-0.007": 11.6737341297,
			"-0.006": 17.0860922781,
			"-0.005": 16.6010677384,
			"-0.004": 13.4489063995,
			"-0.003": 12.4495890058,
			"-0.002": 11.9356589909,
			"-0.001": 12.145823013,
			"0.0": 16.2653330802,
			"0.001": 19.8586050939,
			"0.002": 23.8884834123,
			"0.003": 17.0510291276,
			"0.004": 5.01306911597,
			"0.005": 4.36936014607,
			"0.006": 4.17853252497,
			"0.007": 3.25123272776,
			"0.008": 4.11932645217,
			"0.009": 4.7664709011,
			"0.01": 5.58226950866,
			"0.011": 6.28185027078,
			"0.012": 5.11857276703,
			"0.013": 2.76250167848,
			"0.014": 0.896269057687,
			"0.015": 0.979223366824,
			"0.016": 0.694395201122,
			"0.017": 0.293109024878,
			"0.018": 0.0,
			"0.019": 0.0,
			"0.02": 0.0,
			"0.021": 0.0,
			"0.022": 0.0,
			"0.023": 0.0,
			"0.024": 0.0,
			"0.025": 0.0
		}
	}
}
