{
	 "smiles": "NC(=O)C1=CC(OC2=CN=C(N)C=C2)=CC=C1", 
	 "Tm": 436.15, 
	 "num_atms": 28, 
	 "gaussian": { 
		 "optdone": 1, 
		 "sigma_profile": "yes", 
		 "theory": "DFT", 
		 "functional": "B3LYP", 
		 "basiset": "6-31G**", 
		 "properties": { 
			 "R2extent": 5132.8703, 
			 "electric_dipole_moment_norm": 5.01243807343, 
			 "electric_quadrupole_moment_norm": 29.5318950863, 
			 "total_energy": -778.619820491, 
			 "HOMO_LUMO_gap": 0.17858, 
			 "cosmo_polarized_energy": -20.73, 
			 "cosmo_cavitation_energy": 33.47, 
			 "cosmo_dispersion_energy": -23.83, 
			 "cosmo_repulsion_energy": 1.88, 
			 "cosmo_total_nonelectrostatic_energy": 11.52, 
			 "SMD_solvation_energy": 5.26 
		},
		"coords": [
			{
				"x": -0.9948527435,
				"y": -1.292000233,
				"z": -2.9664682637,
				"element": "N" 
			},
			{
				"x": 0.2253752705,
				"y": -0.9212834677,
				"z": -3.4828696171,
				"element": "C" 
			},
			{
				"x": 0.5096205511,
				"y": -1.1102960457,
				"z": -4.6590076661,
				"element": "O" 
			},
			{
				"x": 1.1773647071,
				"y": -0.2531153989,
				"z": -2.5293513736,
				"element": "C" 
			},
			{
				"x": 0.7558165819,
				"y": 0.3163337176,
				"z": -1.3177245305,
				"element": "C" 
			},
			{
				"x": 1.6934694995,
				"y": 0.9201822274,
				"z": -0.4785564268,
				"element": "C" 
			},
			{
				"x": 1.3744349656,
				"y": 1.5272555088,
				"z": 0.7178649336,
				"element": "O" 
			},
			{
				"x": 0.1020554102,
				"y": 1.3762965912,
				"z": 1.2479554904,
				"element": "C" 
			},
			{
				"x": -0.8110378951,
				"y": 2.4232134778,
				"z": 1.1707451878,
				"element": "C" 
			},
			{
				"x": -2.0257259489,
				"y": 2.3812505989,
				"z": 1.7286548878,
				"element": "N" 
			},
			{
				"x": -2.3779443766,
				"y": 1.2756665883,
				"z": 2.4023156579,
				"element": "C" 
			},
			{
				"x": -3.6192034529,
				"y": 1.2993544672,
				"z": 3.0093606066,
				"element": "N" 
			},
			{
				"x": -1.5170262972,
				"y": 0.1635290185,
				"z": 2.5347219714,
				"element": "C" 
			},
			{
				"x": -0.2628453253,
				"y": 0.2213132544,
				"z": 1.9476487868,
				"element": "C" 
			},
			{
				"x": 3.0448545491,
				"y": 0.9631223441,
				"z": -0.8394519721,
				"element": "C" 
			},
			{
				"x": 3.4508424073,
				"y": 0.4066760876,
				"z": -2.0497374065,
				"element": "C" 
			},
			{
				"x": 2.5244893921,
				"y": -0.1983401763,
				"z": -2.8993515926,
				"element": "C" 
			},
			{
				"x": -1.5717608732,
				"y": -1.8459255796,
				"z": -3.5830037839,
				"element": "H" 
			},
			{
				"x": -1.1040287193,
				"y": -1.4469435732,
				"z": -1.9765858971,
				"element": "H" 
			},
			{
				"x": -0.2928880633,
				"y": 0.3340972103,
				"z": -1.0455571918,
				"element": "H" 
			},
			{
				"x": -0.5414346186,
				"y": 3.3333728925,
				"z": 0.6385734239,
				"element": "H" 
			},
			{
				"x": -4.227779588,
				"y": 2.0334108429,
				"z": 2.675748069,
				"element": "H" 
			},
			{
				"x": -4.0716964391,
				"y": 0.4151714115,
				"z": 3.1845846522,
				"element": "H" 
			},
			{
				"x": -1.8273509203,
				"y": -0.7095653129,
				"z": 3.1010368406,
				"element": "H" 
			},
			{
				"x": 0.4371684061,
				"y": -0.6041977511,
				"z": 2.0340840141,
				"element": "H" 
			},
			{
				"x": 3.7493068435,
				"y": 1.4407905815,
				"z": -0.166490985,
				"element": "H" 
			},
			{
				"x": 4.4992872464,
				"y": 0.4462250651,
				"z": -2.3302292185,
				"element": "H" 
			},
			{
				"x": 2.8185894309,
				"y": -0.6303943473,
				"z": -3.848908597,
				"element": "H" 
			}
		],
		 "valence_orbital": [ 
			{
				"type": "occ",
				"energy": -0.26675,
				"method": "rhf"
			},
			{
				"type": "occ",
				"energy": -0.25988,
				"method": "rhf"
			},
			{
				"type": "occ",
				"energy": -0.24899,
				"method": "rhf"
			},
			{
				"type": "occ",
				"energy": -0.22967,
				"method": "rhf"
			},
			{
				"type": "occ",
				"energy": -0.21795,
				"method": "rhf"
			},
			{
				"type": "unocc",
				"energy": -0.03937,
				"method": "rhf"
			},
			{
				"type": "unocc",
				"energy": -0.02567,
				"method": "rhf"
			},
			{
				"type": "unocc",
				"energy": -0.00167,
				"method": "rhf"
			},
			{
				"type": "unocc",
				"energy": 0.00397,
				"method": "rhf"
			},
			{
				"type": "unocc",
				"energy": 0.0611,
				"method": "rhf"
			}
		],
		"cosmo_sigma_profile": { 
			"-0.025": 0.0,
			"-0.024": 0.0,
			"-0.023": 0.0,
			"-0.022": 0.0,
			"-0.021": 0.0,
			"-0.02": 0.0,
			"-0.019": 0.0,
			"-0.018": 0.0,
			"-0.017": 0.0,
			"-0.016": 0.0,
			"-0.015": 0.0069496864824,
			"-0.014": 1.58011489822,
			"-0.013": 3.6096750245,
			"-0.012": 4.59523019399,
			"-0.011": 5.47911513867,
			"-0.01": 5.63313967074,
			"-0.009": 4.10970291316,
			"-0.008": 5.01792199901,
			"-0.007": 9.35773494115,
			"-0.006": 12.400928631,
			"-0.005": 14.8753229698,
			"-0.004": 13.5320163442,
			"-0.003": 12.979014632,
			"-0.002": 14.4809757177,
			"-0.001": 13.714934523,
			"0.0": 15.0453728032,
			"0.001": 18.2162183452,
			"0.002": 22.1844926978,
			"0.003": 21.9873920491,
			"0.004": 17.3759984771,
			"0.005": 8.53964351937,
			"0.006": 5.61192301152,
			"0.007": 5.38651480208,
			"0.008": 6.0195474241,
			"0.009": 4.54450808102,
			"0.01": 2.69927107231,
			"0.011": 3.20922590333,
			"0.012": 3.90448319063,
			"0.013": 5.61865366628,
			"0.014": 4.75575262459,
			"0.015": 0.561667873461,
			"0.016": 0.322472294321,
			"0.017": 0.0,
			"0.018": 0.0,
			"0.019": 0.0,
			"0.02": 0.0,
			"0.021": 0.0,
			"0.022": 0.0,
			"0.023": 0.0,
			"0.024": 0.0,
			"0.025": 0.0
		}
	}
}
