{
	 "smiles": "CCCCCCC(N)C(O)=O", 
	 "Tm": 543.15, 
	 "num_atms": 28, 
	 "gaussian": { 
		 "optdone": 1, 
		 "sigma_profile": "yes", 
		 "theory": "DFT", 
		 "functional": "B3LYP", 
		 "basiset": "6-31G**", 
		 "properties": { 
			 "R2extent": 3255.1564, 
			 "electric_dipole_moment_norm": 3.98915725185, 
			 "electric_quadrupole_moment_norm": 14.5873270698, 
			 "total_energy": -520.316075177, 
			 "HOMO_LUMO_gap": 0.24451, 
			 "cosmo_polarized_energy": -14.07, 
			 "cosmo_cavitation_energy": 29.54, 
			 "cosmo_dispersion_energy": -21.13, 
			 "cosmo_repulsion_energy": 1.77, 
			 "cosmo_total_nonelectrostatic_energy": 10.19, 
			 "SMD_solvation_energy": 5.11 
		},
		"coords": [
			{
				"x": 2.6502394286,
				"y": -2.2804314854,
				"z": 3.3235034343,
				"element": "C" 
			},
			{
				"x": 2.7725042263,
				"y": -1.3269197419,
				"z": 2.1306483501,
				"element": "C" 
			},
			{
				"x": 1.7138473075,
				"y": -1.5712541944,
				"z": 1.0476650727,
				"element": "C" 
			},
			{
				"x": 1.8302343412,
				"y": -0.6136991636,
				"z": -0.1446114939,
				"element": "C" 
			},
			{
				"x": 0.7746415773,
				"y": -0.8846555384,
				"z": -1.2264460636,
				"element": "C" 
			},
			{
				"x": 0.8613245053,
				"y": 0.0074002821,
				"z": -2.4799518648,
				"element": "C" 
			},
			{
				"x": 0.3714218231,
				"y": 1.471139326,
				"z": -2.3455917033,
				"element": "C" 
			},
			{
				"x": 1.2511512627,
				"y": 2.2669459081,
				"z": -1.5002294244,
				"element": "N" 
			},
			{
				"x": -1.0590977389,
				"y": 1.595877641,
				"z": -1.7967619606,
				"element": "C" 
			},
			{
				"x": -1.9762413593,
				"y": 0.7351492768,
				"z": -2.3011096362,
				"element": "O" 
			},
			{
				"x": -1.3947566377,
				"y": 2.4419865318,
				"z": -1.0040494629,
				"element": "O" 
			},
			{
				"x": 2.756649475,
				"y": -3.3251646459,
				"z": 3.008971445,
				"element": "H" 
			},
			{
				"x": 3.4189934747,
				"y": -2.0808433516,
				"z": 4.0773975803,
				"element": "H" 
			},
			{
				"x": 1.6734987868,
				"y": -2.1816875744,
				"z": 3.8109466005,
				"element": "H" 
			},
			{
				"x": 2.6955706774,
				"y": -0.2889556252,
				"z": 2.4811748356,
				"element": "H" 
			},
			{
				"x": 3.7727707998,
				"y": -1.4226851539,
				"z": 1.6862167918,
				"element": "H" 
			},
			{
				"x": 1.7895096367,
				"y": -2.6112080166,
				"z": 0.6962044968,
				"element": "H" 
			},
			{
				"x": 0.7134983157,
				"y": -1.4760346328,
				"z": 1.4944028363,
				"element": "H" 
			},
			{
				"x": 1.7492790173,
				"y": 0.4247433921,
				"z": 0.1898453515,
				"element": "H" 
			},
			{
				"x": 2.8303584748,
				"y": -0.710487521,
				"z": -0.5923674739,
				"element": "H" 
			},
			{
				"x": -0.2295187532,
				"y": -0.8045078175,
				"z": -0.7873165751,
				"element": "H" 
			},
			{
				"x": 0.869500993,
				"y": -1.9290904464,
				"z": -1.5545827267,
				"element": "H" 
			},
			{
				"x": 0.3084175729,
				"y": -0.4715880545,
				"z": -3.3043220287,
				"element": "H" 
			},
			{
				"x": 1.899283748,
				"y": 0.0450122166,
				"z": -2.8339470577,
				"element": "H" 
			},
			{
				"x": 0.2932679529,
				"y": 1.8690843784,
				"z": -3.3778844972,
				"element": "H" 
			},
			{
				"x": 0.7205483493,
				"y": 3.0375807174,
				"z": -1.1026098879,
				"element": "H" 
			},
			{
				"x": 2.0251113597,
				"y": 2.6433619378,
				"z": -2.0372472948,
				"element": "H" 
			},
			{
				"x": -1.549808617,
				"y": 0.1052313553,
				"z": -2.8993476434,
				"element": "H" 
			}
		],
		 "valence_orbital": [ 
			{
				"type": "occ",
				"energy": -0.31902,
				"method": "rhf"
			},
			{
				"type": "occ",
				"energy": -0.31422,
				"method": "rhf"
			},
			{
				"type": "occ",
				"energy": -0.30675,
				"method": "rhf"
			},
			{
				"type": "occ",
				"energy": -0.27654,
				"method": "rhf"
			},
			{
				"type": "occ",
				"energy": -0.23964,
				"method": "rhf"
			},
			{
				"type": "unocc",
				"energy": 0.00487,
				"method": "rhf"
			},
			{
				"type": "unocc",
				"energy": 0.04341,
				"method": "rhf"
			},
			{
				"type": "unocc",
				"energy": 0.09015,
				"method": "rhf"
			},
			{
				"type": "unocc",
				"energy": 0.09794,
				"method": "rhf"
			},
			{
				"type": "unocc",
				"energy": 0.11796,
				"method": "rhf"
			}
		],
		"cosmo_sigma_profile": { 
			"-0.025": 0.0,
			"-0.024": 0.0,
			"-0.023": 0.0,
			"-0.022": 0.0,
			"-0.021": 0.0,
			"-0.02": 0.0,
			"-0.019": 0.0,
			"-0.018": 0.140176196346,
			"-0.017": 1.27123109787,
			"-0.016": 0.558075067245,
			"-0.015": 0.761015020403,
			"-0.014": 1.03980718316,
			"-0.013": 1.51641094007,
			"-0.012": 1.16720892045,
			"-0.011": 1.16023350969,
			"-0.01": 2.46369350444,
			"-0.009": 2.74117538337,
			"-0.008": 3.17079038943,
			"-0.007": 4.58506271795,
			"-0.006": 6.2387445557,
			"-0.005": 7.90515010248,
			"-0.004": 7.01647952956,
			"-0.003": 10.020319074,
			"-0.002": 22.8121325115,
			"-0.001": 32.6205986001,
			"0.0": 31.4995702715,
			"0.001": 27.11152397,
			"0.002": 16.8932353551,
			"0.003": 3.76309674928,
			"0.004": 3.0060451549,
			"0.005": 3.93787655528,
			"0.006": 3.08295013669,
			"0.007": 4.11922199725,
			"0.008": 4.01750021657,
			"0.009": 4.53329585206,
			"0.01": 6.75265282807,
			"0.011": 6.07084926824,
			"0.012": 4.09197488488,
			"0.013": 1.35444509712,
			"0.014": 0.0103921092706,
			"0.015": 0.0,
			"0.016": 0.0,
			"0.017": 0.0,
			"0.018": 0.0,
			"0.019": 0.0,
			"0.02": 0.0,
			"0.021": 0.0,
			"0.022": 0.0,
			"0.023": 0.0,
			"0.024": 0.0,
			"0.025": 0.0
		}
	}
}
