{
	 "smiles": "CC(=O)NC1=CC=C(F)C(Cl)=C1", 
	 "Tm": 390.65, 
	 "num_atms": 19, 
	 "gaussian": { 
		 "optdone": 1, 
		 "sigma_profile": "yes", 
		 "theory": "DFT", 
		 "functional": "B3LYP", 
		 "basiset": "6-31G**", 
		 "properties": { 
			 "R2extent": 4355.0391, 
			 "electric_dipole_moment_norm": 3.6217665234, 
			 "electric_quadrupole_moment_norm": 11.3579575188, 
			 "total_energy": -999.089173924, 
			 "HOMO_LUMO_gap": 0.20428, 
			 "cosmo_polarized_energy": -12.39, 
			 "cosmo_cavitation_energy": 25.81, 
			 "cosmo_dispersion_energy": -19.15, 
			 "cosmo_repulsion_energy": 1.51, 
			 "cosmo_total_nonelectrostatic_energy": 8.17, 
			 "SMD_solvation_energy": 5.47 
		},
		"coords": [
			{
				"x": -2.062982581,
				"y": 0.4147806262,
				"z": -1.4917852009,
				"element": "C" 
			},
			{
				"x": -0.5689506976,
				"y": 0.3652663282,
				"z": -1.2070930981,
				"element": "C" 
			},
			{
				"x": 0.2538886777,
				"y": 0.7088782471,
				"z": -2.0428624647,
				"element": "O" 
			},
			{
				"x": -0.2426041124,
				"y": -0.0932041428,
				"z": 0.053277553,
				"element": "N" 
			},
			{
				"x": 1.0359802784,
				"y": -0.2584277463,
				"z": 0.6254570427,
				"element": "C" 
			},
			{
				"x": 2.2296013369,
				"y": 0.040736058,
				"z": -0.0514202055,
				"element": "C" 
			},
			{
				"x": 3.4499962642,
				"y": -0.1532607231,
				"z": 0.5921059867,
				"element": "C" 
			},
			{
				"x": 3.4972399092,
				"y": -0.6382304772,
				"z": 1.8927572079,
				"element": "C" 
			},
			{
				"x": 4.6830035798,
				"y": -0.8187382682,
				"z": 2.4968663722,
				"element": "F" 
			},
			{
				"x": 2.3156819573,
				"y": -0.9374978148,
				"z": 2.5709563114,
				"element": "C" 
			},
			{
				"x": 2.3808090384,
				"y": -1.5470860602,
				"z": 4.2062133635,
				"element": "Cl" 
			},
			{
				"x": 1.0901409564,
				"y": -0.7482055954,
				"z": 1.9393926803,
				"element": "C" 
			},
			{
				"x": -2.270794735,
				"y": -0.2061749977,
				"z": -2.3673275461,
				"element": "H" 
			},
			{
				"x": -2.333798379,
				"y": 1.4420358302,
				"z": -1.7501768206,
				"element": "H" 
			},
			{
				"x": -2.6922002743,
				"y": 0.0801907263,
				"z": -0.6624020637,
				"element": "H" 
			},
			{
				"x": -1.015512089,
				"y": -0.3460078098,
				"z": 0.6509171076,
				"element": "H" 
			},
			{
				"x": 2.1862743598,
				"y": 0.4174922159,
				"z": -1.0627019556,
				"element": "H" 
			},
			{
				"x": 4.3841491473,
				"y": 0.0711443231,
				"z": 0.0883383796,
				"element": "H" 
			},
			{
				"x": 0.179677363,
				"y": -0.9859907196,
				"z": 2.4810873501,
				"element": "H" 
			}
		],
		 "valence_orbital": [ 
			{
				"type": "occ",
				"energy": -0.32074,
				"method": "rhf"
			},
			{
				"type": "occ",
				"energy": -0.30649,
				"method": "rhf"
			},
			{
				"type": "occ",
				"energy": -0.26306,
				"method": "rhf"
			},
			{
				"type": "occ",
				"energy": -0.26016,
				"method": "rhf"
			},
			{
				"type": "occ",
				"energy": -0.22807,
				"method": "rhf"
			},
			{
				"type": "unocc",
				"energy": -0.02379,
				"method": "rhf"
			},
			{
				"type": "unocc",
				"energy": -0.02133,
				"method": "rhf"
			},
			{
				"type": "unocc",
				"energy": 0.01785,
				"method": "rhf"
			},
			{
				"type": "unocc",
				"energy": 0.03612,
				"method": "rhf"
			},
			{
				"type": "unocc",
				"energy": 0.05662,
				"method": "rhf"
			}
		],
		"cosmo_sigma_profile": { 
			"-0.025": 0.0,
			"-0.024": 0.0,
			"-0.023": 0.0,
			"-0.022": 0.0,
			"-0.021": 0.0,
			"-0.02": 0.0,
			"-0.019": 0.0,
			"-0.018": 0.0,
			"-0.017": 0.0,
			"-0.016": 0.622376500305,
			"-0.015": 1.85688040496,
			"-0.014": 1.14594134838,
			"-0.013": 1.50003282046,
			"-0.012": 1.94222393691,
			"-0.011": 1.82358556718,
			"-0.01": 1.33640057489,
			"-0.009": 1.69321769973,
			"-0.008": 3.46378976205,
			"-0.007": 4.41697780844,
			"-0.006": 6.58044759188,
			"-0.005": 9.94877768947,
			"-0.004": 10.1099496681,
			"-0.003": 12.8008062434,
			"-0.002": 14.0479292914,
			"-0.001": 13.3612063485,
			"0.0": 16.8252643403,
			"0.001": 21.8552635961,
			"0.002": 21.1280813181,
			"0.003": 18.5096247668,
			"0.004": 20.8515833605,
			"0.005": 6.22389653652,
			"0.006": 2.2130590949,
			"0.007": 1.35499974243,
			"0.008": 1.39853426018,
			"0.009": 1.41722390144,
			"0.01": 1.79116797684,
			"0.011": 1.86976759171,
			"0.012": 2.59932944948,
			"0.013": 2.75128768791,
			"0.014": 1.57320433637,
			"0.015": 0.0931874964708,
			"0.016": 0.0,
			"0.017": 0.0,
			"0.018": 0.0,
			"0.019": 0.0,
			"0.02": 0.0,
			"0.021": 0.0,
			"0.022": 0.0,
			"0.023": 0.0,
			"0.024": 0.0,
			"0.025": 0.0
		}
	}
}
