{
	 "smiles": "O1C=NC=C1C1=CC=NC=C1", 
	 "Tm": 401.15, 
	 "num_atms": 17, 
	 "gaussian": { 
		 "optdone": 1, 
		 "sigma_profile": "yes", 
		 "theory": "DFT", 
		 "functional": "B3LYP", 
		 "basiset": "6-31G**", 
		 "properties": { 
			 "R2extent": 2288.9151, 
			 "electric_dipole_moment_norm": 1.11371361669, 
			 "electric_quadrupole_moment_norm": 13.9552783286, 
			 "total_energy": -493.169109186, 
			 "HOMO_LUMO_gap": 0.18127, 
			 "cosmo_polarized_energy": -9.65, 
			 "cosmo_cavitation_energy": 21.96, 
			 "cosmo_dispersion_energy": -16.42, 
			 "cosmo_repulsion_energy": 1.28, 
			 "cosmo_total_nonelectrostatic_energy": 6.81, 
			 "SMD_solvation_energy": 1.79 
		},
		"coords": [
			{
				"x": -0.7844135419,
				"y": 1.0374215594,
				"z": 2.3357433595,
				"element": "O" 
			},
			{
				"x": -0.7040430079,
				"y": 1.7913783586,
				"z": 3.4578202487,
				"element": "C" 
			},
			{
				"x": 0.5034219425,
				"y": 2.0336296186,
				"z": 3.8621529849,
				"element": "N" 
			},
			{
				"x": 1.3039619172,
				"y": 1.3891671816,
				"z": 2.9350061635,
				"element": "C" 
			},
			{
				"x": 0.5245701734,
				"y": 0.7745238641,
				"z": 1.9937643106,
				"element": "C" 
			},
			{
				"x": 0.7798187082,
				"y": -0.0294209553,
				"z": 0.8096631455,
				"element": "C" 
			},
			{
				"x": -0.2670538049,
				"y": -0.5334981664,
				"z": 0.0221772962,
				"element": "C" 
			},
			{
				"x": 0.0437567335,
				"y": -1.2974327774,
				"z": -1.1005678319,
				"element": "C" 
			},
			{
				"x": 1.291384359,
				"y": -1.5905096222,
				"z": -1.4892165466,
				"element": "N" 
			},
			{
				"x": 2.2853857603,
				"y": -1.1055258045,
				"z": -0.7319898148,
				"element": "C" 
			},
			{
				"x": 2.0915911275,
				"y": -0.3324260156,
				"z": 0.4086985812,
				"element": "C" 
			},
			{
				"x": -1.6370168796,
				"y": 2.1111594653,
				"z": 3.898077166,
				"element": "H" 
			},
			{
				"x": 2.381335782,
				"y": 1.4116064663,
				"z": 3.0080798863,
				"element": "H" 
			},
			{
				"x": -1.2998336735,
				"y": -0.3320689507,
				"z": 0.2827104028,
				"element": "H" 
			},
			{
				"x": -0.7571291392,
				"y": -1.6954160648,
				"z": -1.7213821344,
				"element": "H" 
			},
			{
				"x": 3.2962669847,
				"y": -1.3483391181,
				"z": -1.0548255797,
				"element": "H" 
			},
			{
				"x": 2.9470965588,
				"y": 0.0256509613,
				"z": 0.9722883621,
				"element": "H" 
			}
		],
		 "valence_orbital": [ 
			{
				"type": "occ",
				"energy": -0.32148,
				"method": "rhf"
			},
			{
				"type": "occ",
				"energy": -0.3013,
				"method": "rhf"
			},
			{
				"type": "occ",
				"energy": -0.26972,
				"method": "rhf"
			},
			{
				"type": "occ",
				"energy": -0.25951,
				"method": "rhf"
			},
			{
				"type": "occ",
				"energy": -0.24079,
				"method": "rhf"
			},
			{
				"type": "unocc",
				"energy": -0.05952,
				"method": "rhf"
			},
			{
				"type": "unocc",
				"energy": -0.01751,
				"method": "rhf"
			},
			{
				"type": "unocc",
				"energy": 0.01135,
				"method": "rhf"
			},
			{
				"type": "unocc",
				"energy": 0.06073,
				"method": "rhf"
			},
			{
				"type": "unocc",
				"energy": 0.0913,
				"method": "rhf"
			}
		],
		"cosmo_sigma_profile": { 
			"-0.025": 0.0,
			"-0.024": 0.0,
			"-0.023": 0.0,
			"-0.022": 0.0,
			"-0.021": 0.0,
			"-0.02": 0.0,
			"-0.019": 0.0,
			"-0.018": 0.0,
			"-0.017": 0.0,
			"-0.016": 0.0,
			"-0.015": 0.0,
			"-0.014": 0.0,
			"-0.013": 0.0,
			"-0.012": 0.145123938716,
			"-0.011": 1.80751127312,
			"-0.01": 1.93279023544,
			"-0.009": 4.56313885687,
			"-0.008": 4.30840412284,
			"-0.007": 6.74631669129,
			"-0.006": 11.4340254763,
			"-0.005": 8.9982011608,
			"-0.004": 8.7262344693,
			"-0.003": 8.47638599117,
			"-0.002": 10.7664244687,
			"-0.001": 14.6170256262,
			"0.0": 17.3582498036,
			"0.001": 16.4278634113,
			"0.002": 20.3333044464,
			"0.003": 7.85544678593,
			"0.004": 5.77106168778,
			"0.005": 3.72935741057,
			"0.006": 3.41839151421,
			"0.007": 1.65284197684,
			"0.008": 3.01170285249,
			"0.009": 2.83340906581,
			"0.01": 1.48711407908,
			"0.011": 2.2322919811,
			"0.012": 2.05657206391,
			"0.013": 2.19088097657,
			"0.014": 1.99005842855,
			"0.015": 1.97524044797,
			"0.016": 0.716226791155,
			"0.017": 0.390341273052,
			"0.018": 0.0,
			"0.019": 0.0,
			"0.02": 0.0,
			"0.021": 0.0,
			"0.022": 0.0,
			"0.023": 0.0,
			"0.024": 0.0,
			"0.025": 0.0
		}
	}
}
