{
	 "smiles": "SC1=NC2=C(CS1)C=CC=C2", 
	 "Tm": 423.15, 
	 "num_atms": 18, 
	 "gaussian": { 
		 "optdone": 1, 
		 "sigma_profile": "yes", 
		 "theory": "DFT", 
		 "functional": "B3LYP", 
		 "basiset": "6-31G**", 
		 "properties": { 
			 "R2extent": 3101.1692, 
			 "electric_dipole_moment_norm": 2.42751390109, 
			 "electric_quadrupole_moment_norm": 7.98912028073, 
			 "total_energy": -1160.18795673, 
			 "HOMO_LUMO_gap": 0.17448, 
			 "cosmo_polarized_energy": -8.45, 
			 "cosmo_cavitation_energy": 24.78, 
			 "cosmo_dispersion_energy": -19.67, 
			 "cosmo_repulsion_energy": 1.48, 
			 "cosmo_total_nonelectrostatic_energy": 6.58, 
			 "SMD_solvation_energy": 1.73 
		},
		"coords": [
			{
				"x": 3.4942614136,
				"y": -0.8193584375,
				"z": 2.9876167501,
				"element": "S" 
			},
			{
				"x": 2.4025671222,
				"y": -0.2692428468,
				"z": 1.6916950536,
				"element": "C" 
			},
			{
				"x": 1.4283124413,
				"y": -1.0316945393,
				"z": 1.3842587825,
				"element": "N" 
			},
			{
				"x": 0.6163669734,
				"y": -0.7907204713,
				"z": 0.2638826314,
				"element": "C" 
			},
			{
				"x": 0.4743000511,
				"y": 0.4805981639,
				"z": -0.3297895191,
				"element": "C" 
			},
			{
				"x": 1.1359521138,
				"y": 1.6718143716,
				"z": 0.3107550825,
				"element": "C" 
			},
			{
				"x": 2.8415435742,
				"y": 1.2694281261,
				"z": 0.8813916029,
				"element": "S" 
			},
			{
				"x": -0.3283218319,
				"y": 0.6187087851,
				"z": -1.4643346338,
				"element": "C" 
			},
			{
				"x": -0.9970124412,
				"y": -0.479874301,
				"z": -2.0070125666,
				"element": "C" 
			},
			{
				"x": -0.8662062595,
				"y": -1.7354487404,
				"z": -1.408961387,
				"element": "C" 
			},
			{
				"x": -0.0676326027,
				"y": -1.8881876978,
				"z": -0.278728796,
				"element": "C" 
			},
			{
				"x": 4.0903454095,
				"y": 0.370644169,
				"z": 3.2008802277,
				"element": "H" 
			},
			{
				"x": 1.2389605047,
				"y": 2.5015262375,
				"z": -0.3922836735,
				"element": "H" 
			},
			{
				"x": 0.5710553905,
				"y": 2.0290019975,
				"z": 1.178960833,
				"element": "H" 
			},
			{
				"x": -0.4370750744,
				"y": 1.5993236097,
				"z": -1.9216148891,
				"element": "H" 
			},
			{
				"x": -1.6202340392,
				"y": -0.3536374431,
				"z": -2.8871737633,
				"element": "H" 
			},
			{
				"x": -1.386340783,
				"y": -2.5942184418,
				"z": -1.8228501009,
				"element": "H" 
			},
			{
				"x": 0.0556580375,
				"y": -2.8532625412,
				"z": 0.2016083657,
				"element": "H" 
			}
		],
		 "valence_orbital": [ 
			{
				"type": "occ",
				"energy": -0.28547,
				"method": "rhf"
			},
			{
				"type": "occ",
				"energy": -0.26273,
				"method": "rhf"
			},
			{
				"type": "occ",
				"energy": -0.25794,
				"method": "rhf"
			},
			{
				"type": "occ",
				"energy": -0.25216,
				"method": "rhf"
			},
			{
				"type": "occ",
				"energy": -0.22232,
				"method": "rhf"
			},
			{
				"type": "unocc",
				"energy": -0.04784,
				"method": "rhf"
			},
			{
				"type": "unocc",
				"energy": -0.01151,
				"method": "rhf"
			},
			{
				"type": "unocc",
				"energy": -0.00132,
				"method": "rhf"
			},
			{
				"type": "unocc",
				"energy": 0.03167,
				"method": "rhf"
			},
			{
				"type": "unocc",
				"energy": 0.03477,
				"method": "rhf"
			}
		],
		"cosmo_sigma_profile": { 
			"-0.025": 0.0,
			"-0.024": 0.0,
			"-0.023": 0.0,
			"-0.022": 0.0,
			"-0.021": 0.0,
			"-0.02": 0.0,
			"-0.019": 0.0,
			"-0.018": 0.0,
			"-0.017": 0.0,
			"-0.016": 0.0,
			"-0.015": 0.0,
			"-0.014": 0.0,
			"-0.013": 0.0,
			"-0.012": 0.318444938805,
			"-0.011": 1.64490571908,
			"-0.01": 1.59311551284,
			"-0.009": 1.52450364025,
			"-0.008": 3.26661750291,
			"-0.007": 6.9689617623,
			"-0.006": 12.4302375637,
			"-0.005": 14.1095408985,
			"-0.004": 14.9255966848,
			"-0.003": 13.0078407064,
			"-0.002": 10.0605104841,
			"-0.001": 10.9805063625,
			"0.0": 8.71416995933,
			"0.001": 13.7858926846,
			"0.002": 17.4483011075,
			"0.003": 19.2904990207,
			"0.004": 19.2987541771,
			"0.005": 15.6935362578,
			"0.006": 7.91685872089,
			"0.007": 4.72951902691,
			"0.008": 1.36984593437,
			"0.009": 1.26848352221,
			"0.01": 0.969211172524,
			"0.011": 0.572926567444,
			"0.012": 1.01380462528,
			"0.013": 0.353346051192,
			"0.014": 0.0,
			"0.015": 0.0,
			"0.016": 0.0,
			"0.017": 0.0,
			"0.018": 0.0,
			"0.019": 0.0,
			"0.02": 0.0,
			"0.021": 0.0,
			"0.022": 0.0,
			"0.023": 0.0,
			"0.024": 0.0,
			"0.025": 0.0
		}
	}
}
