{
	 "smiles": "COC1=C(OC)C(=CC=C1)C1=NC(CC(O)=O)=CS1", 
	 "Tm": 430.15, 
	 "num_atms": 32, 
	 "gaussian": { 
		 "optdone": 1, 
		 "sigma_profile": "yes", 
		 "theory": "DFT", 
		 "functional": "B3LYP", 
		 "basiset": "6-31G**", 
		 "properties": { 
			 "R2extent": 7951.8513, 
			 "electric_dipole_moment_norm": 7.23017815064, 
			 "electric_quadrupole_moment_norm": 35.0087612987, 
			 "total_energy": -1257.03631714, 
			 "HOMO_LUMO_gap": 0.16374, 
			 "cosmo_polarized_energy": -15.23, 
			 "cosmo_cavitation_energy": 37.46, 
			 "cosmo_dispersion_energy": -26.96, 
			 "cosmo_repulsion_energy": 2.03, 
			 "cosmo_total_nonelectrostatic_energy": 12.53, 
			 "SMD_solvation_energy": 8.36 
		},
		"coords": [
			{
				"x": -3.567997642,
				"y": 0.3864180245,
				"z": -1.8138313245,
				"element": "C" 
			},
			{
				"x": -3.123607623,
				"y": 1.6410108808,
				"z": -1.2794058265,
				"element": "O" 
			},
			{
				"x": -2.4907987392,
				"y": 1.5560755515,
				"z": -0.0598754565,
				"element": "C" 
			},
			{
				"x": -1.1878398526,
				"y": 1.0331517417,
				"z": 0.0392766497,
				"element": "C" 
			},
			{
				"x": -0.5419823296,
				"y": 0.5490472465,
				"z": -1.0732338863,
				"element": "O" 
			},
			{
				"x": -0.1762990937,
				"y": 1.5363584188,
				"z": -2.0571334523,
				"element": "C" 
			},
			{
				"x": -0.5500325172,
				"y": 0.9527989132,
				"z": 1.2929802856,
				"element": "C" 
			},
			{
				"x": -1.2354640274,
				"y": 1.4239502893,
				"z": 2.4305373424,
				"element": "C" 
			},
			{
				"x": -2.5067187224,
				"y": 1.9712957844,
				"z": 2.3202647694,
				"element": "C" 
			},
			{
				"x": -3.1397512925,
				"y": 2.0339585515,
				"z": 1.0764480546,
				"element": "C" 
			},
			{
				"x": 0.8011438824,
				"y": 0.4007306831,
				"z": 1.4578998389,
				"element": "C" 
			},
			{
				"x": 1.451893858,
				"y": 0.4471692042,
				"z": 2.6006317975,
				"element": "N" 
			},
			{
				"x": 2.6924191603,
				"y": -0.1480313455,
				"z": 2.5376591586,
				"element": "C" 
			},
			{
				"x": 3.5404363442,
				"y": -0.175956331,
				"z": 3.7802605862,
				"element": "C" 
			},
			{
				"x": 3.6827885397,
				"y": 1.1599883042,
				"z": 4.5340305551,
				"element": "C" 
			},
			{
				"x": 2.5920685125,
				"y": 1.9420580709,
				"z": 4.5609251743,
				"element": "O" 
			},
			{
				"x": 4.6985210093,
				"y": 1.4545960397,
				"z": 5.117577758,
				"element": "O" 
			},
			{
				"x": 3.0067883381,
				"y": -0.6703646386,
				"z": 1.3150037785,
				"element": "C" 
			},
			{
				"x": 1.7108321373,
				"y": -0.4172844585,
				"z": 0.1949637253,
				"element": "S" 
			},
			{
				"x": -4.2954107564,
				"y": -0.0846362098,
				"z": -1.1414999962,
				"element": "H" 
			},
			{
				"x": -4.0511104672,
				"y": 0.614815726,
				"z": -2.7656841659,
				"element": "H" 
			},
			{
				"x": -2.7286492576,
				"y": -0.2963282162,
				"z": -1.9795204494,
				"element": "H" 
			},
			{
				"x": -1.0642661126,
				"y": 2.0378399842,
				"z": -2.4483945691,
				"element": "H" 
			},
			{
				"x": 0.5089739327,
				"y": 2.2729334062,
				"z": -1.6235987127,
				"element": "H" 
			},
			{
				"x": 0.3315833684,
				"y": 0.9913685373,
				"z": -2.8540513905,
				"element": "H" 
			},
			{
				"x": -0.7482491277,
				"y": 1.3513195647,
				"z": 3.3953101004,
				"element": "H" 
			},
			{
				"x": -3.0159697279,
				"y": 2.337163304,
				"z": 3.2061834796,
				"element": "H" 
			},
			{
				"x": -4.1387240548,
				"y": 2.4429712492,
				"z": 0.9649777916,
				"element": "H" 
			},
			{
				"x": 3.0994266269,
				"y": -0.881188111,
				"z": 4.4996816392,
				"element": "H" 
			},
			{
				"x": 4.5476608241,
				"y": -0.5319568006,
				"z": 3.561592581,
				"element": "H" 
			},
			{
				"x": 1.8970603873,
				"y": 1.5573994018,
				"z": 3.97580935,
				"element": "H" 
			},
			{
				"x": 3.9155744227,
				"y": -1.1741727663,
				"z": 1.0176148138,
				"element": "H" 
			}
		],
		 "valence_orbital": [ 
			{
				"type": "occ",
				"energy": -0.28756,
				"method": "rhf"
			},
			{
				"type": "occ",
				"energy": -0.27914,
				"method": "rhf"
			},
			{
				"type": "occ",
				"energy": -0.25358,
				"method": "rhf"
			},
			{
				"type": "occ",
				"energy": -0.24806,
				"method": "rhf"
			},
			{
				"type": "occ",
				"energy": -0.23077,
				"method": "rhf"
			},
			{
				"type": "unocc",
				"energy": -0.06703,
				"method": "rhf"
			},
			{
				"type": "unocc",
				"energy": -0.01493,
				"method": "rhf"
			},
			{
				"type": "unocc",
				"energy": 0.00588,
				"method": "rhf"
			},
			{
				"type": "unocc",
				"energy": 0.0192,
				"method": "rhf"
			},
			{
				"type": "unocc",
				"energy": 0.02877,
				"method": "rhf"
			}
		],
		"cosmo_sigma_profile": { 
			"-0.025": 0.0,
			"-0.024": 0.0,
			"-0.023": 0.0,
			"-0.022": 0.0,
			"-0.021": 0.0,
			"-0.02": 0.0,
			"-0.019": 0.0,
			"-0.018": 0.0,
			"-0.017": 0.0,
			"-0.016": 0.0,
			"-0.015": 0.0,
			"-0.014": 0.0,
			"-0.013": 0.0,
			"-0.012": 0.0,
			"-0.011": 0.0,
			"-0.01": 0.259893419703,
			"-0.009": 1.91876845376,
			"-0.008": 4.63831424511,
			"-0.007": 8.555625435,
			"-0.006": 15.4966233568,
			"-0.005": 20.837507215,
			"-0.004": 27.3376448627,
			"-0.003": 30.5615554998,
			"-0.002": 24.7605753082,
			"-0.001": 21.4590981065,
			"0.0": 23.1612956848,
			"0.001": 23.0156035978,
			"0.002": 25.1335769999,
			"0.003": 17.7882050056,
			"0.004": 11.1020242698,
			"0.005": 5.45167786376,
			"0.006": 6.00090948812,
			"0.007": 3.0733010086,
			"0.008": 3.27417827223,
			"0.009": 4.46646519622,
			"0.01": 5.08109983035,
			"0.011": 6.40816185578,
			"0.012": 6.72319923477,
			"0.013": 3.8697093168,
			"0.014": 0.632030653943,
			"0.015": 0.0,
			"0.016": 0.0,
			"0.017": 0.0,
			"0.018": 0.0,
			"0.019": 0.0,
			"0.02": 0.0,
			"0.021": 0.0,
			"0.022": 0.0,
			"0.023": 0.0,
			"0.024": 0.0,
			"0.025": 0.0
		}
	}
}
