{
	 "smiles": "OC1=C2C=CC=CC2=CC=C1[N+]([O-])=O", 
	 "Tm": 397.15, 
	 "num_atms": 21, 
	 "gaussian": { 
		 "optdone": 1, 
		 "sigma_profile": "yes", 
		 "theory": "DFT", 
		 "functional": "B3LYP", 
		 "basiset": "6-31G**", 
		 "properties": { 
			 "R2extent": 3040.3172, 
			 "electric_dipole_moment_norm": 6.59166212347, 
			 "electric_quadrupole_moment_norm": 17.0854224645, 
			 "total_energy": -665.601422239, 
			 "HOMO_LUMO_gap": 0.14908, 
			 "cosmo_polarized_energy": -15.61, 
			 "cosmo_cavitation_energy": 25.6, 
			 "cosmo_dispersion_energy": -19.37, 
			 "cosmo_repulsion_energy": 1.48, 
			 "cosmo_total_nonelectrostatic_energy": 7.71, 
			 "SMD_solvation_energy": 6.69 
		},
		"coords": [
			{
				"x": -0.614685912,
				"y": -2.6802955848,
				"z": -0.7775819986,
				"element": "O" 
			},
			{
				"x": 0.0768074408,
				"y": -1.5393799134,
				"z": -0.5818358635,
				"element": "C" 
			},
			{
				"x": -0.1804705541,
				"y": -0.7074814982,
				"z": 0.5636787043,
				"element": "C" 
			},
			{
				"x": -1.1093302187,
				"y": -1.0817372657,
				"z": 1.571467842,
				"element": "C" 
			},
			{
				"x": -1.3520328268,
				"y": -0.26661828,
				"z": 2.6555134712,
				"element": "C" 
			},
			{
				"x": -0.670785874,
				"y": 0.9646972901,
				"z": 2.7846774715,
				"element": "C" 
			},
			{
				"x": 0.2488521736,
				"y": 1.3475553448,
				"z": 1.8339333117,
				"element": "C" 
			},
			{
				"x": 0.5251323062,
				"y": 0.5298482922,
				"z": 0.7074639111,
				"element": "C" 
			},
			{
				"x": 1.4836880981,
				"y": 0.9083207039,
				"z": -0.2727678527,
				"element": "C" 
			},
			{
				"x": 1.733293946,
				"y": 0.0960256944,
				"z": -1.3446383626,
				"element": "C" 
			},
			{
				"x": 1.0410352296,
				"y": -1.1297541751,
				"z": -1.5012074772,
				"element": "C" 
			},
			{
				"x": 1.3718705167,
				"y": -1.9248450167,
				"z": -2.6858198883,
				"element": "N" 
			},
			{
				"x": 1.0828854358,
				"y": -3.1187415228,
				"z": -2.6963677266,
				"element": "O" 
			},
			{
				"x": 1.9458691829,
				"y": -1.3373998704,
				"z": -3.608906313,
				"element": "O" 
			},
			{
				"x": -1.3636773927,
				"y": -2.7084910564,
				"z": -0.1683144115,
				"element": "H" 
			},
			{
				"x": -1.6271256928,
				"y": -2.0372167104,
				"z": 1.5267297534,
				"element": "H" 
			},
			{
				"x": -2.0614661421,
				"y": -0.5755018657,
				"z": 3.4167743465,
				"element": "H" 
			},
			{
				"x": -0.8690558079,
				"y": 1.6028599976,
				"z": 3.6404650118,
				"element": "H" 
			},
			{
				"x": 0.7840236235,
				"y": 2.2877689865,
				"z": 1.9334378972,
				"element": "H" 
			},
			{
				"x": 2.0178921904,
				"y": 1.8459814909,
				"z": -0.1568398249,
				"element": "H" 
			},
			{
				"x": 2.4522802775,
				"y": 0.3613049592,
				"z": -2.1088620018,
				"element": "H" 
			}
		],
		 "valence_orbital": [ 
			{
				"type": "occ",
				"energy": -0.29297,
				"method": "rhf"
			},
			{
				"type": "occ",
				"energy": -0.29172,
				"method": "rhf"
			},
			{
				"type": "occ",
				"energy": -0.27863,
				"method": "rhf"
			},
			{
				"type": "occ",
				"energy": -0.26629,
				"method": "rhf"
			},
			{
				"type": "occ",
				"energy": -0.22933,
				"method": "rhf"
			},
			{
				"type": "unocc",
				"energy": -0.08025,
				"method": "rhf"
			},
			{
				"type": "unocc",
				"energy": -0.0511,
				"method": "rhf"
			},
			{
				"type": "unocc",
				"energy": -0.01514,
				"method": "rhf"
			},
			{
				"type": "unocc",
				"energy": 0.01737,
				"method": "rhf"
			},
			{
				"type": "unocc",
				"energy": 0.04254,
				"method": "rhf"
			}
		],
		"cosmo_sigma_profile": { 
			"-0.025": 0.0,
			"-0.024": 0.0,
			"-0.023": 0.0,
			"-0.022": 0.0,
			"-0.021": 0.0,
			"-0.02": 0.0070404703014,
			"-0.019": 0.860441236846,
			"-0.018": 0.890003761164,
			"-0.017": 0.972359921861,
			"-0.016": 0.687617167779,
			"-0.015": 0.580023554232,
			"-0.014": 0.703867718518,
			"-0.013": 1.38153609309,
			"-0.012": 1.7161787182,
			"-0.011": 0.779484670118,
			"-0.01": 0.661939540479,
			"-0.009": 1.30498801634,
			"-0.008": 1.73120573325,
			"-0.007": 8.64039039,
			"-0.006": 12.7754422093,
			"-0.005": 13.781691937,
			"-0.004": 11.0702551461,
			"-0.003": 9.99776473298,
			"-0.002": 11.03303584,
			"-0.001": 13.480456863,
			"0.0": 14.2648129555,
			"0.001": 14.4056331223,
			"0.002": 19.6801592245,
			"0.003": 17.6545774421,
			"0.004": 7.95957311382,
			"0.005": 2.35215987644,
			"0.006": 3.55047532189,
			"0.007": 4.74429599546,
			"0.008": 8.79671655634,
			"0.009": 8.31602360609,
			"0.01": 5.57296089297,
			"0.011": 3.47933566863,
			"0.012": 1.48587830664,
			"0.013": 0.812509704625,
			"0.014": 0.0327290311456,
			"0.015": 0.0,
			"0.016": 0.0,
			"0.017": 0.0,
			"0.018": 0.0,
			"0.019": 0.0,
			"0.02": 0.0,
			"0.021": 0.0,
			"0.022": 0.0,
			"0.023": 0.0,
			"0.024": 0.0,
			"0.025": 0.0
		}
	}
}
