{
	 "smiles": "N(NC1=CC=CC(=C1)N1C=CC=N1)C1=CC(=CC=C1)N1C=CC=N1", 
	 "Tm": 443.15, 
	 "num_atms": 40, 
	 "gaussian": { 
		 "optdone": 1, 
		 "sigma_profile": "yes", 
		 "theory": "DFT", 
		 "functional": "B3LYP", 
		 "basiset": "6-31G**", 
		 "properties": { 
			 "R2extent": 10298.6146, 
			 "electric_dipole_moment_norm": 1.93293332787, 
			 "electric_quadrupole_moment_norm": 21.3414657695, 
			 "total_energy": -1023.98953685, 
			 "HOMO_LUMO_gap": 0.18173, 
			 "cosmo_polarized_energy": -18.73, 
			 "cosmo_cavitation_energy": 44.99, 
			 "cosmo_dispersion_energy": -31.17, 
			 "cosmo_repulsion_energy": 2.34, 
			 "cosmo_total_nonelectrostatic_energy": 16.16, 
			 "SMD_solvation_energy": 7.28 
		},
		"coords": [
			{
				"x": 1.6193613139,
				"y": -1.5859998116,
				"z": 2.1288923394,
				"element": "N" 
			},
			{
				"x": 1.5663470424,
				"y": -0.5598889901,
				"z": 3.0704642681,
				"element": "N" 
			},
			{
				"x": 1.4938782435,
				"y": 0.7703281355,
				"z": 2.6148607934,
				"element": "C" 
			},
			{
				"x": 1.0647508477,
				"y": 1.7690425959,
				"z": 3.5034625169,
				"element": "C" 
			},
			{
				"x": 1.0565764195,
				"y": 3.0995078932,
				"z": 3.091473323,
				"element": "C" 
			},
			{
				"x": 1.4502210534,
				"y": 3.4626161863,
				"z": 1.8051131908,
				"element": "C" 
			},
			{
				"x": 1.8674453045,
				"y": 2.4583947634,
				"z": 0.9251167558,
				"element": "C" 
			},
			{
				"x": 1.9026406864,
				"y": 1.1188782263,
				"z": 1.3227410707,
				"element": "C" 
			},
			{
				"x": 2.2563706303,
				"y": 2.8099632175,
				"z": -0.3947258833,
				"element": "N" 
			},
			{
				"x": 2.3263570036,
				"y": 2.0044105824,
				"z": -1.4987606509,
				"element": "C" 
			},
			{
				"x": 2.7387528744,
				"y": 2.7955022513,
				"z": -2.5483973286,
				"element": "C" 
			},
			{
				"x": 2.8921915174,
				"y": 4.0819979703,
				"z": -1.9806661482,
				"element": "C" 
			},
			{
				"x": 2.6001275188,
				"y": 4.0923503679,
				"z": -0.6848093035,
				"element": "N" 
			},
			{
				"x": 0.4315138899,
				"y": -2.2283780574,
				"z": 1.7289933133,
				"element": "C" 
			},
			{
				"x": -0.80771042,
				"y": -1.5827621962,
				"z": 1.8207450551,
				"element": "C" 
			},
			{
				"x": -1.9621946628,
				"y": -2.2336216803,
				"z": 1.3718335993,
				"element": "C" 
			},
			{
				"x": -1.9031079633,
				"y": -3.5309030273,
				"z": 0.855537299,
				"element": "C" 
			},
			{
				"x": -0.6633975567,
				"y": -4.1648310189,
				"z": 0.7826537398,
				"element": "C" 
			},
			{
				"x": 0.5002229577,
				"y": -3.530295346,
				"z": 1.2070285789,
				"element": "C" 
			},
			{
				"x": -3.2131903987,
				"y": -1.567165424,
				"z": 1.4391537591,
				"element": "N" 
			},
			{
				"x": -3.4517955195,
				"y": -0.2207348785,
				"z": 1.5054653741,
				"element": "C" 
			},
			{
				"x": -4.8189907014,
				"y": -0.0568455159,
				"z": 1.5377228948,
				"element": "C" 
			},
			{
				"x": -5.3336937122,
				"y": -1.3734617906,
				"z": 1.481761897,
				"element": "C" 
			},
			{
				"x": -4.3681507852,
				"y": -2.2836451959,
				"z": 1.4203543896,
				"element": "N" 
			},
			{
				"x": 2.3855839004,
				"y": -2.2204486014,
				"z": 2.3174653025,
				"element": "H" 
			},
			{
				"x": 0.9611479425,
				"y": -0.7569039713,
				"z": 3.8638363874,
				"element": "H" 
			},
			{
				"x": 0.7557696526,
				"y": 1.5024742738,
				"z": 4.5109962526,
				"element": "H" 
			},
			{
				"x": 0.7271337837,
				"y": 3.8685734581,
				"z": 3.7840638259,
				"element": "H" 
			},
			{
				"x": 1.4415702411,
				"y": 4.4918750179,
				"z": 1.4721213349,
				"element": "H" 
			},
			{
				"x": 2.2570113189,
				"y": 0.339695049,
				"z": 0.6607682195,
				"element": "H" 
			},
			{
				"x": 2.0562470944,
				"y": 0.9609689593,
				"z": -1.4600074526,
				"element": "H" 
			},
			{
				"x": 2.8961718421,
				"y": 2.4914062183,
				"z": -3.5722901987,
				"element": "H" 
			},
			{
				"x": 3.205473894,
				"y": 4.9986214111,
				"z": -2.462753236,
				"element": "H" 
			},
			{
				"x": -0.8665102344,
				"y": -0.5866252003,
				"z": 2.2398745417,
				"element": "H" 
			},
			{
				"x": -2.8138212494,
				"y": -4.0142556939,
				"z": 0.5277414018,
				"element": "H" 
			},
			{
				"x": -0.6049089098,
				"y": -5.1741321036,
				"z": 0.3858825095,
				"element": "H" 
			},
			{
				"x": 1.4594506924,
				"y": -4.0373867394,
				"z": 1.1425402288,
				"element": "H" 
			},
			{
				"x": -2.6505106942,
				"y": 0.5015030197,
				"z": 1.4931535077,
				"element": "H" 
			},
			{
				"x": -5.3634584475,
				"y": 0.8742709682,
				"z": 1.5837405551,
				"element": "H" 
			},
			{
				"x": -6.3671764105,
				"y": -1.6937953226,
				"z": 1.4864519762,
				"element": "H" 
			}
		],
		 "valence_orbital": [ 
			{
				"type": "occ",
				"energy": -0.24696,
				"method": "rhf"
			},
			{
				"type": "occ",
				"energy": -0.23867,
				"method": "rhf"
			},
			{
				"type": "occ",
				"energy": -0.22961,
				"method": "rhf"
			},
			{
				"type": "occ",
				"energy": -0.21677,
				"method": "rhf"
			},
			{
				"type": "occ",
				"energy": -0.20957,
				"method": "rhf"
			},
			{
				"type": "unocc",
				"energy": -0.02784,
				"method": "rhf"
			},
			{
				"type": "unocc",
				"energy": -0.02071,
				"method": "rhf"
			},
			{
				"type": "unocc",
				"energy": -0.00222,
				"method": "rhf"
			},
			{
				"type": "unocc",
				"energy": 0.00475,
				"method": "rhf"
			},
			{
				"type": "unocc",
				"energy": 0.03708,
				"method": "rhf"
			}
		],
		"cosmo_sigma_profile": { 
			"-0.025": 0.0,
			"-0.024": 0.0,
			"-0.023": 0.0,
			"-0.022": 0.0,
			"-0.021": 0.0,
			"-0.02": 0.0,
			"-0.019": 0.0,
			"-0.018": 0.0,
			"-0.017": 0.0,
			"-0.016": 0.0,
			"-0.015": 0.0,
			"-0.014": 0.18699512651,
			"-0.013": 2.03229697106,
			"-0.012": 2.89531748665,
			"-0.011": 2.33547138365,
			"-0.01": 3.40530146534,
			"-0.009": 6.08470303764,
			"-0.008": 7.73785534884,
			"-0.007": 14.637734194,
			"-0.006": 19.2786190404,
			"-0.005": 20.3703622563,
			"-0.004": 23.5835438115,
			"-0.003": 20.4861231296,
			"-0.002": 20.6504436424,
			"-0.001": 16.2372314972,
			"0.0": 20.2054277359,
			"0.001": 22.004370787,
			"0.002": 26.3805999272,
			"0.003": 29.1470166868,
			"0.004": 34.8718455249,
			"0.005": 35.0364298655,
			"0.006": 10.8970459837,
			"0.007": 4.34512301967,
			"0.008": 4.18134358163,
			"0.009": 3.98549277387,
			"0.01": 2.88812143631,
			"0.011": 3.07982523622,
			"0.012": 2.15657922908,
			"0.013": 1.66326042045,
			"0.014": 1.19227961003,
			"0.015": 0.0285133534654,
			"0.016": 0.0,
			"0.017": 0.0,
			"0.018": 0.0,
			"0.019": 0.0,
			"0.02": 0.0,
			"0.021": 0.0,
			"0.022": 0.0,
			"0.023": 0.0,
			"0.024": 0.0,
			"0.025": 0.0
		}
	}
}
