{
	 "smiles": "OC(=O)CCC1=CC=NC=C1", 
	 "Tm": 483.15, 
	 "num_atms": 20, 
	 "gaussian": { 
		 "optdone": 1, 
		 "sigma_profile": "yes", 
		 "theory": "DFT", 
		 "functional": "B3LYP", 
		 "basiset": "6-31G**", 
		 "properties": { 
			 "R2extent": 2754.1565, 
			 "electric_dipole_moment_norm": 2.50535864299, 
			 "electric_quadrupole_moment_norm": 26.2314534126, 
			 "total_energy": -515.480951521, 
			 "HOMO_LUMO_gap": 0.22865, 
			 "cosmo_polarized_energy": -18.27, 
			 "cosmo_cavitation_energy": 24.71, 
			 "cosmo_dispersion_energy": -17.76, 
			 "cosmo_repulsion_energy": 1.44, 
			 "cosmo_total_nonelectrostatic_energy": 8.39, 
			 "SMD_solvation_energy": 3.9 
		},
		"coords": [
			{
				"x": -2.570000354,
				"y": 1.4525145306,
				"z": 1.3425458903,
				"element": "O" 
			},
			{
				"x": -1.9356228346,
				"y": 0.5984128632,
				"z": 0.4950656441,
				"element": "C" 
			},
			{
				"x": -2.530790327,
				"y": 0.1145770578,
				"z": -0.4341773062,
				"element": "O" 
			},
			{
				"x": -0.471165694,
				"y": 0.3262913051,
				"z": 0.8197633359,
				"element": "C" 
			},
			{
				"x": 0.1800742625,
				"y": -0.6455307428,
				"z": -0.177013182,
				"element": "C" 
			},
			{
				"x": 1.6313749754,
				"y": -0.9080818306,
				"z": 0.153459211,
				"element": "C" 
			},
			{
				"x": 2.6563129776,
				"y": -0.1045941747,
				"z": -0.3595162912,
				"element": "C" 
			},
			{
				"x": 3.977678837,
				"y": -0.3665934978,
				"z": 0.0026260345,
				"element": "C" 
			},
			{
				"x": 4.343057428,
				"y": -1.3571066068,
				"z": 0.8263390796,
				"element": "N" 
			},
			{
				"x": 3.3610749947,
				"y": -2.1264698851,
				"z": 1.3130905166,
				"element": "C" 
			},
			{
				"x": 2.0109942325,
				"y": -1.9463913456,
				"z": 1.0119642737,
				"element": "C" 
			},
			{
				"x": -1.963447828,
				"y": 1.7546150648,
				"z": 2.0336554609,
				"element": "H" 
			},
			{
				"x": -0.4052520691,
				"y": -0.0712827673,
				"z": 1.8418446627,
				"element": "H" 
			},
			{
				"x": 0.0700102061,
				"y": 1.2823417012,
				"z": 0.8325657006,
				"element": "H" 
			},
			{
				"x": -0.3868658942,
				"y": -1.5812709261,
				"z": -0.1761718997,
				"element": "H" 
			},
			{
				"x": 0.0874349422,
				"y": -0.2290947976,
				"z": -1.1845077958,
				"element": "H" 
			},
			{
				"x": 2.4313111515,
				"y": 0.7121824002,
				"z": -1.0406018009,
				"element": "H" 
			},
			{
				"x": 4.7838869759,
				"y": 0.2491882599,
				"z": -0.3930545463,
				"element": "H" 
			},
			{
				"x": 3.6689044805,
				"y": -2.9331429631,
				"z": 1.9765975876,
				"element": "H" 
			},
			{
				"x": 1.2658295368,
				"y": -2.6143636451,
				"z": 1.4364254247,
				"element": "H" 
			}
		],
		 "valence_orbital": [ 
			{
				"type": "occ",
				"energy": -0.32338,
				"method": "rhf"
			},
			{
				"type": "occ",
				"energy": -0.28749,
				"method": "rhf"
			},
			{
				"type": "occ",
				"energy": -0.27469,
				"method": "rhf"
			},
			{
				"type": "occ",
				"energy": -0.2665,
				"method": "rhf"
			},
			{
				"type": "occ",
				"energy": -0.25684,
				"method": "rhf"
			},
			{
				"type": "unocc",
				"energy": -0.02819,
				"method": "rhf"
			},
			{
				"type": "unocc",
				"energy": -0.01692,
				"method": "rhf"
			},
			{
				"type": "unocc",
				"energy": 0.00388,
				"method": "rhf"
			},
			{
				"type": "unocc",
				"energy": 0.04773,
				"method": "rhf"
			},
			{
				"type": "unocc",
				"energy": 0.08478,
				"method": "rhf"
			}
		],
		"cosmo_sigma_profile": { 
			"-0.025": 0.0,
			"-0.024": 0.0,
			"-0.023": 0.0,
			"-0.022": 0.0,
			"-0.021": 0.0,
			"-0.02": 0.0,
			"-0.019": 0.823618290087,
			"-0.018": 1.12928506871,
			"-0.017": 0.304237787097,
			"-0.016": 1.73806059582,
			"-0.015": 1.24197101079,
			"-0.014": 1.1770349398,
			"-0.013": 0.911828810313,
			"-0.012": 0.882572445836,
			"-0.011": 1.67074866879,
			"-0.01": 1.11837278082,
			"-0.009": 1.09169879971,
			"-0.008": 2.27337351428,
			"-0.007": 5.51098924107,
			"-0.006": 15.6465045709,
			"-0.005": 19.4915296905,
			"-0.004": 15.0784061813,
			"-0.003": 10.383936762,
			"-0.002": 10.5073221615,
			"-0.001": 9.11306209824,
			"0.0": 9.81173198237,
			"0.001": 9.28788160864,
			"0.002": 11.1888974733,
			"0.003": 15.4860421066,
			"0.004": 4.25530858017,
			"0.005": 4.75206918971,
			"0.006": 4.17549751597,
			"0.007": 3.49032247873,
			"0.008": 4.24165780403,
			"0.009": 4.74151907038,
			"0.01": 5.8815656749,
			"0.011": 6.16268226826,
			"0.012": 6.36305673841,
			"0.013": 2.3935537563,
			"0.014": 0.963498789368,
			"0.015": 1.24285213025,
			"0.016": 0.766558182762,
			"0.017": 0.589380447746,
			"0.018": 0.0373708685272,
			"0.019": 0.0,
			"0.02": 0.0,
			"0.021": 0.0,
			"0.022": 0.0,
			"0.023": 0.0,
			"0.024": 0.0,
			"0.025": 0.0
		}
	}
}
