{
	 "smiles": "N1N=NN=C1C1=NC=CC=C1", 
	 "Tm": 488.15, 
	 "num_atms": 16, 
	 "gaussian": { 
		 "optdone": 1, 
		 "sigma_profile": "yes", 
		 "theory": "DFT", 
		 "functional": "B3LYP", 
		 "basiset": "6-31G**", 
		 "properties": { 
			 "R2extent": 3360.8076, 
			 "electric_dipole_moment_norm": 7.62495177755, 
			 "electric_quadrupole_moment_norm": 27.0361917466, 
			 "total_energy": -505.341756673, 
			 "HOMO_LUMO_gap": 0.20365, 
			 "cosmo_polarized_energy": -23.41, 
			 "cosmo_cavitation_energy": 21.49, 
			 "cosmo_dispersion_energy": -16.13, 
			 "cosmo_repulsion_energy": 1.28, 
			 "cosmo_total_nonelectrostatic_energy": 6.65, 
			 "SMD_solvation_energy": 0.55 
		},
		"coords": [
			{
				"x": -0.0935001787,
				"y": -2.0774448105,
				"z": 1.727940793,
				"element": "N" 
			},
			{
				"x": -0.4902080242,
				"y": -2.9912202519,
				"z": 2.640000241,
				"element": "N" 
			},
			{
				"x": 0.4957514969,
				"y": -3.1087301237,
				"z": 3.4705502971,
				"element": "N" 
			},
			{
				"x": 1.5277956106,
				"y": -2.2916060729,
				"z": 3.1373999949,
				"element": "N" 
			},
			{
				"x": 1.1518848307,
				"y": -1.6453129587,
				"z": 2.0452597732,
				"element": "C" 
			},
			{
				"x": 1.9228035456,
				"y": -0.6537473702,
				"z": 1.2752084859,
				"element": "C" 
			},
			{
				"x": 2.8450020695,
				"y": 0.0424620574,
				"z": 1.9581215522,
				"element": "N" 
			},
			{
				"x": 3.5585730191,
				"y": 0.9479024408,
				"z": 1.2865735512,
				"element": "C" 
			},
			{
				"x": 3.3931620614,
				"y": 1.2146285689,
				"z": -0.0758538333,
				"element": "C" 
			},
			{
				"x": 2.4368153231,
				"y": 0.4854379739,
				"z": -0.7786990204,
				"element": "C" 
			},
			{
				"x": 1.688667327,
				"y": -0.4711660709,
				"z": -0.0956645,
				"element": "C" 
			},
			{
				"x": -0.7283858486,
				"y": -1.7803893001,
				"z": 1.0014951388,
				"element": "H" 
			},
			{
				"x": 4.3000118249,
				"y": 1.493103861,
				"z": 1.8674160218,
				"element": "H" 
			},
			{
				"x": 4.0014055071,
				"y": 1.9678170341,
				"z": -0.5659426948,
				"element": "H" 
			},
			{
				"x": 2.2806583521,
				"y": 0.6486836442,
				"z": -1.8407203175,
				"element": "H" 
			},
			{
				"x": 0.9605630836,
				"y": -1.0797186212,
				"z": -0.6236854831,
				"element": "H" 
			}
		],
		 "valence_orbital": [ 
			{
				"type": "occ",
				"energy": -0.30775,
				"method": "rhf"
			},
			{
				"type": "occ",
				"energy": -0.29834,
				"method": "rhf"
			},
			{
				"type": "occ",
				"energy": -0.28544,
				"method": "rhf"
			},
			{
				"type": "occ",
				"energy": -0.27343,
				"method": "rhf"
			},
			{
				"type": "occ",
				"energy": -0.26863,
				"method": "rhf"
			},
			{
				"type": "unocc",
				"energy": -0.06498,
				"method": "rhf"
			},
			{
				"type": "unocc",
				"energy": -0.04416,
				"method": "rhf"
			},
			{
				"type": "unocc",
				"energy": -0.00406,
				"method": "rhf"
			},
			{
				"type": "unocc",
				"energy": 0.04071,
				"method": "rhf"
			},
			{
				"type": "unocc",
				"energy": 0.04831,
				"method": "rhf"
			}
		],
		"cosmo_sigma_profile": { 
			"-0.025": 0.0,
			"-0.024": 0.0,
			"-0.023": 0.0,
			"-0.022": 0.0,
			"-0.021": 0.0,
			"-0.02": 0.0922671279276,
			"-0.019": 1.39232659937,
			"-0.018": 1.18656833194,
			"-0.017": 1.13494608606,
			"-0.016": 1.48831805865,
			"-0.015": 2.09508618486,
			"-0.014": 1.46726608838,
			"-0.013": 0.96380070057,
			"-0.012": 0.939706950894,
			"-0.011": 1.20801443503,
			"-0.01": 1.70233163361,
			"-0.009": 2.26501741262,
			"-0.008": 4.76121664999,
			"-0.007": 10.2798984462,
			"-0.006": 10.9542611772,
			"-0.005": 7.92216387109,
			"-0.004": 9.64919463457,
			"-0.003": 9.39143516337,
			"-0.002": 6.98121164664,
			"-0.001": 8.88849095997,
			"0.0": 12.1837524732,
			"0.001": 14.9961975606,
			"0.002": 6.77900984617,
			"0.003": 4.05010583641,
			"0.004": 4.04236734165,
			"0.005": 3.03745798148,
			"0.006": 3.77437364395,
			"0.007": 5.12077756359,
			"0.008": 5.59356167437,
			"0.009": 4.86687015726,
			"0.01": 6.17160174951,
			"0.011": 5.17915335721,
			"0.012": 3.76622966579,
			"0.013": 3.00206484129,
			"0.014": 2.9309779093,
			"0.015": 2.56768503621,
			"0.016": 1.20517194013,
			"0.017": 0.00848423493353,
			"0.018": 0.0,
			"0.019": 0.0,
			"0.02": 0.0,
			"0.021": 0.0,
			"0.022": 0.0,
			"0.023": 0.0,
			"0.024": 0.0,
			"0.025": 0.0
		}
	}
}
