{
	 "smiles": "NC(=O)COC1=CC=C(C=CC(O)=O)C=C1", 
	 "Tm": 569.15, 
	 "num_atms": 27, 
	 "gaussian": { 
		 "optdone": 1, 
		 "sigma_profile": "yes", 
		 "theory": "DFT", 
		 "functional": "B3LYP", 
		 "basiset": "6-31G**", 
		 "properties": { 
			 "R2extent": 7012.5466, 
			 "electric_dipole_moment_norm": 4.45582947048, 
			 "electric_quadrupole_moment_norm": 44.1877985946, 
			 "total_energy": -781.447119484, 
			 "HOMO_LUMO_gap": 0.15986, 
			 "cosmo_polarized_energy": -25.59, 
			 "cosmo_cavitation_energy": 32.85, 
			 "cosmo_dispersion_energy": -23.53, 
			 "cosmo_repulsion_energy": 1.86, 
			 "cosmo_total_nonelectrostatic_energy": 11.17, 
			 "SMD_solvation_energy": 7.91 
		},
		"coords": [
			{
				"x": 1.8243207164,
				"y": -2.9759818113,
				"z": 0.1580517968,
				"element": "N" 
			},
			{
				"x": 2.1805570151,
				"y": -2.4219571995,
				"z": 1.3461992308,
				"element": "C" 
			},
			{
				"x": 3.2649434651,
				"y": -1.9094298647,
				"z": 1.5777525904,
				"element": "O" 
			},
			{
				"x": 1.1198171103,
				"y": -2.539986752,
				"z": 2.4496742468,
				"element": "C" 
			},
			{
				"x": -0.2173058274,
				"y": -2.6678509194,
				"z": 1.9710225989,
				"element": "O" 
			},
			{
				"x": -0.8792754529,
				"y": -1.5385029815,
				"z": 1.5658141706,
				"element": "C" 
			},
			{
				"x": -2.238213223,
				"y": -1.7072435967,
				"z": 1.2688629237,
				"element": "C" 
			},
			{
				"x": -2.9917633016,
				"y": -0.6230959853,
				"z": 0.844641808,
				"element": "C" 
			},
			{
				"x": -2.4239346132,
				"y": 0.6596616199,
				"z": 0.7041161952,
				"element": "C" 
			},
			{
				"x": -3.2721604062,
				"y": 1.7584545056,
				"z": 0.2559099321,
				"element": "C" 
			},
			{
				"x": -2.9410723366,
				"y": 3.0506363736,
				"z": 0.0688285256,
				"element": "C" 
			},
			{
				"x": -3.9713665132,
				"y": 4.0101445762,
				"z": -0.3986524187,
				"element": "C" 
			},
			{
				"x": -3.5517046231,
				"y": 5.2984273153,
				"z": -0.5577104117,
				"element": "O" 
			},
			{
				"x": -5.1232338679,
				"y": 3.7232762439,
				"z": -0.638678691,
				"element": "O" 
			},
			{
				"x": -1.0575245512,
				"y": 0.8018471381,
				"z": 1.0049576086,
				"element": "C" 
			},
			{
				"x": -0.2852426697,
				"y": -0.2747496237,
				"z": 1.4292612267,
				"element": "C" 
			},
			{
				"x": 0.8924214157,
				"y": -3.3302863388,
				"z": 0.0106836513,
				"element": "H" 
			},
			{
				"x": 2.4691121256,
				"y": -2.9185330094,
				"z": -0.6151073691,
				"element": "H" 
			},
			{
				"x": 1.2336145478,
				"y": -1.690307616,
				"z": 3.1285089222,
				"element": "H" 
			},
			{
				"x": 1.314264913,
				"y": -3.4569188148,
				"z": 3.0141545912,
				"element": "H" 
			},
			{
				"x": -2.6793729149,
				"y": -2.6916408035,
				"z": 1.384667848,
				"element": "H" 
			},
			{
				"x": -4.0456655708,
				"y": -0.7621524973,
				"z": 0.6197653744,
				"element": "H" 
			},
			{
				"x": -4.3105538885,
				"y": 1.5066856551,
				"z": 0.0438527653,
				"element": "H" 
			},
			{
				"x": -1.9320396008,
				"y": 3.4142614526,
				"z": 0.2528969883,
				"element": "H" 
			},
			{
				"x": -2.6155861949,
				"y": 5.3772265709,
				"z": -0.3283133577,
				"element": "H" 
			},
			{
				"x": -0.5779183923,
				"y": 1.7703201298,
				"z": 0.9022440663,
				"element": "H" 
			},
			{
				"x": 0.7681826388,
				"y": -0.124003767,
				"z": 1.6343951872,
				"element": "H" 
			}
		],
		 "valence_orbital": [ 
			{
				"type": "occ",
				"energy": -0.2829,
				"method": "rhf"
			},
			{
				"type": "occ",
				"energy": -0.27403,
				"method": "rhf"
			},
			{
				"type": "occ",
				"energy": -0.26642,
				"method": "rhf"
			},
			{
				"type": "occ",
				"energy": -0.26271,
				"method": "rhf"
			},
			{
				"type": "occ",
				"energy": -0.22872,
				"method": "rhf"
			},
			{
				"type": "unocc",
				"energy": -0.06886,
				"method": "rhf"
			},
			{
				"type": "unocc",
				"energy": -0.02328,
				"method": "rhf"
			},
			{
				"type": "unocc",
				"energy": 0.01094,
				"method": "rhf"
			},
			{
				"type": "unocc",
				"energy": 0.0205,
				"method": "rhf"
			},
			{
				"type": "unocc",
				"energy": 0.05945,
				"method": "rhf"
			}
		],
		"cosmo_sigma_profile": { 
			"-0.025": 0.0,
			"-0.024": 0.0,
			"-0.023": 0.0,
			"-0.022": 0.0,
			"-0.021": 0.0,
			"-0.02": 0.000620241204334,
			"-0.019": 0.555650939102,
			"-0.018": 1.00065347656,
			"-0.017": 1.45496885361,
			"-0.016": 0.900274106185,
			"-0.015": 1.10509949364,
			"-0.014": 2.28430498606,
			"-0.013": 3.11795786693,
			"-0.012": 3.08181028562,
			"-0.011": 3.41423249884,
			"-0.01": 3.04319260385,
			"-0.009": 4.40391541687,
			"-0.008": 7.20212901401,
			"-0.007": 13.5498525448,
			"-0.006": 15.9356784894,
			"-0.005": 14.6634038812,
			"-0.004": 12.4337044535,
			"-0.003": 11.651622275,
			"-0.002": 11.6473139643,
			"-0.001": 10.7716808119,
			"0.0": 13.6440210248,
			"0.001": 15.5763006864,
			"0.002": 19.8982374944,
			"0.003": 20.8940519051,
			"0.004": 14.0302120897,
			"0.005": 4.40115204154,
			"0.006": 3.85542873308,
			"0.007": 4.37389522308,
			"0.008": 4.97939992501,
			"0.009": 3.96480803855,
			"0.01": 4.69926035745,
			"0.011": 6.72992443681,
			"0.012": 7.75573600604,
			"0.013": 8.88164548575,
			"0.014": 5.3324939148,
			"0.015": 0.390615751036,
			"0.016": 0.0,
			"0.017": 0.0,
			"0.018": 0.0,
			"0.019": 0.0,
			"0.02": 0.0,
			"0.021": 0.0,
			"0.022": 0.0,
			"0.023": 0.0,
			"0.024": 0.0,
			"0.025": 0.0
		}
	}
}
