{
	 "smiles": "O=C1CNCCN1", 
	 "Tm": 404.65, 
	 "num_atms": 15, 
	 "gaussian": { 
		 "optdone": 1, 
		 "sigma_profile": "yes", 
		 "theory": "DFT", 
		 "functional": "B3LYP", 
		 "basiset": "6-31G**", 
		 "properties": { 
			 "R2extent": 1114.4954, 
			 "electric_dipole_moment_norm": 3.6208256807, 
			 "electric_quadrupole_moment_norm": 11.8833270712, 
			 "total_energy": -341.970385817, 
			 "HOMO_LUMO_gap": 0.24246, 
			 "cosmo_polarized_energy": -12.93, 
			 "cosmo_cavitation_energy": 17.43, 
			 "cosmo_dispersion_energy": -13.56, 
			 "cosmo_repulsion_energy": 1.16, 
			 "cosmo_total_nonelectrostatic_energy": 5.03, 
			 "SMD_solvation_energy": 0.26 
		},
		"coords": [
			{
				"x": -0.5928477485,
				"y": 2.7218373637,
				"z": -1.2459985124,
				"element": "O" 
			},
			{
				"x": -0.1920740905,
				"y": 2.0560102066,
				"z": -0.302322819,
				"element": "C" 
			},
			{
				"x": -0.9334888284,
				"y": 0.8469677705,
				"z": 0.2718610012,
				"element": "C" 
			},
			{
				"x": -0.0237522999,
				"y": -0.2143607523,
				"z": 0.7115975004,
				"element": "N" 
			},
			{
				"x": 0.9103133382,
				"y": 0.2419258676,
				"z": 1.7453380246,
				"element": "C" 
			},
			{
				"x": 1.297089542,
				"y": 1.7505935554,
				"z": 1.6456000475,
				"element": "C" 
			},
			{
				"x": 1.0217415503,
				"y": 2.2687927866,
				"z": 0.3086072649,
				"element": "N" 
			},
			{
				"x": -1.5531983123,
				"y": 1.1633217647,
				"z": 1.1228333702,
				"element": "H" 
			},
			{
				"x": -1.6117094044,
				"y": 0.4733065629,
				"z": -0.4985914822,
				"element": "H" 
			},
			{
				"x": 0.5101859386,
				"y": -0.5198440924,
				"z": -0.0972859158,
				"element": "H" 
			},
			{
				"x": 1.8053157288,
				"y": -0.3836957798,
				"z": 1.685024135,
				"element": "H" 
			},
			{
				"x": 0.4673410774,
				"y": 0.0683627319,
				"z": 2.7341638991,
				"element": "H" 
			},
			{
				"x": 0.7445499439,
				"y": 2.3214323548,
				"z": 2.4061148897,
				"element": "H" 
			},
			{
				"x": 2.3611453469,
				"y": 1.8906168699,
				"z": 1.8587464285,
				"element": "H" 
			},
			{
				"x": 1.503888218,
				"y": 3.1049327899,
				"z": 0.0030121684,
				"element": "H" 
			}
		],
		 "valence_orbital": [ 
			{
				"type": "occ",
				"energy": -0.36582,
				"method": "rhf"
			},
			{
				"type": "occ",
				"energy": -0.35037,
				"method": "rhf"
			},
			{
				"type": "occ",
				"energy": -0.26922,
				"method": "rhf"
			},
			{
				"type": "occ",
				"energy": -0.25091,
				"method": "rhf"
			},
			{
				"type": "occ",
				"energy": -0.21718,
				"method": "rhf"
			},
			{
				"type": "unocc",
				"energy": 0.02528,
				"method": "rhf"
			},
			{
				"type": "unocc",
				"energy": 0.06139,
				"method": "rhf"
			},
			{
				"type": "unocc",
				"energy": 0.10099,
				"method": "rhf"
			},
			{
				"type": "unocc",
				"energy": 0.10886,
				"method": "rhf"
			},
			{
				"type": "unocc",
				"energy": 0.12652,
				"method": "rhf"
			}
		],
		"cosmo_sigma_profile": { 
			"-0.025": 0.0,
			"-0.024": 0.0,
			"-0.023": 0.0,
			"-0.022": 0.0,
			"-0.021": 0.0,
			"-0.02": 0.0,
			"-0.019": 0.0,
			"-0.018": 0.0,
			"-0.017": 0.0,
			"-0.016": 0.0,
			"-0.015": 0.0,
			"-0.014": 0.193482200807,
			"-0.013": 1.1428540572,
			"-0.012": 0.814179204998,
			"-0.011": 1.93999337668,
			"-0.01": 2.40690157852,
			"-0.009": 2.27737609245,
			"-0.008": 1.90839469104,
			"-0.007": 2.46515362368,
			"-0.006": 8.67712803687,
			"-0.005": 13.9022087841,
			"-0.004": 16.2899606789,
			"-0.003": 15.9247598025,
			"-0.002": 11.5378721128,
			"-0.001": 7.11626126505,
			"0.0": 3.82513986591,
			"0.001": 4.05733966316,
			"0.002": 2.69451180321,
			"0.003": 3.22109385757,
			"0.004": 2.74112581543,
			"0.005": 2.78890507861,
			"0.006": 2.72061759322,
			"0.007": 1.29610465457,
			"0.008": 2.63423150386,
			"0.009": 2.78469986411,
			"0.01": 1.13486819665,
			"0.011": 1.55042072522,
			"0.012": 3.12028886947,
			"0.013": 3.04239586758,
			"0.014": 6.56326198972,
			"0.015": 3.62901664336,
			"0.016": 0.594171806115,
			"0.017": 0.510826098669,
			"0.018": 0.177395788958,
			"0.019": 0.0,
			"0.02": 0.0,
			"0.021": 0.0,
			"0.022": 0.0,
			"0.023": 0.0,
			"0.024": 0.0,
			"0.025": 0.0
		}
	}
}
