{
	 "smiles": "OC(=O)C1=CC=C(OCC2=C(C=CC=C2)C#N)C=C1", 
	 "Tm": 485.15, 
	 "num_atms": 30, 
	 "gaussian": { 
		 "optdone": 1, 
		 "sigma_profile": "yes", 
		 "theory": "DFT", 
		 "functional": "B3LYP", 
		 "basiset": "6-31G**", 
		 "properties": { 
			 "R2extent": 6922.1041, 
			 "electric_dipole_moment_norm": 3.99661590974, 
			 "electric_quadrupole_moment_norm": 22.7170710421, 
			 "total_energy": -858.644610931, 
			 "HOMO_LUMO_gap": 0.17682, 
			 "cosmo_polarized_energy": -16.43, 
			 "cosmo_cavitation_energy": 36.37, 
			 "cosmo_dispersion_energy": -25.13, 
			 "cosmo_repulsion_energy": 1.94, 
			 "cosmo_total_nonelectrostatic_energy": 13.18, 
			 "SMD_solvation_energy": 8.73 
		},
		"coords": [
			{
				"x": 2.1908838526,
				"y": -4.1500797828,
				"z": 2.448198447,
				"element": "O" 
			},
			{
				"x": 0.8401080305,
				"y": -4.0244425914,
				"z": 2.366083567,
				"element": "C" 
			},
			{
				"x": 0.089139346,
				"y": -4.8574916494,
				"z": 2.837364243,
				"element": "O" 
			},
			{
				"x": 0.4108467972,
				"y": -2.7956551674,
				"z": 1.6599787736,
				"element": "C" 
			},
			{
				"x": 1.3209859689,
				"y": -1.8675297135,
				"z": 1.1412685926,
				"element": "C" 
			},
			{
				"x": 0.8763629124,
				"y": -0.7208438322,
				"z": 0.4851247712,
				"element": "C" 
			},
			{
				"x": -0.4998714589,
				"y": -0.5015062549,
				"z": 0.3393111331,
				"element": "C" 
			},
			{
				"x": -1.0553431383,
				"y": 0.5781594209,
				"z": -0.2894717984,
				"element": "O" 
			},
			{
				"x": -0.2126227417,
				"y": 1.5106767848,
				"z": -0.9572882201,
				"element": "C" 
			},
			{
				"x": 0.4160830675,
				"y": 2.5316049968,
				"z": -0.0251660856,
				"element": "C" 
			},
			{
				"x": 1.5576419722,
				"y": 3.2609082147,
				"z": -0.423649986,
				"element": "C" 
			},
			{
				"x": 2.1103093214,
				"y": 4.2413435309,
				"z": 0.4182736171,
				"element": "C" 
			},
			{
				"x": 1.5338434286,
				"y": 4.4974912716,
				"z": 1.6581615857,
				"element": "C" 
			},
			{
				"x": 0.4047968712,
				"y": 3.7792302659,
				"z": 2.0577525793,
				"element": "C" 
			},
			{
				"x": -0.1484749064,
				"y": 2.8091421475,
				"z": 1.2211086139,
				"element": "C" 
			},
			{
				"x": 2.1684607499,
				"y": 3.007002262,
				"z": -1.6971985943,
				"element": "C" 
			},
			{
				"x": 2.6587934511,
				"y": 2.7920780352,
				"z": -2.7305941192,
				"element": "N" 
			},
			{
				"x": -1.4201960973,
				"y": -1.4263708967,
				"z": 0.8594317334,
				"element": "C" 
			},
			{
				"x": -0.9663050351,
				"y": -2.5602311596,
				"z": 1.5124502382,
				"element": "C" 
			},
			{
				"x": 2.3459812023,
				"y": -4.9824440325,
				"z": 2.923600852,
				"element": "H" 
			},
			{
				"x": 2.3850814623,
				"y": -2.0403759512,
				"z": 1.255480967,
				"element": "H" 
			},
			{
				"x": 1.6012707327,
				"y": -0.0096861211,
				"z": 0.1087724243,
				"element": "H" 
			},
			{
				"x": -0.874369075,
				"y": 2.0208515651,
				"z": -1.6657202226,
				"element": "H" 
			},
			{
				"x": 0.5514650496,
				"y": 0.9929476767,
				"z": -1.5483102693,
				"element": "H" 
			},
			{
				"x": 2.9890282151,
				"y": 4.7866568043,
				"z": 0.0904345198,
				"element": "H" 
			},
			{
				"x": 1.9638680313,
				"y": 5.2520794918,
				"z": 2.3089893115,
				"element": "H" 
			},
			{
				"x": -0.0488804784,
				"y": 3.9750176297,
				"z": 3.0247193142,
				"element": "H" 
			},
			{
				"x": -1.025243854,
				"y": 2.2520658203,
				"z": 1.5325317952,
				"element": "H" 
			},
			{
				"x": -2.4797237801,
				"y": -1.2324559234,
				"z": 0.729962167,
				"element": "H" 
			},
			{
				"x": -1.6632198978,
				"y": -3.2862428421,
				"z": 1.9172000496,
				"element": "H" 
			}
		],
		 "valence_orbital": [ 
			{
				"type": "occ",
				"energy": -0.27891,
				"method": "rhf"
			},
			{
				"type": "occ",
				"energy": -0.27363,
				"method": "rhf"
			},
			{
				"type": "occ",
				"energy": -0.27259,
				"method": "rhf"
			},
			{
				"type": "occ",
				"energy": -0.26446,
				"method": "rhf"
			},
			{
				"type": "occ",
				"energy": -0.23846,
				"method": "rhf"
			},
			{
				"type": "unocc",
				"energy": -0.06164,
				"method": "rhf"
			},
			{
				"type": "unocc",
				"energy": -0.04146,
				"method": "rhf"
			},
			{
				"type": "unocc",
				"energy": -0.03235,
				"method": "rhf"
			},
			{
				"type": "unocc",
				"energy": -0.01331,
				"method": "rhf"
			},
			{
				"type": "unocc",
				"energy": 0.02416,
				"method": "rhf"
			}
		],
		"cosmo_sigma_profile": { 
			"-0.025": 0.0,
			"-0.024": 0.0,
			"-0.023": 0.0,
			"-0.022": 0.0,
			"-0.021": 0.0,
			"-0.02": 0.0,
			"-0.019": 0.0,
			"-0.018": 0.582201946127,
			"-0.017": 0.935509272933,
			"-0.016": 0.743310916661,
			"-0.015": 0.917005535493,
			"-0.014": 0.754801108666,
			"-0.013": 0.70301685632,
			"-0.012": 0.403349159481,
			"-0.011": 0.700210093899,
			"-0.01": 0.576654697616,
			"-0.009": 1.20090444373,
			"-0.008": 5.20865061685,
			"-0.007": 15.0175779826,
			"-0.006": 20.3593853906,
			"-0.005": 19.661121584,
			"-0.004": 16.1275652148,
			"-0.003": 15.8722093716,
			"-0.002": 16.8306062415,
			"-0.001": 19.8360346411,
			"0.0": 19.548413948,
			"0.001": 24.1426186676,
			"0.002": 27.739067221,
			"0.003": 25.5293995572,
			"0.004": 8.45404984616,
			"0.005": 6.66988839367,
			"0.006": 6.6464059756,
			"0.007": 6.39907972434,
			"0.008": 5.90363756838,
			"0.009": 5.51747361343,
			"0.01": 4.55172995877,
			"0.011": 5.97353739898,
			"0.012": 7.58243014677,
			"0.013": 1.76949254074,
			"0.014": 0.00747521228341,
			"0.015": 0.0,
			"0.016": 0.0,
			"0.017": 0.0,
			"0.018": 0.0,
			"0.019": 0.0,
			"0.02": 0.0,
			"0.021": 0.0,
			"0.022": 0.0,
			"0.023": 0.0,
			"0.024": 0.0,
			"0.025": 0.0
		}
	}
}
