{
	 "smiles": "CC(=O)OCCC1=CC=CC=C1", 
	 "Tm": 242.05, 
	 "num_atms": 24, 
	 "gaussian": { 
		 "optdone": 1, 
		 "sigma_profile": "yes", 
		 "theory": "DFT", 
		 "functional": "B3LYP", 
		 "basiset": "6-31G**", 
		 "properties": { 
			 "R2extent": 2679.7313, 
			 "electric_dipole_moment_norm": 1.66819578587, 
			 "electric_quadrupole_moment_norm": 7.76266976111, 
			 "total_energy": -538.763287644, 
			 "HOMO_LUMO_gap": 0.23956, 
			 "cosmo_polarized_energy": -8.71, 
			 "cosmo_cavitation_energy": 27.97, 
			 "cosmo_dispersion_energy": -19.48, 
			 "cosmo_repulsion_energy": 1.58, 
			 "cosmo_total_nonelectrostatic_energy": 10.07, 
			 "SMD_solvation_energy": 5.81 
		},
		"coords": [
			{
				"x": -1.1925194585,
				"y": 3.3483701147,
				"z": -1.4391003837,
				"element": "C" 
			},
			{
				"x": 0.0547885404,
				"y": 2.5860654144,
				"z": -1.0589677983,
				"element": "C" 
			},
			{
				"x": 1.1483073729,
				"y": 2.7311601079,
				"z": -1.5620777067,
				"element": "O" 
			},
			{
				"x": -0.2082772666,
				"y": 1.7092077274,
				"z": -0.0611435232,
				"element": "O" 
			},
			{
				"x": 0.903019528,
				"y": 0.9210634397,
				"z": 0.4162797702,
				"element": "C" 
			},
			{
				"x": 1.1485597082,
				"y": -0.3209520185,
				"z": -0.4497589836,
				"element": "C" 
			},
			{
				"x": -0.0284452419,
				"y": -1.2706291885,
				"z": -0.5084037862,
				"element": "C" 
			},
			{
				"x": -0.9331021432,
				"y": -1.2305950987,
				"z": -1.5770360006,
				"element": "C" 
			},
			{
				"x": -2.0343127986,
				"y": -2.0875040729,
				"z": -1.6170255496,
				"element": "C" 
			},
			{
				"x": -2.2487577069,
				"y": -3.0016480418,
				"z": -0.5844305804,
				"element": "C" 
			},
			{
				"x": -1.3529558592,
				"y": -3.0544680502,
				"z": 0.4854956722,
				"element": "C" 
			},
			{
				"x": -0.2534878041,
				"y": -2.1964331201,
				"z": 0.520038113,
				"element": "C" 
			},
			{
				"x": -1.9912593429,
				"y": 2.6515372785,
				"z": -1.7085728965,
				"element": "H" 
			},
			{
				"x": -1.5465235669,
				"y": 3.9329363712,
				"z": -0.5845114787,
				"element": "H" 
			},
			{
				"x": -0.9727389217,
				"y": 4.0112908169,
				"z": -2.2753107495,
				"element": "H" 
			},
			{
				"x": 1.7993296935,
				"y": 1.5461803683,
				"z": 0.4404224448,
				"element": "H" 
			},
			{
				"x": 0.6210597951,
				"y": 0.6390931563,
				"z": 1.433620575,
				"element": "H" 
			},
			{
				"x": 1.427378758,
				"y": 0.0113911059,
				"z": -1.454176451,
				"element": "H" 
			},
			{
				"x": 2.0240536731,
				"y": -0.8331808669,
				"z": -0.0304439926,
				"element": "H" 
			},
			{
				"x": -0.7674537027,
				"y": -0.5269909983,
				"z": -2.3890865105,
				"element": "H" 
			},
			{
				"x": -2.7223489899,
				"y": -2.0433002815,
				"z": -2.4568098615,
				"element": "H" 
			},
			{
				"x": -3.1033373541,
				"y": -3.6714579375,
				"z": -0.6154020707,
				"element": "H" 
			},
			{
				"x": -1.5071019296,
				"y": -3.7678179162,
				"z": 1.2904202949,
				"element": "H" 
			},
			{
				"x": 0.4436250174,
				"y": -2.2499183103,
				"z": 1.3536814533,
				"element": "H" 
			}
		],
		 "valence_orbital": [ 
			{
				"type": "occ",
				"energy": -0.32937,
				"method": "rhf"
			},
			{
				"type": "occ",
				"energy": -0.29791,
				"method": "rhf"
			},
			{
				"type": "occ",
				"energy": -0.26934,
				"method": "rhf"
			},
			{
				"type": "occ",
				"energy": -0.24816,
				"method": "rhf"
			},
			{
				"type": "occ",
				"energy": -0.24088,
				"method": "rhf"
			},
			{
				"type": "unocc",
				"energy": -0.00132,
				"method": "rhf"
			},
			{
				"type": "unocc",
				"energy": 0.00067,
				"method": "rhf"
			},
			{
				"type": "unocc",
				"energy": 0.0137,
				"method": "rhf"
			},
			{
				"type": "unocc",
				"energy": 0.08818,
				"method": "rhf"
			},
			{
				"type": "unocc",
				"energy": 0.11041,
				"method": "rhf"
			}
		],
		"cosmo_sigma_profile": { 
			"-0.025": 0.0,
			"-0.024": 0.0,
			"-0.023": 0.0,
			"-0.022": 0.0,
			"-0.021": 0.0,
			"-0.02": 0.0,
			"-0.019": 0.0,
			"-0.018": 0.0,
			"-0.017": 0.0,
			"-0.016": 0.0,
			"-0.015": 0.0,
			"-0.014": 0.0,
			"-0.013": 0.0,
			"-0.012": 0.0,
			"-0.011": 0.0,
			"-0.01": 0.0,
			"-0.009": 0.0,
			"-0.008": 0.0,
			"-0.007": 0.622852453502,
			"-0.006": 7.18219224979,
			"-0.005": 25.1596318894,
			"-0.004": 28.9424854256,
			"-0.003": 25.4444331491,
			"-0.002": 21.9743196998,
			"-0.001": 17.5868961834,
			"0.0": 11.2647587275,
			"0.001": 10.1696847115,
			"0.002": 10.2831308999,
			"0.003": 9.52010205463,
			"0.004": 9.32876182606,
			"0.005": 11.319347354,
			"0.006": 10.6616976734,
			"0.007": 5.69630824936,
			"0.008": 3.06447135549,
			"0.009": 2.81834132839,
			"0.01": 1.68527975981,
			"0.011": 2.58950899814,
			"0.012": 4.36988551165,
			"0.013": 1.5832595889,
			"0.014": 0.0270829976374,
			"0.015": 0.0,
			"0.016": 0.0,
			"0.017": 0.0,
			"0.018": 0.0,
			"0.019": 0.0,
			"0.02": 0.0,
			"0.021": 0.0,
			"0.022": 0.0,
			"0.023": 0.0,
			"0.024": 0.0,
			"0.025": 0.0
		}
	}
}
