{
	 "smiles": "CN1N=NC2=C1C=CC=C2", 
	 "Tm": 337.95, 
	 "num_atms": 17, 
	 "gaussian": { 
		 "optdone": 1, 
		 "sigma_profile": "yes", 
		 "theory": "DFT", 
		 "functional": "B3LYP", 
		 "basiset": "6-31G**", 
		 "properties": { 
			 "R2extent": 1913.8793, 
			 "electric_dipole_moment_norm": 4.12742727858, 
			 "electric_quadrupole_moment_norm": 12.6819936721, 
			 "total_energy": -435.182441533, 
			 "HOMO_LUMO_gap": 0.19333, 
			 "cosmo_polarized_energy": -11.16, 
			 "cosmo_cavitation_energy": 20.97, 
			 "cosmo_dispersion_energy": -15.83, 
			 "cosmo_repulsion_energy": 1.26, 
			 "cosmo_total_nonelectrostatic_energy": 6.4, 
			 "SMD_solvation_energy": 2.04 
		},
		"coords": [
			{
				"x": -0.368201818,
				"y": -1.4428579932,
				"z": -0.1886248855,
				"element": "C" 
			},
			{
				"x": 0.4139091005,
				"y": -0.4247383141,
				"z": -0.863616885,
				"element": "N" 
			},
			{
				"x": 1.232462596,
				"y": -0.7753251915,
				"z": -1.8978858575,
				"element": "N" 
			},
			{
				"x": 1.8300637448,
				"y": 0.2796105622,
				"z": -2.3491125178,
				"element": "N" 
			},
			{
				"x": 1.4115708383,
				"y": 1.3660464489,
				"z": -1.6102831987,
				"element": "C" 
			},
			{
				"x": 0.4894153765,
				"y": 0.9219281421,
				"z": -0.6395820537,
				"element": "C" 
			},
			{
				"x": -0.1170739206,
				"y": 1.8022986355,
				"z": 0.2704577197,
				"element": "C" 
			},
			{
				"x": 0.2385744532,
				"y": 3.1388876156,
				"z": 0.1660517796,
				"element": "C" 
			},
			{
				"x": 1.1636627742,
				"y": 3.5968100441,
				"z": -0.8048278602,
				"element": "C" 
			},
			{
				"x": 1.7594076227,
				"y": 2.7240209639,
				"z": -1.7006046159,
				"element": "C" 
			},
			{
				"x": -1.0456909009,
				"y": -1.9294223508,
				"z": -0.8947929927,
				"element": "H" 
			},
			{
				"x": -0.953368285,
				"y": -0.9718788573,
				"z": 0.602159498,
				"element": "H" 
			},
			{
				"x": 0.29045277,
				"y": -2.1952843463,
				"z": 0.2523271318,
				"element": "H" 
			},
			{
				"x": -0.8269700047,
				"y": 1.4642615046,
				"z": 1.0186457399,
				"element": "H" 
			},
			{
				"x": -0.2045437384,
				"y": 3.8581813366,
				"z": 0.8485881146,
				"element": "H" 
			},
			{
				"x": 1.405150883,
				"y": 4.6546106913,
				"z": -0.8408675059,
				"element": "H" 
			},
			{
				"x": 2.4690785085,
				"y": 3.0612511083,
				"z": -2.4486316108,
				"element": "H" 
			}
		],
		 "valence_orbital": [ 
			{
				"type": "occ",
				"energy": -0.32827,
				"method": "rhf"
			},
			{
				"type": "occ",
				"energy": -0.31022,
				"method": "rhf"
			},
			{
				"type": "occ",
				"energy": -0.26364,
				"method": "rhf"
			},
			{
				"type": "occ",
				"energy": -0.24967,
				"method": "rhf"
			},
			{
				"type": "occ",
				"energy": -0.23442,
				"method": "rhf"
			},
			{
				"type": "unocc",
				"energy": -0.04109,
				"method": "rhf"
			},
			{
				"type": "unocc",
				"energy": 0.01145,
				"method": "rhf"
			},
			{
				"type": "unocc",
				"energy": 0.03498,
				"method": "rhf"
			},
			{
				"type": "unocc",
				"energy": 0.08026,
				"method": "rhf"
			},
			{
				"type": "unocc",
				"energy": 0.10306,
				"method": "rhf"
			}
		],
		"cosmo_sigma_profile": { 
			"-0.025": 0.0,
			"-0.024": 0.0,
			"-0.023": 0.0,
			"-0.022": 0.0,
			"-0.021": 0.0,
			"-0.02": 0.0,
			"-0.019": 0.0,
			"-0.018": 0.0,
			"-0.017": 0.0,
			"-0.016": 0.0,
			"-0.015": 0.0,
			"-0.014": 0.0,
			"-0.013": 0.0,
			"-0.012": 0.0,
			"-0.011": 0.0,
			"-0.01": 0.0,
			"-0.009": 0.892857349647,
			"-0.008": 3.29044641219,
			"-0.007": 8.09152412489,
			"-0.006": 14.135379653,
			"-0.005": 15.233225813,
			"-0.004": 17.4216712623,
			"-0.003": 12.5926871838,
			"-0.002": 8.04472456022,
			"-0.001": 8.92424410936,
			"0.0": 8.43348758246,
			"0.001": 7.83989617712,
			"0.002": 11.5732618151,
			"0.003": 12.1454754475,
			"0.004": 11.3464001502,
			"0.005": 4.90959784385,
			"0.006": 2.1987750623,
			"0.007": 1.93073504676,
			"0.008": 1.90819051263,
			"0.009": 2.84946525834,
			"0.01": 3.19242327526,
			"0.011": 3.66137173251,
			"0.012": 2.46405721667,
			"0.013": 2.23635948727,
			"0.014": 1.59560292278,
			"0.015": 1.00017222552,
			"0.016": 0.538683578424,
			"0.017": 0.0,
			"0.018": 0.0,
			"0.019": 0.0,
			"0.02": 0.0,
			"0.021": 0.0,
			"0.022": 0.0,
			"0.023": 0.0,
			"0.024": 0.0,
			"0.025": 0.0
		}
	}
}
