{
	 "smiles": "N#CC1(CCN(CC2=CC=CC=C2)CC1)N1CCCCC1", 
	 "Tm": 377.15, 
	 "num_atms": 46, 
	 "gaussian": { 
		 "optdone": 1, 
		 "sigma_profile": "yes", 
		 "theory": "DFT", 
		 "functional": "B3LYP", 
		 "basiset": "6-31G**", 
		 "properties": { 
			 "R2extent": 8790.1944, 
			 "electric_dipole_moment_norm": 3.44808288908, 
			 "electric_quadrupole_moment_norm": 20.4892375271, 
			 "total_energy": -865.202517429, 
			 "HOMO_LUMO_gap": 0.20763, 
			 "cosmo_polarized_energy": -11.19, 
			 "cosmo_cavitation_energy": 44.38, 
			 "cosmo_dispersion_energy": -30.88, 
			 "cosmo_repulsion_energy": 2.36, 
			 "cosmo_total_nonelectrostatic_energy": 15.87, 
			 "SMD_solvation_energy": 3.98 
		},
		"coords": [
			{
				"x": 0.6727248321,
				"y": 4.4079433024,
				"z": -0.9079183337,
				"element": "N" 
			},
			{
				"x": 0.622208917,
				"y": 3.2581928566,
				"z": -1.0626710581,
				"element": "C" 
			},
			{
				"x": 0.5038037388,
				"y": 1.7853121748,
				"z": -1.196521871,
				"element": "C" 
			},
			{
				"x": 1.0983053715,
				"y": 1.1364641384,
				"z": 0.11293106,
				"element": "C" 
			},
			{
				"x": 0.2078719297,
				"y": -0.0024574472,
				"z": 0.6328020728,
				"element": "C" 
			},
			{
				"x": -1.1637682559,
				"y": 0.42380457,
				"z": 0.9670143282,
				"element": "N" 
			},
			{
				"x": -1.3858663971,
				"y": 0.6737739568,
				"z": 2.3898697296,
				"element": "C" 
			},
			{
				"x": -1.3018295225,
				"y": -0.5766532367,
				"z": 3.246390038,
				"element": "C" 
			},
			{
				"x": -1.8985187369,
				"y": -1.7729223528,
				"z": 2.8239739362,
				"element": "C" 
			},
			{
				"x": -1.8630535484,
				"y": -2.9079845417,
				"z": 3.6327910911,
				"element": "C" 
			},
			{
				"x": -1.2311307871,
				"y": -2.8652641136,
				"z": 4.8788180306,
				"element": "C" 
			},
			{
				"x": -0.6317545633,
				"y": -1.6805280332,
				"z": 5.3067434899,
				"element": "C" 
			},
			{
				"x": -0.6650399668,
				"y": -0.5460261703,
				"z": 4.4921452115,
				"element": "C" 
			},
			{
				"x": -1.6433988311,
				"y": 1.5433323348,
				"z": 0.1429016711,
				"element": "C" 
			},
			{
				"x": -1.0296942145,
				"y": 1.4935032265,
				"z": -1.2555014563,
				"element": "C" 
			},
			{
				"x": 1.1601308785,
				"y": 1.3905748079,
				"z": -2.4671978238,
				"element": "N" 
			},
			{
				"x": 2.5026433622,
				"y": 1.960588054,
				"z": -2.6731750807,
				"element": "C" 
			},
			{
				"x": 2.9531109929,
				"y": 1.766490364,
				"z": -4.1253136554,
				"element": "C" 
			},
			{
				"x": 2.9425100974,
				"y": 0.2840440322,
				"z": -4.5148167343,
				"element": "C" 
			},
			{
				"x": 1.5786261497,
				"y": -0.3324540094,
				"z": -4.1847051448,
				"element": "C" 
			},
			{
				"x": 1.1876634868,
				"y": -0.0560532314,
				"z": -2.727276494,
				"element": "C" 
			},
			{
				"x": 2.1093134062,
				"y": 0.768210464,
				"z": -0.089595542,
				"element": "H" 
			},
			{
				"x": 1.199139541,
				"y": 1.9005344068,
				"z": 0.8902608498,
				"element": "H" 
			},
			{
				"x": 0.6588324047,
				"y": -0.4477542443,
				"z": 1.5238435309,
				"element": "H" 
			},
			{
				"x": 0.1657132696,
				"y": -0.8042222211,
				"z": -0.1149451302,
				"element": "H" 
			},
			{
				"x": -2.3963539378,
				"y": 1.0955768849,
				"z": 2.4813853483,
				"element": "H" 
			},
			{
				"x": -0.7028710823,
				"y": 1.4437795924,
				"z": 2.7992218676,
				"element": "H" 
			},
			{
				"x": -2.3780463488,
				"y": -1.8015250246,
				"z": 1.8501657966,
				"element": "H" 
			},
			{
				"x": -2.3292683863,
				"y": -3.828462195,
				"z": 3.2917971812,
				"element": "H" 
			},
			{
				"x": -1.2033680009,
				"y": -3.7503070566,
				"z": 5.5081633899,
				"element": "H" 
			},
			{
				"x": -0.1324086129,
				"y": -1.6387659872,
				"z": 6.2707968251,
				"element": "H" 
			},
			{
				"x": -0.1917836252,
				"y": 0.3738866031,
				"z": 4.8281707066,
				"element": "H" 
			},
			{
				"x": -1.4062723817,
				"y": 2.5233409237,
				"z": 0.5981219638,
				"element": "H" 
			},
			{
				"x": -2.7371702325,
				"y": 1.4906851745,
				"z": 0.0748617764,
				"element": "H" 
			},
			{
				"x": -1.5093433661,
				"y": 2.2165693957,
				"z": -1.9192206735,
				"element": "H" 
			},
			{
				"x": -1.2022223466,
				"y": 0.502716744,
				"z": -1.6812473569,
				"element": "H" 
			},
			{
				"x": 3.249525905,
				"y": 1.4979633138,
				"z": -1.9979205678,
				"element": "H" 
			},
			{
				"x": 2.4750044534,
				"y": 3.0274029322,
				"z": -2.4406304786,
				"element": "H" 
			},
			{
				"x": 2.2729318733,
				"y": 2.3272128602,
				"z": -4.7778701771,
				"element": "H" 
			},
			{
				"x": 3.9538630753,
				"y": 2.1961318742,
				"z": -4.2505450612,
				"element": "H" 
			},
			{
				"x": 3.7249360265,
				"y": -0.2453052882,
				"z": -3.9525658218,
				"element": "H" 
			},
			{
				"x": 3.178965362,
				"y": 0.1581624187,
				"z": -5.5775462674,
				"element": "H" 
			},
			{
				"x": 0.8089287816,
				"y": 0.0949370612,
				"z": -4.8388542221,
				"element": "H" 
			},
			{
				"x": 1.5880654239,
				"y": -1.4157688824,
				"z": -4.3538204056,
				"element": "H" 
			},
			{
				"x": 1.9029761804,
				"y": -0.5762355343,
				"z": -2.0605123515,
				"element": "H" 
			},
			{
				"x": 0.2030676852,
				"y": -0.4868448979,
				"z": -2.5348981875,
				"element": "H" 
			}
		],
		 "valence_orbital": [ 
			{
				"type": "occ",
				"energy": -0.30855,
				"method": "rhf"
			},
			{
				"type": "occ",
				"energy": -0.24835,
				"method": "rhf"
			},
			{
				"type": "occ",
				"energy": -0.24342,
				"method": "rhf"
			},
			{
				"type": "occ",
				"energy": -0.22372,
				"method": "rhf"
			},
			{
				"type": "occ",
				"energy": -0.21039,
				"method": "rhf"
			},
			{
				"type": "unocc",
				"energy": -0.00276,
				"method": "rhf"
			},
			{
				"type": "unocc",
				"energy": 0.00057,
				"method": "rhf"
			},
			{
				"type": "unocc",
				"energy": 0.02978,
				"method": "rhf"
			},
			{
				"type": "unocc",
				"energy": 0.04288,
				"method": "rhf"
			},
			{
				"type": "unocc",
				"energy": 0.0675,
				"method": "rhf"
			}
		],
		"cosmo_sigma_profile": { 
			"-0.025": 0.0,
			"-0.024": 0.0,
			"-0.023": 0.0,
			"-0.022": 0.0,
			"-0.021": 0.0,
			"-0.02": 0.0,
			"-0.019": 0.0,
			"-0.018": 0.0,
			"-0.017": 0.0,
			"-0.016": 0.0,
			"-0.015": 0.0,
			"-0.014": 0.0,
			"-0.013": 0.0,
			"-0.012": 0.0,
			"-0.011": 0.0,
			"-0.01": 0.0,
			"-0.009": 0.0,
			"-0.008": 0.0293585983753,
			"-0.007": 1.11262597913,
			"-0.006": 3.1472773523,
			"-0.005": 13.9206133242,
			"-0.004": 29.9500522002,
			"-0.003": 46.6708079938,
			"-0.002": 59.4609823269,
			"-0.001": 51.7697567921,
			"0.0": 29.9690601865,
			"0.001": 22.4354773754,
			"0.002": 12.3379629065,
			"0.003": 11.7214619008,
			"0.004": 13.169242958,
			"0.005": 10.8269045292,
			"0.006": 12.569409405,
			"0.007": 5.40137065628,
			"0.008": 4.12371239288,
			"0.009": 4.7512529533,
			"0.01": 4.02208875501,
			"0.011": 3.66765882213,
			"0.012": 3.08232925301,
			"0.013": 2.28111007365,
			"0.014": 0.191697935372,
			"0.015": 0.0,
			"0.016": 0.0,
			"0.017": 0.0,
			"0.018": 0.0,
			"0.019": 0.0,
			"0.02": 0.0,
			"0.021": 0.0,
			"0.022": 0.0,
			"0.023": 0.0,
			"0.024": 0.0,
			"0.025": 0.0
		}
	}
}
