{
	 "smiles": "ClCC(=O)NCC1=C(CS(=O)(=O)N2CCOCC2)C=CC=C1", 
	 "Tm": 392.15, 
	 "num_atms": 41, 
	 "gaussian": { 
		 "optdone": 1, 
		 "sigma_profile": "yes", 
		 "theory": "DFT", 
		 "functional": "B3LYP", 
		 "basiset": "6-31G**", 
		 "properties": { 
			 "R2extent": 9500.9829, 
			 "electric_dipole_moment_norm": 4.41947881203, 
			 "electric_quadrupole_moment_norm": 14.1719693579, 
			 "total_energy": -1813.65182467, 
			 "HOMO_LUMO_gap": 0.22135, 
			 "cosmo_polarized_energy": -21.71, 
			 "cosmo_cavitation_energy": 45.37, 
			 "cosmo_dispersion_energy": -31.71, 
			 "cosmo_repulsion_energy": 2.41, 
			 "cosmo_total_nonelectrostatic_energy": 16.08, 
			 "SMD_solvation_energy": 5.4 
		},
		"coords": [
			{
				"x": -3.11596182,
				"y": -2.4483079566,
				"z": 2.6652006127,
				"element": "Cl" 
			},
			{
				"x": -2.789494185,
				"y": -3.9056034418,
				"z": 1.637368298,
				"element": "C" 
			},
			{
				"x": -1.5853684336,
				"y": -3.8399686489,
				"z": 0.6959518293,
				"element": "C" 
			},
			{
				"x": -1.3193231383,
				"y": -4.8654092964,
				"z": 0.0709834981,
				"element": "O" 
			},
			{
				"x": -0.8967619724,
				"y": -2.6829358884,
				"z": 0.609189456,
				"element": "N" 
			},
			{
				"x": 0.2457533539,
				"y": -2.5504583772,
				"z": -0.2903923683,
				"element": "C" 
			},
			{
				"x": -0.1149964735,
				"y": -1.9122262445,
				"z": -1.6239699934,
				"element": "C" 
			},
			{
				"x": 0.1667424421,
				"y": -0.5701166686,
				"z": -1.9519844075,
				"element": "C" 
			},
			{
				"x": 0.8938209575,
				"y": 0.3684020095,
				"z": -1.0221102052,
				"element": "C" 
			},
			{
				"x": -0.2227908017,
				"y": 1.2206941783,
				"z": 0.1553212893,
				"element": "S" 
			},
			{
				"x": -0.6985507466,
				"y": 0.2188021346,
				"z": 1.126288283,
				"element": "O" 
			},
			{
				"x": -1.1709027785,
				"y": 2.0250525925,
				"z": -0.6207674936,
				"element": "O" 
			},
			{
				"x": 0.8322072438,
				"y": 2.2556968238,
				"z": 0.9686673218,
				"element": "N" 
			},
			{
				"x": 1.0810553433,
				"y": 2.0495776598,
				"z": 2.413350704,
				"element": "C" 
			},
			{
				"x": 0.6774570431,
				"y": 3.2921410537,
				"z": 3.2004647252,
				"element": "C" 
			},
			{
				"x": 1.3789932024,
				"y": 4.4618688424,
				"z": 2.7799230158,
				"element": "O" 
			},
			{
				"x": 1.7939332757,
				"y": 4.4482809837,
				"z": 1.4196977715,
				"element": "C" 
			},
			{
				"x": 0.8467928027,
				"y": 3.6648836373,
				"z": 0.5152665328,
				"element": "C" 
			},
			{
				"x": -0.2470145935,
				"y": -0.0662096036,
				"z": -3.1955120597,
				"element": "C" 
			},
			{
				"x": -0.9178938757,
				"y": -0.8685053993,
				"z": -4.1128083104,
				"element": "C" 
			},
			{
				"x": -1.1856074537,
				"y": -2.2011208225,
				"z": -3.7942734115,
				"element": "C" 
			},
			{
				"x": -0.7844908127,
				"y": -2.7120136688,
				"z": -2.5627321463,
				"element": "C" 
			},
			{
				"x": -2.6447199542,
				"y": -4.7526868394,
				"z": 2.3077392932,
				"element": "H" 
			},
			{
				"x": -3.6834361253,
				"y": -4.0825777654,
				"z": 1.0380430065,
				"element": "H" 
			},
			{
				"x": -1.2207425124,
				"y": -1.8450476286,
				"z": 1.0792923536,
				"element": "H" 
			},
			{
				"x": 0.6219321236,
				"y": -3.5613012145,
				"z": -0.4630695725,
				"element": "H" 
			},
			{
				"x": 1.0202129784,
				"y": -1.9873640174,
				"z": 0.2342810421,
				"element": "H" 
			},
			{
				"x": 1.6459640631,
				"y": -0.1157212731,
				"z": -0.3966378489,
				"element": "H" 
			},
			{
				"x": 1.379135595,
				"y": 1.1750452732,
				"z": -1.5771700852,
				"element": "H" 
			},
			{
				"x": 0.5067550586,
				"y": 1.1872288435,
				"z": 2.7551540283,
				"element": "H" 
			},
			{
				"x": 2.1457819498,
				"y": 1.836363469,
				"z": 2.5703735195,
				"element": "H" 
			},
			{
				"x": 0.9048313769,
				"y": 3.1489317735,
				"z": 4.2622224085,
				"element": "H" 
			},
			{
				"x": -0.4077476702,
				"y": 3.4475018702,
				"z": 3.1064853634,
				"element": "H" 
			},
			{
				"x": 2.8103501096,
				"y": 4.033525848,
				"z": 1.331021758,
				"element": "H" 
			},
			{
				"x": 1.8297762108,
				"y": 5.4908411073,
				"z": 1.0878970743,
				"element": "H" 
			},
			{
				"x": -0.1559023318,
				"y": 4.1058069948,
				"z": 0.5432887757,
				"element": "H" 
			},
			{
				"x": 1.2034524496,
				"y": 3.7186574296,
				"z": -0.5187882749,
				"element": "H" 
			},
			{
				"x": -0.0394192778,
				"y": 0.9720650083,
				"z": -3.4388086308,
				"element": "H" 
			},
			{
				"x": -1.2260078405,
				"y": -0.4575463406,
				"z": -5.0695013954,
				"element": "H" 
			},
			{
				"x": -1.7022328565,
				"y": -2.8411107153,
				"z": -4.5036585362,
				"element": "H" 
			},
			{
				"x": -0.9949819263,
				"y": -3.7453357224,
				"z": -2.3019872207,
				"element": "H" 
			}
		],
		 "valence_orbital": [ 
			{
				"type": "occ",
				"energy": -0.26417,
				"method": "rhf"
			},
			{
				"type": "occ",
				"energy": -0.25964,
				"method": "rhf"
			},
			{
				"type": "occ",
				"energy": -0.25187,
				"method": "rhf"
			},
			{
				"type": "occ",
				"energy": -0.2499,
				"method": "rhf"
			},
			{
				"type": "occ",
				"energy": -0.24591,
				"method": "rhf"
			},
			{
				"type": "unocc",
				"energy": -0.02456,
				"method": "rhf"
			},
			{
				"type": "unocc",
				"energy": -0.01368,
				"method": "rhf"
			},
			{
				"type": "unocc",
				"energy": 0.0237,
				"method": "rhf"
			},
			{
				"type": "unocc",
				"energy": 0.02848,
				"method": "rhf"
			},
			{
				"type": "unocc",
				"energy": 0.0507,
				"method": "rhf"
			}
		],
		"cosmo_sigma_profile": { 
			"-0.025": 0.0,
			"-0.024": 0.0,
			"-0.023": 0.0,
			"-0.022": 0.0,
			"-0.021": 0.0,
			"-0.02": 0.0,
			"-0.019": 0.0,
			"-0.018": 0.0,
			"-0.017": 0.0,
			"-0.016": 0.0,
			"-0.015": 0.0,
			"-0.014": 0.0,
			"-0.013": 0.0,
			"-0.012": 0.0,
			"-0.011": 0.0,
			"-0.01": 0.823927048124,
			"-0.009": 5.64429430155,
			"-0.008": 10.2959827289,
			"-0.007": 9.36767243019,
			"-0.006": 20.9011565093,
			"-0.005": 34.2670219493,
			"-0.004": 38.9049174974,
			"-0.003": 29.232404799,
			"-0.002": 20.7991947761,
			"-0.001": 18.4305003392,
			"0.0": 21.3546139496,
			"0.001": 17.5936518077,
			"0.002": 19.0949936163,
			"0.003": 18.2919498129,
			"0.004": 20.88207405,
			"0.005": 20.4409618137,
			"0.006": 10.371724579,
			"0.007": 5.8772779647,
			"0.008": 5.68649515079,
			"0.009": 4.96075912152,
			"0.01": 6.91138852165,
			"0.011": 7.30945089688,
			"0.012": 5.38377647795,
			"0.013": 5.37324103422,
			"0.014": 2.28806971421,
			"0.015": 0.119387599785,
			"0.016": 0.0,
			"0.017": 0.0,
			"0.018": 0.0,
			"0.019": 0.0,
			"0.02": 0.0,
			"0.021": 0.0,
			"0.022": 0.0,
			"0.023": 0.0,
			"0.024": 0.0,
			"0.025": 0.0
		}
	}
}
