{
	 "smiles": "C(CC1=CC=CC=C1)CC1=CC=CC=C1", 
	 "Tm": 279.15, 
	 "num_atms": 31, 
	 "gaussian": { 
		 "optdone": 1, 
		 "sigma_profile": "yes", 
		 "theory": "DFT", 
		 "functional": "B3LYP", 
		 "basiset": "6-31G**", 
		 "properties": { 
			 "R2extent": 3334.8692, 
			 "electric_dipole_moment_norm": 0.486549894667, 
			 "electric_quadrupole_moment_norm": 8.34824825038, 
			 "total_energy": -581.249960579, 
			 "HOMO_LUMO_gap": 0.22353, 
			 "cosmo_polarized_energy": -6.59, 
			 "cosmo_cavitation_energy": 33.42, 
			 "cosmo_dispersion_energy": -22.36, 
			 "cosmo_repulsion_energy": 1.78, 
			 "cosmo_total_nonelectrostatic_energy": 12.84, 
			 "SMD_solvation_energy": 5.01 
		},
		"coords": [
			{
				"x": -0.0512101097,
				"y": -2.5455491238,
				"z": 0.260079761,
				"element": "C" 
			},
			{
				"x": -1.3428784432,
				"y": -1.9257510268,
				"z": -0.3142759474,
				"element": "C" 
			},
			{
				"x": -1.3930790353,
				"y": -0.4132126988,
				"z": -0.4133111069,
				"element": "C" 
			},
			{
				"x": -0.4780216693,
				"y": 0.2885883182,
				"z": -1.2119099137,
				"element": "C" 
			},
			{
				"x": -0.5413655921,
				"y": 1.6764352423,
				"z": -1.3258867267,
				"element": "C" 
			},
			{
				"x": -1.5292276219,
				"y": 2.3934251323,
				"z": -0.6462423181,
				"element": "C" 
			},
			{
				"x": -2.451502212,
				"y": 1.7087049629,
				"z": 0.1446285888,
				"element": "C" 
			},
			{
				"x": -2.3812805269,
				"y": 0.3183809194,
				"z": 0.2569734851,
				"element": "C" 
			},
			{
				"x": 0.2283460144,
				"y": -2.2677647129,
				"z": 1.7565916341,
				"element": "C" 
			},
			{
				"x": 0.9069432151,
				"y": -0.9487251979,
				"z": 2.0755215656,
				"element": "C" 
			},
			{
				"x": 2.2337628542,
				"y": -0.7232765984,
				"z": 1.6784095439,
				"element": "C" 
			},
			{
				"x": 2.8832571706,
				"y": 0.4723982152,
				"z": 1.9827711357,
				"element": "C" 
			},
			{
				"x": 2.2166392066,
				"y": 1.4692502292,
				"z": 2.6990500582,
				"element": "C" 
			},
			{
				"x": 0.8996163085,
				"y": 1.2563970614,
				"z": 3.1063755284,
				"element": "C" 
			},
			{
				"x": 0.2544202185,
				"y": 0.0572108414,
				"z": 2.7977442344,
				"element": "C" 
			},
			{
				"x": 0.8127683031,
				"y": -2.227996093,
				"z": -0.3364301791,
				"element": "H" 
			},
			{
				"x": -0.1286973178,
				"y": -3.6316692049,
				"z": 0.1247121076,
				"element": "H" 
			},
			{
				"x": -2.1938964079,
				"y": -2.2728001351,
				"z": 0.2850963413,
				"element": "H" 
			},
			{
				"x": -1.4915424499,
				"y": -2.3468658954,
				"z": -1.3183059689,
				"element": "H" 
			},
			{
				"x": 0.2926520649,
				"y": -0.2572832413,
				"z": -1.75088461,
				"element": "H" 
			},
			{
				"x": 0.1794865517,
				"y": 2.1998637602,
				"z": -1.9480357142,
				"element": "H" 
			},
			{
				"x": -1.579761742,
				"y": 3.4748243627,
				"z": -0.7358969776,
				"element": "H" 
			},
			{
				"x": -3.2274302387,
				"y": 2.2545567707,
				"z": 0.6746158253,
				"element": "H" 
			},
			{
				"x": -3.1071569527,
				"y": -0.2083483582,
				"z": 0.8723989989,
				"element": "H" 
			},
			{
				"x": 0.8689062508,
				"y": -3.0776496386,
				"z": 2.1295686762,
				"element": "H" 
			},
			{
				"x": -0.710596067,
				"y": -2.3436898694,
				"z": 2.3188187797,
				"element": "H" 
			},
			{
				"x": 2.7666546333,
				"y": -1.4974822658,
				"z": 1.1303282803,
				"element": "H" 
			},
			{
				"x": 3.9118967814,
				"y": 0.6240339551,
				"z": 1.6666983512,
				"element": "H" 
			},
			{
				"x": 2.7209296472,
				"y": 2.4009750927,
				"z": 2.9392249162,
				"element": "H" 
			},
			{
				"x": 0.3710894789,
				"y": 2.0240116497,
				"z": 3.664952888,
				"element": "H" 
			},
			{
				"x": -0.7731223129,
				"y": -0.0972924533,
				"z": 3.1161187625,
				"element": "H" 
			}
		],
		 "valence_orbital": [ 
			{
				"type": "occ",
				"energy": -0.31347,
				"method": "rhf"
			},
			{
				"type": "occ",
				"energy": -0.24394,
				"method": "rhf"
			},
			{
				"type": "occ",
				"energy": -0.24103,
				"method": "rhf"
			},
			{
				"type": "occ",
				"energy": -0.23703,
				"method": "rhf"
			},
			{
				"type": "occ",
				"energy": -0.22331,
				"method": "rhf"
			},
			{
				"type": "unocc",
				"energy": 0.00022,
				"method": "rhf"
			},
			{
				"type": "unocc",
				"energy": 0.0037,
				"method": "rhf"
			},
			{
				"type": "unocc",
				"energy": 0.01125,
				"method": "rhf"
			},
			{
				"type": "unocc",
				"energy": 0.01577,
				"method": "rhf"
			},
			{
				"type": "unocc",
				"energy": 0.08897,
				"method": "rhf"
			}
		],
		"cosmo_sigma_profile": { 
			"-0.025": 0.0,
			"-0.024": 0.0,
			"-0.023": 0.0,
			"-0.022": 0.0,
			"-0.021": 0.0,
			"-0.02": 0.0,
			"-0.019": 0.0,
			"-0.018": 0.0,
			"-0.017": 0.0,
			"-0.016": 0.0,
			"-0.015": 0.0,
			"-0.014": 0.0,
			"-0.013": 0.0,
			"-0.012": 0.0,
			"-0.011": 0.0,
			"-0.01": 0.0,
			"-0.009": 0.0,
			"-0.008": 0.0,
			"-0.007": 0.0,
			"-0.006": 1.41262170369,
			"-0.005": 15.0549539767,
			"-0.004": 25.3188171166,
			"-0.003": 39.1132839502,
			"-0.002": 32.1430992713,
			"-0.001": 28.6261957884,
			"0.0": 22.7423919999,
			"0.001": 16.8349006365,
			"0.002": 12.677535483,
			"0.003": 14.0042999795,
			"0.004": 13.4537108495,
			"0.005": 14.5227116026,
			"0.006": 14.3954650689,
			"0.007": 9.91940455012,
			"0.008": 2.87456749138,
			"0.009": 0.928835753374,
			"0.01": 0.0190189733011,
			"0.011": 0.0,
			"0.012": 0.0,
			"0.013": 0.0,
			"0.014": 0.0,
			"0.015": 0.0,
			"0.016": 0.0,
			"0.017": 0.0,
			"0.018": 0.0,
			"0.019": 0.0,
			"0.02": 0.0,
			"0.021": 0.0,
			"0.022": 0.0,
			"0.023": 0.0,
			"0.024": 0.0,
			"0.025": 0.0
		}
	}
}
