{
	 "smiles": "CN1C=C(CC2CC(=O)NC2=O)C=N1", 
	 "Tm": 390.15, 
	 "num_atms": 25, 
	 "gaussian": { 
		 "optdone": 1, 
		 "sigma_profile": "yes", 
		 "theory": "DFT", 
		 "functional": "B3LYP", 
		 "basiset": "6-31G**", 
		 "properties": { 
			 "R2extent": 3455.4262, 
			 "electric_dipole_moment_norm": 1.67696052428, 
			 "electric_quadrupole_moment_norm": 16.4378499394, 
			 "total_energy": -664.303146379, 
			 "HOMO_LUMO_gap": 0.21507, 
			 "cosmo_polarized_energy": -17.43, 
			 "cosmo_cavitation_energy": 28.95, 
			 "cosmo_dispersion_energy": -20.56, 
			 "cosmo_repulsion_energy": 1.65, 
			 "cosmo_total_nonelectrostatic_energy": 10.04, 
			 "SMD_solvation_energy": 5.45 
		},
		"coords": [
			{
				"x": 1.1830938045,
				"y": -1.3826370264,
				"z": 2.101220683,
				"element": "C" 
			},
			{
				"x": 1.1301573969,
				"y": -0.5152332902,
				"z": 0.9392408958,
				"element": "N" 
			},
			{
				"x": 0.4530682336,
				"y": 0.6544382867,
				"z": 0.7989679487,
				"element": "C" 
			},
			{
				"x": 0.7103259185,
				"y": 1.123808053,
				"z": -0.4824242244,
				"element": "C" 
			},
			{
				"x": 0.190929718,
				"y": 2.377836037,
				"z": -1.1281628539,
				"element": "C" 
			},
			{
				"x": -1.2668811762,
				"y": 2.2890003536,
				"z": -1.6321476397,
				"element": "C" 
			},
			{
				"x": -1.5964389629,
				"y": 1.1709454783,
				"z": -2.6398519144,
				"element": "C" 
			},
			{
				"x": -2.9358709496,
				"y": 0.5962457001,
				"z": -2.1890096476,
				"element": "C" 
			},
			{
				"x": -3.6484360388,
				"y": -0.1957942115,
				"z": -2.7632451445,
				"element": "O" 
			},
			{
				"x": -3.19991279,
				"y": 1.1435672561,
				"z": -0.930669846,
				"element": "N" 
			},
			{
				"x": -2.2606989543,
				"y": 2.0650520918,
				"z": -0.4854884238,
				"element": "C" 
			},
			{
				"x": -2.2598548723,
				"y": 2.5926710071,
				"z": 0.6081805984,
				"element": "O" 
			},
			{
				"x": 1.5679330214,
				"y": 0.1391809839,
				"z": -1.0299136481,
				"element": "C" 
			},
			{
				"x": 1.8212561306,
				"y": -0.8487858703,
				"z": -0.1705278206,
				"element": "N" 
			},
			{
				"x": 0.7985903914,
				"y": -2.3742879903,
				"z": 1.8486885878,
				"element": "H" 
			},
			{
				"x": 0.572536322,
				"y": -0.9488140821,
				"z": 2.8946235526,
				"element": "H" 
			},
			{
				"x": 2.2143215486,
				"y": -1.4813904932,
				"z": 2.4499965464,
				"element": "H" 
			},
			{
				"x": -0.1500420714,
				"y": 1.068816416,
				"z": 1.5938202878,
				"element": "H" 
			},
			{
				"x": 0.8323623893,
				"y": 2.6452928833,
				"z": -1.975129603,
				"element": "H" 
			},
			{
				"x": 0.2383621964,
				"y": 3.2125988717,
				"z": -0.4211511348,
				"element": "H" 
			},
			{
				"x": -1.5327603963,
				"y": 3.263997784,
				"z": -2.0628870142,
				"element": "H" 
			},
			{
				"x": -1.6613384425,
				"y": 1.5008442048,
				"z": -3.6790630969,
				"element": "H" 
			},
			{
				"x": -0.8596163556,
				"y": 0.3607047119,
				"z": -2.5923048231,
				"element": "H" 
			},
			{
				"x": -4.0007298322,
				"y": 0.8677061521,
				"z": -0.37614566,
				"element": "H" 
			},
			{
				"x": 2.0206437711,
				"y": 0.1217366925,
				"z": -2.0138166053,
				"element": "H" 
			}
		],
		 "valence_orbital": [ 
			{
				"type": "occ",
				"energy": -0.28707,
				"method": "rhf"
			},
			{
				"type": "occ",
				"energy": -0.28424,
				"method": "rhf"
			},
			{
				"type": "occ",
				"energy": -0.25956,
				"method": "rhf"
			},
			{
				"type": "occ",
				"energy": -0.25075,
				"method": "rhf"
			},
			{
				"type": "occ",
				"energy": -0.23744,
				"method": "rhf"
			},
			{
				"type": "unocc",
				"energy": -0.02237,
				"method": "rhf"
			},
			{
				"type": "unocc",
				"energy": 0.01005,
				"method": "rhf"
			},
			{
				"type": "unocc",
				"energy": 0.0287,
				"method": "rhf"
			},
			{
				"type": "unocc",
				"energy": 0.05823,
				"method": "rhf"
			},
			{
				"type": "unocc",
				"energy": 0.08644,
				"method": "rhf"
			}
		],
		"cosmo_sigma_profile": { 
			"-0.025": 0.0,
			"-0.024": 0.0,
			"-0.023": 0.0,
			"-0.022": 0.0,
			"-0.021": 0.0,
			"-0.02": 0.0,
			"-0.019": 0.0,
			"-0.018": 0.0,
			"-0.017": 0.126944916246,
			"-0.016": 1.20438899655,
			"-0.015": 1.11397847636,
			"-0.014": 0.995501002148,
			"-0.013": 0.810428706624,
			"-0.012": 0.732919327035,
			"-0.011": 0.833984511807,
			"-0.01": 0.90824244064,
			"-0.009": 1.06132182292,
			"-0.008": 4.29296444991,
			"-0.007": 9.50084410317,
			"-0.006": 16.0125033781,
			"-0.005": 19.3552864289,
			"-0.004": 23.9784442184,
			"-0.003": 24.5992112165,
			"-0.002": 17.0471643511,
			"-0.001": 11.6595494003,
			"0.0": 8.85818594874,
			"0.001": 8.01846451186,
			"0.002": 8.14144004887,
			"0.003": 7.0213508306,
			"0.004": 7.08310289648,
			"0.005": 7.3238923647,
			"0.006": 4.92810599293,
			"0.007": 3.71705806314,
			"0.008": 5.19846952755,
			"0.009": 4.32050632847,
			"0.01": 4.73201636315,
			"0.011": 8.06754585776,
			"0.012": 10.3851685948,
			"0.013": 4.05621592758,
			"0.014": 1.17225759184,
			"0.015": 1.10344156964,
			"0.016": 0.706212967361,
			"0.017": 0.150901644767,
			"0.018": 0.0,
			"0.019": 0.0,
			"0.02": 0.0,
			"0.021": 0.0,
			"0.022": 0.0,
			"0.023": 0.0,
			"0.024": 0.0,
			"0.025": 0.0
		}
	}
}
