{
	 "smiles": "ClC1=CC=CC=C1S(Cl)(=O)=O", 
	 "Tm": 300.15, 
	 "num_atms": 15, 
	 "gaussian": { 
		 "optdone": 1, 
		 "sigma_profile": "yes", 
		 "theory": "DFT", 
		 "functional": "B3LYP", 
		 "basiset": "6-31G**", 
		 "properties": { 
			 "R2extent": 2527.745, 
			 "electric_dipole_moment_norm": 5.70426052175, 
			 "electric_quadrupole_moment_norm": 10.5350660136, 
			 "total_energy": -1699.98863748, 
			 "HOMO_LUMO_gap": 0.18637, 
			 "cosmo_polarized_energy": -9.29, 
			 "cosmo_cavitation_energy": 24.31, 
			 "cosmo_dispersion_energy": -18.67, 
			 "cosmo_repulsion_energy": 1.44, 
			 "cosmo_total_nonelectrostatic_energy": 7.08, 
			 "SMD_solvation_energy": 2.74 
		},
		"coords": [
			{
				"x": -0.247087755,
				"y": 0.8201313012,
				"z": 1.3941162164,
				"element": "Cl" 
			},
			{
				"x": 0.4668527632,
				"y": -0.5403820859,
				"z": 0.5739159891,
				"element": "C" 
			},
			{
				"x": 1.5641397897,
				"y": -1.1638565279,
				"z": 1.1716287406,
				"element": "C" 
			},
			{
				"x": 2.1846404918,
				"y": -2.2455202243,
				"z": 0.5483052339,
				"element": "C" 
			},
			{
				"x": 1.7211170616,
				"y": -2.7158136984,
				"z": -0.6803794443,
				"element": "C" 
			},
			{
				"x": 0.6293622861,
				"y": -2.1009117856,
				"z": -1.2873316916,
				"element": "C" 
			},
			{
				"x": 0.000096482,
				"y": -1.0196778814,
				"z": -0.6607294502,
				"element": "C" 
			},
			{
				"x": -1.4373582398,
				"y": -0.3544971026,
				"z": -1.5176818971,
				"element": "S" 
			},
			{
				"x": -0.7102492144,
				"y": 1.5330834517,
				"z": -2.1650780904,
				"element": "Cl" 
			},
			{
				"x": -1.6408434716,
				"y": -1.1422562027,
				"z": -2.7274246861,
				"element": "O" 
			},
			{
				"x": -2.5231898734,
				"y": -0.0993450485,
				"z": -0.5838858049,
				"element": "O" 
			},
			{
				"x": 1.9228967797,
				"y": -0.7909755055,
				"z": 2.1243965569,
				"element": "H" 
			},
			{
				"x": 3.036006301,
				"y": -2.7177678609,
				"z": 1.0286742673,
				"element": "H" 
			},
			{
				"x": 2.2045682572,
				"y": -3.5561734325,
				"z": -1.1672434963,
				"element": "H" 
			},
			{
				"x": 0.2498483419,
				"y": -2.4464373967,
				"z": -2.2414824434,
				"element": "H" 
			}
		],
		 "valence_orbital": [ 
			{
				"type": "occ",
				"energy": -0.33677,
				"method": "rhf"
			},
			{
				"type": "occ",
				"energy": -0.32364,
				"method": "rhf"
			},
			{
				"type": "occ",
				"energy": -0.31515,
				"method": "rhf"
			},
			{
				"type": "occ",
				"energy": -0.29876,
				"method": "rhf"
			},
			{
				"type": "occ",
				"energy": -0.27838,
				"method": "rhf"
			},
			{
				"type": "unocc",
				"energy": -0.09201,
				"method": "rhf"
			},
			{
				"type": "unocc",
				"energy": -0.05516,
				"method": "rhf"
			},
			{
				"type": "unocc",
				"energy": -0.04594,
				"method": "rhf"
			},
			{
				"type": "unocc",
				"energy": 0.00398,
				"method": "rhf"
			},
			{
				"type": "unocc",
				"energy": 0.05456,
				"method": "rhf"
			}
		],
		"cosmo_sigma_profile": { 
			"-0.025": 0.0,
			"-0.024": 0.0,
			"-0.023": 0.0,
			"-0.022": 0.0,
			"-0.021": 0.0,
			"-0.02": 0.0,
			"-0.019": 0.0,
			"-0.018": 0.0,
			"-0.017": 0.0,
			"-0.016": 0.0,
			"-0.015": 0.0,
			"-0.014": 0.0,
			"-0.013": 0.0,
			"-0.012": 0.0,
			"-0.011": 0.0,
			"-0.01": 0.0,
			"-0.009": 1.47634643255,
			"-0.008": 8.50427856416,
			"-0.007": 9.34736172139,
			"-0.006": 8.61156916632,
			"-0.005": 6.96754384035,
			"-0.004": 9.11554553655,
			"-0.003": 9.36843616418,
			"-0.002": 14.7214182443,
			"-0.001": 19.84095149,
			"0.0": 20.7173634952,
			"0.001": 18.6532936573,
			"0.002": 16.041188076,
			"0.003": 21.7526223868,
			"0.004": 7.84393530031,
			"0.005": 3.24172484193,
			"0.006": 4.03453318854,
			"0.007": 7.06225863873,
			"0.008": 10.6985171532,
			"0.009": 2.7613846222,
			"0.01": 0.0,
			"0.011": 0.0,
			"0.012": 0.0,
			"0.013": 0.0,
			"0.014": 0.0,
			"0.015": 0.0,
			"0.016": 0.0,
			"0.017": 0.0,
			"0.018": 0.0,
			"0.019": 0.0,
			"0.02": 0.0,
			"0.021": 0.0,
			"0.022": 0.0,
			"0.023": 0.0,
			"0.024": 0.0,
			"0.025": 0.0
		}
	}
}
