{
	 "smiles": "CC(C)(C)OC1=NC(CCC(O)=O)=CC=C1", 
	 "Tm": 356.15, 
	 "num_atms": 33, 
	 "gaussian": { 
		 "optdone": 1, 
		 "sigma_profile": "yes", 
		 "theory": "DFT", 
		 "functional": "B3LYP", 
		 "basiset": "6-31G**", 
		 "properties": { 
			 "R2extent": 4317.0757, 
			 "electric_dipole_moment_norm": 5.76589304531, 
			 "electric_quadrupole_moment_norm": 24.1825970764, 
			 "total_energy": -747.982906142, 
			 "HOMO_LUMO_gap": 0.20032, 
			 "cosmo_polarized_energy": -13.59, 
			 "cosmo_cavitation_energy": 34.19, 
			 "cosmo_dispersion_energy": -23.93, 
			 "cosmo_repulsion_energy": 1.86, 
			 "cosmo_total_nonelectrostatic_energy": 12.12, 
			 "SMD_solvation_energy": 6.95 
		},
		"coords": [
			{
				"x": 3.8654758536,
				"y": 0.6573321401,
				"z": 0.7320296242,
				"element": "C" 
			},
			{
				"x": 2.3544590199,
				"y": 0.9211406495,
				"z": 0.7433007551,
				"element": "C" 
			},
			{
				"x": 1.9690499116,
				"y": 1.6757638602,
				"z": 2.0202194021,
				"element": "C" 
			},
			{
				"x": 1.9401757762,
				"y": 1.6381709671,
				"z": -0.5453520632,
				"element": "C" 
			},
			{
				"x": 1.8182554422,
				"y": -0.4493077153,
				"z": 0.7563896141,
				"element": "O" 
			},
			{
				"x": 0.5392096679,
				"y": -0.8436256996,
				"z": 0.8439761706,
				"element": "C" 
			},
			{
				"x": -0.4989146301,
				"y": -0.0042959876,
				"z": 0.918398382,
				"element": "N" 
			},
			{
				"x": -1.7525262471,
				"y": -0.5197461864,
				"z": 1.0226033784,
				"element": "C" 
			},
			{
				"x": -2.8988597136,
				"y": 0.4638359611,
				"z": 1.1413182942,
				"element": "C" 
			},
			{
				"x": -3.0243537049,
				"y": 1.4973837508,
				"z": -0.0067723694,
				"element": "C" 
			},
			{
				"x": -2.2457045578,
				"y": 2.7986442539,
				"z": 0.1896419853,
				"element": "C" 
			},
			{
				"x": -0.9963785657,
				"y": 2.672537218,
				"z": 0.6717631945,
				"element": "O" 
			},
			{
				"x": -2.7140538766,
				"y": 3.8821623994,
				"z": -0.0753878197,
				"element": "O" 
			},
			{
				"x": -1.9905165079,
				"y": -1.8878726416,
				"z": 1.0368932105,
				"element": "C" 
			},
			{
				"x": -0.8991311179,
				"y": -2.7632099578,
				"z": 0.950824051,
				"element": "C" 
			},
			{
				"x": 0.3767690495,
				"y": -2.2475045553,
				"z": 0.8570412477,
				"element": "C" 
			},
			{
				"x": 4.4114150618,
				"y": 1.6046224621,
				"z": 0.7060572021,
				"element": "H" 
			},
			{
				"x": 4.1670964808,
				"y": 0.1058670386,
				"z": 1.627020391,
				"element": "H" 
			},
			{
				"x": 4.1461760838,
				"y": 0.0696351501,
				"z": -0.1464445533,
				"element": "H" 
			},
			{
				"x": 2.5310886948,
				"y": 2.6138846353,
				"z": 2.0641121129,
				"element": "H" 
			},
			{
				"x": 2.2328823453,
				"y": 1.081501139,
				"z": 2.9004894418,
				"element": "H" 
			},
			{
				"x": 0.9105555793,
				"y": 1.9251982136,
				"z": 2.0668265322,
				"element": "H" 
			},
			{
				"x": 2.4765493095,
				"y": 2.5894378195,
				"z": -0.6189062527,
				"element": "H" 
			},
			{
				"x": 2.2076934099,
				"y": 1.0288379045,
				"z": -1.4139729009,
				"element": "H" 
			},
			{
				"x": 0.875357453,
				"y": 1.8622158898,
				"z": -0.5800984576,
				"element": "H" 
			},
			{
				"x": -2.8165399353,
				"y": 0.9949309024,
				"z": 2.0985660965,
				"element": "H" 
			},
			{
				"x": -3.8278018948,
				"y": -0.110613903,
				"z": 1.191978534,
				"element": "H" 
			},
			{
				"x": -2.7043398706,
				"y": 1.0439566339,
				"z": -0.9538779348,
				"element": "H" 
			},
			{
				"x": -4.0682657594,
				"y": 1.7904414172,
				"z": -0.1333264461,
				"element": "H" 
			},
			{
				"x": -0.7406945705,
				"y": 1.7132095823,
				"z": 0.7770044546,
				"element": "H" 
			},
			{
				"x": -3.0043562336,
				"y": -2.2638329907,
				"z": 1.1161245957,
				"element": "H" 
			},
			{
				"x": -1.0545118515,
				"y": -3.8382055075,
				"z": 0.9601105974,
				"element": "H" 
			},
			{
				"x": 1.258739898,
				"y": -2.8731948437,
				"z": 0.7932495296,
				"element": "H" 
			}
		],
		 "valence_orbital": [ 
			{
				"type": "occ",
				"energy": -0.29986,
				"method": "rhf"
			},
			{
				"type": "occ",
				"energy": -0.28915,
				"method": "rhf"
			},
			{
				"type": "occ",
				"energy": -0.28793,
				"method": "rhf"
			},
			{
				"type": "occ",
				"energy": -0.24633,
				"method": "rhf"
			},
			{
				"type": "occ",
				"energy": -0.23963,
				"method": "rhf"
			},
			{
				"type": "unocc",
				"energy": -0.03931,
				"method": "rhf"
			},
			{
				"type": "unocc",
				"energy": -0.0111,
				"method": "rhf"
			},
			{
				"type": "unocc",
				"energy": 0.02997,
				"method": "rhf"
			},
			{
				"type": "unocc",
				"energy": 0.07693,
				"method": "rhf"
			},
			{
				"type": "unocc",
				"energy": 0.0843,
				"method": "rhf"
			}
		],
		"cosmo_sigma_profile": { 
			"-0.025": 0.0,
			"-0.024": 0.0,
			"-0.023": 0.0,
			"-0.022": 0.0,
			"-0.021": 0.0,
			"-0.02": 0.0,
			"-0.019": 0.0,
			"-0.018": 0.0,
			"-0.017": 0.0,
			"-0.016": 0.0,
			"-0.015": 0.0,
			"-0.014": 0.0,
			"-0.013": 0.0,
			"-0.012": 0.0,
			"-0.011": 0.0,
			"-0.01": 0.0,
			"-0.009": 0.0,
			"-0.008": 0.213991576611,
			"-0.007": 5.01896857648,
			"-0.006": 13.1603108872,
			"-0.005": 19.5371272343,
			"-0.004": 26.6179595948,
			"-0.003": 29.4121284399,
			"-0.002": 25.5052941933,
			"-0.001": 21.567571738,
			"0.0": 29.6902110346,
			"0.001": 26.3863814394,
			"0.002": 15.5401410896,
			"0.003": 13.2085342827,
			"0.004": 5.59642629659,
			"0.005": 3.25575412364,
			"0.006": 5.10334845948,
			"0.007": 3.85594571006,
			"0.008": 2.73126212188,
			"0.009": 2.32105517109,
			"0.01": 2.85552212856,
			"0.011": 3.60343811963,
			"0.012": 5.89686744633,
			"0.013": 5.73961301912,
			"0.014": 2.21358007563,
			"0.015": 0.0850641331854,
			"0.016": 0.0,
			"0.017": 0.0,
			"0.018": 0.0,
			"0.019": 0.0,
			"0.02": 0.0,
			"0.021": 0.0,
			"0.022": 0.0,
			"0.023": 0.0,
			"0.024": 0.0,
			"0.025": 0.0
		}
	}
}
