{
	 "smiles": "NC1=C(F)C(F)=CC(F)=C1F", 
	 "Tm": 304.35, 
	 "num_atms": 14, 
	 "gaussian": { 
		 "optdone": 1, 
		 "sigma_profile": "yes", 
		 "theory": "DFT", 
		 "functional": "B3LYP", 
		 "basiset": "6-31G**", 
		 "properties": { 
			 "R2extent": 1886.4436, 
			 "electric_dipole_moment_norm": 1.88370333917, 
			 "electric_quadrupole_moment_norm": 9.32358493499, 
			 "total_energy": -684.516581115, 
			 "HOMO_LUMO_gap": 0.21931, 
			 "cosmo_polarized_energy": -6.15, 
			 "cosmo_cavitation_energy": 20.59, 
			 "cosmo_dispersion_energy": -14.89, 
			 "cosmo_repulsion_energy": 1.12, 
			 "cosmo_total_nonelectrostatic_energy": 6.81, 
			 "SMD_solvation_energy": 5.47 
		},
		"coords": [
			{
				"x": -0.3809407596,
				"y": -0.0578472538,
				"z": -2.4409193512,
				"element": "N" 
			},
			{
				"x": 0.183179355,
				"y": 0.3236343167,
				"z": -1.2385031088,
				"element": "C" 
			},
			{
				"x": 1.5707894568,
				"y": 0.4514290128,
				"z": -1.0902155374,
				"element": "C" 
			},
			{
				"x": 2.3582452203,
				"y": 0.1182869306,
				"z": -2.1372394591,
				"element": "F" 
			},
			{
				"x": 2.1310628065,
				"y": 0.8925283935,
				"z": 0.1017344798,
				"element": "C" 
			},
			{
				"x": 3.4677523746,
				"y": 0.9920799871,
				"z": 0.1869626851,
				"element": "F" 
			},
			{
				"x": 1.3364298975,
				"y": 1.2252863939,
				"z": 1.1939097501,
				"element": "C" 
			},
			{
				"x": -0.0416854502,
				"y": 1.0947343102,
				"z": 1.0569131302,
				"element": "C" 
			},
			{
				"x": -0.8514669792,
				"y": 1.3940143629,
				"z": 2.0857918985,
				"element": "F" 
			},
			{
				"x": -0.609928883,
				"y": 0.6543990043,
				"z": -0.1315392673,
				"element": "C" 
			},
			{
				"x": -1.9503125123,
				"y": 0.5192955452,
				"z": -0.2431238535,
				"element": "F" 
			},
			{
				"x": 0.2307441601,
				"y": -0.569758753,
				"z": -3.0598064428,
				"element": "H" 
			},
			{
				"x": -1.3190897004,
				"y": -0.4255516139,
				"z": -2.378432524,
				"element": "H" 
			},
			{
				"x": 1.775921014,
				"y": 1.5708693635,
				"z": 2.1204676004,
				"element": "H" 
			}
		],
		 "valence_orbital": [ 
			{
				"type": "occ",
				"energy": -0.37542,
				"method": "rhf"
			},
			{
				"type": "occ",
				"energy": -0.37371,
				"method": "rhf"
			},
			{
				"type": "occ",
				"energy": -0.32003,
				"method": "rhf"
			},
			{
				"type": "occ",
				"energy": -0.24281,
				"method": "rhf"
			},
			{
				"type": "occ",
				"energy": -0.22496,
				"method": "rhf"
			},
			{
				"type": "unocc",
				"energy": -0.00565,
				"method": "rhf"
			},
			{
				"type": "unocc",
				"energy": -4e-05,
				"method": "rhf"
			},
			{
				"type": "unocc",
				"energy": 0.03499,
				"method": "rhf"
			},
			{
				"type": "unocc",
				"energy": 0.09202,
				"method": "rhf"
			},
			{
				"type": "unocc",
				"energy": 0.10842,
				"method": "rhf"
			}
		],
		"cosmo_sigma_profile": { 
			"-0.025": 0.0,
			"-0.024": 0.0,
			"-0.023": 0.0,
			"-0.022": 0.0,
			"-0.021": 0.0,
			"-0.02": 0.0,
			"-0.019": 0.0,
			"-0.018": 0.0,
			"-0.017": 0.0,
			"-0.016": 0.0,
			"-0.015": 0.0,
			"-0.014": 0.298089616735,
			"-0.013": 1.65725852473,
			"-0.012": 2.71042557768,
			"-0.011": 1.91386020296,
			"-0.01": 1.77984201556,
			"-0.009": 3.05603049137,
			"-0.008": 4.00634636143,
			"-0.007": 2.69772400586,
			"-0.006": 4.55047410043,
			"-0.005": 3.06671607925,
			"-0.004": 3.22556972285,
			"-0.003": 3.86122039539,
			"-0.002": 5.09800422232,
			"-0.001": 17.9820413942,
			"0.0": 22.7663735333,
			"0.001": 15.3361478876,
			"0.002": 13.8889214479,
			"0.003": 29.4555949548,
			"0.004": 23.4324768921,
			"0.005": 1.13607834215,
			"0.006": 0.528152426277,
			"0.007": 0.407578364464,
			"0.008": 1.19544332898,
			"0.009": 0.355993561541,
			"0.01": 0.850529653783,
			"0.011": 0.344952012913,
			"0.012": 0.475864972883,
			"0.013": 0.0188793504047,
			"0.014": 0.0,
			"0.015": 0.0,
			"0.016": 0.0,
			"0.017": 0.0,
			"0.018": 0.0,
			"0.019": 0.0,
			"0.02": 0.0,
			"0.021": 0.0,
			"0.022": 0.0,
			"0.023": 0.0,
			"0.024": 0.0,
			"0.025": 0.0
		}
	}
}
