{
	 "smiles": "OC(=O)C=CC1=CNC=N1", 
	 "Tm": 498.15, 
	 "num_atms": 16, 
	 "gaussian": { 
		 "optdone": 1, 
		 "sigma_profile": "yes", 
		 "theory": "DFT", 
		 "functional": "B3LYP", 
		 "basiset": "6-31G**", 
		 "properties": { 
			 "R2extent": 2701.3378, 
			 "electric_dipole_moment_norm": 8.84877935311, 
			 "electric_quadrupole_moment_norm": 17.856611419, 
			 "total_energy": -492.189206287, 
			 "HOMO_LUMO_gap": 0.1728, 
			 "cosmo_polarized_energy": -26.34, 
			 "cosmo_cavitation_energy": 21.74, 
			 "cosmo_dispersion_energy": -16.02, 
			 "cosmo_repulsion_energy": 1.31, 
			 "cosmo_total_nonelectrostatic_energy": 7.03, 
			 "SMD_solvation_energy": 4.07 
		},
		"coords": [
			{
				"x": -1.2333328585,
				"y": 3.5170381399,
				"z": -1.4008547539,
				"element": "O" 
			},
			{
				"x": -1.8107731437,
				"y": 2.8414128105,
				"z": -0.3630731376,
				"element": "C" 
			},
			{
				"x": -2.7786972435,
				"y": 3.3128529045,
				"z": 0.1899817615,
				"element": "O" 
			},
			{
				"x": -1.1729220107,
				"y": 1.5526152304,
				"z": -0.0039595824,
				"element": "C" 
			},
			{
				"x": -1.6697922489,
				"y": 0.8130976736,
				"z": 1.0061109272,
				"element": "C" 
			},
			{
				"x": -1.1770262742,
				"y": -0.460094927,
				"z": 1.4888145008,
				"element": "C" 
			},
			{
				"x": -0.1061414346,
				"y": -1.2266206177,
				"z": 1.058103841,
				"element": "C" 
			},
			{
				"x": -0.0975554312,
				"y": -2.3325593413,
				"z": 1.8681237115,
				"element": "N" 
			},
			{
				"x": -1.1431523585,
				"y": -2.2049567333,
				"z": 2.7477989363,
				"element": "C" 
			},
			{
				"x": -1.8092279345,
				"y": -1.0959234453,
				"z": 2.5480724229,
				"element": "N" 
			},
			{
				"x": -0.4754267854,
				"y": 3.0221944917,
				"z": -1.7408277546,
				"element": "H" 
			},
			{
				"x": -0.3028859993,
				"y": 1.2213662717,
				"z": -0.5695865993,
				"element": "H" 
			},
			{
				"x": -2.540242083,
				"y": 1.2012065063,
				"z": 1.5300598635,
				"element": "H" 
			},
			{
				"x": 0.622477362,
				"y": -1.0855426595,
				"z": 0.2750152744,
				"element": "H" 
			},
			{
				"x": 0.5594705576,
				"y": -3.0972006413,
				"z": 1.82159869,
				"element": "H" 
			},
			{
				"x": -1.3579721137,
				"y": -2.9513856631,
				"z": 3.5000218988,
				"element": "H" 
			}
		],
		 "valence_orbital": [ 
			{
				"type": "occ",
				"energy": -0.30202,
				"method": "rhf"
			},
			{
				"type": "occ",
				"energy": -0.28564,
				"method": "rhf"
			},
			{
				"type": "occ",
				"energy": -0.28365,
				"method": "rhf"
			},
			{
				"type": "occ",
				"energy": -0.26062,
				"method": "rhf"
			},
			{
				"type": "occ",
				"energy": -0.22914,
				"method": "rhf"
			},
			{
				"type": "unocc",
				"energy": -0.05634,
				"method": "rhf"
			},
			{
				"type": "unocc",
				"energy": 0.01409,
				"method": "rhf"
			},
			{
				"type": "unocc",
				"energy": 0.05591,
				"method": "rhf"
			},
			{
				"type": "unocc",
				"energy": 0.0626,
				"method": "rhf"
			},
			{
				"type": "unocc",
				"energy": 0.06588,
				"method": "rhf"
			}
		],
		"cosmo_sigma_profile": { 
			"-0.025": 0.0,
			"-0.024": 0.0,
			"-0.023": 0.0,
			"-0.022": 0.0,
			"-0.021": 0.0,
			"-0.02": 0.0,
			"-0.019": 0.406590831227,
			"-0.018": 1.41519216225,
			"-0.017": 2.64861632283,
			"-0.016": 3.30082640584,
			"-0.015": 2.36697551314,
			"-0.014": 2.3546251977,
			"-0.013": 2.41539666523,
			"-0.012": 1.62501191856,
			"-0.011": 2.50316025315,
			"-0.01": 3.79007489969,
			"-0.009": 8.45805781145,
			"-0.008": 6.37802821202,
			"-0.007": 5.0337504862,
			"-0.006": 4.75121479871,
			"-0.005": 3.9244708089,
			"-0.004": 5.17115848337,
			"-0.003": 5.36402353472,
			"-0.002": 6.54195851662,
			"-0.001": 6.97372131275,
			"0.0": 8.10072966808,
			"0.001": 9.96610930719,
			"0.002": 13.2979403485,
			"0.003": 13.1521897986,
			"0.004": 6.10417533969,
			"0.005": 4.83202172598,
			"0.006": 3.74242363672,
			"0.007": 3.42068336994,
			"0.008": 3.79645990436,
			"0.009": 4.90604779308,
			"0.01": 4.41549076219,
			"0.011": 6.19145206315,
			"0.012": 6.53096392646,
			"0.013": 5.63613845358,
			"0.014": 2.17442606879,
			"0.015": 0.662462732474,
			"0.016": 1.18446914941,
			"0.017": 0.558529628056,
			"0.018": 0.0804900653188,
			"0.019": 0.0,
			"0.02": 0.0,
			"0.021": 0.0,
			"0.022": 0.0,
			"0.023": 0.0,
			"0.024": 0.0,
			"0.025": 0.0
		}
	}
}
