{
	 "smiles": "OC1CCOC2=C1C=C(Br)C=C2", 
	 "Tm": 365.15, 
	 "num_atms": 21, 
	 "gaussian": { 
		 "optdone": 1, 
		 "sigma_profile": "yes", 
		 "theory": "DFT", 
		 "functional": "B3LYP", 
		 "basiset": "6-31G**", 
		 "properties": { 
			 "R2extent": 3573.6181, 
			 "electric_dipole_moment_norm": 3.83161376707, 
			 "electric_quadrupole_moment_norm": 10.6283112643, 
			 "total_energy": -3070.22200762, 
			 "HOMO_LUMO_gap": 0.19917, 
			 "cosmo_polarized_energy": -10.62, 
			 "cosmo_cavitation_energy": 26.19, 
			 "cosmo_dispersion_energy": -20.1, 
			 "cosmo_repulsion_energy": 1.61, 
			 "cosmo_total_nonelectrostatic_energy": 7.7, 
			 "SMD_solvation_energy": 3.2 
		},
		"coords": [
			{
				"x": 0.7985920393,
				"y": 0.4369554101,
				"z": 3.0019827857,
				"element": "O" 
			},
			{
				"x": 1.3755715385,
				"y": -0.2218190452,
				"z": 1.868268226,
				"element": "C" 
			},
			{
				"x": 2.9031760709,
				"y": -0.0701061923,
				"z": 1.8521704598,
				"element": "C" 
			},
			{
				"x": 3.2533572067,
				"y": 1.3660519752,
				"z": 1.488982194,
				"element": "C" 
			},
			{
				"x": 2.807807367,
				"y": 1.6843137119,
				"z": 0.1637498959,
				"element": "O" 
			},
			{
				"x": 1.5316468256,
				"y": 1.3132249314,
				"z": -0.145814421,
				"element": "C" 
			},
			{
				"x": 0.784515208,
				"y": 0.4083990008,
				"z": 0.6261852685,
				"element": "C" 
			},
			{
				"x": -0.5192089954,
				"y": 0.0936772222,
				"z": 0.2245837756,
				"element": "C" 
			},
			{
				"x": -1.0552221042,
				"y": 0.6525603079,
				"z": -0.9278876939,
				"element": "C" 
			},
			{
				"x": -2.8378638893,
				"y": 0.2038680267,
				"z": -1.4609015195,
				"element": "Br" 
			},
			{
				"x": -0.3042860296,
				"y": 1.5352043783,
				"z": -1.7085167372,
				"element": "C" 
			},
			{
				"x": 0.986986981,
				"y": 1.8627861793,
				"z": -1.3148337891,
				"element": "C" 
			},
			{
				"x": 1.0634998178,
				"y": -0.0550925598,
				"z": 3.7916354987,
				"element": "H" 
			},
			{
				"x": 1.1096438314,
				"y": -1.2896895396,
				"z": 1.882279112,
				"element": "H" 
			},
			{
				"x": 3.3193594526,
				"y": -0.3238199186,
				"z": 2.8343580527,
				"element": "H" 
			},
			{
				"x": 3.343154498,
				"y": -0.7562620423,
				"z": 1.1183639863,
				"element": "H" 
			},
			{
				"x": 2.7791193288,
				"y": 2.0518581945,
				"z": 2.2034210862,
				"element": "H" 
			},
			{
				"x": 4.3306798463,
				"y": 1.5442160531,
				"z": 1.482784481,
				"element": "H" 
			},
			{
				"x": -1.1073348791,
				"y": -0.5951483925,
				"z": 0.8217820653,
				"element": "H" 
			},
			{
				"x": -0.7278920176,
				"y": 1.9630093917,
				"z": -2.610044428,
				"element": "H" 
			},
			{
				"x": 1.5916979034,
				"y": 2.5509129069,
				"z": -1.8960482992,
				"element": "H" 
			}
		],
		 "valence_orbital": [ 
			{
				"type": "occ",
				"energy": -0.28413,
				"method": "rhf"
			},
			{
				"type": "occ",
				"energy": -0.28202,
				"method": "rhf"
			},
			{
				"type": "occ",
				"energy": -0.27916,
				"method": "rhf"
			},
			{
				"type": "occ",
				"energy": -0.2565,
				"method": "rhf"
			},
			{
				"type": "occ",
				"energy": -0.21594,
				"method": "rhf"
			},
			{
				"type": "unocc",
				"energy": -0.01677,
				"method": "rhf"
			},
			{
				"type": "unocc",
				"energy": 0.0026,
				"method": "rhf"
			},
			{
				"type": "unocc",
				"energy": 0.01415,
				"method": "rhf"
			},
			{
				"type": "unocc",
				"energy": 0.0656,
				"method": "rhf"
			},
			{
				"type": "unocc",
				"energy": 0.11361,
				"method": "rhf"
			}
		],
		"cosmo_sigma_profile": { 
			"-0.025": 0.0,
			"-0.024": 0.0,
			"-0.023": 0.0,
			"-0.022": 0.0,
			"-0.021": 0.0,
			"-0.02": 0.0,
			"-0.019": 0.0,
			"-0.018": 0.0,
			"-0.017": 0.0,
			"-0.016": 0.226148262839,
			"-0.015": 1.06478641572,
			"-0.014": 1.5142927853,
			"-0.013": 0.505141377724,
			"-0.012": 0.977256590823,
			"-0.011": 1.36353174492,
			"-0.01": 1.23371686756,
			"-0.009": 0.767050490192,
			"-0.008": 0.963735287294,
			"-0.007": 4.26998298985,
			"-0.006": 9.15717668502,
			"-0.005": 14.5582739631,
			"-0.004": 20.750741856,
			"-0.003": 17.4589782993,
			"-0.002": 13.8647392933,
			"-0.001": 10.8187455764,
			"0.0": 10.6500476359,
			"0.001": 10.8541814157,
			"0.002": 15.3812467307,
			"0.003": 21.9943850096,
			"0.004": 19.2465140593,
			"0.005": 13.1267121678,
			"0.006": 3.48725804164,
			"0.007": 2.72627991638,
			"0.008": 2.76241190367,
			"0.009": 2.85210114322,
			"0.01": 2.60405980996,
			"0.011": 1.28424200806,
			"0.012": 1.61682108045,
			"0.013": 1.47082307009,
			"0.014": 1.02239181154,
			"0.015": 0.0135650426304,
			"0.016": 0.0,
			"0.017": 0.0,
			"0.018": 0.0,
			"0.019": 0.0,
			"0.02": 0.0,
			"0.021": 0.0,
			"0.022": 0.0,
			"0.023": 0.0,
			"0.024": 0.0,
			"0.025": 0.0
		}
	}
}
