{
	 "smiles": "FC1=C(C=C(CBr)C=C1)C#N", 
	 "Tm": 318.15, 
	 "num_atms": 16, 
	 "gaussian": { 
		 "optdone": 1, 
		 "sigma_profile": "yes", 
		 "theory": "DFT", 
		 "functional": "B3LYP", 
		 "basiset": "6-31G**", 
		 "properties": { 
			 "R2extent": 3834.855, 
			 "electric_dipole_moment_norm": 4.61485872915, 
			 "electric_quadrupole_moment_norm": 13.3655743891, 
			 "total_energy": -3033.83920403, 
			 "HOMO_LUMO_gap": 0.19895, 
			 "cosmo_polarized_energy": -11.62, 
			 "cosmo_cavitation_energy": 24.7, 
			 "cosmo_dispersion_energy": -17.47, 
			 "cosmo_repulsion_energy": 1.4, 
			 "cosmo_total_nonelectrostatic_energy": 8.64, 
			 "SMD_solvation_energy": 4.85 
		},
		"coords": [
			{
				"x": 0.4717972995,
				"y": -2.183903672,
				"z": -2.5038643812,
				"element": "F" 
			},
			{
				"x": -0.0968268699,
				"y": -1.4134978827,
				"z": -1.5681213654,
				"element": "C" 
			},
			{
				"x": 0.4416235256,
				"y": -0.1442309201,
				"z": -1.3151954044,
				"element": "C" 
			},
			{
				"x": -0.159949265,
				"y": 0.655868819,
				"z": -0.3301903513,
				"element": "C" 
			},
			{
				"x": -1.2677405525,
				"y": 0.1990847212,
				"z": 0.3870008248,
				"element": "C" 
			},
			{
				"x": -1.8924765593,
				"y": 1.0540944051,
				"z": 1.4423464566,
				"element": "C" 
			},
			{
				"x": -3.4443199452,
				"y": 2.1044954858,
				"z": 0.738769707,
				"element": "Br" 
			},
			{
				"x": -1.7791393492,
				"y": -1.077788007,
				"z": 0.1039539473,
				"element": "C" 
			},
			{
				"x": -1.1995353707,
				"y": -1.8869713983,
				"z": -0.8689880163,
				"element": "C" 
			},
			{
				"x": 1.5825680144,
				"y": 0.3152321032,
				"z": -2.0462444301,
				"element": "C" 
			},
			{
				"x": 2.5106946408,
				"y": 0.7033821001,
				"z": -2.6290727799,
				"element": "N" 
			},
			{
				"x": 0.2515444243,
				"y": 1.6409132305,
				"z": -0.1350803777,
				"element": "H" 
			},
			{
				"x": -2.3101447187,
				"y": 0.4703960894,
				"z": 2.2606698303,
				"element": "H" 
			},
			{
				"x": -1.2071551351,
				"y": 1.8032613617,
				"z": 1.8338667079,
				"element": "H" 
			},
			{
				"x": -2.645479633,
				"y": -1.4398262436,
				"z": 0.6499156641,
				"element": "H" 
			},
			{
				"x": -1.5839605061,
				"y": -2.8753101925,
				"z": -1.0942660315,
				"element": "H" 
			}
		],
		 "valence_orbital": [ 
			{
				"type": "occ",
				"energy": -0.34134,
				"method": "rhf"
			},
			{
				"type": "occ",
				"energy": -0.29072,
				"method": "rhf"
			},
			{
				"type": "occ",
				"energy": -0.2883,
				"method": "rhf"
			},
			{
				"type": "occ",
				"energy": -0.28228,
				"method": "rhf"
			},
			{
				"type": "occ",
				"energy": -0.26789,
				"method": "rhf"
			},
			{
				"type": "unocc",
				"energy": -0.06894,
				"method": "rhf"
			},
			{
				"type": "unocc",
				"energy": -0.05472,
				"method": "rhf"
			},
			{
				"type": "unocc",
				"energy": 0.00294,
				"method": "rhf"
			},
			{
				"type": "unocc",
				"energy": 0.02331,
				"method": "rhf"
			},
			{
				"type": "unocc",
				"energy": 0.05932,
				"method": "rhf"
			}
		],
		"cosmo_sigma_profile": { 
			"-0.025": 0.0,
			"-0.024": 0.0,
			"-0.023": 0.0,
			"-0.022": 0.0,
			"-0.021": 0.0,
			"-0.02": 0.0,
			"-0.019": 0.0,
			"-0.018": 0.0,
			"-0.017": 0.0,
			"-0.016": 0.0,
			"-0.015": 0.0,
			"-0.014": 0.0,
			"-0.013": 0.0,
			"-0.012": 0.0,
			"-0.011": 0.0,
			"-0.01": 0.327977907879,
			"-0.009": 6.4216672162,
			"-0.008": 11.5334121339,
			"-0.007": 9.62295505526,
			"-0.006": 8.59263265124,
			"-0.005": 8.55611852114,
			"-0.004": 8.46348693027,
			"-0.003": 10.4294426797,
			"-0.002": 15.8336302696,
			"-0.001": 16.9444522595,
			"0.0": 13.8063669858,
			"0.001": 13.4183618793,
			"0.002": 12.9728888157,
			"0.003": 15.9694723955,
			"0.004": 7.55886294384,
			"0.005": 10.6170694862,
			"0.006": 12.7225587083,
			"0.007": 4.16664926863,
			"0.008": 3.60902517078,
			"0.009": 3.31216619174,
			"0.01": 2.71613270024,
			"0.011": 2.66844810076,
			"0.012": 2.17553567885,
			"0.013": 0.638333699806,
			"0.014": 0.0,
			"0.015": 0.0,
			"0.016": 0.0,
			"0.017": 0.0,
			"0.018": 0.0,
			"0.019": 0.0,
			"0.02": 0.0,
			"0.021": 0.0,
			"0.022": 0.0,
			"0.023": 0.0,
			"0.024": 0.0,
			"0.025": 0.0
		}
	}
}
