{
	 "smiles": "CC(C)N1C(=O)N=C(C2=CC=CC=C2)C2=C1C=C(C)C=C2", 
	 "Tm": 411.15, 
	 "num_atms": 39, 
	 "gaussian": { 
		 "optdone": 1, 
		 "sigma_profile": "yes", 
		 "theory": "DFT", 
		 "functional": "B3LYP", 
		 "basiset": "6-31G**", 
		 "properties": { 
			 "R2extent": 6774.1783, 
			 "electric_dipole_moment_norm": 5.49863582718, 
			 "electric_quadrupole_moment_norm": 15.4650591341, 
			 "total_energy": -881.528763005, 
			 "HOMO_LUMO_gap": 0.1533, 
			 "cosmo_polarized_energy": -15.95, 
			 "cosmo_cavitation_energy": 40.81, 
			 "cosmo_dispersion_energy": -29.06, 
			 "cosmo_repulsion_energy": 2.21, 
			 "cosmo_total_nonelectrostatic_energy": 13.96, 
			 "SMD_solvation_energy": 6.03 
		},
		"coords": [
			{
				"x": 1.9499596372,
				"y": 3.8401405231,
				"z": 0.2614075319,
				"element": "C" 
			},
			{
				"x": 0.6215762075,
				"y": 3.2514721931,
				"z": -0.2302578168,
				"element": "C" 
			},
			{
				"x": -0.6007338016,
				"y": 4.04567175,
				"z": 0.251417181,
				"element": "C" 
			},
			{
				"x": 0.5093872654,
				"y": 1.80200651,
				"z": 0.0972558209,
				"element": "N" 
			},
			{
				"x": 0.2227137072,
				"y": 1.4356966365,
				"z": 1.4350874113,
				"element": "C" 
			},
			{
				"x": 0.3054096191,
				"y": 2.2535690574,
				"z": 2.3406514245,
				"element": "O" 
			},
			{
				"x": -0.2205182082,
				"y": 0.13891109,
				"z": 1.6616892977,
				"element": "N" 
			},
			{
				"x": -0.0877148038,
				"y": -0.7882059825,
				"z": 0.7549832916,
				"element": "C" 
			},
			{
				"x": -0.6640211385,
				"y": -2.1195458325,
				"z": 1.0981586782,
				"element": "C" 
			},
			{
				"x": -0.5628433489,
				"y": -2.5787289134,
				"z": 2.421523175,
				"element": "C" 
			},
			{
				"x": -1.1242702044,
				"y": -3.7980460445,
				"z": 2.7915529345,
				"element": "C" 
			},
			{
				"x": -1.815032895,
				"y": -4.5676597652,
				"z": 1.8515735616,
				"element": "C" 
			},
			{
				"x": -1.943918593,
				"y": -4.108297196,
				"z": 0.5400352227,
				"element": "C" 
			},
			{
				"x": -1.3687205531,
				"y": -2.8945151696,
				"z": 0.1625957054,
				"element": "C" 
			},
			{
				"x": 0.5827475813,
				"y": -0.5349186872,
				"z": -0.5082622163,
				"element": "C" 
			},
			{
				"x": 0.8531449584,
				"y": 0.8237461166,
				"z": -0.8284076585,
				"element": "C" 
			},
			{
				"x": 1.4876715872,
				"y": 1.1172154435,
				"z": -2.0558775864,
				"element": "C" 
			},
			{
				"x": 1.8672763891,
				"y": 0.1098565427,
				"z": -2.9365588704,
				"element": "C" 
			},
			{
				"x": 2.5514591229,
				"y": 0.4460802536,
				"z": -4.2392244575,
				"element": "C" 
			},
			{
				"x": 1.6265276089,
				"y": -1.2352253697,
				"z": -2.5922397836,
				"element": "C" 
			},
			{
				"x": 1.0011338559,
				"y": -1.5440380684,
				"z": -1.3998771465,
				"element": "C" 
			},
			{
				"x": 2.0389812476,
				"y": 4.8824663442,
				"z": -0.0624491494,
				"element": "H" 
			},
			{
				"x": 1.992979515,
				"y": 3.8033532296,
				"z": 1.3511133793,
				"element": "H" 
			},
			{
				"x": 2.8016838191,
				"y": 3.2838124187,
				"z": -0.1432148333,
				"element": "H" 
			},
			{
				"x": 0.5962218286,
				"y": 3.2967149069,
				"z": -1.3204140222,
				"element": "H" 
			},
			{
				"x": -1.5268864358,
				"y": 3.5819076791,
				"z": -0.1023173691,
				"element": "H" 
			},
			{
				"x": -0.6339444909,
				"y": 4.1144110234,
				"z": 1.3377555614,
				"element": "H" 
			},
			{
				"x": -0.5476048896,
				"y": 5.0555310357,
				"z": -0.1683623102,
				"element": "H" 
			},
			{
				"x": -0.0441973464,
				"y": -1.9605527977,
				"z": 3.1460911187,
				"element": "H" 
			},
			{
				"x": -1.0282050034,
				"y": -4.1467096524,
				"z": 3.8157165745,
				"element": "H" 
			},
			{
				"x": -2.2571000597,
				"y": -5.5163726289,
				"z": 2.1422670091,
				"element": "H" 
			},
			{
				"x": -2.4983568694,
				"y": -4.6907746108,
				"z": -0.190098451,
				"element": "H" 
			},
			{
				"x": -1.4958839488,
				"y": -2.5330484799,
				"z": -0.8526370644,
				"element": "H" 
			},
			{
				"x": 1.7296631045,
				"y": 2.1394304955,
				"z": -2.3160547705,
				"element": "H" 
			},
			{
				"x": 3.5052176874,
				"y": -0.0850121712,
				"z": -4.3322961188,
				"element": "H" 
			},
			{
				"x": 1.9337406571,
				"y": 0.1462484184,
				"z": -5.0939709927,
				"element": "H" 
			},
			{
				"x": 2.7498475926,
				"y": 1.517175578,
				"z": -4.3286295161,
				"element": "H" 
			},
			{
				"x": 1.9465461436,
				"y": -2.0291254446,
				"z": -3.2609330455,
				"element": "H" 
			},
			{
				"x": 0.8417634549,
				"y": -2.5806404313,
				"z": -1.1273917001,
				"element": "H" 
			}
		],
		 "valence_orbital": [ 
			{
				"type": "occ",
				"energy": -0.25926,
				"method": "rhf"
			},
			{
				"type": "occ",
				"energy": -0.25512,
				"method": "rhf"
			},
			{
				"type": "occ",
				"energy": -0.25202,
				"method": "rhf"
			},
			{
				"type": "occ",
				"energy": -0.24031,
				"method": "rhf"
			},
			{
				"type": "occ",
				"energy": -0.21972,
				"method": "rhf"
			},
			{
				"type": "unocc",
				"energy": -0.06642,
				"method": "rhf"
			},
			{
				"type": "unocc",
				"energy": -0.01658,
				"method": "rhf"
			},
			{
				"type": "unocc",
				"energy": -0.0112,
				"method": "rhf"
			},
			{
				"type": "unocc",
				"energy": -0.00479,
				"method": "rhf"
			},
			{
				"type": "unocc",
				"energy": 0.02678,
				"method": "rhf"
			}
		],
		"cosmo_sigma_profile": { 
			"-0.025": 0.0,
			"-0.024": 0.0,
			"-0.023": 0.0,
			"-0.022": 0.0,
			"-0.021": 0.0,
			"-0.02": 0.0,
			"-0.019": 0.0,
			"-0.018": 0.0,
			"-0.017": 0.0,
			"-0.016": 0.0,
			"-0.015": 0.0,
			"-0.014": 0.0,
			"-0.013": 0.0,
			"-0.012": 0.0,
			"-0.011": 0.0,
			"-0.01": 0.0,
			"-0.009": 0.0879072595128,
			"-0.008": 1.02687275426,
			"-0.007": 2.80610678984,
			"-0.006": 12.8925043184,
			"-0.005": 21.3659005004,
			"-0.004": 32.3648571986,
			"-0.003": 33.6727180995,
			"-0.002": 32.1985473338,
			"-0.001": 36.5173637239,
			"0.0": 32.9801790515,
			"0.001": 27.8144601086,
			"0.002": 18.2979112233,
			"0.003": 19.0784067266,
			"0.004": 16.7688360485,
			"0.005": 8.89095687334,
			"0.006": 2.82797261706,
			"0.007": 2.79527453266,
			"0.008": 1.81266722049,
			"0.009": 2.47068265875,
			"0.01": 2.27125819317,
			"0.011": 1.75410863949,
			"0.012": 2.59475776315,
			"0.013": 3.4809106628,
			"0.014": 3.06323160479,
			"0.015": 2.5383621944,
			"0.016": 2.09192432353,
			"0.017": 0.241747400691,
			"0.018": 0.0,
			"0.019": 0.0,
			"0.02": 0.0,
			"0.021": 0.0,
			"0.022": 0.0,
			"0.023": 0.0,
			"0.024": 0.0,
			"0.025": 0.0
		}
	}
}
