{
	 "smiles": "CSC1=NC2=C(N1)C=CC(=C2)N=C/C1=CC=C(C=C1)[N+]([O-])=O", 
	 "Tm": 533.15, 
	 "num_atms": 34, 
	 "gaussian": { 
		 "optdone": 1, 
		 "sigma_profile": "yes", 
		 "theory": "DFT", 
		 "functional": "B3LYP", 
		 "basiset": "6-31G**", 
		 "properties": { 
			 "R2extent": 10159.1014, 
			 "electric_dipole_moment_norm": 3.87161107163, 
			 "electric_quadrupole_moment_norm": 32.1937386338, 
			 "total_energy": -1346.36187169, 
			 "HOMO_LUMO_gap": 0.10651, 
			 "cosmo_polarized_energy": -19.36, 
			 "cosmo_cavitation_energy": 41.82, 
			 "cosmo_dispersion_energy": -30.0, 
			 "cosmo_repulsion_energy": 2.25, 
			 "cosmo_total_nonelectrostatic_energy": 14.07, 
			 "SMD_solvation_energy": 6.07 
		},
		"coords": [
			{
				"x": 4.5271959987,
				"y": -2.1372239467,
				"z": -1.6334379988,
				"element": "C" 
			},
			{
				"x": 4.9032969172,
				"y": -0.3515462265,
				"z": -1.7015202985,
				"element": "S" 
			},
			{
				"x": 3.2797230233,
				"y": 0.2661948217,
				"z": -1.9929455257,
				"element": "C" 
			},
			{
				"x": 2.1842844792,
				"y": -0.4461474322,
				"z": -2.0964296289,
				"element": "N" 
			},
			{
				"x": 1.1762853429,
				"y": 0.4860996413,
				"z": -2.3188075235,
				"element": "C" 
			},
			{
				"x": 1.7104284216,
				"y": 1.7966005042,
				"z": -2.3465414231,
				"element": "C" 
			},
			{
				"x": 3.0708296653,
				"y": 1.6231705191,
				"z": -2.1321055876,
				"element": "N" 
			},
			{
				"x": 0.9151206085,
				"y": 2.9192898117,
				"z": -2.5712688709,
				"element": "C" 
			},
			{
				"x": -0.4444990427,
				"y": 2.7023815055,
				"z": -2.7773990115,
				"element": "C" 
			},
			{
				"x": -1.0069860597,
				"y": 1.4048202768,
				"z": -2.7139562293,
				"element": "C" 
			},
			{
				"x": -0.1946528921,
				"y": 0.2835499528,
				"z": -2.4970306476,
				"element": "C" 
			},
			{
				"x": -2.3807882104,
				"y": 1.2775193665,
				"z": -3.0090632602,
				"element": "N" 
			},
			{
				"x": -3.2365295879,
				"y": 0.691158761,
				"z": -2.2640730674,
				"element": "C" 
			},
			{
				"x": -3.1404853934,
				"y": 0.1396481258,
				"z": -0.8862475352,
				"element": "C" 
			},
			{
				"x": -2.2258181592,
				"y": 0.5999287741,
				"z": 0.0798220078,
				"element": "C" 
			},
			{
				"x": -2.2403682144,
				"y": 0.0835893807,
				"z": 1.3699027459,
				"element": "C" 
			},
			{
				"x": -3.170085553,
				"y": -0.9053782971,
				"z": 1.6915541603,
				"element": "C" 
			},
			{
				"x": -4.0971497681,
				"y": -1.3764247665,
				"z": 0.7650280477,
				"element": "C" 
			},
			{
				"x": -4.082648897,
				"y": -0.8368361166,
				"z": -0.5165365438,
				"element": "C" 
			},
			{
				"x": -3.1797514998,
				"y": -1.4601480869,
				"z": 3.0544228608,
				"element": "N" 
			},
			{
				"x": -4.0148867975,
				"y": -2.3269643619,
				"z": 3.3112066068,
				"element": "O" 
			},
			{
				"x": -2.3525258311,
				"y": -1.0232598079,
				"z": 3.8538282959,
				"element": "O" 
			},
			{
				"x": 5.4812571807,
				"y": -2.6350080256,
				"z": -1.4511741083,
				"element": "H" 
			},
			{
				"x": 3.8291095266,
				"y": -2.3429256025,
				"z": -0.8224199777,
				"element": "H" 
			},
			{
				"x": 4.0999104341,
				"y": -2.467317874,
				"z": -2.5799942975,
				"element": "H" 
			},
			{
				"x": 3.7770412684,
				"y": 2.3418168825,
				"z": -2.1000083307,
				"element": "H" 
			},
			{
				"x": 1.3294611959,
				"y": 3.9221921751,
				"z": -2.6063809466,
				"element": "H" 
			},
			{
				"x": -1.1052940939,
				"y": 3.5371004197,
				"z": -2.9858135466,
				"element": "H" 
			},
			{
				"x": -0.6118316123,
				"y": -0.7171334451,
				"z": -2.4837773187,
				"element": "H" 
			},
			{
				"x": -4.237488208,
				"y": 0.58855088,
				"z": -2.6975463123,
				"element": "H" 
			},
			{
				"x": -1.508802941,
				"y": 1.3689527004,
				"z": -0.1778453155,
				"element": "H" 
			},
			{
				"x": -1.5492903338,
				"y": 0.4297305363,
				"z": 2.1280447553,
				"element": "H" 
			},
			{
				"x": -4.807607093,
				"y": -2.1384886538,
				"z": 1.0593816512,
				"element": "H" 
			},
			{
				"x": -4.8088538743,
				"y": -1.1794923919,
				"z": -1.2484678258,
				"element": "H" 
			}
		],
		 "valence_orbital": [ 
			{
				"type": "occ",
				"energy": -0.28181,
				"method": "rhf"
			},
			{
				"type": "occ",
				"energy": -0.27449,
				"method": "rhf"
			},
			{
				"type": "occ",
				"energy": -0.26514,
				"method": "rhf"
			},
			{
				"type": "occ",
				"energy": -0.22379,
				"method": "rhf"
			},
			{
				"type": "occ",
				"energy": -0.20605,
				"method": "rhf"
			},
			{
				"type": "unocc",
				"energy": -0.09954,
				"method": "rhf"
			},
			{
				"type": "unocc",
				"energy": -0.04432,
				"method": "rhf"
			},
			{
				"type": "unocc",
				"energy": -0.03207,
				"method": "rhf"
			},
			{
				"type": "unocc",
				"energy": -0.0175,
				"method": "rhf"
			},
			{
				"type": "unocc",
				"energy": 0.01111,
				"method": "rhf"
			}
		],
		"cosmo_sigma_profile": { 
			"-0.025": 0.0,
			"-0.024": 0.0,
			"-0.023": 0.0,
			"-0.022": 0.0,
			"-0.021": 0.0,
			"-0.02": 0.0,
			"-0.019": 0.0,
			"-0.018": 0.0,
			"-0.017": 0.656762303893,
			"-0.016": 1.40210262483,
			"-0.015": 1.80495575591,
			"-0.014": 1.381843314,
			"-0.013": 0.823356417622,
			"-0.012": 1.15764095853,
			"-0.011": 1.48040243095,
			"-0.01": 1.43850453075,
			"-0.009": 1.11105191335,
			"-0.008": 6.60994909665,
			"-0.007": 14.2206680005,
			"-0.006": 18.5417049239,
			"-0.005": 18.9135801208,
			"-0.004": 19.6042311688,
			"-0.003": 21.5347316125,
			"-0.002": 26.2389444946,
			"-0.001": 23.4468997719,
			"0.0": 26.0678532077,
			"0.001": 28.4691617852,
			"0.002": 20.364337885,
			"0.003": 16.440184561,
			"0.004": 15.8037325518,
			"0.005": 16.2713617249,
			"0.006": 10.4624467905,
			"0.007": 13.8141689763,
			"0.008": 11.0190996705,
			"0.009": 6.77685086376,
			"0.01": 3.84795781428,
			"0.011": 1.97373541902,
			"0.012": 2.0648084704,
			"0.013": 1.54327809644,
			"0.014": 1.7731477773,
			"0.015": 1.06799592219,
			"0.016": 0.0,
			"0.017": 0.0,
			"0.018": 0.0,
			"0.019": 0.0,
			"0.02": 0.0,
			"0.021": 0.0,
			"0.022": 0.0,
			"0.023": 0.0,
			"0.024": 0.0,
			"0.025": 0.0
		}
	}
}
