{
	 "smiles": "OCC1=CC=C(O)C=C1", 
	 "Tm": 397.15, 
	 "num_atms": 17, 
	 "gaussian": { 
		 "optdone": 1, 
		 "sigma_profile": "yes", 
		 "theory": "DFT", 
		 "functional": "B3LYP", 
		 "basiset": "6-31G**", 
		 "properties": { 
			 "R2extent": 1582.4251, 
			 "electric_dipole_moment_norm": 1.37094591432, 
			 "electric_quadrupole_moment_norm": 11.0586011114, 
			 "total_energy": -421.998945063, 
			 "HOMO_LUMO_gap": 0.21367, 
			 "cosmo_polarized_energy": -11.35, 
			 "cosmo_cavitation_energy": 20.77, 
			 "cosmo_dispersion_energy": -15.57, 
			 "cosmo_repulsion_energy": 1.29, 
			 "cosmo_total_nonelectrostatic_energy": 6.48, 
			 "SMD_solvation_energy": 3.98 
		},
		"coords": [
			{
				"x": -0.3302220889,
				"y": -2.5992327992,
				"z": 0.4363152159,
				"element": "O" 
			},
			{
				"x": -0.5201810136,
				"y": -1.4582071296,
				"z": 1.2646226625,
				"element": "C" 
			},
			{
				"x": -0.6809328345,
				"y": -0.1664419962,
				"z": 0.4884429015,
				"element": "C" 
			},
			{
				"x": 0.029452452,
				"y": 0.0406983188,
				"z": -0.6998186531,
				"element": "C" 
			},
			{
				"x": -0.0895261064,
				"y": 1.2345547996,
				"z": -1.4092626404,
				"element": "C" 
			},
			{
				"x": -0.9252375614,
				"y": 2.2505990706,
				"z": -0.9317742527,
				"element": "C" 
			},
			{
				"x": -1.0845728969,
				"y": 3.4431651368,
				"z": -1.5804729608,
				"element": "O" 
			},
			{
				"x": -1.6437725464,
				"y": 2.0583998214,
				"z": 0.2531090708,
				"element": "C" 
			},
			{
				"x": -1.5202290947,
				"y": 0.8572057043,
				"z": 0.9464817177,
				"element": "C" 
			},
			{
				"x": -1.077747353,
				"y": -2.635525341,
				"z": -0.1756557491,
				"element": "H" 
			},
			{
				"x": -1.3787471923,
				"y": -1.5893509727,
				"z": 1.9428111998,
				"element": "H" 
			},
			{
				"x": 0.3758034463,
				"y": -1.4180224746,
				"z": 1.8961840253,
				"element": "H" 
			},
			{
				"x": 0.6741394721,
				"y": -0.749908733,
				"z": -1.0719011608,
				"element": "H" 
			},
			{
				"x": 0.4672240373,
				"y": 1.3787700226,
				"z": -2.3334745347,
				"element": "H" 
			},
			{
				"x": -0.5364350646,
				"y": 3.4453132608,
				"z": -2.3757810907,
				"element": "H" 
			},
			{
				"x": -2.2956058021,
				"y": 2.8508288054,
				"z": 0.6059782857,
				"element": "H" 
			},
			{
				"x": -2.0906098528,
				"y": 0.713654506,
				"z": 1.861595963,
				"element": "H" 
			}
		],
		 "valence_orbital": [ 
			{
				"type": "occ",
				"energy": -0.33162,
				"method": "rhf"
			},
			{
				"type": "occ",
				"energy": -0.32193,
				"method": "rhf"
			},
			{
				"type": "occ",
				"energy": -0.27226,
				"method": "rhf"
			},
			{
				"type": "occ",
				"energy": -0.25258,
				"method": "rhf"
			},
			{
				"type": "occ",
				"energy": -0.21757,
				"method": "rhf"
			},
			{
				"type": "unocc",
				"energy": -0.0039,
				"method": "rhf"
			},
			{
				"type": "unocc",
				"energy": 0.00867,
				"method": "rhf"
			},
			{
				"type": "unocc",
				"energy": 0.06969,
				"method": "rhf"
			},
			{
				"type": "unocc",
				"energy": 0.09085,
				"method": "rhf"
			},
			{
				"type": "unocc",
				"energy": 0.1027,
				"method": "rhf"
			}
		],
		"cosmo_sigma_profile": { 
			"-0.025": 0.0,
			"-0.024": 0.0,
			"-0.023": 0.0,
			"-0.022": 0.0,
			"-0.021": 0.0,
			"-0.02": 0.0,
			"-0.019": 0.0,
			"-0.018": 0.282989633341,
			"-0.017": 0.962545344409,
			"-0.016": 1.23765949256,
			"-0.015": 1.69993868819,
			"-0.014": 2.00777765656,
			"-0.013": 1.53698209255,
			"-0.012": 2.03315773966,
			"-0.011": 0.961271283757,
			"-0.01": 1.70328017846,
			"-0.009": 2.58657414126,
			"-0.008": 1.51461149328,
			"-0.007": 2.46001946866,
			"-0.006": 4.79376571522,
			"-0.005": 9.55368212263,
			"-0.004": 14.1033900857,
			"-0.003": 12.4279435331,
			"-0.002": 10.1809256051,
			"-0.001": 8.72500435588,
			"0.0": 7.95379498948,
			"0.001": 8.13788204368,
			"0.002": 8.81080980554,
			"0.003": 8.26414982414,
			"0.004": 11.1721958154,
			"0.005": 11.4507530955,
			"0.006": 10.1453742325,
			"0.007": 2.20428279454,
			"0.008": 2.26410097848,
			"0.009": 2.7689514869,
			"0.01": 2.38455978103,
			"0.011": 3.48272419527,
			"0.012": 2.10514475023,
			"0.013": 1.61514462395,
			"0.014": 2.17310164513,
			"0.015": 0.336444150894,
			"0.016": 0.0,
			"0.017": 0.0,
			"0.018": 0.0,
			"0.019": 0.0,
			"0.02": 0.0,
			"0.021": 0.0,
			"0.022": 0.0,
			"0.023": 0.0,
			"0.024": 0.0,
			"0.025": 0.0
		}
	}
}
