{
	 "smiles": "BrC1=C2C=CC=NC2=C(C=O)C=C1", 
	 "Tm": 393.15, 
	 "num_atms": 19, 
	 "gaussian": { 
		 "optdone": 1, 
		 "sigma_profile": "yes", 
		 "theory": "DFT", 
		 "functional": "B3LYP", 
		 "basiset": "6-31G**", 
		 "properties": { 
			 "R2extent": 3898.935, 
			 "electric_dipole_moment_norm": 3.86000298186, 
			 "electric_quadrupole_moment_norm": 18.7089058755, 
			 "total_energy": -3086.05385621, 
			 "HOMO_LUMO_gap": 0.15715, 
			 "cosmo_polarized_energy": -8.38, 
			 "cosmo_cavitation_energy": 25.9, 
			 "cosmo_dispersion_energy": -19.64, 
			 "cosmo_repulsion_energy": 1.52, 
			 "cosmo_total_nonelectrostatic_energy": 7.77, 
			 "SMD_solvation_energy": 3.3 
		},
		"coords": [
			{
				"x": -0.9104716646,
				"y": -0.5798276437,
				"z": 2.5918877732,
				"element": "Br" 
			},
			{
				"x": 0.192403531,
				"y": -0.0925716421,
				"z": 1.1080086953,
				"element": "C" 
			},
			{
				"x": 0.6274277478,
				"y": 1.2531070116,
				"z": 0.9516693379,
				"element": "C" 
			},
			{
				"x": 0.3023770587,
				"y": 2.3128722045,
				"z": 1.8362376824,
				"element": "C" 
			},
			{
				"x": 0.7809068606,
				"y": 3.5756954207,
				"z": 1.5834044533,
				"element": "C" 
			},
			{
				"x": 1.5891523383,
				"y": 3.7810057415,
				"z": 0.4398409454,
				"element": "C" 
			},
			{
				"x": 1.9165790192,
				"y": 2.8282236702,
				"z": -0.4086013212,
				"element": "N" 
			},
			{
				"x": 1.4549849882,
				"y": 1.5666159714,
				"z": -0.1809594661,
				"element": "C" 
			},
			{
				"x": 1.8113099885,
				"y": 0.5330253394,
				"z": -1.1032011518,
				"element": "C" 
			},
			{
				"x": 2.6656304872,
				"y": 0.8145541426,
				"z": -2.2880505789,
				"element": "C" 
			},
			{
				"x": 2.9855945192,
				"y": -0.0454382011,
				"z": -3.0907673883,
				"element": "O" 
			},
			{
				"x": 1.3551253007,
				"y": -0.755754801,
				"z": -0.893908875,
				"element": "C" 
			},
			{
				"x": 0.5445144204,
				"y": -1.077610835,
				"z": 0.2101033242,
				"element": "C" 
			},
			{
				"x": -0.3201594267,
				"y": 2.1108046436,
				"z": 2.7006886343,
				"element": "H" 
			},
			{
				"x": 0.5497935594,
				"y": 4.406997208,
				"z": 2.2412142785,
				"element": "H" 
			},
			{
				"x": 1.9774690265,
				"y": 4.7754036541,
				"z": 0.2234422008,
				"element": "H" 
			},
			{
				"x": 2.9946728301,
				"y": 1.8618951522,
				"z": -2.3956075704,
				"element": "H" 
			},
			{
				"x": 1.6402732879,
				"y": -1.5212596116,
				"z": -1.6090748646,
				"element": "H" 
			},
			{
				"x": 0.1974161276,
				"y": -2.0938374252,
				"z": 0.3561738911,
				"element": "H" 
			}
		],
		 "valence_orbital": [ 
			{
				"type": "occ",
				"energy": -0.30472,
				"method": "rhf"
			},
			{
				"type": "occ",
				"energy": -0.28326,
				"method": "rhf"
			},
			{
				"type": "occ",
				"energy": -0.27487,
				"method": "rhf"
			},
			{
				"type": "occ",
				"energy": -0.24637,
				"method": "rhf"
			},
			{
				"type": "occ",
				"energy": -0.24604,
				"method": "rhf"
			},
			{
				"type": "unocc",
				"energy": -0.08889,
				"method": "rhf"
			},
			{
				"type": "unocc",
				"energy": -0.0388,
				"method": "rhf"
			},
			{
				"type": "unocc",
				"energy": -0.03693,
				"method": "rhf"
			},
			{
				"type": "unocc",
				"energy": -0.00822,
				"method": "rhf"
			},
			{
				"type": "unocc",
				"energy": 0.0322,
				"method": "rhf"
			}
		],
		"cosmo_sigma_profile": { 
			"-0.025": 0.0,
			"-0.024": 0.0,
			"-0.023": 0.0,
			"-0.022": 0.0,
			"-0.021": 0.0,
			"-0.02": 0.0,
			"-0.019": 0.0,
			"-0.018": 0.0,
			"-0.017": 0.0,
			"-0.016": 0.0,
			"-0.015": 0.0,
			"-0.014": 0.0,
			"-0.013": 0.0,
			"-0.012": 0.0,
			"-0.011": 0.0,
			"-0.01": 0.0,
			"-0.009": 0.0496508098115,
			"-0.008": 3.06096237607,
			"-0.007": 9.23622940507,
			"-0.006": 10.8866368162,
			"-0.005": 10.8941038839,
			"-0.004": 10.4566314851,
			"-0.003": 14.2932698757,
			"-0.002": 13.672078968,
			"-0.001": 24.330341466,
			"0.0": 32.6427484797,
			"0.001": 24.7098121454,
			"0.002": 12.9249834716,
			"0.003": 12.1320720267,
			"0.004": 7.45421465897,
			"0.005": 3.10436813646,
			"0.006": 2.57742279384,
			"0.007": 2.87922196434,
			"0.008": 3.46662823136,
			"0.009": 2.77503575376,
			"0.01": 3.55342348321,
			"0.011": 4.6972217349,
			"0.012": 2.34698607006,
			"0.013": 0.803299248932,
			"0.014": 0.0,
			"0.015": 0.0,
			"0.016": 0.0,
			"0.017": 0.0,
			"0.018": 0.0,
			"0.019": 0.0,
			"0.02": 0.0,
			"0.021": 0.0,
			"0.022": 0.0,
			"0.023": 0.0,
			"0.024": 0.0,
			"0.025": 0.0
		}
	}
}
