{
	 "smiles": "ClCC1=CC(Cl)=CC2=C1OCOC2", 
	 "Tm": 374.15, 
	 "num_atms": 21, 
	 "gaussian": { 
		 "optdone": 1, 
		 "sigma_profile": "yes", 
		 "theory": "DFT", 
		 "functional": "B3LYP", 
		 "basiset": "6-31G**", 
		 "properties": { 
			 "R2extent": 4036.3288, 
			 "electric_dipole_moment_norm": 2.20371689198, 
			 "electric_quadrupole_moment_norm": 9.76070181647, 
			 "total_energy": -1418.59798388, 
			 "HOMO_LUMO_gap": 0.19094, 
			 "cosmo_polarized_energy": -9.61, 
			 "cosmo_cavitation_energy": 28.04, 
			 "cosmo_dispersion_energy": -20.92, 
			 "cosmo_repulsion_energy": 1.67, 
			 "cosmo_total_nonelectrostatic_energy": 8.79, 
			 "SMD_solvation_energy": 4.4 
		},
		"coords": [
			{
				"x": 1.7755474535,
				"y": 1.196028935,
				"z": 4.1507306271,
				"element": "Cl" 
			},
			{
				"x": 0.1031120062,
				"y": 1.0404574801,
				"z": 3.4045259669,
				"element": "C" 
			},
			{
				"x": 0.1181986247,
				"y": 0.2337070804,
				"z": 2.1443659888,
				"element": "C" 
			},
			{
				"x": -0.1507775126,
				"y": -1.1367276022,
				"z": 2.165199601,
				"element": "C" 
			},
			{
				"x": -0.1273569287,
				"y": -1.8727037851,
				"z": 0.9819811861,
				"element": "C" 
			},
			{
				"x": -0.4698502495,
				"y": -3.5965078863,
				"z": 1.0262778704,
				"element": "Cl" 
			},
			{
				"x": 0.1517585337,
				"y": -1.2592490716,
				"z": -0.2360331072,
				"element": "C" 
			},
			{
				"x": 0.4191837362,
				"y": 0.1105097949,
				"z": -0.2787380171,
				"element": "C" 
			},
			{
				"x": 0.4139528239,
				"y": 0.8474691412,
				"z": 0.9138547566,
				"element": "C" 
			},
			{
				"x": 0.6755080849,
				"y": 2.1888582437,
				"z": 0.921903738,
				"element": "O" 
			},
			{
				"x": 1.2736708515,
				"y": 2.6694277061,
				"z": -0.2819664889,
				"element": "C" 
			},
			{
				"x": 0.5871061806,
				"y": 2.2446476282,
				"z": -1.417658599,
				"element": "O" 
			},
			{
				"x": 0.6927726324,
				"y": 0.831217277,
				"z": -1.5819998865,
				"element": "C" 
			},
			{
				"x": -0.2268338239,
				"y": 2.0623355899,
				"z": 3.2272238793,
				"element": "H" 
			},
			{
				"x": -0.5150241072,
				"y": 0.5745676637,
				"z": 4.1711153677,
				"element": "H" 
			},
			{
				"x": -0.3721212994,
				"y": -1.6295747914,
				"z": 3.1059913503,
				"element": "H" 
			},
			{
				"x": 0.1476383338,
				"y": -1.8441498363,
				"z": -1.1507934235,
				"element": "H" 
			},
			{
				"x": 2.3241488009,
				"y": 2.3363143858,
				"z": -0.302187133,
				"element": "H" 
			},
			{
				"x": 1.2120104532,
				"y": 3.7565737101,
				"z": -0.2376309683,
				"element": "H" 
			},
			{
				"x": 1.6895965444,
				"y": 0.5694159324,
				"z": -1.9732694658,
				"element": "H" 
			},
			{
				"x": -0.0456411387,
				"y": 0.5590824044,
				"z": -2.3414932428,
				"element": "H" 
			}
		],
		 "valence_orbital": [ 
			{
				"type": "occ",
				"energy": -0.29704,
				"method": "rhf"
			},
			{
				"type": "occ",
				"energy": -0.29347,
				"method": "rhf"
			},
			{
				"type": "occ",
				"energy": -0.29127,
				"method": "rhf"
			},
			{
				"type": "occ",
				"energy": -0.26534,
				"method": "rhf"
			},
			{
				"type": "occ",
				"energy": -0.2326,
				"method": "rhf"
			},
			{
				"type": "unocc",
				"energy": -0.04166,
				"method": "rhf"
			},
			{
				"type": "unocc",
				"energy": -0.01437,
				"method": "rhf"
			},
			{
				"type": "unocc",
				"energy": 0.02378,
				"method": "rhf"
			},
			{
				"type": "unocc",
				"energy": 0.03635,
				"method": "rhf"
			},
			{
				"type": "unocc",
				"energy": 0.08741,
				"method": "rhf"
			}
		],
		"cosmo_sigma_profile": { 
			"-0.025": 0.0,
			"-0.024": 0.0,
			"-0.023": 0.0,
			"-0.022": 0.0,
			"-0.021": 0.0,
			"-0.02": 0.0,
			"-0.019": 0.0,
			"-0.018": 0.0,
			"-0.017": 0.0,
			"-0.016": 0.0,
			"-0.015": 0.0,
			"-0.014": 0.0,
			"-0.013": 0.0,
			"-0.012": 0.0,
			"-0.011": 0.0,
			"-0.01": 0.0,
			"-0.009": 0.593368627504,
			"-0.008": 8.23164679836,
			"-0.007": 15.0160419251,
			"-0.006": 17.5566532985,
			"-0.005": 15.3195462419,
			"-0.004": 12.4512901525,
			"-0.003": 10.1809006884,
			"-0.002": 8.7513624698,
			"-0.001": 9.55224133857,
			"0.0": 13.1984535451,
			"0.001": 15.2180013398,
			"0.002": 23.2476692144,
			"0.003": 17.4462254418,
			"0.004": 16.6695800487,
			"0.005": 15.6663896034,
			"0.006": 13.1011303582,
			"0.007": 10.2070527183,
			"0.008": 0.883943362235,
			"0.009": 1.2581614453,
			"0.01": 1.46051933952,
			"0.011": 1.6863046412,
			"0.012": 0.244657573413,
			"0.013": 0.0,
			"0.014": 0.0,
			"0.015": 0.0,
			"0.016": 0.0,
			"0.017": 0.0,
			"0.018": 0.0,
			"0.019": 0.0,
			"0.02": 0.0,
			"0.021": 0.0,
			"0.022": 0.0,
			"0.023": 0.0,
			"0.024": 0.0,
			"0.025": 0.0
		}
	}
}
