{
	 "smiles": "O=CC1=CC=C(S1)N1CCOCC1", 
	 "Tm": 400.15, 
	 "num_atms": 24, 
	 "gaussian": { 
		 "optdone": 1, 
		 "sigma_profile": "yes", 
		 "theory": "DFT", 
		 "functional": "B3LYP", 
		 "basiset": "6-31G**", 
		 "properties": { 
			 "R2extent": 3888.1929, 
			 "electric_dipole_moment_norm": 5.49343992049, 
			 "electric_quadrupole_moment_norm": 27.1493524803, 
			 "total_energy": -952.921911027, 
			 "HOMO_LUMO_gap": 0.15179, 
			 "cosmo_polarized_energy": -14.57, 
			 "cosmo_cavitation_energy": 28.29, 
			 "cosmo_dispersion_energy": -21.52, 
			 "cosmo_repulsion_energy": 1.65, 
			 "cosmo_total_nonelectrostatic_energy": 8.42, 
			 "SMD_solvation_energy": 4.7 
		},
		"coords": [
			{
				"x": -1.9491080445,
				"y": 5.1503113487,
				"z": 0.2988969894,
				"element": "O" 
			},
			{
				"x": -0.8657044417,
				"y": 4.5824290192,
				"z": 0.3325781205,
				"element": "C" 
			},
			{
				"x": -0.6974722019,
				"y": 3.1494979572,
				"z": 0.1892418012,
				"element": "C" 
			},
			{
				"x": -1.6732914851,
				"y": 2.199313443,
				"z": -0.0302248769,
				"element": "C" 
			},
			{
				"x": -1.1907864842,
				"y": 0.8820188624,
				"z": -0.1541201959,
				"element": "C" 
			},
			{
				"x": 0.1954741948,
				"y": 0.8032693686,
				"z": -0.0271755883,
				"element": "C" 
			},
			{
				"x": 0.895104931,
				"y": 2.3872475955,
				"z": 0.264690705,
				"element": "S" 
			},
			{
				"x": 0.9795381098,
				"y": -0.3113166179,
				"z": -0.0822616668,
				"element": "N" 
			},
			{
				"x": 0.3713462914,
				"y": -1.6410488506,
				"z": -0.1274325431,
				"element": "C" 
			},
			{
				"x": 1.3619681199,
				"y": -2.6712185023,
				"z": 0.4106245089,
				"element": "C" 
			},
			{
				"x": 2.5881024273,
				"y": -2.702751085,
				"z": -0.3093670446,
				"element": "O" 
			},
			{
				"x": 2.9973579608,
				"y": -1.4504500939,
				"z": -0.8513379855,
				"element": "C" 
			},
			{
				"x": 2.4392099496,
				"y": -0.2489154451,
				"z": -0.0910176955,
				"element": "C" 
			},
			{
				"x": 0.075017188,
				"y": 5.1587590933,
				"z": 0.4809257571,
				"element": "H" 
			},
			{
				"x": -2.7172198032,
				"y": 2.4796093192,
				"z": -0.1122862257,
				"element": "H" 
			},
			{
				"x": -1.8195921952,
				"y": 0.0256004945,
				"z": -0.3597562801,
				"element": "H" 
			},
			{
				"x": 0.062623945,
				"y": -1.902801773,
				"z": -1.1506015927,
				"element": "H" 
			},
			{
				"x": -0.5250992449,
				"y": -1.6505828508,
				"z": 0.5027720662,
				"element": "H" 
			},
			{
				"x": 1.5501917408,
				"y": -2.4638388288,
				"z": 1.4753864964,
				"element": "H" 
			},
			{
				"x": 0.9262531624,
				"y": -3.6725699838,
				"z": 0.3383244543,
				"element": "H" 
			},
			{
				"x": 2.6866689003,
				"y": -1.3798743074,
				"z": -1.904675987,
				"element": "H" 
			},
			{
				"x": 4.0917139861,
				"y": -1.427912534,
				"z": -0.8221884575,
				"element": "H" 
			},
			{
				"x": 2.8451835433,
				"y": -0.2169921363,
				"z": 0.9313765248,
				"element": "H" 
			},
			{
				"x": 2.7601194503,
				"y": 0.6664165071,
				"z": -0.6008712845,
				"element": "H" 
			}
		],
		 "valence_orbital": [ 
			{
				"type": "occ",
				"energy": -0.29536,
				"method": "rhf"
			},
			{
				"type": "occ",
				"energy": -0.26863,
				"method": "rhf"
			},
			{
				"type": "occ",
				"energy": -0.26123,
				"method": "rhf"
			},
			{
				"type": "occ",
				"energy": -0.23758,
				"method": "rhf"
			},
			{
				"type": "occ",
				"energy": -0.19856,
				"method": "rhf"
			},
			{
				"type": "unocc",
				"energy": -0.04677,
				"method": "rhf"
			},
			{
				"type": "unocc",
				"energy": 0.01097,
				"method": "rhf"
			},
			{
				"type": "unocc",
				"energy": 0.03563,
				"method": "rhf"
			},
			{
				"type": "unocc",
				"energy": 0.0617,
				"method": "rhf"
			},
			{
				"type": "unocc",
				"energy": 0.07832,
				"method": "rhf"
			}
		],
		"cosmo_sigma_profile": { 
			"-0.025": 0.0,
			"-0.024": 0.0,
			"-0.023": 0.0,
			"-0.022": 0.0,
			"-0.021": 0.0,
			"-0.02": 0.0,
			"-0.019": 0.0,
			"-0.018": 0.0,
			"-0.017": 0.0,
			"-0.016": 0.0,
			"-0.015": 0.0,
			"-0.014": 0.0,
			"-0.013": 0.0,
			"-0.012": 0.0,
			"-0.011": 0.0,
			"-0.01": 0.0,
			"-0.009": 0.0,
			"-0.008": 0.177113099999,
			"-0.007": 5.75637521772,
			"-0.006": 18.7933051801,
			"-0.005": 30.4500747406,
			"-0.004": 28.7795149662,
			"-0.003": 17.2272765331,
			"-0.002": 12.887157214,
			"-0.001": 11.0703358632,
			"0.0": 9.89614643856,
			"0.001": 10.1235566824,
			"0.002": 12.8407371667,
			"0.003": 13.4550791201,
			"0.004": 15.282015347,
			"0.005": 7.24431023774,
			"0.006": 3.06346271381,
			"0.007": 3.05310141844,
			"0.008": 2.43161391729,
			"0.009": 3.00291708775,
			"0.01": 2.5292030373,
			"0.011": 3.82204201756,
			"0.012": 4.51537874092,
			"0.013": 6.94136178757,
			"0.014": 2.1034227907,
			"0.015": 0.387971337246,
			"0.016": 0.0,
			"0.017": 0.0,
			"0.018": 0.0,
			"0.019": 0.0,
			"0.02": 0.0,
			"0.021": 0.0,
			"0.022": 0.0,
			"0.023": 0.0,
			"0.024": 0.0,
			"0.025": 0.0
		}
	}
}
