{
	 "smiles": "O=CC1=C(N=C(S1)N1CCOCC1)C1=CC=CC=C1", 
	 "Tm": 455.15, 
	 "num_atms": 33, 
	 "gaussian": { 
		 "optdone": 1, 
		 "sigma_profile": "yes", 
		 "theory": "DFT", 
		 "functional": "B3LYP", 
		 "basiset": "6-31G**", 
		 "properties": { 
			 "R2extent": 7156.1188, 
			 "electric_dipole_moment_norm": 4.83390469186, 
			 "electric_quadrupole_moment_norm": 20.8179863906, 
			 "total_energy": -1200.03343186, 
			 "HOMO_LUMO_gap": 0.14437, 
			 "cosmo_polarized_energy": -13.83, 
			 "cosmo_cavitation_energy": 37.07, 
			 "cosmo_dispersion_energy": -27.81, 
			 "cosmo_repulsion_energy": 2.07, 
			 "cosmo_total_nonelectrostatic_energy": 11.33, 
			 "SMD_solvation_energy": 5.34 
		},
		"coords": [
			{
				"x": 0.5259435814,
				"y": 4.3765594768,
				"z": -0.025557074,
				"element": "O" 
			},
			{
				"x": 0.3339196376,
				"y": 3.6332917489,
				"z": 0.9290369685,
				"element": "C" 
			},
			{
				"x": 0.0900798563,
				"y": 2.2018131431,
				"z": 0.9356348376,
				"element": "C" 
			},
			{
				"x": -0.1031598199,
				"y": 1.184471696,
				"z": -0.0140467457,
				"element": "C" 
			},
			{
				"x": -0.3546055682,
				"y": -0.0537430653,
				"z": 0.5198915712,
				"element": "N" 
			},
			{
				"x": -0.3627460754,
				"y": -0.0531283584,
				"z": 1.8346705662,
				"element": "C" 
			},
			{
				"x": -0.0561558908,
				"y": 1.5086398653,
				"z": 2.5702168067,
				"element": "S" 
			},
			{
				"x": -0.5773532445,
				"y": -1.1581570108,
				"z": 2.5863992558,
				"element": "N" 
			},
			{
				"x": -0.5796764001,
				"y": -1.1050614342,
				"z": 4.0485184198,
				"element": "C" 
			},
			{
				"x": -1.0902749524,
				"y": -2.4367709538,
				"z": 4.5951046302,
				"element": "C" 
			},
			{
				"x": -0.3149759452,
				"y": -3.5376929513,
				"z": 4.1529909508,
				"element": "O" 
			},
			{
				"x": 0.0263514181,
				"y": -3.5209039663,
				"z": 2.762809076,
				"element": "C" 
			},
			{
				"x": -0.7376913415,
				"y": -2.4724804033,
				"z": 1.9577304038,
				"element": "C" 
			},
			{
				"x": -0.0936496353,
				"y": 1.2542502111,
				"z": -1.4939851702,
				"element": "C" 
			},
			{
				"x": 0.3091569951,
				"y": 2.3907649852,
				"z": -2.2175746233,
				"element": "C" 
			},
			{
				"x": 0.3050467349,
				"y": 2.3768144567,
				"z": -3.6120925912,
				"element": "C" 
			},
			{
				"x": -0.0995654085,
				"y": 1.240966903,
				"z": -4.3132421146,
				"element": "C" 
			},
			{
				"x": -0.5039435767,
				"y": 0.106450994,
				"z": -3.6049213063,
				"element": "C" 
			},
			{
				"x": -0.4989171457,
				"y": 0.1107625696,
				"z": -2.2143424623,
				"element": "C" 
			},
			{
				"x": 0.3406014706,
				"y": 4.0667606129,
				"z": 1.9538160672,
				"element": "H" 
			},
			{
				"x": 0.4332417132,
				"y": -0.9073421378,
				"z": 4.4283918442,
				"element": "H" 
			},
			{
				"x": -1.2325268106,
				"y": -0.2920499585,
				"z": 4.394402715,
				"element": "H" 
			},
			{
				"x": -2.1504584761,
				"y": -2.5616995736,
				"z": 4.3246134381,
				"element": "H" 
			},
			{
				"x": -1.0268928945,
				"y": -2.4313996676,
				"z": 5.6866207523,
				"element": "H" 
			},
			{
				"x": 1.1050216621,
				"y": -3.3334542004,
				"z": 2.6692163712,
				"element": "H" 
			},
			{
				"x": -0.1796329816,
				"y": -4.516707037,
				"z": 2.3523610893,
				"element": "H" 
			},
			{
				"x": -0.344080243,
				"y": -2.4147479976,
				"z": 0.9420573208,
				"element": "H" 
			},
			{
				"x": -1.8018417726,
				"y": -2.7336130778,
				"z": 1.8853366094,
				"element": "H" 
			},
			{
				"x": 0.6112207965,
				"y": 3.2838145404,
				"z": -1.6858630537,
				"element": "H" 
			},
			{
				"x": 0.6212943068,
				"y": 3.2653424926,
				"z": -4.1512000901,
				"element": "H" 
			},
			{
				"x": -0.1017600243,
				"y": 1.2380469486,
				"z": -5.3997787057,
				"element": "H" 
			},
			{
				"x": -0.8240395453,
				"y": -0.7846913697,
				"z": -4.1376910033,
				"element": "H" 
			},
			{
				"x": -0.8095304206,
				"y": -0.7685074807,
				"z": -1.6641247538,
				"element": "H" 
			}
		],
		 "valence_orbital": [ 
			{
				"type": "occ",
				"energy": -0.26959,
				"method": "rhf"
			},
			{
				"type": "occ",
				"energy": -0.24624,
				"method": "rhf"
			},
			{
				"type": "occ",
				"energy": -0.24243,
				"method": "rhf"
			},
			{
				"type": "occ",
				"energy": -0.24102,
				"method": "rhf"
			},
			{
				"type": "occ",
				"energy": -0.21038,
				"method": "rhf"
			},
			{
				"type": "unocc",
				"energy": -0.06601,
				"method": "rhf"
			},
			{
				"type": "unocc",
				"energy": -0.00227,
				"method": "rhf"
			},
			{
				"type": "unocc",
				"energy": 0.0021,
				"method": "rhf"
			},
			{
				"type": "unocc",
				"energy": 0.00916,
				"method": "rhf"
			},
			{
				"type": "unocc",
				"energy": 0.02374,
				"method": "rhf"
			}
		],
		"cosmo_sigma_profile": { 
			"-0.025": 0.0,
			"-0.024": 0.0,
			"-0.023": 0.0,
			"-0.022": 0.0,
			"-0.021": 0.0,
			"-0.02": 0.0,
			"-0.019": 0.0,
			"-0.018": 0.0,
			"-0.017": 0.0,
			"-0.016": 0.0,
			"-0.015": 0.0,
			"-0.014": 0.0,
			"-0.013": 0.0,
			"-0.012": 0.0,
			"-0.011": 0.0,
			"-0.01": 0.0,
			"-0.009": 0.0,
			"-0.008": 0.0,
			"-0.007": 4.11969105315,
			"-0.006": 23.2948514962,
			"-0.005": 33.193039446,
			"-0.004": 30.1300910795,
			"-0.003": 23.8119559658,
			"-0.002": 16.6789866205,
			"-0.001": 16.0586014866,
			"0.0": 17.6155688123,
			"0.001": 22.6320758908,
			"0.002": 22.6588392258,
			"0.003": 19.5914920865,
			"0.004": 19.4111815837,
			"0.005": 17.1515095167,
			"0.006": 6.53907941357,
			"0.007": 4.28463913356,
			"0.008": 3.45662094478,
			"0.009": 3.25114825458,
			"0.01": 2.76046929234,
			"0.011": 4.00514295717,
			"0.012": 3.6268081012,
			"0.013": 3.12801940993,
			"0.014": 0.260211475268,
			"0.015": 0.0,
			"0.016": 0.0,
			"0.017": 0.0,
			"0.018": 0.0,
			"0.019": 0.0,
			"0.02": 0.0,
			"0.021": 0.0,
			"0.022": 0.0,
			"0.023": 0.0,
			"0.024": 0.0,
			"0.0": 0.0
		}
	}
}
