{
	 "smiles": "COC1=CC=C(C=CNNC2=NC(C)=CC(C)=N2)C=C1", 
	 "Tm": 453.15, 
	 "num_atms": 38, 
	 "gaussian": { 
		 "optdone": 1, 
		 "sigma_profile": "yes", 
		 "theory": "DFT", 
		 "functional": "B3LYP", 
		 "basiset": "6-31G**", 
		 "properties": { 
			 "R2extent": 10836.4833, 
			 "electric_dipole_moment_norm": 2.9097675457, 
			 "electric_quadrupole_moment_norm": 11.7906525176, 
			 "total_energy": -876.64333314, 
			 "HOMO_LUMO_gap": 0.14232, 
			 "cosmo_polarized_energy": -14.42, 
			 "cosmo_cavitation_energy": 42.68, 
			 "cosmo_dispersion_energy": -30.55, 
			 "cosmo_repulsion_energy": 2.39, 
			 "cosmo_total_nonelectrostatic_energy": 14.51, 
			 "SMD_solvation_energy": 6.12 
		},
		"coords": [
			{
				"x": 3.5600873485,
				"y": -4.6319366717,
				"z": -5.1847399264,
				"element": "C" 
			},
			{
				"x": 3.3239821072,
				"y": -3.2373827349,
				"z": -5.2605576615,
				"element": "O" 
			},
			{
				"x": 3.0329552145,
				"y": -2.5714790474,
				"z": -4.1009495189,
				"element": "C" 
			},
			{
				"x": 2.9481097231,
				"y": -3.1623143535,
				"z": -2.8369692574,
				"element": "C" 
			},
			{
				"x": 2.6428751737,
				"y": -2.3732104441,
				"z": -1.7255224334,
				"element": "C" 
			},
			{
				"x": 2.4121325544,
				"y": -0.9923302358,
				"z": -1.8256208675,
				"element": "C" 
			},
			{
				"x": 2.0837203501,
				"y": -0.2289355143,
				"z": -0.617873143,
				"element": "C" 
			},
			{
				"x": 1.6109217799,
				"y": 1.028281805,
				"z": -0.5832306579,
				"element": "C" 
			},
			{
				"x": 1.3863974486,
				"y": 1.8121664316,
				"z": 0.5637048766,
				"element": "N" 
			},
			{
				"x": 1.3656706023,
				"y": 1.1397034429,
				"z": 1.7880187225,
				"element": "N" 
			},
			{
				"x": 0.1732785133,
				"y": 0.9110999146,
				"z": 2.4413082931,
				"element": "C" 
			},
			{
				"x": -0.958290554,
				"y": 1.112597984,
				"z": 1.7521717339,
				"element": "N" 
			},
			{
				"x": -2.1007321167,
				"y": 0.8486263669,
				"z": 2.4066943556,
				"element": "C" 
			},
			{
				"x": -3.3771934985,
				"y": 1.0643580836,
				"z": 1.638547581,
				"element": "C" 
			},
			{
				"x": -2.0946072664,
				"y": 0.4023302477,
				"z": 3.7291823807,
				"element": "C" 
			},
			{
				"x": -0.8524833294,
				"y": 0.2581334308,
				"z": 4.3626626904,
				"element": "C" 
			},
			{
				"x": -0.7360535318,
				"y": -0.1950869557,
				"z": 5.7942108879,
				"element": "C" 
			},
			{
				"x": 0.2917674233,
				"y": 0.5176636596,
				"z": 3.7223953882,
				"element": "N" 
			},
			{
				"x": 2.520642783,
				"y": -0.4207216051,
				"z": -3.112265993,
				"element": "C" 
			},
			{
				"x": 2.8177610428,
				"y": -1.1900559815,
				"z": -4.2264235938,
				"element": "C" 
			},
			{
				"x": 3.7710441059,
				"y": -4.9602010858,
				"z": -6.204067036,
				"element": "H" 
			},
			{
				"x": 2.6826262485,
				"y": -5.173675117,
				"z": -4.8069488116,
				"element": "H" 
			},
			{
				"x": 4.4227375664,
				"y": -4.8648270344,
				"z": -4.5461916665,
				"element": "H" 
			},
			{
				"x": 3.1149332272,
				"y": -4.2248509729,
				"z": -2.7030043431,
				"element": "H" 
			},
			{
				"x": 2.5756799095,
				"y": -2.848656043,
				"z": -0.7500175438,
				"element": "H" 
			},
			{
				"x": 2.2201187065,
				"y": -0.7449046195,
				"z": 0.3291723954,
				"element": "H" 
			},
			{
				"x": 1.4200897828,
				"y": 1.5963499855,
				"z": -1.4902542075,
				"element": "H" 
			},
			{
				"x": 0.5587119729,
				"y": 2.3965431481,
				"z": 0.4753623443,
				"element": "H" 
			},
			{
				"x": 2.1555500025,
				"y": 1.3200103442,
				"z": 2.3936496735,
				"element": "H" 
			},
			{
				"x": -4.2590709041,
				"y": 0.8599858533,
				"z": 2.2500950744,
				"element": "H" 
			},
			{
				"x": -3.4284691372,
				"y": 2.0957536587,
				"z": 1.2748924272,
				"element": "H" 
			},
			{
				"x": -3.3990044892,
				"y": 0.4145263835,
				"z": 0.7575102579,
				"element": "H" 
			},
			{
				"x": -3.0190036709,
				"y": 0.1899250344,
				"z": 4.2540163938,
				"element": "H" 
			},
			{
				"x": -1.7152454679,
				"y": -0.3140110591,
				"z": 6.2639258005,
				"element": "H" 
			},
			{
				"x": -0.148349223,
				"y": 0.525998425,
				"z": 6.3706225732,
				"element": "H" 
			},
			{
				"x": -0.2045578234,
				"y": -1.1513840464,
				"z": 5.8429515619,
				"element": "H" 
			},
			{
				"x": 2.3853550295,
				"y": 0.6491427456,
				"z": -3.2422883302,
				"element": "H" 
			},
			{
				"x": 2.9019123958,
				"y": -0.7418334231,
				"z": -5.2114704206,
				"element": "H" 
			}
		],
		 "valence_orbital": [ 
			{
				"type": "occ",
				"energy": -0.2495,
				"method": "rhf"
			},
			{
				"type": "occ",
				"energy": -0.24311,
				"method": "rhf"
			},
			{
				"type": "occ",
				"energy": -0.23804,
				"method": "rhf"
			},
			{
				"type": "occ",
				"energy": -0.22286,
				"method": "rhf"
			},
			{
				"type": "occ",
				"energy": -0.17336,
				"method": "rhf"
			},
			{
				"type": "unocc",
				"energy": -0.03104,
				"method": "rhf"
			},
			{
				"type": "unocc",
				"energy": -0.00223,
				"method": "rhf"
			},
			{
				"type": "unocc",
				"energy": 0.00601,
				"method": "rhf"
			},
			{
				"type": "unocc",
				"energy": 0.01201,
				"method": "rhf"
			},
			{
				"type": "unocc",
				"energy": 0.08587,
				"method": "rhf"
			}
		],
		"cosmo_sigma_profile": { 
			"-0.025": 0.0,
			"-0.024": 0.0,
			"-0.023": 0.0,
			"-0.022": 0.0,
			"-0.021": 0.0,
			"-0.02": 0.0,
			"-0.019": 0.0,
			"-0.018": 0.0,
			"-0.017": 0.0,
			"-0.016": 0.0,
			"-0.015": 0.0,
			"-0.014": 0.346974633315,
			"-0.013": 1.28296812238,
			"-0.012": 0.688161931459,
			"-0.011": 1.67152591515,
			"-0.01": 1.94303652155,
			"-0.009": 1.49149628387,
			"-0.008": 2.14218454403,
			"-0.007": 5.65158767789,
			"-0.006": 11.0395916679,
			"-0.005": 29.1730835048,
			"-0.004": 31.7847236472,
			"-0.003": 31.2883422545,
			"-0.002": 24.9152235793,
			"-0.001": 29.9106287717,
			"0.0": 26.5469370965,
			"0.001": 19.5975949905,
			"0.002": 17.8607746803,
			"0.003": 17.4887562051,
			"0.004": 16.1027901917,
			"0.005": 17.2714557173,
			"0.006": 21.3254513041,
			"0.007": 9.53494356042,
			"0.008": 4.44063901337,
			"0.009": 5.4962706158,
			"0.01": 4.12309569134,
			"0.011": 2.7687953917,
			"0.012": 0.874434603589,
			"0.013": 1.00182115164,
			"0.014": 0.724848599302,
			"0.015": 0.258283779306,
			"0.016": 0.0,
			"0.017": 0.0,
			"0.018": 0.0,
			"0.019": 0.0,
			"0.02": 0.0,
			"0.021": 0.0,
			"0.022": 0.0,
			"0.023": 0.0,
			"0.024": 0.0,
			"0.025": 0.0
		}
	}
}
