{
	 "smiles": "OCC1=CSC(=N1)C1=NC=CC=C1", 
	 "Tm": 369.15, 
	 "num_atms": 21, 
	 "gaussian": { 
		 "optdone": 1, 
		 "sigma_profile": "yes", 
		 "theory": "DFT", 
		 "functional": "B3LYP", 
		 "basiset": "6-31G**", 
		 "properties": { 
			 "R2extent": 4024.7279, 
			 "electric_dipole_moment_norm": 4.19187001349, 
			 "electric_quadrupole_moment_norm": 11.5418379949, 
			 "total_energy": -930.668890143, 
			 "HOMO_LUMO_gap": 0.16732, 
			 "cosmo_polarized_energy": -13.57, 
			 "cosmo_cavitation_energy": 27.13, 
			 "cosmo_dispersion_energy": -20.79, 
			 "cosmo_repulsion_energy": 1.61, 
			 "cosmo_total_nonelectrostatic_energy": 7.95, 
			 "SMD_solvation_energy": 2.26 
		},
		"coords": [
			{
				"x": 2.8840031218,
				"y": -0.8074571651,
				"z": 1.5144125229,
				"element": "O" 
			},
			{
				"x": 3.3350714965,
				"y": 0.5178886573,
				"z": 1.3159055139,
				"element": "C" 
			},
			{
				"x": 2.5508254279,
				"y": 1.2118060629,
				"z": 0.2286337865,
				"element": "C" 
			},
			{
				"x": 3.0213145385,
				"y": 2.028707946,
				"z": -0.7621152628,
				"element": "C" 
			},
			{
				"x": 1.7101778807,
				"y": 2.5949343377,
				"z": -1.7408285194,
				"element": "S" 
			},
			{
				"x": 0.5954707153,
				"y": 1.6680500095,
				"z": -0.7291137069,
				"element": "C" 
			},
			{
				"x": 1.1911843801,
				"y": 1.0184993441,
				"z": 0.2329446641,
				"element": "N" 
			},
			{
				"x": -0.8603329062,
				"y": 1.6474339719,
				"z": -0.9825209448,
				"element": "C" 
			},
			{
				"x": -1.5704879327,
				"y": 0.7468888284,
				"z": -0.2802275104,
				"element": "N" 
			},
			{
				"x": -2.8880017533,
				"y": 0.698036051,
				"z": -0.4816416656,
				"element": "C" 
			},
			{
				"x": -3.5715636563,
				"y": 1.5222864594,
				"z": -1.3795621385,
				"element": "C" 
			},
			{
				"x": -2.8320040671,
				"y": 2.4551792934,
				"z": -2.1041460013,
				"element": "C" 
			},
			{
				"x": -1.4564782615,
				"y": 2.5242781234,
				"z": -1.9033776043,
				"element": "C" 
			},
			{
				"x": 1.9159163772,
				"y": -0.7661861282,
				"z": 1.4748255181,
				"element": "H" 
			},
			{
				"x": 3.2524127993,
				"y": 1.1097289993,
				"z": 2.2440951024,
				"element": "H" 
			},
			{
				"x": 4.396720539,
				"y": 0.4739250227,
				"z": 1.0531007534,
				"element": "H" 
			},
			{
				"x": 4.041480852,
				"y": 2.3161614458,
				"z": -0.9738885704,
				"element": "H" 
			},
			{
				"x": -3.4300559969,
				"y": -0.042325071,
				"z": 0.1045504617,
				"element": "H" 
			},
			{
				"x": -4.6461636814,
				"y": 1.4328792112,
				"z": -1.5013602816,
				"element": "H" 
			},
			{
				"x": -3.3162039542,
				"y": 3.1223942747,
				"z": -2.8110243443,
				"element": "H" 
			},
			{
				"x": -0.8600859185,
				"y": 3.2515903254,
				"z": -2.4453617727,
				"element": "H" 
			}
		],
		 "valence_orbital": [ 
			{
				"type": "occ",
				"energy": -0.28306,
				"method": "rhf"
			},
			{
				"type": "occ",
				"energy": -0.28119,
				"method": "rhf"
			},
			{
				"type": "occ",
				"energy": -0.26176,
				"method": "rhf"
			},
			{
				"type": "occ",
				"energy": -0.25909,
				"method": "rhf"
			},
			{
				"type": "occ",
				"energy": -0.23291,
				"method": "rhf"
			},
			{
				"type": "unocc",
				"energy": -0.06559,
				"method": "rhf"
			},
			{
				"type": "unocc",
				"energy": -0.03012,
				"method": "rhf"
			},
			{
				"type": "unocc",
				"energy": 0.0093,
				"method": "rhf"
			},
			{
				"type": "unocc",
				"energy": 0.01372,
				"method": "rhf"
			},
			{
				"type": "unocc",
				"energy": 0.05285,
				"method": "rhf"
			}
		],
		"cosmo_sigma_profile": { 
			"-0.025": 0.0,
			"-0.024": 0.0,
			"-0.023": 0.0,
			"-0.022": 0.0,
			"-0.021": 0.0,
			"-0.02": 0.0,
			"-0.019": 0.0,
			"-0.018": 0.0,
			"-0.017": 0.0,
			"-0.016": 0.0,
			"-0.015": 0.0,
			"-0.014": 0.0,
			"-0.013": 0.0,
			"-0.012": 0.103318605954,
			"-0.011": 0.591449525025,
			"-0.01": 1.35155500945,
			"-0.009": 2.30056629648,
			"-0.008": 4.56074528978,
			"-0.007": 11.2731559071,
			"-0.006": 15.9018617934,
			"-0.005": 13.3413987345,
			"-0.004": 14.1908277702,
			"-0.003": 14.4328300118,
			"-0.002": 13.445686906,
			"-0.001": 13.7680222584,
			"0.0": 18.6782055984,
			"0.001": 24.5495111649,
			"0.002": 23.924426156,
			"0.003": 9.90853331683,
			"0.004": 5.01040749374,
			"0.005": 2.78122751538,
			"0.006": 2.98788131079,
			"0.007": 3.27130750927,
			"0.008": 2.96251098366,
			"0.009": 2.46116418364,
			"0.01": 2.66223883186,
			"0.011": 2.95028110764,
			"0.012": 2.54906893357,
			"0.013": 2.79434835899,
			"0.014": 3.38766681816,
			"0.015": 1.19531976072,
			"0.016": 0.890234111827,
			"0.017": 0.751796197776,
			"0.018": 0.935536310222,
			"0.019": 0.0625070914446,
			"0.02": 0.0,
			"0.021": 0.0,
			"0.022": 0.0,
			"0.023": 0.0,
			"0.024": 0.0,
			"0.025": 0.0
		}
	}
}
