{
	 "smiles": "O=C(NC(=O)C1=CC=CC=C1)C1=CC=CC=C1", 
	 "Tm": 425.15, 
	 "num_atms": 28, 
	 "gaussian": { 
		 "optdone": 1, 
		 "sigma_profile": "yes", 
		 "theory": "DFT", 
		 "functional": "B3LYP", 
		 "basiset": "6-31G**", 
		 "properties": { 
			 "R2extent": 3924.1631, 
			 "electric_dipole_moment_norm": 4.25485387881, 
			 "electric_quadrupole_moment_norm": 7.1100627346, 
			 "total_energy": -745.336593557, 
			 "HOMO_LUMO_gap": 0.18919, 
			 "cosmo_polarized_energy": -13.67, 
			 "cosmo_cavitation_energy": 32.69, 
			 "cosmo_dispersion_energy": -22.32, 
			 "cosmo_repulsion_energy": 1.75, 
			 "cosmo_total_nonelectrostatic_energy": 12.12, 
			 "SMD_solvation_energy": 6.78 
		},
		"coords": [
			{
				"x": 1.7357669886,
				"y": -1.9168905629,
				"z": 0.0112366088,
				"element": "O" 
			},
			{
				"x": 0.6763754137,
				"y": -1.3469667889,
				"z": 0.2224590546,
				"element": "C" 
			},
			{
				"x": -0.3786462971,
				"y": -1.5197790239,
				"z": -0.6904450134,
				"element": "N" 
			},
			{
				"x": -1.5318510267,
				"y": -0.7890271228,
				"z": -1.0261648333,
				"element": "C" 
			},
			{
				"x": -2.4659050409,
				"y": -1.3740175917,
				"z": -1.5524527877,
				"element": "O" 
			},
			{
				"x": -1.545073833,
				"y": 0.6925497707,
				"z": -0.8292513647,
				"element": "C" 
			},
			{
				"x": -2.7923179243,
				"y": 1.3126457854,
				"z": -0.6657724594,
				"element": "C" 
			},
			{
				"x": -2.8773691093,
				"y": 2.6973055745,
				"z": -0.5511411376,
				"element": "C" 
			},
			{
				"x": -1.7197754932,
				"y": 3.4771048833,
				"z": -0.6283502584,
				"element": "C" 
			},
			{
				"x": -0.4788045729,
				"y": 2.8675923771,
				"z": -0.8223438845,
				"element": "C" 
			},
			{
				"x": -0.3884433345,
				"y": 1.4794489974,
				"z": -0.9185804056,
				"element": "C" 
			},
			{
				"x": 0.4436363449,
				"y": -0.562220475,
				"z": 1.4730284822,
				"element": "C" 
			},
			{
				"x": -0.805502742,
				"y": -0.4972783891,
				"z": 2.1058374479,
				"element": "C" 
			},
			{
				"x": -0.938263649,
				"y": 0.1705384957,
				"z": 3.3226871559,
				"element": "C" 
			},
			{
				"x": 0.1701623605,
				"y": 0.7833631848,
				"z": 3.9100568614,
				"element": "C" 
			},
			{
				"x": 1.4203479974,
				"y": 0.7105131498,
				"z": 3.2889455484,
				"element": "C" 
			},
			{
				"x": 1.559570319,
				"y": 0.0284302023,
				"z": 2.0835308452,
				"element": "C" 
			},
			{
				"x": -0.2862664077,
				"y": -2.371413911,
				"z": -1.2345191806,
				"element": "H" 
			},
			{
				"x": -3.6818072703,
				"y": 0.6921764356,
				"z": -0.635976744,
				"element": "H" 
			},
			{
				"x": -3.8446367574,
				"y": 3.17052845,
				"z": -0.4104824863,
				"element": "H" 
			},
			{
				"x": -1.7864221616,
				"y": 4.5582015759,
				"z": -0.5465874549,
				"element": "H" 
			},
			{
				"x": 0.4192075106,
				"y": 3.4727059893,
				"z": -0.9028077171,
				"element": "H" 
			},
			{
				"x": 0.5767660867,
				"y": 1.0145651211,
				"z": -1.089388196,
				"element": "H" 
			},
			{
				"x": -1.6669948439,
				"y": -0.9882896608,
				"z": 1.6657771415,
				"element": "H" 
			},
			{
				"x": -1.9061066738,
				"y": 0.2086409062,
				"z": 3.8134896978,
				"element": "H" 
			},
			{
				"x": 0.0624550022,
				"y": 1.3089629288,
				"z": 4.8545373241,
				"element": "H" 
			},
			{
				"x": 2.2855995553,
				"y": 1.1778890704,
				"z": 3.7496267953,
				"element": "H" 
			},
			{
				"x": 2.5262995585,
				"y": -0.062879372,
				"z": 1.5996509605,
				"element": "H" 
			}
		],
		 "valence_orbital": [ 
			{
				"type": "occ",
				"energy": -0.27223,
				"method": "rhf"
			},
			{
				"type": "occ",
				"energy": -0.27064,
				"method": "rhf"
			},
			{
				"type": "occ",
				"energy": -0.2595,
				"method": "rhf"
			},
			{
				"type": "occ",
				"energy": -0.25905,
				"method": "rhf"
			},
			{
				"type": "occ",
				"energy": -0.25114,
				"method": "rhf"
			},
			{
				"type": "unocc",
				"energy": -0.06195,
				"method": "rhf"
			},
			{
				"type": "unocc",
				"energy": -0.04453,
				"method": "rhf"
			},
			{
				"type": "unocc",
				"energy": -0.01284,
				"method": "rhf"
			},
			{
				"type": "unocc",
				"energy": -0.01175,
				"method": "rhf"
			},
			{
				"type": "unocc",
				"energy": 0.02128,
				"method": "rhf"
			}
		],
		"cosmo_sigma_profile": { 
			"-0.025": 0.0,
			"-0.024": 0.0,
			"-0.023": 0.0,
			"-0.022": 0.0,
			"-0.021": 0.0,
			"-0.02": 0.0,
			"-0.019": 0.0,
			"-0.018": 0.0,
			"-0.017": 0.0,
			"-0.016": 0.0573285053077,
			"-0.015": 0.689091992482,
			"-0.014": 0.570561261519,
			"-0.013": 0.984158615695,
			"-0.012": 0.812121881601,
			"-0.011": 0.775136364113,
			"-0.01": 0.795759735376,
			"-0.009": 0.571953452213,
			"-0.008": 1.08108615488,
			"-0.007": 7.45901066862,
			"-0.006": 20.9281410786,
			"-0.005": 25.958311385,
			"-0.004": 21.8819336623,
			"-0.003": 19.0428125276,
			"-0.002": 15.8634456902,
			"-0.001": 14.3001389418,
			"0.0": 13.7640325631,
			"0.001": 14.859169877,
			"0.002": 16.8477338441,
			"0.003": 21.068081575,
			"0.004": 25.3992740888,
			"0.005": 5.20584300349,
			"0.006": 3.43954360838,
			"0.007": 2.58019653094,
			"0.008": 2.29603808277,
			"0.009": 3.50462656806,
			"0.01": 4.34711439467,
			"0.011": 6.67569867451,
			"0.012": 9.26194777161,
			"0.013": 1.12445337023,
			"0.014": 0.0,
			"0.015": 0.0,
			"0.016": 0.0,
			"0.017": 0.0,
			"0.018": 0.0,
			"0.019": 0.0,
			"0.02": 0.0,
			"0.021": 0.0,
			"0.022": 0.0,
			"0.023": 0.0,
			"0.024": 0.0,
			"0.025": 0.0
		}
	}
}
