{
	 "smiles": "CC(C)=CC(O)=O", 
	 "Tm": 341.35, 
	 "num_atms": 15, 
	 "gaussian": { 
		 "optdone": 1, 
		 "sigma_profile": "yes", 
		 "theory": "DFT", 
		 "functional": "B3LYP", 
		 "basiset": "6-31G**", 
		 "properties": { 
			 "R2extent": 1135.6635, 
			 "electric_dipole_moment_norm": 4.59291415661, 
			 "electric_quadrupole_moment_norm": 12.3016634904, 
			 "total_energy": -345.800446928, 
			 "HOMO_LUMO_gap": 0.22042, 
			 "cosmo_polarized_energy": -13.17, 
			 "cosmo_cavitation_energy": 18.66, 
			 "cosmo_dispersion_energy": -13.77, 
			 "cosmo_repulsion_energy": 1.18, 
			 "cosmo_total_nonelectrostatic_energy": 6.07, 
			 "SMD_solvation_energy": 4.92 
		},
		"coords": [
			{
				"x": -0.2060692365,
				"y": 0.204256366,
				"z": -1.2045433681,
				"element": "C" 
			},
			{
				"x": 0.4720374061,
				"y": 0.7329829264,
				"z": 0.0294281011,
				"element": "C" 
			},
			{
				"x": 0.2309883466,
				"y": 2.1927449365,
				"z": 0.3168663972,
				"element": "C" 
			},
			{
				"x": 1.2506891177,
				"y": 0.0072567738,
				"z": 0.8591065616,
				"element": "C" 
			},
			{
				"x": 1.5895085979,
				"y": -1.4317866448,
				"z": 0.7248507619,
				"element": "C" 
			},
			{
				"x": 2.4026827351,
				"y": -1.9159326014,
				"z": 1.71014469,
				"element": "O" 
			},
			{
				"x": 1.2234080777,
				"y": -2.1889948189,
				"z": -0.1481364896,
				"element": "O" 
			},
			{
				"x": 0.1197855122,
				"y": 0.7808576583,
				"z": -2.0798599592,
				"element": "H" 
			},
			{
				"x": 0.0013237642,
				"y": -0.8506319296,
				"z": -1.3669019602,
				"element": "H" 
			},
			{
				"x": -1.2901392695,
				"y": 0.3559919212,
				"z": -1.1228142668,
				"element": "H" 
			},
			{
				"x": 0.7416989034,
				"y": 2.5323355107,
				"z": 1.2215050608,
				"element": "H" 
			},
			{
				"x": 0.5698658299,
				"y": 2.8098137023,
				"z": -0.5247604028,
				"element": "H" 
			},
			{
				"x": -0.8426225804,
				"y": 2.3884787725,
				"z": 0.4307858047,
				"element": "H" 
			},
			{
				"x": 1.6788332833,
				"y": 0.5227650878,
				"z": 1.7184794273,
				"element": "H" 
			},
			{
				"x": 2.6223095123,
				"y": -1.2166376608,
				"z": 2.3404496421,
				"element": "H" 
			}
		],
		 "valence_orbital": [ 
			{
				"type": "occ",
				"energy": -0.36993,
				"method": "rhf"
			},
			{
				"type": "occ",
				"energy": -0.3653,
				"method": "rhf"
			},
			{
				"type": "occ",
				"energy": -0.30847,
				"method": "rhf"
			},
			{
				"type": "occ",
				"energy": -0.26618,
				"method": "rhf"
			},
			{
				"type": "occ",
				"energy": -0.26221,
				"method": "rhf"
			},
			{
				"type": "unocc",
				"energy": -0.04179,
				"method": "rhf"
			},
			{
				"type": "unocc",
				"energy": 0.06044,
				"method": "rhf"
			},
			{
				"type": "unocc",
				"energy": 0.09109,
				"method": "rhf"
			},
			{
				"type": "unocc",
				"energy": 0.09132,
				"method": "rhf"
			},
			{
				"type": "unocc",
				"energy": 0.12059,
				"method": "rhf"
			}
		],
		"cosmo_sigma_profile": { 
			"-0.025": 0.0,
			"-0.024": 0.0,
			"-0.023": 0.0,
			"-0.022": 0.0,
			"-0.021": 0.0,
			"-0.02": 0.0,
			"-0.019": 0.240017366994,
			"-0.018": 0.850633106863,
			"-0.017": 1.39407492173,
			"-0.016": 0.787231307311,
			"-0.015": 1.06941592349,
			"-0.014": 1.41968140777,
			"-0.013": 0.864687235766,
			"-0.012": 0.755649281274,
			"-0.011": 1.18311041194,
			"-0.01": 1.11065698194,
			"-0.009": 0.926557674182,
			"-0.008": 0.621848480896,
			"-0.007": 1.34732982825,
			"-0.006": 2.74469507433,
			"-0.005": 10.6993773464,
			"-0.004": 12.7892405715,
			"-0.003": 10.8881135888,
			"-0.002": 12.0631888576,
			"-0.001": 15.7922564292,
			"0.0": 14.0402872649,
			"0.001": 8.66393732297,
			"0.002": 6.52874192693,
			"0.003": 6.24549822781,
			"0.004": 3.55626041963,
			"0.005": 2.08118579815,
			"0.006": 2.21651170078,
			"0.007": 2.68691024075,
			"0.008": 3.17124574863,
			"0.009": 2.6549801887,
			"0.01": 3.3287112809,
			"0.011": 5.1947579887,
			"0.012": 4.71263117561,
			"0.013": 3.16750252358,
			"0.014": 1.12450223559,
			"0.015": 0.0,
			"0.016": 0.0,
			"0.017": 0.0,
			"0.018": 0.0,
			"0.019": 0.0,
			"0.02": 0.0,
			"0.021": 0.0,
			"0.022": 0.0,
			"0.023": 0.0,
			"0.024": 0.0,
			"0.025": 0.0
		}
	}
}
