{
	 "smiles": "COC1=C(NC(=O)C2=CC=C(NC(=O)CCl)C=C2)C=CC=C1", 
	 "Tm": 377.15, 
	 "num_atms": 37, 
	 "gaussian": { 
		 "optdone": 1, 
		 "sigma_profile": "yes", 
		 "theory": "DFT", 
		 "functional": "B3LYP", 
		 "basiset": "6-31G**", 
		 "properties": { 
			 "R2extent": 8650.3801, 
			 "electric_dipole_moment_norm": 4.78026659194, 
			 "electric_quadrupole_moment_norm": 35.8233423749, 
			 "total_energy": -1414.11912016, 
			 "HOMO_LUMO_gap": 0.17797, 
			 "cosmo_polarized_energy": -21.9, 
			 "cosmo_cavitation_energy": 43.31, 
			 "cosmo_dispersion_energy": -28.92, 
			 "cosmo_repulsion_energy": 2.26, 
			 "cosmo_total_nonelectrostatic_energy": 16.65, 
			 "SMD_solvation_energy": 9.06 
		},
		"coords": [
			{
				"x": 1.6125579419,
				"y": -1.2486301853,
				"z": -2.6364523131,
				"element": "C" 
			},
			{
				"x": 1.1442223736,
				"y": -1.5863081191,
				"z": -1.339383815,
				"element": "O" 
			},
			{
				"x": 1.8787282158,
				"y": -1.2038418402,
				"z": -0.2600694313,
				"element": "C" 
			},
			{
				"x": 1.3513402295,
				"y": -1.5548594711,
				"z": 1.0050212024,
				"element": "C" 
			},
			{
				"x": 0.1392121379,
				"y": -2.2956286463,
				"z": 1.1183339662,
				"element": "N" 
			},
			{
				"x": -1.0700139255,
				"y": -2.0817437498,
				"z": 0.4776751954,
				"element": "C" 
			},
			{
				"x": -1.8410901612,
				"y": -3.0178652358,
				"z": 0.2984708288,
				"element": "O" 
			},
			{
				"x": -1.4524453707,
				"y": -0.6851469611,
				"z": 0.0888516756,
				"element": "C" 
			},
			{
				"x": -1.0113501636,
				"y": 0.4638463384,
				"z": 0.7559879272,
				"element": "C" 
			},
			{
				"x": -1.4814235864,
				"y": 1.7268538694,
				"z": 0.3966727517,
				"element": "C" 
			},
			{
				"x": -2.3788140474,
				"y": 1.8625959061,
				"z": -0.6709405337,
				"element": "C" 
			},
			{
				"x": -2.8950380405,
				"y": 3.1142384206,
				"z": -1.0812695477,
				"element": "N" 
			},
			{
				"x": -2.3156747285,
				"y": 4.3564498039,
				"z": -1.2384127673,
				"element": "C" 
			},
			{
				"x": -2.9752315398,
				"y": 5.3034488005,
				"z": -1.6355761975,
				"element": "O" 
			},
			{
				"x": -0.8215639105,
				"y": 4.5064328588,
				"z": -0.9669914305,
				"element": "C" 
			},
			{
				"x": -0.5228539503,
				"y": 5.2097028537,
				"z": 0.678116221,
				"element": "Cl" 
			},
			{
				"x": -2.8408223139,
				"y": 0.710257894,
				"z": -1.3291797622,
				"element": "C" 
			},
			{
				"x": -2.3955729793,
				"y": -0.5450545031,
				"z": -0.9397087231,
				"element": "C" 
			},
			{
				"x": 2.0707301892,
				"y": -1.2357568945,
				"z": 2.1571489481,
				"element": "C" 
			},
			{
				"x": 3.2928626974,
				"y": -0.5639963162,
				"z": 2.0824897761,
				"element": "C" 
			},
			{
				"x": 3.7924860823,
				"y": -0.1962729178,
				"z": 0.8357561047,
				"element": "C" 
			},
			{
				"x": 3.0915302928,
				"y": -0.5100113241,
				"z": -0.3319999723,
				"element": "C" 
			},
			{
				"x": 0.8750816784,
				"y": -1.6485157813,
				"z": -3.3332623734,
				"element": "H" 
			},
			{
				"x": 2.5897207948,
				"y": -1.7028375324,
				"z": -2.8431030377,
				"element": "H" 
			},
			{
				"x": 1.684458046,
				"y": -0.1618349529,
				"z": -2.7685543963,
				"element": "H" 
			},
			{
				"x": 0.233451463,
				"y": -3.2702068511,
				"z": 1.3831939808,
				"element": "H" 
			},
			{
				"x": -0.3239368669,
				"y": 0.3812058706,
				"z": 1.5896293729,
				"element": "H" 
			},
			{
				"x": -1.1786186781,
				"y": 2.5956088285,
				"z": 0.9698207453,
				"element": "H" 
			},
			{
				"x": -3.8501762805,
				"y": 3.1153079313,
				"z": -1.4206755531,
				"element": "H" 
			},
			{
				"x": -0.4361515005,
				"y": 5.2285066254,
				"z": -1.6847700504,
				"element": "H" 
			},
			{
				"x": -0.2690819366,
				"y": 3.5695350164,
				"z": -1.0225242643,
				"element": "H" 
			},
			{
				"x": -3.5484123259,
				"y": 0.8098092768,
				"z": -2.1480074845,
				"element": "H" 
			},
			{
				"x": -2.7671646613,
				"y": -1.4411185617,
				"z": -1.4246659165,
				"element": "H" 
			},
			{
				"x": 1.6512682411,
				"y": -1.5208269008,
				"z": 3.117659726,
				"element": "H" 
			},
			{
				"x": 3.8388205313,
				"y": -0.3245579371,
				"z": 2.9892034378,
				"element": "H" 
			},
			{
				"x": 4.7356623028,
				"y": 0.3366674001,
				"z": 0.7597653884,
				"element": "H" 
			},
			{
				"x": 3.5036037495,
				"y": -0.2279530124,
				"z": -1.2935496788,
				"element": "H" 
			}
		],
		 "valence_orbital": [ 
			{
				"type": "occ",
				"energy": -0.26726,
				"method": "rhf"
			},
			{
				"type": "occ",
				"energy": -0.25544,
				"method": "rhf"
			},
			{
				"type": "occ",
				"energy": -0.25012,
				"method": "rhf"
			},
			{
				"type": "occ",
				"energy": -0.23517,
				"method": "rhf"
			},
			{
				"type": "occ",
				"energy": -0.22709,
				"method": "rhf"
			},
			{
				"type": "unocc",
				"energy": -0.04912,
				"method": "rhf"
			},
			{
				"type": "unocc",
				"energy": -0.02503,
				"method": "rhf"
			},
			{
				"type": "unocc",
				"energy": -0.0201,
				"method": "rhf"
			},
			{
				"type": "unocc",
				"energy": -0.01011,
				"method": "rhf"
			},
			{
				"type": "unocc",
				"energy": -0.00237,
				"method": "rhf"
			}
		],
		"cosmo_sigma_profile": { 
			"-0.025": 0.0,
			"-0.024": 0.0,
			"-0.023": 0.0,
			"-0.022": 0.0,
			"-0.021": 0.0,
			"-0.02": 0.0,
			"-0.019": 0.0,
			"-0.018": 0.0,
			"-0.017": 0.0,
			"-0.016": 0.0327932765092,
			"-0.015": 1.06971312956,
			"-0.014": 1.18588973528,
			"-0.013": 2.35730475245,
			"-0.012": 1.9648062829,
			"-0.011": 1.88063975429,
			"-0.01": 1.76209007234,
			"-0.009": 2.86842120673,
			"-0.008": 6.88188316937,
			"-0.007": 9.40820793613,
			"-0.006": 21.1607616758,
			"-0.005": 28.6881626684,
			"-0.004": 26.021962967,
			"-0.003": 26.3428630991,
			"-0.002": 19.8349336049,
			"-0.001": 19.8238437376,
			"0.0": 19.3398535513,
			"0.001": 20.3769948576,
			"0.002": 22.4598286702,
			"0.003": 27.5966613723,
			"0.004": 21.100733319,
			"0.005": 20.6225808519,
			"0.006": 7.89684869888,
			"0.007": 4.62239700278,
			"0.008": 4.32978824217,
			"0.009": 2.97867505702,
			"0.01": 2.29095335022,
			"0.011": 4.11644259855,
			"0.012": 7.64501704561,
			"0.013": 8.37247064708,
			"0.014": 2.68931463872,
			"0.015": 0.00812046129689,
			"0.016": 0.0,
			"0.017": 0.0,
			"0.018": 0.0,
			"0.019": 0.0,
			"0.02": 0.0,
			"0.021": 0.0,
			"0.022": 0.0,
			"0.023": 0.0,
			"0.024": 0.0,
			"0.025": 0.0
		}
	}
}
