{
	 "smiles": "NS(=O)(=O)CC1CCCC1", 
	 "Tm": 316.15, 
	 "num_atms": 23, 
	 "gaussian": { 
		 "optdone": 1, 
		 "sigma_profile": "yes", 
		 "theory": "DFT", 
		 "functional": "B3LYP", 
		 "basiset": "6-31G**", 
		 "properties": { 
			 "R2extent": 2553.0176, 
			 "electric_dipole_moment_norm": 3.49362563965, 
			 "electric_quadrupole_moment_norm": 11.5211117701, 
			 "total_energy": -839.80570047, 
			 "HOMO_LUMO_gap": 0.33418, 
			 "cosmo_polarized_energy": -13.8, 
			 "cosmo_cavitation_energy": 25.34, 
			 "cosmo_dispersion_energy": -19.44, 
			 "cosmo_repulsion_energy": 1.55, 
			 "cosmo_total_nonelectrostatic_energy": 7.45, 
			 "SMD_solvation_energy": 3.2 
		},
		"coords": [
			{
				"x": 2.0822183365,
				"y": -1.588550477,
				"z": 1.1757011778,
				"element": "N" 
			},
			{
				"x": 0.4344949432,
				"y": -1.6965361502,
				"z": 0.7675613711,
				"element": "S" 
			},
			{
				"x": -0.0175492105,
				"y": -3.0575250874,
				"z": 1.0767424889,
				"element": "O" 
			},
			{
				"x": 0.2903939206,
				"y": -1.1314934687,
				"z": -0.579756701,
				"element": "O" 
			},
			{
				"x": -0.3376995241,
				"y": -0.5952867331,
				"z": 1.9816886376,
				"element": "C" 
			},
			{
				"x": 0.0994960464,
				"y": 0.8768955596,
				"z": 1.9291022229,
				"element": "C" 
			},
			{
				"x": -0.5281718779,
				"y": 1.6728496686,
				"z": 0.7630545847,
				"element": "C" 
			},
			{
				"x": -1.9494031715,
				"y": 2.0502263409,
				"z": 1.2500961234,
				"element": "C" 
			},
			{
				"x": -1.8916279561,
				"y": 2.0236350774,
				"z": 2.8068728997,
				"element": "C" 
			},
			{
				"x": -0.4348638615,
				"y": 1.641287006,
				"z": 3.1636194736,
				"element": "C" 
			},
			{
				"x": 2.4002122549,
				"y": -2.4962828702,
				"z": 1.5062860541,
				"element": "H" 
			},
			{
				"x": 2.6038718026,
				"y": -1.3019514875,
				"z": 0.3513484633,
				"element": "H" 
			},
			{
				"x": -1.4107364532,
				"y": -0.723906968,
				"z": 1.8063610468,
				"element": "H" 
			},
			{
				"x": -0.0980081376,
				"y": -1.0521287801,
				"z": 2.9462499781,
				"element": "H" 
			},
			{
				"x": 1.194023919,
				"y": 0.9016885324,
				"z": 1.9009590996,
				"element": "H" 
			},
			{
				"x": 0.0674104945,
				"y": 2.5805903369,
				"z": 0.6100288372,
				"element": "H" 
			},
			{
				"x": -0.5270252574,
				"y": 1.1196569054,
				"z": -0.17803771,
				"element": "H" 
			},
			{
				"x": -2.2551996833,
				"y": 3.0273023527,
				"z": 0.8647282506,
				"element": "H" 
			},
			{
				"x": -2.6880675577,
				"y": 1.3306136696,
				"z": 0.8813348058,
				"element": "H" 
			},
			{
				"x": -2.17167602,
				"y": 2.9838311868,
				"z": 3.2500751938,
				"element": "H" 
			},
			{
				"x": -2.5935588413,
				"y": 1.2833091608,
				"z": 3.2056746003,
				"element": "H" 
			},
			{
				"x": 0.1691975048,
				"y": 2.5468300823,
				"z": 3.2929310656,
				"element": "H" 
			},
			{
				"x": -0.3559316705,
				"y": 1.0697461428,
				"z": 4.0947780359,
				"element": "H" 
			}
		],
		 "valence_orbital": [ 
			{
				"type": "occ",
				"energy": -0.31744,
				"method": "rhf"
			},
			{
				"type": "occ",
				"energy": -0.31358,
				"method": "rhf"
			},
			{
				"type": "occ",
				"energy": -0.3078,
				"method": "rhf"
			},
			{
				"type": "occ",
				"energy": -0.29815,
				"method": "rhf"
			},
			{
				"type": "occ",
				"energy": -0.28595,
				"method": "rhf"
			},
			{
				"type": "unocc",
				"energy": 0.04823,
				"method": "rhf"
			},
			{
				"type": "unocc",
				"energy": 0.07341,
				"method": "rhf"
			},
			{
				"type": "unocc",
				"energy": 0.07936,
				"method": "rhf"
			},
			{
				"type": "unocc",
				"energy": 0.08746,
				"method": "rhf"
			},
			{
				"type": "unocc",
				"energy": 0.09086,
				"method": "rhf"
			}
		],
		"cosmo_sigma_profile": { 
			"-0.025": 0.0,
			"-0.024": 0.0,
			"-0.023": 0.0,
			"-0.022": 0.0,
			"-0.021": 0.0,
			"-0.02": 0.0,
			"-0.019": 0.0,
			"-0.018": 0.0,
			"-0.017": 0.0,
			"-0.016": 0.0,
			"-0.015": 0.291015522942,
			"-0.014": 2.6364075744,
			"-0.013": 1.65899619568,
			"-0.012": 3.0676575214,
			"-0.011": 2.64581744665,
			"-0.01": 1.38953791727,
			"-0.009": 1.72092271659,
			"-0.008": 2.74322569842,
			"-0.007": 5.77984964088,
			"-0.006": 5.26182721974,
			"-0.005": 7.08638361688,
			"-0.004": 7.50742940309,
			"-0.003": 15.6578609311,
			"-0.002": 24.0018402905,
			"-0.001": 22.1396007678,
			"0.0": 20.5533667647,
			"0.001": 17.7528047852,
			"0.002": 8.4025838731,
			"0.003": 3.27920047593,
			"0.004": 2.7782548266,
			"0.005": 3.39912178065,
			"0.006": 3.07911737813,
			"0.007": 2.7419111589,
			"0.008": 4.0081740472,
			"0.009": 3.92586940888,
			"0.01": 4.14465007322,
			"0.011": 10.3414021658,
			"0.012": 7.95042012419,
			"0.013": 0.540174016112,
			"0.014": 0.0,
			"0.015": 0.0,
			"0.016": 0.0,
			"0.017": 0.0,
			"0.018": 0.0,
			"0.019": 0.0,
			"0.02": 0.0,
			"0.021": 0.0,
			"0.022": 0.0,
			"0.023": 0.0,
			"0.024": 0.0,
			"0.025": 0.0
		}
	}
}
