{
	 "smiles": "OC(=O)C1CC2=C(CN1C(=O)C1=CC=CO1)C=CC=C2", 
	 "Tm": 418.15, 
	 "num_atms": 33, 
	 "gaussian": { 
		 "optdone": 1, 
		 "sigma_profile": "yes", 
		 "theory": "DFT", 
		 "functional": "B3LYP", 
		 "basiset": "6-31G**", 
		 "properties": { 
			 "R2extent": 5758.2994, 
			 "electric_dipole_moment_norm": 3.84628701737, 
			 "electric_quadrupole_moment_norm": 10.6660980818, 
			 "total_energy": -935.077152076, 
			 "HOMO_LUMO_gap": 0.19916, 
			 "cosmo_polarized_energy": -16.39, 
			 "cosmo_cavitation_energy": 36.84, 
			 "cosmo_dispersion_energy": -25.96, 
			 "cosmo_repulsion_energy": 1.98, 
			 "cosmo_total_nonelectrostatic_energy": 12.86, 
			 "SMD_solvation_energy": 8.24 
		},
		"coords": [
			{
				"x": 0.4270135884,
				"y": -3.089076989,
				"z": 0.197715935,
				"element": "O" 
			},
			{
				"x": 1.3720233743,
				"y": -2.3223485979,
				"z": -0.3914430024,
				"element": "C" 
			},
			{
				"x": 2.5216512288,
				"y": -2.6807705145,
				"z": -0.5197151716,
				"element": "O" 
			},
			{
				"x": 0.824128834,
				"y": -0.9966597316,
				"z": -0.927478972,
				"element": "C" 
			},
			{
				"x": 1.8652997282,
				"y": 0.1198044796,
				"z": -0.8035549601,
				"element": "C" 
			},
			{
				"x": 1.9812068476,
				"y": 0.6058109581,
				"z": 0.6242207136,
				"element": "C" 
			},
			{
				"x": 0.9107719188,
				"y": 0.4357534066,
				"z": 1.5126612244,
				"element": "C" 
			},
			{
				"x": -0.3976811437,
				"y": -0.2206277952,
				"z": 1.1022090696,
				"element": "C" 
			},
			{
				"x": -0.4368224157,
				"y": -0.5970278127,
				"z": -0.312457282,
				"element": "N" 
			},
			{
				"x": -1.5638908185,
				"y": -0.6760872557,
				"z": -1.1027360851,
				"element": "C" 
			},
			{
				"x": -1.4919983963,
				"y": -0.9360808897,
				"z": -2.3068135453,
				"element": "O" 
			},
			{
				"x": -2.9167827611,
				"y": -0.4454213855,
				"z": -0.5480309234,
				"element": "C" 
			},
			{
				"x": -4.0811712073,
				"y": -0.3222409007,
				"z": -1.2589246107,
				"element": "C" 
			},
			{
				"x": -5.1320761267,
				"y": -0.1781248508,
				"z": -0.306514231,
				"element": "C" 
			},
			{
				"x": -4.5390735033,
				"y": -0.2321819123,
				"z": 0.9206635263,
				"element": "C" 
			},
			{
				"x": -3.1952277533,
				"y": -0.3940537333,
				"z": 0.7974730678,
				"element": "O" 
			},
			{
				"x": 1.0355212016,
				"y": 0.8808004331,
				"z": 2.8364317119,
				"element": "C" 
			},
			{
				"x": 2.2018907495,
				"y": 1.4985397508,
				"z": 3.2769589545,
				"element": "C" 
			},
			{
				"x": 3.2690705298,
				"y": 1.6733155475,
				"z": 2.3908702213,
				"element": "C" 
			},
			{
				"x": 3.1544620904,
				"y": 1.2245623315,
				"z": 1.0786581017,
				"element": "C" 
			},
			{
				"x": 0.8742501266,
				"y": -3.9151254012,
				"z": 0.4488982617,
				"element": "H" 
			},
			{
				"x": 0.5947829354,
				"y": -1.1760408801,
				"z": -1.9826739369,
				"element": "H" 
			},
			{
				"x": 2.8296614723,
				"y": -0.2514399981,
				"z": -1.1600297801,
				"element": "H" 
			},
			{
				"x": 1.5626382431,
				"y": 0.9413920652,
				"z": -1.4645365676,
				"element": "H" 
			},
			{
				"x": -1.2121183083,
				"y": 0.4757070157,
				"z": 1.3000586885,
				"element": "H" 
			},
			{
				"x": -0.5755524374,
				"y": -1.1031677375,
				"z": 1.7328633722,
				"element": "H" 
			},
			{
				"x": -4.151134222,
				"y": -0.343170821,
				"z": -2.3354852666,
				"element": "H" 
			},
			{
				"x": -6.1869260057,
				"y": -0.0553536716,
				"z": -0.5047599579,
				"element": "H" 
			},
			{
				"x": -4.9136456997,
				"y": -0.1761876331,
				"z": 1.931325181,
				"element": "H" 
			},
			{
				"x": 0.2049557775,
				"y": 0.741099166,
				"z": 3.5253368082,
				"element": "H" 
			},
			{
				"x": 2.2809543793,
				"y": 1.8401193807,
				"z": 4.304950712,
				"element": "H" 
			},
			{
				"x": 4.1866968747,
				"y": 2.1483632172,
				"z": 2.7254187475,
				"element": "H" 
			},
			{
				"x": 3.9865208987,
				"y": 1.3454207593,
				"z": 0.3892399955,
				"element": "H" 
			}
		],
		 "valence_orbital": [ 
			{
				"type": "occ",
				"energy": -0.25984,
				"method": "rhf"
			},
			{
				"type": "occ",
				"energy": -0.25148,
				"method": "rhf"
			},
			{
				"type": "occ",
				"energy": -0.24372,
				"method": "rhf"
			},
			{
				"type": "occ",
				"energy": -0.23791,
				"method": "rhf"
			},
			{
				"type": "occ",
				"energy": -0.23475,
				"method": "rhf"
			},
			{
				"type": "unocc",
				"energy": -0.03559,
				"method": "rhf"
			},
			{
				"type": "unocc",
				"energy": -0.01129,
				"method": "rhf"
			},
			{
				"type": "unocc",
				"energy": -0.00034,
				"method": "rhf"
			},
			{
				"type": "unocc",
				"energy": 0.01104,
				"method": "rhf"
			},
			{
				"type": "unocc",
				"energy": 0.04119,
				"method": "rhf"
			}
		],
		"cosmo_sigma_profile": { 
			"-0.025": 0.0,
			"-0.024": 0.0,
			"-0.023": 0.0,
			"-0.022": 0.0,
			"-0.021": 0.0,
			"-0.02": 0.0,
			"-0.019": 0.103493448588,
			"-0.018": 1.14900255359,
			"-0.017": 0.703532944818,
			"-0.016": 1.01568366735,
			"-0.015": 0.898248618643,
			"-0.014": 0.203528828596,
			"-0.013": 0.580870595089,
			"-0.012": 0.80149462564,
			"-0.011": 1.36094740935,
			"-0.01": 1.10049873966,
			"-0.009": 2.8110286043,
			"-0.008": 3.80014056477,
			"-0.007": 6.68002868887,
			"-0.006": 12.2044412992,
			"-0.005": 23.987098831,
			"-0.004": 24.6385081109,
			"-0.003": 21.7588900522,
			"-0.002": 20.0300237862,
			"-0.001": 20.6945699608,
			"0.0": 18.8756996874,
			"0.001": 19.1507113539,
			"0.002": 19.8991574888,
			"0.003": 19.1963416285,
			"0.004": 18.9309077639,
			"0.005": 13.3881423532,
			"0.006": 10.0642376861,
			"0.007": 3.55380878782,
			"0.008": 3.31771355369,
			"0.009": 3.38398466097,
			"0.01": 3.91012994316,
			"0.011": 6.33049341096,
			"0.012": 4.16607252258,
			"0.013": 4.56600601199,
			"0.014": 0.826445121314,
			"0.015": 0.0,
			"0.016": 0.0,
			"0.017": 0.0,
			"0.018": 0.0,
			"0.019": 0.0,
			"0.02": 0.0,
			"0.021": 0.0,
			"0.022": 0.0,
			"0.023": 0.0,
			"0.024": 0.0,
			"0.025": 0.0
		}
	}
}
