{
	 "smiles": "CC(C)C1=C(C)SC(N)=N1", 
	 "Tm": 381.15, 
	 "num_atms": 22, 
	 "gaussian": { 
		 "optdone": 1, 
		 "sigma_profile": "yes", 
		 "theory": "DFT", 
		 "functional": "B3LYP", 
		 "basiset": "6-31G**", 
		 "properties": { 
			 "R2extent": 1999.5274, 
			 "electric_dipole_moment_norm": 1.32842186823, 
			 "electric_quadrupole_moment_norm": 8.82787886188, 
			 "total_energy": -781.680978795, 
			 "HOMO_LUMO_gap": 0.20161, 
			 "cosmo_polarized_energy": -8.96, 
			 "cosmo_cavitation_energy": 26.2, 
			 "cosmo_dispersion_energy": -19.19, 
			 "cosmo_repulsion_energy": 1.55, 
			 "cosmo_total_nonelectrostatic_energy": 8.56, 
			 "SMD_solvation_energy": 3.25 
		},
		"coords": [
			{
				"x": -1.8079715846,
				"y": -1.6495977965,
				"z": -0.8341526489,
				"element": "C" 
			},
			{
				"x": -0.672608761,
				"y": -1.0033574699,
				"z": -1.6502750328,
				"element": "C" 
			},
			{
				"x": 0.3341889845,
				"y": -2.0648144407,
				"z": -2.1320905244,
				"element": "C" 
			},
			{
				"x": 0.0216457497,
				"y": 0.0726799431,
				"z": -0.8454864014,
				"element": "C" 
			},
			{
				"x": 0.0819852019,
				"y": 1.3977394997,
				"z": -1.1724412045,
				"element": "C" 
			},
			{
				"x": -0.4822687507,
				"y": 2.1273620266,
				"z": -2.3606754599,
				"element": "C" 
			},
			{
				"x": 0.9912307869,
				"y": 2.2567042055,
				"z": 0.0739297129,
				"element": "S" 
			},
			{
				"x": 1.2186864815,
				"y": 0.7186616768,
				"z": 0.9089916927,
				"element": "C" 
			},
			{
				"x": 1.8653759276,
				"y": 0.6571752566,
				"z": 2.1285991522,
				"element": "N" 
			},
			{
				"x": 0.6690564858,
				"y": -0.3025167189,
				"z": 0.3246698095,
				"element": "N" 
			},
			{
				"x": -2.5567857379,
				"y": -0.9075831308,
				"z": -0.5387604811,
				"element": "H" 
			},
			{
				"x": -2.3105034599,
				"y": -2.4289439541,
				"z": -1.4176027665,
				"element": "H" 
			},
			{
				"x": -1.4080202348,
				"y": -2.1038262562,
				"z": 0.077360656,
				"element": "H" 
			},
			{
				"x": -1.1152527616,
				"y": -0.5263386285,
				"z": -2.5335072228,
				"element": "H" 
			},
			{
				"x": -0.1709748019,
				"y": -2.8430738071,
				"z": -2.7146949436,
				"element": "H" 
			},
			{
				"x": 1.1117554402,
				"y": -1.6185658119,
				"z": -2.7606429947,
				"element": "H" 
			},
			{
				"x": 0.8245365038,
				"y": -2.5377194041,
				"z": -1.2759284107,
				"element": "H" 
			},
			{
				"x": -1.5742100045,
				"y": 2.0439808708,
				"z": -2.4041158479,
				"element": "H" 
			},
			{
				"x": -0.0816835507,
				"y": 1.7364259472,
				"z": -3.3029424504,
				"element": "H" 
			},
			{
				"x": -0.2416486098,
				"y": 3.193051962,
				"z": -2.3248866046,
				"element": "H" 
			},
			{
				"x": 2.6400627297,
				"y": 1.2938083421,
				"z": 2.2555514076,
				"element": "H" 
			},
			{
				"x": 2.0839039657,
				"y": -0.2948523115,
				"z": 2.3949005633,
				"element": "H" 
			}
		],
		 "valence_orbital": [ 
			{
				"type": "occ",
				"energy": -0.31708,
				"method": "rhf"
			},
			{
				"type": "occ",
				"energy": -0.2998,
				"method": "rhf"
			},
			{
				"type": "occ",
				"energy": -0.26194,
				"method": "rhf"
			},
			{
				"type": "occ",
				"energy": -0.26083,
				"method": "rhf"
			},
			{
				"type": "occ",
				"energy": -0.19594,
				"method": "rhf"
			},
			{
				"type": "unocc",
				"energy": 0.00567,
				"method": "rhf"
			},
			{
				"type": "unocc",
				"energy": 0.01504,
				"method": "rhf"
			},
			{
				"type": "unocc",
				"energy": 0.06592,
				"method": "rhf"
			},
			{
				"type": "unocc",
				"energy": 0.07764,
				"method": "rhf"
			},
			{
				"type": "unocc",
				"energy": 0.09777,
				"method": "rhf"
			}
		],
		"cosmo_sigma_profile": { 
			"-0.025": 0.0,
			"-0.024": 0.0,
			"-0.023": 0.0,
			"-0.022": 0.0,
			"-0.021": 0.0,
			"-0.02": 0.0,
			"-0.019": 0.0,
			"-0.018": 0.0,
			"-0.017": 0.0,
			"-0.016": 0.0,
			"-0.015": 0.0100929033608,
			"-0.014": 1.11305664927,
			"-0.013": 2.39467523567,
			"-0.012": 1.90009375159,
			"-0.011": 3.47420347083,
			"-0.01": 2.30074068921,
			"-0.009": 2.10452491456,
			"-0.008": 1.65023764081,
			"-0.007": 1.75029307246,
			"-0.006": 2.23387927701,
			"-0.005": 4.15676074235,
			"-0.004": 7.66992703356,
			"-0.003": 14.5169623458,
			"-0.002": 23.3424521644,
			"-0.001": 25.554929561,
			"0.0": 22.3756745159,
			"0.001": 21.9156642748,
			"0.002": 16.5968846048,
			"0.003": 10.7077938652,
			"0.004": 11.8755534385,
			"0.005": 9.85281365226,
			"0.006": 4.61847334224,
			"0.007": 3.43749248167,
			"0.008": 2.42591119543,
			"0.009": 2.86105956793,
			"0.01": 1.37704969023,
			"0.011": 2.22903820068,
			"0.012": 1.41724960749,
			"0.013": 0.626797649957,
			"0.014": 0.5350349703,
			"0.015": 0.108800244833,
			"0.016": 0.0,
			"0.017": 0.0,
			"0.018": 0.0,
			"0.019": 0.0,
			"0.02": 0.0,
			"0.021": 0.0,
			"0.022": 0.0,
			"0.023": 0.0,
			"0.024": 0.0,
			"0.025": 0.0
		}
	}
}
