{
	 "smiles": "CC1=CC=C(Br)C=C1", 
	 "Tm": 299.95, 
	 "num_atms": 15, 
	 "gaussian": { 
		 "optdone": 1, 
		 "sigma_profile": "yes", 
		 "theory": "DFT", 
		 "functional": "B3LYP", 
		 "basiset": "6-31G**", 
		 "properties": { 
			 "R2extent": 3128.1633, 
			 "electric_dipole_moment_norm": 2.26819086939, 
			 "electric_quadrupole_moment_norm": 5.71650877897, 
			 "total_energy": -2842.37523979, 
			 "HOMO_LUMO_gap": 0.22269, 
			 "cosmo_polarized_energy": -3.75, 
			 "cosmo_cavitation_energy": 20.86, 
			 "cosmo_dispersion_energy": -15.96, 
			 "cosmo_repulsion_energy": 1.32, 
			 "cosmo_total_nonelectrostatic_energy": 6.22, 
			 "SMD_solvation_energy": 2.54 
		},
		"coords": [
			{
				"x": 0.3235718684,
				"y": 0.431700165,
				"z": 1.8280612067,
				"element": "C" 
			},
			{
				"x": -0.0720343669,
				"y": 0.1296617231,
				"z": 0.4019552842,
				"element": "C" 
			},
			{
				"x": 0.6220120338,
				"y": 0.6965596495,
				"z": -0.6750604165,
				"element": "C" 
			},
			{
				"x": 0.2466502703,
				"y": 0.447362084,
				"z": -1.995451332,
				"element": "C" 
			},
			{
				"x": -0.8417519719,
				"y": -0.3857138034,
				"z": -2.2447244274,
				"element": "C" 
			},
			{
				"x": -1.3649351231,
				"y": -0.7401273642,
				"z": -4.0509926195,
				"element": "Br" 
			},
			{
				"x": -1.5509663047,
				"y": -0.968720281,
				"z": -1.1969094275,
				"element": "C" 
			},
			{
				"x": -1.1592349883,
				"y": -0.7066260192,
				"z": 0.1162107696,
				"element": "C" 
			},
			{
				"x": 0.0821228977,
				"y": -0.4010915746,
				"z": 2.4952129977,
				"element": "H" 
			},
			{
				"x": -0.204425537,
				"y": 1.3158398663,
				"z": 2.2068402879,
				"element": "H" 
			},
			{
				"x": 1.3956201965,
				"y": 0.6332936236,
				"z": 1.9117677938,
				"element": "H" 
			},
			{
				"x": 1.4738247844,
				"y": 1.3442684167,
				"z": -0.4830284747,
				"element": "H" 
			},
			{
				"x": 0.7946975716,
				"y": 0.8911946803,
				"z": -2.8189215672,
				"element": "H" 
			},
			{
				"x": -2.392983504,
				"y": -1.6198956367,
				"z": -1.4028915792,
				"element": "H" 
			},
			{
				"x": -1.7120678266,
				"y": -1.1654055296,
				"z": 0.932231504,
				"element": "H" 
			}
		],
		 "valence_orbital": [ 
			{
				"type": "occ",
				"energy": -0.3489,
				"method": "rhf"
			},
			{
				"type": "occ",
				"energy": -0.30325,
				"method": "rhf"
			},
			{
				"type": "occ",
				"energy": -0.28324,
				"method": "rhf"
			},
			{
				"type": "occ",
				"energy": -0.26005,
				"method": "rhf"
			},
			{
				"type": "occ",
				"energy": -0.23411,
				"method": "rhf"
			},
			{
				"type": "unocc",
				"energy": -0.01142,
				"method": "rhf"
			},
			{
				"type": "unocc",
				"energy": -0.00963,
				"method": "rhf"
			},
			{
				"type": "unocc",
				"energy": 0.01064,
				"method": "rhf"
			},
			{
				"type": "unocc",
				"energy": 0.10551,
				"method": "rhf"
			},
			{
				"type": "unocc",
				"energy": 0.12375,
				"method": "rhf"
			}
		],
		"cosmo_sigma_profile": { 
			"-0.025": 0.0,
			"-0.024": 0.0,
			"-0.023": 0.0,
			"-0.022": 0.0,
			"-0.021": 0.0,
			"-0.02": 0.0,
			"-0.019": 0.0,
			"-0.018": 0.0,
			"-0.017": 0.0,
			"-0.016": 0.0,
			"-0.015": 0.0,
			"-0.014": 0.0,
			"-0.013": 0.0,
			"-0.012": 0.0,
			"-0.011": 0.0,
			"-0.01": 0.0,
			"-0.009": 0.0,
			"-0.008": 0.0,
			"-0.007": 1.59589139909,
			"-0.006": 6.59043361022,
			"-0.005": 10.8488731697,
			"-0.004": 16.2172163523,
			"-0.003": 11.8416691459,
			"-0.002": 14.1564330197,
			"-0.001": 15.2587024698,
			"0.0": 15.0531349335,
			"0.001": 12.5135371377,
			"0.002": 13.6779866791,
			"0.003": 16.1314877804,
			"0.004": 20.3356928456,
			"0.005": 15.0701255072,
			"0.006": 0.399591441806,
			"0.007": 0.0,
			"0.008": 0.0,
			"0.009": 0.0,
			"0.01": 0.0,
			"0.011": 0.0,
			"0.012": 0.0,
			"0.013": 0.0,
			"0.014": 0.0,
			"0.015": 0.0,
			"0.016": 0.0,
			"0.017": 0.0,
			"0.018": 0.0,
			"0.019": 0.0,
			"0.02": 0.0,
			"0.021": 0.0,
			"0.022": 0.0,
			"0.023": 0.0,
			"0.024": 0.0,
			"0.025": 0.0
		}
	}
}
