{
	 "smiles": "CS(=O)(=O)CC1=CC=C(C=C1)C(O)=O", 
	 "Tm": 527.15, 
	 "num_atms": 24, 
	 "gaussian": { 
		 "optdone": 1, 
		 "sigma_profile": "yes", 
		 "theory": "DFT", 
		 "functional": "B3LYP", 
		 "basiset": "6-31G**", 
		 "properties": { 
			 "R2extent": 4164.7061, 
			 "electric_dipole_moment_norm": 1.54221024183, 
			 "electric_quadrupole_moment_norm": 37.7182719412, 
			 "total_energy": -1048.01819289, 
			 "HOMO_LUMO_gap": 0.2012, 
			 "cosmo_polarized_energy": -25.7, 
			 "cosmo_cavitation_energy": 29.84, 
			 "cosmo_dispersion_energy": -21.73, 
			 "cosmo_repulsion_energy": 1.66, 
			 "cosmo_total_nonelectrostatic_energy": 9.77, 
			 "SMD_solvation_energy": 5.84 
		},
		"coords": [
			{
				"x": -2.9307055585,
				"y": 0.4622095585,
				"z": 1.0453879418,
				"element": "C" 
			},
			{
				"x": -2.6475646013,
				"y": -1.08631361,
				"z": 0.1585516413,
				"element": "S" 
			},
			{
				"x": -3.5623867214,
				"y": -2.1026398584,
				"z": 0.6987390587,
				"element": "O" 
			},
			{
				"x": -2.6282431917,
				"y": -0.7853340064,
				"z": -1.2821388481,
				"element": "O" 
			},
			{
				"x": -0.9504127162,
				"y": -1.5927032627,
				"z": 0.6562694217,
				"element": "C" 
			},
			{
				"x": 0.1338838695,
				"y": -0.6177473019,
				"z": 0.2921095878,
				"element": "C" 
			},
			{
				"x": 0.4951129346,
				"y": -0.4166884236,
				"z": -1.048326755,
				"element": "C" 
			},
			{
				"x": 1.4945011579,
				"y": 0.4947941047,
				"z": -1.378199188,
				"element": "C" 
			},
			{
				"x": 2.1558613757,
				"y": 1.222619517,
				"z": -0.3783239544,
				"element": "C" 
			},
			{
				"x": 1.8115684054,
				"y": 1.0066901656,
				"z": 0.9618581364,
				"element": "C" 
			},
			{
				"x": 0.8046493394,
				"y": 0.1047893292,
				"z": 1.2905624067,
				"element": "C" 
			},
			{
				"x": 3.2533354896,
				"y": 2.2061054343,
				"z": -0.6628931856,
				"element": "C" 
			},
			{
				"x": 3.3203393352,
				"y": 2.7045117008,
				"z": -1.9251307538,
				"element": "O" 
			},
			{
				"x": 4.0536185758,
				"y": 2.559613858,
				"z": 0.1706276814,
				"element": "O" 
			},
			{
				"x": -3.9214316824,
				"y": 0.8030970422,
				"z": 0.7394615797,
				"element": "H" 
			},
			{
				"x": -2.1725325659,
				"y": 1.1902576778,
				"z": 0.7553574024,
				"element": "H" 
			},
			{
				"x": -2.913134605,
				"y": 0.2720176872,
				"z": 2.1195463654,
				"element": "H" 
			},
			{
				"x": -0.8430256112,
				"y": -2.5514184614,
				"z": 0.1388614547,
				"element": "H" 
			},
			{
				"x": -0.9963001745,
				"y": -1.789548326,
				"z": 1.7301032722,
				"element": "H" 
			},
			{
				"x": -0.0173635295,
				"y": -0.9677920277,
				"z": -1.8293811393,
				"element": "H" 
			},
			{
				"x": 1.7760819006,
				"y": 0.5991933189,
				"z": -2.4232624615,
				"element": "H" 
			},
			{
				"x": 2.3476565538,
				"y": 1.5552342634,
				"z": 1.72862901,
				"element": "H" 
			},
			{
				"x": 0.5447374627,
				"y": -0.052049967,
				"z": 2.3342912579,
				"element": "H" 
			},
			{
				"x": 2.5320545573,
				"y": 2.4589015877,
				"z": -2.4286999328,
				"element": "H" 
			}
		],
		 "valence_orbital": [ 
			{
				"type": "occ",
				"energy": -0.30732,
				"method": "rhf"
			},
			{
				"type": "occ",
				"energy": -0.3038,
				"method": "rhf"
			},
			{
				"type": "occ",
				"energy": -0.2848,
				"method": "rhf"
			},
			{
				"type": "occ",
				"energy": -0.28289,
				"method": "rhf"
			},
			{
				"type": "occ",
				"energy": -0.26957,
				"method": "rhf"
			},
			{
				"type": "unocc",
				"energy": -0.06837,
				"method": "rhf"
			},
			{
				"type": "unocc",
				"energy": -0.03623,
				"method": "rhf"
			},
			{
				"type": "unocc",
				"energy": 0.02521,
				"method": "rhf"
			},
			{
				"type": "unocc",
				"energy": 0.05184,
				"method": "rhf"
			},
			{
				"type": "unocc",
				"energy": 0.0559,
				"method": "rhf"
			}
		],
		"cosmo_sigma_profile": { 
			"-0.025": 0.0,
			"-0.024": 0.0,
			"-0.023": 0.0,
			"-0.022": 0.0,
			"-0.021": 0.0,
			"-0.02": 0.0,
			"-0.019": 0.224016383538,
			"-0.018": 1.08020500588,
			"-0.017": 0.891998589903,
			"-0.016": 1.16460336733,
			"-0.015": 0.866035308497,
			"-0.014": 1.07976268505,
			"-0.013": 1.16374444841,
			"-0.012": 0.804579196055,
			"-0.011": 1.44392431662,
			"-0.01": 4.05002156178,
			"-0.009": 8.98766361195,
			"-0.008": 10.7850001823,
			"-0.007": 12.541976105,
			"-0.006": 15.4551009643,
			"-0.005": 15.5177490199,
			"-0.004": 15.5242887184,
			"-0.003": 13.1849059652,
			"-0.002": 10.270258788,
			"-0.001": 9.45587676299,
			"0.0": 9.38712965312,
			"0.001": 10.5206027571,
			"0.002": 13.9874418315,
			"0.003": 8.32561926573,
			"0.004": 4.3729019487,
			"0.005": 4.53566179053,
			"0.006": 5.13535149937,
			"0.007": 5.03932883653,
			"0.008": 5.53308591205,
			"0.009": 6.36488935228,
			"0.01": 8.67749208204,
			"0.011": 14.4943381888,
			"0.012": 14.0975747688,
			"0.013": 2.64232015541,
			"0.014": 0.0,
			"0.015": 0.0,
			"0.016": 0.0,
			"0.017": 0.0,
			"0.018": 0.0,
			"0.019": 0.0,
			"0.02": 0.0,
			"0.021": 0.0,
			"0.022": 0.0,
			"0.023": 0.0,
			"0.024": 0.0,
			"0.025": 0.0
		}
	}
}
