{
	 "smiles": "COC1=CC(CC(N)C(O)=O)=CC=C1", 
	 "Tm": 479.15, 
	 "num_atms": 27, 
	 "gaussian": { 
		 "optdone": 1, 
		 "sigma_profile": "yes", 
		 "theory": "DFT", 
		 "functional": "B3LYP", 
		 "basiset": "6-31G**", 
		 "properties": { 
			 "R2extent": 3827.8922, 
			 "electric_dipole_moment_norm": 2.0127733156, 
			 "electric_quadrupole_moment_norm": 9.54678946976, 
			 "total_energy": -669.323646113, 
			 "HOMO_LUMO_gap": 0.21549, 
			 "cosmo_polarized_energy": -13.93, 
			 "cosmo_cavitation_energy": 30.69, 
			 "cosmo_dispersion_energy": -21.86, 
			 "cosmo_repulsion_energy": 1.74, 
			 "cosmo_total_nonelectrostatic_energy": 10.58, 
			 "SMD_solvation_energy": 5.98 
		},
		"coords": [
			{
				"x": -0.3094890772,
				"y": 3.5530310595,
				"z": 2.3105383187,
				"element": "C" 
			},
			{
				"x": 0.7893812166,
				"y": 3.4208326868,
				"z": 1.4230949402,
				"element": "O" 
			},
			{
				"x": 1.0474143153,
				"y": 2.1907136546,
				"z": 0.8892852022,
				"element": "C" 
			},
			{
				"x": 0.2892232271,
				"y": 1.042073043,
				"z": 1.1459254104,
				"element": "C" 
			},
			{
				"x": 0.6334489819,
				"y": -0.1843727997,
				"z": 0.5526458506,
				"element": "C" 
			},
			{
				"x": -0.2097463963,
				"y": -1.4155346777,
				"z": 0.809761757,
				"element": "C" 
			},
			{
				"x": -1.3154253659,
				"y": -1.60733681,
				"z": -0.2463758139,
				"element": "C" 
			},
			{
				"x": -2.2885287093,
				"y": -0.5147551411,
				"z": -0.1863531434,
				"element": "N" 
			},
			{
				"x": -2.023536086,
				"y": -2.9425367456,
				"z": -0.0369310056,
				"element": "C" 
			},
			{
				"x": -3.1831001856,
				"y": -3.0073597066,
				"z": -0.7376525206,
				"element": "O" 
			},
			{
				"x": -1.6125902523,
				"y": -3.8711858113,
				"z": 0.6216603637,
				"element": "O" 
			},
			{
				"x": 1.7427311864,
				"y": -0.2442835079,
				"z": -0.2970948664,
				"element": "C" 
			},
			{
				"x": 2.4954284509,
				"y": 0.9062665604,
				"z": -0.5515891152,
				"element": "C" 
			},
			{
				"x": 2.1564394113,
				"y": 2.1205502354,
				"z": 0.0335148605,
				"element": "C" 
			},
			{
				"x": -1.2601729381,
				"y": 3.3052813249,
				"z": 1.8206948315,
				"element": "H" 
			},
			{
				"x": -0.1917329525,
				"y": 2.9204537627,
				"z": 3.1997220879,
				"element": "H" 
			},
			{
				"x": -0.3261354674,
				"y": 4.6006276542,
				"z": 2.6154095718,
				"element": "H" 
			},
			{
				"x": -0.5689067016,
				"y": 1.0779156305,
				"z": 1.807193679,
				"element": "H" 
			},
			{
				"x": -0.6900412749,
				"y": -1.3539769385,
				"z": 1.791286598,
				"element": "H" 
			},
			{
				"x": 0.4157477111,
				"y": -2.3121559501,
				"z": 0.8115361777,
				"element": "H" 
			},
			{
				"x": -0.8243545729,
				"y": -1.7017670878,
				"z": -1.2354580879,
				"element": "H" 
			},
			{
				"x": -3.0230291363,
				"y": -0.668221508,
				"z": -0.8711376217,
				"element": "H" 
			},
			{
				"x": -1.8203692565,
				"y": 0.3545709878,
				"z": -0.4288438067,
				"element": "H" 
			},
			{
				"x": -3.5559557955,
				"y": -3.8878998465,
				"z": -0.5636097132,
				"element": "H" 
			},
			{
				"x": 2.0236512465,
				"y": -1.1903976251,
				"z": -0.7519991794,
				"element": "H" 
			},
			{
				"x": 3.359454071,
				"y": 0.8529487511,
				"z": -1.2081285864,
				"element": "H" 
			},
			{
				"x": 2.7322943501,
				"y": 3.022118805,
				"z": -0.1473961889,
				"element": "H" 
			}
		],
		 "valence_orbital": [ 
			{
				"type": "occ",
				"energy": -0.31349,
				"method": "rhf"
			},
			{
				"type": "occ",
				"energy": -0.2806,
				"method": "rhf"
			},
			{
				"type": "occ",
				"energy": -0.24776,
				"method": "rhf"
			},
			{
				"type": "occ",
				"energy": -0.23963,
				"method": "rhf"
			},
			{
				"type": "occ",
				"energy": -0.21711,
				"method": "rhf"
			},
			{
				"type": "unocc",
				"energy": -0.00162,
				"method": "rhf"
			},
			{
				"type": "unocc",
				"energy": 0.00486,
				"method": "rhf"
			},
			{
				"type": "unocc",
				"energy": 0.01174,
				"method": "rhf"
			},
			{
				"type": "unocc",
				"energy": 0.07198,
				"method": "rhf"
			},
			{
				"type": "unocc",
				"energy": 0.09404,
				"method": "rhf"
			}
		],
		"cosmo_sigma_profile": { 
			"-0.025": 0.0,
			"-0.024": 0.0,
			"-0.023": 0.0,
			"-0.022": 0.0,
			"-0.021": 0.0,
			"-0.02": 0.0,
			"-0.019": 0.0864589952028,
			"-0.018": 0.684322910084,
			"-0.017": 1.12838939082,
			"-0.016": 0.681911060675,
			"-0.015": 0.978050358419,
			"-0.014": 0.817111402265,
			"-0.013": 0.264639266636,
			"-0.012": 0.284435249625,
			"-0.011": 1.26937633143,
			"-0.01": 0.994213618261,
			"-0.009": 1.94404152194,
			"-0.008": 2.73995919813,
			"-0.007": 3.39641326274,
			"-0.006": 8.9608945481,
			"-0.005": 23.2839785878,
			"-0.004": 24.9568313019,
			"-0.003": 24.4857522514,
			"-0.002": 17.8630603363,
			"-0.001": 13.5142671046,
			"0.0": 11.8930717027,
			"0.001": 10.4592626175,
			"0.002": 11.8302869304,
			"0.003": 10.8882782495,
			"0.004": 13.5824722829,
			"0.005": 13.0542470819,
			"0.006": 11.6232958605,
			"0.007": 5.38715336209,
			"0.008": 4.75439587797,
			"0.009": 3.90366030161,
			"0.01": 3.78353342535,
			"0.011": 5.09514078246,
			"0.012": 3.74893451461,
			"0.013": 0.77389054305,
			"0.014": 0.663480569972,
			"0.015": 0.305241300718,
			"0.016": 0.553219411874,
			"0.017": 0.404268252715,
			"0.018": 0.309224045622,
			"0.019": 0.149861310283,
			"0.02": 0.0,
			"0.021": 0.0,
			"0.022": 0.0,
			"0.023": 0.0,
			"0.024": 0.0,
			"0.025": 0.0
		}
	}
}
