{
	 "smiles": "C=CCNC(=O)CC#N", 
	 "Tm": 339.15, 
	 "num_atms": 17, 
	 "gaussian": { 
		 "optdone": 1, 
		 "sigma_profile": "yes", 
		 "theory": "DFT", 
		 "functional": "B3LYP", 
		 "basiset": "6-31G**", 
		 "properties": { 
			 "R2extent": 1604.6283, 
			 "electric_dipole_moment_norm": 3.75948513097, 
			 "electric_quadrupole_moment_norm": 12.8856022285, 
			 "total_energy": -418.148567028, 
			 "HOMO_LUMO_gap": 0.26446, 
			 "cosmo_polarized_energy": -16.13, 
			 "cosmo_cavitation_energy": 22.43, 
			 "cosmo_dispersion_energy": -14.94, 
			 "cosmo_repulsion_energy": 1.26, 
			 "cosmo_total_nonelectrostatic_energy": 8.75, 
			 "SMD_solvation_energy": 6.55 
		},
		"coords": [
			{
				"x": 1.6826365404,
				"y": 0.2963330428,
				"z": 0.960926833,
				"element": "C" 
			},
			{
				"x": 0.4748362099,
				"y": 0.8164051723,
				"z": 0.7542711036,
				"element": "C" 
			},
			{
				"x": -0.4171425502,
				"y": 0.5375293332,
				"z": -0.4326841008,
				"element": "C" 
			},
			{
				"x": 0.2221754827,
				"y": -0.2218705221,
				"z": -1.4955539479,
				"element": "N" 
			},
			{
				"x": -0.0677902801,
				"y": -1.4547438097,
				"z": -2.0017070513,
				"element": "C" 
			},
			{
				"x": 0.5723781,
				"y": -1.9521024074,
				"z": -2.9141022898,
				"element": "O" 
			},
			{
				"x": -1.2848776891,
				"y": -2.21179701,
				"z": -1.417463515,
				"element": "C" 
			},
			{
				"x": -1.1815637283,
				"y": -2.5359188565,
				"z": 0.0051915532,
				"element": "C" 
			},
			{
				"x": -1.0956123934,
				"y": -2.7892073395,
				"z": 1.1347959233,
				"element": "N" 
			},
			{
				"x": 2.258055247,
				"y": 0.5486081977,
				"z": 1.8454723123,
				"element": "H" 
			},
			{
				"x": 2.131968805,
				"y": -0.4075889926,
				"z": 0.2667208317,
				"element": "H" 
			},
			{
				"x": 0.049710082,
				"y": 1.5106266364,
				"z": 1.4780791757,
				"element": "H" 
			},
			{
				"x": -0.7809955247,
				"y": 1.4920218052,
				"z": -0.8411539987,
				"element": "H" 
			},
			{
				"x": -1.3089773564,
				"y": 0.0015724577,
				"z": -0.0941018105,
				"element": "H" 
			},
			{
				"x": 1.0309631768,
				"y": 0.1984751891,
				"z": -1.9372152958,
				"element": "H" 
			},
			{
				"x": -2.2044310197,
				"y": -1.6383809082,
				"z": -1.5861605451,
				"element": "H" 
			},
			{
				"x": -1.3560331019,
				"y": -3.1356619884,
				"z": -1.9957151781,
				"element": "H" 
			}
		],
		 "valence_orbital": [ 
			{
				"type": "occ",
				"energy": -0.34102,
				"method": "rhf"
			},
			{
				"type": "occ",
				"energy": -0.33273,
				"method": "rhf"
			},
			{
				"type": "occ",
				"energy": -0.27728,
				"method": "rhf"
			},
			{
				"type": "occ",
				"energy": -0.26808,
				"method": "rhf"
			},
			{
				"type": "occ",
				"energy": -0.26526,
				"method": "rhf"
			},
			{
				"type": "unocc",
				"energy": -0.0008,
				"method": "rhf"
			},
			{
				"type": "unocc",
				"energy": 0.00603,
				"method": "rhf"
			},
			{
				"type": "unocc",
				"energy": 0.02757,
				"method": "rhf"
			},
			{
				"type": "unocc",
				"energy": 0.03728,
				"method": "rhf"
			},
			{
				"type": "unocc",
				"energy": 0.0718,
				"method": "rhf"
			}
		],
		"cosmo_sigma_profile": { 
			"-0.025": 0.0,
			"-0.024": 0.0,
			"-0.023": 0.0,
			"-0.022": 0.0,
			"-0.021": 0.0,
			"-0.02": 0.0,
			"-0.019": 0.0,
			"-0.018": 0.0,
			"-0.017": 0.0,
			"-0.016": 0.0,
			"-0.015": 0.00410311376723,
			"-0.014": 0.682098234382,
			"-0.013": 0.970559867056,
			"-0.012": 0.707896403832,
			"-0.011": 2.46618225676,
			"-0.01": 5.10605013494,
			"-0.009": 5.16022903725,
			"-0.008": 5.98112588511,
			"-0.007": 6.02767678766,
			"-0.006": 12.5758621916,
			"-0.005": 15.0558492895,
			"-0.004": 11.7322936083,
			"-0.003": 11.341981575,
			"-0.002": 10.0673597665,
			"-0.001": 7.87151761781,
			"0.0": 8.52156397591,
			"0.001": 7.63425800837,
			"0.002": 5.99444058773,
			"0.003": 7.11336499304,
			"0.004": 5.24098476544,
			"0.005": 6.75192822993,
			"0.006": 6.21086759841,
			"0.007": 4.38353421649,
			"0.008": 4.33521594797,
			"0.009": 3.89342951348,
			"0.01": 4.82062533447,
			"0.011": 4.27045513269,
			"0.012": 6.00692785057,
			"0.013": 6.71453600357,
			"0.014": 1.1234439855,
			"0.015": 0.0,
			"0.016": 0.0,
			"0.017": 0.0,
			"0.018": 0.0,
			"0.019": 0.0,
			"0.02": 0.0,
			"0.021": 0.0,
			"0.022": 0.0,
			"0.023": 0.0,
			"0.024": 0.0,
			"0.0": 0.0
		}
	}
}
