{
	 "smiles": "O=C1OCCOC2=CC=CC=C12", 
	 "Tm": 303.15, 
	 "num_atms": 20, 
	 "gaussian": { 
		 "optdone": 1, 
		 "sigma_profile": "yes", 
		 "theory": "DFT", 
		 "functional": "B3LYP", 
		 "basiset": "6-31G**", 
		 "properties": { 
			 "R2extent": 4183.956, 
			 "electric_dipole_moment_norm": 3.83642608947, 
			 "electric_quadrupole_moment_norm": 24.3350201202, 
			 "total_energy": -573.436668734, 
			 "HOMO_LUMO_gap": 0.1903, 
			 "cosmo_polarized_energy": -11.8, 
			 "cosmo_cavitation_energy": 23.32, 
			 "cosmo_dispersion_energy": -17.92, 
			 "cosmo_repulsion_energy": 1.41, 
			 "cosmo_total_nonelectrostatic_energy": 6.81, 
			 "SMD_solvation_energy": 5.17 
		},
		"coords": [
			{
				"x": -2.5478558454,
				"y": 2.7012375946,
				"z": 1.7157679503,
				"element": "O" 
			},
			{
				"x": -1.9954064736,
				"y": 1.9226063749,
				"z": 2.4619983535,
				"element": "C" 
			},
			{
				"x": -1.9140192472,
				"y": 2.2813629588,
				"z": 3.7724894499,
				"element": "O" 
			},
			{
				"x": -1.3184221424,
				"y": 1.4364671858,
				"z": 4.7523055302,
				"element": "C" 
			},
			{
				"x": 0.124804127,
				"y": 1.1043705994,
				"z": 4.4212892988,
				"element": "C" 
			},
			{
				"x": 0.2565947223,
				"y": -0.0726218444,
				"z": 3.6387012839,
				"element": "O" 
			},
			{
				"x": -0.4823847421,
				"y": -0.2535414756,
				"z": 2.5076055469,
				"element": "C" 
			},
			{
				"x": -0.1524801894,
				"y": -1.4505371457,
				"z": 1.8446742972,
				"element": "C" 
			},
			{
				"x": -0.7774987196,
				"y": -1.8162729297,
				"z": 0.6653384996,
				"element": "C" 
			},
			{
				"x": -1.7519672372,
				"y": -0.9804928886,
				"z": 0.105199779,
				"element": "C" 
			},
			{
				"x": -2.0746250926,
				"y": 0.2008387196,
				"z": 0.7482736392,
				"element": "C" 
			},
			{
				"x": -1.475185763,
				"y": 0.5985766258,
				"z": 1.9679274998,
				"element": "C" 
			},
			{
				"x": -1.8974515318,
				"y": 0.5145515215,
				"z": 4.8893821577,
				"element": "H" 
			},
			{
				"x": -1.3688372802,
				"y": 2.0154125006,
				"z": 5.6776789544,
				"element": "H" 
			},
			{
				"x": 0.6901236076,
				"y": 0.8922830628,
				"z": 5.3326719983,
				"element": "H" 
			},
			{
				"x": 0.5887273623,
				"y": 1.9631098359,
				"z": 3.9160314404,
				"element": "H" 
			},
			{
				"x": 0.6175025335,
				"y": -2.0686790598,
				"z": 2.293844728,
				"element": "H" 
			},
			{
				"x": -0.5025381557,
				"y": -2.7475137267,
				"z": 0.178546106,
				"element": "H" 
			},
			{
				"x": -2.2480218303,
				"y": -1.2502805407,
				"z": -0.8213596711,
				"element": "H" 
			},
			{
				"x": -2.8131581022,
				"y": 0.8743226315,
				"z": 0.3299331578,
				"element": "H" 
			}
		],
		 "valence_orbital": [ 
			{
				"type": "occ",
				"energy": -0.33009,
				"method": "rhf"
			},
			{
				"type": "occ",
				"energy": -0.29642,
				"method": "rhf"
			},
			{
				"type": "occ",
				"energy": -0.27439,
				"method": "rhf"
			},
			{
				"type": "occ",
				"energy": -0.25803,
				"method": "rhf"
			},
			{
				"type": "occ",
				"energy": -0.23383,
				"method": "rhf"
			},
			{
				"type": "unocc",
				"energy": -0.04353,
				"method": "rhf"
			},
			{
				"type": "unocc",
				"energy": -0.00377,
				"method": "rhf"
			},
			{
				"type": "unocc",
				"energy": 0.04738,
				"method": "rhf"
			},
			{
				"type": "unocc",
				"energy": 0.0847,
				"method": "rhf"
			},
			{
				"type": "unocc",
				"energy": 0.09088,
				"method": "rhf"
			}
		],
		"cosmo_sigma_profile": { 
			"-0.025": 0.0,
			"-0.024": 0.0,
			"-0.023": 0.0,
			"-0.022": 0.0,
			"-0.021": 0.0,
			"-0.02": 0.0,
			"-0.019": 0.0,
			"-0.018": 0.0,
			"-0.017": 0.0,
			"-0.016": 0.0,
			"-0.015": 0.0,
			"-0.014": 0.0,
			"-0.013": 0.0,
			"-0.012": 0.0,
			"-0.011": 0.0,
			"-0.01": 0.0,
			"-0.009": 0.00404773787412,
			"-0.008": 4.99951047955,
			"-0.007": 12.7432776157,
			"-0.006": 17.6360954586,
			"-0.005": 16.8333335571,
			"-0.004": 14.4116431919,
			"-0.003": 10.0105008126,
			"-0.002": 9.01511060154,
			"-0.001": 9.29627053548,
			"0.0": 9.30333212236,
			"0.001": 8.84746705567,
			"0.002": 12.1335779983,
			"0.003": 14.7379854655,
			"0.004": 12.3488584306,
			"0.005": 4.95411060521,
			"0.006": 3.28461698942,
			"0.007": 3.39984553063,
			"0.008": 3.15272966642,
			"0.009": 3.33312775286,
			"0.01": 3.09222755333,
			"0.011": 3.92725701686,
			"0.012": 5.87299810736,
			"0.013": 2.54440879561,
			"0.014": 0.393714834555,
			"0.015": 0.0,
			"0.016": 0.0,
			"0.017": 0.0,
			"0.018": 0.0,
			"0.019": 0.0,
			"0.02": 0.0,
			"0.021": 0.0,
			"0.022": 0.0,
			"0.023": 0.0,
			"0.024": 0.0,
			"0.025": 0.0
		}
	}
}
