{
	 "smiles": "FC1=CC2=C(OC3=C(O2)C=C(Cl)C(Cl)=C3)C=C1F", 
	 "Tm": 496.15, 
	 "num_atms": 22, 
	 "gaussian": { 
		 "optdone": 1, 
		 "sigma_profile": "yes", 
		 "theory": "DFT", 
		 "functional": "B3LYP", 
		 "basiset": "6-31G**", 
		 "properties": { 
			 "R2extent": 7736.3669, 
			 "electric_dipole_moment_norm": 0.652883879415, 
			 "electric_quadrupole_moment_norm": 13.9566314808, 
			 "total_energy": -1730.15329051, 
			 "HOMO_LUMO_gap": 0.17764, 
			 "cosmo_polarized_energy": -5.67, 
			 "cosmo_cavitation_energy": 32.05, 
			 "cosmo_dispersion_energy": -24.08, 
			 "cosmo_repulsion_energy": 1.77, 
			 "cosmo_total_nonelectrostatic_energy": 9.74, 
			 "SMD_solvation_energy": 6.37 
		},
		"coords": [
			{
				"x": 2.3167609308,
				"y": 3.8949055482,
				"z": -1.3541716821,
				"element": "F" 
			},
			{
				"x": 1.9098041227,
				"y": 2.7480621476,
				"z": -0.7877746479,
				"element": "C" 
			},
			{
				"x": 0.5616721355,
				"y": 2.4094601193,
				"z": -0.7892008503,
				"element": "C" 
			},
			{
				"x": 0.1579546665,
				"y": 1.2171612539,
				"z": -0.197759208,
				"element": "C" 
			},
			{
				"x": 1.1004672862,
				"y": 0.3685602222,
				"z": 0.3920577757,
				"element": "C" 
			},
			{
				"x": 0.7378512963,
				"y": -0.8227351529,
				"z": 0.9885094754,
				"element": "O" 
			},
			{
				"x": -0.6051426014,
				"y": -1.1260284543,
				"z": 0.9685296832,
				"element": "C" 
			},
			{
				"x": -1.5484251192,
				"y": -0.2767039805,
				"z": 0.3783073878,
				"element": "C" 
			},
			{
				"x": -1.1884210301,
				"y": 0.9116844901,
				"z": -0.2168149617,
				"element": "O" 
			},
			{
				"x": -2.8919858267,
				"y": -0.6229085273,
				"z": 0.3815212469,
				"element": "C" 
			},
			{
				"x": -3.3092189241,
				"y": -1.8189745046,
				"z": 0.9728504035,
				"element": "C" 
			},
			{
				"x": -5.0089913565,
				"y": -2.209495489,
				"z": 0.9510995155,
				"element": "Cl" 
			},
			{
				"x": -2.3657998475,
				"y": -2.6684398257,
				"z": 1.5631196434,
				"element": "C" 
			},
			{
				"x": -2.8288170004,
				"y": -4.1725359966,
				"z": 2.3151198236,
				"element": "Cl" 
			},
			{
				"x": -1.0134257857,
				"y": -2.3143699345,
				"z": 1.5568950783,
				"element": "C" 
			},
			{
				"x": 2.448565667,
				"y": 0.7106067941,
				"z": 0.3916756313,
				"element": "C" 
			},
			{
				"x": 2.8484321897,
				"y": 1.9029968377,
				"z": -0.2003015105,
				"element": "C" 
			},
			{
				"x": 4.1454131791,
				"y": 2.2485706692,
				"z": -0.2095849902,
				"element": "F" 
			},
			{
				"x": -0.1677679497,
				"y": 3.0674625751,
				"z": -1.2463646363,
				"element": "H" 
			},
			{
				"x": -3.6110241382,
				"y": 0.0440058973,
				"z": -0.0789257027,
				"element": "H" 
			},
			{
				"x": -0.2724230403,
				"y": -2.9620499119,
				"z": 2.0099219896,
				"element": "H" 
			},
			{
				"x": 3.1794211461,
				"y": 0.0538652226,
				"z": 0.8483905355,
				"element": "H" 
			}
		],
		 "valence_orbital": [ 
			{
				"type": "occ",
				"energy": -0.31752,
				"method": "rhf"
			},
			{
				"type": "occ",
				"energy": -0.28517,
				"method": "rhf"
			},
			{
				"type": "occ",
				"energy": -0.26594,
				"method": "rhf"
			},
			{
				"type": "occ",
				"energy": -0.25941,
				"method": "rhf"
			},
			{
				"type": "occ",
				"energy": -0.21617,
				"method": "rhf"
			},
			{
				"type": "unocc",
				"energy": -0.03853,
				"method": "rhf"
			},
			{
				"type": "unocc",
				"energy": -0.03453,
				"method": "rhf"
			},
			{
				"type": "unocc",
				"energy": -0.02977,
				"method": "rhf"
			},
			{
				"type": "unocc",
				"energy": -0.00746,
				"method": "rhf"
			},
			{
				"type": "unocc",
				"energy": 0.00832,
				"method": "rhf"
			}
		],
		"cosmo_sigma_profile": { 
			"-0.025": 0.0,
			"-0.024": 0.0,
			"-0.023": 0.0,
			"-0.022": 0.0,
			"-0.021": 0.0,
			"-0.02": 0.0,
			"-0.019": 0.0,
			"-0.018": 0.0,
			"-0.017": 0.0,
			"-0.016": 0.0,
			"-0.015": 0.0,
			"-0.014": 0.0,
			"-0.013": 0.0,
			"-0.012": 0.0,
			"-0.011": 0.0,
			"-0.01": 0.244005782373,
			"-0.009": 4.72718868592,
			"-0.008": 6.6292590161,
			"-0.007": 4.47490007489,
			"-0.006": 6.94711067058,
			"-0.005": 7.84476816036,
			"-0.004": 7.71954659709,
			"-0.003": 10.1006106788,
			"-0.002": 17.3191837379,
			"-0.001": 31.6362409126,
			"0.0": 44.6256104291,
			"0.001": 33.4297872663,
			"0.002": 16.4912939007,
			"0.003": 35.167177602,
			"0.004": 28.0708023379,
			"0.005": 6.10259508887,
			"0.006": 3.08358579603,
			"0.007": 0.260449983589,
			"0.008": 0.0,
			"0.009": 0.0,
			"0.01": 0.0,
			"0.011": 0.0,
			"0.012": 0.0,
			"0.013": 0.0,
			"0.014": 0.0,
			"0.015": 0.0,
			"0.016": 0.0,
			"0.017": 0.0,
			"0.018": 0.0,
			"0.019": 0.0,
			"0.02": 0.0,
			"0.021": 0.0,
			"0.022": 0.0,
			"0.023": 0.0,
			"0.024": 0.0,
			"0.025": 0.0
		}
	}
}
