{
	 "smiles": "CC(=O)NC1=CC(NC(C)=O)=C(C)C(=C1)N=NC1=CC=CC=C1", 
	 "Tm": 528.15, 
	 "num_atms": 41, 
	 "gaussian": { 
		 "optdone": 1, 
		 "sigma_profile": "yes", 
		 "theory": "DFT", 
		 "functional": "B3LYP", 
		 "basiset": "6-31G**", 
		 "properties": { 
			 "R2extent": 10626.522, 
			 "electric_dipole_moment_norm": 4.80386027586, 
			 "electric_quadrupole_moment_norm": 18.7571410039, 
			 "total_energy": -1028.10680197, 
			 "HOMO_LUMO_gap": 0.13294, 
			 "cosmo_polarized_energy": -20.93, 
			 "cosmo_cavitation_energy": 46.1, 
			 "cosmo_dispersion_energy": -31.39, 
			 "cosmo_repulsion_energy": 2.41, 
			 "cosmo_total_nonelectrostatic_energy": 17.12, 
			 "SMD_solvation_energy": 8.79 
		},
		"coords": [
			{
				"x": 1.0130068012,
				"y": 3.8068906404,
				"z": 2.2253006774,
				"element": "C" 
			},
			{
				"x": -0.4544757561,
				"y": 3.7634362576,
				"z": 2.6013537186,
				"element": "C" 
			},
			{
				"x": -0.9672455373,
				"y": 4.6131580884,
				"z": 3.3138904393,
				"element": "O" 
			},
			{
				"x": -1.2474920957,
				"y": 2.7362055903,
				"z": 2.1055067874,
				"element": "N" 
			},
			{
				"x": -0.9685225885,
				"y": 1.6427868411,
				"z": 1.2614043119,
				"element": "C" 
			},
			{
				"x": -1.9697261815,
				"y": 1.2213171198,
				"z": 0.3715992912,
				"element": "C" 
			},
			{
				"x": -1.7783110428,
				"y": 0.1244730107,
				"z": -0.4719297661,
				"element": "C" 
			},
			{
				"x": -2.8356268718,
				"y": -0.2231773474,
				"z": -1.3679558504,
				"element": "N" 
			},
			{
				"x": -3.7696549491,
				"y": -1.2375555183,
				"z": -1.23199371,
				"element": "C" 
			},
			{
				"x": -3.5691394085,
				"y": -2.2034657921,
				"z": -0.078330619,
				"element": "C" 
			},
			{
				"x": -4.6955317197,
				"y": -1.3320086348,
				"z": -2.022723879,
				"element": "O" 
			},
			{
				"x": -0.5572803019,
				"y": -0.580177303,
				"z": -0.4787806869,
				"element": "C" 
			},
			{
				"x": -0.2993807969,
				"y": -1.7223990398,
				"z": -1.429014573,
				"element": "C" 
			},
			{
				"x": 0.4287013979,
				"y": -0.1616792248,
				"z": 0.4419052062,
				"element": "C" 
			},
			{
				"x": 0.2225928791,
				"y": 0.9206248195,
				"z": 1.3090481347,
				"element": "C" 
			},
			{
				"x": 1.6349611118,
				"y": -0.9127966189,
				"z": 0.435739819,
				"element": "N" 
			},
			{
				"x": 2.4911104757,
				"y": -0.5497867493,
				"z": 1.2864484103,
				"element": "N" 
			},
			{
				"x": 3.6960814896,
				"y": -1.2939822359,
				"z": 1.2848665441,
				"element": "C" 
			},
			{
				"x": 3.971151192,
				"y": -2.3752938854,
				"z": 0.4287246264,
				"element": "C" 
			},
			{
				"x": 5.1935731275,
				"y": -3.029394101,
				"z": 0.5214189005,
				"element": "C" 
			},
			{
				"x": 6.1491395265,
				"y": -2.6179073577,
				"z": 1.4603510666,
				"element": "C" 
			},
			{
				"x": 5.8773024218,
				"y": -1.5453526112,
				"z": 2.3115133061,
				"element": "C" 
			},
			{
				"x": 4.653007498,
				"y": -0.8851100994,
				"z": 2.2242889324,
				"element": "C" 
			},
			{
				"x": 1.6001219719,
				"y": 3.1843836444,
				"z": 2.9086759142,
				"element": "H" 
			},
			{
				"x": 1.2034816338,
				"y": 3.4623548877,
				"z": 1.2063814223,
				"element": "H" 
			},
			{
				"x": 1.3443716154,
				"y": 4.8391595108,
				"z": 2.3415986164,
				"element": "H" 
			},
			{
				"x": -2.2217802948,
				"y": 2.8892197795,
				"z": 2.3370203727,
				"element": "H" 
			},
			{
				"x": -2.9156241275,
				"y": 1.7541316724,
				"z": 0.3288466261,
				"element": "H" 
			},
			{
				"x": -3.0826859022,
				"y": 0.4399677186,
				"z": -2.092936935,
				"element": "H" 
			},
			{
				"x": -4.4757204134,
				"y": -2.8000991658,
				"z": 0.0196893626,
				"element": "H" 
			},
			{
				"x": -3.3602493153,
				"y": -1.6831307496,
				"z": 0.8605024077,
				"element": "H" 
			},
			{
				"x": -2.726999996,
				"y": -2.8732458158,
				"z": -0.2795180264,
				"element": "H" 
			},
			{
				"x": -1.0467412605,
				"y": -1.7385079108,
				"z": -2.2236471029,
				"element": "H" 
			},
			{
				"x": 0.6943498348,
				"y": -1.6402424323,
				"z": -1.8733210248,
				"element": "H" 
			},
			{
				"x": -0.3293323645,
				"y": -2.6886354446,
				"z": -0.9121246353,
				"element": "H" 
			},
			{
				"x": 1.007061371,
				"y": 1.1553538837,
				"z": 2.0146046022,
				"element": "H" 
			},
			{
				"x": 3.2192627318,
				"y": -2.6794856457,
				"z": -0.2900211212,
				"element": "H" 
			},
			{
				"x": 5.4094050914,
				"y": -3.8651295096,
				"z": -0.1380821385,
				"element": "H" 
			},
			{
				"x": 7.1018279092,
				"y": -3.1354740384,
				"z": 1.5253274658,
				"element": "H" 
			},
			{
				"x": 6.615917781,
				"y": -1.2253462831,
				"z": 3.0402111986,
				"element": "H" 
			},
			{
				"x": 4.4113930625,
				"y": -0.0486799502,
				"z": 2.8723619081,
				"element": "H" 
			}
		],
		 "valence_orbital": [ 
			{
				"type": "occ",
				"energy": -0.25755,
				"method": "rhf"
			},
			{
				"type": "occ",
				"energy": -0.2526,
				"method": "rhf"
			},
			{
				"type": "occ",
				"energy": -0.24175,
				"method": "rhf"
			},
			{
				"type": "occ",
				"energy": -0.23828,
				"method": "rhf"
			},
			{
				"type": "occ",
				"energy": -0.22999,
				"method": "rhf"
			},
			{
				"type": "unocc",
				"energy": -0.09705,
				"method": "rhf"
			},
			{
				"type": "unocc",
				"energy": -0.0255,
				"method": "rhf"
			},
			{
				"type": "unocc",
				"energy": -0.01605,
				"method": "rhf"
			},
			{
				"type": "unocc",
				"energy": -0.01155,
				"method": "rhf"
			},
			{
				"type": "unocc",
				"energy": 0.02014,
				"method": "rhf"
			}
		],
		"cosmo_sigma_profile": { 
			"-0.025": 0.0,
			"-0.024": 0.0,
			"-0.023": 0.0,
			"-0.022": 0.0,
			"-0.021": 0.0,
			"-0.02": 0.0,
			"-0.019": 0.0,
			"-0.018": 0.0,
			"-0.017": 0.0,
			"-0.016": 0.0,
			"-0.015": 0.127510825945,
			"-0.014": 1.6960729573,
			"-0.013": 2.16826790698,
			"-0.012": 1.98632287875,
			"-0.011": 2.1420909919,
			"-0.01": 2.21713896518,
			"-0.009": 2.63089517839,
			"-0.008": 3.68381800431,
			"-0.007": 6.7112502358,
			"-0.006": 15.1919994073,
			"-0.005": 24.7442404629,
			"-0.004": 29.9369088422,
			"-0.003": 29.8303337284,
			"-0.002": 32.4517828072,
			"-0.001": 30.06995366,
			"0.0": 27.6024102926,
			"0.001": 30.9710493178,
			"0.002": 32.4296381575,
			"0.003": 22.0825362513,
			"0.004": 17.4763215,
			"0.005": 7.97648725864,
			"0.006": 4.17630999942,
			"0.007": 3.89904872212,
			"0.008": 2.72286435618,
			"0.009": 2.41969234755,
			"0.01": 2.74658327333,
			"0.011": 3.16660957607,
			"0.012": 4.50405028612,
			"0.013": 9.92744891984,
			"0.014": 8.0325104964,
			"0.015": 1.15464671665,
			"0.016": 0.0,
			"0.017": 0.0,
			"0.018": 0.0,
			"0.019": 0.0,
			"0.02": 0.0,
			"0.021": 0.0,
			"0.022": 0.0,
			"0.023": 0.0,
			"0.024": 0.0,
			"0.025": 0.0
		}
	}
}
