{
	 "smiles": "ClC12C3(Cl)C4(Cl)C5(Cl)C(Cl)(C1(Cl)C4(Cl)Cl)C2(Cl)C(Cl)(Cl)C35Cl", 
	 "Tm": 758.15, 
	 "num_atms": 22, 
	 "gaussian": { 
		 "optdone": 1, 
		 "sigma_profile": "yes", 
		 "theory": "DFT", 
		 "functional": "B3LYP", 
		 "basiset": "6-31G**", 
		 "properties": { 
			 "R2extent": 10251.4768, 
			 "electric_dipole_moment_norm": 0.0, 
			 "electric_quadrupole_moment_norm": 3.84010424728, 
			 "total_energy": -5903.24900675, 
			 "HOMO_LUMO_gap": 0.21938, 
			 "cosmo_polarized_energy": -3.22, 
			 "cosmo_cavitation_energy": 40.77, 
			 "cosmo_dispersion_energy": -28.68, 
			 "cosmo_repulsion_energy": 2.07, 
			 "cosmo_total_nonelectrostatic_energy": 14.16, 
			 "SMD_solvation_energy": 3.49 
		},
		"coords": [
			{
				"x": 1.9483001895,
				"y": -1.2279682135,
				"z": -3.2123011545,
				"element": "Cl" 
			},
			{
				"x": 1.4415898553,
				"y": -0.5333133371,
				"z": -1.6880135739,
				"element": "C" 
			},
			{
				"x": 0.8211962719,
				"y": 0.9502055998,
				"z": -1.7248365256,
				"element": "C" 
			},
			{
				"x": 0.7098161666,
				"y": 1.7336112745,
				"z": -3.2858053359,
				"element": "Cl" 
			},
			{
				"x": 1.576100817,
				"y": 1.6617221468,
				"z": -0.5376108875,
				"element": "C" 
			},
			{
				"x": 1.5462308174,
				"y": 3.4146898572,
				"z": -0.4910502127,
				"element": "Cl" 
			},
			{
				"x": 0.5515948952,
				"y": 0.8896814096,
				"z": 0.3789219571,
				"element": "C" 
			},
			{
				"x": 0.0448861225,
				"y": 1.584333749,
				"z": 1.9032094383,
				"element": "Cl" 
			},
			{
				"x": 1.1719880513,
				"y": -0.5938353807,
				"z": 0.4157419157,
				"element": "C" 
			},
			{
				"x": 1.2833704034,
				"y": -1.3772465156,
				"z": 1.9767105275,
				"element": "Cl" 
			},
			{
				"x": 2.4571741044,
				"y": -0.445089195,
				"z": -0.4852994941,
				"element": "C" 
			},
			{
				"x": 3.6826461242,
				"y": -1.6939037691,
				"z": -0.3641983876,
				"element": "Cl" 
			},
			{
				"x": 2.9504606004,
				"y": 1.0020944543,
				"z": -0.3804596412,
				"element": "C" 
			},
			{
				"x": 4.0688763225,
				"y": 1.4368115736,
				"z": -1.7057644985,
				"element": "Cl" 
			},
			{
				"x": 3.6956779086,
				"y": 1.3531412379,
				"z": 1.2062497976,
				"element": "Cl" 
			},
			{
				"x": 0.4170780242,
				"y": -1.3053541243,
				"z": -0.7714807247,
				"element": "C" 
			},
			{
				"x": 0.446940031,
				"y": -3.0583176788,
				"z": -0.8180433188,
				"element": "Cl" 
			},
			{
				"x": -0.9572795197,
				"y": -0.6457163483,
				"z": -0.9286312876,
				"element": "C" 
			},
			{
				"x": -1.7025052578,
				"y": -0.9967615154,
				"z": -2.5153360986,
				"element": "Cl" 
			},
			{
				"x": -2.0756953863,
				"y": -1.0804283909,
				"z": 0.3966811538,
				"element": "Cl" 
			},
			{
				"x": -0.4639900589,
				"y": 0.8014602796,
				"z": -0.823791631,
				"element": "C" 
			},
			{
				"x": -1.6894564828,
				"y": 2.0502828865,
				"z": -0.9448920178,
				"element": "Cl" 
			}
		],
		 "valence_orbital": [ 
			{
				"type": "occ",
				"energy": -0.32164,
				"method": "rhf"
			},
			{
				"type": "occ",
				"energy": -0.32119,
				"method": "rhf"
			},
			{
				"type": "occ",
				"energy": -0.31915,
				"method": "rhf"
			},
			{
				"type": "occ",
				"energy": -0.31566,
				"method": "rhf"
			},
			{
				"type": "occ",
				"energy": -0.3065,
				"method": "rhf"
			},
			{
				"type": "unocc",
				"energy": -0.08712,
				"method": "rhf"
			},
			{
				"type": "unocc",
				"energy": -0.04356,
				"method": "rhf"
			},
			{
				"type": "unocc",
				"energy": -0.03842,
				"method": "rhf"
			},
			{
				"type": "unocc",
				"energy": -0.03726,
				"method": "rhf"
			},
			{
				"type": "unocc",
				"energy": -0.02615,
				"method": "rhf"
			}
		],
		"cosmo_sigma_profile": { 
			"-0.025": 0.0,
			"-0.024": 0.0,
			"-0.023": 0.0,
			"-0.022": 0.0,
			"-0.021": 0.0,
			"-0.02": 0.0,
			"-0.019": 0.0,
			"-0.018": 0.0,
			"-0.017": 0.0,
			"-0.016": 0.0,
			"-0.015": 0.0,
			"-0.014": 0.0,
			"-0.013": 0.0,
			"-0.012": 0.0,
			"-0.011": 0.0,
			"-0.01": 0.0,
			"-0.009": 0.0,
			"-0.008": 0.0,
			"-0.007": 0.0,
			"-0.006": 2.66726423972,
			"-0.005": 14.3793416505,
			"-0.004": 17.5395939102,
			"-0.003": 19.6941387591,
			"-0.002": 22.7426864149,
			"-0.001": 30.8648320444,
			"0.0": 42.2565366642,
			"0.001": 82.5259623576,
			"0.002": 105.026343134,
			"0.003": 12.3581631817,
			"0.004": 0.0,
			"0.005": 0.0,
			"0.006": 0.0,
			"0.007": 0.0,
			"0.008": 0.0,
			"0.009": 0.0,
			"0.01": 0.0,
			"0.011": 0.0,
			"0.012": 0.0,
			"0.013": 0.0,
			"0.014": 0.0,
			"0.015": 0.0,
			"0.016": 0.0,
			"0.017": 0.0,
			"0.018": 0.0,
			"0.019": 0.0,
			"0.02": 0.0,
			"0.021": 0.0,
			"0.022": 0.0,
			"0.023": 0.0,
			"0.024": 0.0,
			"0.025": 0.0
		}
	}
}
