{
	 "smiles": "CC1=CC(C=O)=NO1", 
	 "Tm": 305.15, 
	 "num_atms": 13, 
	 "gaussian": { 
		 "optdone": 1, 
		 "sigma_profile": "yes", 
		 "theory": "DFT", 
		 "functional": "B3LYP", 
		 "basiset": "6-31G**", 
		 "properties": { 
			 "R2extent": 1037.8457, 
			 "electric_dipole_moment_norm": 5.55696625417, 
			 "electric_quadrupole_moment_norm": 3.74721466425, 
			 "total_energy": -398.672971441, 
			 "HOMO_LUMO_gap": 0.19403, 
			 "cosmo_polarized_energy": -12.33, 
			 "cosmo_cavitation_energy": 18.28, 
			 "cosmo_dispersion_energy": -13.38, 
			 "cosmo_repulsion_energy": 1.13, 
			 "cosmo_total_nonelectrostatic_energy": 6.02, 
			 "SMD_solvation_energy": 4.62 
		},
		"coords": [
			{
				"x": -0.2946488926,
				"y": -2.8290890833,
				"z": -0.648563465,
				"element": "C" 
			},
			{
				"x": -0.0979479455,
				"y": -1.4047340283,
				"z": -0.2639005712,
				"element": "C" 
			},
			{
				"x": 0.3404397487,
				"y": -0.2934901561,
				"z": -0.9194941495,
				"element": "C" 
			},
			{
				"x": 0.271865025,
				"y": 0.7362785684,
				"z": 0.0653141992,
				"element": "C" 
			},
			{
				"x": 0.6386911465,
				"y": 2.1648841406,
				"z": -0.117962454,
				"element": "C" 
			},
			{
				"x": 0.5698721152,
				"y": 3.0163270918,
				"z": 0.7398765239,
				"element": "O" 
			},
			{
				"x": -0.1726150651,
				"y": 0.2812265863,
				"z": 1.2227970253,
				"element": "N" 
			},
			{
				"x": -0.4051293595,
				"y": -1.0674747997,
				"z": 1.0135942462,
				"element": "O" 
			},
			{
				"x": -0.0157524437,
				"y": -2.9781812977,
				"z": -1.6933451888,
				"element": "H" 
			},
			{
				"x": -1.340338409,
				"y": -3.1265797217,
				"z": -0.5195443261,
				"element": "H" 
			},
			{
				"x": 0.317436761,
				"y": -3.4890110525,
				"z": -0.0252911608,
				"element": "H" 
			},
			{
				"x": 0.6642948605,
				"y": -0.212013146,
				"z": -1.9459618845,
				"element": "H" 
			},
			{
				"x": 0.9966324586,
				"y": 2.399356898,
				"z": -1.1442187946,
				"element": "H" 
			}
		],
		 "valence_orbital": [ 
			{
				"type": "occ",
				"energy": -0.39956,
				"method": "rhf"
			},
			{
				"type": "occ",
				"energy": -0.31666,
				"method": "rhf"
			},
			{
				"type": "occ",
				"energy": -0.3089,
				"method": "rhf"
			},
			{
				"type": "occ",
				"energy": -0.2721,
				"method": "rhf"
			},
			{
				"type": "occ",
				"energy": -0.26688,
				"method": "rhf"
			},
			{
				"type": "unocc",
				"energy": -0.07285,
				"method": "rhf"
			},
			{
				"type": "unocc",
				"energy": -0.00302,
				"method": "rhf"
			},
			{
				"type": "unocc",
				"energy": 0.07934,
				"method": "rhf"
			},
			{
				"type": "unocc",
				"energy": 0.0898,
				"method": "rhf"
			},
			{
				"type": "unocc",
				"energy": 0.10314,
				"method": "rhf"
			}
		],
		"cosmo_sigma_profile": { 
			"-0.025": 0.0,
			"-0.024": 0.0,
			"-0.023": 0.0,
			"-0.022": 0.0,
			"-0.021": 0.0,
			"-0.02": 0.0,
			"-0.019": 0.0,
			"-0.018": 0.0,
			"-0.017": 0.0,
			"-0.016": 0.0,
			"-0.015": 0.0,
			"-0.014": 0.0,
			"-0.013": 0.0,
			"-0.012": 0.0,
			"-0.011": 0.0,
			"-0.01": 0.104036969772,
			"-0.009": 3.39112194144,
			"-0.008": 5.74215584496,
			"-0.007": 8.09903462754,
			"-0.006": 12.1102437324,
			"-0.005": 10.1617952227,
			"-0.004": 10.8411635101,
			"-0.003": 11.7208140108,
			"-0.002": 13.6338317925,
			"-0.001": 8.26626813022,
			"0.0": 7.3918047728,
			"0.001": 6.60179625447,
			"0.002": 3.98912650442,
			"0.003": 3.03384741412,
			"0.004": 3.12248413807,
			"0.005": 2.98816627977,
			"0.006": 5.25614629919,
			"0.007": 6.2724307577,
			"0.008": 4.12110589483,
			"0.009": 3.92129696605,
			"0.01": 5.61508495919,
			"0.011": 6.16083023883,
			"0.012": 2.63642639041,
			"0.013": 1.31605939565,
			"0.014": 0.175743590104,
			"0.015": 0.0,
			"0.016": 0.0,
			"0.017": 0.0,
			"0.018": 0.0,
			"0.019": 0.0,
			"0.02": 0.0,
			"0.021": 0.0,
			"0.022": 0.0,
			"0.023": 0.0,
			"0.024": 0.0,
			"0.025": 0.0
		}
	}
}
