{
	 "smiles": "NCC1=NC=C(N1)C1=CC=CC=C1", 
	 "Tm": 416.15, 
	 "num_atms": 24, 
	 "gaussian": { 
		 "optdone": 1, 
		 "sigma_profile": "yes", 
		 "theory": "DFT", 
		 "functional": "B3LYP", 
		 "basiset": "6-31G**", 
		 "properties": { 
			 "R2extent": 3933.4006, 
			 "electric_dipole_moment_norm": 3.11781793407, 
			 "electric_quadrupole_moment_norm": 9.73731264878, 
			 "total_energy": -551.95009778, 
			 "HOMO_LUMO_gap": 0.17887, 
			 "cosmo_polarized_energy": -15.03, 
			 "cosmo_cavitation_energy": 27.98, 
			 "cosmo_dispersion_energy": -20.68, 
			 "cosmo_repulsion_energy": 1.64, 
			 "cosmo_total_nonelectrostatic_energy": 8.94, 
			 "SMD_solvation_energy": 1.62 
		},
		"coords": [
			{
				"x": 4.1888445993,
				"y": -0.2328192344,
				"z": -2.5291269791,
				"element": "N" 
			},
			{
				"x": 2.799286393,
				"y": 0.1718903095,
				"z": -2.3591852416,
				"element": "C" 
			},
			{
				"x": 2.3800787453,
				"y": 0.4111863651,
				"z": -0.9267870245,
				"element": "C" 
			},
			{
				"x": 3.1546070702,
				"y": 0.2548958714,
				"z": 0.1297013333,
				"element": "N" 
			},
			{
				"x": 2.368807994,
				"y": 0.5620869786,
				"z": 1.2155012431,
				"element": "C" 
			},
			{
				"x": 1.0922797494,
				"y": 0.9162621349,
				"z": 0.8270895127,
				"element": "C" 
			},
			{
				"x": 1.1269893215,
				"y": 0.8220955817,
				"z": -0.559700818,
				"element": "N" 
			},
			{
				"x": -0.0883456372,
				"y": 1.3337729574,
				"z": 1.5803475975,
				"element": "C" 
			},
			{
				"x": -0.2342537337,
				"y": 0.9605398179,
				"z": 2.9295628756,
				"element": "C" 
			},
			{
				"x": -1.3472432378,
				"y": 1.3609953404,
				"z": 3.6636207956,
				"element": "C" 
			},
			{
				"x": -2.3494819533,
				"y": 2.1304373396,
				"z": 3.0665647641,
				"element": "C" 
			},
			{
				"x": -2.2204833504,
				"y": 2.5034126923,
				"z": 1.727881149,
				"element": "C" 
			},
			{
				"x": -1.1003422603,
				"y": 2.115686295,
				"z": 0.9941088305,
				"element": "C" 
			},
			{
				"x": 4.3499658905,
				"y": -1.0625723797,
				"z": -1.9611276388,
				"element": "H" 
			},
			{
				"x": 4.7817122695,
				"y": 0.4770537754,
				"z": -2.1029712756,
				"element": "H" 
			},
			{
				"x": 2.154502763,
				"y": -0.5983966337,
				"z": -2.8054678524,
				"element": "H" 
			},
			{
				"x": 2.6251596433,
				"y": 1.0830641703,
				"z": -2.9482721641,
				"element": "H" 
			},
			{
				"x": 2.76807979,
				"y": 0.5424440678,
				"z": 2.220192328,
				"element": "H" 
			},
			{
				"x": 0.3352234206,
				"y": 0.9406686808,
				"z": -1.1734137784,
				"element": "H" 
			},
			{
				"x": 0.5243267009,
				"y": 0.3374867927,
				"z": 3.3933503687,
				"element": "H" 
			},
			{
				"x": -1.439309951,
				"y": 1.0605283568,
				"z": 4.7035065081,
				"element": "H" 
			},
			{
				"x": -3.2205744807,
				"y": 2.43531974,
				"z": 3.6387253842,
				"element": "H" 
			},
			{
				"x": -2.9884844589,
				"y": 3.1084494226,
				"z": 1.2542894827,
				"element": "H" 
			},
			{
				"x": -0.9999452873,
				"y": 2.4505115577,
				"z": -0.0351894009,
				"element": "H" 
			}
		],
		 "valence_orbital": [ 
			{
				"type": "occ",
				"energy": -0.2716,
				"method": "rhf"
			},
			{
				"type": "occ",
				"energy": -0.26602,
				"method": "rhf"
			},
			{
				"type": "occ",
				"energy": -0.25611,
				"method": "rhf"
			},
			{
				"type": "occ",
				"energy": -0.2414,
				"method": "rhf"
			},
			{
				"type": "occ",
				"energy": -0.20416,
				"method": "rhf"
			},
			{
				"type": "unocc",
				"energy": -0.02529,
				"method": "rhf"
			},
			{
				"type": "unocc",
				"energy": -0.00696,
				"method": "rhf"
			},
			{
				"type": "unocc",
				"energy": 0.04304,
				"method": "rhf"
			},
			{
				"type": "unocc",
				"energy": 0.06612,
				"method": "rhf"
			},
			{
				"type": "unocc",
				"energy": 0.08247,
				"method": "rhf"
			}
		],
		"cosmo_sigma_profile": { 
			"-0.025": 0.0,
			"-0.024": 0.0,
			"-0.023": 0.0,
			"-0.022": 0.0,
			"-0.021": 0.0,
			"-0.02": 0.0,
			"-0.019": 0.0,
			"-0.018": 0.0,
			"-0.017": 0.0,
			"-0.016": 0.496077283229,
			"-0.015": 1.23009354948,
			"-0.014": 1.38434129905,
			"-0.013": 1.47746854929,
			"-0.012": 1.34574306386,
			"-0.011": 1.72441694917,
			"-0.01": 1.88633617799,
			"-0.009": 2.99120095241,
			"-0.008": 3.24886322019,
			"-0.007": 4.86698544119,
			"-0.006": 11.0933973589,
			"-0.005": 20.8976387499,
			"-0.004": 19.587579406,
			"-0.003": 16.2977363172,
			"-0.002": 11.89307986,
			"-0.001": 11.0793916053,
			"0.0": 11.0476249734,
			"0.001": 9.58297335947,
			"0.002": 12.4665325292,
			"0.003": 15.2152936279,
			"0.004": 15.6676245328,
			"0.005": 14.8816968465,
			"0.006": 9.89767936108,
			"0.007": 3.15438675353,
			"0.008": 2.17715256627,
			"0.009": 2.09065555007,
			"0.01": 2.36089811879,
			"0.011": 1.52701891329,
			"0.012": 2.10140129985,
			"0.013": 1.74511162333,
			"0.014": 1.35855470986,
			"0.015": 1.49944817308,
			"0.016": 1.31923714998,
			"0.017": 1.44600074864,
			"0.018": 0.853949476465,
			"0.019": 0.479088738418,
			"0.02": 0.0563177620492,
			"0.021": 0.0,
			"0.022": 0.0,
			"0.023": 0.0,
			"0.024": 0.0,
			"0.025": 0.0
		}
	}
}
