{
	 "smiles": "CC1=NN(C(N)=C1C(F)(F)F)C1=CC=CC=C1", 
	 "Tm": 351.15, 
	 "num_atms": 27, 
	 "gaussian": { 
		 "optdone": 1, 
		 "sigma_profile": "yes", 
		 "theory": "DFT", 
		 "functional": "B3LYP", 
		 "basiset": "6-31G**", 
		 "properties": { 
			 "R2extent": 5351.208, 
			 "electric_dipole_moment_norm": 3.42878811681, 
			 "electric_quadrupole_moment_norm": 7.13135908085, 
			 "total_energy": -888.972415145, 
			 "HOMO_LUMO_gap": 0.19612, 
			 "cosmo_polarized_energy": -10.22, 
			 "cosmo_cavitation_energy": 32.03, 
			 "cosmo_dispersion_energy": -22.97, 
			 "cosmo_repulsion_energy": 1.72, 
			 "cosmo_total_nonelectrostatic_energy": 10.78, 
			 "SMD_solvation_energy": 5.72 
		},
		"coords": [
			{
				"x": 0.758538806,
				"y": 3.5879523523,
				"z": -2.3696584542,
				"element": "C" 
			},
			{
				"x": 0.7932326095,
				"y": 2.2544400306,
				"z": -1.6907973637,
				"element": "C" 
			},
			{
				"x": -0.3208613107,
				"y": 1.5881789129,
				"z": -1.4486730622,
				"element": "N" 
			},
			{
				"x": 0.0777983769,
				"y": 0.4129790474,
				"z": -0.8434975292,
				"element": "N" 
			},
			{
				"x": 1.4358717462,
				"y": 0.3605246596,
				"z": -0.6823808812,
				"element": "C" 
			},
			{
				"x": 2.092087957,
				"y": -0.7129794456,
				"z": -0.1108266035,
				"element": "N" 
			},
			{
				"x": 1.9358626474,
				"y": 1.539108024,
				"z": -1.2277171896,
				"element": "C" 
			},
			{
				"x": 3.347151572,
				"y": 1.9591167263,
				"z": -1.3358859356,
				"element": "C" 
			},
			{
				"x": 3.5268832575,
				"y": 3.2520498619,
				"z": -0.973791235,
				"element": "F" 
			},
			{
				"x": 4.162612039,
				"y": 1.2079032908,
				"z": -0.5353943503,
				"element": "F" 
			},
			{
				"x": 3.8468778909,
				"y": 1.8515474366,
				"z": -2.5920722179,
				"element": "F" 
			},
			{
				"x": -0.9081278866,
				"y": -0.5139082189,
				"z": -0.4120144039,
				"element": "C" 
			},
			{
				"x": -0.6821514725,
				"y": -1.8944191995,
				"z": -0.4894250684,
				"element": "C" 
			},
			{
				"x": -1.6710492556,
				"y": -2.778315228,
				"z": -0.0532903186,
				"element": "C" 
			},
			{
				"x": -2.8857276397,
				"y": -2.2977286441,
				"z": 0.4355588545,
				"element": "C" 
			},
			{
				"x": -3.1121016448,
				"y": -0.9194061892,
				"z": 0.4849070784,
				"element": "C" 
			},
			{
				"x": -2.1293143318,
				"y": -0.0248561996,
				"z": 0.0690615418,
				"element": "C" 
			},
			{
				"x": 1.1616760903,
				"y": 4.3712195967,
				"z": -1.7200263019,
				"element": "H" 
			},
			{
				"x": -0.270539754,
				"y": 3.8389818132,
				"z": -2.633096615,
				"element": "H" 
			},
			{
				"x": 1.3653321554,
				"y": 3.5794909437,
				"z": -3.2814000444,
				"element": "H" 
			},
			{
				"x": 3.0438656323,
				"y": -0.4898739839,
				"z": 0.1464815983,
				"element": "H" 
			},
			{
				"x": 1.5813914215,
				"y": -1.1809584422,
				"z": 0.6275929607,
				"element": "H" 
			},
			{
				"x": 0.2435660917,
				"y": -2.270909998,
				"z": -0.9099631679,
				"element": "H" 
			},
			{
				"x": -1.492310525,
				"y": -3.847767637,
				"z": -0.1156423552,
				"element": "H" 
			},
			{
				"x": -3.653395573,
				"y": -2.9899731241,
				"z": 0.7676766509,
				"element": "H" 
			},
			{
				"x": -4.0583216036,
				"y": -0.5363142183,
				"z": 0.8556488866,
				"element": "H" 
			},
			{
				"x": -2.2902472962,
				"y": 1.0461178324,
				"z": 0.0958255262,
				"element": "H" 
			}
		],
		 "valence_orbital": [ 
			{
				"type": "occ",
				"energy": -0.29021,
				"method": "rhf"
			},
			{
				"type": "occ",
				"energy": -0.28648,
				"method": "rhf"
			},
			{
				"type": "occ",
				"energy": -0.2624,
				"method": "rhf"
			},
			{
				"type": "occ",
				"energy": -0.23336,
				"method": "rhf"
			},
			{
				"type": "occ",
				"energy": -0.21864,
				"method": "rhf"
			},
			{
				"type": "unocc",
				"energy": -0.02252,
				"method": "rhf"
			},
			{
				"type": "unocc",
				"energy": -0.01438,
				"method": "rhf"
			},
			{
				"type": "unocc",
				"energy": 0.03741,
				"method": "rhf"
			},
			{
				"type": "unocc",
				"energy": 0.04454,
				"method": "rhf"
			},
			{
				"type": "unocc",
				"energy": 0.08146,
				"method": "rhf"
			}
		],
		"cosmo_sigma_profile": { 
			"-0.025": 0.0,
			"-0.024": 0.0,
			"-0.023": 0.0,
			"-0.022": 0.0,
			"-0.021": 0.0,
			"-0.02": 0.0,
			"-0.019": 0.0,
			"-0.018": 0.0,
			"-0.017": 0.0,
			"-0.016": 0.0,
			"-0.015": 0.0,
			"-0.014": 0.311505410468,
			"-0.013": 0.925498587253,
			"-0.012": 2.00802574916,
			"-0.011": 2.2863508341,
			"-0.01": 1.93987547884,
			"-0.009": 2.47952005464,
			"-0.008": 2.07980520381,
			"-0.007": 2.5247881956,
			"-0.006": 10.0266655655,
			"-0.005": 14.2567140909,
			"-0.004": 18.4708823341,
			"-0.003": 15.9656300339,
			"-0.002": 18.0437188808,
			"-0.001": 17.4989317392,
			"0.0": 20.2578822532,
			"0.001": 20.1377384825,
			"0.002": 24.1908328838,
			"0.003": 37.9497010395,
			"0.004": 20.8363642126,
			"0.005": 9.54971120589,
			"0.006": 2.80594032262,
			"0.007": 1.96095680838,
			"0.008": 2.14426084782,
			"0.009": 1.82368138066,
			"0.01": 1.7168396511,
			"0.011": 1.47201323316,
			"0.012": 0.862395230787,
			"0.013": 0.629906245305,
			"0.014": 0.875589245597,
			"0.015": 0.300638385605,
			"0.016": 0.0,
			"0.017": 0.0,
			"0.018": 0.0,
			"0.019": 0.0,
			"0.02": 0.0,
			"0.021": 0.0,
			"0.022": 0.0,
			"0.023": 0.0,
			"0.024": 0.0,
			"0.025": 0.0
		}
	}
}
