{
	 "smiles": "CC(=O)C1=C(C)NC2=C1C=CC=C2", 
	 "Tm": 469.15, 
	 "num_atms": 24, 
	 "gaussian": { 
		 "optdone": 1, 
		 "sigma_profile": "yes", 
		 "theory": "DFT", 
		 "functional": "B3LYP", 
		 "basiset": "6-31G**", 
		 "properties": { 
			 "R2extent": 2575.6626, 
			 "electric_dipole_moment_norm": 3.35602283216, 
			 "electric_quadrupole_moment_norm": 14.5627378466, 
			 "total_energy": -555.797889518, 
			 "HOMO_LUMO_gap": 0.17928, 
			 "cosmo_polarized_energy": -13.18, 
			 "cosmo_cavitation_energy": 27.12, 
			 "cosmo_dispersion_energy": -20.02, 
			 "cosmo_repulsion_energy": 1.56, 
			 "cosmo_total_nonelectrostatic_energy": 8.66, 
			 "SMD_solvation_energy": 4.87 
		},
		"coords": [
			{
				"x": 1.7815486049,
				"y": 1.0156481156,
				"z": -1.3135597907,
				"element": "C" 
			},
			{
				"x": 1.5907621049,
				"y": -0.3565479465,
				"z": -0.6874657111,
				"element": "C" 
			},
			{
				"x": 2.3560367392,
				"y": -1.2744382219,
				"z": -0.9828023483,
				"element": "O" 
			},
			{
				"x": 0.4903707208,
				"y": -0.5562035819,
				"z": 0.2615503857,
				"element": "C" 
			},
			{
				"x": 0.2523668082,
				"y": -1.7861270383,
				"z": 0.8764240501,
				"element": "C" 
			},
			{
				"x": 0.9721776251,
				"y": -3.0881499461,
				"z": 0.7499959941,
				"element": "C" 
			},
			{
				"x": -0.8321655783,
				"y": -1.6628588309,
				"z": 1.7014818472,
				"element": "N" 
			},
			{
				"x": -1.3346832138,
				"y": -0.3715366192,
				"z": 1.6578098191,
				"element": "C" 
			},
			{
				"x": -0.5223787828,
				"y": 0.3643358573,
				"z": 0.75396425,
				"element": "C" 
			},
			{
				"x": -0.8428007545,
				"y": 1.7183260786,
				"z": 0.5429111309,
				"element": "C" 
			},
			{
				"x": -1.9248198243,
				"y": 2.2778186107,
				"z": 1.2154710464,
				"element": "C" 
			},
			{
				"x": -2.7091794432,
				"y": 1.5206623079,
				"z": 2.1043750732,
				"element": "C" 
			},
			{
				"x": -2.4217723848,
				"y": 0.1798684036,
				"z": 2.337220638,
				"element": "C" 
			},
			{
				"x": 0.8908367285,
				"y": 1.3164433944,
				"z": -1.876385468,
				"element": "H" 
			},
			{
				"x": 1.955639502,
				"y": 1.776214603,
				"z": -0.544253199,
				"element": "H" 
			},
			{
				"x": 2.6395677593,
				"y": 0.9765300121,
				"z": -1.9859312071,
				"element": "H" 
			},
			{
				"x": 0.9722246141,
				"y": -3.4313332168,
				"z": -0.2879032749,
				"element": "H" 
			},
			{
				"x": 0.5118910791,
				"y": -3.8545307096,
				"z": 1.382646393,
				"element": "H" 
			},
			{
				"x": 2.0238994242,
				"y": -2.9775774627,
				"z": 1.0268810908,
				"element": "H" 
			},
			{
				"x": -1.2071772111,
				"y": -2.4136623807,
				"z": 2.2606451151,
				"element": "H" 
			},
			{
				"x": -0.2607380011,
				"y": 2.3317821439,
				"z": -0.1345980232,
				"element": "H" 
			},
			{
				"x": -2.1693927081,
				"y": 3.3230763303,
				"z": 1.0503357104,
				"element": "H" 
			},
			{
				"x": -3.5470989778,
				"y": 1.9865598662,
				"z": 2.6139809253,
				"element": "H" 
			},
			{
				"x": -3.0201148304,
				"y": -0.4153997694,
				"z": 3.0214055528,
				"element": "H" 
			}
		],
		 "valence_orbital": [ 
			{
				"type": "occ",
				"energy": -0.33458,
				"method": "rhf"
			},
			{
				"type": "occ",
				"energy": -0.2771,
				"method": "rhf"
			},
			{
				"type": "occ",
				"energy": -0.23041,
				"method": "rhf"
			},
			{
				"type": "occ",
				"energy": -0.22758,
				"method": "rhf"
			},
			{
				"type": "occ",
				"energy": -0.20803,
				"method": "rhf"
			},
			{
				"type": "unocc",
				"energy": -0.02875,
				"method": "rhf"
			},
			{
				"type": "unocc",
				"energy": -0.00132,
				"method": "rhf"
			},
			{
				"type": "unocc",
				"energy": 0.02349,
				"method": "rhf"
			},
			{
				"type": "unocc",
				"energy": 0.07067,
				"method": "rhf"
			},
			{
				"type": "unocc",
				"energy": 0.09423,
				"method": "rhf"
			}
		],
		"cosmo_sigma_profile": { 
			"-0.025": 0.0,
			"-0.024": 0.0,
			"-0.023": 0.0,
			"-0.022": 0.0,
			"-0.021": 0.0,
			"-0.02": 0.0,
			"-0.019": 0.0,
			"-0.018": 0.0,
			"-0.017": 0.0,
			"-0.016": 0.946788649747,
			"-0.015": 1.54804028859,
			"-0.014": 1.41887614017,
			"-0.013": 1.30214717831,
			"-0.012": 1.41906503854,
			"-0.011": 1.68990864513,
			"-0.01": 1.31179202075,
			"-0.009": 1.73554551521,
			"-0.008": 1.09455015156,
			"-0.007": 2.01197158518,
			"-0.006": 5.16690488621,
			"-0.005": 15.2478246287,
			"-0.004": 18.041461286,
			"-0.003": 18.9311835146,
			"-0.002": 17.5703379849,
			"-0.001": 20.5462582275,
			"0.0": 15.1749657994,
			"0.001": 11.180887961,
			"0.002": 12.2734816287,
			"0.003": 12.6021805978,
			"0.004": 12.1918051646,
			"0.005": 11.6876198787,
			"0.006": 10.7869583785,
			"0.007": 4.64570045548,
			"0.008": 1.94606821453,
			"0.009": 1.81535754134,
			"0.01": 1.33958797195,
			"0.011": 1.80738993446,
			"0.012": 1.78033963907,
			"0.013": 2.92512423473,
			"0.014": 2.44563084189,
			"0.015": 1.01030389188,
			"0.016": 0.0,
			"0.017": 0.0,
			"0.018": 0.0,
			"0.019": 0.0,
			"0.02": 0.0,
			"0.021": 0.0,
			"0.022": 0.0,
			"0.023": 0.0,
			"0.024": 0.0,
			"0.025": 0.0
		}
	}
}
