{
	 "smiles": "CCCCSC(SCC1=CC=C(C=C1)C(C)(C)C)=NC1=CC=CN=C1", 
	 "Tm": 305.15, 
	 "num_atms": 53, 
	 "gaussian": { 
		 "optdone": 1, 
		 "sigma_profile": "yes", 
		 "theory": "DFT", 
		 "functional": "B3LYP", 
		 "basiset": "6-31G**", 
		 "properties": { 
			 "R2extent": 13710.7227, 
			 "electric_dipole_moment_norm": 4.29880781264, 
			 "electric_quadrupole_moment_norm": 22.9763582748, 
			 "total_energy": -1722.99717301, 
			 "HOMO_LUMO_gap": 0.18407, 
			 "cosmo_polarized_energy": -12.0, 
			 "cosmo_cavitation_energy": 57.34, 
			 "cosmo_dispersion_energy": -38.09, 
			 "cosmo_repulsion_energy": 2.94, 
			 "cosmo_total_nonelectrostatic_energy": 22.18, 
			 "SMD_solvation_energy": 6.74 
		},
		"coords": [
			{
				"x": 2.8364417102,
				"y": -3.3042570547,
				"z": 3.6766377515,
				"element": "C" 
			},
			{
				"x": 2.1520758115,
				"y": -2.608859278,
				"z": 2.4957280186,
				"element": "C" 
			},
			{
				"x": 2.3269407133,
				"y": -3.3743932003,
				"z": 1.1768554027,
				"element": "C" 
			},
			{
				"x": 1.5908116309,
				"y": -2.7751945139,
				"z": -0.02594155,
				"element": "C" 
			},
			{
				"x": 2.3173997239,
				"y": -1.1486020685,
				"z": -0.4928867803,
				"element": "S" 
			},
			{
				"x": 1.3467753894,
				"y": -0.7455117532,
				"z": -1.9316486024,
				"element": "C" 
			},
			{
				"x": 1.7306413337,
				"y": 0.8405960236,
				"z": -2.7117027953,
				"element": "S" 
			},
			{
				"x": 2.1301130206,
				"y": 1.9822989083,
				"z": -1.2993061503,
				"element": "C" 
			},
			{
				"x": 0.9496139751,
				"y": 2.4292162411,
				"z": -0.4758076375,
				"element": "C" 
			},
			{
				"x": -0.0485983159,
				"y": 3.2421495934,
				"z": -1.0234513049,
				"element": "C" 
			},
			{
				"x": -1.1262002709,
				"y": 3.676625376,
				"z": -0.2525605534,
				"element": "C" 
			},
			{
				"x": -1.2528379876,
				"y": 3.3188111445,
				"z": 1.0983012635,
				"element": "C" 
			},
			{
				"x": -0.2450583047,
				"y": 2.5037088336,
				"z": 1.6381205771,
				"element": "C" 
			},
			{
				"x": 0.8330149384,
				"y": 2.0660372169,
				"z": 0.8712049882,
				"element": "C" 
			},
			{
				"x": -2.4273598347,
				"y": 3.779104117,
				"z": 1.9808758378,
				"element": "C" 
			},
			{
				"x": -3.1895586451,
				"y": 2.5404033782,
				"z": 2.5092237969,
				"element": "C" 
			},
			{
				"x": -1.8830742964,
				"y": 4.5941984308,
				"z": 3.1783707602,
				"element": "C" 
			},
			{
				"x": -3.4259318392,
				"y": 4.6648614304,
				"z": 1.2117865173,
				"element": "C" 
			},
			{
				"x": 0.4961471291,
				"y": -1.5825419094,
				"z": -2.3770981558,
				"element": "N" 
			},
			{
				"x": -0.2708571441,
				"y": -1.420416947,
				"z": -3.536934605,
				"element": "C" 
			},
			{
				"x": -1.6628025923,
				"y": -1.5771525099,
				"z": -3.4708343406,
				"element": "C" 
			},
			{
				"x": -2.4070715665,
				"y": -1.4733916871,
				"z": -4.6409475324,
				"element": "C" 
			},
			{
				"x": -1.7393756781,
				"y": -1.2442297925,
				"z": -5.8462990789,
				"element": "C" 
			},
			{
				"x": -0.4093403843,
				"y": -1.1255609731,
				"z": -5.9344876463,
				"element": "N" 
			},
			{
				"x": 0.299713148,
				"y": -1.2125842585,
				"z": -4.8064602129,
				"element": "C" 
			},
			{
				"x": 2.6971529787,
				"y": -2.7417103482,
				"z": 4.6052435348,
				"element": "H" 
			},
			{
				"x": 3.9145611525,
				"y": -3.4043855004,
				"z": 3.5074005243,
				"element": "H" 
			},
			{
				"x": 2.4320832322,
				"y": -4.310828665,
				"z": 3.833512509,
				"element": "H" 
			},
			{
				"x": 2.5504535646,
				"y": -1.5922285018,
				"z": 2.3892990096,
				"element": "H" 
			},
			{
				"x": 1.079804201,
				"y": -2.4947332191,
				"z": 2.7042394742,
				"element": "H" 
			},
			{
				"x": 3.3949023104,
				"y": -3.4771249354,
				"z": 0.9441711982,
				"element": "H" 
			},
			{
				"x": 1.9453081503,
				"y": -4.3966205084,
				"z": 1.3041863752,
				"element": "H" 
			},
			{
				"x": 1.662291397,
				"y": -3.4223362282,
				"z": -0.9019345421,
				"element": "H" 
			},
			{
				"x": 0.5297666024,
				"y": -2.619281231,
				"z": 0.1865212834,
				"element": "H" 
			},
			{
				"x": 2.9112892969,
				"y": 1.5379840851,
				"z": -0.6809747511,
				"element": "H" 
			},
			{
				"x": 2.5797291416,
				"y": 2.8268930972,
				"z": -1.8317413894,
				"element": "H" 
			},
			{
				"x": 0.0106886794,
				"y": 3.5354481466,
				"z": -2.0686816072,
				"element": "H" 
			},
			{
				"x": -1.8729495845,
				"y": 4.3062164146,
				"z": -0.722531775,
				"element": "H" 
			},
			{
				"x": -0.2956509986,
				"y": 2.1997035903,
				"z": 2.6797122291,
				"element": "H" 
			},
			{
				"x": 1.5915913059,
				"y": 1.4332510585,
				"z": 1.322854371,
				"element": "H" 
			},
			{
				"x": -2.5433971285,
				"y": 1.8878193052,
				"z": 3.1038286541,
				"element": "H" 
			},
			{
				"x": -3.5929468049,
				"y": 1.9469567638,
				"z": 1.6821628083,
				"element": "H" 
			},
			{
				"x": -4.0264334247,
				"y": 2.8501643027,
				"z": 3.1454608316,
				"element": "H" 
			},
			{
				"x": -1.3435998599,
				"y": 5.4827609016,
				"z": 2.8343148958,
				"element": "H" 
			},
			{
				"x": -2.7070199106,
				"y": 4.9244580355,
				"z": 3.8211304104,
				"element": "H" 
			},
			{
				"x": -1.1967899598,
				"y": 4.0050637856,
				"z": 3.7938780187,
				"element": "H" 
			},
			{
				"x": -4.2407505032,
				"y": 4.9657238714,
				"z": 1.8782838713,
				"element": "H" 
			},
			{
				"x": -3.8723919794,
				"y": 4.1349675646,
				"z": 0.3639503251,
				"element": "H" 
			},
			{
				"x": -2.9546335068,
				"y": 5.5784896573,
				"z": 0.8347557455,
				"element": "H" 
			},
			{
				"x": -2.1323562353,
				"y": -1.7663117884,
				"z": -2.5105801837,
				"element": "H" 
			},
			{
				"x": -3.4880159653,
				"y": -1.5748154798,
				"z": -4.6233911479,
				"element": "H" 
			},
			{
				"x": -2.2941143422,
				"y": -1.1596789255,
				"z": -6.7788172118,
				"element": "H" 
			},
			{
				"x": 1.3816065268,
				"y": -1.1407599965,
				"z": -4.9035914291,
				"element": "H" 
			}
		],
		 "valence_orbital": [ 
			{
				"type": "occ",
				"energy": -0.25118,
				"method": "rhf"
			},
			{
				"type": "occ",
				"energy": -0.24357,
				"method": "rhf"
			},
			{
				"type": "occ",
				"energy": -0.23692,
				"method": "rhf"
			},
			{
				"type": "occ",
				"energy": -0.23081,
				"method": "rhf"
			},
			{
				"type": "occ",
				"energy": -0.21976,
				"method": "rhf"
			},
			{
				"type": "unocc",
				"energy": -0.03569,
				"method": "rhf"
			},
			{
				"type": "unocc",
				"energy": -0.01592,
				"method": "rhf"
			},
			{
				"type": "unocc",
				"energy": -0.00922,
				"method": "rhf"
			},
			{
				"type": "unocc",
				"energy": -2e-05,
				"method": "rhf"
			},
			{
				"type": "unocc",
				"energy": 0.01608,
				"method": "rhf"
			}
		],
		"cosmo_sigma_profile": { 
			"-0.025": 0.0,
			"-0.024": 0.0,
			"-0.023": 0.0,
			"-0.022": 0.0,
			"-0.021": 0.0,
			"-0.02": 0.0,
			"-0.019": 0.0,
			"-0.018": 0.0,
			"-0.017": 0.0,
			"-0.016": 0.0,
			"-0.015": 0.0,
			"-0.014": 0.0,
			"-0.013": 0.0,
			"-0.012": 0.0,
			"-0.011": 0.0,
			"-0.01": 0.0,
			"-0.009": 0.0,
			"-0.008": 0.79143871054,
			"-0.007": 5.91321901332,
			"-0.006": 11.4672071148,
			"-0.005": 22.2055721193,
			"-0.004": 26.7346557571,
			"-0.003": 46.9756937218,
			"-0.002": 57.9428840048,
			"-0.001": 47.8332253127,
			"0.0": 45.3055396941,
			"0.001": 53.1138306295,
			"0.002": 38.1492612046,
			"0.003": 27.3967153941,
			"0.004": 19.8824069724,
			"0.005": 17.0448663699,
			"0.006": 15.0374232026,
			"0.007": 5.97159889771,
			"0.008": 3.74223817327,
			"0.009": 1.92445962204,
			"0.01": 1.01378428435,
			"0.011": 0.504603980199,
			"0.012": 0.935587021877,
			"0.013": 0.860727776032,
			"0.014": 0.971615173943,
			"0.015": 0.980042428233,
			"0.016": 0.764801893879,
			"0.017": 0.328667977019,
			"0.018": 0.0,
			"0.019": 0.0,
			"0.02": 0.0,
			"0.021": 0.0,
			"0.022": 0.0,
			"0.023": 0.0,
			"0.024": 0.0,
			"0.025": 0.0
		}
	}
}
