{
	 "smiles": "CC1=CC=C(C=C1)C1=NNC(NN=C2C(=O)NC3=C(C=CC=C3)N=C2C(F)(F)F)=C1", 
	 "Tm": 408.15, 
	 "num_atms": 45, 
	 "gaussian": { 
		 "optdone": 1, 
		 "sigma_profile": "yes", 
		 "theory": "DFT", 
		 "functional": "B3LYP", 
		 "basiset": "6-31G**", 
		 "properties": { 
			 "R2extent": 12740.3562, 
			 "electric_dipole_moment_norm": 4.60077366211, 
			 "electric_quadrupole_moment_norm": 19.570155797, 
			 "total_energy": -1474.3576663, 
			 "HOMO_LUMO_gap": 0.14179, 
			 "cosmo_polarized_energy": -23.42, 
			 "cosmo_cavitation_energy": 51.65, 
			 "cosmo_dispersion_energy": -33.38, 
			 "cosmo_repulsion_energy": 2.44, 
			 "cosmo_total_nonelectrostatic_energy": 20.71, 
			 "SMD_solvation_energy": 7.24 
		},
		"coords": [
			{
				"x": -2.1745888035,
				"y": -5.8669579532,
				"z": 2.6505100727,
				"element": "C" 
			},
			{
				"x": -2.1438110661,
				"y": -4.4348064457,
				"z": 2.172503304,
				"element": "C" 
			},
			{
				"x": -1.0381663786,
				"y": -3.6108848749,
				"z": 2.4124415187,
				"element": "C" 
			},
			{
				"x": -1.0216881855,
				"y": -2.2820100708,
				"z": 1.9907199475,
				"element": "C" 
			},
			{
				"x": -2.1168172683,
				"y": -1.730608877,
				"z": 1.3112540126,
				"element": "C" 
			},
			{
				"x": -3.2274153868,
				"y": -2.5555225529,
				"z": 1.0640712689,
				"element": "C" 
			},
			{
				"x": -3.2354724418,
				"y": -3.8798980809,
				"z": 1.4867741409,
				"element": "C" 
			},
			{
				"x": -2.1109587738,
				"y": -0.3296322884,
				"z": 0.8587420096,
				"element": "C" 
			},
			{
				"x": -3.1379758623,
				"y": 0.1643862436,
				"z": 0.1471763415,
				"element": "N" 
			},
			{
				"x": -2.8166517088,
				"y": 1.44138092,
				"z": -0.0936218352,
				"element": "N" 
			},
			{
				"x": -1.6060434348,
				"y": 1.7914248163,
				"z": 0.4275577746,
				"element": "C" 
			},
			{
				"x": -1.1000938531,
				"y": 3.1099403312,
				"z": 0.3295636521,
				"element": "N" 
			},
			{
				"x": -0.0071965788,
				"y": 3.4556583698,
				"z": -0.4016734283,
				"element": "N" 
			},
			{
				"x": 0.3313174861,
				"y": 2.8506233725,
				"z": -1.4855764776,
				"element": "C" 
			},
			{
				"x": 1.6132265134,
				"y": 3.3485835193,
				"z": -2.1072672428,
				"element": "C" 
			},
			{
				"x": 1.8872571711,
				"y": 4.5185074219,
				"z": -2.28514816,
				"element": "O" 
			},
			{
				"x": 2.4810633087,
				"y": 2.3299161278,
				"z": -2.4882860927,
				"element": "N" 
			},
			{
				"x": 2.5001362547,
				"y": 0.9872243569,
				"z": -2.059548834,
				"element": "C" 
			},
			{
				"x": 1.3408577999,
				"y": 0.1700420625,
				"z": -2.0503683165,
				"element": "C" 
			},
			{
				"x": 1.4643911449,
				"y": -1.1856424394,
				"z": -1.6932158928,
				"element": "C" 
			},
			{
				"x": 2.6878880667,
				"y": -1.7262140233,
				"z": -1.3259737922,
				"element": "C" 
			},
			{
				"x": 3.8334558821,
				"y": -0.9217425754,
				"z": -1.3538853558,
				"element": "C" 
			},
			{
				"x": 3.7371704547,
				"y": 0.4144355405,
				"z": -1.7222398001,
				"element": "C" 
			},
			{
				"x": 0.0880255132,
				"y": 0.5953959127,
				"z": -2.4915200185,
				"element": "N" 
			},
			{
				"x": -0.3593111002,
				"y": 1.7669872216,
				"z": -2.2488410014,
				"element": "C" 
			},
			{
				"x": -1.6251299844,
				"y": 2.1588744768,
				"z": -3.0121324259,
				"element": "C" 
			},
			{
				"x": -2.4423230392,
				"y": 1.1225156854,
				"z": -3.2188089075,
				"element": "F" 
			},
			{
				"x": -1.2878152408,
				"y": 2.6796120694,
				"z": -4.208820454,
				"element": "F" 
			},
			{
				"x": -2.3321761948,
				"y": 3.1184251207,
				"z": -2.3564739858,
				"element": "F" 
			},
			{
				"x": -1.1205775134,
				"y": 0.6655247773,
				"z": 1.0672329493,
				"element": "C" 
			},
			{
				"x": -1.1733033982,
				"y": -6.2260044275,
				"z": 2.9053506817,
				"element": "H" 
			},
			{
				"x": -2.58961266,
				"y": -6.5348372484,
				"z": 1.8883181524,
				"element": "H" 
			},
			{
				"x": -2.7996748079,
				"y": -5.9739779412,
				"z": 3.5459623946,
				"element": "H" 
			},
			{
				"x": -0.174768483,
				"y": -4.0141654017,
				"z": 2.9361294341,
				"element": "H" 
			},
			{
				"x": -0.1427991541,
				"y": -1.6755168393,
				"z": 2.1891502635,
				"element": "H" 
			},
			{
				"x": -4.0789950204,
				"y": -2.1425666448,
				"z": 0.534076183,
				"element": "H" 
			},
			{
				"x": -4.1061182746,
				"y": -4.4983625078,
				"z": 1.2809656008,
				"element": "H" 
			},
			{
				"x": -3.4122897197,
				"y": 2.0205351426,
				"z": -0.6667345113,
				"element": "H" 
			},
			{
				"x": -1.0706476071,
				"y": 3.609498831,
				"z": 1.209146397,
				"element": "H" 
			},
			{
				"x": 3.3620733313,
				"y": 2.700498255,
				"z": -2.8261998827,
				"element": "H" 
			},
			{
				"x": 0.5641352113,
				"y": -1.7904961633,
				"z": -1.7163076178,
				"element": "H" 
			},
			{
				"x": 2.7566232124,
				"y": -2.7708712374,
				"z": -1.0401258746,
				"element": "H" 
			},
			{
				"x": 4.8017589194,
				"y": -1.336163181,
				"z": -1.0905393555,
				"element": "H" 
			},
			{
				"x": 4.6251552893,
				"y": 1.0408808964,
				"z": -1.7412312816,
				"element": "H" 
			},
			{
				"x": -0.1861136194,
				"y": 0.5870103032,
				"z": 1.6010944451,
				"element": "H" 
			}
		],
		 "valence_orbital": [ 
			{
				"type": "occ",
				"energy": -0.25983,
				"method": "rhf"
			},
			{
				"type": "occ",
				"energy": -0.24855,
				"method": "rhf"
			},
			{
				"type": "occ",
				"energy": -0.24344,
				"method": "rhf"
			},
			{
				"type": "occ",
				"energy": -0.23415,
				"method": "rhf"
			},
			{
				"type": "occ",
				"energy": -0.21872,
				"method": "rhf"
			},
			{
				"type": "unocc",
				"energy": -0.07693,
				"method": "rhf"
			},
			{
				"type": "unocc",
				"energy": -0.04036,
				"method": "rhf"
			},
			{
				"type": "unocc",
				"energy": -0.02415,
				"method": "rhf"
			},
			{
				"type": "unocc",
				"energy": -0.02155,
				"method": "rhf"
			},
			{
				"type": "unocc",
				"energy": -0.00478,
				"method": "rhf"
			}
		],
		"cosmo_sigma_profile": { 
			"-0.025": 0.0,
			"-0.024": 0.0,
			"-0.023": 0.0,
			"-0.022": 0.0,
			"-0.021": 0.0,
			"-0.02": 0.0,
			"-0.019": 0.0,
			"-0.018": 0.0,
			"-0.017": 0.0,
			"-0.016": 0.997955017805,
			"-0.015": 3.28838188337,
			"-0.014": 3.28975355975,
			"-0.013": 2.8034696701,
			"-0.012": 2.746852855,
			"-0.011": 3.17234923576,
			"-0.01": 3.13140810662,
			"-0.009": 3.22130381963,
			"-0.008": 5.77766913335,
			"-0.007": 9.17665357792,
			"-0.006": 13.9802867796,
			"-0.005": 19.9575566007,
			"-0.004": 26.6191796315,
			"-0.003": 26.8632749352,
			"-0.002": 26.9018587473,
			"-0.001": 26.5600925855,
			"0.0": 30.1314392519,
			"0.001": 36.8148684986,
			"0.002": 48.4665522077,
			"0.003": 32.6101696064,
			"0.004": 25.406300082,
			"0.005": 15.5977523599,
			"0.006": 12.0277527272,
			"0.007": 4.88698925563,
			"0.008": 3.8530882677,
			"0.009": 3.64100305945,
			"0.01": 4.66739915359,
			"0.011": 6.71280144139,
			"0.012": 7.07996932498,
			"0.013": 3.51555208238,
			"0.014": 0.289073028052,
			"0.015": 0.0,
			"0.016": 0.0,
			"0.017": 0.0,
			"0.018": 0.0,
			"0.019": 0.0,
			"0.02": 0.0,
			"0.021": 0.0,
			"0.022": 0.0,
			"0.023": 0.0,
			"0.024": 0.0,
			"0.025": 0.0
		}
	}
}
