{
	 "smiles": "CN1C(C(CCC1=O)C(O)=O)C1=CC=CC=C1", 
	 "Tm": 478.15, 
	 "num_atms": 32, 
	 "gaussian": { 
		 "optdone": 1, 
		 "sigma_profile": "yes", 
		 "theory": "DFT", 
		 "functional": "B3LYP", 
		 "basiset": "6-31G**", 
		 "properties": { 
			 "R2extent": 3935.5289, 
			 "electric_dipole_moment_norm": 4.51225673028, 
			 "electric_quadrupole_moment_norm": 16.1789011132, 
			 "total_energy": -784.881587752, 
			 "HOMO_LUMO_gap": 0.21748, 
			 "cosmo_polarized_energy": -16.17, 
			 "cosmo_cavitation_energy": 33.71, 
			 "cosmo_dispersion_energy": -23.57, 
			 "cosmo_repulsion_energy": 1.83, 
			 "cosmo_total_nonelectrostatic_energy": 11.97, 
			 "SMD_solvation_energy": 7.15 
		},
		"coords": [
			{
				"x": 1.6613957047,
				"y": -1.775223818,
				"z": -1.4654583191,
				"element": "C" 
			},
			{
				"x": 0.9453097216,
				"y": -0.5216190698,
				"z": -1.2469041037,
				"element": "N" 
			},
			{
				"x": 0.96503816,
				"y": -0.0114609745,
				"z": 0.126646278,
				"element": "C" 
			},
			{
				"x": 0.6295429023,
				"y": 1.5022262213,
				"z": 0.1643021002,
				"element": "C" 
			},
			{
				"x": -0.6644963514,
				"y": 1.7830561579,
				"z": -0.6020227783,
				"element": "C" 
			},
			{
				"x": -0.546061069,
				"y": 1.3048067102,
				"z": -2.0523284922,
				"element": "C" 
			},
			{
				"x": 0.1505163785,
				"y": -0.0341674835,
				"z": -2.2684054686,
				"element": "C" 
			},
			{
				"x": 0.054399074,
				"y": -0.6120068628,
				"z": -3.3459090901,
				"element": "O" 
			},
			{
				"x": 1.7824400289,
				"y": 2.3667858363,
				"z": -0.3362776509,
				"element": "C" 
			},
			{
				"x": 2.9599727913,
				"y": 2.0340164946,
				"z": 0.2483184291,
				"element": "O" 
			},
			{
				"x": 1.6915066159,
				"y": 3.2835617773,
				"z": -1.1228805132,
				"element": "O" 
			},
			{
				"x": 0.06758082,
				"y": -0.8062293024,
				"z": 1.0818777968,
				"element": "C" 
			},
			{
				"x": -1.0651795853,
				"y": -1.5011925562,
				"z": 0.6438741803,
				"element": "C" 
			},
			{
				"x": -1.8730438903,
				"y": -2.1884076851,
				"z": 1.553471234,
				"element": "C" 
			},
			{
				"x": -1.5582833012,
				"y": -2.1910268974,
				"z": 2.912390281,
				"element": "C" 
			},
			{
				"x": -0.4248482983,
				"y": -1.5069703366,
				"z": 3.3583366718,
				"element": "C" 
			},
			{
				"x": 0.3819138738,
				"y": -0.825419975,
				"z": 2.4480163562,
				"element": "C" 
			},
			{
				"x": 1.5947230833,
				"y": -2.0221478099,
				"z": -2.5234619831,
				"element": "H" 
			},
			{
				"x": 2.7113428426,
				"y": -1.6588131803,
				"z": -1.1736725524,
				"element": "H" 
			},
			{
				"x": 1.224842731,
				"y": -2.5906744282,
				"z": -0.8766680208,
				"element": "H" 
			},
			{
				"x": 1.9932998614,
				"y": -0.1237160188,
				"z": 0.4866689062,
				"element": "H" 
			},
			{
				"x": 0.5064294001,
				"y": 1.7691171855,
				"z": 1.2216476743,
				"element": "H" 
			},
			{
				"x": -0.8937349348,
				"y": 2.8517121214,
				"z": -0.5776308149,
				"element": "H" 
			},
			{
				"x": -1.4811114044,
				"y": 1.261646353,
				"z": -0.0922627169,
				"element": "H" 
			},
			{
				"x": -1.5242815604,
				"y": 1.2285896542,
				"z": -2.534151119,
				"element": "H" 
			},
			{
				"x": 0.0296956894,
				"y": 2.0340319526,
				"z": -2.6326092548,
				"element": "H" 
			},
			{
				"x": 3.6225165886,
				"y": 2.6481239326,
				"z": -0.1108823489,
				"element": "H" 
			},
			{
				"x": -1.3109131121,
				"y": -1.5191674707,
				"z": -0.4136869954,
				"element": "H" 
			},
			{
				"x": -2.7472134979,
				"y": -2.7249125651,
				"z": 1.1956796352,
				"element": "H" 
			},
			{
				"x": -2.1857382973,
				"y": -2.7273297906,
				"z": 3.6182365885,
				"element": "H" 
			},
			{
				"x": -0.1645528003,
				"y": -1.5116521862,
				"z": 4.4130262669,
				"element": "H" 
			},
			{
				"x": 1.2696918352,
				"y": -0.3042359859,
				"z": 2.8008198241,
				"element": "H" 
			}
		],
		 "valence_orbital": [ 
			{
				"type": "occ",
				"energy": -0.28577,
				"method": "rhf"
			},
			{
				"type": "occ",
				"energy": -0.2589,
				"method": "rhf"
			},
			{
				"type": "occ",
				"energy": -0.25322,
				"method": "rhf"
			},
			{
				"type": "occ",
				"energy": -0.24082,
				"method": "rhf"
			},
			{
				"type": "occ",
				"energy": -0.23605,
				"method": "rhf"
			},
			{
				"type": "unocc",
				"energy": -0.01857,
				"method": "rhf"
			},
			{
				"type": "unocc",
				"energy": -0.01089,
				"method": "rhf"
			},
			{
				"type": "unocc",
				"energy": 0.00037,
				"method": "rhf"
			},
			{
				"type": "unocc",
				"energy": 0.03128,
				"method": "rhf"
			},
			{
				"type": "unocc",
				"energy": 0.06554,
				"method": "rhf"
			}
		],
		"cosmo_sigma_profile": { 
			"-0.025": 0.0,
			"-0.024": 0.0,
			"-0.023": 0.0,
			"-0.022": 0.0,
			"-0.021": 0.0,
			"-0.02": 0.0,
			"-0.019": 0.0396021136213,
			"-0.018": 0.779248020452,
			"-0.017": 1.19781624122,
			"-0.016": 0.608045538461,
			"-0.015": 0.69936709975,
			"-0.014": 0.872040124165,
			"-0.013": 0.600846296256,
			"-0.012": 0.973247316244,
			"-0.011": 0.599712435785,
			"-0.01": 0.564624304071,
			"-0.009": 0.364315153683,
			"-0.008": 1.09793011394,
			"-0.007": 3.0087403798,
			"-0.006": 11.5044585195,
			"-0.005": 20.796511452,
			"-0.004": 24.1928211178,
			"-0.003": 30.9953110269,
			"-0.002": 29.0802428892,
			"-0.001": 25.0147716635,
			"0.0": 13.3110693567,
			"0.001": 13.174011434,
			"0.002": 11.6055178698,
			"0.003": 10.511849107,
			"0.004": 12.233977142,
			"0.005": 11.1631487114,
			"0.006": 7.9963481833,
			"0.007": 3.59428573334,
			"0.008": 4.40050401653,
			"0.009": 3.27775695355,
			"0.01": 3.05337201742,
			"0.011": 4.88649321954,
			"0.012": 4.01407431627,
			"0.013": 2.56753804844,
			"0.014": 5.04288959623,
			"0.015": 1.85026474873,
			"0.016": 0.103341703386,
			"0.017": 0.0,
			"0.018": 0.0,
			"0.019": 0.0,
			"0.02": 0.0,
			"0.021": 0.0,
			"0.022": 0.0,
			"0.023": 0.0,
			"0.024": 0.0,
			"0.025": 0.0
		}
	}
}
