{
	 "smiles": "CC1=C(C=CC=C1)C1=NOC(CC#N)=N1", 
	 "Tm": 354.15, 
	 "num_atms": 24, 
	 "gaussian": { 
		 "optdone": 1, 
		 "sigma_profile": "yes", 
		 "theory": "DFT", 
		 "functional": "B3LYP", 
		 "basiset": "6-31G**", 
		 "properties": { 
			 "R2extent": 5694.6167, 
			 "electric_dipole_moment_norm": 4.12211547752, 
			 "electric_quadrupole_moment_norm": 28.8070958189, 
			 "total_energy": -664.016581497, 
			 "HOMO_LUMO_gap": 0.19151, 
			 "cosmo_polarized_energy": -13.49, 
			 "cosmo_cavitation_energy": 29.99, 
			 "cosmo_dispersion_energy": -21.23, 
			 "cosmo_repulsion_energy": 1.67, 
			 "cosmo_total_nonelectrostatic_energy": 10.43, 
			 "SMD_solvation_energy": 5.52 
		},
		"coords": [
			{
				"x": 1.6754793276,
				"y": 0.1406666537,
				"z": -0.7578384957,
				"element": "C" 
			},
			{
				"x": 0.4283280787,
				"y": 0.6646767826,
				"z": -0.083564355,
				"element": "C" 
			},
			{
				"x": -0.821420486,
				"y": 0.7911991305,
				"z": -0.735841982,
				"element": "C" 
			},
			{
				"x": -1.9278911566,
				"y": 1.3134026749,
				"z": -0.0420640341,
				"element": "C" 
			},
			{
				"x": -1.8212967266,
				"y": 1.7080407175,
				"z": 1.2864459487,
				"element": "C" 
			},
			{
				"x": -0.5958735105,
				"y": 1.5808737659,
				"z": 1.9408554828,
				"element": "C" 
			},
			{
				"x": 0.5046076225,
				"y": 1.0681404408,
				"z": 1.2565965406,
				"element": "C" 
			},
			{
				"x": -1.0306104515,
				"y": 0.4086845971,
				"z": -2.143505426,
				"element": "C" 
			},
			{
				"x": -2.0095035939,
				"y": 0.9278757558,
				"z": -2.8583401475,
				"element": "N" 
			},
			{
				"x": -1.9004575918,
				"y": 0.2775289918,
				"z": -4.0968364787,
				"element": "O" 
			},
			{
				"x": -0.8564706898,
				"y": -0.5538355198,
				"z": -3.9935401296,
				"element": "C" 
			},
			{
				"x": -0.5023090771,
				"y": -1.4122028549,
				"z": -5.1728098705,
				"element": "C" 
			},
			{
				"x": -0.0595128899,
				"y": -0.6371434207,
				"z": -6.33809642,
				"element": "C" 
			},
			{
				"x": 0.2943479916,
				"y": -0.0357399232,
				"z": -7.2641051466,
				"element": "N" 
			},
			{
				"x": -0.2766925881,
				"y": -0.5295045782,
				"z": -2.8348998996,
				"element": "N" 
			},
			{
				"x": 1.5818179308,
				"y": -0.9176154613,
				"z": -1.0153330784,
				"element": "H" 
			},
			{
				"x": 1.8846150138,
				"y": 0.6669938283,
				"z": -1.6939223177,
				"element": "H" 
			},
			{
				"x": 2.5383002329,
				"y": 0.2628997144,
				"z": -0.0977969827,
				"element": "H" 
			},
			{
				"x": -2.8755122956,
				"y": 1.3981895598,
				"z": -0.5631346478,
				"element": "H" 
			},
			{
				"x": -2.6877683227,
				"y": 2.1050592322,
				"z": 1.8062535052,
				"element": "H" 
			},
			{
				"x": -0.4946567322,
				"y": 1.8802897686,
				"z": 2.9801117657,
				"element": "H" 
			},
			{
				"x": 1.4583275495,
				"y": 0.9801702987,
				"z": 1.769960296,
				"element": "H" 
			},
			{
				"x": -1.3685042478,
				"y": -2.0186493091,
				"z": -5.4634462694,
				"element": "H" 
			},
			{
				"x": 0.2964566127,
				"y": -2.0909008453,
				"z": -4.8620478578,
				"element": "H" 
			}
		],
		 "valence_orbital": [ 
			{
				"type": "occ",
				"energy": -0.3407,
				"method": "rhf"
			},
			{
				"type": "occ",
				"energy": -0.31175,
				"method": "rhf"
			},
			{
				"type": "occ",
				"energy": -0.30878,
				"method": "rhf"
			},
			{
				"type": "occ",
				"energy": -0.25456,
				"method": "rhf"
			},
			{
				"type": "occ",
				"energy": -0.24828,
				"method": "rhf"
			},
			{
				"type": "unocc",
				"energy": -0.05677,
				"method": "rhf"
			},
			{
				"type": "unocc",
				"energy": -0.02343,
				"method": "rhf"
			},
			{
				"type": "unocc",
				"energy": -0.00747,
				"method": "rhf"
			},
			{
				"type": "unocc",
				"energy": 0.01806,
				"method": "rhf"
			},
			{
				"type": "unocc",
				"energy": 0.02421,
				"method": "rhf"
			}
		],
		"cosmo_sigma_profile": { 
			"-0.025": 0.0,
			"-0.024": 0.0,
			"-0.023": 0.0,
			"-0.022": 0.0,
			"-0.021": 0.0,
			"-0.02": 0.0,
			"-0.019": 0.0,
			"-0.018": 0.0,
			"-0.017": 0.0,
			"-0.016": 0.0,
			"-0.015": 0.0,
			"-0.014": 0.0,
			"-0.013": 0.0,
			"-0.012": 1.75292846204,
			"-0.011": 5.48390693321,
			"-0.01": 4.6104454981,
			"-0.009": 4.02637196597,
			"-0.008": 5.00263412301,
			"-0.007": 3.46005486411,
			"-0.006": 9.49829725792,
			"-0.005": 14.1091489627,
			"-0.004": 17.6396920317,
			"-0.003": 15.7259966017,
			"-0.002": 15.368879265,
			"-0.001": 15.2970676956,
			"0.0": 20.1319817659,
			"0.001": 15.0915825921,
			"0.002": 14.4723661225,
			"0.003": 15.294598612,
			"0.004": 15.8563746667,
			"0.005": 14.2110416852,
			"0.006": 7.40456655224,
			"0.007": 5.16379414314,
			"0.008": 6.35855372161,
			"0.009": 5.25569629971,
			"0.01": 4.1130817687,
			"0.011": 3.40209341297,
			"0.012": 2.64432551564,
			"0.013": 0.34917107252,
			"0.014": 0.0,
			"0.015": 0.0,
			"0.016": 0.0,
			"0.017": 0.0,
			"0.018": 0.0,
			"0.019": 0.0,
			"0.02": 0.0,
			"0.021": 0.0,
			"0.022": 0.0,
			"0.023": 0.0,
			"0.024": 0.0,
			"0.025": 0.0
		}
	}
}
