{
	 "smiles": "OC(=O)CCCCCl", 
	 "Tm": 291.15, 
	 "num_atms": 17, 
	 "gaussian": { 
		 "optdone": 1, 
		 "sigma_profile": "yes", 
		 "theory": "DFT", 
		 "functional": "B3LYP", 
		 "basiset": "6-31G**", 
		 "properties": { 
			 "R2extent": 2513.975, 
			 "electric_dipole_moment_norm": 3.32762061239, 
			 "electric_quadrupole_moment_norm": 15.6298746562, 
			 "total_energy": -806.624539388, 
			 "HOMO_LUMO_gap": 0.28392, 
			 "cosmo_polarized_energy": -10.24, 
			 "cosmo_cavitation_energy": 21.94, 
			 "cosmo_dispersion_energy": -16.16, 
			 "cosmo_repulsion_energy": 1.39, 
			 "cosmo_total_nonelectrostatic_energy": 7.17, 
			 "SMD_solvation_energy": 4.15 
		},
		"coords": [
			{
				"x": 0.9740857533,
				"y": -1.5619245923,
				"z": 0.8293549401,
				"element": "O" 
			},
			{
				"x": 0.2369316612,
				"y": -0.8143599417,
				"z": -0.025260334,
				"element": "C" 
			},
			{
				"x": -0.481301743,
				"y": -1.3090409537,
				"z": -0.8681608405,
				"element": "O" 
			},
			{
				"x": 0.4151112423,
				"y": 0.6661143992,
				"z": 0.2395005842,
				"element": "C" 
			},
			{
				"x": -0.2756369997,
				"y": 1.5795918751,
				"z": -0.7824006618,
				"element": "C" 
			},
			{
				"x": 0.5233884119,
				"y": 1.8722682529,
				"z": -2.067150428,
				"element": "C" 
			},
			{
				"x": 0.7240579664,
				"y": 0.6642901385,
				"z": -2.9759197158,
				"element": "C" 
			},
			{
				"x": 1.5824840487,
				"y": 1.1478955047,
				"z": -4.5104799242,
				"element": "Cl" 
			},
			{
				"x": 0.7857403259,
				"y": -2.4904709623,
				"z": 0.6114839017,
				"element": "H" 
			},
			{
				"x": 0.0130081349,
				"y": 0.8438969242,
				"z": 1.2452317861,
				"element": "H" 
			},
			{
				"x": 1.4887955813,
				"y": 0.8766663137,
				"z": 0.3170889509,
				"element": "H" 
			},
			{
				"x": -1.2504519658,
				"y": 1.1503220596,
				"z": -1.0380397115,
				"element": "H" 
			},
			{
				"x": -0.4725301629,
				"y": 2.5417686023,
				"z": -0.2970253858,
				"element": "H" 
			},
			{
				"x": 1.5028153583,
				"y": 2.2921642619,
				"z": -1.8066864875,
				"element": "H" 
			},
			{
				"x": -0.0044284582,
				"y": 2.6459586416,
				"z": -2.6353439959,
				"element": "H" 
			},
			{
				"x": 1.3430057064,
				"y": -0.1098745384,
				"z": -2.5241352856,
				"element": "H" 
			},
			{
				"x": -0.2226748611,
				"y": 0.2160340146,
				"z": -3.2771573923,
				"element": "H" 
			}
		],
		 "valence_orbital": [ 
			{
				"type": "occ",
				"energy": -0.34705,
				"method": "rhf"
			},
			{
				"type": "occ",
				"energy": -0.32853,
				"method": "rhf"
			},
			{
				"type": "occ",
				"energy": -0.28831,
				"method": "rhf"
			},
			{
				"type": "occ",
				"energy": -0.28691,
				"method": "rhf"
			},
			{
				"type": "occ",
				"energy": -0.28503,
				"method": "rhf"
			},
			{
				"type": "unocc",
				"energy": -0.00111,
				"method": "rhf"
			},
			{
				"type": "unocc",
				"energy": 0.02928,
				"method": "rhf"
			},
			{
				"type": "unocc",
				"energy": 0.07059,
				"method": "rhf"
			},
			{
				"type": "unocc",
				"energy": 0.08978,
				"method": "rhf"
			},
			{
				"type": "unocc",
				"energy": 0.11645,
				"method": "rhf"
			}
		],
		"cosmo_sigma_profile": { 
			"-0.025": 0.0,
			"-0.024": 0.0,
			"-0.023": 0.0,
			"-0.022": 0.0,
			"-0.021": 0.0,
			"-0.02": 0.0,
			"-0.019": 0.065668346766,
			"-0.018": 0.565939882284,
			"-0.017": 1.17385930379,
			"-0.016": 0.51316154648,
			"-0.015": 0.733215204869,
			"-0.014": 0.816811453809,
			"-0.013": 0.286804917089,
			"-0.012": 0.868956451789,
			"-0.011": 0.731245209514,
			"-0.01": 1.01718070206,
			"-0.009": 0.638316419844,
			"-0.008": 0.665274405565,
			"-0.007": 3.46629298889,
			"-0.006": 8.53805379876,
			"-0.005": 9.68567150805,
			"-0.004": 16.1711973796,
			"-0.003": 19.3073704335,
			"-0.002": 17.3031467811,
			"-0.001": 10.7533719218,
			"0.0": 8.83279793564,
			"0.001": 7.27801375576,
			"0.002": 6.36332549324,
			"0.003": 6.27706147673,
			"0.004": 7.38268326181,
			"0.005": 7.51104913444,
			"0.006": 8.86477599685,
			"0.007": 12.737684235,
			"0.008": 3.53686454963,
			"0.009": 2.85889925743,
			"0.01": 2.34705986981,
			"0.011": 3.1801022685,
			"0.012": 2.76691096143,
			"0.013": 0.145224520236,
			"0.014": 0.0,
			"0.015": 0.0,
			"0.016": 0.0,
			"0.017": 0.0,
			"0.018": 0.0,
			"0.019": 0.0,
			"0.02": 0.0,
			"0.021": 0.0,
			"0.022": 0.0,
			"0.023": 0.0,
			"0.024": 0.0,
			"0.025": 0.0
		}
	}
}
