{
	 "smiles": "NC1=CC(=CC=C1)C1=CC(N)=CC=C1", 
	 "Tm": 366.65, 
	 "num_atms": 26, 
	 "gaussian": { 
		 "optdone": 1, 
		 "sigma_profile": "yes", 
		 "theory": "DFT", 
		 "functional": "B3LYP", 
		 "basiset": "6-31G**", 
		 "properties": { 
			 "R2extent": 4198.2917, 
			 "electric_dipole_moment_norm": 1.04097531671, 
			 "electric_quadrupole_moment_norm": 19.7782538241, 
			 "total_energy": -574.026495573, 
			 "HOMO_LUMO_gap": 0.17934, 
			 "cosmo_polarized_energy": -14.25, 
			 "cosmo_cavitation_energy": 29.6, 
			 "cosmo_dispersion_energy": -21.85, 
			 "cosmo_repulsion_energy": 1.72, 
			 "cosmo_total_nonelectrostatic_energy": 9.48, 
			 "SMD_solvation_energy": 4.67 
		},
		"coords": [
			{
				"x": -3.8239754973,
				"y": 0.0683796806,
				"z": -0.179774523,
				"element": "N" 
			},
			{
				"x": -2.7261151006,
				"y": 0.8764707936,
				"z": -0.490864393,
				"element": "C" 
			},
			{
				"x": -1.5322773283,
				"y": 0.7683782693,
				"z": 0.2388859746,
				"element": "C" 
			},
			{
				"x": -0.4358137866,
				"y": 1.6008070701,
				"z": -0.0237788979,
				"element": "C" 
			},
			{
				"x": -0.5428000269,
				"y": 2.5609863078,
				"z": -1.044246635,
				"element": "C" 
			},
			{
				"x": -1.7265407795,
				"y": 2.6722967496,
				"z": -1.7723306435,
				"element": "C" 
			},
			{
				"x": -2.8134497889,
				"y": 1.8432845158,
				"z": -1.5068647269,
				"element": "C" 
			},
			{
				"x": 0.8156092321,
				"y": 1.4627424382,
				"z": 0.7677780352,
				"element": "C" 
			},
			{
				"x": 2.064321708,
				"y": 1.5899299017,
				"z": 0.1442552037,
				"element": "C" 
			},
			{
				"x": 3.260531144,
				"y": 1.4687476528,
				"z": 0.868215001,
				"element": "C" 
			},
			{
				"x": 4.4947592959,
				"y": 1.5334216434,
				"z": 0.2140345996,
				"element": "N" 
			},
			{
				"x": 3.193819196,
				"y": 1.2142326716,
				"z": 2.2485086646,
				"element": "C" 
			},
			{
				"x": 1.9554439434,
				"y": 1.0868007247,
				"z": 2.8726095293,
				"element": "C" 
			},
			{
				"x": 0.7699178844,
				"y": 1.2079787208,
				"z": 2.1491060524,
				"element": "C" 
			},
			{
				"x": -4.4747504204,
				"y": -0.076474377,
				"z": -0.9396690155,
				"element": "H" 
			},
			{
				"x": -3.5945475594,
				"y": -0.7999404265,
				"z": 0.2843653916,
				"element": "H" 
			},
			{
				"x": -1.4494170555,
				"y": 0.0053210866,
				"z": 1.0085752489,
				"element": "H" 
			},
			{
				"x": 0.2853771023,
				"y": 3.2333829772,
				"z": -1.2422933571,
				"element": "H" 
			},
			{
				"x": -1.8083204454,
				"y": 3.4212584326,
				"z": -2.5555668075,
				"element": "H" 
			},
			{
				"x": -3.7329023984,
				"y": 1.9420819048,
				"z": -2.0787073835,
				"element": "H" 
			},
			{
				"x": 2.1100720131,
				"y": 1.754430532,
				"z": -0.9292499751,
				"element": "H" 
			},
			{
				"x": 4.490601355,
				"y": 2.0545392526,
				"z": -0.6521782867,
				"element": "H" 
			},
			{
				"x": 5.2746516916,
				"y": 1.7939531706,
				"z": 0.8020426368,
				"element": "H" 
			},
			{
				"x": 4.111700226,
				"y": 1.1128901719,
				"z": 2.8224995723,
				"element": "H" 
			},
			{
				"x": 1.9162279539,
				"y": 0.9015299052,
				"z": 3.9427484628,
				"element": "H" 
			},
			{
				"x": -0.1878225584,
				"y": 1.1400702302,
				"z": 2.6544002722,
				"element": "H" 
			}
		],
		 "valence_orbital": [ 
			{
				"type": "occ",
				"energy": -0.29395,
				"method": "rhf"
			},
			{
				"type": "occ",
				"energy": -0.2557,
				"method": "rhf"
			},
			{
				"type": "occ",
				"energy": -0.22085,
				"method": "rhf"
			},
			{
				"type": "occ",
				"energy": -0.1985,
				"method": "rhf"
			},
			{
				"type": "occ",
				"energy": -0.19391,
				"method": "rhf"
			},
			{
				"type": "unocc",
				"energy": -0.01457,
				"method": "rhf"
			},
			{
				"type": "unocc",
				"energy": 0.01592,
				"method": "rhf"
			},
			{
				"type": "unocc",
				"energy": 0.02178,
				"method": "rhf"
			},
			{
				"type": "unocc",
				"energy": 0.0457,
				"method": "rhf"
			},
			{
				"type": "unocc",
				"energy": 0.08533,
				"method": "rhf"
			}
		],
		"cosmo_sigma_profile": { 
			"-0.025": 0.0,
			"-0.024": 0.0,
			"-0.023": 0.0,
			"-0.022": 0.0,
			"-0.021": 0.0,
			"-0.02": 0.0,
			"-0.019": 0.0,
			"-0.018": 0.0,
			"-0.017": 0.0,
			"-0.016": 0.0,
			"-0.015": 0.0,
			"-0.014": 0.0,
			"-0.013": 0.161319112882,
			"-0.012": 4.08897595448,
			"-0.011": 5.76022709912,
			"-0.01": 5.25178436149,
			"-0.009": 6.36473173507,
			"-0.008": 5.77081023684,
			"-0.007": 6.43936076539,
			"-0.006": 7.43626467026,
			"-0.005": 12.4040338932,
			"-0.004": 15.9466108376,
			"-0.003": 16.5634646615,
			"-0.002": 14.2198218158,
			"-0.001": 11.2942021741,
			"0.0": 11.5066250395,
			"0.001": 9.41878699935,
			"0.002": 11.241920608,
			"0.003": 11.7996528807,
			"0.004": 15.5578906709,
			"0.005": 16.2748658862,
			"0.006": 19.7068923888,
			"0.007": 15.6709624974,
			"0.008": 2.98609526656,
			"0.009": 1.4675665159,
			"0.01": 1.28914805309,
			"0.011": 1.57648685481,
			"0.012": 1.34404082662,
			"0.013": 1.40236440727,
			"0.014": 1.23822524058,
			"0.015": 0.792529083517,
			"0.016": 0.0,
			"0.017": 0.0,
			"0.018": 0.0,
			"0.019": 0.0,
			"0.02": 0.0,
			"0.021": 0.0,
			"0.022": 0.0,
			"0.023": 0.0,
			"0.024": 0.0,
			"0.025": 0.0
		}
	}
}
