{
	 "smiles": "CCOC(=O)C1=C(C)C(C(N)=O)=C(N)S1", 
	 "Tm": 471.15, 
	 "num_atms": 27, 
	 "gaussian": { 
		 "optdone": 1, 
		 "sigma_profile": "yes", 
		 "theory": "DFT", 
		 "functional": "B3LYP", 
		 "basiset": "6-31G**", 
		 "properties": { 
			 "R2extent": 5301.2519, 
			 "electric_dipole_moment_norm": 2.76169703443, 
			 "electric_quadrupole_moment_norm": 32.5843009977, 
			 "total_energy": -1083.58474444, 
			 "HOMO_LUMO_gap": 0.17377, 
			 "cosmo_polarized_energy": -19.22, 
			 "cosmo_cavitation_energy": 32.25, 
			 "cosmo_dispersion_energy": -23.95, 
			 "cosmo_repulsion_energy": 1.86, 
			 "cosmo_total_nonelectrostatic_energy": 10.16, 
			 "SMD_solvation_energy": 7.22 
		},
		"coords": [
			{
				"x": 2.2883059091,
				"y": 4.8964080198,
				"z": 1.4586014097,
				"element": "C" 
			},
			{
				"x": 1.4813652449,
				"y": 3.9017155306,
				"z": 2.2712815628,
				"element": "C" 
			},
			{
				"x": 1.5404026588,
				"y": 2.6305865123,
				"z": 1.5838572973,
				"element": "O" 
			},
			{
				"x": 0.8636208274,
				"y": 1.619522341,
				"z": 2.1754317716,
				"element": "C" 
			},
			{
				"x": 0.2414799897,
				"y": 1.7597975436,
				"z": 3.2179781425,
				"element": "O" 
			},
			{
				"x": 0.9291703477,
				"y": 0.3403213851,
				"z": 1.4646449613,
				"element": "C" 
			},
			{
				"x": 1.5451348986,
				"y": -0.1010629952,
				"z": 0.3115034082,
				"element": "C" 
			},
			{
				"x": 2.3951755618,
				"y": 0.7420564243,
				"z": -0.5990874745,
				"element": "C" 
			},
			{
				"x": 1.2969323207,
				"y": -1.5013521005,
				"z": 0.0637069325,
				"element": "C" 
			},
			{
				"x": 1.8144660247,
				"y": -2.2173583369,
				"z": -1.1266676918,
				"element": "C" 
			},
			{
				"x": 1.8943486207,
				"y": -3.6091409517,
				"z": -1.0105276722,
				"element": "N" 
			},
			{
				"x": 2.1186649754,
				"y": -1.6648906694,
				"z": -2.1764040948,
				"element": "O" 
			},
			{
				"x": 0.4731679611,
				"y": -2.0782152087,
				"z": 1.0314459742,
				"element": "C" 
			},
			{
				"x": 0.0405571966,
				"y": -3.3822870361,
				"z": 1.1133503525,
				"element": "N" 
			},
			{
				"x": 0.011540118,
				"y": -0.9419344504,
				"z": 2.2606729112,
				"element": "S" 
			},
			{
				"x": 1.8772179815,
				"y": 5.0043223038,
				"z": 0.4507263107,
				"element": "H" 
			},
			{
				"x": 3.3318100455,
				"y": 4.5793131603,
				"z": 1.3737489626,
				"element": "H" 
			},
			{
				"x": 2.2658915909,
				"y": 5.8763220002,
				"z": 1.9456979037,
				"element": "H" 
			},
			{
				"x": 0.4336173573,
				"y": 4.20277486,
				"z": 2.3675506277,
				"element": "H" 
			},
			{
				"x": 1.8804439968,
				"y": 3.7762076621,
				"z": 3.2826350187,
				"element": "H" 
			},
			{
				"x": 2.5724965552,
				"y": 1.726089752,
				"z": -0.1734050494,
				"element": "H" 
			},
			{
				"x": 3.351358892,
				"y": 0.2472399131,
				"z": -0.7929379058,
				"element": "H" 
			},
			{
				"x": 1.9109761499,
				"y": 0.8433588752,
				"z": -1.5741463348,
				"element": "H" 
			},
			{
				"x": 2.171647726,
				"y": -3.980512846,
				"z": -0.1093246348,
				"element": "H" 
			},
			{
				"x": 2.3753467981,
				"y": -4.0278621611,
				"z": -1.7977312393,
				"element": "H" 
			},
			{
				"x": 0.0500771497,
				"y": -3.8886346755,
				"z": 0.2349832814,
				"element": "H" 
			},
			{
				"x": -0.7780168978,
				"y": -3.5485848517,
				"z": 1.6820152688,
				"element": "H" 
			}
		],
		 "valence_orbital": [ 
			{
				"type": "occ",
				"energy": -0.28408,
				"method": "rhf"
			},
			{
				"type": "occ",
				"energy": -0.26954,
				"method": "rhf"
			},
			{
				"type": "occ",
				"energy": -0.25475,
				"method": "rhf"
			},
			{
				"type": "occ",
				"energy": -0.2491,
				"method": "rhf"
			},
			{
				"type": "occ",
				"energy": -0.21173,
				"method": "rhf"
			},
			{
				"type": "unocc",
				"energy": -0.03796,
				"method": "rhf"
			},
			{
				"type": "unocc",
				"energy": -0.01586,
				"method": "rhf"
			},
			{
				"type": "unocc",
				"energy": 0.0137,
				"method": "rhf"
			},
			{
				"type": "unocc",
				"energy": 0.07052,
				"method": "rhf"
			},
			{
				"type": "unocc",
				"energy": 0.07613,
				"method": "rhf"
			}
		],
		"cosmo_sigma_profile": { 
			"-0.025": 0.0,
			"-0.024": 0.0,
			"-0.023": 0.0,
			"-0.022": 0.0,
			"-0.021": 0.0,
			"-0.02": 0.0,
			"-0.019": 0.0,
			"-0.018": 0.0,
			"-0.017": 0.0,
			"-0.016": 0.0481195748291,
			"-0.015": 1.12332745657,
			"-0.014": 1.51178887579,
			"-0.013": 2.82920489578,
			"-0.012": 4.56243182723,
			"-0.011": 5.77410751875,
			"-0.01": 3.44295065974,
			"-0.009": 3.75689281021,
			"-0.008": 4.12115482232,
			"-0.007": 4.06384741131,
			"-0.006": 4.50028686717,
			"-0.005": 7.87905035362,
			"-0.004": 16.8386393008,
			"-0.003": 19.308327514,
			"-0.002": 20.2283587984,
			"-0.001": 19.2495003996,
			"0.0": 22.6700429848,
			"0.001": 19.5909984157,
			"0.002": 21.0897769871,
			"0.003": 17.1101437299,
			"0.004": 12.1925039051,
			"0.005": 7.28186897944,
			"0.006": 4.43930385745,
			"0.007": 3.93450432043,
			"0.008": 3.81041372969,
			"0.009": 3.81126326493,
			"0.01": 3.4969640243,
			"0.011": 3.7409496475,
			"0.012": 6.74665384896,
			"0.013": 5.5935311071,
			"0.014": 1.97452125127,
			"0.015": 0.0356465361963,
			"0.016": 0.0,
			"0.017": 0.0,
			"0.018": 0.0,
			"0.019": 0.0,
			"0.02": 0.0,
			"0.021": 0.0,
			"0.022": 0.0,
			"0.023": 0.0,
			"0.024": 0.0,
			"0.025": 0.0
		}
	}
}
