{
	 "smiles": "FC(F)C(F)(F)OCC(CN1C=NC=N1)C1=CC=C(Cl)C=C1Cl", 
	 "Tm": 279.15, 
	 "num_atms": 34, 
	 "gaussian": { 
		 "optdone": 1, 
		 "sigma_profile": "yes", 
		 "theory": "DFT", 
		 "functional": "B3LYP", 
		 "basiset": "6-31G**", 
		 "properties": { 
			 "R2extent": 9256.0142, 
			 "electric_dipole_moment_norm": 2.26323189267, 
			 "electric_quadrupole_moment_norm": 19.8376401321, 
			 "total_energy": -2061.20147457, 
			 "HOMO_LUMO_gap": 0.22104, 
			 "cosmo_polarized_energy": -17.83, 
			 "cosmo_cavitation_energy": 43.85, 
			 "cosmo_dispersion_energy": -28.14, 
			 "cosmo_repulsion_energy": 2.08, 
			 "cosmo_total_nonelectrostatic_energy": 17.79, 
			 "SMD_solvation_energy": 6.31 
		},
		"coords": [
			{
				"x": -2.6689221448,
				"y": 1.8480333849,
				"z": -1.3568067984,
				"element": "F" 
			},
			{
				"x": -3.6236037683,
				"y": 1.5588464511,
				"z": -0.4174428624,
				"element": "C" 
			},
			{
				"x": -4.7837575947,
				"y": 2.1408931061,
				"z": -0.7984787396,
				"element": "F" 
			},
			{
				"x": -3.8043443977,
				"y": 0.0329343699,
				"z": -0.3514225838,
				"element": "C" 
			},
			{
				"x": -4.2875886888,
				"y": -0.405422739,
				"z": -1.5487397857,
				"element": "F" 
			},
			{
				"x": -4.7308986955,
				"y": -0.2235360055,
				"z": 0.5966334873,
				"element": "F" 
			},
			{
				"x": -2.6726361681,
				"y": -0.6377078216,
				"z": 0.0130818349,
				"element": "O" 
			},
			{
				"x": -1.6677637961,
				"y": -0.8889653112,
				"z": -0.9875769175,
				"element": "C" 
			},
			{
				"x": -0.3439394826,
				"y": -0.2156072021,
				"z": -0.5891939891,
				"element": "C" 
			},
			{
				"x": 0.6737683547,
				"y": -0.4315713775,
				"z": -1.7341055246,
				"element": "C" 
			},
			{
				"x": 1.9713389858,
				"y": 0.1742447194,
				"z": -1.4846748446,
				"element": "N" 
			},
			{
				"x": 2.3446130198,
				"y": 1.4757067563,
				"z": -1.5288674725,
				"element": "C" 
			},
			{
				"x": 3.61965828,
				"y": 1.6033867131,
				"z": -1.2054726886,
				"element": "N" 
			},
			{
				"x": 3.9908748055,
				"y": 0.3150543804,
				"z": -0.9613507656,
				"element": "C" 
			},
			{
				"x": 3.0348701129,
				"y": -0.589885363,
				"z": -1.1146430819,
				"element": "N" 
			},
			{
				"x": 0.1503786941,
				"y": -0.696162224,
				"z": 0.7656352272,
				"element": "C" 
			},
			{
				"x": 0.6209253631,
				"y": -2.0077584071,
				"z": 0.9289511915,
				"element": "C" 
			},
			{
				"x": 1.0574734626,
				"y": -2.5002725172,
				"z": 2.1542876294,
				"element": "C" 
			},
			{
				"x": 1.0282980258,
				"y": -1.6582551485,
				"z": 3.2643768765,
				"element": "C" 
			},
			{
				"x": 1.573724469,
				"y": -2.2494135729,
				"z": 4.8218155633,
				"element": "Cl" 
			},
			{
				"x": 0.5720347013,
				"y": -0.3482586072,
				"z": 3.1564487574,
				"element": "C" 
			},
			{
				"x": 0.1393887392,
				"y": 0.1119715659,
				"z": 1.9121203615,
				"element": "C" 
			},
			{
				"x": -0.4274025045,
				"y": 1.7827832809,
				"z": 1.850118209,
				"element": "Cl" 
			},
			{
				"x": -3.3031313853,
				"y": 1.9539238766,
				"z": 0.5508332832,
				"element": "H" 
			},
			{
				"x": -2.0049231135,
				"y": -0.5284548146,
				"z": -1.9613385674,
				"element": "H" 
			},
			{
				"x": -1.5503070155,
				"y": -1.9761895924,
				"z": -1.046004051,
				"element": "H" 
			},
			{
				"x": -0.5422074663,
				"y": 0.8558776285,
				"z": -0.5291778227,
				"element": "H" 
			},
			{
				"x": 0.265207246,
				"y": -0.0104200988,
				"z": -2.658924887,
				"element": "H" 
			},
			{
				"x": 0.8675826642,
				"y": -1.4914439375,
				"z": -1.911381384,
				"element": "H" 
			},
			{
				"x": 1.6691838686,
				"y": 2.2752594027,
				"z": -1.8017745203,
				"element": "H" 
			},
			{
				"x": 4.9929581036,
				"y": 0.0341769572,
				"z": -0.6679397066,
				"element": "H" 
			},
			{
				"x": 0.6570070497,
				"y": -2.6683844442,
				"z": 0.0681237758,
				"element": "H" 
			},
			{
				"x": 1.4193797522,
				"y": -3.517524528,
				"z": 2.2471729985,
				"element": "H" 
			},
			{
				"x": 0.5509605237,
				"y": 0.3047411191,
				"z": 4.0198177977,
				"element": "H" 
			}
		],
		 "valence_orbital": [ 
			{
				"type": "occ",
				"energy": -0.29349,
				"method": "rhf"
			},
			{
				"type": "occ",
				"energy": -0.27967,
				"method": "rhf"
			},
			{
				"type": "occ",
				"energy": -0.2723,
				"method": "rhf"
			},
			{
				"type": "occ",
				"energy": -0.2683,
				"method": "rhf"
			},
			{
				"type": "occ",
				"energy": -0.25655,
				"method": "rhf"
			},
			{
				"type": "unocc",
				"energy": -0.03551,
				"method": "rhf"
			},
			{
				"type": "unocc",
				"energy": -0.0324,
				"method": "rhf"
			},
			{
				"type": "unocc",
				"energy": -0.00328,
				"method": "rhf"
			},
			{
				"type": "unocc",
				"energy": -0.00154,
				"method": "rhf"
			},
			{
				"type": "unocc",
				"energy": 0.03893,
				"method": "rhf"
			}
		],
		"cosmo_sigma_profile": { 
			"-0.025": 0.0,
			"-0.024": 0.0,
			"-0.023": 0.0,
			"-0.022": 0.0,
			"-0.021": 0.0,
			"-0.02": 0.0,
			"-0.019": 0.0,
			"-0.018": 0.0,
			"-0.017": 0.0,
			"-0.016": 0.0,
			"-0.015": 0.0,
			"-0.014": 0.0,
			"-0.013": 0.0,
			"-0.012": 0.081941064581,
			"-0.011": 1.35460525094,
			"-0.01": 5.62428269288,
			"-0.009": 7.43643922997,
			"-0.008": 15.3596740582,
			"-0.007": 16.9586403852,
			"-0.006": 14.4896751812,
			"-0.005": 12.9724936881,
			"-0.004": 14.4183669034,
			"-0.003": 15.4430623369,
			"-0.002": 17.6885991345,
			"-0.001": 19.1527130673,
			"0.0": 26.6172297992,
			"0.001": 30.2374803224,
			"0.002": 42.9571035384,
			"0.003": 50.3034338247,
			"0.004": 27.6891755956,
			"0.005": 7.84434394109,
			"0.006": 4.93126443729,
			"0.007": 4.66135659722,
			"0.008": 3.67193288095,
			"0.009": 3.27415336265,
			"0.01": 2.53404449326,
			"0.011": 1.58706179972,
			"0.012": 2.15003790191,
			"0.013": 1.7484729316,
			"0.014": 1.93651266036,
			"0.015": 0.885713793195,
			"0.016": 0.999326286131,
			"0.017": 0.383655490261,
			"0.018": 0.0,
			"0.019": 0.0,
			"0.02": 0.0,
			"0.021": 0.0,
			"0.022": 0.0,
			"0.023": 0.0,
			"0.024": 0.0,
			"0.025": 0.0
		}
	}
}
