{
	 "smiles": "OC(=O)C1=CC2=C(CCOC2)S1", 
	 "Tm": 422.15, 
	 "num_atms": 20, 
	 "gaussian": { 
		 "optdone": 1, 
		 "sigma_profile": "yes", 
		 "theory": "DFT", 
		 "functional": "B3LYP", 
		 "basiset": "6-31G**", 
		 "properties": { 
			 "R2extent": 3306.9428, 
			 "electric_dipole_moment_norm": 2.09769803594, 
			 "electric_quadrupole_moment_norm": 6.14583439656, 
			 "total_energy": -933.525781602, 
			 "HOMO_LUMO_gap": 0.18335, 
			 "cosmo_polarized_energy": -11.6, 
			 "cosmo_cavitation_energy": 25.23, 
			 "cosmo_dispersion_energy": -19.58, 
			 "cosmo_repulsion_energy": 1.52, 
			 "cosmo_total_nonelectrostatic_energy": 7.18, 
			 "SMD_solvation_energy": 4.87 
		},
		"coords": [
			{
				"x": -3.3970527321,
				"y": -2.4891374838,
				"z": -0.8139083822,
				"element": "O" 
			},
			{
				"x": -2.7246910911,
				"y": -2.0764772529,
				"z": -1.9196485203,
				"element": "C" 
			},
			{
				"x": -3.0843941091,
				"y": -2.3513870434,
				"z": -3.0481880754,
				"element": "O" 
			},
			{
				"x": -1.5410198353,
				"y": -1.2767992646,
				"z": -1.5933046802,
				"element": "C" 
			},
			{
				"x": -0.6768640068,
				"y": -0.7330774287,
				"z": -2.5147240286,
				"element": "C" 
			},
			{
				"x": 0.3893984367,
				"y": -0.0109961193,
				"z": -1.9147152646,
				"element": "C" 
			},
			{
				"x": 0.3192734688,
				"y": -0.0051368359,
				"z": -0.540186621,
				"element": "C" 
			},
			{
				"x": 1.3214476376,
				"y": 0.6999943211,
				"z": 0.3277615216,
				"element": "C" 
			},
			{
				"x": 2.0873806621,
				"y": 1.7018568346,
				"z": -0.5522163932,
				"element": "C" 
			},
			{
				"x": 2.5552575531,
				"y": 1.0827888759,
				"z": -1.7421248131,
				"element": "O" 
			},
			{
				"x": 1.5038347629,
				"y": 0.7192589602,
				"z": -2.6259381496,
				"element": "C" 
			},
			{
				"x": -1.0507893499,
				"y": -0.8980680375,
				"z": 0.0417292447,
				"element": "S" 
			},
			{
				"x": -4.154416459,
				"y": -3.0040035263,
				"z": -1.1368237634,
				"element": "H" 
			},
			{
				"x": -0.8236107138,
				"y": -0.8668495609,
				"z": -3.5806309959,
				"element": "H" 
			},
			{
				"x": 2.0249528413,
				"y": -0.0210889011,
				"z": 0.7635763859,
				"element": "H" 
			},
			{
				"x": 0.8382526012,
				"y": 1.2239640437,
				"z": 1.161071767,
				"element": "H" 
			},
			{
				"x": 1.4387681862,
				"y": 2.5598815975,
				"z": -0.7923032865,
				"element": "H" 
			},
			{
				"x": 2.973397794,
				"y": 2.0773211155,
				"z": -0.0334869822,
				"element": "H" 
			},
			{
				"x": 1.9596318759,
				"y": 0.0867885126,
				"z": -3.3949597352,
				"element": "H" 
			},
			{
				"x": 1.1034424773,
				"y": 1.6155671931,
				"z": -3.1320792277,
				"element": "H" 
			}
		],
		 "valence_orbital": [ 
			{
				"type": "occ",
				"energy": -0.31888,
				"method": "rhf"
			},
			{
				"type": "occ",
				"energy": -0.27835,
				"method": "rhf"
			},
			{
				"type": "occ",
				"energy": -0.26749,
				"method": "rhf"
			},
			{
				"type": "occ",
				"energy": -0.2553,
				"method": "rhf"
			},
			{
				"type": "occ",
				"energy": -0.23804,
				"method": "rhf"
			},
			{
				"type": "unocc",
				"energy": -0.05469,
				"method": "rhf"
			},
			{
				"type": "unocc",
				"energy": 0.02038,
				"method": "rhf"
			},
			{
				"type": "unocc",
				"energy": 0.03056,
				"method": "rhf"
			},
			{
				"type": "unocc",
				"energy": 0.07595,
				"method": "rhf"
			},
			{
				"type": "unocc",
				"energy": 0.08689,
				"method": "rhf"
			}
		],
		"cosmo_sigma_profile": { 
			"-0.025": 0.0,
			"-0.024": 0.0,
			"-0.023": 0.0,
			"-0.022": 0.0,
			"-0.021": 0.0,
			"-0.02": 0.0,
			"-0.019": 0.145212232165,
			"-0.018": 0.862816142394,
			"-0.017": 0.915453433889,
			"-0.016": 0.589665651497,
			"-0.015": 0.923015626654,
			"-0.014": 0.82235591631,
			"-0.013": 0.782183007716,
			"-0.012": 0.411422094354,
			"-0.011": 0.532938260684,
			"-0.01": 0.712174528367,
			"-0.009": 0.700559056049,
			"-0.008": 1.26010604475,
			"-0.007": 2.36196765736,
			"-0.006": 9.74520619053,
			"-0.005": 17.4869729909,
			"-0.004": 23.4791436062,
			"-0.003": 16.2941179688,
			"-0.002": 12.9770450501,
			"-0.001": 9.18887286585,
			"0.0": 10.5150515578,
			"0.001": 11.1621222651,
			"0.002": 20.4888794495,
			"0.003": 16.4602287551,
			"0.004": 6.93437811561,
			"0.005": 5.15149480671,
			"0.006": 3.9278613028,
			"0.007": 4.86732987377,
			"0.008": 3.89912744207,
			"0.009": 2.26102156746,
			"0.01": 2.8397861538,
			"0.011": 4.98447331816,
			"0.012": 6.69238809734,
			"0.013": 1.76096645605,
			"0.014": 0.0179551601199,
			"0.015": 0.0,
			"0.016": 0.0,
			"0.017": 0.0,
			"0.018": 0.0,
			"0.019": 0.0,
			"0.02": 0.0,
			"0.021": 0.0,
			"0.022": 0.0,
			"0.023": 0.0,
			"0.024": 0.0,
			"0.025": 0.0
		}
	}
}
