{
	 "smiles": "CC(C)NC(=O)NC1=CC=C(C=C1)C(C)=O", 
	 "Tm": 421.15, 
	 "num_atms": 32, 
	 "gaussian": { 
		 "optdone": 1, 
		 "sigma_profile": "yes", 
		 "theory": "DFT", 
		 "functional": "B3LYP", 
		 "basiset": "6-31G**", 
		 "properties": { 
			 "R2extent": 6417.4106, 
			 "electric_dipole_moment_norm": 3.23919148245, 
			 "electric_quadrupole_moment_norm": 22.5041603096, 
			 "total_energy": -726.91479536, 
			 "HOMO_LUMO_gap": 0.17275, 
			 "cosmo_polarized_energy": -17.33, 
			 "cosmo_cavitation_energy": 35.54, 
			 "cosmo_dispersion_energy": -25.06, 
			 "cosmo_repulsion_energy": 1.97, 
			 "cosmo_total_nonelectrostatic_energy": 12.44, 
			 "SMD_solvation_energy": 7.23 
		},
		"coords": [
			{
				"x": 2.3481771337,
				"y": 1.4999044974,
				"z": 2.1053809689,
				"element": "C" 
			},
			{
				"x": 2.5856022368,
				"y": 0.6366208646,
				"z": 0.8651998394,
				"element": "C" 
			},
			{
				"x": 2.9913991823,
				"y": 1.4722419944,
				"z": -0.3538104654,
				"element": "C" 
			},
			{
				"x": 1.3615327897,
				"y": -0.1326773985,
				"z": 0.5838158379,
				"element": "N" 
			},
			{
				"x": 1.4366292881,
				"y": -1.2900250673,
				"z": -0.1453966658,
				"element": "C" 
			},
			{
				"x": 2.4619025229,
				"y": -1.6869183136,
				"z": -0.687049404,
				"element": "O" 
			},
			{
				"x": 0.264891805,
				"y": -2.0544358013,
				"z": -0.2471930867,
				"element": "N" 
			},
			{
				"x": -1.0649061894,
				"y": -1.8024852958,
				"z": 0.1026561999,
				"element": "C" 
			},
			{
				"x": -1.9009487582,
				"y": -2.9063836285,
				"z": 0.3709220155,
				"element": "C" 
			},
			{
				"x": -3.2341907497,
				"y": -2.7207181705,
				"z": 0.6931328143,
				"element": "C" 
			},
			{
				"x": -3.7895779925,
				"y": -1.431157388,
				"z": 0.7689998571,
				"element": "C" 
			},
			{
				"x": -2.9593632817,
				"y": -0.3371224927,
				"z": 0.4890405154,
				"element": "C" 
			},
			{
				"x": -1.61956042,
				"y": -0.5100080843,
				"z": 0.1507216568,
				"element": "C" 
			},
			{
				"x": -5.2314287518,
				"y": -1.2978912882,
				"z": 1.1340485638,
				"element": "C" 
			},
			{
				"x": -5.8420927192,
				"y": 0.0922394549,
				"z": 1.2182364016,
				"element": "C" 
			},
			{
				"x": -5.9120912908,
				"y": -2.2884570519,
				"z": 1.3620812034,
				"element": "O" 
			},
			{
				"x": 2.0920165973,
				"y": 0.8884368725,
				"z": 2.9775975791,
				"element": "H" 
			},
			{
				"x": 3.2500695736,
				"y": 2.0684800467,
				"z": 2.3477743666,
				"element": "H" 
			},
			{
				"x": 1.5375483167,
				"y": 2.2186354059,
				"z": 1.9354830522,
				"element": "H" 
			},
			{
				"x": 3.3894418956,
				"y": -0.0806539677,
				"z": 1.0707842272,
				"element": "H" 
			},
			{
				"x": 2.2177531879,
				"y": 2.2100882743,
				"z": -0.5934665828,
				"element": "H" 
			},
			{
				"x": 3.9280071336,
				"y": 2.0044451495,
				"z": -0.1562944239,
				"element": "H" 
			},
			{
				"x": 3.1406944068,
				"y": 0.8234920356,
				"z": -1.219390036,
				"element": "H" 
			},
			{
				"x": 0.5947108551,
				"y": -0.0372005661,
				"z": 1.2343896796,
				"element": "H" 
			},
			{
				"x": 0.4724615232,
				"y": -2.9675994591,
				"z": -0.6277304707,
				"element": "H" 
			},
			{
				"x": -1.4826880248,
				"y": -3.9089150997,
				"z": 0.3326989551,
				"element": "H" 
			},
			{
				"x": -3.8789726673,
				"y": -3.5671497035,
				"z": 0.9050785198,
				"element": "H" 
			},
			{
				"x": -3.3584373881,
				"y": 0.6720525251,
				"z": 0.5125401768,
				"element": "H" 
			},
			{
				"x": -1.0159644897,
				"y": 0.3492684692,
				"z": -0.1155445296,
				"element": "H" 
			},
			{
				"x": -5.3250687313,
				"y": 0.7065171914,
				"z": 1.9637499694,
				"element": "H" 
			},
			{
				"x": -5.7688329384,
				"y": 0.6136374657,
				"z": 0.257298462,
				"element": "H" 
			},
			{
				"x": -6.8918140555,
				"y": -0.005461471,
				"z": 1.4961448033,
				"element": "H" 
			}
		],
		 "valence_orbital": [ 
			{
				"type": "occ",
				"energy": -0.26945,
				"method": "rhf"
			},
			{
				"type": "occ",
				"energy": -0.26729,
				"method": "rhf"
			},
			{
				"type": "occ",
				"energy": -0.25877,
				"method": "rhf"
			},
			{
				"type": "occ",
				"energy": -0.24712,
				"method": "rhf"
			},
			{
				"type": "occ",
				"energy": -0.22822,
				"method": "rhf"
			},
			{
				"type": "unocc",
				"energy": -0.05547,
				"method": "rhf"
			},
			{
				"type": "unocc",
				"energy": -0.01976,
				"method": "rhf"
			},
			{
				"type": "unocc",
				"energy": 0.0263,
				"method": "rhf"
			},
			{
				"type": "unocc",
				"energy": 0.06553,
				"method": "rhf"
			},
			{
				"type": "unocc",
				"energy": 0.0768,
				"method": "rhf"
			}
		],
		"cosmo_sigma_profile": { 
			"-0.025": 0.0,
			"-0.024": 0.0,
			"-0.023": 0.0,
			"-0.022": 0.0,
			"-0.021": 0.0,
			"-0.02": 0.0,
			"-0.019": 0.0,
			"-0.018": 0.0,
			"-0.017": 0.0,
			"-0.016": 0.0,
			"-0.015": 0.186556420873,
			"-0.014": 0.724891410405,
			"-0.013": 1.25484964637,
			"-0.012": 1.62526732769,
			"-0.011": 1.2228892528,
			"-0.01": 2.68565533639,
			"-0.009": 2.97386947909,
			"-0.008": 2.83742812176,
			"-0.007": 4.04501906703,
			"-0.006": 13.489212043,
			"-0.005": 15.9726287293,
			"-0.004": 19.5966140966,
			"-0.003": 25.7330214439,
			"-0.002": 26.5202753184,
			"-0.001": 27.002282411,
			"0.0": 26.8708971198,
			"0.001": 22.9245022234,
			"0.002": 17.0375493116,
			"0.003": 15.8235794054,
			"0.004": 11.5567933838,
			"0.005": 3.29496082842,
			"0.006": 3.15439302415,
			"0.007": 3.28358879107,
			"0.008": 2.79232490946,
			"0.009": 3.52138539362,
			"0.01": 2.70807937479,
			"0.011": 4.08340252312,
			"0.012": 6.0489924793,
			"0.013": 4.93675281906,
			"0.014": 5.80932640017,
			"0.015": 0.529838239401,
			"0.016": 0.0,
			"0.017": 0.0,
			"0.018": 0.0,
			"0.019": 0.0,
			"0.02": 0.0,
			"0.021": 0.0,
			"0.022": 0.0,
			"0.023": 0.0,
			"0.024": 0.0,
			"0.025": 0.0
		}
	}
}
