{
	 "smiles": "[O-][N+](=O)C1=CC=C(C=C1)C1=NN=C2SCNN12", 
	 "Tm": 491.15, 
	 "num_atms": 24, 
	 "gaussian": { 
		 "optdone": 1, 
		 "sigma_profile": "yes", 
		 "theory": "DFT", 
		 "functional": "B3LYP", 
		 "basiset": "6-31G**", 
		 "properties": { 
			 "R2extent": 6590.8694, 
			 "electric_dipole_moment_norm": 6.80692144071, 
			 "electric_quadrupole_moment_norm": 28.5394065287, 
			 "total_energy": -1169.39485985, 
			 "HOMO_LUMO_gap": 0.1416, 
			 "cosmo_polarized_energy": -22.6, 
			 "cosmo_cavitation_energy": 31.15, 
			 "cosmo_dispersion_energy": -23.7, 
			 "cosmo_repulsion_energy": 1.74, 
			 "cosmo_total_nonelectrostatic_energy": 9.2, 
			 "SMD_solvation_energy": 4.73 
		},
		"coords": [
			{
				"x": 2.09153938,
				"y": 3.2995105926,
				"z": 1.9882895641,
				"element": "O" 
			},
			{
				"x": 2.1938555643,
				"y": 3.263970073,
				"z": 0.7617585586,
				"element": "N" 
			},
			{
				"x": 2.9154717653,
				"y": 4.0058079285,
				"z": 0.0958884397,
				"element": "O" 
			},
			{
				"x": 1.3955595536,
				"y": 2.2627252058,
				"z": 0.0400871181,
				"element": "C" 
			},
			{
				"x": 1.4847587995,
				"y": 2.1971525858,
				"z": -1.3512854104,
				"element": "C" 
			},
			{
				"x": 0.7257537744,
				"y": 1.2529543687,
				"z": -2.0277668474,
				"element": "C" 
			},
			{
				"x": -0.1189212585,
				"y": 0.3764026496,
				"z": -1.3194969772,
				"element": "C" 
			},
			{
				"x": -0.1868531661,
				"y": 0.4611610955,
				"z": 0.0824573779,
				"element": "C" 
			},
			{
				"x": 0.5715840595,
				"y": 1.4059410592,
				"z": 0.7658977223,
				"element": "C" 
			},
			{
				"x": -0.8906024647,
				"y": -0.6035642301,
				"z": -2.0824424396,
				"element": "C" 
			},
			{
				"x": -0.7703215737,
				"y": -0.8159679356,
				"z": -3.383910893,
				"element": "N" 
			},
			{
				"x": -1.6304388134,
				"y": -1.8277468113,
				"z": -3.7705275326,
				"element": "N" 
			},
			{
				"x": -2.2694086039,
				"y": -2.1933587772,
				"z": -2.6887250571,
				"element": "C" 
			},
			{
				"x": -3.5097265319,
				"y": -3.3680929896,
				"z": -2.258961957,
				"element": "S" 
			},
			{
				"x": -2.975151656,
				"y": -3.0737854467,
				"z": -0.4701645632,
				"element": "C" 
			},
			{
				"x": -2.4923701902,
				"y": -1.6995287747,
				"z": -0.366676272,
				"element": "N" 
			},
			{
				"x": -1.8479824863,
				"y": -1.4711738386,
				"z": -1.6022611462,
				"element": "N" 
			},
			{
				"x": 2.139531143,
				"y": 2.8814963355,
				"z": -1.8758656508,
				"element": "H" 
			},
			{
				"x": 0.7721955781,
				"y": 1.1738828038,
				"z": -3.1077965621,
				"element": "H" 
			},
			{
				"x": -0.8242673584,
				"y": -0.2184187159,
				"z": 0.6366712189,
				"element": "H" 
			},
			{
				"x": 0.5377135497,
				"y": 1.4884587893,
				"z": 1.8449042038,
				"element": "H" 
			},
			{
				"x": -3.8144894342,
				"y": -3.2352997506,
				"z": 0.2052822264,
				"element": "H" 
			},
			{
				"x": -2.1609113432,
				"y": -3.7652748597,
				"z": -0.2481783205,
				"element": "H" 
			},
			{
				"x": -3.2912182867,
				"y": -1.0607513575,
				"z": -0.3294768007,
				"element": "H" 
			}
		],
		 "valence_orbital": [ 
			{
				"type": "occ",
				"energy": -0.29226,
				"method": "rhf"
			},
			{
				"type": "occ",
				"energy": -0.28615,
				"method": "rhf"
			},
			{
				"type": "occ",
				"energy": -0.28356,
				"method": "rhf"
			},
			{
				"type": "occ",
				"energy": -0.27128,
				"method": "rhf"
			},
			{
				"type": "occ",
				"energy": -0.23954,
				"method": "rhf"
			},
			{
				"type": "unocc",
				"energy": -0.09794,
				"method": "rhf"
			},
			{
				"type": "unocc",
				"energy": -0.03571,
				"method": "rhf"
			},
			{
				"type": "unocc",
				"energy": -0.03236,
				"method": "rhf"
			},
			{
				"type": "unocc",
				"energy": -0.02713,
				"method": "rhf"
			},
			{
				"type": "unocc",
				"energy": 0.01204,
				"method": "rhf"
			}
		],
		"cosmo_sigma_profile": { 
			"-0.025": 0.0,
			"-0.024": 0.0,
			"-0.023": 0.0,
			"-0.022": 0.0,
			"-0.021": 0.0,
			"-0.02": 0.0,
			"-0.019": 0.0,
			"-0.018": 0.0,
			"-0.017": 0.0,
			"-0.016": 0.310084546383,
			"-0.015": 2.54108972681,
			"-0.014": 2.03363335973,
			"-0.013": 1.49773815844,
			"-0.012": 1.9342005374,
			"-0.011": 2.16020612968,
			"-0.01": 4.10056352708,
			"-0.009": 4.31684108693,
			"-0.008": 7.68508309834,
			"-0.007": 10.3597763823,
			"-0.006": 12.4552070937,
			"-0.005": 10.9038380418,
			"-0.004": 11.8493246331,
			"-0.003": 13.5805853283,
			"-0.002": 15.9566755945,
			"-0.001": 17.7433237987,
			"0.0": 24.556429102,
			"0.001": 21.3485144248,
			"0.002": 11.1200424404,
			"0.003": 8.75124623999,
			"0.004": 7.9482509515,
			"0.005": 8.54742693924,
			"0.006": 7.82419059894,
			"0.007": 9.79902417017,
			"0.008": 9.79057058864,
			"0.009": 6.62960127042,
			"0.01": 4.15615530341,
			"0.011": 2.33718531585,
			"0.012": 3.45487716698,
			"0.013": 3.22078176672,
			"0.014": 2.84185429748,
			"0.015": 1.40898640552,
			"0.016": 0.538789732798,
			"0.017": 0.0,
			"0.018": 0.0,
			"0.019": 0.0,
			"0.02": 0.0,
			"0.021": 0.0,
			"0.022": 0.0,
			"0.023": 0.0,
			"0.024": 0.0,
			"0.025": 0.0
		}
	}
}
