{
	 "smiles": "CC(C)CNC(=O)C(C)Cl", 
	 "Tm": 311.15, 
	 "num_atms": 24, 
	 "gaussian": { 
		 "optdone": 1, 
		 "sigma_profile": "yes", 
		 "theory": "DFT", 
		 "functional": "B3LYP", 
		 "basiset": "6-31G**", 
		 "properties": { 
			 "R2extent": 3099.8071, 
			 "electric_dipole_moment_norm": 3.69781845552, 
			 "electric_quadrupole_moment_norm": 10.698985178, 
			 "total_energy": -865.380527801, 
			 "HOMO_LUMO_gap": 0.23362, 
			 "cosmo_polarized_energy": -10.93, 
			 "cosmo_cavitation_energy": 27.73, 
			 "cosmo_dispersion_energy": -19.42, 
			 "cosmo_repulsion_energy": 1.6, 
			 "cosmo_total_nonelectrostatic_energy": 9.91, 
			 "SMD_solvation_energy": 4.9 
		},
		"coords": [
			{
				"x": -0.3739761869,
				"y": 2.0511996866,
				"z": -1.5297644702,
				"element": "C" 
			},
			{
				"x": -1.1925579824,
				"y": 0.808054008,
				"z": -1.1457402377,
				"element": "C" 
			},
			{
				"x": -1.7013557617,
				"y": 0.0600384614,
				"z": -2.3856036023,
				"element": "C" 
			},
			{
				"x": -0.4265963546,
				"y": -0.1214134225,
				"z": -0.1804539274,
				"element": "C" 
			},
			{
				"x": 0.7806788232,
				"y": -0.683580677,
				"z": -0.7774902651,
				"element": "N" 
			},
			{
				"x": 1.3357614406,
				"y": -1.9224279731,
				"z": -0.6413912482,
				"element": "C" 
			},
			{
				"x": 2.3939585823,
				"y": -2.2160067967,
				"z": -1.1835248315,
				"element": "O" 
			},
			{
				"x": 0.6027523472,
				"y": -2.9447877272,
				"z": 0.2476238201,
				"element": "C" 
			},
			{
				"x": 1.5121060745,
				"y": -4.0894176993,
				"z": 0.6543180654,
				"element": "C" 
			},
			{
				"x": -0.8487241269,
				"y": -3.5975521911,
				"z": -0.6780757778,
				"element": "Cl" 
			},
			{
				"x": -0.0075225704,
				"y": 2.5839548628,
				"z": -0.6452073764,
				"element": "H" 
			},
			{
				"x": -0.9844691829,
				"y": 2.7490644676,
				"z": -2.111340778,
				"element": "H" 
			},
			{
				"x": 0.4913007731,
				"y": 1.7961456134,
				"z": -2.1541208462,
				"element": "H" 
			},
			{
				"x": -2.0641366196,
				"y": 1.1544817463,
				"z": -0.5726578968,
				"element": "H" 
			},
			{
				"x": -2.2951953187,
				"y": 0.7244180418,
				"z": -3.0217929921,
				"element": "H" 
			},
			{
				"x": -2.3276904004,
				"y": -0.7932127163,
				"z": -2.1071365921,
				"element": "H" 
			},
			{
				"x": -0.869672343,
				"y": -0.3240303079,
				"z": -2.9850884545,
				"element": "H" 
			},
			{
				"x": -0.1734875318,
				"y": 0.441857532,
				"z": 0.7308603685,
				"element": "H" 
			},
			{
				"x": -1.0862587998,
				"y": -0.9414767083,
				"z": 0.1091674297,
				"element": "H" 
			},
			{
				"x": 1.3592311441,
				"y": -0.0666786923,
				"z": -1.333420929,
				"element": "H" 
			},
			{
				"x": 0.1682487128,
				"y": -2.4584737128,
				"z": 1.1233186159,
				"element": "H" 
			},
			{
				"x": 0.9595407012,
				"y": -4.8279989254,
				"z": 1.2389975172,
				"element": "H" 
			},
			{
				"x": 1.9462287793,
				"y": -4.5615064204,
				"z": -0.2275376783,
				"element": "H" 
			},
			{
				"x": 2.332935801,
				"y": -3.6964504495,
				"z": 1.2630620868,
				"element": "H" 
			}
		],
		 "valence_orbital": [ 
			{
				"type": "occ",
				"energy": -0.34159,
				"method": "rhf"
			},
			{
				"type": "occ",
				"energy": -0.30799,
				"method": "rhf"
			},
			{
				"type": "occ",
				"energy": -0.30007,
				"method": "rhf"
			},
			{
				"type": "occ",
				"energy": -0.25485,
				"method": "rhf"
			},
			{
				"type": "occ",
				"energy": -0.2515,
				"method": "rhf"
			},
			{
				"type": "unocc",
				"energy": -0.01788,
				"method": "rhf"
			},
			{
				"type": "unocc",
				"energy": 0.05806,
				"method": "rhf"
			},
			{
				"type": "unocc",
				"energy": 0.06776,
				"method": "rhf"
			},
			{
				"type": "unocc",
				"energy": 0.08694,
				"method": "rhf"
			},
			{
				"type": "unocc",
				"energy": 0.11098,
				"method": "rhf"
			}
		],
		"cosmo_sigma_profile": { 
			"-0.025": 0.0,
			"-0.024": 0.0,
			"-0.023": 0.0,
			"-0.022": 0.0,
			"-0.021": 0.0,
			"-0.02": 0.0,
			"-0.019": 0.0,
			"-0.018": 0.0,
			"-0.017": 0.0,
			"-0.016": 0.0,
			"-0.015": 0.0,
			"-0.014": 0.0,
			"-0.013": 0.000506240877177,
			"-0.012": 0.51684560686,
			"-0.011": 1.08823675483,
			"-0.01": 1.52389973334,
			"-0.009": 0.936971954659,
			"-0.008": 3.76743834883,
			"-0.007": 4.86937929602,
			"-0.006": 4.52044272212,
			"-0.005": 8.16619879159,
			"-0.004": 15.4726440438,
			"-0.003": 25.0718345791,
			"-0.002": 25.7481744127,
			"-0.001": 21.7358377023,
			"0.0": 21.4596472607,
			"0.001": 20.8303920215,
			"0.002": 12.5966488964,
			"0.003": 10.3702470667,
			"0.004": 6.56841583917,
			"0.005": 7.91582578739,
			"0.006": 7.10759869499,
			"0.007": 1.40344516592,
			"0.008": 1.98101110253,
			"0.009": 0.624645674033,
			"0.01": 0.994764472387,
			"0.011": 2.35888778449,
			"0.012": 2.18124548458,
			"0.013": 4.41108699796,
			"0.014": 3.3783411058,
			"0.015": 0.0767654354195,
			"0.016": 0.0,
			"0.017": 0.0,
			"0.018": 0.0,
			"0.019": 0.0,
			"0.02": 0.0,
			"0.021": 0.0,
			"0.022": 0.0,
			"0.023": 0.0,
			"0.024": 0.0,
			"0.025": 0.0
		}
	}
}
