{
	 "smiles": "ClS(=O)(=O)C1=CNC2=C1C=CC=N2", 
	 "Tm": 461.15, 
	 "num_atms": 18, 
	 "gaussian": { 
		 "optdone": 1, 
		 "sigma_profile": "yes", 
		 "theory": "DFT", 
		 "functional": "B3LYP", 
		 "basiset": "6-31G**", 
		 "properties": { 
			 "R2extent": 3155.6515, 
			 "electric_dipole_moment_norm": 4.93132672716, 
			 "electric_quadrupole_moment_norm": 14.8039994113, 
			 "total_energy": -1388.02287773, 
			 "HOMO_LUMO_gap": 0.1733, 
			 "cosmo_polarized_energy": -14.87, 
			 "cosmo_cavitation_energy": 26.29, 
			 "cosmo_dispersion_energy": -19.92, 
			 "cosmo_repulsion_energy": 1.52, 
			 "cosmo_total_nonelectrostatic_energy": 7.89, 
			 "SMD_solvation_energy": 1.57 
		},
		"coords": [
			{
				"x": -0.4302300445,
				"y": -1.2320333242,
				"z": -2.5667895631,
				"element": "Cl" 
			},
			{
				"x": -1.2544452777,
				"y": 0.6075296008,
				"z": -1.8365196122,
				"element": "S" 
			},
			{
				"x": -0.6896543169,
				"y": 1.656105296,
				"z": -2.6782508353,
				"element": "O" 
			},
			{
				"x": -2.6890956382,
				"y": 0.3674606457,
				"z": -1.7311408461,
				"element": "O" 
			},
			{
				"x": -0.5706350833,
				"y": 0.7189505073,
				"z": -0.2418630126,
				"element": "C" 
			},
			{
				"x": 0.5606034109,
				"y": 1.4529804741,
				"z": 0.0563104111,
				"element": "C" 
			},
			{
				"x": 0.8332287519,
				"y": 1.31136809,
				"z": 1.3840262233,
				"element": "N" 
			},
			{
				"x": -0.1087717516,
				"y": 0.4774354217,
				"z": 1.9697080424,
				"element": "C" 
			},
			{
				"x": -1.0212918538,
				"y": 0.0732851499,
				"z": 0.9609933031,
				"element": "C" 
			},
			{
				"x": -2.0679388954,
				"y": -0.7716020134,
				"z": 1.3497583234,
				"element": "C" 
			},
			{
				"x": -2.1106607414,
				"y": -1.1438445631,
				"z": 2.6892640733,
				"element": "C" 
			},
			{
				"x": -1.1378600991,
				"y": -0.6719605561,
				"z": 3.591617092,
				"element": "C" 
			},
			{
				"x": -0.1314992836,
				"y": 0.14133565,
				"z": 3.2542227061,
				"element": "N" 
			},
			{
				"x": 1.1662902183,
				"y": 2.0608125363,
				"z": -0.598915687,
				"element": "H" 
			},
			{
				"x": 1.5873339687,
				"y": 1.7532373694,
				"z": 1.8892236907,
				"element": "H" 
			},
			{
				"x": -2.8098758518,
				"y": -1.1113327934,
				"z": 0.6354472719,
				"element": "H" 
			},
			{
				"x": -2.8962470445,
				"y": -1.797867588,
				"z": 3.0524046272,
				"element": "H" 
			},
			{
				"x": -1.1809504679,
				"y": -0.9668599027,
				"z": 4.6374037918,
				"element": "H" 
			}
		],
		 "valence_orbital": [ 
			{
				"type": "occ",
				"energy": -0.31908,
				"method": "rhf"
			},
			{
				"type": "occ",
				"energy": -0.30829,
				"method": "rhf"
			},
			{
				"type": "occ",
				"energy": -0.28733,
				"method": "rhf"
			},
			{
				"type": "occ",
				"energy": -0.26884,
				"method": "rhf"
			},
			{
				"type": "occ",
				"energy": -0.25754,
				"method": "rhf"
			},
			{
				"type": "unocc",
				"energy": -0.08424,
				"method": "rhf"
			},
			{
				"type": "unocc",
				"energy": -0.05601,
				"method": "rhf"
			},
			{
				"type": "unocc",
				"energy": -0.00972,
				"method": "rhf"
			},
			{
				"type": "unocc",
				"energy": -0.00018,
				"method": "rhf"
			},
			{
				"type": "unocc",
				"energy": 0.0522,
				"method": "rhf"
			}
		],
		"cosmo_sigma_profile": { 
			"-0.025": 0.0,
			"-0.024": 0.0,
			"-0.023": 0.0,
			"-0.022": 0.0,
			"-0.021": 0.0,
			"-0.02": 0.0,
			"-0.019": 0.0,
			"-0.018": 0.998974915981,
			"-0.017": 1.62274898651,
			"-0.016": 1.29589330655,
			"-0.015": 1.28231521957,
			"-0.014": 1.12100384257,
			"-0.013": 1.50569754027,
			"-0.012": 1.68257915817,
			"-0.011": 2.88999750285,
			"-0.01": 2.1933556445,
			"-0.009": 2.05843635427,
			"-0.008": 1.92971817906,
			"-0.007": 6.12453314035,
			"-0.006": 9.02187184201,
			"-0.005": 9.40122105216,
			"-0.004": 9.01465475596,
			"-0.003": 8.94026965778,
			"-0.002": 10.8189874508,
			"-0.001": 17.7249797016,
			"0.0": 17.5914618838,
			"0.001": 18.792737481,
			"0.002": 18.3335163053,
			"0.003": 14.6722312513,
			"0.004": 16.3918267136,
			"0.005": 6.39471351389,
			"0.006": 4.88114846136,
			"0.007": 5.57240918656,
			"0.008": 10.0688288235,
			"0.009": 7.40795641079,
			"0.01": 1.35010251971,
			"0.011": 0.862144657184,
			"0.012": 0.876563680165,
			"0.013": 1.04754681405,
			"0.014": 0.643587363228,
			"0.015": 0.312036490549,
			"0.016": 0.0,
			"0.017": 0.0,
			"0.018": 0.0,
			"0.019": 0.0,
			"0.02": 0.0,
			"0.021": 0.0,
			"0.022": 0.0,
			"0.023": 0.0,
			"0.024": 0.0,
			"0.025": 0.0
		}
	}
}
