{
	 "smiles": "COCCN1C=C(C=CC1=O)C(O)=O", 
	 "Tm": 459.15, 
	 "num_atms": 25, 
	 "gaussian": { 
		 "optdone": 1, 
		 "sigma_profile": "yes", 
		 "theory": "DFT", 
		 "functional": "B3LYP", 
		 "basiset": "6-31G**", 
		 "properties": { 
			 "R2extent": 3877.6323, 
			 "electric_dipole_moment_norm": 1.04627837596, 
			 "electric_quadrupole_moment_norm": 13.4193061408, 
			 "total_energy": -705.240846114, 
			 "HOMO_LUMO_gap": 0.17622, 
			 "cosmo_polarized_energy": -15.96, 
			 "cosmo_cavitation_energy": 29.65, 
			 "cosmo_dispersion_energy": -21.2, 
			 "cosmo_repulsion_energy": 1.67, 
			 "cosmo_total_nonelectrostatic_energy": 10.13, 
			 "SMD_solvation_energy": 7.56 
		},
		"coords": [
			{
				"x": -2.2622936556,
				"y": 3.5280886661,
				"z": -1.8219099117,
				"element": "C" 
			},
			{
				"x": -1.0679256884,
				"y": 2.9795710952,
				"z": -2.3557414416,
				"element": "O" 
			},
			{
				"x": -0.2899917957,
				"y": 2.2651068618,
				"z": -1.4173436041,
				"element": "C" 
			},
			{
				"x": -0.7626607719,
				"y": 0.8049350416,
				"z": -1.3058584381,
				"element": "C" 
			},
			{
				"x": 0.0555879059,
				"y": 0.0384011885,
				"z": -0.3553745161,
				"element": "N" 
			},
			{
				"x": 1.0869813595,
				"y": -0.7205485245,
				"z": -0.7902721378,
				"element": "C" 
			},
			{
				"x": 1.8851919836,
				"y": -1.4356101578,
				"z": 0.071923549,
				"element": "C" 
			},
			{
				"x": 1.5997518899,
				"y": -1.3621227024,
				"z": 1.4698250854,
				"element": "C" 
			},
			{
				"x": 0.5653382273,
				"y": -0.6000429996,
				"z": 1.9240470256,
				"element": "C" 
			},
			{
				"x": -0.2775209155,
				"y": 0.1707124655,
				"z": 1.0329338112,
				"element": "C" 
			},
			{
				"x": -1.212135679,
				"y": 0.8951957575,
				"z": 1.3628585123,
				"element": "O" 
			},
			{
				"x": 2.9765221425,
				"y": -2.2335694877,
				"z": -0.5130155722,
				"element": "C" 
			},
			{
				"x": 3.697803515,
				"y": -2.89886778,
				"z": 0.4250657907,
				"element": "O" 
			},
			{
				"x": 3.2310354435,
				"y": -2.3096261757,
				"z": -1.7014980781,
				"element": "O" 
			},
			{
				"x": -2.7467658722,
				"y": 4.0770017689,
				"z": -2.6327535421,
				"element": "H" 
			},
			{
				"x": -2.9562776086,
				"y": 2.7586408113,
				"z": -1.4555463926,
				"element": "H" 
			},
			{
				"x": -2.0510761838,
				"y": 4.2223756681,
				"z": -0.9956039436,
				"element": "H" 
			},
			{
				"x": -0.3196267113,
				"y": 2.7340461075,
				"z": -0.4245520729,
				"element": "H" 
			},
			{
				"x": 0.7441771147,
				"y": 2.2867727139,
				"z": -1.7801321332,
				"element": "H" 
			},
			{
				"x": -0.7049512873,
				"y": 0.3210454087,
				"z": -2.2834346838,
				"element": "H" 
			},
			{
				"x": -1.7917101757,
				"y": 0.7695493151,
				"z": -0.946162235,
				"element": "H" 
			},
			{
				"x": 1.2643621611,
				"y": -0.7540935687,
				"z": -1.8599231569,
				"element": "H" 
			},
			{
				"x": 2.2184362725,
				"y": -1.9234996365,
				"z": 2.1618154718,
				"element": "H" 
			},
			{
				"x": 0.3246618319,
				"y": -0.5250396839,
				"z": 2.977962261,
				"element": "H" 
			},
			{
				"x": 4.3811864974,
				"y": -3.3857221529,
				"z": -0.063909647,
				"element": "H" 
			}
		],
		 "valence_orbital": [ 
			{
				"type": "occ",
				"energy": -0.31067,
				"method": "rhf"
			},
			{
				"type": "occ",
				"energy": -0.28437,
				"method": "rhf"
			},
			{
				"type": "occ",
				"energy": -0.26423,
				"method": "rhf"
			},
			{
				"type": "occ",
				"energy": -0.26222,
				"method": "rhf"
			},
			{
				"type": "occ",
				"energy": -0.2294,
				"method": "rhf"
			},
			{
				"type": "unocc",
				"energy": -0.05318,
				"method": "rhf"
			},
			{
				"type": "unocc",
				"energy": -0.03859,
				"method": "rhf"
			},
			{
				"type": "unocc",
				"energy": 0.05639,
				"method": "rhf"
			},
			{
				"type": "unocc",
				"energy": 0.06955,
				"method": "rhf"
			},
			{
				"type": "unocc",
				"energy": 0.08541,
				"method": "rhf"
			}
		],
		"cosmo_sigma_profile": { 
			"-0.025": 0.0,
			"-0.024": 0.0,
			"-0.023": 0.0,
			"-0.022": 0.0,
			"-0.021": 0.0,
			"-0.02": 0.0,
			"-0.019": 0.106445449404,
			"-0.018": 0.757626780776,
			"-0.017": 0.974506055687,
			"-0.016": 1.02660758655,
			"-0.015": 0.710411127866,
			"-0.014": 0.364210013292,
			"-0.013": 0.374379448294,
			"-0.012": 0.81109321387,
			"-0.011": 1.4098188069,
			"-0.01": 2.51522903168,
			"-0.009": 2.19158745106,
			"-0.008": 3.58188261519,
			"-0.007": 6.65672450368,
			"-0.006": 10.1189980701,
			"-0.005": 14.4342964312,
			"-0.004": 20.7182297296,
			"-0.003": 22.1682094293,
			"-0.002": 24.1987728492,
			"-0.001": 18.1733313186,
			"0.0": 15.9988530708,
			"0.001": 13.3127103214,
			"0.002": 9.97446855859,
			"0.003": 7.90074989471,
			"0.004": 5.73146037859,
			"0.005": 6.01046094588,
			"0.006": 4.94092274859,
			"0.007": 4.61037816694,
			"0.008": 4.99646523813,
			"0.009": 3.52123237816,
			"0.01": 3.79279883954,
			"0.011": 5.97310559481,
			"0.012": 8.04915945817,
			"0.013": 5.56616197297,
			"0.014": 2.7596258822,
			"0.015": 0.438870286233,
			"0.016": 0.0,
			"0.017": 0.0,
			"0.018": 0.0,
			"0.019": 0.0,
			"0.02": 0.0,
			"0.021": 0.0,
			"0.022": 0.0,
			"0.023": 0.0,
			"0.024": 0.0,
			"0.025": 0.0
		}
	}
}
