{
	 "smiles": "CN1N=C(C)C=C1NC(=O)CCl", 
	 "Tm": 389.15, 
	 "num_atms": 22, 
	 "gaussian": { 
		 "optdone": 1, 
		 "sigma_profile": "yes", 
		 "theory": "DFT", 
		 "functional": "B3LYP", 
		 "basiset": "6-31G**", 
		 "properties": { 
			 "R2extent": 4207.1506, 
			 "electric_dipole_moment_norm": 3.53902013981, 
			 "electric_quadrupole_moment_norm": 24.6445863437, 
			 "total_energy": -972.434300955, 
			 "HOMO_LUMO_gap": 0.24298, 
			 "cosmo_polarized_energy": -16.37, 
			 "cosmo_cavitation_energy": 28.31, 
			 "cosmo_dispersion_energy": -20.03, 
			 "cosmo_repulsion_energy": 1.66, 
			 "cosmo_total_nonelectrostatic_energy": 9.94, 
			 "SMD_solvation_energy": 4.97 
		},
		"coords": [
			{
				"x": 3.0864218096,
				"y": 0.2334758416,
				"z": 0.4753104433,
				"element": "C" 
			},
			{
				"x": 1.6625153134,
				"y": -0.0360438637,
				"z": 0.3990456828,
				"element": "N" 
			},
			{
				"x": 0.7863180149,
				"y": 0.8356683653,
				"z": 0.9378605521,
				"element": "N" 
			},
			{
				"x": -0.4237992227,
				"y": 0.296514273,
				"z": 0.7536205362,
				"element": "C" 
			},
			{
				"x": -1.6512462757,
				"y": 1.0127758946,
				"z": 1.2283782138,
				"element": "C" 
			},
			{
				"x": -0.3258489396,
				"y": -0.9502022994,
				"z": 0.0943032005,
				"element": "C" 
			},
			{
				"x": 1.0299920623,
				"y": -1.1356770611,
				"z": -0.1196483429,
				"element": "C" 
			},
			{
				"x": 1.7417335162,
				"y": -2.1903517781,
				"z": -0.7197844061,
				"element": "N" 
			},
			{
				"x": 1.838435694,
				"y": -2.4634551395,
				"z": -2.0774020481,
				"element": "C" 
			},
			{
				"x": 2.3686498054,
				"y": -3.4772916515,
				"z": -2.4798385617,
				"element": "O" 
			},
			{
				"x": 1.2294519173,
				"y": -1.3824552411,
				"z": -2.9789062212,
				"element": "C" 
			},
			{
				"x": 1.6049063595,
				"y": -1.6530256319,
				"z": -4.7063307389,
				"element": "Cl" 
			},
			{
				"x": 3.6157724812,
				"y": -0.492895456,
				"z": -0.1421183056,
				"element": "H" 
			},
			{
				"x": 3.4371062584,
				"y": 0.1563242152,
				"z": 1.5088469113,
				"element": "H" 
			},
			{
				"x": 3.2838823144,
				"y": 1.2432185935,
				"z": 0.1097483045,
				"element": "H" 
			},
			{
				"x": -2.2169518633,
				"y": 0.406299145,
				"z": 1.9441448328,
				"element": "H" 
			},
			{
				"x": -2.3245926565,
				"y": 1.2498672218,
				"z": 0.3972017514,
				"element": "H" 
			},
			{
				"x": -1.3660760478,
				"y": 1.9468417025,
				"z": 1.7172406326,
				"element": "H" 
			},
			{
				"x": -1.1200725816,
				"y": -1.6280485039,
				"z": -0.1828306505,
				"element": "H" 
			},
			{
				"x": 2.0801257754,
				"y": -2.9511232194,
				"z": -0.1406373329,
				"element": "H" 
			},
			{
				"x": 1.5998967552,
				"y": -0.3940172269,
				"z": -2.7015019342,
				"element": "H" 
			},
			{
				"x": 0.14357951,
				"y": -1.3745981799,
				"z": -2.8669025191,
				"element": "H" 
			}
		],
		 "valence_orbital": [ 
			{
				"type": "occ",
				"energy": -0.29911,
				"method": "rhf"
			},
			{
				"type": "occ",
				"energy": -0.28288,
				"method": "rhf"
			},
			{
				"type": "occ",
				"energy": -0.2729,
				"method": "rhf"
			},
			{
				"type": "occ",
				"energy": -0.25514,
				"method": "rhf"
			},
			{
				"type": "occ",
				"energy": -0.25084,
				"method": "rhf"
			},
			{
				"type": "unocc",
				"energy": -0.00786,
				"method": "rhf"
			},
			{
				"type": "unocc",
				"energy": 0.00795,
				"method": "rhf"
			},
			{
				"type": "unocc",
				"energy": 0.02628,
				"method": "rhf"
			},
			{
				"type": "unocc",
				"energy": 0.0485,
				"method": "rhf"
			},
			{
				"type": "unocc",
				"energy": 0.08179,
				"method": "rhf"
			}
		],
		"cosmo_sigma_profile": { 
			"-0.025": 0.0,
			"-0.024": 0.0,
			"-0.023": 0.0,
			"-0.022": 0.0,
			"-0.021": 0.0,
			"-0.02": 0.0,
			"-0.019": 0.0,
			"-0.018": 0.0,
			"-0.017": 0.0,
			"-0.016": 0.0620585044286,
			"-0.015": 0.981024925466,
			"-0.014": 1.25575011838,
			"-0.013": 0.81734975019,
			"-0.012": 0.593054204789,
			"-0.011": 0.924458553558,
			"-0.01": 1.16717392468,
			"-0.009": 2.97305797533,
			"-0.008": 5.79620646571,
			"-0.007": 7.82851826023,
			"-0.006": 13.708577584,
			"-0.005": 14.6111021251,
			"-0.004": 19.7359933344,
			"-0.003": 20.5057118834,
			"-0.002": 17.0945901663,
			"-0.001": 14.3640877228,
			"0.0": 14.431603207,
			"0.001": 9.49197336818,
			"0.002": 9.13255020785,
			"0.003": 8.96743393513,
			"0.004": 10.6342880847,
			"0.005": 10.5839472628,
			"0.006": 9.53534077064,
			"0.007": 3.73510179485,
			"0.008": 2.73870622704,
			"0.009": 3.59445528809,
			"0.01": 3.45255423698,
			"0.011": 3.90147232832,
			"0.012": 6.35523893728,
			"0.013": 4.59557235062,
			"0.014": 1.42377951787,
			"0.015": 0.982753778235,
			"0.016": 0.520276332877,
			"0.017": 0.0122667537758,
			"0.018": 0.0,
			"0.019": 0.0,
			"0.02": 0.0,
			"0.021": 0.0,
			"0.022": 0.0,
			"0.023": 0.0,
			"0.024": 0.0,
			"0.025": 0.0
		}
	}
}
