{
	 "smiles": "CCOC(=O)C1=NN(C=C1C=O)C1=CC=CC=C1", 
	 "Tm": 373.15, 
	 "num_atms": 30, 
	 "gaussian": { 
		 "optdone": 1, 
		 "sigma_profile": "yes", 
		 "theory": "DFT", 
		 "functional": "B3LYP", 
		 "basiset": "6-31G**", 
		 "properties": { 
			 "R2extent": 6533.6167, 
			 "electric_dipole_moment_norm": 5.86095678964, 
			 "electric_quadrupole_moment_norm": 30.1878801223, 
			 "total_energy": -837.765921585, 
			 "HOMO_LUMO_gap": 0.19057, 
			 "cosmo_polarized_energy": -19.45, 
			 "cosmo_cavitation_energy": 36.07, 
			 "cosmo_dispersion_energy": -25.52, 
			 "cosmo_repulsion_energy": 2.0, 
			 "cosmo_total_nonelectrostatic_energy": 12.56, 
			 "SMD_solvation_energy": 7.82 
		},
		"coords": [
			{
				"x": -3.3002470635,
				"y": -0.2575263468,
				"z": 3.2852704093,
				"element": "C" 
			},
			{
				"x": -3.0458129201,
				"y": -1.560633197,
				"z": 2.5523180423,
				"element": "C" 
			},
			{
				"x": -1.8749720501,
				"y": -1.36943712,
				"z": 1.7236417078,
				"element": "O" 
			},
			{
				"x": -1.4985374179,
				"y": -2.4423061059,
				"z": 1.0029770786,
				"element": "C" 
			},
			{
				"x": -2.0486928061,
				"y": -3.5204163937,
				"z": 1.0319198006,
				"element": "O" 
			},
			{
				"x": -0.3276090774,
				"y": -2.1312955198,
				"z": 0.1317872489,
				"element": "C" 
			},
			{
				"x": -0.2205908564,
				"y": -0.9371573335,
				"z": -0.439930861,
				"element": "N" 
			},
			{
				"x": 0.8706564607,
				"y": -1.0180645007,
				"z": -1.2439576132,
				"element": "N" 
			},
			{
				"x": 1.4552644276,
				"y": -2.242673387,
				"z": -1.1818664016,
				"element": "C" 
			},
			{
				"x": 0.71277294,
				"y": -3.0124066318,
				"z": -0.300386138,
				"element": "C" 
			},
			{
				"x": 1.0798646926,
				"y": -4.3728931262,
				"z": 0.1115884308,
				"element": "C" 
			},
			{
				"x": 0.5945582519,
				"y": -4.9917916301,
				"z": 1.036427855,
				"element": "O" 
			},
			{
				"x": 1.2755558264,
				"y": 0.1131849637,
				"z": -2.00916141,
				"element": "C" 
			},
			{
				"x": 0.8983669945,
				"y": 1.391790814,
				"z": -1.5873079618,
				"element": "C" 
			},
			{
				"x": 1.3025967244,
				"y": 2.4999253271,
				"z": -2.3287300692,
				"element": "C" 
			},
			{
				"x": 2.0825429095,
				"y": 2.3416337006,
				"z": -3.4766373912,
				"element": "C" 
			},
			{
				"x": 2.4489058418,
				"y": 1.060225212,
				"z": -3.890833671,
				"element": "C" 
			},
			{
				"x": 2.0413103115,
				"y": -0.0593714603,
				"z": -3.1663095232,
				"element": "C" 
			},
			{
				"x": -4.1824373451,
				"y": -0.3585660981,
				"z": 3.9251537314,
				"element": "H" 
			},
			{
				"x": -2.4467949009,
				"y": 0.009530834,
				"z": 3.9150093845,
				"element": "H" 
			},
			{
				"x": -3.477010522,
				"y": 0.5594391357,
				"z": 2.5799198072,
				"element": "H" 
			},
			{
				"x": -2.8586193947,
				"y": -2.3921952025,
				"z": 3.2388383373,
				"element": "H" 
			},
			{
				"x": -3.8872873846,
				"y": -1.8458417457,
				"z": 1.9127334913,
				"element": "H" 
			},
			{
				"x": 2.3637732919,
				"y": -2.4742836397,
				"z": -1.7170127536,
				"element": "H" 
			},
			{
				"x": 1.8986285797,
				"y": -4.8125228717,
				"z": -0.5031250087,
				"element": "H" 
			},
			{
				"x": 0.2957397846,
				"y": 1.4963986108,
				"z": -0.6934441061,
				"element": "H" 
			},
			{
				"x": 1.0101341808,
				"y": 3.4931023654,
				"z": -2.0016332313,
				"element": "H" 
			},
			{
				"x": 2.3973793591,
				"y": 3.2097287311,
				"z": -4.0473589476,
				"element": "H" 
			},
			{
				"x": 3.0426959786,
				"y": 0.9250130135,
				"z": -4.7896706544,
				"element": "H" 
			},
			{
				"x": 2.298165183,
				"y": -1.0540903974,
				"z": -3.5149195831,
				"element": "H" 
			}
		],
		 "valence_orbital": [ 
			{
				"type": "occ",
				"energy": -0.27747,
				"method": "rhf"
			},
			{
				"type": "occ",
				"energy": -0.27146,
				"method": "rhf"
			},
			{
				"type": "occ",
				"energy": -0.27021,
				"method": "rhf"
			},
			{
				"type": "occ",
				"energy": -0.24807,
				"method": "rhf"
			},
			{
				"type": "occ",
				"energy": -0.24484,
				"method": "rhf"
			},
			{
				"type": "unocc",
				"energy": -0.05427,
				"method": "rhf"
			},
			{
				"type": "unocc",
				"energy": -0.04596,
				"method": "rhf"
			},
			{
				"type": "unocc",
				"energy": -0.02227,
				"method": "rhf"
			},
			{
				"type": "unocc",
				"energy": 0.00802,
				"method": "rhf"
			},
			{
				"type": "unocc",
				"energy": 0.03804,
				"method": "rhf"
			}
		],
		"cosmo_sigma_profile": { 
			"-0.025": 0.0,
			"-0.024": 0.0,
			"-0.023": 0.0,
			"-0.022": 0.0,
			"-0.021": 0.0,
			"-0.02": 0.0,
			"-0.019": 0.0,
			"-0.018": 0.0,
			"-0.017": 0.0,
			"-0.016": 0.0,
			"-0.015": 0.0,
			"-0.014": 0.0,
			"-0.013": 0.0,
			"-0.012": 0.640853989969,
			"-0.011": 2.60137019541,
			"-0.01": 3.07146964415,
			"-0.009": 3.02764904532,
			"-0.008": 3.78726699388,
			"-0.007": 7.11473644165,
			"-0.006": 14.9820802039,
			"-0.005": 20.2677670527,
			"-0.004": 27.1883570913,
			"-0.003": 23.5604805432,
			"-0.002": 25.318302299,
			"-0.001": 24.8179857831,
			"0.0": 22.9994373583,
			"0.001": 14.2202411116,
			"0.002": 13.6380413367,
			"0.003": 15.9428521902,
			"0.004": 14.6357305253,
			"0.005": 6.68289474724,
			"0.006": 4.04662726687,
			"0.007": 3.79262450202,
			"0.008": 5.062565055,
			"0.009": 4.78661096324,
			"0.01": 4.83472053173,
			"0.011": 9.13719584885,
			"0.012": 8.54398004666,
			"0.013": 3.2874093175,
			"0.014": 0.869926516629,
			"0.015": 0.00644870746632,
			"0.016": 0.0,
			"0.017": 0.0,
			"0.018": 0.0,
			"0.019": 0.0,
			"0.02": 0.0,
			"0.021": 0.0,
			"0.022": 0.0,
			"0.023": 0.0,
			"0.024": 0.0,
			"0.025": 0.0
		}
	}
}
