{
	 "smiles": "CC1=NC(=NO1)C1=CC(Br)=CC=C1", 
	 "Tm": 355.15, 
	 "num_atms": 20, 
	 "gaussian": { 
		 "optdone": 1, 
		 "sigma_profile": "yes", 
		 "theory": "DFT", 
		 "functional": "B3LYP", 
		 "basiset": "6-31G**", 
		 "properties": { 
			 "R2extent": 5706.7345, 
			 "electric_dipole_moment_norm": 3.40704522717, 
			 "electric_quadrupole_moment_norm": 9.7140878491, 
			 "total_energy": -3103.27993098, 
			 "HOMO_LUMO_gap": 0.19141, 
			 "cosmo_polarized_energy": -8.1, 
			 "cosmo_cavitation_energy": 27.52, 
			 "cosmo_dispersion_energy": -20.88, 
			 "cosmo_repulsion_energy": 1.65, 
			 "cosmo_total_nonelectrostatic_energy": 8.29, 
			 "SMD_solvation_energy": 2.26 
		},
		"coords": [
			{
				"x": 2.7458996236,
				"y": -0.2631586608,
				"z": 2.6373618077,
				"element": "C" 
			},
			{
				"x": 1.5332693118,
				"y": -0.1165329809,
				"z": 1.7885232952,
				"element": "C" 
			},
			{
				"x": 1.4567685045,
				"y": 0.0472505588,
				"z": 0.501190157,
				"element": "N" 
			},
			{
				"x": 0.0919654115,
				"y": 0.1191658581,
				"z": 0.2886537858,
				"element": "C" 
			},
			{
				"x": -0.6314162982,
				"y": 0.0066827775,
				"z": 1.3802458853,
				"element": "N" 
			},
			{
				"x": 0.3290818372,
				"y": -0.1517439996,
				"z": 2.3896977474,
				"element": "O" 
			},
			{
				"x": -0.4987553179,
				"y": 0.3056966622,
				"z": -1.0442800955,
				"element": "C" 
			},
			{
				"x": -1.8928159183,
				"y": 0.3713613129,
				"z": -1.1967316732,
				"element": "C" 
			},
			{
				"x": -2.425000722,
				"y": 0.5481767393,
				"z": -2.4679951468,
				"element": "C" 
			},
			{
				"x": -4.3228158228,
				"y": 0.6384214561,
				"z": -2.682813995,
				"element": "Br" 
			},
			{
				"x": -1.6066929545,
				"y": 0.6615994963,
				"z": -3.5931854029,
				"element": "C" 
			},
			{
				"x": -0.2226056178,
				"y": 0.5949002454,
				"z": -3.4295799239,
				"element": "C" 
			},
			{
				"x": 0.3351390183,
				"y": 0.4179863924,
				"z": -2.164480895,
				"element": "C" 
			},
			{
				"x": 2.7307211914,
				"y": -1.2200677523,
				"z": 3.1679148656,
				"element": "H" 
			},
			{
				"x": 3.6329554334,
				"y": -0.2136472136,
				"z": 2.0061091737,
				"element": "H" 
			},
			{
				"x": 2.789039679,
				"y": 0.5325141662,
				"z": 3.387319973,
				"element": "H" 
			},
			{
				"x": -2.5387014619,
				"y": 0.2846995375,
				"z": -0.3313919175,
				"element": "H" 
			},
			{
				"x": -2.0458965667,
				"y": 0.7990409394,
				"z": -4.5745891869,
				"element": "H" 
			},
			{
				"x": 0.4225352947,
				"y": 0.6820831615,
				"z": -4.2986118042,
				"element": "H" 
			},
			{
				"x": 1.4094253748,
				"y": 0.3651713036,
				"z": -2.0292566496,
				"element": "H" 
			}
		],
		 "valence_orbital": [ 
			{
				"type": "occ",
				"energy": -0.30058,
				"method": "rhf"
			},
			{
				"type": "occ",
				"energy": -0.29852,
				"method": "rhf"
			},
			{
				"type": "occ",
				"energy": -0.28796,
				"method": "rhf"
			},
			{
				"type": "occ",
				"energy": -0.25601,
				"method": "rhf"
			},
			{
				"type": "occ",
				"energy": -0.2449,
				"method": "rhf"
			},
			{
				"type": "unocc",
				"energy": -0.05349,
				"method": "rhf"
			},
			{
				"type": "unocc",
				"energy": -0.01967,
				"method": "rhf"
			},
			{
				"type": "unocc",
				"energy": -0.00702,
				"method": "rhf"
			},
			{
				"type": "unocc",
				"energy": 0.00586,
				"method": "rhf"
			},
			{
				"type": "unocc",
				"energy": 0.06311,
				"method": "rhf"
			}
		],
		"cosmo_sigma_profile": { 
			"-0.025": 0.0,
			"-0.024": 0.0,
			"-0.023": 0.0,
			"-0.022": 0.0,
			"-0.021": 0.0,
			"-0.02": 0.0,
			"-0.019": 0.0,
			"-0.018": 0.0,
			"-0.017": 0.0,
			"-0.016": 0.0,
			"-0.015": 0.0,
			"-0.014": 0.0,
			"-0.013": 0.0,
			"-0.012": 0.0,
			"-0.011": 0.0,
			"-0.01": 0.0,
			"-0.009": 0.0,
			"-0.008": 1.66119390105,
			"-0.007": 10.3397947032,
			"-0.006": 13.7389270134,
			"-0.005": 13.8598435602,
			"-0.004": 15.4298215048,
			"-0.003": 18.0129429519,
			"-0.002": 14.086680291,
			"-0.001": 13.6969308015,
			"0.0": 17.6683502151,
			"0.001": 21.8684610806,
			"0.002": 23.9790145419,
			"0.003": 16.9360218705,
			"0.004": 14.7665625112,
			"0.005": 7.50789188928,
			"0.006": 6.5470983579,
			"0.007": 3.70618775426,
			"0.008": 2.63086229008,
			"0.009": 2.99810380689,
			"0.01": 1.98059622286,
			"0.011": 2.00637189925,
			"0.012": 1.5269072102,
			"0.013": 0.0818771318642,
			"0.014": 0.0,
			"0.015": 0.0,
			"0.016": 0.0,
			"0.017": 0.0,
			"0.018": 0.0,
			"0.019": 0.0,
			"0.02": 0.0,
			"0.021": 0.0,
			"0.022": 0.0,
			"0.023": 0.0,
			"0.024": 0.0,
			"0.025": 0.0
		}
	}
}
