{
	 "smiles": "CC1(NC(=O)N(CC(O)=O)C1=O)C1CC1", 
	 "Tm": 444.15, 
	 "num_atms": 27, 
	 "gaussian": { 
		 "optdone": 1, 
		 "sigma_profile": "yes", 
		 "theory": "DFT", 
		 "functional": "B3LYP", 
		 "basiset": "6-31G**", 
		 "properties": { 
			 "R2extent": 3872.2457, 
			 "electric_dipole_moment_norm": 1.36383748299, 
			 "electric_quadrupole_moment_norm": 21.1672587436, 
			 "total_energy": -760.615916663, 
			 "HOMO_LUMO_gap": 0.25161, 
			 "cosmo_polarized_energy": -19.06, 
			 "cosmo_cavitation_energy": 31.24, 
			 "cosmo_dispersion_energy": -21.24, 
			 "cosmo_repulsion_energy": 1.68, 
			 "cosmo_total_nonelectrostatic_energy": 11.68, 
			 "SMD_solvation_energy": 6.9 
		},
		"coords": [
			{
				"x": 0.8512112008,
				"y": -0.0430586229,
				"z": 1.9153238985,
				"element": "C" 
			},
			{
				"x": -0.3926941627,
				"y": 0.466975698,
				"z": 1.1791300498,
				"element": "C" 
			},
			{
				"x": -0.473253219,
				"y": 1.9364128985,
				"z": 1.1898939896,
				"element": "N" 
			},
			{
				"x": -0.6422453778,
				"y": 2.4696690655,
				"z": -0.0631984847,
				"element": "C" 
			},
			{
				"x": -0.9101672181,
				"y": 3.6112744102,
				"z": -0.3797867737,
				"element": "O" 
			},
			{
				"x": -0.4023734536,
				"y": 1.4126037149,
				"z": -0.9727863114,
				"element": "N" 
			},
			{
				"x": -0.614319741,
				"y": 1.5557887445,
				"z": -2.3872795108,
				"element": "C" 
			},
			{
				"x": -2.0746851276,
				"y": 1.3018769395,
				"z": -2.749413167,
				"element": "C" 
			},
			{
				"x": -2.2662331426,
				"y": 1.4557250292,
				"z": -4.0754120186,
				"element": "O" 
			},
			{
				"x": -2.9491099275,
				"y": 1.0019137938,
				"z": -1.9709687272,
				"element": "O" 
			},
			{
				"x": -0.2528824802,
				"y": 0.1957308652,
				"z": -0.3345767727,
				"element": "C" 
			},
			{
				"x": -0.0574702197,
				"y": -0.8748845695,
				"z": -0.8717218173,
				"element": "O" 
			},
			{
				"x": -1.7228703827,
				"y": -0.1334544251,
				"z": 1.6441239296,
				"element": "C" 
			},
			{
				"x": -1.8496646835,
				"y": -1.5086996351,
				"z": 2.2413294356,
				"element": "C" 
			},
			{
				"x": -2.0711513598,
				"y": -0.2927441232,
				"z": 3.1081194412,
				"element": "C" 
			},
			{
				"x": 0.7624506899,
				"y": 0.0958671683,
				"z": 2.9966073048,
				"element": "H" 
			},
			{
				"x": 1.0062836166,
				"y": -1.1027373561,
				"z": 1.7014987392,
				"element": "H" 
			},
			{
				"x": 1.7307234892,
				"y": 0.5099868735,
				"z": 1.576460894,
				"element": "H" 
			},
			{
				"x": -0.8708380816,
				"y": 2.4344632927,
				"z": 1.9733820284,
				"element": "H" 
			},
			{
				"x": -0.3422725602,
				"y": 2.5693793453,
				"z": -2.6916422741,
				"element": "H" 
			},
			{
				"x": 0.0148428223,
				"y": 0.8405148008,
				"z": -2.9237266554,
				"element": "H" 
			},
			{
				"x": -3.2076001019,
				"y": 1.2816071127,
				"z": -4.2437399994,
				"element": "H" 
			},
			{
				"x": -2.5440740594,
				"y": 0.1745794458,
				"z": 0.9997497382,
				"element": "H" 
			},
			{
				"x": -2.7076756725,
				"y": -2.1044092576,
				"z": 1.9469964424,
				"element": "H" 
			},
			{
				"x": -0.9479586597,
				"y": -2.0876527739,
				"z": 2.4095549352,
				"element": "H" 
			},
			{
				"x": -3.0825976823,
				"y": -0.043920517,
				"z": 3.4141595914,
				"element": "H" 
			},
			{
				"x": -1.3164745055,
				"y": -0.066707918,
				"z": 3.8559220943,
				"element": "H" 
			}
		],
		 "valence_orbital": [ 
			{
				"type": "occ",
				"energy": -0.29492,
				"method": "rhf"
			},
			{
				"type": "occ",
				"energy": -0.28502,
				"method": "rhf"
			},
			{
				"type": "occ",
				"energy": -0.27509,
				"method": "rhf"
			},
			{
				"type": "occ",
				"energy": -0.26479,
				"method": "rhf"
			},
			{
				"type": "occ",
				"energy": -0.2587,
				"method": "rhf"
			},
			{
				"type": "unocc",
				"energy": -0.00709,
				"method": "rhf"
			},
			{
				"type": "unocc",
				"energy": 0.00066,
				"method": "rhf"
			},
			{
				"type": "unocc",
				"energy": 0.04772,
				"method": "rhf"
			},
			{
				"type": "unocc",
				"energy": 0.07204,
				"method": "rhf"
			},
			{
				"type": "unocc",
				"energy": 0.08192,
				"method": "rhf"
			}
		],
		"cosmo_sigma_profile": { 
			"-0.025": 0.0,
			"-0.024": 0.0,
			"-0.023": 0.0,
			"-0.022": 0.0,
			"-0.021": 0.0,
			"-0.02": 0.0,
			"-0.019": 0.473143469145,
			"-0.018": 0.944353363126,
			"-0.017": 0.967112990209,
			"-0.016": 1.00265944728,
			"-0.015": 1.15895520722,
			"-0.014": 1.57838562048,
			"-0.013": 1.84611221117,
			"-0.012": 1.1206080481,
			"-0.011": 1.72393856019,
			"-0.01": 0.825877585849,
			"-0.009": 2.73528045719,
			"-0.008": 5.73754346515,
			"-0.007": 6.60858262692,
			"-0.006": 9.64776704248,
			"-0.005": 17.2123052223,
			"-0.004": 18.3739939385,
			"-0.003": 21.4438752132,
			"-0.002": 18.6502047294,
			"-0.001": 18.155679365,
			"0.0": 16.2990905578,
			"0.001": 11.3446210808,
			"0.002": 10.366776473,
			"0.003": 9.66007836643,
			"0.004": 10.2403282887,
			"0.005": 7.02780984578,
			"0.006": 6.6241278722,
			"0.007": 6.33479297826,
			"0.008": 5.66611438096,
			"0.009": 5.96142858787,
			"0.01": 5.67908068366,
			"0.011": 8.13431401423,
			"0.012": 8.90423509235,
			"0.013": 3.18970187404,
			"0.014": 0.178044404993,
			"0.015": 0.0,
			"0.016": 0.0,
			"0.017": 0.0,
			"0.018": 0.0,
			"0.019": 0.0,
			"0.02": 0.0,
			"0.021": 0.0,
			"0.022": 0.0,
			"0.023": 0.0,
			"0.024": 0.0,
			"0.025": 0.0
		}
	}
}
