{
	 "smiles": "CCOC(=O)C1=CC(=NN1C)C1=CC=CO1", 
	 "Tm": 330.65, 
	 "num_atms": 28, 
	 "gaussian": { 
		 "optdone": 1, 
		 "sigma_profile": "yes", 
		 "theory": "DFT", 
		 "functional": "B3LYP", 
		 "basiset": "6-31G**", 
		 "properties": { 
			 "R2extent": 5337.9017, 
			 "electric_dipole_moment_norm": 2.50719570437, 
			 "electric_quadrupole_moment_norm": 20.1097000015, 
			 "total_energy": -761.547934855, 
			 "HOMO_LUMO_gap": 0.16264, 
			 "cosmo_polarized_energy": -12.49, 
			 "cosmo_cavitation_energy": 33.38, 
			 "cosmo_dispersion_energy": -23.75, 
			 "cosmo_repulsion_energy": 1.85, 
			 "cosmo_total_nonelectrostatic_energy": 11.47, 
			 "SMD_solvation_energy": 6.93 
		},
		"coords": [
			{
				"x": -4.7952551528,
				"y": 0.1257969979,
				"z": 1.8067470038,
				"element": "C" 
			},
			{
				"x": -3.6389641088,
				"y": -0.8167662241,
				"z": 2.0792781476,
				"element": "C" 
			},
			{
				"x": -2.4909888302,
				"y": -0.3246888751,
				"z": 1.3460158686,
				"element": "O" 
			},
			{
				"x": -1.3596501838,
				"y": -1.056206831,
				"z": 1.4784054825,
				"element": "C" 
			},
			{
				"x": -1.2828099448,
				"y": -2.0606274989,
				"z": 2.1581033106,
				"element": "O" 
			},
			{
				"x": -0.2240334444,
				"y": -0.5146675793,
				"z": 0.7139786577,
				"element": "C" 
			},
			{
				"x": 1.0501860205,
				"y": -1.0589881502,
				"z": 0.666476558,
				"element": "C" 
			},
			{
				"x": 1.7826511826,
				"y": -0.2039495189,
				"z": -0.1820946389,
				"element": "C" 
			},
			{
				"x": 1.0090187849,
				"y": 0.802239575,
				"z": -0.6285027664,
				"element": "N" 
			},
			{
				"x": -0.2002130404,
				"y": 0.6048002212,
				"z": -0.0813784253,
				"element": "N" 
			},
			{
				"x": -1.2568915155,
				"y": 1.5575545764,
				"z": -0.3945834733,
				"element": "C" 
			},
			{
				"x": 3.1760852099,
				"y": -0.3224376068,
				"z": -0.5691752959,
				"element": "C" 
			},
			{
				"x": 4.1468963283,
				"y": -1.2370384273,
				"z": -0.2532736805,
				"element": "C" 
			},
			{
				"x": 5.3312683565,
				"y": -0.8267441123,
				"z": -0.941882144,
				"element": "C" 
			},
			{
				"x": 4.9974352198,
				"y": 0.3036717071,
				"z": -1.6247584454,
				"element": "C" 
			},
			{
				"x": 3.691652798,
				"y": 0.6245461943,
				"z": -1.4097160017,
				"element": "O" 
			},
			{
				"x": -4.5618934678,
				"y": 1.1413531208,
				"z": 2.1396273172,
				"element": "H" 
			},
			{
				"x": -5.6840554223,
				"y": -0.2153909227,
				"z": 2.3463607148,
				"element": "H" 
			},
			{
				"x": -5.0340720216,
				"y": 0.1573037968,
				"z": 0.7396968634,
				"element": "H" 
			},
			{
				"x": -3.8527859985,
				"y": -1.838408008,
				"z": 1.7508124165,
				"element": "H" 
			},
			{
				"x": -3.3832892402,
				"y": -0.8601154983,
				"z": 3.1423465896,
				"element": "H" 
			},
			{
				"x": 1.372984849,
				"y": -1.949137291,
				"z": 1.1834189196,
				"element": "H" 
			},
			{
				"x": -1.6222721455,
				"y": 2.0413084207,
				"z": 0.5133686454,
				"element": "H" 
			},
			{
				"x": -0.8143599849,
				"y": 2.2949461699,
				"z": -1.0623498956,
				"element": "H" 
			},
			{
				"x": -2.0943661253,
				"y": 1.0579520964,
				"z": -0.8854468518,
				"element": "H" 
			},
			{
				"x": 4.0309206016,
				"y": -2.0966716198,
				"z": 0.3908755105,
				"element": "H" 
			},
			{
				"x": 6.2974328565,
				"y": -1.3101632877,
				"z": -0.9278514213,
				"element": "H" 
			},
			{
				"x": 5.5418684193,
				"y": 0.968828575,
				"z": -2.2766989658,
				"element": "H" 
			}
		],
		 "valence_orbital": [ 
			{
				"type": "occ",
				"energy": -0.28617,
				"method": "rhf"
			},
			{
				"type": "occ",
				"energy": -0.27456,
				"method": "rhf"
			},
			{
				"type": "occ",
				"energy": -0.27066,
				"method": "rhf"
			},
			{
				"type": "occ",
				"energy": -0.25505,
				"method": "rhf"
			},
			{
				"type": "occ",
				"energy": -0.20194,
				"method": "rhf"
			},
			{
				"type": "unocc",
				"energy": -0.0393,
				"method": "rhf"
			},
			{
				"type": "unocc",
				"energy": -0.00864,
				"method": "rhf"
			},
			{
				"type": "unocc",
				"energy": 0.06041,
				"method": "rhf"
			},
			{
				"type": "unocc",
				"energy": 0.08621,
				"method": "rhf"
			},
			{
				"type": "unocc",
				"energy": 0.09172,
				"method": "rhf"
			}
		],
		"cosmo_sigma_profile": { 
			"-0.025": 0.0,
			"-0.024": 0.0,
			"-0.023": 0.0,
			"-0.022": 0.0,
			"-0.021": 0.0,
			"-0.02": 0.0,
			"-0.019": 0.0,
			"-0.018": 0.0,
			"-0.017": 0.0,
			"-0.016": 0.0,
			"-0.015": 0.0,
			"-0.014": 0.0,
			"-0.013": 0.0,
			"-0.012": 0.0,
			"-0.011": 0.0,
			"-0.01": 0.0,
			"-0.009": 0.934306436084,
			"-0.008": 3.38187175338,
			"-0.007": 7.71839504866,
			"-0.006": 12.7824586419,
			"-0.005": 18.0970476478,
			"-0.004": 26.7156823875,
			"-0.003": 29.5483076854,
			"-0.002": 21.1865193905,
			"-0.001": 17.8215334425,
			"0.0": 19.0357193641,
			"0.001": 14.8754527279,
			"0.002": 21.7360782955,
			"0.003": 19.1145732326,
			"0.004": 11.6982829862,
			"0.005": 9.6468563323,
			"0.006": 4.62326453979,
			"0.007": 3.64508302077,
			"0.008": 3.96189133596,
			"0.009": 2.93326121477,
			"0.01": 4.11325080285,
			"0.011": 5.1128760335,
			"0.012": 5.03292224136,
			"0.013": 1.07692807579,
			"0.014": 1.16934678837,
			"0.015": 0.315742924345,
			"0.016": 0.0,
			"0.017": 0.0,
			"0.018": 0.0,
			"0.019": 0.0,
			"0.02": 0.0,
			"0.021": 0.0,
			"0.022": 0.0,
			"0.023": 0.0,
			"0.024": 0.0,
			"0.025": 0.0
		}
	}
}
