{
	 "smiles": "C(N1CCC2=C(C1)NC1=CC=CC=C21)C1=CC=CC=C1", 
	 "Tm": 441.15, 
	 "num_atms": 38, 
	 "gaussian": { 
		 "optdone": 1, 
		 "sigma_profile": "yes", 
		 "theory": "DFT", 
		 "functional": "B3LYP", 
		 "basiset": "6-31G**", 
		 "properties": { 
			 "R2extent": 7551.4901, 
			 "electric_dipole_moment_norm": 2.53155171585, 
			 "electric_quadrupole_moment_norm": 15.4706890018, 
			 "total_energy": -806.269500063, 
			 "HOMO_LUMO_gap": 0.1827, 
			 "cosmo_polarized_energy": -12.04, 
			 "cosmo_cavitation_energy": 39.52, 
			 "cosmo_dispersion_energy": -28.57, 
			 "cosmo_repulsion_energy": 2.16, 
			 "cosmo_total_nonelectrostatic_energy": 13.11, 
			 "SMD_solvation_energy": 2.96 
		},
		"coords": [
			{
				"x": -2.1067465261,
				"y": -1.5343944379,
				"z": 0.579447529,
				"element": "C" 
			},
			{
				"x": -1.4594024536,
				"y": -0.2476834327,
				"z": 0.2972743574,
				"element": "N" 
			},
			{
				"x": -0.9355530617,
				"y": -0.1040191311,
				"z": -1.0660125136,
				"element": "C" 
			},
			{
				"x": -0.7159983126,
				"y": 1.3796116452,
				"z": -1.4107243369,
				"element": "C" 
			},
			{
				"x": 0.0424510487,
				"y": 2.0379333196,
				"z": -0.2974438706,
				"element": "C" 
			},
			{
				"x": 0.1170390044,
				"y": 1.4620482327,
				"z": 0.9421218068,
				"element": "C" 
			},
			{
				"x": -0.5018615358,
				"y": 0.1562298595,
				"z": 1.3287259147,
				"element": "C" 
			},
			{
				"x": 0.8803128419,
				"y": 2.2528942186,
				"z": 1.7844777756,
				"element": "N" 
			},
			{
				"x": 1.3052947837,
				"y": 3.3706078584,
				"z": 1.0875746459,
				"element": "C" 
			},
			{
				"x": 2.0882284365,
				"y": 4.4514052572,
				"z": 1.5009200278,
				"element": "C" 
			},
			{
				"x": 2.3600547394,
				"y": 5.4457756912,
				"z": 0.565372698,
				"element": "C" 
			},
			{
				"x": 1.8633491777,
				"y": 5.3639109172,
				"z": -0.7505198572,
				"element": "C" 
			},
			{
				"x": 1.0835309387,
				"y": 4.2870281647,
				"z": -1.1578923136,
				"element": "C" 
			},
			{
				"x": 0.790477233,
				"y": 3.26691976,
				"z": -0.2374022775,
				"element": "C" 
			},
			{
				"x": -1.2150180055,
				"y": -2.7712315129,
				"z": 0.5932962534,
				"element": "C" 
			},
			{
				"x": -0.6489715642,
				"y": -3.2354208558,
				"z": 1.7891616857,
				"element": "C" 
			},
			{
				"x": 0.1942448761,
				"y": -4.3480577275,
				"z": 1.8033014498,
				"element": "C" 
			},
			{
				"x": 0.4837191271,
				"y": -5.020183417,
				"z": 0.6148459682,
				"element": "C" 
			},
			{
				"x": -0.0801735464,
				"y": -4.5763713995,
				"z": -0.5831233131,
				"element": "C" 
			},
			{
				"x": -0.9223463596,
				"y": -3.4638167795,
				"z": -0.5906898705,
				"element": "C" 
			},
			{
				"x": -2.6011141317,
				"y": -1.4405801078,
				"z": 1.5548485914,
				"element": "H" 
			},
			{
				"x": -2.8980594445,
				"y": -1.6660473787,
				"z": -0.1678377885,
				"element": "H" 
			},
			{
				"x": -1.670288279,
				"y": -0.5384561829,
				"z": -1.7526153789,
				"element": "H" 
			},
			{
				"x": 0.010526699,
				"y": -0.6563650834,
				"z": -1.211632489,
				"element": "H" 
			},
			{
				"x": -0.1715012456,
				"y": 1.4517191626,
				"z": -2.3611371543,
				"element": "H" 
			},
			{
				"x": -1.6886417356,
				"y": 1.8668077758,
				"z": -1.5646943303,
				"element": "H" 
			},
			{
				"x": 0.2929742338,
				"y": -0.5986856865,
				"z": 1.4933025421,
				"element": "H" 
			},
			{
				"x": -1.0437264059,
				"y": 0.2486906012,
				"z": 2.2823714146,
				"element": "H" 
			},
			{
				"x": 1.0798419944,
				"y": 2.0583549655,
				"z": 2.7519908695,
				"element": "H" 
			},
			{
				"x": 2.4725900583,
				"y": 4.5154806424,
				"z": 2.5154338474,
				"element": "H" 
			},
			{
				"x": 2.9662238706,
				"y": 6.2989630612,
				"z": 0.8558480138,
				"element": "H" 
			},
			{
				"x": 2.094544595,
				"y": 6.1573449706,
				"z": -1.4554885728,
				"element": "H" 
			},
			{
				"x": 0.7045124652,
				"y": 4.2354857024,
				"z": -2.1750740394,
				"element": "H" 
			},
			{
				"x": -0.8833516552,
				"y": -2.7270957465,
				"z": 2.7219083053,
				"element": "H" 
			},
			{
				"x": 0.6190449475,
				"y": -4.6932347393,
				"z": 2.7419238475,
				"element": "H" 
			},
			{
				"x": 1.1366956879,
				"y": -5.8882093797,
				"z": 0.6228165913,
				"element": "H" 
			},
			{
				"x": 0.1303380191,
				"y": -5.1011325837,
				"z": -1.5109359853,
				"element": "H" 
			},
			{
				"x": -1.3681405151,
				"y": -3.1351262235,
				"z": -1.5262400437,
				"element": "H" 
			}
		],
		 "valence_orbital": [ 
			{
				"type": "occ",
				"energy": -0.25111,
				"method": "rhf"
			},
			{
				"type": "occ",
				"energy": -0.24744,
				"method": "rhf"
			},
			{
				"type": "occ",
				"energy": -0.21358,
				"method": "rhf"
			},
			{
				"type": "occ",
				"energy": -0.20589,
				"method": "rhf"
			},
			{
				"type": "occ",
				"energy": -0.18829,
				"method": "rhf"
			},
			{
				"type": "unocc",
				"energy": -0.00559,
				"method": "rhf"
			},
			{
				"type": "unocc",
				"energy": -0.00385,
				"method": "rhf"
			},
			{
				"type": "unocc",
				"energy": 0.00222,
				"method": "rhf"
			},
			{
				"type": "unocc",
				"energy": 0.03555,
				"method": "rhf"
			},
			{
				"type": "unocc",
				"energy": 0.07662,
				"method": "rhf"
			}
		],
		"cosmo_sigma_profile": { 
			"-0.025": 0.0,
			"-0.024": 0.0,
			"-0.023": 0.0,
			"-0.022": 0.0,
			"-0.021": 0.0,
			"-0.02": 0.0,
			"-0.019": 0.0,
			"-0.018": 0.0,
			"-0.017": 0.0,
			"-0.016": 0.0,
			"-0.015": 0.99234099901,
			"-0.014": 1.34705682235,
			"-0.013": 1.23888451209,
			"-0.012": 1.7659936605,
			"-0.011": 0.783908492759,
			"-0.01": 1.20490229465,
			"-0.009": 1.95426424399,
			"-0.008": 1.01999777746,
			"-0.007": 1.62386880777,
			"-0.006": 4.397643087,
			"-0.005": 22.0934833173,
			"-0.004": 30.2404585955,
			"-0.003": 31.4903173929,
			"-0.002": 29.4460639571,
			"-0.001": 30.120387529,
			"0.0": 23.8859384814,
			"0.001": 17.180198914,
			"0.002": 15.5927433303,
			"0.003": 16.8979624552,
			"0.004": 15.7781414642,
			"0.005": 20.7071692071,
			"0.006": 21.3879315962,
			"0.007": 12.5601531059,
			"0.008": 4.82829111839,
			"0.009": 0.99434634707,
			"0.01": 0.601062013449,
			"0.011": 0.791646618938,
			"0.012": 0.366451849865,
			"0.013": 0.559648214969,
			"0.014": 0.590747477276,
			"0.015": 0.301754652172,
			"0.016": 0.0130361970813,
			"0.017": 0.0,
			"0.018": 0.0,
			"0.019": 0.0,
			"0.02": 0.0,
			"0.021": 0.0,
			"0.022": 0.0,
			"0.023": 0.0,
			"0.024": 0.0,
			"0.025": 0.0
		}
	}
}
