{
	 "smiles": "CCCCOC(=O)CC", 
	 "Tm": 198.15, 
	 "num_atms": 23, 
	 "gaussian": { 
		 "optdone": 1, 
		 "sigma_profile": "yes", 
		 "theory": "DFT", 
		 "functional": "B3LYP", 
		 "basiset": "6-31G**", 
		 "properties": { 
			 "R2extent": 1978.5821, 
			 "electric_dipole_moment_norm": 1.85298514295, 
			 "electric_quadrupole_moment_norm": 10.4827090406, 
			 "total_energy": -425.658439124, 
			 "HOMO_LUMO_gap": 0.2786, 
			 "cosmo_polarized_energy": -6.01, 
			 "cosmo_cavitation_energy": 25.49, 
			 "cosmo_dispersion_energy": -17.82, 
			 "cosmo_repulsion_energy": 1.51, 
			 "cosmo_total_nonelectrostatic_energy": 9.18, 
			 "SMD_solvation_energy": 5.35 
		},
		"coords": [
			{
				"x": 1.2726353335,
				"y": 2.432634242,
				"z": 1.0376839805,
				"element": "C" 
			},
			{
				"x": 0.5066967525,
				"y": 1.4349888392,
				"z": 1.9144265786,
				"element": "C" 
			},
			{
				"x": 0.9078483476,
				"y": -0.0342148225,
				"z": 1.7059224446,
				"element": "C" 
			},
			{
				"x": 0.5878184345,
				"y": -0.6038449337,
				"z": 0.325662301,
				"element": "C" 
			},
			{
				"x": -0.8259588794,
				"y": -0.5194377753,
				"z": 0.0201671526,
				"element": "O" 
			},
			{
				"x": -1.6036144673,
				"y": -1.5402468508,
				"z": 0.4551348557,
				"element": "C" 
			},
			{
				"x": -1.1808197694,
				"y": -2.4943152709,
				"z": 1.0731043153,
				"element": "O" 
			},
			{
				"x": -3.0505089571,
				"y": -1.3436831024,
				"z": 0.042646356,
				"element": "C" 
			},
			{
				"x": -3.6291336594,
				"y": 0.028019791,
				"z": 0.4176434206,
				"element": "C" 
			},
			{
				"x": 1.0775236296,
				"y": 2.2754023312,
				"z": -0.0284244132,
				"element": "H" 
			},
			{
				"x": 0.983093889,
				"y": 3.4623679495,
				"z": 1.2709606719,
				"element": "H" 
			},
			{
				"x": 2.354745631,
				"y": 2.3492897382,
				"z": 1.1934648142,
				"element": "H" 
			},
			{
				"x": 0.6678122281,
				"y": 1.6874691084,
				"z": 2.9697164476,
				"element": "H" 
			},
			{
				"x": -0.5700695335,
				"y": 1.5407815574,
				"z": 1.736143662,
				"element": "H" 
			},
			{
				"x": 0.4180514049,
				"y": -0.6653758349,
				"z": 2.4553281442,
				"element": "H" 
			},
			{
				"x": 1.9898604234,
				"y": -0.1484092284,
				"z": 1.8620054969,
				"element": "H" 
			},
			{
				"x": 0.8984436317,
				"y": -1.6493983672,
				"z": 0.2634919399,
				"element": "H" 
			},
			{
				"x": 1.0716028129,
				"y": -0.0346975027,
				"z": -0.4717942906,
				"element": "H" 
			},
			{
				"x": -3.1018552071,
				"y": -1.4777598526,
				"z": -1.0454999584,
				"element": "H" 
			},
			{
				"x": -3.6196778353,
				"y": -2.1558814369,
				"z": 0.5006156674,
				"element": "H" 
			},
			{
				"x": -3.0687492419,
				"y": 0.8333738289,
				"z": -0.0626603631,
				"element": "H" 
			},
			{
				"x": -4.6738972408,
				"y": 0.0987919897,
				"z": 0.1008413721,
				"element": "H" 
			},
			{
				"x": -3.5965477276,
				"y": 0.1886456026,
				"z": 1.5000194043,
				"element": "H" 
			}
		],
		 "valence_orbital": [ 
			{
				"type": "occ",
				"energy": -0.33686,
				"method": "rhf"
			},
			{
				"type": "occ",
				"energy": -0.33091,
				"method": "rhf"
			},
			{
				"type": "occ",
				"energy": -0.32106,
				"method": "rhf"
			},
			{
				"type": "occ",
				"energy": -0.29108,
				"method": "rhf"
			},
			{
				"type": "occ",
				"energy": -0.26359,
				"method": "rhf"
			},
			{
				"type": "unocc",
				"energy": 0.01501,
				"method": "rhf"
			},
			{
				"type": "unocc",
				"energy": 0.08251,
				"method": "rhf"
			},
			{
				"type": "unocc",
				"energy": 0.10555,
				"method": "rhf"
			},
			{
				"type": "unocc",
				"energy": 0.11983,
				"method": "rhf"
			},
			{
				"type": "unocc",
				"energy": 0.13061,
				"method": "rhf"
			}
		],
		"cosmo_sigma_profile": { 
			"-0.025": 0.0,
			"-0.024": 0.0,
			"-0.023": 0.0,
			"-0.022": 0.0,
			"-0.021": 0.0,
			"-0.02": 0.0,
			"-0.019": 0.0,
			"-0.018": 0.0,
			"-0.017": 0.0,
			"-0.016": 0.0,
			"-0.015": 0.0,
			"-0.014": 0.0,
			"-0.013": 0.0,
			"-0.012": 0.0,
			"-0.011": 0.0,
			"-0.01": 0.0,
			"-0.009": 0.0,
			"-0.008": 0.0,
			"-0.007": 0.0168747129223,
			"-0.006": 1.88078216357,
			"-0.005": 5.56118721986,
			"-0.004": 15.0043832122,
			"-0.003": 25.2383638606,
			"-0.002": 31.8041411585,
			"-0.001": 29.2607373871,
			"0.0": 29.7445730345,
			"0.001": 20.8234422125,
			"0.002": 8.31603286852,
			"0.003": 4.07067111265,
			"0.004": 3.41959396547,
			"0.005": 2.66927887726,
			"0.006": 3.34344680534,
			"0.007": 1.93488745078,
			"0.008": 2.273132569,
			"0.009": 2.08309197311,
			"0.01": 1.37289349567,
			"0.011": 2.23514730185,
			"0.012": 4.5284041194,
			"0.013": 2.10237421029,
			"0.014": 0.0953729428441,
			"0.015": 0.0,
			"0.016": 0.0,
			"0.017": 0.0,
			"0.018": 0.0,
			"0.019": 0.0,
			"0.02": 0.0,
			"0.021": 0.0,
			"0.022": 0.0,
			"0.023": 0.0,
			"0.024": 0.0,
			"0.025": 0.0
		}
	}
}
