{
	 "smiles": "CC1=C2C(=O)NC(O)=NC2=NC(=C1)C(O)=O", 
	 "Tm": 540.15, 
	 "num_atms": 23, 
	 "gaussian": { 
		 "optdone": 1, 
		 "sigma_profile": "yes", 
		 "theory": "DFT", 
		 "functional": "B3LYP", 
		 "basiset": "6-31G**", 
		 "properties": { 
			 "R2extent": 4477.4918, 
			 "electric_dipole_moment_norm": 5.80493389282, 
			 "electric_quadrupole_moment_norm": 23.7828888983, 
			 "total_energy": -812.385695579, 
			 "HOMO_LUMO_gap": 0.16941, 
			 "cosmo_polarized_energy": -20.04, 
			 "cosmo_cavitation_energy": 28.42, 
			 "cosmo_dispersion_energy": -21.45, 
			 "cosmo_repulsion_energy": 1.65, 
			 "cosmo_total_nonelectrostatic_energy": 8.62, 
			 "SMD_solvation_energy": 4.82 
		},
		"coords": [
			{
				"x": 0.322758945,
				"y": 0.0004807,
				"z": 2.1090175824,
				"element": "C" 
			},
			{
				"x": 0.0435598121,
				"y": -0.2254642622,
				"z": 0.6471007068,
				"element": "C" 
			},
			{
				"x": -1.0736833612,
				"y": -0.9579754339,
				"z": 0.1736695335,
				"element": "C" 
			},
			{
				"x": -2.0556406263,
				"y": -1.5590274083,
				"z": 1.0908857834,
				"element": "C" 
			},
			{
				"x": -2.0539370773,
				"y": -1.5187760471,
				"z": 2.3116331094,
				"element": "O" 
			},
			{
				"x": -3.0882904345,
				"y": -2.2433788263,
				"z": 0.4231308277,
				"element": "N" 
			},
			{
				"x": -3.1676103507,
				"y": -2.337743619,
				"z": -0.9334597705,
				"element": "C" 
			},
			{
				"x": -4.2301858891,
				"y": -3.0334004331,
				"z": -1.3555700873,
				"element": "O" 
			},
			{
				"x": -2.325950316,
				"y": -1.8240947959,
				"z": -1.7666859641,
				"element": "N" 
			},
			{
				"x": -1.2633077855,
				"y": -1.1246462817,
				"z": -1.2300915622,
				"element": "C" 
			},
			{
				"x": -0.4069241321,
				"y": -0.603402112,
				"z": -2.1251542942,
				"element": "N" 
			},
			{
				"x": 0.6385868601,
				"y": 0.0826799872,
				"z": -1.6648842891,
				"element": "C" 
			},
			{
				"x": 0.9076982333,
				"y": 0.2987092183,
				"z": -0.3136210356,
				"element": "C" 
			},
			{
				"x": 1.5597456948,
				"y": 0.6401153585,
				"z": -2.7299021133,
				"element": "C" 
			},
			{
				"x": 1.1682943676,
				"y": 0.3488802202,
				"z": -3.9770596719,
				"element": "O" 
			},
			{
				"x": 2.5507205772,
				"y": 1.2847149602,
				"z": -2.4712587805,
				"element": "O" 
			},
			{
				"x": 0.4322329606,
				"y": -0.9480856991,
				"z": 2.6413627327,
				"element": "H" 
			},
			{
				"x": 1.2341829252,
				"y": 0.5899728417,
				"z": 2.2310997288,
				"element": "H" 
			},
			{
				"x": -0.5092837017,
				"y": 0.5171358377,
				"z": 2.5947102571,
				"element": "H" 
			},
			{
				"x": -3.7951084934,
				"y": -2.6785002774,
				"z": 1.0044609987,
				"element": "H" 
			},
			{
				"x": -4.1863014303,
				"y": -3.0362305926,
				"z": -2.3257415463,
				"element": "H" 
			},
			{
				"x": 1.7857952914,
				"y": 0.8713387996,
				"z": -0.0390662644,
				"element": "H" 
			},
			{
				"x": 0.3441479307,
				"y": -0.1774021346,
				"z": -3.8863758812,
				"element": "H" 
			}
		],
		 "valence_orbital": [ 
			{
				"type": "occ",
				"energy": -0.30731,
				"method": "rhf"
			},
			{
				"type": "occ",
				"energy": -0.30115,
				"method": "rhf"
			},
			{
				"type": "occ",
				"energy": -0.28695,
				"method": "rhf"
			},
			{
				"type": "occ",
				"energy": -0.26704,
				"method": "rhf"
			},
			{
				"type": "occ",
				"energy": -0.25569,
				"method": "rhf"
			},
			{
				"type": "unocc",
				"energy": -0.08628,
				"method": "rhf"
			},
			{
				"type": "unocc",
				"energy": -0.05216,
				"method": "rhf"
			},
			{
				"type": "unocc",
				"energy": -0.00311,
				"method": "rhf"
			},
			{
				"type": "unocc",
				"energy": 0.0168,
				"method": "rhf"
			},
			{
				"type": "unocc",
				"energy": 0.05244,
				"method": "rhf"
			}
		],
		"cosmo_sigma_profile": { 
			"-0.025": 0.0,
			"-0.024": 0.0,
			"-0.023": 0.0,
			"-0.022": 0.0,
			"-0.021": 0.0,
			"-0.02": 0.101067651178,
			"-0.019": 1.03468271056,
			"-0.018": 0.475290397413,
			"-0.017": 2.0403759444,
			"-0.016": 1.36647325164,
			"-0.015": 2.14390003302,
			"-0.014": 1.10477185499,
			"-0.013": 1.61269015444,
			"-0.012": 2.46383043134,
			"-0.011": 1.74861519774,
			"-0.01": 2.12423769084,
			"-0.009": 1.98148667708,
			"-0.008": 2.72873667422,
			"-0.007": 6.09075273256,
			"-0.006": 6.62954282766,
			"-0.005": 13.4004602511,
			"-0.004": 16.6454499858,
			"-0.003": 19.8490305591,
			"-0.002": 24.1498824939,
			"-0.001": 20.3070957601,
			"0.0": 12.4306283431,
			"0.001": 7.47252959485,
			"0.002": 7.0242569344,
			"0.003": 5.34777762355,
			"0.004": 7.2692160979,
			"0.005": 7.24972589542,
			"0.006": 5.14748718282,
			"0.007": 5.85425318734,
			"0.008": 8.23775619266,
			"0.009": 6.73817914274,
			"0.01": 7.70015623158,
			"0.011": 8.49994541881,
			"0.012": 7.90688387563,
			"0.013": 2.21600330589,
			"0.014": 0.730052354954,
			"0.015": 0.0230625323557,
			"0.016": 0.0,
			"0.017": 0.0,
			"0.018": 0.0,
			"0.019": 0.0,
			"0.02": 0.0,
			"0.021": 0.0,
			"0.022": 0.0,
			"0.023": 0.0,
			"0.024": 0.0,
			"0.025": 0.0
		}
	}
}
