{
	 "smiles": "C[C@H]1C[C@H]2[C@@H]3CC[C@](O)(C(=O)CO)[C@@]3(C)C[C@H](O)[C@@H]2[C@@]2(C)C=CC(=O)C=C12", 
	 "Tm": 506.15, 
	 "num_atms": 57, 
	 "gaussian": { 
		 "optdone": 1, 
		 "sigma_profile": "yes", 
		 "theory": "DFT", 
		 "functional": "B3LYP", 
		 "basiset": "6-31G**", 
		 "properties": { 
			 "R2extent": 11799.1004, 
			 "electric_dipole_moment_norm": 5.81140206663, 
			 "electric_quadrupole_moment_norm": 45.5047650896, 
			 "total_energy": -1232.48524899, 
			 "HOMO_LUMO_gap": 0.16962, 
			 "cosmo_polarized_energy": -22.84, 
			 "cosmo_cavitation_energy": 50.59, 
			 "cosmo_dispersion_energy": -34.9, 
			 "cosmo_repulsion_energy": 2.55, 
			 "cosmo_total_nonelectrostatic_energy": 18.24, 
			 "SMD_solvation_energy": 8.89 
		},
		"coords": [
			{
				"x": -4.2736692398,
				"y": -1.031772451,
				"z": 1.1935055389,
				"element": "C" 
			},
			{
				"x": -2.7480902045,
				"y": -1.0362238119,
				"z": 1.0535415455,
				"element": "C" 
			},
			{
				"x": -2.2338271103,
				"y": 0.2969845466,
				"z": 0.468370712,
				"element": "C" 
			},
			{
				"x": -0.7315323701,
				"y": 0.2196811345,
				"z": 0.2036717476,
				"element": "C" 
			},
			{
				"x": -0.101094242,
				"y": 1.4794622271,
				"z": -0.402163621,
				"element": "C" 
			},
			{
				"x": -0.7874177295,
				"y": 2.4324064048,
				"z": -1.3895072906,
				"element": "C" 
			},
			{
				"x": 0.4124432193,
				"y": 3.2964384776,
				"z": -1.9003522743,
				"element": "C" 
			},
			{
				"x": 1.7200266315,
				"y": 2.59718701,
				"z": -1.4080344601,
				"element": "C" 
			},
			{
				"x": 2.130327435,
				"y": 3.2194600102,
				"z": -0.194371647,
				"element": "O" 
			},
			{
				"x": 2.9215917235,
				"y": 2.6402043221,
				"z": -2.3526317801,
				"element": "C" 
			},
			{
				"x": 4.0474631712,
				"y": 2.5935786904,
				"z": -1.8657300665,
				"element": "O" 
			},
			{
				"x": 2.8058482926,
				"y": 2.7847826649,
				"z": -3.8613715969,
				"element": "C" 
			},
			{
				"x": 4.0336072349,
				"y": 2.5658006584,
				"z": -4.4938893657,
				"element": "O" 
			},
			{
				"x": 1.2295135467,
				"y": 1.1241490682,
				"z": -1.108009464,
				"element": "C" 
			},
			{
				"x": 1.0240472513,
				"y": 0.3388148666,
				"z": -2.4240659545,
				"element": "C" 
			},
			{
				"x": 2.0957265695,
				"y": 0.2643303028,
				"z": -0.1607772188,
				"element": "C" 
			},
			{
				"x": 1.6123667645,
				"y": 0.1636158494,
				"z": 1.3062871032,
				"element": "C" 
			},
			{
				"x": 2.3917021121,
				"y": -0.8587178501,
				"z": 1.9380052746,
				"element": "O" 
			},
			{
				"x": 0.0563024152,
				"y": -0.079953655,
				"z": 1.5157229672,
				"element": "C" 
			},
			{
				"x": -0.4433440978,
				"y": -1.4147657457,
				"z": 2.2146442538,
				"element": "C" 
			},
			{
				"x": -0.0553751723,
				"y": -2.6839412482,
				"z": 1.3981701503,
				"element": "C" 
			},
			{
				"x": 0.2050015794,
				"y": -1.5641776172,
				"z": 3.5778049319,
				"element": "C" 
			},
			{
				"x": -0.4526809662,
				"y": -1.67412149,
				"z": 4.7409512023,
				"element": "C" 
			},
			{
				"x": -1.9204957028,
				"y": -1.6408553538,
				"z": 4.8052571321,
				"element": "C" 
			},
			{
				"x": -2.5438176612,
				"y": -1.7570369881,
				"z": 5.8595793766,
				"element": "O" 
			},
			{
				"x": -2.6057844509,
				"y": -1.4474737173,
				"z": 3.5153136064,
				"element": "C" 
			},
			{
				"x": -1.9754336248,
				"y": -1.3238287323,
				"z": 2.3306082053,
				"element": "C" 
			},
			{
				"x": -4.7337447864,
				"y": -0.8621571246,
				"z": 0.2146757265,
				"element": "H" 
			},
			{
				"x": -4.6495725485,
				"y": -1.9840639851,
				"z": 1.5790624518,
				"element": "H" 
			},
			{
				"x": -4.6168656078,
				"y": -0.2361443714,
				"z": 1.8631216768,
				"element": "H" 
			},
			{
				"x": -2.4911759361,
				"y": -1.8188526129,
				"z": 0.3235443883,
				"element": "H" 
			},
			{
				"x": -2.4617643086,
				"y": 1.1136683555,
				"z": 1.1678725535,
				"element": "H" 
			},
			{
				"x": -2.7678463922,
				"y": 0.5163321421,
				"z": -0.464375933,
				"element": "H" 
			},
			{
				"x": -0.585391433,
				"y": -0.6139471261,
				"z": -0.4959146682,
				"element": "H" 
			},
			{
				"x": 0.1758245568,
				"y": 2.1221326795,
				"z": 0.442334494,
				"element": "H" 
			},
			{
				"x": -1.5529857025,
				"y": 3.0493298117,
				"z": -0.9118084806,
				"element": "H" 
			},
			{
				"x": -1.2720245209,
				"y": 1.9025825986,
				"z": -2.2161379575,
				"element": "H" 
			},
			{
				"x": 0.4004865187,
				"y": 4.302354501,
				"z": -1.4748347344,
				"element": "H" 
			},
			{
				"x": 0.3865939992,
				"y": 3.4030170992,
				"z": -2.98786692,
				"element": "H" 
			},
			{
				"x": 3.0932731658,
				"y": 3.0953328365,
				"z": -0.149491599,
				"element": "H" 
			},
			{
				"x": 2.0477563056,
				"y": 2.1041700696,
				"z": -4.2652656387,
				"element": "H" 
			},
			{
				"x": 2.4257954585,
				"y": 3.8095746042,
				"z": -4.0375568125,
				"element": "H" 
			},
			{
				"x": 4.702687104,
				"y": 2.6155920819,
				"z": -3.7895788962,
				"element": "H" 
			},
			{
				"x": 0.4610319997,
				"y": 0.8909733158,
				"z": -3.1806563719,
				"element": "H" 
			},
			{
				"x": 0.4856791302,
				"y": -0.5949788459,
				"z": -2.2392379609,
				"element": "H" 
			},
			{
				"x": 1.9903575109,
				"y": 0.0631835967,
				"z": -2.859983033,
				"element": "H" 
			},
			{
				"x": 3.1341941223,
				"y": 0.6218741977,
				"z": -0.1495980262,
				"element": "H" 
			},
			{
				"x": 2.137350181,
				"y": -0.7608409846,
				"z": -0.5450979496,
				"element": "H" 
			},
			{
				"x": 1.831163298,
				"y": 1.1230776736,
				"z": 1.79215548,
				"element": "H" 
			},
			{
				"x": 3.3204281906,
				"y": -0.6053433711,
				"z": 1.8574743226,
				"element": "H" 
			},
			{
				"x": -0.2522791313,
				"y": 0.7071582885,
				"z": 2.2165107843,
				"element": "H" 
			},
			{
				"x": 1.0313396201,
				"y": -2.7724837066,
				"z": 1.3478236722,
				"element": "H" 
			},
			{
				"x": -0.4595830081,
				"y": -3.5774736642,
				"z": 1.8826375655,
				"element": "H" 
			},
			{
				"x": -0.4452991992,
				"y": -2.6504094816,
				"z": 0.3772785385,
				"element": "H" 
			},
			{
				"x": 1.2863372479,
				"y": -1.6069305669,
				"z": 3.5636690058,
				"element": "H" 
			},
			{
				"x": 0.0740528362,
				"y": -1.80372462,
				"z": 5.6825300051,
				"element": "H" 
			},
			{
				"x": -3.6868240454,
				"y": -1.3958309638,
				"z": 3.5891853084,
				"element": "H" 
			}
		],
		 "valence_orbital": [ 
			{
				"type": "occ",
				"energy": -0.27509,
				"method": "rhf"
			},
			{
				"type": "occ",
				"energy": -0.2693,
				"method": "rhf"
			},
			{
				"type": "occ",
				"energy": -0.25714,
				"method": "rhf"
			},
			{
				"type": "occ",
				"energy": -0.24907,
				"method": "rhf"
			},
			{
				"type": "occ",
				"energy": -0.22327,
				"method": "rhf"
			},
			{
				"type": "unocc",
				"energy": -0.05365,
				"method": "rhf"
			},
			{
				"type": "unocc",
				"energy": -0.0458,
				"method": "rhf"
			},
			{
				"type": "unocc",
				"energy": 0.0086,
				"method": "rhf"
			},
			{
				"type": "unocc",
				"energy": 0.04836,
				"method": "rhf"
			},
			{
				"type": "unocc",
				"energy": 0.06119,
				"method": "rhf"
			}
		],
		"cosmo_sigma_profile": { 
			"-0.025": 0.0,
			"-0.024": 0.0,
			"-0.023": 0.0,
			"-0.022": 0.0,
			"-0.021": 0.0,
			"-0.02": 0.0,
			"-0.019": 0.0,
			"-0.018": 0.0,
			"-0.017": 0.0,
			"-0.016": 0.397191571327,
			"-0.015": 0.742286679756,
			"-0.014": 1.13035950685,
			"-0.013": 0.672110045551,
			"-0.012": 1.16456451288,
			"-0.011": 1.50767078784,
			"-0.01": 2.14137160967,
			"-0.009": 2.83833579594,
			"-0.008": 3.13349119327,
			"-0.007": 6.56048668894,
			"-0.006": 11.6410765294,
			"-0.005": 16.8445414903,
			"-0.004": 25.6213345161,
			"-0.003": 44.7460550674,
			"-0.002": 49.8648032542,
			"-0.001": 47.9870893435,
			"0.0": 40.4099033816,
			"0.001": 29.2792019367,
			"0.002": 18.8088532392,
			"0.003": 14.4958083018,
			"0.004": 10.7950418619,
			"0.005": 7.34845713583,
			"0.006": 7.1351840795,
			"0.007": 5.37217652314,
			"0.008": 7.23768809582,
			"0.009": 4.86326863545,
			"0.01": 4.47528523755,
			"0.011": 3.56246208963,
			"0.012": 5.49961306554,
			"0.013": 7.01274143084,
			"0.014": 6.30135507559,
			"0.015": 2.00312072629,
			"0.016": 0.0174136528947,
			"0.017": 0.0,
			"0.018": 0.0,
			"0.019": 0.0,
			"0.02": 0.0,
			"0.021": 0.0,
			"0.022": 0.0,
			"0.023": 0.0,
			"0.024": 0.0,
			"0.025": 0.0
		}
	}
}
