{
	 "smiles": "CC1=CC(C(=O)CCl)=C(C)S1", 
	 "Tm": 328.15, 
	 "num_atms": 20, 
	 "gaussian": { 
		 "optdone": 1, 
		 "sigma_profile": "yes", 
		 "theory": "DFT", 
		 "functional": "B3LYP", 
		 "basiset": "6-31G**", 
		 "properties": { 
			 "R2extent": 3283.4954, 
			 "electric_dipole_moment_norm": 2.96954147471, 
			 "electric_quadrupole_moment_norm": 10.9682270422, 
			 "total_energy": -1243.87686951, 
			 "HOMO_LUMO_gap": 0.17034, 
			 "cosmo_polarized_energy": -7.98, 
			 "cosmo_cavitation_energy": 26.93, 
			 "cosmo_dispersion_energy": -19.98, 
			 "cosmo_repulsion_energy": 1.58, 
			 "cosmo_total_nonelectrostatic_energy": 8.53, 
			 "SMD_solvation_energy": 4.63 
		},
		"coords": [
			{
				"x": 0.5477644051,
				"y": 0.0592565384,
				"z": -3.7928623032,
				"element": "C" 
			},
			{
				"x": -0.1287641262,
				"y": 0.2670771388,
				"z": -2.4714883497,
				"element": "C" 
			},
			{
				"x": 0.3253549531,
				"y": 0.9371666564,
				"z": -1.3754089948,
				"element": "C" 
			},
			{
				"x": -0.5948706722,
				"y": 0.949057263,
				"z": -0.267189121,
				"element": "C" 
			},
			{
				"x": -0.3423087573,
				"y": 1.5730723771,
				"z": 1.0424522279,
				"element": "C" 
			},
			{
				"x": -1.1358073098,
				"y": 1.519125233,
				"z": 1.9740094223,
				"element": "O" 
			},
			{
				"x": 0.9941211595,
				"y": 2.288581363,
				"z": 1.2776000154,
				"element": "C" 
			},
			{
				"x": 1.1150037286,
				"y": 3.8349892459,
				"z": 0.3312779362,
				"element": "Cl" 
			},
			{
				"x": -1.772764029,
				"y": 0.269612683,
				"z": -0.5443741621,
				"element": "C" 
			},
			{
				"x": -2.9709370413,
				"y": 0.0475276641,
				"z": 0.3275922036,
				"element": "C" 
			},
			{
				"x": -1.7305754553,
				"y": -0.3726242984,
				"z": -2.155097868,
				"element": "S" 
			},
			{
				"x": 0.6931170494,
				"y": -1.0037496047,
				"z": -4.0164565571,
				"element": "H" 
			},
			{
				"x": -0.026387364,
				"y": 0.4935612119,
				"z": -4.6190879455,
				"element": "H" 
			},
			{
				"x": 1.5310080518,
				"y": 0.5373621446,
				"z": -3.781310083,
				"element": "H" 
			},
			{
				"x": 1.2893568847,
				"y": 1.4319987742,
				"z": -1.3620159536,
				"element": "H" 
			},
			{
				"x": 1.0535193817,
				"y": 2.5522014717,
				"z": 2.3318303161,
				"element": "H" 
			},
			{
				"x": 1.8479169841,
				"y": 1.6727295388,
				"z": 0.9878919919,
				"element": "H" 
			},
			{
				"x": -2.6939355854,
				"y": -0.5018946607,
				"z": 1.2323706817,
				"element": "H" 
			},
			{
				"x": -3.3837482847,
				"y": 1.0025085137,
				"z": 0.6655479078,
				"element": "H" 
			},
			{
				"x": -3.7492639726,
				"y": -0.508959254,
				"z": -0.2011813651,
				"element": "H" 
			}
		],
		 "valence_orbital": [ 
			{
				"type": "occ",
				"energy": -0.31381,
				"method": "rhf"
			},
			{
				"type": "occ",
				"energy": -0.30379,
				"method": "rhf"
			},
			{
				"type": "occ",
				"energy": -0.26155,
				"method": "rhf"
			},
			{
				"type": "occ",
				"energy": -0.25398,
				"method": "rhf"
			},
			{
				"type": "occ",
				"energy": -0.23213,
				"method": "rhf"
			},
			{
				"type": "unocc",
				"energy": -0.06179,
				"method": "rhf"
			},
			{
				"type": "unocc",
				"energy": -0.00899,
				"method": "rhf"
			},
			{
				"type": "unocc",
				"energy": 0.01447,
				"method": "rhf"
			},
			{
				"type": "unocc",
				"energy": 0.02848,
				"method": "rhf"
			},
			{
				"type": "unocc",
				"energy": 0.08106,
				"method": "rhf"
			}
		],
		"cosmo_sigma_profile": { 
			"-0.025": 0.0,
			"-0.024": 0.0,
			"-0.023": 0.0,
			"-0.022": 0.0,
			"-0.021": 0.0,
			"-0.02": 0.0,
			"-0.019": 0.0,
			"-0.018": 0.0,
			"-0.017": 0.0,
			"-0.016": 0.0,
			"-0.015": 0.0,
			"-0.014": 0.0,
			"-0.013": 0.0,
			"-0.012": 0.0,
			"-0.011": 0.0,
			"-0.01": 0.0,
			"-0.009": 1.58822843729,
			"-0.008": 4.25172056237,
			"-0.007": 4.74820317694,
			"-0.006": 7.03532362509,
			"-0.005": 15.6901192435,
			"-0.004": 16.972073609,
			"-0.003": 17.2673828194,
			"-0.002": 16.573129426,
			"-0.001": 23.0214370122,
			"0.0": 16.6220882781,
			"0.001": 14.6996315165,
			"0.002": 18.0158562068,
			"0.003": 17.553253315,
			"0.004": 13.9690200754,
			"0.005": 11.8332735257,
			"0.006": 5.98863901196,
			"0.007": 1.51290388326,
			"0.008": 1.48969135909,
			"0.009": 1.71171386055,
			"0.01": 2.13117435127,
			"0.011": 2.48465576365,
			"0.012": 2.41355178783,
			"0.013": 0.440914482129,
			"0.014": 0.0,
			"0.015": 0.0,
			"0.016": 0.0,
			"0.017": 0.0,
			"0.018": 0.0,
			"0.019": 0.0,
			"0.02": 0.0,
			"0.021": 0.0,
			"0.022": 0.0,
			"0.023": 0.0,
			"0.024": 0.0,
			"0.025": 0.0
		}
	}
}
