{
	 "smiles": "N#CC1=CN=C(N=C1)C1=CC=CC=C1", 
	 "Tm": 463.15, 
	 "num_atms": 21, 
	 "gaussian": { 
		 "optdone": 1, 
		 "sigma_profile": "yes", 
		 "theory": "DFT", 
		 "functional": "B3LYP", 
		 "basiset": "6-31G**", 
		 "properties": { 
			 "R2extent": 4323.5942, 
			 "electric_dipole_moment_norm": 3.67611970561, 
			 "electric_quadrupole_moment_norm": 18.4626736731, 
			 "total_energy": -587.626082559, 
			 "HOMO_LUMO_gap": 0.16452, 
			 "cosmo_polarized_energy": -9.96, 
			 "cosmo_cavitation_energy": 27.21, 
			 "cosmo_dispersion_energy": -19.66, 
			 "cosmo_repulsion_energy": 1.52, 
			 "cosmo_total_nonelectrostatic_energy": 9.07, 
			 "SMD_solvation_energy": 4.1 
		},
		"coords": [
			{
				"x": -0.2952275694,
				"y": -3.3393583375,
				"z": 5.7679599385,
				"element": "N" 
			},
			{
				"x": -0.14075426,
				"y": -2.8994098541,
				"z": 4.7018459052,
				"element": "C" 
			},
			{
				"x": 0.0489714221,
				"y": -2.3605037604,
				"z": 3.3945542932,
				"element": "C" 
			},
			{
				"x": -0.6711825383,
				"y": -2.8282669175,
				"z": 2.2820646401,
				"element": "C" 
			},
			{
				"x": -0.4979722139,
				"y": -2.3301673187,
				"z": 1.0652634055,
				"element": "N" 
			},
			{
				"x": 0.4081395878,
				"y": -1.3401723407,
				"z": 0.9194382192,
				"element": "C" 
			},
			{
				"x": 1.1472065406,
				"y": -0.8246330503,
				"z": 1.9246372978,
				"element": "N" 
			},
			{
				"x": 0.9677595426,
				"y": -1.3284279495,
				"z": 3.1381809745,
				"element": "C" 
			},
			{
				"x": 0.6045900511,
				"y": -0.7820027548,
				"z": -0.434478277,
				"element": "C" 
			},
			{
				"x": 1.5339061225,
				"y": 0.2502862968,
				"z": -0.648543017,
				"element": "C" 
			},
			{
				"x": 1.7167955972,
				"y": 0.774196407,
				"z": -1.9253393317,
				"element": "C" 
			},
			{
				"x": 0.9770612318,
				"y": 0.2763098517,
				"z": -3.0014268493,
				"element": "C" 
			},
			{
				"x": 0.0513083974,
				"y": -0.7501557525,
				"z": -2.7954694729,
				"element": "C" 
			},
			{
				"x": -0.1360020525,
				"y": -1.27809865,
				"z": -1.5209774995,
				"element": "C" 
			},
			{
				"x": -1.4026775044,
				"y": -3.6261505663,
				"z": 2.3944816551,
				"element": "H" 
			},
			{
				"x": 1.5658363444,
				"y": -0.9095384256,
				"z": 3.945136551,
				"element": "H" 
			},
			{
				"x": 2.1011539282,
				"y": 0.627439057,
				"z": 0.1944753946,
				"element": "H" 
			},
			{
				"x": 2.4368408963,
				"y": 1.5718233405,
				"z": -2.0826078193,
				"element": "H" 
			},
			{
				"x": 1.1214795918,
				"y": 0.6867038254,
				"z": -3.9968108656,
				"element": "H" 
			},
			{
				"x": -0.5248246965,
				"y": -1.1389081928,
				"z": -3.6299441846,
				"element": "H" 
			},
			{
				"x": -0.8507084186,
				"y": -2.0742649078,
				"z": -1.3477409578,
				"element": "H" 
			}
		],
		 "valence_orbital": [ 
			{
				"type": "occ",
				"energy": -0.33046,
				"method": "rhf"
			},
			{
				"type": "occ",
				"energy": -0.30582,
				"method": "rhf"
			},
			{
				"type": "occ",
				"energy": -0.26921,
				"method": "rhf"
			},
			{
				"type": "occ",
				"energy": -0.26198,
				"method": "rhf"
			},
			{
				"type": "occ",
				"energy": -0.25096,
				"method": "rhf"
			},
			{
				"type": "unocc",
				"energy": -0.08644,
				"method": "rhf"
			},
			{
				"type": "unocc",
				"energy": -0.06297,
				"method": "rhf"
			},
			{
				"type": "unocc",
				"energy": -0.00917,
				"method": "rhf"
			},
			{
				"type": "unocc",
				"energy": -0.00569,
				"method": "rhf"
			},
			{
				"type": "unocc",
				"energy": 0.01817,
				"method": "rhf"
			}
		],
		"cosmo_sigma_profile": { 
			"-0.025": 0.0,
			"-0.024": 0.0,
			"-0.023": 0.0,
			"-0.022": 0.0,
			"-0.021": 0.0,
			"-0.02": 0.0,
			"-0.019": 0.0,
			"-0.018": 0.0,
			"-0.017": 0.0,
			"-0.016": 0.0,
			"-0.015": 0.0,
			"-0.014": 0.0,
			"-0.013": 0.0,
			"-0.012": 0.0,
			"-0.011": 0.0,
			"-0.01": 1.96832299833,
			"-0.009": 5.38258346401,
			"-0.008": 4.5548684786,
			"-0.007": 4.91408367885,
			"-0.006": 11.2069305873,
			"-0.005": 14.6179797531,
			"-0.004": 20.5876977901,
			"-0.003": 19.5926502401,
			"-0.002": 13.4099131123,
			"-0.001": 11.7750578828,
			"0.0": 11.683262148,
			"0.001": 14.1112277194,
			"0.002": 16.0856576267,
			"0.003": 16.0098476764,
			"0.004": 17.3582906935,
			"0.005": 8.28496272475,
			"0.006": 5.17993248924,
			"0.007": 6.03113388013,
			"0.008": 4.73209724368,
			"0.009": 5.59598264823,
			"0.01": 3.56399407745,
			"0.011": 2.49557966489,
			"0.012": 2.09614425251,
			"0.013": 0.341087518638,
			"0.014": 0.0,
			"0.015": 0.0,
			"0.016": 0.0,
			"0.017": 0.0,
			"0.018": 0.0,
			"0.019": 0.0,
			"0.02": 0.0,
			"0.021": 0.0,
			"0.022": 0.0,
			"0.023": 0.0,
			"0.024": 0.0,
			"0.025": 0.0
		}
	}
}
