{
	 "smiles": "OC1=CC(F)=C(F)C=C1C#N", 
	 "Tm": 435.15, 
	 "num_atms": 14, 
	 "gaussian": { 
		 "optdone": 1, 
		 "sigma_profile": "yes", 
		 "theory": "DFT", 
		 "functional": "B3LYP", 
		 "basiset": "6-31G**", 
		 "properties": { 
			 "R2extent": 3971.412, 
			 "electric_dipole_moment_norm": 1.4064746034, 
			 "electric_quadrupole_moment_norm": 11.3933877227, 
			 "total_energy": -598.166477488, 
			 "HOMO_LUMO_gap": 0.18763, 
			 "cosmo_polarized_energy": -8.92, 
			 "cosmo_cavitation_energy": 21.07, 
			 "cosmo_dispersion_energy": -14.84, 
			 "cosmo_repulsion_energy": 1.14, 
			 "cosmo_total_nonelectrostatic_energy": 7.38, 
			 "SMD_solvation_energy": 6.34 
		},
		"coords": [
			{
				"x": -1.6359975109,
				"y": 3.3730014653,
				"z": 0.3826351759,
				"element": "O" 
			},
			{
				"x": -0.4284226833,
				"y": 2.9183650734,
				"z": 0.7824944796,
				"element": "C" 
			},
			{
				"x": 0.6403545182,
				"y": 3.0414070961,
				"z": -0.1126183144,
				"element": "C" 
			},
			{
				"x": 1.8933730227,
				"y": 2.5872507324,
				"z": 0.2605685934,
				"element": "C" 
			},
			{
				"x": 2.9234848051,
				"y": 2.6984622117,
				"z": -0.5846848236,
				"element": "F" 
			},
			{
				"x": 2.1162362941,
				"y": 2.0062203776,
				"z": 1.5162582244,
				"element": "C" 
			},
			{
				"x": 3.3508728034,
				"y": 1.5820441942,
				"z": 1.8287199308,
				"element": "F" 
			},
			{
				"x": 1.0734914757,
				"y": 1.8775100429,
				"z": 2.4100253087,
				"element": "C" 
			},
			{
				"x": -0.210012847,
				"y": 2.3330909461,
				"z": 2.0505907568,
				"element": "C" 
			},
			{
				"x": -1.3214881506,
				"y": 2.223143597,
				"z": 2.9384942921,
				"element": "C" 
			},
			{
				"x": -2.2805380796,
				"y": 2.1730207467,
				"z": 3.5983757251,
				"element": "N" 
			},
			{
				"x": -2.2933217547,
				"y": 3.2344463425,
				"z": 1.0827905871,
				"element": "H" 
			},
			{
				"x": 0.4879808589,
				"y": 3.4877266138,
				"z": -1.0877578547,
				"element": "H" 
			},
			{
				"x": 1.2494872481,
				"y": 1.4277105605,
				"z": 3.380007919,
				"element": "H" 
			}
		],
		 "valence_orbital": [ 
			{
				"type": "occ",
				"energy": -0.37612,
				"method": "rhf"
			},
			{
				"type": "occ",
				"energy": -0.35618,
				"method": "rhf"
			},
			{
				"type": "occ",
				"energy": -0.34449,
				"method": "rhf"
			},
			{
				"type": "occ",
				"energy": -0.28293,
				"method": "rhf"
			},
			{
				"type": "occ",
				"energy": -0.2506,
				"method": "rhf"
			},
			{
				"type": "unocc",
				"energy": -0.06297,
				"method": "rhf"
			},
			{
				"type": "unocc",
				"energy": -0.02398,
				"method": "rhf"
			},
			{
				"type": "unocc",
				"energy": 0.00595,
				"method": "rhf"
			},
			{
				"type": "unocc",
				"energy": 0.05202,
				"method": "rhf"
			},
			{
				"type": "unocc",
				"energy": 0.06674,
				"method": "rhf"
			}
		],
		"cosmo_sigma_profile": { 
			"-0.025": 0.0,
			"-0.024": 0.0,
			"-0.023": 0.0,
			"-0.022": 0.0,
			"-0.021": 0.0,
			"-0.02": 0.0,
			"-0.019": 0.0,
			"-0.018": 0.0,
			"-0.017": 0.0818064126712,
			"-0.016": 0.52824770094,
			"-0.015": 1.1424903645,
			"-0.014": 0.499742025487,
			"-0.013": 0.653570051365,
			"-0.012": 1.11652794466,
			"-0.011": 1.46078129949,
			"-0.01": 2.83880057224,
			"-0.009": 4.14420401607,
			"-0.008": 5.05737102318,
			"-0.007": 4.02383507151,
			"-0.006": 4.0706830556,
			"-0.005": 4.56854514287,
			"-0.004": 4.65167057137,
			"-0.003": 10.257281473,
			"-0.002": 17.2189907555,
			"-0.001": 19.0795621509,
			"0.0": 14.8149317099,
			"0.001": 8.17987363238,
			"0.002": 11.0036343407,
			"0.003": 21.2837955337,
			"0.004": 7.23269467275,
			"0.005": 3.30263568782,
			"0.006": 2.80681682888,
			"0.007": 4.74570979601,
			"0.008": 4.10966947392,
			"0.009": 4.666246092,
			"0.01": 3.06130109684,
			"0.011": 2.64850051594,
			"0.012": 1.84804653415,
			"0.013": 0.393540912682,
			"0.014": 0.0,
			"0.015": 0.0,
			"0.016": 0.0,
			"0.017": 0.0,
			"0.018": 0.0,
			"0.019": 0.0,
			"0.02": 0.0,
			"0.021": 0.0,
			"0.022": 0.0,
			"0.023": 0.0,
			"0.024": 0.0,
			"0.025": 0.0
		}
	}
}
