{
	 "smiles": "CC(Cl)C(=O)NC1=CC=C(OCC2=CC=CC=C2)C=C1", 
	 "Tm": 416.15, 
	 "num_atms": 36, 
	 "gaussian": { 
		 "optdone": 1, 
		 "sigma_profile": "yes", 
		 "theory": "DFT", 
		 "functional": "B3LYP", 
		 "basiset": "6-31G**", 
		 "properties": { 
			 "R2extent": 9573.0309, 
			 "electric_dipole_moment_norm": 5.71256080318, 
			 "electric_quadrupole_moment_norm": 23.4304073663, 
			 "total_energy": -1284.74716083, 
			 "HOMO_LUMO_gap": 0.19597, 
			 "cosmo_polarized_energy": -15.49, 
			 "cosmo_cavitation_energy": 41.61, 
			 "cosmo_dispersion_energy": -29.09, 
			 "cosmo_repulsion_energy": 2.27, 
			 "cosmo_total_nonelectrostatic_energy": 14.8, 
			 "SMD_solvation_energy": 7.48 
		},
		"coords": [
			{
				"x": -2.7829157453,
				"y": -4.2656413247,
				"z": 1.7760394407,
				"element": "C" 
			},
			{
				"x": -3.2055296696,
				"y": -2.9344570887,
				"z": 1.1776359403,
				"element": "C" 
			},
			{
				"x": -4.753033258,
				"y": -2.3563778836,
				"z": 1.9820600376,
				"element": "Cl" 
			},
			{
				"x": -3.4797054071,
				"y": -3.0705492531,
				"z": -0.3270182856,
				"element": "C" 
			},
			{
				"x": -4.0066198497,
				"y": -4.0728045969,
				"z": -0.786590127,
				"element": "O" 
			},
			{
				"x": -3.0725829523,
				"y": -2.0459740361,
				"z": -1.1489765422,
				"element": "N" 
			},
			{
				"x": -2.4188905367,
				"y": -0.8135235343,
				"z": -0.8573167804,
				"element": "C" 
			},
			{
				"x": -2.9609621166,
				"y": 0.1189506354,
				"z": 0.0399973943,
				"element": "C" 
			},
			{
				"x": -2.3084663452,
				"y": 1.3223526767,
				"z": 0.278327903,
				"element": "C" 
			},
			{
				"x": -1.1221652803,
				"y": 1.6366295066,
				"z": -0.3996176004,
				"element": "C" 
			},
			{
				"x": -0.5824474001,
				"y": 2.8581557877,
				"z": -0.1045815596,
				"element": "O" 
			},
			{
				"x": 0.5352319624,
				"y": 3.3286166194,
				"z": -0.8567893395,
				"element": "C" 
			},
			{
				"x": 1.8625683244,
				"y": 2.7186036861,
				"z": -0.4481673391,
				"element": "C" 
			},
			{
				"x": 2.0987043234,
				"y": 2.3402491773,
				"z": 0.8786447979,
				"element": "C" 
			},
			{
				"x": 3.3410404506,
				"y": 1.8296615996,
				"z": 1.255237696,
				"element": "C" 
			},
			{
				"x": 4.3636650305,
				"y": 1.6991670362,
				"z": 0.3127672874,
				"element": "C" 
			},
			{
				"x": 4.1356835045,
				"y": 2.0774051946,
				"z": -1.0112492962,
				"element": "C" 
			},
			{
				"x": 2.8894064934,
				"y": 2.5802703946,
				"z": -1.3892899338,
				"element": "C" 
			},
			{
				"x": -0.5855204254,
				"y": 0.7200945125,
				"z": -1.3121915243,
				"element": "C" 
			},
			{
				"x": -1.2329249576,
				"y": -0.4974159439,
				"z": -1.5267243269,
				"element": "C" 
			},
			{
				"x": -3.5208158535,
				"y": -5.0331127052,
				"z": 1.5385276256,
				"element": "H" 
			},
			{
				"x": -1.8219952191,
				"y": -4.5668578397,
				"z": 1.3435269713,
				"element": "H" 
			},
			{
				"x": -2.6674055261,
				"y": -4.1817966895,
				"z": 2.858733383,
				"element": "H" 
			},
			{
				"x": -2.4786828495,
				"y": -2.1487897765,
				"z": 1.3824392758,
				"element": "H" 
			},
			{
				"x": -3.2177687635,
				"y": -2.2727306526,
				"z": -2.1259793154,
				"element": "H" 
			},
			{
				"x": -3.8973472362,
				"y": -0.0985793096,
				"z": 0.5421800659,
				"element": "H" 
			},
			{
				"x": -2.7184187322,
				"y": 2.0497600636,
				"z": 0.9710902369,
				"element": "H" 
			},
			{
				"x": 0.5442247883,
				"y": 4.4072250155,
				"z": -0.6655721552,
				"element": "H" 
			},
			{
				"x": 0.3592747409,
				"y": 3.1885987269,
				"z": -1.9316620157,
				"element": "H" 
			},
			{
				"x": 1.3015774985,
				"y": 2.4403361767,
				"z": 1.6087503755,
				"element": "H" 
			},
			{
				"x": 3.511614103,
				"y": 1.5342931014,
				"z": 2.2866502749,
				"element": "H" 
			},
			{
				"x": 5.3305817608,
				"y": 1.3021328346,
				"z": 0.6078726533,
				"element": "H" 
			},
			{
				"x": 4.9237280893,
				"y": 1.9742719517,
				"z": -1.7517711068,
				"element": "H" 
			},
			{
				"x": 2.7147602269,
				"y": 2.8673121805,
				"z": -2.4241473107,
				"element": "H" 
			},
			{
				"x": 0.3436191598,
				"y": 0.9244166835,
				"z": -1.8292411917,
				"element": "H" 
			},
			{
				"x": -0.8026823325,
				"y": -1.2172929265,
				"z": -2.2173956088,
				"element": "H" 
			}
		],
		 "valence_orbital": [ 
			{
				"type": "occ",
				"energy": -0.26473,
				"method": "rhf"
			},
			{
				"type": "occ",
				"energy": -0.25947,
				"method": "rhf"
			},
			{
				"type": "occ",
				"energy": -0.25709,
				"method": "rhf"
			},
			{
				"type": "occ",
				"energy": -0.25317,
				"method": "rhf"
			},
			{
				"type": "occ",
				"energy": -0.22002,
				"method": "rhf"
			},
			{
				"type": "unocc",
				"energy": -0.02405,
				"method": "rhf"
			},
			{
				"type": "unocc",
				"energy": -0.01755,
				"method": "rhf"
			},
			{
				"type": "unocc",
				"energy": -0.01242,
				"method": "rhf"
			},
			{
				"type": "unocc",
				"energy": -0.0094,
				"method": "rhf"
			},
			{
				"type": "unocc",
				"energy": 0.00217,
				"method": "rhf"
			}
		],
		"cosmo_sigma_profile": { 
			"-0.025": 0.0,
			"-0.024": 0.0,
			"-0.023": 0.0,
			"-0.022": 0.0,
			"-0.021": 0.0,
			"-0.02": 0.0,
			"-0.019": 0.0,
			"-0.018": 0.0,
			"-0.017": 0.0,
			"-0.016": 0.0,
			"-0.015": 0.300756653434,
			"-0.014": 1.12101293265,
			"-0.013": 0.761366950548,
			"-0.012": 0.503596347015,
			"-0.011": 1.05957759908,
			"-0.01": 1.86723519798,
			"-0.009": 1.33023864603,
			"-0.008": 1.56579537538,
			"-0.007": 6.4630084023,
			"-0.006": 19.807474436,
			"-0.005": 24.7420282717,
			"-0.004": 29.0358933276,
			"-0.003": 27.2455787049,
			"-0.002": 22.6553384437,
			"-0.001": 24.9402906186,
			"0.0": 21.9054031169,
			"0.001": 19.0170354954,
			"0.002": 22.3078321309,
			"0.003": 24.6395992994,
			"0.004": 26.125847212,
			"0.005": 19.8305260545,
			"0.006": 14.5336719285,
			"0.007": 3.33868742791,
			"0.008": 2.18581827917,
			"0.009": 2.57916305273,
			"0.01": 2.53569400083,
			"0.011": 1.84038110701,
			"0.012": 3.23243064083,
			"0.013": 5.18409660299,
			"0.014": 0.568525695101,
			"0.015": 0.0,
			"0.016": 0.0,
			"0.017": 0.0,
			"0.018": 0.0,
			"0.019": 0.0,
			"0.02": 0.0,
			"0.021": 0.0,
			"0.022": 0.0,
			"0.023": 0.0,
			"0.024": 0.0,
			"0.025": 0.0
		}
	}
}
