{
	 "smiles": "BrC1=CC=C(C=C1)C1=NC=CS1", 
	 "Tm": 319.15, 
	 "num_atms": 18, 
	 "gaussian": { 
		 "optdone": 1, 
		 "sigma_profile": "yes", 
		 "theory": "DFT", 
		 "functional": "B3LYP", 
		 "basiset": "6-31G**", 
		 "properties": { 
			 "R2extent": 6168.2171, 
			 "electric_dipole_moment_norm": 2.14865601016, 
			 "electric_quadrupole_moment_norm": 6.54506643664, 
			 "total_energy": -3370.91144386, 
			 "HOMO_LUMO_gap": 0.1637, 
			 "cosmo_polarized_energy": -6.32, 
			 "cosmo_cavitation_energy": 26.41, 
			 "cosmo_dispersion_energy": -20.73, 
			 "cosmo_repulsion_energy": 1.58, 
			 "cosmo_total_nonelectrostatic_energy": 7.25, 
			 "SMD_solvation_energy": 2.16 
		},
		"coords": [
			{
				"x": 1.3061881089,
				"y": 5.1330950528,
				"z": -1.5801474461,
				"element": "Br" 
			},
			{
				"x": 0.9374537539,
				"y": 3.2728428679,
				"z": -1.3594942782,
				"element": "C" 
			},
			{
				"x": 1.9787366136,
				"y": 2.3488271681,
				"z": -1.4556123915,
				"element": "C" 
			},
			{
				"x": 1.7056611553,
				"y": 0.9947318476,
				"z": -1.2941885192,
				"element": "C" 
			},
			{
				"x": 0.3969808641,
				"y": 0.549349624,
				"z": -1.0362913274,
				"element": "C" 
			},
			{
				"x": -0.6318938382,
				"y": 1.5000025798,
				"z": -0.9445460227,
				"element": "C" 
			},
			{
				"x": -0.3689446155,
				"y": 2.8580362665,
				"z": -1.1046069191,
				"element": "C" 
			},
			{
				"x": 0.1554222296,
				"y": -0.8896716735,
				"z": -0.8728717747,
				"element": "C" 
			},
			{
				"x": 1.0928065254,
				"y": -1.7994988666,
				"z": -0.952741588,
				"element": "N" 
			},
			{
				"x": 0.5923891816,
				"y": -3.060300607,
				"z": -0.7610221031,
				"element": "C" 
			},
			{
				"x": -0.7511084854,
				"y": -3.144546479,
				"z": -0.527968319,
				"element": "C" 
			},
			{
				"x": -1.4488732562,
				"y": -1.5596806874,
				"z": -0.5459687054,
				"element": "S" 
			},
			{
				"x": 2.9895688989,
				"y": 2.6863169732,
				"z": -1.6542568039,
				"element": "H" 
			},
			{
				"x": 2.5002930786,
				"y": 0.2605133096,
				"z": -1.3650582457,
				"element": "H" 
			},
			{
				"x": -1.6528640223,
				"y": 1.1861574472,
				"z": -0.7462195308,
				"element": "H" 
			},
			{
				"x": -1.1687079809,
				"y": 3.585912315,
				"z": -1.0323359267,
				"element": "H" 
			},
			{
				"x": 1.2654148627,
				"y": -3.9089438291,
				"z": -0.8017194071,
				"element": "H" 
			},
			{
				"x": -1.355223074,
				"y": -4.0227433091,
				"z": -0.3514506913,
				"element": "H" 
			}
		],
		 "valence_orbital": [ 
			{
				"type": "occ",
				"energy": -0.29057,
				"method": "rhf"
			},
			{
				"type": "occ",
				"energy": -0.27991,
				"method": "rhf"
			},
			{
				"type": "occ",
				"energy": -0.27217,
				"method": "rhf"
			},
			{
				"type": "occ",
				"energy": -0.26893,
				"method": "rhf"
			},
			{
				"type": "occ",
				"energy": -0.22516,
				"method": "rhf"
			},
			{
				"type": "unocc",
				"energy": -0.06146,
				"method": "rhf"
			},
			{
				"type": "unocc",
				"energy": -0.01901,
				"method": "rhf"
			},
			{
				"type": "unocc",
				"energy": 0.00263,
				"method": "rhf"
			},
			{
				"type": "unocc",
				"energy": 0.01147,
				"method": "rhf"
			},
			{
				"type": "unocc",
				"energy": 0.01683,
				"method": "rhf"
			}
		],
		"cosmo_sigma_profile": { 
			"-0.025": 0.0,
			"-0.024": 0.0,
			"-0.023": 0.0,
			"-0.022": 0.0,
			"-0.021": 0.0,
			"-0.02": 0.0,
			"-0.019": 0.0,
			"-0.018": 0.0,
			"-0.017": 0.0,
			"-0.016": 0.0,
			"-0.015": 0.0,
			"-0.014": 0.0,
			"-0.013": 0.0,
			"-0.012": 0.0,
			"-0.011": 0.0,
			"-0.01": 0.33160649261,
			"-0.009": 2.09615956561,
			"-0.008": 3.84816732372,
			"-0.007": 8.87522375176,
			"-0.006": 11.7545467681,
			"-0.005": 10.8651579746,
			"-0.004": 9.77164446457,
			"-0.003": 11.5944131377,
			"-0.002": 12.5487432917,
			"-0.001": 11.9762173354,
			"0.0": 18.4356307943,
			"0.001": 24.919555909,
			"0.002": 31.8572553014,
			"0.003": 29.3923505525,
			"0.004": 15.8057826644,
			"0.005": 5.803941677,
			"0.006": 1.84889835015,
			"0.007": 1.8307882313,
			"0.008": 0.821249324325,
			"0.009": 1.38102758279,
			"0.01": 1.0158620942,
			"0.011": 1.42233931317,
			"0.012": 0.712764808207,
			"0.013": 0.128497084394,
			"0.014": 0.0,
			"0.015": 0.0,
			"0.016": 0.0,
			"0.017": 0.0,
			"0.018": 0.0,
			"0.019": 0.0,
			"0.02": 0.0,
			"0.021": 0.0,
			"0.022": 0.0,
			"0.023": 0.0,
			"0.024": 0.0,
			"0.025": 0.0
		}
	}
}
