{
	 "smiles": "CC1=CC=C(O)C(=C1)C(C)(C)C", 
	 "Tm": 324.95, 
	 "num_atms": 28, 
	 "gaussian": { 
		 "optdone": 1, 
		 "sigma_profile": "yes", 
		 "theory": "DFT", 
		 "functional": "B3LYP", 
		 "basiset": "6-31G**", 
		 "properties": { 
			 "R2extent": 2619.0945, 
			 "electric_dipole_moment_norm": 1.27488873632, 
			 "electric_quadrupole_moment_norm": 10.1356752395, 
			 "total_energy": -504.052799973, 
			 "HOMO_LUMO_gap": 0.21342, 
			 "cosmo_polarized_energy": -6.82, 
			 "cosmo_cavitation_energy": 28.72, 
			 "cosmo_dispersion_energy": -20.73, 
			 "cosmo_repulsion_energy": 1.65, 
			 "cosmo_total_nonelectrostatic_energy": 9.64, 
			 "SMD_solvation_energy": 5.48 
		},
		"coords": [
			{
				"x": -2.1109761293,
				"y": -1.9589588713,
				"z": -0.9619236026,
				"element": "C" 
			},
			{
				"x": -1.5010893205,
				"y": -1.1604022044,
				"z": 0.1672917043,
				"element": "C" 
			},
			{
				"x": -1.7731337469,
				"y": -1.4560858047,
				"z": 1.5018548508,
				"element": "C" 
			},
			{
				"x": -1.1876456589,
				"y": -0.7046333556,
				"z": 2.5197300642,
				"element": "C" 
			},
			{
				"x": -0.3246537902,
				"y": 0.3507263092,
				"z": 2.2236941266,
				"element": "C" 
			},
			{
				"x": 0.2432972652,
				"y": 1.0819920002,
				"z": 3.2414654089,
				"element": "O" 
			},
			{
				"x": -0.0196228499,
				"y": 0.6887402071,
				"z": 0.8835567745,
				"element": "C" 
			},
			{
				"x": -0.6305309583,
				"y": -0.0933102854,
				"z": -0.103785331,
				"element": "C" 
			},
			{
				"x": 0.9301246502,
				"y": 1.8528940239,
				"z": 0.5325173122,
				"element": "C" 
			},
			{
				"x": 1.1006241179,
				"y": 2.0193668063,
				"z": -0.9909608266,
				"element": "C" 
			},
			{
				"x": 2.3340804557,
				"y": 1.5896220334,
				"z": 1.1315383847,
				"element": "C" 
			},
			{
				"x": 0.3625470542,
				"y": 3.1839248175,
				"z": 1.0852452444,
				"element": "C" 
			},
			{
				"x": -2.6399010993,
				"y": -1.3135275714,
				"z": -1.6727205374,
				"element": "H" 
			},
			{
				"x": -2.8273187496,
				"y": -2.6952772671,
				"z": -0.5861331863,
				"element": "H" 
			},
			{
				"x": -1.3467385465,
				"y": -2.5026432192,
				"z": -1.5306378206,
				"element": "H" 
			},
			{
				"x": -2.4430365661,
				"y": -2.2734390783,
				"z": 1.7560018445,
				"element": "H" 
			},
			{
				"x": -1.4036120477,
				"y": -0.9384709196,
				"z": 3.5612667748,
				"element": "H" 
			},
			{
				"x": -0.0654896131,
				"y": 0.7259634583,
				"z": 4.0844438918,
				"element": "H" 
			},
			{
				"x": -0.4260754874,
				"y": 0.1306444193,
				"z": -1.1449093292,
				"element": "H" 
			},
			{
				"x": 0.1522380771,
				"y": 2.2445783552,
				"z": -1.4900693711,
				"element": "H" 
			},
			{
				"x": 1.5321381761,
				"y": 1.1275651861,
				"z": -1.4575841641,
				"element": "H" 
			},
			{
				"x": 1.7810111801,
				"y": 2.8542760015,
				"z": -1.1874002151,
				"element": "H" 
			},
			{
				"x": 3.0098190463,
				"y": 2.4145653093,
				"z": 0.8773878204,
				"element": "H" 
			},
			{
				"x": 2.2984418798,
				"y": 1.4991099619,
				"z": 2.2179191111,
				"element": "H" 
			},
			{
				"x": 2.7614537709,
				"y": 0.6674332301,
				"z": 0.722804042,
				"element": "H" 
			},
			{
				"x": -0.6167149843,
				"y": 3.3989283612,
				"z": 0.6437062705,
				"element": "H" 
			},
			{
				"x": 0.2509258655,
				"y": 3.1549746089,
				"z": 2.1698630877,
				"element": "H" 
			},
			{
				"x": 1.034838009,
				"y": 4.0116434875,
				"z": 0.8309376705,
				"element": "H" 
			}
		],
		 "valence_orbital": [ 
			{
				"type": "occ",
				"energy": -0.31283,
				"method": "rhf"
			},
			{
				"type": "occ",
				"energy": -0.30991,
				"method": "rhf"
			},
			{
				"type": "occ",
				"energy": -0.30505,
				"method": "rhf"
			},
			{
				"type": "occ",
				"energy": -0.2388,
				"method": "rhf"
			},
			{
				"type": "occ",
				"energy": -0.20815,
				"method": "rhf"
			},
			{
				"type": "unocc",
				"energy": 0.00527,
				"method": "rhf"
			},
			{
				"type": "unocc",
				"energy": 0.01847,
				"method": "rhf"
			},
			{
				"type": "unocc",
				"energy": 0.07011,
				"method": "rhf"
			},
			{
				"type": "unocc",
				"energy": 0.10002,
				"method": "rhf"
			},
			{
				"type": "unocc",
				"energy": 0.10367,
				"method": "rhf"
			}
		],
		"cosmo_sigma_profile": { 
			"-0.025": 0.0,
			"-0.024": 0.0,
			"-0.023": 0.0,
			"-0.022": 0.0,
			"-0.021": 0.0,
			"-0.02": 0.0,
			"-0.019": 0.0,
			"-0.018": 0.00303499257448,
			"-0.017": 0.767007890144,
			"-0.016": 1.10281969271,
			"-0.015": 0.915863422564,
			"-0.014": 1.57395659766,
			"-0.013": 0.782663392388,
			"-0.012": 0.72934697924,
			"-0.011": 0.961936890797,
			"-0.01": 0.709215294834,
			"-0.009": 1.25513081737,
			"-0.008": 1.12587445811,
			"-0.007": 0.999611085408,
			"-0.006": 1.58121299925,
			"-0.005": 3.72039070838,
			"-0.004": 8.00658641604,
			"-0.003": 17.9154372332,
			"-0.002": 28.3080355807,
			"-0.001": 23.4552420584,
			"0.0": 27.7392014412,
			"0.001": 27.768329634,
			"0.002": 24.3682716285,
			"0.003": 10.4128249592,
			"0.004": 10.5221910178,
			"0.005": 10.4071374974,
			"0.006": 10.7849909456,
			"0.007": 6.95968992337,
			"0.008": 0.935721068448,
			"0.009": 0.103327394795,
			"0.01": 0.0,
			"0.011": 0.0,
			"0.012": 0.0,
			"0.013": 0.0,
			"0.014": 0.0,
			"0.015": 0.0,
			"0.016": 0.0,
			"0.017": 0.0,
			"0.018": 0.0,
			"0.019": 0.0,
			"0.02": 0.0,
			"0.021": 0.0,
			"0.022": 0.0,
			"0.023": 0.0,
			"0.024": 0.0,
			"0.025": 0.0
		}
	}
}
