{
	 "smiles": "ClC1=NC(Br)=C(Br)C=C1", 
	 "Tm": 343.15, 
	 "num_atms": 11, 
	 "gaussian": { 
		 "optdone": 1, 
		 "sigma_profile": "yes", 
		 "theory": "DFT", 
		 "functional": "B3LYP", 
		 "basiset": "6-31G**", 
		 "properties": { 
			 "R2extent": 3940.9861, 
			 "electric_dipole_moment_norm": 3.01039574475, 
			 "electric_quadrupole_moment_norm": 7.04062954216, 
			 "total_energy": -5849.47595316, 
			 "HOMO_LUMO_gap": 0.19971, 
			 "cosmo_polarized_energy": -6.31, 
			 "cosmo_cavitation_energy": 22.22, 
			 "cosmo_dispersion_energy": -17.6, 
			 "cosmo_repulsion_energy": 1.45, 
			 "cosmo_total_nonelectrostatic_energy": 6.07, 
			 "SMD_solvation_energy": 0.07 
		},
		"coords": [
			{
				"x": 0.7496086329,
				"y": 2.7834976056,
				"z": 0.5943814433,
				"element": "Cl" 
			},
			{
				"x": 0.9266998184,
				"y": 1.0449939618,
				"z": 0.7277541609,
				"element": "C" 
			},
			{
				"x": 0.1010810999,
				"y": 0.3033494598,
				"z": 0.0104933869,
				"element": "N" 
			},
			{
				"x": 0.1972813641,
				"y": -1.0149154332,
				"z": 0.0789453785,
				"element": "C" 
			},
			{
				"x": -1.035663447,
				"y": -1.9974770984,
				"z": -0.9913621586,
				"element": "Br" 
			},
			{
				"x": 1.1445327448,
				"y": -1.6626906161,
				"z": 0.8857249538,
				"element": "C" 
			},
			{
				"x": 1.2971010408,
				"y": -3.5466083347,
				"z": 0.9963501876,
				"element": "Br" 
			},
			{
				"x": 2.0096622423,
				"y": -0.864501502,
				"z": 1.637570136,
				"element": "C" 
			},
			{
				"x": 1.9108055733,
				"y": 0.5208456456,
				"z": 1.5675451138,
				"element": "C" 
			},
			{
				"x": 2.7539453076,
				"y": -1.3326048362,
				"z": 2.2719379366,
				"element": "H" 
			},
			{
				"x": 2.5661456229,
				"y": 1.1678111478,
				"z": 2.1374594613,
				"element": "H" 
			}
		],
		 "valence_orbital": [ 
			{
				"type": "occ",
				"energy": -0.32061,
				"method": "rhf"
			},
			{
				"type": "occ",
				"energy": -0.3058,
				"method": "rhf"
			},
			{
				"type": "occ",
				"energy": -0.29369,
				"method": "rhf"
			},
			{
				"type": "occ",
				"energy": -0.28296,
				"method": "rhf"
			},
			{
				"type": "occ",
				"energy": -0.25888,
				"method": "rhf"
			},
			{
				"type": "unocc",
				"energy": -0.05917,
				"method": "rhf"
			},
			{
				"type": "unocc",
				"energy": -0.04963,
				"method": "rhf"
			},
			{
				"type": "unocc",
				"energy": -0.0289,
				"method": "rhf"
			},
			{
				"type": "unocc",
				"energy": 0.01213,
				"method": "rhf"
			},
			{
				"type": "unocc",
				"energy": 0.02869,
				"method": "rhf"
			}
		],
		"cosmo_sigma_profile": { 
			"-0.025": 0.0,
			"-0.024": 0.0,
			"-0.023": 0.0,
			"-0.022": 0.0,
			"-0.021": 0.0,
			"-0.02": 0.0,
			"-0.019": 0.0,
			"-0.018": 0.0,
			"-0.017": 0.0,
			"-0.016": 0.0,
			"-0.015": 0.0,
			"-0.014": 0.0,
			"-0.013": 0.0,
			"-0.012": 0.0,
			"-0.011": 0.0,
			"-0.01": 1.09546098935,
			"-0.009": 4.83169992283,
			"-0.008": 3.94709020655,
			"-0.007": 3.74440511245,
			"-0.006": 4.37911201277,
			"-0.005": 5.69515727695,
			"-0.004": 7.87243294876,
			"-0.003": 12.4905089414,
			"-0.002": 20.4142942239,
			"-0.001": 20.2671062187,
			"0.0": 15.1963568422,
			"0.001": 11.8883375388,
			"0.002": 18.4856258333,
			"0.003": 26.2326166193,
			"0.004": 18.4862341361,
			"0.005": 5.04522119184,
			"0.006": 2.39038400695,
			"0.007": 1.80451973319,
			"0.008": 1.23157929801,
			"0.009": 1.12091102785,
			"0.01": 0.970468755921,
			"0.011": 0.903718287784,
			"0.012": 0.194989894114,
			"0.013": 0.0,
			"0.014": 0.0,
			"0.015": 0.0,
			"0.016": 0.0,
			"0.017": 0.0,
			"0.018": 0.0,
			"0.019": 0.0,
			"0.02": 0.0,
			"0.021": 0.0,
			"0.022": 0.0,
			"0.023": 0.0,
			"0.024": 0.0,
			"0.025": 0.0
		}
	}
}
