{
	 "smiles": "NC1=C(Cl)C=CC(Cl)=C1C(O)=O", 
	 "Tm": 427.15, 
	 "num_atms": 17, 
	 "gaussian": { 
		 "optdone": 1, 
		 "sigma_profile": "yes", 
		 "theory": "DFT", 
		 "functional": "B3LYP", 
		 "basiset": "6-31G**", 
		 "properties": { 
			 "R2extent": 2933.2551, 
			 "electric_dipole_moment_norm": 4.64068956191, 
			 "electric_quadrupole_moment_norm": 17.5703974705, 
			 "total_energy": -1395.34738435, 
			 "HOMO_LUMO_gap": 0.18592, 
			 "cosmo_polarized_energy": -15.15, 
			 "cosmo_cavitation_energy": 24.67, 
			 "cosmo_dispersion_energy": -18.9, 
			 "cosmo_repulsion_energy": 1.5, 
			 "cosmo_total_nonelectrostatic_energy": 7.27, 
			 "SMD_solvation_energy": 4.83 
		},
		"coords": [
			{
				"x": 1.7266487668,
				"y": 0.5953735495,
				"z": -1.7899375729,
				"element": "N" 
			},
			{
				"x": 0.6879183779,
				"y": 0.0920568508,
				"z": -0.991009943,
				"element": "C" 
			},
			{
				"x": -0.6010114708,
				"y": 0.6492667741,
				"z": -1.0487231284,
				"element": "C" 
			},
			{
				"x": -0.9424657308,
				"y": 1.9334986382,
				"z": -2.2046867639,
				"element": "Cl" 
			},
			{
				"x": -1.6212278511,
				"y": 0.208723491,
				"z": -0.2147487052,
				"element": "C" 
			},
			{
				"x": -1.3777154305,
				"y": -0.8114682466,
				"z": 0.6971777231,
				"element": "C" 
			},
			{
				"x": -0.1078581525,
				"y": -1.3843645373,
				"z": 0.7693360802,
				"element": "C" 
			},
			{
				"x": 0.1212397727,
				"y": -2.6265598969,
				"z": 1.9775165489,
				"element": "Cl" 
			},
			{
				"x": 0.9445952583,
				"y": -0.9426363136,
				"z": -0.0523978978,
				"element": "C" 
			},
			{
				"x": 2.3248242038,
				"y": -1.5546910628,
				"z": 0.048157951,
				"element": "C" 
			},
			{
				"x": 3.3666125684,
				"y": -0.6933384121,
				"z": -0.059225805,
				"element": "O" 
			},
			{
				"x": 2.5250573338,
				"y": -2.7313522794,
				"z": 0.2141358967,
				"element": "O" 
			},
			{
				"x": 2.2975657915,
				"y": -0.1109005214,
				"z": -2.2406034014,
				"element": "H" 
			},
			{
				"x": 1.4121714968,
				"y": 1.288612395,
				"z": -2.458340896,
				"element": "H" 
			},
			{
				"x": -2.6045613343,
				"y": 0.659743677,
				"z": -0.2864628256,
				"element": "H" 
			},
			{
				"x": -2.1638781899,
				"y": -1.1632216748,
				"z": 1.3540000698,
				"element": "H" 
			},
			{
				"x": 3.0497845897,
				"y": 0.2041575693,
				"z": -0.2694873303,
				"element": "H" 
			}
		],
		 "valence_orbital": [ 
			{
				"type": "occ",
				"energy": -0.32116,
				"method": "rhf"
			},
			{
				"type": "occ",
				"energy": -0.3104,
				"method": "rhf"
			},
			{
				"type": "occ",
				"energy": -0.2775,
				"method": "rhf"
			},
			{
				"type": "occ",
				"energy": -0.26554,
				"method": "rhf"
			},
			{
				"type": "occ",
				"energy": -0.24535,
				"method": "rhf"
			},
			{
				"type": "unocc",
				"energy": -0.05943,
				"method": "rhf"
			},
			{
				"type": "unocc",
				"energy": -0.02868,
				"method": "rhf"
			},
			{
				"type": "unocc",
				"energy": 0.00172,
				"method": "rhf"
			},
			{
				"type": "unocc",
				"energy": 0.02487,
				"method": "rhf"
			},
			{
				"type": "unocc",
				"energy": 0.02944,
				"method": "rhf"
			}
		],
		"cosmo_sigma_profile": { 
			"-0.025": 0.0,
			"-0.024": 0.0,
			"-0.023": 0.0,
			"-0.022": 0.0,
			"-0.021": 0.0,
			"-0.02": 0.0,
			"-0.019": 0.0,
			"-0.018": 0.0,
			"-0.017": 0.0,
			"-0.016": 0.0,
			"-0.015": 0.509222528045,
			"-0.014": 1.52149400826,
			"-0.013": 2.46693964724,
			"-0.012": 3.32987021213,
			"-0.011": 3.76153791649,
			"-0.01": 2.26463484133,
			"-0.009": 3.4385969389,
			"-0.008": 5.59858269855,
			"-0.007": 7.73289673945,
			"-0.006": 6.14007986069,
			"-0.005": 6.51965549947,
			"-0.004": 6.74547722602,
			"-0.003": 9.40523177159,
			"-0.002": 10.3498832023,
			"-0.001": 13.6985062049,
			"0.0": 20.7209091041,
			"0.001": 20.9068329635,
			"0.002": 16.1399079722,
			"0.003": 13.1763062672,
			"0.004": 14.1303236825,
			"0.005": 4.6163558866,
			"0.006": 2.96825432871,
			"0.007": 2.7984396771,
			"0.008": 3.16211773189,
			"0.009": 3.56114314546,
			"0.01": 5.74177046907,
			"0.011": 6.1081914736,
			"0.012": 4.31306837823,
			"0.013": 0.542940687592,
			"0.014": 0.0,
			"0.015": 0.0,
			"0.016": 0.0,
			"0.017": 0.0,
			"0.018": 0.0,
			"0.019": 0.0,
			"0.02": 0.0,
			"0.021": 0.0,
			"0.022": 0.0,
			"0.023": 0.0,
			"0.024": 0.0,
			"0.025": 0.0
		}
	}
}
