{
	 "smiles": "CN1N=NC2=C1C=CC(CBr)=C2", 
	 "Tm": 393.15, 
	 "num_atms": 20, 
	 "gaussian": { 
		 "optdone": 1, 
		 "sigma_profile": "yes", 
		 "theory": "DFT", 
		 "functional": "B3LYP", 
		 "basiset": "6-31G**", 
		 "properties": { 
			 "R2extent": 5683.177, 
			 "electric_dipole_moment_norm": 4.43264252901, 
			 "electric_quadrupole_moment_norm": 16.4293735511, 
			 "total_energy": -3045.30229886, 
			 "HOMO_LUMO_gap": 0.18905, 
			 "cosmo_polarized_energy": -13.99, 
			 "cosmo_cavitation_energy": 26.63, 
			 "cosmo_dispersion_energy": -19.88, 
			 "cosmo_repulsion_energy": 1.58, 
			 "cosmo_total_nonelectrostatic_energy": 8.33, 
			 "SMD_solvation_energy": 1.65 
		},
		"coords": [
			{
				"x": -0.5099721676,
				"y": 1.7508590519,
				"z": 2.1279659299,
				"element": "C" 
			},
			{
				"x": -0.3767721859,
				"y": 0.5370864842,
				"z": 1.3437898591,
				"element": "N" 
			},
			{
				"x": -1.2311107506,
				"y": -0.5062948411,
				"z": 1.5617686032,
				"element": "N" 
			},
			{
				"x": -0.9343909497,
				"y": -1.4781544429,
				"z": 0.7618114736,
				"element": "N" 
			},
			{
				"x": 0.1390788528,
				"y": -1.0912733333,
				"z": -0.0115793667,
				"element": "C" 
			},
			{
				"x": 0.510759351,
				"y": 0.217691879,
				"z": 0.3568366645,
				"element": "C" 
			},
			{
				"x": 1.5785243634,
				"y": 0.8869223921,
				"z": -0.2648361839,
				"element": "C" 
			},
			{
				"x": 2.246897579,
				"y": 0.1949261801,
				"z": -1.2586436028,
				"element": "C" 
			},
			{
				"x": 1.8876178955,
				"y": -1.127187132,
				"z": -1.6470173757,
				"element": "C" 
			},
			{
				"x": 2.6430819444,
				"y": -1.803141833,
				"z": -2.7438089032,
				"element": "C" 
			},
			{
				"x": 4.4208104524,
				"y": -2.5113345535,
				"z": -2.130060576,
				"element": "Br" 
			},
			{
				"x": 0.8318091968,
				"y": -1.7779236558,
				"z": -1.0199027444,
				"element": "C" 
			},
			{
				"x": 0.2596678842,
				"y": 2.4583431935,
				"z": 1.8171773796,
				"element": "H" 
			},
			{
				"x": -1.4944137891,
				"y": 2.1974466943,
				"z": 1.968114241,
				"element": "H" 
			},
			{
				"x": -0.384988325,
				"y": 1.5282200934,
				"z": 3.1903693356,
				"element": "H" 
			},
			{
				"x": 1.8718108124,
				"y": 1.8944893233,
				"z": 0.011218505,
				"element": "H" 
			},
			{
				"x": 3.0851148737,
				"y": 0.6697190972,
				"z": -1.7608196019,
				"element": "H" 
			},
			{
				"x": 2.1223171204,
				"y": -2.6753243486,
				"z": -3.1334853625,
				"element": "H" 
			},
			{
				"x": 2.9029133943,
				"y": -1.1298090761,
				"z": -3.5590796466,
				"element": "H" 
			},
			{
				"x": 0.5417444478,
				"y": -2.7872611728,
				"z": -1.2943186279,
				"element": "H" 
			}
		],
		 "valence_orbital": [ 
			{
				"type": "occ",
				"energy": -0.27497,
				"method": "rhf"
			},
			{
				"type": "occ",
				"energy": -0.27169,
				"method": "rhf"
			},
			{
				"type": "occ",
				"energy": -0.27055,
				"method": "rhf"
			},
			{
				"type": "occ",
				"energy": -0.25504,
				"method": "rhf"
			},
			{
				"type": "occ",
				"energy": -0.24059,
				"method": "rhf"
			},
			{
				"type": "unocc",
				"energy": -0.05154,
				"method": "rhf"
			},
			{
				"type": "unocc",
				"energy": -0.03102,
				"method": "rhf"
			},
			{
				"type": "unocc",
				"energy": 0.0226,
				"method": "rhf"
			},
			{
				"type": "unocc",
				"energy": 0.03575,
				"method": "rhf"
			},
			{
				"type": "unocc",
				"energy": 0.07618,
				"method": "rhf"
			}
		],
		"cosmo_sigma_profile": { 
			"-0.025": 0.0,
			"-0.024": 0.0,
			"-0.023": 0.0,
			"-0.022": 0.0,
			"-0.021": 0.0,
			"-0.02": 0.0,
			"-0.019": 0.0,
			"-0.018": 0.0,
			"-0.017": 0.0,
			"-0.016": 0.0,
			"-0.015": 0.0,
			"-0.014": 0.0,
			"-0.013": 0.0,
			"-0.012": 0.0,
			"-0.011": 0.0,
			"-0.01": 0.0155305226512,
			"-0.009": 1.91172629929,
			"-0.008": 8.97756177564,
			"-0.007": 15.425553028,
			"-0.006": 15.2817911258,
			"-0.005": 15.3283043256,
			"-0.004": 17.8586927654,
			"-0.003": 12.1264683705,
			"-0.002": 9.16422519641,
			"-0.001": 10.4873845463,
			"0.0": 11.2759310084,
			"0.001": 11.9248298895,
			"0.002": 15.7229537894,
			"0.003": 13.8306600615,
			"0.004": 10.2859209693,
			"0.005": 8.45818520011,
			"0.006": 13.2837451859,
			"0.007": 6.44950034148,
			"0.008": 2.57348716478,
			"0.009": 2.34650302911,
			"0.01": 3.32071119166,
			"0.011": 3.57640453858,
			"0.012": 2.34245975406,
			"0.013": 2.24078323267,
			"0.014": 0.933389567781,
			"0.015": 1.16867340889,
			"0.016": 0.199193056219,
			"0.017": 0.0,
			"0.018": 0.0,
			"0.019": 0.0,
			"0.02": 0.0,
			"0.021": 0.0,
			"0.022": 0.0,
			"0.023": 0.0,
			"0.024": 0.0,
			"0.025": 0.0
		}
	}
}
