{
	 "smiles": "OC1=CC=C(C=C1)C1CCCCC1", 
	 "Tm": 406.15, 
	 "num_atms": 29, 
	 "gaussian": { 
		 "optdone": 1, 
		 "sigma_profile": "yes", 
		 "theory": "DFT", 
		 "functional": "B3LYP", 
		 "basiset": "6-31G**", 
		 "properties": { 
			 "R2extent": 3972.7275, 
			 "electric_dipole_moment_norm": 1.30277434347, 
			 "electric_quadrupole_moment_norm": 11.1089368884, 
			 "total_energy": -542.152887293, 
			 "HOMO_LUMO_gap": 0.21212, 
			 "cosmo_polarized_energy": -7.71, 
			 "cosmo_cavitation_energy": 29.83, 
			 "cosmo_dispersion_energy": -21.92, 
			 "cosmo_repulsion_energy": 1.74, 
			 "cosmo_total_nonelectrostatic_energy": 9.65, 
			 "SMD_solvation_energy": 4.45 
		},
		"coords": [
			{
				"x": -0.6843698806,
				"y": 5.8920326247,
				"z": 0.0260476286,
				"element": "O" 
			},
			{
				"x": -0.5613224796,
				"y": 4.5581560729,
				"z": 0.3059476216,
				"element": "C" 
			},
			{
				"x": -0.2951729455,
				"y": 3.6944802175,
				"z": -0.7627350501,
				"element": "C" 
			},
			{
				"x": -0.162586396,
				"y": 2.3289936598,
				"z": -0.5321076709,
				"element": "C" 
			},
			{
				"x": -0.2860596517,
				"y": 1.7807911477,
				"z": 0.7559407843,
				"element": "C" 
			},
			{
				"x": -0.5507807404,
				"y": 2.6644316889,
				"z": 1.8076814807,
				"element": "C" 
			},
			{
				"x": -0.6896805491,
				"y": 4.0376449878,
				"z": 1.5956745657,
				"element": "C" 
			},
			{
				"x": -0.1317654978,
				"y": 0.2905348434,
				"z": 1.00729189,
				"element": "C" 
			},
			{
				"x": 1.2573239305,
				"y": -0.2530976167,
				"z": 0.6079113887,
				"element": "C" 
			},
			{
				"x": 1.4634774803,
				"y": -1.6997799537,
				"z": 1.1184275264,
				"element": "C" 
			},
			{
				"x": 0.1413667814,
				"y": -2.5022932409,
				"z": 1.1745342853,
				"element": "C" 
			},
			{
				"x": -0.8349344497,
				"y": -2.0255820403,
				"z": 0.0919040719,
				"element": "C" 
			},
			{
				"x": -1.2433015926,
				"y": -0.5493732454,
				"z": 0.3126310003,
				"element": "C" 
			},
			{
				"x": -0.866515765,
				"y": 6.3689902545,
				"z": 0.8459084331,
				"element": "H" 
			},
			{
				"x": -0.1967595085,
				"y": 4.1102645739,
				"z": -1.7603382155,
				"element": "H" 
			},
			{
				"x": 0.0431097212,
				"y": 1.6766654825,
				"z": -1.3769443151,
				"element": "H" 
			},
			{
				"x": -0.6521996751,
				"y": 2.275408556,
				"z": 2.8181461052,
				"element": "H" 
			},
			{
				"x": -0.8972920161,
				"y": 4.7007298932,
				"z": 2.4335675048,
				"element": "H" 
			},
			{
				"x": -0.2289188829,
				"y": 0.1415249855,
				"z": 2.0913891281,
				"element": "H" 
			},
			{
				"x": 1.348952545,
				"y": -0.2247352351,
				"z": -0.4856014086,
				"element": "H" 
			},
			{
				"x": 2.0447372308,
				"y": 0.4023258916,
				"z": 0.995142665,
				"element": "H" 
			},
			{
				"x": 2.1811671105,
				"y": -2.2110723717,
				"z": 0.4656505579,
				"element": "H" 
			},
			{
				"x": 1.9189530233,
				"y": -1.6792034838,
				"z": 2.115795719,
				"element": "H" 
			},
			{
				"x": 0.3450791673,
				"y": -3.5738587436,
				"z": 1.0694758034,
				"element": "H" 
			},
			{
				"x": -0.3306820249,
				"y": -2.3778768171,
				"z": 2.1580515978,
				"element": "H" 
			},
			{
				"x": -1.7274929513,
				"y": -2.6609597514,
				"z": 0.0659009405,
				"element": "H" 
			},
			{
				"x": -0.3548887608,
				"y": -2.1366706695,
				"z": -0.8893942997,
				"element": "H" 
			},
			{
				"x": -1.4969616549,
				"y": -0.0931819573,
				"z": -0.6510305249,
				"element": "H" 
			},
			{
				"x": -2.1537815679,
				"y": -0.4947897535,
				"z": 0.9215307862,
				"element": "H" 
			}
		],
		 "valence_orbital": [ 
			{
				"type": "occ",
				"energy": -0.29784,
				"method": "rhf"
			},
			{
				"type": "occ",
				"energy": -0.29321,
				"method": "rhf"
			},
			{
				"type": "occ",
				"energy": -0.29145,
				"method": "rhf"
			},
			{
				"type": "occ",
				"energy": -0.24603,
				"method": "rhf"
			},
			{
				"type": "occ",
				"energy": -0.21013,
				"method": "rhf"
			},
			{
				"type": "unocc",
				"energy": 0.00199,
				"method": "rhf"
			},
			{
				"type": "unocc",
				"energy": 0.01919,
				"method": "rhf"
			},
			{
				"type": "unocc",
				"energy": 0.07368,
				"method": "rhf"
			},
			{
				"type": "unocc",
				"energy": 0.08213,
				"method": "rhf"
			},
			{
				"type": "unocc",
				"energy": 0.10058,
				"method": "rhf"
			}
		],
		"cosmo_sigma_profile": { 
			"-0.025": 0.0,
			"-0.024": 0.0,
			"-0.023": 0.0,
			"-0.022": 0.0,
			"-0.021": 0.0,
			"-0.02": 0.0,
			"-0.019": 0.0,
			"-0.018": 0.0810902785264,
			"-0.017": 0.952564651604,
			"-0.016": 1.15824395468,
			"-0.015": 0.805983427359,
			"-0.014": 1.19478852176,
			"-0.013": 1.09626968024,
			"-0.012": 0.980925142852,
			"-0.011": 0.833053701922,
			"-0.01": 0.537675283778,
			"-0.009": 1.59267667618,
			"-0.008": 0.930812304056,
			"-0.007": 1.00461995802,
			"-0.006": 2.53361839687,
			"-0.005": 5.79553311988,
			"-0.004": 9.67700017593,
			"-0.003": 12.7454415025,
			"-0.002": 27.6975287048,
			"-0.001": 35.3075323417,
			"0.0": 33.5509970193,
			"0.001": 27.409346081,
			"0.002": 15.1695149704,
			"0.003": 8.77577978879,
			"0.004": 9.99797824626,
			"0.005": 9.84288650779,
			"0.006": 10.1816357516,
			"0.007": 4.3905449202,
			"0.008": 1.58637374792,
			"0.009": 1.55900698198,
			"0.01": 1.42293614419,
			"0.011": 2.00359245186,
			"0.012": 1.39435160347,
			"0.013": 0.00203804572429,
			"0.014": 0.0,
			"0.015": 0.0,
			"0.016": 0.0,
			"0.017": 0.0,
			"0.018": 0.0,
			"0.019": 0.0,
			"0.02": 0.0,
			"0.021": 0.0,
			"0.022": 0.0,
			"0.023": 0.0,
			"0.024": 0.0,
			"0.025": 0.0
		}
	}
}
