{
	 "smiles": "CC(C)C1=NN=C(N)N1", 
	 "Tm": 382.15, 
	 "num_atms": 19, 
	 "gaussian": { 
		 "optdone": 1, 
		 "sigma_profile": "yes", 
		 "theory": "DFT", 
		 "functional": "B3LYP", 
		 "basiset": "6-31G**", 
		 "properties": { 
			 "R2extent": 1545.6953, 
			 "electric_dipole_moment_norm": 5.10534997919, 
			 "electric_quadrupole_moment_norm": 12.522083732, 
			 "total_energy": -415.557023581, 
			 "HOMO_LUMO_gap": 0.24978, 
			 "cosmo_polarized_energy": -21.79, 
			 "cosmo_cavitation_energy": 22.39, 
			 "cosmo_dispersion_energy": -16.45, 
			 "cosmo_repulsion_energy": 1.38, 
			 "cosmo_total_nonelectrostatic_energy": 7.32, 
			 "SMD_solvation_energy": 1.99 
		},
		"coords": [
			{
				"x": 1.3669638144,
				"y": -1.3814639587,
				"z": -0.5569744375,
				"element": "C" 
			},
			{
				"x": 0.011779303,
				"y": -1.046280277,
				"z": 0.0796094859,
				"element": "C" 
			},
			{
				"x": -1.1276022713,
				"y": -1.8693263613,
				"z": -0.5576071768,
				"element": "C" 
			},
			{
				"x": -0.2685216763,
				"y": 0.4286521588,
				"z": -0.0088136738,
				"element": "C" 
			},
			{
				"x": 0.3870918138,
				"y": 1.3141875353,
				"z": -0.7138429869,
				"element": "N" 
			},
			{
				"x": -0.2287004285,
				"y": 2.5505959654,
				"z": -0.5420848759,
				"element": "N" 
			},
			{
				"x": -1.2321609607,
				"y": 2.3676790581,
				"z": 0.280040014,
				"element": "C" 
			},
			{
				"x": -2.0692859701,
				"y": 3.3506638688,
				"z": 0.80176028,
				"element": "N" 
			},
			{
				"x": -1.3177813141,
				"y": 1.0491403651,
				"z": 0.6469201162,
				"element": "N" 
			},
			{
				"x": 2.1767598214,
				"y": -0.8246414765,
				"z": -0.0795867672,
				"element": "H" 
			},
			{
				"x": 1.5718017146,
				"y": -2.4524046075,
				"z": -0.4613503221,
				"element": "H" 
			},
			{
				"x": 1.3701247059,
				"y": -1.1170596586,
				"z": -1.6177064379,
				"element": "H" 
			},
			{
				"x": 0.0582825293,
				"y": -1.3122834974,
				"z": 1.1469820883,
				"element": "H" 
			},
			{
				"x": -0.9357048803,
				"y": -2.9409369163,
				"z": -0.4418680744,
				"element": "H" 
			},
			{
				"x": -2.0980480082,
				"y": -1.6522053535,
				"z": -0.0981206341,
				"element": "H" 
			},
			{
				"x": -1.2066660231,
				"y": -1.6497107011,
				"z": -1.6272098496,
				"element": "H" 
			},
			{
				"x": -3.0536585713,
				"y": 3.1843287452,
				"z": 0.6161329522,
				"element": "H" 
			},
			{
				"x": -1.79904089,
				"y": 4.2524554074,
				"z": 0.4238501077,
				"element": "H" 
			},
			{
				"x": -1.9280327085,
				"y": 0.6555097037,
				"z": 1.3466701918,
				"element": "H" 
			}
		],
		 "valence_orbital": [ 
			{
				"type": "occ",
				"energy": -0.31945,
				"method": "rhf"
			},
			{
				"type": "occ",
				"energy": -0.29136,
				"method": "rhf"
			},
			{
				"type": "occ",
				"energy": -0.28792,
				"method": "rhf"
			},
			{
				"type": "occ",
				"energy": -0.24134,
				"method": "rhf"
			},
			{
				"type": "occ",
				"energy": -0.2175,
				"method": "rhf"
			},
			{
				"type": "unocc",
				"energy": 0.03228,
				"method": "rhf"
			},
			{
				"type": "unocc",
				"energy": 0.05859,
				"method": "rhf"
			},
			{
				"type": "unocc",
				"energy": 0.06627,
				"method": "rhf"
			},
			{
				"type": "unocc",
				"energy": 0.08319,
				"method": "rhf"
			},
			{
				"type": "unocc",
				"energy": 0.10867,
				"method": "rhf"
			}
		],
		"cosmo_sigma_profile": { 
			"-0.025": 0.0,
			"-0.024": 0.0,
			"-0.023": 0.0,
			"-0.022": 0.0,
			"-0.021": 0.0,
			"-0.02": 0.0,
			"-0.019": 0.0,
			"-0.018": 0.0,
			"-0.017": 0.455116435745,
			"-0.016": 1.47795033737,
			"-0.015": 1.13869782903,
			"-0.014": 1.68957571476,
			"-0.013": 3.67605455037,
			"-0.012": 4.67885464576,
			"-0.011": 4.21172039755,
			"-0.01": 3.91852624375,
			"-0.009": 3.24255399055,
			"-0.008": 2.55172605209,
			"-0.007": 3.162689794,
			"-0.006": 2.91649819871,
			"-0.005": 4.13206870384,
			"-0.004": 6.95506025148,
			"-0.003": 14.283969951,
			"-0.002": 16.5635542698,
			"-0.001": 15.5394496087,
			"0.0": 16.3339530928,
			"0.001": 17.4298960631,
			"0.002": 5.95991578842,
			"0.003": 3.71366130383,
			"0.004": 3.03783359347,
			"0.005": 2.2682953964,
			"0.006": 2.37130703966,
			"0.007": 4.20038876423,
			"0.008": 2.15962682825,
			"0.009": 2.017015538,
			"0.01": 2.30026398719,
			"0.011": 2.94428229505,
			"0.012": 2.8878287232,
			"0.013": 2.97500314944,
			"0.014": 2.75676102204,
			"0.015": 4.09533367681,
			"0.016": 3.06135683886,
			"0.017": 2.489871247,
			"0.018": 1.34196691964,
			"0.019": 0.0761871652447,
			"0.02": 0.0,
			"0.021": 0.0,
			"0.022": 0.0,
			"0.023": 0.0,
			"0.024": 0.0,
			"0.025": 0.0
		}
	}
}
