{
	 "smiles": "CC1=NN2C(N=C(Cl)C3=C2C=CC=C3)=C1Cl", 
	 "Tm": 450.15, 
	 "num_atms": 23, 
	 "gaussian": { 
		 "optdone": 1, 
		 "sigma_profile": "yes", 
		 "theory": "DFT", 
		 "functional": "B3LYP", 
		 "basiset": "6-31G**", 
		 "properties": { 
			 "R2extent": 6059.5502, 
			 "electric_dipole_moment_norm": 3.96872751773, 
			 "electric_quadrupole_moment_norm": 14.7875166519, 
			 "total_energy": -1508.02258715, 
			 "HOMO_LUMO_gap": 0.148, 
			 "cosmo_polarized_energy": -7.92, 
			 "cosmo_cavitation_energy": 31.03, 
			 "cosmo_dispersion_energy": -23.3, 
			 "cosmo_repulsion_energy": 1.8, 
			 "cosmo_total_nonelectrostatic_energy": 9.52, 
			 "SMD_solvation_energy": 2.27 
		},
		"coords": [
			{
				"x": 2.5913449626,
				"y": 1.1985059904,
				"z": 2.318328197,
				"element": "C" 
			},
			{
				"x": 1.2026165106,
				"y": 1.2403890589,
				"z": 1.7699352844,
				"element": "C" 
			},
			{
				"x": 0.7915151418,
				"y": 0.335090253,
				"z": 0.8701180898,
				"element": "N" 
			},
			{
				"x": -0.4908509584,
				"y": 0.6669243772,
				"z": 0.5992695988,
				"element": "N" 
			},
			{
				"x": -0.9223921882,
				"y": 1.7774806105,
				"z": 1.3109470145,
				"element": "C" 
			},
			{
				"x": -2.1793173756,
				"y": 2.2760854214,
				"z": 1.1849128832,
				"element": "N" 
			},
			{
				"x": -2.977622685,
				"y": 1.6762315538,
				"z": 0.3682262073,
				"element": "C" 
			},
			{
				"x": -4.6004315407,
				"y": 2.3419019962,
				"z": 0.2233027728,
				"element": "Cl" 
			},
			{
				"x": -2.6405950108,
				"y": 0.5105854484,
				"z": -0.4274456774,
				"element": "C" 
			},
			{
				"x": -1.3221126679,
				"y": 0.0014562261,
				"z": -0.2839717926,
				"element": "C" 
			},
			{
				"x": -0.8911320872,
				"y": -1.1206022628,
				"z": -1.005160173,
				"element": "C" 
			},
			{
				"x": -1.7774526784,
				"y": -1.7380723643,
				"z": -1.8730717496,
				"element": "C" 
			},
			{
				"x": -3.0881857706,
				"y": -1.2528465866,
				"z": -2.0326006061,
				"element": "C" 
			},
			{
				"x": -3.5131500477,
				"y": -0.1445245391,
				"z": -1.3198606858,
				"element": "C" 
			},
			{
				"x": 0.1735837369,
				"y": 2.1585290473,
				"z": 2.0765932236,
				"element": "C" 
			},
			{
				"x": 0.252016687,
				"y": 3.4859177633,
				"z": 3.1763899514,
				"element": "Cl" 
			},
			{
				"x": 3.1379878259,
				"y": 0.3635558266,
				"z": 1.8762402959,
				"element": "H" 
			},
			{
				"x": 2.5804781022,
				"y": 1.0780273149,
				"z": 3.4067328425,
				"element": "H" 
			},
			{
				"x": 3.127906589,
				"y": 2.1280018301,
				"z": 2.1006333643,
				"element": "H" 
			},
			{
				"x": 0.1229945205,
				"y": -1.4740186237,
				"z": -0.8640890564,
				"element": "H" 
			},
			{
				"x": -1.4525339945,
				"y": -2.6078890597,
				"z": -2.4359997238,
				"element": "H" 
			},
			{
				"x": -3.7696530256,
				"y": -1.7481705675,
				"z": -2.716462653,
				"element": "H" 
			},
			{
				"x": -4.521514046,
				"y": 0.2341412857,
				"z": -1.4382676076,
				"element": "H" 
			}
		],
		 "valence_orbital": [ 
			{
				"type": "occ",
				"energy": -0.30124,
				"method": "rhf"
			},
			{
				"type": "occ",
				"energy": -0.28791,
				"method": "rhf"
			},
			{
				"type": "occ",
				"energy": -0.28425,
				"method": "rhf"
			},
			{
				"type": "occ",
				"energy": -0.24673,
				"method": "rhf"
			},
			{
				"type": "occ",
				"energy": -0.22615,
				"method": "rhf"
			},
			{
				"type": "unocc",
				"energy": -0.07815,
				"method": "rhf"
			},
			{
				"type": "unocc",
				"energy": -0.03898,
				"method": "rhf"
			},
			{
				"type": "unocc",
				"energy": -4e-05,
				"method": "rhf"
			},
			{
				"type": "unocc",
				"energy": 0.02247,
				"method": "rhf"
			},
			{
				"type": "unocc",
				"energy": 0.03857,
				"method": "rhf"
			}
		],
		"cosmo_sigma_profile": { 
			"-0.025": 0.0,
			"-0.024": 0.0,
			"-0.023": 0.0,
			"-0.022": 0.0,
			"-0.021": 0.0,
			"-0.02": 0.0,
			"-0.019": 0.0,
			"-0.018": 0.0,
			"-0.017": 0.0,
			"-0.016": 0.0,
			"-0.015": 0.0,
			"-0.014": 0.0,
			"-0.013": 0.0,
			"-0.012": 0.0,
			"-0.011": 0.0,
			"-0.01": 0.0,
			"-0.009": 0.0,
			"-0.008": 1.18499088843,
			"-0.007": 6.62392235497,
			"-0.006": 11.3424909019,
			"-0.005": 14.129347875,
			"-0.004": 13.8111932801,
			"-0.003": 19.1955606265,
			"-0.002": 23.0471935634,
			"-0.001": 27.2580681102,
			"0.0": 26.2353702054,
			"0.001": 27.4376455456,
			"0.002": 25.5982292861,
			"0.003": 18.7008837372,
			"0.004": 15.7339021846,
			"0.005": 7.30802440677,
			"0.006": 4.03580287483,
			"0.007": 2.76834281721,
			"0.008": 3.20238696911,
			"0.009": 2.37056230479,
			"0.01": 2.01974635175,
			"0.011": 2.44007714984,
			"0.012": 0.700412486414,
			"0.013": 0.0218050639102,
			"0.014": 0.0,
			"0.015": 0.0,
			"0.016": 0.0,
			"0.017": 0.0,
			"0.018": 0.0,
			"0.019": 0.0,
			"0.02": 0.0,
			"0.021": 0.0,
			"0.022": 0.0,
			"0.023": 0.0,
			"0.024": 0.0,
			"0.025": 0.0
		}
	}
}
