{
	 "smiles": "COC1=CC2=C(C=C1)C1CCC3(C)C(CC(Cl)C3=O)C1CC2", 
	 "Tm": 453.15, 
	 "num_atms": 45, 
	 "gaussian": { 
		 "optdone": 1, 
		 "sigma_profile": "yes", 
		 "theory": "DFT", 
		 "functional": "B3LYP", 
		 "basiset": "6-31G**", 
		 "properties": { 
			 "R2extent": 9289.7909, 
			 "electric_dipole_moment_norm": 4.92017253966, 
			 "electric_quadrupole_moment_norm": 31.2795614488, 
			 "total_energy": -1348.53007861, 
			 "HOMO_LUMO_gap": 0.18277, 
			 "cosmo_polarized_energy": -14.19, 
			 "cosmo_cavitation_energy": 44.31, 
			 "cosmo_dispersion_energy": -31.09, 
			 "cosmo_repulsion_energy": 2.34, 
			 "cosmo_total_nonelectrostatic_energy": 15.56, 
			 "SMD_solvation_energy": 7.1 
		},
		"coords": [
			{
				"x": 4.728155401,
				"y": -0.4248017507,
				"z": 3.1938670352,
				"element": "C" 
			},
			{
				"x": 4.5850230138,
				"y": 0.3454804247,
				"z": 2.0124939958,
				"element": "O" 
			},
			{
				"x": 3.4596544393,
				"y": 0.1681781255,
				"z": 1.2583443132,
				"element": "C" 
			},
			{
				"x": 2.4293608692,
				"y": -0.722315552,
				"z": 1.5584467627,
				"element": "C" 
			},
			{
				"x": 1.3055056099,
				"y": -0.8376219632,
				"z": 0.722267133,
				"element": "C" 
			},
			{
				"x": 1.1945731357,
				"y": -0.0401051985,
				"z": -0.4292138286,
				"element": "C" 
			},
			{
				"x": 2.2587911796,
				"y": 0.8344998793,
				"z": -0.7223121688,
				"element": "C" 
			},
			{
				"x": 3.3716564998,
				"y": 0.9481085979,
				"z": 0.0965094593,
				"element": "C" 
			},
			{
				"x": 0.0127193628,
				"y": -0.1624637196,
				"z": -1.3973649412,
				"element": "C" 
			},
			{
				"x": -0.4053367466,
				"y": 1.19392107,
				"z": -2.0577953101,
				"element": "C" 
			},
			{
				"x": -1.9145263802,
				"y": 1.467549233,
				"z": -1.9868824739,
				"element": "C" 
			},
			{
				"x": -2.4253755601,
				"y": 1.3880371275,
				"z": -0.5348671908,
				"element": "C" 
			},
			{
				"x": -1.8845946044,
				"y": 2.5689016624,
				"z": 0.3072778019,
				"element": "C" 
			},
			{
				"x": -2.0804623669,
				"y": 0.0052938275,
				"z": 0.1243114668,
				"element": "C" 
			},
			{
				"x": -3.443976965,
				"y": -0.6723783433,
				"z": 0.4573779291,
				"element": "C" 
			},
			{
				"x": -4.4457728832,
				"y": 0.4769475478,
				"z": 0.5676984573,
				"element": "C" 
			},
			{
				"x": -6.1683531768,
				"y": -0.00227364,
				"z": 0.3788270156,
				"element": "Cl" 
			},
			{
				"x": -3.9585567621,
				"y": 1.4785008765,
				"z": -0.4907247061,
				"element": "C" 
			},
			{
				"x": -4.6482301083,
				"y": 2.2031010183,
				"z": -1.1670563444,
				"element": "O" 
			},
			{
				"x": -1.2022837564,
				"y": -0.8959869158,
				"z": -0.7739110677,
				"element": "C" 
			},
			{
				"x": -0.7198695682,
				"y": -2.1647197086,
				"z": -0.0513250075,
				"element": "C" 
			},
			{
				"x": 0.2292912836,
				"y": -1.837471859,
				"z": 1.1058865508,
				"element": "C" 
			},
			{
				"x": 5.680365393,
				"y": -0.1269399011,
				"z": 3.6358746879,
				"element": "H" 
			},
			{
				"x": 3.9204249662,
				"y": -0.2244586181,
				"z": 3.9101352719,
				"element": "H" 
			},
			{
				"x": 4.7530238146,
				"y": -1.500877384,
				"z": 2.977144787,
				"element": "H" 
			},
			{
				"x": 2.4810665447,
				"y": -1.3493437219,
				"z": 2.4423977667,
				"element": "H" 
			},
			{
				"x": 2.2211288208,
				"y": 1.4385839741,
				"z": -1.6241341483,
				"element": "H" 
			},
			{
				"x": 4.1843286216,
				"y": 1.6263483441,
				"z": -0.142143378,
				"element": "H" 
			},
			{
				"x": 0.3540013842,
				"y": -0.8198136857,
				"z": -2.2105445506,
				"element": "H" 
			},
			{
				"x": -0.0884066909,
				"y": 1.2151455995,
				"z": -3.1060118476,
				"element": "H" 
			},
			{
				"x": 0.1200575627,
				"y": 2.02007022,
				"z": -1.5708538716,
				"element": "H" 
			},
			{
				"x": -2.4618340171,
				"y": 0.7491978474,
				"z": -2.6084700731,
				"element": "H" 
			},
			{
				"x": -2.1446009858,
				"y": 2.4555712862,
				"z": -2.3977790473,
				"element": "H" 
			},
			{
				"x": -0.7949062607,
				"y": 2.5232546676,
				"z": 0.387857219,
				"element": "H" 
			},
			{
				"x": -2.2856273365,
				"y": 2.5480015045,
				"z": 1.3267295745,
				"element": "H" 
			},
			{
				"x": -2.1639216021,
				"y": 3.5251008164,
				"z": -0.1459044977,
				"element": "H" 
			},
			{
				"x": -1.5467979305,
				"y": 0.2013351971,
				"z": 1.0607619629,
				"element": "H" 
			},
			{
				"x": -3.7517163523,
				"y": -1.3244924745,
				"z": -0.3687677353,
				"element": "H" 
			},
			{
				"x": -3.412994267,
				"y": -1.2827910943,
				"z": 1.3628047215,
				"element": "H" 
			},
			{
				"x": -4.3735603649,
				"y": 0.9651544204,
				"z": 1.5462059734,
				"element": "H" 
			},
			{
				"x": -1.8365669924,
				"y": -1.2179630763,
				"z": -1.6106115887,
				"element": "H" 
			},
			{
				"x": -0.1965711767,
				"y": -2.7974395486,
				"z": -0.7796318764,
				"element": "H" 
			},
			{
				"x": -1.5695357586,
				"y": -2.7527801504,
				"z": 0.3141354829,
				"element": "H" 
			},
			{
				"x": 0.7006077628,
				"y": -2.758009311,
				"z": 1.470667472,
				"element": "H" 
			},
			{
				"x": -0.3415570518,
				"y": -1.4455356512,
				"z": 1.9599828133,
				"element": "H" 
			}
		],
		 "valence_orbital": [ 
			{
				"type": "occ",
				"energy": -0.29483,
				"method": "rhf"
			},
			{
				"type": "occ",
				"energy": -0.28985,
				"method": "rhf"
			},
			{
				"type": "occ",
				"energy": -0.24514,
				"method": "rhf"
			},
			{
				"type": "occ",
				"energy": -0.24352,
				"method": "rhf"
			},
			{
				"type": "occ",
				"energy": -0.21332,
				"method": "rhf"
			},
			{
				"type": "unocc",
				"energy": -0.03055,
				"method": "rhf"
			},
			{
				"type": "unocc",
				"energy": -0.00479,
				"method": "rhf"
			},
			{
				"type": "unocc",
				"energy": 0.01083,
				"method": "rhf"
			},
			{
				"type": "unocc",
				"energy": 0.03043,
				"method": "rhf"
			},
			{
				"type": "unocc",
				"energy": 0.07509,
				"method": "rhf"
			}
		],
		"cosmo_sigma_profile": { 
			"-0.025": 0.0,
			"-0.024": 0.0,
			"-0.023": 0.0,
			"-0.022": 0.0,
			"-0.021": 0.0,
			"-0.02": 0.0,
			"-0.019": 0.0,
			"-0.018": 0.0,
			"-0.017": 0.0,
			"-0.016": 0.0,
			"-0.015": 0.0,
			"-0.014": 0.0,
			"-0.013": 0.0,
			"-0.012": 0.0,
			"-0.011": 0.0,
			"-0.01": 0.00359775544756,
			"-0.009": 1.91545940699,
			"-0.008": 4.0049374572,
			"-0.007": 3.97467042041,
			"-0.006": 5.81898031517,
			"-0.005": 17.9798280376,
			"-0.004": 29.6263782291,
			"-0.003": 47.8667342762,
			"-0.002": 46.6259154188,
			"-0.001": 40.3001421908,
			"0.0": 31.7500278669,
			"0.001": 16.2208250687,
			"0.002": 11.1645425797,
			"0.003": 12.0250998452,
			"0.004": 14.0811950551,
			"0.005": 16.4656889579,
			"0.006": 18.0586625542,
			"0.007": 8.22162181712,
			"0.008": 3.44131619516,
			"0.009": 3.8523301903,
			"0.01": 5.27735577424,
			"0.011": 5.80971273975,
			"0.012": 2.78765128112,
			"0.013": 0.389852919997,
			"0.014": 0.0,
			"0.015": 0.0,
			"0.016": 0.0,
			"0.017": 0.0,
			"0.018": 0.0,
			"0.019": 0.0,
			"0.02": 0.0,
			"0.021": 0.0,
			"0.022": 0.0,
			"0.023": 0.0,
			"0.024": 0.0,
			"0.025": 0.0
		}
	}
}
