{
	 "smiles": "NC(=S)C1=CC(=CC=C1)N1C=CC=C1", 
	 "Tm": 384.15, 
	 "num_atms": 24, 
	 "gaussian": { 
		 "optdone": 1, 
		 "sigma_profile": "yes", 
		 "theory": "DFT", 
		 "functional": "B3LYP", 
		 "basiset": "6-31G**", 
		 "properties": { 
			 "R2extent": 6098.6546, 
			 "electric_dipole_moment_norm": 3.5274250396, 
			 "electric_quadrupole_moment_norm": 31.6227517153, 
			 "total_energy": -932.882008165, 
			 "HOMO_LUMO_gap": 0.14526, 
			 "cosmo_polarized_energy": -16.75, 
			 "cosmo_cavitation_energy": 29.93, 
			 "cosmo_dispersion_energy": -22.21, 
			 "cosmo_repulsion_energy": 1.69, 
			 "cosmo_total_nonelectrostatic_energy": 9.41, 
			 "SMD_solvation_energy": 4.85 
		},
		"coords": [
			{
				"x": 3.0081049464,
				"y": -2.2493366601,
				"z": -3.6437522626,
				"element": "N" 
			},
			{
				"x": 3.5704571991,
				"y": -2.3219228211,
				"z": -2.4151095878,
				"element": "C" 
			},
			{
				"x": 5.2248182872,
				"y": -2.3146889047,
				"z": -2.2078348834,
				"element": "S" 
			},
			{
				"x": 2.6027836671,
				"y": -2.3740598351,
				"z": -1.2806435051,
				"element": "C" 
			},
			{
				"x": 1.3610211742,
				"y": -1.7267291759,
				"z": -1.3733802066,
				"element": "C" 
			},
			{
				"x": 0.4531676048,
				"y": -1.7709333045,
				"z": -0.3095427629,
				"element": "C" 
			},
			{
				"x": 0.7773003948,
				"y": -2.4897067159,
				"z": 0.8476195757,
				"element": "C" 
			},
			{
				"x": 2.0040193797,
				"y": -3.1479988772,
				"z": 0.9313884679,
				"element": "C" 
			},
			{
				"x": 2.9217617523,
				"y": -3.0834155608,
				"z": -0.113402191,
				"element": "C" 
			},
			{
				"x": -0.7830545182,
				"y": -1.0879068672,
				"z": -0.405109725,
				"element": "N" 
			},
			{
				"x": -1.9921228416,
				"y": -1.5305440649,
				"z": 0.1075846608,
				"element": "C" 
			},
			{
				"x": -2.9566191416,
				"y": -0.5994089663,
				"z": -0.1954966111,
				"element": "C" 
			},
			{
				"x": -2.3202084503,
				"y": 0.4570625216,
				"z": -0.912123182,
				"element": "C" 
			},
			{
				"x": -0.9901560836,
				"y": 0.1313388736,
				"z": -1.0310392449,
				"element": "C" 
			},
			{
				"x": 2.0327442419,
				"y": -2.4666966898,
				"z": -3.7871056532,
				"element": "H" 
			},
			{
				"x": 3.6213057645,
				"y": -2.2362414854,
				"z": -4.4458653301,
				"element": "H" 
			},
			{
				"x": 1.1005701747,
				"y": -1.1621280012,
				"z": -2.2620742045,
				"element": "H" 
			},
			{
				"x": 0.0856056283,
				"y": -2.5039136929,
				"z": 1.6830474122,
				"element": "H" 
			},
			{
				"x": 2.2518378797,
				"y": -3.7013095923,
				"z": 1.8320784532,
				"element": "H" 
			},
			{
				"x": 3.8857449292,
				"y": -3.5740828768,
				"z": -0.0452173904,
				"element": "H" 
			},
			{
				"x": -2.0628435887,
				"y": -2.4900796096,
				"z": 0.59631272,
				"element": "H" 
			},
			{
				"x": -4.0045261236,
				"y": -0.6721026173,
				"z": 0.0596280549,
				"element": "H" 
			},
			{
				"x": -2.7831729252,
				"y": 1.3598477444,
				"z": -1.2851293435,
				"element": "H" 
			},
			{
				"x": -0.162039351,
				"y": 0.6800571795,
				"z": -1.4527332606,
				"element": "H" 
			}
		],
		 "valence_orbital": [ 
			{
				"type": "occ",
				"energy": -0.27379,
				"method": "rhf"
			},
			{
				"type": "occ",
				"energy": -0.23584,
				"method": "rhf"
			},
			{
				"type": "occ",
				"energy": -0.22893,
				"method": "rhf"
			},
			{
				"type": "occ",
				"energy": -0.21738,
				"method": "rhf"
			},
			{
				"type": "occ",
				"energy": -0.21038,
				"method": "rhf"
			},
			{
				"type": "unocc",
				"energy": -0.06512,
				"method": "rhf"
			},
			{
				"type": "unocc",
				"energy": -0.02583,
				"method": "rhf"
			},
			{
				"type": "unocc",
				"energy": 0.00871,
				"method": "rhf"
			},
			{
				"type": "unocc",
				"energy": 0.04129,
				"method": "rhf"
			},
			{
				"type": "unocc",
				"energy": 0.06747,
				"method": "rhf"
			}
		],
		"cosmo_sigma_profile": { 
			"-0.025": 0.0,
			"-0.024": 0.0,
			"-0.023": 0.0,
			"-0.022": 0.0,
			"-0.021": 0.0,
			"-0.02": 0.0,
			"-0.019": 0.0,
			"-0.018": 0.0,
			"-0.017": 0.0,
			"-0.016": 0.321780682863,
			"-0.015": 1.92351487703,
			"-0.014": 2.44612489265,
			"-0.013": 2.92339691729,
			"-0.012": 2.54095212333,
			"-0.011": 2.10701738664,
			"-0.01": 2.37021208968,
			"-0.009": 1.78963252731,
			"-0.008": 3.71726695937,
			"-0.007": 10.7167781214,
			"-0.006": 12.2474424848,
			"-0.005": 14.0095311523,
			"-0.004": 12.1222408114,
			"-0.003": 11.9358372306,
			"-0.002": 13.5911027828,
			"-0.001": 14.4461134485,
			"0.0": 15.6764251458,
			"0.001": 16.6053146633,
			"0.002": 15.1897464211,
			"0.003": 18.3601488984,
			"0.004": 11.7998900671,
			"0.005": 10.008918624,
			"0.006": 8.58978747835,
			"0.007": 11.2142057323,
			"0.008": 10.7600445157,
			"0.009": 6.71820602323,
			"0.01": 4.14661617506,
			"0.011": 3.1624577978,
			"0.012": 1.42488140097,
			"0.013": 0.0,
			"0.014": 0.0,
			"0.015": 0.0,
			"0.016": 0.0,
			"0.017": 0.0,
			"0.018": 0.0,
			"0.019": 0.0,
			"0.02": 0.0,
			"0.021": 0.0,
			"0.022": 0.0,
			"0.023": 0.0,
			"0.024": 0.0,
			"0.025": 0.0
		}
	}
}
