{
	 "smiles": "CCCCCCCC(C)C", 
	 "Tm": 198.35, 
	 "num_atms": 32, 
	 "gaussian": { 
		 "optdone": 1, 
		 "sigma_profile": "yes", 
		 "theory": "DFT", 
		 "functional": "B3LYP", 
		 "basiset": "6-31G**", 
		 "properties": { 
			 "R2extent": 3428.2097, 
			 "electric_dipole_moment_norm": 0.0694675463796, 
			 "electric_quadrupole_moment_norm": 0.461573861912, 
			 "total_energy": -394.356420885, 
			 "HOMO_LUMO_gap": 0.38057, 
			 "cosmo_polarized_energy": -0.77, 
			 "cosmo_cavitation_energy": 31.64, 
			 "cosmo_dispersion_energy": -22.1, 
			 "cosmo_repulsion_energy": 1.84, 
			 "cosmo_total_nonelectrostatic_energy": 11.38, 
			 "SMD_solvation_energy": 4.76 
		},
		"coords": [
			{
				"x": 4.4804382906,
				"y": -2.1779710892,
				"z": 0.4177703352,
				"element": "C" 
			},
			{
				"x": 4.5605579366,
				"y": -1.6218413157,
				"z": -1.0085989006,
				"element": "C" 
			},
			{
				"x": 3.2680638661,
				"y": -1.7104164689,
				"z": -1.8404222274,
				"element": "C" 
			},
			{
				"x": 2.0664066959,
				"y": -0.8895986716,
				"z": -1.320388653,
				"element": "C" 
			},
			{
				"x": 1.1171733532,
				"y": -1.6490974915,
				"z": -0.377841085,
				"element": "C" 
			},
			{
				"x": -0.1220964967,
				"y": -0.8474152804,
				"z": 0.0559036498,
				"element": "C" 
			},
			{
				"x": 0.1848911817,
				"y": 0.3534309382,
				"z": 0.9638594056,
				"element": "C" 
			},
			{
				"x": -1.0532630513,
				"y": 1.0594055249,
				"z": 1.5526215678,
				"element": "C" 
			},
			{
				"x": -0.6315209893,
				"y": 2.1138772128,
				"z": 2.5869228238,
				"element": "C" 
			},
			{
				"x": -1.9396816291,
				"y": 1.6934063285,
				"z": 0.4694047133,
				"element": "C" 
			},
			{
				"x": 3.7965407584,
				"y": -1.5975067128,
				"z": 1.0447676443,
				"element": "H" 
			},
			{
				"x": 5.4634027937,
				"y": -2.1550306632,
				"z": 0.9006732959,
				"element": "H" 
			},
			{
				"x": 4.133582322,
				"y": -3.2178982313,
				"z": 0.4212588298,
				"element": "H" 
			},
			{
				"x": 5.3517801156,
				"y": -2.1563116036,
				"z": -1.5507918944,
				"element": "H" 
			},
			{
				"x": 4.882317361,
				"y": -0.5718905822,
				"z": -0.9675914927,
				"element": "H" 
			},
			{
				"x": 2.9718753708,
				"y": -2.7643302719,
				"z": -1.943043033,
				"element": "H" 
			},
			{
				"x": 3.5105406562,
				"y": -1.3703800781,
				"z": -2.855215883,
				"element": "H" 
			},
			{
				"x": 2.4382030812,
				"y": 0.0212782948,
				"z": -0.8324048366,
				"element": "H" 
			},
			{
				"x": 1.4745944836,
				"y": -0.5450936846,
				"z": -2.1794915516,
				"element": "H" 
			},
			{
				"x": 0.782700882,
				"y": -2.5613812104,
				"z": -0.8905653009,
				"element": "H" 
			},
			{
				"x": 1.6566773129,
				"y": -1.9877047185,
				"z": 0.5153981312,
				"element": "H" 
			},
			{
				"x": -0.6600454308,
				"y": -0.5129633679,
				"z": -0.8411035611,
				"element": "H" 
			},
			{
				"x": -0.8076848846,
				"y": -1.5220960665,
				"z": 0.5874087349,
				"element": "H" 
			},
			{
				"x": 0.7836873482,
				"y": 1.0957570204,
				"z": 0.4176894522,
				"element": "H" 
			},
			{
				"x": 0.8159435555,
				"y": 0.0083455711,
				"z": 1.7956881732,
				"element": "H" 
			},
			{
				"x": -1.6523507729,
				"y": 0.2976575313,
				"z": 2.0749659944,
				"element": "H" 
			},
			{
				"x": -1.5032480054,
				"y": 2.5955118745,
				"z": 3.0433956347,
				"element": "H" 
			},
			{
				"x": -0.026216048,
				"y": 2.9004415324,
				"z": 2.1193716857,
				"element": "H" 
			},
			{
				"x": -0.0342046262,
				"y": 1.6697410386,
				"z": 3.3908938851,
				"element": "H" 
			},
			{
				"x": -1.3789240467,
				"y": 2.4438001594,
				"z": -0.1021638352,
				"element": "H" 
			},
			{
				"x": -2.804407781,
				"y": 2.1966700224,
				"z": 0.9157804157,
				"element": "H" 
			},
			{
				"x": -2.3203336031,
				"y": 0.951404459,
				"z": -0.2389521182,
				"element": "H" 
			}
		],
		 "valence_orbital": [ 
			{
				"type": "occ",
				"energy": -0.3155,
				"method": "rhf"
			},
			{
				"type": "occ",
				"energy": -0.31179,
				"method": "rhf"
			},
			{
				"type": "occ",
				"energy": -0.3051,
				"method": "rhf"
			},
			{
				"type": "occ",
				"energy": -0.30044,
				"method": "rhf"
			},
			{
				"type": "occ",
				"energy": -0.29556,
				"method": "rhf"
			},
			{
				"type": "unocc",
				"energy": 0.08501,
				"method": "rhf"
			},
			{
				"type": "unocc",
				"energy": 0.09186,
				"method": "rhf"
			},
			{
				"type": "unocc",
				"energy": 0.11039,
				"method": "rhf"
			},
			{
				"type": "unocc",
				"energy": 0.11287,
				"method": "rhf"
			},
			{
				"type": "unocc",
				"energy": 0.11901,
				"method": "rhf"
			}
		],
		"cosmo_sigma_profile": { 
			"-0.025": 0.0,
			"-0.024": 0.0,
			"-0.023": 0.0,
			"-0.022": 0.0,
			"-0.021": 0.0,
			"-0.02": 0.0,
			"-0.019": 0.0,
			"-0.018": 0.0,
			"-0.017": 0.0,
			"-0.016": 0.0,
			"-0.015": 0.0,
			"-0.014": 0.0,
			"-0.013": 0.0,
			"-0.012": 0.0,
			"-0.011": 0.0,
			"-0.01": 0.0,
			"-0.009": 0.0,
			"-0.008": 0.0,
			"-0.007": 0.0,
			"-0.006": 0.0,
			"-0.005": 0.0,
			"-0.004": 0.0,
			"-0.003": 2.33248032655,
			"-0.002": 29.3342185571,
			"-0.001": 58.9338216983,
			"0.0": 60.6628642027,
			"0.001": 57.3749248775,
			"0.002": 30.9486712975,
			"0.003": 1.87187321843,
			"0.004": 0.0,
			"0.005": 0.0,
			"0.006": 0.0,
			"0.007": 0.0,
			"0.008": 0.0,
			"0.009": 0.0,
			"0.01": 0.0,
			"0.011": 0.0,
			"0.012": 0.0,
			"0.013": 0.0,
			"0.014": 0.0,
			"0.015": 0.0,
			"0.016": 0.0,
			"0.017": 0.0,
			"0.018": 0.0,
			"0.019": 0.0,
			"0.02": 0.0,
			"0.021": 0.0,
			"0.022": 0.0,
			"0.023": 0.0,
			"0.024": 0.0,
			"0.025": 0.0
		}
	}
}
