{
	 "smiles": "CC1=CC(C)=NC(NC2=CC=CC=C2)=N1", 
	 "Tm": 369.45, 
	 "num_atms": 28, 
	 "gaussian": { 
		 "optdone": 1, 
		 "sigma_profile": "yes", 
		 "theory": "DFT", 
		 "functional": "B3LYP", 
		 "basiset": "6-31G**", 
		 "properties": { 
			 "R2extent": 4515.945, 
			 "electric_dipole_moment_norm": 1.97425488476, 
			 "electric_quadrupole_moment_norm": 9.04060432272, 
			 "total_energy": -629.398665321, 
			 "HOMO_LUMO_gap": 0.17397, 
			 "cosmo_polarized_energy": -8.94, 
			 "cosmo_cavitation_energy": 31.76, 
			 "cosmo_dispersion_energy": -23.37, 
			 "cosmo_repulsion_energy": 1.83, 
			 "cosmo_total_nonelectrostatic_energy": 10.23, 
			 "SMD_solvation_energy": 3.5 
		},
		"coords": [
			{
				"x": 3.2431439953,
				"y": 1.9517938109,
				"z": -0.4662678344,
				"element": "C" 
			},
			{
				"x": 2.02495385,
				"y": 1.090738463,
				"z": -0.6808613044,
				"element": "C" 
			},
			{
				"x": 1.2793546732,
				"y": 1.1589314606,
				"z": -1.8652458789,
				"element": "C" 
			},
			{
				"x": 0.1668159176,
				"y": 0.3246980015,
				"z": -1.9766562946,
				"element": "C" 
			},
			{
				"x": -0.6969203061,
				"y": 0.3266375965,
				"z": -3.2122862374,
				"element": "C" 
			},
			{
				"x": -0.1844099638,
				"y": -0.5158504154,
				"z": -0.9906482962,
				"element": "N" 
			},
			{
				"x": 0.5923130941,
				"y": -0.5076535155,
				"z": 0.1030656097,
				"element": "C" 
			},
			{
				"x": 0.3087438774,
				"y": -1.3356343762,
				"z": 1.1633649257,
				"element": "N" 
			},
			{
				"x": -0.7023115961,
				"y": -2.2802487802,
				"z": 1.3922274024,
				"element": "C" 
			},
			{
				"x": -1.7244687992,
				"y": -2.5880105419,
				"z": 0.4787915271,
				"element": "C" 
			},
			{
				"x": -2.6800064632,
				"y": -3.547930224,
				"z": 0.8138381312,
				"element": "C" 
			},
			{
				"x": -2.6459741351,
				"y": -4.2134112963,
				"z": 2.0394556777,
				"element": "C" 
			},
			{
				"x": -1.6290089538,
				"y": -3.9060587119,
				"z": 2.9462632278,
				"element": "C" 
			},
			{
				"x": -0.6681700281,
				"y": -2.9519036943,
				"z": 2.6289525129,
				"element": "C" 
			},
			{
				"x": 1.6864636795,
				"y": 0.2594447683,
				"z": 0.3069856494,
				"element": "N" 
			},
			{
				"x": 3.6762960653,
				"y": 1.7470756189,
				"z": 0.5138333923,
				"element": "H" 
			},
			{
				"x": 3.9979403294,
				"y": 1.7584699487,
				"z": -1.2365877151,
				"element": "H" 
			},
			{
				"x": 2.9847979394,
				"y": 3.0148670155,
				"z": -0.5264100921,
				"element": "H" 
			},
			{
				"x": 1.5571777762,
				"y": 1.8357830113,
				"z": -2.6663371478,
				"element": "H" 
			},
			{
				"x": -1.1227720041,
				"y": 1.3205081122,
				"z": -3.3888303393,
				"element": "H" 
			},
			{
				"x": -0.1095626828,
				"y": 0.0641476867,
				"z": -4.0990800969,
				"element": "H" 
			},
			{
				"x": -1.5106857666,
				"y": -0.3915614146,
				"z": -3.1027424127,
				"element": "H" 
			},
			{
				"x": 0.9795279838,
				"y": -1.2167791274,
				"z": 1.9100583377,
				"element": "H" 
			},
			{
				"x": -1.7546660407,
				"y": -2.0751407471,
				"z": -0.471364852,
				"element": "H" 
			},
			{
				"x": -3.4644286004,
				"y": -3.7749805658,
				"z": 0.0967173476,
				"element": "H" 
			},
			{
				"x": -3.396916648,
				"y": -4.9578821181,
				"z": 2.2852604553,
				"element": "H" 
			},
			{
				"x": -1.5804602309,
				"y": -4.4102927644,
				"z": 3.9073915276,
				"element": "H" 
			},
			{
				"x": 0.1201330374,
				"y": -2.7192572012,
				"z": 3.3417127777,
				"element": "H" 
			}
		],
		 "valence_orbital": [ 
			{
				"type": "occ",
				"energy": -0.29516,
				"method": "rhf"
			},
			{
				"type": "occ",
				"energy": -0.25829,
				"method": "rhf"
			},
			{
				"type": "occ",
				"energy": -0.24407,
				"method": "rhf"
			},
			{
				"type": "occ",
				"energy": -0.24179,
				"method": "rhf"
			},
			{
				"type": "occ",
				"energy": -0.19691,
				"method": "rhf"
			},
			{
				"type": "unocc",
				"energy": -0.02294,
				"method": "rhf"
			},
			{
				"type": "unocc",
				"energy": -0.01487,
				"method": "rhf"
			},
			{
				"type": "unocc",
				"energy": 0.00841,
				"method": "rhf"
			},
			{
				"type": "unocc",
				"energy": 0.03485,
				"method": "rhf"
			},
			{
				"type": "unocc",
				"energy": 0.09181,
				"method": "rhf"
			}
		],
		"cosmo_sigma_profile": { 
			"-0.025": 0.0,
			"-0.024": 0.0,
			"-0.023": 0.0,
			"-0.022": 0.0,
			"-0.021": 0.0,
			"-0.02": 0.0,
			"-0.019": 0.0,
			"-0.018": 0.0,
			"-0.017": 0.0,
			"-0.016": 0.0,
			"-0.015": 0.0,
			"-0.014": 0.344559596651,
			"-0.013": 0.781841497743,
			"-0.012": 1.27986019824,
			"-0.011": 0.75900925951,
			"-0.01": 1.49487749767,
			"-0.009": 0.778541035331,
			"-0.008": 1.16916018064,
			"-0.007": 1.39660992797,
			"-0.006": 5.59502434929,
			"-0.005": 17.3796765105,
			"-0.004": 21.1153856287,
			"-0.003": 25.6488975154,
			"-0.002": 20.4682113892,
			"-0.001": 23.771757319,
			"0.0": 22.5414190281,
			"0.001": 18.605656714,
			"0.002": 18.0883123282,
			"0.003": 16.921532222,
			"0.004": 13.9121713282,
			"0.005": 15.1796288095,
			"0.006": 12.4210924635,
			"0.007": 6.6870691625,
			"0.008": 1.64715308615,
			"0.009": 1.7903095002,
			"0.01": 0.842219804295,
			"0.011": 1.09104126023,
			"0.012": 0.951590140729,
			"0.013": 0.567474283558,
			"0.014": 0.0,
			"0.015": 0.0,
			"0.016": 0.0,
			"0.017": 0.0,
			"0.018": 0.0,
			"0.019": 0.0,
			"0.02": 0.0,
			"0.021": 0.0,
			"0.022": 0.0,
			"0.023": 0.0,
			"0.024": 0.0,
			"0.025": 0.0
		}
	}
}
