{
	 "smiles": "CC1=C(C(O)=O)C2=C(N1)C=CC(Cl)=C2", 
	 "Tm": 467.15, 
	 "num_atms": 22, 
	 "gaussian": { 
		 "optdone": 1, 
		 "sigma_profile": "yes", 
		 "theory": "DFT", 
		 "functional": "B3LYP", 
		 "basiset": "6-31G**", 
		 "properties": { 
			 "R2extent": 4271.3613, 
			 "electric_dipole_moment_norm": 6.36959349252, 
			 "electric_quadrupole_moment_norm": 13.8435722337, 
			 "total_energy": -1051.31559705, 
			 "HOMO_LUMO_gap": 0.18607, 
			 "cosmo_polarized_energy": -16.82, 
			 "cosmo_cavitation_energy": 28.23, 
			 "cosmo_dispersion_energy": -21.04, 
			 "cosmo_repulsion_energy": 1.65, 
			 "cosmo_total_nonelectrostatic_energy": 8.83, 
			 "SMD_solvation_energy": 5.29 
		},
		"coords": [
			{
				"x": 1.089396829,
				"y": -2.705368745,
				"z": -0.278986271,
				"element": "C" 
			},
			{
				"x": 0.7865175408,
				"y": -1.451453274,
				"z": 0.478120243,
				"element": "C" 
			},
			{
				"x": 0.7589799689,
				"y": -0.1192484146,
				"z": 0.0767870194,
				"element": "C" 
			},
			{
				"x": 1.0299486314,
				"y": 0.4270487368,
				"z": -1.2448495937,
				"element": "C" 
			},
			{
				"x": 1.3464623748,
				"y": -0.5230851022,
				"z": -2.1743529738,
				"element": "O" 
			},
			{
				"x": 0.9910237313,
				"y": 1.6096036352,
				"z": -1.5395090484,
				"element": "O" 
			},
			{
				"x": 0.4022202983,
				"y": 0.6723079332,
				"z": 1.2323625765,
				"element": "C" 
			},
			{
				"x": 0.2248770199,
				"y": -0.2311280579,
				"z": 2.3073311184,
				"element": "C" 
			},
			{
				"x": 0.4661006793,
				"y": -1.5038777664,
				"z": 1.8108406548,
				"element": "N" 
			},
			{
				"x": -0.1282744108,
				"y": 0.1896891426,
				"z": 3.5905460165,
				"element": "C" 
			},
			{
				"x": -0.3066127327,
				"y": 1.5536816272,
				"z": 3.793866205,
				"element": "C" 
			},
			{
				"x": -0.1310096179,
				"y": 2.4547269524,
				"z": 2.7270695002,
				"element": "C" 
			},
			{
				"x": -0.3701521497,
				"y": 4.1731825067,
				"z": 3.0423515013,
				"element": "Cl" 
			},
			{
				"x": 0.2200099919,
				"y": 2.0472982033,
				"z": 1.4474618301,
				"element": "C" 
			},
			{
				"x": 2.0964609123,
				"y": -2.6719451084,
				"z": -0.7033536612,
				"element": "H" 
			},
			{
				"x": 0.3997766265,
				"y": -2.8312798111,
				"z": -1.1179961498,
				"element": "H" 
			},
			{
				"x": 1.0131662846,
				"y": -3.582734429,
				"z": 0.3701997677,
				"element": "H" 
			},
			{
				"x": 1.5008194937,
				"y": -0.0290151402,
				"z": -2.9964358762,
				"element": "H" 
			},
			{
				"x": 0.4155879407,
				"y": -2.3564991634,
				"z": 2.3466829245,
				"element": "H" 
			},
			{
				"x": -0.2612669934,
				"y": -0.5141998505,
				"z": 4.4066983788,
				"element": "H" 
			},
			{
				"x": -0.5811922905,
				"y": 1.9314074004,
				"z": 4.7719514452,
				"element": "H" 
			},
			{
				"x": 0.3514598716,
				"y": 2.7525887249,
				"z": 0.6370143925,
				"element": "H" 
			}
		],
		 "valence_orbital": [ 
			{
				"type": "occ",
				"energy": -0.30096,
				"method": "rhf"
			},
			{
				"type": "occ",
				"energy": -0.28514,
				"method": "rhf"
			},
			{
				"type": "occ",
				"energy": -0.26921,
				"method": "rhf"
			},
			{
				"type": "occ",
				"energy": -0.22563,
				"method": "rhf"
			},
			{
				"type": "occ",
				"energy": -0.21972,
				"method": "rhf"
			},
			{
				"type": "unocc",
				"energy": -0.03365,
				"method": "rhf"
			},
			{
				"type": "unocc",
				"energy": -0.00361,
				"method": "rhf"
			},
			{
				"type": "unocc",
				"energy": 0.01493,
				"method": "rhf"
			},
			{
				"type": "unocc",
				"energy": 0.04,
				"method": "rhf"
			},
			{
				"type": "unocc",
				"energy": 0.06084,
				"method": "rhf"
			}
		],
		"cosmo_sigma_profile": { 
			"-0.025": 0.0,
			"-0.024": 0.0,
			"-0.023": 0.0,
			"-0.022": 0.0,
			"-0.021": 0.0,
			"-0.02": 0.0,
			"-0.019": 0.0,
			"-0.018": 0.0698423118404,
			"-0.017": 1.23799255828,
			"-0.016": 2.25389487037,
			"-0.015": 2.14962354081,
			"-0.014": 2.4807826287,
			"-0.013": 1.9547475405,
			"-0.012": 2.37682425104,
			"-0.011": 2.08014563242,
			"-0.01": 1.84643671273,
			"-0.009": 2.22826058134,
			"-0.008": 3.01203914221,
			"-0.007": 5.28191617272,
			"-0.006": 6.57318586661,
			"-0.005": 9.51004684321,
			"-0.004": 9.45745655619,
			"-0.003": 10.363403489,
			"-0.002": 14.9137736674,
			"-0.001": 14.5407546581,
			"0.0": 13.6998721898,
			"0.001": 15.4146281576,
			"0.002": 19.6610187384,
			"0.003": 23.9594141125,
			"0.004": 25.1961254438,
			"0.005": 16.3745874695,
			"0.006": 6.2283789784,
			"0.007": 2.29183798574,
			"0.008": 1.50928206782,
			"0.009": 1.72874932694,
			"0.01": 1.30857037897,
			"0.011": 2.2858236685,
			"0.012": 3.67901715322,
			"0.013": 2.11516784404,
			"0.014": 0.0187768975283,
			"0.015": 0.0,
			"0.016": 0.0,
			"0.017": 0.0,
			"0.018": 0.0,
			"0.019": 0.0,
			"0.02": 0.0,
			"0.021": 0.0,
			"0.022": 0.0,
			"0.023": 0.0,
			"0.024": 0.0,
			"0.025": 0.0
		}
	}
}
