{
	 "smiles": "ClC1=CC(Cl)=C(C=C1)N=C=O", 
	 "Tm": 332.65, 
	 "num_atms": 14, 
	 "gaussian": { 
		 "optdone": 1, 
		 "sigma_profile": "yes", 
		 "theory": "DFT", 
		 "functional": "B3LYP", 
		 "basiset": "6-31G**", 
		 "properties": { 
			 "R2extent": 3894.554, 
			 "electric_dipole_moment_norm": 1.75038691151, 
			 "electric_quadrupole_moment_norm": 10.1998797929, 
			 "total_energy": -1318.90992074, 
			 "HOMO_LUMO_gap": 0.2012, 
			 "cosmo_polarized_energy": -4.57, 
			 "cosmo_cavitation_energy": 23.53, 
			 "cosmo_dispersion_energy": -17.39, 
			 "cosmo_repulsion_energy": 1.4, 
			 "cosmo_total_nonelectrostatic_energy": 7.54, 
			 "SMD_solvation_energy": 5.58 
		},
		"coords": [
			{
				"x": -2.1582258809,
				"y": 0.9445915127,
				"z": 2.3904986672,
				"element": "Cl" 
			},
			{
				"x": -1.3480145369,
				"y": -0.1017757163,
				"z": 1.2411280883,
				"element": "C" 
			},
			{
				"x": -1.5283586536,
				"y": -1.4802990893,
				"z": 1.3333084667,
				"element": "C" 
			},
			{
				"x": -0.8845650449,
				"y": -2.3124185522,
				"z": 0.4199197935,
				"element": "C" 
			},
			{
				"x": -1.1173759222,
				"y": -4.0408108437,
				"z": 0.5445115266,
				"element": "Cl" 
			},
			{
				"x": -0.0575370411,
				"y": -1.78268939,
				"z": -0.5910936187,
				"element": "C" 
			},
			{
				"x": 0.1003100247,
				"y": -0.3900875105,
				"z": -0.6527189596,
				"element": "C" 
			},
			{
				"x": -0.5357090468,
				"y": 0.4522360157,
				"z": 0.2516928678,
				"element": "C" 
			},
			{
				"x": 0.6083797625,
				"y": -2.5564905006,
				"z": -1.5274816935,
				"element": "N" 
			},
			{
				"x": 0.7628380628,
				"y": -3.7177570633,
				"z": -1.8451085084,
				"element": "C" 
			},
			{
				"x": 1.0160474984,
				"y": -4.7794544636,
				"z": -2.280272948,
				"element": "O" 
			},
			{
				"x": -2.1597697674,
				"y": -1.9065253103,
				"z": 2.1030436838,
				"element": "H" 
			},
			{
				"x": 0.7367683693,
				"y": 0.0164708047,
				"z": -1.4308304964,
				"element": "H" 
			},
			{
				"x": -0.4038878238,
				"y": 1.5262101067,
				"z": 0.1912031307,
				"element": "H" 
			}
		],
		 "valence_orbital": [ 
			{
				"type": "occ",
				"energy": -0.32745,
				"method": "rhf"
			},
			{
				"type": "occ",
				"energy": -0.3221,
				"method": "rhf"
			},
			{
				"type": "occ",
				"energy": -0.31863,
				"method": "rhf"
			},
			{
				"type": "occ",
				"energy": -0.27567,
				"method": "rhf"
			},
			{
				"type": "occ",
				"energy": -0.2455,
				"method": "rhf"
			},
			{
				"type": "unocc",
				"energy": -0.0443,
				"method": "rhf"
			},
			{
				"type": "unocc",
				"energy": -0.0371,
				"method": "rhf"
			},
			{
				"type": "unocc",
				"energy": -0.01153,
				"method": "rhf"
			},
			{
				"type": "unocc",
				"energy": 0.01482,
				"method": "rhf"
			},
			{
				"type": "unocc",
				"energy": 0.04079,
				"method": "rhf"
			}
		],
		"cosmo_sigma_profile": { 
			"-0.025": 0.0,
			"-0.024": 0.0,
			"-0.023": 0.0,
			"-0.022": 0.0,
			"-0.021": 0.0,
			"-0.02": 0.0,
			"-0.019": 0.0,
			"-0.018": 0.0,
			"-0.017": 0.0,
			"-0.016": 0.0,
			"-0.015": 0.0,
			"-0.014": 0.0,
			"-0.013": 0.0,
			"-0.012": 0.0,
			"-0.011": 0.0,
			"-0.01": 0.0,
			"-0.009": 1.16239803233,
			"-0.008": 4.94107170843,
			"-0.007": 4.76395069468,
			"-0.006": 5.72016597875,
			"-0.005": 5.58002104715,
			"-0.004": 8.97840712184,
			"-0.003": 12.9497202622,
			"-0.002": 14.9880523762,
			"-0.001": 16.6386671659,
			"0.0": 27.9077406427,
			"0.001": 27.6746766985,
			"0.002": 18.319498571,
			"0.003": 16.5687247824,
			"0.004": 14.8354816645,
			"0.005": 3.2882669248,
			"0.006": 3.83779679608,
			"0.007": 7.21197763027,
			"0.008": 0.265096256253,
			"0.009": 0.0,
			"0.01": 0.0,
			"0.011": 0.0,
			"0.012": 0.0,
			"0.013": 0.0,
			"0.014": 0.0,
			"0.015": 0.0,
			"0.016": 0.0,
			"0.017": 0.0,
			"0.018": 0.0,
			"0.019": 0.0,
			"0.02": 0.0,
			"0.021": 0.0,
			"0.022": 0.0,
			"0.023": 0.0,
			"0.024": 0.0,
			"0.025": 0.0
		}
	}
}
