{
	 "smiles": "CC1=CC=C(C=C1)C1=CC(=NC(=C1)C1=CC=CC=N1)C1=CC=CC=N1", 
	 "Tm": 442.15, 
	 "num_atms": 42, 
	 "gaussian": { 
		 "optdone": 1, 
		 "sigma_profile": "yes", 
		 "theory": "DFT", 
		 "functional": "B3LYP", 
		 "basiset": "6-31G**", 
		 "properties": { 
			 "R2extent": 11367.372, 
			 "electric_dipole_moment_norm": 0.953097418945, 
			 "electric_quadrupole_moment_norm": 20.4214842411, 
			 "total_energy": -1012.8695767, 
			 "HOMO_LUMO_gap": 0.17284, 
			 "cosmo_polarized_energy": -11.31, 
			 "cosmo_cavitation_energy": 46.81, 
			 "cosmo_dispersion_energy": -33.54, 
			 "cosmo_repulsion_energy": 2.49, 
			 "cosmo_total_nonelectrostatic_energy": 15.76, 
			 "SMD_solvation_energy": 4.93 
		},
		"coords": [
			{
				"x": 2.588711726,
				"y": 6.1755143128,
				"z": -1.0313561375,
				"element": "C" 
			},
			{
				"x": 2.0112215421,
				"y": 4.7911719299,
				"z": -0.8571225228,
				"element": "C" 
			},
			{
				"x": 1.6977734373,
				"y": 3.9929465162,
				"z": -1.9653150884,
				"element": "C" 
			},
			{
				"x": 1.1907267336,
				"y": 2.7055294897,
				"z": -1.8077116411,
				"element": "C" 
			},
			{
				"x": 0.9784054951,
				"y": 2.1645421099,
				"z": -0.5292716087,
				"element": "C" 
			},
			{
				"x": 1.2906339756,
				"y": 2.9645185395,
				"z": 0.5819441434,
				"element": "C" 
			},
			{
				"x": 1.7936371499,
				"y": 4.2527605595,
				"z": 0.4181574352,
				"element": "C" 
			},
			{
				"x": 0.4373621862,
				"y": 0.7936525247,
				"z": -0.3578031291,
				"element": "C" 
			},
			{
				"x": 0.8335650642,
				"y": -0.0177885706,
				"z": 0.7133100961,
				"element": "C" 
			},
			{
				"x": 0.2977014943,
				"y": -1.3045749377,
				"z": 0.8404479413,
				"element": "C" 
			},
			{
				"x": -0.5883975799,
				"y": -1.8094079097,
				"z": -0.0319280573,
				"element": "N" 
			},
			{
				"x": -0.9731973409,
				"y": -1.042096311,
				"z": -1.0635178761,
				"element": "C" 
			},
			{
				"x": -0.4902019972,
				"y": 0.2568556764,
				"z": -1.2600734769,
				"element": "C" 
			},
			{
				"x": -1.9629361217,
				"y": -1.6279450462,
				"z": -2.0140309252,
				"element": "C" 
			},
			{
				"x": -2.474647178,
				"y": -2.9193219084,
				"z": -1.8181554765,
				"element": "C" 
			},
			{
				"x": -3.3950734434,
				"y": -3.4231204809,
				"z": -2.7319111211,
				"element": "C" 
			},
			{
				"x": -3.7802621168,
				"y": -2.6291975503,
				"z": -3.8123827446,
				"element": "C" 
			},
			{
				"x": -3.2171447649,
				"y": -1.3567515637,
				"z": -3.9234961227,
				"element": "C" 
			},
			{
				"x": -2.3326790698,
				"y": -0.8603271694,
				"z": -3.05538493,
				"element": "N" 
			},
			{
				"x": 0.7106820781,
				"y": -2.1822947001,
				"z": 1.9741626316,
				"element": "C" 
			},
			{
				"x": 0.2009299887,
				"y": -3.4828689884,
				"z": 2.1027796551,
				"element": "C" 
			},
			{
				"x": 0.6151034299,
				"y": -4.2637091299,
				"z": 3.1773456718,
				"element": "C" 
			},
			{
				"x": 1.5235909521,
				"y": -3.7299003018,
				"z": 4.0915716786,
				"element": "C" 
			},
			{
				"x": 1.9756880495,
				"y": -2.4262581057,
				"z": 3.8801839148,
				"element": "C" 
			},
			{
				"x": 1.5868034992,
				"y": -1.665078241,
				"z": 2.8546498537,
				"element": "N" 
			},
			{
				"x": 2.3139785445,
				"y": 6.8315786314,
				"z": -0.1998615005,
				"element": "H" 
			},
			{
				"x": 3.6849937193,
				"y": 6.1449968323,
				"z": -1.0723706709,
				"element": "H" 
			},
			{
				"x": 2.2426049015,
				"y": 6.640366273,
				"z": -1.9594776543,
				"element": "H" 
			},
			{
				"x": 1.8574961183,
				"y": 4.3835012147,
				"z": -2.9674769983,
				"element": "H" 
			},
			{
				"x": 0.9757138525,
				"y": 2.1052606523,
				"z": -2.6866725815,
				"element": "H" 
			},
			{
				"x": 1.11145765,
				"y": 2.5848035587,
				"z": 1.5833667628,
				"element": "H" 
			},
			{
				"x": 2.0136456434,
				"y": 4.8543171646,
				"z": 1.2968326851,
				"element": "H" 
			},
			{
				"x": 1.5638944658,
				"y": 0.3124640134,
				"z": 1.4410457667,
				"element": "H" 
			},
			{
				"x": -0.8660774598,
				"y": 0.8265368442,
				"z": -2.1004372331,
				"element": "H" 
			},
			{
				"x": -2.1428916042,
				"y": -3.4932411364,
				"z": -0.9621228232,
				"element": "H" 
			},
			{
				"x": -3.8065378106,
				"y": -4.420371724,
				"z": -2.6028814309,
				"element": "H" 
			},
			{
				"x": -4.4953741007,
				"y": -2.9809693673,
				"z": -4.5491979417,
				"element": "H" 
			},
			{
				"x": -3.4909487948,
				"y": -0.7049521553,
				"z": -4.7518320131,
				"element": "H" 
			},
			{
				"x": -0.5012695888,
				"y": -3.8489433869,
				"z": 1.3644484916,
				"element": "H" 
			},
			{
				"x": 0.2352790039,
				"y": -5.2742685774,
				"z": 3.2996744959,
				"element": "H" 
			},
			{
				"x": 1.8743321824,
				"y": -4.3027378621,
				"z": 4.9441353411,
				"element": "H" 
			},
			{
				"x": 2.6854060884,
				"y": -1.9719917189,
				"z": 4.5700351406,
				"element": "H" 
			}
		],
		 "valence_orbital": [ 
			{
				"type": "occ",
				"energy": -0.25194,
				"method": "rhf"
			},
			{
				"type": "occ",
				"energy": -0.24983,
				"method": "rhf"
			},
			{
				"type": "occ",
				"energy": -0.24433,
				"method": "rhf"
			},
			{
				"type": "occ",
				"energy": -0.22712,
				"method": "rhf"
			},
			{
				"type": "occ",
				"energy": -0.22368,
				"method": "rhf"
			},
			{
				"type": "unocc",
				"energy": -0.05084,
				"method": "rhf"
			},
			{
				"type": "unocc",
				"energy": -0.04937,
				"method": "rhf"
			},
			{
				"type": "unocc",
				"energy": -0.02114,
				"method": "rhf"
			},
			{
				"type": "unocc",
				"energy": -0.01377,
				"method": "rhf"
			},
			{
				"type": "unocc",
				"energy": -0.00846,
				"method": "rhf"
			}
		],
		"cosmo_sigma_profile": { 
			"-0.025": 0.0,
			"-0.024": 0.0,
			"-0.023": 0.0,
			"-0.022": 0.0,
			"-0.021": 0.0,
			"-0.02": 0.0,
			"-0.019": 0.0,
			"-0.018": 0.0,
			"-0.017": 0.0,
			"-0.016": 0.0,
			"-0.015": 0.0,
			"-0.014": 0.0,
			"-0.013": 0.0,
			"-0.012": 0.0,
			"-0.011": 0.0,
			"-0.01": 0.0,
			"-0.009": 0.0,
			"-0.008": 0.265038377488,
			"-0.007": 7.51514437789,
			"-0.006": 19.2083341239,
			"-0.005": 29.134727959,
			"-0.004": 31.0492190914,
			"-0.003": 25.6036653138,
			"-0.002": 23.950009248,
			"-0.001": 26.4473577186,
			"0.0": 26.5507261033,
			"0.001": 39.9896714121,
			"0.002": 57.3522320971,
			"0.003": 33.5152121526,
			"0.004": 15.1833640378,
			"0.005": 17.5122090677,
			"0.006": 7.44370378608,
			"0.007": 4.53399579559,
			"0.008": 3.56147066467,
			"0.009": 2.72904058417,
			"0.01": 2.18177954796,
			"0.011": 2.32121227951,
			"0.012": 0.821600814215,
			"0.013": 0.0,
			"0.014": 0.0,
			"0.015": 0.0,
			"0.016": 0.0,
			"0.017": 0.0,
			"0.018": 0.0,
			"0.019": 0.0,
			"0.02": 0.0,
			"0.021": 0.0,
			"0.022": 0.0,
			"0.023": 0.0,
			"0.024": 0.0,
			"0.025": 0.0
		}
	}
}
