{
	 "smiles": "CC1=NOC(=N1)C1=CC(Cl)=NC=C1", 
	 "Tm": 339.15, 
	 "num_atms": 19, 
	 "gaussian": { 
		 "optdone": 1, 
		 "sigma_profile": "yes", 
		 "theory": "DFT", 
		 "functional": "B3LYP", 
		 "basiset": "6-31G**", 
		 "properties": { 
			 "R2extent": 3962.2591, 
			 "electric_dipole_moment_norm": 2.24151124467, 
			 "electric_quadrupole_moment_norm": 15.2097611904, 
			 "total_energy": -1008.10164931, 
			 "HOMO_LUMO_gap": 0.18607, 
			 "cosmo_polarized_energy": -9.09, 
			 "cosmo_cavitation_energy": 26.49, 
			 "cosmo_dispersion_energy": -19.86, 
			 "cosmo_repulsion_energy": 1.57, 
			 "cosmo_total_nonelectrostatic_energy": 8.2, 
			 "SMD_solvation_energy": 1.29 
		},
		"coords": [
			{
				"x": 4.9276656369,
				"y": 0.1344873402,
				"z": 0.2313662854,
				"element": "C" 
			},
			{
				"x": 3.4758889546,
				"y": 0.381625042,
				"z": -0.0331576159,
				"element": "C" 
			},
			{
				"x": 3.0349697813,
				"y": 0.8446446659,
				"z": -1.1809123738,
				"element": "N" 
			},
			{
				"x": 1.6466161592,
				"y": 0.920090522,
				"z": -0.9916080556,
				"element": "O" 
			},
			{
				"x": 1.4061255104,
				"y": 0.4908323408,
				"z": 0.2590417097,
				"element": "C" 
			},
			{
				"x": 2.4896955049,
				"y": 0.1454798961,
				"z": 0.8992604022,
				"element": "N" 
			},
			{
				"x": 0.0255852725,
				"y": 0.4587463823,
				"z": 0.7428469473,
				"element": "C" 
			},
			{
				"x": -0.2326318254,
				"y": 0.0131672521,
				"z": 2.0431953144,
				"element": "C" 
			},
			{
				"x": -1.5642984767,
				"y": 0.0009612182,
				"z": 2.4587342603,
				"element": "C" 
			},
			{
				"x": -1.9252672036,
				"y": -0.5535584044,
				"z": 4.0888066778,
				"element": "Cl" 
			},
			{
				"x": -2.5925332689,
				"y": 0.3772806332,
				"z": 1.717854846,
				"element": "N" 
			},
			{
				"x": -2.3289453328,
				"y": 0.801886663,
				"z": 0.4735646618,
				"element": "C" 
			},
			{
				"x": -1.047204111,
				"y": 0.8637799,
				"z": -0.064314681,
				"element": "C" 
			},
			{
				"x": 5.3320559573,
				"y": -0.5949789972,
				"z": -0.4757668619,
				"element": "H" 
			},
			{
				"x": 5.503964297,
				"y": 1.0576303652,
				"z": 0.1247031367,
				"element": "H" 
			},
			{
				"x": 5.0502685064,
				"y": -0.2467704159,
				"z": 1.2455540049,
				"element": "H" 
			},
			{
				"x": 0.5730191872,
				"y": -0.306372114,
				"z": 2.6917358526,
				"element": "H" 
			},
			{
				"x": -3.1896923626,
				"y": 1.1061123561,
				"z": -0.1170184609,
				"element": "H" 
			},
			{
				"x": -0.8832821867,
				"y": 1.2144553544,
				"z": -1.07638605,
				"element": "H" 
			}
		],
		 "valence_orbital": [ 
			{
				"type": "occ",
				"energy": -0.32116,
				"method": "rhf"
			},
			{
				"type": "occ",
				"energy": -0.31034,
				"method": "rhf"
			},
			{
				"type": "occ",
				"energy": -0.28762,
				"method": "rhf"
			},
			{
				"type": "occ",
				"energy": -0.27976,
				"method": "rhf"
			},
			{
				"type": "occ",
				"energy": -0.2724,
				"method": "rhf"
			},
			{
				"type": "unocc",
				"energy": -0.08633,
				"method": "rhf"
			},
			{
				"type": "unocc",
				"energy": -0.03794,
				"method": "rhf"
			},
			{
				"type": "unocc",
				"energy": -0.00458,
				"method": "rhf"
			},
			{
				"type": "unocc",
				"energy": 0.02676,
				"method": "rhf"
			},
			{
				"type": "unocc",
				"energy": 0.04274,
				"method": "rhf"
			}
		],
		"cosmo_sigma_profile": { 
			"-0.025": 0.0,
			"-0.024": 0.0,
			"-0.023": 0.0,
			"-0.022": 0.0,
			"-0.021": 0.0,
			"-0.02": 0.0,
			"-0.019": 0.0,
			"-0.018": 0.0,
			"-0.017": 0.0,
			"-0.016": 0.0,
			"-0.015": 0.0,
			"-0.014": 0.0,
			"-0.013": 0.0,
			"-0.012": 0.0,
			"-0.011": 0.0,
			"-0.01": 0.0,
			"-0.009": 0.673051839616,
			"-0.008": 5.15915965312,
			"-0.007": 5.96091891132,
			"-0.006": 10.1733614454,
			"-0.005": 12.2346778372,
			"-0.004": 15.7378360556,
			"-0.003": 19.7556944089,
			"-0.002": 27.4882826709,
			"-0.001": 23.0838756844,
			"0.0": 15.4853686441,
			"0.001": 8.77315713507,
			"0.002": 10.2632421119,
			"0.003": 11.2232591748,
			"0.004": 13.6059101684,
			"0.005": 8.00729001764,
			"0.006": 6.68507815356,
			"0.007": 3.88935614994,
			"0.008": 3.8105720305,
			"0.009": 3.52756829702,
			"0.01": 3.06036488154,
			"0.011": 3.30568727896,
			"0.012": 2.49883766341,
			"0.013": 1.54500954562,
			"0.014": 0.296802033134,
			"0.015": 0.0,
			"0.016": 0.0,
			"0.017": 0.0,
			"0.018": 0.0,
			"0.019": 0.0,
			"0.02": 0.0,
			"0.021": 0.0,
			"0.022": 0.0,
			"0.023": 0.0,
			"0.024": 0.0,
			"0.025": 0.0
		}
	}
}
