{
	 "smiles": "OC(=O)C1=CC=C(NC(=O)C2=CC=CC=C2)C=C1", 
	 "Tm": 571.15, 
	 "num_atms": 29, 
	 "gaussian": { 
		 "optdone": 1, 
		 "sigma_profile": "yes", 
		 "theory": "DFT", 
		 "functional": "B3LYP", 
		 "basiset": "6-31G**", 
		 "properties": { 
			 "R2extent": 5938.2802, 
			 "electric_dipole_moment_norm": 1.82959265685, 
			 "electric_quadrupole_moment_norm": 22.7348078593, 
			 "total_energy": -820.576606497, 
			 "HOMO_LUMO_gap": 0.17607, 
			 "cosmo_polarized_energy": -16.77, 
			 "cosmo_cavitation_energy": 34.35, 
			 "cosmo_dispersion_energy": -24.37, 
			 "cosmo_repulsion_energy": 1.88, 
			 "cosmo_total_nonelectrostatic_energy": 11.86, 
			 "SMD_solvation_energy": 7.64 
		},
		"coords": [
			{
				"x": 1.4294286667,
				"y": -3.8052736829,
				"z": 2.7647456683,
				"element": "O" 
			},
			{
				"x": 0.4092502335,
				"y": -3.5196277393,
				"z": 1.9141710885,
				"element": "C" 
			},
			{
				"x": -0.4736767195,
				"y": -4.3217614168,
				"z": 1.6773164187,
				"element": "O" 
			},
			{
				"x": 0.5013333292,
				"y": -2.159880249,
				"z": 1.3322096864,
				"element": "C" 
			},
			{
				"x": -0.4910341604,
				"y": -1.7555896833,
				"z": 0.4282944599,
				"element": "C" 
			},
			{
				"x": -0.4545386304,
				"y": -0.4970125652,
				"z": -0.1570173083,
				"element": "C" 
			},
			{
				"x": 0.5761502866,
				"y": 0.399921234,
				"z": 0.174128378,
				"element": "C" 
			},
			{
				"x": 0.6917179811,
				"y": 1.6807780109,
				"z": -0.3996676585,
				"element": "N" 
			},
			{
				"x": -0.2327808393,
				"y": 2.5016372902,
				"z": -1.0414943013,
				"element": "C" 
			},
			{
				"x": 0.1689721286,
				"y": 3.3234223358,
				"z": -1.8555889044,
				"element": "O" 
			},
			{
				"x": -1.6785387281,
				"y": 2.4274251114,
				"z": -0.6597048322,
				"element": "C" 
			},
			{
				"x": -2.1056873841,
				"y": 2.1560475995,
				"z": 0.6483112783,
				"element": "C" 
			},
			{
				"x": -3.4634805056,
				"y": 2.1982347048,
				"z": 0.9625595673,
				"element": "C" 
			},
			{
				"x": -4.4030001545,
				"y": 2.4997658317,
				"z": -0.0260001454,
				"element": "C" 
			},
			{
				"x": -3.9813406427,
				"y": 2.779624497,
				"z": -1.3284542948,
				"element": "C" 
			},
			{
				"x": -2.6239438396,
				"y": 2.7582904965,
				"z": -1.6407846002,
				"element": "C" 
			},
			{
				"x": 1.5756480798,
				"y": -0.0070265874,
				"z": 1.075143274,
				"element": "C" 
			},
			{
				"x": 1.542492966,
				"y": -1.2739580052,
				"z": 1.6436251588,
				"element": "C" 
			},
			{
				"x": 1.263004103,
				"y": -4.7092764971,
				"z": 3.0779473351,
				"element": "H" 
			},
			{
				"x": -1.2811444741,
				"y": -2.4560788957,
				"z": 0.1797324424,
				"element": "H" 
			},
			{
				"x": -1.2128910162,
				"y": -0.2121957325,
				"z": -0.8756929552,
				"element": "H" 
			},
			{
				"x": 1.6370338521,
				"y": 1.9873556557,
				"z": -0.5988126741,
				"element": "H" 
			},
			{
				"x": -1.3792386551,
				"y": 1.9280489747,
				"z": 1.421000778,
				"element": "H" 
			},
			{
				"x": -3.7876448241,
				"y": 1.9977550166,
				"z": 1.9794134126,
				"element": "H" 
			},
			{
				"x": -5.4607314914,
				"y": 2.5239049594,
				"z": 0.2199995664,
				"element": "H" 
			},
			{
				"x": -4.7094046431,
				"y": 3.023445908,
				"z": -2.096450688,
				"element": "H" 
			},
			{
				"x": -2.2748134851,
				"y": 3.0022163655,
				"z": -2.638577252,
				"element": "H" 
			},
			{
				"x": 2.3734936333,
				"y": 0.684521364,
				"z": 1.3314578609,
				"element": "H" 
			},
			{
				"x": 2.3174649333,
				"y": -1.5780143013,
				"z": 2.3378892406,
				"element": "H" 
			}
		],
		 "valence_orbital": [ 
			{
				"type": "occ",
				"energy": -0.27376,
				"method": "rhf"
			},
			{
				"type": "occ",
				"energy": -0.27086,
				"method": "rhf"
			},
			{
				"type": "occ",
				"energy": -0.26094,
				"method": "rhf"
			},
			{
				"type": "occ",
				"energy": -0.25464,
				"method": "rhf"
			},
			{
				"type": "occ",
				"energy": -0.23487,
				"method": "rhf"
			},
			{
				"type": "unocc",
				"energy": -0.0588,
				"method": "rhf"
			},
			{
				"type": "unocc",
				"energy": -0.03615,
				"method": "rhf"
			},
			{
				"type": "unocc",
				"energy": -0.02193,
				"method": "rhf"
			},
			{
				"type": "unocc",
				"energy": -0.00725,
				"method": "rhf"
			},
			{
				"type": "unocc",
				"energy": 0.03575,
				"method": "rhf"
			}
		],
		"cosmo_sigma_profile": { 
			"-0.025": 0.0,
			"-0.024": 0.0,
			"-0.023": 0.0,
			"-0.022": 0.0,
			"-0.021": 0.0,
			"-0.02": 0.0,
			"-0.019": 0.00227131182279,
			"-0.018": 0.567650148847,
			"-0.017": 0.973251834282,
			"-0.016": 0.830217660107,
			"-0.015": 1.02121567048,
			"-0.014": 1.69895941591,
			"-0.013": 1.58986246609,
			"-0.012": 2.08715422493,
			"-0.011": 2.34823114604,
			"-0.01": 1.78881717408,
			"-0.009": 1.50130367007,
			"-0.008": 2.20176278185,
			"-0.007": 5.70286505668,
			"-0.006": 16.821571896,
			"-0.005": 19.6651463184,
			"-0.004": 18.1885774205,
			"-0.003": 14.1702345046,
			"-0.002": 19.3315548989,
			"-0.001": 16.735294002,
			"0.0": 21.0643189719,
			"0.001": 21.3456116812,
			"0.002": 22.5389637701,
			"0.003": 23.3974311398,
			"0.004": 15.4074716794,
			"0.005": 6.23061859479,
			"0.006": 3.57579698635,
			"0.007": 4.69183805755,
			"0.008": 4.74259207056,
			"0.009": 2.50405087319,
			"0.01": 3.2906085658,
			"0.011": 5.60229250474,
			"0.012": 8.77633856935,
			"0.013": 4.50589834898,
			"0.014": 0.344850945696,
			"0.015": 0.0,
			"0.016": 0.0,
			"0.017": 0.0,
			"0.018": 0.0,
			"0.019": 0.0,
			"0.02": 0.0,
			"0.021": 0.0,
			"0.022": 0.0,
			"0.023": 0.0,
			"0.024": 0.0,
			"0.025": 0.0
		}
	}
}
