{
	 "smiles": "CC1=NOC(=N1)C1=CC(Cl)=C(N)C=C1", 
	 "Tm": 415.15, 
	 "num_atms": 22, 
	 "gaussian": { 
		 "optdone": 1, 
		 "sigma_profile": "yes", 
		 "theory": "DFT", 
		 "functional": "B3LYP", 
		 "basiset": "6-31G**", 
		 "properties": { 
			 "R2extent": 4918.2023, 
			 "electric_dipole_moment_norm": 4.227863898, 
			 "electric_quadrupole_moment_norm": 17.3998182499, 
			 "total_energy": -1047.42986962, 
			 "HOMO_LUMO_gap": 0.16766, 
			 "cosmo_polarized_energy": -12.48, 
			 "cosmo_cavitation_energy": 28.75, 
			 "cosmo_dispersion_energy": -21.63, 
			 "cosmo_repulsion_energy": 1.7, 
			 "cosmo_total_nonelectrostatic_energy": 8.82, 
			 "SMD_solvation_energy": 2.88 
		},
		"coords": [
			{
				"x": 1.8682946083,
				"y": -3.2596160895,
				"z": -1.8421500953,
				"element": "C" 
			},
			{
				"x": 0.9931519687,
				"y": -2.6043138254,
				"z": -0.8193735873,
				"element": "C" 
			},
			{
				"x": 0.0507853951,
				"y": -3.2572766716,
				"z": -0.1804153403,
				"element": "N" 
			},
			{
				"x": -0.505418862,
				"y": -2.272859383,
				"z": 0.6630406345,
				"element": "O" 
			},
			{
				"x": 0.1737226826,
				"y": -1.1345135653,
				"z": 0.429473385,
				"element": "C" 
			},
			{
				"x": 1.1103872893,
				"y": -1.2779743358,
				"z": -0.4749249474,
				"element": "N" 
			},
			{
				"x": -0.1838399575,
				"y": 0.0676581124,
				"z": 1.1658628295,
				"element": "C" 
			},
			{
				"x": -1.2184044053,
				"y": 0.059224846,
				"z": 2.1136072658,
				"element": "C" 
			},
			{
				"x": -1.5362813296,
				"y": 1.2194634058,
				"z": 2.8011221633,
				"element": "C" 
			},
			{
				"x": -2.8331441851,
				"y": 1.1820918119,
				"z": 3.9944382546,
				"element": "Cl" 
			},
			{
				"x": -0.847906005,
				"y": 2.4332083,
				"z": 2.5805116397,
				"element": "C" 
			},
			{
				"x": -1.1974049093,
				"y": 3.5931701792,
				"z": 3.2295554924,
				"element": "N" 
			},
			{
				"x": 0.1906583512,
				"y": 2.4165641676,
				"z": 1.6244242067,
				"element": "C" 
			},
			{
				"x": 0.5163162582,
				"y": 1.2635958897,
				"z": 0.9320025072,
				"element": "C" 
			},
			{
				"x": 2.5710333627,
				"y": -2.526222899,
				"z": -2.2393218937,
				"element": "H" 
			},
			{
				"x": 2.4298948634,
				"y": -4.0882484868,
				"z": -1.4015352548,
				"element": "H" 
			},
			{
				"x": 1.2715021031,
				"y": -3.6627998338,
				"z": -2.665180855,
				"element": "H" 
			},
			{
				"x": -1.7700921069,
				"y": -0.851599605,
				"z": 2.3145784749,
				"element": "H" 
			},
			{
				"x": -0.5187556081,
				"y": 4.3385513238,
				"z": 3.2423271689,
				"element": "H" 
			},
			{
				"x": -1.7630357876,
				"y": 3.5090110832,
				"z": 4.0609021134,
				"element": "H" 
			},
			{
				"x": 0.7356063023,
				"y": 3.3368023191,
				"z": 1.43225387,
				"element": "H" 
			},
			{
				"x": 1.3171299716,
				"y": 1.2687832565,
				"z": 0.2008019678,
				"element": "H" 
			}
		],
		 "valence_orbital": [ 
			{
				"type": "occ",
				"energy": -0.31421,
				"method": "rhf"
			},
			{
				"type": "occ",
				"energy": -0.2868,
				"method": "rhf"
			},
			{
				"type": "occ",
				"energy": -0.27879,
				"method": "rhf"
			},
			{
				"type": "occ",
				"energy": -0.26075,
				"method": "rhf"
			},
			{
				"type": "occ",
				"energy": -0.21633,
				"method": "rhf"
			},
			{
				"type": "unocc",
				"energy": -0.04867,
				"method": "rhf"
			},
			{
				"type": "unocc",
				"energy": -0.01926,
				"method": "rhf"
			},
			{
				"type": "unocc",
				"energy": 0.02175,
				"method": "rhf"
			},
			{
				"type": "unocc",
				"energy": 0.02218,
				"method": "rhf"
			},
			{
				"type": "unocc",
				"energy": 0.06555,
				"method": "rhf"
			}
		],
		"cosmo_sigma_profile": { 
			"-0.025": 0.0,
			"-0.024": 0.0,
			"-0.023": 0.0,
			"-0.022": 0.0,
			"-0.021": 0.0,
			"-0.02": 0.0,
			"-0.019": 0.0,
			"-0.018": 0.0,
			"-0.017": 0.0,
			"-0.016": 0.0,
			"-0.015": 0.00934744832929,
			"-0.014": 1.19596425903,
			"-0.013": 2.00334465932,
			"-0.012": 2.43168669797,
			"-0.011": 2.6809810404,
			"-0.01": 2.64647153271,
			"-0.009": 2.03776465546,
			"-0.008": 2.88800454791,
			"-0.007": 5.09010366845,
			"-0.006": 8.95191735332,
			"-0.005": 12.3218385384,
			"-0.004": 11.192980057,
			"-0.003": 13.3419786364,
			"-0.002": 19.2556491387,
			"-0.001": 21.0589169645,
			"0.0": 16.6685352938,
			"0.001": 18.6528933658,
			"0.002": 22.6326727675,
			"0.003": 18.7444596346,
			"0.004": 13.7183192308,
			"0.005": 6.96578943086,
			"0.006": 4.92170881626,
			"0.007": 5.57936752311,
			"0.008": 3.62969422007,
			"0.009": 3.53798526744,
			"0.01": 3.04310368586,
			"0.011": 2.35750104959,
			"0.012": 2.49727209185,
			"0.013": 2.04437933006,
			"0.014": 0.591618714559,
			"0.015": 0.0,
			"0.016": 0.0,
			"0.017": 0.0,
			"0.018": 0.0,
			"0.019": 0.0,
			"0.02": 0.0,
			"0.021": 0.0,
			"0.022": 0.0,
			"0.023": 0.0,
			"0.024": 0.0,
			"0.025": 0.0
		}
	}
}
