{
	 "smiles": "OC1=CC=C(C=C1)C1=CC=C(C=C1)C#N", 
	 "Tm": 470.65, 
	 "num_atms": 24, 
	 "gaussian": { 
		 "optdone": 1, 
		 "sigma_profile": "yes", 
		 "theory": "DFT", 
		 "functional": "B3LYP", 
		 "basiset": "6-31G**", 
		 "properties": { 
			 "R2extent": 4941.8194, 
			 "electric_dipole_moment_norm": 5.94377699531, 
			 "electric_quadrupole_moment_norm": 27.3353822263, 
			 "total_energy": -630.771344371, 
			 "HOMO_LUMO_gap": 0.16569, 
			 "cosmo_polarized_energy": -14.69, 
			 "cosmo_cavitation_energy": 29.81, 
			 "cosmo_dispersion_energy": -21.3, 
			 "cosmo_repulsion_energy": 1.64, 
			 "cosmo_total_nonelectrostatic_energy": 10.15, 
			 "SMD_solvation_energy": 6.64 
		},
		"coords": [
			{
				"x": -1.0332282928,
				"y": -2.4587890418,
				"z": -4.9082146556,
				"element": "O" 
			},
			{
				"x": -1.0024198218,
				"y": -1.6515460829,
				"z": -3.8102769653,
				"element": "C" 
			},
			{
				"x": -1.7310759622,
				"y": -0.4602446652,
				"z": -3.7216587248,
				"element": "C" 
			},
			{
				"x": -1.6554257924,
				"y": 0.3176100336,
				"z": -2.5692817523,
				"element": "C" 
			},
			{
				"x": -0.8549489512,
				"y": -0.0643184597,
				"z": -1.480415488,
				"element": "C" 
			},
			{
				"x": -0.1301071579,
				"y": -1.265729679,
				"z": -1.5930171865,
				"element": "C" 
			},
			{
				"x": -0.1991633573,
				"y": -2.0524571066,
				"z": -2.7358151035,
				"element": "C" 
			},
			{
				"x": -0.7760550679,
				"y": 0.7678119986,
				"z": -0.2575159336,
				"element": "C" 
			},
			{
				"x": -1.9021715495,
				"y": 1.4633557269,
				"z": 0.2214636566,
				"element": "C" 
			},
			{
				"x": -1.8337519707,
				"y": 2.2484548918,
				"z": 1.3656247955,
				"element": "C" 
			},
			{
				"x": -0.624666093,
				"y": 2.356043674,
				"z": 2.0736360569,
				"element": "C" 
			},
			{
				"x": 0.5082205391,
				"y": 1.6653944585,
				"z": 1.6107008849,
				"element": "C" 
			},
			{
				"x": 0.4277824726,
				"y": 0.8880746779,
				"z": 0.4619739562,
				"element": "C" 
			},
			{
				"x": -0.5479703086,
				"y": 3.1618786281,
				"z": 3.2558291671,
				"element": "C" 
			},
			{
				"x": -0.4856928823,
				"y": 3.8165944194,
				"z": 4.2159034917,
				"element": "N" 
			},
			{
				"x": -1.6228921499,
				"y": -2.0760056042,
				"z": -5.5709543442,
				"element": "H" 
			},
			{
				"x": -2.3483609707,
				"y": -0.1357723446,
				"z": -4.5567750337,
				"element": "H" 
			},
			{
				"x": -2.2064610844,
				"y": 1.252371922,
				"z": -2.529825887,
				"element": "H" 
			},
			{
				"x": 0.4765572524,
				"y": -1.6046518464,
				"z": -0.7586607555,
				"element": "H" 
			},
			{
				"x": 0.351900607,
				"y": -2.9837980548,
				"z": -2.8123296602,
				"element": "H" 
			},
			{
				"x": -2.8508703754,
				"y": 1.364887335,
				"z": -0.2964689593,
				"element": "H" 
			},
			{
				"x": -2.713398464,
				"y": 2.7719869123,
				"z": 1.7252929744,
				"element": "H" 
			},
			{
				"x": 1.4460885243,
				"y": 1.7531523037,
				"z": 2.149131328,
				"element": "H" 
			},
			{
				"x": 1.3190108567,
				"y": 0.3855959034,
				"z": 0.0998541383,
				"element": "H" 
			}
		],
		 "valence_orbital": [ 
			{
				"type": "occ",
				"energy": -0.32503,
				"method": "rhf"
			},
			{
				"type": "occ",
				"energy": -0.27301,
				"method": "rhf"
			},
			{
				"type": "occ",
				"energy": -0.27184,
				"method": "rhf"
			},
			{
				"type": "occ",
				"energy": -0.26647,
				"method": "rhf"
			},
			{
				"type": "occ",
				"energy": -0.22295,
				"method": "rhf"
			},
			{
				"type": "unocc",
				"energy": -0.05726,
				"method": "rhf"
			},
			{
				"type": "unocc",
				"energy": -0.02334,
				"method": "rhf"
			},
			{
				"type": "unocc",
				"energy": -0.01611,
				"method": "rhf"
			},
			{
				"type": "unocc",
				"energy": 0.00845,
				"method": "rhf"
			},
			{
				"type": "unocc",
				"energy": 0.04095,
				"method": "rhf"
			}
		],
		"cosmo_sigma_profile": { 
			"-0.025": 0.0,
			"-0.024": 0.0,
			"-0.023": 0.0,
			"-0.022": 0.0,
			"-0.021": 0.0,
			"-0.02": 0.0,
			"-0.019": 0.0,
			"-0.018": 0.513897705224,
			"-0.017": 1.34659869843,
			"-0.016": 1.0205694252,
			"-0.015": 0.946781913765,
			"-0.014": 0.923147947512,
			"-0.013": 1.1244250812,
			"-0.012": 0.735492845988,
			"-0.011": 1.16125399049,
			"-0.01": 1.31648096141,
			"-0.009": 1.23964431793,
			"-0.008": 2.73369296075,
			"-0.007": 9.26940530885,
			"-0.006": 18.2836955069,
			"-0.005": 15.8919106615,
			"-0.004": 13.6050826785,
			"-0.003": 12.4031083835,
			"-0.002": 11.2762954899,
			"-0.001": 14.4623376935,
			"0.0": 14.8760623412,
			"0.001": 15.2944053755,
			"0.002": 22.5791470124,
			"0.003": 22.3919976671,
			"0.004": 13.9987113161,
			"0.005": 10.92965825,
			"0.006": 3.99437886689,
			"0.007": 4.08546146357,
			"0.008": 4.57420527466,
			"0.009": 5.06668721934,
			"0.01": 5.01030495853,
			"0.011": 4.62953229407,
			"0.012": 2.91687223015,
			"0.013": 1.77777001465,
			"0.014": 0.215129046231,
			"0.015": 0.0,
			"0.016": 0.0,
			"0.017": 0.0,
			"0.018": 0.0,
			"0.019": 0.0,
			"0.02": 0.0,
			"0.021": 0.0,
			"0.022": 0.0,
			"0.023": 0.0,
			"0.024": 0.0,
			"0.025": 0.0
		}
	}
}
