{
	 "smiles": "OC(=O)COC1=CC=C(Cl)C=C1", 
	 "Tm": 435.15, 
	 "num_atms": 19, 
	 "gaussian": { 
		 "optdone": 1, 
		 "sigma_profile": "yes", 
		 "theory": "DFT", 
		 "functional": "B3LYP", 
		 "basiset": "6-31G**", 
		 "properties": { 
			 "R2extent": 4019.0192, 
			 "electric_dipole_moment_norm": 2.48187498074, 
			 "electric_quadrupole_moment_norm": 22.8482837034, 
			 "total_energy": -994.929272251, 
			 "HOMO_LUMO_gap": 0.21046, 
			 "cosmo_polarized_energy": -13.63, 
			 "cosmo_cavitation_energy": 25.88, 
			 "cosmo_dispersion_energy": -19.28, 
			 "cosmo_repulsion_energy": 1.55, 
			 "cosmo_total_nonelectrostatic_energy": 8.15, 
			 "SMD_solvation_energy": 5.8 
		},
		"coords": [
			{
				"x": -2.4921662771,
				"y": 0.5075246801,
				"z": 1.8474069982,
				"element": "O" 
			},
			{
				"x": -2.4643388111,
				"y": 1.3330090353,
				"z": 0.7894405668,
				"element": "C" 
			},
			{
				"x": -3.3340354388,
				"y": 2.1327581497,
				"z": 0.5527305351,
				"element": "O" 
			},
			{
				"x": -1.2422308906,
				"y": 1.2004276178,
				"z": -0.1223832636,
				"element": "C" 
			},
			{
				"x": -0.3873227612,
				"y": 0.1878763048,
				"z": 0.3935001903,
				"element": "O" 
			},
			{
				"x": 0.7816882287,
				"y": -0.1101401989,
				"z": -0.2646799494,
				"element": "C" 
			},
			{
				"x": 1.5651893671,
				"y": -1.1185281126,
				"z": 0.3093139281,
				"element": "C" 
			},
			{
				"x": 2.7661432252,
				"y": -1.4916501521,
				"z": -0.28285722,
				"element": "C" 
			},
			{
				"x": 3.1837761119,
				"y": -0.8532028033,
				"z": -1.453213318,
				"element": "C" 
			},
			{
				"x": 4.7012883348,
				"y": -1.3234790034,
				"z": -2.2030546728,
				"element": "Cl" 
			},
			{
				"x": 2.4107650424,
				"y": 0.1495871666,
				"z": -2.0293715337,
				"element": "C" 
			},
			{
				"x": 1.2027205164,
				"y": 0.5260703715,
				"z": -1.4351169757,
				"element": "C" 
			},
			{
				"x": -1.6873299457,
				"y": -0.0400483637,
				"z": 1.8242051656,
				"element": "H" 
			},
			{
				"x": -1.59294749,
				"y": 0.9533337431,
				"z": -1.1319476358,
				"element": "H" 
			},
			{
				"x": -0.7354333907,
				"y": 2.1725411335,
				"z": -0.1599435935,
				"element": "H" 
			},
			{
				"x": 1.2214618395,
				"y": -1.60084542,
				"z": 1.2184048582,
				"element": "H" 
			},
			{
				"x": 3.3759108392,
				"y": -2.2720689043,
				"z": 0.1584367407,
				"element": "H" 
			},
			{
				"x": 2.7437769841,
				"y": 0.6389775167,
				"z": -2.9378288191,
				"element": "H" 
			},
			{
				"x": 0.6113845158,
				"y": 1.3085572394,
				"z": -1.8951420016,
				"element": "H" 
			}
		],
		 "valence_orbital": [ 
			{
				"type": "occ",
				"energy": -0.32082,
				"method": "rhf"
			},
			{
				"type": "occ",
				"energy": -0.31686,
				"method": "rhf"
			},
			{
				"type": "occ",
				"energy": -0.28228,
				"method": "rhf"
			},
			{
				"type": "occ",
				"energy": -0.2805,
				"method": "rhf"
			},
			{
				"type": "occ",
				"energy": -0.24204,
				"method": "rhf"
			},
			{
				"type": "unocc",
				"energy": -0.03158,
				"method": "rhf"
			},
			{
				"type": "unocc",
				"energy": -0.01777,
				"method": "rhf"
			},
			{
				"type": "unocc",
				"energy": 0.00279,
				"method": "rhf"
			},
			{
				"type": "unocc",
				"energy": 0.02031,
				"method": "rhf"
			},
			{
				"type": "unocc",
				"energy": 0.07053,
				"method": "rhf"
			}
		],
		"cosmo_sigma_profile": { 
			"-0.025": 0.0,
			"-0.024": 0.0,
			"-0.023": 0.0,
			"-0.022": 0.0,
			"-0.021": 0.0,
			"-0.02": 0.0,
			"-0.019": 0.0,
			"-0.018": 0.0,
			"-0.017": 0.0,
			"-0.016": 0.0,
			"-0.015": 0.424552848388,
			"-0.014": 0.42177832235,
			"-0.013": 0.934407507679,
			"-0.012": 0.393598088063,
			"-0.011": 0.634510489599,
			"-0.01": 0.896450183513,
			"-0.009": 4.70552935498,
			"-0.008": 11.6170094663,
			"-0.007": 13.4152036372,
			"-0.006": 13.552061454,
			"-0.005": 9.33524684609,
			"-0.004": 8.53726663588,
			"-0.003": 8.58255445749,
			"-0.002": 9.4550625385,
			"-0.001": 9.99440328086,
			"0.0": 10.249218102,
			"0.001": 12.8468210234,
			"0.002": 21.2810999315,
			"0.003": 20.4750128109,
			"0.004": 14.1411214367,
			"0.005": 10.3291016537,
			"0.006": 2.54108827687,
			"0.007": 1.8272943647,
			"0.008": 3.29897174201,
			"0.009": 4.32748096108,
			"0.01": 4.83472335381,
			"0.011": 4.7072034313,
			"0.012": 4.84828292825,
			"0.013": 0.879537798875,
			"0.014": 0.0,
			"0.015": 0.0,
			"0.016": 0.0,
			"0.017": 0.0,
			"0.018": 0.0,
			"0.019": 0.0,
			"0.02": 0.0,
			"0.021": 0.0,
			"0.022": 0.0,
			"0.023": 0.0,
			"0.024": 0.0,
			"0.025": 0.0
		}
	}
}
