{
	 "smiles": "CN(CC1=CC=C(C=C1)C(=O)CCl)C(C)=O", 
	 "Tm": 319.15, 
	 "num_atms": 30, 
	 "gaussian": { 
		 "optdone": 1, 
		 "sigma_profile": "yes", 
		 "theory": "DFT", 
		 "functional": "B3LYP", 
		 "basiset": "6-31G**", 
		 "properties": { 
			 "R2extent": 5873.87, 
			 "electric_dipole_moment_norm": 3.24724988413, 
			 "electric_quadrupole_moment_norm": 24.8356314697, 
			 "total_energy": -1131.12161726, 
			 "HOMO_LUMO_gap": 0.17152, 
			 "cosmo_polarized_energy": -15.29, 
			 "cosmo_cavitation_energy": 35.35, 
			 "cosmo_dispersion_energy": -24.81, 
			 "cosmo_repulsion_energy": 1.95, 
			 "cosmo_total_nonelectrostatic_energy": 12.49, 
			 "SMD_solvation_energy": 6.81 
		},
		"coords": [
			{
				"x": 0.4418547224,
				"y": 2.0276779612,
				"z": 3.0789599319,
				"element": "C" 
			},
			{
				"x": 1.1716089301,
				"y": 0.7880596555,
				"z": 2.8638300377,
				"element": "N" 
			},
			{
				"x": 0.3851940405,
				"y": -0.4471253278,
				"z": 2.9476044957,
				"element": "C" 
			},
			{
				"x": -0.4564059352,
				"y": -0.7111471134,
				"z": 1.7122325911,
				"element": "C" 
			},
			{
				"x": -1.8555241549,
				"y": -0.6470253083,
				"z": 1.7601845182,
				"element": "C" 
			},
			{
				"x": -2.6176885204,
				"y": -0.8848249151,
				"z": 0.6209881287,
				"element": "C" 
			},
			{
				"x": -1.9950393237,
				"y": -1.1896765969,
				"z": -0.5989384414,
				"element": "C" 
			},
			{
				"x": -0.5917264825,
				"y": -1.2548600223,
				"z": -0.6490280195,
				"element": "C" 
			},
			{
				"x": 0.1670124159,
				"y": -1.0203974597,
				"z": 0.4932439668,
				"element": "C" 
			},
			{
				"x": -2.8692520813,
				"y": -1.4590137174,
				"z": -1.7755269015,
				"element": "C" 
			},
			{
				"x": -4.0870279826,
				"y": -1.4621405221,
				"z": -1.6879753968,
				"element": "O" 
			},
			{
				"x": -2.242516052,
				"y": -1.7812940574,
				"z": -3.1362349384,
				"element": "C" 
			},
			{
				"x": -1.4522361179,
				"y": -0.322662999,
				"z": -3.8756907017,
				"element": "Cl" 
			},
			{
				"x": 2.4954523529,
				"y": 0.6938008416,
				"z": 2.4999177686,
				"element": "C" 
			},
			{
				"x": 3.3153160295,
				"y": 1.9762614124,
				"z": 2.4545534343,
				"element": "C" 
			},
			{
				"x": 3.0097472245,
				"y": -0.3888186851,
				"z": 2.2254568024,
				"element": "O" 
			},
			{
				"x": 0.0189228093,
				"y": 2.0571797887,
				"z": 4.0916911382,
				"element": "H" 
			},
			{
				"x": -0.3841999068,
				"y": 2.1202251225,
				"z": 2.3631003449,
				"element": "H" 
			},
			{
				"x": 1.092680092,
				"y": 2.8910073454,
				"z": 2.9569715049,
				"element": "H" 
			},
			{
				"x": -0.2603204255,
				"y": -0.3811615542,
				"z": 3.831290397,
				"element": "H" 
			},
			{
				"x": 1.0975145995,
				"y": -1.2611834309,
				"z": 3.0950811947,
				"element": "H" 
			},
			{
				"x": -2.3501936328,
				"y": -0.4148478185,
				"z": 2.7003229117,
				"element": "H" 
			},
			{
				"x": -3.7012487691,
				"y": -0.8416171707,
				"z": 0.6497959208,
				"element": "H" 
			},
			{
				"x": -0.0835314259,
				"y": -1.4801456998,
				"z": -1.5804559181,
				"element": "H" 
			},
			{
				"x": 1.250556122,
				"y": -1.0788717164,
				"z": 0.456028177,
				"element": "H" 
			},
			{
				"x": -1.478801187,
				"y": -2.5582529215,
				"z": -3.069021715,
				"element": "H" 
			},
			{
				"x": -3.0407981543,
				"y": -2.0895778837,
				"z": -3.8084794719,
				"element": "H" 
			},
			{
				"x": 2.9661350342,
				"y": 2.6492896357,
				"z": 1.6642385428,
				"element": "H" 
			},
			{
				"x": 3.2835131783,
				"y": 2.5233450551,
				"z": 3.401869224,
				"element": "H" 
			},
			{
				"x": 4.3447026008,
				"y": 1.6910981019,
				"z": 2.240390473,
				"element": "H" 
			}
		],
		 "valence_orbital": [ 
			{
				"type": "occ",
				"energy": -0.26682,
				"method": "rhf"
			},
			{
				"type": "occ",
				"energy": -0.26429,
				"method": "rhf"
			},
			{
				"type": "occ",
				"energy": -0.26002,
				"method": "rhf"
			},
			{
				"type": "occ",
				"energy": -0.24966,
				"method": "rhf"
			},
			{
				"type": "occ",
				"energy": -0.2439,
				"method": "rhf"
			},
			{
				"type": "unocc",
				"energy": -0.07238,
				"method": "rhf"
			},
			{
				"type": "unocc",
				"energy": -0.01474,
				"method": "rhf"
			},
			{
				"type": "unocc",
				"energy": -5e-05,
				"method": "rhf"
			},
			{
				"type": "unocc",
				"energy": 0.02101,
				"method": "rhf"
			},
			{
				"type": "unocc",
				"energy": 0.05099,
				"method": "rhf"
			}
		],
		"cosmo_sigma_profile": { 
			"-0.025": 0.0,
			"-0.024": 0.0,
			"-0.023": 0.0,
			"-0.022": 0.0,
			"-0.021": 0.0,
			"-0.02": 0.0,
			"-0.019": 0.0,
			"-0.018": 0.0,
			"-0.017": 0.0,
			"-0.016": 0.0,
			"-0.015": 0.0,
			"-0.014": 0.0,
			"-0.013": 0.0,
			"-0.012": 0.0,
			"-0.011": 0.0,
			"-0.01": 0.0244671694772,
			"-0.009": 3.09433893094,
			"-0.008": 5.12289606825,
			"-0.007": 6.26521563163,
			"-0.006": 18.6580364072,
			"-0.005": 22.9618989077,
			"-0.004": 23.27676404,
			"-0.003": 21.8795003009,
			"-0.002": 25.5271570554,
			"-0.001": 21.4103994597,
			"0.0": 19.6871582374,
			"0.001": 16.1151586247,
			"0.002": 17.5523832527,
			"0.003": 20.6425114885,
			"0.004": 14.8986881388,
			"0.005": 10.9765536181,
			"0.006": 6.44559021589,
			"0.007": 2.53118195996,
			"0.008": 2.91536910175,
			"0.009": 2.99433384508,
			"0.01": 4.31629402389,
			"0.011": 5.14388315646,
			"0.012": 2.69784707159,
			"0.013": 1.99832480069,
			"0.014": 3.77541865718,
			"0.015": 1.54415225662,
			"0.016": 0.0796964274473,
			"0.017": 0.0,
			"0.018": 0.0,
			"0.019": 0.0,
			"0.02": 0.0,
			"0.021": 0.0,
			"0.022": 0.0,
			"0.023": 0.0,
			"0.024": 0.0,
			"0.025": 0.0
		}
	}
}
