{
	 "smiles": "CCNC1=C(N)C=CC=N1", 
	 "Tm": 382.15, 
	 "num_atms": 21, 
	 "gaussian": { 
		 "optdone": 1, 
		 "sigma_profile": "yes", 
		 "theory": "DFT", 
		 "functional": "B3LYP", 
		 "basiset": "6-31G**", 
		 "properties": { 
			 "R2extent": 2188.5674, 
			 "electric_dipole_moment_norm": 2.50935693157, 
			 "electric_quadrupole_moment_norm": 8.61928299744, 
			 "total_energy": -437.638442753, 
			 "HOMO_LUMO_gap": 0.19093, 
			 "cosmo_polarized_energy": -10.64, 
			 "cosmo_cavitation_energy": 23.96, 
			 "cosmo_dispersion_energy": -17.95, 
			 "cosmo_repulsion_energy": 1.48, 
			 "cosmo_total_nonelectrostatic_energy": 7.49, 
			 "SMD_solvation_energy": 2.54 
		},
		"coords": [
			{
				"x": -3.0066117942,
				"y": 2.0975779143,
				"z": -1.1463565663,
				"element": "C" 
			},
			{
				"x": -2.0015445147,
				"y": 1.0410135708,
				"z": -0.6959108712,
				"element": "C" 
			},
			{
				"x": -0.7908822902,
				"y": 1.1127453582,
				"z": -1.5102865273,
				"element": "N" 
			},
			{
				"x": 0.2341442012,
				"y": 0.1952648473,
				"z": -1.299027976,
				"element": "C" 
			},
			{
				"x": 1.455547147,
				"y": 0.3885476132,
				"z": -2.0078253193,
				"element": "C" 
			},
			{
				"x": 1.5692391919,
				"y": 1.5170823643,
				"z": -2.8438148631,
				"element": "N" 
			},
			{
				"x": 2.4749901926,
				"y": -0.5268436548,
				"z": -1.7893998953,
				"element": "C" 
			},
			{
				"x": 2.2636053906,
				"y": -1.6029584169,
				"z": -0.9147729291,
				"element": "C" 
			},
			{
				"x": 1.0223025882,
				"y": -1.7218812972,
				"z": -0.3080231428,
				"element": "C" 
			},
			{
				"x": 0.0243897172,
				"y": -0.8374152589,
				"z": -0.4854011096,
				"element": "N" 
			},
			{
				"x": -3.2720979974,
				"y": 1.9629223293,
				"z": -2.1995905266,
				"element": "H" 
			},
			{
				"x": -3.9211806624,
				"y": 2.0343260263,
				"z": -0.5492362659,
				"element": "H" 
			},
			{
				"x": -2.6043888195,
				"y": 3.1108964115,
				"z": -1.0249042907,
				"element": "H" 
			},
			{
				"x": -2.4188741605,
				"y": 0.0370686311,
				"z": -0.8087253152,
				"element": "H" 
			},
			{
				"x": -1.7739469298,
				"y": 1.1562213597,
				"z": 0.3749801908,
				"element": "H" 
			},
			{
				"x": -0.4378802909,
				"y": 2.055731936,
				"z": -1.6404889728,
				"element": "H" 
			},
			{
				"x": 2.4213032694,
				"y": 1.5189247695,
				"z": -3.3924239055,
				"element": "H" 
			},
			{
				"x": 0.7641509384,
				"y": 1.6198984761,
				"z": -3.4557173808,
				"element": "H" 
			},
			{
				"x": 3.4246369917,
				"y": -0.4109241126,
				"z": -2.3074504294,
				"element": "H" 
			},
			{
				"x": 3.0453046842,
				"y": -2.332300293,
				"z": -0.7297777265,
				"element": "H" 
			},
			{
				"x": 0.8073931473,
				"y": -2.551098574,
				"z": 0.3630538224,
				"element": "H" 
			}
		],
		 "valence_orbital": [ 
			{
				"type": "occ",
				"energy": -0.31741,
				"method": "rhf"
			},
			{
				"type": "occ",
				"energy": -0.28838,
				"method": "rhf"
			},
			{
				"type": "occ",
				"energy": -0.24352,
				"method": "rhf"
			},
			{
				"type": "occ",
				"energy": -0.24075,
				"method": "rhf"
			},
			{
				"type": "occ",
				"energy": -0.18826,
				"method": "rhf"
			},
			{
				"type": "unocc",
				"energy": 0.00267,
				"method": "rhf"
			},
			{
				"type": "unocc",
				"energy": 0.02218,
				"method": "rhf"
			},
			{
				"type": "unocc",
				"energy": 0.07785,
				"method": "rhf"
			},
			{
				"type": "unocc",
				"energy": 0.09957,
				"method": "rhf"
			},
			{
				"type": "unocc",
				"energy": 0.11112,
				"method": "rhf"
			}
		],
		"cosmo_sigma_profile": { 
			"-0.025": 0.0,
			"-0.024": 0.0,
			"-0.023": 0.0,
			"-0.022": 0.0,
			"-0.021": 0.0,
			"-0.02": 0.0,
			"-0.019": 0.0,
			"-0.018": 0.0,
			"-0.017": 0.0,
			"-0.016": 0.0,
			"-0.015": 0.0,
			"-0.014": 0.0,
			"-0.013": 0.0600397000734,
			"-0.012": 1.35789183911,
			"-0.011": 2.50710386249,
			"-0.01": 3.5789173321,
			"-0.009": 3.94202246123,
			"-0.008": 4.42384045569,
			"-0.007": 4.41001173625,
			"-0.006": 5.2287905062,
			"-0.005": 8.16358200916,
			"-0.004": 10.0277964991,
			"-0.003": 15.2991891064,
			"-0.002": 16.9919775186,
			"-0.001": 18.1613314681,
			"0.0": 15.1495895155,
			"0.001": 13.3602775979,
			"0.002": 8.1378033931,
			"0.003": 8.70242552687,
			"0.004": 10.2889194418,
			"0.005": 12.2193722741,
			"0.006": 8.16246380247,
			"0.007": 3.16312130136,
			"0.008": 2.30748633007,
			"0.009": 2.81389996574,
			"0.01": 3.13955256038,
			"0.011": 1.48360351921,
			"0.012": 1.94811489927,
			"0.013": 1.21874822148,
			"0.014": 1.18120140767,
			"0.015": 0.751714090492,
			"0.016": 0.225947367033,
			"0.017": 0.0,
			"0.018": 0.0,
			"0.019": 0.0,
			"0.02": 0.0,
			"0.021": 0.0,
			"0.022": 0.0,
			"0.023": 0.0,
			"0.024": 0.0,
			"0.025": 0.0
		}
	}
}
