{
	 "smiles": "CC(N)C1=C(C=CC(F)=C1)N1CCC(O)CC1", 
	 "Tm": 412.15, 
	 "num_atms": 36, 
	 "gaussian": { 
		 "optdone": 1, 
		 "sigma_profile": "yes", 
		 "theory": "DFT", 
		 "functional": "B3LYP", 
		 "basiset": "6-31G**", 
		 "properties": { 
			 "R2extent": 4984.6362, 
			 "electric_dipole_moment_norm": 1.99794632811, 
			 "electric_quadrupole_moment_norm": 8.16640521772, 
			 "total_energy": -791.381942581, 
			 "HOMO_LUMO_gap": 0.18628, 
			 "cosmo_polarized_energy": -13.4, 
			 "cosmo_cavitation_energy": 36.5, 
			 "cosmo_dispersion_energy": -25.42, 
			 "cosmo_repulsion_energy": 1.97, 
			 "cosmo_total_nonelectrostatic_energy": 13.04, 
			 "SMD_solvation_energy": 4.33 
		},
		"coords": [
			{
				"x": 2.0446447775,
				"y": 3.2145408012,
				"z": 0.516591883,
				"element": "C" 
			},
			{
				"x": 1.6968878875,
				"y": 1.8196001474,
				"z": 1.0554680403,
				"element": "C" 
			},
			{
				"x": 2.4261145473,
				"y": 1.6091479157,
				"z": 2.3188249082,
				"element": "N" 
			},
			{
				"x": 1.9209303841,
				"y": 0.7421512363,
				"z": -0.0122894844,
				"element": "C" 
			},
			{
				"x": 0.8550024537,
				"y": -0.0101541216,
				"z": -0.5695446975,
				"element": "C" 
			},
			{
				"x": 1.1353250485,
				"y": -0.905246925,
				"z": -1.617926546,
				"element": "C" 
			},
			{
				"x": 2.4269845732,
				"y": -1.0846637398,
				"z": -2.1093764361,
				"element": "C" 
			},
			{
				"x": 3.4587249575,
				"y": -0.3708979768,
				"z": -1.5172562624,
				"element": "C" 
			},
			{
				"x": 4.7251433607,
				"y": -0.5431286376,
				"z": -1.9597748845,
				"element": "F" 
			},
			{
				"x": 3.2202195701,
				"y": 0.526447336,
				"z": -0.4871311262,
				"element": "C" 
			},
			{
				"x": -0.4716334402,
				"y": 0.1861114318,
				"z": -0.0865090741,
				"element": "N" 
			},
			{
				"x": -1.5973796999,
				"y": 0.1493686725,
				"z": -1.0217503709,
				"element": "C" 
			},
			{
				"x": -2.3123759005,
				"y": -1.2131545041,
				"z": -1.132958665,
				"element": "C" 
			},
			{
				"x": -2.6732000195,
				"y": -1.7587050616,
				"z": 0.2469018718,
				"element": "C" 
			},
			{
				"x": -3.2253673951,
				"y": -3.0568784801,
				"z": 0.0559915856,
				"element": "O" 
			},
			{
				"x": -1.4318689014,
				"y": -1.7731958205,
				"z": 1.1459567649,
				"element": "C" 
			},
			{
				"x": -0.8109417412,
				"y": -0.3665343247,
				"z": 1.2291706863,
				"element": "C" 
			},
			{
				"x": 1.4602454781,
				"y": 3.4433001911,
				"z": -0.3791406437,
				"element": "H" 
			},
			{
				"x": 1.8353426403,
				"y": 3.9672835295,
				"z": 1.2817549925,
				"element": "H" 
			},
			{
				"x": 3.1054444804,
				"y": 3.286813045,
				"z": 0.2493297867,
				"element": "H" 
			},
			{
				"x": 0.6330237382,
				"y": 1.8256751233,
				"z": 1.3002093478,
				"element": "H" 
			},
			{
				"x": 3.429549828,
				"y": 1.6302994443,
				"z": 2.1440869384,
				"element": "H" 
			},
			{
				"x": 2.2296375347,
				"y": 0.6788325287,
				"z": 2.6826789483,
				"element": "H" 
			},
			{
				"x": 0.328863594,
				"y": -1.4813944922,
				"z": -2.0564358849,
				"element": "H" 
			},
			{
				"x": 2.6373389859,
				"y": -1.7763292595,
				"z": -2.9179191659,
				"element": "H" 
			},
			{
				"x": 4.0611769898,
				"y": 1.0802723714,
				"z": -0.0797716389,
				"element": "H" 
			},
			{
				"x": -1.2462743982,
				"y": 0.4818115205,
				"z": -2.0019963782,
				"element": "H" 
			},
			{
				"x": -2.3329609178,
				"y": 0.8949077665,
				"z": -0.6812699648,
				"element": "H" 
			},
			{
				"x": -1.6777529326,
				"y": -1.9561321385,
				"z": -1.629247641,
				"element": "H" 
			},
			{
				"x": -3.2193658735,
				"y": -1.1097789222,
				"z": -1.7394640105,
				"element": "H" 
			},
			{
				"x": -3.4246710089,
				"y": -1.0887043991,
				"z": 0.7040647677,
				"element": "H" 
			},
			{
				"x": -3.4488728988,
				"y": -3.4155488988,
				"z": 0.9250459645,
				"element": "H" 
			},
			{
				"x": -0.7038857034,
				"y": -2.4827267992,
				"z": 0.7336896323,
				"element": "H" 
			},
			{
				"x": -1.6960446884,
				"y": -2.120306134,
				"z": 2.1548940293,
				"element": "H" 
			},
			{
				"x": -1.5238062106,
				"y": 0.312258889,
				"z": 1.7223492079,
				"element": "H" 
			},
			{
				"x": 0.0880009008,
				"y": -0.3892413151,
				"z": 1.8489535196,
				"element": "H" 
			}
		],
		 "valence_orbital": [ 
			{
				"type": "occ",
				"energy": -0.26938,
				"method": "rhf"
			},
			{
				"type": "occ",
				"energy": -0.25852,
				"method": "rhf"
			},
			{
				"type": "occ",
				"energy": -0.25421,
				"method": "rhf"
			},
			{
				"type": "occ",
				"energy": -0.23249,
				"method": "rhf"
			},
			{
				"type": "occ",
				"energy": -0.19675,
				"method": "rhf"
			},
			{
				"type": "unocc",
				"energy": -0.01047,
				"method": "rhf"
			},
			{
				"type": "unocc",
				"energy": 0.00739,
				"method": "rhf"
			},
			{
				"type": "unocc",
				"energy": 0.06913,
				"method": "rhf"
			},
			{
				"type": "unocc",
				"energy": 0.07573,
				"method": "rhf"
			},
			{
				"type": "unocc",
				"energy": 0.08628,
				"method": "rhf"
			}
		],
		"cosmo_sigma_profile": { 
			"-0.025": 0.0,
			"-0.024": 0.0,
			"-0.023": 0.0,
			"-0.022": 0.0,
			"-0.021": 0.0,
			"-0.02": 0.0,
			"-0.019": 0.0,
			"-0.018": 0.0,
			"-0.017": 0.0,
			"-0.016": 0.0,
			"-0.015": 0.61919816357,
			"-0.014": 1.14523438103,
			"-0.013": 0.578131350395,
			"-0.012": 0.832337133753,
			"-0.011": 1.27276028896,
			"-0.01": 1.56491492513,
			"-0.009": 3.71626548622,
			"-0.008": 5.62096985001,
			"-0.007": 6.1749003485,
			"-0.006": 8.43038731187,
			"-0.005": 10.699052333,
			"-0.004": 14.6353575518,
			"-0.003": 32.9114658243,
			"-0.002": 31.5554929685,
			"-0.001": 26.9971709736,
			"0.0": 23.1287958901,
			"0.001": 21.2852132524,
			"0.002": 16.6634870527,
			"0.003": 14.5699563563,
			"0.004": 16.4214031237,
			"0.005": 19.6994196314,
			"0.006": 3.06236157373,
			"0.007": 2.4406452602,
			"0.008": 3.07296196541,
			"0.009": 2.45807934481,
			"0.01": 1.50271512927,
			"0.011": 2.03967921642,
			"0.012": 2.36767172818,
			"0.013": 2.02212021186,
			"0.014": 2.50289757868,
			"0.015": 1.39188440571,
			"0.016": 1.00766108057,
			"0.017": 0.419499906372,
			"0.018": 0.728385736109,
			"0.019": 0.394588037,
			"0.02": 0.282503874662,
			"0.021": 0.0,
			"0.022": 0.0,
			"0.023": 0.0,
			"0.024": 0.0,
			"0.025": 0.0
		}
	}
}
