{
	 "smiles": "OC(=O)C1=CC=C(OC2=CC(Br)=CC=C2)C=C1", 
	 "Tm": 425.15, 
	 "num_atms": 26, 
	 "gaussian": { 
		 "optdone": 1, 
		 "sigma_profile": "yes", 
		 "theory": "DFT", 
		 "functional": "B3LYP", 
		 "basiset": "6-31G**", 
		 "properties": { 
			 "R2extent": 7836.0329, 
			 "electric_dipole_moment_norm": 4.78810462083, 
			 "electric_quadrupole_moment_norm": 33.1518923314, 
			 "total_energy": -3297.88214505, 
			 "HOMO_LUMO_gap": 0.19191, 
			 "cosmo_polarized_energy": -16.05, 
			 "cosmo_cavitation_energy": 33.97, 
			 "cosmo_dispersion_energy": -24.85, 
			 "cosmo_repulsion_energy": 1.93, 
			 "cosmo_total_nonelectrostatic_energy": 11.05, 
			 "SMD_solvation_energy": 5.97 
		},
		"coords": [
			{
				"x": -2.4723858767,
				"y": -4.3855130056,
				"z": -3.7389017035,
				"element": "O" 
			},
			{
				"x": -2.1844256673,
				"y": -4.1606593336,
				"z": -2.4270345795,
				"element": "C" 
			},
			{
				"x": -2.164223612,
				"y": -5.0865776734,
				"z": -1.6497341693,
				"element": "O" 
			},
			{
				"x": -1.9050933112,
				"y": -2.7460289574,
				"z": -2.0287918732,
				"element": "C" 
			},
			{
				"x": -1.2475085308,
				"y": -2.5302701299,
				"z": -0.809670182,
				"element": "C" 
			},
			{
				"x": -0.9569022918,
				"y": -1.2448858669,
				"z": -0.3670666341,
				"element": "C" 
			},
			{
				"x": -1.340515882,
				"y": -0.1485558851,
				"z": -1.1497913401,
				"element": "C" 
			},
			{
				"x": -1.1503096218,
				"y": 1.1589288274,
				"z": -0.7728994862,
				"element": "O" 
			},
			{
				"x": -0.1432568006,
				"y": 1.5117760845,
				"z": 0.1078393545,
				"element": "C" 
			},
			{
				"x": 1.1840458677,
				"y": 1.137678023,
				"z": -0.1212351733,
				"element": "C" 
			},
			{
				"x": 2.1613171534,
				"y": 1.5965970695,
				"z": 0.7583267451,
				"element": "C" 
			},
			{
				"x": 3.9805822851,
				"y": 1.0925225188,
				"z": 0.462291516,
				"element": "Br" 
			},
			{
				"x": 1.8474165493,
				"y": 2.4195018719,
				"z": 1.8398205752,
				"element": "C" 
			},
			{
				"x": 0.5155276667,
				"y": 2.7869105348,
				"z": 2.0375995763,
				"element": "C" 
			},
			{
				"x": -0.4870760181,
				"y": 2.3350982079,
				"z": 1.1795853883,
				"element": "C" 
			},
			{
				"x": -2.0212061119,
				"y": -0.3420003009,
				"z": -2.3565477519,
				"element": "C" 
			},
			{
				"x": -2.3008337424,
				"y": -1.6337104163,
				"z": -2.7878493132,
				"element": "C" 
			},
			{
				"x": -2.2823847724,
				"y": -3.5959401063,
				"z": -4.2635484912,
				"element": "H" 
			},
			{
				"x": -0.9738094416,
				"y": -3.3941301441,
				"z": -0.2135957019,
				"element": "H" 
			},
			{
				"x": -0.4470933774,
				"y": -1.0913639869,
				"z": 0.5770063822,
				"element": "H" 
			},
			{
				"x": 1.4432654747,
				"y": 0.5105335336,
				"z": -0.9653783626,
				"element": "H" 
			},
			{
				"x": 2.626875034,
				"y": 2.7648139062,
				"z": 2.508385487,
				"element": "H" 
			},
			{
				"x": 0.2574337502,
				"y": 3.4287175193,
				"z": 2.8743666428,
				"element": "H" 
			},
			{
				"x": -1.5258385514,
				"y": 2.6119088243,
				"z": 1.3214474963,
				"element": "H" 
			},
			{
				"x": -2.3288817957,
				"y": 0.5256641184,
				"z": -2.9298705414,
				"element": "H" 
			},
			{
				"x": -2.863918376,
				"y": -1.7581152332,
				"z": -3.7097538604,
				"element": "H" 
			}
		],
		 "valence_orbital": [ 
			{
				"type": "occ",
				"energy": -0.28053,
				"method": "rhf"
			},
			{
				"type": "occ",
				"energy": -0.27681,
				"method": "rhf"
			},
			{
				"type": "occ",
				"energy": -0.26909,
				"method": "rhf"
			},
			{
				"type": "occ",
				"energy": -0.25584,
				"method": "rhf"
			},
			{
				"type": "occ",
				"energy": -0.24194,
				"method": "rhf"
			},
			{
				"type": "unocc",
				"energy": -0.05003,
				"method": "rhf"
			},
			{
				"type": "unocc",
				"energy": -0.03429,
				"method": "rhf"
			},
			{
				"type": "unocc",
				"energy": -0.02241,
				"method": "rhf"
			},
			{
				"type": "unocc",
				"energy": -0.02119,
				"method": "rhf"
			},
			{
				"type": "unocc",
				"energy": -0.00387,
				"method": "rhf"
			}
		],
		"cosmo_sigma_profile": { 
			"-0.025": 0.0,
			"-0.024": 0.0,
			"-0.023": 0.0,
			"-0.022": 0.0,
			"-0.021": 0.0,
			"-0.02": 0.0,
			"-0.019": 0.169056290231,
			"-0.018": 0.782120565065,
			"-0.017": 1.10104565681,
			"-0.016": 0.765188786793,
			"-0.015": 1.32414775455,
			"-0.014": 0.815113285569,
			"-0.013": 0.637727732116,
			"-0.012": 1.39934518593,
			"-0.011": 1.25473288016,
			"-0.01": 1.2764364126,
			"-0.009": 1.12597191301,
			"-0.008": 3.83760340032,
			"-0.007": 11.811065937,
			"-0.006": 14.7192559213,
			"-0.005": 15.4778224994,
			"-0.004": 14.0426546787,
			"-0.003": 15.8621543667,
			"-0.002": 15.1542449717,
			"-0.001": 17.5978642093,
			"0.0": 18.9310376466,
			"0.001": 24.2262524501,
			"0.002": 33.8827001026,
			"0.003": 26.0012391671,
			"0.004": 16.9318383304,
			"0.005": 6.56788182832,
			"0.006": 3.55786769332,
			"0.007": 4.01243404666,
			"0.008": 3.37580942546,
			"0.009": 2.92646555921,
			"0.01": 4.70270792775,
			"0.011": 5.10013071878,
			"0.012": 5.24664591718,
			"0.013": 1.93545033224,
			"0.014": 0.198817919076,
			"0.015": 0.0,
			"0.016": 0.0,
			"0.017": 0.0,
			"0.018": 0.0,
			"0.019": 0.0,
			"0.02": 0.0,
			"0.021": 0.0,
			"0.022": 0.0,
			"0.023": 0.0,
			"0.024": 0.0,
			"0.025": 0.0
		}
	}
}
