{
	 "smiles": "OC(=O)C1=CC(OCC2=CC=C(F)C=C2)=CC=C1", 
	 "Tm": 417.15, 
	 "num_atms": 29, 
	 "gaussian": { 
		 "optdone": 1, 
		 "sigma_profile": "yes", 
		 "theory": "DFT", 
		 "functional": "B3LYP", 
		 "basiset": "6-31G**", 
		 "properties": { 
			 "R2extent": 5453.4514, 
			 "electric_dipole_moment_norm": 2.4016411493, 
			 "electric_quadrupole_moment_norm": 16.2549731249, 
			 "total_energy": -865.635057673, 
			 "HOMO_LUMO_gap": 0.18281, 
			 "cosmo_polarized_energy": -12.32, 
			 "cosmo_cavitation_energy": 34.71, 
			 "cosmo_dispersion_energy": -24.06, 
			 "cosmo_repulsion_energy": 1.85, 
			 "cosmo_total_nonelectrostatic_energy": 12.5, 
			 "SMD_solvation_energy": 7.76 
		},
		"coords": [
			{
				"x": 2.2788888704,
				"y": -2.2119456906,
				"z": -1.203238954,
				"element": "O" 
			},
			{
				"x": 1.554606368,
				"y": -3.1751258975,
				"z": -0.5762991918,
				"element": "C" 
			},
			{
				"x": 1.9696545578,
				"y": -4.3108969463,
				"z": -0.4546487842,
				"element": "O" 
			},
			{
				"x": 0.239885535,
				"y": -2.6896570757,
				"z": -0.0778658232,
				"element": "C" 
			},
			{
				"x": -0.155746811,
				"y": -1.3529871894,
				"z": -0.2463867845,
				"element": "C" 
			},
			{
				"x": -1.4006825047,
				"y": -0.9435962747,
				"z": 0.2364188186,
				"element": "C" 
			},
			{
				"x": -1.9076706235,
				"y": 0.3229136044,
				"z": 0.1199745248,
				"element": "O" 
			},
			{
				"x": -1.188428174,
				"y": 1.2984637319,
				"z": -0.6333786401,
				"element": "C" 
			},
			{
				"x": -0.0150818823,
				"y": 1.9093408752,
				"z": 0.1080252904,
				"element": "C" 
			},
			{
				"x": 1.1154379489,
				"y": 2.3434417398,
				"z": -0.5937505526,
				"element": "C" 
			},
			{
				"x": 2.1760625588,
				"y": 2.9650821946,
				"z": 0.0662995947,
				"element": "C" 
			},
			{
				"x": 2.0920155508,
				"y": 3.1378292993,
				"z": 1.4426248103,
				"element": "C" 
			},
			{
				"x": 3.115103054,
				"y": 3.7312355553,
				"z": 2.0917753451,
				"element": "F" 
			},
			{
				"x": 0.9862533049,
				"y": 2.712158538,
				"z": 2.1712248975,
				"element": "C" 
			},
			{
				"x": -0.0680062993,
				"y": 2.1014127435,
				"z": 1.4943111216,
				"element": "C" 
			},
			{
				"x": -2.2347654688,
				"y": -1.8631791139,
				"z": 0.8909093409,
				"element": "C" 
			},
			{
				"x": -1.8282433071,
				"y": -3.1836912309,
				"z": 1.0553296447,
				"element": "C" 
			},
			{
				"x": -0.5907317522,
				"y": -3.607821038,
				"z": 0.570982803,
				"element": "C" 
			},
			{
				"x": 3.1057430625,
				"y": -2.6433662415,
				"z": -1.4739316124,
				"element": "H" 
			},
			{
				"x": 0.5199193755,
				"y": -0.6608420045,
				"z": -0.7290210835,
				"element": "H" 
			},
			{
				"x": -0.8631181557,
				"y": 0.8792088409,
				"z": -1.5944852216,
				"element": "H" 
			},
			{
				"x": -1.9393252705,
				"y": 2.0662351101,
				"z": -0.8494362775,
				"element": "H" 
			},
			{
				"x": 1.1744347198,
				"y": 2.1945514741,
				"z": -1.6693002147,
				"element": "H" 
			},
			{
				"x": 3.0591516351,
				"y": 3.3034390059,
				"z": -0.4646401296,
				"element": "H" 
			},
			{
				"x": 0.9630667869,
				"y": 2.8620184998,
				"z": 3.2452434539,
				"element": "H" 
			},
			{
				"x": -0.9381617433,
				"y": 1.7591485398,
				"z": 2.0453307614,
				"element": "H" 
			},
			{
				"x": -3.1967034525,
				"y": -1.5177301007,
				"z": 1.2558165237,
				"element": "H" 
			},
			{
				"x": -2.4835334604,
				"y": -3.8860534641,
				"z": 1.5616765828,
				"element": "H" 
			},
			{
				"x": -0.253324423,
				"y": -4.6313874848,
				"z": 0.6858397562,
				"element": "H" 
			}
		],
		 "valence_orbital": [ 
			{
				"type": "occ",
				"energy": -0.27497,
				"method": "rhf"
			},
			{
				"type": "occ",
				"energy": -0.26649,
				"method": "rhf"
			},
			{
				"type": "occ",
				"energy": -0.26266,
				"method": "rhf"
			},
			{
				"type": "occ",
				"energy": -0.24577,
				"method": "rhf"
			},
			{
				"type": "occ",
				"energy": -0.23031,
				"method": "rhf"
			},
			{
				"type": "unocc",
				"energy": -0.0475,
				"method": "rhf"
			},
			{
				"type": "unocc",
				"energy": -0.01849,
				"method": "rhf"
			},
			{
				"type": "unocc",
				"energy": -0.00845,
				"method": "rhf"
			},
			{
				"type": "unocc",
				"energy": 0.00161,
				"method": "rhf"
			},
			{
				"type": "unocc",
				"energy": 0.06124,
				"method": "rhf"
			}
		],
		"cosmo_sigma_profile": { 
			"-0.025": 0.0,
			"-0.024": 0.0,
			"-0.023": 0.0,
			"-0.022": 0.0,
			"-0.021": 0.0,
			"-0.02": 0.0,
			"-0.019": 0.0748307814078,
			"-0.018": 0.742159186531,
			"-0.017": 0.781244940716,
			"-0.016": 1.0653256863,
			"-0.015": 0.932261928592,
			"-0.014": 0.658358716044,
			"-0.013": 0.234838929949,
			"-0.012": 0.621851089294,
			"-0.011": 0.808563927358,
			"-0.01": 0.778939633662,
			"-0.009": 0.288208132516,
			"-0.008": 1.47394301791,
			"-0.007": 11.2570231478,
			"-0.006": 16.8032833251,
			"-0.005": 19.0098004388,
			"-0.004": 17.128540464,
			"-0.003": 14.2281345181,
			"-0.002": 15.9035269369,
			"-0.001": 14.2683299716,
			"0.0": 18.4136185796,
			"0.001": 24.8043589283,
			"0.002": 26.7496744365,
			"0.003": 30.4569179569,
			"0.004": 27.6252975492,
			"0.005": 9.16779801045,
			"0.006": 4.3190292007,
			"0.007": 3.61784788366,
			"0.008": 2.64991571743,
			"0.009": 2.79753633444,
			"0.01": 2.64638936471,
			"0.011": 3.6292036132,
			"0.012": 4.0495153929,
			"0.013": 0.0957903193955,
			"0.014": 0.0,
			"0.015": 0.0,
			"0.016": 0.0,
			"0.017": 0.0,
			"0.018": 0.0,
			"0.019": 0.0,
			"0.02": 0.0,
			"0.021": 0.0,
			"0.022": 0.0,
			"0.023": 0.0,
			"0.024": 0.0,
			"0.025": 0.0
		}
	}
}
