{
	 "smiles": "ClC1=CC=C(Cl)C(I)=C1", 
	 "Tm": 294.65, 
	 "num_atms": 12, 
	 "gaussian": { 
		 "optdone": 1, 
		 "sigma_profile": "no", 
		 "theory": "DFT", 
		 "functional": "B3LYP", 
		 "basiset": "6-31G**", 
		 "properties": { 
			 "R2extent": 2325.9279, 
			 "electric_dipole_moment_norm": 1.08534494056, 
			 "electric_quadrupole_moment_norm": 7.22666729828, 
			 "total_energy": -1162.21046468, 
			 "HOMO_LUMO_gap": 0.19328, 
			 "cosmo_polarized_energy": -89241.39, 
			 "cosmo_cavitation_energy": 23.05, 
			 "cosmo_dispersion_energy": -18.78, 
			 "cosmo_repulsion_energy": 1.5, 
			 "cosmo_total_nonelectrostatic_energy": 5.77, 
			 "SMD_solvation_energy": 2.58 
		},
		"coords": [
			{
				"x": -1.2909739227,
				"y": 2.3472395928,
				"z": -1.254058216,
				"element": "Cl" 
			},
			{
				"x": -0.8889997174,
				"y": 0.7156890141,
				"z": -0.7548801699,
				"element": "C" 
			},
			{
				"x": 0.4326670774,
				"y": 0.2774510102,
				"z": -0.8248986157,
				"element": "C" 
			},
			{
				"x": 0.7351744379,
				"y": -1.0201436327,
				"z": -0.4249729628,
				"element": "C" 
			},
			{
				"x": -0.2666042384,
				"y": -1.8771410647,
				"z": 0.0412349287,
				"element": "C" 
			},
			{
				"x": 0.1944463125,
				"y": -3.4910884431,
				"z": 0.5244506042,
				"element": "Cl" 
			},
			{
				"x": -1.5923487928,
				"y": -1.4260299238,
				"z": 0.1074694633,
				"element": "C" 
			},
			{
				"x": -3.1719832552,
				"y": -2.64497709,
				"z": 0.7966470726,
				"element": "I" 
			},
			{
				"x": -1.9019383827,
				"y": -0.1221767064,
				"z": -0.2934569721,
				"element": "C" 
			},
			{
				"x": 1.21210206,
				"y": 0.9385788303,
				"z": -1.1856462633,
				"element": "H" 
			},
			{
				"x": 1.7567008754,
				"y": -1.3808005638,
				"z": -0.4714737612,
				"element": "H" 
			},
			{
				"x": -2.922342454,
				"y": 0.2368989771,
				"z": -0.2466151078,
				"element": "H" 
			}
		],
		 "valence_orbital": [ 
			{
				"type": "occ",
				"energy": -0.32599,
				"method": "rhf"
			},
			{
				"type": "occ",
				"energy": -0.31102,
				"method": "rhf"
			},
			{
				"type": "occ",
				"energy": -0.27512,
				"method": "rhf"
			},
			{
				"type": "occ",
				"energy": -0.26462,
				"method": "rhf"
			},
			{
				"type": "occ",
				"energy": -0.2513,
				"method": "rhf"
			},
			{
				"type": "unocc",
				"energy": -0.05802,
				"method": "rhf"
			},
			{
				"type": "unocc",
				"energy": -0.04041,
				"method": "rhf"
			},
			{
				"type": "unocc",
				"energy": -0.03674,
				"method": "rhf"
			},
			{
				"type": "unocc",
				"energy": 0.01932,
				"method": "rhf"
			},
			{
				"type": "unocc",
				"energy": 0.02725,
				"method": "rhf"
			}
		],
		"cosmo_sigma_profile": { 
			"0.0": 0.0,
			"0.0": 0.0,
			"0.0": 0.0,
			"0.0": 0.0,
			"0.0": 0.0,
			"0.0": 0.0,
			"0.0": 0.0,
			"0.0": 0.0,
			"0.0": 0.0,
			"0.0": 0.0,
			"0.0": 0.0,
			"0.0": 0.0,
			"0.0": 0.0,
			"0.0": 0.0,
			"0.0": 0.0,
			"0.0": 0.0,
			"0.0": 0.0,
			"0.0": 0.0,
			"0.0": 0.0,
			"0.0": 0.0,
			"0.0": 0.0,
			"0.0": 0.0,
			"0.0": 0.0,
			"0.0": 0.0,
			"0.0": 0.0,
			"0.0": 0.0,
			"0.0": 0.0,
			"0.0": 0.0,
			"0.0": 0.0,
			"0.0": 0.0,
			"0.0": 0.0,
			"0.0": 0.0,
			"0.0": 0.0,
			"0.0": 0.0,
			"0.0": 0.0,
			"0.0": 0.0,
			"0.0": 0.0,
			"0.0": 0.0,
			"0.0": 0.0,
			"0.0": 0.0,
			"0.0": 0.0,
			"0.0": 0.0,
			"0.0": 0.0,
			"0.0": 0.0,
			"0.0": 0.0,
			"0.0": 0.0,
			"0.0": 0.0,
			"0.0": 0.0,
			"0.0": 0.0,
			"0.0": 0.0,
			"0.0": 0.0
		}
	}
}
