{
	 "smiles": "CC(=C)C(=O)OCCCCOC(=O)C(C)=C", 
	 "Tm": 499.15, 
	 "num_atms": 34, 
	 "gaussian": { 
		 "optdone": 1, 
		 "sigma_profile": "yes", 
		 "theory": "DFT", 
		 "functional": "B3LYP", 
		 "basiset": "6-31G**", 
		 "properties": { 
			 "R2extent": 5147.8951, 
			 "electric_dipole_moment_norm": 1.89174091514, 
			 "electric_quadrupole_moment_norm": 16.4750029991, 
			 "total_energy": -769.017100363, 
			 "HOMO_LUMO_gap": 0.22663, 
			 "cosmo_polarized_energy": -12.1, 
			 "cosmo_cavitation_energy": 38.58, 
			 "cosmo_dispersion_energy": -24.61, 
			 "cosmo_repulsion_energy": 1.91, 
			 "cosmo_total_nonelectrostatic_energy": 15.89, 
			 "SMD_solvation_energy": 9.63 
		},
		"coords": [
			{
				"x": 1.3548780888,
				"y": -3.0506881619,
				"z": 0.4179959112,
				"element": "C" 
			},
			{
				"x": 0.239893297,
				"y": -3.8247300269,
				"z": -0.2365720844,
				"element": "C" 
			},
			{
				"x": 0.3962437276,
				"y": -5.0283254883,
				"z": -0.801203913,
				"element": "C" 
			},
			{
				"x": -1.1396878966,
				"y": -3.238450958,
				"z": -0.2602965091,
				"element": "C" 
			},
			{
				"x": -2.1371639834,
				"y": -3.7956986125,
				"z": -0.6744582298,
				"element": "O" 
			},
			{
				"x": -1.1520245492,
				"y": -1.9800108764,
				"z": 0.243265677,
				"element": "O" 
			},
			{
				"x": -2.444111765,
				"y": -1.3326543942,
				"z": 0.2972093447,
				"element": "C" 
			},
			{
				"x": -2.2545385031,
				"y": 0.1062274061,
				"z": 0.7603714709,
				"element": "C" 
			},
			{
				"x": -1.6768771041,
				"y": 1.0772609243,
				"z": -0.2828380174,
				"element": "C" 
			},
			{
				"x": -0.2228765593,
				"y": 0.8396385122,
				"z": -0.6884830103,
				"element": "C" 
			},
			{
				"x": 0.6716178431,
				"y": 0.8915123931,
				"z": 0.4485377173,
				"element": "O" 
			},
			{
				"x": 1.0976452723,
				"y": 2.1215933814,
				"z": 0.8267103176,
				"element": "C" 
			},
			{
				"x": 0.7618529038,
				"y": 3.1483491323,
				"z": 0.268079524,
				"element": "O" 
			},
			{
				"x": 2.0243342092,
				"y": 2.0420193049,
				"z": 2.0027040477,
				"element": "C" 
			},
			{
				"x": 2.3587666277,
				"y": 0.692814835,
				"z": 2.5835932225,
				"element": "C" 
			},
			{
				"x": 2.5080573352,
				"y": 3.1981760993,
				"z": 2.4730836898,
				"element": "C" 
			},
			{
				"x": 1.4810879836,
				"y": -2.062044754,
				"z": -0.0342262785,
				"element": "H" 
			},
			{
				"x": 2.2990039684,
				"y": -3.5958033457,
				"z": 0.339011764,
				"element": "H" 
			},
			{
				"x": 1.1423644863,
				"y": -2.8771485664,
				"z": 1.4785541725,
				"element": "H" 
			},
			{
				"x": 1.3632100401,
				"y": -5.5214464824,
				"z": -0.8252734204,
				"element": "H" 
			},
			{
				"x": -0.4498075507,
				"y": -5.5387344062,
				"z": -1.2485558658,
				"element": "H" 
			},
			{
				"x": -2.9133174313,
				"y": -1.3907806982,
				"z": -0.6908122298,
				"element": "H" 
			},
			{
				"x": -3.0783779526,
				"y": -1.8932884816,
				"z": 0.9920636353,
				"element": "H" 
			},
			{
				"x": -3.2424680933,
				"y": 0.4764097341,
				"z": 1.0611129629,
				"element": "H" 
			},
			{
				"x": -1.6339614233,
				"y": 0.1100528367,
				"z": 1.6634995581,
				"element": "H" 
			},
			{
				"x": -1.760704054,
				"y": 2.102277065,
				"z": 0.0927467057,
				"element": "H" 
			},
			{
				"x": -2.2817880545,
				"y": 1.0320485859,
				"z": -1.1991456558,
				"element": "H" 
			},
			{
				"x": 0.0905855415,
				"y": 1.5936289604,
				"z": -1.4143786246,
				"element": "H" 
			},
			{
				"x": -0.0787580484,
				"y": -0.158628614,
				"z": -1.1017443234,
				"element": "H" 
			},
			{
				"x": 3.0342067858,
				"y": 0.797005233,
				"z": 3.4366068792,
				"element": "H" 
			},
			{
				"x": 1.4563921932,
				"y": 0.1685679174,
				"z": 2.9149503793,
				"element": "H" 
			},
			{
				"x": 2.8362566409,
				"y": 0.0483511304,
				"z": 1.838057029,
				"element": "H" 
			},
			{
				"x": 2.2298571798,
				"y": 4.1384608946,
				"z": 2.0096237447,
				"element": "H" 
			},
			{
				"x": 3.1856088445,
				"y": 3.2255395203,
				"z": 3.3210104087,
				"element": "H" 
			}
		],
		 "valence_orbital": [ 
			{
				"type": "occ",
				"energy": -0.29674,
				"method": "rhf"
			},
			{
				"type": "occ",
				"energy": -0.27126,
				"method": "rhf"
			},
			{
				"type": "occ",
				"energy": -0.27075,
				"method": "rhf"
			},
			{
				"type": "occ",
				"energy": -0.26691,
				"method": "rhf"
			},
			{
				"type": "occ",
				"energy": -0.26599,
				"method": "rhf"
			},
			{
				"type": "unocc",
				"energy": -0.03936,
				"method": "rhf"
			},
			{
				"type": "unocc",
				"energy": -0.03875,
				"method": "rhf"
			},
			{
				"type": "unocc",
				"energy": 0.07708,
				"method": "rhf"
			},
			{
				"type": "unocc",
				"energy": 0.07835,
				"method": "rhf"
			},
			{
				"type": "unocc",
				"energy": 0.08107,
				"method": "rhf"
			}
		],
		"cosmo_sigma_profile": { 
			"-0.025": 0.0,
			"-0.024": 0.0,
			"-0.023": 0.0,
			"-0.022": 0.0,
			"-0.021": 0.0,
			"-0.02": 0.0,
			"-0.019": 0.0,
			"-0.018": 0.0,
			"-0.017": 0.0,
			"-0.016": 0.0,
			"-0.015": 0.0,
			"-0.014": 0.0,
			"-0.013": 0.0,
			"-0.012": 0.0,
			"-0.011": 0.0,
			"-0.01": 0.0,
			"-0.009": 0.0,
			"-0.008": 0.017425854466,
			"-0.007": 0.965717759751,
			"-0.006": 5.67523505349,
			"-0.005": 19.5264542366,
			"-0.004": 35.2788028516,
			"-0.003": 36.4060687167,
			"-0.002": 40.824777695,
			"-0.001": 33.9005134593,
			"0.0": 29.9461321038,
			"0.001": 17.990263117,
			"0.002": 16.0276206623,
			"0.003": 14.6179237875,
			"0.004": 11.1639608258,
			"0.005": 5.97820295369,
			"0.006": 5.08270385583,
			"0.007": 4.04645354083,
			"0.008": 4.08120401003,
			"0.009": 3.25069389534,
			"0.01": 3.28686391656,
			"0.011": 4.44258033711,
			"0.012": 8.85233970764,
			"0.013": 1.81271095759,
			"0.014": 0.0,
			"0.015": 0.0,
			"0.016": 0.0,
			"0.017": 0.0,
			"0.018": 0.0,
			"0.019": 0.0,
			"0.02": 0.0,
			"0.021": 0.0,
			"0.022": 0.0,
			"0.023": 0.0,
			"0.024": 0.0,
			"0.025": 0.0
		}
	}
}
