{
	 "smiles": "C[C@]12CCC3C(CCC4CC(O)(CC[C@]34C)C#C)C1CCC21OCCO1", 
	 "Tm": 479.15, 
	 "num_atms": 60, 
	 "gaussian": { 
		 "optdone": 1, 
		 "sigma_profile": "yes", 
		 "theory": "DFT", 
		 "functional": "B3LYP", 
		 "basiset": "6-31G**", 
		 "properties": { 
			 "R2extent": 11692.6275, 
			 "electric_dipole_moment_norm": 1.04327528007, 
			 "electric_quadrupole_moment_norm": 18.0797599948, 
			 "total_energy": -1122.51428265, 
			 "HOMO_LUMO_gap": 0.27434, 
			 "cosmo_polarized_energy": -11.95, 
			 "cosmo_cavitation_energy": 51.3, 
			 "cosmo_dispersion_energy": -35.33, 
			 "cosmo_repulsion_energy": 2.55, 
			 "cosmo_total_nonelectrostatic_energy": 18.52, 
			 "SMD_solvation_energy": 8.44 
		},
		"coords": [
			{
				"x": -1.2230763016,
				"y": -1.0521287911,
				"z": 2.1648197466,
				"element": "C" 
			},
			{
				"x": 0.1073794744,
				"y": -1.6766361205,
				"z": 1.7211371664,
				"element": "C" 
			},
			{
				"x": 1.1843380264,
				"y": -0.5558198663,
				"z": 1.542220504,
				"element": "C" 
			},
			{
				"x": 1.7926974117,
				"y": -0.4708897488,
				"z": 0.1330669159,
				"element": "C" 
			},
			{
				"x": 0.7959867701,
				"y": -0.5365833496,
				"z": -1.0488612905,
				"element": "C" 
			},
			{
				"x": -0.0906621347,
				"y": -1.8450499871,
				"z": -0.9246242243,
				"element": "C" 
			},
			{
				"x": -1.5520136214,
				"y": -1.7008131832,
				"z": -1.3987127222,
				"element": "C" 
			},
			{
				"x": -1.7083724071,
				"y": -0.652053161,
				"z": -2.4962434034,
				"element": "C" 
			},
			{
				"x": -1.3837755646,
				"y": 0.7201836309,
				"z": -1.8905455062,
				"element": "C" 
			},
			{
				"x": -1.9069941963,
				"y": 1.914519866,
				"z": -2.7271193279,
				"element": "C" 
			},
			{
				"x": -1.0213398551,
				"y": 2.3448755049,
				"z": -3.9112170004,
				"element": "C" 
			},
			{
				"x": -1.040706967,
				"y": 1.2641155827,
				"z": -4.8582623029,
				"element": "O" 
			},
			{
				"x": 0.4164484682,
				"y": 2.5959424127,
				"z": -3.4034665908,
				"element": "C" 
			},
			{
				"x": 0.9548299465,
				"y": 1.3536854204,
				"z": -2.6896303355,
				"element": "C" 
			},
			{
				"x": 0.1191275919,
				"y": 0.8591302497,
				"z": -1.4685338863,
				"element": "C" 
			},
			{
				"x": 0.1801677442,
				"y": 1.9344137119,
				"z": -0.3593603649,
				"element": "C" 
			},
			{
				"x": -1.5617026091,
				"y": 3.5638487206,
				"z": -4.5427535758,
				"element": "C" 
			},
			{
				"x": -1.9777545148,
				"y": 4.5623103613,
				"z": -5.0815231841,
				"element": "C" 
			},
			{
				"x": -0.0151264923,
				"y": -2.5682469231,
				"z": 0.4491886574,
				"element": "C" 
			},
			{
				"x": 1.1462370802,
				"y": -3.6149467572,
				"z": 0.5618220655,
				"element": "C" 
			},
			{
				"x": 1.6806085024,
				"y": -3.531242991,
				"z": 2.0079762074,
				"element": "C" 
			},
			{
				"x": 0.6125384783,
				"y": -2.7214092559,
				"z": 2.7586568006,
				"element": "C" 
			},
			{
				"x": -0.4759919995,
				"y": -3.5655754862,
				"z": 3.1431375441,
				"element": "O" 
			},
			{
				"x": -0.2665018153,
				"y": -3.9170963477,
				"z": 4.5037050639,
				"element": "C" 
			},
			{
				"x": 0.3654272212,
				"y": -2.6473719326,
				"z": 5.0693355064,
				"element": "C" 
			},
			{
				"x": 1.1198449008,
				"y": -2.1513787292,
				"z": 3.9664653206,
				"element": "O" 
			},
			{
				"x": -2.0025295917,
				"y": -1.8074929512,
				"z": 2.2867294823,
				"element": "H" 
			},
			{
				"x": -1.0948467976,
				"y": -0.5344800124,
				"z": 3.1227916941,
				"element": "H" 
			},
			{
				"x": -1.5693802078,
				"y": -0.310772369,
				"z": 1.4381971977,
				"element": "H" 
			},
			{
				"x": 1.9914858819,
				"y": -0.6925352586,
				"z": 2.2681905457,
				"element": "H" 
			},
			{
				"x": 0.7298691046,
				"y": 0.4021287381,
				"z": 1.8047817816,
				"element": "H" 
			},
			{
				"x": 2.4133101597,
				"y": 0.4290544718,
				"z": 0.0593356176,
				"element": "H" 
			},
			{
				"x": 2.4947897264,
				"y": -1.3038523585,
				"z": 0.0065999187,
				"element": "H" 
			},
			{
				"x": 1.4338857818,
				"y": -0.7524337291,
				"z": -1.9099473404,
				"element": "H" 
			},
			{
				"x": 0.3643882861,
				"y": -2.5448998979,
				"z": -1.6377094773,
				"element": "H" 
			},
			{
				"x": -2.200776722,
				"y": -1.4178150789,
				"z": -0.5593520733,
				"element": "H" 
			},
			{
				"x": -1.9062989226,
				"y": -2.6839502891,
				"z": -1.7335449095,
				"element": "H" 
			},
			{
				"x": -1.0678074708,
				"y": -0.8709313705,
				"z": -3.3580351565,
				"element": "H" 
			},
			{
				"x": -2.7381070787,
				"y": -0.6499656361,
				"z": -2.8737154967,
				"element": "H" 
			},
			{
				"x": -1.9721669677,
				"y": 0.7633565525,
				"z": -0.9613582707,
				"element": "H" 
			},
			{
				"x": -2.9034465159,
				"y": 1.6754246286,
				"z": -3.1131701152,
				"element": "H" 
			},
			{
				"x": -2.025093104,
				"y": 2.7931268684,
				"z": -2.0843736706,
				"element": "H" 
			},
			{
				"x": -0.5690215928,
				"y": 1.5624866352,
				"z": -5.6481357683,
				"element": "H" 
			},
			{
				"x": 1.0592176275,
				"y": 2.8492433353,
				"z": -4.2563832136,
				"element": "H" 
			},
			{
				"x": 0.4138010411,
				"y": 3.4754750024,
				"z": -2.7504396445,
				"element": "H" 
			},
			{
				"x": 1.9871306424,
				"y": 1.5352559112,
				"z": -2.363499561,
				"element": "H" 
			},
			{
				"x": 0.9993171735,
				"y": 0.54847705,
				"z": -3.4305864493,
				"element": "H" 
			},
			{
				"x": -0.2379217159,
				"y": 2.8819545394,
				"z": -0.7111077046,
				"element": "H" 
			},
			{
				"x": 1.202535478,
				"y": 2.1436363449,
				"z": -0.0330233547,
				"element": "H" 
			},
			{
				"x": -0.4032463841,
				"y": 1.6410045489,
				"z": 0.5168883385,
				"element": "H" 
			},
			{
				"x": -2.3576990002,
				"y": 5.438972101,
				"z": -5.5530405127,
				"element": "H" 
			},
			{
				"x": -0.9482984954,
				"y": -3.1321294356,
				"z": 0.561558452,
				"element": "H" 
			},
			{
				"x": 0.765271251,
				"y": -4.6154588591,
				"z": 0.3346812455,
				"element": "H" 
			},
			{
				"x": 1.9403261854,
				"y": -3.4147839278,
				"z": -0.163569357,
				"element": "H" 
			},
			{
				"x": 2.631714598,
				"y": -2.9924320916,
				"z": 2.0560453806,
				"element": "H" 
			},
			{
				"x": 1.833743045,
				"y": -4.5063117403,
				"z": 2.4795787464,
				"element": "H" 
			},
			{
				"x": -1.2305918395,
				"y": -4.1768686504,
				"z": 4.9484016493,
				"element": "H" 
			},
			{
				"x": 0.4151317852,
				"y": -4.7766619405,
				"z": 4.5949558763,
				"element": "H" 
			},
			{
				"x": -0.4006345488,
				"y": -1.9213489985,
				"z": 5.3752183554,
				"element": "H" 
			},
			{
				"x": 1.0415360505,
				"y": -2.8287549629,
				"z": 5.9107600109,
				"element": "H" 
			}
		],
		 "valence_orbital": [ 
			{
				"type": "occ",
				"energy": -0.26644,
				"method": "rhf"
			},
			{
				"type": "occ",
				"energy": -0.26361,
				"method": "rhf"
			},
			{
				"type": "occ",
				"energy": -0.26203,
				"method": "rhf"
			},
			{
				"type": "occ",
				"energy": -0.25668,
				"method": "rhf"
			},
			{
				"type": "occ",
				"energy": -0.23651,
				"method": "rhf"
			},
			{
				"type": "unocc",
				"energy": 0.03783,
				"method": "rhf"
			},
			{
				"type": "unocc",
				"energy": 0.05546,
				"method": "rhf"
			},
			{
				"type": "unocc",
				"energy": 0.06635,
				"method": "rhf"
			},
			{
				"type": "unocc",
				"energy": 0.07878,
				"method": "rhf"
			},
			{
				"type": "unocc",
				"energy": 0.08591,
				"method": "rhf"
			}
		],
		"cosmo_sigma_profile": { 
			"-0.025": 0.0,
			"-0.024": 0.0,
			"-0.023": 0.0,
			"-0.022": 0.0,
			"-0.021": 0.0,
			"-0.02": 0.0,
			"-0.019": 0.0,
			"-0.018": 0.0,
			"-0.017": 0.0,
			"-0.016": 0.0654708715694,
			"-0.015": 0.751190660639,
			"-0.014": 0.724660708409,
			"-0.013": 1.12427268076,
			"-0.012": 0.99861237019,
			"-0.011": 1.78891295687,
			"-0.01": 2.22162991068,
			"-0.009": 1.37229889739,
			"-0.008": 2.51054571284,
			"-0.007": 1.57826903567,
			"-0.006": 4.78854527045,
			"-0.005": 10.6960058693,
			"-0.004": 20.7905999836,
			"-0.003": 30.3315554558,
			"-0.002": 52.3723011684,
			"-0.001": 60.4027914508,
			"0.0": 61.7276417297,
			"0.001": 42.178148064,
			"0.002": 25.565272934,
			"0.003": 11.8591796376,
			"0.004": 8.87646289913,
			"0.005": 9.97412006887,
			"0.006": 12.4128495158,
			"0.007": 10.0259108856,
			"0.008": 4.73212480488,
			"0.009": 4.49129990811,
			"0.01": 2.73565351633,
			"0.011": 3.87258665176,
			"0.012": 2.83401823803,
			"0.013": 0.750142937192,
			"0.014": 0.232667691585,
			"0.015": 0.0,
			"0.016": 0.0,
			"0.017": 0.0,
			"0.018": 0.0,
			"0.019": 0.0,
			"0.02": 0.0,
			"0.021": 0.0,
			"0.022": 0.0,
			"0.023": 0.0,
			"0.024": 0.0,
			"0.025": 0.0
		}
	}
}
