{
	 "smiles": "CC1(C)CN(CC(N)=NO)CCO1", 
	 "Tm": 349.15, 
	 "num_atms": 30, 
	 "gaussian": { 
		 "optdone": 1, 
		 "sigma_profile": "yes", 
		 "theory": "DFT", 
		 "functional": "B3LYP", 
		 "basiset": "6-31G**", 
		 "properties": { 
			 "R2extent": 3341.2046, 
			 "electric_dipole_moment_norm": 1.00129698392, 
			 "electric_quadrupole_moment_norm": 10.7771683099, 
			 "total_energy": -629.742034764, 
			 "HOMO_LUMO_gap": 0.24536, 
			 "cosmo_polarized_energy": -12.45, 
			 "cosmo_cavitation_energy": 30.82, 
			 "cosmo_dispersion_energy": -21.98, 
			 "cosmo_repulsion_energy": 1.76, 
			 "cosmo_total_nonelectrostatic_energy": 10.6, 
			 "SMD_solvation_energy": 4.51 
		},
		"coords": [
			{
				"x": 2.195459089,
				"y": -1.0984346182,
				"z": 2.3707917016,
				"element": "C" 
			},
			{
				"x": 0.9647021077,
				"y": -0.5968617556,
				"z": 1.6146766148,
				"element": "C" 
			},
			{
				"x": 0.4904327266,
				"y": 0.7482814649,
				"z": 2.1880759781,
				"element": "C" 
			},
			{
				"x": 1.2755929291,
				"y": -0.4917622757,
				"z": 0.1071080352,
				"element": "C" 
			},
			{
				"x": 0.0571332073,
				"y": -0.2714622228,
				"z": -0.6765793939,
				"element": "N" 
			},
			{
				"x": 0.3447507841,
				"y": -0.0702657093,
				"z": -2.0999409372,
				"element": "C" 
			},
			{
				"x": -0.8436377991,
				"y": 0.5192163507,
				"z": -2.8199898899,
				"element": "C" 
			},
			{
				"x": -1.4018262896,
				"y": 1.6405537753,
				"z": -2.2575563813,
				"element": "N" 
			},
			{
				"x": -1.2010983869,
				"y": -0.0296602329,
				"z": -3.9307559162,
				"element": "N" 
			},
			{
				"x": -2.3081015174,
				"y": 0.693576345,
				"z": -4.4751438868,
				"element": "O" 
			},
			{
				"x": -0.8766421751,
				"y": -1.3803229422,
				"z": -0.4522743011,
				"element": "C" 
			},
			{
				"x": -1.2032335677,
				"y": -1.4729685857,
				"z": 1.0337547215,
				"element": "C" 
			},
			{
				"x": -0.0291165489,
				"y": -1.620664621,
				"z": 1.819987535,
				"element": "O" 
			},
			{
				"x": 1.9690519536,
				"y": -1.1866849374,
				"z": 3.4371823944,
				"element": "H" 
			},
			{
				"x": 2.492127736,
				"y": -2.084569335,
				"z": 2.0026011332,
				"element": "H" 
			},
			{
				"x": 3.0370083717,
				"y": -0.4087169512,
				"z": 2.2509715165,
				"element": "H" 
			},
			{
				"x": 0.1531040671,
				"y": 0.612870616,
				"z": 3.2198449676,
				"element": "H" 
			},
			{
				"x": 1.3098798455,
				"y": 1.4745696044,
				"z": 2.185785886,
				"element": "H" 
			},
			{
				"x": -0.3278133225,
				"y": 1.171724436,
				"z": 1.6014789289,
				"element": "H" 
			},
			{
				"x": 1.79038857,
				"y": -1.4190662991,
				"z": -0.20871593,
				"element": "H" 
			},
			{
				"x": 1.9627002833,
				"y": 0.3441403607,
				"z": -0.0674475637,
				"element": "H" 
			},
			{
				"x": 0.6410620925,
				"y": -0.995497922,
				"z": -2.6195270449,
				"element": "H" 
			},
			{
				"x": 1.1809950934,
				"y": 0.636667607,
				"z": -2.171458799,
				"element": "H" 
			},
			{
				"x": -2.3069862451,
				"y": 1.8983999089,
				"z": -2.6243578236,
				"element": "H" 
			},
			{
				"x": -1.2847709099,
				"y": 1.6974572279,
				"z": -1.254832837,
				"element": "H" 
			},
			{
				"x": -2.5077026939,
				"y": 0.1798057227,
				"z": -5.266592279,
				"element": "H" 
			},
			{
				"x": -0.4437260537,
				"y": -2.3390714913,
				"z": -0.7957085729,
				"element": "H" 
			},
			{
				"x": -1.7922093376,
				"y": -1.2055466403,
				"z": -1.0272207779,
				"element": "H" 
			},
			{
				"x": -1.7784174188,
				"y": -0.5867044094,
				"z": 1.3410985818,
				"element": "H" 
			},
			{
				"x": -1.8141065909,
				"y": -2.3583024705,
				"z": 1.2353443397,
				"element": "H" 
			}
		],
		 "valence_orbital": [ 
			{
				"type": "occ",
				"energy": -0.29536,
				"method": "rhf"
			},
			{
				"type": "occ",
				"energy": -0.26717,
				"method": "rhf"
			},
			{
				"type": "occ",
				"energy": -0.25477,
				"method": "rhf"
			},
			{
				"type": "occ",
				"energy": -0.22867,
				"method": "rhf"
			},
			{
				"type": "occ",
				"energy": -0.20831,
				"method": "rhf"
			},
			{
				"type": "unocc",
				"energy": 0.03705,
				"method": "rhf"
			},
			{
				"type": "unocc",
				"energy": 0.06821,
				"method": "rhf"
			},
			{
				"type": "unocc",
				"energy": 0.08588,
				"method": "rhf"
			},
			{
				"type": "unocc",
				"energy": 0.1024,
				"method": "rhf"
			},
			{
				"type": "unocc",
				"energy": 0.10553,
				"method": "rhf"
			}
		],
		"cosmo_sigma_profile": { 
			"-0.025": 0.0,
			"-0.024": 0.0,
			"-0.023": 0.0,
			"-0.022": 0.0,
			"-0.021": 0.0,
			"-0.02": 0.0,
			"-0.019": 0.0,
			"-0.018": 0.0,
			"-0.017": 0.0434198626473,
			"-0.016": 0.828813358054,
			"-0.015": 0.971038223615,
			"-0.014": 0.640889890635,
			"-0.013": 0.985358262593,
			"-0.012": 0.786037742609,
			"-0.011": 1.18542873824,
			"-0.01": 2.00392670133,
			"-0.009": 3.00971730083,
			"-0.008": 2.15495129647,
			"-0.007": 2.08571414047,
			"-0.006": 3.88658243376,
			"-0.005": 8.39890279158,
			"-0.004": 18.0614545168,
			"-0.003": 30.4055000506,
			"-0.002": 33.0897337708,
			"-0.001": 26.1194871413,
			"0.0": 20.645051088,
			"0.001": 18.7454100605,
			"0.002": 9.17481913569,
			"0.003": 5.53826324493,
			"0.004": 5.18541294219,
			"0.005": 4.98023070797,
			"0.006": 4.81788581197,
			"0.007": 5.2974847421,
			"0.008": 5.19053281878,
			"0.009": 5.79176310577,
			"0.01": 4.67402005248,
			"0.011": 3.55702132498,
			"0.012": 3.29032061384,
			"0.013": 3.74933095985,
			"0.014": 1.31051465769,
			"0.015": 0.96301809157,
			"0.016": 0.277976520293,
			"0.017": 0.0,
			"0.018": 0.0,
			"0.019": 0.0,
			"0.02": 0.0,
			"0.021": 0.0,
			"0.022": 0.0,
			"0.023": 0.0,
			"0.024": 0.0,
			"0.025": 0.0
		}
	}
}
