{
	 "smiles": "[O-][N+](=O)C1=CC=C(C=C1)C1=NN(C(=O)C1=N/NC1=CC=CC=C1)C1=CC=CC=C1", 
	 "Tm": 513.15, 
	 "num_atms": 44, 
	 "gaussian": { 
		 "optdone": 1, 
		 "sigma_profile": "yes", 
		 "theory": "DFT", 
		 "functional": "B3LYP", 
		 "basiset": "6-31G**", 
		 "properties": { 
			 "R2extent": 15893.1297, 
			 "electric_dipole_moment_norm": 5.93604000745, 
			 "electric_quadrupole_moment_norm": 36.8404010676, 
			 "total_energy": -1308.5739361, 
			 "HOMO_LUMO_gap": 0.10923, 
			 "cosmo_polarized_energy": -14.42, 
			 "cosmo_cavitation_energy": 50.63, 
			 "cosmo_dispersion_energy": -36.21, 
			 "cosmo_repulsion_energy": 2.63, 
			 "cosmo_total_nonelectrostatic_energy": 17.05, 
			 "SMD_solvation_energy": 9.99 
		},
		"coords": [
			{
				"x": -4.2383379931,
				"y": 3.0076708484,
				"z": 4.5385288464,
				"element": "O" 
			},
			{
				"x": -3.7344581037,
				"y": 3.6072108529,
				"z": 3.5881363097,
				"element": "N" 
			},
			{
				"x": -3.8762623765,
				"y": 4.8095306749,
				"z": 3.3638986851,
				"element": "O" 
			},
			{
				"x": -2.9050288514,
				"y": 2.8329864336,
				"z": 2.6551413039,
				"element": "C" 
			},
			{
				"x": -2.3175194236,
				"y": 3.4829936058,
				"z": 1.5683947601,
				"element": "C" 
			},
			{
				"x": -1.5332222746,
				"y": 2.7466019048,
				"z": 0.6927638289,
				"element": "C" 
			},
			{
				"x": -1.3316291165,
				"y": 1.3660993356,
				"z": 0.8915453064,
				"element": "C" 
			},
			{
				"x": -1.9384862111,
				"y": 0.7398574659,
				"z": 1.9950149102,
				"element": "C" 
			},
			{
				"x": -2.7254475331,
				"y": 1.4704041196,
				"z": 2.8794794345,
				"element": "C" 
			},
			{
				"x": -0.5039720648,
				"y": 0.6101442225,
				"z": -0.0588761009,
				"element": "C" 
			},
			{
				"x": -0.1014771843,
				"y": 1.1712094914,
				"z": -1.1748618698,
				"element": "N" 
			},
			{
				"x": 0.6612977334,
				"y": 0.2580983184,
				"z": -1.8850961849,
				"element": "N" 
			},
			{
				"x": 0.7660362495,
				"y": -0.952730721,
				"z": -1.2192552897,
				"element": "C" 
			},
			{
				"x": 1.3693409418,
				"y": -1.9816562746,
				"z": -1.5659131885,
				"element": "O" 
			},
			{
				"x": -0.003076336,
				"y": -0.7500540374,
				"z": 0.0154633135,
				"element": "C" 
			},
			{
				"x": -0.1624824171,
				"y": -1.6325435968,
				"z": 0.98005322,
				"element": "N" 
			},
			{
				"x": 0.3964669396,
				"y": -2.8059810527,
				"z": 0.8262046995,
				"element": "N" 
			},
			{
				"x": 0.3034120059,
				"y": -3.8122692013,
				"z": 1.8011366164,
				"element": "C" 
			},
			{
				"x": 0.8887404554,
				"y": -5.0522699061,
				"z": 1.5096802028,
				"element": "C" 
			},
			{
				"x": 0.8234359621,
				"y": -6.0820724873,
				"z": 2.4451868606,
				"element": "C" 
			},
			{
				"x": 0.1788971188,
				"y": -5.8843374111,
				"z": 3.6678297972,
				"element": "C" 
			},
			{
				"x": -0.3999875731,
				"y": -4.6433473011,
				"z": 3.9502604293,
				"element": "C" 
			},
			{
				"x": -0.3421904382,
				"y": -3.6030219251,
				"z": 3.027204217,
				"element": "C" 
			},
			{
				"x": 1.1983109863,
				"y": 0.6361506562,
				"z": -3.1460913704,
				"element": "C" 
			},
			{
				"x": 2.0142993148,
				"y": -0.2467160133,
				"z": -3.8689796975,
				"element": "C" 
			},
			{
				"x": 2.5261920231,
				"y": 0.1551427225,
				"z": -5.1024901638,
				"element": "C" 
			},
			{
				"x": 2.2395080392,
				"y": 1.4173063631,
				"z": -5.6230358347,
				"element": "C" 
			},
			{
				"x": 1.4263590616,
				"y": 2.2871529446,
				"z": -4.8941323471,
				"element": "C" 
			},
			{
				"x": 0.9034115851,
				"y": 1.9063255468,
				"z": -3.660693801,
				"element": "C" 
			},
			{
				"x": -2.4809941332,
				"y": 4.5444945257,
				"z": 1.4314308219,
				"element": "H" 
			},
			{
				"x": -1.06260665,
				"y": 3.2291219437,
				"z": -0.1557729946,
				"element": "H" 
			},
			{
				"x": -1.792290702,
				"y": -0.3206800782,
				"z": 2.1547651716,
				"element": "H" 
			},
			{
				"x": -3.2017340956,
				"y": 1.0051296205,
				"z": 3.7332328736,
				"element": "H" 
			},
			{
				"x": 0.9239142075,
				"y": -2.9704475393,
				"z": -0.0428815519,
				"element": "H" 
			},
			{
				"x": 1.3874903608,
				"y": -5.2044847571,
				"z": 0.5562451945,
				"element": "H" 
			},
			{
				"x": 1.2775311361,
				"y": -7.0410175282,
				"z": 2.2151666213,
				"element": "H" 
			},
			{
				"x": 0.1289254724,
				"y": -6.6882355472,
				"z": 4.3953503372,
				"element": "H" 
			},
			{
				"x": -0.8996408613,
				"y": -4.4815776069,
				"z": 4.900716876,
				"element": "H" 
			},
			{
				"x": -0.7816305235,
				"y": -2.6371421943,
				"z": 3.2439544985,
				"element": "H" 
			},
			{
				"x": 2.2372568034,
				"y": -1.2257806674,
				"z": -3.4685038728,
				"element": "H" 
			},
			{
				"x": 3.1573350025,
				"y": -0.5324904581,
				"z": -5.6580083235,
				"element": "H" 
			},
			{
				"x": 2.6437985256,
				"y": 1.7197691352,
				"z": -6.584226308,
				"element": "H" 
			},
			{
				"x": 1.1928984431,
				"y": 3.2730171035,
				"z": -5.2857104645,
				"element": "H" 
			},
			{
				"x": 0.2717164947,
				"y": 2.5763384692,
				"z": -3.0926557724,
				"element": "H" 
			}
		],
		 "valence_orbital": [ 
			{
				"type": "occ",
				"energy": -0.2691,
				"method": "rhf"
			},
			{
				"type": "occ",
				"energy": -0.2677,
				"method": "rhf"
			},
			{
				"type": "occ",
				"energy": -0.25484,
				"method": "rhf"
			},
			{
				"type": "occ",
				"energy": -0.23355,
				"method": "rhf"
			},
			{
				"type": "occ",
				"energy": -0.21885,
				"method": "rhf"
			},
			{
				"type": "unocc",
				"energy": -0.10962,
				"method": "rhf"
			},
			{
				"type": "unocc",
				"energy": -0.08641,
				"method": "rhf"
			},
			{
				"type": "unocc",
				"energy": -0.03122,
				"method": "rhf"
			},
			{
				"type": "unocc",
				"energy": -0.02426,
				"method": "rhf"
			},
			{
				"type": "unocc",
				"energy": -0.02347,
				"method": "rhf"
			}
		],
		"cosmo_sigma_profile": { 
			"-0.025": 0.0,
			"-0.024": 0.0,
			"-0.023": 0.0,
			"-0.022": 0.0,
			"-0.021": 0.0,
			"-0.02": 0.0,
			"-0.019": 0.0,
			"-0.018": 0.0,
			"-0.017": 0.0,
			"-0.016": 0.0,
			"-0.015": 0.0,
			"-0.014": 0.0,
			"-0.013": 0.000308780312488,
			"-0.012": 0.413164152131,
			"-0.011": 0.935341674942,
			"-0.01": 1.14181192961,
			"-0.009": 1.48497145728,
			"-0.008": 2.83997217471,
			"-0.007": 7.6546930963,
			"-0.006": 21.6948827344,
			"-0.005": 27.9809499092,
			"-0.004": 32.9360007053,
			"-0.003": 28.0504198801,
			"-0.002": 30.496852555,
			"-0.001": 34.8289351006,
			"0.0": 34.4908943723,
			"0.001": 41.4082025352,
			"0.002": 30.3304687422,
			"0.003": 26.8530085443,
			"0.004": 28.4054945051,
			"0.005": 19.0657552112,
			"0.006": 6.87961491402,
			"0.007": 9.40318643533,
			"0.008": 10.2171986583,
			"0.009": 6.03427416782,
			"0.01": 5.2930798723,
			"0.011": 0.795569395963,
			"0.012": 0.0,
			"0.013": 0.0,
			"0.014": 0.0,
			"0.015": 0.0,
			"0.016": 0.0,
			"0.017": 0.0,
			"0.018": 0.0,
			"0.019": 0.0,
			"0.02": 0.0,
			"0.021": 0.0,
			"0.022": 0.0,
			"0.023": 0.0,
			"0.024": 0.0,
			"0.025": 0.0
		}
	}
}
