{
	 "smiles": "CC(=O)NC1=CC=C(NC(=O)CC#N)C=C1", 
	 "Tm": 579.15, 
	 "num_atms": 27, 
	 "gaussian": { 
		 "optdone": 1, 
		 "sigma_profile": "yes", 
		 "theory": "DFT", 
		 "functional": "B3LYP", 
		 "basiset": "6-31G**", 
		 "properties": { 
			 "R2extent": 5505.3127, 
			 "electric_dipole_moment_norm": 4.89748681468, 
			 "electric_quadrupole_moment_norm": 59.0905022297, 
			 "total_energy": -740.505472715, 
			 "HOMO_LUMO_gap": 0.19446, 
			 "cosmo_polarized_energy": -27.47, 
			 "cosmo_cavitation_energy": 33.31, 
			 "cosmo_dispersion_energy": -22.97, 
			 "cosmo_repulsion_energy": 1.82, 
			 "cosmo_total_nonelectrostatic_energy": 12.15, 
			 "SMD_solvation_energy": 8.78 
		},
		"coords": [
			{
				"x": 1.9479411717,
				"y": -0.7937581718,
				"z": -3.5122429195,
				"element": "C" 
			},
			{
				"x": 0.5395908024,
				"y": -0.6433013252,
				"z": -4.0520282537,
				"element": "C" 
			},
			{
				"x": 0.2507187144,
				"y": -0.935941337,
				"z": -5.2014678601,
				"element": "O" 
			},
			{
				"x": -0.4619046059,
				"y": -0.1763411185,
				"z": -3.2071436843,
				"element": "N" 
			},
			{
				"x": -0.4605369651,
				"y": 0.2139482942,
				"z": -1.8552968707,
				"element": "C" 
			},
			{
				"x": -1.5935980719,
				"y": -0.0761755708,
				"z": -1.0767078677,
				"element": "C" 
			},
			{
				"x": -1.6716457919,
				"y": 0.3311647518,
				"z": 0.2506030822,
				"element": "C" 
			},
			{
				"x": -0.5968331202,
				"y": 0.9978968577,
				"z": 0.8528858902,
				"element": "C" 
			},
			{
				"x": -0.655580015,
				"y": 1.4259529654,
				"z": 2.209092116,
				"element": "N" 
			},
			{
				"x": -0.7890190628,
				"y": 0.6811403906,
				"z": 3.3599748379,
				"element": "C" 
			},
			{
				"x": -0.7925069433,
				"y": 1.2014345088,
				"z": 4.459770521,
				"element": "O" 
			},
			{
				"x": -0.9375167748,
				"y": -0.8401388511,
				"z": 3.1679202759,
				"element": "C" 
			},
			{
				"x": -0.591817066,
				"y": -1.5791990735,
				"z": 4.3805845588,
				"element": "C" 
			},
			{
				"x": -0.3180923048,
				"y": -2.2101191226,
				"z": 5.3139441711,
				"element": "N" 
			},
			{
				"x": 0.5299284208,
				"y": 1.2963959605,
				"z": 0.0775417745,
				"element": "C" 
			},
			{
				"x": 0.590680416,
				"y": 0.9341819306,
				"z": -1.2654908503,
				"element": "C" 
			},
			{
				"x": 2.4501241922,
				"y": -1.540243155,
				"z": -4.1282182044,
				"element": "H" 
			},
			{
				"x": 1.9750270303,
				"y": -1.093910221,
				"z": -2.4623688008,
				"element": "H" 
			},
			{
				"x": 2.4970364134,
				"y": 0.1484743774,
				"z": -3.6143881849,
				"element": "H" 
			},
			{
				"x": -1.368563613,
				"y": -0.2436896307,
				"z": -3.6545009206,
				"element": "H" 
			},
			{
				"x": -2.4238239665,
				"y": -0.6154897007,
				"z": -1.5240642767,
				"element": "H" 
			},
			{
				"x": -2.5743083353,
				"y": 0.13847097,
				"z": 0.8215646916,
				"element": "H" 
			},
			{
				"x": -0.4788367105,
				"y": 2.404123416,
				"z": 2.406242862,
				"element": "H" 
			},
			{
				"x": -1.9778338827,
				"y": -1.0674315136,
				"z": 2.9058875698,
				"element": "H" 
			},
			{
				"x": -0.3224697832,
				"y": -1.1960263347,
				"z": 2.335142347,
				"element": "H" 
			},
			{
				"x": 1.3595962767,
				"y": 1.8329738712,
				"z": 0.5283962164,
				"element": "H" 
			},
			{
				"x": 1.4513435748,
				"y": 1.2253068318,
				"z": -1.8542322207,
				"element": "H" 
			}
		],
		 "valence_orbital": [ 
			{
				"type": "occ",
				"energy": -0.28832,
				"method": "rhf"
			},
			{
				"type": "occ",
				"energy": -0.2877,
				"method": "rhf"
			},
			{
				"type": "occ",
				"energy": -0.2777,
				"method": "rhf"
			},
			{
				"type": "occ",
				"energy": -0.26835,
				"method": "rhf"
			},
			{
				"type": "occ",
				"energy": -0.23971,
				"method": "rhf"
			},
			{
				"type": "unocc",
				"energy": -0.04525,
				"method": "rhf"
			},
			{
				"type": "unocc",
				"energy": -0.03946,
				"method": "rhf"
			},
			{
				"type": "unocc",
				"energy": 0.00058,
				"method": "rhf"
			},
			{
				"type": "unocc",
				"energy": 0.01673,
				"method": "rhf"
			},
			{
				"type": "unocc",
				"energy": 0.03306,
				"method": "rhf"
			}
		],
		"cosmo_sigma_profile": { 
			"-0.025": 0.0,
			"-0.024": 0.0,
			"-0.023": 0.0,
			"-0.022": 0.0,
			"-0.021": 0.0,
			"-0.02": 0.0,
			"-0.019": 0.0,
			"-0.018": 0.0,
			"-0.017": 0.0,
			"-0.016": 0.0,
			"-0.015": 0.623583094524,
			"-0.014": 1.94277827006,
			"-0.013": 1.83322925626,
			"-0.012": 2.05223945198,
			"-0.011": 4.49181424897,
			"-0.01": 5.97687030017,
			"-0.009": 7.90864135798,
			"-0.008": 8.7873267841,
			"-0.007": 13.7611444086,
			"-0.006": 15.2960772232,
			"-0.005": 16.313704652,
			"-0.004": 14.765234893,
			"-0.003": 15.8962603352,
			"-0.002": 16.6159785619,
			"-0.001": 14.4844964601,
			"0.0": 13.2206087587,
			"0.001": 12.885024828,
			"0.002": 12.2175438095,
			"0.003": 13.7891295498,
			"0.004": 8.39985825717,
			"0.005": 4.46563549909,
			"0.006": 4.52505108298,
			"0.007": 5.23160227833,
			"0.008": 7.18375547923,
			"0.009": 6.83386292918,
			"0.01": 6.26316330757,
			"0.011": 6.97169956181,
			"0.012": 9.27010233384,
			"0.013": 10.4924490568,
			"0.014": 3.19634414246,
			"0.015": 0.409532492503,
			"0.016": 0.0,
			"0.017": 0.0,
			"0.018": 0.0,
			"0.019": 0.0,
			"0.02": 0.0,
			"0.021": 0.0,
			"0.022": 0.0,
			"0.023": 0.0,
			"0.024": 0.0,
			"0.025": 0.0
		}
	}
}
