{
	 "smiles": "CN1CC(C2=CC=CC=C2)(C2=CC=CC=C2)C(=O)C2=C(C=C(C3=CC=CC=C3)C3=C2C=CC=C3)C1=O", 
	 "Tm": 538.0, 
	 "num_atms": 61, 
	 "gaussian": { 
		 "optdone": 1, 
		 "sigma_profile": "yes", 
		 "theory": "DFT", 
		 "functional": "B3LYP", 
		 "basiset": "6-31G**", 
		 "properties": { 
			 "R2extent": 16234.9944, 
			 "electric_dipole_moment_norm": 2.6787564447, 
			 "electric_quadrupole_moment_norm": 17.4794614989, 
			 "total_energy": -1477.77993755, 
			 "HOMO_LUMO_gap": 0.14365, 
			 "cosmo_polarized_energy": -16.76, 
			 "cosmo_cavitation_energy": 60.76, 
			 "cosmo_dispersion_energy": -40.04, 
			 "cosmo_repulsion_energy": 2.97, 
			 "cosmo_total_nonelectrostatic_energy": 23.69, 
			 "SMD_solvation_energy": 10.44 
		},
		"coords": [
			{
				"x": -1.3816571599,
				"y": -4.162248146,
				"z": 0.0009424303,
				"element": "C" 
			},
			{
				"x": -0.6178468336,
				"y": -2.911818046,
				"z": 0.0422276178,
				"element": "N" 
			},
			{
				"x": 0.7312224649,
				"y": -3.1159529006,
				"z": -0.4864172844,
				"element": "C" 
			},
			{
				"x": 1.6549924832,
				"y": -1.9078796612,
				"z": -0.7806849156,
				"element": "C" 
			},
			{
				"x": 1.0901921403,
				"y": -0.9432645085,
				"z": -1.832799403,
				"element": "C" 
			},
			{
				"x": -0.0087992848,
				"y": -1.2540818869,
				"z": -2.6415884652,
				"element": "C" 
			},
			{
				"x": -0.4596850127,
				"y": -0.3584097362,
				"z": -3.6154705786,
				"element": "C" 
			},
			{
				"x": 0.1827864675,
				"y": 0.8642430622,
				"z": -3.8001193449,
				"element": "C" 
			},
			{
				"x": 1.2851012786,
				"y": 1.1851028369,
				"z": -3.0041237494,
				"element": "C" 
			},
			{
				"x": 1.7324267674,
				"y": 0.2895275489,
				"z": -2.0357635113,
				"element": "C" 
			},
			{
				"x": 2.9893825156,
				"y": -2.5369204008,
				"z": -1.2658660714,
				"element": "C" 
			},
			{
				"x": 3.4153683966,
				"y": -2.3901438711,
				"z": -2.595283112,
				"element": "C" 
			},
			{
				"x": 4.5797000468,
				"y": -3.0081808914,
				"z": -3.0559812456,
				"element": "C" 
			},
			{
				"x": 5.3471815128,
				"y": -3.7951335159,
				"z": -2.1998760172,
				"element": "C" 
			},
			{
				"x": 4.9311128742,
				"y": -3.9626499658,
				"z": -0.8791179079,
				"element": "C" 
			},
			{
				"x": 3.7664602419,
				"y": -3.3487441603,
				"z": -0.4183230591,
				"element": "C" 
			},
			{
				"x": 1.8042678246,
				"y": -1.1850992686,
				"z": 0.5956774287,
				"element": "C" 
			},
			{
				"x": 2.7114074529,
				"y": -1.437243164,
				"z": 1.367287057,
				"element": "O" 
			},
			{
				"x": 0.7543433806,
				"y": -0.1719175736,
				"z": 0.9347305337,
				"element": "C" 
			},
			{
				"x": -0.60001755,
				"y": -0.4663087577,
				"z": 0.8224842158,
				"element": "C" 
			},
			{
				"x": -1.5464790163,
				"y": 0.5584270783,
				"z": 1.0834265494,
				"element": "C" 
			},
			{
				"x": -1.1904966254,
				"y": 1.8433221169,
				"z": 1.4287097517,
				"element": "C" 
			},
			{
				"x": -2.2698251219,
				"y": 2.8562387399,
				"z": 1.6075815957,
				"element": "C" 
			},
			{
				"x": -2.2738855182,
				"y": 4.0587373399,
				"z": 0.8801897735,
				"element": "C" 
			},
			{
				"x": -3.3172035405,
				"y": 4.9736359226,
				"z": 1.0205101406,
				"element": "C" 
			},
			{
				"x": -4.3757464986,
				"y": 4.7050082526,
				"z": 1.8907130628,
				"element": "C" 
			},
			{
				"x": -4.386078963,
				"y": 3.5121239351,
				"z": 2.615406524,
				"element": "C" 
			},
			{
				"x": -3.3442346475,
				"y": 2.5953736211,
				"z": 2.4732412212,
				"element": "C" 
			},
			{
				"x": 0.1975857218,
				"y": 2.1539435694,
				"z": 1.6149394278,
				"element": "C" 
			},
			{
				"x": 1.1792457339,
				"y": 1.1344395715,
				"z": 1.3690292586,
				"element": "C" 
			},
			{
				"x": 2.5535000109,
				"y": 1.470757178,
				"z": 1.5471823375,
				"element": "C" 
			},
			{
				"x": 2.9354029837,
				"y": 2.7254572456,
				"z": 1.9654737949,
				"element": "C" 
			},
			{
				"x": 1.9655373963,
				"y": 3.7125304964,
				"z": 2.2429650459,
				"element": "C" 
			},
			{
				"x": 0.6299371819,
				"y": 3.429136564,
				"z": 2.071852638,
				"element": "C" 
			},
			{
				"x": -1.2608700647,
				"y": -1.8142537487,
				"z": 0.5758491833,
				"element": "C" 
			},
			{
				"x": -2.4455812927,
				"y": -1.9147639045,
				"z": 0.9043087101,
				"element": "O" 
			},
			{
				"x": -2.3358719601,
				"y": -4.011606314,
				"z": 0.4969940771,
				"element": "H" 
			},
			{
				"x": -0.8210964074,
				"y": -4.9595371896,
				"z": 0.5038736645,
				"element": "H" 
			},
			{
				"x": -1.5558595573,
				"y": -4.4687861764,
				"z": -1.0382995414,
				"element": "H" 
			},
			{
				"x": 1.2704644407,
				"y": -3.7788567679,
				"z": 0.2006386967,
				"element": "H" 
			},
			{
				"x": 0.6279228291,
				"y": -3.6764732771,
				"z": -1.4241763134,
				"element": "H" 
			},
			{
				"x": -0.5361888833,
				"y": -2.1930412948,
				"z": -2.5159095932,
				"element": "H" 
			},
			{
				"x": -1.3182786153,
				"y": -0.6217830023,
				"z": -4.2264496458,
				"element": "H" 
			},
			{
				"x": -0.1698501909,
				"y": 1.5607380785,
				"z": -4.5551314104,
				"element": "H" 
			},
			{
				"x": 1.7985925059,
				"y": 2.1329402408,
				"z": -3.1372813569,
				"element": "H" 
			},
			{
				"x": 2.5987163554,
				"y": 0.5494013999,
				"z": -1.4335276986,
				"element": "H" 
			},
			{
				"x": 2.8376567876,
				"y": -1.7897171366,
				"z": -3.2866281061,
				"element": "H" 
			},
			{
				"x": 4.8803901367,
				"y": -2.8711116174,
				"z": -4.0909212059,
				"element": "H" 
			},
			{
				"x": 6.2542240883,
				"y": -4.2747814284,
				"z": -2.5565992622,
				"element": "H" 
			},
			{
				"x": 5.5137602251,
				"y": -4.5749717294,
				"z": -0.1965567783,
				"element": "H" 
			},
			{
				"x": 3.4793789476,
				"y": -3.4867177176,
				"z": 0.6147945106,
				"element": "H" 
			},
			{
				"x": -2.5918131931,
				"y": 0.2958076811,
				"z": 0.9862780119,
				"element": "H" 
			},
			{
				"x": -1.4633057802,
				"y": 4.2658896909,
				"z": 0.1877795484,
				"element": "H" 
			},
			{
				"x": -3.306455032,
				"y": 5.8940086085,
				"z": 0.4433267044,
				"element": "H" 
			},
			{
				"x": -5.1871829477,
				"y": 5.4186809632,
				"z": 2.0006579313,
				"element": "H" 
			},
			{
				"x": -5.2051727751,
				"y": 3.2939634667,
				"z": 3.2948127855,
				"element": "H" 
			},
			{
				"x": -3.3527707825,
				"y": 1.6705739437,
				"z": 3.0425691553,
				"element": "H" 
			},
			{
				"x": 3.3108172696,
				"y": 0.7173581089,
				"z": 1.3796143515,
				"element": "H" 
			},
			{
				"x": 3.9899011103,
				"y": 2.9492242437,
				"z": 2.0981466259,
				"element": "H" 
			},
			{
				"x": 2.2724110509,
				"y": 4.6922941134,
				"z": 2.5975007301,
				"element": "H" 
			},
			{
				"x": -0.1157373691,
				"y": 4.1821121405,
				"z": 2.2971804868,
				"element": "H" 
			}
		],
		 "valence_orbital": [ 
			{
				"type": "occ",
				"energy": -0.2466,
				"method": "rhf"
			},
			{
				"type": "occ",
				"energy": -0.24474,
				"method": "rhf"
			},
			{
				"type": "occ",
				"energy": -0.24034,
				"method": "rhf"
			},
			{
				"type": "occ",
				"energy": -0.23864,
				"method": "rhf"
			},
			{
				"type": "occ",
				"energy": -0.21348,
				"method": "rhf"
			},
			{
				"type": "unocc",
				"energy": -0.06983,
				"method": "rhf"
			},
			{
				"type": "unocc",
				"energy": -0.02866,
				"method": "rhf"
			},
			{
				"type": "unocc",
				"energy": -0.02636,
				"method": "rhf"
			},
			{
				"type": "unocc",
				"energy": -0.01224,
				"method": "rhf"
			},
			{
				"type": "unocc",
				"energy": -0.00803,
				"method": "rhf"
			}
		],
		"cosmo_sigma_profile": { 
			"-0.025": 0.0,
			"-0.024": 0.0,
			"-0.023": 0.0,
			"-0.022": 0.0,
			"-0.021": 0.0,
			"-0.02": 0.0,
			"-0.019": 0.0,
			"-0.018": 0.0,
			"-0.017": 0.0,
			"-0.016": 0.0,
			"-0.015": 0.0,
			"-0.014": 0.0,
			"-0.013": 0.0,
			"-0.012": 0.0,
			"-0.011": 0.0,
			"-0.01": 0.0,
			"-0.009": 0.0,
			"-0.008": 0.692691965118,
			"-0.007": 3.88422836909,
			"-0.006": 25.6550116246,
			"-0.005": 44.1691508063,
			"-0.004": 49.1536058929,
			"-0.003": 45.2202513894,
			"-0.002": 38.0657921651,
			"-0.001": 31.8030730407,
			"0.0": 31.0883557656,
			"0.001": 35.725785582,
			"0.002": 39.2951485728,
			"0.003": 38.2592007798,
			"0.004": 37.7449156516,
			"0.005": 27.3264018004,
			"0.006": 12.5575201985,
			"0.007": 4.81516807188,
			"0.008": 4.01696925381,
			"0.009": 3.48511790913,
			"0.01": 4.08081709916,
			"0.011": 2.44953987853,
			"0.012": 2.48680558013,
			"0.013": 3.67024439846,
			"0.014": 0.88250824513,
			"0.015": 0.0,
			"0.016": 0.0,
			"0.017": 0.0,
			"0.018": 0.0,
			"0.019": 0.0,
			"0.02": 0.0,
			"0.021": 0.0,
			"0.022": 0.0,
			"0.023": 0.0,
			"0.024": 0.0,
			"0.025": 0.0
		}
	}
}
