{
	 "smiles": "NS(=O)(=O)C=CC1=CC(Br)=CC=C1", 
	 "Tm": 427.15, 
	 "num_atms": 21, 
	 "gaussian": { 
		 "optdone": 1, 
		 "sigma_profile": "yes", 
		 "theory": "DFT", 
		 "functional": "B3LYP", 
		 "basiset": "6-31G**", 
		 "properties": { 
			 "R2extent": 5985.8436, 
			 "electric_dipole_moment_norm": 2.71185606919, 
			 "electric_quadrupole_moment_norm": 21.6337404674, 
			 "total_energy": -3484.3705166, 
			 "HOMO_LUMO_gap": 0.17657, 
			 "cosmo_polarized_energy": -16.29, 
			 "cosmo_cavitation_energy": 29.02, 
			 "cosmo_dispersion_energy": -22.11, 
			 "cosmo_repulsion_energy": 1.71, 
			 "cosmo_total_nonelectrostatic_energy": 8.63, 
			 "SMD_solvation_energy": 3.77 
		},
		"coords": [
			{
				"x": -1.6382731919,
				"y": -1.1874001174,
				"z": -0.5389462816,
				"element": "N" 
			},
			{
				"x": -2.3037878732,
				"y": -0.9662180492,
				"z": 1.0006738299,
				"element": "S" 
			},
			{
				"x": -2.9147254479,
				"y": 0.3695045025,
				"z": 0.9707482671,
				"element": "O" 
			},
			{
				"x": -3.0927061998,
				"y": -2.1420276023,
				"z": 1.3795478049,
				"element": "O" 
			},
			{
				"x": -0.8808683567,
				"y": -1.0130474969,
				"z": 2.0731572353,
				"element": "C" 
			},
			{
				"x": 0.2842184821,
				"y": -0.3469911064,
				"z": 2.0050260135,
				"element": "C" 
			},
			{
				"x": 0.810733082,
				"y": 0.6629605048,
				"z": 1.0787373879,
				"element": "C" 
			},
			{
				"x": 2.2121275214,
				"y": 0.7643325191,
				"z": 0.9817547116,
				"element": "C" 
			},
			{
				"x": 2.7870079454,
				"y": 1.6979781784,
				"z": 0.1279885955,
				"element": "C" 
			},
			{
				"x": 4.6912210249,
				"y": 1.7999513654,
				"z": -0.0029373238,
				"element": "Br" 
			},
			{
				"x": 1.9994644843,
				"y": 2.5676724389,
				"z": -0.6247615205,
				"element": "C" 
			},
			{
				"x": 0.6106026432,
				"y": 2.4876110144,
				"z": -0.5057349463,
				"element": "C" 
			},
			{
				"x": 0.0128596094,
				"y": 1.5485493138,
				"z": 0.3315980877,
				"element": "C" 
			},
			{
				"x": -2.1562412159,
				"y": -0.6165146793,
				"z": -1.2020241605,
				"element": "H" 
			},
			{
				"x": -1.6683651054,
				"y": -2.170487503,
				"z": -0.7981218575,
				"element": "H" 
			},
			{
				"x": -1.0616079723,
				"y": -1.7232854581,
				"z": 2.8730680518,
				"element": "H" 
			},
			{
				"x": 0.99340411,
				"y": -0.631765266,
				"z": 2.7830555006,
				"element": "H" 
			},
			{
				"x": 2.8464089446,
				"y": 0.1055123562,
				"z": 1.5652202789,
				"element": "H" 
			},
			{
				"x": 2.4626847193,
				"y": 3.2981220749,
				"z": -1.2781526145,
				"element": "H" 
			},
			{
				"x": -0.0114136435,
				"y": 3.1754371348,
				"z": -1.0707427305,
				"element": "H" 
			},
			{
				"x": -1.0650435598,
				"y": 1.5253058754,
				"z": 0.4356456705,
				"element": "H" 
			}
		],
		 "valence_orbital": [ 
			{
				"type": "occ",
				"energy": -0.30389,
				"method": "rhf"
			},
			{
				"type": "occ",
				"energy": -0.29529,
				"method": "rhf"
			},
			{
				"type": "occ",
				"energy": -0.2931,
				"method": "rhf"
			},
			{
				"type": "occ",
				"energy": -0.2611,
				"method": "rhf"
			},
			{
				"type": "occ",
				"energy": -0.24947,
				"method": "rhf"
			},
			{
				"type": "unocc",
				"energy": -0.0729,
				"method": "rhf"
			},
			{
				"type": "unocc",
				"energy": -0.024,
				"method": "rhf"
			},
			{
				"type": "unocc",
				"energy": -0.00229,
				"method": "rhf"
			},
			{
				"type": "unocc",
				"energy": 0.01115,
				"method": "rhf"
			},
			{
				"type": "unocc",
				"energy": 0.057,
				"method": "rhf"
			}
		],
		"cosmo_sigma_profile": { 
			"-0.025": 0.0,
			"-0.024": 0.0,
			"-0.023": 0.0,
			"-0.022": 0.0,
			"-0.021": 0.0,
			"-0.02": 0.0,
			"-0.019": 0.0,
			"-0.018": 0.0,
			"-0.017": 0.0,
			"-0.016": 0.00579275018548,
			"-0.015": 1.27434476206,
			"-0.014": 2.77547491125,
			"-0.013": 1.84735674293,
			"-0.012": 3.64683629392,
			"-0.011": 2.02049007597,
			"-0.01": 1.84293585316,
			"-0.009": 4.56623678582,
			"-0.008": 8.4240675262,
			"-0.007": 10.7958068952,
			"-0.006": 9.80032295937,
			"-0.005": 9.45418560967,
			"-0.004": 10.6516492916,
			"-0.003": 10.5067796977,
			"-0.002": 11.5057569071,
			"-0.001": 12.2921386947,
			"0.0": 15.4425383447,
			"0.001": 19.5662950965,
			"0.002": 22.2245037018,
			"0.003": 17.9382938018,
			"0.004": 15.4602495687,
			"0.005": 8.00079927061,
			"0.006": 2.05902379918,
			"0.007": 2.82356986495,
			"0.008": 4.58030888456,
			"0.009": 5.34468978184,
			"0.01": 5.98797360162,
			"0.011": 10.3080396547,
			"0.012": 4.52860939028,
			"0.013": 0.0,
			"0.014": 0.0,
			"0.015": 0.0,
			"0.016": 0.0,
			"0.017": 0.0,
			"0.018": 0.0,
			"0.019": 0.0,
			"0.02": 0.0,
			"0.021": 0.0,
			"0.022": 0.0,
			"0.023": 0.0,
			"0.024": 0.0,
			"0.025": 0.0
		}
	}
}
