{
	 "smiles": "CC(C)OC1=CC=C(C=C1)C(=O)NN", 
	 "Tm": 391.15, 
	 "num_atms": 28, 
	 "gaussian": { 
		 "optdone": 1, 
		 "sigma_profile": "yes", 
		 "theory": "DFT", 
		 "functional": "B3LYP", 
		 "basiset": "6-31G**", 
		 "properties": { 
			 "R2extent": 5109.6533, 
			 "electric_dipole_moment_norm": 4.33101677092, 
			 "electric_quadrupole_moment_norm": 8.83151237501, 
			 "total_energy": -649.441491092, 
			 "HOMO_LUMO_gap": 0.19686, 
			 "cosmo_polarized_energy": -14.04, 
			 "cosmo_cavitation_energy": 31.43, 
			 "cosmo_dispersion_energy": -22.86, 
			 "cosmo_repulsion_energy": 1.82, 
			 "cosmo_total_nonelectrostatic_energy": 10.39, 
			 "SMD_solvation_energy": 6.76 
		},
		"coords": [
			{
				"x": 0.3767098446,
				"y": -0.9368279786,
				"z": 2.7828923225,
				"element": "C" 
			},
			{
				"x": -1.1342050132,
				"y": -0.7650980994,
				"z": 2.6255082275,
				"element": "C" 
			},
			{
				"x": -1.8327452616,
				"y": -0.467259486,
				"z": 3.9472322894,
				"element": "C" 
			},
			{
				"x": -1.4279555953,
				"y": 0.3586764558,
				"z": 1.7710681588,
				"element": "O" 
			},
			{
				"x": -1.3410691082,
				"y": 0.2525455624,
				"z": 0.4188754344,
				"element": "C" 
			},
			{
				"x": -1.6214168413,
				"y": 1.4319737639,
				"z": -0.2948049862,
				"element": "C" 
			},
			{
				"x": -1.5823660754,
				"y": 1.4389345335,
				"z": -1.6789859761,
				"element": "C" 
			},
			{
				"x": -1.2494083777,
				"y": 0.2776178054,
				"z": -2.3964563526,
				"element": "C" 
			},
			{
				"x": -0.985119224,
				"y": -0.8958006902,
				"z": -1.6808550353,
				"element": "C" 
			},
			{
				"x": -1.0243990133,
				"y": -0.9184061323,
				"z": -0.2862980387,
				"element": "C" 
			},
			{
				"x": -1.2239474553,
				"y": 0.3597337516,
				"z": -3.8863394146,
				"element": "C" 
			},
			{
				"x": -1.779165553,
				"y": 1.2585808745,
				"z": -4.5146722754,
				"element": "O" 
			},
			{
				"x": -0.528518296,
				"y": -0.6393966664,
				"z": -4.5392555885,
				"element": "N" 
			},
			{
				"x": -0.3141864019,
				"y": -0.5317441459,
				"z": -5.9342801589,
				"element": "N" 
			},
			{
				"x": 0.5971940516,
				"y": -1.7921469598,
				"z": 3.4297380859,
				"element": "H" 
			},
			{
				"x": 0.8099892311,
				"y": -0.0399228493,
				"z": 3.2363546627,
				"element": "H" 
			},
			{
				"x": 0.866552345,
				"y": -1.1025095485,
				"z": 1.8198222038,
				"element": "H" 
			},
			{
				"x": -1.5752990377,
				"y": -1.6696352432,
				"z": 2.1862710573,
				"element": "H" 
			},
			{
				"x": -2.9082813251,
				"y": -0.3442797818,
				"z": 3.7953866356,
				"element": "H" 
			},
			{
				"x": -1.6710898463,
				"y": -1.2855885405,
				"z": 4.6553585631,
				"element": "H" 
			},
			{
				"x": -1.4389585586,
				"y": 0.4544589398,
				"z": 4.3865581883,
				"element": "H" 
			},
			{
				"x": -1.8728252992,
				"y": 2.3248803824,
				"z": 0.2680418617,
				"element": "H" 
			},
			{
				"x": -1.8093050016,
				"y": 2.3409058047,
				"z": -2.2373612147,
				"element": "H" 
			},
			{
				"x": -0.7745810587,
				"y": -1.8218358441,
				"z": -2.2081503824,
				"element": "H" 
			},
			{
				"x": -0.8192356393,
				"y": -1.8469886316,
				"z": 0.2319085833,
				"element": "H" 
			},
			{
				"x": 0.2413511244,
				"y": -1.0761754809,
				"z": -4.0519445378,
				"element": "H" 
			},
			{
				"x": -0.4002691755,
				"y": 0.4624673693,
				"z": -6.156498762,
				"element": "H" 
			},
			{
				"x": -1.1099494384,
				"y": -0.9743591648,
				"z": -6.3932135511,
				"element": "H" 
			}
		],
		 "valence_orbital": [ 
			{
				"type": "occ",
				"energy": -0.28493,
				"method": "rhf"
			},
			{
				"type": "occ",
				"energy": -0.25952,
				"method": "rhf"
			},
			{
				"type": "occ",
				"energy": -0.25445,
				"method": "rhf"
			},
			{
				"type": "occ",
				"energy": -0.24499,
				"method": "rhf"
			},
			{
				"type": "occ",
				"energy": -0.22439,
				"method": "rhf"
			},
			{
				"type": "unocc",
				"energy": -0.02753,
				"method": "rhf"
			},
			{
				"type": "unocc",
				"energy": -0.0085,
				"method": "rhf"
			},
			{
				"type": "unocc",
				"energy": 0.06383,
				"method": "rhf"
			},
			{
				"type": "unocc",
				"energy": 0.08114,
				"method": "rhf"
			},
			{
				"type": "unocc",
				"energy": 0.09009,
				"method": "rhf"
			}
		],
		"cosmo_sigma_profile": { 
			"-0.025": 0.0,
			"-0.024": 0.0,
			"-0.023": 0.0,
			"-0.022": 0.0,
			"-0.021": 0.0,
			"-0.02": 0.0,
			"-0.019": 0.0,
			"-0.018": 0.0,
			"-0.017": 0.0,
			"-0.016": 0.0,
			"-0.015": 0.0,
			"-0.014": 0.464810555737,
			"-0.013": 1.14798687052,
			"-0.012": 1.22558708169,
			"-0.011": 2.80555335555,
			"-0.01": 2.08403715942,
			"-0.009": 4.44315637708,
			"-0.008": 2.77302019317,
			"-0.007": 5.36991809554,
			"-0.006": 9.0737251652,
			"-0.005": 11.6684025559,
			"-0.004": 21.7546460899,
			"-0.003": 21.995271756,
			"-0.002": 19.0705905837,
			"-0.001": 19.8005634443,
			"0.0": 22.5316895631,
			"0.001": 19.8359954672,
			"0.002": 11.5345404963,
			"0.003": 14.4158564055,
			"0.004": 16.6212127579,
			"0.005": 7.781344485,
			"0.006": 3.84946683733,
			"0.007": 3.71828557112,
			"0.008": 3.47220615524,
			"0.009": 3.06016166459,
			"0.01": 2.41737064539,
			"0.011": 2.79905120445,
			"0.012": 2.42995194473,
			"0.013": 5.23220601798,
			"0.014": 2.63456986767,
			"0.015": 0.292363498174,
			"0.016": 0.963565414524,
			"0.017": 0.260002526989,
			"0.018": 0.0,
			"0.019": 0.0,
			"0.02": 0.0,
			"0.021": 0.0,
			"0.022": 0.0,
			"0.023": 0.0,
			"0.024": 0.0,
			"0.025": 0.0
		}
	}
}
