{
	 "smiles": "N#CC1=CC=C(C=C1)C#N", 
	 "Tm": 498.15, 
	 "num_atms": 14, 
	 "gaussian": { 
		 "optdone": 1, 
		 "sigma_profile": "yes", 
		 "theory": "DFT", 
		 "functional": "B3LYP", 
		 "basiset": "6-31G**", 
		 "properties": { 
			 "R2extent": 2389.5641, 
			 "electric_dipole_moment_norm": 0.000547722557505, 
			 "electric_quadrupole_moment_norm": 25.2549544769, 
			 "total_energy": -416.727480564, 
			 "HOMO_LUMO_gap": 0.19087, 
			 "cosmo_polarized_energy": -12.67, 
			 "cosmo_cavitation_energy": 21.17, 
			 "cosmo_dispersion_energy": -14.39, 
			 "cosmo_repulsion_energy": 1.17, 
			 "cosmo_total_nonelectrostatic_energy": 7.96, 
			 "SMD_solvation_energy": 6.57 
		},
		"coords": [
			{
				"x": -2.5509593325,
				"y": -3.0112080952,
				"z": 3.1713134425,
				"element": "N" 
			},
			{
				"x": -2.1472319002,
				"y": -2.0585060115,
				"z": 2.6403490869,
				"element": "C" 
			},
			{
				"x": -1.6498127804,
				"y": -0.8835445879,
				"z": 1.9854388385,
				"element": "C" 
			},
			{
				"x": -0.7815099258,
				"y": -1.0075053416,
				"z": 0.8868968354,
				"element": "C" 
			},
			{
				"x": -0.2997800532,
				"y": 0.1303828787,
				"z": 0.252672629,
				"element": "C" 
			},
			{
				"x": -0.6816569997,
				"y": 1.4033352861,
				"z": 0.7107933132,
				"element": "C" 
			},
			{
				"x": -1.5499630994,
				"y": 1.5272966196,
				"z": 1.8093329271,
				"element": "C" 
			},
			{
				"x": -2.0316928663,
				"y": 0.3894079754,
				"z": 2.4435549759,
				"element": "C" 
			},
			{
				"x": -0.1842252987,
				"y": 2.5782958593,
				"z": 0.0558919815,
				"element": "C" 
			},
			{
				"x": 0.2191736196,
				"y": 3.5310632175,
				"z": -0.4752043146,
				"element": "N" 
			},
			{
				"x": -0.4920907173,
				"y": -1.993299345,
				"z": 0.5401341423,
				"element": "H" 
			},
			{
				"x": 0.3703988305,
				"y": 0.0439678877,
				"z": -0.5953765533,
				"element": "H" 
			},
			{
				"x": -1.8393812727,
				"y": 2.5130909503,
				"z": 2.1560950062,
				"element": "H" 
			},
			{
				"x": -2.701868204,
				"y": 0.4758227066,
				"z": 3.2916076894,
				"element": "H" 
			}
		],
		 "valence_orbital": [ 
			{
				"type": "occ",
				"energy": -0.34947,
				"method": "rhf"
			},
			{
				"type": "occ",
				"energy": -0.34913,
				"method": "rhf"
			},
			{
				"type": "occ",
				"energy": -0.34907,
				"method": "rhf"
			},
			{
				"type": "occ",
				"energy": -0.30307,
				"method": "rhf"
			},
			{
				"type": "occ",
				"energy": -0.28427,
				"method": "rhf"
			},
			{
				"type": "unocc",
				"energy": -0.0934,
				"method": "rhf"
			},
			{
				"type": "unocc",
				"energy": -0.05035,
				"method": "rhf"
			},
			{
				"type": "unocc",
				"energy": 0.01171,
				"method": "rhf"
			},
			{
				"type": "unocc",
				"energy": 0.02067,
				"method": "rhf"
			},
			{
				"type": "unocc",
				"energy": 0.02487,
				"method": "rhf"
			}
		],
		"cosmo_sigma_profile": { 
			"-0.025": 0.0,
			"-0.024": 0.0,
			"-0.023": 0.0,
			"-0.022": 0.0,
			"-0.021": 0.0,
			"-0.02": 0.0,
			"-0.019": 0.0,
			"-0.018": 0.0,
			"-0.017": 0.0,
			"-0.016": 0.0,
			"-0.015": 0.0,
			"-0.014": 0.0,
			"-0.013": 0.0,
			"-0.012": 0.0,
			"-0.011": 0.0,
			"-0.01": 0.171738410781,
			"-0.009": 7.92062684718,
			"-0.008": 11.5691457779,
			"-0.007": 9.37402188911,
			"-0.006": 7.07714289773,
			"-0.005": 6.89016500539,
			"-0.004": 9.8907688311,
			"-0.003": 12.6813646737,
			"-0.002": 13.6399561477,
			"-0.001": 16.7320842901,
			"0.0": 14.7842052526,
			"0.001": 5.08386665781,
			"0.002": 5.01411426049,
			"0.003": 3.10853410516,
			"0.004": 3.69656973869,
			"0.005": 6.96012216245,
			"0.006": 3.45745202598,
			"0.007": 6.39008229172,
			"0.008": 6.98554470605,
			"0.009": 6.34440878614,
			"0.01": 5.67308590646,
			"0.011": 5.04541991714,
			"0.012": 4.19261895168,
			"0.013": 0.862815800836,
			"0.014": 0.0,
			"0.015": 0.0,
			"0.016": 0.0,
			"0.017": 0.0,
			"0.018": 0.0,
			"0.019": 0.0,
			"0.02": 0.0,
			"0.021": 0.0,
			"0.022": 0.0,
			"0.023": 0.0,
			"0.024": 0.0,
			"0.025": 0.0
		}
	}
}
