{
	 "smiles": "CC1CC2=C(C=CC=C2)N1S(=O)(=O)C1=CC(C(O)=O)=C(F)C=C1", 
	 "Tm": 474.15, 
	 "num_atms": 37, 
	 "gaussian": { 
		 "optdone": 1, 
		 "sigma_profile": "yes", 
		 "theory": "DFT", 
		 "functional": "B3LYP", 
		 "basiset": "6-31G**", 
		 "properties": { 
			 "R2extent": 7997.8757, 
			 "electric_dipole_moment_norm": 6.19759833323, 
			 "electric_quadrupole_moment_norm": 23.0482956817, 
			 "total_energy": -1471.75577013, 
			 "HOMO_LUMO_gap": 0.14784, 
			 "cosmo_polarized_energy": -20.87, 
			 "cosmo_cavitation_energy": 41.91, 
			 "cosmo_dispersion_energy": -28.78, 
			 "cosmo_repulsion_energy": 2.12, 
			 "cosmo_total_nonelectrostatic_energy": 15.25, 
			 "SMD_solvation_energy": 7.21 
		},
		"coords": [
			{
				"x": 2.6948611963,
				"y": -0.3590409971,
				"z": 2.7033612793,
				"element": "C" 
			},
			{
				"x": 1.8557869746,
				"y": -0.3286914733,
				"z": 1.4272898356,
				"element": "C" 
			},
			{
				"x": 0.8877148103,
				"y": -1.5376459664,
				"z": 1.2872793247,
				"element": "C" 
			},
			{
				"x": -0.4790771225,
				"y": -0.9488789605,
				"z": 1.5449244456,
				"element": "C" 
			},
			{
				"x": -0.4031856802,
				"y": 0.4484695547,
				"z": 1.5970051088,
				"element": "C" 
			},
			{
				"x": -1.5316111939,
				"y": 1.2341176201,
				"z": 1.8362726131,
				"element": "C" 
			},
			{
				"x": -2.7580951143,
				"y": 0.5808996755,
				"z": 1.9925182913,
				"element": "C" 
			},
			{
				"x": -2.8494321833,
				"y": -0.8122132437,
				"z": 1.9395362633,
				"element": "C" 
			},
			{
				"x": -1.70316342,
				"y": -1.584446436,
				"z": 1.7219087532,
				"element": "C" 
			},
			{
				"x": 0.9508421487,
				"y": 0.8719493637,
				"z": 1.4426591904,
				"element": "N" 
			},
			{
				"x": 1.3869223609,
				"y": 2.2305460334,
				"z": 0.5502584228,
				"element": "S" 
			},
			{
				"x": 2.8412718869,
				"y": 2.3376369407,
				"z": 0.6800525362,
				"element": "O" 
			},
			{
				"x": 0.4838368039,
				"y": 3.3105372091,
				"z": 0.9411200173,
				"element": "O" 
			},
			{
				"x": 1.0489191295,
				"y": 1.8466199355,
				"z": -1.1782988954,
				"element": "C" 
			},
			{
				"x": -0.251858665,
				"y": 1.9414687743,
				"z": -1.6681863106,
				"element": "C" 
			},
			{
				"x": -0.5338891539,
				"y": 1.6206888121,
				"z": -3.0030923476,
				"element": "C" 
			},
			{
				"x": -1.9714254137,
				"y": 1.7546972187,
				"z": -3.4496758505,
				"element": "C" 
			},
			{
				"x": -2.2639718739,
				"y": 1.4558306554,
				"z": -4.7299228002,
				"element": "O" 
			},
			{
				"x": -2.8347585079,
				"y": 2.116357599,
				"z": -2.6857553648,
				"element": "O" 
			},
			{
				"x": 0.5422412379,
				"y": 1.2167469678,
				"z": -3.8001007713,
				"element": "C" 
			},
			{
				"x": 0.3288858227,
				"y": 0.8964074922,
				"z": -5.1086324787,
				"element": "F" 
			},
			{
				"x": 1.847049603,
				"y": 1.1282564253,
				"z": -3.3348393659,
				"element": "C" 
			},
			{
				"x": 2.1054438543,
				"y": 1.4475534206,
				"z": -2.0045669371,
				"element": "C" 
			},
			{
				"x": 3.3037893866,
				"y": 0.5447123816,
				"z": 2.7763649065,
				"element": "H" 
			},
			{
				"x": 2.049271001,
				"y": -0.4188329658,
				"z": 3.5854493823,
				"element": "H" 
			},
			{
				"x": 3.3575832013,
				"y": -1.2315157846,
				"z": 2.6989502368,
				"element": "H" 
			},
			{
				"x": 2.5208623666,
				"y": -0.2590247609,
				"z": 0.5627660367,
				"element": "H" 
			},
			{
				"x": 0.9444942583,
				"y": -1.9861272985,
				"z": 0.2874013693,
				"element": "H" 
			},
			{
				"x": 1.1465933191,
				"y": -2.3235203943,
				"z": 2.0046726846,
				"element": "H" 
			},
			{
				"x": -1.4533876308,
				"y": 2.3119978889,
				"z": 1.898902655,
				"element": "H" 
			},
			{
				"x": -3.650868933,
				"y": 1.1730206047,
				"z": 2.169516019,
				"element": "H" 
			},
			{
				"x": -3.8112261867,
				"y": -1.297582751,
				"z": 2.0736139995,
				"element": "H" 
			},
			{
				"x": -1.7690508076,
				"y": -2.6687007408,
				"z": 1.6869631335,
				"element": "H" 
			},
			{
				"x": -1.0731719445,
				"y": 2.2749652839,
				"z": -1.0445942583,
				"element": "H" 
			},
			{
				"x": -1.4676319944,
				"y": 1.1873012453,
				"z": -5.2136250359,
				"element": "H" 
			},
			{
				"x": 2.6345847326,
				"y": 0.8232616889,
				"z": -4.0147427937,
				"element": "H" 
			},
			{
				"x": 3.1144517309,
				"y": 1.4148789815,
				"z": -1.6093532947,
				"element": "H" 
			}
		],
		 "valence_orbital": [ 
			{
				"type": "occ",
				"energy": -0.29596,
				"method": "rhf"
			},
			{
				"type": "occ",
				"energy": -0.28787,
				"method": "rhf"
			},
			{
				"type": "occ",
				"energy": -0.28627,
				"method": "rhf"
			},
			{
				"type": "occ",
				"energy": -0.25348,
				"method": "rhf"
			},
			{
				"type": "occ",
				"energy": -0.22317,
				"method": "rhf"
			},
			{
				"type": "unocc",
				"energy": -0.07533,
				"method": "rhf"
			},
			{
				"type": "unocc",
				"energy": -0.05551,
				"method": "rhf"
			},
			{
				"type": "unocc",
				"energy": -0.0133,
				"method": "rhf"
			},
			{
				"type": "unocc",
				"energy": -0.0038,
				"method": "rhf"
			},
			{
				"type": "unocc",
				"energy": 0.0248,
				"method": "rhf"
			}
		],
		"cosmo_sigma_profile": { 
			"-0.025": 0.0,
			"-0.024": 0.0,
			"-0.023": 0.0,
			"-0.022": 0.0,
			"-0.021": 0.0,
			"-0.02": 0.0,
			"-0.019": 0.0,
			"-0.018": 0.0,
			"-0.017": 0.0,
			"-0.016": 0.0,
			"-0.015": 0.0,
			"-0.014": 0.458377039647,
			"-0.013": 0.354456649023,
			"-0.012": 0.97956739586,
			"-0.011": 2.3842839507,
			"-0.01": 2.10056072764,
			"-0.009": 4.27911927691,
			"-0.008": 5.25739166287,
			"-0.007": 6.31744554354,
			"-0.006": 12.3997381666,
			"-0.005": 22.3525639515,
			"-0.004": 29.9949807668,
			"-0.003": 32.6799099092,
			"-0.002": 32.329860911,
			"-0.001": 29.9821543586,
			"0.0": 25.7025033458,
			"0.001": 16.9869606833,
			"0.002": 15.5462301256,
			"0.003": 12.8106712221,
			"0.004": 16.0990720182,
			"0.005": 14.3033251436,
			"0.006": 8.31750838409,
			"0.007": 4.36591287814,
			"0.008": 6.76268683958,
			"0.009": 8.6689974794,
			"0.01": 11.5958475492,
			"0.011": 9.49758766201,
			"0.012": 2.72153136838,
			"0.013": 0.367837125785,
			"0.014": 0.0,
			"0.015": 0.0,
			"0.016": 0.0,
			"0.017": 0.0,
			"0.018": 0.0,
			"0.019": 0.0,
			"0.02": 0.0,
			"0.021": 0.0,
			"0.022": 0.0,
			"0.023": 0.0,
			"0.024": 0.0,
			"0.025": 0.0
		}
	}
}
