{
	 "smiles": "[O-][N+](=O)C1=CC=CC=C1N1CSC2=NN=C(N2C1)C1=CN=CC=C1", 
	 "Tm": 432.15, 
	 "num_atms": 36, 
	 "gaussian": { 
		 "optdone": 1, 
		 "sigma_profile": "yes", 
		 "theory": "DFT", 
		 "functional": "B3LYP", 
		 "basiset": "6-31G**", 
		 "properties": { 
			 "R2extent": 9521.5038, 
			 "electric_dipole_moment_norm": 5.05761902579, 
			 "electric_quadrupole_moment_norm": 37.5353758633, 
			 "total_energy": -1455.81549333, 
			 "HOMO_LUMO_gap": 0.12384, 
			 "cosmo_polarized_energy": -27.58, 
			 "cosmo_cavitation_energy": 41.7, 
			 "cosmo_dispersion_energy": -29.78, 
			 "cosmo_repulsion_energy": 2.17, 
			 "cosmo_total_nonelectrostatic_energy": 14.09, 
			 "SMD_solvation_energy": 4.09 
		},
		"coords": [
			{
				"x": 3.3881045317,
				"y": -2.9483746203,
				"z": -1.8934127571,
				"element": "O" 
			},
			{
				"x": 2.3965197152,
				"y": -2.3146459608,
				"z": -2.2537721278,
				"element": "N" 
			},
			{
				"x": 2.2949174513,
				"y": -1.7486179151,
				"z": -3.3426521644,
				"element": "O" 
			},
			{
				"x": 1.2707942971,
				"y": -2.2465585627,
				"z": -1.3104909749,
				"element": "C" 
			},
			{
				"x": 1.1591804782,
				"y": -3.3202904248,
				"z": -0.4245661021,
				"element": "C" 
			},
			{
				"x": 0.1643025458,
				"y": -3.3278460941,
				"z": 0.5455436088,
				"element": "C" 
			},
			{
				"x": -0.7033609376,
				"y": -2.2397879449,
				"z": 0.6422901009,
				"element": "C" 
			},
			{
				"x": -0.5893803522,
				"y": -1.1681405037,
				"z": -0.2407962792,
				"element": "C" 
			},
			{
				"x": 0.3873083841,
				"y": -1.1423974066,
				"z": -1.249326579,
				"element": "C" 
			},
			{
				"x": 0.52141084,
				"y": -0.0159978179,
				"z": -2.1114156819,
				"element": "N" 
			},
			{
				"x": -0.0212706496,
				"y": -0.0951818427,
				"z": -3.4488973364,
				"element": "C" 
			},
			{
				"x": -1.882305957,
				"y": 0.0791961603,
				"z": -3.512485572,
				"element": "S" 
			},
			{
				"x": -2.0203263812,
				"y": 1.3694955239,
				"z": -2.3227483839,
				"element": "C" 
			},
			{
				"x": -3.1445335656,
				"y": 1.976417364,
				"z": -2.013372868,
				"element": "N" 
			},
			{
				"x": -2.8637527867,
				"y": 2.8525622496,
				"z": -0.9922036159,
				"element": "N" 
			},
			{
				"x": -1.5811134679,
				"y": 2.7608093933,
				"z": -0.7050869141,
				"element": "C" 
			},
			{
				"x": -0.9873312141,
				"y": 1.8111635188,
				"z": -1.5262361129,
				"element": "N" 
			},
			{
				"x": 0.4013311717,
				"y": 1.3016760726,
				"z": -1.5374203695,
				"element": "C" 
			},
			{
				"x": -0.916504434,
				"y": 3.5351966404,
				"z": 0.3470138429,
				"element": "C" 
			},
			{
				"x": -1.6643413964,
				"y": 3.9010260329,
				"z": 1.4847308372,
				"element": "C" 
			},
			{
				"x": -1.1782962286,
				"y": 4.619879199,
				"z": 2.4963507917,
				"element": "N" 
			},
			{
				"x": 0.1013904605,
				"y": 5.0130668777,
				"z": 2.4222451752,
				"element": "C" 
			},
			{
				"x": 0.9324557692,
				"y": 4.7165643963,
				"z": 1.3427827397,
				"element": "C" 
			},
			{
				"x": 0.414099801,
				"y": 3.9720131517,
				"z": 0.2852665171,
				"element": "C" 
			},
			{
				"x": 1.8748504561,
				"y": -4.1287648369,
				"z": -0.5075285613,
				"element": "H" 
			},
			{
				"x": 0.0741652898,
				"y": -4.170727265,
				"z": 1.2225080614,
				"element": "H" 
			},
			{
				"x": -1.4830358239,
				"y": -2.2257356523,
				"z": 1.3975024338,
				"element": "H" 
			},
			{
				"x": -1.2810602396,
				"y": -0.3379303421,
				"z": -0.1617214977,
				"element": "H" 
			},
			{
				"x": 0.4248437353,
				"y": 0.6933446003,
				"z": -4.059336601,
				"element": "H" 
			},
			{
				"x": 0.2040481401,
				"y": -1.0580030198,
				"z": -3.8982087512,
				"element": "H" 
			},
			{
				"x": 1.0170498557,
				"y": 1.9868004627,
				"z": -2.1324294609,
				"element": "H" 
			},
			{
				"x": 0.7742923274,
				"y": 1.2952961679,
				"z": -0.512396423,
				"element": "H" 
			},
			{
				"x": -2.7031909426,
				"y": 3.5885240143,
				"z": 1.5531119296,
				"element": "H" 
			},
			{
				"x": 0.4749009433,
				"y": 5.5946903197,
				"z": 3.2627989186,
				"element": "H" 
			},
			{
				"x": 1.9575541888,
				"y": 5.0725270095,
				"z": 1.323282519,
				"element": "H" 
			},
			{
				"x": 1.0311839945,
				"y": 3.7665510547,
				"z": -0.5837223416,
				"element": "H" 
			}
		],
		 "valence_orbital": [ 
			{
				"type": "occ",
				"energy": -0.27584,
				"method": "rhf"
			},
			{
				"type": "occ",
				"energy": -0.26634,
				"method": "rhf"
			},
			{
				"type": "occ",
				"energy": -0.26098,
				"method": "rhf"
			},
			{
				"type": "occ",
				"energy": -0.25767,
				"method": "rhf"
			},
			{
				"type": "occ",
				"energy": -0.22484,
				"method": "rhf"
			},
			{
				"type": "unocc",
				"energy": -0.101,
				"method": "rhf"
			},
			{
				"type": "unocc",
				"energy": -0.05068,
				"method": "rhf"
			},
			{
				"type": "unocc",
				"energy": -0.04547,
				"method": "rhf"
			},
			{
				"type": "unocc",
				"energy": -0.03501,
				"method": "rhf"
			},
			{
				"type": "unocc",
				"energy": -0.02457,
				"method": "rhf"
			}
		],
		"cosmo_sigma_profile": { 
			"-0.025": 0.0,
			"-0.024": 0.0,
			"-0.023": 0.0,
			"-0.022": 0.0,
			"-0.021": 0.0,
			"-0.02": 0.0,
			"-0.019": 0.0,
			"-0.018": 0.0,
			"-0.017": 0.0,
			"-0.016": 0.0,
			"-0.015": 0.0,
			"-0.014": 0.0,
			"-0.013": 0.0,
			"-0.012": 0.0242807898488,
			"-0.011": 1.31019075605,
			"-0.01": 4.10158265933,
			"-0.009": 9.17767539721,
			"-0.008": 13.5086205454,
			"-0.007": 24.0345659877,
			"-0.006": 23.60310629,
			"-0.005": 20.2610442893,
			"-0.004": 17.9936191071,
			"-0.003": 16.0738403696,
			"-0.002": 15.4126014829,
			"-0.001": 18.0709045671,
			"0.0": 21.0017497633,
			"0.001": 29.1468718924,
			"0.002": 24.2021300819,
			"0.003": 14.0636118488,
			"0.004": 12.2822154547,
			"0.005": 10.2428090595,
			"0.006": 9.71560915528,
			"0.007": 11.7558764138,
			"0.008": 9.08781355266,
			"0.009": 7.2752723356,
			"0.01": 4.86750056646,
			"0.011": 3.3855871678,
			"0.012": 4.15986587214,
			"0.013": 3.69381341033,
			"0.014": 4.00167515884,
			"0.015": 3.12952302831,
			"0.016": 2.07322402008,
			"0.017": 0.275800019604,
			"0.018": 0.0,
			"0.019": 0.0,
			"0.02": 0.0,
			"0.021": 0.0,
			"0.022": 0.0,
			"0.023": 0.0,
			"0.024": 0.0,
			"0.025": 0.0
		}
	}
}
