{
	 "smiles": "CC(C)NC(=O)C1=CC=C(C=C1)C(O)=O", 
	 "Tm": 453.15, 
	 "num_atms": 28, 
	 "gaussian": { 
		 "optdone": 1, 
		 "sigma_profile": "yes", 
		 "theory": "DFT", 
		 "functional": "B3LYP", 
		 "basiset": "6-31G**", 
		 "properties": { 
			 "R2extent": 4450.9016, 
			 "electric_dipole_moment_norm": 3.28853537916, 
			 "electric_quadrupole_moment_norm": 24.4237709746, 
			 "total_energy": -707.463163518, 
			 "HOMO_LUMO_gap": 0.18223, 
			 "cosmo_polarized_energy": -15.96, 
			 "cosmo_cavitation_energy": 31.76, 
			 "cosmo_dispersion_energy": -22.26, 
			 "cosmo_repulsion_energy": 1.76, 
			 "cosmo_total_nonelectrostatic_energy": 11.26, 
			 "SMD_solvation_energy": 6.87 
		},
		"coords": [
			{
				"x": 2.8670807254,
				"y": -2.3050970254,
				"z": 0.1375455796,
				"element": "C" 
			},
			{
				"x": 3.0632222081,
				"y": -1.477557303,
				"z": 1.4154758017,
				"element": "C" 
			},
			{
				"x": 3.0471012171,
				"y": 0.0318654444,
				"z": 1.1354136538,
				"element": "C" 
			},
			{
				"x": 2.1671422884,
				"y": -1.8771454798,
				"z": 2.5302401725,
				"element": "N" 
			},
			{
				"x": 0.9364972184,
				"y": -1.3899738197,
				"z": 2.9115945467,
				"element": "C" 
			},
			{
				"x": 0.5969348909,
				"y": -1.3996556644,
				"z": 4.0914726,
				"element": "O" 
			},
			{
				"x": -0.0345657258,
				"y": -0.9047677787,
				"z": 1.8685626134,
				"element": "C" 
			},
			{
				"x": -0.4126050872,
				"y": -1.698634269,
				"z": 0.7767381995,
				"element": "C" 
			},
			{
				"x": -1.397112248,
				"y": -1.2577600057,
				"z": -0.1035821545,
				"element": "C" 
			},
			{
				"x": -2.009977966,
				"y": -0.0141108316,
				"z": 0.0920581817,
				"element": "C" 
			},
			{
				"x": -1.6486250652,
				"y": 0.774669064,
				"z": 1.1945613662,
				"element": "C" 
			},
			{
				"x": -0.681059622,
				"y": 0.3208820399,
				"z": 2.0846365482,
				"element": "C" 
			},
			{
				"x": -3.0438651642,
				"y": 0.4146146216,
				"z": -0.8875844311,
				"element": "C" 
			},
			{
				"x": -3.5768409337,
				"y": 1.6284854065,
				"z": -0.6006852544,
				"element": "O" 
			},
			{
				"x": -3.394607805,
				"y": -0.2323636097,
				"z": -1.8547235718,
				"element": "O" 
			},
			{
				"x": 2.8262936652,
				"y": -3.3735040022,
				"z": 0.3688399498,
				"element": "H" 
			},
			{
				"x": 3.7064919528,
				"y": -2.1343108067,
				"z": -0.5447390262,
				"element": "H" 
			},
			{
				"x": 1.950921914,
				"y": -2.0269838226,
				"z": -0.388434349,
				"element": "H" 
			},
			{
				"x": 4.0599854306,
				"y": -1.7248921542,
				"z": 1.7986082495,
				"element": "H" 
			},
			{
				"x": 3.2351258692,
				"y": 0.6021237075,
				"z": 2.0501871073,
				"element": "H" 
			},
			{
				"x": 3.8279856265,
				"y": 0.282478162,
				"z": 0.4102188903,
				"element": "H" 
			},
			{
				"x": 2.0895358708,
				"y": 0.3547124032,
				"z": 0.7188715747,
				"element": "H" 
			},
			{
				"x": 2.657522011,
				"y": -2.1958431458,
				"z": 3.3578608045,
				"element": "H" 
			},
			{
				"x": 0.0428080571,
				"y": -2.6725543081,
				"z": 0.6360253357,
				"element": "H" 
			},
			{
				"x": -1.7091303214,
				"y": -1.8643091767,
				"z": -0.947038279,
				"element": "H" 
			},
			{
				"x": -2.1352268131,
				"y": 1.730205724,
				"z": 1.3530290035,
				"element": "H" 
			},
			{
				"x": -0.4182693355,
				"y": 0.9074387153,
				"z": 2.9587690349,
				"element": "H" 
			},
			{
				"x": -4.2321628585,
				"y": 1.7999879145,
				"z": -1.2967221475,
				"element": "H" 
			}
		],
		 "valence_orbital": [ 
			{
				"type": "occ",
				"energy": -0.28051,
				"method": "rhf"
			},
			{
				"type": "occ",
				"energy": -0.27201,
				"method": "rhf"
			},
			{
				"type": "occ",
				"energy": -0.26798,
				"method": "rhf"
			},
			{
				"type": "occ",
				"energy": -0.25867,
				"method": "rhf"
			},
			{
				"type": "occ",
				"energy": -0.2431,
				"method": "rhf"
			},
			{
				"type": "unocc",
				"energy": -0.06087,
				"method": "rhf"
			},
			{
				"type": "unocc",
				"energy": -0.01644,
				"method": "rhf"
			},
			{
				"type": "unocc",
				"energy": 0.01593,
				"method": "rhf"
			},
			{
				"type": "unocc",
				"energy": 0.0604,
				"method": "rhf"
			},
			{
				"type": "unocc",
				"energy": 0.06632,
				"method": "rhf"
			}
		],
		"cosmo_sigma_profile": { 
			"-0.025": 0.0,
			"-0.024": 0.0,
			"-0.023": 0.0,
			"-0.022": 0.0,
			"-0.021": 0.0,
			"-0.02": 0.0,
			"-0.019": 0.0492465350675,
			"-0.018": 0.83296438073,
			"-0.017": 1.10878423354,
			"-0.016": 0.571018545665,
			"-0.015": 0.684292700005,
			"-0.014": 0.861069680144,
			"-0.013": 1.69369081166,
			"-0.012": 1.85456193688,
			"-0.011": 1.5594405369,
			"-0.01": 1.4230197714,
			"-0.009": 1.2664667152,
			"-0.008": 2.43498514419,
			"-0.007": 4.6905286692,
			"-0.006": 8.48779020027,
			"-0.005": 11.1366971985,
			"-0.004": 15.7495445674,
			"-0.003": 23.4883000139,
			"-0.002": 25.3367302975,
			"-0.001": 25.5273026472,
			"0.0": 27.159678649,
			"0.001": 20.529220751,
			"0.002": 15.4806306002,
			"0.003": 9.4080490089,
			"0.004": 6.21569970543,
			"0.005": 5.47818670581,
			"0.006": 4.04680400556,
			"0.007": 3.42757915708,
			"0.008": 3.14417452145,
			"0.009": 3.25807481867,
			"0.01": 3.5196751927,
			"0.011": 5.86542713563,
			"0.012": 5.71544209993,
			"0.013": 4.94757078432,
			"0.014": 3.58060575787,
			"0.015": 0.24975671813,
			"0.016": 0.0,
			"0.017": 0.0,
			"0.018": 0.0,
			"0.019": 0.0,
			"0.02": 0.0,
			"0.021": 0.0,
			"0.022": 0.0,
			"0.023": 0.0,
			"0.024": 0.0,
			"0.025": 0.0
		}
	}
}
