{
	 "smiles": "CC(=O)O[C@H]1CCCC2=CC(=O)CC[C@]12C", 
	 "Tm": 362.65, 
	 "num_atms": 34, 
	 "gaussian": { 
		 "optdone": 1, 
		 "sigma_profile": "yes", 
		 "theory": "DFT", 
		 "functional": "B3LYP", 
		 "basiset": "6-31G**", 
		 "properties": { 
			 "R2extent": 3914.8239, 
			 "electric_dipole_moment_norm": 5.49452442164, 
			 "electric_quadrupole_moment_norm": 14.3477051768, 
			 "total_energy": -731.914958231, 
			 "HOMO_LUMO_gap": 0.18548, 
			 "cosmo_polarized_energy": -13.39, 
			 "cosmo_cavitation_energy": 33.89, 
			 "cosmo_dispersion_energy": -23.71, 
			 "cosmo_repulsion_energy": 1.84, 
			 "cosmo_total_nonelectrostatic_energy": 12.02, 
			 "SMD_solvation_energy": 6.78 
		},
		"coords": [
			{
				"x": 3.4256404875,
				"y": 0.8707667694,
				"z": 1.331822797,
				"element": "C" 
			},
			{
				"x": 2.4104534613,
				"y": -0.1567670745,
				"z": 0.889802008,
				"element": "C" 
			},
			{
				"x": 2.6717759419,
				"y": -1.2012369203,
				"z": 0.3330180542,
				"element": "O" 
			},
			{
				"x": 1.1562649415,
				"y": 0.2496029974,
				"z": 1.2074029178,
				"element": "O" 
			},
			{
				"x": 0.0482886198,
				"y": -0.6488127212,
				"z": 0.9240513579,
				"element": "C" 
			},
			{
				"x": -0.8501062131,
				"y": -0.6726557707,
				"z": 2.1733273689,
				"element": "C" 
			},
			{
				"x": -1.9019140343,
				"y": 0.4437178642,
				"z": 2.1874353961,
				"element": "C" 
			},
			{
				"x": -2.8342963926,
				"y": 0.3333362116,
				"z": 0.9450111387,
				"element": "C" 
			},
			{
				"x": -2.1828363792,
				"y": -0.4880425692,
				"z": -0.1465145419,
				"element": "C" 
			},
			{
				"x": -2.8524086721,
				"y": -1.4635235528,
				"z": -0.7925896118,
				"element": "C" 
			},
			{
				"x": -2.2214333197,
				"y": -2.4214557937,
				"z": -1.722530332,
				"element": "C" 
			},
			{
				"x": -2.8815427796,
				"y": -3.2358894039,
				"z": -2.3527137689,
				"element": "O" 
			},
			{
				"x": -0.702142511,
				"y": -2.384258026,
				"z": -1.7717986602,
				"element": "C" 
			},
			{
				"x": -0.1696789682,
				"y": -0.9551973027,
				"z": -1.6294801495,
				"element": "C" 
			},
			{
				"x": -0.7039603317,
				"y": -0.1998175107,
				"z": -0.3858648406,
				"element": "C" 
			},
			{
				"x": -0.5120546018,
				"y": 1.3150418138,
				"z": -0.655683317,
				"element": "C" 
			},
			{
				"x": 4.4228458965,
				"y": 0.5451939545,
				"z": 1.0379079455,
				"element": "H" 
			},
			{
				"x": 3.1999816372,
				"y": 1.8419392355,
				"z": 0.8818904317,
				"element": "H" 
			},
			{
				"x": 3.3799107819,
				"y": 0.9972736208,
				"z": 2.4176388622,
				"element": "H" 
			},
			{
				"x": 0.477326437,
				"y": -1.6399511807,
				"z": 0.7640442938,
				"element": "H" 
			},
			{
				"x": -1.3597210081,
				"y": -1.6435240769,
				"z": 2.2010380065,
				"element": "H" 
			},
			{
				"x": -0.2104363572,
				"y": -0.626085602,
				"z": 3.0601463619,
				"element": "H" 
			},
			{
				"x": -2.4980057915,
				"y": 0.3850589152,
				"z": 3.1036576072,
				"element": "H" 
			},
			{
				"x": -1.3993783044,
				"y": 1.4160497212,
				"z": 2.2107729091,
				"element": "H" 
			},
			{
				"x": -3.0738064736,
				"y": 1.337100584,
				"z": 0.571680187,
				"element": "H" 
			},
			{
				"x": -3.7866254079,
				"y": -0.1311927664,
				"z": 1.2180246088,
				"element": "H" 
			},
			{
				"x": -3.9115346447,
				"y": -1.6279999626,
				"z": -0.6046186335,
				"element": "H" 
			},
			{
				"x": -0.3322536491,
				"y": -3.0203516451,
				"z": -0.9548735006,
				"element": "H" 
			},
			{
				"x": -0.3692829838,
				"y": -2.8492153893,
				"z": -2.7036878304,
				"element": "H" 
			},
			{
				"x": -0.464108164,
				"y": -0.3882763493,
				"z": -2.5215885282,
				"element": "H" 
			},
			{
				"x": 0.9242179637,
				"y": -0.9611224818,
				"z": -1.6028491458,
				"element": "H" 
			},
			{
				"x": 0.5195047001,
				"y": 1.5130318769,
				"z": -0.9577419423,
				"element": "H" 
			},
			{
				"x": -1.1676092871,
				"y": 1.626008778,
				"z": -1.4751098577,
				"element": "H" 
			},
			{
				"x": -0.7241745936,
				"y": 1.9416537572,
				"z": 0.2118724081,
				"element": "H" 
			}
		],
		 "valence_orbital": [ 
			{
				"type": "occ",
				"energy": -0.31066,
				"method": "rhf"
			},
			{
				"type": "occ",
				"energy": -0.29846,
				"method": "rhf"
			},
			{
				"type": "occ",
				"energy": -0.27853,
				"method": "rhf"
			},
			{
				"type": "occ",
				"energy": -0.25631,
				"method": "rhf"
			},
			{
				"type": "occ",
				"energy": -0.2308,
				"method": "rhf"
			},
			{
				"type": "unocc",
				"energy": -0.04532,
				"method": "rhf"
			},
			{
				"type": "unocc",
				"energy": 0.00418,
				"method": "rhf"
			},
			{
				"type": "unocc",
				"energy": 0.05702,
				"method": "rhf"
			},
			{
				"type": "unocc",
				"energy": 0.07385,
				"method": "rhf"
			},
			{
				"type": "unocc",
				"energy": 0.09478,
				"method": "rhf"
			}
		],
		"cosmo_sigma_profile": { 
			"-0.025": 0.0,
			"-0.024": 0.0,
			"-0.023": 0.0,
			"-0.022": 0.0,
			"-0.021": 0.0,
			"-0.02": 0.0,
			"-0.019": 0.0,
			"-0.018": 0.0,
			"-0.017": 0.0,
			"-0.016": 0.0,
			"-0.015": 0.0,
			"-0.014": 0.0,
			"-0.013": 0.0,
			"-0.012": 0.0,
			"-0.011": 0.0,
			"-0.01": 0.0,
			"-0.009": 0.0,
			"-0.008": 0.0,
			"-0.007": 1.27749180433,
			"-0.006": 7.23533177727,
			"-0.005": 13.9970061696,
			"-0.004": 31.7255024094,
			"-0.003": 38.9288632338,
			"-0.002": 38.3344772452,
			"-0.001": 35.7781670713,
			"0.0": 22.8880012572,
			"0.001": 11.6601669885,
			"0.002": 8.4987305063,
			"0.003": 6.69745705595,
			"0.004": 4.94848232767,
			"0.005": 4.75216903241,
			"0.006": 3.60207128428,
			"0.007": 3.59530759016,
			"0.008": 2.86221457699,
			"0.009": 3.38276981141,
			"0.01": 3.80195878583,
			"0.011": 4.45322500151,
			"0.012": 6.87220202456,
			"0.013": 5.89634349949,
			"0.014": 2.71287429215,
			"0.015": 0.197648700706,
			"0.016": 0.0,
			"0.017": 0.0,
			"0.018": 0.0,
			"0.019": 0.0,
			"0.02": 0.0,
			"0.021": 0.0,
			"0.022": 0.0,
			"0.023": 0.0,
			"0.024": 0.0,
			"0.025": 0.0
		}
	}
}
