{
	 "smiles": "BrC1=CN=CC=C1", 
	 "Tm": 246.05, 
	 "num_atms": 11, 
	 "gaussian": { 
		 "optdone": 1, 
		 "sigma_profile": "yes", 
		 "theory": "DFT", 
		 "functional": "B3LYP", 
		 "basiset": "6-31G**", 
		 "properties": { 
			 "R2extent": 1893.3246, 
			 "electric_dipole_moment_norm": 2.02519975805, 
			 "electric_quadrupole_moment_norm": 3.96577162983, 
			 "total_energy": -2819.08780759, 
			 "HOMO_LUMO_gap": 0.21782, 
			 "cosmo_polarized_energy": -5.35, 
			 "cosmo_cavitation_energy": 17.48, 
			 "cosmo_dispersion_energy": -13.65, 
			 "cosmo_repulsion_energy": 1.14, 
			 "cosmo_total_nonelectrostatic_energy": 4.98, 
			 "SMD_solvation_energy": 0.63 
		},
		"coords": [
			{
				"x": 0.4820566658,
				"y": 0.2992351283,
				"z": 3.1777393593,
				"element": "Br" 
			},
			{
				"x": -0.2707338105,
				"y": -0.107652829,
				"z": 1.4734488019,
				"element": "C" 
			},
			{
				"x": -1.5913031277,
				"y": 0.2501770298,
				"z": 1.1960307849,
				"element": "C" 
			},
			{
				"x": -2.1713772481,
				"y": -0.0087919538,
				"z": 0.0203623476,
				"element": "N" 
			},
			{
				"x": -1.4457355721,
				"y": -0.6346827636,
				"z": -0.91418663,
				"element": "C" 
			},
			{
				"x": -0.1204390126,
				"y": -1.0278007696,
				"z": -0.7216229176,
				"element": "C" 
			},
			{
				"x": 0.4873994904,
				"y": -0.7590022077,
				"z": 0.5037795537,
				"element": "C" 
			},
			{
				"x": -2.192161945,
				"y": 0.7588541209,
				"z": 1.9456809291,
				"element": "H" 
			},
			{
				"x": -1.9477640565,
				"y": -0.8302732823,
				"z": -1.8595114799,
				"element": "H" 
			},
			{
				"x": 0.426455396,
				"y": -1.5332983426,
				"z": -1.5114221267,
				"element": "H" 
			},
			{
				"x": 1.5145032201,
				"y": -1.0441641303,
				"z": 0.7023013776,
				"element": "H" 
			}
		],
		 "valence_orbital": [ 
			{
				"type": "occ",
				"energy": -0.33413,
				"method": "rhf"
			},
			{
				"type": "occ",
				"energy": -0.29925,
				"method": "rhf"
			},
			{
				"type": "occ",
				"energy": -0.29445,
				"method": "rhf"
			},
			{
				"type": "occ",
				"energy": -0.26561,
				"method": "rhf"
			},
			{
				"type": "occ",
				"energy": -0.25625,
				"method": "rhf"
			},
			{
				"type": "unocc",
				"energy": -0.03843,
				"method": "rhf"
			},
			{
				"type": "unocc",
				"energy": -0.02586,
				"method": "rhf"
			},
			{
				"type": "unocc",
				"energy": 1e-05,
				"method": "rhf"
			},
			{
				"type": "unocc",
				"energy": 0.10459,
				"method": "rhf"
			},
			{
				"type": "unocc",
				"energy": 0.12756,
				"method": "rhf"
			}
		],
		"cosmo_sigma_profile": { 
			"-0.025": 0.0,
			"-0.024": 0.0,
			"-0.023": 0.0,
			"-0.022": 0.0,
			"-0.021": 0.0,
			"-0.02": 0.0,
			"-0.019": 0.0,
			"-0.018": 0.0,
			"-0.017": 0.0,
			"-0.016": 0.0,
			"-0.015": 0.0,
			"-0.014": 0.0,
			"-0.013": 0.0,
			"-0.012": 0.0,
			"-0.011": 0.0,
			"-0.01": 0.0,
			"-0.009": 0.225681443182,
			"-0.008": 2.83932170673,
			"-0.007": 8.44806888782,
			"-0.006": 8.25660730277,
			"-0.005": 8.03088925003,
			"-0.004": 7.76234312234,
			"-0.003": 7.18820809486,
			"-0.002": 7.81323945417,
			"-0.001": 9.79826408809,
			"0.0": 15.4753110534,
			"0.001": 19.9591737015,
			"0.002": 12.4088929084,
			"0.003": 9.41868628351,
			"0.004": 13.1224232564,
			"0.005": 3.00614134616,
			"0.006": 0.986438219805,
			"0.007": 1.51639716704,
			"0.008": 1.73443729504,
			"0.009": 0.865816726069,
			"0.01": 0.770091244063,
			"0.011": 0.64707631687,
			"0.012": 1.01572394721,
			"0.013": 0.958745134893,
			"0.014": 1.01146993346,
			"0.015": 0.693087420352,
			"0.016": 0.437331729889,
			"0.017": 0.0,
			"0.018": 0.0,
			"0.019": 0.0,
			"0.02": 0.0,
			"0.021": 0.0,
			"0.022": 0.0,
			"0.023": 0.0,
			"0.024": 0.0,
			"0.025": 0.0
		}
	}
}
