{
	 "smiles": "CCCCCCCCCCCCCCCC(=O)OCC", 
	 "Tm": 297.15, 
	 "num_atms": 56, 
	 "gaussian": { 
		 "optdone": 1, 
		 "sigma_profile": "yes", 
		 "theory": "DFT", 
		 "functional": "B3LYP", 
		 "basiset": "6-31G**", 
		 "properties": { 
			 "R2extent": 13956.1235, 
			 "electric_dipole_moment_norm": 1.82188651952, 
			 "electric_quadrupole_moment_norm": 9.3895566136, 
			 "total_energy": -858.127177768, 
			 "HOMO_LUMO_gap": 0.28292, 
			 "cosmo_polarized_energy": -6.75, 
			 "cosmo_cavitation_energy": 55.49, 
			 "cosmo_dispersion_energy": -37.01, 
			 "cosmo_repulsion_energy": 3.04, 
			 "cosmo_total_nonelectrostatic_energy": 21.52, 
			 "SMD_solvation_energy": 8.49 
		},
		"coords": [
			{
				"x": 2.0783540162,
				"y": -0.5048474724,
				"z": 6.2264700284,
				"element": "C" 
			},
			{
				"x": 2.2731514044,
				"y": -0.2574986376,
				"z": 4.7267609056,
				"element": "C" 
			},
			{
				"x": 1.0212883471,
				"y": -0.581801422,
				"z": 3.8995539281,
				"element": "C" 
			},
			{
				"x": 1.1403889298,
				"y": -0.2641462282,
				"z": 2.3986162856,
				"element": "C" 
			},
			{
				"x": 2.2165510953,
				"y": -1.0512975323,
				"z": 1.6273388295,
				"element": "C" 
			},
			{
				"x": 2.0582498672,
				"y": -2.5834704249,
				"z": 1.6351450095,
				"element": "C" 
			},
			{
				"x": 0.7497379705,
				"y": -3.1280776272,
				"z": 1.0355930197,
				"element": "C" 
			},
			{
				"x": 0.5500007092,
				"y": -2.8218906761,
				"z": -0.455688024,
				"element": "C" 
			},
			{
				"x": -0.7226243235,
				"y": -3.4595664164,
				"z": -1.0309974577,
				"element": "C" 
			},
			{
				"x": -0.9148105157,
				"y": -3.2602286697,
				"z": -2.5450081415,
				"element": "C" 
			},
			{
				"x": -1.0839541818,
				"y": -1.8061401409,
				"z": -3.0204072273,
				"element": "C" 
			},
			{
				"x": -2.3318073854,
				"y": -1.095507856,
				"z": -2.4783334156,
				"element": "C" 
			},
			{
				"x": -2.5120457237,
				"y": 0.3196298711,
				"z": -3.0423383311,
				"element": "C" 
			},
			{
				"x": -3.7591859901,
				"y": 1.0306617389,
				"z": -2.5008062916,
				"element": "C" 
			},
			{
				"x": -3.9585202711,
				"y": 2.4412674799,
				"z": -3.0643108118,
				"element": "C" 
			},
			{
				"x": -2.9379758619,
				"y": 3.4436028673,
				"z": -2.5556315195,
				"element": "C" 
			},
			{
				"x": -2.2103706072,
				"y": 3.2871459743,
				"z": -1.597128316,
				"element": "O" 
			},
			{
				"x": -2.9561884224,
				"y": 4.5723414411,
				"z": -3.2992237315,
				"element": "O" 
			},
			{
				"x": -2.0541998923,
				"y": 5.6211854196,
				"z": -2.8779737786,
				"element": "C" 
			},
			{
				"x": -2.2284938444,
				"y": 6.7848208996,
				"z": -3.8355567059,
				"element": "C" 
			},
			{
				"x": 1.8287360904,
				"y": -1.5535071427,
				"z": 6.4257693694,
				"element": "H" 
			},
			{
				"x": 2.9835621996,
				"y": -0.2658075862,
				"z": 6.7945578386,
				"element": "H" 
			},
			{
				"x": 1.2626612607,
				"y": 0.1084398168,
				"z": 6.6265655083,
				"element": "H" 
			},
			{
				"x": 3.1218957372,
				"y": -0.8552107968,
				"z": 4.3708717412,
				"element": "H" 
			},
			{
				"x": 2.5515872641,
				"y": 0.7926834993,
				"z": 4.561582639,
				"element": "H" 
			},
			{
				"x": 0.1746210113,
				"y": -0.0120581527,
				"z": 4.3067288116,
				"element": "H" 
			},
			{
				"x": 0.7609348056,
				"y": -1.6398936513,
				"z": 4.0404387137,
				"element": "H" 
			},
			{
				"x": 1.3484843354,
				"y": 0.808129671,
				"z": 2.2812815202,
				"element": "H" 
			},
			{
				"x": 0.1628734988,
				"y": -0.4274437242,
				"z": 1.9271215694,
				"element": "H" 
			},
			{
				"x": 3.2070033,
				"y": -0.8064325942,
				"z": 2.0316082637,
				"element": "H" 
			},
			{
				"x": 2.2281420378,
				"y": -0.6914881354,
				"z": 0.5907300479,
				"element": "H" 
			},
			{
				"x": 2.1512102249,
				"y": -2.9526301485,
				"z": 2.6647340012,
				"element": "H" 
			},
			{
				"x": 2.9045726202,
				"y": -3.0197361816,
				"z": 1.0867073119,
				"element": "H" 
			},
			{
				"x": -0.1096269379,
				"y": -2.743201848,
				"z": 1.6013394554,
				"element": "H" 
			},
			{
				"x": 0.7329287031,
				"y": -4.2176015653,
				"z": 1.1765912721,
				"element": "H" 
			},
			{
				"x": 0.5196671288,
				"y": -1.7360811752,
				"z": -0.6081626733,
				"element": "H" 
			},
			{
				"x": 1.4228357943,
				"y": -3.1837615072,
				"z": -1.0193148281,
				"element": "H" 
			},
			{
				"x": -0.699115901,
				"y": -4.5389009724,
				"z": -0.8269549127,
				"element": "H" 
			},
			{
				"x": -1.596991329,
				"y": -3.0750751193,
				"z": -0.4887632249,
				"element": "H" 
			},
			{
				"x": -1.7924687406,
				"y": -3.8382946486,
				"z": -2.8659259441,
				"element": "H" 
			},
			{
				"x": -0.0554399517,
				"y": -3.7016806745,
				"z": -3.0683203131,
				"element": "H" 
			},
			{
				"x": -0.1927777728,
				"y": -1.2200905996,
				"z": -2.7593147727,
				"element": "H" 
			},
			{
				"x": -1.1275871893,
				"y": -1.8064035936,
				"z": -4.1182742462,
				"element": "H" 
			},
			{
				"x": -3.2217923577,
				"y": -1.6985370343,
				"z": -2.7117166269,
				"element": "H" 
			},
			{
				"x": -2.283714325,
				"y": -1.0364966234,
				"z": -1.3830445969,
				"element": "H" 
			},
			{
				"x": -1.6259346479,
				"y": 0.920370408,
				"z": -2.8032834979,
				"element": "H" 
			},
			{
				"x": -2.5699848655,
				"y": 0.2687650312,
				"z": -4.1396200491,
				"element": "H" 
			},
			{
				"x": -4.6500745692,
				"y": 0.43404201,
				"z": -2.7345786897,
				"element": "H" 
			},
			{
				"x": -3.6963785095,
				"y": 1.0946220346,
				"z": -1.4085753109,
				"element": "H" 
			},
			{
				"x": -4.9464815512,
				"y": 2.8322417707,
				"z": -2.7861474343,
				"element": "H" 
			},
			{
				"x": -3.9349801725,
				"y": 2.4481085746,
				"z": -4.1601032564,
				"element": "H" 
			},
			{
				"x": -2.2905869398,
				"y": 5.898869344,
				"z": -1.8456981647,
				"element": "H" 
			},
			{
				"x": -1.0311228793,
				"y": 5.2318798954,
				"z": -2.8852776112,
				"element": "H" 
			},
			{
				"x": -1.5604891552,
				"y": 7.6038469908,
				"z": -3.5510888312,
				"element": "H" 
			},
			{
				"x": -1.9902500236,
				"y": 6.4868551991,
				"z": -4.8607149738,
				"element": "H" 
			},
			{
				"x": -3.2568635138,
				"y": 7.1570966417,
				"z": -3.8161223595,
				"element": "H" 
			}
		],
		 "valence_orbital": [ 
			{
				"type": "occ",
				"energy": -0.29943,
				"method": "rhf"
			},
			{
				"type": "occ",
				"energy": -0.29552,
				"method": "rhf"
			},
			{
				"type": "occ",
				"energy": -0.29452,
				"method": "rhf"
			},
			{
				"type": "occ",
				"energy": -0.29198,
				"method": "rhf"
			},
			{
				"type": "occ",
				"energy": -0.26589,
				"method": "rhf"
			},
			{
				"type": "unocc",
				"energy": 0.01703,
				"method": "rhf"
			},
			{
				"type": "unocc",
				"energy": 0.07543,
				"method": "rhf"
			},
			{
				"type": "unocc",
				"energy": 0.09017,
				"method": "rhf"
			},
			{
				"type": "unocc",
				"energy": 0.09666,
				"method": "rhf"
			},
			{
				"type": "unocc",
				"energy": 0.10498,
				"method": "rhf"
			}
		],
		"cosmo_sigma_profile": { 
			"-0.025": 0.0,
			"-0.024": 0.0,
			"-0.023": 0.0,
			"-0.022": 0.0,
			"-0.021": 0.0,
			"-0.02": 0.0,
			"-0.019": 0.0,
			"-0.018": 0.0,
			"-0.017": 0.0,
			"-0.016": 0.0,
			"-0.015": 0.0,
			"-0.014": 0.0,
			"-0.013": 0.0,
			"-0.012": 0.0,
			"-0.011": 0.0,
			"-0.01": 0.0,
			"-0.009": 0.0,
			"-0.008": 0.0,
			"-0.007": 0.0,
			"-0.006": 1.9767302629,
			"-0.005": 7.69408197544,
			"-0.004": 15.4824642118,
			"-0.003": 21.2741583543,
			"-0.002": 55.069628701,
			"-0.001": 92.2661161265,
			"0.0": 93.7372011572,
			"0.001": 72.2924564058,
			"0.002": 33.024649125,
			"0.003": 4.35928441756,
			"0.004": 4.09891531537,
			"0.005": 2.4566728639,
			"0.006": 3.39212045832,
			"0.007": 2.73697032349,
			"0.008": 3.52237755524,
			"0.009": 1.5852102805,
			"0.01": 2.18690932987,
			"0.011": 2.27146665104,
			"0.012": 3.6901039423,
			"0.013": 2.15457550851,
			"0.014": 0.0,
			"0.015": 0.0,
			"0.016": 0.0,
			"0.017": 0.0,
			"0.018": 0.0,
			"0.019": 0.0,
			"0.02": 0.0,
			"0.021": 0.0,
			"0.022": 0.0,
			"0.023": 0.0,
			"0.024": 0.0,
			"0.025": 0.0
		}
	}
}
