{
	 "smiles": "S1C=C(N2C1=NC1=C2C=CC=C1)C1=CC=CC=C1", 
	 "Tm": 414.15, 
	 "num_atms": 28, 
	 "gaussian": { 
		 "optdone": 1, 
		 "sigma_profile": "yes", 
		 "theory": "DFT", 
		 "functional": "B3LYP", 
		 "basiset": "6-31G**", 
		 "properties": { 
			 "R2extent": 4833.3515, 
			 "electric_dipole_moment_norm": 4.57888073878, 
			 "electric_quadrupole_moment_norm": 8.92038443118, 
			 "total_energy": -1085.30731758, 
			 "HOMO_LUMO_gap": 0.163, 
			 "cosmo_polarized_energy": -10.18, 
			 "cosmo_cavitation_energy": 33.44, 
			 "cosmo_dispersion_energy": -24.9, 
			 "cosmo_repulsion_energy": 1.83, 
			 "cosmo_total_nonelectrostatic_energy": 10.37, 
			 "SMD_solvation_energy": 2.98 
		},
		"coords": [
			{
				"x": 0.2255930532,
				"y": 3.3247402265,
				"z": -0.622748463,
				"element": "S" 
			},
			{
				"x": 1.3578599222,
				"y": 2.2684690005,
				"z": 0.2198994901,
				"element": "C" 
			},
			{
				"x": 1.0176393087,
				"y": 0.9548135526,
				"z": 0.185444115,
				"element": "C" 
			},
			{
				"x": -0.1668593734,
				"y": 0.7579132647,
				"z": -0.540174575,
				"element": "N" 
			},
			{
				"x": -0.7392857249,
				"y": 1.924983473,
				"z": -1.0471771473,
				"element": "C" 
			},
			{
				"x": -1.8167611353,
				"y": 1.7569373669,
				"z": -1.7603547757,
				"element": "N" 
			},
			{
				"x": -1.9923996652,
				"y": 0.3769326817,
				"z": -1.7562984651,
				"element": "C" 
			},
			{
				"x": -0.9692444918,
				"y": -0.2841769646,
				"z": -1.0187694379,
				"element": "C" 
			},
			{
				"x": -0.9095122292,
				"y": -1.675834559,
				"z": -0.9147777005,
				"element": "C" 
			},
			{
				"x": -1.9153077449,
				"y": -2.401081001,
				"z": -1.5504152575,
				"element": "C" 
			},
			{
				"x": -2.9443403273,
				"y": -1.7620093146,
				"z": -2.2679122517,
				"element": "C" 
			},
			{
				"x": -2.9940609335,
				"y": -0.3768934007,
				"z": -2.3806415365,
				"element": "C" 
			},
			{
				"x": 1.7433062701,
				"y": -0.1340568459,
				"z": 0.8693719508,
				"element": "C" 
			},
			{
				"x": 1.0738000792,
				"y": -1.0326816408,
				"z": 1.7173092977,
				"element": "C" 
			},
			{
				"x": 1.7846009679,
				"y": -2.0169529659,
				"z": 2.4021350741,
				"element": "C" 
			},
			{
				"x": 3.170794607,
				"y": -2.1141744109,
				"z": 2.2575272719,
				"element": "C" 
			},
			{
				"x": 3.8440808908,
				"y": -1.2210412548,
				"z": 1.4225128691,
				"element": "C" 
			},
			{
				"x": 3.1360866985,
				"y": -0.2390725199,
				"z": 0.7300704497,
				"element": "C" 
			},
			{
				"x": 2.193072612,
				"y": 2.6905806118,
				"z": 0.7580029293,
				"element": "H" 
			},
			{
				"x": -0.1161753925,
				"y": -2.1768816213,
				"z": -0.3742049585,
				"element": "H" 
			},
			{
				"x": -1.8998515404,
				"y": -3.4852748895,
				"z": -1.4921816581,
				"element": "H" 
			},
			{
				"x": -3.7093925165,
				"y": -2.3657282065,
				"z": -2.7472271682,
				"element": "H" 
			},
			{
				"x": -3.776385973,
				"y": 0.1243366314,
				"z": -2.9408954509,
				"element": "H" 
			},
			{
				"x": -0.0004130596,
				"y": -0.948747795,
				"z": 1.8491587404,
				"element": "H" 
			},
			{
				"x": 1.2556230906,
				"y": -2.7029281688,
				"z": 3.0572110233,
				"element": "H" 
			},
			{
				"x": 3.721742524,
				"y": -2.8820929327,
				"z": 2.7923512494,
				"element": "H" 
			},
			{
				"x": 4.9208734392,
				"y": -1.2937178182,
				"z": 1.3012342886,
				"element": "H" 
			},
			{
				"x": 3.6554166441,
				"y": 0.4430395009,
				"z": 0.0639500967,
				"element": "H" 
			}
		],
		 "valence_orbital": [ 
			{
				"type": "occ",
				"energy": -0.27503,
				"method": "rhf"
			},
			{
				"type": "occ",
				"energy": -0.26754,
				"method": "rhf"
			},
			{
				"type": "occ",
				"energy": -0.24779,
				"method": "rhf"
			},
			{
				"type": "occ",
				"energy": -0.22523,
				"method": "rhf"
			},
			{
				"type": "occ",
				"energy": -0.20302,
				"method": "rhf"
			},
			{
				"type": "unocc",
				"energy": -0.04002,
				"method": "rhf"
			},
			{
				"type": "unocc",
				"energy": -0.01943,
				"method": "rhf"
			},
			{
				"type": "unocc",
				"energy": -0.01118,
				"method": "rhf"
			},
			{
				"type": "unocc",
				"energy": 0.00012,
				"method": "rhf"
			},
			{
				"type": "unocc",
				"energy": 0.01408,
				"method": "rhf"
			}
		],
		"cosmo_sigma_profile": { 
			"-0.025": 0.0,
			"-0.024": 0.0,
			"-0.023": 0.0,
			"-0.022": 0.0,
			"-0.021": 0.0,
			"-0.02": 0.0,
			"-0.019": 0.0,
			"-0.018": 0.0,
			"-0.017": 0.0,
			"-0.016": 0.0,
			"-0.015": 0.0,
			"-0.014": 0.0,
			"-0.013": 0.0,
			"-0.012": 0.0,
			"-0.011": 0.0,
			"-0.01": 0.808578804044,
			"-0.009": 2.3476574995,
			"-0.008": 1.70199797826,
			"-0.007": 2.73612481733,
			"-0.006": 14.1960610227,
			"-0.005": 20.9445861511,
			"-0.004": 22.235002933,
			"-0.003": 19.6751652123,
			"-0.002": 22.4566643906,
			"-0.001": 22.2304263411,
			"0.0": 21.6149173304,
			"0.001": 22.2236062758,
			"0.002": 23.8458048965,
			"0.003": 19.8331798242,
			"0.004": 22.6226206044,
			"0.005": 15.1243662188,
			"0.006": 6.24558375758,
			"0.007": 1.78730020183,
			"0.008": 1.06589216447,
			"0.009": 1.00103398552,
			"0.01": 0.917439651588,
			"0.011": 1.90578770362,
			"0.012": 1.19086311903,
			"0.013": 0.701350282934,
			"0.014": 0.871146735886,
			"0.015": 0.96663846624,
			"0.016": 1.15464504314,
			"0.017": 0.214500377058,
			"0.018": 0.0,
			"0.019": 0.0,
			"0.02": 0.0,
			"0.021": 0.0,
			"0.022": 0.0,
			"0.023": 0.0,
			"0.024": 0.0,
			"0.025": 0.0
		}
	}
}
