{
	 "smiles": "CN1C=C(C=O)C=N1", 
	 "Tm": 305.15, 
	 "num_atms": 14, 
	 "gaussian": { 
		 "optdone": 1, 
		 "sigma_profile": "yes", 
		 "theory": "DFT", 
		 "functional": "B3LYP", 
		 "basiset": "6-31G**", 
		 "properties": { 
			 "R2extent": 1663.8851, 
			 "electric_dipole_moment_norm": 3.20198974702, 
			 "electric_quadrupole_moment_norm": 17.4841333225, 
			 "total_energy": -378.840632892, 
			 "HOMO_LUMO_gap": 0.20534, 
			 "cosmo_polarized_energy": -11.3, 
			 "cosmo_cavitation_energy": 18.78, 
			 "cosmo_dispersion_energy": -13.72, 
			 "cosmo_repulsion_energy": 1.14, 
			 "cosmo_total_nonelectrostatic_energy": 6.21, 
			 "SMD_solvation_energy": 4.18 
		},
		"coords": [
			{
				"x": -1.3726523099,
				"y": 0.1916721916,
				"z": -0.1107846876,
				"element": "C" 
			},
			{
				"x": -0.0162172484,
				"y": 0.5124313881,
				"z": 0.2976370688,
				"element": "N" 
			},
			{
				"x": 0.5655994587,
				"y": 1.724847346,
				"z": 0.3799874632,
				"element": "C" 
			},
			{
				"x": 1.8717490552,
				"y": 1.5159784861,
				"z": 0.8179907336,
				"element": "C" 
			},
			{
				"x": 2.8904322556,
				"y": 2.5315888874,
				"z": 1.0578166071,
				"element": "C" 
			},
			{
				"x": 2.7233766633,
				"y": 3.7299607567,
				"z": 0.9007534878,
				"element": "O" 
			},
			{
				"x": 1.9605852369,
				"y": 0.1069755274,
				"z": 0.9682184492,
				"element": "C" 
			},
			{
				"x": 0.8220099796,
				"y": -0.4988218048,
				"z": 0.6544953786,
				"element": "N" 
			},
			{
				"x": -1.895900465,
				"y": 1.1160149347,
				"z": -0.3588426179,
				"element": "H" 
			},
			{
				"x": -1.8945872486,
				"y": -0.3176034653,
				"z": 0.7028582043,
				"element": "H" 
			},
			{
				"x": -1.3518991534,
				"y": -0.4633697779,
				"z": -0.9850172197,
				"element": "H" 
			},
			{
				"x": 0.047969321,
				"y": 2.6402470493,
				"z": 0.1345147991,
				"element": "H" 
			},
			{
				"x": 3.8684317764,
				"y": 2.1325284765,
				"z": 1.4070368773,
				"element": "H" 
			},
			{
				"x": 2.8109026787,
				"y": -0.4794499957,
				"z": 1.2922354561,
				"element": "H" 
			}
		],
		 "valence_orbital": [ 
			{
				"type": "occ",
				"energy": -0.37683,
				"method": "rhf"
			},
			{
				"type": "occ",
				"energy": -0.30508,
				"method": "rhf"
			},
			{
				"type": "occ",
				"energy": -0.27109,
				"method": "rhf"
			},
			{
				"type": "occ",
				"energy": -0.25613,
				"method": "rhf"
			},
			{
				"type": "occ",
				"energy": -0.24663,
				"method": "rhf"
			},
			{
				"type": "unocc",
				"energy": -0.04129,
				"method": "rhf"
			},
			{
				"type": "unocc",
				"energy": 0.00791,
				"method": "rhf"
			},
			{
				"type": "unocc",
				"energy": 0.08572,
				"method": "rhf"
			},
			{
				"type": "unocc",
				"energy": 0.10962,
				"method": "rhf"
			},
			{
				"type": "unocc",
				"energy": 0.11063,
				"method": "rhf"
			}
		],
		"cosmo_sigma_profile": { 
			"-0.025": 0.0,
			"-0.024": 0.0,
			"-0.023": 0.0,
			"-0.022": 0.0,
			"-0.021": 0.0,
			"-0.02": 0.0,
			"-0.019": 0.0,
			"-0.018": 0.0,
			"-0.017": 0.0,
			"-0.016": 0.0,
			"-0.015": 0.0,
			"-0.014": 0.0,
			"-0.013": 0.0,
			"-0.012": 0.0,
			"-0.011": 0.129928329761,
			"-0.01": 2.6399187383,
			"-0.009": 2.63708390589,
			"-0.008": 4.52809497658,
			"-0.007": 7.97149894546,
			"-0.006": 13.3660520024,
			"-0.005": 11.7528115395,
			"-0.004": 13.050361664,
			"-0.003": 12.0883003896,
			"-0.002": 6.69823159514,
			"-0.001": 6.6231087656,
			"0.0": 7.05277634583,
			"0.001": 8.68563421352,
			"0.002": 9.10798123761,
			"0.003": 5.86616575703,
			"0.004": 4.18058264843,
			"0.005": 3.54205718878,
			"0.006": 2.96016234313,
			"0.007": 2.67692983909,
			"0.008": 3.01756821152,
			"0.009": 3.05000465278,
			"0.01": 2.9124965159,
			"0.011": 4.69726477185,
			"0.012": 5.66987943957,
			"0.013": 3.40338760775,
			"0.014": 1.42522152673,
			"0.015": 0.657599116319,
			"0.016": 0.0,
			"0.017": 0.0,
			"0.018": 0.0,
			"0.019": 0.0,
			"0.02": 0.0,
			"0.021": 0.0,
			"0.022": 0.0,
			"0.023": 0.0,
			"0.024": 0.0,
			"0.025": 0.0
		}
	}
}
