{
	 "smiles": "NC(=S)COC1=C(C=CC=C1)C1=CC=CC=C1", 
	 "Tm": 451.15, 
	 "num_atms": 30, 
	 "gaussian": { 
		 "optdone": 1, 
		 "sigma_profile": "yes", 
		 "theory": "DFT", 
		 "functional": "B3LYP", 
		 "basiset": "6-31G**", 
		 "properties": { 
			 "R2extent": 5549.8595, 
			 "electric_dipole_moment_norm": 4.29403637036, 
			 "electric_quadrupole_moment_norm": 27.3214688558, 
			 "total_energy": -1069.49265114, 
			 "HOMO_LUMO_gap": 0.1769, 
			 "cosmo_polarized_energy": -14.84, 
			 "cosmo_cavitation_energy": 35.55, 
			 "cosmo_dispersion_energy": -25.48, 
			 "cosmo_repulsion_energy": 1.94, 
			 "cosmo_total_nonelectrostatic_energy": 12.01, 
			 "SMD_solvation_energy": 4.89 
		},
		"coords": [
			{
				"x": 3.2150498564,
				"y": -0.1269219174,
				"z": 1.4272130109,
				"element": "N" 
			},
			{
				"x": 3.5183158403,
				"y": 0.2539057251,
				"z": 0.1825309319,
				"element": "C" 
			},
			{
				"x": 5.0210825928,
				"y": 0.7553685262,
				"z": -0.324246625,
				"element": "S" 
			},
			{
				"x": 2.3552809016,
				"y": 0.2263533471,
				"z": -0.797748759,
				"element": "C" 
			},
			{
				"x": 1.216248425,
				"y": -0.3463827745,
				"z": -0.1679858127,
				"element": "O" 
			},
			{
				"x": -0.0043365762,
				"y": -0.3036844726,
				"z": -0.7927450089,
				"element": "C" 
			},
			{
				"x": -1.1154208019,
				"y": -0.7172242437,
				"z": -0.0210722913,
				"element": "C" 
			},
			{
				"x": -2.3796997378,
				"y": -0.6637080056,
				"z": -0.6223648975,
				"element": "C" 
			},
			{
				"x": -2.554752403,
				"y": -0.2274210616,
				"z": -1.9364656669,
				"element": "C" 
			},
			{
				"x": -1.4451130103,
				"y": 0.1679511187,
				"z": -2.6781542019,
				"element": "C" 
			},
			{
				"x": -0.1692734101,
				"y": 0.1321425481,
				"z": -2.1101895276,
				"element": "C" 
			},
			{
				"x": -0.9777167639,
				"y": -1.1712338117,
				"z": 1.3899793714,
				"element": "C" 
			},
			{
				"x": -0.0270090726,
				"y": -2.1356972643,
				"z": 1.7711518762,
				"element": "C" 
			},
			{
				"x": 0.0589183523,
				"y": -2.5701565133,
				"z": 3.094064735,
				"element": "C" 
			},
			{
				"x": -0.8021229662,
				"y": -2.0522041343,
				"z": 4.0645673084,
				"element": "C" 
			},
			{
				"x": -1.7519136043,
				"y": -1.0973090729,
				"z": 3.6996771824,
				"element": "C" 
			},
			{
				"x": -1.8378194331,
				"y": -0.6618996788,
				"z": 2.3768724742,
				"element": "C" 
			},
			{
				"x": 3.9395255364,
				"y": -0.1212920774,
				"z": 2.1299620007,
				"element": "H" 
			},
			{
				"x": 2.2748302516,
				"y": -0.4244393768,
				"z": 1.6579800016,
				"element": "H" 
			},
			{
				"x": 2.6562700333,
				"y": -0.3500513365,
				"z": -1.679832587,
				"element": "H" 
			},
			{
				"x": 2.1502599173,
				"y": 1.2557022954,
				"z": -1.1172956866,
				"element": "H" 
			},
			{
				"x": -3.2384983108,
				"y": -0.9908588491,
				"z": -0.0436070057,
				"element": "H" 
			},
			{
				"x": -3.547465899,
				"y": -0.2056046845,
				"z": -2.3747875645,
				"element": "H" 
			},
			{
				"x": -1.5602073199,
				"y": 0.5049441838,
				"z": -3.7040710299,
				"element": "H" 
			},
			{
				"x": 0.6858854562,
				"y": 0.4434935047,
				"z": -2.6982828902,
				"element": "H" 
			},
			{
				"x": 0.6343847505,
				"y": -2.5564793648,
				"z": 1.021210787,
				"element": "H" 
			},
			{
				"x": 0.7927909508,
				"y": -3.3244890764,
				"z": 3.3645519212,
				"element": "H" 
			},
			{
				"x": -0.7336518462,
				"y": -2.3913215756,
				"z": 5.0940992598,
				"element": "H" 
			},
			{
				"x": -2.4243051754,
				"y": -0.6841165738,
				"z": 4.4462289825,
				"element": "H" 
			},
			{
				"x": -2.5674365337,
				"y": 0.0951346164,
				"z": 2.1043597116,
				"element": "H" 
			}
		],
		 "valence_orbital": [ 
			{
				"type": "occ",
				"energy": -0.25881,
				"method": "rhf"
			},
			{
				"type": "occ",
				"energy": -0.24728,
				"method": "rhf"
			},
			{
				"type": "occ",
				"energy": -0.23203,
				"method": "rhf"
			},
			{
				"type": "occ",
				"energy": -0.2237,
				"method": "rhf"
			},
			{
				"type": "occ",
				"energy": -0.21102,
				"method": "rhf"
			},
			{
				"type": "unocc",
				"energy": -0.03412,
				"method": "rhf"
			},
			{
				"type": "unocc",
				"energy": -0.02904,
				"method": "rhf"
			},
			{
				"type": "unocc",
				"energy": -0.00993,
				"method": "rhf"
			},
			{
				"type": "unocc",
				"energy": -0.00191,
				"method": "rhf"
			},
			{
				"type": "unocc",
				"energy": 0.0154,
				"method": "rhf"
			}
		],
		"cosmo_sigma_profile": { 
			"-0.025": 0.0,
			"-0.024": 0.0,
			"-0.023": 0.0,
			"-0.022": 0.0,
			"-0.021": 0.0,
			"-0.02": 0.0,
			"-0.019": 0.0,
			"-0.018": 0.0,
			"-0.017": 0.0,
			"-0.016": 0.118313029748,
			"-0.015": 1.06510753848,
			"-0.014": 1.20424387814,
			"-0.013": 1.37545945759,
			"-0.012": 1.18290035407,
			"-0.011": 1.00589702228,
			"-0.01": 0.978580069892,
			"-0.009": 1.91027650082,
			"-0.008": 4.84653045482,
			"-0.007": 8.06064722581,
			"-0.006": 13.1509984354,
			"-0.005": 21.5649092724,
			"-0.004": 24.9208771872,
			"-0.003": 23.9767222822,
			"-0.002": 17.3171802101,
			"-0.001": 18.258326078,
			"0.0": 15.0395253498,
			"0.001": 17.1555497951,
			"0.002": 18.0402218489,
			"0.003": 17.9870337619,
			"0.004": 19.8893764562,
			"0.005": 19.7727953407,
			"0.006": 9.91305786234,
			"0.007": 4.61153223937,
			"0.008": 4.73120856229,
			"0.009": 7.63287780223,
			"0.01": 5.00188198706,
			"0.011": 3.40584795918,
			"0.012": 2.74732570931,
			"0.013": 0.145355375814,
			"0.014": 0.0,
			"0.015": 0.0,
			"0.016": 0.0,
			"0.017": 0.0,
			"0.018": 0.0,
			"0.019": 0.0,
			"0.02": 0.0,
			"0.021": 0.0,
			"0.022": 0.0,
			"0.023": 0.0,
			"0.024": 0.0,
			"0.025": 0.0
		}
	}
}
