{
	 "smiles": "CC1=CC=C(NC(=O)CC2(CCCC2)C(O)=O)C=C1", 
	 "Tm": 465.15, 
	 "num_atms": 38, 
	 "gaussian": { 
		 "optdone": 1, 
		 "sigma_profile": "yes", 
		 "theory": "DFT", 
		 "functional": "B3LYP", 
		 "basiset": "6-31G**", 
		 "properties": { 
			 "R2extent": 7077.205, 
			 "electric_dipole_moment_norm": 3.80565834909, 
			 "electric_quadrupole_moment_norm": 27.2598652176, 
			 "total_energy": -863.517151062, 
			 "HOMO_LUMO_gap": 0.19485, 
			 "cosmo_polarized_energy": -16.95, 
			 "cosmo_cavitation_energy": 39.0, 
			 "cosmo_dispersion_energy": -27.94, 
			 "cosmo_repulsion_energy": 2.13, 
			 "cosmo_total_nonelectrostatic_energy": 13.19, 
			 "SMD_solvation_energy": 7.12 
		},
		"coords": [
			{
				"x": -1.5790166546,
				"y": -0.9141406812,
				"z": -5.6295312935,
				"element": "C" 
			},
			{
				"x": -0.922932732,
				"y": -0.6917196133,
				"z": -4.2870942765,
				"element": "C" 
			},
			{
				"x": -0.4341662248,
				"y": 0.5690135975,
				"z": -3.9187755722,
				"element": "C" 
			},
			{
				"x": 0.1970739472,
				"y": 0.769864137,
				"z": -2.6957682065,
				"element": "C" 
			},
			{
				"x": 0.3583201175,
				"y": -0.2935512726,
				"z": -1.7935000027,
				"element": "C" 
			},
			{
				"x": 1.0174629232,
				"y": -0.0137997722,
				"z": -0.5775005683,
				"element": "N" 
			},
			{
				"x": 1.1957037976,
				"y": -0.8281994497,
				"z": 0.5062164816,
				"element": "C" 
			},
			{
				"x": 0.8088593703,
				"y": -1.9930781849,
				"z": 0.581488785,
				"element": "O" 
			},
			{
				"x": 1.9452295833,
				"y": -0.1837707572,
				"z": 1.6804202746,
				"element": "C" 
			},
			{
				"x": 1.079863947,
				"y": 0.6505740814,
				"z": 2.6606158146,
				"element": "C" 
			},
			{
				"x": 1.9006283372,
				"y": 0.9590721731,
				"z": 3.9781920944,
				"element": "C" 
			},
			{
				"x": 0.9779184055,
				"y": 0.5946694632,
				"z": 5.1552479584,
				"element": "C" 
			},
			{
				"x": 0.1476901043,
				"y": -0.5736015156,
				"z": 4.6087533346,
				"element": "C" 
			},
			{
				"x": -0.1768401323,
				"y": -0.1478140964,
				"z": 3.1649810457,
				"element": "C" 
			},
			{
				"x": 0.7161857991,
				"y": 1.9965233294,
				"z": 2.0199638873,
				"element": "C" 
			},
			{
				"x": -0.0830570397,
				"y": 2.8166143035,
				"z": 2.7428836631,
				"element": "O" 
			},
			{
				"x": 1.1372862084,
				"y": 2.3949195781,
				"z": 0.9538343103,
				"element": "O" 
			},
			{
				"x": -0.1288387391,
				"y": -1.5619889678,
				"z": -2.1420278515,
				"element": "C" 
			},
			{
				"x": -0.7581201567,
				"y": -1.7398296123,
				"z": -3.3739561913,
				"element": "C" 
			},
			{
				"x": -2.1282854683,
				"y": -0.026613043,
				"z": -5.9598201676,
				"element": "H" 
			},
			{
				"x": -0.8374045643,
				"y": -1.142559491,
				"z": -6.4059510527,
				"element": "H" 
			},
			{
				"x": -2.2819194147,
				"y": -1.7522130036,
				"z": -5.597042267,
				"element": "H" 
			},
			{
				"x": -0.5505056625,
				"y": 1.4101190277,
				"z": -4.5981220744,
				"element": "H" 
			},
			{
				"x": 0.5624383375,
				"y": 1.7590988375,
				"z": -2.4302526567,
				"element": "H" 
			},
			{
				"x": 1.2860531973,
				"y": 0.9540522034,
				"z": -0.427025683,
				"element": "H" 
			},
			{
				"x": 2.3664104083,
				"y": -1.0251165958,
				"z": 2.2352506511,
				"element": "H" 
			},
			{
				"x": 2.7714234623,
				"y": 0.4382414324,
				"z": 1.3219895181,
				"element": "H" 
			},
			{
				"x": 2.7855133535,
				"y": 0.3150909915,
				"z": 3.9909845373,
				"element": "H" 
			},
			{
				"x": 2.2636453528,
				"y": 1.990546172,
				"z": 4.0186623145,
				"element": "H" 
			},
			{
				"x": 0.3198111795,
				"y": 1.4380097055,
				"z": 5.4146564384,
				"element": "H" 
			},
			{
				"x": 1.5372718311,
				"y": 0.3515333372,
				"z": 6.0637309601,
				"element": "H" 
			},
			{
				"x": 0.7539941385,
				"y": -1.4872341803,
				"z": 4.6009482058,
				"element": "H" 
			},
			{
				"x": -0.7498069386,
				"y": -0.7852969757,
				"z": 5.1977324282,
				"element": "H" 
			},
			{
				"x": -1.0726771606,
				"y": 0.4853860663,
				"z": 3.1538295854,
				"element": "H" 
			},
			{
				"x": -0.3877944129,
				"y": -0.9967435409,
				"z": 2.5117710575,
				"element": "H" 
			},
			{
				"x": -0.3464123419,
				"y": 2.3936231681,
				"z": 3.5724660036,
				"element": "H" 
			},
			{
				"x": -0.0187634609,
				"y": -2.3822188932,
				"z": -1.446994025,
				"element": "H" 
			},
			{
				"x": -1.1333426979,
				"y": -2.7287619583,
				"z": -3.6273574606,
				"element": "H" 
			}
		],
		 "valence_orbital": [ 
			{
				"type": "occ",
				"energy": -0.28903,
				"method": "rhf"
			},
			{
				"type": "occ",
				"energy": -0.28417,
				"method": "rhf"
			},
			{
				"type": "occ",
				"energy": -0.24453,
				"method": "rhf"
			},
			{
				"type": "occ",
				"energy": -0.23957,
				"method": "rhf"
			},
			{
				"type": "occ",
				"energy": -0.20421,
				"method": "rhf"
			},
			{
				"type": "unocc",
				"energy": -0.00936,
				"method": "rhf"
			},
			{
				"type": "unocc",
				"energy": -0.00387,
				"method": "rhf"
			},
			{
				"type": "unocc",
				"energy": 0.00904,
				"method": "rhf"
			},
			{
				"type": "unocc",
				"energy": 0.03343,
				"method": "rhf"
			},
			{
				"type": "unocc",
				"energy": 0.04802,
				"method": "rhf"
			}
		],
		"cosmo_sigma_profile": { 
			"-0.025": 0.0,
			"-0.024": 0.0,
			"-0.023": 0.0,
			"-0.022": 0.0,
			"-0.021": 0.0,
			"-0.02": 0.0,
			"-0.019": 0.0,
			"-0.018": 0.0,
			"-0.017": 0.241261420987,
			"-0.016": 1.06228091844,
			"-0.015": 1.02563198931,
			"-0.014": 0.880346766796,
			"-0.013": 0.763282490657,
			"-0.012": 1.05440097692,
			"-0.011": 1.33843372402,
			"-0.01": 1.21323106578,
			"-0.009": 1.67751349045,
			"-0.008": 1.48775612148,
			"-0.007": 3.03255546579,
			"-0.006": 6.71529192603,
			"-0.005": 20.0051946746,
			"-0.004": 29.8220689532,
			"-0.003": 33.1450482701,
			"-0.002": 32.400298239,
			"-0.001": 29.9517794095,
			"0.0": 30.5906418578,
			"0.001": 15.4431442954,
			"0.002": 10.6064180312,
			"0.003": 13.8367899356,
			"0.004": 13.1662073424,
			"0.005": 12.2318068204,
			"0.006": 12.6720847017,
			"0.007": 3.69104610566,
			"0.008": 5.02520279794,
			"0.009": 5.04742419855,
			"0.01": 6.13651612718,
			"0.011": 3.49805529798,
			"0.012": 4.33242864675,
			"0.013": 2.96271598586,
			"0.014": 1.58279391549,
			"0.015": 0.176376999036,
			"0.016": 0.0,
			"0.017": 0.0,
			"0.018": 0.0,
			"0.019": 0.0,
			"0.02": 0.0,
			"0.021": 0.0,
			"0.022": 0.0,
			"0.023": 0.0,
			"0.024": 0.0,
			"0.025": 0.0
		}
	}
}
