{
	 "smiles": "COC1=CC(N)=C(C=C1OC)C(O)=O", 
	 "Tm": 431.15, 
	 "num_atms": 25, 
	 "gaussian": { 
		 "optdone": 1, 
		 "sigma_profile": "yes", 
		 "theory": "DFT", 
		 "functional": "B3LYP", 
		 "basiset": "6-31G**", 
		 "properties": { 
			 "R2extent": 3626.8714, 
			 "electric_dipole_moment_norm": 6.56164982988, 
			 "electric_quadrupole_moment_norm": 24.3911807254, 
			 "total_energy": -705.216700273, 
			 "HOMO_LUMO_gap": 0.19657, 
			 "cosmo_polarized_energy": -18.89, 
			 "cosmo_cavitation_energy": 28.76, 
			 "cosmo_dispersion_energy": -20.98, 
			 "cosmo_repulsion_energy": 1.67, 
			 "cosmo_total_nonelectrostatic_energy": 9.44, 
			 "SMD_solvation_energy": 7.95 
		},
		"coords": [
			{
				"x": -0.8604991258,
				"y": -2.6645741055,
				"z": 1.6596886972,
				"element": "C" 
			},
			{
				"x": 0.0990814828,
				"y": -1.6687873269,
				"z": 2.0473801703,
				"element": "O" 
			},
			{
				"x": 0.5394239096,
				"y": -0.8425551275,
				"z": 1.0466019325,
				"element": "C" 
			},
			{
				"x": 0.280403185,
				"y": 0.5241591107,
				"z": 1.1582479806,
				"element": "C" 
			},
			{
				"x": 0.7372757228,
				"y": 1.4284421443,
				"z": 0.1967314521,
				"element": "C" 
			},
			{
				"x": 0.4717799793,
				"y": 2.8385726128,
				"z": 0.3273453743,
				"element": "N" 
			},
			{
				"x": 1.4698665077,
				"y": 0.9589767604,
				"z": -0.9112493203,
				"element": "C" 
			},
			{
				"x": 1.7090620275,
				"y": -0.4172544334,
				"z": -1.0229205247,
				"element": "C" 
			},
			{
				"x": 1.26931167,
				"y": -1.3190268589,
				"z": -0.0618672606,
				"element": "C" 
			},
			{
				"x": 1.5359666872,
				"y": -2.6609988719,
				"z": -0.2184506533,
				"element": "O" 
			},
			{
				"x": 2.5404924372,
				"y": -3.1723039544,
				"z": 0.6672691605,
				"element": "C" 
			},
			{
				"x": 2.0905250106,
				"y": 1.8348280536,
				"z": -1.9742642382,
				"element": "C" 
			},
			{
				"x": 2.1178438178,
				"y": 3.1565047367,
				"z": -1.7361997669,
				"element": "O" 
			},
			{
				"x": 2.5705060991,
				"y": 1.3673420279,
				"z": -2.9855159926,
				"element": "O" 
			},
			{
				"x": -0.4619437769,
				"y": -3.3239228277,
				"z": 0.8847011902,
				"element": "H" 
			},
			{
				"x": -1.0802953258,
				"y": -3.237085992,
				"z": 2.5624504924,
				"element": "H" 
			},
			{
				"x": -1.7806659995,
				"y": -2.188670688,
				"z": 1.2992399621,
				"element": "H" 
			},
			{
				"x": -0.3010191686,
				"y": 0.865252635,
				"z": 2.0101090475,
				"element": "H" 
			},
			{
				"x": 0.2939858618,
				"y": 3.0937611286,
				"z": 1.2939725689,
				"element": "H" 
			},
			{
				"x": -0.3392977896,
				"y": 3.1180802876,
				"z": -0.2220119534,
				"element": "H" 
			},
			{
				"x": 2.2738100137,
				"y": -0.7759125992,
				"z": -1.87618501,
				"element": "H" 
			},
			{
				"x": 2.645422211,
				"y": -4.2329773963,
				"z": 0.4312894792,
				"element": "H" 
			},
			{
				"x": 3.4990839788,
				"y": -2.666581208,
				"z": 0.4991348759,
				"element": "H" 
			},
			{
				"x": 2.2453312979,
				"y": -3.0546526402,
				"z": 1.7154449151,
				"element": "H" 
			},
			{
				"x": 1.6888492864,
				"y": 3.3353845323,
				"z": -0.8623425788,
				"element": "H" 
			}
		],
		 "valence_orbital": [ 
			{
				"type": "occ",
				"energy": -0.29119,
				"method": "rhf"
			},
			{
				"type": "occ",
				"energy": -0.27466,
				"method": "rhf"
			},
			{
				"type": "occ",
				"energy": -0.25754,
				"method": "rhf"
			},
			{
				"type": "occ",
				"energy": -0.25287,
				"method": "rhf"
			},
			{
				"type": "occ",
				"energy": -0.23635,
				"method": "rhf"
			},
			{
				"type": "unocc",
				"energy": -0.03978,
				"method": "rhf"
			},
			{
				"type": "unocc",
				"energy": -0.01392,
				"method": "rhf"
			},
			{
				"type": "unocc",
				"energy": 0.05815,
				"method": "rhf"
			},
			{
				"type": "unocc",
				"energy": 0.06342,
				"method": "rhf"
			},
			{
				"type": "unocc",
				"energy": 0.07691,
				"method": "rhf"
			}
		],
		"cosmo_sigma_profile": { 
			"-0.025": 0.0,
			"-0.024": 0.0,
			"-0.023": 0.0,
			"-0.022": 0.0,
			"-0.021": 0.0,
			"-0.02": 0.0,
			"-0.019": 0.0,
			"-0.018": 0.0,
			"-0.017": 0.0,
			"-0.016": 0.0,
			"-0.015": 0.0,
			"-0.014": 0.535551329804,
			"-0.013": 3.52403174225,
			"-0.012": 2.63978617071,
			"-0.011": 4.30015268601,
			"-0.01": 3.42094534671,
			"-0.009": 3.16416282396,
			"-0.008": 2.87789069366,
			"-0.007": 3.38442146725,
			"-0.006": 5.60789093067,
			"-0.005": 12.8034541477,
			"-0.004": 17.3570470881,
			"-0.003": 25.080145698,
			"-0.002": 19.8478073661,
			"-0.001": 16.5693416134,
			"0.0": 14.3870612487,
			"0.001": 12.734464486,
			"0.002": 17.4993934127,
			"0.003": 9.82002611672,
			"0.004": 6.43482803384,
			"0.005": 3.81933108861,
			"0.006": 4.52132344034,
			"0.007": 4.51351372596,
			"0.008": 4.40745158477,
			"0.009": 4.48718067212,
			"0.01": 4.9510770667,
			"0.011": 6.19444045977,
			"0.012": 7.31377850793,
			"0.013": 4.20993372211,
			"0.014": 1.54334938578,
			"0.015": 0.0429795635434,
			"0.016": 0.0,
			"0.017": 0.0,
			"0.018": 0.0,
			"0.019": 0.0,
			"0.02": 0.0,
			"0.021": 0.0,
			"0.022": 0.0,
			"0.023": 0.0,
			"0.024": 0.0,
			"0.025": 0.0
		}
	}
}
