{
	 "smiles": "NC1CCN(C1=O)C1=CC(F)=C(Cl)C=C1", 
	 "Tm": 343.15, 
	 "num_atms": 25, 
	 "gaussian": { 
		 "optdone": 1, 
		 "sigma_profile": "yes", 
		 "theory": "DFT", 
		 "functional": "B3LYP", 
		 "basiset": "6-31G**", 
		 "properties": { 
			 "R2extent": 4823.4543, 
			 "electric_dipole_moment_norm": 5.5736534302, 
			 "electric_quadrupole_moment_norm": 8.04300270484, 
			 "total_energy": -1131.85638707, 
			 "HOMO_LUMO_gap": 0.19727, 
			 "cosmo_polarized_energy": -12.83, 
			 "cosmo_cavitation_energy": 30.3, 
			 "cosmo_dispersion_energy": -22.67, 
			 "cosmo_repulsion_energy": 1.75, 
			 "cosmo_total_nonelectrostatic_energy": 9.39, 
			 "SMD_solvation_energy": 4.12 
		},
		"coords": [
			{
				"x": -4.6274653858,
				"y": 0.9482527056,
				"z": -1.7780713237,
				"element": "N" 
			},
			{
				"x": -3.7121683883,
				"y": -0.1149130964,
				"z": -1.3977029754,
				"element": "C" 
			},
			{
				"x": -3.7698756376,
				"y": -0.5323390165,
				"z": 0.0763548881,
				"element": "C" 
			},
			{
				"x": -2.3366098164,
				"y": -1.0009464852,
				"z": 0.3746587725,
				"element": "C" 
			},
			{
				"x": -1.5090312138,
				"y": -0.2012824096,
				"z": -0.5436617865,
				"element": "N" 
			},
			{
				"x": -2.2653854752,
				"y": 0.3622661409,
				"z": -1.5568595156,
				"element": "C" 
			},
			{
				"x": -1.8795899923,
				"y": 1.1011557551,
				"z": -2.4493948895,
				"element": "O" 
			},
			{
				"x": -0.1047363036,
				"y": -0.1396911249,
				"z": -0.41793133,
				"element": "C" 
			},
			{
				"x": 0.6597505281,
				"y": 0.7511632762,
				"z": -1.1909663924,
				"element": "C" 
			},
			{
				"x": 2.0361530995,
				"y": 0.7830307482,
				"z": -1.0286524867,
				"element": "C" 
			},
			{
				"x": 2.749704441,
				"y": 1.6398915504,
				"z": -1.7745063561,
				"element": "F" 
			},
			{
				"x": 2.6932285494,
				"y": -0.0421227156,
				"z": -0.1139418332,
				"element": "C" 
			},
			{
				"x": 4.4287772767,
				"y": 0.0393205282,
				"z": 0.0556589345,
				"element": "Cl" 
			},
			{
				"x": 1.9338151597,
				"y": -0.9242395778,
				"z": 0.6498738039,
				"element": "C" 
			},
			{
				"x": 0.5495752774,
				"y": -0.9779462693,
				"z": 0.502427359,
				"element": "C" 
			},
			{
				"x": -4.205199812,
				"y": 1.4645628226,
				"z": -2.5484583234,
				"element": "H" 
			},
			{
				"x": -5.5062106891,
				"y": 0.5655840502,
				"z": -2.1128728924,
				"element": "H" 
			},
			{
				"x": -3.7915069713,
				"y": -1.0180811421,
				"z": -2.0333299444,
				"element": "H" 
			},
			{
				"x": -4.0147595703,
				"y": 0.3543319586,
				"z": 0.6684297388,
				"element": "H" 
			},
			{
				"x": -4.5090678569,
				"y": -1.3082777534,
				"z": 0.2901186949,
				"element": "H" 
			},
			{
				"x": -2.0424407451,
				"y": -0.8108713801,
				"z": 1.4105083853,
				"element": "H" 
			},
			{
				"x": -2.2028801316,
				"y": -2.0728914063,
				"z": 0.1748928718,
				"element": "H" 
			},
			{
				"x": 0.1919751264,
				"y": 1.4034048071,
				"z": -1.9139943903,
				"element": "H" 
			},
			{
				"x": 2.4311883504,
				"y": -1.5747611405,
				"z": 1.3607133572,
				"element": "H" 
			},
			{
				"x": -0.0075398191,
				"y": -1.6858008254,
				"z": 1.1028076335,
				"element": "H" 
			}
		],
		 "valence_orbital": [ 
			{
				"type": "occ",
				"energy": -0.29428,
				"method": "rhf"
			},
			{
				"type": "occ",
				"energy": -0.26707,
				"method": "rhf"
			},
			{
				"type": "occ",
				"energy": -0.25914,
				"method": "rhf"
			},
			{
				"type": "occ",
				"energy": -0.24709,
				"method": "rhf"
			},
			{
				"type": "occ",
				"energy": -0.22654,
				"method": "rhf"
			},
			{
				"type": "unocc",
				"energy": -0.02927,
				"method": "rhf"
			},
			{
				"type": "unocc",
				"energy": -0.01278,
				"method": "rhf"
			},
			{
				"type": "unocc",
				"energy": 0.02585,
				"method": "rhf"
			},
			{
				"type": "unocc",
				"energy": 0.02773,
				"method": "rhf"
			},
			{
				"type": "unocc",
				"energy": 0.0773,
				"method": "rhf"
			}
		],
		"cosmo_sigma_profile": { 
			"-0.025": 0.0,
			"-0.024": 0.0,
			"-0.023": 0.0,
			"-0.022": 0.0,
			"-0.021": 0.0,
			"-0.02": 0.0,
			"-0.019": 0.0,
			"-0.018": 0.0,
			"-0.017": 0.0,
			"-0.016": 0.0,
			"-0.015": 0.0,
			"-0.014": 0.0,
			"-0.013": 0.0,
			"-0.012": 0.0,
			"-0.011": 0.372551953874,
			"-0.01": 1.52294818539,
			"-0.009": 1.81657955065,
			"-0.008": 2.98052429885,
			"-0.007": 9.74023144317,
			"-0.006": 14.458707609,
			"-0.005": 18.0722886976,
			"-0.004": 20.1874446103,
			"-0.003": 16.1786850828,
			"-0.002": 11.196983994,
			"-0.001": 15.0243097335,
			"0.0": 19.0275431008,
			"0.001": 20.4071602158,
			"0.002": 21.2215554688,
			"0.003": 19.8670281082,
			"0.004": 20.281090327,
			"0.005": 8.7141755701,
			"0.006": 3.48759528965,
			"0.007": 2.00078482618,
			"0.008": 1.95193584592,
			"0.009": 1.90648819431,
			"0.01": 2.60173839695,
			"0.011": 3.63536657493,
			"0.012": 3.03828670045,
			"0.013": 0.74558900037,
			"0.014": 0.616058666876,
			"0.015": 0.315876490488,
			"0.016": 0.578093163493,
			"0.017": 0.666563289499,
			"0.018": 0.443084972967,
			"0.019": 0.0625031281965,
			"0.02": 0.0,
			"0.021": 0.0,
			"0.022": 0.0,
			"0.023": 0.0,
			"0.024": 0.0,
			"0.025": 0.0
		}
	}
}
