{
	 "smiles": "[O-][N+](=O)C1=C2C3=C(CCC3=CC=C2C(=O)CC2=CC=CC=C2)C=C1", 
	 "Tm": 462.15, 
	 "num_atms": 39, 
	 "gaussian": { 
		 "optdone": 1, 
		 "sigma_profile": "yes", 
		 "theory": "DFT", 
		 "functional": "B3LYP", 
		 "basiset": "6-31G**", 
		 "properties": { 
			 "R2extent": 8007.4327, 
			 "electric_dipole_moment_norm": 7.25661538253, 
			 "electric_quadrupole_moment_norm": 28.414683744, 
			 "total_energy": -1051.4967124, 
			 "HOMO_LUMO_gap": 0.15097, 
			 "cosmo_polarized_energy": -18.02, 
			 "cosmo_cavitation_energy": 41.91, 
			 "cosmo_dispersion_energy": -29.5, 
			 "cosmo_repulsion_energy": 2.21, 
			 "cosmo_total_nonelectrostatic_energy": 14.62, 
			 "SMD_solvation_energy": 8.4 
		},
		"coords": [
			{
				"x": -3.3058646184,
				"y": 3.4313624353,
				"z": 0.7855500777,
				"element": "O" 
			},
			{
				"x": -2.6846945124,
				"y": 2.3864823193,
				"z": 0.6147070209,
				"element": "N" 
			},
			{
				"x": -2.7493430309,
				"y": 1.6870699616,
				"z": -0.3970421429,
				"element": "O" 
			},
			{
				"x": -1.8824680649,
				"y": 1.8686290424,
				"z": 1.7317482565,
				"element": "C" 
			},
			{
				"x": -0.6646749526,
				"y": 1.1461612034,
				"z": 1.538373881,
				"element": "C" 
			},
			{
				"x": -0.2174250046,
				"y": 0.4709286242,
				"z": 2.7030410406,
				"element": "C" 
			},
			{
				"x": -0.8373708824,
				"y": 0.5569920906,
				"z": 3.9723068459,
				"element": "C" 
			},
			{
				"x": -0.072368632,
				"y": -0.2926665423,
				"z": 4.9670148286,
				"element": "C" 
			},
			{
				"x": 1.0849901411,
				"y": -0.9365019633,
				"z": 4.1364054202,
				"element": "C" 
			},
			{
				"x": 0.9158932864,
				"y": -0.3765740877,
				"z": 2.738399588,
				"element": "C" 
			},
			{
				"x": 1.642483284,
				"y": -0.5638606328,
				"z": 1.5862864414,
				"element": "C" 
			},
			{
				"x": 1.2613910281,
				"y": 0.153780347,
				"z": 0.4280889587,
				"element": "C" 
			},
			{
				"x": 0.1720562491,
				"y": 1.0191525495,
				"z": 0.3750828378,
				"element": "C" 
			},
			{
				"x": 0.0680217894,
				"y": 1.9651211877,
				"z": -0.7845447968,
				"element": "C" 
			},
			{
				"x": -0.3613529084,
				"y": 3.0942248781,
				"z": -0.6123687121,
				"element": "O" 
			},
			{
				"x": 0.6056859054,
				"y": 1.5650544136,
				"z": -2.1665599025,
				"element": "C" 
			},
			{
				"x": 0.1960802241,
				"y": 0.2056708612,
				"z": -2.6982183547,
				"element": "C" 
			},
			{
				"x": -1.1560292434,
				"y": -0.1651804056,
				"z": -2.7456549137,
				"element": "C" 
			},
			{
				"x": -1.5322639695,
				"y": -1.4035035521,
				"z": -3.2658789767,
				"element": "C" 
			},
			{
				"x": -0.5674013567,
				"y": -2.2895864358,
				"z": -3.7508703609,
				"element": "C" 
			},
			{
				"x": 0.7795361314,
				"y": -1.9282900594,
				"z": -3.7127147656,
				"element": "C" 
			},
			{
				"x": 1.155194859,
				"y": -0.689627094,
				"z": -3.1889426114,
				"element": "C" 
			},
			{
				"x": -1.9549315935,
				"y": 1.3472789719,
				"z": 4.1222941519,
				"element": "C" 
			},
			{
				"x": -2.4752323319,
				"y": 1.9900451471,
				"z": 2.9777177639,
				"element": "C" 
			},
			{
				"x": 0.3144386593,
				"y": 0.3189374611,
				"z": 5.7899108392,
				"element": "H" 
			},
			{
				"x": -0.7175759267,
				"y": -1.0522882389,
				"z": 5.4220282499,
				"element": "H" 
			},
			{
				"x": 1.0170890346,
				"y": -2.0302482326,
				"z": 4.1328577409,
				"element": "H" 
			},
			{
				"x": 2.068603232,
				"y": -0.6882164207,
				"z": 4.550169183,
				"element": "H" 
			},
			{
				"x": 2.5107742914,
				"y": -1.2153963606,
				"z": 1.5540162473,
				"element": "H" 
			},
			{
				"x": 1.8771455965,
				"y": 0.0449424984,
				"z": -0.457311278,
				"element": "H" 
			},
			{
				"x": 0.2678364549,
				"y": 2.364413283,
				"z": -2.8336539701,
				"element": "H" 
			},
			{
				"x": 1.700924712,
				"y": 1.6356075157,
				"z": -2.1365988552,
				"element": "H" 
			},
			{
				"x": -1.9136061109,
				"y": 0.5158893211,
				"z": -2.3702772084,
				"element": "H" 
			},
			{
				"x": -2.5836114539,
				"y": -1.6758904259,
				"z": -3.2931373203,
				"element": "H" 
			},
			{
				"x": -0.8638918584,
				"y": -3.2524484515,
				"z": -4.1570931553,
				"element": "H" 
			},
			{
				"x": 1.5386864766,
				"y": -2.6072000175,
				"z": -4.0913143185,
				"element": "H" 
			},
			{
				"x": 2.2070214714,
				"y": -0.4116099697,
				"z": -3.1694698335,
				"element": "H" 
			},
			{
				"x": -2.4585642793,
				"y": 1.4600934178,
				"z": 5.0774220338,
				"element": "H" 
			},
			{
				"x": -3.386382096,
				"y": 2.5729513603,
				"z": 3.0459300692,
				"element": "H" 
			}
		],
		 "valence_orbital": [ 
			{
				"type": "occ",
				"energy": -0.26656,
				"method": "rhf"
			},
			{
				"type": "occ",
				"energy": -0.25304,
				"method": "rhf"
			},
			{
				"type": "occ",
				"energy": -0.24676,
				"method": "rhf"
			},
			{
				"type": "occ",
				"energy": -0.23616,
				"method": "rhf"
			},
			{
				"type": "occ",
				"energy": -0.22878,
				"method": "rhf"
			},
			{
				"type": "unocc",
				"energy": -0.07781,
				"method": "rhf"
			},
			{
				"type": "unocc",
				"energy": -0.06293,
				"method": "rhf"
			},
			{
				"type": "unocc",
				"energy": -0.03039,
				"method": "rhf"
			},
			{
				"type": "unocc",
				"energy": -0.0068,
				"method": "rhf"
			},
			{
				"type": "unocc",
				"energy": -0.00037,
				"method": "rhf"
			}
		],
		"cosmo_sigma_profile": { 
			"-0.025": 0.0,
			"-0.024": 0.0,
			"-0.023": 0.0,
			"-0.022": 0.0,
			"-0.021": 0.0,
			"-0.02": 0.0,
			"-0.019": 0.0,
			"-0.018": 0.0,
			"-0.017": 0.0,
			"-0.016": 0.0,
			"-0.015": 0.0,
			"-0.014": 0.0,
			"-0.013": 0.0,
			"-0.012": 0.0,
			"-0.011": 0.0,
			"-0.01": 0.0,
			"-0.009": 0.369602880437,
			"-0.008": 3.21044126968,
			"-0.007": 8.72033675711,
			"-0.006": 18.2041036421,
			"-0.005": 30.9336185463,
			"-0.004": 31.6140846557,
			"-0.003": 31.4910894108,
			"-0.002": 26.5379749765,
			"-0.001": 20.6557960524,
			"0.0": 19.1335059425,
			"0.001": 25.8036127211,
			"0.002": 23.6790999629,
			"0.003": 16.3739982182,
			"0.004": 14.0020845992,
			"0.005": 15.448257613,
			"0.006": 14.1737232691,
			"0.007": 9.09440393177,
			"0.008": 9.20961573845,
			"0.009": 6.55767494779,
			"0.01": 4.66999630041,
			"0.011": 3.26603266976,
			"0.012": 1.63225399854,
			"0.013": 0.683525702166,
			"0.014": 0.0,
			"0.015": 0.0,
			"0.016": 0.0,
			"0.017": 0.0,
			"0.018": 0.0,
			"0.019": 0.0,
			"0.02": 0.0,
			"0.021": 0.0,
			"0.022": 0.0,
			"0.023": 0.0,
			"0.024": 0.0,
			"0.025": 0.0
		}
	}
}
