{
	 "smiles": "OC(=O)CS(=O)(=O)CC1=CC=CS1", 
	 "Tm": 381.15, 
	 "num_atms": 21, 
	 "gaussian": { 
		 "optdone": 1, 
		 "sigma_profile": "yes", 
		 "theory": "DFT", 
		 "functional": "B3LYP", 
		 "basiset": "6-31G**", 
		 "properties": { 
			 "R2extent": 3884.7401, 
			 "electric_dipole_moment_norm": 3.61339507666, 
			 "electric_quadrupole_moment_norm": 16.2098284938, 
			 "total_energy": -1368.76452149, 
			 "HOMO_LUMO_gap": 0.20463, 
			 "cosmo_polarized_energy": -20.79, 
			 "cosmo_cavitation_energy": 28.6, 
			 "cosmo_dispersion_energy": -21.18, 
			 "cosmo_repulsion_energy": 1.59, 
			 "cosmo_total_nonelectrostatic_energy": 9.01, 
			 "SMD_solvation_energy": 5.29 
		},
		"coords": [
			{
				"x": 3.3646526431,
				"y": -2.5097518243,
				"z": -0.2496651763,
				"element": "O" 
			},
			{
				"x": 2.3790402088,
				"y": -3.3113208935,
				"z": -0.6664203192,
				"element": "C" 
			},
			{
				"x": 2.3955117791,
				"y": -4.5062536131,
				"z": -0.5031051173,
				"element": "O" 
			},
			{
				"x": 1.2170086819,
				"y": -2.64643721,
				"z": -1.4243270172,
				"element": "C" 
			},
			{
				"x": 0.6825356342,
				"y": -1.0089086305,
				"z": -0.8237307638,
				"element": "S" 
			},
			{
				"x": 1.9329237411,
				"y": -0.2311586671,
				"z": -0.6242662153,
				"element": "O" 
			},
			{
				"x": -0.3619384807,
				"y": -0.5040207085,
				"z": -1.7208206529,
				"element": "O" 
			},
			{
				"x": -0.0603319342,
				"y": -1.3535299048,
				"z": 0.8320073428,
				"element": "C" 
			},
			{
				"x": -0.4861813919,
				"y": -0.0976103939,
				"z": 1.506208198,
				"element": "C" 
			},
			{
				"x": -1.6598875275,
				"y": 0.5922756894,
				"z": 1.3198819522,
				"element": "C" 
			},
			{
				"x": -1.735533076,
				"y": 1.7839464648,
				"z": 2.0954574132,
				"element": "C" 
			},
			{
				"x": -0.6159425017,
				"y": 1.9897217595,
				"z": 2.856686646,
				"element": "C" 
			},
			{
				"x": 0.5532136107,
				"y": 0.7356179655,
				"z": 2.6332157352,
				"element": "S" 
			},
			{
				"x": 3.1409976666,
				"y": -1.5656067463,
				"z": -0.4185722848,
				"element": "H" 
			},
			{
				"x": 0.3590533475,
				"y": -3.319329222,
				"z": -1.4347620895,
				"element": "H" 
			},
			{
				"x": 1.5172747516,
				"y": -2.4455803777,
				"z": -2.45897442,
				"element": "H" 
			},
			{
				"x": 0.6982142528,
				"y": -1.9079899874,
				"z": 1.3919504305,
				"element": "H" 
			},
			{
				"x": -0.9106876742,
				"y": -2.0106337673,
				"z": 0.6289458287,
				"element": "H" 
			},
			{
				"x": -2.4378495443,
				"y": 0.2563443657,
				"z": 0.6436358362,
				"element": "H" 
			},
			{
				"x": -2.5854631401,
				"y": 2.4560986186,
				"z": 2.0900936931,
				"element": "H" 
			},
			{
				"x": -0.4092110468,
				"y": 2.8027270826,
				"z": 3.5387609805,
				"element": "H" 
			}
		],
		 "valence_orbital": [ 
			{
				"type": "occ",
				"energy": -0.32698,
				"method": "rhf"
			},
			{
				"type": "occ",
				"energy": -0.32081,
				"method": "rhf"
			},
			{
				"type": "occ",
				"energy": -0.2838,
				"method": "rhf"
			},
			{
				"type": "occ",
				"energy": -0.26723,
				"method": "rhf"
			},
			{
				"type": "occ",
				"energy": -0.24937,
				"method": "rhf"
			},
			{
				"type": "unocc",
				"energy": -0.04474,
				"method": "rhf"
			},
			{
				"type": "unocc",
				"energy": -0.01521,
				"method": "rhf"
			},
			{
				"type": "unocc",
				"energy": 0.00804,
				"method": "rhf"
			},
			{
				"type": "unocc",
				"energy": 0.0322,
				"method": "rhf"
			},
			{
				"type": "unocc",
				"energy": 0.0388,
				"method": "rhf"
			}
		],
		"cosmo_sigma_profile": { 
			"-0.025": 0.0,
			"-0.024": 0.0,
			"-0.023": 0.0,
			"-0.022": 0.0,
			"-0.021": 0.0,
			"-0.02": 0.0,
			"-0.019": 0.0,
			"-0.018": 0.0,
			"-0.017": 0.0,
			"-0.016": 0.0,
			"-0.015": 0.0224798337607,
			"-0.014": 0.537307427312,
			"-0.013": 0.891298825137,
			"-0.012": 4.97513169815,
			"-0.011": 4.95427551075,
			"-0.01": 10.5162995634,
			"-0.009": 8.20675777487,
			"-0.008": 10.0522590474,
			"-0.007": 10.3175127496,
			"-0.006": 11.497168044,
			"-0.005": 11.0785373179,
			"-0.004": 9.59056992572,
			"-0.003": 8.29754338178,
			"-0.002": 7.69437923426,
			"-0.001": 7.61277510513,
			"0.0": 9.66357360721,
			"0.001": 10.3124756429,
			"0.002": 11.6304246541,
			"0.003": 15.5780330942,
			"0.004": 14.6613629138,
			"0.005": 8.18379632161,
			"0.006": 5.89994222154,
			"0.007": 6.56532690966,
			"0.008": 6.93538198233,
			"0.009": 8.34121686184,
			"0.01": 13.4488555027,
			"0.011": 10.3171971564,
			"0.012": 2.71053166845,
			"0.013": 0.119375955976,
			"0.014": 0.0,
			"0.015": 0.0,
			"0.016": 0.0,
			"0.017": 0.0,
			"0.018": 0.0,
			"0.019": 0.0,
			"0.02": 0.0,
			"0.021": 0.0,
			"0.022": 0.0,
			"0.023": 0.0,
			"0.024": 0.0,
			"0.025": 0.0
		}
	}
}
