{
	 "smiles": "CCS(=O)(=O)C1=CC(N)=C(C=C1)C(O)=O", 
	 "Tm": 458.15, 
	 "num_atms": 26, 
	 "gaussian": { 
		 "optdone": 1, 
		 "sigma_profile": "yes", 
		 "theory": "DFT", 
		 "functional": "B3LYP", 
		 "basiset": "6-31G**", 
		 "properties": { 
			 "R2extent": 4247.7989, 
			 "electric_dipole_moment_norm": 4.06798987831, 
			 "electric_quadrupole_moment_norm": 29.7977102625, 
			 "total_energy": -1103.3814479, 
			 "HOMO_LUMO_gap": 0.15784, 
			 "cosmo_polarized_energy": -23.76, 
			 "cosmo_cavitation_energy": 31.04, 
			 "cosmo_dispersion_energy": -23.03, 
			 "cosmo_repulsion_energy": 1.76, 
			 "cosmo_total_nonelectrostatic_energy": 9.77, 
			 "SMD_solvation_energy": 5.6 
		},
		"coords": [
			{
				"x": 3.3978205307,
				"y": 1.3482636867,
				"z": -1.4553242285,
				"element": "C" 
			},
			{
				"x": 3.2096398023,
				"y": 1.8421057119,
				"z": -0.0257529095,
				"element": "C" 
			},
			{
				"x": 1.4850768896,
				"y": 2.2660271106,
				"z": 0.3867310846,
				"element": "S" 
			},
			{
				"x": 0.9332562639,
				"y": 3.05989449,
				"z": -0.7249337526,
				"element": "O" 
			},
			{
				"x": 1.4883800513,
				"y": 2.7803813771,
				"z": 1.7656645364,
				"element": "O" 
			},
			{
				"x": 0.6306313115,
				"y": 0.6722865027,
				"z": 0.4008830837,
				"element": "C" 
			},
			{
				"x": -0.0969430148,
				"y": 0.3037522339,
				"z": -0.7147367972,
				"element": "C" 
			},
			{
				"x": -0.7904454687,
				"y": -0.9314381803,
				"z": -0.7435370549,
				"element": "C" 
			},
			{
				"x": -1.50577019,
				"y": -1.2802536691,
				"z": -1.8463002344,
				"element": "N" 
			},
			{
				"x": -0.6752015191,
				"y": -1.7919755378,
				"z": 0.3913198928,
				"element": "C" 
			},
			{
				"x": 0.0519069032,
				"y": -1.3530678194,
				"z": 1.5145207015,
				"element": "C" 
			},
			{
				"x": 0.708109997,
				"y": -0.1326797363,
				"z": 1.5456531318,
				"element": "C" 
			},
			{
				"x": -1.3657306917,
				"y": -3.1089446041,
				"z": 0.3865099893,
				"element": "C" 
			},
			{
				"x": -0.9862527852,
				"y": -4.0208916483,
				"z": 1.3162065337,
				"element": "O" 
			},
			{
				"x": -2.2451223928,
				"y": -3.4170495088,
				"z": -0.3994059737,
				"element": "O" 
			},
			{
				"x": 2.8648706278,
				"y": 0.4092920303,
				"z": -1.6298805667,
				"element": "H" 
			},
			{
				"x": 4.4608970908,
				"y": 1.1724634398,
				"z": -1.6451132546,
				"element": "H" 
			},
			{
				"x": 3.0362335577,
				"y": 2.0913940584,
				"z": -2.1695756972,
				"element": "H" 
			},
			{
				"x": 3.7420067099,
				"y": 2.7804191946,
				"z": 0.1608278621,
				"element": "H" 
			},
			{
				"x": 3.5301698772,
				"y": 1.1151538115,
				"z": 0.7257468663,
				"element": "H" 
			},
			{
				"x": -0.1599550724,
				"y": 0.9821233403,
				"z": -1.5597613372,
				"element": "H" 
			},
			{
				"x": -2.1324654321,
				"y": -2.0716071929,
				"z": -1.7584175225,
				"element": "H" 
			},
			{
				"x": -1.6795913187,
				"y": -0.5837448324,
				"z": -2.5525020541,
				"element": "H" 
			},
			{
				"x": 0.0649680325,
				"y": -1.9615271127,
				"z": 2.4156129542,
				"element": "H" 
			},
			{
				"x": 1.2278126842,
				"y": 0.2123714828,
				"z": 2.4313395175,
				"element": "H" 
			},
			{
				"x": -0.1741024443,
				"y": -3.7377486285,
				"z": 1.757225229,
				"element": "H" 
			}
		],
		 "valence_orbital": [ 
			{
				"type": "occ",
				"energy": -0.30067,
				"method": "rhf"
			},
			{
				"type": "occ",
				"energy": -0.29479,
				"method": "rhf"
			},
			{
				"type": "occ",
				"energy": -0.2856,
				"method": "rhf"
			},
			{
				"type": "occ",
				"energy": -0.28451,
				"method": "rhf"
			},
			{
				"type": "occ",
				"energy": -0.22966,
				"method": "rhf"
			},
			{
				"type": "unocc",
				"energy": -0.07182,
				"method": "rhf"
			},
			{
				"type": "unocc",
				"energy": -0.02049,
				"method": "rhf"
			},
			{
				"type": "unocc",
				"energy": 0.02085,
				"method": "rhf"
			},
			{
				"type": "unocc",
				"energy": 0.04711,
				"method": "rhf"
			},
			{
				"type": "unocc",
				"energy": 0.06719,
				"method": "rhf"
			}
		],
		"cosmo_sigma_profile": { 
			"-0.025": 0.0,
			"-0.024": 0.0,
			"-0.023": 0.0,
			"-0.022": 0.0,
			"-0.021": 0.0,
			"-0.02": 0.0,
			"-0.019": 0.380632402344,
			"-0.018": 1.05044028498,
			"-0.017": 1.01718854132,
			"-0.016": 0.915760414385,
			"-0.015": 1.0499042505,
			"-0.014": 2.06490750685,
			"-0.013": 3.19796705052,
			"-0.012": 2.17053436279,
			"-0.011": 2.76947151548,
			"-0.01": 2.84318647476,
			"-0.009": 4.09931016005,
			"-0.008": 7.30450723965,
			"-0.007": 9.87153300018,
			"-0.006": 10.3397379725,
			"-0.005": 11.9643459307,
			"-0.004": 15.7776251252,
			"-0.003": 15.4133713733,
			"-0.002": 16.8481843031,
			"-0.001": 16.1300260827,
			"0.0": 14.1148742908,
			"0.001": 16.8189352317,
			"0.002": 14.0263903238,
			"0.003": 8.16152229779,
			"0.004": 5.5679171844,
			"0.005": 5.349491202,
			"0.006": 6.63452722,
			"0.007": 4.73976334384,
			"0.008": 4.98731426896,
			"0.009": 8.76585804465,
			"0.01": 7.7126981696,
			"0.011": 12.3312487466,
			"0.012": 10.0320022751,
			"0.013": 2.12946653187,
			"0.014": 0.0160246305326,
			"0.015": 0.0,
			"0.016": 0.0,
			"0.017": 0.0,
			"0.018": 0.0,
			"0.019": 0.0,
			"0.02": 0.0,
			"0.021": 0.0,
			"0.022": 0.0,
			"0.023": 0.0,
			"0.024": 0.0,
			"0.025": 0.0
		}
	}
}
