{
	 "smiles": "CSC1=CC=C(N)C=C1C(F)(F)F", 
	 "Tm": 330.15, 
	 "num_atms": 21, 
	 "gaussian": { 
		 "optdone": 1, 
		 "sigma_profile": "yes", 
		 "theory": "DFT", 
		 "functional": "B3LYP", 
		 "basiset": "6-31G**", 
		 "properties": { 
			 "R2extent": 3071.1958, 
			 "electric_dipole_moment_norm": 4.38984834476, 
			 "electric_quadrupole_moment_norm": 19.6137937373, 
			 "total_energy": -1062.14055631, 
			 "HOMO_LUMO_gap": 0.19167, 
			 "cosmo_polarized_energy": -10.77, 
			 "cosmo_cavitation_energy": 27.22, 
			 "cosmo_dispersion_energy": -19.91, 
			 "cosmo_repulsion_energy": 1.49, 
			 "cosmo_total_nonelectrostatic_energy": 8.8, 
			 "SMD_solvation_energy": 5.82 
		},
		"coords": [
			{
				"x": 2.5590806351,
				"y": -0.079066355,
				"z": -0.023597261,
				"element": "C" 
			},
			{
				"x": 1.1703281729,
				"y": -0.6656345205,
				"z": 1.0224880828,
				"element": "S" 
			},
			{
				"x": -0.2412103304,
				"y": -0.0553476769,
				"z": 0.0967164778,
				"element": "C" 
			},
			{
				"x": -0.7583480138,
				"y": 1.2057581056,
				"z": 0.4234376147,
				"element": "C" 
			},
			{
				"x": -1.8706379866,
				"y": 1.7368915388,
				"z": -0.2190980184,
				"element": "C" 
			},
			{
				"x": -2.5195094615,
				"y": 1.0076725223,
				"z": -1.2279227067,
				"element": "C" 
			},
			{
				"x": -3.5996696954,
				"y": 1.5401065701,
				"z": -1.9188180377,
				"element": "N" 
			},
			{
				"x": -2.0155980419,
				"y": -0.2617969094,
				"z": -1.5595420346,
				"element": "C" 
			},
			{
				"x": -0.9004075605,
				"y": -0.7901211926,
				"z": -0.9123442389,
				"element": "C" 
			},
			{
				"x": -0.4393329277,
				"y": -2.1730825157,
				"z": -1.3208252775,
				"element": "C" 
			},
			{
				"x": -1.1898324345,
				"y": -2.6737685719,
				"z": -2.3322502967,
				"element": "F" 
			},
			{
				"x": -0.5170592098,
				"y": -3.0571664925,
				"z": -0.3081075227,
				"element": "F" 
			},
			{
				"x": 0.8410361018,
				"y": -2.1743287117,
				"z": -1.7628730212,
				"element": "F" 
			},
			{
				"x": 2.5179244089,
				"y": -0.5494814759,
				"z": -1.0065156412,
				"element": "H" 
			},
			{
				"x": 2.5460029673,
				"y": 1.0087290586,
				"z": -0.1201339265,
				"element": "H" 
			},
			{
				"x": 3.4763736251,
				"y": -0.3833300293,
				"z": 0.4866281857,
				"element": "H" 
			},
			{
				"x": -0.2722547341,
				"y": 1.7757079407,
				"z": 1.2088453845,
				"element": "H" 
			},
			{
				"x": -2.2406765974,
				"y": 2.7200833835,
				"z": 0.0604124426,
				"element": "H" 
			},
			{
				"x": -4.2024675625,
				"y": 0.8764450087,
				"z": -2.3836046996,
				"element": "H" 
			},
			{
				"x": -4.1116153737,
				"y": 2.2724223289,
				"z": -1.4483381307,
				"element": "H" 
			},
			{
				"x": -2.5022259814,
				"y": -0.843092006,
				"z": -2.3344573747,
				"element": "H" 
			}
		],
		 "valence_orbital": [ 
			{
				"type": "occ",
				"energy": -0.32988,
				"method": "rhf"
			},
			{
				"type": "occ",
				"energy": -0.30593,
				"method": "rhf"
			},
			{
				"type": "occ",
				"energy": -0.26728,
				"method": "rhf"
			},
			{
				"type": "occ",
				"energy": -0.22142,
				"method": "rhf"
			},
			{
				"type": "occ",
				"energy": -0.21755,
				"method": "rhf"
			},
			{
				"type": "unocc",
				"energy": -0.02588,
				"method": "rhf"
			},
			{
				"type": "unocc",
				"energy": -0.01099,
				"method": "rhf"
			},
			{
				"type": "unocc",
				"energy": 0.05189,
				"method": "rhf"
			},
			{
				"type": "unocc",
				"energy": 0.07251,
				"method": "rhf"
			},
			{
				"type": "unocc",
				"energy": 0.08062,
				"method": "rhf"
			}
		],
		"cosmo_sigma_profile": { 
			"-0.025": 0.0,
			"-0.024": 0.0,
			"-0.023": 0.0,
			"-0.022": 0.0,
			"-0.021": 0.0,
			"-0.02": 0.0,
			"-0.019": 0.0,
			"-0.018": 0.0,
			"-0.017": 0.0,
			"-0.016": 0.0,
			"-0.015": 0.0,
			"-0.014": 0.00520844042987,
			"-0.013": 2.15150543522,
			"-0.012": 3.45678571331,
			"-0.011": 3.33111547592,
			"-0.01": 2.92707498877,
			"-0.009": 3.69634275083,
			"-0.008": 2.91211193,
			"-0.007": 3.6255398997,
			"-0.006": 7.26364624652,
			"-0.005": 8.99243237903,
			"-0.004": 8.982990524,
			"-0.003": 11.0748443613,
			"-0.002": 13.2176003805,
			"-0.001": 17.6589586151,
			"0.0": 13.9971480685,
			"0.001": 15.0391933633,
			"0.002": 23.2559013081,
			"0.003": 33.5073930297,
			"0.004": 17.7574662025,
			"0.005": 6.76101638634,
			"0.006": 4.99473500913,
			"0.007": 4.43478737836,
			"0.008": 3.75897891164,
			"0.009": 2.60319563216,
			"0.01": 1.22988076167,
			"0.011": 0.929661718277,
			"0.012": 0.609541744584,
			"0.013": 0.393546571133,
			"0.014": 0.00603876198389,
			"0.015": 0.0,
			"0.016": 0.0,
			"0.017": 0.0,
			"0.018": 0.0,
			"0.019": 0.0,
			"0.02": 0.0,
			"0.021": 0.0,
			"0.022": 0.0,
			"0.023": 0.0,
			"0.024": 0.0,
			"0.025": 0.0
		}
	}
}
