{
	 "smiles": "OC(=O)CC(=O)NC1=NC=CS1", 
	 "Tm": 455.15, 
	 "num_atms": 18, 
	 "gaussian": { 
		 "optdone": 1, 
		 "sigma_profile": "yes", 
		 "theory": "DFT", 
		 "functional": "B3LYP", 
		 "basiset": "6-31G**", 
		 "properties": { 
			 "R2extent": 2849.637, 
			 "electric_dipole_moment_norm": 2.76185653863, 
			 "electric_quadrupole_moment_norm": 12.2473921681, 
			 "total_energy": -965.620833656, 
			 "HOMO_LUMO_gap": 0.19018, 
			 "cosmo_polarized_energy": -16.47, 
			 "cosmo_cavitation_energy": 24.81, 
			 "cosmo_dispersion_energy": -18.5, 
			 "cosmo_repulsion_energy": 1.45, 
			 "cosmo_total_nonelectrostatic_energy": 7.76, 
			 "SMD_solvation_energy": 4.92 
		},
		"coords": [
			{
				"x": -0.0156804542,
				"y": 0.966933695,
				"z": 2.1373454809,
				"element": "O" 
			},
			{
				"x": 0.4182382633,
				"y": -0.1149274361,
				"z": 1.457177898,
				"element": "C" 
			},
			{
				"x": 1.4776244083,
				"y": -0.6562074914,
				"z": 1.6650810404,
				"element": "O" 
			},
			{
				"x": -0.5875573256,
				"y": -0.5927089513,
				"z": 0.4160710152,
				"element": "C" 
			},
			{
				"x": -1.8216640568,
				"y": 0.2743288914,
				"z": 0.2246780627,
				"element": "C" 
			},
			{
				"x": -2.8926664357,
				"y": -0.0231331438,
				"z": 0.7248112278,
				"element": "O" 
			},
			{
				"x": -1.7400871564,
				"y": 1.4170076267,
				"z": -0.5602320832,
				"element": "N" 
			},
			{
				"x": -0.7333075672,
				"y": 2.0694269655,
				"z": -1.2550270956,
				"element": "C" 
			},
			{
				"x": -1.0135222374,
				"y": 3.1515005792,
				"z": -1.929027624,
				"element": "N" 
			},
			{
				"x": 0.1123085407,
				"y": 3.6486682072,
				"z": -2.5428001842,
				"element": "C" 
			},
			{
				"x": 1.2674578291,
				"y": 2.9571572521,
				"z": -2.3474245735,
				"element": "C" 
			},
			{
				"x": 0.9601895613,
				"y": 1.5798526408,
				"z": -1.3234788079,
				"element": "S" 
			},
			{
				"x": 0.6777536977,
				"y": 1.1874289212,
				"z": 2.7824996057,
				"element": "H" 
			},
			{
				"x": -0.9566540064,
				"y": -1.5627351862,
				"z": 0.7602994096,
				"element": "H" 
			},
			{
				"x": -0.0433300188,
				"y": -0.768607298,
				"z": -0.5163120829,
				"element": "H" 
			},
			{
				"x": -2.6277476937,
				"y": 1.9054299455,
				"z": -0.6254669534,
				"element": "H" 
			},
			{
				"x": 0.0267400771,
				"y": 4.5482166018,
				"z": -3.1409910633,
				"element": "H" 
			},
			{
				"x": 2.2596045747,
				"y": 3.1522681804,
				"z": -2.7269032722,
				"element": "H" 
			}
		],
		 "valence_orbital": [ 
			{
				"type": "occ",
				"energy": -0.30072,
				"method": "rhf"
			},
			{
				"type": "occ",
				"energy": -0.29402,
				"method": "rhf"
			},
			{
				"type": "occ",
				"energy": -0.29265,
				"method": "rhf"
			},
			{
				"type": "occ",
				"energy": -0.27082,
				"method": "rhf"
			},
			{
				"type": "occ",
				"energy": -0.2326,
				"method": "rhf"
			},
			{
				"type": "unocc",
				"energy": -0.04242,
				"method": "rhf"
			},
			{
				"type": "unocc",
				"energy": -0.01146,
				"method": "rhf"
			},
			{
				"type": "unocc",
				"energy": 0.00283,
				"method": "rhf"
			},
			{
				"type": "unocc",
				"energy": 0.01527,
				"method": "rhf"
			},
			{
				"type": "unocc",
				"energy": 0.05182,
				"method": "rhf"
			}
		],
		"cosmo_sigma_profile": { 
			"-0.025": 0.0,
			"-0.024": 0.0,
			"-0.023": 0.0,
			"-0.022": 0.0,
			"-0.021": 0.0,
			"-0.02": 0.0,
			"-0.019": 0.707579763471,
			"-0.018": 1.08957593264,
			"-0.017": 0.68495716482,
			"-0.016": 0.843961581588,
			"-0.015": 1.52469988051,
			"-0.014": 1.70325146198,
			"-0.013": 1.04930459316,
			"-0.012": 1.08150565365,
			"-0.011": 1.60712954178,
			"-0.01": 2.37419737736,
			"-0.009": 6.33578831099,
			"-0.008": 8.46056447203,
			"-0.007": 9.95239816965,
			"-0.006": 8.81727443214,
			"-0.005": 10.0189786111,
			"-0.004": 8.455116919,
			"-0.003": 8.17583307472,
			"-0.002": 8.09755121335,
			"-0.001": 9.2322944639,
			"0.0": 13.4922279877,
			"0.001": 14.4812490799,
			"0.002": 14.3924287189,
			"0.003": 11.4685141049,
			"0.004": 6.69165584288,
			"0.005": 5.39802747397,
			"0.006": 5.45831031492,
			"0.007": 5.51535970796,
			"0.008": 3.53084988175,
			"0.009": 4.05198089872,
			"0.01": 6.36793043683,
			"0.011": 9.34842151704,
			"0.012": 6.95496310672,
			"0.013": 2.32556255101,
			"0.014": 0.392594308995,
			"0.015": 0.0,
			"0.016": 0.0,
			"0.017": 0.0,
			"0.018": 0.0,
			"0.019": 0.0,
			"0.02": 0.0,
			"0.021": 0.0,
			"0.022": 0.0,
			"0.023": 0.0,
			"0.024": 0.0,
			"0.025": 0.0
		}
	}
}
