{
	 "smiles": "COC1=CC(OC)=C(C(O)=O)C(N)=C1", 
	 "Tm": 380.15, 
	 "num_atms": 25, 
	 "gaussian": { 
		 "optdone": 1, 
		 "sigma_profile": "yes", 
		 "theory": "DFT", 
		 "functional": "B3LYP", 
		 "basiset": "6-31G**", 
		 "properties": { 
			 "R2extent": 3125.1845, 
			 "electric_dipole_moment_norm": 6.91895412978, 
			 "electric_quadrupole_moment_norm": 16.9528386422, 
			 "total_energy": -705.21694399, 
			 "HOMO_LUMO_gap": 0.19624, 
			 "cosmo_polarized_energy": -19.89, 
			 "cosmo_cavitation_energy": 28.56, 
			 "cosmo_dispersion_energy": -21.17, 
			 "cosmo_repulsion_energy": 1.67, 
			 "cosmo_total_nonelectrostatic_energy": 9.06, 
			 "SMD_solvation_energy": 7.59 
		},
		"coords": [
			{
				"x": 1.4823854738,
				"y": -0.8178451225,
				"z": -3.8662807988,
				"element": "C" 
			},
			{
				"x": 0.3677715777,
				"y": -1.0741632229,
				"z": -3.0241900764,
				"element": "O" 
			},
			{
				"x": 0.4435725005,
				"y": -0.7181752119,
				"z": -1.7148998338,
				"element": "C" 
			},
			{
				"x": -0.6965088012,
				"y": -0.9776997042,
				"z": -0.9464042593,
				"element": "C" 
			},
			{
				"x": -0.7186004012,
				"y": -0.6500804557,
				"z": 0.4041106623,
				"element": "C" 
			},
			{
				"x": -1.8928150231,
				"y": -0.8397445524,
				"z": 1.078881238,
				"element": "O" 
			},
			{
				"x": -2.0420227954,
				"y": -2.1095686214,
				"z": 1.72517457,
				"element": "C" 
			},
			{
				"x": 0.3978675915,
				"y": -0.040491667,
				"z": 1.0327190664,
				"element": "C" 
			},
			{
				"x": 0.3195272736,
				"y": 0.3630514392,
				"z": 2.4758633864,
				"element": "C" 
			},
			{
				"x": 1.0059197822,
				"y": 1.4818019187,
				"z": 2.8270186708,
				"element": "O" 
			},
			{
				"x": -0.3075657837,
				"y": -0.235429174,
				"z": 3.3210165365,
				"element": "O" 
			},
			{
				"x": 1.5394972281,
				"y": 0.2068967448,
				"z": 0.2363543881,
				"element": "C" 
			},
			{
				"x": 2.6624971982,
				"y": 0.8677638323,
				"z": 0.7964949047,
				"element": "N" 
			},
			{
				"x": 1.567187308,
				"y": -0.1360849792,
				"z": -1.1210451609,
				"element": "C" 
			},
			{
				"x": 1.7166865782,
				"y": 0.2531400239,
				"z": -3.9108931765,
				"element": "H" 
			},
			{
				"x": 1.1933960624,
				"y": -1.16382529,
				"z": -4.8594916845,
				"element": "H" 
			},
			{
				"x": 2.3723878206,
				"y": -1.369520965,
				"z": -3.5377942818,
				"element": "H" 
			},
			{
				"x": -1.5745512803,
				"y": -1.4103355289,
				"z": -1.4107298417,
				"element": "H" 
			},
			{
				"x": -1.9551033929,
				"y": -2.9289255186,
				"z": 0.9995002951,
				"element": "H" 
			},
			{
				"x": -1.3042976718,
				"y": -2.2215463369,
				"z": 2.5230009871,
				"element": "H" 
			},
			{
				"x": -3.0456829652,
				"y": -2.1116218358,
				"z": 2.1540069211,
				"element": "H" 
			},
			{
				"x": 1.4920941855,
				"y": 1.8329641691,
				"z": 2.0565030498,
				"element": "H" 
			},
			{
				"x": 3.4257051518,
				"y": 0.9688432299,
				"z": 0.1382208375,
				"element": "H" 
			},
			{
				"x": 3.0032311286,
				"y": 0.447195284,
				"z": 1.6552935164,
				"element": "H" 
			},
			{
				"x": 2.4688212541,
				"y": 0.0526015447,
				"z": -1.6922299168,
				"element": "H" 
			}
		],
		 "valence_orbital": [ 
			{
				"type": "occ",
				"energy": -0.29319,
				"method": "rhf"
			},
			{
				"type": "occ",
				"energy": -0.26606,
				"method": "rhf"
			},
			{
				"type": "occ",
				"energy": -0.25627,
				"method": "rhf"
			},
			{
				"type": "occ",
				"energy": -0.23868,
				"method": "rhf"
			},
			{
				"type": "occ",
				"energy": -0.22514,
				"method": "rhf"
			},
			{
				"type": "unocc",
				"energy": -0.0289,
				"method": "rhf"
			},
			{
				"type": "unocc",
				"energy": -0.00323,
				"method": "rhf"
			},
			{
				"type": "unocc",
				"energy": 0.05633,
				"method": "rhf"
			},
			{
				"type": "unocc",
				"energy": 0.06204,
				"method": "rhf"
			},
			{
				"type": "unocc",
				"energy": 0.08456,
				"method": "rhf"
			}
		],
		"cosmo_sigma_profile": { 
			"-0.025": 0.0,
			"-0.024": 0.0,
			"-0.023": 0.0,
			"-0.022": 0.0,
			"-0.021": 0.0,
			"-0.02": 0.0,
			"-0.019": 0.0,
			"-0.018": 0.0,
			"-0.017": 0.0,
			"-0.016": 0.0,
			"-0.015": 0.0,
			"-0.014": 0.634462072286,
			"-0.013": 2.74670864129,
			"-0.012": 4.03764587938,
			"-0.011": 3.69956312878,
			"-0.01": 3.11270254228,
			"-0.009": 3.46468305115,
			"-0.008": 4.14485196631,
			"-0.007": 3.73820304719,
			"-0.006": 11.3371618634,
			"-0.005": 16.2920267656,
			"-0.004": 17.6863828787,
			"-0.003": 18.8836849642,
			"-0.002": 15.9994484963,
			"-0.001": 11.1624032358,
			"0.0": 9.94001244501,
			"0.001": 9.55888390353,
			"0.002": 12.9385958315,
			"0.003": 18.055269557,
			"0.004": 9.75218464012,
			"0.005": 6.21119987489,
			"0.006": 4.51802263514,
			"0.007": 4.60748856318,
			"0.008": 4.996138477,
			"0.009": 6.28320436072,
			"0.01": 5.32943293331,
			"0.011": 7.10519563317,
			"0.012": 6.12565939026,
			"0.013": 2.79615435832,
			"0.014": 1.03519574835,
			"0.015": 0.0,
			"0.016": 0.0,
			"0.017": 0.0,
			"0.018": 0.0,
			"0.019": 0.0,
			"0.02": 0.0,
			"0.021": 0.0,
			"0.022": 0.0,
			"0.023": 0.0,
			"0.024": 0.0,
			"0.025": 0.0
		}
	}
}
