{
	 "smiles": "N#CC1=CC(C#N)=C(C=C1C#N)C#N", 
	 "Tm": 541.15, 
	 "num_atms": 16, 
	 "gaussian": { 
		 "optdone": 1, 
		 "sigma_profile": "yes", 
		 "theory": "DFT", 
		 "functional": "B3LYP", 
		 "basiset": "6-31G**", 
		 "properties": { 
			 "R2extent": 3570.3445, 
			 "electric_dipole_moment_norm": 0.00126885775404, 
			 "electric_quadrupole_moment_norm": 26.5411942324, 
			 "total_energy": -601.181470593, 
			 "HOMO_LUMO_gap": 0.17083, 
			 "cosmo_polarized_energy": -21.17, 
			 "cosmo_cavitation_energy": 26.64, 
			 "cosmo_dispersion_energy": -16.68, 
			 "cosmo_repulsion_energy": 1.31, 
			 "cosmo_total_nonelectrostatic_energy": 11.27, 
			 "SMD_solvation_energy": 9.91 
		},
		"coords": [
			{
				"x": -2.180966652,
				"y": -0.4750165891,
				"z": 2.1594990528,
				"element": "N" 
			},
			{
				"x": -1.1507613278,
				"y": -0.2112723952,
				"z": 1.6903785353,
				"element": "C" 
			},
			{
				"x": 0.1143144493,
				"y": 0.1423638255,
				"z": 1.1199101225,
				"element": "C" 
			},
			{
				"x": 0.5574259802,
				"y": 1.4668775924,
				"z": 1.2016167357,
				"element": "C" 
			},
			{
				"x": 1.7889285801,
				"y": 1.8414298435,
				"z": 0.6534528763,
				"element": "C" 
			},
			{
				"x": 2.2160749546,
				"y": 3.2047543808,
				"z": 0.7524826803,
				"element": "C" 
			},
			{
				"x": 2.5424934946,
				"y": 4.316483008,
				"z": 0.8445358025,
				"element": "N" 
			},
			{
				"x": 2.5947735724,
				"y": 0.8704257565,
				"z": 0.0096169474,
				"element": "C" 
			},
			{
				"x": 2.1516593302,
				"y": -0.4540898258,
				"z": -0.0720948301,
				"element": "C" 
			},
			{
				"x": 0.9201588514,
				"y": -0.8286430454,
				"z": 0.4760713654,
				"element": "C" 
			},
			{
				"x": 0.4930162792,
				"y": -2.1919686019,
				"z": 0.3770410531,
				"element": "C" 
			},
			{
				"x": 0.1666063304,
				"y": -3.3037005792,
				"z": 0.2849989797,
				"element": "N" 
			},
			{
				"x": 3.8598708876,
				"y": 1.2240431338,
				"z": -0.560824134,
				"element": "C" 
			},
			{
				"x": 4.8896172191,
				"y": 1.4882244072,
				"z": -1.0307097541,
				"element": "N" 
			},
			{
				"x": -0.0589861088,
				"y": 2.2096319458,
				"z": 1.6940906082,
				"element": "H" 
			},
			{
				"x": 2.7680741594,
				"y": -1.1968428569,
				"z": -0.564566041,
				"element": "H" 
			}
		],
		 "valence_orbital": [ 
			{
				"type": "occ",
				"energy": -0.37742,
				"method": "rhf"
			},
			{
				"type": "occ",
				"energy": -0.37314,
				"method": "rhf"
			},
			{
				"type": "occ",
				"energy": -0.3674,
				"method": "rhf"
			},
			{
				"type": "occ",
				"energy": -0.32875,
				"method": "rhf"
			},
			{
				"type": "occ",
				"energy": -0.31486,
				"method": "rhf"
			},
			{
				"type": "unocc",
				"energy": -0.14403,
				"method": "rhf"
			},
			{
				"type": "unocc",
				"energy": -0.11253,
				"method": "rhf"
			},
			{
				"type": "unocc",
				"energy": -0.03937,
				"method": "rhf"
			},
			{
				"type": "unocc",
				"energy": -0.03158,
				"method": "rhf"
			},
			{
				"type": "unocc",
				"energy": -0.0077,
				"method": "rhf"
			}
		],
		"cosmo_sigma_profile": { 
			"-0.025": 0.0,
			"-0.024": 0.0,
			"-0.023": 0.0,
			"-0.022": 0.0,
			"-0.021": 0.0,
			"-0.02": 0.0,
			"-0.019": 0.0,
			"-0.018": 0.0,
			"-0.017": 0.0,
			"-0.016": 0.0,
			"-0.015": 0.0,
			"-0.014": 0.0,
			"-0.013": 0.0935290450654,
			"-0.012": 5.15634690132,
			"-0.011": 5.664014631,
			"-0.01": 4.261226982,
			"-0.009": 4.20312494991,
			"-0.008": 8.81067247448,
			"-0.007": 14.0462703016,
			"-0.006": 23.9583783526,
			"-0.005": 14.7691339175,
			"-0.004": 7.83687372189,
			"-0.003": 4.98307327363,
			"-0.002": 5.60978470691,
			"-0.001": 6.40747338112,
			"0.0": 7.75779440278,
			"0.001": 8.11442081058,
			"0.002": 7.79908870157,
			"0.003": 10.5100454967,
			"0.004": 8.72305559477,
			"0.005": 10.5160763641,
			"0.006": 12.1604852696,
			"0.007": 11.8188596616,
			"0.008": 11.6475180052,
			"0.009": 10.1219242957,
			"0.01": 9.73778766179,
			"0.011": 6.07350859977,
			"0.012": 0.267218794892,
			"0.013": 0.0,
			"0.014": 0.0,
			"0.015": 0.0,
			"0.016": 0.0,
			"0.017": 0.0,
			"0.018": 0.0,
			"0.019": 0.0,
			"0.02": 0.0,
			"0.021": 0.0,
			"0.022": 0.0,
			"0.023": 0.0,
			"0.024": 0.0,
			"0.025": 0.0
		}
	}
}
