{
	 "smiles": "CC1=C(Br)C=C(C=C1Br)[N+]([O-])=O", 
	 "Tm": 329.15, 
	 "num_atms": 17, 
	 "gaussian": { 
		 "optdone": 1, 
		 "sigma_profile": "yes", 
		 "theory": "DFT", 
		 "functional": "B3LYP", 
		 "basiset": "6-31G**", 
		 "properties": { 
			 "R2extent": 4587.7502, 
			 "electric_dipole_moment_norm": 3.71137443139, 
			 "electric_quadrupole_moment_norm": 6.52269759072, 
			 "total_energy": -5617.66634773, 
			 "HOMO_LUMO_gap": 0.16622, 
			 "cosmo_polarized_energy": -6.57, 
			 "cosmo_cavitation_energy": 26.33, 
			 "cosmo_dispersion_energy": -20.15, 
			 "cosmo_repulsion_energy": 1.59, 
			 "cosmo_total_nonelectrostatic_energy": 7.78, 
			 "SMD_solvation_energy": 4.75 
		},
		"coords": [
			{
				"x": 2.2486090068,
				"y": -0.7987617321,
				"z": -1.8353734255,
				"element": "C" 
			},
			{
				"x": 1.0747592234,
				"y": -0.6237768131,
				"z": -0.9119849303,
				"element": "C" 
			},
			{
				"x": 0.400412995,
				"y": -1.7221138621,
				"z": -0.3404295833,
				"element": "C" 
			},
			{
				"x": 0.945663215,
				"y": -3.5104378073,
				"z": -0.7433035771,
				"element": "Br" 
			},
			{
				"x": -0.6845640319,
				"y": -1.5814494315,
				"z": 0.5179604455,
				"element": "C" 
			},
			{
				"x": -1.1204438804,
				"y": -0.2965163414,
				"z": 0.8157290059,
				"element": "C" 
			},
			{
				"x": -0.5133861924,
				"y": 0.8315123773,
				"z": 0.2783942558,
				"element": "C" 
			},
			{
				"x": 0.5685839439,
				"y": 0.6484335797,
				"z": -0.5757811021,
				"element": "C" 
			},
			{
				"x": 1.3528645134,
				"y": 2.22934412,
				"z": -1.3130029819,
				"element": "Br" 
			},
			{
				"x": -2.2662437794,
				"y": -0.1249150284,
				"z": 1.7253106091,
				"element": "N" 
			},
			{
				"x": -2.7837681675,
				"y": -1.1420547701,
				"z": 2.1822599017,
				"element": "O" 
			},
			{
				"x": -2.6298791057,
				"y": 1.0241477995,
				"z": 1.967446826,
				"element": "O" 
			},
			{
				"x": 2.7986339592,
				"y": -1.7100158864,
				"z": -1.5993746293,
				"element": "H" 
			},
			{
				"x": 1.9086610402,
				"y": -0.8785165736,
				"z": -2.8753698457,
				"element": "H" 
			},
			{
				"x": 2.9232874859,
				"y": 0.0555252388,
				"z": -1.7754691218,
				"element": "H" 
			},
			{
				"x": -1.1857488633,
				"y": -2.4374622287,
				"z": 0.9482207875,
				"element": "H" 
			},
			{
				"x": -0.8839413622,
				"y": 1.8166573594,
				"z": 0.5258673655,
				"element": "H" 
			}
		],
		 "valence_orbital": [ 
			{
				"type": "occ",
				"energy": -0.31047,
				"method": "rhf"
			},
			{
				"type": "occ",
				"energy": -0.30489,
				"method": "rhf"
			},
			{
				"type": "occ",
				"energy": -0.30226,
				"method": "rhf"
			},
			{
				"type": "occ",
				"energy": -0.27779,
				"method": "rhf"
			},
			{
				"type": "occ",
				"energy": -0.26836,
				"method": "rhf"
			},
			{
				"type": "unocc",
				"energy": -0.10214,
				"method": "rhf"
			},
			{
				"type": "unocc",
				"energy": -0.0487,
				"method": "rhf"
			},
			{
				"type": "unocc",
				"energy": -0.03551,
				"method": "rhf"
			},
			{
				"type": "unocc",
				"energy": -0.01765,
				"method": "rhf"
			},
			{
				"type": "unocc",
				"energy": 0.00739,
				"method": "rhf"
			}
		],
		"cosmo_sigma_profile": { 
			"-0.025": 0.0,
			"-0.024": 0.0,
			"-0.023": 0.0,
			"-0.022": 0.0,
			"-0.021": 0.0,
			"-0.02": 0.0,
			"-0.019": 0.0,
			"-0.018": 0.0,
			"-0.017": 0.0,
			"-0.016": 0.0,
			"-0.015": 0.0,
			"-0.014": 0.0,
			"-0.013": 0.0,
			"-0.012": 0.0,
			"-0.011": 0.0,
			"-0.01": 0.0,
			"-0.009": 0.0702237089391,
			"-0.008": 1.96886684634,
			"-0.007": 3.65908204378,
			"-0.006": 6.56897750271,
			"-0.005": 10.5737256268,
			"-0.004": 14.8052990641,
			"-0.003": 19.733447407,
			"-0.002": 27.4800287604,
			"-0.001": 29.5941194448,
			"0.0": 17.9507072239,
			"0.001": 15.44154621,
			"0.002": 14.029715786,
			"0.003": 18.4476859599,
			"0.004": 10.2611628264,
			"0.005": 3.89925019159,
			"0.006": 4.18704656438,
			"0.007": 9.84554206474,
			"0.008": 4.85889743885,
			"0.009": 3.79734493011,
			"0.01": 0.942590888329,
			"0.011": 0.0,
			"0.012": 0.0,
			"0.013": 0.0,
			"0.014": 0.0,
			"0.015": 0.0,
			"0.016": 0.0,
			"0.017": 0.0,
			"0.018": 0.0,
			"0.019": 0.0,
			"0.02": 0.0,
			"0.021": 0.0,
			"0.022": 0.0,
			"0.023": 0.0,
			"0.024": 0.0,
			"0.025": 0.0
		}
	}
}
