{
	 "smiles": "C1C2OC2CC2=CC3=CC=CC=C3C=C12", 
	 "Tm": 433.15, 
	 "num_atms": 27, 
	 "gaussian": { 
		 "optdone": 1, 
		 "sigma_profile": "yes", 
		 "theory": "DFT", 
		 "functional": "B3LYP", 
		 "basiset": "6-31G**", 
		 "properties": { 
			 "R2extent": 3584.4945, 
			 "electric_dipole_moment_norm": 1.46179302913, 
			 "electric_quadrupole_moment_norm": 11.7262908846, 
			 "total_energy": -615.923275535, 
			 "HOMO_LUMO_gap": 0.17523, 
			 "cosmo_polarized_energy": -7.92, 
			 "cosmo_cavitation_energy": 29.2, 
			 "cosmo_dispersion_energy": -22.07, 
			 "cosmo_repulsion_energy": 1.68, 
			 "cosmo_total_nonelectrostatic_energy": 8.82, 
			 "SMD_solvation_energy": 3.67 
		},
		"coords": [
			{
				"x": -0.9877589651,
				"y": -2.0429032622,
				"z": -1.6861615806,
				"element": "C" 
			},
			{
				"x": -0.2127141155,
				"y": -3.3524375485,
				"z": -1.5798950927,
				"element": "C" 
			},
			{
				"x": 0.6764340794,
				"y": -3.6679964439,
				"z": -2.6620425704,
				"element": "O" 
			},
			{
				"x": 1.2462668294,
				"y": -3.2658254342,
				"z": -1.4071543349,
				"element": "C" 
			},
			{
				"x": 1.8666101465,
				"y": -1.873484505,
				"z": -1.3481762687,
				"element": "C" 
			},
			{
				"x": 0.9873823165,
				"y": -0.8956317851,
				"z": -0.5895966689,
				"element": "C" 
			},
			{
				"x": 1.518645664,
				"y": 0.0607488089,
				"z": 0.2477428094,
				"element": "C" 
			},
			{
				"x": 0.6951089467,
				"y": 0.9817755802,
				"z": 0.9482928859,
				"element": "C" 
			},
			{
				"x": 1.2267687805,
				"y": 1.9760362087,
				"z": 1.8128584033,
				"element": "C" 
			},
			{
				"x": 0.3954523824,
				"y": 2.8486403075,
				"z": 2.4792214036,
				"element": "C" 
			},
			{
				"x": -1.0091272753,
				"y": 2.7650146096,
				"z": 2.3132215208,
				"element": "C" 
			},
			{
				"x": -1.5548976935,
				"y": 1.8104399471,
				"z": 1.4840777299,
				"element": "C" 
			},
			{
				"x": -0.724324718,
				"y": 0.8973011173,
				"z": 0.7804947711,
				"element": "C" 
			},
			{
				"x": -1.2489631257,
				"y": -0.1038622294,
				"z": -0.0795572107,
				"element": "C" 
			},
			{
				"x": -0.4295335866,
				"y": -0.9798440396,
				"z": -0.7572389652,
				"element": "C" 
			},
			{
				"x": -0.9149009395,
				"y": -1.7064882487,
				"z": -2.7291272083,
				"element": "H" 
			},
			{
				"x": -2.0501189682,
				"y": -2.2029099912,
				"z": -1.4784312985,
				"element": "H" 
			},
			{
				"x": -0.7480390305,
				"y": -4.2121136784,
				"z": -1.1760956346,
				"element": "H" 
			},
			{
				"x": 1.7694575532,
				"y": -4.0626729018,
				"z": -0.8780236387,
				"element": "H" 
			},
			{
				"x": 2.8625731429,
				"y": -1.9114101743,
				"z": -0.8965254251,
				"element": "H" 
			},
			{
				"x": 1.9999999483,
				"y": -1.5335509464,
				"z": -2.3839991754,
				"element": "H" 
			},
			{
				"x": 2.5967674545,
				"y": 0.1191908634,
				"z": 0.3845798823,
				"element": "H" 
			},
			{
				"x": 2.3048717731,
				"y": 2.0376894103,
				"z": 1.9390632786,
				"element": "H" 
			},
			{
				"x": 0.8143111127,
				"y": 3.6055537792,
				"z": 3.1361408688,
				"element": "H" 
			},
			{
				"x": -1.6547586742,
				"y": 3.4585322936,
				"z": 2.8443495492,
				"element": "H" 
			},
			{
				"x": -2.6324205072,
				"y": 1.7437492027,
				"z": 1.3554955234,
				"element": "H" 
			},
			{
				"x": -2.328592531,
				"y": -0.1737409397,
				"z": -0.1979135537,
				"element": "H" 
			}
		],
		 "valence_orbital": [ 
			{
				"type": "occ",
				"energy": -0.29087,
				"method": "rhf"
			},
			{
				"type": "occ",
				"energy": -0.28034,
				"method": "rhf"
			},
			{
				"type": "occ",
				"energy": -0.26622,
				"method": "rhf"
			},
			{
				"type": "occ",
				"energy": -0.23379,
				"method": "rhf"
			},
			{
				"type": "occ",
				"energy": -0.2118,
				"method": "rhf"
			},
			{
				"type": "unocc",
				"energy": -0.03657,
				"method": "rhf"
			},
			{
				"type": "unocc",
				"energy": -0.00739,
				"method": "rhf"
			},
			{
				"type": "unocc",
				"energy": 0.03307,
				"method": "rhf"
			},
			{
				"type": "unocc",
				"energy": 0.08273,
				"method": "rhf"
			},
			{
				"type": "unocc",
				"energy": 0.09067,
				"method": "rhf"
			}
		],
		"cosmo_sigma_profile": { 
			"-0.025": 0.0,
			"-0.024": 0.0,
			"-0.023": 0.0,
			"-0.022": 0.0,
			"-0.021": 0.0,
			"-0.02": 0.0,
			"-0.019": 0.0,
			"-0.018": 0.0,
			"-0.017": 0.0,
			"-0.016": 0.0,
			"-0.015": 0.0,
			"-0.014": 0.0,
			"-0.013": 0.0,
			"-0.012": 0.0,
			"-0.011": 0.0,
			"-0.01": 0.0,
			"-0.009": 0.0,
			"-0.008": 0.0,
			"-0.007": 0.237739954583,
			"-0.006": 9.52733901756,
			"-0.005": 28.3855635173,
			"-0.004": 24.7217816249,
			"-0.003": 24.8611043466,
			"-0.002": 17.7671553743,
			"-0.001": 17.4860729561,
			"0.0": 13.0431657728,
			"0.001": 12.8631578828,
			"0.002": 10.7299992886,
			"0.003": 12.0775136773,
			"0.004": 19.6925442447,
			"0.005": 21.7624718409,
			"0.006": 6.30728361027,
			"0.007": 1.67396265197,
			"0.008": 1.07883801552,
			"0.009": 1.42028146563,
			"0.01": 1.9734474306,
			"0.011": 2.41848840726,
			"0.012": 3.14290931275,
			"0.013": 1.03499033048,
			"0.014": 0.0150099630464,
			"0.015": 0.0,
			"0.016": 0.0,
			"0.017": 0.0,
			"0.018": 0.0,
			"0.019": 0.0,
			"0.02": 0.0,
			"0.021": 0.0,
			"0.022": 0.0,
			"0.023": 0.0,
			"0.024": 0.0,
			"0.025": 0.0
		}
	}
}
