{
	 "smiles": "NC1CCN(C1=O)C1=CC=CC=C1", 
	 "Tm": 340.15, 
	 "num_atms": 25, 
	 "gaussian": { 
		 "optdone": 1, 
		 "sigma_profile": "yes", 
		 "theory": "DFT", 
		 "functional": "B3LYP", 
		 "basiset": "6-31G**", 
		 "properties": { 
			 "R2extent": 3194.032, 
			 "electric_dipole_moment_norm": 2.78531208664, 
			 "electric_quadrupole_moment_norm": 4.58552336817, 
			 "total_energy": -573.038733334, 
			 "HOMO_LUMO_gap": 0.20542, 
			 "cosmo_polarized_energy": -12.37, 
			 "cosmo_cavitation_energy": 27.43, 
			 "cosmo_dispersion_energy": -20.51, 
			 "cosmo_repulsion_energy": 1.61, 
			 "cosmo_total_nonelectrostatic_energy": 8.53, 
			 "SMD_solvation_energy": 3.3 
		},
		"coords": [
			{
				"x": 3.2106363245,
				"y": 1.3334831728,
				"z": 2.728502849,
				"element": "N" 
			},
			{
				"x": 1.9485535165,
				"y": 0.7426882428,
				"z": 2.3153593632,
				"element": "C" 
			},
			{
				"x": 2.0808835726,
				"y": -0.5596925696,
				"z": 1.5239342324,
				"element": "C" 
			},
			{
				"x": 0.7740966206,
				"y": -0.6229489559,
				"z": 0.7180357526,
				"element": "C" 
			},
			{
				"x": 0.4108872772,
				"y": 0.7884356975,
				"z": 0.5125830553,
				"element": "N" 
			},
			{
				"x": 1.0814871978,
				"y": 1.6201631789,
				"z": 1.3934315376,
				"element": "C" 
			},
			{
				"x": 1.0193928769,
				"y": 2.8386673581,
				"z": 1.4631157216,
				"element": "O" 
			},
			{
				"x": -0.596845162,
				"y": 1.167886506,
				"z": -0.4083897475,
				"element": "C" 
			},
			{
				"x": -0.8081256337,
				"y": 2.515961471,
				"z": -0.7527648937,
				"element": "C" 
			},
			{
				"x": -1.8023368667,
				"y": 2.8475068377,
				"z": -1.6704134586,
				"element": "C" 
			},
			{
				"x": -2.5973770127,
				"y": 1.8644998608,
				"z": -2.2631847958,
				"element": "C" 
			},
			{
				"x": -2.3888246532,
				"y": 0.5296619899,
				"z": -1.9205708007,
				"element": "C" 
			},
			{
				"x": -1.4006008623,
				"y": 0.1787088973,
				"z": -1.0009585567,
				"element": "C" 
			},
			{
				"x": 3.7657792842,
				"y": 1.5424346828,
				"z": 1.8995620221,
				"element": "H" 
			},
			{
				"x": 3.0114080051,
				"y": 2.239539082,
				"z": 3.1501646462,
				"element": "H" 
			},
			{
				"x": 1.3501241705,
				"y": 0.5639150644,
				"z": 3.2213818454,
				"element": "H" 
			},
			{
				"x": 2.9358178418,
				"y": -0.483293483,
				"z": 0.841443624,
				"element": "H" 
			},
			{
				"x": 2.2309447865,
				"y": -1.4399156842,
				"z": 2.1521721196,
				"element": "H" 
			},
			{
				"x": 0.8986977824,
				"y": -1.1247858761,
				"z": -0.2456939267,
				"element": "H" 
			},
			{
				"x": -0.0166253611,
				"y": -1.1483344222,
				"z": 1.2714217632,
				"element": "H" 
			},
			{
				"x": -0.2006381371,
				"y": 3.281242562,
				"z": -0.2917341831,
				"element": "H" 
			},
			{
				"x": -1.9519230398,
				"y": 3.8930101965,
				"z": -1.9252100205,
				"element": "H" 
			},
			{
				"x": -3.3674829081,
				"y": 2.1353876188,
				"z": -2.979020634,
				"element": "H" 
			},
			{
				"x": -2.9986677225,
				"y": -0.2515728383,
				"z": -2.3654652107,
				"element": "H" 
			},
			{
				"x": -1.2704618974,
				"y": -0.86574859,
				"z": -0.7430023043,
				"element": "H" 
			}
		],
		 "valence_orbital": [ 
			{
				"type": "occ",
				"energy": -0.29548,
				"method": "rhf"
			},
			{
				"type": "occ",
				"energy": -0.26967,
				"method": "rhf"
			},
			{
				"type": "occ",
				"energy": -0.24905,
				"method": "rhf"
			},
			{
				"type": "occ",
				"energy": -0.23379,
				"method": "rhf"
			},
			{
				"type": "occ",
				"energy": -0.21816,
				"method": "rhf"
			},
			{
				"type": "unocc",
				"energy": -0.01274,
				"method": "rhf"
			},
			{
				"type": "unocc",
				"energy": 0.00028,
				"method": "rhf"
			},
			{
				"type": "unocc",
				"energy": 0.04032,
				"method": "rhf"
			},
			{
				"type": "unocc",
				"energy": 0.08409,
				"method": "rhf"
			},
			{
				"type": "unocc",
				"energy": 0.09297,
				"method": "rhf"
			}
		],
		"cosmo_sigma_profile": { 
			"-0.025": 0.0,
			"-0.024": 0.0,
			"-0.023": 0.0,
			"-0.022": 0.0,
			"-0.021": 0.0,
			"-0.02": 0.0,
			"-0.019": 0.0,
			"-0.018": 0.0,
			"-0.017": 0.0,
			"-0.016": 0.0,
			"-0.015": 0.0,
			"-0.014": 0.0,
			"-0.013": 0.0,
			"-0.012": 0.0,
			"-0.011": 0.0586561930147,
			"-0.01": 1.31561124314,
			"-0.009": 3.16063296095,
			"-0.008": 2.79662212099,
			"-0.007": 3.78322896314,
			"-0.006": 12.998712757,
			"-0.005": 25.0486251598,
			"-0.004": 23.940522644,
			"-0.003": 20.0619816211,
			"-0.002": 14.7860431523,
			"-0.001": 11.8884623998,
			"0.0": 8.01860827741,
			"0.001": 10.311421626,
			"0.002": 11.4180567555,
			"0.003": 10.3204077635,
			"0.004": 11.5725736769,
			"0.005": 11.4460795867,
			"0.006": 10.6432165288,
			"0.007": 2.5340787923,
			"0.008": 2.97673744102,
			"0.009": 2.39190676358,
			"0.01": 1.53557179762,
			"0.011": 2.90360264036,
			"0.012": 3.85224555283,
			"0.013": 3.11416544442,
			"0.014": 0.562402250915,
			"0.015": 0.908299531538,
			"0.016": 0.919438494572,
			"0.017": 0.502654525778,
			"0.018": 0.549280204682,
			"0.019": 0.414233069093,
			"0.02": 0.00891845321391,
			"0.021": 0.0,
			"0.022": 0.0,
			"0.023": 0.0,
			"0.024": 0.0,
			"0.025": 0.0
		}
	}
}
