{
	 "smiles": "NC(C(N)C1=CC=C(F)C=C1)C1=CC=C(F)C=C1", 
	 "Tm": 375.15, 
	 "num_atms": 32, 
	 "gaussian": { 
		 "optdone": 1, 
		 "sigma_profile": "yes", 
		 "theory": "DFT", 
		 "functional": "B3LYP", 
		 "basiset": "6-31G**", 
		 "properties": { 
			 "R2extent": 5691.609, 
			 "electric_dipole_moment_norm": 2.88366444823, 
			 "electric_quadrupole_moment_norm": 12.9452766471, 
			 "total_energy": -851.089059883, 
			 "HOMO_LUMO_gap": 0.21257, 
			 "cosmo_polarized_energy": -14.25, 
			 "cosmo_cavitation_energy": 35.55, 
			 "cosmo_dispersion_energy": -24.34, 
			 "cosmo_repulsion_energy": 1.83, 
			 "cosmo_total_nonelectrostatic_energy": 13.04, 
			 "SMD_solvation_energy": 4.99 
		},
		"coords": [
			{
				"x": 2.3981962479,
				"y": 0.5984654552,
				"z": 0.7493999396,
				"element": "N" 
			},
			{
				"x": 1.2565450918,
				"y": 1.0247014745,
				"z": -0.0609491471,
				"element": "C" 
			},
			{
				"x": 0.3965524256,
				"y": 2.1680035175,
				"z": 0.6202479029,
				"element": "C" 
			},
			{
				"x": 1.1423047956,
				"y": 3.4276919416,
				"z": 0.7250020664,
				"element": "N" 
			},
			{
				"x": -0.1498491753,
				"y": 1.7426629087,
				"z": 1.9796487014,
				"element": "C" 
			},
			{
				"x": -1.2379293521,
				"y": 0.8584329891,
				"z": 2.0646724848,
				"element": "C" 
			},
			{
				"x": -1.7355185943,
				"y": 0.4349418306,
				"z": 3.2960577352,
				"element": "C" 
			},
			{
				"x": -1.1326942375,
				"y": 0.9024032741,
				"z": 4.4582179514,
				"element": "C" 
			},
			{
				"x": -1.6083871162,
				"y": 0.4963569297,
				"z": 5.6551255747,
				"element": "F" 
			},
			{
				"x": -0.0627662678,
				"y": 1.7859571511,
				"z": 4.418811936,
				"element": "C" 
			},
			{
				"x": 0.4182753433,
				"y": 2.2032487541,
				"z": 3.1758349711,
				"element": "C" 
			},
			{
				"x": 0.4188465406,
				"y": -0.1656789816,
				"z": -0.5181201184,
				"element": "C" 
			},
			{
				"x": -0.5828600147,
				"y": 0.0157427793,
				"z": -1.4847814693,
				"element": "C" 
			},
			{
				"x": -1.3741151978,
				"y": -1.0457958756,
				"z": -1.9213508002,
				"element": "C" 
			},
			{
				"x": -1.1509672556,
				"y": -2.3077102865,
				"z": -1.380513097,
				"element": "C" 
			},
			{
				"x": -1.91324737,
				"y": -3.3427530861,
				"z": -1.7953270052,
				"element": "F" 
			},
			{
				"x": -0.1593667558,
				"y": -2.5304095152,
				"z": -0.4345764862,
				"element": "C" 
			},
			{
				"x": 0.6243042381,
				"y": -1.4545377669,
				"z": -0.0128297716,
				"element": "C" 
			},
			{
				"x": 2.1136804142,
				"y": 0.4567361195,
				"z": 1.7168773122,
				"element": "H" 
			},
			{
				"x": 3.1251155478,
				"y": 1.3067421989,
				"z": 0.7503910163,
				"element": "H" 
			},
			{
				"x": 1.6735930146,
				"y": 1.4855082857,
				"z": -0.9673113027,
				"element": "H" 
			},
			{
				"x": -0.4590137376,
				"y": 2.3696227618,
				"z": -0.0340166464,
				"element": "H" 
			},
			{
				"x": 2.061905834,
				"y": 3.253226901,
				"z": 1.126501957,
				"element": "H" 
			},
			{
				"x": 1.3098643456,
				"y": 3.8005025199,
				"z": -0.2063535714,
				"element": "H" 
			},
			{
				"x": -1.7111015222,
				"y": 0.4992368862,
				"z": 1.1569986492,
				"element": "H" 
			},
			{
				"x": -2.5803565933,
				"y": -0.2419462072,
				"z": 3.3639911385,
				"element": "H" 
			},
			{
				"x": 0.3710116697,
				"y": 2.146045283,
				"z": 5.3455879614,
				"element": "H" 
			},
			{
				"x": 1.2204296865,
				"y": 2.9320649823,
				"z": 3.1455285925,
				"element": "H" 
			},
			{
				"x": -0.74813947,
				"y": 1.0005035367,
				"z": -1.9155451124,
				"element": "H" 
			},
			{
				"x": -2.1459603841,
				"y": -0.9114132977,
				"z": -2.6715994529,
				"element": "H" 
			},
			{
				"x": -0.0052262109,
				"y": -3.531340439,
				"z": -0.0456011681,
				"element": "H" 
			},
			{
				"x": 1.4232740597,
				"y": -1.6198130248,
				"z": 0.7004792582,
				"element": "H" 
			}
		],
		 "valence_orbital": [ 
			{
				"type": "occ",
				"energy": -0.26049,
				"method": "rhf"
			},
			{
				"type": "occ",
				"energy": -0.25785,
				"method": "rhf"
			},
			{
				"type": "occ",
				"energy": -0.24327,
				"method": "rhf"
			},
			{
				"type": "occ",
				"energy": -0.23747,
				"method": "rhf"
			},
			{
				"type": "occ",
				"energy": -0.22841,
				"method": "rhf"
			},
			{
				"type": "unocc",
				"energy": -0.01584,
				"method": "rhf"
			},
			{
				"type": "unocc",
				"energy": -0.00652,
				"method": "rhf"
			},
			{
				"type": "unocc",
				"energy": -0.00094,
				"method": "rhf"
			},
			{
				"type": "unocc",
				"energy": 0.00544,
				"method": "rhf"
			},
			{
				"type": "unocc",
				"energy": 0.05307,
				"method": "rhf"
			}
		],
		"cosmo_sigma_profile": { 
			"-0.025": 0.0,
			"-0.024": 0.0,
			"-0.023": 0.0,
			"-0.022": 0.0,
			"-0.021": 0.0,
			"-0.02": 0.0,
			"-0.019": 0.0,
			"-0.018": 0.0,
			"-0.017": 0.0,
			"-0.016": 0.0,
			"-0.015": 0.0,
			"-0.014": 0.0,
			"-0.013": 0.0,
			"-0.012": 0.205431509532,
			"-0.011": 1.94576603955,
			"-0.01": 3.40573016678,
			"-0.009": 4.29132933079,
			"-0.008": 4.69534247484,
			"-0.007": 11.2291923881,
			"-0.006": 17.5161403187,
			"-0.005": 18.7916114922,
			"-0.004": 21.6707430199,
			"-0.003": 15.8438274448,
			"-0.002": 15.0227725785,
			"-0.001": 12.181468463,
			"0.0": 13.438072971,
			"0.001": 20.3853877757,
			"0.002": 24.5168638132,
			"0.003": 22.1045401004,
			"0.004": 31.1947986216,
			"0.005": 24.8106198648,
			"0.006": 2.55322927973,
			"0.007": 1.9031126317,
			"0.008": 1.7576608079,
			"0.009": 1.51699579535,
			"0.01": 1.65360680589,
			"0.011": 1.40253189811,
			"0.012": 1.78827558615,
			"0.013": 1.06650452341,
			"0.014": 0.96859459565,
			"0.015": 1.08266276093,
			"0.016": 1.35184993691,
			"0.017": 0.948653469119,
			"0.018": 0.520575464663,
			"0.019": 0.159276329126,
			"0.02": 0.0,
			"0.021": 0.0,
			"0.022": 0.0,
			"0.023": 0.0,
			"0.024": 0.0,
			"0.025": 0.0
		}
	}
}
