{
	 "smiles": "CC1=C(SC2=C1CCCC2)C(O)=O", 
	 "Tm": 491.15, 
	 "num_atms": 25, 
	 "gaussian": { 
		 "optdone": 1, 
		 "sigma_profile": "yes", 
		 "theory": "DFT", 
		 "functional": "B3LYP", 
		 "basiset": "6-31G**", 
		 "properties": { 
			 "R2extent": 3241.603, 
			 "electric_dipole_moment_norm": 6.35433928745, 
			 "electric_quadrupole_moment_norm": 13.3066272643, 
			 "total_energy": -936.951064975, 
			 "HOMO_LUMO_gap": 0.18422, 
			 "cosmo_polarized_energy": -14.38, 
			 "cosmo_cavitation_energy": 28.22, 
			 "cosmo_dispersion_energy": -21.58, 
			 "cosmo_repulsion_energy": 1.66, 
			 "cosmo_total_nonelectrostatic_energy": 8.3, 
			 "SMD_solvation_energy": 4.64 
		},
		"coords": [
			{
				"x": 2.4406205004,
				"y": -0.6450997345,
				"z": -0.7907100682,
				"element": "C" 
			},
			{
				"x": 1.1232380594,
				"y": 0.0835541189,
				"z": -0.6728398385,
				"element": "C" 
			},
			{
				"x": 0.7688315672,
				"y": 0.9720368474,
				"z": 0.328931208,
				"element": "C" 
			},
			{
				"x": -0.8800327617,
				"y": 1.5220829682,
				"z": 0.1490450116,
				"element": "S" 
			},
			{
				"x": -1.0779289351,
				"y": 0.5923759944,
				"z": -1.2984492018,
				"element": "C" 
			},
			{
				"x": 0.0579741614,
				"y": -0.1187045536,
				"z": -1.6130799002,
				"element": "C" 
			},
			{
				"x": 0.1216914606,
				"y": -1.0259181154,
				"z": -2.821325007,
				"element": "C" 
			},
			{
				"x": -1.0376341877,
				"y": -0.7565088468,
				"z": -3.7976135228,
				"element": "C" 
			},
			{
				"x": -2.3760645481,
				"y": -0.6154201203,
				"z": -3.0593563459,
				"element": "C" 
			},
			{
				"x": -2.3531297013,
				"y": 0.5868526947,
				"z": -2.0983001117,
				"element": "C" 
			},
			{
				"x": 1.4939991356,
				"y": 1.4844433314,
				"z": 1.5098707367,
				"element": "C" 
			},
			{
				"x": 2.8538253714,
				"y": 1.3701338715,
				"z": 1.5042632899,
				"element": "O" 
			},
			{
				"x": 0.9402008289,
				"y": 1.9993896476,
				"z": 2.4555693054,
				"element": "O" 
			},
			{
				"x": 2.2961411526,
				"y": -1.629071191,
				"z": -1.244877817,
				"element": "H" 
			},
			{
				"x": 2.9112648596,
				"y": -0.808859049,
				"z": 0.1821707508,
				"element": "H" 
			},
			{
				"x": 3.1525688919,
				"y": -0.1088993041,
				"z": -1.4341005273,
				"element": "H" 
			},
			{
				"x": 1.0797488751,
				"y": -0.9036543213,
				"z": -3.3414639132,
				"element": "H" 
			},
			{
				"x": 0.0889887486,
				"y": -2.0762603721,
				"z": -2.4946410466,
				"element": "H" 
			},
			{
				"x": -0.83575339,
				"y": 0.1687549147,
				"z": -4.3533674682,
				"element": "H" 
			},
			{
				"x": -1.091547256,
				"y": -1.5625922387,
				"z": -4.5373008936,
				"element": "H" 
			},
			{
				"x": -3.1981917264,
				"y": -0.4984292971,
				"z": -3.7736489816,
				"element": "H" 
			},
			{
				"x": -2.5769965019,
				"y": -1.5322046714,
				"z": -2.4900846311,
				"element": "H" 
			},
			{
				"x": -3.2253408188,
				"y": 0.5647382437,
				"z": -1.4347287946,
				"element": "H" 
			},
			{
				"x": -2.4301459203,
				"y": 1.5210560755,
				"z": -2.6728747423,
				"element": "H" 
			},
			{
				"x": 3.1652721345,
				"y": 1.1219031074,
				"z": 0.6240125089,
				"element": "H" 
			}
		],
		 "valence_orbital": [ 
			{
				"type": "occ",
				"energy": -0.32642,
				"method": "rhf"
			},
			{
				"type": "occ",
				"energy": -0.30838,
				"method": "rhf"
			},
			{
				"type": "occ",
				"energy": -0.2692,
				"method": "rhf"
			},
			{
				"type": "occ",
				"energy": -0.24794,
				"method": "rhf"
			},
			{
				"type": "occ",
				"energy": -0.23257,
				"method": "rhf"
			},
			{
				"type": "unocc",
				"energy": -0.04835,
				"method": "rhf"
			},
			{
				"type": "unocc",
				"energy": 0.02283,
				"method": "rhf"
			},
			{
				"type": "unocc",
				"energy": 0.03397,
				"method": "rhf"
			},
			{
				"type": "unocc",
				"energy": 0.06105,
				"method": "rhf"
			},
			{
				"type": "unocc",
				"energy": 0.08158,
				"method": "rhf"
			}
		],
		"cosmo_sigma_profile": { 
			"-0.025": 0.0,
			"-0.024": 0.0,
			"-0.023": 0.0,
			"-0.022": 0.0,
			"-0.021": 0.0,
			"-0.02": 0.0,
			"-0.019": 0.0,
			"-0.018": 0.0,
			"-0.017": 0.0250545878388,
			"-0.016": 0.730802104777,
			"-0.015": 1.10052979576,
			"-0.014": 0.864995613166,
			"-0.013": 0.932690666452,
			"-0.012": 0.808109034275,
			"-0.011": 1.22656813028,
			"-0.01": 1.42580887241,
			"-0.009": 0.985166695872,
			"-0.008": 0.550135885244,
			"-0.007": 1.66393694631,
			"-0.006": 3.08341820736,
			"-0.005": 8.36716845125,
			"-0.004": 18.5952952047,
			"-0.003": 29.6218284617,
			"-0.002": 32.5147643843,
			"-0.001": 26.9154003548,
			"0.0": 16.8497716589,
			"0.001": 10.3638308562,
			"0.002": 8.77674339119,
			"0.003": 15.4867500377,
			"0.004": 8.67426854915,
			"0.005": 4.67622221223,
			"0.006": 2.71702138966,
			"0.007": 2.77666678886,
			"0.008": 3.04371824838,
			"0.009": 2.89540924412,
			"0.01": 4.6597116492,
			"0.011": 4.58028971516,
			"0.012": 6.194224246,
			"0.013": 2.54964471271,
			"0.014": 0.335022611013,
			"0.015": 0.0,
			"0.016": 0.0,
			"0.017": 0.0,
			"0.018": 0.0,
			"0.019": 0.0,
			"0.02": 0.0,
			"0.021": 0.0,
			"0.022": 0.0,
			"0.023": 0.0,
			"0.024": 0.0,
			"0.025": 0.0
		}
	}
}
