{
	 "smiles": "CCN1C(C)=CC(C=O)=C1C", 
	 "Tm": 361.15, 
	 "num_atms": 24, 
	 "gaussian": { 
		 "optdone": 1, 
		 "sigma_profile": "yes", 
		 "theory": "DFT", 
		 "functional": "B3LYP", 
		 "basiset": "6-31G**", 
		 "properties": { 
			 "R2extent": 1984.5805, 
			 "electric_dipole_moment_norm": 5.3417801911, 
			 "electric_quadrupole_moment_norm": 10.8242542759, 
			 "total_energy": -480.774062055, 
			 "HOMO_LUMO_gap": 0.18179, 
			 "cosmo_polarized_energy": -10.46, 
			 "cosmo_cavitation_energy": 26.59, 
			 "cosmo_dispersion_energy": -18.83, 
			 "cosmo_repulsion_energy": 1.5, 
			 "cosmo_total_nonelectrostatic_energy": 9.26, 
			 "SMD_solvation_energy": 5.63 
		},
		"coords": [
			{
				"x": 1.1154403619,
				"y": -0.2135396309,
				"z": 2.8986488698,
				"element": "C" 
			},
			{
				"x": 0.5592462254,
				"y": -1.1341625249,
				"z": 1.8071313331,
				"element": "C" 
			},
			{
				"x": 0.1455418923,
				"y": -0.4171482185,
				"z": 0.6031337952,
				"element": "N" 
			},
			{
				"x": -1.1206841176,
				"y": 0.1428340228,
				"z": 0.4015874643,
				"element": "C" 
			},
			{
				"x": -2.2372743436,
				"y": -0.0112372866,
				"z": 1.3845515902,
				"element": "C" 
			},
			{
				"x": -1.0961591073,
				"y": 0.7809204975,
				"z": -0.8112063124,
				"element": "C" 
			},
			{
				"x": 0.2107546644,
				"y": 0.6161711949,
				"z": -1.3737328425,
				"element": "C" 
			},
			{
				"x": 0.643737786,
				"y": 1.1424560131,
				"z": -2.657505057,
				"element": "C" 
			},
			{
				"x": 1.7509994454,
				"y": 1.0132960622,
				"z": -3.1667804817,
				"element": "O" 
			},
			{
				"x": 0.9607310196,
				"y": -0.1343495262,
				"z": -0.4645153214,
				"element": "C" 
			},
			{
				"x": 2.3780804172,
				"y": -0.5991535236,
				"z": -0.56375052,
				"element": "C" 
			},
			{
				"x": 0.3690125548,
				"y": 0.5212214044,
				"z": 3.2137509496,
				"element": "H" 
			},
			{
				"x": 1.9945093637,
				"y": 0.3311681361,
				"z": 2.5428476001,
				"element": "H" 
			},
			{
				"x": 1.4078491335,
				"y": -0.8017076,
				"z": 3.7745025371,
				"element": "H" 
			},
			{
				"x": 1.3095795636,
				"y": -1.8745361231,
				"z": 1.5176739361,
				"element": "H" 
			},
			{
				"x": -0.3040522701,
				"y": -1.6903005988,
				"z": 2.1828763637,
				"element": "H" 
			},
			{
				"x": -2.5222194432,
				"y": -1.060323731,
				"z": 1.5373271648,
				"element": "H" 
			},
			{
				"x": -3.1189031178,
				"y": 0.5134935921,
				"z": 1.0091422585,
				"element": "H" 
			},
			{
				"x": -1.9999778636,
				"y": 0.4086403062,
				"z": 2.3699633322,
				"element": "H" 
			},
			{
				"x": -1.9257373855,
				"y": 1.3081559686,
				"z": -1.2636907182,
				"element": "H" 
			},
			{
				"x": -0.1477152835,
				"y": 1.7148590954,
				"z": -3.1934162377,
				"element": "H" 
			},
			{
				"x": 2.7906840208,
				"y": -0.2319334391,
				"z": -1.5035897041,
				"element": "H" 
			},
			{
				"x": 2.9977982073,
				"y": -0.2252598812,
				"z": 0.2605213439,
				"element": "H" 
			},
			{
				"x": 2.4514582763,
				"y": -1.6944642093,
				"z": -0.5580713436,
				"element": "H" 
			}
		],
		 "valence_orbital": [ 
			{
				"type": "occ",
				"energy": -0.35064,
				"method": "rhf"
			},
			{
				"type": "occ",
				"energy": -0.34637,
				"method": "rhf"
			},
			{
				"type": "occ",
				"energy": -0.24049,
				"method": "rhf"
			},
			{
				"type": "occ",
				"energy": -0.22954,
				"method": "rhf"
			},
			{
				"type": "occ",
				"energy": -0.2048,
				"method": "rhf"
			},
			{
				"type": "unocc",
				"energy": -0.02301,
				"method": "rhf"
			},
			{
				"type": "unocc",
				"energy": 0.03877,
				"method": "rhf"
			},
			{
				"type": "unocc",
				"energy": 0.07039,
				"method": "rhf"
			},
			{
				"type": "unocc",
				"energy": 0.09397,
				"method": "rhf"
			},
			{
				"type": "unocc",
				"energy": 0.10904,
				"method": "rhf"
			}
		],
		"cosmo_sigma_profile": { 
			"-0.025": 0.0,
			"-0.024": 0.0,
			"-0.023": 0.0,
			"-0.022": 0.0,
			"-0.021": 0.0,
			"-0.02": 0.0,
			"-0.019": 0.0,
			"-0.018": 0.0,
			"-0.017": 0.0,
			"-0.016": 0.0,
			"-0.015": 0.0,
			"-0.014": 0.0,
			"-0.013": 0.0,
			"-0.012": 0.0,
			"-0.011": 0.0,
			"-0.01": 0.0,
			"-0.009": 0.0,
			"-0.008": 0.0,
			"-0.007": 0.105110918692,
			"-0.006": 5.02459978457,
			"-0.005": 17.2303468604,
			"-0.004": 28.4861179261,
			"-0.003": 25.968893051,
			"-0.002": 19.9078281876,
			"-0.001": 22.8256231957,
			"0.0": 21.0249709367,
			"0.001": 11.4589372793,
			"0.002": 7.92058284848,
			"0.003": 7.71931199055,
			"0.004": 7.77214539,
			"0.005": 6.9295067287,
			"0.006": 6.03082854884,
			"0.007": 4.44063326996,
			"0.008": 1.68483097941,
			"0.009": 2.25688542926,
			"0.01": 1.67355303002,
			"0.011": 2.61994285902,
			"0.012": 2.99668128191,
			"0.013": 3.00417649195,
			"0.014": 1.94538357921,
			"0.015": 0.296587236702,
			"0.016": 0.0,
			"0.017": 0.0,
			"0.018": 0.0,
			"0.019": 0.0,
			"0.02": 0.0,
			"0.021": 0.0,
			"0.022": 0.0,
			"0.023": 0.0,
			"0.024": 0.0,
			"0.025": 0.0
		}
	}
}
