{
	 "smiles": "CCCCCCCCCCCCCC(=O)OC1=CC=C(C=C1)N=CC1=CC=C(C=C1)N(C)C", 
	 "Tm": 379.15, 
	 "num_atms": 75, 
	 "gaussian": { 
		 "optdone": 1, 
		 "sigma_profile": "yes", 
		 "theory": "DFT", 
		 "functional": "B3LYP", 
		 "basiset": "6-31G**", 
		 "properties": { 
			 "R2extent": 33865.3789, 
			 "electric_dipole_moment_norm": 4.25244531182, 
			 "electric_quadrupole_moment_norm": 40.6175821004, 
			 "total_energy": -1390.37619164, 
			 "HOMO_LUMO_gap": 0.15973, 
			 "cosmo_polarized_energy": -15.49, 
			 "cosmo_cavitation_energy": 75.65, 
			 "cosmo_dispersion_energy": -49.76, 
			 "cosmo_repulsion_energy": 3.89, 
			 "cosmo_total_nonelectrostatic_energy": 29.78, 
			 "SMD_solvation_energy": 10.35 
		},
		"coords": [
			{
				"x": 6.2015630618,
				"y": 0.7472984313,
				"z": 3.3739919847,
				"element": "C" 
			},
			{
				"x": 5.2715247058,
				"y": -0.2521979869,
				"z": 4.0704835828,
				"element": "C" 
			},
			{
				"x": 5.41568119,
				"y": -0.230592956,
				"z": 5.5984550355,
				"element": "C" 
			},
			{
				"x": 4.5882006482,
				"y": -1.2735488666,
				"z": 6.3713006243,
				"element": "C" 
			},
			{
				"x": 3.0526994441,
				"y": -1.1210086813,
				"z": 6.2594118721,
				"element": "C" 
			},
			{
				"x": 2.369578335,
				"y": -1.9582671204,
				"z": 5.1604630898,
				"element": "C" 
			},
			{
				"x": 2.3159608679,
				"y": -3.4625467669,
				"z": 5.4703599227,
				"element": "C" 
			},
			{
				"x": 1.5666161277,
				"y": -4.3043942992,
				"z": 4.4232910092,
				"element": "C" 
			},
			{
				"x": 2.2572854092,
				"y": -4.3773317202,
				"z": 3.0527516333,
				"element": "C" 
			},
			{
				"x": 1.598976169,
				"y": -5.3541853558,
				"z": 2.061846402,
				"element": "C" 
			},
			{
				"x": 0.1550225623,
				"y": -5.021765323,
				"z": 1.6454344467,
				"element": "C" 
			},
			{
				"x": 0.0049427237,
				"y": -3.6902634721,
				"z": 0.8976078387,
				"element": "C" 
			},
			{
				"x": -1.4417582299,
				"y": -3.4475493014,
				"z": 0.423869808,
				"element": "C" 
			},
			{
				"x": -1.6013090095,
				"y": -2.14354366,
				"z": -0.3280542609,
				"element": "C" 
			},
			{
				"x": -1.8637547116,
				"y": -2.0301865008,
				"z": -1.5013178421,
				"element": "O" 
			},
			{
				"x": -1.3883047186,
				"y": -1.087637556,
				"z": 0.5190923948,
				"element": "O" 
			},
			{
				"x": -1.4619633557,
				"y": 0.222653424,
				"z": 0.0294561698,
				"element": "C" 
			},
			{
				"x": -0.6503406415,
				"y": 0.6689367168,
				"z": -1.0122285781,
				"element": "C" 
			},
			{
				"x": -0.7174214372,
				"y": 2.002027011,
				"z": -1.4095288526,
				"element": "C" 
			},
			{
				"x": -1.5946456172,
				"y": 2.9008089589,
				"z": -0.7754482111,
				"element": "C" 
			},
			{
				"x": -2.3794934496,
				"y": 2.4360717485,
				"z": 0.2933960467,
				"element": "C" 
			},
			{
				"x": -2.3221169828,
				"y": 1.0997988029,
				"z": 0.6845056566,
				"element": "C" 
			},
			{
				"x": -1.5919538473,
				"y": 4.2646823195,
				"z": -1.1061921732,
				"element": "N" 
			},
			{
				"x": -2.1949062813,
				"y": 4.7830746052,
				"z": -2.1110821293,
				"element": "C" 
			},
			{
				"x": -3.0717152647,
				"y": 4.2308396152,
				"z": -3.1532549769,
				"element": "C" 
			},
			{
				"x": -3.4877406877,
				"y": 5.109281126,
				"z": -4.1717578282,
				"element": "C" 
			},
			{
				"x": -4.3178169515,
				"y": 4.7079812358,
				"z": -5.2061327409,
				"element": "C" 
			},
			{
				"x": -4.7888418717,
				"y": 3.3739011497,
				"z": -5.2753281337,
				"element": "C" 
			},
			{
				"x": -4.3878584772,
				"y": 2.4897243103,
				"z": -4.2415702395,
				"element": "C" 
			},
			{
				"x": -3.5538169354,
				"y": 2.9070768525,
				"z": -3.2171878874,
				"element": "C" 
			},
			{
				"x": -5.603718577,
				"y": 2.9513886236,
				"z": -6.3039939347,
				"element": "N" 
			},
			{
				"x": -6.0611373378,
				"y": 3.8994554499,
				"z": -7.3058596278,
				"element": "C" 
			},
			{
				"x": -6.1323301215,
				"y": 1.5967385599,
				"z": -6.3073514304,
				"element": "C" 
			},
			{
				"x": 6.0802284639,
				"y": 0.7182490831,
				"z": 2.2861496591,
				"element": "H" 
			},
			{
				"x": 7.2529608841,
				"y": 0.5328342347,
				"z": 3.598098537,
				"element": "H" 
			},
			{
				"x": 5.9977832375,
				"y": 1.7727833253,
				"z": 3.7030996475,
				"element": "H" 
			},
			{
				"x": 4.2342692732,
				"y": -0.0309238303,
				"z": 3.7905361907,
				"element": "H" 
			},
			{
				"x": 5.4795103125,
				"y": -1.2656229636,
				"z": 3.6999221836,
				"element": "H" 
			},
			{
				"x": 5.155109751,
				"y": 0.7727812155,
				"z": 5.9659569745,
				"element": "H" 
			},
			{
				"x": 6.4759317913,
				"y": -0.3752171231,
				"z": 5.8499831384,
				"element": "H" 
			},
			{
				"x": 4.8886599216,
				"y": -2.2812038234,
				"z": 6.053725881,
				"element": "H" 
			},
			{
				"x": 4.8740716965,
				"y": -1.2020670178,
				"z": 7.4280894811,
				"element": "H" 
			},
			{
				"x": 2.593617135,
				"y": -1.3897746649,
				"z": 7.2202797376,
				"element": "H" 
			},
			{
				"x": 2.8133474483,
				"y": -0.0602346078,
				"z": 6.1050266834,
				"element": "H" 
			},
			{
				"x": 2.8722074289,
				"y": -1.7919416631,
				"z": 4.2010896011,
				"element": "H" 
			},
			{
				"x": 1.3404162853,
				"y": -1.5951620854,
				"z": 5.0306868478,
				"element": "H" 
			},
			{
				"x": 3.3341110572,
				"y": -3.8596841623,
				"z": 5.5838243021,
				"element": "H" 
			},
			{
				"x": 1.8288297362,
				"y": -3.5989651581,
				"z": 6.4458095276,
				"element": "H" 
			},
			{
				"x": 0.5490752485,
				"y": -3.9059706294,
				"z": 4.3099843809,
				"element": "H" 
			},
			{
				"x": 1.4498548491,
				"y": -5.326288677,
				"z": 4.8106194558,
				"element": "H" 
			},
			{
				"x": 3.2995298989,
				"y": -4.6918050357,
				"z": 3.201879967,
				"element": "H" 
			},
			{
				"x": 2.310022851,
				"y": -3.377391982,
				"z": 2.6053354217,
				"element": "H" 
			},
			{
				"x": 2.2201045172,
				"y": -5.4111512855,
				"z": 1.1574975494,
				"element": "H" 
			},
			{
				"x": 1.6103027351,
				"y": -6.3614118502,
				"z": 2.5002236675,
				"element": "H" 
			},
			{
				"x": -0.4983738465,
				"y": -5.0159420235,
				"z": 2.5280006212,
				"element": "H" 
			},
			{
				"x": -0.2153375445,
				"y": -5.8327667835,
				"z": 1.0039758241,
				"element": "H" 
			},
			{
				"x": 0.3093002638,
				"y": -2.8547479607,
				"z": 1.5362562119,
				"element": "H" 
			},
			{
				"x": 0.6750901669,
				"y": -3.6822578428,
				"z": 0.0274416697,
				"element": "H" 
			},
			{
				"x": -2.1100761018,
				"y": -3.4317219275,
				"z": 1.2932870527,
				"element": "H" 
			},
			{
				"x": -1.7695980452,
				"y": -4.246488034,
				"z": -0.2462301203,
				"element": "H" 
			},
			{
				"x": 0.0207414709,
				"y": -0.0195691458,
				"z": -1.5124473363,
				"element": "H" 
			},
			{
				"x": -0.0895565065,
				"y": 2.3605789651,
				"z": -2.2189931898,
				"element": "H" 
			},
			{
				"x": -3.0366221439,
				"y": 3.1305687869,
				"z": 0.806822417,
				"element": "H" 
			},
			{
				"x": -2.9330676299,
				"y": 0.7320958099,
				"z": 1.5027761092,
				"element": "H" 
			},
			{
				"x": -2.0362185494,
				"y": 5.8623799077,
				"z": -2.2225276433,
				"element": "H" 
			},
			{
				"x": -3.1458110065,
				"y": 6.1416267243,
				"z": -4.1479407599,
				"element": "H" 
			},
			{
				"x": -4.6028961155,
				"y": 5.4313689125,
				"z": -5.959821407,
				"element": "H" 
			},
			{
				"x": -4.7315047421,
				"y": 1.4628964915,
				"z": -4.2383695176,
				"element": "H" 
			},
			{
				"x": -3.2797800339,
				"y": 2.1906448807,
				"z": -2.4540655196,
				"element": "H" 
			},
			{
				"x": -6.6748518791,
				"y": 3.3772119937,
				"z": -8.0405187847,
				"element": "H" 
			},
			{
				"x": -5.2191919969,
				"y": 4.358353318,
				"z": -7.8396313622,
				"element": "H" 
			},
			{
				"x": -6.6661570304,
				"y": 4.7074768689,
				"z": -6.8700236597,
				"element": "H" 
			},
			{
				"x": -6.7290443591,
				"y": 1.4475405309,
				"z": -7.2078325731,
				"element": "H" 
			},
			{
				"x": -5.3275471303,
				"y": 0.8512928903,
				"z": -6.3122970767,
				"element": "H" 
			},
			{
				"x": -6.7735485008,
				"y": 1.3971069639,
				"z": -5.4371084612,
				"element": "H" 
			}
		],
		 "valence_orbital": [ 
			{
				"type": "occ",
				"energy": -0.26488,
				"method": "rhf"
			},
			{
				"type": "occ",
				"energy": -0.25197,
				"method": "rhf"
			},
			{
				"type": "occ",
				"energy": -0.24305,
				"method": "rhf"
			},
			{
				"type": "occ",
				"energy": -0.19976,
				"method": "rhf"
			},
			{
				"type": "occ",
				"energy": -0.19363,
				"method": "rhf"
			},
			{
				"type": "unocc",
				"energy": -0.0339,
				"method": "rhf"
			},
			{
				"type": "unocc",
				"energy": -0.00288,
				"method": "rhf"
			},
			{
				"type": "unocc",
				"energy": 0.00457,
				"method": "rhf"
			},
			{
				"type": "unocc",
				"energy": 0.00941,
				"method": "rhf"
			},
			{
				"type": "unocc",
				"energy": 0.02901,
				"method": "rhf"
			}
		],
		"cosmo_sigma_profile": { 
			"-0.025": 0.0,
			"-0.024": 0.0,
			"-0.023": 0.0,
			"-0.022": 0.0,
			"-0.021": 0.0,
			"-0.02": 0.0,
			"-0.019": 0.0,
			"-0.018": 0.0,
			"-0.017": 0.0,
			"-0.016": 0.0,
			"-0.015": 0.0,
			"-0.014": 0.0,
			"-0.013": 0.0,
			"-0.012": 0.0,
			"-0.011": 0.0,
			"-0.01": 0.0,
			"-0.009": 0.0,
			"-0.008": 0.105699055024,
			"-0.007": 3.56524445657,
			"-0.006": 15.5595716187,
			"-0.005": 27.1329365838,
			"-0.004": 36.4072495644,
			"-0.003": 38.5047671129,
			"-0.002": 73.551437222,
			"-0.001": 90.6496140545,
			"0.0": 87.8478658397,
			"0.001": 74.6187946759,
			"0.002": 42.0895252254,
			"0.003": 21.6591335043,
			"0.004": 21.5422480531,
			"0.005": 20.8500112136,
			"0.006": 8.17570292504,
			"0.007": 4.10468112302,
			"0.008": 3.64632134792,
			"0.009": 3.52490009082,
			"0.01": 2.68947396074,
			"0.011": 5.16432873729,
			"0.012": 5.12004228274,
			"0.013": 1.71985581103,
			"0.014": 0.728723099994,
			"0.015": 1.02337526214,
			"0.016": 0.334457020293,
			"0.017": 0.0,
			"0.018": 0.0,
			"0.019": 0.0,
			"0.02": 0.0,
			"0.021": 0.0,
			"0.022": 0.0,
			"0.023": 0.0,
			"0.024": 0.0,
			"0.025": 0.0
		}
	}
}
