{
	 "smiles": "CNC(C1=CC=C(Cl)C=C1)C1=CC=C(Cl)C=C1", 
	 "Tm": 323.15, 
	 "num_atms": 30, 
	 "gaussian": { 
		 "optdone": 1, 
		 "sigma_profile": "yes", 
		 "theory": "DFT", 
		 "functional": "B3LYP", 
		 "basiset": "6-31G**", 
		 "properties": { 
			 "R2extent": 8063.593, 
			 "electric_dipole_moment_norm": 3.06564323756, 
			 "electric_quadrupole_moment_norm": 14.3307833495, 
			 "total_energy": -1516.46017106, 
			 "HOMO_LUMO_gap": 0.20885, 
			 "cosmo_polarized_energy": -8.32, 
			 "cosmo_cavitation_energy": 37.23, 
			 "cosmo_dispersion_energy": -26.22, 
			 "cosmo_repulsion_energy": 2.07, 
			 "cosmo_total_nonelectrostatic_energy": 13.08, 
			 "SMD_solvation_energy": 5.02 
		},
		"coords": [
			{
				"x": -1.425187892,
				"y": -1.0836952466,
				"z": -1.4675863382,
				"element": "C" 
			},
			{
				"x": -1.3033457823,
				"y": -0.1284006556,
				"z": -0.3683362566,
				"element": "N" 
			},
			{
				"x": -0.0809375616,
				"y": 0.6782574044,
				"z": -0.4120138442,
				"element": "C" 
			},
			{
				"x": -0.2185418498,
				"y": 1.8727604158,
				"z": 0.5296044362,
				"element": "C" 
			},
			{
				"x": -0.7738913515,
				"y": 1.7254523909,
				"z": 1.8080332218,
				"element": "C" 
			},
			{
				"x": -0.8860062597,
				"y": 2.813448818,
				"z": 2.6723219946,
				"element": "C" 
			},
			{
				"x": -0.4319855226,
				"y": 4.0645235694,
				"z": 2.2549568307,
				"element": "C" 
			},
			{
				"x": -0.5690606808,
				"y": 5.4421853663,
				"z": 3.3397010383,
				"element": "Cl" 
			},
			{
				"x": 0.123542783,
				"y": 4.2399239396,
				"z": 0.9892558925,
				"element": "C" 
			},
			{
				"x": 0.2223046217,
				"y": 3.1407666099,
				"z": 0.1354283998,
				"element": "C" 
			},
			{
				"x": 1.1468205357,
				"y": -0.1646641405,
				"z": -0.0535956295,
				"element": "C" 
			},
			{
				"x": 2.3884555525,
				"y": 0.1209416657,
				"z": -0.631635172,
				"element": "C" 
			},
			{
				"x": 3.5311634679,
				"y": -0.6004232173,
				"z": -0.2863734889,
				"element": "C" 
			},
			{
				"x": 3.4236769833,
				"y": -1.6289538905,
				"z": 0.6482028301,
				"element": "C" 
			},
			{
				"x": 4.8550789833,
				"y": -2.5529451548,
				"z": 1.0879035575,
				"element": "Cl" 
			},
			{
				"x": 2.1971055047,
				"y": -1.9418309648,
				"z": 1.2328540986,
				"element": "C" 
			},
			{
				"x": 1.0666184612,
				"y": -1.2059611796,
				"z": 0.8786491388,
				"element": "C" 
			},
			{
				"x": -0.6445415563,
				"y": -1.8452541353,
				"z": -1.3844961658,
				"element": "H" 
			},
			{
				"x": -2.3935433139,
				"y": -1.5876201342,
				"z": -1.4007130913,
				"element": "H" 
			},
			{
				"x": -1.3405194347,
				"y": -0.625574065,
				"z": -2.4689553399,
				"element": "H" 
			},
			{
				"x": -2.1018501168,
				"y": 0.5000733975,
				"z": -0.3731711561,
				"element": "H" 
			},
			{
				"x": 0.1003726099,
				"y": 1.08552472,
				"z": -1.4249016601,
				"element": "H" 
			},
			{
				"x": -1.1293382239,
				"y": 0.7505308064,
				"z": 2.1248951995,
				"element": "H" 
			},
			{
				"x": -1.3186435182,
				"y": 2.6945436115,
				"z": 3.6596935328,
				"element": "H" 
			},
			{
				"x": 0.4659011553,
				"y": 5.21976751,
				"z": 0.6751989159,
				"element": "H" 
			},
			{
				"x": 0.6473554494,
				"y": 3.2789390744,
				"z": -0.8554473292,
				"element": "H" 
			},
			{
				"x": 2.470284636,
				"y": 0.9190826795,
				"z": -1.3654944667,
				"element": "H" 
			},
			{
				"x": 4.4900038928,
				"y": -0.3737406004,
				"z": -0.7394055825,
				"element": "H" 
			},
			{
				"x": 2.1292895434,
				"y": -2.7505445193,
				"z": 1.9524377821,
				"element": "H" 
			},
			{
				"x": 0.102818884,
				"y": -1.4482140755,
				"z": 1.3143886516,
				"element": "H" 
			}
		],
		 "valence_orbital": [ 
			{
				"type": "occ",
				"energy": -0.26661,
				"method": "rhf"
			},
			{
				"type": "occ",
				"energy": -0.26142,
				"method": "rhf"
			},
			{
				"type": "occ",
				"energy": -0.25139,
				"method": "rhf"
			},
			{
				"type": "occ",
				"energy": -0.23823,
				"method": "rhf"
			},
			{
				"type": "occ",
				"energy": -0.2351,
				"method": "rhf"
			},
			{
				"type": "unocc",
				"energy": -0.02625,
				"method": "rhf"
			},
			{
				"type": "unocc",
				"energy": -0.02183,
				"method": "rhf"
			},
			{
				"type": "unocc",
				"energy": -0.00891,
				"method": "rhf"
			},
			{
				"type": "unocc",
				"energy": -0.00141,
				"method": "rhf"
			},
			{
				"type": "unocc",
				"energy": 0.02831,
				"method": "rhf"
			}
		],
		"cosmo_sigma_profile": { 
			"-0.025": 0.0,
			"-0.024": 0.0,
			"-0.023": 0.0,
			"-0.022": 0.0,
			"-0.021": 0.0,
			"-0.02": 0.0,
			"-0.019": 0.0,
			"-0.018": 0.0,
			"-0.017": 0.0,
			"-0.016": 0.0,
			"-0.015": 0.0,
			"-0.014": 0.0,
			"-0.013": 0.0,
			"-0.012": 0.0,
			"-0.011": 0.0682610119165,
			"-0.01": 0.842995233586,
			"-0.009": 1.02687171177,
			"-0.008": 1.25710519822,
			"-0.007": 7.05102163112,
			"-0.006": 16.2857984018,
			"-0.005": 16.5950111617,
			"-0.004": 19.89670866,
			"-0.003": 19.6562336673,
			"-0.002": 23.4476151389,
			"-0.001": 23.4675644791,
			"0.0": 24.9589988345,
			"0.001": 24.0013928697,
			"0.002": 29.1739143737,
			"0.003": 30.3390742988,
			"0.004": 38.4254562833,
			"0.005": 19.8581412875,
			"0.006": 1.51826220987,
			"0.007": 0.610084569828,
			"0.008": 0.778643317623,
			"0.009": 0.244728226939,
			"0.01": 0.760899298012,
			"0.011": 0.370445561576,
			"0.012": 0.281346411346,
			"0.013": 0.117856208867,
			"0.014": 0.0,
			"0.015": 0.0,
			"0.016": 0.0,
			"0.017": 0.0,
			"0.018": 0.0,
			"0.019": 0.0,
			"0.02": 0.0,
			"0.021": 0.0,
			"0.022": 0.0,
			"0.023": 0.0,
			"0.024": 0.0,
			"0.025": 0.0
		}
	}
}
