{
	 "smiles": "[O-][N+](=O)C1=C(Cl)SC(=C1)S(Cl)(=O)=O", 
	 "Tm": 326.15, 
	 "num_atms": 14, 
	 "gaussian": { 
		 "optdone": 1, 
		 "sigma_profile": "yes", 
		 "theory": "DFT", 
		 "functional": "B3LYP", 
		 "basiset": "6-31G**", 
		 "properties": { 
			 "R2extent": 5271.1016, 
			 "electric_dipole_moment_norm": 2.67871097732, 
			 "electric_quadrupole_moment_norm": 12.1416398967, 
			 "total_energy": -2225.21559385, 
			 "HOMO_LUMO_gap": 0.1755, 
			 "cosmo_polarized_energy": -10.92, 
			 "cosmo_cavitation_energy": 27.22, 
			 "cosmo_dispersion_energy": -20.88, 
			 "cosmo_repulsion_energy": 1.58, 
			 "cosmo_total_nonelectrostatic_energy": 7.91, 
			 "SMD_solvation_energy": 5.09 
		},
		"coords": [
			{
				"x": 1.9601956429,
				"y": -2.0214225237,
				"z": 1.0780399523,
				"element": "O" 
			},
			{
				"x": 1.1549998019,
				"y": -2.3153520975,
				"z": 0.2001987923,
				"element": "N" 
			},
			{
				"x": 1.1091226065,
				"y": -3.3863830601,
				"z": -0.4037657314,
				"element": "O" 
			},
			{
				"x": 0.1542388783,
				"y": -1.3248239735,
				"z": -0.175181919,
				"element": "C" 
			},
			{
				"x": 0.028906895,
				"y": -0.0533605076,
				"z": 0.3583586231,
				"element": "C" 
			},
			{
				"x": 0.9588904477,
				"y": 0.7320260049,
				"z": 1.5564679206,
				"element": "Cl" 
			},
			{
				"x": -1.2818610269,
				"y": 0.8174145795,
				"z": -0.3747934092,
				"element": "S" 
			},
			{
				"x": -1.6464961141,
				"y": -0.5579226948,
				"z": -1.3830458891,
				"element": "C" 
			},
			{
				"x": -0.8112898239,
				"y": -1.6171835194,
				"z": -1.1760404806,
				"element": "C" 
			},
			{
				"x": -2.9746951322,
				"y": -0.5183855826,
				"z": -2.5449002295,
				"element": "S" 
			},
			{
				"x": -4.6025291557,
				"y": -1.1778085203,
				"z": -1.3633694126,
				"element": "Cl" 
			},
			{
				"x": -2.7419170487,
				"y": -1.5504966835,
				"z": -3.5421911712,
				"element": "O" 
			},
			{
				"x": -3.2426835051,
				"y": 0.8744575077,
				"z": -2.8732506125,
				"element": "O" 
			},
			{
				"x": -0.8609824657,
				"y": -2.5626589291,
				"z": -1.6990264332,
				"element": "H" 
			}
		],
		 "valence_orbital": [ 
			{
				"type": "occ",
				"energy": -0.33538,
				"method": "rhf"
			},
			{
				"type": "occ",
				"energy": -0.33163,
				"method": "rhf"
			},
			{
				"type": "occ",
				"energy": -0.32593,
				"method": "rhf"
			},
			{
				"type": "occ",
				"energy": -0.31703,
				"method": "rhf"
			},
			{
				"type": "occ",
				"energy": -0.29864,
				"method": "rhf"
			},
			{
				"type": "unocc",
				"energy": -0.12314,
				"method": "rhf"
			},
			{
				"type": "unocc",
				"energy": -0.11127,
				"method": "rhf"
			},
			{
				"type": "unocc",
				"energy": -0.07369,
				"method": "rhf"
			},
			{
				"type": "unocc",
				"energy": -0.04534,
				"method": "rhf"
			},
			{
				"type": "unocc",
				"energy": -0.0265,
				"method": "rhf"
			}
		],
		"cosmo_sigma_profile": { 
			"-0.025": 0.0,
			"-0.024": 0.0,
			"-0.023": 0.0,
			"-0.022": 0.0,
			"-0.021": 0.0,
			"-0.02": 0.0,
			"-0.019": 0.0,
			"-0.018": 0.0,
			"-0.017": 0.0,
			"-0.016": 0.0,
			"-0.015": 0.0,
			"-0.014": 0.0,
			"-0.013": 0.0,
			"-0.012": 0.0,
			"-0.011": 0.153574667227,
			"-0.01": 0.875725698542,
			"-0.009": 2.20170350285,
			"-0.008": 4.13190574382,
			"-0.007": 5.84777369332,
			"-0.006": 13.0117230012,
			"-0.005": 19.8042615569,
			"-0.004": 17.1565898531,
			"-0.003": 18.5245239253,
			"-0.002": 15.9870927789,
			"-0.001": 15.0072615601,
			"0.0": 15.4348448063,
			"0.001": 14.1511631043,
			"0.002": 15.98789615,
			"0.003": 12.4231220892,
			"0.004": 6.11874414909,
			"0.005": 6.85994815623,
			"0.006": 12.9748542441,
			"0.007": 17.9473760079,
			"0.008": 9.90285575672,
			"0.009": 2.76826040741,
			"0.01": 0.0790154655416,
			"0.011": 0.0,
			"0.012": 0.0,
			"0.013": 0.0,
			"0.014": 0.0,
			"0.015": 0.0,
			"0.016": 0.0,
			"0.017": 0.0,
			"0.018": 0.0,
			"0.019": 0.0,
			"0.02": 0.0,
			"0.021": 0.0,
			"0.022": 0.0,
			"0.023": 0.0,
			"0.024": 0.0,
			"0.025": 0.0
		}
	}
}
