{
	 "smiles": "CCC1=CC=C(O1)C(=O)N1CCC(CC1)C(O)=O", 
	 "Tm": 386.15, 
	 "num_atms": 35, 
	 "gaussian": { 
		 "optdone": 1, 
		 "sigma_profile": "yes", 
		 "theory": "DFT", 
		 "functional": "B3LYP", 
		 "basiset": "6-31G**", 
		 "properties": { 
			 "R2extent": 6672.2754, 
			 "electric_dipole_moment_norm": 4.80845066731, 
			 "electric_quadrupole_moment_norm": 20.3886528172, 
			 "total_energy": -861.287623438, 
			 "HOMO_LUMO_gap": 0.19473, 
			 "cosmo_polarized_energy": -20.91, 
			 "cosmo_cavitation_energy": 37.72, 
			 "cosmo_dispersion_energy": -26.17, 
			 "cosmo_repulsion_energy": 2.05, 
			 "cosmo_total_nonelectrostatic_energy": 13.6, 
			 "SMD_solvation_energy": 7.55 
		},
		"coords": [
			{
				"x": -1.0661485898,
				"y": 2.1076912792,
				"z": -4.3729052849,
				"element": "C" 
			},
			{
				"x": -1.8353069431,
				"y": 0.7915287597,
				"z": -4.5880757201,
				"element": "C" 
			},
			{
				"x": -1.0406399631,
				"y": -0.430961982,
				"z": -4.2700424863,
				"element": "C" 
			},
			{
				"x": -0.5631753587,
				"y": -1.4671535251,
				"z": -5.0246696316,
				"element": "C" 
			},
			{
				"x": 0.1294585788,
				"y": -2.3400770054,
				"z": -4.1361094256,
				"element": "C" 
			},
			{
				"x": 0.0459815826,
				"y": -1.7822407262,
				"z": -2.8896349332,
				"element": "C" 
			},
			{
				"x": -0.6755950896,
				"y": -0.6102682031,
				"z": -2.963684152,
				"element": "O" 
			},
			{
				"x": 0.5532727655,
				"y": -2.3582072453,
				"z": -1.6233924992,
				"element": "C" 
			},
			{
				"x": 0.8969864564,
				"y": -3.5417732352,
				"z": -1.6397534851,
				"element": "O" 
			},
			{
				"x": 0.6000271519,
				"y": -1.606889254,
				"z": -0.466347848,
				"element": "N" 
			},
			{
				"x": 1.0038741361,
				"y": -2.2804144456,
				"z": 0.7686323265,
				"element": "C" 
			},
			{
				"x": 0.0535492737,
				"y": -1.9080469905,
				"z": 1.9135920807,
				"element": "C" 
			},
			{
				"x": -0.0294923528,
				"y": -0.376058758,
				"z": 2.0911875206,
				"element": "C" 
			},
			{
				"x": -0.3867681382,
				"y": 0.2971854485,
				"z": 0.7470084391,
				"element": "C" 
			},
			{
				"x": 0.5807091073,
				"y": -0.1480965578,
				"z": -0.3576855429,
				"element": "C" 
			},
			{
				"x": -0.9771512916,
				"y": 0.0471143015,
				"z": 3.2111618994,
				"element": "C" 
			},
			{
				"x": -2.2731632717,
				"y": -0.354955989,
				"z": 3.0874116273,
				"element": "O" 
			},
			{
				"x": -0.6436645419,
				"y": 0.709213623,
				"z": 4.1618578733,
				"element": "O" 
			},
			{
				"x": -0.7519185967,
				"y": 2.2130640057,
				"z": -3.3303635483,
				"element": "H" 
			},
			{
				"x": -0.1710882234,
				"y": 2.1459922318,
				"z": -5.0010451376,
				"element": "H" 
			},
			{
				"x": -1.6970149447,
				"y": 2.9660045522,
				"z": -4.6230347093,
				"element": "H" 
			},
			{
				"x": -2.7474215784,
				"y": 0.7990368855,
				"z": -3.976872477,
				"element": "H" 
			},
			{
				"x": -2.1588596279,
				"y": 0.7132463017,
				"z": -5.6310654379,
				"element": "H" 
			},
			{
				"x": -0.7002410192,
				"y": -1.59024126,
				"z": -6.0895493768,
				"element": "H" 
			},
			{
				"x": 0.6250100251,
				"y": -3.2716795459,
				"z": -4.3627642446,
				"element": "H" 
			},
			{
				"x": 1.0044925825,
				"y": -3.3529116737,
				"z": 0.5779393063,
				"element": "H" 
			},
			{
				"x": 2.0325435149,
				"y": -1.9864799467,
				"z": 1.0289412808,
				"element": "H" 
			},
			{
				"x": -0.9369520139,
				"y": -2.3260471615,
				"z": 1.6870001852,
				"element": "H" 
			},
			{
				"x": 0.3944763394,
				"y": -2.3780722037,
				"z": 2.8426148977,
				"element": "H" 
			},
			{
				"x": 0.953531245,
				"y": -0.0103628943,
				"z": 2.4071589282,
				"element": "H" 
			},
			{
				"x": -0.3499407428,
				"y": 1.3871527235,
				"z": 0.8519886754,
				"element": "H" 
			},
			{
				"x": -1.4082731821,
				"y": 0.0340700118,
				"z": 0.4423989235,
				"element": "H" 
			},
			{
				"x": 0.301615436,
				"y": 0.2963981655,
				"z": -1.3080423851,
				"element": "H" 
			},
			{
				"x": 1.5960633207,
				"y": 0.2000959347,
				"z": -0.1091649922,
				"element": "H" 
			},
			{
				"x": -2.3884760462,
				"y": -0.883755621,
				"z": 2.2851093535,
				"element": "H" 
			}
		],
		 "valence_orbital": [ 
			{
				"type": "occ",
				"energy": -0.28954,
				"method": "rhf"
			},
			{
				"type": "occ",
				"energy": -0.26923,
				"method": "rhf"
			},
			{
				"type": "occ",
				"energy": -0.2594,
				"method": "rhf"
			},
			{
				"type": "occ",
				"energy": -0.24341,
				"method": "rhf"
			},
			{
				"type": "occ",
				"energy": -0.23041,
				"method": "rhf"
			},
			{
				"type": "unocc",
				"energy": -0.03568,
				"method": "rhf"
			},
			{
				"type": "unocc",
				"energy": 0.00768,
				"method": "rhf"
			},
			{
				"type": "unocc",
				"energy": 0.03901,
				"method": "rhf"
			},
			{
				"type": "unocc",
				"energy": 0.0424,
				"method": "rhf"
			},
			{
				"type": "unocc",
				"energy": 0.07592,
				"method": "rhf"
			}
		],
		"cosmo_sigma_profile": { 
			"-0.025": 0.0,
			"-0.024": 0.0,
			"-0.023": 0.0,
			"-0.022": 0.0,
			"-0.021": 0.0,
			"-0.02": 0.0,
			"-0.019": 0.0,
			"-0.018": 0.375100217056,
			"-0.017": 1.00807556414,
			"-0.016": 1.34138853818,
			"-0.015": 0.813694120264,
			"-0.014": 0.953306789369,
			"-0.013": 0.696554614203,
			"-0.012": 0.95538459586,
			"-0.011": 1.48987901852,
			"-0.01": 1.32194390474,
			"-0.009": 0.522031141943,
			"-0.008": 1.45004666962,
			"-0.007": 4.28440269248,
			"-0.006": 6.79486217689,
			"-0.005": 23.9871802524,
			"-0.004": 33.2712685876,
			"-0.003": 33.7344973104,
			"-0.002": 32.6503523824,
			"-0.001": 23.4947150637,
			"0.0": 20.9602049774,
			"0.001": 19.1721347304,
			"0.002": 12.0893939022,
			"0.003": 9.54314900438,
			"0.004": 10.2008272059,
			"0.005": 7.33714501462,
			"0.006": 3.80256678116,
			"0.007": 3.59571609346,
			"0.008": 4.75643111878,
			"0.009": 4.57772949254,
			"0.01": 5.9174428309,
			"0.011": 6.87864334111,
			"0.012": 8.20284880486,
			"0.013": 5.84703765269,
			"0.014": 4.36405625825,
			"0.015": 0.179559947679,
			"0.016": 0.0,
			"0.017": 0.0,
			"0.018": 0.0,
			"0.019": 0.0,
			"0.02": 0.0,
			"0.021": 0.0,
			"0.022": 0.0,
			"0.023": 0.0,
			"0.024": 0.0,
			"0.025": 0.0
		}
	}
}
