{
	 "smiles": "CC(C)OC(=O)OOC(=O)OC(C)C", 
	 "Tm": 283.15, 
	 "num_atms": 28, 
	 "gaussian": { 
		 "optdone": 1, 
		 "sigma_profile": "yes", 
		 "theory": "DFT", 
		 "functional": "B3LYP", 
		 "basiset": "6-31G**", 
		 "properties": { 
			 "R2extent": 4629.664, 
			 "electric_dipole_moment_norm": 1.45818888008, 
			 "electric_quadrupole_moment_norm": 18.6859247473, 
			 "total_energy": -764.581827617, 
			 "HOMO_LUMO_gap": 0.28417, 
			 "cosmo_polarized_energy": -10.02, 
			 "cosmo_cavitation_energy": 32.48, 
			 "cosmo_dispersion_energy": -22.71, 
			 "cosmo_repulsion_energy": 1.86, 
			 "cosmo_total_nonelectrostatic_energy": 11.63, 
			 "SMD_solvation_energy": 8.15 
		},
		"coords": [
			{
				"x": 0.1971280617,
				"y": 3.1527529417,
				"z": -3.714314241,
				"element": "C" 
			},
			{
				"x": 0.2744996449,
				"y": 3.8618462547,
				"z": -2.3667065531,
				"element": "C" 
			},
			{
				"x": 1.678841261,
				"y": 3.9623222519,
				"z": -1.7818352366,
				"element": "C" 
			},
			{
				"x": -0.6610605831,
				"y": 3.2652001267,
				"z": -1.3995596072,
				"element": "O" 
			},
			{
				"x": -0.4655379364,
				"y": 2.0146640527,
				"z": -1.0033247284,
				"element": "C" 
			},
			{
				"x": 0.3686587562,
				"y": 1.2141078364,
				"z": -1.3317822181,
				"element": "O" 
			},
			{
				"x": -1.4775537001,
				"y": 1.7910044368,
				"z": -0.0798575726,
				"element": "O" 
			},
			{
				"x": -1.4257111218,
				"y": 0.4328414025,
				"z": 0.3611283036,
				"element": "O" 
			},
			{
				"x": -0.5150621336,
				"y": 0.3201604102,
				"z": 1.3982496583,
				"element": "C" 
			},
			{
				"x": 0.178729705,
				"y": 1.201304513,
				"z": 1.8293894486,
				"element": "O" 
			},
			{
				"x": -0.604306849,
				"y": -0.9476061798,
				"z": 1.7852261504,
				"element": "O" 
			},
			{
				"x": 0.3120655221,
				"y": -1.3611637903,
				"z": 2.8548904676,
				"element": "C" 
			},
			{
				"x": 1.6708795519,
				"y": -1.6874020994,
				"z": 2.2487928107,
				"element": "C" 
			},
			{
				"x": -0.3624492458,
				"y": -2.5425590864,
				"z": 3.5337590926,
				"element": "C" 
			},
			{
				"x": -0.8394983026,
				"y": 3.0931897377,
				"z": -4.0583650052,
				"element": "H" 
			},
			{
				"x": 0.6114358388,
				"y": 2.1448411866,
				"z": -3.6556481637,
				"element": "H" 
			},
			{
				"x": 0.767810636,
				"y": 3.7239107028,
				"z": -4.4536638614,
				"element": "H" 
			},
			{
				"x": -0.1486731017,
				"y": 4.865573237,
				"z": -2.4627728989,
				"element": "H" 
			},
			{
				"x": 2.302415164,
				"y": 4.5665519674,
				"z": -2.4486254043,
				"element": "H" 
			},
			{
				"x": 1.6531915149,
				"y": 4.4506494536,
				"z": -0.8036249059,
				"element": "H" 
			},
			{
				"x": 2.1349225918,
				"y": 2.9767437331,
				"z": -1.6744078569,
				"element": "H" 
			},
			{
				"x": 0.4017110565,
				"y": -0.5154525348,
				"z": 3.5425638247,
				"element": "H" 
			},
			{
				"x": 1.5822341244,
				"y": -2.4967949913,
				"z": 1.5175882787,
				"element": "H" 
			},
			{
				"x": 2.361781682,
				"y": -2.0056379934,
				"z": 3.0360672183,
				"element": "H" 
			},
			{
				"x": 2.0950772521,
				"y": -0.8091462383,
				"z": 1.7565291521,
				"element": "H" 
			},
			{
				"x": -1.3437457834,
				"y": -2.2601675748,
				"z": 3.9241593536,
				"element": "H" 
			},
			{
				"x": 0.2547086058,
				"y": -2.8916630208,
				"z": 4.3671126521,
				"element": "H" 
			},
			{
				"x": -0.4936922117,
				"y": -3.3707707358,
				"z": 2.830731842,
				"element": "H" 
			}
		],
		 "valence_orbital": [ 
			{
				"type": "occ",
				"energy": -0.32352,
				"method": "rhf"
			},
			{
				"type": "occ",
				"energy": -0.31231,
				"method": "rhf"
			},
			{
				"type": "occ",
				"energy": -0.30917,
				"method": "rhf"
			},
			{
				"type": "occ",
				"energy": -0.29929,
				"method": "rhf"
			},
			{
				"type": "occ",
				"energy": -0.29165,
				"method": "rhf"
			},
			{
				"type": "unocc",
				"energy": -0.00748,
				"method": "rhf"
			},
			{
				"type": "unocc",
				"energy": 0.0309,
				"method": "rhf"
			},
			{
				"type": "unocc",
				"energy": 0.03398,
				"method": "rhf"
			},
			{
				"type": "unocc",
				"energy": 0.08667,
				"method": "rhf"
			},
			{
				"type": "unocc",
				"energy": 0.09027,
				"method": "rhf"
			}
		],
		"cosmo_sigma_profile": { 
			"-0.025": 0.0,
			"-0.024": 0.0,
			"-0.023": 0.0,
			"-0.022": 0.0,
			"-0.021": 0.0,
			"-0.02": 0.0,
			"-0.019": 0.0,
			"-0.018": 0.0,
			"-0.017": 0.0,
			"-0.016": 0.0,
			"-0.015": 0.0,
			"-0.014": 0.0,
			"-0.013": 0.0,
			"-0.012": 0.0,
			"-0.011": 0.0,
			"-0.01": 0.0,
			"-0.009": 0.0,
			"-0.008": 0.0,
			"-0.007": 0.765131700511,
			"-0.006": 4.38857860967,
			"-0.005": 21.9044523401,
			"-0.004": 28.3952410796,
			"-0.003": 29.5948579421,
			"-0.002": 26.1297130154,
			"-0.001": 33.9790326134,
			"0.0": 25.4127032321,
			"0.001": 10.0255660652,
			"0.002": 7.83134126128,
			"0.003": 9.00164414978,
			"0.004": 9.94714631292,
			"0.005": 13.2290668736,
			"0.006": 10.1341445068,
			"0.007": 6.80477994289,
			"0.008": 4.54665899927,
			"0.009": 4.06051835903,
			"0.01": 7.38258663367,
			"0.011": 1.1934472767,
			"0.012": 0.0,
			"0.013": 0.0,
			"0.014": 0.0,
			"0.015": 0.0,
			"0.016": 0.0,
			"0.017": 0.0,
			"0.018": 0.0,
			"0.019": 0.0,
			"0.02": 0.0,
			"0.021": 0.0,
			"0.022": 0.0,
			"0.023": 0.0,
			"0.024": 0.0,
			"0.025": 0.0
		}
	}
}
