{
	 "smiles": "CC(C)(C)C1=NN(C(N)=C1CN1N=NC2=C1C=CC=C2)C1=CC=CC=C1", 
	 "Tm": 397.0, 
	 "num_atms": 48, 
	 "gaussian": { 
		 "optdone": 1, 
		 "sigma_profile": "yes", 
		 "theory": "DFT", 
		 "functional": "B3LYP", 
		 "basiset": "6-31G**", 
		 "properties": { 
			 "R2extent": 10420.0134, 
			 "electric_dipole_moment_norm": 1.30885174485, 
			 "electric_quadrupole_moment_norm": 20.8221280894, 
			 "total_energy": -1103.86382246, 
			 "HOMO_LUMO_gap": 0.1579, 
			 "cosmo_polarized_energy": -16.44, 
			 "cosmo_cavitation_energy": 49.24, 
			 "cosmo_dispersion_energy": -33.69, 
			 "cosmo_repulsion_energy": 2.51, 
			 "cosmo_total_nonelectrostatic_energy": 18.07, 
			 "SMD_solvation_energy": 5.68 
		},
		"coords": [
			{
				"x": 0.8636513404,
				"y": 2.7035124368,
				"z": -2.3399344933,
				"element": "C" 
			},
			{
				"x": -0.3315820317,
				"y": 2.7454819686,
				"z": -1.3601066118,
				"element": "C" 
			},
			{
				"x": -1.6526711774,
				"y": 2.8779177581,
				"z": -2.1548238745,
				"element": "C" 
			},
			{
				"x": -0.175783664,
				"y": 3.9924349687,
				"z": -0.4663531713,
				"element": "C" 
			},
			{
				"x": -0.3696969982,
				"y": 1.4855134509,
				"z": -0.4989609439,
				"element": "C" 
			},
			{
				"x": -0.3047471869,
				"y": 1.6095428487,
				"z": 0.8193882156,
				"element": "N" 
			},
			{
				"x": -0.387411452,
				"y": 0.3338409367,
				"z": 1.3216498227,
				"element": "N" 
			},
			{
				"x": -0.5478696465,
				"y": -0.5884623389,
				"z": 0.3219677907,
				"element": "C" 
			},
			{
				"x": -0.670616647,
				"y": -1.9446794658,
				"z": 0.5619904141,
				"element": "N" 
			},
			{
				"x": -0.5146308226,
				"y": 0.1129096256,
				"z": -0.8819868323,
				"element": "C" 
			},
			{
				"x": -0.7189262316,
				"y": -0.5080582166,
				"z": -2.2363521843,
				"element": "C" 
			},
			{
				"x": 0.111603974,
				"y": -1.6915814581,
				"z": -2.4942685119,
				"element": "N" 
			},
			{
				"x": -0.4375648678,
				"y": -2.9316478439,
				"z": -2.3298076811,
				"element": "N" 
			},
			{
				"x": 0.4503181242,
				"y": -3.8407089185,
				"z": -2.5762311491,
				"element": "N" 
			},
			{
				"x": 1.6257901362,
				"y": -3.2092558851,
				"z": -2.914871491,
				"element": "C" 
			},
			{
				"x": 1.4238667866,
				"y": -1.8130902884,
				"z": -2.8545176639,
				"element": "C" 
			},
			{
				"x": 2.4516983111,
				"y": -0.899720228,
				"z": -3.141147095,
				"element": "C" 
			},
			{
				"x": 3.6770029822,
				"y": -1.4433402222,
				"z": -3.494504987,
				"element": "C" 
			},
			{
				"x": 3.8894384397,
				"y": -2.8434309622,
				"z": -3.5642420257,
				"element": "C" 
			},
			{
				"x": 2.8755730973,
				"y": -3.7410083083,
				"z": -3.2767759507,
				"element": "C" 
			},
			{
				"x": -0.3622048727,
				"y": 0.1409248117,
				"z": 2.7278117245,
				"element": "C" 
			},
			{
				"x": 0.237544879,
				"y": -0.9933608337,
				"z": 3.2915274462,
				"element": "C" 
			},
			{
				"x": 0.2439672416,
				"y": -1.1507929857,
				"z": 4.6786517357,
				"element": "C" 
			},
			{
				"x": -0.3219826609,
				"y": -0.1810567095,
				"z": 5.506255688,
				"element": "C" 
			},
			{
				"x": -0.8970855168,
				"y": 0.9583249118,
				"z": 4.9368001674,
				"element": "C" 
			},
			{
				"x": -0.9249169769,
				"y": 1.1224778277,
				"z": 3.5543251114,
				"element": "C" 
			},
			{
				"x": 0.9206595432,
				"y": 3.6403724542,
				"z": -2.9052079015,
				"element": "H" 
			},
			{
				"x": 0.7777240446,
				"y": 1.8928895825,
				"z": -3.0699756771,
				"element": "H" 
			},
			{
				"x": 1.8070243762,
				"y": 2.5772073408,
				"z": -1.7989790303,
				"element": "H" 
			},
			{
				"x": -2.5099973508,
				"y": 2.9265894807,
				"z": -1.4761023318,
				"element": "H" 
			},
			{
				"x": -1.8157124775,
				"y": 2.0390624719,
				"z": -2.8386278713,
				"element": "H" 
			},
			{
				"x": -1.6431987495,
				"y": 3.7947242665,
				"z": -2.7550969356,
				"element": "H" 
			},
			{
				"x": -1.0044260254,
				"y": 4.0802815197,
				"z": 0.2402954942,
				"element": "H" 
			},
			{
				"x": -0.1547052789,
				"y": 4.8914666571,
				"z": -1.0919829447,
				"element": "H" 
			},
			{
				"x": 0.7478877825,
				"y": 3.9510844569,
				"z": 0.1161718985,
				"element": "H" 
			},
			{
				"x": -1.1803032703,
				"y": -2.1912766634,
				"z": 1.4005369868,
				"element": "H" 
			},
			{
				"x": -0.9405545789,
				"y": -2.4939514714,
				"z": -0.2471642906,
				"element": "H" 
			},
			{
				"x": -1.7456231611,
				"y": -0.8669366742,
				"z": -2.3730147939,
				"element": "H" 
			},
			{
				"x": -0.5242539411,
				"y": 0.2121490827,
				"z": -3.0323606998,
				"element": "H" 
			},
			{
				"x": 2.3046575991,
				"y": 0.1719040857,
				"z": -3.0770954578,
				"element": "H" 
			},
			{
				"x": 4.5034865736,
				"y": -0.776408999,
				"z": -3.721765907,
				"element": "H" 
			},
			{
				"x": 4.8710290168,
				"y": -3.2114874892,
				"z": -3.8463813906,
				"element": "H" 
			},
			{
				"x": 3.0244079254,
				"y": -4.8145087455,
				"z": -3.3230200428,
				"element": "H" 
			},
			{
				"x": 0.7112809725,
				"y": -1.7301481928,
				"z": 2.6531291748,
				"element": "H" 
			},
			{
				"x": 0.7106982055,
				"y": -2.0315847847,
				"z": 5.1100964845,
				"element": "H" 
			},
			{
				"x": -0.3094685087,
				"y": -0.3070625309,
				"z": 6.5846536514,
				"element": "H" 
			},
			{
				"x": -1.3336015713,
				"y": 1.723198076,
				"z": 5.572621102,
				"element": "H" 
			},
			{
				"x": -1.3618756853,
				"y": 2.002049196,
				"z": 3.0974870329,
				"element": "H" 
			}
		],
		 "valence_orbital": [ 
			{
				"type": "occ",
				"energy": -0.25557,
				"method": "rhf"
			},
			{
				"type": "occ",
				"energy": -0.25251,
				"method": "rhf"
			},
			{
				"type": "occ",
				"energy": -0.23688,
				"method": "rhf"
			},
			{
				"type": "occ",
				"energy": -0.22034,
				"method": "rhf"
			},
			{
				"type": "occ",
				"energy": -0.2036,
				"method": "rhf"
			},
			{
				"type": "unocc",
				"energy": -0.0457,
				"method": "rhf"
			},
			{
				"type": "unocc",
				"energy": -0.01553,
				"method": "rhf"
			},
			{
				"type": "unocc",
				"energy": -0.00725,
				"method": "rhf"
			},
			{
				"type": "unocc",
				"energy": 0.00904,
				"method": "rhf"
			},
			{
				"type": "unocc",
				"energy": 0.03193,
				"method": "rhf"
			}
		],
		"cosmo_sigma_profile": { 
			"-0.025": 0.0,
			"-0.024": 0.0,
			"-0.023": 0.0,
			"-0.022": 0.0,
			"-0.021": 0.0,
			"-0.02": 0.0,
			"-0.019": 0.0,
			"-0.018": 0.0,
			"-0.017": 0.0,
			"-0.016": 0.0,
			"-0.015": 0.0,
			"-0.014": 0.0,
			"-0.013": 0.514448336495,
			"-0.012": 0.89212411556,
			"-0.011": 1.14474567288,
			"-0.01": 1.26796536824,
			"-0.009": 2.69479362878,
			"-0.008": 4.75033038724,
			"-0.007": 7.47939733072,
			"-0.006": 18.9042264832,
			"-0.005": 25.1220047249,
			"-0.004": 27.7940249521,
			"-0.003": 27.6574805066,
			"-0.002": 32.9250015674,
			"-0.001": 33.3680652501,
			"0.0": 32.2170739969,
			"0.001": 40.040376422,
			"0.002": 31.2611127832,
			"0.003": 25.5595976218,
			"0.004": 26.6558564169,
			"0.005": 16.6144889976,
			"0.006": 5.15205775829,
			"0.007": 5.84796739111,
			"0.008": 4.67071191465,
			"0.009": 3.76910435098,
			"0.01": 5.08334227008,
			"0.011": 3.79471895944,
			"0.012": 1.6066553772,
			"0.013": 2.38211294392,
			"0.014": 1.28725491823,
			"0.015": 1.05049897525,
			"0.016": 0.117141250233,
			"0.017": 0.0,
			"0.018": 0.0,
			"0.019": 0.0,
			"0.02": 0.0,
			"0.021": 0.0,
			"0.022": 0.0,
			"0.023": 0.0,
			"0.024": 0.0,
			"0.025": 0.0
		}
	}
}
