{
	 "smiles": "COC(=O)C1=C(C)NC(C(O)=O)=C1C", 
	 "Tm": 480.15, 
	 "num_atms": 25, 
	 "gaussian": { 
		 "optdone": 1, 
		 "sigma_profile": "yes", 
		 "theory": "DFT", 
		 "functional": "B3LYP", 
		 "basiset": "6-31G**", 
		 "properties": { 
			 "R2extent": 3503.7368, 
			 "electric_dipole_moment_norm": 0.768960499636, 
			 "electric_quadrupole_moment_norm": 5.04763586939, 
			 "total_energy": -705.279637819, 
			 "HOMO_LUMO_gap": 0.19553, 
			 "cosmo_polarized_energy": -13.59, 
			 "cosmo_cavitation_energy": 29.34, 
			 "cosmo_dispersion_energy": -21.2, 
			 "cosmo_repulsion_energy": 1.68, 
			 "cosmo_total_nonelectrostatic_energy": 9.82, 
			 "SMD_solvation_energy": 7.73 
		},
		"coords": [
			{
				"x": 2.6485703462,
				"y": 0.5975771694,
				"z": 1.9156763113,
				"element": "C" 
			},
			{
				"x": 1.6269191037,
				"y": 0.2247575386,
				"z": 0.9802230762,
				"element": "O" 
			},
			{
				"x": 0.5623203938,
				"y": 1.0659542429,
				"z": 0.9262960319,
				"element": "C" 
			},
			{
				"x": 0.4833920171,
				"y": 2.0651532632,
				"z": 1.6235620022,
				"element": "O" 
			},
			{
				"x": -0.451333984,
				"y": 0.6421822889,
				"z": -0.0420872841,
				"element": "C" 
			},
			{
				"x": -1.6302691494,
				"y": 1.3807133974,
				"z": -0.2481545649,
				"element": "C" 
			},
			{
				"x": -2.1163710561,
				"y": 2.6438243372,
				"z": 0.3831695747,
				"element": "C" 
			},
			{
				"x": -2.339809903,
				"y": 0.7291592708,
				"z": -1.1910121913,
				"element": "N" 
			},
			{
				"x": -1.6733696197,
				"y": -0.4124878317,
				"z": -1.6156071076,
				"element": "C" 
			},
			{
				"x": -2.3488326153,
				"y": -1.1965233284,
				"z": -2.6369270409,
				"element": "C" 
			},
			{
				"x": -1.6839249713,
				"y": -2.3072583842,
				"z": -3.038475189,
				"element": "O" 
			},
			{
				"x": -3.4356444386,
				"y": -0.8863418812,
				"z": -3.1055851801,
				"element": "O" 
			},
			{
				"x": -0.4762442782,
				"y": -0.4981025097,
				"z": -0.9099222257,
				"element": "C" 
			},
			{
				"x": 0.5684506689,
				"y": -1.5666721553,
				"z": -1.0363815091,
				"element": "C" 
			},
			{
				"x": 2.2489765377,
				"y": 0.6350992006,
				"z": 2.9323878301,
				"element": "H" 
			},
			{
				"x": 3.4158887936,
				"y": -0.1727583414,
				"z": 1.8349565531,
				"element": "H" 
			},
			{
				"x": 3.0629062696,
				"y": 1.578174152,
				"z": 1.6674799867,
				"element": "H" 
			},
			{
				"x": -3.0886988699,
				"y": 2.933810599,
				"z": -0.0265075758,
				"element": "H" 
			},
			{
				"x": -1.404616822,
				"y": 3.4580488259,
				"z": 0.2225441403,
				"element": "H" 
			},
			{
				"x": -2.206250867,
				"y": 2.5277766438,
				"z": 1.4666001202,
				"element": "H" 
			},
			{
				"x": -3.2378781272,
				"y": 0.992241068,
				"z": -1.5732179242,
				"element": "H" 
			},
			{
				"x": -2.2512332067,
				"y": -2.7180770238,
				"z": -3.7116049883,
				"element": "H" 
			},
			{
				"x": 0.7310735908,
				"y": -2.0641195727,
				"z": -0.0753747961,
				"element": "H" 
			},
			{
				"x": 1.531390753,
				"y": -1.133794405,
				"z": -1.3241799297,
				"element": "H" 
			},
			{
				"x": 0.2780894341,
				"y": -2.3108365643,
				"z": -1.77675812,
				"element": "H" 
			}
		],
		 "valence_orbital": [ 
			{
				"type": "occ",
				"energy": -0.29435,
				"method": "rhf"
			},
			{
				"type": "occ",
				"energy": -0.28269,
				"method": "rhf"
			},
			{
				"type": "occ",
				"energy": -0.26489,
				"method": "rhf"
			},
			{
				"type": "occ",
				"energy": -0.25246,
				"method": "rhf"
			},
			{
				"type": "occ",
				"energy": -0.22522,
				"method": "rhf"
			},
			{
				"type": "unocc",
				"energy": -0.02969,
				"method": "rhf"
			},
			{
				"type": "unocc",
				"energy": -0.01246,
				"method": "rhf"
			},
			{
				"type": "unocc",
				"energy": 0.07703,
				"method": "rhf"
			},
			{
				"type": "unocc",
				"energy": 0.0888,
				"method": "rhf"
			},
			{
				"type": "unocc",
				"energy": 0.09769,
				"method": "rhf"
			}
		],
		"cosmo_sigma_profile": { 
			"-0.025": 0.0,
			"-0.024": 0.0,
			"-0.023": 0.0,
			"-0.022": 0.0,
			"-0.021": 0.0,
			"-0.02": 0.0,
			"-0.019": 0.0,
			"-0.018": 0.561736460397,
			"-0.017": 1.13311619612,
			"-0.016": 0.780488713977,
			"-0.015": 1.46234616308,
			"-0.014": 1.12097175682,
			"-0.013": 1.87801477225,
			"-0.012": 2.14781134574,
			"-0.011": 1.47881146069,
			"-0.01": 1.83736592348,
			"-0.009": 1.37273087753,
			"-0.008": 2.0817426878,
			"-0.007": 2.8817754149,
			"-0.006": 5.04711610347,
			"-0.005": 11.8571819182,
			"-0.004": 14.0467868894,
			"-0.003": 18.8384226252,
			"-0.002": 19.5029608609,
			"-0.001": 23.3589752664,
			"0.0": 21.1043947625,
			"0.001": 21.3401352186,
			"0.002": 15.51371217,
			"0.003": 13.6482748339,
			"0.004": 9.41464146277,
			"0.005": 8.12653527345,
			"0.006": 3.67890582367,
			"0.007": 3.77730140476,
			"0.008": 2.81592454078,
			"0.009": 3.57988154724,
			"0.01": 2.62792383019,
			"0.011": 4.43208734213,
			"0.012": 7.47005916296,
			"0.013": 3.08512671987,
			"0.014": 0.0471528927342,
			"0.015": 0.0,
			"0.016": 0.0,
			"0.017": 0.0,
			"0.018": 0.0,
			"0.019": 0.0,
			"0.02": 0.0,
			"0.021": 0.0,
			"0.022": 0.0,
			"0.023": 0.0,
			"0.024": 0.0,
			"0.025": 0.0
		}
	}
}
