{
	 "smiles": "CC(C)(C)OC(=O)NCC1CCCCN1", 
	 "Tm": 367.15, 
	 "num_atms": 37, 
	 "gaussian": { 
		 "optdone": 1, 
		 "sigma_profile": "yes", 
		 "theory": "DFT", 
		 "functional": "B3LYP", 
		 "basiset": "6-31G**", 
		 "properties": { 
			 "R2extent": 4225.5636, 
			 "electric_dipole_moment_norm": 1.47666624868, 
			 "electric_quadrupole_moment_norm": 11.6828418354, 
			 "total_energy": -692.415929766, 
			 "HOMO_LUMO_gap": 0.25495, 
			 "cosmo_polarized_energy": -10.38, 
			 "cosmo_cavitation_energy": 36.1, 
			 "cosmo_dispersion_energy": -24.8, 
			 "cosmo_repulsion_energy": 1.95, 
			 "cosmo_total_nonelectrostatic_energy": 13.25, 
			 "SMD_solvation_energy": 3.89 
		},
		"coords": [
			{
				"x": 0.8220168993,
				"y": -0.3721839728,
				"z": 2.5334832856,
				"element": "C" 
			},
			{
				"x": -0.3074520101,
				"y": 0.6152819067,
				"z": 2.2219092616,
				"element": "C" 
			},
			{
				"x": 0.2394504007,
				"y": 2.0370694603,
				"z": 2.0694490929,
				"element": "C" 
			},
			{
				"x": -1.4215248679,
				"y": 0.5737251312,
				"z": 3.2733231084,
				"element": "C" 
			},
			{
				"x": -0.8655402978,
				"y": 0.3402641326,
				"z": 0.886148142,
				"element": "O" 
			},
			{
				"x": -1.4929167908,
				"y": -0.8384256111,
				"z": 0.6266942249,
				"element": "C" 
			},
			{
				"x": -1.5861882356,
				"y": -1.7827702077,
				"z": 1.3953958609,
				"element": "O" 
			},
			{
				"x": -2.0332458481,
				"y": -0.8462202098,
				"z": -0.6294540314,
				"element": "N" 
			},
			{
				"x": -1.9579932738,
				"y": 0.201004859,
				"z": -1.6392489771,
				"element": "C" 
			},
			{
				"x": -0.8203761483,
				"y": 0.0391556235,
				"z": -2.6729046186,
				"element": "C" 
			},
			{
				"x": -1.0131918317,
				"y": -1.1911372325,
				"z": -3.5792557991,
				"element": "C" 
			},
			{
				"x": 0.2688401913,
				"y": -1.4865079646,
				"z": -4.3689535126,
				"element": "C" 
			},
			{
				"x": 1.4490753417,
				"y": -1.8040738367,
				"z": -3.414093727,
				"element": "C" 
			},
			{
				"x": 1.1663889824,
				"y": -1.2858260027,
				"z": -1.9927826364,
				"element": "C" 
			},
			{
				"x": 0.5229554083,
				"y": 0.0281254285,
				"z": -2.0669246564,
				"element": "N" 
			},
			{
				"x": 1.3021463991,
				"y": -0.0945262515,
				"z": 3.4775724777,
				"element": "H" 
			},
			{
				"x": 0.4375900061,
				"y": -1.3886381396,
				"z": 2.6158062905,
				"element": "H" 
			},
			{
				"x": 1.5825640816,
				"y": -0.342233938,
				"z": 1.7463928897,
				"element": "H" 
			},
			{
				"x": -0.5599493513,
				"y": 2.7328371269,
				"z": 1.7982437875,
				"element": "H" 
			},
			{
				"x": 0.6831900204,
				"y": 2.3706245446,
				"z": 3.0121596299,
				"element": "H" 
			},
			{
				"x": 1.0106710417,
				"y": 2.0774709024,
				"z": 1.2941823102,
				"element": "H" 
			},
			{
				"x": -1.828786417,
				"y": -0.4326947792,
				"z": 3.370647093,
				"element": "H" 
			},
			{
				"x": -2.2290028428,
				"y": 1.2599450735,
				"z": 2.9985431897,
				"element": "H" 
			},
			{
				"x": -1.022511173,
				"y": 0.8901272238,
				"z": 4.2425008077,
				"element": "H" 
			},
			{
				"x": -2.4660254337,
				"y": -1.7273119253,
				"z": -0.8608246836,
				"element": "H" 
			},
			{
				"x": -2.9202092912,
				"y": 0.2426896673,
				"z": -2.1663694812,
				"element": "H" 
			},
			{
				"x": -1.8391372789,
				"y": 1.1524948729,
				"z": -1.1160425758,
				"element": "H" 
			},
			{
				"x": -0.8924565619,
				"y": 0.9303467796,
				"z": -3.3199047449,
				"element": "H" 
			},
			{
				"x": -1.2793136355,
				"y": -2.0694928365,
				"z": -2.9759738259,
				"element": "H" 
			},
			{
				"x": -1.8563496963,
				"y": -1.0087604782,
				"z": -4.2556160727,
				"element": "H" 
			},
			{
				"x": 0.1033876641,
				"y": -2.3124173515,
				"z": -5.0693595723,
				"element": "H" 
			},
			{
				"x": 0.5111002356,
				"y": -0.6068119786,
				"z": -4.9768760447,
				"element": "H" 
			},
			{
				"x": 2.3649068671,
				"y": -1.3432515476,
				"z": -3.7982885942,
				"element": "H" 
			},
			{
				"x": 1.6293733133,
				"y": -2.8846255553,
				"z": -3.3677256347,
				"element": "H" 
			},
			{
				"x": 2.106692786,
				"y": -1.1693827193,
				"z": -1.4428781264,
				"element": "H" 
			},
			{
				"x": 0.5747907415,
				"y": -2.0345200058,
				"z": -1.4376738462,
				"element": "H" 
			},
			{
				"x": 0.4936306055,
				"y": 0.4592498116,
				"z": -1.148900291,
				"element": "H" 
			}
		],
		 "valence_orbital": [ 
			{
				"type": "occ",
				"energy": -0.3049,
				"method": "rhf"
			},
			{
				"type": "occ",
				"energy": -0.2893,
				"method": "rhf"
			},
			{
				"type": "occ",
				"energy": -0.26004,
				"method": "rhf"
			},
			{
				"type": "occ",
				"energy": -0.25183,
				"method": "rhf"
			},
			{
				"type": "occ",
				"energy": -0.20273,
				"method": "rhf"
			},
			{
				"type": "unocc",
				"energy": 0.05222,
				"method": "rhf"
			},
			{
				"type": "unocc",
				"energy": 0.06757,
				"method": "rhf"
			},
			{
				"type": "unocc",
				"energy": 0.07984,
				"method": "rhf"
			},
			{
				"type": "unocc",
				"energy": 0.0934,
				"method": "rhf"
			},
			{
				"type": "unocc",
				"energy": 0.10618,
				"method": "rhf"
			}
		],
		"cosmo_sigma_profile": { 
			"-0.025": 0.0,
			"-0.024": 0.0,
			"-0.023": 0.0,
			"-0.022": 0.0,
			"-0.021": 0.0,
			"-0.02": 0.0,
			"-0.019": 0.0,
			"-0.018": 0.0,
			"-0.017": 0.0,
			"-0.016": 0.0,
			"-0.015": 0.0,
			"-0.014": 0.00464340760781,
			"-0.013": 0.556832215598,
			"-0.012": 1.03447364035,
			"-0.011": 1.28579988533,
			"-0.01": 0.721120083727,
			"-0.009": 0.925903610316,
			"-0.008": 1.32976786571,
			"-0.007": 1.09207660041,
			"-0.006": 2.01296473412,
			"-0.005": 3.21222155366,
			"-0.004": 18.0472763141,
			"-0.003": 31.5137400833,
			"-0.002": 39.2271741403,
			"-0.001": 43.8996182924,
			"0.0": 48.5998727808,
			"0.001": 33.2935222537,
			"0.002": 12.4346372085,
			"0.003": 5.75573232954,
			"0.004": 4.49290950836,
			"0.005": 3.67058498339,
			"0.006": 2.52862365966,
			"0.007": 2.38142547672,
			"0.008": 2.79187082187,
			"0.009": 1.75573585374,
			"0.01": 2.14864207347,
			"0.011": 1.35327650898,
			"0.012": 2.45016680075,
			"0.013": 3.72379959144,
			"0.014": 3.54038056361,
			"0.015": 0.637067543753,
			"0.016": 0.471459364061,
			"0.017": 0.524819023036,
			"0.018": 0.458355479091,
			"0.019": 0.143670356753,
			"0.02": 0.0,
			"0.021": 0.0,
			"0.022": 0.0,
			"0.023": 0.0,
			"0.024": 0.0,
			"0.025": 0.0
		}
	}
}
