{
	 "smiles": "CS(=O)(=O)N1CCC(CC1)C(O)=O", 
	 "Tm": 433.15, 
	 "num_atms": 26, 
	 "gaussian": { 
		 "optdone": 1, 
		 "sigma_profile": "yes", 
		 "theory": "DFT", 
		 "functional": "B3LYP", 
		 "basiset": "6-31G**", 
		 "properties": { 
			 "R2extent": 3823.862, 
			 "electric_dipole_moment_norm": 4.0648865839, 
			 "electric_quadrupole_moment_norm": 13.5299492161, 
			 "total_energy": -1028.359941, 
			 "HOMO_LUMO_gap": 0.24848, 
			 "cosmo_polarized_energy": -18.73, 
			 "cosmo_cavitation_energy": 29.26, 
			 "cosmo_dispersion_energy": -21.63, 
			 "cosmo_repulsion_energy": 1.67, 
			 "cosmo_total_nonelectrostatic_energy": 9.31, 
			 "SMD_solvation_energy": 4.68 
		},
		"coords": [
			{
				"x": -0.2202876117,
				"y": -2.6439790031,
				"z": 2.4148111441,
				"element": "C" 
			},
			{
				"x": -0.7419040541,
				"y": -1.2163887137,
				"z": 1.4464750115,
				"element": "S" 
			},
			{
				"x": -0.454981519,
				"y": -0.0217794522,
				"z": 2.2499421822,
				"element": "O" 
			},
			{
				"x": -2.0982042048,
				"y": -1.4875059709,
				"z": 0.9568287174,
				"element": "O" 
			},
			{
				"x": 0.3144979377,
				"y": -1.2657514657,
				"z": 0.1277663286,
				"element": "N" 
			},
			{
				"x": -0.2586601695,
				"y": -1.3875743342,
				"z": -1.2328547591,
				"element": "C" 
			},
			{
				"x": -0.0151982831,
				"y": -0.1208136587,
				"z": -2.0560087148,
				"element": "C" 
			},
			{
				"x": 1.5026455552,
				"y": 0.2042330428,
				"z": -2.1965987168,
				"element": "C" 
			},
			{
				"x": 2.3128418628,
				"y": -0.465329528,
				"z": -1.053843985,
				"element": "C" 
			},
			{
				"x": 1.5373139367,
				"y": -0.4407577575,
				"z": 0.2635999801,
				"element": "C" 
			},
			{
				"x": 2.0649099043,
				"y": -0.2051604658,
				"z": -3.544407589,
				"element": "C" 
			},
			{
				"x": 1.8209797862,
				"y": -1.5140794485,
				"z": -3.8236990174,
				"element": "O" 
			},
			{
				"x": 2.6734247829,
				"y": 0.5129921436,
				"z": -4.3055301651,
				"element": "O" 
			},
			{
				"x": -0.8336968121,
				"y": -2.661570928,
				"z": 3.317556171,
				"element": "H" 
			},
			{
				"x": -0.3806635107,
				"y": -3.5443471435,
				"z": 1.8216036457,
				"element": "H" 
			},
			{
				"x": 0.8323002076,
				"y": -2.5311972691,
				"z": 2.6783385189,
				"element": "H" 
			},
			{
				"x": 0.1938950779,
				"y": -2.2513814232,
				"z": -1.7327420109,
				"element": "H" 
			},
			{
				"x": -1.3265743573,
				"y": -1.5813346783,
				"z": -1.1319888993,
				"element": "H" 
			},
			{
				"x": -0.4827235546,
				"y": -0.2340648747,
				"z": -3.0391028828,
				"element": "H" 
			},
			{
				"x": -0.5137358239,
				"y": 0.7211617911,
				"z": -1.5645906098,
				"element": "H" 
			},
			{
				"x": 1.6462277537,
				"y": 1.2864623226,
				"z": -2.1453029774,
				"element": "H" 
			},
			{
				"x": 2.545157737,
				"y": -1.5023800815,
				"z": -1.316671318,
				"element": "H" 
			},
			{
				"x": 3.2663760818,
				"y": 0.0543708993,
				"z": -0.9187962848,
				"element": "H" 
			},
			{
				"x": 1.2895966403,
				"y": 0.5906695937,
				"z": 0.5428488051,
				"element": "H" 
			},
			{
				"x": 2.1589064737,
				"y": -0.850275081,
				"z": 1.0676225295,
				"element": "H" 
			},
			{
				"x": 2.2176561629,
				"y": -1.6831185155,
				"z": -4.6948551037,
				"element": "H" 
			}
		],
		 "valence_orbital": [ 
			{
				"type": "occ",
				"energy": -0.31159,
				"method": "rhf"
			},
			{
				"type": "occ",
				"energy": -0.30221,
				"method": "rhf"
			},
			{
				"type": "occ",
				"energy": -0.29737,
				"method": "rhf"
			},
			{
				"type": "occ",
				"energy": -0.27804,
				"method": "rhf"
			},
			{
				"type": "occ",
				"energy": -0.24929,
				"method": "rhf"
			},
			{
				"type": "unocc",
				"energy": -0.00081,
				"method": "rhf"
			},
			{
				"type": "unocc",
				"energy": 0.05404,
				"method": "rhf"
			},
			{
				"type": "unocc",
				"energy": 0.066,
				"method": "rhf"
			},
			{
				"type": "unocc",
				"energy": 0.07241,
				"method": "rhf"
			},
			{
				"type": "unocc",
				"energy": 0.085,
				"method": "rhf"
			}
		],
		"cosmo_sigma_profile": { 
			"-0.025": 0.0,
			"-0.024": 0.0,
			"-0.023": 0.0,
			"-0.022": 0.0,
			"-0.021": 0.0,
			"-0.02": 0.0,
			"-0.019": 0.0,
			"-0.018": 0.766174842808,
			"-0.017": 0.985548459812,
			"-0.016": 0.391149333107,
			"-0.015": 1.2718881064,
			"-0.014": 0.596157079235,
			"-0.013": 0.347034002557,
			"-0.012": 0.814147719404,
			"-0.011": 0.977627691742,
			"-0.01": 0.621639603345,
			"-0.009": 1.19793110373,
			"-0.008": 6.34796708939,
			"-0.007": 7.21130272907,
			"-0.006": 8.52903353756,
			"-0.005": 20.5863295884,
			"-0.004": 30.4566952743,
			"-0.003": 25.4523260396,
			"-0.002": 19.9548437086,
			"-0.001": 10.3298615894,
			"0.0": 8.58984038431,
			"0.001": 6.79286347279,
			"0.002": 6.78370612987,
			"0.003": 5.58738922702,
			"0.004": 5.50973694929,
			"0.005": 5.63492783551,
			"0.006": 5.38392868605,
			"0.007": 4.75296418143,
			"0.008": 4.03340981441,
			"0.009": 4.80321704158,
			"0.01": 6.91986528187,
			"0.011": 13.4853325831,
			"0.012": 12.2089179318,
			"0.013": 1.29053760539,
			"0.014": 0.0,
			"0.015": 0.0,
			"0.016": 0.0,
			"0.017": 0.0,
			"0.018": 0.0,
			"0.019": 0.0,
			"0.02": 0.0,
			"0.021": 0.0,
			"0.022": 0.0,
			"0.023": 0.0,
			"0.024": 0.0,
			"0.025": 0.0
		}
	}
}
