{
	 "smiles": "CNCCC1CCN(CC1)C1CCN(C)CC1", 
	 "Tm": 322.15, 
	 "num_atms": 46, 
	 "gaussian": { 
		 "optdone": 1, 
		 "sigma_profile": "yes", 
		 "theory": "DFT", 
		 "functional": "B3LYP", 
		 "basiset": "6-31G**", 
		 "properties": { 
			 "R2extent": 6338.9, 
			 "electric_dipole_moment_norm": 1.31476103912, 
			 "electric_quadrupole_moment_norm": 7.01548515357, 
			 "total_energy": -715.191108592, 
			 "HOMO_LUMO_gap": 0.26537, 
			 "cosmo_polarized_energy": -7.32, 
			 "cosmo_cavitation_energy": 41.94, 
			 "cosmo_dispersion_energy": -28.88, 
			 "cosmo_repulsion_energy": 2.24, 
			 "cosmo_total_nonelectrostatic_energy": 15.31, 
			 "SMD_solvation_energy": 0.11 
		},
		"coords": [
			{
				"x": 2.4207719179,
				"y": -0.888832015,
				"z": -2.4202063957,
				"element": "C" 
			},
			{
				"x": 2.2749846846,
				"y": -2.2434942626,
				"z": -1.8984449128,
				"element": "N" 
			},
			{
				"x": 0.9505390879,
				"y": -2.5608830154,
				"z": -1.3626582285,
				"element": "C" 
			},
			{
				"x": 0.5267207122,
				"y": -1.8027525423,
				"z": -0.0907126503,
				"element": "C" 
			},
			{
				"x": -0.8101407479,
				"y": -2.2739742888,
				"z": 0.5189205995,
				"element": "C" 
			},
			{
				"x": -2.0206275837,
				"y": -2.0719872715,
				"z": -0.4092513806,
				"element": "C" 
			},
			{
				"x": -2.273569971,
				"y": -0.5831577353,
				"z": -0.7189884249,
				"element": "C" 
			},
			{
				"x": -1.9105036198,
				"y": 0.2995876707,
				"z": 0.4089907918,
				"element": "N" 
			},
			{
				"x": -2.1365829796,
				"y": -0.3990022067,
				"z": 1.6803166832,
				"element": "C" 
			},
			{
				"x": -1.121321616,
				"y": -1.546124963,
				"z": 1.8557695773,
				"element": "C" 
			},
			{
				"x": -2.5625127136,
				"y": 1.6197857787,
				"z": 0.3204045887,
				"element": "C" 
			},
			{
				"x": -2.1585712241,
				"y": 2.374897991,
				"z": -0.9744832873,
				"element": "C" 
			},
			{
				"x": -0.9124090452,
				"y": 3.2375500933,
				"z": -0.7412498131,
				"element": "C" 
			},
			{
				"x": -1.1451490938,
				"y": 4.3186576383,
				"z": 0.2380641229,
				"element": "N" 
			},
			{
				"x": -1.3398780913,
				"y": 5.6278152508,
				"z": -0.3610192978,
				"element": "C" 
			},
			{
				"x": -2.2163651571,
				"y": 3.9987472405,
				"z": 1.1851204276,
				"element": "C" 
			},
			{
				"x": -2.2002029396,
				"y": 2.5108165129,
				"z": 1.5393802063,
				"element": "C" 
			},
			{
				"x": 2.2349166774,
				"y": -0.0753221367,
				"z": -1.6978304717,
				"element": "H" 
			},
			{
				"x": 3.4344677916,
				"y": -0.7609406251,
				"z": -2.8137019363,
				"element": "H" 
			},
			{
				"x": 1.7253447229,
				"y": -0.7500005426,
				"z": -3.2567159317,
				"element": "H" 
			},
			{
				"x": 2.9765267919,
				"y": -2.4081997696,
				"z": -1.1804295919,
				"element": "H" 
			},
			{
				"x": 0.2273564288,
				"y": -2.3846171421,
				"z": -2.1695989118,
				"element": "H" 
			},
			{
				"x": 0.9244037976,
				"y": -3.640843076,
				"z": -1.1597536688,
				"element": "H" 
			},
			{
				"x": 0.473982197,
				"y": -0.7248398584,
				"z": -0.2781410737,
				"element": "H" 
			},
			{
				"x": 1.3120004695,
				"y": -1.9446466042,
				"z": 0.6668774038,
				"element": "H" 
			},
			{
				"x": -0.7152716804,
				"y": -3.350372459,
				"z": 0.719034067,
				"element": "H" 
			},
			{
				"x": -2.9016619073,
				"y": -2.5037921822,
				"z": 0.0805739022,
				"element": "H" 
			},
			{
				"x": -1.9052513663,
				"y": -2.6169505449,
				"z": -1.3520100637,
				"element": "H" 
			},
			{
				"x": -3.3369656931,
				"y": -0.453518904,
				"z": -0.9981757896,
				"element": "H" 
			},
			{
				"x": -1.6831661395,
				"y": -0.2980351493,
				"z": -1.5957586224,
				"element": "H" 
			},
			{
				"x": -2.0190933575,
				"y": 0.3009424668,
				"z": 2.5077299778,
				"element": "H" 
			},
			{
				"x": -3.1730528858,
				"y": -0.7847393978,
				"z": 1.7504260087,
				"element": "H" 
			},
			{
				"x": -1.5224275032,
				"y": -2.2536422052,
				"z": 2.5917805082,
				"element": "H" 
			},
			{
				"x": -0.1933834867,
				"y": -1.1444488795,
				"z": 2.2783977177,
				"element": "H" 
			},
			{
				"x": -3.664013479,
				"y": 1.4878792822,
				"z": 0.3020486066,
				"element": "H" 
			},
			{
				"x": -1.991178974,
				"y": 1.6844693993,
				"z": -1.8035445683,
				"element": "H" 
			},
			{
				"x": -2.9913618728,
				"y": 3.018871822,
				"z": -1.2808575883,
				"element": "H" 
			},
			{
				"x": -0.5736270973,
				"y": 3.6840320784,
				"z": -1.6817748695,
				"element": "H" 
			},
			{
				"x": -0.0976489947,
				"y": 2.590459993,
				"z": -0.3887407517,
				"element": "H" 
			},
			{
				"x": -2.2537876459,
				"y": 5.7083691671,
				"z": -0.9838220596,
				"element": "H" 
			},
			{
				"x": -0.4793172786,
				"y": 5.8891611526,
				"z": -0.9850298237,
				"element": "H" 
			},
			{
				"x": -1.4174221323,
				"y": 6.3830186987,
				"z": 0.4296537394,
				"element": "H" 
			},
			{
				"x": -3.2172969888,
				"y": 4.2671228375,
				"z": 0.7882601584,
				"element": "H" 
			},
			{
				"x": -2.0766212685,
				"y": 4.6025527904,
				"z": 2.0911553355,
				"element": "H" 
			},
			{
				"x": -1.1911081036,
				"y": 2.2532870673,
				"z": 1.8812815381,
				"element": "H" 
			},
			{
				"x": -2.8854226413,
				"y": 2.3324928452,
				"z": 2.3736141528,
				"element": "H" 
			}
		],
		 "valence_orbital": [ 
			{
				"type": "occ",
				"energy": -0.29864,
				"method": "rhf"
			},
			{
				"type": "occ",
				"energy": -0.29463,
				"method": "rhf"
			},
			{
				"type": "occ",
				"energy": -0.2091,
				"method": "rhf"
			},
			{
				"type": "occ",
				"energy": -0.20264,
				"method": "rhf"
			},
			{
				"type": "occ",
				"energy": -0.19481,
				"method": "rhf"
			},
			{
				"type": "unocc",
				"energy": 0.07056,
				"method": "rhf"
			},
			{
				"type": "unocc",
				"energy": 0.08343,
				"method": "rhf"
			},
			{
				"type": "unocc",
				"energy": 0.09116,
				"method": "rhf"
			},
			{
				"type": "unocc",
				"energy": 0.10008,
				"method": "rhf"
			},
			{
				"type": "unocc",
				"energy": 0.10836,
				"method": "rhf"
			}
		],
		"cosmo_sigma_profile": { 
			"-0.025": 0.0,
			"-0.024": 0.0,
			"-0.023": 0.0,
			"-0.022": 0.0,
			"-0.021": 0.0,
			"-0.02": 0.0,
			"-0.019": 0.0,
			"-0.018": 0.0,
			"-0.017": 0.0,
			"-0.016": 0.0,
			"-0.015": 0.0,
			"-0.014": 0.0,
			"-0.013": 0.0,
			"-0.012": 0.0,
			"-0.011": 0.0,
			"-0.01": 0.0252752607595,
			"-0.009": 0.989920570121,
			"-0.008": 1.21738918284,
			"-0.007": 1.09710562302,
			"-0.006": 1.34747667484,
			"-0.005": 1.82046030205,
			"-0.004": 5.50709667229,
			"-0.003": 26.0967645075,
			"-0.002": 54.0886359311,
			"-0.001": 77.3764827461,
			"0.0": 74.5296986405,
			"0.001": 32.9541578906,
			"0.002": 8.92954871712,
			"0.003": 4.54167039884,
			"0.004": 3.907156671,
			"0.005": 3.48565012128,
			"0.006": 2.32700344056,
			"0.007": 3.98449485423,
			"0.008": 2.24283354565,
			"0.009": 2.20127361423,
			"0.01": 2.40572485402,
			"0.011": 1.77647664649,
			"0.012": 0.878473085695,
			"0.013": 1.61841921879,
			"0.014": 0.945859571773,
			"0.015": 0.816395293987,
			"0.016": 0.95405644396,
			"0.017": 1.1895398593,
			"0.018": 0.400376242146,
			"0.019": 0.465792972813,
			"0.02": 0.00459575535733,
			"0.021": 0.0,
			"0.022": 0.0,
			"0.023": 0.0,
			"0.024": 0.0,
			"0.025": 0.0
		}
	}
}
