{
	 "smiles": "CC12CCCC(CCC1)(C2)C(O)=O", 
	 "Tm": 418.15, 
	 "num_atms": 31, 
	 "gaussian": { 
		 "optdone": 1, 
		 "sigma_profile": "yes", 
		 "theory": "DFT", 
		 "functional": "B3LYP", 
		 "basiset": "6-31G**", 
		 "properties": { 
			 "R2extent": 2554.0025, 
			 "electric_dipole_moment_norm": 4.35933418081, 
			 "electric_quadrupole_moment_norm": 14.0867760655, 
			 "total_energy": -580.495148815, 
			 "HOMO_LUMO_gap": 0.27476, 
			 "cosmo_polarized_energy": -12.01, 
			 "cosmo_cavitation_energy": 28.87, 
			 "cosmo_dispersion_energy": -21.28, 
			 "cosmo_repulsion_energy": 1.64, 
			 "cosmo_total_nonelectrostatic_energy": 9.24, 
			 "SMD_solvation_energy": 4.89 
		},
		"coords": [
			{
				"x": 1.6424250575,
				"y": 0.6496522011,
				"z": -2.0697695289,
				"element": "C" 
			},
			{
				"x": 1.4755275978,
				"y": 0.2865892594,
				"z": -0.5855802649,
				"element": "C" 
			},
			{
				"x": 1.6876640869,
				"y": 1.5561941258,
				"z": 0.2762386165,
				"element": "C" 
			},
			{
				"x": 1.4141414161,
				"y": 1.3228798221,
				"z": 1.769025459,
				"element": "C" 
			},
			{
				"x": 0.0462052644,
				"y": 0.6672530028,
				"z": 2.0119525734,
				"element": "C" 
			},
			{
				"x": -0.1625923985,
				"y": -0.6075687621,
				"z": 1.1411812318,
				"element": "C" 
			},
			{
				"x": 0.8523927324,
				"y": -1.742037596,
				"z": 1.5435965111,
				"element": "C" 
			},
			{
				"x": 1.8446992003,
				"y": -2.0798579567,
				"z": 0.4182938899,
				"element": "C" 
			},
			{
				"x": 2.5034932944,
				"y": -0.830721843,
				"z": -0.1880956987,
				"element": "C" 
			},
			{
				"x": 0.0356069591,
				"y": -0.2133497217,
				"z": -0.335621432,
				"element": "C" 
			},
			{
				"x": -1.6035113524,
				"y": -1.0945945041,
				"z": 1.343745181,
				"element": "C" 
			},
			{
				"x": -1.9124521864,
				"y": -1.5330957379,
				"z": 2.5990378793,
				"element": "O" 
			},
			{
				"x": -2.4573917291,
				"y": -1.1012030878,
				"z": 0.4915331228,
				"element": "O" 
			},
			{
				"x": 0.9279887299,
				"y": 1.4230684733,
				"z": -2.3741409956,
				"element": "H" 
			},
			{
				"x": 1.4797460903,
				"y": -0.2252764492,
				"z": -2.7094783914,
				"element": "H" 
			},
			{
				"x": 2.6517877533,
				"y": 1.0274858841,
				"z": -2.2707985784,
				"element": "H" 
			},
			{
				"x": 2.7100165695,
				"y": 1.931807105,
				"z": 0.1389421895,
				"element": "H" 
			},
			{
				"x": 1.0142198611,
				"y": 2.3423382633,
				"z": -0.0931211012,
				"element": "H" 
			},
			{
				"x": 1.4620877131,
				"y": 2.2734076342,
				"z": 2.3130366228,
				"element": "H" 
			},
			{
				"x": 2.2045010416,
				"y": 0.6937230624,
				"z": 2.1970364331,
				"element": "H" 
			},
			{
				"x": -0.06307551,
				"y": 0.4309256837,
				"z": 3.0791793302,
				"element": "H" 
			},
			{
				"x": -0.749595451,
				"y": 1.3840540157,
				"z": 1.7703428709,
				"element": "H" 
			},
			{
				"x": 1.4117992839,
				"y": -1.4346917071,
				"z": 2.4367450855,
				"element": "H" 
			},
			{
				"x": 0.3150559935,
				"y": -2.6562089392,
				"z": 1.8207514129,
				"element": "H" 
			},
			{
				"x": 1.3174627424,
				"y": -2.6323440457,
				"z": -0.3682357297,
				"element": "H" 
			},
			{
				"x": 2.6126588885,
				"y": -2.7614050489,
				"z": 0.8024183767,
				"element": "H" 
			},
			{
				"x": 3.0833752124,
				"y": -1.1304545111,
				"z": -1.0684358876,
				"element": "H" 
			},
			{
				"x": 3.2341833922,
				"y": -0.4276708717,
				"z": 0.5243560739,
				"element": "H" 
			},
			{
				"x": -0.2046890344,
				"y": -1.0610523749,
				"z": -0.9847502564,
				"element": "H" 
			},
			{
				"x": -0.6824455784,
				"y": 0.5718954072,
				"z": -0.5958116038,
				"element": "H" 
			},
			{
				"x": -1.1366856403,
				"y": -1.4719407832,
				"z": 3.1742266083,
				"element": "H" 
			}
		],
		 "valence_orbital": [ 
			{
				"type": "occ",
				"energy": -0.30813,
				"method": "rhf"
			},
			{
				"type": "occ",
				"energy": -0.30281,
				"method": "rhf"
			},
			{
				"type": "occ",
				"energy": -0.29809,
				"method": "rhf"
			},
			{
				"type": "occ",
				"energy": -0.29384,
				"method": "rhf"
			},
			{
				"type": "occ",
				"energy": -0.25896,
				"method": "rhf"
			},
			{
				"type": "unocc",
				"energy": 0.0158,
				"method": "rhf"
			},
			{
				"type": "unocc",
				"energy": 0.05133,
				"method": "rhf"
			},
			{
				"type": "unocc",
				"energy": 0.07427,
				"method": "rhf"
			},
			{
				"type": "unocc",
				"energy": 0.09516,
				"method": "rhf"
			},
			{
				"type": "unocc",
				"energy": 0.10454,
				"method": "rhf"
			}
		],
		"cosmo_sigma_profile": { 
			"-0.025": 0.0,
			"-0.024": 0.0,
			"-0.023": 0.0,
			"-0.022": 0.0,
			"-0.021": 0.0,
			"-0.02": 0.0,
			"-0.019": 0.0,
			"-0.018": 0.182267974413,
			"-0.017": 0.493996155474,
			"-0.016": 0.673777436226,
			"-0.015": 0.868760901972,
			"-0.014": 1.35212451585,
			"-0.013": 0.832498983738,
			"-0.012": 0.648217374684,
			"-0.011": 0.569838572146,
			"-0.01": 1.28768754702,
			"-0.009": 1.28506851622,
			"-0.008": 0.91527810196,
			"-0.007": 1.25129933723,
			"-0.006": 1.71781884245,
			"-0.005": 2.28211800715,
			"-0.004": 7.9896288679,
			"-0.003": 22.6131875471,
			"-0.002": 39.5838314758,
			"-0.001": 40.2703130605,
			"0.0": 30.3151337917,
			"0.001": 21.369325521,
			"0.002": 9.22967863198,
			"0.003": 2.46380575527,
			"0.004": 2.23740379382,
			"0.005": 2.27647888941,
			"0.006": 1.84662597387,
			"0.007": 2.44650589201,
			"0.008": 2.81037385799,
			"0.009": 2.96137898438,
			"0.01": 3.98963921469,
			"0.011": 5.31575169669,
			"0.012": 6.07046843096,
			"0.013": 2.91392999878,
			"0.014": 0.399292768543,
			"0.015": 0.0,
			"0.016": 0.0,
			"0.017": 0.0,
			"0.018": 0.0,
			"0.019": 0.0,
			"0.02": 0.0,
			"0.021": 0.0,
			"0.022": 0.0,
			"0.023": 0.0,
			"0.024": 0.0,
			"0.025": 0.0
		}
	}
}
