{
	 "smiles": "CC1=C(OCC2=CSC(Br)=C2)C=C(C=C1)C(O)=O", 
	 "Tm": 432.15, 
	 "num_atms": 29, 
	 "gaussian": { 
		 "optdone": 1, 
		 "sigma_profile": "yes", 
		 "theory": "DFT", 
		 "functional": "B3LYP", 
		 "basiset": "6-31G**", 
		 "properties": { 
			 "R2extent": 9527.6405, 
			 "electric_dipole_moment_norm": 3.92755412693, 
			 "electric_quadrupole_moment_norm": 17.2953970553, 
			 "total_energy": -3697.2612106, 
			 "HOMO_LUMO_gap": 0.189, 
			 "cosmo_polarized_energy": -16.16, 
			 "cosmo_cavitation_energy": 37.92, 
			 "cosmo_dispersion_energy": -27.04, 
			 "cosmo_repulsion_energy": 2.08, 
			 "cosmo_total_nonelectrostatic_energy": 12.96, 
			 "SMD_solvation_energy": 6.43 
		},
		"coords": [
			{
				"x": 0.8133322197,
				"y": 2.4826280354,
				"z": 2.8438599734,
				"element": "C" 
			},
			{
				"x": 0.2377905298,
				"y": 2.0387039081,
				"z": 1.5254637319,
				"element": "C" 
			},
			{
				"x": 0.8172758613,
				"y": 0.9509338976,
				"z": 0.8318510988,
				"element": "C" 
			},
			{
				"x": 1.9039268305,
				"y": 0.3920477991,
				"z": 1.4476437357,
				"element": "O" 
			},
			{
				"x": 2.6114011861,
				"y": -0.6763732298,
				"z": 0.8089361634,
				"element": "C" 
			},
			{
				"x": 1.9205483259,
				"y": -2.0100985315,
				"z": 0.9387818654,
				"element": "C" 
			},
			{
				"x": 1.7526628477,
				"y": -2.8989874873,
				"z": -0.0896103081,
				"element": "C" 
			},
			{
				"x": 0.9755508415,
				"y": -4.3619556267,
				"z": 0.4272764176,
				"element": "S" 
			},
			{
				"x": 0.8733073137,
				"y": -3.7555018155,
				"z": 2.0562432123,
				"element": "C" 
			},
			{
				"x": 0.086395779,
				"y": -4.7942197689,
				"z": 3.4190261727,
				"element": "Br" 
			},
			{
				"x": 1.4098543477,
				"y": -2.5074167754,
				"z": 2.1833144723,
				"element": "C" 
			},
			{
				"x": 0.2977124244,
				"y": 0.526629172,
				"z": -0.3883574089,
				"element": "C" 
			},
			{
				"x": -0.8147393021,
				"y": 1.1747438115,
				"z": -0.943910027,
				"element": "C" 
			},
			{
				"x": -1.3878197042,
				"y": 2.2618590083,
				"z": -0.2785186391,
				"element": "C" 
			},
			{
				"x": -0.8568672944,
				"y": 2.6780787223,
				"z": 0.9443571109,
				"element": "C" 
			},
			{
				"x": -1.3079729959,
				"y": 0.6603460878,
				"z": -2.2617210055,
				"element": "C" 
			},
			{
				"x": -2.5749571184,
				"y": 1.0037229121,
				"z": -2.6172281298,
				"element": "O" 
			},
			{
				"x": -0.6423743417,
				"y": -0.0304476184,
				"z": -2.9990623815,
				"element": "O" 
			},
			{
				"x": 0.7788045467,
				"y": 1.6741038585,
				"z": 3.5823517957,
				"element": "H" 
			},
			{
				"x": 1.8673552835,
				"y": 2.761870051,
				"z": 2.7398771656,
				"element": "H" 
			},
			{
				"x": 0.2640286622,
				"y": 3.3390162089,
				"z": 3.2425128277,
				"element": "H" 
			},
			{
				"x": 2.807653087,
				"y": -0.439013842,
				"z": -0.2433050657,
				"element": "H" 
			},
			{
				"x": 3.5730531671,
				"y": -0.6964388244,
				"z": 1.3312841579,
				"element": "H" 
			},
			{
				"x": 2.0348682575,
				"y": -2.7795664437,
				"z": -1.1274592588,
				"element": "H" 
			},
			{
				"x": 1.4370923249,
				"y": -1.9559560555,
				"z": 3.1144751143,
				"element": "H" 
			},
			{
				"x": 0.7138159308,
				"y": -0.3093812878,
				"z": -0.9329616443,
				"element": "H" 
			},
			{
				"x": -2.2127260462,
				"y": 2.8208528114,
				"z": -0.712669912,
				"element": "H" 
			},
			{
				"x": -1.297492381,
				"y": 3.5284297893,
				"z": 1.4576412004,
				"element": "H" 
			},
			{
				"x": -3.0287805831,
				"y": 1.4112912333,
				"z": -1.8665924352,
				"element": "H" 
			}
		],
		 "valence_orbital": [ 
			{
				"type": "occ",
				"energy": -0.27262,
				"method": "rhf"
			},
			{
				"type": "occ",
				"energy": -0.2651,
				"method": "rhf"
			},
			{
				"type": "occ",
				"energy": -0.25784,
				"method": "rhf"
			},
			{
				"type": "occ",
				"energy": -0.23766,
				"method": "rhf"
			},
			{
				"type": "occ",
				"energy": -0.23505,
				"method": "rhf"
			},
			{
				"type": "unocc",
				"energy": -0.04605,
				"method": "rhf"
			},
			{
				"type": "unocc",
				"energy": -0.03007,
				"method": "rhf"
			},
			{
				"type": "unocc",
				"energy": -0.00938,
				"method": "rhf"
			},
			{
				"type": "unocc",
				"energy": -0.00623,
				"method": "rhf"
			},
			{
				"type": "unocc",
				"energy": 0.01548,
				"method": "rhf"
			}
		],
		"cosmo_sigma_profile": { 
			"-0.025": 0.0,
			"-0.024": 0.0,
			"-0.023": 0.0,
			"-0.022": 0.0,
			"-0.021": 0.0,
			"-0.02": 0.0,
			"-0.019": 0.00407272551574,
			"-0.018": 0.743636520104,
			"-0.017": 0.93244033529,
			"-0.016": 0.613470902942,
			"-0.015": 1.11158247677,
			"-0.014": 0.877227393707,
			"-0.013": 1.25499070346,
			"-0.012": 0.958037998801,
			"-0.011": 1.21531777169,
			"-0.01": 1.42542269196,
			"-0.009": 3.66056446671,
			"-0.008": 5.95960672859,
			"-0.007": 9.29501922056,
			"-0.006": 12.8269310784,
			"-0.005": 15.7775470162,
			"-0.004": 18.0398754193,
			"-0.003": 16.4946504683,
			"-0.002": 17.2072869914,
			"-0.001": 22.2879379988,
			"0.0": 24.8799514492,
			"0.001": 26.332080921,
			"0.002": 36.7615829967,
			"0.003": 37.466202843,
			"0.004": 18.3348197616,
			"0.005": 3.60479963076,
			"0.006": 3.47057503723,
			"0.007": 3.95583670633,
			"0.008": 3.36833355234,
			"0.009": 2.74264750138,
			"0.01": 4.65847595692,
			"0.011": 4.89105269008,
			"0.012": 5.46840220809,
			"0.013": 2.09959858208,
			"0.014": 0.175450381866,
			"0.015": 0.0,
			"0.016": 0.0,
			"0.017": 0.0,
			"0.018": 0.0,
			"0.019": 0.0,
			"0.02": 0.0,
			"0.021": 0.0,
			"0.022": 0.0,
			"0.023": 0.0,
			"0.024": 0.0,
			"0.025": 0.0
		}
	}
}
