{
	 "smiles": "CC1=CC(=CC=C1Cl)C(O)=O", 
	 "Tm": 490.15, 
	 "num_atms": 18, 
	 "gaussian": { 
		 "optdone": 1, 
		 "sigma_profile": "yes", 
		 "theory": "DFT", 
		 "functional": "B3LYP", 
		 "basiset": "6-31G**", 
		 "properties": { 
			 "R2extent": 2678.4215, 
			 "electric_dipole_moment_norm": 3.90032809005, 
			 "electric_quadrupole_moment_norm": 13.0428182859, 
			 "total_energy": -919.72659485, 
			 "HOMO_LUMO_gap": 0.20104, 
			 "cosmo_polarized_energy": -13.38, 
			 "cosmo_cavitation_energy": 24.13, 
			 "cosmo_dispersion_energy": -17.9, 
			 "cosmo_repulsion_energy": 1.43, 
			 "cosmo_total_nonelectrostatic_energy": 7.66, 
			 "SMD_solvation_energy": 5.1 
		},
		"coords": [
			{
				"x": -0.9093178012,
				"y": 2.3387602956,
				"z": 1.0646258156,
				"element": "C" 
			},
			{
				"x": -0.9799925282,
				"y": 0.8692799124,
				"z": 0.7399031244,
				"element": "C" 
			},
			{
				"x": 0.1728972246,
				"y": 0.1458592624,
				"z": 0.4117999874,
				"element": "C" 
			},
			{
				"x": 0.1374277852,
				"y": -1.2229686684,
				"z": 0.1173036175,
				"element": "C" 
			},
			{
				"x": -1.0852859822,
				"y": -1.9020856381,
				"z": 0.1709466354,
				"element": "C" 
			},
			{
				"x": -2.2508207684,
				"y": -1.2117774495,
				"z": 0.4812614327,
				"element": "C" 
			},
			{
				"x": -2.1889581973,
				"y": 0.1553951526,
				"z": 0.7570562549,
				"element": "C" 
			},
			{
				"x": -3.6842396828,
				"y": 0.9912819497,
				"z": 1.1479133974,
				"element": "Cl" 
			},
			{
				"x": 1.3624384449,
				"y": -2.0191608358,
				"z": -0.2193310077,
				"element": "C" 
			},
			{
				"x": 2.4415049043,
				"y": -1.3245630019,
				"z": -0.6707146111,
				"element": "O" 
			},
			{
				"x": 1.4212044009,
				"y": -3.2208153979,
				"z": -0.1073665789,
				"element": "O" 
			},
			{
				"x": -1.5225241218,
				"y": 2.927796221,
				"z": 0.3745239703,
				"element": "H" 
			},
			{
				"x": -1.2849369252,
				"y": 2.5411871846,
				"z": 2.0730451836,
				"element": "H" 
			},
			{
				"x": 0.1197645912,
				"y": 2.7010481415,
				"z": 1.0036448134,
				"element": "H" 
			},
			{
				"x": 1.1209765336,
				"y": 0.6790108455,
				"z": 0.4331628715,
				"element": "H" 
			},
			{
				"x": -1.1028578868,
				"y": -2.9665489546,
				"z": -0.0347382803,
				"element": "H" 
			},
			{
				"x": -3.2067920531,
				"y": -1.7222868244,
				"z": 0.5149264846,
				"element": "H" 
			},
			{
				"x": 2.1923120622,
				"y": -0.4119121947,
				"z": -0.8710631107,
				"element": "H" 
			}
		],
		 "valence_orbital": [ 
			{
				"type": "occ",
				"energy": -0.32562,
				"method": "rhf"
			},
			{
				"type": "occ",
				"energy": -0.31914,
				"method": "rhf"
			},
			{
				"type": "occ",
				"energy": -0.27941,
				"method": "rhf"
			},
			{
				"type": "occ",
				"energy": -0.27633,
				"method": "rhf"
			},
			{
				"type": "occ",
				"energy": -0.25987,
				"method": "rhf"
			},
			{
				"type": "unocc",
				"energy": -0.05883,
				"method": "rhf"
			},
			{
				"type": "unocc",
				"energy": -0.02982,
				"method": "rhf"
			},
			{
				"type": "unocc",
				"energy": 0.01718,
				"method": "rhf"
			},
			{
				"type": "unocc",
				"energy": 0.0382,
				"method": "rhf"
			},
			{
				"type": "unocc",
				"energy": 0.06247,
				"method": "rhf"
			}
		],
		"cosmo_sigma_profile": { 
			"-0.025": 0.0,
			"-0.024": 0.0,
			"-0.023": 0.0,
			"-0.022": 0.0,
			"-0.021": 0.0,
			"-0.02": 0.0,
			"-0.019": 0.246574735777,
			"-0.018": 1.07686974018,
			"-0.017": 0.671474802372,
			"-0.016": 0.956529915274,
			"-0.015": 0.942827544854,
			"-0.014": 0.856923902672,
			"-0.013": 1.38723596655,
			"-0.012": 0.968297225711,
			"-0.011": 1.55669100579,
			"-0.01": 0.970465998424,
			"-0.009": 1.65560917627,
			"-0.008": 2.73977736865,
			"-0.007": 4.86970707893,
			"-0.006": 6.91366317192,
			"-0.005": 8.38291029828,
			"-0.004": 11.2455400188,
			"-0.003": 11.4053131202,
			"-0.002": 14.730053543,
			"-0.001": 18.4972677776,
			"0.0": 15.6415638569,
			"0.001": 18.0603485228,
			"0.002": 18.8253868127,
			"0.003": 11.6688638369,
			"0.004": 10.1283498567,
			"0.005": 3.5154136935,
			"0.006": 2.72565684666,
			"0.007": 2.27574453954,
			"0.008": 2.9055786485,
			"0.009": 2.65369448999,
			"0.01": 5.3241207433,
			"0.011": 5.27154232073,
			"0.012": 4.63845552817,
			"0.013": 1.26643468638,
			"0.014": 0.0,
			"0.015": 0.0,
			"0.016": 0.0,
			"0.017": 0.0,
			"0.018": 0.0,
			"0.019": 0.0,
			"0.02": 0.0,
			"0.021": 0.0,
			"0.022": 0.0,
			"0.023": 0.0,
			"0.024": 0.0,
			"0.025": 0.0
		}
	}
}
