{
	 "smiles": "CNC(C)C(O)C1=CC=C(O)C=C1", 
	 "Tm": 426.15, 
	 "num_atms": 28, 
	 "gaussian": { 
		 "optdone": 1, 
		 "sigma_profile": "yes", 
		 "theory": "DFT", 
		 "functional": "B3LYP", 
		 "basiset": "6-31G**", 
		 "properties": { 
			 "R2extent": 3696.9883, 
			 "electric_dipole_moment_norm": 2.19507320379, 
			 "electric_quadrupole_moment_norm": 13.7734670356, 
			 "total_energy": -595.294456802, 
			 "HOMO_LUMO_gap": 0.21137, 
			 "cosmo_polarized_energy": -12.67, 
			 "cosmo_cavitation_energy": 29.97, 
			 "cosmo_dispersion_energy": -21.45, 
			 "cosmo_repulsion_energy": 1.7, 
			 "cosmo_total_nonelectrostatic_energy": 10.23, 
			 "SMD_solvation_energy": 4.8 
		},
		"coords": [
			{
				"x": 1.7168916703,
				"y": -2.4574567169,
				"z": 1.3674059928,
				"element": "C" 
			},
			{
				"x": 1.3613377698,
				"y": -2.5322246658,
				"z": -0.0491978604,
				"element": "N" 
			},
			{
				"x": 0.2651730434,
				"y": -1.6412768636,
				"z": -0.4709870098,
				"element": "C" 
			},
			{
				"x": -0.3955063939,
				"y": -2.2188627559,
				"z": -1.7234561642,
				"element": "C" 
			},
			{
				"x": 0.8952239273,
				"y": -0.2362963833,
				"z": -0.7261575298,
				"element": "C" 
			},
			{
				"x": 1.9880290116,
				"y": -0.383569363,
				"z": -1.613421091,
				"element": "O" 
			},
			{
				"x": -0.0916088559,
				"y": 0.7774769081,
				"z": -1.2670103739,
				"element": "C" 
			},
			{
				"x": -0.0576049126,
				"y": 1.187605762,
				"z": -2.6027328047,
				"element": "C" 
			},
			{
				"x": -0.9829237113,
				"y": 2.1104072756,
				"z": -3.0925882465,
				"element": "C" 
			},
			{
				"x": -1.9632209927,
				"y": 2.637264638,
				"z": -2.2468743396,
				"element": "C" 
			},
			{
				"x": -2.8974875255,
				"y": 3.5442732763,
				"z": -2.6681169232,
				"element": "O" 
			},
			{
				"x": -2.0063714602,
				"y": 2.2407872112,
				"z": -0.9054560313,
				"element": "C" 
			},
			{
				"x": -1.0732718051,
				"y": 1.3251346599,
				"z": -0.4284399315,
				"element": "C" 
			},
			{
				"x": 2.4841810492,
				"y": -3.2051023821,
				"z": 1.5886325869,
				"element": "H" 
			},
			{
				"x": 0.8639460879,
				"y": -2.6226022191,
				"z": 2.0476060695,
				"element": "H" 
			},
			{
				"x": 2.1416450489,
				"y": -1.4764194165,
				"z": 1.6004452346,
				"element": "H" 
			},
			{
				"x": 1.1244463502,
				"y": -3.4908304325,
				"z": -0.2857007965,
				"element": "H" 
			},
			{
				"x": -0.4962209536,
				"y": -1.5375130156,
				"z": 0.3220012709,
				"element": "H" 
			},
			{
				"x": -1.2176772793,
				"y": -1.5835021702,
				"z": -2.0583299019,
				"element": "H" 
			},
			{
				"x": 0.3319424764,
				"y": -2.2929970396,
				"z": -2.5370006182,
				"element": "H" 
			},
			{
				"x": -0.7990337297,
				"y": -3.2179797966,
				"z": -1.5226501283,
				"element": "H" 
			},
			{
				"x": 1.2523592625,
				"y": 0.13740294,
				"z": 0.2503786929,
				"element": "H" 
			},
			{
				"x": 2.3783204908,
				"y": -1.2382988506,
				"z": -1.3511023314,
				"element": "H" 
			},
			{
				"x": 0.710999419,
				"y": 0.7854764335,
				"z": -3.2528224238,
				"element": "H" 
			},
			{
				"x": -0.9385516081,
				"y": 2.4242986693,
				"z": -4.1341024682,
				"element": "H" 
			},
			{
				"x": -2.7457140145,
				"y": 3.7384080521,
				"z": -3.6020273933,
				"element": "H" 
			},
			{
				"x": -2.7648175353,
				"y": 2.6656324479,
				"z": -0.256039719,
				"element": "H" 
			},
			{
				"x": -1.1065848297,
				"y": 1.0380637973,
				"z": 0.6204442389,
				"element": "H" 
			}
		],
		 "valence_orbital": [ 
			{
				"type": "occ",
				"energy": -0.30833,
				"method": "rhf"
			},
			{
				"type": "occ",
				"energy": -0.2594,
				"method": "rhf"
			},
			{
				"type": "occ",
				"energy": -0.24346,
				"method": "rhf"
			},
			{
				"type": "occ",
				"energy": -0.23937,
				"method": "rhf"
			},
			{
				"type": "occ",
				"energy": -0.20728,
				"method": "rhf"
			},
			{
				"type": "unocc",
				"energy": 0.00409,
				"method": "rhf"
			},
			{
				"type": "unocc",
				"energy": 0.01986,
				"method": "rhf"
			},
			{
				"type": "unocc",
				"energy": 0.07343,
				"method": "rhf"
			},
			{
				"type": "unocc",
				"energy": 0.07807,
				"method": "rhf"
			},
			{
				"type": "unocc",
				"energy": 0.10252,
				"method": "rhf"
			}
		],
		"cosmo_sigma_profile": { 
			"-0.025": 0.0,
			"-0.024": 0.0,
			"-0.023": 0.0,
			"-0.022": 0.0,
			"-0.021": 0.0,
			"-0.02": 0.0,
			"-0.019": 0.0,
			"-0.018": 0.144475139059,
			"-0.017": 0.801798085454,
			"-0.016": 1.34979463424,
			"-0.015": 0.879890849074,
			"-0.014": 1.32797106161,
			"-0.013": 0.745297668489,
			"-0.012": 1.01740131444,
			"-0.011": 0.899971670799,
			"-0.01": 1.86529595953,
			"-0.009": 2.81831281878,
			"-0.008": 1.91523335782,
			"-0.007": 3.2839164994,
			"-0.006": 5.06458975595,
			"-0.005": 10.447170637,
			"-0.004": 16.8053363322,
			"-0.003": 20.1604262378,
			"-0.002": 23.2409281327,
			"-0.001": 25.1719315291,
			"0.0": 21.8567939232,
			"0.001": 14.5436059347,
			"0.002": 11.3749621741,
			"0.003": 10.3767450599,
			"0.004": 12.0907513278,
			"0.005": 13.1419849177,
			"0.006": 10.7658389282,
			"0.007": 4.15435464023,
			"0.008": 4.03910269917,
			"0.009": 2.40444673981,
			"0.01": 2.90360901054,
			"0.011": 3.55517728099,
			"0.012": 2.43165938989,
			"0.013": 0.981530729917,
			"0.014": 0.997177072466,
			"0.015": 0.644431437042,
			"0.016": 0.0,
			"0.017": 0.0,
			"0.018": 0.0,
			"0.019": 0.0,
			"0.02": 0.0,
			"0.021": 0.0,
			"0.022": 0.0,
			"0.023": 0.0,
			"0.024": 0.0,
			"0.025": 0.0
		}
	}
}
