{
	 "smiles": "NC(=NO)C1=CC(OCC2=CN=CC=C2)=CC=C1", 
	 "Tm": 401.15, 
	 "num_atms": 31, 
	 "gaussian": { 
		 "optdone": 1, 
		 "sigma_profile": "yes", 
		 "theory": "DFT", 
		 "functional": "B3LYP", 
		 "basiset": "6-31G**", 
		 "properties": { 
			 "R2extent": 6933.3019, 
			 "electric_dipole_moment_norm": 2.12163328829, 
			 "electric_quadrupole_moment_norm": 18.3915084566, 
			 "total_energy": -817.854536963, 
			 "HOMO_LUMO_gap": 0.17456, 
			 "cosmo_polarized_energy": -17.91, 
			 "cosmo_cavitation_energy": 35.75, 
			 "cosmo_dispersion_energy": -25.76, 
			 "cosmo_repulsion_energy": 2.01, 
			 "cosmo_total_nonelectrostatic_energy": 12.0, 
			 "SMD_solvation_energy": 4.85 
		},
		"coords": [
			{
				"x": -0.3201983897,
				"y": 3.3465931568,
				"z": 3.3511647034,
				"element": "N" 
			},
			{
				"x": 0.8252894959,
				"y": 2.5864312481,
				"z": 3.4950867643,
				"element": "C" 
			},
			{
				"x": 1.6639929728,
				"y": 2.719530081,
				"z": 4.4719989394,
				"element": "N" 
			},
			{
				"x": 1.276247479,
				"y": 3.8209200997,
				"z": 5.2857405326,
				"element": "O" 
			},
			{
				"x": 1.0846492804,
				"y": 1.5120330515,
				"z": 2.5060997289,
				"element": "C" 
			},
			{
				"x": 0.032332023,
				"y": 0.9761917527,
				"z": 1.7586886438,
				"element": "C" 
			},
			{
				"x": 0.2711305442,
				"y": -0.0327735853,
				"z": 0.8168805537,
				"element": "C" 
			},
			{
				"x": -0.8449275643,
				"y": -0.4829474172,
				"z": 0.155898289,
				"element": "O" 
			},
			{
				"x": -0.7378807509,
				"y": -1.6197457639,
				"z": -0.6930170479,
				"element": "C" 
			},
			{
				"x": -0.1680710269,
				"y": -1.3172586089,
				"z": -2.0648695135,
				"element": "C" 
			},
			{
				"x": -0.3493268853,
				"y": -0.066502507,
				"z": -2.6691303025,
				"element": "C" 
			},
			{
				"x": 0.0863546565,
				"y": 0.2431185733,
				"z": -3.8954523326,
				"element": "N" 
			},
			{
				"x": 0.7296965785,
				"y": -0.7103520447,
				"z": -4.5807182707,
				"element": "C" 
			},
			{
				"x": 0.9667712267,
				"y": -1.9904480994,
				"z": -4.0782746952,
				"element": "C" 
			},
			{
				"x": 0.5109024317,
				"y": -2.2947924439,
				"z": -2.7970547628,
				"element": "C" 
			},
			{
				"x": 1.5681034338,
				"y": -0.5133059243,
				"z": 0.6169532077,
				"element": "C" 
			},
			{
				"x": 2.6141805228,
				"y": 0.0211583624,
				"z": 1.3787510263,
				"element": "C" 
			},
			{
				"x": 2.3888673903,
				"y": 1.0235153421,
				"z": 2.3130649669,
				"element": "C" 
			},
			{
				"x": -0.606557736,
				"y": 3.5297600099,
				"z": 2.4002546102,
				"element": "H" 
			},
			{
				"x": -0.3442550316,
				"y": 4.1544485416,
				"z": 3.9588550519,
				"element": "H" 
			},
			{
				"x": 1.9591692342,
				"y": 3.8144019636,
				"z": 5.9667924376,
				"element": "H" 
			},
			{
				"x": -0.9905891999,
				"y": 1.2998264926,
				"z": 1.9166438738,
				"element": "H" 
			},
			{
				"x": -1.7683748356,
				"y": -1.9790469313,
				"z": -0.7912858029,
				"element": "H" 
			},
			{
				"x": -0.1601960129,
				"y": -2.4157400388,
				"z": -0.20393128,
				"element": "H" 
			},
			{
				"x": -0.8649516122,
				"y": 0.7216172979,
				"z": -2.125132607,
				"element": "H" 
			},
			{
				"x": 1.0731310769,
				"y": -0.4372286606,
				"z": -5.5769670566,
				"element": "H" 
			},
			{
				"x": 1.4998670951,
				"y": -2.7252131346,
				"z": -4.6735689481,
				"element": "H" 
			},
			{
				"x": 0.6828545382,
				"y": -3.2806404224,
				"z": -2.3699322337,
				"element": "H" 
			},
			{
				"x": 1.7780946386,
				"y": -1.2717027583,
				"z": -0.1270586784,
				"element": "H" 
			},
			{
				"x": 3.6228792611,
				"y": -0.3494758716,
				"z": 1.220223127,
				"element": "H" 
			},
			{
				"x": 3.2009151654,
				"y": 1.4439282392,
				"z": 2.8938970755,
				"element": "H" 
			}
		],
		 "valence_orbital": [ 
			{
				"type": "occ",
				"energy": -0.26278,
				"method": "rhf"
			},
			{
				"type": "occ",
				"energy": -0.25538,
				"method": "rhf"
			},
			{
				"type": "occ",
				"energy": -0.25392,
				"method": "rhf"
			},
			{
				"type": "occ",
				"energy": -0.22631,
				"method": "rhf"
			},
			{
				"type": "occ",
				"energy": -0.20583,
				"method": "rhf"
			},
			{
				"type": "unocc",
				"energy": -0.03127,
				"method": "rhf"
			},
			{
				"type": "unocc",
				"energy": -0.02295,
				"method": "rhf"
			},
			{
				"type": "unocc",
				"energy": -0.01759,
				"method": "rhf"
			},
			{
				"type": "unocc",
				"energy": 0.00619,
				"method": "rhf"
			},
			{
				"type": "unocc",
				"energy": 0.06399,
				"method": "rhf"
			}
		],
		"cosmo_sigma_profile": { 
			"-0.025": 0.0,
			"-0.024": 0.0,
			"-0.023": 0.0,
			"-0.022": 0.0,
			"-0.021": 0.0,
			"-0.02": 0.0,
			"-0.019": 0.0,
			"-0.018": 0.0,
			"-0.017": 0.550787334337,
			"-0.016": 1.02070912239,
			"-0.015": 0.8284291289,
			"-0.014": 0.839487040921,
			"-0.013": 1.9797032404,
			"-0.012": 1.55042178791,
			"-0.011": 2.07690523626,
			"-0.01": 2.87776792571,
			"-0.009": 3.2743820812,
			"-0.008": 4.64550617402,
			"-0.007": 12.1544445925,
			"-0.006": 17.8986515108,
			"-0.005": 21.4561152624,
			"-0.004": 16.4483233102,
			"-0.003": 16.0963832161,
			"-0.002": 14.3420726196,
			"-0.001": 13.4051926353,
			"0.0": 14.5921176512,
			"0.001": 17.0203803867,
			"0.002": 24.6539959445,
			"0.003": 21.5819131165,
			"0.004": 17.5849903836,
			"0.005": 15.2809196648,
			"0.006": 6.79812213579,
			"0.007": 7.30825558225,
			"0.008": 8.4755062339,
			"0.009": 5.69763087527,
			"0.01": 4.74311747332,
			"0.011": 2.2482462387,
			"0.012": 2.23043258947,
			"0.013": 2.095267956,
			"0.014": 1.32846604664,
			"0.015": 0.721637657454,
			"0.016": 0.95945548672,
			"0.017": 0.335773638375,
			"0.018": 0.0,
			"0.019": 0.0,
			"0.02": 0.0,
			"0.021": 0.0,
			"0.022": 0.0,
			"0.023": 0.0,
			"0.024": 0.0,
			"0.025": 0.0
		}
	}
}
