{
	 "smiles": "[O-][N+](=O)C1=CC=C2C(CC3=CC=CC=C23)=C1", 
	 "Tm": 429.15, 
	 "num_atms": 25, 
	 "gaussian": { 
		 "optdone": 1, 
		 "sigma_profile": "yes", 
		 "theory": "DFT", 
		 "functional": "B3LYP", 
		 "basiset": "6-31G**", 
		 "properties": { 
			 "R2extent": 4871.2941, 
			 "electric_dipole_moment_norm": 5.65794049986, 
			 "electric_quadrupole_moment_norm": 28.1756827048, 
			 "total_energy": -705.926086869, 
			 "HOMO_LUMO_gap": 0.14929, 
			 "cosmo_polarized_energy": -9.84, 
			 "cosmo_cavitation_energy": 29.64, 
			 "cosmo_dispersion_energy": -21.92, 
			 "cosmo_repulsion_energy": 1.66, 
			 "cosmo_total_nonelectrostatic_energy": 9.38, 
			 "SMD_solvation_energy": 6.57 
		},
		"coords": [
			{
				"x": 2.0710958173,
				"y": -0.4891381647,
				"z": 5.3855114418,
				"element": "O" 
			},
			{
				"x": 0.9532577671,
				"y": -0.5673983804,
				"z": 4.8736604819,
				"element": "N" 
			},
			{
				"x": -0.097766869,
				"y": -0.6755383798,
				"z": 5.5079818973,
				"element": "O" 
			},
			{
				"x": 0.8652924986,
				"y": -0.5293417093,
				"z": 3.4091721744,
				"element": "C" 
			},
			{
				"x": 2.0441525222,
				"y": -0.407288085,
				"z": 2.6684219854,
				"element": "C" 
			},
			{
				"x": 1.9742988584,
				"y": -0.3700935596,
				"z": 1.2786065344,
				"element": "C" 
			},
			{
				"x": 0.7240100192,
				"y": -0.4559023468,
				"z": 0.6563737134,
				"element": "C" 
			},
			{
				"x": -0.4552731336,
				"y": -0.5788569698,
				"z": 1.4269580961,
				"element": "C" 
			},
			{
				"x": -1.663850589,
				"y": -0.652291532,
				"z": 0.5173336894,
				"element": "C" 
			},
			{
				"x": -1.0475334735,
				"y": -0.5577935118,
				"z": -0.8631035478,
				"element": "C" 
			},
			{
				"x": -1.6636375799,
				"y": -0.5709413131,
				"z": -2.1098893799,
				"element": "C" 
			},
			{
				"x": -0.8704144779,
				"y": -0.4687594821,
				"z": -3.2576707678,
				"element": "C" 
			},
			{
				"x": 0.5219152796,
				"y": -0.3548953593,
				"z": -3.158065983,
				"element": "C" 
			},
			{
				"x": 1.1462385749,
				"y": -0.341071455,
				"z": -1.9105415313,
				"element": "C" 
			},
			{
				"x": 0.3554193854,
				"y": -0.4430206196,
				"z": -0.7625141698,
				"element": "C" 
			},
			{
				"x": -0.3959980273,
				"y": -0.616774193,
				"z": 2.8108507256,
				"element": "C" 
			},
			{
				"x": 2.988729809,
				"y": -0.3441680539,
				"z": 3.1937068286,
				"element": "H" 
			},
			{
				"x": 2.8841110848,
				"y": -0.2755055296,
				"z": 0.6938275492,
				"element": "H" 
			},
			{
				"x": -2.2236734419,
				"y": -1.5864957319,
				"z": 0.6564513532,
				"element": "H" 
			},
			{
				"x": -2.3708884819,
				"y": 0.1651574994,
				"z": 0.7106438896,
				"element": "H" 
			},
			{
				"x": -2.7433590157,
				"y": -0.6589624589,
				"z": -2.1967481561,
				"element": "H" 
			},
			{
				"x": -1.3392933732,
				"y": -0.4778198308,
				"z": -4.2373024508,
				"element": "H" 
			},
			{
				"x": 1.1204601977,
				"y": -0.2766743504,
				"z": -4.0608692531,
				"element": "H" 
			},
			{
				"x": 2.226541516,
				"y": -0.2525808341,
				"z": -1.8379764862,
				"element": "H" 
			},
			{
				"x": -1.2762348674,
				"y": -0.7101456484,
				"z": 3.4355813656,
				"element": "H" 
			}
		],
		 "valence_orbital": [ 
			{
				"type": "occ",
				"energy": -0.30082,
				"method": "rhf"
			},
			{
				"type": "occ",
				"energy": -0.28363,
				"method": "rhf"
			},
			{
				"type": "occ",
				"energy": -0.27186,
				"method": "rhf"
			},
			{
				"type": "occ",
				"energy": -0.25935,
				"method": "rhf"
			},
			{
				"type": "occ",
				"energy": -0.23651,
				"method": "rhf"
			},
			{
				"type": "unocc",
				"energy": -0.08722,
				"method": "rhf"
			},
			{
				"type": "unocc",
				"energy": -0.0325,
				"method": "rhf"
			},
			{
				"type": "unocc",
				"energy": -0.02545,
				"method": "rhf"
			},
			{
				"type": "unocc",
				"energy": -0.00819,
				"method": "rhf"
			},
			{
				"type": "unocc",
				"energy": 0.03449,
				"method": "rhf"
			}
		],
		"cosmo_sigma_profile": { 
			"-0.025": 0.0,
			"-0.024": 0.0,
			"-0.023": 0.0,
			"-0.022": 0.0,
			"-0.021": 0.0,
			"-0.02": 0.0,
			"-0.019": 0.0,
			"-0.018": 0.0,
			"-0.017": 0.0,
			"-0.016": 0.0,
			"-0.015": 0.0,
			"-0.014": 0.0,
			"-0.013": 0.0,
			"-0.012": 0.0,
			"-0.011": 0.0,
			"-0.01": 0.0,
			"-0.009": 0.0,
			"-0.008": 0.261502820597,
			"-0.007": 6.51848697229,
			"-0.006": 17.0548081772,
			"-0.005": 19.1967673976,
			"-0.004": 21.920082806,
			"-0.003": 18.7339354898,
			"-0.002": 15.8668914425,
			"-0.001": 15.3888974126,
			"0.0": 17.8136043007,
			"0.001": 19.9581263188,
			"0.002": 21.2362332985,
			"0.003": 12.6376900173,
			"0.004": 11.7886203393,
			"0.005": 11.1350622245,
			"0.006": 4.05871754061,
			"0.007": 5.53366245517,
			"0.008": 9.69892202426,
			"0.009": 5.00947288552,
			"0.01": 3.6881805436,
			"0.011": 0.91707941908,
			"0.012": 0.0,
			"0.013": 0.0,
			"0.014": 0.0,
			"0.015": 0.0,
			"0.016": 0.0,
			"0.017": 0.0,
			"0.018": 0.0,
			"0.019": 0.0,
			"0.02": 0.0,
			"0.021": 0.0,
			"0.022": 0.0,
			"0.023": 0.0,
			"0.024": 0.0,
			"0.025": 0.0
		}
	}
}
