{
	 "smiles": "CCCCCC(N)=O", 
	 "Tm": 374.15, 
	 "num_atms": 21, 
	 "gaussian": { 
		 "optdone": 1, 
		 "sigma_profile": "yes", 
		 "theory": "DFT", 
		 "functional": "B3LYP", 
		 "basiset": "6-31G**", 
		 "properties": { 
			 "R2extent": 1192.5618, 
			 "electric_dipole_moment_norm": 3.51524198598, 
			 "electric_quadrupole_moment_norm": 10.3153172966, 
			 "total_energy": -366.481034662, 
			 "HOMO_LUMO_gap": 0.277, 
			 "cosmo_polarized_energy": -11.31, 
			 "cosmo_cavitation_energy": 22.51, 
			 "cosmo_dispersion_energy": -16.41, 
			 "cosmo_repulsion_energy": 1.41, 
			 "cosmo_total_nonelectrostatic_energy": 7.5, 
			 "SMD_solvation_energy": 4.22 
		},
		"coords": [
			{
				"x": 2.5137591297,
				"y": 0.3844800431,
				"z": -0.9965778865,
				"element": "C" 
			},
			{
				"x": 1.1285727993,
				"y": 0.2248447817,
				"z": -1.6340370172,
				"element": "C" 
			},
			{
				"x": 0.0941458177,
				"y": 1.2691446303,
				"z": -1.1777780092,
				"element": "C" 
			},
			{
				"x": -0.3111288542,
				"y": 1.2440081307,
				"z": 0.3070910341,
				"element": "C" 
			},
			{
				"x": -1.0498365674,
				"y": -0.0275068699,
				"z": 0.7565802213,
				"element": "C" 
			},
			{
				"x": -0.114697623,
				"y": -1.1804507535,
				"z": 1.1218800392,
				"element": "C" 
			},
			{
				"x": -0.5735195218,
				"y": -2.4301134944,
				"z": 0.8090895947,
				"element": "N" 
			},
			{
				"x": 0.9530246978,
				"y": -1.0087512824,
				"z": 1.6956262264,
				"element": "O" 
			},
			{
				"x": 2.9089321139,
				"y": 1.3936872067,
				"z": -1.1648437508,
				"element": "H" 
			},
			{
				"x": 2.4802112799,
				"y": 0.2012775849,
				"z": 0.0804761832,
				"element": "H" 
			},
			{
				"x": 3.226139539,
				"y": -0.3252091091,
				"z": -1.430926808,
				"element": "H" 
			},
			{
				"x": 1.2221978617,
				"y": 0.2998198134,
				"z": -2.7256016298,
				"element": "H" 
			},
			{
				"x": 0.7507928242,
				"y": -0.787603846,
				"z": -1.4389668438,
				"element": "H" 
			},
			{
				"x": -0.8140530306,
				"y": 1.157690357,
				"z": -1.7876625226,
				"element": "H" 
			},
			{
				"x": 0.4871970168,
				"y": 2.2693379634,
				"z": -1.4066545237,
				"element": "H" 
			},
			{
				"x": -0.9641160451,
				"y": 2.1047314526,
				"z": 0.4938201613,
				"element": "H" 
			},
			{
				"x": 0.5641954679,
				"y": 1.3689991266,
				"z": 0.9526861558,
				"element": "H" 
			},
			{
				"x": -1.7842966142,
				"y": -0.3401834184,
				"z": 0.0030649797,
				"element": "H" 
			},
			{
				"x": -1.6176046867,
				"y": 0.1906663316,
				"z": 1.6708651448,
				"element": "H" 
			},
			{
				"x": -1.4458306204,
				"y": -2.5844848468,
				"z": 0.3315131131,
				"element": "H" 
			},
			{
				"x": -0.0123849843,
				"y": -3.2245838015,
				"z": 1.076656138,
				"element": "H" 
			}
		],
		 "valence_orbital": [ 
			{
				"type": "occ",
				"energy": -0.31412,
				"method": "rhf"
			},
			{
				"type": "occ",
				"energy": -0.31065,
				"method": "rhf"
			},
			{
				"type": "occ",
				"energy": -0.30784,
				"method": "rhf"
			},
			{
				"type": "occ",
				"energy": -0.26558,
				"method": "rhf"
			},
			{
				"type": "occ",
				"energy": -0.2459,
				"method": "rhf"
			},
			{
				"type": "unocc",
				"energy": 0.0311,
				"method": "rhf"
			},
			{
				"type": "unocc",
				"energy": 0.06892,
				"method": "rhf"
			},
			{
				"type": "unocc",
				"energy": 0.09731,
				"method": "rhf"
			},
			{
				"type": "unocc",
				"energy": 0.11908,
				"method": "rhf"
			},
			{
				"type": "unocc",
				"energy": 0.13511,
				"method": "rhf"
			}
		],
		"cosmo_sigma_profile": { 
			"-0.025": 0.0,
			"-0.024": 0.0,
			"-0.023": 0.0,
			"-0.022": 0.0,
			"-0.021": 0.0,
			"-0.02": 0.0,
			"-0.019": 0.0,
			"-0.018": 0.0,
			"-0.017": 0.0,
			"-0.016": 0.0,
			"-0.015": 0.0272678604103,
			"-0.014": 1.08666349886,
			"-0.013": 2.4795280557,
			"-0.012": 2.34520279784,
			"-0.011": 2.33503404826,
			"-0.01": 2.46012425729,
			"-0.009": 2.3325097248,
			"-0.008": 2.59771361926,
			"-0.007": 1.86320514918,
			"-0.006": 1.93434605395,
			"-0.005": 4.45556361012,
			"-0.004": 4.59296892799,
			"-0.003": 8.59644289487,
			"-0.002": 18.7978969419,
			"-0.001": 21.236352138,
			"0.0": 25.6052966372,
			"0.001": 25.4521951874,
			"0.002": 13.7275312271,
			"0.003": 5.16469487687,
			"0.004": 3.68496922015,
			"0.005": 2.07276857583,
			"0.006": 2.34060373696,
			"0.007": 1.94790170723,
			"0.008": 1.97047411236,
			"0.009": 2.14381906405,
			"0.01": 1.16359368975,
			"0.011": 1.10716965875,
			"0.012": 1.49758054318,
			"0.013": 2.46408579056,
			"0.014": 4.15883087566,
			"0.015": 1.90723998491,
			"0.016": 0.0615374965283,
			"0.017": 0.0,
			"0.018": 0.0,
			"0.019": 0.0,
			"0.02": 0.0,
			"0.021": 0.0,
			"0.022": 0.0,
			"0.023": 0.0,
			"0.024": 0.0,
			"0.025": 0.0
		}
	}
}
