{
	 "smiles": "OC1=C(I)C=C(C=C1I)C#N", 
	 "Tm": 485.15, 
	 "num_atms": 14, 
	 "gaussian": { 
		 "optdone": 1, 
		 "sigma_profile": "no", 
		 "theory": "DFT", 
		 "functional": "B3LYP", 
		 "basiset": "6-31G**", 
		 "properties": { 
			 "R2extent": 2115.1884, 
			 "electric_dipole_moment_norm": 3.96316216802, 
			 "electric_quadrupole_moment_norm": 12.821639784, 
			 "total_energy": -421.273327416, 
			 "HOMO_LUMO_gap": 0.17413, 
			 "cosmo_polarized_energy": -184811.36, 
			 "cosmo_cavitation_energy": 26.14, 
			 "cosmo_dispersion_energy": -21.57, 
			 "cosmo_repulsion_energy": 1.67, 
			 "cosmo_total_nonelectrostatic_energy": 6.23, 
			 "SMD_solvation_energy": 4.57 
		},
		"coords": [
			{
				"x": -0.5601183178,
				"y": 2.7846113327,
				"z": 0.2439718724,
				"element": "O" 
			},
			{
				"x": -0.0571293276,
				"y": 1.5885217051,
				"z": -0.1006990073,
				"element": "C" 
			},
			{
				"x": 0.7317910245,
				"y": 1.5051638796,
				"z": -1.2670062195,
				"element": "C" 
			},
			{
				"x": 1.0827251422,
				"y": 3.2440050272,
				"z": -2.4064568031,
				"element": "I" 
			},
			{
				"x": 1.2801990913,
				"y": 0.2971385264,
				"z": -1.6759320649,
				"element": "C" 
			},
			{
				"x": 1.0544693174,
				"y": -0.8696456961,
				"z": -0.9263433106,
				"element": "C" 
			},
			{
				"x": 0.2727704199,
				"y": -0.8102816931,
				"z": 0.2370425209,
				"element": "C" 
			},
			{
				"x": -0.2702214882,
				"y": 0.4046202228,
				"z": 0.6353223391,
				"element": "C" 
			},
			{
				"x": -1.4514260607,
				"y": 0.4863334013,
				"z": 2.3952690496,
				"element": "I" 
			},
			{
				"x": 1.6194094989,
				"y": -2.1165905667,
				"z": -1.346515141,
				"element": "C" 
			},
			{
				"x": 2.0783914926,
				"y": -3.1296892487,
				"z": -1.6878289578,
				"element": "N" 
			},
			{
				"x": -1.0798641495,
				"y": 2.7022408106,
				"z": 1.0610151209,
				"element": "H" 
			},
			{
				"x": 1.8840223479,
				"y": 0.2488875993,
				"z": -2.5739139744,
				"element": "H" 
			},
			{
				"x": 0.0981810092,
				"y": -1.7092153005,
				"z": 0.8153745758,
				"element": "H" 
			}
		],
		 "valence_orbital": [ 
			{
				"type": "occ",
				"energy": -0.30853,
				"method": "rhf"
			},
			{
				"type": "occ",
				"energy": -0.29837,
				"method": "rhf"
			},
			{
				"type": "occ",
				"energy": -0.27978,
				"method": "rhf"
			},
			{
				"type": "occ",
				"energy": -0.26551,
				"method": "rhf"
			},
			{
				"type": "occ",
				"energy": -0.25298,
				"method": "rhf"
			},
			{
				"type": "unocc",
				"energy": -0.07885,
				"method": "rhf"
			},
			{
				"type": "unocc",
				"energy": -0.06021,
				"method": "rhf"
			},
			{
				"type": "unocc",
				"energy": -0.05276,
				"method": "rhf"
			},
			{
				"type": "unocc",
				"energy": -0.04526,
				"method": "rhf"
			},
			{
				"type": "unocc",
				"energy": 0.01945,
				"method": "rhf"
			}
		],
		"cosmo_sigma_profile": { 
			"0.0": 0.0,
			"0.0": 0.0,
			"0.0": 0.0,
			"0.0": 0.0,
			"0.0": 0.0,
			"0.0": 0.0,
			"0.0": 0.0,
			"0.0": 0.0,
			"0.0": 0.0,
			"0.0": 0.0,
			"0.0": 0.0,
			"0.0": 0.0,
			"0.0": 0.0,
			"0.0": 0.0,
			"0.0": 0.0,
			"0.0": 0.0,
			"0.0": 0.0,
			"0.0": 0.0,
			"0.0": 0.0,
			"0.0": 0.0,
			"0.0": 0.0,
			"0.0": 0.0,
			"0.0": 0.0,
			"0.0": 0.0,
			"0.0": 0.0,
			"0.0": 0.0,
			"0.0": 0.0,
			"0.0": 0.0,
			"0.0": 0.0,
			"0.0": 0.0,
			"0.0": 0.0,
			"0.0": 0.0,
			"0.0": 0.0,
			"0.0": 0.0,
			"0.0": 0.0,
			"0.0": 0.0,
			"0.0": 0.0,
			"0.0": 0.0,
			"0.0": 0.0,
			"0.0": 0.0,
			"0.0": 0.0,
			"0.0": 0.0,
			"0.0": 0.0,
			"0.0": 0.0,
			"0.0": 0.0,
			"0.0": 0.0,
			"0.0": 0.0,
			"0.0": 0.0,
			"0.0": 0.0,
			"0.0": 0.0,
			"0.0": 0.0
		}
	}
}
