{
	 "smiles": "OC1(CN2CCC1CC2)C#N", 
	 "Tm": 431.15, 
	 "num_atms": 23, 
	 "gaussian": { 
		 "optdone": 1, 
		 "sigma_profile": "yes", 
		 "theory": "DFT", 
		 "functional": "B3LYP", 
		 "basiset": "6-31G**", 
		 "properties": { 
			 "R2extent": 1655.6819, 
			 "electric_dipole_moment_norm": 2.92050585002, 
			 "electric_quadrupole_moment_norm": 10.9508893575, 
			 "total_energy": -496.768195109, 
			 "HOMO_LUMO_gap": 0.23473, 
			 "cosmo_polarized_energy": -12.0, 
			 "cosmo_cavitation_energy": 23.97, 
			 "cosmo_dispersion_energy": -17.65, 
			 "cosmo_repulsion_energy": 1.39, 
			 "cosmo_total_nonelectrostatic_energy": 7.71, 
			 "SMD_solvation_energy": 1.34 
		},
		"coords": [
			{
				"x": 1.1199923866,
				"y": 0.7230470154,
				"z": -0.4213419276,
				"element": "O" 
			},
			{
				"x": 0.0499211291,
				"y": -0.2131168053,
				"z": -0.5202820392,
				"element": "C" 
			},
			{
				"x": -1.2160760638,
				"y": 0.3907331554,
				"z": -1.2523969301,
				"element": "C" 
			},
			{
				"x": -2.3451880688,
				"y": 0.5648244701,
				"z": -0.3460864868,
				"element": "N" 
			},
			{
				"x": -1.945649342,
				"y": 1.414251733,
				"z": 0.7912504804,
				"element": "C" 
			},
			{
				"x": -0.8078505824,
				"y": 0.7531086528,
				"z": 1.6272275405,
				"element": "C" 
			},
			{
				"x": -0.3930664259,
				"y": -0.5571839633,
				"z": 0.9270030342,
				"element": "C" 
			},
			{
				"x": -1.608951703,
				"y": -1.502978376,
				"z": 0.8675747956,
				"element": "C" 
			},
			{
				"x": -2.7767148088,
				"y": -0.754031343,
				"z": 0.1500266319,
				"element": "C" 
			},
			{
				"x": 0.5342941838,
				"y": -1.4188393143,
				"z": -1.2313066313,
				"element": "C" 
			},
			{
				"x": 0.9175962902,
				"y": -2.3370876627,
				"z": -1.8311089636,
				"element": "N" 
			},
			{
				"x": 1.4181206231,
				"y": 0.9419575553,
				"z": -1.3151209921,
				"element": "H" 
			},
			{
				"x": -0.9259800875,
				"y": 1.3660715412,
				"z": -1.6599124799,
				"element": "H" 
			},
			{
				"x": -1.5272847397,
				"y": -0.2495118977,
				"z": -2.0837529251,
				"element": "H" 
			},
			{
				"x": -2.835379155,
				"y": 1.5982115041,
				"z": 1.4023265808,
				"element": "H" 
			},
			{
				"x": -1.6234480944,
				"y": 2.380227002,
				"z": 0.3887814607,
				"element": "H" 
			},
			{
				"x": -1.1494011253,
				"y": 0.5119658763,
				"z": 2.6399235521,
				"element": "H" 
			},
			{
				"x": 0.0529503278,
				"y": 1.4181763783,
				"z": 1.7204068841,
				"element": "H" 
			},
			{
				"x": 0.4461233528,
				"y": -1.0259317705,
				"z": 1.4482943908,
				"element": "H" 
			},
			{
				"x": -1.8886550226,
				"y": -1.7853444319,
				"z": 1.8879464081,
				"element": "H" 
			},
			{
				"x": -1.349083175,
				"y": -2.4282450971,
				"z": 0.342530752,
				"element": "H" 
			},
			{
				"x": -3.1508003639,
				"y": -1.332541402,
				"z": -0.7012094307,
				"element": "H" 
			},
			{
				"x": -3.6214695353,
				"y": -0.5952628202,
				"z": 0.8279262951,
				"element": "H" 
			}
		],
		 "valence_orbital": [ 
			{
				"type": "occ",
				"energy": -0.33262,
				"method": "rhf"
			},
			{
				"type": "occ",
				"energy": -0.31991,
				"method": "rhf"
			},
			{
				"type": "occ",
				"energy": -0.31432,
				"method": "rhf"
			},
			{
				"type": "occ",
				"energy": -0.30369,
				"method": "rhf"
			},
			{
				"type": "occ",
				"energy": -0.22071,
				"method": "rhf"
			},
			{
				"type": "unocc",
				"energy": 0.01402,
				"method": "rhf"
			},
			{
				"type": "unocc",
				"energy": 0.03431,
				"method": "rhf"
			},
			{
				"type": "unocc",
				"energy": 0.05834,
				"method": "rhf"
			},
			{
				"type": "unocc",
				"energy": 0.08697,
				"method": "rhf"
			},
			{
				"type": "unocc",
				"energy": 0.09771,
				"method": "rhf"
			}
		],
		"cosmo_sigma_profile": { 
			"-0.025": 0.0,
			"-0.024": 0.0,
			"-0.023": 0.0,
			"-0.022": 0.0,
			"-0.021": 0.0,
			"-0.02": 0.0,
			"-0.019": 0.0,
			"-0.018": 0.0774776461001,
			"-0.017": 1.0778941021,
			"-0.016": 0.79049518492,
			"-0.015": 0.871795696649,
			"-0.014": 1.29172133906,
			"-0.013": 0.888503111705,
			"-0.012": 0.779298691305,
			"-0.011": 0.915114096929,
			"-0.01": 0.875760519894,
			"-0.009": 1.39339849014,
			"-0.008": 1.07771923353,
			"-0.007": 1.19535342668,
			"-0.006": 3.38994641239,
			"-0.005": 8.29537167311,
			"-0.004": 19.8641863194,
			"-0.003": 27.5598711848,
			"-0.002": 21.5804851914,
			"-0.001": 19.3584610426,
			"0.0": 14.8089883263,
			"0.001": 5.38401423848,
			"0.002": 4.33338145812,
			"0.003": 5.32181325087,
			"0.004": 4.3723575062,
			"0.005": 4.60492312742,
			"0.006": 4.3787544228,
			"0.007": 4.54562797303,
			"0.008": 5.01002415906,
			"0.009": 5.81090625287,
			"0.01": 5.1574463114,
			"0.011": 4.09254015968,
			"0.012": 3.38794851328,
			"0.013": 2.31056914868,
			"0.014": 0.941625672864,
			"0.015": 0.377739002062,
			"0.016": 0.472749853895,
			"0.017": 0.14613512339,
			"0.018": 0.0,
			"0.019": 0.0,
			"0.02": 0.0,
			"0.021": 0.0,
			"0.022": 0.0,
			"0.023": 0.0,
			"0.024": 0.0,
			"0.025": 0.0
		}
	}
}
