{
	 "smiles": "CC(NC(=O)C1=CC2=C(S1)N(C)N=C2C)C(O)=O", 
	 "Tm": 543.15, 
	 "num_atms": 31, 
	 "gaussian": { 
		 "optdone": 1, 
		 "sigma_profile": "yes", 
		 "theory": "DFT", 
		 "functional": "B3LYP", 
		 "basiset": "6-31G**", 
		 "properties": { 
			 "R2extent": 7561.7805, 
			 "electric_dipole_moment_norm": 1.94406418104, 
			 "electric_quadrupole_moment_norm": 20.631963576, 
			 "total_energy": -1215.12923009, 
			 "HOMO_LUMO_gap": 0.17654, 
			 "cosmo_polarized_energy": -18.7, 
			 "cosmo_cavitation_energy": 37.62, 
			 "cosmo_dispersion_energy": -27.14, 
			 "cosmo_repulsion_energy": 2.08, 
			 "cosmo_total_nonelectrostatic_energy": 12.57, 
			 "SMD_solvation_energy": 6.43 
		},
		"coords": [
			{
				"x": 0.1236654998,
				"y": 2.2185429585,
				"z": 2.9226877333,
				"element": "C" 
			},
			{
				"x": 0.0838351624,
				"y": 2.5748964678,
				"z": 1.4240688353,
				"element": "C" 
			},
			{
				"x": -0.4056188652,
				"y": 1.4827378373,
				"z": 0.6026854507,
				"element": "N" 
			},
			{
				"x": 0.4297779658,
				"y": 0.4653280785,
				"z": 0.2326568416,
				"element": "C" 
			},
			{
				"x": 1.5843927295,
				"y": 0.3769291211,
				"z": 0.6578909913,
				"element": "O" 
			},
			{
				"x": -0.1216482179,
				"y": -0.5403612164,
				"z": -0.6977466279,
				"element": "C" 
			},
			{
				"x": -1.377440327,
				"y": -0.7035562581,
				"z": -1.2273873546,
				"element": "C" 
			},
			{
				"x": -1.4569642847,
				"y": -1.8368234419,
				"z": -2.0895543418,
				"element": "C" 
			},
			{
				"x": -0.229172961,
				"y": -2.5004386986,
				"z": -2.1790925245,
				"element": "C" 
			},
			{
				"x": 1.0352489773,
				"y": -1.7880660373,
				"z": -1.2256846371,
				"element": "S" 
			},
			{
				"x": -0.3794042494,
				"y": -3.5468422329,
				"z": -3.0192942655,
				"element": "N" 
			},
			{
				"x": 0.5755974769,
				"y": -4.57231087,
				"z": -3.3836830156,
				"element": "C" 
			},
			{
				"x": -1.6722463454,
				"y": -3.610414524,
				"z": -3.4794641322,
				"element": "N" 
			},
			{
				"x": -2.3279661215,
				"y": -2.5893967434,
				"z": -2.9348227644,
				"element": "C" 
			},
			{
				"x": -3.7737751289,
				"y": -2.3598306923,
				"z": -3.2468803547,
				"element": "C" 
			},
			{
				"x": -0.807584049,
				"y": 3.7771460329,
				"z": 1.1579563573,
				"element": "C" 
			},
			{
				"x": -0.3733043947,
				"y": 4.879257364,
				"z": 1.7980363334,
				"element": "O" 
			},
			{
				"x": -1.8029525701,
				"y": 3.7638373563,
				"z": 0.4624852885,
				"element": "O" 
			},
			{
				"x": 0.5144883288,
				"y": 3.0549017642,
				"z": 3.5071859341,
				"element": "H" 
			},
			{
				"x": -0.8764743354,
				"y": 1.9640171759,
				"z": 3.2858891053,
				"element": "H" 
			},
			{
				"x": 0.7784736231,
				"y": 1.3551162197,
				"z": 3.0524209145,
				"element": "H" 
			},
			{
				"x": 1.1040009291,
				"y": 2.8308550015,
				"z": 1.1100066015,
				"element": "H" 
			},
			{
				"x": -1.2673979598,
				"y": 1.6625192493,
				"z": 0.1045195527,
				"element": "H" 
			},
			{
				"x": -2.2117851721,
				"y": -0.0491514146,
				"z": -0.9989625019,
				"element": "H" 
			},
			{
				"x": 0.7155703045,
				"y": -5.2954087733,
				"z": -2.5720814984,
				"element": "H" 
			},
			{
				"x": 0.1855622381,
				"y": -5.0873220001,
				"z": -4.2611694384,
				"element": "H" 
			},
			{
				"x": 1.5399068408,
				"y": -4.1166600233,
				"z": -3.6272841091,
				"element": "H" 
			},
			{
				"x": -4.3874590569,
				"y": -2.3893663404,
				"z": -2.3393178733,
				"element": "H" 
			},
			{
				"x": -4.1311246264,
				"y": -3.1322676685,
				"z": -3.9309947592,
				"element": "H" 
			},
			{
				"x": -3.9310196297,
				"y": -1.381815864,
				"z": -3.7159198864,
				"element": "H" 
			},
			{
				"x": -1.0013817809,
				"y": 5.5900481722,
				"z": 1.5850501458,
				"element": "H" 
			}
		],
		 "valence_orbital": [ 
			{
				"type": "occ",
				"energy": -0.28134,
				"method": "rhf"
			},
			{
				"type": "occ",
				"energy": -0.25911,
				"method": "rhf"
			},
			{
				"type": "occ",
				"energy": -0.25592,
				"method": "rhf"
			},
			{
				"type": "occ",
				"energy": -0.23142,
				"method": "rhf"
			},
			{
				"type": "occ",
				"energy": -0.21683,
				"method": "rhf"
			},
			{
				"type": "unocc",
				"energy": -0.04029,
				"method": "rhf"
			},
			{
				"type": "unocc",
				"energy": -0.00836,
				"method": "rhf"
			},
			{
				"type": "unocc",
				"energy": 0.0185,
				"method": "rhf"
			},
			{
				"type": "unocc",
				"energy": 0.0214,
				"method": "rhf"
			},
			{
				"type": "unocc",
				"energy": 0.06073,
				"method": "rhf"
			}
		],
		"cosmo_sigma_profile": { 
			"-0.025": 0.0,
			"-0.024": 0.0,
			"-0.023": 0.0,
			"-0.022": 0.0,
			"-0.021": 0.0,
			"-0.02": 0.0,
			"-0.019": 0.444205962652,
			"-0.018": 0.961385904343,
			"-0.017": 1.09807753969,
			"-0.016": 0.859413598025,
			"-0.015": 0.743738819027,
			"-0.014": 0.550928590592,
			"-0.013": 1.18533022531,
			"-0.012": 1.42092504277,
			"-0.011": 2.2566224415,
			"-0.01": 1.61390996633,
			"-0.009": 2.54965513791,
			"-0.008": 2.04321700371,
			"-0.007": 7.56057508006,
			"-0.006": 13.5059717137,
			"-0.005": 18.8925794167,
			"-0.004": 23.7695919727,
			"-0.003": 26.5987480782,
			"-0.002": 21.5601963339,
			"-0.001": 23.676198251,
			"0.0": 21.9377366447,
			"0.001": 16.6332813867,
			"0.002": 22.5384743668,
			"0.003": 22.305069038,
			"0.004": 12.5039352863,
			"0.005": 8.39927096282,
			"0.006": 6.1461691965,
			"0.007": 6.04784974109,
			"0.008": 5.11058392682,
			"0.009": 5.04070304136,
			"0.01": 5.75050440661,
			"0.011": 5.82751648272,
			"0.012": 3.28975494805,
			"0.013": 5.00789860385,
			"0.014": 2.38982009439,
			"0.015": 0.552854825121,
			"0.016": 0.0,
			"0.017": 0.0,
			"0.018": 0.0,
			"0.019": 0.0,
			"0.02": 0.0,
			"0.021": 0.0,
			"0.022": 0.0,
			"0.023": 0.0,
			"0.024": 0.0,
			"0.025": 0.0
		}
	}
}
