{
	 "smiles": "FC(F)(F)C1=NN2C(S1)=NC(=NC2=S)C1=CC=CC=C1", 
	 "Tm": 495.15, 
	 "num_atms": 25, 
	 "gaussian": { 
		 "optdone": 1, 
		 "sigma_profile": "yes", 
		 "theory": "DFT", 
		 "functional": "B3LYP", 
		 "basiset": "6-31G**", 
		 "properties": { 
			 "R2extent": 10450.3435, 
			 "electric_dipole_moment_norm": 5.39821711031, 
			 "electric_quadrupole_moment_norm": 21.1468074494, 
			 "total_energy": -1737.0440508, 
			 "HOMO_LUMO_gap": 0.1135, 
			 "cosmo_polarized_energy": -16.01, 
			 "cosmo_cavitation_energy": 36.06, 
			 "cosmo_dispersion_energy": -26.77, 
			 "cosmo_repulsion_energy": 1.89, 
			 "cosmo_total_nonelectrostatic_energy": 11.19, 
			 "SMD_solvation_energy": 3.07 
		},
		"coords": [
			{
				"x": 2.2926794686,
				"y": -3.1783177947,
				"z": 5.4879546462,
				"element": "F" 
			},
			{
				"x": 1.9927736469,
				"y": -1.8657461029,
				"z": 5.4330570319,
				"element": "C" 
			},
			{
				"x": 3.0096959704,
				"y": -1.1667689493,
				"z": 5.9286804279,
				"element": "F" 
			},
			{
				"x": 0.905215246,
				"y": -1.6670974056,
				"z": 6.20348817,
				"element": "F" 
			},
			{
				"x": 1.692275073,
				"y": -1.4664592218,
				"z": 4.007004372,
				"element": "C" 
			},
			{
				"x": 2.3681924851,
				"y": -0.557846545,
				"z": 3.3965071949,
				"element": "N" 
			},
			{
				"x": 1.8973921771,
				"y": -0.3923323059,
				"z": 2.1337758095,
				"element": "N" 
			},
			{
				"x": 0.835895198,
				"y": -1.1867116135,
				"z": 1.7553919325,
				"element": "C" 
			},
			{
				"x": 0.3898438078,
				"y": -2.2320006203,
				"z": 3.1004348205,
				"element": "S" 
			},
			{
				"x": 0.2636035625,
				"y": -1.1633687912,
				"z": 0.5968391138,
				"element": "N" 
			},
			{
				"x": 0.8123978623,
				"y": -0.2451690525,
				"z": -0.2799083169,
				"element": "C" 
			},
			{
				"x": 1.8247066376,
				"y": 0.5539389772,
				"z": -0.0067442474,
				"element": "N" 
			},
			{
				"x": 2.4539821031,
				"y": 0.5609614492,
				"z": 1.1976570417,
				"element": "C" 
			},
			{
				"x": 3.7211658913,
				"y": 1.5281739351,
				"z": 1.6112521707,
				"element": "S" 
			},
			{
				"x": 0.1997013495,
				"y": -0.1737580389,
				"z": -1.6183140001,
				"element": "C" 
			},
			{
				"x": 0.6988657993,
				"y": 0.7340050396,
				"z": -2.5698766776,
				"element": "C" 
			},
			{
				"x": 0.1235578889,
				"y": 0.8046599685,
				"z": -3.8340779159,
				"element": "C" 
			},
			{
				"x": -0.9524569556,
				"y": -0.0257119654,
				"z": -4.163909456,
				"element": "C" 
			},
			{
				"x": -1.4527842349,
				"y": -0.9293851532,
				"z": -3.2232417409,
				"element": "C" 
			},
			{
				"x": -0.8817985029,
				"y": -1.0056832856,
				"z": -1.9555104096,
				"element": "C" 
			},
			{
				"x": 1.5333447008,
				"y": 1.3691445729,
				"z": -2.2953512116,
				"element": "H" 
			},
			{
				"x": 0.5125554004,
				"y": 1.5070821291,
				"z": -4.5650518906,
				"element": "H" 
			},
			{
				"x": -1.3994912317,
				"y": 0.0320665588,
				"z": -5.1522833551,
				"element": "H" 
			},
			{
				"x": -2.2881792335,
				"y": -1.5744390208,
				"z": -3.4785340625,
				"element": "H" 
			},
			{
				"x": -1.2616341101,
				"y": -1.7028367639,
				"z": -1.2178394472,
				"element": "H" 
			}
		],
		 "valence_orbital": [ 
			{
				"type": "occ",
				"energy": -0.28035,
				"method": "rhf"
			},
			{
				"type": "occ",
				"energy": -0.26593,
				"method": "rhf"
			},
			{
				"type": "occ",
				"energy": -0.26359,
				"method": "rhf"
			},
			{
				"type": "occ",
				"energy": -0.23542,
				"method": "rhf"
			},
			{
				"type": "occ",
				"energy": -0.21841,
				"method": "rhf"
			},
			{
				"type": "unocc",
				"energy": -0.10491,
				"method": "rhf"
			},
			{
				"type": "unocc",
				"energy": -0.0642,
				"method": "rhf"
			},
			{
				"type": "unocc",
				"energy": -0.05738,
				"method": "rhf"
			},
			{
				"type": "unocc",
				"energy": -0.04755,
				"method": "rhf"
			},
			{
				"type": "unocc",
				"energy": -0.01248,
				"method": "rhf"
			}
		],
		"cosmo_sigma_profile": { 
			"-0.025": 0.0,
			"-0.024": 0.0,
			"-0.023": 0.0,
			"-0.022": 0.0,
			"-0.021": 0.0,
			"-0.02": 0.0,
			"-0.019": 0.0,
			"-0.018": 0.0,
			"-0.017": 0.0,
			"-0.016": 0.0,
			"-0.015": 0.0,
			"-0.014": 0.0,
			"-0.013": 0.0,
			"-0.012": 0.0706983003191,
			"-0.011": 0.99025533524,
			"-0.01": 2.90534014402,
			"-0.009": 4.04502721261,
			"-0.008": 3.76162722414,
			"-0.007": 8.14021454667,
			"-0.006": 16.3851248013,
			"-0.005": 21.3603176956,
			"-0.004": 21.9915035016,
			"-0.003": 18.8138386413,
			"-0.002": 17.429483023,
			"-0.001": 18.3816608624,
			"0.0": 19.9948528589,
			"0.001": 38.5517239732,
			"0.002": 25.5549479409,
			"0.003": 20.4078802549,
			"0.004": 13.8322795816,
			"0.005": 7.52057537519,
			"0.006": 7.76141062753,
			"0.007": 7.93845089155,
			"0.008": 5.21332521744,
			"0.009": 4.76896151792,
			"0.01": 3.96809024409,
			"0.011": 3.65586581302,
			"0.012": 3.32229977198,
			"0.013": 1.45656992389,
			"0.014": 0.0156862317271,
			"0.015": 0.0,
			"0.016": 0.0,
			"0.017": 0.0,
			"0.018": 0.0,
			"0.019": 0.0,
			"0.02": 0.0,
			"0.021": 0.0,
			"0.022": 0.0,
			"0.023": 0.0,
			"0.024": 0.0,
			"0.025": 0.0
		}
	}
}
