{
	 "smiles": "CC1=C(C=CC=C1)C1=NN=C(S)O1", 
	 "Tm": 462.15, 
	 "num_atms": 21, 
	 "gaussian": { 
		 "optdone": 1, 
		 "sigma_profile": "yes", 
		 "theory": "DFT", 
		 "functional": "B3LYP", 
		 "basiset": "6-31G**", 
		 "properties": { 
			 "R2extent": 3477.7368, 
			 "electric_dipole_moment_norm": 3.97816562878, 
			 "electric_quadrupole_moment_norm": 13.8689585298, 
			 "total_energy": -930.660946439, 
			 "HOMO_LUMO_gap": 0.18079, 
			 "cosmo_polarized_energy": -11.09, 
			 "cosmo_cavitation_energy": 27.23, 
			 "cosmo_dispersion_energy": -20.79, 
			 "cosmo_repulsion_energy": 1.58, 
			 "cosmo_total_nonelectrostatic_energy": 8.03, 
			 "SMD_solvation_energy": 2.96 
		},
		"coords": [
			{
				"x": 0.5756015171,
				"y": 2.434815681,
				"z": 0.5875296837,
				"element": "C" 
			},
			{
				"x": 0.1235102505,
				"y": 1.4463569173,
				"z": 1.6323681373,
				"element": "C" 
			},
			{
				"x": 0.0812399932,
				"y": 0.0460956532,
				"z": 1.4095927141,
				"element": "C" 
			},
			{
				"x": -0.3525874595,
				"y": -0.8169067988,
				"z": 2.4331597431,
				"element": "C" 
			},
			{
				"x": -0.744506997,
				"y": -0.3202190256,
				"z": 3.6706023392,
				"element": "C" 
			},
			{
				"x": -0.7068635991,
				"y": 1.0551541,
				"z": 3.9005178668,
				"element": "C" 
			},
			{
				"x": -0.2779420029,
				"y": 1.9141260013,
				"z": 2.8899437523,
				"element": "C" 
			},
			{
				"x": 0.4790711746,
				"y": -0.5409374356,
				"z": 0.1332240852,
				"element": "C" 
			},
			{
				"x": 0.911265894,
				"y": 0.0142044003,
				"z": -0.9619212971,
				"element": "N" 
			},
			{
				"x": 1.1473553181,
				"y": -1.0070907619,
				"z": -1.8832967425,
				"element": "N" 
			},
			{
				"x": 0.8388385972,
				"y": -2.1063093774,
				"z": -1.2736394015,
				"element": "C" 
			},
			{
				"x": 0.9325145305,
				"y": -3.7297643194,
				"z": -1.9373407436,
				"element": "S" 
			},
			{
				"x": 0.4078269723,
				"y": -1.9157751798,
				"z": 0.0004451796,
				"element": "O" 
			},
			{
				"x": -0.0382905093,
				"y": 2.3751971224,
				"z": -0.3160421578,
				"element": "H" 
			},
			{
				"x": 0.5244098233,
				"y": 3.4526006724,
				"z": 0.9830189275,
				"element": "H" 
			},
			{
				"x": 1.5996853719,
				"y": 2.2340727772,
				"z": 0.259175928,
				"element": "H" 
			},
			{
				"x": -0.3793119313,
				"y": -1.884722786,
				"z": 2.2475767912,
				"element": "H" 
			},
			{
				"x": -1.0761747888,
				"y": -1.0019328664,
				"z": 4.4476728742,
				"element": "H" 
			},
			{
				"x": -1.0098047208,
				"y": 1.4594594355,
				"z": 4.8620059871,
				"element": "H" 
			},
			{
				"x": -0.2507028089,
				"y": 2.9844972461,
				"z": 3.0747195348,
				"element": "H" 
			},
			{
				"x": 0.4887653748,
				"y": -4.3301214561,
				"z": -0.8165132015,
				"element": "H" 
			}
		],
		 "valence_orbital": [ 
			{
				"type": "occ",
				"energy": -0.32108,
				"method": "rhf"
			},
			{
				"type": "occ",
				"energy": -0.28015,
				"method": "rhf"
			},
			{
				"type": "occ",
				"energy": -0.27955,
				"method": "rhf"
			},
			{
				"type": "occ",
				"energy": -0.25499,
				"method": "rhf"
			},
			{
				"type": "occ",
				"energy": -0.23207,
				"method": "rhf"
			},
			{
				"type": "unocc",
				"energy": -0.05128,
				"method": "rhf"
			},
			{
				"type": "unocc",
				"energy": -0.00924,
				"method": "rhf"
			},
			{
				"type": "unocc",
				"energy": -0.0056,
				"method": "rhf"
			},
			{
				"type": "unocc",
				"energy": 0.01172,
				"method": "rhf"
			},
			{
				"type": "unocc",
				"energy": 0.04731,
				"method": "rhf"
			}
		],
		"cosmo_sigma_profile": { 
			"-0.025": 0.0,
			"-0.024": 0.0,
			"-0.023": 0.0,
			"-0.022": 0.0,
			"-0.021": 0.0,
			"-0.02": 0.0,
			"-0.019": 0.0,
			"-0.018": 0.0,
			"-0.017": 0.0,
			"-0.016": 0.0,
			"-0.015": 0.0,
			"-0.014": 0.146755872568,
			"-0.013": 2.03549895733,
			"-0.012": 1.52763007068,
			"-0.011": 1.28922897895,
			"-0.01": 1.75344522129,
			"-0.009": 1.26626743324,
			"-0.008": 1.46280172884,
			"-0.007": 2.47859256046,
			"-0.006": 8.59099278167,
			"-0.005": 12.4578956399,
			"-0.004": 16.4253858441,
			"-0.003": 16.5206356941,
			"-0.002": 17.73504178,
			"-0.001": 20.1155214851,
			"0.0": 22.7561857831,
			"0.001": 21.0561911142,
			"0.002": 14.9264371076,
			"0.003": 15.0736614129,
			"0.004": 15.6816989656,
			"0.005": 6.85870412344,
			"0.006": 2.92430517777,
			"0.007": 2.03269908374,
			"0.008": 1.69783315304,
			"0.009": 2.45798417604,
			"0.01": 2.73861525782,
			"0.011": 3.11317798964,
			"0.012": 3.06793075493,
			"0.013": 1.67993019136,
			"0.014": 1.12118175831,
			"0.015": 0.400863645245,
			"0.016": 0.0,
			"0.017": 0.0,
			"0.018": 0.0,
			"0.019": 0.0,
			"0.02": 0.0,
			"0.021": 0.0,
			"0.022": 0.0,
			"0.023": 0.0,
			"0.024": 0.0,
			"0.025": 0.0
		}
	}
}
