{
	 "smiles": "COC1=C(Cl)C=C(C=C1)C(=O)CBr", 
	 "Tm": 373.15, 
	 "num_atms": 21, 
	 "gaussian": { 
		 "optdone": 1, 
		 "sigma_profile": "yes", 
		 "theory": "DFT", 
		 "functional": "B3LYP", 
		 "basiset": "6-31G**", 
		 "properties": { 
			 "R2extent": 6153.8161, 
			 "electric_dipole_moment_norm": 4.09337096535, 
			 "electric_quadrupole_moment_norm": 6.47422985613, 
			 "total_energy": -3529.8024498, 
			 "HOMO_LUMO_gap": 0.17515, 
			 "cosmo_polarized_energy": -10.18, 
			 "cosmo_cavitation_energy": 29.53, 
			 "cosmo_dispersion_energy": -21.68, 
			 "cosmo_repulsion_energy": 1.73, 
			 "cosmo_total_nonelectrostatic_energy": 9.58, 
			 "SMD_solvation_energy": 5.06 
		},
		"coords": [
			{
				"x": -1.6143316921,
				"y": -0.3015386245,
				"z": -2.7588179516,
				"element": "C" 
			},
			{
				"x": -1.6149137409,
				"y": -0.9985035304,
				"z": -1.50585263,
				"element": "O" 
			},
			{
				"x": -0.9939984067,
				"y": -0.359075746,
				"z": -0.4730003875,
				"element": "C" 
			},
			{
				"x": -1.6482791601,
				"y": 0.6208300824,
				"z": 0.298687418,
				"element": "C" 
			},
			{
				"x": -3.2959972951,
				"y": 1.0745185453,
				"z": -0.0871772071,
				"element": "Cl" 
			},
			{
				"x": -1.0092797475,
				"y": 1.2140930197,
				"z": 1.3779657343,
				"element": "C" 
			},
			{
				"x": 0.3018511693,
				"y": 0.8439146858,
				"z": 1.7167522667,
				"element": "C" 
			},
			{
				"x": 0.9543229097,
				"y": -0.1400384555,
				"z": 0.9587524633,
				"element": "C" 
			},
			{
				"x": 0.3094841234,
				"y": -0.7288558721,
				"z": -0.1240032364,
				"element": "C" 
			},
			{
				"x": 0.9317901676,
				"y": 1.5473549994,
				"z": 2.8720968251,
				"element": "C" 
			},
			{
				"x": 0.3348919787,
				"y": 2.4044562985,
				"z": 3.5036858624,
				"element": "O" 
			},
			{
				"x": 2.3756837887,
				"y": 1.2358264011,
				"z": 3.2554828718,
				"element": "C" 
			},
			{
				"x": 2.5138432024,
				"y": -0.5215658994,
				"z": 4.1567038895,
				"element": "Br" 
			},
			{
				"x": -0.5887456859,
				"y": -0.134975328,
				"z": -3.1107682709,
				"element": "H" 
			},
			{
				"x": -2.1365942684,
				"y": 0.6578275767,
				"z": -2.6843381383,
				"element": "H" 
			},
			{
				"x": -2.1407659177,
				"y": -0.9469960955,
				"z": -3.4632972357,
				"element": "H" 
			},
			{
				"x": -1.5110822052,
				"y": 1.9673301628,
				"z": 1.9743022561,
				"element": "H" 
			},
			{
				"x": 1.9544299223,
				"y": -0.4674542973,
				"z": 1.2190245399,
				"element": "H" 
			},
			{
				"x": 0.7934270907,
				"y": -1.5001763727,
				"z": -0.7141386203,
				"element": "H" 
			},
			{
				"x": 2.7091152944,
				"y": 1.9749652296,
				"z": 3.9792590362,
				"element": "H" 
			},
			{
				"x": 3.0491484724,
				"y": 1.1913632203,
				"z": 2.3998805145,
				"element": "H" 
			}
		],
		 "valence_orbital": [ 
			{
				"type": "occ",
				"energy": -0.29228,
				"method": "rhf"
			},
			{
				"type": "occ",
				"energy": -0.2882,
				"method": "rhf"
			},
			{
				"type": "occ",
				"energy": -0.26937,
				"method": "rhf"
			},
			{
				"type": "occ",
				"energy": -0.26521,
				"method": "rhf"
			},
			{
				"type": "occ",
				"energy": -0.25593,
				"method": "rhf"
			},
			{
				"type": "unocc",
				"energy": -0.08078,
				"method": "rhf"
			},
			{
				"type": "unocc",
				"energy": -0.02764,
				"method": "rhf"
			},
			{
				"type": "unocc",
				"energy": -0.01879,
				"method": "rhf"
			},
			{
				"type": "unocc",
				"energy": 0.02128,
				"method": "rhf"
			},
			{
				"type": "unocc",
				"energy": 0.03973,
				"method": "rhf"
			}
		],
		"cosmo_sigma_profile": { 
			"-0.025": 0.0,
			"-0.024": 0.0,
			"-0.023": 0.0,
			"-0.022": 0.0,
			"-0.021": 0.0,
			"-0.02": 0.0,
			"-0.019": 0.0,
			"-0.018": 0.0,
			"-0.017": 0.0,
			"-0.016": 0.0,
			"-0.015": 0.0,
			"-0.014": 0.0,
			"-0.013": 0.0,
			"-0.012": 0.0,
			"-0.011": 0.0,
			"-0.01": 0.863994593064,
			"-0.009": 3.5477224423,
			"-0.008": 5.21267379525,
			"-0.007": 8.17959114818,
			"-0.006": 11.1853789705,
			"-0.005": 14.1113161446,
			"-0.004": 16.4830974725,
			"-0.003": 19.1258672372,
			"-0.002": 13.7330214179,
			"-0.001": 13.8360665124,
			"0.0": 22.8484044132,
			"0.001": 25.0929135297,
			"0.002": 19.2519956523,
			"0.003": 15.713481017,
			"0.004": 17.4102733997,
			"0.005": 12.3077117941,
			"0.006": 4.21152332407,
			"0.007": 2.32268012648,
			"0.008": 3.30117504649,
			"0.009": 3.7444928565,
			"0.01": 4.58252803263,
			"0.011": 3.86647410886,
			"0.012": 0.643945488014,
			"0.013": 0.0,
			"0.014": 0.0,
			"0.015": 0.0,
			"0.016": 0.0,
			"0.017": 0.0,
			"0.018": 0.0,
			"0.019": 0.0,
			"0.02": 0.0,
			"0.021": 0.0,
			"0.022": 0.0,
			"0.023": 0.0,
			"0.024": 0.0,
			"0.025": 0.0
		}
	}
}
