{
	 "smiles": "CC(CC(C)(C)O)OC(O)C(Cl)(Cl)Cl", 
	 "Tm": 376.15, 
	 "num_atms": 29, 
	 "gaussian": { 
		 "optdone": 1, 
		 "sigma_profile": "yes", 
		 "theory": "DFT", 
		 "functional": "B3LYP", 
		 "basiset": "6-31G**", 
		 "properties": { 
			 "R2extent": 8882.4103, 
			 "electric_dipole_moment_norm": 4.29475801763, 
			 "electric_quadrupole_moment_norm": 11.9579563869, 
			 "total_energy": -1920.11981229, 
			 "HOMO_LUMO_gap": 0.23769, 
			 "cosmo_polarized_energy": -11.29, 
			 "cosmo_cavitation_energy": 35.48, 
			 "cosmo_dispersion_energy": -24.6, 
			 "cosmo_repulsion_energy": 1.95, 
			 "cosmo_total_nonelectrostatic_energy": 12.82, 
			 "SMD_solvation_energy": 5.06 
		},
		"coords": [
			{
				"x": 1.4170121462,
				"y": -1.9623017999,
				"z": -2.5122456743,
				"element": "C" 
			},
			{
				"x": 1.030301548,
				"y": -0.584420232,
				"z": -1.9806673926,
				"element": "C" 
			},
			{
				"x": 0.2033373588,
				"y": -0.5615068999,
				"z": -0.6814760943,
				"element": "C" 
			},
			{
				"x": -1.2055874267,
				"y": -1.205050586,
				"z": -0.7482824926,
				"element": "C" 
			},
			{
				"x": -2.1428911578,
				"y": -0.4832191232,
				"z": 0.2336837312,
				"element": "C" 
			},
			{
				"x": -1.1805768307,
				"y": -2.7086986935,
				"z": -0.4239234925,
				"element": "C" 
			},
			{
				"x": -1.6763613495,
				"y": -1.002241951,
				"z": -2.0920124351,
				"element": "O" 
			},
			{
				"x": 2.1841220405,
				"y": 0.294404759,
				"z": -1.8365572609,
				"element": "O" 
			},
			{
				"x": 3.281523099,
				"y": -0.1474252076,
				"z": -1.1171806563,
				"element": "C" 
			},
			{
				"x": 3.1299539223,
				"y": -0.0397917742,
				"z": 0.2675414383,
				"element": "O" 
			},
			{
				"x": 4.5067712684,
				"y": 0.6994468712,
				"z": -1.6147139813,
				"element": "C" 
			},
			{
				"x": 4.7445250023,
				"y": 0.4617302395,
				"z": -3.3770355331,
				"element": "Cl" 
			},
			{
				"x": 4.2207535773,
				"y": 2.4468740994,
				"z": -1.2694718561,
				"element": "Cl" 
			},
			{
				"x": 5.9829481839,
				"y": 0.1582182731,
				"z": -0.7454400474,
				"element": "Cl" 
			},
			{
				"x": 1.8553559251,
				"y": -2.6118029717,
				"z": -1.7469334328,
				"element": "H" 
			},
			{
				"x": 2.1290642085,
				"y": -1.8606136506,
				"z": -3.3369628312,
				"element": "H" 
			},
			{
				"x": 0.5207389231,
				"y": -2.4520121148,
				"z": -2.8990322588,
				"element": "H" 
			},
			{
				"x": 0.4512480025,
				"y": -0.075766862,
				"z": -2.7529895718,
				"element": "H" 
			},
			{
				"x": 0.7713408236,
				"y": -1.0251672129,
				"z": 0.1312240647,
				"element": "H" 
			},
			{
				"x": 0.091868754,
				"y": 0.4970142349,
				"z": -0.4205421464,
				"element": "H" 
			},
			{
				"x": -1.7604273047,
				"y": -0.5312277409,
				"z": 1.2587899054,
				"element": "H" 
			},
			{
				"x": -2.247241632,
				"y": 0.5680958163,
				"z": -0.0495378716,
				"element": "H" 
			},
			{
				"x": -3.1392857561,
				"y": -0.9421682278,
				"z": 0.2304515,
				"element": "H" 
			},
			{
				"x": -0.8365861863,
				"y": -2.8836354835,
				"z": 0.6008007644,
				"element": "H" 
			},
			{
				"x": -0.5272861834,
				"y": -3.2594534224,
				"z": -1.1030672414,
				"element": "H" 
			},
			{
				"x": -2.1892023502,
				"y": -3.1313394466,
				"z": -0.509679105,
				"element": "H" 
			},
			{
				"x": -2.5746228828,
				"y": -1.3546969546,
				"z": -2.1450843799,
				"element": "H" 
			},
			{
				"x": 3.538434542,
				"y": -1.1939479133,
				"z": -1.3122434636,
				"element": "H" 
			},
			{
				"x": 2.8292697349,
				"y": 0.864003975,
				"z": 0.450987815,
				"element": "H" 
			}
		],
		 "valence_orbital": [ 
			{
				"type": "occ",
				"energy": -0.30917,
				"method": "rhf"
			},
			{
				"type": "occ",
				"energy": -0.30233,
				"method": "rhf"
			},
			{
				"type": "occ",
				"energy": -0.30008,
				"method": "rhf"
			},
			{
				"type": "occ",
				"energy": -0.27614,
				"method": "rhf"
			},
			{
				"type": "occ",
				"energy": -0.27254,
				"method": "rhf"
			},
			{
				"type": "unocc",
				"energy": -0.03485,
				"method": "rhf"
			},
			{
				"type": "unocc",
				"energy": 0.00568,
				"method": "rhf"
			},
			{
				"type": "unocc",
				"energy": 0.00805,
				"method": "rhf"
			},
			{
				"type": "unocc",
				"energy": 0.05571,
				"method": "rhf"
			},
			{
				"type": "unocc",
				"energy": 0.08637,
				"method": "rhf"
			}
		],
		"cosmo_sigma_profile": { 
			"-0.025": 0.0,
			"-0.024": 0.0,
			"-0.023": 0.0,
			"-0.022": 0.0,
			"-0.021": 0.0,
			"-0.02": 0.0,
			"-0.019": 0.0,
			"-0.018": 0.0,
			"-0.017": 0.0,
			"-0.016": 0.017033595273,
			"-0.015": 0.825505260809,
			"-0.014": 1.66388936014,
			"-0.013": 1.43092828307,
			"-0.012": 1.32597338844,
			"-0.011": 1.61204447214,
			"-0.01": 1.55733051629,
			"-0.009": 2.29891738386,
			"-0.008": 2.35858954049,
			"-0.007": 4.36832547338,
			"-0.006": 4.67758392115,
			"-0.005": 5.8288331469,
			"-0.004": 12.0420474404,
			"-0.003": 29.5876436201,
			"-0.002": 30.3829485814,
			"-0.001": 28.1778417674,
			"0.0": 32.1308194368,
			"0.001": 27.3372605042,
			"0.002": 20.8531251674,
			"0.003": 30.5904532587,
			"0.004": 11.1194994554,
			"0.005": 6.36034309814,
			"0.006": 4.6971744103,
			"0.007": 3.30990072557,
			"0.008": 5.492544414,
			"0.009": 3.74271376777,
			"0.01": 3.59972051746,
			"0.011": 2.80990094389,
			"0.012": 1.57121922907,
			"0.013": 0.486195167126,
			"0.014": 0.07525855091,
			"0.015": 0.0,
			"0.016": 0.0,
			"0.017": 0.0,
			"0.018": 0.0,
			"0.019": 0.0,
			"0.02": 0.0,
			"0.021": 0.0,
			"0.022": 0.0,
			"0.023": 0.0,
			"0.024": 0.0,
			"0.025": 0.0
		}
	}
}
