{
	 "smiles": "ClC1=NC2=C(C=CC=C2)C(=C1)C1=CC=CC=C1", 
	 "Tm": 360.15, 
	 "num_atms": 27, 
	 "gaussian": { 
		 "optdone": 1, 
		 "sigma_profile": "yes", 
		 "theory": "DFT", 
		 "functional": "B3LYP", 
		 "basiset": "6-31G**", 
		 "properties": { 
			 "R2extent": 5693.6054, 
			 "electric_dipole_moment_norm": 4.18265477897, 
			 "electric_quadrupole_moment_norm": 18.0350301311, 
			 "total_energy": -1092.58181806, 
			 "HOMO_LUMO_gap": 0.17797, 
			 "cosmo_polarized_energy": -7.9, 
			 "cosmo_cavitation_energy": 33.33, 
			 "cosmo_dispersion_energy": -23.93, 
			 "cosmo_repulsion_energy": 1.86, 
			 "cosmo_total_nonelectrostatic_energy": 11.26, 
			 "SMD_solvation_energy": 3.61 
		},
		"coords": [
			{
				"x": -5.3433748469,
				"y": -1.2656946427,
				"z": 0.1279706932,
				"element": "Cl" 
			},
			{
				"x": -3.6146181384,
				"y": -1.0542115813,
				"z": -0.1763531495,
				"element": "C" 
			},
			{
				"x": -3.1081364953,
				"y": -1.6857231409,
				"z": -1.1909531486,
				"element": "N" 
			},
			{
				"x": -1.7706397165,
				"y": -1.5236371221,
				"z": -1.4285328618,
				"element": "C" 
			},
			{
				"x": -0.9377427472,
				"y": -0.6972827918,
				"z": -0.6085168988,
				"element": "C" 
			},
			{
				"x": 0.4411489851,
				"y": -0.5854040037,
				"z": -0.9272081902,
				"element": "C" 
			},
			{
				"x": 0.9667266711,
				"y": -1.2611384893,
				"z": -2.007110022,
				"element": "C" 
			},
			{
				"x": 0.1398438698,
				"y": -2.0774607237,
				"z": -2.8156553197,
				"element": "C" 
			},
			{
				"x": -1.2019291447,
				"y": -2.207180444,
				"z": -2.5334773873,
				"element": "C" 
			},
			{
				"x": -1.5514691547,
				"y": -0.0246470944,
				"z": 0.4973775784,
				"element": "C" 
			},
			{
				"x": -2.9011597524,
				"y": -0.2084615305,
				"z": 0.7101572428,
				"element": "C" 
			},
			{
				"x": -0.7625319388,
				"y": 0.8593188279,
				"z": 1.4093510816,
				"element": "C" 
			},
			{
				"x": -0.634971633,
				"y": 2.2288387788,
				"z": 1.136730437,
				"element": "C" 
			},
			{
				"x": 0.0871435404,
				"y": 3.0562602241,
				"z": 1.9980093529,
				"element": "C" 
			},
			{
				"x": 0.6903106395,
				"y": 2.5250634465,
				"z": 3.1394583873,
				"element": "C" 
			},
			{
				"x": 0.5690177182,
				"y": 1.1622678816,
				"z": 3.416893441,
				"element": "C" 
			},
			{
				"x": -0.1526194896,
				"y": 0.3329738534,
				"z": 2.5570157075,
				"element": "C" 
			},
			{
				"x": 1.0743922295,
				"y": 0.0403813803,
				"z": -0.307193113,
				"element": "H" 
			},
			{
				"x": 2.0229379366,
				"y": -1.1685172623,
				"z": -2.2419452297,
				"element": "H" 
			},
			{
				"x": 0.5700564187,
				"y": -2.6032305047,
				"z": -3.6630835917,
				"element": "H" 
			},
			{
				"x": -1.8603435224,
				"y": -2.8252323231,
				"z": -3.1346729214,
				"element": "H" 
			},
			{
				"x": -3.4129042981,
				"y": 0.277284535,
				"z": 1.5320755409,
				"element": "H" 
			},
			{
				"x": -1.1058161513,
				"y": 2.6431562686,
				"z": 0.2498960023,
				"element": "H" 
			},
			{
				"x": 0.1761831759,
				"y": 4.1160592245,
				"z": 1.7772323262,
				"element": "H" 
			},
			{
				"x": 1.25102136,
				"y": 3.1699199522,
				"z": 3.8098121035,
				"element": "H" 
			},
			{
				"x": 1.0343825037,
				"y": 0.7428932875,
				"z": 4.3042506685,
				"element": "H" 
			},
			{
				"x": -0.2484080192,
				"y": -0.7268960059,
				"z": 2.7745712707,
				"element": "H" 
			}
		],
		 "valence_orbital": [ 
			{
				"type": "occ",
				"energy": -0.27185,
				"method": "rhf"
			},
			{
				"type": "occ",
				"energy": -0.26311,
				"method": "rhf"
			},
			{
				"type": "occ",
				"energy": -0.25918,
				"method": "rhf"
			},
			{
				"type": "occ",
				"energy": -0.25123,
				"method": "rhf"
			},
			{
				"type": "occ",
				"energy": -0.23764,
				"method": "rhf"
			},
			{
				"type": "unocc",
				"energy": -0.05967,
				"method": "rhf"
			},
			{
				"type": "unocc",
				"energy": -0.02752,
				"method": "rhf"
			},
			{
				"type": "unocc",
				"energy": -0.01546,
				"method": "rhf"
			},
			{
				"type": "unocc",
				"energy": -0.00938,
				"method": "rhf"
			},
			{
				"type": "unocc",
				"energy": 0.01332,
				"method": "rhf"
			}
		],
		"cosmo_sigma_profile": { 
			"-0.025": 0.0,
			"-0.024": 0.0,
			"-0.023": 0.0,
			"-0.022": 0.0,
			"-0.021": 0.0,
			"-0.02": 0.0,
			"-0.019": 0.0,
			"-0.018": 0.0,
			"-0.017": 0.0,
			"-0.016": 0.0,
			"-0.015": 0.0,
			"-0.014": 0.0,
			"-0.013": 0.0,
			"-0.012": 0.0,
			"-0.011": 0.0,
			"-0.01": 0.0,
			"-0.009": 0.0,
			"-0.008": 0.587024218116,
			"-0.007": 3.35225279174,
			"-0.006": 15.6854691621,
			"-0.005": 20.894511416,
			"-0.004": 22.3100946712,
			"-0.003": 16.5539308126,
			"-0.002": 17.3209332208,
			"-0.001": 24.2985586835,
			"0.0": 26.9240816354,
			"0.001": 23.2313176671,
			"0.002": 23.5073254335,
			"0.003": 24.9637726027,
			"0.004": 24.4212746205,
			"0.005": 14.0104375335,
			"0.006": 3.99592097613,
			"0.007": 2.59612790153,
			"0.008": 1.18740675207,
			"0.009": 1.0233263517,
			"0.01": 1.1739722512,
			"0.011": 0.821364428345,
			"0.012": 0.700654518584,
			"0.013": 1.04525596835,
			"0.014": 0.423908235263,
			"0.015": 0.0452059530142,
			"0.016": 0.0,
			"0.017": 0.0,
			"0.018": 0.0,
			"0.019": 0.0,
			"0.02": 0.0,
			"0.021": 0.0,
			"0.022": 0.0,
			"0.023": 0.0,
			"0.024": 0.0,
			"0.025": 0.0
		}
	}
}
