{
	 "smiles": "CSC1=N[C@](C)(C(=O)N1NC1=CC=CC=C1)C1=CC=CC=C1", 
	 "Tm": 410.15, 
	 "num_atms": 39, 
	 "gaussian": { 
		 "optdone": 1, 
		 "sigma_profile": "yes", 
		 "theory": "DFT", 
		 "functional": "B3LYP", 
		 "basiset": "6-31G**", 
		 "properties": { 
			 "R2extent": 7684.5769, 
			 "electric_dipole_moment_norm": 3.22093964706, 
			 "electric_quadrupole_moment_norm": 9.15961168173, 
			 "total_energy": -1295.69834739, 
			 "HOMO_LUMO_gap": 0.19212, 
			 "cosmo_polarized_energy": -15.84, 
			 "cosmo_cavitation_energy": 44.35, 
			 "cosmo_dispersion_energy": -29.76, 
			 "cosmo_repulsion_energy": 2.27, 
			 "cosmo_total_nonelectrostatic_energy": 16.87, 
			 "SMD_solvation_energy": 7.35 
		},
		"coords": [
			{
				"x": -0.1855992696,
				"y": 4.5028009978,
				"z": -0.1124820827,
				"element": "C" 
			},
			{
				"x": 0.1385835234,
				"y": 3.0623517501,
				"z": -1.1867925785,
				"element": "S" 
			},
			{
				"x": 0.8193911842,
				"y": 1.9792613771,
				"z": 0.0270137459,
				"element": "C" 
			},
			{
				"x": 0.9651835532,
				"y": 2.2181593815,
				"z": 1.274040036,
				"element": "N" 
			},
			{
				"x": 1.6206976102,
				"y": 1.0327978381,
				"z": 1.8736646732,
				"element": "C" 
			},
			{
				"x": 2.9721694184,
				"y": 1.4563578403,
				"z": 2.4852156641,
				"element": "C" 
			},
			{
				"x": 1.8750198572,
				"y": 0.0691671345,
				"z": 0.6929817439,
				"element": "C" 
			},
			{
				"x": 2.4513384202,
				"y": -0.9944429517,
				"z": 0.6666694182,
				"element": "O" 
			},
			{
				"x": 1.3002664333,
				"y": 0.7246380833,
				"z": -0.4057602137,
				"element": "N" 
			},
			{
				"x": 1.3090691098,
				"y": 0.2345680407,
				"z": -1.687603149,
				"element": "N" 
			},
			{
				"x": 0.1462844285,
				"y": -0.3354602731,
				"z": -2.2462277815,
				"element": "C" 
			},
			{
				"x": 0.0732498942,
				"y": -0.4757385378,
				"z": -3.6395383925,
				"element": "C" 
			},
			{
				"x": -1.0375957131,
				"y": -1.0814711837,
				"z": -4.2216067974,
				"element": "C" 
			},
			{
				"x": -2.0887976439,
				"y": -1.5486617873,
				"z": -3.4297480738,
				"element": "C" 
			},
			{
				"x": -2.0101759294,
				"y": -1.4047823833,
				"z": -2.0438345405,
				"element": "C" 
			},
			{
				"x": -0.9020790797,
				"y": -0.8055215288,
				"z": -1.4456733863,
				"element": "C" 
			},
			{
				"x": 0.7244229752,
				"y": 0.3815718171,
				"z": 2.9360684164,
				"element": "C" 
			},
			{
				"x": 1.011043393,
				"y": -0.9077324231,
				"z": 3.4081625499,
				"element": "C" 
			},
			{
				"x": 0.2256157383,
				"y": -1.4822824269,
				"z": 4.4077088153,
				"element": "C" 
			},
			{
				"x": -0.8511247519,
				"y": -0.7788005245,
				"z": 4.9511824462,
				"element": "C" 
			},
			{
				"x": -1.1395304669,
				"y": 0.503902376,
				"z": 4.4842880493,
				"element": "C" 
			},
			{
				"x": -0.3584045825,
				"y": 1.0815545817,
				"z": 3.4815617377,
				"element": "C" 
			},
			{
				"x": -0.9284409902,
				"y": 4.2491727015,
				"z": 0.6437208604,
				"element": "H" 
			},
			{
				"x": 0.7356440575,
				"y": 4.8268564513,
				"z": 0.3714686721,
				"element": "H" 
			},
			{
				"x": -0.5677817415,
				"y": 5.2853370944,
				"z": -0.7701732782,
				"element": "H" 
			},
			{
				"x": 3.4964322536,
				"y": 0.5811960269,
				"z": 2.8765050579,
				"element": "H" 
			},
			{
				"x": 2.7949356352,
				"y": 2.1641353082,
				"z": 3.2983122075,
				"element": "H" 
			},
			{
				"x": 3.603636419,
				"y": 1.9375632748,
				"z": 1.7318946422,
				"element": "H" 
			},
			{
				"x": 1.9281379839,
				"y": 0.7281386416,
				"z": -2.3172528342,
				"element": "H" 
			},
			{
				"x": 0.8875977336,
				"y": -0.1129795017,
				"z": -4.2623369381,
				"element": "H" 
			},
			{
				"x": -1.0809366254,
				"y": -1.1830310169,
				"z": -5.3023128012,
				"element": "H" 
			},
			{
				"x": -2.9546354818,
				"y": -2.0176461891,
				"z": -3.88627852,
				"element": "H" 
			},
			{
				"x": -2.817916666,
				"y": -1.7649039512,
				"z": -1.4130210569,
				"element": "H" 
			},
			{
				"x": -0.848377854,
				"y": -0.7081759635,
				"z": -0.3670559777,
				"element": "H" 
			},
			{
				"x": 1.8356025511,
				"y": -1.4653332775,
				"z": 2.9765624066,
				"element": "H" 
			},
			{
				"x": 0.4555063471,
				"y": -2.4841983461,
				"z": 4.7593565804,
				"element": "H" 
			},
			{
				"x": -1.4608862024,
				"y": -1.2280627029,
				"z": 5.7299840141,
				"element": "H" 
			},
			{
				"x": -1.9764757856,
				"y": 1.059324824,
				"z": 4.8987505291,
				"element": "H" 
			},
			{
				"x": -0.5806697363,
				"y": 2.076869428,
				"z": 3.114586136,
				"element": "H" 
			}
		],
		 "valence_orbital": [ 
			{
				"type": "occ",
				"energy": -0.24993,
				"method": "rhf"
			},
			{
				"type": "occ",
				"energy": -0.24581,
				"method": "rhf"
			},
			{
				"type": "occ",
				"energy": -0.24272,
				"method": "rhf"
			},
			{
				"type": "occ",
				"energy": -0.23866,
				"method": "rhf"
			},
			{
				"type": "occ",
				"energy": -0.21137,
				"method": "rhf"
			},
			{
				"type": "unocc",
				"energy": -0.01925,
				"method": "rhf"
			},
			{
				"type": "unocc",
				"energy": -0.00087,
				"method": "rhf"
			},
			{
				"type": "unocc",
				"energy": 0.0027,
				"method": "rhf"
			},
			{
				"type": "unocc",
				"energy": 0.00347,
				"method": "rhf"
			},
			{
				"type": "unocc",
				"energy": 0.01164,
				"method": "rhf"
			}
		],
		"cosmo_sigma_profile": { 
			"-0.025": 0.0,
			"-0.024": 0.0,
			"-0.023": 0.0,
			"-0.022": 0.0,
			"-0.021": 0.0,
			"-0.02": 0.0,
			"-0.019": 0.0,
			"-0.018": 0.0,
			"-0.017": 0.0,
			"-0.016": 0.0,
			"-0.015": 0.529290578034,
			"-0.014": 1.50871680821,
			"-0.013": 1.39554355811,
			"-0.012": 1.40629085666,
			"-0.011": 1.07009533758,
			"-0.01": 1.73651515802,
			"-0.009": 1.31668553019,
			"-0.008": 3.00492876839,
			"-0.007": 5.09390360041,
			"-0.006": 14.1692896435,
			"-0.005": 26.3999833215,
			"-0.004": 31.4060003957,
			"-0.003": 33.3726782022,
			"-0.002": 29.4314867453,
			"-0.001": 24.669061889,
			"0.0": 23.0496257377,
			"0.001": 20.8430627546,
			"0.002": 20.5385501218,
			"0.003": 23.892884708,
			"0.004": 23.9424703079,
			"0.005": 23.6178168869,
			"0.006": 19.9485006679,
			"0.007": 4.97933243963,
			"0.008": 2.73550279437,
			"0.009": 2.82499745546,
			"0.01": 2.58544152179,
			"0.011": 4.23792367931,
			"0.012": 4.09306653596,
			"0.013": 1.36935275619,
			"0.014": 0.170615117703,
			"0.015": 0.0,
			"0.016": 0.0,
			"0.017": 0.0,
			"0.018": 0.0,
			"0.019": 0.0,
			"0.02": 0.0,
			"0.021": 0.0,
			"0.022": 0.0,
			"0.023": 0.0,
			"0.024": 0.0,
			"0.025": 0.0
		}
	}
}
