{
	 "smiles": "OCCNC(=O)C1=CC=C(O)C=C1", 
	 "Tm": 429.15, 
	 "num_atms": 24, 
	 "gaussian": { 
		 "optdone": 1, 
		 "sigma_profile": "yes", 
		 "theory": "DFT", 
		 "functional": "B3LYP", 
		 "basiset": "6-31G**", 
		 "properties": { 
			 "R2extent": 3841.0005, 
			 "electric_dipole_moment_norm": 5.77977419715, 
			 "electric_quadrupole_moment_norm": 11.006455752, 
			 "total_energy": -630.006923976, 
			 "HOMO_LUMO_gap": 0.20332, 
			 "cosmo_polarized_energy": -19.9, 
			 "cosmo_cavitation_energy": 28.21, 
			 "cosmo_dispersion_energy": -20.54, 
			 "cosmo_repulsion_energy": 1.67, 
			 "cosmo_total_nonelectrostatic_energy": 9.34, 
			 "SMD_solvation_energy": 5.33 
		},
		"coords": [
			{
				"x": -1.6085248713,
				"y": -0.9312504559,
				"z": -2.7167047066,
				"element": "O" 
			},
			{
				"x": -1.3155702318,
				"y": -1.6472917849,
				"z": -1.5216866071,
				"element": "C" 
			},
			{
				"x": -0.0694844031,
				"y": -1.016510576,
				"z": -0.9189039803,
				"element": "C" 
			},
			{
				"x": -0.3243124599,
				"y": 0.3865828944,
				"z": -0.6024082073,
				"element": "N" 
			},
			{
				"x": 0.4248244118,
				"y": 1.1908519914,
				"z": 0.2358293003,
				"element": "C" 
			},
			{
				"x": 0.5724891361,
				"y": 2.3851063079,
				"z": -0.0067137326,
				"element": "O" 
			},
			{
				"x": 0.9966212657,
				"y": 0.5844408666,
				"z": 1.4818548842,
				"element": "C" 
			},
			{
				"x": 0.3215530432,
				"y": -0.3731519666,
				"z": 2.2496613229,
				"element": "C" 
			},
			{
				"x": 0.8639264189,
				"y": -0.8430610966,
				"z": 3.4447096541,
				"element": "C" 
			},
			{
				"x": 2.1018582935,
				"y": -0.3604251073,
				"z": 3.8845466151,
				"element": "C" 
			},
			{
				"x": 2.6916981859,
				"y": -0.7876843987,
				"z": 5.037177242,
				"element": "O" 
			},
			{
				"x": 2.7805062256,
				"y": 0.60939106,
				"z": 3.1342887867,
				"element": "C" 
			},
			{
				"x": 2.220495958,
				"y": 1.0829942496,
				"z": 1.9556931652,
				"element": "C" 
			},
			{
				"x": -2.4879781186,
				"y": -1.183858031,
				"z": -3.0214880632,
				"element": "H" 
			},
			{
				"x": -1.1209328974,
				"y": -2.7116837228,
				"z": -1.7271174113,
				"element": "H" 
			},
			{
				"x": -2.1440933807,
				"y": -1.5805126668,
				"z": -0.8008132602,
				"element": "H" 
			},
			{
				"x": 0.2180289359,
				"y": -1.5589237342,
				"z": -0.0175299523,
				"element": "H" 
			},
			{
				"x": 0.7546612064,
				"y": -1.1151616624,
				"z": -1.6414587351,
				"element": "H" 
			},
			{
				"x": -0.6614221701,
				"y": 0.9116241887,
				"z": -1.4027184509,
				"element": "H" 
			},
			{
				"x": -0.6536648811,
				"y": -0.7302119071,
				"z": 1.9329180929,
				"element": "H" 
			},
			{
				"x": 0.3218935519,
				"y": -1.5746423149,
				"z": 4.0405722423,
				"element": "H" 
			},
			{
				"x": 2.1213312532,
				"y": -1.4395442297,
				"z": 5.4651148152,
				"element": "H" 
			},
			{
				"x": 3.7322103765,
				"y": 0.9815221705,
				"z": 3.4987298661,
				"element": "H" 
			},
			{
				"x": 2.7207851514,
				"y": 1.8558999258,
				"z": 1.3816471201,
				"element": "H" 
			}
		],
		 "valence_orbital": [ 
			{
				"type": "occ",
				"energy": -0.28324,
				"method": "rhf"
			},
			{
				"type": "occ",
				"energy": -0.25899,
				"method": "rhf"
			},
			{
				"type": "occ",
				"energy": -0.25372,
				"method": "rhf"
			},
			{
				"type": "occ",
				"energy": -0.23595,
				"method": "rhf"
			},
			{
				"type": "occ",
				"energy": -0.22371,
				"method": "rhf"
			},
			{
				"type": "unocc",
				"energy": -0.02039,
				"method": "rhf"
			},
			{
				"type": "unocc",
				"energy": -0.00796,
				"method": "rhf"
			},
			{
				"type": "unocc",
				"energy": 0.05836,
				"method": "rhf"
			},
			{
				"type": "unocc",
				"energy": 0.06375,
				"method": "rhf"
			},
			{
				"type": "unocc",
				"energy": 0.06567,
				"method": "rhf"
			}
		],
		"cosmo_sigma_profile": { 
			"-0.025": 0.0,
			"-0.024": 0.0,
			"-0.023": 0.0,
			"-0.022": 0.0,
			"-0.021": 0.0,
			"-0.02": 0.0,
			"-0.019": 0.0,
			"-0.018": 0.794124686411,
			"-0.017": 1.17492664052,
			"-0.016": 2.04014520239,
			"-0.015": 2.13342862582,
			"-0.014": 1.90495064286,
			"-0.013": 1.75303346463,
			"-0.012": 1.79877016665,
			"-0.011": 2.25942837258,
			"-0.01": 2.06922816431,
			"-0.009": 1.86592795755,
			"-0.008": 2.21822303561,
			"-0.007": 4.68606272523,
			"-0.006": 9.29488948129,
			"-0.005": 13.337542453,
			"-0.004": 21.6581378511,
			"-0.003": 17.7545598579,
			"-0.002": 15.2453700552,
			"-0.001": 11.6691431335,
			"0.0": 8.01055100154,
			"0.001": 11.3355523861,
			"0.002": 11.0301531551,
			"0.003": 14.8208037878,
			"0.004": 16.5457769402,
			"0.005": 7.98894557939,
			"0.006": 3.76758150549,
			"0.007": 4.4587041512,
			"0.008": 4.49018438536,
			"0.009": 4.5456049911,
			"0.01": 3.8984034255,
			"0.011": 3.78031071914,
			"0.012": 2.95491161523,
			"0.013": 4.75118889283,
			"0.014": 5.57642700979,
			"0.015": 0.93610351263,
			"0.016": 0.0,
			"0.017": 0.0,
			"0.018": 0.0,
			"0.019": 0.0,
			"0.02": 0.0,
			"0.021": 0.0,
			"0.022": 0.0,
			"0.023": 0.0,
			"0.024": 0.0,
			"0.025": 0.0
		}
	}
}
