{
	 "smiles": "C[Si](C)(C)N1C=CN=C1", 
	 "Tm": 231.15, 
	 "num_atms": 21, 
	 "gaussian": { 
		 "optdone": 1, 
		 "sigma_profile": "yes", 
		 "theory": "DFT", 
		 "functional": "B3LYP", 
		 "basiset": "6-31G**", 
		 "properties": { 
			 "R2extent": 1705.5078, 
			 "electric_dipole_moment_norm": 4.43768364127, 
			 "electric_quadrupole_moment_norm": 8.88508763603, 
			 "total_energy": -634.92629441, 
			 "HOMO_LUMO_gap": 0.24706, 
			 "cosmo_polarized_energy": -9.86, 
			 "cosmo_cavitation_energy": 25.43, 
			 "cosmo_dispersion_energy": -15.79, 
			 "cosmo_repulsion_energy": 1.39, 
			 "cosmo_total_nonelectrostatic_energy": 11.03, 
			 "SMD_solvation_energy": 5.11 
		},
		"coords": [
			{
				"x": -0.4640488875,
				"y": 2.28624316,
				"z": 1.6049899281,
				"element": "C" 
			},
			{
				"x": -0.9105001557,
				"y": 1.3449638057,
				"z": 0.0388986576,
				"element": "Si" 
			},
			{
				"x": 0.2004356775,
				"y": 1.8372153768,
				"z": -1.3986000929,
				"element": "C" 
			},
			{
				"x": -2.7258167105,
				"y": 1.5704740156,
				"z": -0.4045401723,
				"element": "C" 
			},
			{
				"x": -0.6377394226,
				"y": -0.4010175017,
				"z": 0.374816309,
				"element": "N" 
			},
			{
				"x": -0.1816792889,
				"y": -0.997895672,
				"z": 1.5478559147,
				"element": "C" 
			},
			{
				"x": -0.1409407115,
				"y": -2.3463058393,
				"z": 1.3105596894,
				"element": "C" 
			},
			{
				"x": -0.5561015843,
				"y": -2.625251096,
				"z": 0.0254935708,
				"element": "N" 
			},
			{
				"x": -0.840482436,
				"y": -1.4533193041,
				"z": -0.4946898286,
				"element": "C" 
			},
			{
				"x": 0.5840681451,
				"y": 2.1387811693,
				"z": 1.8845460068,
				"element": "H" 
			},
			{
				"x": -1.0883336942,
				"y": 1.9866745656,
				"z": 2.4529083895,
				"element": "H" 
			},
			{
				"x": -0.6147578428,
				"y": 3.3603478503,
				"z": 1.4488443194,
				"element": "H" 
			},
			{
				"x": 0.0664473006,
				"y": 2.8948605416,
				"z": -1.6525557094,
				"element": "H" 
			},
			{
				"x": 1.2557508273,
				"y": 1.681086933,
				"z": -1.1525136834,
				"element": "H" 
			},
			{
				"x": -0.0206034328,
				"y": 1.2514539329,
				"z": -2.2970888921,
				"element": "H" 
			},
			{
				"x": -3.0016785355,
				"y": 0.9801566589,
				"z": -1.2847165763,
				"element": "H" 
			},
			{
				"x": -3.3745491361,
				"y": 1.2585070089,
				"z": 0.4203453737,
				"element": "H" 
			},
			{
				"x": -2.9465639185,
				"y": 2.6203080023,
				"z": -0.6285311749,
				"element": "H" 
			},
			{
				"x": 0.0655423849,
				"y": -0.4169787205,
				"z": 2.4228693429,
				"element": "H" 
			},
			{
				"x": 0.1625426203,
				"y": -3.1324719434,
				"z": 1.988646321,
				"element": "H" 
			},
			{
				"x": -1.2005911988,
				"y": -1.2976329439,
				"z": -1.503837693,
				"element": "H" 
			}
		],
		 "valence_orbital": [ 
			{
				"type": "occ",
				"energy": -0.32104,
				"method": "rhf"
			},
			{
				"type": "occ",
				"energy": -0.32036,
				"method": "rhf"
			},
			{
				"type": "occ",
				"energy": -0.26376,
				"method": "rhf"
			},
			{
				"type": "occ",
				"energy": -0.25406,
				"method": "rhf"
			},
			{
				"type": "occ",
				"energy": -0.21643,
				"method": "rhf"
			},
			{
				"type": "unocc",
				"energy": 0.03063,
				"method": "rhf"
			},
			{
				"type": "unocc",
				"energy": 0.05937,
				"method": "rhf"
			},
			{
				"type": "unocc",
				"energy": 0.07586,
				"method": "rhf"
			},
			{
				"type": "unocc",
				"energy": 0.07961,
				"method": "rhf"
			},
			{
				"type": "unocc",
				"energy": 0.08173,
				"method": "rhf"
			}
		],
		"cosmo_sigma_profile": { 
			"-0.025": 0.0,
			"-0.024": 0.0,
			"-0.023": 0.0,
			"-0.022": 0.0,
			"-0.021": 0.0,
			"-0.02": 0.0,
			"-0.019": 0.0,
			"-0.018": 0.0,
			"-0.017": 0.0,
			"-0.016": 0.0,
			"-0.015": 0.0,
			"-0.014": 0.0,
			"-0.013": 0.0,
			"-0.012": 0.0,
			"-0.011": 0.0,
			"-0.01": 0.0,
			"-0.009": 0.0161340360879,
			"-0.008": 1.46335161402,
			"-0.007": 3.58458760756,
			"-0.006": 5.10112238819,
			"-0.005": 11.6441853425,
			"-0.004": 24.902736608,
			"-0.003": 21.5087924411,
			"-0.002": 19.9006477664,
			"-0.001": 19.0776586229,
			"0.0": 22.434108588,
			"0.001": 16.4276881985,
			"0.002": 10.351093568,
			"0.003": 5.95085359554,
			"0.004": 4.4703647876,
			"0.005": 5.49802379292,
			"0.006": 5.62239796453,
			"0.007": 3.73514800175,
			"0.008": 1.63421991841,
			"0.009": 1.62638468194,
			"0.01": 2.30591278467,
			"0.011": 0.680407199738,
			"0.012": 1.31806630685,
			"0.013": 1.42889067862,
			"0.014": 1.26769718271,
			"0.015": 1.55959824154,
			"0.016": 0.494578056127,
			"0.017": 1.61226122981,
			"0.018": 0.874757507907,
			"0.019": 0.158400383908,
			"0.02": 0.0,
			"0.021": 0.0,
			"0.022": 0.0,
			"0.023": 0.0,
			"0.024": 0.0,
			"0.025": 0.0
		}
	}
}
