{
	 "smiles": "ClS(=O)(=O)CC1CCCN(C1)C(=O)OCC1=CC=CC=C1", 
	 "Tm": 355.15, 
	 "num_atms": 39, 
	 "gaussian": { 
		 "optdone": 1, 
		 "sigma_profile": "yes", 
		 "theory": "DFT", 
		 "functional": "B3LYP", 
		 "basiset": "6-31G**", 
		 "properties": { 
			 "R2extent": 9141.1387, 
			 "electric_dipole_moment_norm": 3.71057152875, 
			 "electric_quadrupole_moment_norm": 29.6376628157, 
			 "total_energy": -1758.32594114, 
			 "HOMO_LUMO_gap": 0.16337, 
			 "cosmo_polarized_energy": -17.76, 
			 "cosmo_cavitation_energy": 44.77, 
			 "cosmo_dispersion_energy": -30.27, 
			 "cosmo_repulsion_energy": 2.3, 
			 "cosmo_total_nonelectrostatic_energy": 16.8, 
			 "SMD_solvation_energy": 5.91 
		},
		"coords": [
			{
				"x": 2.4189926474,
				"y": -0.7902333927,
				"z": -4.3705349834,
				"element": "Cl" 
			},
			{
				"x": 0.9733752976,
				"y": -1.832483556,
				"z": -3.1759817174,
				"element": "S" 
			},
			{
				"x": 1.3699152853,
				"y": -3.2356888825,
				"z": -3.1753436219,
				"element": "O" 
			},
			{
				"x": -0.3419858301,
				"y": -1.4120319399,
				"z": -3.6430119019,
				"element": "O" 
			},
			{
				"x": 1.2810539637,
				"y": -1.0497243056,
				"z": -1.5579066892,
				"element": "C" 
			},
			{
				"x": 2.6412881094,
				"y": -1.3289740122,
				"z": -0.9109252235,
				"element": "C" 
			},
			{
				"x": 2.8480229272,
				"y": -2.8168811576,
				"z": -0.5133245853,
				"element": "C" 
			},
			{
				"x": 3.7415528983,
				"y": -2.9389391897,
				"z": 0.7292370787,
				"element": "C" 
			},
			{
				"x": 3.059735322,
				"y": -2.3020632782,
				"z": 1.9564487104,
				"element": "C" 
			},
			{
				"x": 2.3019854184,
				"y": -1.113361758,
				"z": 1.542891673,
				"element": "N" 
			},
			{
				"x": 2.7868967624,
				"y": -0.4303955485,
				"z": 0.3522872065,
				"element": "C" 
			},
			{
				"x": 1.1080980903,
				"y": -0.8469628259,
				"z": 2.1557898389,
				"element": "C" 
			},
			{
				"x": 0.6794158151,
				"y": -1.4434883752,
				"z": 3.1297512524,
				"element": "O" 
			},
			{
				"x": 0.4422686977,
				"y": 0.1697305395,
				"z": 1.5349346453,
				"element": "O" 
			},
			{
				"x": -0.8060094483,
				"y": 0.5571734892,
				"z": 2.1660051223,
				"element": "C" 
			},
			{
				"x": -1.4680015097,
				"y": 1.5752861355,
				"z": 1.2777578689,
				"element": "C" 
			},
			{
				"x": -2.2745462259,
				"y": 1.1653591315,
				"z": 0.2080325301,
				"element": "C" 
			},
			{
				"x": -2.8667245489,
				"y": 2.1046211438,
				"z": -0.6360983735,
				"element": "C" 
			},
			{
				"x": -2.6604375674,
				"y": 3.468484304,
				"z": -0.4159503496,
				"element": "C" 
			},
			{
				"x": -1.8611166924,
				"y": 3.8876518267,
				"z": 0.64927814,
				"element": "C" 
			},
			{
				"x": -1.2676104434,
				"y": 2.9446146854,
				"z": 1.4894479844,
				"element": "C" 
			},
			{
				"x": 1.1154464862,
				"y": 0.012865271,
				"z": -1.751496864,
				"element": "H" 
			},
			{
				"x": 0.4492978156,
				"y": -1.4171454489,
				"z": -0.9470286309,
				"element": "H" 
			},
			{
				"x": 3.4226056275,
				"y": -1.0234239723,
				"z": -1.6167533729,
				"element": "H" 
			},
			{
				"x": 1.8763068732,
				"y": -3.2757634978,
				"z": -0.2929217916,
				"element": "H" 
			},
			{
				"x": 3.2631663097,
				"y": -3.3778575556,
				"z": -1.3528033008,
				"element": "H" 
			},
			{
				"x": 4.7126803737,
				"y": -2.4659478683,
				"z": 0.5374098597,
				"element": "H" 
			},
			{
				"x": 3.9524710454,
				"y": -3.9909582589,
				"z": 0.9451905565,
				"element": "H" 
			},
			{
				"x": 3.8000114221,
				"y": -2.0394451629,
				"z": 2.7244201933,
				"element": "H" 
			},
			{
				"x": 2.3502711626,
				"y": -2.9946620149,
				"z": 2.4143893527,
				"element": "H" 
			},
			{
				"x": 3.848442717,
				"y": -0.1992324456,
				"z": 0.4980514205,
				"element": "H" 
			},
			{
				"x": 2.2634133127,
				"y": 0.5180428385,
				"z": 0.243235719,
				"element": "H" 
			},
			{
				"x": -1.4226528954,
				"y": -0.3353356505,
				"z": 2.2998684047,
				"element": "H" 
			},
			{
				"x": -0.587178651,
				"y": 0.9640927552,
				"z": 3.1577467979,
				"element": "H" 
			},
			{
				"x": -2.4423386465,
				"y": 0.1043913335,
				"z": 0.0393240949,
				"element": "H" 
			},
			{
				"x": -3.4906046692,
				"y": 1.7735696312,
				"z": -1.4611240993,
				"element": "H" 
			},
			{
				"x": -3.1245195439,
				"y": 4.2012472155,
				"z": -1.0697717629,
				"element": "H" 
			},
			{
				"x": -1.7016785645,
				"y": 4.9473244137,
				"z": 0.8268154485,
				"element": "H" 
			},
			{
				"x": -0.6452091441,
				"y": 3.2719453833,
				"z": 2.3185633695,
				"element": "H" 
			}
		],
		 "valence_orbital": [ 
			{
				"type": "occ",
				"energy": -0.30162,
				"method": "rhf"
			},
			{
				"type": "occ",
				"energy": -0.27847,
				"method": "rhf"
			},
			{
				"type": "occ",
				"energy": -0.25951,
				"method": "rhf"
			},
			{
				"type": "occ",
				"energy": -0.25641,
				"method": "rhf"
			},
			{
				"type": "occ",
				"energy": -0.24713,
				"method": "rhf"
			},
			{
				"type": "unocc",
				"energy": -0.08376,
				"method": "rhf"
			},
			{
				"type": "unocc",
				"energy": -0.0185,
				"method": "rhf"
			},
			{
				"type": "unocc",
				"energy": -0.01077,
				"method": "rhf"
			},
			{
				"type": "unocc",
				"energy": 0.03943,
				"method": "rhf"
			},
			{
				"type": "unocc",
				"energy": 0.04424,
				"method": "rhf"
			}
		],
		"cosmo_sigma_profile": { 
			"-0.025": 0.0,
			"-0.024": 0.0,
			"-0.023": 0.0,
			"-0.022": 0.0,
			"-0.021": 0.0,
			"-0.02": 0.0,
			"-0.019": 0.0,
			"-0.018": 0.0,
			"-0.017": 0.0,
			"-0.016": 0.0,
			"-0.015": 0.0,
			"-0.014": 0.0,
			"-0.013": 0.0,
			"-0.012": 0.209267178466,
			"-0.011": 1.03283179765,
			"-0.01": 1.98323714505,
			"-0.009": 3.97616037492,
			"-0.008": 3.62537487077,
			"-0.007": 3.83239344205,
			"-0.006": 19.5736095355,
			"-0.005": 27.6720399843,
			"-0.004": 36.2632668286,
			"-0.003": 36.5267757076,
			"-0.002": 29.3192287132,
			"-0.001": 24.331089138,
			"0.0": 19.7456344212,
			"0.001": 17.9434186949,
			"0.002": 20.1266946301,
			"0.003": 21.3300474476,
			"0.004": 23.2639502333,
			"0.005": 16.4251852213,
			"0.006": 9.84527961638,
			"0.007": 5.97751249818,
			"0.008": 11.0619631376,
			"0.009": 9.45679035542,
			"0.01": 1.47831250275,
			"0.011": 1.93323483438,
			"0.012": 1.93918578008,
			"0.013": 4.8771431289,
			"0.014": 1.88930338783,
			"0.015": 0.0,
			"0.016": 0.0,
			"0.017": 0.0,
			"0.018": 0.0,
			"0.019": 0.0,
			"0.02": 0.0,
			"0.021": 0.0,
			"0.022": 0.0,
			"0.023": 0.0,
			"0.024": 0.0,
			"0.025": 0.0
		}
	}
}
