{
	 "smiles": "CN(C(Cl)=S)C1=CC=C(Cl)C=C1", 
	 "Tm": 350.15, 
	 "num_atms": 19, 
	 "gaussian": { 
		 "optdone": 1, 
		 "sigma_profile": "yes", 
		 "theory": "DFT", 
		 "functional": "B3LYP", 
		 "basiset": "6-31G**", 
		 "properties": { 
			 "R2extent": 4071.4629, 
			 "electric_dipole_moment_norm": 3.89295573183, 
			 "electric_quadrupole_moment_norm": 15.7835892325, 
			 "total_energy": -1682.38497881, 
			 "HOMO_LUMO_gap": 0.17955, 
			 "cosmo_polarized_energy": -10.13, 
			 "cosmo_cavitation_energy": 28.73, 
			 "cosmo_dispersion_energy": -20.79, 
			 "cosmo_repulsion_energy": 1.64, 
			 "cosmo_total_nonelectrostatic_energy": 9.58, 
			 "SMD_solvation_energy": 4.06 
		},
		"coords": [
			{
				"x": -1.8193282135,
				"y": -1.2859799161,
				"z": -2.3764733163,
				"element": "C" 
			},
			{
				"x": -1.2394057187,
				"y": -0.4864624755,
				"z": -1.2835939953,
				"element": "N" 
			},
			{
				"x": -1.7814553227,
				"y": 0.7239257247,
				"z": -1.0146972292,
				"element": "C" 
			},
			{
				"x": -0.9697867242,
				"y": 1.5684247809,
				"z": 0.333875866,
				"element": "Cl" 
			},
			{
				"x": -3.0518617671,
				"y": 1.4155767767,
				"z": -1.7984687623,
				"element": "S" 
			},
			{
				"x": -0.1227298035,
				"y": -1.0624763122,
				"z": -0.57440092,
				"element": "C" 
			},
			{
				"x": 1.1782342238,
				"y": -0.8485274709,
				"z": -1.0354969191,
				"element": "C" 
			},
			{
				"x": 2.2561691485,
				"y": -1.4503938974,
				"z": -0.3883874073,
				"element": "C" 
			},
			{
				"x": 2.0166149161,
				"y": -2.2685283204,
				"z": 0.7161608185,
				"element": "C" 
			},
			{
				"x": 3.3693331398,
				"y": -3.0306628709,
				"z": 1.5325161651,
				"element": "Cl" 
			},
			{
				"x": 0.7208713497,
				"y": -2.4926795136,
				"z": 1.1826305727,
				"element": "C" 
			},
			{
				"x": -0.3513298672,
				"y": -1.8868690196,
				"z": 0.5296881338,
				"element": "C" 
			},
			{
				"x": -2.8744199128,
				"y": -1.4920434072,
				"z": -2.1760207484,
				"element": "H" 
			},
			{
				"x": -1.7555626264,
				"y": -0.7387403015,
				"z": -3.3210865831,
				"element": "H" 
			},
			{
				"x": -1.2611761442,
				"y": -2.2193499278,
				"z": -2.445014325,
				"element": "H" 
			},
			{
				"x": 1.3456732002,
				"y": -0.2051297874,
				"z": -1.8932120608,
				"element": "H" 
			},
			{
				"x": 3.2702273476,
				"y": -1.2868474271,
				"z": -0.7350422502,
				"element": "H" 
			},
			{
				"x": 0.5548562434,
				"y": -3.1302451092,
				"z": 2.0435454223,
				"element": "H" 
			},
			{
				"x": -1.3656234688,
				"y": -2.0457915255,
				"z": 0.8812775387,
				"element": "H" 
			}
		],
		 "valence_orbital": [ 
			{
				"type": "occ",
				"energy": -0.30872,
				"method": "rhf"
			},
			{
				"type": "occ",
				"energy": -0.28517,
				"method": "rhf"
			},
			{
				"type": "occ",
				"energy": -0.26636,
				"method": "rhf"
			},
			{
				"type": "occ",
				"energy": -0.24571,
				"method": "rhf"
			},
			{
				"type": "occ",
				"energy": -0.2259,
				"method": "rhf"
			},
			{
				"type": "unocc",
				"energy": -0.04635,
				"method": "rhf"
			},
			{
				"type": "unocc",
				"energy": -0.03915,
				"method": "rhf"
			},
			{
				"type": "unocc",
				"energy": -0.03475,
				"method": "rhf"
			},
			{
				"type": "unocc",
				"energy": 0.00612,
				"method": "rhf"
			},
			{
				"type": "unocc",
				"energy": 0.01488,
				"method": "rhf"
			}
		],
		"cosmo_sigma_profile": { 
			"-0.025": 0.0,
			"-0.024": 0.0,
			"-0.023": 0.0,
			"-0.022": 0.0,
			"-0.021": 0.0,
			"-0.02": 0.0,
			"-0.019": 0.0,
			"-0.018": 0.0,
			"-0.017": 0.0,
			"-0.016": 0.0,
			"-0.015": 0.0,
			"-0.014": 0.0,
			"-0.013": 0.0,
			"-0.012": 0.0,
			"-0.011": 0.0,
			"-0.01": 0.0,
			"-0.009": 0.0198962007044,
			"-0.008": 5.85342796119,
			"-0.007": 10.7963723587,
			"-0.006": 13.8992960765,
			"-0.005": 16.2016752033,
			"-0.004": 16.7141433423,
			"-0.003": 15.9915918524,
			"-0.002": 10.801765539,
			"-0.001": 13.066409816,
			"0.0": 14.3821368088,
			"0.001": 20.7841076794,
			"0.002": 23.2055249569,
			"0.003": 21.2152047242,
			"0.004": 21.2275912784,
			"0.005": 8.51592789185,
			"0.006": 7.95054106061,
			"0.007": 8.58695446038,
			"0.008": 4.28644686169,
			"0.009": 2.31342245621,
			"0.01": 1.46033923768,
			"0.011": 0.0824930407822,
			"0.012": 0.0,
			"0.013": 0.0,
			"0.014": 0.0,
			"0.015": 0.0,
			"0.016": 0.0,
			"0.017": 0.0,
			"0.018": 0.0,
			"0.019": 0.0,
			"0.02": 0.0,
			"0.021": 0.0,
			"0.022": 0.0,
			"0.023": 0.0,
			"0.024": 0.0,
			"0.025": 0.0
		}
	}
}
