{
	 "smiles": "CC(=O)CCC1=C(C2=CC=C(C)O2)C2=CC(I)=CC=C2O1", 
	 "Tm": 367.15, 
	 "num_atms": 36, 
	 "gaussian": { 
		 "optdone": 1, 
		 "sigma_profile": "no", 
		 "theory": "DFT", 
		 "functional": "B3LYP", 
		 "basiset": "6-31G**", 
		 "properties": { 
			 "R2extent": 7880.9942, 
			 "electric_dipole_moment_norm": 4.27693722306, 
			 "electric_quadrupole_moment_norm": 13.5155392523, 
			 "total_energy": -893.897092966, 
			 "HOMO_LUMO_gap": 0.16521, 
			 "cosmo_polarized_energy": -100583.87, 
			 "cosmo_cavitation_energy": 43.97, 
			 "cosmo_dispersion_energy": -31.47, 
			 "cosmo_repulsion_energy": 2.43, 
			 "cosmo_total_nonelectrostatic_energy": 14.93, 
			 "SMD_solvation_energy": 7.53 
		},
		"coords": [
			{
				"x": -2.1195877439,
				"y": 3.5041558423,
				"z": 2.7805442448,
				"element": "C" 
			},
			{
				"x": -1.8176996537,
				"y": 2.0391571376,
				"z": 3.0272161652,
				"element": "C" 
			},
			{
				"x": -1.4807697468,
				"y": 1.6236835967,
				"z": 4.1183241482,
				"element": "O" 
			},
			{
				"x": -1.9982425798,
				"y": 1.0966402888,
				"z": 1.8335289136,
				"element": "C" 
			},
			{
				"x": -1.1562411595,
				"y": -0.192552276,
				"z": 1.93925859,
				"element": "C" 
			},
			{
				"x": 0.2509837274,
				"y": -0.0327199379,
				"z": 1.477493228,
				"element": "C" 
			},
			{
				"x": 0.9046288343,
				"y": -0.4189255789,
				"z": 0.3331855519,
				"element": "C" 
			},
			{
				"x": 0.3439920058,
				"y": -1.0998369938,
				"z": -0.8166779116,
				"element": "C" 
			},
			{
				"x": -0.9114656645,
				"y": -1.2067501613,
				"z": -1.3571631047,
				"element": "C" 
			},
			{
				"x": -0.7916553395,
				"y": -2.0375228362,
				"z": -2.5159472223,
				"element": "C" 
			},
			{
				"x": 0.5247080342,
				"y": -2.3792832955,
				"z": -2.6231815833,
				"element": "C" 
			},
			{
				"x": 1.3019220741,
				"y": -3.1995561688,
				"z": -3.5908406699,
				"element": "C" 
			},
			{
				"x": 1.2275449114,
				"y": -1.8139166526,
				"z": -1.5928324782,
				"element": "O" 
			},
			{
				"x": 2.2844415423,
				"y": 0.0071924302,
				"z": 0.5024121555,
				"element": "C" 
			},
			{
				"x": 3.4539722826,
				"y": -0.0767093035,
				"z": -0.2678597469,
				"element": "C" 
			},
			{
				"x": 4.6120356989,
				"y": 0.485820596,
				"z": 0.2615224227,
				"element": "C" 
			},
			{
				"x": 6.4102272535,
				"y": 0.3836229708,
				"z": -0.8685573946,
				"element": "I" 
			},
			{
				"x": 4.6422739846,
				"y": 1.1196501858,
				"z": 1.5174229555,
				"element": "C" 
			},
			{
				"x": 3.4826039581,
				"y": 1.2063517471,
				"z": 2.2870676929,
				"element": "C" 
			},
			{
				"x": 2.3308808467,
				"y": 0.6444219913,
				"z": 1.7526357602,
				"element": "C" 
			},
			{
				"x": 1.0986371896,
				"y": 0.624757802,
				"z": 2.3421023656,
				"element": "O" 
			},
			{
				"x": -1.3430974716,
				"y": 3.931543846,
				"z": 2.1341596323,
				"element": "H" 
			},
			{
				"x": -3.0735718553,
				"y": 3.6274665316,
				"z": 2.2553934241,
				"element": "H" 
			},
			{
				"x": -2.1390699674,
				"y": 4.0465533435,
				"z": 3.7266904609,
				"element": "H" 
			},
			{
				"x": -1.8039034587,
				"y": 1.628738663,
				"z": 0.8955006501,
				"element": "H" 
			},
			{
				"x": -3.0669483587,
				"y": 0.8363237416,
				"z": 1.8194142742,
				"element": "H" 
			},
			{
				"x": -1.6153829499,
				"y": -0.9898936798,
				"z": 1.3492636978,
				"element": "H" 
			},
			{
				"x": -1.1538855843,
				"y": -0.5027327549,
				"z": 2.9898937012,
				"element": "H" 
			},
			{
				"x": -1.808415425,
				"y": -0.726272768,
				"z": -0.995489063,
				"element": "H" 
			},
			{
				"x": -1.582831288,
				"y": -2.3346600526,
				"z": -3.1895480428,
				"element": "H" 
			},
			{
				"x": 0.6353798698,
				"y": -3.5949752619,
				"z": -4.3606654545,
				"element": "H" 
			},
			{
				"x": 2.0819379419,
				"y": -2.6075573761,
				"z": -4.0838174443,
				"element": "H" 
			},
			{
				"x": 1.7950052967,
				"y": -4.044429028,
				"z": -3.0962846906,
				"element": "H" 
			},
			{
				"x": 3.4479992719,
				"y": -0.5677489018,
				"z": -1.2319166686,
				"element": "H" 
			},
			{
				"x": 5.5681072393,
				"y": 1.5407647515,
				"z": 1.8911208691,
				"element": "H" 
			},
			{
				"x": 3.4788862836,
				"y": 1.6883975619,
				"z": 3.2584305713,
				"element": "H" 
			}
		],
		 "valence_orbital": [ 
			{
				"type": "occ",
				"energy": -0.26223,
				"method": "rhf"
			},
			{
				"type": "occ",
				"energy": -0.2534,
				"method": "rhf"
			},
			{
				"type": "occ",
				"energy": -0.24537,
				"method": "rhf"
			},
			{
				"type": "occ",
				"energy": -0.22711,
				"method": "rhf"
			},
			{
				"type": "occ",
				"energy": -0.1987,
				"method": "rhf"
			},
			{
				"type": "unocc",
				"energy": -0.03349,
				"method": "rhf"
			},
			{
				"type": "unocc",
				"energy": -0.03283,
				"method": "rhf"
			},
			{
				"type": "unocc",
				"energy": -0.01759,
				"method": "rhf"
			},
			{
				"type": "unocc",
				"energy": -0.00323,
				"method": "rhf"
			},
			{
				"type": "unocc",
				"energy": 0.00059,
				"method": "rhf"
			}
		],
		"cosmo_sigma_profile": { 
			"0.0": 0.0,
			"0.0": 0.0,
			"0.0": 0.0,
			"0.0": 0.0,
			"0.0": 0.0,
			"0.0": 0.0,
			"0.0": 0.0,
			"0.0": 0.0,
			"0.0": 0.0,
			"0.0": 0.0,
			"0.0": 0.0,
			"0.0": 0.0,
			"0.0": 0.0,
			"0.0": 0.0,
			"0.0": 0.0,
			"0.0": 0.0,
			"0.0": 0.0,
			"0.0": 0.0,
			"0.0": 0.0,
			"0.0": 0.0,
			"0.0": 0.0,
			"0.0": 0.0,
			"0.0": 0.0,
			"0.0": 0.0,
			"0.0": 0.0,
			"0.0": 0.0,
			"0.0": 0.0,
			"0.0": 0.0,
			"0.0": 0.0,
			"0.0": 0.0,
			"0.0": 0.0,
			"0.0": 0.0,
			"0.0": 0.0,
			"0.0": 0.0,
			"0.0": 0.0,
			"0.0": 0.0,
			"0.0": 0.0,
			"0.0": 0.0,
			"0.0": 0.0,
			"0.0": 0.0,
			"0.0": 0.0,
			"0.0": 0.0,
			"0.0": 0.0,
			"0.0": 0.0,
			"0.0": 0.0,
			"0.0": 0.0,
			"0.0": 0.0,
			"0.0": 0.0,
			"0.0": 0.0,
			"0.0": 0.0,
			"0.0": 0.0
		}
	}
}
