{
	 "smiles": "OC1=C(I)C=C(C=C1I)[N+]([O-])=O", 
	 "Tm": 428.15, 
	 "num_atms": 15, 
	 "gaussian": { 
		 "optdone": 1, 
		 "sigma_profile": "no", 
		 "theory": "DFT", 
		 "functional": "B3LYP", 
		 "basiset": "6-31G**", 
		 "properties": { 
			 "R2extent": 3652.2833, 
			 "electric_dipole_moment_norm": 4.04125425209, 
			 "electric_quadrupole_moment_norm": 19.585875286, 
			 "total_energy": -533.53082579, 
			 "HOMO_LUMO_gap": 0.16095, 
			 "cosmo_polarized_energy": -189720.15, 
			 "cosmo_cavitation_energy": 26.75, 
			 "cosmo_dispersion_energy": -22.58, 
			 "cosmo_repulsion_energy": 1.73, 
			 "cosmo_total_nonelectrostatic_energy": 5.91, 
			 "SMD_solvation_energy": 5.55 
		},
		"coords": [
			{
				"x": 1.0129897604,
				"y": -1.2451021965,
				"z": -0.4087419348,
				"element": "O" 
			},
			{
				"x": 0.867766982,
				"y": 0.0701346686,
				"z": -0.6237497182,
				"element": "C" 
			},
			{
				"x": 0.7676039474,
				"y": 0.5228133165,
				"z": -1.9577068304,
				"element": "C" 
			},
			{
				"x": 0.8498066068,
				"y": -0.8725351105,
				"z": -3.5355573581,
				"element": "I" 
			},
			{
				"x": 0.6159546833,
				"y": 1.8722699286,
				"z": -2.2444423411,
				"element": "C" 
			},
			{
				"x": 0.563074274,
				"y": 2.7845652101,
				"z": -1.1917863514,
				"element": "C" 
			},
			{
				"x": 0.657670671,
				"y": 2.3839105188,
				"z": 0.1379341662,
				"element": "C" 
			},
			{
				"x": 0.8090850988,
				"y": 1.0310167351,
				"z": 0.4095780262,
				"element": "C" 
			},
			{
				"x": 0.9564813579,
				"y": 0.3856554652,
				"z": 2.4242695275,
				"element": "I" 
			},
			{
				"x": 0.402834409,
				"y": 4.2120745907,
				"z": -1.4917714329,
				"element": "N" 
			},
			{
				"x": 0.3597947173,
				"y": 4.9916558098,
				"z": -0.5403452705,
				"element": "O" 
			},
			{
				"x": 0.3216931345,
				"y": 4.5385769969,
				"z": -2.675047546,
				"element": "O" 
			},
			{
				"x": 1.0690951798,
				"y": -1.4207161984,
				"z": 0.5459890204,
				"element": "H" 
			},
			{
				"x": 0.538100821,
				"y": 2.2316850699,
				"z": -3.2618669346,
				"element": "H" 
			},
			{
				"x": 0.6116483568,
				"y": 3.1274951953,
				"z": 0.9222449778,
				"element": "H" 
			}
		],
		 "valence_orbital": [ 
			{
				"type": "occ",
				"energy": -0.30691,
				"method": "rhf"
			},
			{
				"type": "occ",
				"energy": -0.30033,
				"method": "rhf"
			},
			{
				"type": "occ",
				"energy": -0.28059,
				"method": "rhf"
			},
			{
				"type": "occ",
				"energy": -0.269,
				"method": "rhf"
			},
			{
				"type": "occ",
				"energy": -0.2582,
				"method": "rhf"
			},
			{
				"type": "unocc",
				"energy": -0.09725,
				"method": "rhf"
			},
			{
				"type": "unocc",
				"energy": -0.08033,
				"method": "rhf"
			},
			{
				"type": "unocc",
				"energy": -0.0547,
				"method": "rhf"
			},
			{
				"type": "unocc",
				"energy": -0.04488,
				"method": "rhf"
			},
			{
				"type": "unocc",
				"energy": -0.00931,
				"method": "rhf"
			}
		],
		"cosmo_sigma_profile": { 
			"0.0": 0.0,
			"0.0": 0.0,
			"0.0": 0.0,
			"0.0": 0.0,
			"0.0": 0.0,
			"0.0": 0.0,
			"0.0": 0.0,
			"0.0": 0.0,
			"0.0": 0.0,
			"0.0": 0.0,
			"0.0": 0.0,
			"0.0": 0.0,
			"0.0": 0.0,
			"0.0": 0.0,
			"0.0": 0.0,
			"0.0": 0.0,
			"0.0": 0.0,
			"0.0": 0.0,
			"0.0": 0.0,
			"0.0": 0.0,
			"0.0": 0.0,
			"0.0": 0.0,
			"0.0": 0.0,
			"0.0": 0.0,
			"0.0": 0.0,
			"0.0": 0.0,
			"0.0": 0.0,
			"0.0": 0.0,
			"0.0": 0.0,
			"0.0": 0.0,
			"0.0": 0.0,
			"0.0": 0.0,
			"0.0": 0.0,
			"0.0": 0.0,
			"0.0": 0.0,
			"0.0": 0.0,
			"0.0": 0.0,
			"0.0": 0.0,
			"0.0": 0.0,
			"0.0": 0.0,
			"0.0": 0.0,
			"0.0": 0.0,
			"0.0": 0.0,
			"0.0": 0.0,
			"0.0": 0.0,
			"0.0": 0.0,
			"0.0": 0.0,
			"0.0": 0.0,
			"0.0": 0.0,
			"0.0": 0.0,
			"0.0": 0.0
		}
	}
}
