{
	 "smiles": "COC(=O)C1=C(C=CC=C1)S(=O)(=O)NC1=C(Cl)C=CC=C1", 
	 "Tm": 371.15, 
	 "num_atms": 33, 
	 "gaussian": { 
		 "optdone": 1, 
		 "sigma_profile": "yes", 
		 "theory": "DFT", 
		 "functional": "B3LYP", 
		 "basiset": "6-31G**", 
		 "properties": { 
			 "R2extent": 6551.7252, 
			 "electric_dipole_moment_norm": 4.64266399172, 
			 "electric_quadrupole_moment_norm": 17.1354296684, 
			 "total_energy": -1754.68191585, 
			 "HOMO_LUMO_gap": 0.17348, 
			 "cosmo_polarized_energy": -15.59, 
			 "cosmo_cavitation_energy": 40.15, 
			 "cosmo_dispersion_energy": -27.52, 
			 "cosmo_repulsion_energy": 2.04, 
			 "cosmo_total_nonelectrostatic_energy": 14.67, 
			 "SMD_solvation_energy": 6.98 
		},
		"coords": [
			{
				"x": 0.5755578546,
				"y": 1.0404543227,
				"z": -3.3703692705,
				"element": "C" 
			},
			{
				"x": 0.4826363086,
				"y": 0.7549045073,
				"z": -1.9589313937,
				"element": "O" 
			},
			{
				"x": 1.4233541404,
				"y": 1.3438620778,
				"z": -1.1889986025,
				"element": "C" 
			},
			{
				"x": 2.1968653258,
				"y": 2.1788812527,
				"z": -1.6024781712,
				"element": "O" 
			},
			{
				"x": 1.3534869164,
				"y": 0.9303894573,
				"z": 0.2524266257,
				"element": "C" 
			},
			{
				"x": 1.1569402339,
				"y": -0.3777375681,
				"z": 0.7386845259,
				"element": "C" 
			},
			{
				"x": 1.1211503772,
				"y": -0.627190196,
				"z": 2.1119990646,
				"element": "C" 
			},
			{
				"x": 1.2688327476,
				"y": 0.4232504751,
				"z": 3.0183647656,
				"element": "C" 
			},
			{
				"x": 1.4823946393,
				"y": 1.7189316804,
				"z": 2.5513586767,
				"element": "C" 
			},
			{
				"x": 1.5371133634,
				"y": 1.9631252694,
				"z": 1.1803946246,
				"element": "C" 
			},
			{
				"x": 1.0522457504,
				"y": -1.834611663,
				"z": -0.3336666549,
				"element": "S" 
			},
			{
				"x": 1.1748512961,
				"y": -3.0092972577,
				"z": 0.5290933387,
				"element": "O" 
			},
			{
				"x": 1.9442586693,
				"y": -1.631188736,
				"z": -1.4710763671,
				"element": "O" 
			},
			{
				"x": -0.5249024529,
				"y": -1.8410661125,
				"z": -0.9690968649,
				"element": "N" 
			},
			{
				"x": -1.6565314686,
				"y": -2.2681094848,
				"z": -0.2322856331,
				"element": "C" 
			},
			{
				"x": -2.7956141517,
				"y": -1.4513213692,
				"z": -0.1064616093,
				"element": "C" 
			},
			{
				"x": -2.808434294,
				"y": 0.1622815446,
				"z": -0.8154066433,
				"element": "Cl" 
			},
			{
				"x": -3.9390882229,
				"y": -1.8929577529,
				"z": 0.5564201143,
				"element": "C" 
			},
			{
				"x": -3.9576592265,
				"y": -3.1624705851,
				"z": 1.1300400951,
				"element": "C" 
			},
			{
				"x": -2.8375841521,
				"y": -3.9877617362,
				"z": 1.0155658206,
				"element": "C" 
			},
			{
				"x": -1.7075216759,
				"y": -3.5551245369,
				"z": 0.3284509759,
				"element": "C" 
			},
			{
				"x": 1.4978115863,
				"y": 0.615144064,
				"z": -3.7713404588,
				"element": "H" 
			},
			{
				"x": -0.2941906309,
				"y": 0.5653348237,
				"z": -3.8225832767,
				"element": "H" 
			},
			{
				"x": 0.5625048792,
				"y": 2.1182230082,
				"z": -3.5402145336,
				"element": "H" 
			},
			{
				"x": 1.003017897,
				"y": -1.6479354984,
				"z": 2.4558919668,
				"element": "H" 
			},
			{
				"x": 1.2348589852,
				"y": 0.2212338049,
				"z": 4.0844502583,
				"element": "H" 
			},
			{
				"x": 1.6156811769,
				"y": 2.5387950674,
				"z": 3.2503256471,
				"element": "H" 
			},
			{
				"x": 1.7251149988,
				"y": 2.9618809069,
				"z": 0.801640918,
				"element": "H" 
			},
			{
				"x": -0.6560958171,
				"y": -0.9869213919,
				"z": -1.5078329782,
				"element": "H" 
			},
			{
				"x": -4.7992281511,
				"y": -1.2360530117,
				"z": 0.6231852116,
				"element": "H" 
			},
			{
				"x": -4.8454481389,
				"y": -3.5035702181,
				"z": 1.6530763644,
				"element": "H" 
			},
			{
				"x": -2.8474667978,
				"y": -4.9841897531,
				"z": 1.4462734758,
				"element": "H" 
			},
			{
				"x": -0.845011966,
				"y": -4.1988853908,
				"z": 0.2170999884,
				"element": "H" 
			}
		],
		 "valence_orbital": [ 
			{
				"type": "occ",
				"energy": -0.2963,
				"method": "rhf"
			},
			{
				"type": "occ",
				"energy": -0.28253,
				"method": "rhf"
			},
			{
				"type": "occ",
				"energy": -0.27402,
				"method": "rhf"
			},
			{
				"type": "occ",
				"energy": -0.25763,
				"method": "rhf"
			},
			{
				"type": "occ",
				"energy": -0.238,
				"method": "rhf"
			},
			{
				"type": "unocc",
				"energy": -0.06452,
				"method": "rhf"
			},
			{
				"type": "unocc",
				"energy": -0.03832,
				"method": "rhf"
			},
			{
				"type": "unocc",
				"energy": -0.01877,
				"method": "rhf"
			},
			{
				"type": "unocc",
				"energy": -0.01749,
				"method": "rhf"
			},
			{
				"type": "unocc",
				"energy": 0.0171,
				"method": "rhf"
			}
		],
		"cosmo_sigma_profile": { 
			"-0.025": 0.0,
			"-0.024": 0.0,
			"-0.023": 0.0,
			"-0.022": 0.0,
			"-0.021": 0.0,
			"-0.02": 0.0,
			"-0.019": 0.0,
			"-0.018": 0.0,
			"-0.017": 0.0,
			"-0.016": 0.0,
			"-0.015": 0.0,
			"-0.014": 0.0,
			"-0.013": 0.0,
			"-0.012": 0.0,
			"-0.011": 0.0,
			"-0.01": 0.0598110401671,
			"-0.009": 0.81898099443,
			"-0.008": 4.23130755037,
			"-0.007": 16.2757477592,
			"-0.006": 23.0622002347,
			"-0.005": 21.9619182968,
			"-0.004": 23.9644545586,
			"-0.003": 20.9231678906,
			"-0.002": 19.9376785354,
			"-0.001": 19.4275056834,
			"0.0": 26.1276752459,
			"0.001": 31.2187367075,
			"0.002": 26.5634681343,
			"0.003": 24.7764190964,
			"0.004": 18.3948154798,
			"0.005": 5.82366275427,
			"0.006": 5.47513590745,
			"0.007": 6.23827183259,
			"0.008": 6.15719249448,
			"0.009": 5.7071712392,
			"0.01": 9.1713402428,
			"0.011": 8.07947129257,
			"0.012": 0.636282920101,
			"0.013": 0.0,
			"0.014": 0.0,
			"0.015": 0.0,
			"0.016": 0.0,
			"0.017": 0.0,
			"0.018": 0.0,
			"0.019": 0.0,
			"0.02": 0.0,
			"0.021": 0.0,
			"0.022": 0.0,
			"0.023": 0.0,
			"0.024": 0.0,
			"0.025": 0.0
		}
	}
}
