{
	 "smiles": "CN1N=C(SCC(O)=O)C(=O)N(C)C1=O", 
	 "Tm": 459.15, 
	 "num_atms": 24, 
	 "gaussian": { 
		 "optdone": 1, 
		 "sigma_profile": "yes", 
		 "theory": "DFT", 
		 "functional": "B3LYP", 
		 "basiset": "6-31G**", 
		 "properties": { 
			 "R2extent": 4221.7576, 
			 "electric_dipole_moment_norm": 6.92097314111, 
			 "electric_quadrupole_moment_norm": 26.8589910149, 
			 "total_energy": -1135.51608638, 
			 "HOMO_LUMO_gap": 0.15395, 
			 "cosmo_polarized_energy": -18.92, 
			 "cosmo_cavitation_energy": 30.03, 
			 "cosmo_dispersion_energy": -22.51, 
			 "cosmo_repulsion_energy": 1.71, 
			 "cosmo_total_nonelectrostatic_energy": 9.23, 
			 "SMD_solvation_energy": 6.62 
		},
		"coords": [
			{
				"x": 2.622525659,
				"y": -0.9369566447,
				"z": 3.5717299353,
				"element": "C" 
			},
			{
				"x": 1.6286554586,
				"y": -0.5908723771,
				"z": 2.5522166334,
				"element": "N" 
			},
			{
				"x": 2.0397898992,
				"y": -0.6004726082,
				"z": 1.2735658413,
				"element": "N" 
			},
			{
				"x": 1.2053593699,
				"y": -0.2825458596,
				"z": 0.3307070863,
				"element": "C" 
			},
			{
				"x": 1.886048514,
				"y": -0.1170240984,
				"z": -1.2992944377,
				"element": "S" 
			},
			{
				"x": 0.7517549916,
				"y": -1.1413122772,
				"z": -2.3513475837,
				"element": "C" 
			},
			{
				"x": 0.0197439872,
				"y": -0.3283375036,
				"z": -3.4265694224,
				"element": "C" 
			},
			{
				"x": -0.8146913913,
				"y": 0.6195153475,
				"z": -2.9884525628,
				"element": "O" 
			},
			{
				"x": 0.1858317984,
				"y": -0.5527807641,
				"z": -4.6026446688,
				"element": "O" 
			},
			{
				"x": -0.2053616732,
				"y": 0.0694626933,
				"z": 0.6015837946,
				"element": "C" 
			},
			{
				"x": -1.0247803069,
				"y": 0.3760683299,
				"z": -0.2642247442,
				"element": "O" 
			},
			{
				"x": -0.5558410097,
				"y": 0.0198819573,
				"z": 1.9429654992,
				"element": "N" 
			},
			{
				"x": -1.9281639133,
				"y": 0.3478283601,
				"z": 2.3557991906,
				"element": "C" 
			},
			{
				"x": 0.3365355059,
				"y": -0.2975666583,
				"z": 2.9743781914,
				"element": "C" 
			},
			{
				"x": 0.0098231018,
				"y": -0.3186096328,
				"z": 4.1469461986,
				"element": "O" 
			},
			{
				"x": 2.7415464537,
				"y": -0.1095743858,
				"z": 4.2746333268,
				"element": "H" 
			},
			{
				"x": 3.5565694264,
				"y": -1.1317755335,
				"z": 3.048671708,
				"element": "H" 
			},
			{
				"x": 2.3005525959,
				"y": -1.8217740152,
				"z": 4.1252169649,
				"element": "H" 
			},
			{
				"x": 0.035532431,
				"y": -1.6470526919,
				"z": -1.7001003245,
				"element": "H" 
			},
			{
				"x": 1.3659497804,
				"y": -1.886224893,
				"z": -2.8562104103,
				"element": "H" 
			},
			{
				"x": -0.8512218827,
				"y": 0.6257997359,
				"z": -2.0065535118,
				"element": "H" 
			},
			{
				"x": -2.346698052,
				"y": -0.4902135094,
				"z": 2.9154342696,
				"element": "H" 
			},
			{
				"x": -2.5068086474,
				"y": 0.5421993115,
				"z": 1.4565323092,
				"element": "H" 
			},
			{
				"x": -1.9154520966,
				"y": 1.2267377171,
				"z": 3.003216717,
				"element": "H" 
			}
		],
		 "valence_orbital": [ 
			{
				"type": "occ",
				"energy": -0.3049,
				"method": "rhf"
			},
			{
				"type": "occ",
				"energy": -0.30056,
				"method": "rhf"
			},
			{
				"type": "occ",
				"energy": -0.29919,
				"method": "rhf"
			},
			{
				"type": "occ",
				"energy": -0.26329,
				"method": "rhf"
			},
			{
				"type": "occ",
				"energy": -0.24737,
				"method": "rhf"
			},
			{
				"type": "unocc",
				"energy": -0.09342,
				"method": "rhf"
			},
			{
				"type": "unocc",
				"energy": -0.03235,
				"method": "rhf"
			},
			{
				"type": "unocc",
				"energy": -0.00385,
				"method": "rhf"
			},
			{
				"type": "unocc",
				"energy": 0.01474,
				"method": "rhf"
			},
			{
				"type": "unocc",
				"energy": 0.06529,
				"method": "rhf"
			}
		],
		"cosmo_sigma_profile": { 
			"-0.025": 0.0,
			"-0.024": 0.0,
			"-0.023": 0.0,
			"-0.022": 0.0,
			"-0.021": 0.0,
			"-0.02": 0.0,
			"-0.019": 0.0,
			"-0.018": 0.0,
			"-0.017": 0.0,
			"-0.016": 0.0,
			"-0.015": 0.0,
			"-0.014": 0.0,
			"-0.013": 0.0,
			"-0.012": 0.0,
			"-0.011": 0.0666825176323,
			"-0.01": 1.94656936129,
			"-0.009": 4.33024188953,
			"-0.008": 6.29262452991,
			"-0.007": 12.5041240042,
			"-0.006": 21.8929574063,
			"-0.005": 22.6144955532,
			"-0.004": 22.5296198156,
			"-0.003": 20.7056498362,
			"-0.002": 11.5205833445,
			"-0.001": 9.62340602932,
			"0.0": 10.0520702134,
			"0.001": 10.1600570203,
			"0.002": 9.10770657072,
			"0.003": 9.14249864455,
			"0.004": 8.19511764854,
			"0.005": 6.69291209444,
			"0.006": 8.27363995536,
			"0.007": 7.44919207184,
			"0.008": 6.05260246927,
			"0.009": 5.65821494852,
			"0.01": 6.26710331636,
			"0.011": 10.771858073,
			"0.012": 7.77279788714,
			"0.013": 1.998351297,
			"0.014": 0.0470125338529,
			"0.015": 0.0,
			"0.016": 0.0,
			"0.017": 0.0,
			"0.018": 0.0,
			"0.019": 0.0,
			"0.02": 0.0,
			"0.021": 0.0,
			"0.022": 0.0,
			"0.023": 0.0,
			"0.024": 0.0,
			"0.025": 0.0
		}
	}
}
