{
	 "smiles": "C(P(C1=CC=CC=C1)C1=CC=CC=C1)P(C1=CC=CC=C1)C1=CC=CC=C1", 
	 "Tm": 393.15, 
	 "num_atms": 49, 
	 "gaussian": { 
		 "optdone": 1, 
		 "sigma_profile": "yes", 
		 "theory": "DFT", 
		 "functional": "B3LYP", 
		 "basiset": "6-31G**", 
		 "properties": { 
			 "R2extent": 9868.0967, 
			 "electric_dipole_moment_norm": 2.16408168515, 
			 "electric_quadrupole_moment_norm": 15.0726863442, 
			 "total_energy": -1648.60418998, 
			 "HOMO_LUMO_gap": 0.16407, 
			 "cosmo_polarized_energy": -13.11, 
			 "cosmo_cavitation_energy": 52.49, 
			 "cosmo_dispersion_energy": -34.29, 
			 "cosmo_repulsion_energy": 2.82, 
			 "cosmo_total_nonelectrostatic_energy": 21.02, 
			 "SMD_solvation_energy": 8.3 
		},
		"coords": [
			{
				"x": 0.7188739766,
				"y": -0.4485400885,
				"z": -2.5433386793,
				"element": "C" 
			},
			{
				"x": -0.9837206409,
				"y": 0.3637416038,
				"z": -2.7095224539,
				"element": "P" 
			},
			{
				"x": -0.9051295982,
				"y": 1.9425307849,
				"z": -1.7574447999,
				"element": "C" 
			},
			{
				"x": -2.106790802,
				"y": 2.5569788808,
				"z": -1.3574841259,
				"element": "C" 
			},
			{
				"x": -2.1090780822,
				"y": 3.8309695687,
				"z": -0.790936151,
				"element": "C" 
			},
			{
				"x": -0.9119097303,
				"y": 4.5294128269,
				"z": -0.6228463421,
				"element": "C" 
			},
			{
				"x": 0.2849849758,
				"y": 3.9406510614,
				"z": -1.0308905565,
				"element": "C" 
			},
			{
				"x": 0.2878236903,
				"y": 2.664664997,
				"z": -1.5962502926,
				"element": "C" 
			},
			{
				"x": -2.1863507115,
				"y": -0.6730762838,
				"z": -1.760284436,
				"element": "C" 
			},
			{
				"x": -2.9312799543,
				"y": -1.6000984479,
				"z": -2.5086751447,
				"element": "C" 
			},
			{
				"x": -3.8697440147,
				"y": -2.4313641143,
				"z": -1.8946534752,
				"element": "C" 
			},
			{
				"x": -4.0956653234,
				"y": -2.3317601269,
				"z": -0.5212708666,
				"element": "C" 
			},
			{
				"x": -3.3824642823,
				"y": -1.3955762017,
				"z": 0.2311261609,
				"element": "C" 
			},
			{
				"x": -2.4362354425,
				"y": -0.574435917,
				"z": -0.3821512834,
				"element": "C" 
			},
			{
				"x": 1.7877160738,
				"y": -1.1439629946,
				"z": -1.1431251952,
				"element": "P" 
			},
			{
				"x": 1.8100560075,
				"y": 0.1147839396,
				"z": 0.2124110762,
				"element": "C" 
			},
			{
				"x": 2.9218832709,
				"y": 0.9734989185,
				"z": 0.2417770076,
				"element": "C" 
			},
			{
				"x": 3.0435021549,
				"y": 1.9589077511,
				"z": 1.2230372776,
				"element": "C" 
			},
			{
				"x": 2.0632484951,
				"y": 2.0859505351,
				"z": 2.2079949707,
				"element": "C" 
			},
			{
				"x": 0.9662674697,
				"y": 1.2211925628,
				"z": 2.2079665514,
				"element": "C" 
			},
			{
				"x": 0.8402313226,
				"y": 0.2452742874,
				"z": 1.2192748727,
				"element": "C" 
			},
			{
				"x": 0.8504396734,
				"y": -2.5612359803,
				"z": -0.4239953584,
				"element": "C" 
			},
			{
				"x": -0.0346768096,
				"y": -3.3405737347,
				"z": -1.1854649887,
				"element": "C" 
			},
			{
				"x": -0.5880021011,
				"y": -4.5126414877,
				"z": -0.6679619287,
				"element": "C" 
			},
			{
				"x": -0.2612953897,
				"y": -4.9392550338,
				"z": 0.6192857812,
				"element": "C" 
			},
			{
				"x": 0.6300206914,
				"y": -4.1840086389,
				"z": 1.3837664649,
				"element": "C" 
			},
			{
				"x": 1.1843596833,
				"y": -3.0139351345,
				"z": 0.8663717815,
				"element": "C" 
			},
			{
				"x": 0.6729407802,
				"y": -1.2782489436,
				"z": -3.259756461,
				"element": "H" 
			},
			{
				"x": 1.3875594111,
				"y": 0.2659972262,
				"z": -3.0394034431,
				"element": "H" 
			},
			{
				"x": -3.0497894365,
				"y": 2.0338735429,
				"z": -1.4865247816,
				"element": "H" 
			},
			{
				"x": -3.0501240266,
				"y": 4.2789117825,
				"z": -0.4832917698,
				"element": "H" 
			},
			{
				"x": -0.9129681901,
				"y": 5.5220971879,
				"z": -0.1819263696,
				"element": "H" 
			},
			{
				"x": 1.2249095896,
				"y": 4.4704057897,
				"z": -0.9044536305,
				"element": "H" 
			},
			{
				"x": 1.2353763645,
				"y": 2.2322149995,
				"z": -1.8971512146,
				"element": "H" 
			},
			{
				"x": -2.7785829449,
				"y": -1.6626501911,
				"z": -3.5834090312,
				"element": "H" 
			},
			{
				"x": -4.4333328114,
				"y": -3.143855105,
				"z": -2.4907018654,
				"element": "H" 
			},
			{
				"x": -4.8311151991,
				"y": -2.9709166704,
				"z": -0.0409248104,
				"element": "H" 
			},
			{
				"x": -3.5621346761,
				"y": -1.3064675832,
				"z": 1.2990588323,
				"element": "H" 
			},
			{
				"x": -1.898512132,
				"y": 0.1587062565,
				"z": 0.208711246,
				"element": "H" 
			},
			{
				"x": 3.7019673629,
				"y": 0.8607710299,
				"z": -0.5072551983,
				"element": "H" 
			},
			{
				"x": 3.9095120926,
				"y": 2.6150812523,
				"z": 1.2263408839,
				"element": "H" 
			},
			{
				"x": 2.1582885303,
				"y": 2.8459517956,
				"z": 2.9783815196,
				"element": "H" 
			},
			{
				"x": 0.2055174748,
				"y": 1.3087320679,
				"z": 2.9788657887,
				"element": "H" 
			},
			{
				"x": -0.0078576274,
				"y": -0.4301538741,
				"z": 1.2370989053,
				"element": "H" 
			},
			{
				"x": -0.3135476867,
				"y": -3.0328273454,
				"z": -2.186928185,
				"element": "H" 
			},
			{
				"x": -1.281844427,
				"y": -5.0881675258,
				"z": -1.274128885,
				"element": "H" 
			},
			{
				"x": -0.693229973,
				"y": -5.8511234877,
				"z": 1.0214803324,
				"element": "H" 
			},
			{
				"x": 0.8987356545,
				"y": -4.5066585887,
				"z": 2.3860387811,
				"element": "H" 
			},
			{
				"x": 1.8817672675,
				"y": -2.4452671492,
				"z": 1.4744634895,
				"element": "H" 
			}
		],
		 "valence_orbital": [ 
			{
				"type": "occ",
				"energy": -0.25163,
				"method": "rhf"
			},
			{
				"type": "occ",
				"energy": -0.24451,
				"method": "rhf"
			},
			{
				"type": "occ",
				"energy": -0.24426,
				"method": "rhf"
			},
			{
				"type": "occ",
				"energy": -0.22121,
				"method": "rhf"
			},
			{
				"type": "occ",
				"energy": -0.18962,
				"method": "rhf"
			},
			{
				"type": "unocc",
				"energy": -0.02555,
				"method": "rhf"
			},
			{
				"type": "unocc",
				"energy": -0.01794,
				"method": "rhf"
			},
			{
				"type": "unocc",
				"energy": -0.01187,
				"method": "rhf"
			},
			{
				"type": "unocc",
				"energy": -0.00632,
				"method": "rhf"
			},
			{
				"type": "unocc",
				"energy": -0.00536,
				"method": "rhf"
			}
		],
		"cosmo_sigma_profile": { 
			"-0.025": 0.0,
			"-0.024": 0.0,
			"-0.023": 0.0,
			"-0.022": 0.0,
			"-0.021": 0.0,
			"-0.02": 0.0,
			"-0.019": 0.0,
			"-0.018": 0.0,
			"-0.017": 0.0,
			"-0.016": 0.0,
			"-0.015": 0.0,
			"-0.014": 0.0,
			"-0.013": 0.0,
			"-0.012": 0.0,
			"-0.011": 0.0,
			"-0.01": 0.0,
			"-0.009": 0.0,
			"-0.008": 0.11350217811,
			"-0.007": 5.0681805726,
			"-0.006": 18.0290168674,
			"-0.005": 39.7900168735,
			"-0.004": 43.5203243786,
			"-0.003": 42.0032197718,
			"-0.002": 29.9993792914,
			"-0.001": 28.4340561297,
			"0.0": 28.4889800188,
			"0.001": 27.6838471079,
			"0.002": 30.2268452637,
			"0.003": 28.6420896815,
			"0.004": 29.2094299705,
			"0.005": 31.3985148302,
			"0.006": 23.0030013211,
			"0.007": 5.41735465164,
			"0.008": 2.06860325061,
			"0.009": 1.95922958948,
			"0.01": 1.13464325611,
			"0.011": 1.52297735995,
			"0.012": 1.24844289526,
			"0.013": 1.46547335435,
			"0.014": 0.975621737552,
			"0.015": 0.0349881633596,
			"0.016": 0.0,
			"0.017": 0.0,
			"0.018": 0.0,
			"0.019": 0.0,
			"0.02": 0.0,
			"0.021": 0.0,
			"0.022": 0.0,
			"0.023": 0.0,
			"0.024": 0.0,
			"0.025": 0.0
		}
	}
}
