{
	 "smiles": "COC1=CC=C(NC(=O)C(C)=NNC(N)=S)C=C1", 
	 "Tm": 507.15, 
	 "num_atms": 32, 
	 "gaussian": { 
		 "optdone": 1, 
		 "sigma_profile": "yes", 
		 "theory": "DFT", 
		 "functional": "B3LYP", 
		 "basiset": "6-31G**", 
		 "properties": { 
			 "R2extent": 8832.2875, 
			 "electric_dipole_moment_norm": 7.14405025178, 
			 "electric_quadrupole_moment_norm": 33.304499284, 
			 "total_energy": -1195.2240043, 
			 "HOMO_LUMO_gap": 0.12953, 
			 "cosmo_polarized_energy": -27.21, 
			 "cosmo_cavitation_energy": 38.52, 
			 "cosmo_dispersion_energy": -27.73, 
			 "cosmo_repulsion_energy": 2.15, 
			 "cosmo_total_nonelectrostatic_energy": 12.94, 
			 "SMD_solvation_energy": 6.58 
		},
		"coords": [
			{
				"x": -4.7675336135,
				"y": -0.4085718187,
				"z": 2.5566467596,
				"element": "C" 
			},
			{
				"x": -3.491164087,
				"y": -0.8906146668,
				"z": 2.9524525744,
				"element": "O" 
			},
			{
				"x": -2.5363224746,
				"y": -1.0544691075,
				"z": 1.9965665981,
				"element": "C" 
			},
			{
				"x": -1.2935064339,
				"y": -1.5247888415,
				"z": 2.4512590226,
				"element": "C" 
			},
			{
				"x": -0.2477430273,
				"y": -1.7127107196,
				"z": 1.5590460914,
				"element": "C" 
			},
			{
				"x": -0.4232383575,
				"y": -1.4525808665,
				"z": 0.192313342,
				"element": "C" 
			},
			{
				"x": 0.6531125312,
				"y": -1.7030610361,
				"z": -0.7116646029,
				"element": "N" 
			},
			{
				"x": 1.0989888715,
				"y": -0.9533836925,
				"z": -1.7742541147,
				"element": "C" 
			},
			{
				"x": 1.6753011466,
				"y": -1.5401862615,
				"z": -2.7077879111,
				"element": "O" 
			},
			{
				"x": 0.9556862202,
				"y": 0.5402788381,
				"z": -1.7627364204,
				"element": "C" 
			},
			{
				"x": 0.7028610561,
				"y": 1.3196909696,
				"z": -0.492247896,
				"element": "C" 
			},
			{
				"x": 1.1421583746,
				"y": 1.2663825702,
				"z": -2.8241585229,
				"element": "N" 
			},
			{
				"x": 1.4636108071,
				"y": 0.7058858822,
				"z": -3.9956144311,
				"element": "N" 
			},
			{
				"x": 1.6333678714,
				"y": 1.4745876454,
				"z": -5.132809645,
				"element": "C" 
			},
			{
				"x": 2.0303237529,
				"y": 0.7151406758,
				"z": -6.1938047447,
				"element": "N" 
			},
			{
				"x": 1.4133400979,
				"y": 3.1217402216,
				"z": -5.2454904526,
				"element": "S" 
			},
			{
				"x": -1.6678518831,
				"y": -1.0112703036,
				"z": -0.2614095097,
				"element": "C" 
			},
			{
				"x": -2.7187269023,
				"y": -0.7936592809,
				"z": 0.632482296,
				"element": "C" 
			},
			{
				"x": -5.3610687665,
				"y": -0.3461629926,
				"z": 3.469586338,
				"element": "H" 
			},
			{
				"x": -4.6994098913,
				"y": 0.5873826681,
				"z": 2.1011168253,
				"element": "H" 
			},
			{
				"x": -5.2578890852,
				"y": -1.0937748603,
				"z": 1.8535747509,
				"element": "H" 
			},
			{
				"x": -1.171036499,
				"y": -1.7227586616,
				"z": 3.5107790594,
				"element": "H" 
			},
			{
				"x": 0.7185675714,
				"y": -2.0563020011,
				"z": 1.9160662974,
				"element": "H" 
			},
			{
				"x": 0.9270353581,
				"y": -2.6739873125,
				"z": -0.8238954605,
				"element": "H" 
			},
			{
				"x": 0.9723725419,
				"y": 2.3603390942,
				"z": -0.6789864506,
				"element": "H" 
			},
			{
				"x": 1.3095497937,
				"y": 0.9363841687,
				"z": 0.3346211698,
				"element": "H" 
			},
			{
				"x": -0.3414325316,
				"y": 1.2845440193,
				"z": -0.1707022081,
				"element": "H" 
			},
			{
				"x": 1.6980514545,
				"y": -0.2931435324,
				"z": -3.9692732944,
				"element": "H" 
			},
			{
				"x": 1.9687100733,
				"y": -0.2933725472,
				"z": -6.1806275054,
				"element": "H" 
			},
			{
				"x": 2.0699228159,
				"y": 1.1785296742,
				"z": -7.0872439731,
				"element": "H" 
			},
			{
				"x": -1.820552186,
				"y": -0.8331915153,
				"z": -1.3216199087,
				"element": "H" 
			},
			{
				"x": -3.6697845994,
				"y": -0.4405964089,
				"z": 0.2528159268,
				"element": "H" 
			}
		],
		 "valence_orbital": [ 
			{
				"type": "occ",
				"energy": -0.25902,
				"method": "rhf"
			},
			{
				"type": "occ",
				"energy": -0.24534,
				"method": "rhf"
			},
			{
				"type": "occ",
				"energy": -0.22898,
				"method": "rhf"
			},
			{
				"type": "occ",
				"energy": -0.20751,
				"method": "rhf"
			},
			{
				"type": "occ",
				"energy": -0.19324,
				"method": "rhf"
			},
			{
				"type": "unocc",
				"energy": -0.06371,
				"method": "rhf"
			},
			{
				"type": "unocc",
				"energy": -0.02282,
				"method": "rhf"
			},
			{
				"type": "unocc",
				"energy": -0.00936,
				"method": "rhf"
			},
			{
				"type": "unocc",
				"energy": 0.01516,
				"method": "rhf"
			},
			{
				"type": "unocc",
				"energy": 0.06696,
				"method": "rhf"
			}
		],
		"cosmo_sigma_profile": { 
			"-0.025": 0.0,
			"-0.024": 0.0,
			"-0.023": 0.0,
			"-0.022": 0.0,
			"-0.021": 0.0,
			"-0.02": 0.0,
			"-0.019": 0.0,
			"-0.018": 0.0,
			"-0.017": 0.176601641544,
			"-0.016": 2.02074950746,
			"-0.015": 2.19592396575,
			"-0.014": 3.63197488262,
			"-0.013": 3.80003159371,
			"-0.012": 2.72821879762,
			"-0.011": 2.96732049877,
			"-0.01": 2.92337355637,
			"-0.009": 2.52899905931,
			"-0.008": 3.06208829719,
			"-0.007": 7.63009735552,
			"-0.006": 15.961266317,
			"-0.005": 20.6419758232,
			"-0.004": 22.2192889189,
			"-0.003": 24.0352328429,
			"-0.002": 20.5798972255,
			"-0.001": 20.85167067,
			"0.0": 19.2236599393,
			"0.001": 16.0029984803,
			"0.002": 15.3544772891,
			"0.003": 15.3065053513,
			"0.004": 15.9146761651,
			"0.005": 9.90222402964,
			"0.006": 6.97539900775,
			"0.007": 6.46519038504,
			"0.008": 6.59664463139,
			"0.009": 7.65152322243,
			"0.01": 10.7166757054,
			"0.011": 8.49492753343,
			"0.012": 5.07195157094,
			"0.013": 2.45510932143,
			"0.014": 1.23155598556,
			"0.015": 1.32967701018,
			"0.016": 0.873385515899,
			"0.017": 0.935655415537,
			"0.018": 0.291477285764,
			"0.019": 0.0,
			"0.02": 0.0,
			"0.021": 0.0,
			"0.022": 0.0,
			"0.023": 0.0,
			"0.024": 0.0,
			"0.025": 0.0
		}
	}
}
