{
	 "smiles": "CCCCCCCOC1=CC=C(C=C1)C1=CC=C(C=C1)C#N", 
	 "Tm": 327.15, 
	 "num_atms": 45, 
	 "gaussian": { 
		 "optdone": 1, 
		 "sigma_profile": "yes", 
		 "theory": "DFT", 
		 "functional": "B3LYP", 
		 "basiset": "6-31G**", 
		 "properties": { 
			 "R2extent": 11515.7644, 
			 "electric_dipole_moment_norm": 6.58938126154, 
			 "electric_quadrupole_moment_norm": 35.0160673734, 
			 "total_energy": -905.969434588, 
			 "HOMO_LUMO_gap": 0.16218, 
			 "cosmo_polarized_energy": -12.03, 
			 "cosmo_cavitation_energy": 48.12, 
			 "cosmo_dispersion_energy": -32.2, 
			 "cosmo_repulsion_energy": 2.5, 
			 "cosmo_total_nonelectrostatic_energy": 18.42, 
			 "SMD_solvation_energy": 8.83 
		},
		"coords": [
			{
				"x": 3.4206833818,
				"y": 3.0825247012,
				"z": -2.0504926301,
				"element": "C" 
			},
			{
				"x": 3.5698509834,
				"y": 3.5058503967,
				"z": -0.5852434298,
				"element": "C" 
			},
			{
				"x": 2.2742596758,
				"y": 3.3349382925,
				"z": 0.2206548561,
				"element": "C" 
			},
			{
				"x": 2.3417351914,
				"y": 3.8413325061,
				"z": 1.6720956003,
				"element": "C" 
			},
			{
				"x": 3.3570342685,
				"y": 3.1281846985,
				"z": 2.585317878,
				"element": "C" 
			},
			{
				"x": 3.125887991,
				"y": 1.6261232376,
				"z": 2.8328526749,
				"element": "C" 
			},
			{
				"x": 1.8849850133,
				"y": 1.2831025847,
				"z": 3.6632098765,
				"element": "C" 
			},
			{
				"x": 0.643076672,
				"y": 1.48504056,
				"z": 2.9756130357,
				"element": "O" 
			},
			{
				"x": 0.1724692214,
				"y": 0.5332238796,
				"z": 2.1227731431,
				"element": "C" 
			},
			{
				"x": -1.0586022005,
				"y": 0.8253941935,
				"z": 1.5127334093,
				"element": "C" 
			},
			{
				"x": -1.6432268526,
				"y": -0.0801457459,
				"z": 0.6405415298,
				"element": "C" 
			},
			{
				"x": -1.0259691346,
				"y": -1.3093291266,
				"z": 0.3363649001,
				"element": "C" 
			},
			{
				"x": 0.2048836151,
				"y": -1.58259344,
				"z": 0.9501277666,
				"element": "C" 
			},
			{
				"x": 0.8056231671,
				"y": -0.6830375671,
				"z": 1.8310540917,
				"element": "C" 
			},
			{
				"x": -1.6529772313,
				"y": -2.274370907,
				"z": -0.5954940335,
				"element": "C" 
			},
			{
				"x": -0.8713235486,
				"y": -3.0601813161,
				"z": -1.4634294376,
				"element": "C" 
			},
			{
				"x": -1.4538982331,
				"y": -3.9703496981,
				"z": -2.3364310782,
				"element": "C" 
			},
			{
				"x": -2.851117004,
				"y": -4.1173419763,
				"z": -2.3705627293,
				"element": "C" 
			},
			{
				"x": -3.646311796,
				"y": -3.3379360567,
				"z": -1.5131824099,
				"element": "C" 
			},
			{
				"x": -3.0507672441,
				"y": -2.4353887319,
				"z": -0.6409589295,
				"element": "C" 
			},
			{
				"x": -3.4585031192,
				"y": -5.0520415918,
				"z": -3.2705639408,
				"element": "C" 
			},
			{
				"x": -3.95166364,
				"y": -5.8115206718,
				"z": -4.0015740917,
				"element": "N" 
			},
			{
				"x": 4.3565291213,
				"y": 3.2126339216,
				"z": -2.6039716304,
				"element": "H" 
			},
			{
				"x": 3.1306686538,
				"y": 2.0285080587,
				"z": -2.1306680072,
				"element": "H" 
			},
			{
				"x": 2.649397404,
				"y": 3.6741536715,
				"z": -2.5567946063,
				"element": "H" 
			},
			{
				"x": 4.3789566024,
				"y": 2.924210972,
				"z": -0.1247280598,
				"element": "H" 
			},
			{
				"x": 3.8882425108,
				"y": 4.556671982,
				"z": -0.5379453061,
				"element": "H" 
			},
			{
				"x": 1.468796923,
				"y": 3.8776626286,
				"z": -0.2926686515,
				"element": "H" 
			},
			{
				"x": 1.9722665171,
				"y": 2.2792465018,
				"z": 0.203225216,
				"element": "H" 
			},
			{
				"x": 2.5953628119,
				"y": 4.9104252047,
				"z": 1.6581049658,
				"element": "H" 
			},
			{
				"x": 1.3440191915,
				"y": 3.7663973293,
				"z": 2.1171077721,
				"element": "H" 
			},
			{
				"x": 4.3663614004,
				"y": 3.252998831,
				"z": 2.1741271066,
				"element": "H" 
			},
			{
				"x": 3.3695444075,
				"y": 3.6397558496,
				"z": 3.5578517053,
				"element": "H" 
			},
			{
				"x": 3.9897331721,
				"y": 1.229983611,
				"z": 3.3839226475,
				"element": "H" 
			},
			{
				"x": 3.0959112119,
				"y": 1.0770196677,
				"z": 1.8847916608,
				"element": "H" 
			},
			{
				"x": 1.9349832815,
				"y": 0.2532059643,
				"z": 4.0378855999,
				"element": "H" 
			},
			{
				"x": 1.8219474823,
				"y": 1.944299093,
				"z": 4.5334366533,
				"element": "H" 
			},
			{
				"x": -1.5336779915,
				"y": 1.7744421717,
				"z": 1.7382308974,
				"element": "H" 
			},
			{
				"x": -2.5834461699,
				"y": 0.1809046006,
				"z": 0.1640344818,
				"element": "H" 
			},
			{
				"x": 0.6992248291,
				"y": -2.5307912829,
				"z": 0.7603070525,
				"element": "H" 
			},
			{
				"x": 1.7547775855,
				"y": -0.9441533638,
				"z": 2.2828353044,
				"element": "H" 
			},
			{
				"x": 0.20676681,
				"y": -2.935437947,
				"z": -1.4712512692,
				"element": "H" 
			},
			{
				"x": -0.8366471509,
				"y": -4.5626332034,
				"z": -3.0038481157,
				"element": "H" 
			},
			{
				"x": -4.7248900157,
				"y": -3.4546948324,
				"z": -1.5295433039,
				"element": "H" 
			},
			{
				"x": -3.6765577652,
				"y": -1.8629876509,
				"z": 0.0362518351,
				"element": "H" 
			}
		],
		 "valence_orbital": [ 
			{
				"type": "occ",
				"energy": -0.30646,
				"method": "rhf"
			},
			{
				"type": "occ",
				"energy": -0.27151,
				"method": "rhf"
			},
			{
				"type": "occ",
				"energy": -0.2676,
				"method": "rhf"
			},
			{
				"type": "occ",
				"energy": -0.26268,
				"method": "rhf"
			},
			{
				"type": "occ",
				"energy": -0.21798,
				"method": "rhf"
			},
			{
				"type": "unocc",
				"energy": -0.0558,
				"method": "rhf"
			},
			{
				"type": "unocc",
				"energy": -0.02176,
				"method": "rhf"
			},
			{
				"type": "unocc",
				"energy": -0.01371,
				"method": "rhf"
			},
			{
				"type": "unocc",
				"energy": 0.00979,
				"method": "rhf"
			},
			{
				"type": "unocc",
				"energy": 0.04212,
				"method": "rhf"
			}
		],
		"cosmo_sigma_profile": { 
			"-0.025": 0.0,
			"-0.024": 0.0,
			"-0.023": 0.0,
			"-0.022": 0.0,
			"-0.021": 0.0,
			"-0.02": 0.0,
			"-0.019": 0.0,
			"-0.018": 0.0,
			"-0.017": 0.0,
			"-0.016": 0.0,
			"-0.015": 0.0,
			"-0.014": 0.0,
			"-0.013": 0.0,
			"-0.012": 0.0,
			"-0.011": 0.0,
			"-0.01": 0.0,
			"-0.009": 0.0,
			"-0.008": 2.06105710514,
			"-0.007": 8.29132091339,
			"-0.006": 18.582096922,
			"-0.005": 18.8354659322,
			"-0.004": 21.464267593,
			"-0.003": 23.768271399,
			"-0.002": 37.0839417103,
			"-0.001": 46.0445252823,
			"0.0": 45.8605430026,
			"0.001": 45.7259834898,
			"0.002": 35.6576905918,
			"0.003": 23.9530326964,
			"0.004": 14.2063402247,
			"0.005": 11.3612685412,
			"0.006": 3.84145261522,
			"0.007": 3.62871898808,
			"0.008": 3.93822021846,
			"0.009": 4.68919229347,
			"0.01": 4.0551152579,
			"0.011": 2.71994639342,
			"0.012": 2.71151460072,
			"0.013": 1.74686954487,
			"0.014": 0.245393773992,
			"0.015": 0.0,
			"0.016": 0.0,
			"0.017": 0.0,
			"0.018": 0.0,
			"0.019": 0.0,
			"0.02": 0.0,
			"0.021": 0.0,
			"0.022": 0.0,
			"0.023": 0.0,
			"0.024": 0.0,
			"0.025": 0.0
		}
	}
}
