{
	 "smiles": "CCOC(=O)C(C(C)C(C(C)=O)C(=O)OC1CC(C)CCC1C(C)C)C(C)=O", 
	 "Tm": 428.15, 
	 "num_atms": 64, 
	 "gaussian": { 
		 "optdone": 1, 
		 "sigma_profile": "yes", 
		 "theory": "DFT", 
		 "functional": "B3LYP", 
		 "basiset": "6-31G**", 
		 "properties": { 
			 "R2extent": 13622.668, 
			 "electric_dipole_moment_norm": 3.2459044148, 
			 "electric_quadrupole_moment_norm": 20.0447452281, 
			 "total_energy": -1311.43333134, 
			 "HOMO_LUMO_gap": 0.20835, 
			 "cosmo_polarized_energy": -16.28, 
			 "cosmo_cavitation_energy": 61.87, 
			 "cosmo_dispersion_energy": -36.91, 
			 "cosmo_repulsion_energy": 2.82, 
			 "cosmo_total_nonelectrostatic_energy": 27.78, 
			 "SMD_solvation_energy": 12.4 
		},
		"coords": [
			{
				"x": 0.6558889734,
				"y": 0.8283309888,
				"z": 7.24929324,
				"element": "C" 
			},
			{
				"x": 1.0995362511,
				"y": 0.3449772124,
				"z": 5.8779543618,
				"element": "C" 
			},
			{
				"x": 0.7615595978,
				"y": 1.3070158448,
				"z": 4.8425526131,
				"element": "O" 
			},
			{
				"x": -0.4809016746,
				"y": 1.2506589063,
				"z": 4.3383928311,
				"element": "C" 
			},
			{
				"x": -1.3402121662,
				"y": 0.4825584226,
				"z": 4.7261029411,
				"element": "O" 
			},
			{
				"x": -0.719684479,
				"y": 2.2705233196,
				"z": 3.2262717057,
				"element": "C" 
			},
			{
				"x": -0.7040278519,
				"y": 1.6719169373,
				"z": 1.7806662485,
				"element": "C" 
			},
			{
				"x": -1.2932596731,
				"y": 2.7286228402,
				"z": 0.8279534314,
				"element": "C" 
			},
			{
				"x": -1.4696968541,
				"y": 0.3306769113,
				"z": 1.6781920666,
				"element": "C" 
			},
			{
				"x": -0.6964744935,
				"y": -0.8573293477,
				"z": 2.3044267338,
				"element": "C" 
			},
			{
				"x": -1.5298811536,
				"y": -2.0513948558,
				"z": 2.7069103203,
				"element": "C" 
			},
			{
				"x": 0.5121015932,
				"y": -0.8187896019,
				"z": 2.4396281491,
				"element": "O" 
			},
			{
				"x": -1.7602513172,
				"y": -0.1033970451,
				"z": 0.2354277955,
				"element": "C" 
			},
			{
				"x": -2.8449276268,
				"y": -0.4868522125,
				"z": -0.1508250511,
				"element": "O" 
			},
			{
				"x": -0.6473154974,
				"y": -0.0633053161,
				"z": -0.5201717695,
				"element": "O" 
			},
			{
				"x": -0.7447815975,
				"y": -0.5496921891,
				"z": -1.9036190759,
				"element": "C" 
			},
			{
				"x": -0.5368907502,
				"y": -2.0638613915,
				"z": -1.9061369229,
				"element": "C" 
			},
			{
				"x": 0.8345167022,
				"y": -2.4964982789,
				"z": -1.3356431191,
				"element": "C" 
			},
			{
				"x": 1.1827288093,
				"y": -3.9146344706,
				"z": -1.8078439446,
				"element": "C" 
			},
			{
				"x": 1.9393465174,
				"y": -1.467280706,
				"z": -1.705281066,
				"element": "C" 
			},
			{
				"x": 1.5792206263,
				"y": -0.6617241358,
				"z": -2.9607374452,
				"element": "C" 
			},
			{
				"x": 0.3280105474,
				"y": 0.2126700781,
				"z": -2.7229762327,
				"element": "C" 
			},
			{
				"x": -0.2217143248,
				"y": 0.8427675329,
				"z": -4.0329567261,
				"element": "C" 
			},
			{
				"x": -1.1573357048,
				"y": 2.0282912782,
				"z": -3.7453390027,
				"element": "C" 
			},
			{
				"x": -0.8999544325,
				"y": -0.1609789194,
				"z": -4.9810964465,
				"element": "C" 
			},
			{
				"x": 0.2166377389,
				"y": 3.4908600369,
				"z": 3.3705152968,
				"element": "C" 
			},
			{
				"x": 1.6233737309,
				"y": 3.4105278927,
				"z": 2.8076197082,
				"element": "C" 
			},
			{
				"x": -0.1953732989,
				"y": 4.4941381027,
				"z": 3.9194472092,
				"element": "O" 
			},
			{
				"x": 0.9964044231,
				"y": 0.1237275142,
				"z": 8.0153438818,
				"element": "H" 
			},
			{
				"x": 1.0815240505,
				"y": 1.8107744938,
				"z": 7.4730773623,
				"element": "H" 
			},
			{
				"x": -0.4332571932,
				"y": 0.8935270353,
				"z": 7.3022150954,
				"element": "H" 
			},
			{
				"x": 2.1859015142,
				"y": 0.2577124801,
				"z": 5.8117167616,
				"element": "H" 
			},
			{
				"x": 0.6445032369,
				"y": -0.6129668836,
				"z": 5.6193356992,
				"element": "H" 
			},
			{
				"x": -1.7282098107,
				"y": 2.6491360352,
				"z": 3.4232074373,
				"element": "H" 
			},
			{
				"x": 0.3314271898,
				"y": 1.4589835423,
				"z": 1.5023768254,
				"element": "H" 
			},
			{
				"x": -1.1798129908,
				"y": 2.4295247391,
				"z": -0.2160326363,
				"element": "H" 
			},
			{
				"x": -2.3595837445,
				"y": 2.8836424611,
				"z": 1.0274025438,
				"element": "H" 
			},
			{
				"x": -0.7975282298,
				"y": 3.6966634792,
				"z": 0.9486544449,
				"element": "H" 
			},
			{
				"x": -2.4478079258,
				"y": 0.3990531125,
				"z": 2.1621738246,
				"element": "H" 
			},
			{
				"x": -0.8892415768,
				"y": -2.9208646941,
				"z": 2.8629306163,
				"element": "H" 
			},
			{
				"x": -2.0342489513,
				"y": -1.8001054237,
				"z": 3.6467886016,
				"element": "H" 
			},
			{
				"x": -2.3047754462,
				"y": -2.2675341211,
				"z": 1.9651596167,
				"element": "H" 
			},
			{
				"x": -1.7554289322,
				"y": -0.3150270609,
				"z": -2.24276302,
				"element": "H" 
			},
			{
				"x": -0.6261185796,
				"y": -2.3971504503,
				"z": -2.9483736519,
				"element": "H" 
			},
			{
				"x": -1.3538547614,
				"y": -2.5476747846,
				"z": -1.3609994926,
				"element": "H" 
			},
			{
				"x": 0.7536352121,
				"y": -2.5171704174,
				"z": -0.2427613353,
				"element": "H" 
			},
			{
				"x": 1.3422736505,
				"y": -3.9418378083,
				"z": -2.8930430085,
				"element": "H" 
			},
			{
				"x": 0.3795819411,
				"y": -4.6232347678,
				"z": -1.5750675156,
				"element": "H" 
			},
			{
				"x": 2.0980755866,
				"y": -4.2769354827,
				"z": -1.3278643798,
				"element": "H" 
			},
			{
				"x": 2.8972000583,
				"y": -1.9818076027,
				"z": -1.8452984477,
				"element": "H" 
			},
			{
				"x": 2.0796497274,
				"y": -0.7706467738,
				"z": -0.8703207868,
				"element": "H" 
			},
			{
				"x": 1.4151560456,
				"y": -1.347046905,
				"z": -3.8025005999,
				"element": "H" 
			},
			{
				"x": 2.4142948344,
				"y": -0.0156060661,
				"z": -3.2555596442,
				"element": "H" 
			},
			{
				"x": 0.6450977798,
				"y": 1.0487375455,
				"z": -2.0868069859,
				"element": "H" 
			},
			{
				"x": 0.6567773933,
				"y": 1.2436678045,
				"z": -4.5593653606,
				"element": "H" 
			},
			{
				"x": -0.6600865895,
				"y": 2.7892941113,
				"z": -3.1337111148,
				"element": "H" 
			},
			{
				"x": -1.4790874551,
				"y": 2.5067542184,
				"z": -4.6765495074,
				"element": "H" 
			},
			{
				"x": -2.0634991434,
				"y": 1.7129838384,
				"z": -3.214816273,
				"element": "H" 
			},
			{
				"x": -1.8218948167,
				"y": -0.5674057284,
				"z": -4.5494162458,
				"element": "H" 
			},
			{
				"x": -1.1748504725,
				"y": 0.3300430637,
				"z": -5.9205426367,
				"element": "H" 
			},
			{
				"x": -0.2467869568,
				"y": -1.0024576104,
				"z": -5.2323320176,
				"element": "H" 
			},
			{
				"x": 1.5947690104,
				"y": 3.5454774913,
				"z": 1.7196611496,
				"element": "H" 
			},
			{
				"x": 2.081797196,
				"y": 2.4405732589,
				"z": 3.0104221975,
				"element": "H" 
			},
			{
				"x": 2.2212665344,
				"y": 4.2153985218,
				"z": 3.2379307524,
				"element": "H" 
			}
		],
		 "valence_orbital": [ 
			{
				"type": "occ",
				"energy": -0.2902,
				"method": "rhf"
			},
			{
				"type": "occ",
				"energy": -0.28517,
				"method": "rhf"
			},
			{
				"type": "occ",
				"energy": -0.27693,
				"method": "rhf"
			},
			{
				"type": "occ",
				"energy": -0.25219,
				"method": "rhf"
			},
			{
				"type": "occ",
				"energy": -0.24368,
				"method": "rhf"
			},
			{
				"type": "unocc",
				"energy": -0.03533,
				"method": "rhf"
			},
			{
				"type": "unocc",
				"energy": -0.0187,
				"method": "rhf"
			},
			{
				"type": "unocc",
				"energy": 0.00122,
				"method": "rhf"
			},
			{
				"type": "unocc",
				"energy": 0.02318,
				"method": "rhf"
			},
			{
				"type": "unocc",
				"energy": 0.06195,
				"method": "rhf"
			}
		],
		"cosmo_sigma_profile": { 
			"-0.025": 0.0,
			"-0.024": 0.0,
			"-0.023": 0.0,
			"-0.022": 0.0,
			"-0.021": 0.0,
			"-0.02": 0.0,
			"-0.019": 0.0,
			"-0.018": 0.0,
			"-0.017": 0.0,
			"-0.016": 0.0,
			"-0.015": 0.0,
			"-0.014": 0.0,
			"-0.013": 0.0,
			"-0.012": 0.0,
			"-0.011": 0.0,
			"-0.01": 0.0,
			"-0.009": 0.0,
			"-0.008": 0.0275597801064,
			"-0.007": 2.57063268582,
			"-0.006": 10.8126886097,
			"-0.005": 20.5471785496,
			"-0.004": 34.623990861,
			"-0.003": 49.5813352273,
			"-0.002": 74.2574902614,
			"-0.001": 73.4614548072,
			"0.0": 60.6146631653,
			"0.001": 46.7965441023,
			"0.002": 23.5178010981,
			"0.003": 11.5760568878,
			"0.004": 10.3679867471,
			"0.005": 7.30787739633,
			"0.006": 7.3906435531,
			"0.007": 5.13723575191,
			"0.008": 6.36620180629,
			"0.009": 5.18187182383,
			"0.01": 7.67959660797,
			"0.011": 11.5534299585,
			"0.012": 7.71691498268,
			"0.013": 1.17994805569,
			"0.014": 0.0,
			"0.015": 0.0,
			"0.016": 0.0,
			"0.017": 0.0,
			"0.018": 0.0,
			"0.019": 0.0,
			"0.02": 0.0,
			"0.021": 0.0,
			"0.022": 0.0,
			"0.023": 0.0,
			"0.024": 0.0,
			"0.025": 0.0
		}
	}
}
