{
	 "smiles": "COC1=CC=C(C=C1)C1=CC=C(C=C1)S(=O)(=O)NCC(O)=O", 
	 "Tm": 458.65, 
	 "num_atms": 37, 
	 "gaussian": { 
		 "optdone": 1, 
		 "sigma_profile": "yes", 
		 "theory": "DFT", 
		 "functional": "B3LYP", 
		 "basiset": "6-31G**", 
		 "properties": { 
			 "R2extent": 11585.2363, 
			 "electric_dipole_moment_norm": 5.95259643937, 
			 "electric_quadrupole_moment_norm": 25.9769746837, 
			 "total_energy": -1409.62784156, 
			 "HOMO_LUMO_gap": 0.16582, 
			 "cosmo_polarized_energy": -24.67, 
			 "cosmo_cavitation_energy": 43.37, 
			 "cosmo_dispersion_energy": -30.77, 
			 "cosmo_repulsion_energy": 2.3, 
			 "cosmo_total_nonelectrostatic_energy": 14.91, 
			 "SMD_solvation_energy": 8.29 
		},
		"coords": [
			{
				"x": -0.4726826405,
				"y": -6.7706502956,
				"z": 2.0313931887,
				"element": "C" 
			},
			{
				"x": -1.3276247542,
				"y": -5.6617661353,
				"z": 1.7931217992,
				"element": "O" 
			},
			{
				"x": -0.7619887576,
				"y": -4.451155994,
				"z": 1.5361770207,
				"element": "C" 
			},
			{
				"x": 0.6162170366,
				"y": -4.2051381987,
				"z": 1.4957915713,
				"element": "C" 
			},
			{
				"x": 1.0798101538,
				"y": -2.9186901664,
				"z": 1.2193121688,
				"element": "C" 
			},
			{
				"x": 0.2006840776,
				"y": -1.8525320238,
				"z": 0.9825194469,
				"element": "C" 
			},
			{
				"x": -1.1814964793,
				"y": -2.1226558271,
				"z": 1.0303418508,
				"element": "C" 
			},
			{
				"x": -1.6578864732,
				"y": -3.3963826146,
				"z": 1.2991688393,
				"element": "C" 
			},
			{
				"x": 0.7043520092,
				"y": -0.4901816202,
				"z": 0.6940604399,
				"element": "C" 
			},
			{
				"x": 1.8757701969,
				"y": -0.2958859049,
				"z": -0.0638592354,
				"element": "C" 
			},
			{
				"x": 2.3555191762,
				"y": 0.9800508801,
				"z": -0.3378413045,
				"element": "C" 
			},
			{
				"x": 1.6533938948,
				"y": 2.0881215245,
				"z": 0.1447230249,
				"element": "C" 
			},
			{
				"x": 0.494005551,
				"y": 1.9312031324,
				"z": 0.9069281291,
				"element": "C" 
			},
			{
				"x": 0.0296986345,
				"y": 0.646981798,
				"z": 1.1755799276,
				"element": "C" 
			},
			{
				"x": 2.251070793,
				"y": 3.7288946159,
				"z": -0.2239763836,
				"element": "S" 
			},
			{
				"x": 1.6429591518,
				"y": 4.6573717487,
				"z": 0.733259682,
				"element": "O" 
			},
			{
				"x": 3.6969757407,
				"y": 3.6747536515,
				"z": -0.4523758265,
				"element": "O" 
			},
			{
				"x": 1.6034245218,
				"y": 4.0401058678,
				"z": -1.7914064244,
				"element": "N" 
			},
			{
				"x": 0.3585318006,
				"y": 4.8162564453,
				"z": -1.9011863746,
				"element": "C" 
			},
			{
				"x": -0.8081850632,
				"y": 3.9880023419,
				"z": -2.4608789391,
				"element": "C" 
			},
			{
				"x": -0.5092202798,
				"y": 2.7143585858,
				"z": -2.7652755694,
				"element": "O" 
			},
			{
				"x": -1.9064165725,
				"y": 4.4624744165,
				"z": -2.6140594765,
				"element": "O" 
			},
			{
				"x": 0.1698350797,
				"y": -6.978367559,
				"z": 1.1664136431,
				"element": "H" 
			},
			{
				"x": -1.1292496564,
				"y": -7.6243451313,
				"z": 2.204338871,
				"element": "H" 
			},
			{
				"x": 0.1556765043,
				"y": -6.6133790001,
				"z": 2.9171938758,
				"element": "H" 
			},
			{
				"x": 1.3309998334,
				"y": -4.9966457843,
				"z": 1.6863363437,
				"element": "H" 
			},
			{
				"x": 2.1511873614,
				"y": -2.7408748611,
				"z": 1.2197872586,
				"element": "H" 
			},
			{
				"x": -1.8915984591,
				"y": -1.3277304352,
				"z": 0.8231681528,
				"element": "H" 
			},
			{
				"x": -2.7221033529,
				"y": -3.606105764,
				"z": 1.3220515121,
				"element": "H" 
			},
			{
				"x": 2.4043833755,
				"y": -1.1568669695,
				"z": -0.4600581957,
				"element": "H" 
			},
			{
				"x": 3.2649863903,
				"y": 1.120930001,
				"z": -0.912087613,
				"element": "H" 
			},
			{
				"x": -0.0165988149,
				"y": 2.8018479946,
				"z": 1.3033792174,
				"element": "H" 
			},
			{
				"x": -0.853821068,
				"y": 0.5230710978,
				"z": 1.7931578479,
				"element": "H" 
			},
			{
				"x": 2.3769425654,
				"y": 4.4045831614,
				"z": -2.3421253297,
				"element": "H" 
			},
			{
				"x": 0.0623295709,
				"y": 5.2183852495,
				"z": -0.9277509055,
				"element": "H" 
			},
			{
				"x": 0.5054008612,
				"y": 5.6746675641,
				"z": -2.5623723257,
				"element": "H" 
			},
			{
				"x": 0.4382180911,
				"y": 2.5894942085,
				"z": -2.5582499079,
				"element": "H" 
			}
		],
		 "valence_orbital": [ 
			{
				"type": "occ",
				"energy": -0.28295,
				"method": "rhf"
			},
			{
				"type": "occ",
				"energy": -0.27862,
				"method": "rhf"
			},
			{
				"type": "occ",
				"energy": -0.2657,
				"method": "rhf"
			},
			{
				"type": "occ",
				"energy": -0.26276,
				"method": "rhf"
			},
			{
				"type": "occ",
				"energy": -0.22453,
				"method": "rhf"
			},
			{
				"type": "unocc",
				"energy": -0.05871,
				"method": "rhf"
			},
			{
				"type": "unocc",
				"energy": -0.03006,
				"method": "rhf"
			},
			{
				"type": "unocc",
				"energy": -0.01603,
				"method": "rhf"
			},
			{
				"type": "unocc",
				"energy": 0.00797,
				"method": "rhf"
			},
			{
				"type": "unocc",
				"energy": 0.01095,
				"method": "rhf"
			}
		],
		"cosmo_sigma_profile": { 
			"-0.025": 0.0,
			"-0.024": 0.0,
			"-0.023": 0.0,
			"-0.022": 0.0,
			"-0.021": 0.0,
			"-0.02": 0.0,
			"-0.019": 0.0,
			"-0.018": 0.0,
			"-0.017": 0.0,
			"-0.016": 0.460704682737,
			"-0.015": 1.45334307209,
			"-0.014": 1.24990673616,
			"-0.013": 1.51945479356,
			"-0.012": 1.39891454799,
			"-0.011": 1.56875553523,
			"-0.01": 2.91683452086,
			"-0.009": 5.66449644138,
			"-0.008": 6.28723267373,
			"-0.007": 13.4296367925,
			"-0.006": 26.63628391,
			"-0.005": 28.8861377498,
			"-0.004": 26.6823543008,
			"-0.003": 23.1998818148,
			"-0.002": 16.0913272277,
			"-0.001": 16.127979932,
			"0.0": 16.2404529728,
			"0.001": 19.8901381317,
			"0.002": 23.7459850381,
			"0.003": 20.8566780059,
			"0.004": 15.1491438482,
			"0.005": 13.6888721429,
			"0.006": 6.73872512068,
			"0.007": 6.9029452533,
			"0.008": 6.94817957893,
			"0.009": 9.32782204126,
			"0.01": 15.325872789,
			"0.011": 9.81024918298,
			"0.012": 5.82594210525,
			"0.013": 2.362170401,
			"0.014": 0.121889448714,
			"0.015": 0.0,
			"0.016": 0.0,
			"0.017": 0.0,
			"0.018": 0.0,
			"0.019": 0.0,
			"0.02": 0.0,
			"0.021": 0.0,
			"0.022": 0.0,
			"0.023": 0.0,
			"0.024": 0.0,
			"0.025": 0.0
		}
	}
}
