{
	 "smiles": "CC1=NN(C2=C1C(=S)C1=C(O2)SC=C1)C1=CC=CC=C1", 
	 "Tm": 468.15, 
	 "num_atms": 30, 
	 "gaussian": { 
		 "optdone": 1, 
		 "sigma_profile": "yes", 
		 "theory": "DFT", 
		 "functional": "B3LYP", 
		 "basiset": "6-31G**", 
		 "properties": { 
			 "R2extent": 7030.8261, 
			 "electric_dipole_moment_norm": 4.29822265245, 
			 "electric_quadrupole_moment_norm": 13.2858181671, 
			 "total_energy": -1558.68752098, 
			 "HOMO_LUMO_gap": 0.13329, 
			 "cosmo_polarized_energy": -11.33, 
			 "cosmo_cavitation_energy": 37.44, 
			 "cosmo_dispersion_energy": -28.32, 
			 "cosmo_repulsion_energy": 2.03, 
			 "cosmo_total_nonelectrostatic_energy": 11.15, 
			 "SMD_solvation_energy": 4.89 
		},
		"coords": [
			{
				"x": 3.3867540889,
				"y": -0.0894792121,
				"z": -0.6560570575,
				"element": "C" 
			},
			{
				"x": 1.9841110531,
				"y": -0.1485104509,
				"z": -0.1470642013,
				"element": "C" 
			},
			{
				"x": 1.7131802639,
				"y": -0.7940586777,
				"z": 0.9732887289,
				"element": "N" 
			},
			{
				"x": 0.3517051348,
				"y": -0.6813436206,
				"z": 1.1935756733,
				"element": "N" 
			},
			{
				"x": -0.1978787683,
				"y": 0.0415147207,
				"z": 0.1907946264,
				"element": "C" 
			},
			{
				"x": 0.793534994,
				"y": 0.4207151587,
				"z": -0.7130366337,
				"element": "C" 
			},
			{
				"x": 0.488912178,
				"y": 1.2033085172,
				"z": -1.8844608804,
				"element": "C" 
			},
			{
				"x": 1.5918198628,
				"y": 1.7102978005,
				"z": -3.0271966474,
				"element": "S" 
			},
			{
				"x": -0.9384870868,
				"y": 1.5135149159,
				"z": -1.9630986551,
				"element": "C" 
			},
			{
				"x": -1.8250951345,
				"y": 1.0769564621,
				"z": -0.99773,
				"element": "C" 
			},
			{
				"x": -1.51413121,
				"y": 0.33607099,
				"z": 0.1045638495,
				"element": "O" 
			},
			{
				"x": -3.4684752788,
				"y": 1.548675407,
				"z": -1.2730005973,
				"element": "S" 
			},
			{
				"x": -2.9686610462,
				"y": 2.3686807497,
				"z": -2.7421583288,
				"element": "C" 
			},
			{
				"x": -1.6337972495,
				"y": 2.2668756128,
				"z": -2.9720863713,
				"element": "C" 
			},
			{
				"x": -0.2212241754,
				"y": -1.2921538711,
				"z": 2.3473212987,
				"element": "C" 
			},
			{
				"x": 0.6285643522,
				"y": -1.9885374061,
				"z": 3.2172679059,
				"element": "C" 
			},
			{
				"x": 0.1006703231,
				"y": -2.5964102841,
				"z": 4.3530230211,
				"element": "C" 
			},
			{
				"x": -1.2649075346,
				"y": -2.5197263543,
				"z": 4.6342714838,
				"element": "C" 
			},
			{
				"x": -2.1022131496,
				"y": -1.8246083744,
				"z": 3.7626665717,
				"element": "C" 
			},
			{
				"x": -1.5929947249,
				"y": -1.2084661343,
				"z": 2.6191385004,
				"element": "C" 
			},
			{
				"x": 4.0431250385,
				"y": -0.6335457395,
				"z": 0.0266515405,
				"element": "H" 
			},
			{
				"x": 3.7259933487,
				"y": 0.946615424,
				"z": -0.7447082778,
				"element": "H" 
			},
			{
				"x": 3.4566299086,
				"y": -0.5237211135,
				"z": -1.6575423399,
				"element": "H" 
			},
			{
				"x": -3.7188416665,
				"y": 2.8734294736,
				"z": -3.3342794811,
				"element": "H" 
			},
			{
				"x": -1.1206654298,
				"y": 2.6997702873,
				"z": -3.8212629989,
				"element": "H" 
			},
			{
				"x": 1.6848469897,
				"y": -2.0414073679,
				"z": 2.9893566214,
				"element": "H" 
			},
			{
				"x": 0.766239508,
				"y": -3.1340369112,
				"z": 5.0218232498,
				"element": "H" 
			},
			{
				"x": -1.670631036,
				"y": -2.9958312427,
				"z": 5.521525889,
				"element": "H" 
			},
			{
				"x": -3.1665557282,
				"y": -1.7554770598,
				"z": 3.9668329545,
				"element": "H" 
			},
			{
				"x": -2.2601278252,
				"y": -0.6748116996,
				"z": 1.9572805558,
				"element": "H" 
			}
		],
		 "valence_orbital": [ 
			{
				"type": "occ",
				"energy": -0.26492,
				"method": "rhf"
			},
			{
				"type": "occ",
				"energy": -0.26261,
				"method": "rhf"
			},
			{
				"type": "occ",
				"energy": -0.23165,
				"method": "rhf"
			},
			{
				"type": "occ",
				"energy": -0.22413,
				"method": "rhf"
			},
			{
				"type": "occ",
				"energy": -0.20787,
				"method": "rhf"
			},
			{
				"type": "unocc",
				"energy": -0.07458,
				"method": "rhf"
			},
			{
				"type": "unocc",
				"energy": -0.04145,
				"method": "rhf"
			},
			{
				"type": "unocc",
				"energy": -0.01976,
				"method": "rhf"
			},
			{
				"type": "unocc",
				"energy": -0.01272,
				"method": "rhf"
			},
			{
				"type": "unocc",
				"energy": -0.00652,
				"method": "rhf"
			}
		],
		"cosmo_sigma_profile": { 
			"-0.025": 0.0,
			"-0.024": 0.0,
			"-0.023": 0.0,
			"-0.022": 0.0,
			"-0.021": 0.0,
			"-0.02": 0.0,
			"-0.019": 0.0,
			"-0.018": 0.0,
			"-0.017": 0.0,
			"-0.016": 0.0,
			"-0.015": 0.0,
			"-0.014": 0.0,
			"-0.013": 0.0,
			"-0.012": 0.0,
			"-0.011": 0.0,
			"-0.01": 1.46626414158,
			"-0.009": 2.49257458814,
			"-0.008": 2.23543638662,
			"-0.007": 3.64080095881,
			"-0.006": 11.1606299072,
			"-0.005": 21.5595390206,
			"-0.004": 25.8154751783,
			"-0.003": 25.3558649608,
			"-0.002": 25.5918820442,
			"-0.001": 27.5261205979,
			"0.0": 27.1409084273,
			"0.001": 24.4866258804,
			"0.002": 25.1061575252,
			"0.003": 20.4498911712,
			"0.004": 19.3137917267,
			"0.005": 11.6022969392,
			"0.006": 7.06440480866,
			"0.007": 9.99419717409,
			"0.008": 9.49842964304,
			"0.009": 5.0419302176,
			"0.01": 1.04782008356,
			"0.011": 0.0,
			"0.012": 0.0,
			"0.013": 0.0,
			"0.014": 0.0,
			"0.015": 0.0,
			"0.016": 0.0,
			"0.017": 0.0,
			"0.018": 0.0,
			"0.019": 0.0,
			"0.02": 0.0,
			"0.021": 0.0,
			"0.022": 0.0,
			"0.023": 0.0,
			"0.024": 0.0,
			"0.025": 0.0
		}
	}
}
