{
	 "smiles": "COC1=CC=CC=C1C=C(/C#N)C1=NC2=C(S1)C=CC=C2", 
	 "Tm": 431.15, 
	 "num_atms": 33, 
	 "gaussian": { 
		 "optdone": 1, 
		 "sigma_profile": "yes", 
		 "theory": "DFT", 
		 "functional": "B3LYP", 
		 "basiset": "6-31G**", 
		 "properties": { 
			 "R2extent": 9326.6526, 
			 "electric_dipole_moment_norm": 2.95615452404, 
			 "electric_quadrupole_moment_norm": 27.2652476853, 
			 "total_energy": -1237.9215862, 
			 "HOMO_LUMO_gap": 0.13144, 
			 "cosmo_polarized_energy": -12.7, 
			 "cosmo_cavitation_energy": 40.04, 
			 "cosmo_dispersion_energy": -28.79, 
			 "cosmo_repulsion_energy": 2.11, 
			 "cosmo_total_nonelectrostatic_energy": 13.36, 
			 "SMD_solvation_energy": 6.41 
		},
		"coords": [
			{
				"x": 1.0870085154,
				"y": -3.4728293142,
				"z": -4.2536209382,
				"element": "C" 
			},
			{
				"x": 1.0735928742,
				"y": -2.4517212671,
				"z": -3.262833369,
				"element": "O" 
			},
			{
				"x": 2.2375744719,
				"y": -2.0117382496,
				"z": -2.7372107869,
				"element": "C" 
			},
			{
				"x": 3.4965780478,
				"y": -2.3485481051,
				"z": -3.2490377707,
				"element": "C" 
			},
			{
				"x": 4.650403836,
				"y": -1.7877709071,
				"z": -2.7018189813,
				"element": "C" 
			},
			{
				"x": 4.5667806144,
				"y": -0.8703288213,
				"z": -1.6527590973,
				"element": "C" 
			},
			{
				"x": 3.3169547236,
				"y": -0.5365552409,
				"z": -1.1453256468,
				"element": "C" 
			},
			{
				"x": 2.1300453049,
				"y": -1.1195298622,
				"z": -1.635052738,
				"element": "C" 
			},
			{
				"x": 0.8885487474,
				"y": -0.7243014837,
				"z": -0.9890970722,
				"element": "C" 
			},
			{
				"x": -0.311231059,
				"y": -1.3536548485,
				"z": -0.8146194228,
				"element": "C" 
			},
			{
				"x": -0.6024382583,
				"y": -2.7036974577,
				"z": -1.1921414752,
				"element": "C" 
			},
			{
				"x": -0.9100744504,
				"y": -3.8045591309,
				"z": -1.4142022799,
				"element": "N" 
			},
			{
				"x": -1.3845390312,
				"y": -0.6481069864,
				"z": -0.0891996248,
				"element": "C" 
			},
			{
				"x": -1.2921573261,
				"y": 0.5811064998,
				"z": 0.3231978431,
				"element": "N" 
			},
			{
				"x": -2.4398195597,
				"y": 0.9837085101,
				"z": 0.9752910367,
				"element": "C" 
			},
			{
				"x": -3.4639792138,
				"y": 0.006246826,
				"z": 1.0581278069,
				"element": "C" 
			},
			{
				"x": -2.9251721606,
				"y": -1.4651546027,
				"z": 0.2793636354,
				"element": "S" 
			},
			{
				"x": -4.6812694257,
				"y": 0.2781786153,
				"z": 1.6879382746,
				"element": "C" 
			},
			{
				"x": -4.8664005239,
				"y": 1.5437263569,
				"z": 2.2380358806,
				"element": "C" 
			},
			{
				"x": -3.8583651279,
				"y": 2.5223506116,
				"z": 2.1625163094,
				"element": "C" 
			},
			{
				"x": -2.648326324,
				"y": 2.2542033585,
				"z": 1.5364069184,
				"element": "C" 
			},
			{
				"x": 0.0421567673,
				"y": -3.7346036763,
				"z": -4.4180226831,
				"element": "H" 
			},
			{
				"x": 1.5318382204,
				"y": -3.1128341022,
				"z": -5.189332682,
				"element": "H" 
			},
			{
				"x": 1.6294843375,
				"y": -4.3582897298,
				"z": -3.9039347716,
				"element": "H" 
			},
			{
				"x": 3.5781822923,
				"y": -3.0347438459,
				"z": -4.0830929975,
				"element": "H" 
			},
			{
				"x": 5.6180993999,
				"y": -2.060966184,
				"z": -3.1125564582,
				"element": "H" 
			},
			{
				"x": 5.4634521437,
				"y": -0.4208913459,
				"z": -1.239071268,
				"element": "H" 
			},
			{
				"x": 3.2384438409,
				"y": 0.1736078267,
				"z": -0.3266589558,
				"element": "H" 
			},
			{
				"x": 0.9289130274,
				"y": 0.2476362611,
				"z": -0.5014371474,
				"element": "H" 
			},
			{
				"x": -5.461732607,
				"y": -0.4734747421,
				"z": 1.748758604,
				"element": "H" 
			},
			{
				"x": -5.8044056634,
				"y": 1.7771753478,
				"z": 2.7327535922,
				"element": "H" 
			},
			{
				"x": -4.0313772535,
				"y": 3.5007709617,
				"z": 2.6004825342,
				"element": "H" 
			},
			{
				"x": -1.8621691804,
				"y": 2.998988728,
				"z": 1.4697537313,
				"element": "H" 
			}
		],
		 "valence_orbital": [ 
			{
				"type": "occ",
				"energy": -0.27962,
				"method": "rhf"
			},
			{
				"type": "occ",
				"energy": -0.26205,
				"method": "rhf"
			},
			{
				"type": "occ",
				"energy": -0.24074,
				"method": "rhf"
			},
			{
				"type": "occ",
				"energy": -0.23506,
				"method": "rhf"
			},
			{
				"type": "occ",
				"energy": -0.21515,
				"method": "rhf"
			},
			{
				"type": "unocc",
				"energy": -0.08371,
				"method": "rhf"
			},
			{
				"type": "unocc",
				"energy": -0.01874,
				"method": "rhf"
			},
			{
				"type": "unocc",
				"energy": -0.00606,
				"method": "rhf"
			},
			{
				"type": "unocc",
				"energy": -0.0056,
				"method": "rhf"
			},
			{
				"type": "unocc",
				"energy": 0.00891,
				"method": "rhf"
			}
		],
		"cosmo_sigma_profile": { 
			"-0.025": 0.0,
			"-0.024": 0.0,
			"-0.023": 0.0,
			"-0.022": 0.0,
			"-0.021": 0.0,
			"-0.02": 0.0,
			"-0.019": 0.0,
			"-0.018": 0.0,
			"-0.017": 0.0,
			"-0.016": 0.0,
			"-0.015": 0.0,
			"-0.014": 0.0,
			"-0.013": 0.0,
			"-0.012": 0.0,
			"-0.011": 0.0,
			"-0.01": 0.0,
			"-0.009": 0.147480190194,
			"-0.008": 2.10416325505,
			"-0.007": 10.6612928544,
			"-0.006": 23.6456399969,
			"-0.005": 25.9645372117,
			"-0.004": 24.6838051439,
			"-0.003": 20.0449151339,
			"-0.002": 17.4950705968,
			"-0.001": 22.7422186876,
			"0.0": 23.6880675066,
			"0.001": 27.6320820029,
			"0.002": 30.240461456,
			"0.003": 32.0672912589,
			"0.004": 26.7715618516,
			"0.005": 10.2071200848,
			"0.006": 5.22341742949,
			"0.007": 5.26588425938,
			"0.008": 3.25493896505,
			"0.009": 3.8101111465,
			"0.01": 3.34347355692,
			"0.011": 2.74699239569,
			"0.012": 2.16684646661,
			"0.013": 1.36207070667,
			"0.014": 0.0247160855134,
			"0.015": 0.0,
			"0.016": 0.0,
			"0.017": 0.0,
			"0.018": 0.0,
			"0.019": 0.0,
			"0.02": 0.0,
			"0.021": 0.0,
			"0.022": 0.0,
			"0.023": 0.0,
			"0.024": 0.0,
			"0.025": 0.0
		}
	}
}
