{
	 "smiles": "COC(=O)C1=CC(Br)=CC(Br)=C1N", 
	 "Tm": 361.15, 
	 "num_atms": 20, 
	 "gaussian": { 
		 "optdone": 1, 
		 "sigma_profile": "yes", 
		 "theory": "DFT", 
		 "functional": "B3LYP", 
		 "basiset": "6-31G**", 
		 "properties": { 
			 "R2extent": 7470.8443, 
			 "electric_dipole_moment_norm": 1.94581136547, 
			 "electric_quadrupole_moment_norm": 8.18100332355, 
			 "total_energy": -5657.09880845, 
			 "HOMO_LUMO_gap": 0.15478, 
			 "cosmo_polarized_energy": -6.88, 
			 "cosmo_cavitation_energy": 28.82, 
			 "cosmo_dispersion_energy": -22.39, 
			 "cosmo_repulsion_energy": 1.78, 
			 "cosmo_total_nonelectrostatic_energy": 8.21, 
			 "SMD_solvation_energy": 4.01 
		},
		"coords": [
			{
				"x": -0.2929804116,
				"y": -1.5610985332,
				"z": -3.1619102074,
				"element": "C" 
			},
			{
				"x": -0.1043260789,
				"y": -1.5643891282,
				"z": -1.7380168438,
				"element": "O" 
			},
			{
				"x": 0.7927900237,
				"y": -0.672705155,
				"z": -1.2675192564,
				"element": "C" 
			},
			{
				"x": 1.4007452093,
				"y": 0.0852396312,
				"z": -2.0166462235,
				"element": "O" 
			},
			{
				"x": 0.9421152515,
				"y": -0.7243748318,
				"z": 0.2019918767,
				"element": "C" 
			},
			{
				"x": 0.1835334072,
				"y": -1.6418981704,
				"z": 0.949110066,
				"element": "C" 
			},
			{
				"x": 0.3079917744,
				"y": -1.7063896398,
				"z": 2.3244507122,
				"element": "C" 
			},
			{
				"x": -0.7278907686,
				"y": -2.9566444454,
				"z": 3.3305942134,
				"element": "Br" 
			},
			{
				"x": 1.1946527656,
				"y": -0.8554872014,
				"z": 2.9927090443,
				"element": "C" 
			},
			{
				"x": 1.9449544173,
				"y": 0.0501932857,
				"z": 2.2660972418,
				"element": "C" 
			},
			{
				"x": 3.1491574656,
				"y": 1.2002035872,
				"z": 3.2133408381,
				"element": "Br" 
			},
			{
				"x": 1.8583333503,
				"y": 0.1609961842,
				"z": 0.8521143657,
				"element": "C" 
			},
			{
				"x": 2.6041519104,
				"y": 1.0561524898,
				"z": 0.1659977491,
				"element": "N" 
			},
			{
				"x": 0.6435049536,
				"y": -1.792674362,
				"z": -3.6750391003,
				"element": "H" 
			},
			{
				"x": -1.0384729186,
				"y": -2.3313658707,
				"z": -3.3578950097,
				"element": "H" 
			},
			{
				"x": -0.649685656,
				"y": -0.5854849515,
				"z": -3.5008858001,
				"element": "H" 
			},
			{
				"x": -0.5007530548,
				"y": -2.2980227831,
				"z": 0.4285232417,
				"element": "H" 
			},
			{
				"x": 1.296170937,
				"y": -0.9017840359,
				"z": 4.0697909005,
				"element": "H" 
			},
			{
				"x": 3.2366953066,
				"y": 1.661697089,
				"z": 0.6620803245,
				"element": "H" 
			},
			{
				"x": 2.498912116,
				"y": 1.0898368413,
				"z": -0.8399881331,
				"element": "H" 
			}
		],
		 "valence_orbital": [ 
			{
				"type": "occ",
				"energy": -0.29149,
				"method": "rhf"
			},
			{
				"type": "occ",
				"energy": -0.28696,
				"method": "rhf"
			},
			{
				"type": "occ",
				"energy": -0.2851,
				"method": "rhf"
			},
			{
				"type": "occ",
				"energy": -0.2616,
				"method": "rhf"
			},
			{
				"type": "occ",
				"energy": -0.21176,
				"method": "rhf"
			},
			{
				"type": "unocc",
				"energy": -0.05698,
				"method": "rhf"
			},
			{
				"type": "unocc",
				"energy": -0.01646,
				"method": "rhf"
			},
			{
				"type": "unocc",
				"energy": -0.00596,
				"method": "rhf"
			},
			{
				"type": "unocc",
				"energy": 0.02415,
				"method": "rhf"
			},
			{
				"type": "unocc",
				"energy": 0.0417,
				"method": "rhf"
			}
		],
		"cosmo_sigma_profile": { 
			"-0.025": 0.0,
			"-0.024": 0.0,
			"-0.023": 0.0,
			"-0.022": 0.0,
			"-0.021": 0.0,
			"-0.02": 0.0,
			"-0.019": 0.0,
			"-0.018": 0.0,
			"-0.017": 0.0,
			"-0.016": 0.0,
			"-0.015": 0.0,
			"-0.014": 0.0,
			"-0.013": 0.158930138082,
			"-0.012": 0.804998850951,
			"-0.011": 0.852203700457,
			"-0.01": 0.943506093437,
			"-0.009": 1.71019775808,
			"-0.008": 3.3393665886,
			"-0.007": 3.62024026478,
			"-0.006": 7.64404662848,
			"-0.005": 12.962097717,
			"-0.004": 15.8274414408,
			"-0.003": 16.9417636458,
			"-0.002": 16.8060693681,
			"-0.001": 14.4470363388,
			"0.0": 22.9541418892,
			"0.001": 31.0203182807,
			"0.002": 26.195985839,
			"0.003": 19.5645965072,
			"0.004": 21.7435715771,
			"0.005": 10.0006238075,
			"0.006": 1.16455803268,
			"0.007": 1.91846801785,
			"0.008": 1.35171529307,
			"0.009": 1.74718969516,
			"0.01": 1.37590635983,
			"0.011": 1.97618519603,
			"0.012": 0.502700708312,
			"0.013": 0.0,
			"0.014": 0.0,
			"0.015": 0.0,
			"0.016": 0.0,
			"0.017": 0.0,
			"0.018": 0.0,
			"0.019": 0.0,
			"0.02": 0.0,
			"0.021": 0.0,
			"0.022": 0.0,
			"0.023": 0.0,
			"0.024": 0.0,
			"0.025": 0.0
		}
	}
}
