{
	 "smiles": "COC1=C(Cl)C=C(C=C1)N=C=S", 
	 "Tm": 362.15, 
	 "num_atms": 18, 
	 "gaussian": { 
		 "optdone": 1, 
		 "sigma_profile": "yes", 
		 "theory": "DFT", 
		 "functional": "B3LYP", 
		 "basiset": "6-31G**", 
		 "properties": { 
			 "R2extent": 4489.3705, 
			 "electric_dipole_moment_norm": 3.63616542665, 
			 "electric_quadrupole_moment_norm": 12.1718404668, 
			 "total_energy": -1296.79640587, 
			 "HOMO_LUMO_gap": 0.17915, 
			 "cosmo_polarized_energy": -7.31, 
			 "cosmo_cavitation_energy": 27.63, 
			 "cosmo_dispersion_energy": -20.44, 
			 "cosmo_repulsion_energy": 1.61, 
			 "cosmo_total_nonelectrostatic_energy": 8.8, 
			 "SMD_solvation_energy": 5.91 
		},
		"coords": [
			{
				"x": -0.1431965361,
				"y": -1.8147182085,
				"z": 2.3611124671,
				"element": "C" 
			},
			{
				"x": 0.7489789579,
				"y": -1.4647512772,
				"z": 1.2956783912,
				"element": "O" 
			},
			{
				"x": 0.2722611556,
				"y": -0.5343167637,
				"z": 0.4158650225,
				"element": "C" 
			},
			{
				"x": 0.422567855,
				"y": 0.8445655936,
				"z": 0.6448156869,
				"element": "C" 
			},
			{
				"x": 1.1943762625,
				"y": 1.4029292066,
				"z": 2.1129616588,
				"element": "Cl" 
			},
			{
				"x": -0.0153276382,
				"y": 1.7800455294,
				"z": -0.2868741531,
				"element": "C" 
			},
			{
				"x": -0.6198497976,
				"y": 1.3397047242,
				"z": -1.4753765602,
				"element": "C" 
			},
			{
				"x": -0.7734183929,
				"y": -0.0342617095,
				"z": -1.7218721931,
				"element": "C" 
			},
			{
				"x": -0.3293288028,
				"y": -0.9513490983,
				"z": -0.7768904489,
				"element": "C" 
			},
			{
				"x": -1.0535200747,
				"y": 2.2584782105,
				"z": -2.3958071688,
				"element": "N" 
			},
			{
				"x": -1.4332895591,
				"y": 3.0539532655,
				"z": -3.1910811065,
				"element": "C" 
			},
			{
				"x": -1.9425230349,
				"y": 4.1214452747,
				"z": -4.2579548151,
				"element": "S" 
			},
			{
				"x": -0.3757861804,
				"y": -0.9474093795,
				"z": 2.9885383895,
				"element": "H" 
			},
			{
				"x": 0.3771027,
				"y": -2.564818412,
				"z": 2.9586045477,
				"element": "H" 
			},
			{
				"x": -1.0745334624,
				"y": -2.2413434787,
				"z": 1.9682345328,
				"element": "H" 
			},
			{
				"x": 0.1108154709,
				"y": 2.8398235571,
				"z": -0.1013267022,
				"element": "H" 
			},
			{
				"x": -1.23476222,
				"y": -0.3635728616,
				"z": -2.6460585981,
				"element": "H" 
			},
			{
				"x": -0.4273667026,
				"y": -2.0178041726,
				"z": -0.9515689505,
				"element": "H" 
			}
		],
		 "valence_orbital": [ 
			{
				"type": "occ",
				"energy": -0.29237,
				"method": "rhf"
			},
			{
				"type": "occ",
				"energy": -0.29026,
				"method": "rhf"
			},
			{
				"type": "occ",
				"energy": -0.26917,
				"method": "rhf"
			},
			{
				"type": "occ",
				"energy": -0.25644,
				"method": "rhf"
			},
			{
				"type": "occ",
				"energy": -0.23318,
				"method": "rhf"
			},
			{
				"type": "unocc",
				"energy": -0.05403,
				"method": "rhf"
			},
			{
				"type": "unocc",
				"energy": -0.03351,
				"method": "rhf"
			},
			{
				"type": "unocc",
				"energy": -0.00277,
				"method": "rhf"
			},
			{
				"type": "unocc",
				"energy": 0.01818,
				"method": "rhf"
			},
			{
				"type": "unocc",
				"energy": 0.03869,
				"method": "rhf"
			}
		],
		"cosmo_sigma_profile": { 
			"-0.025": 0.0,
			"-0.024": 0.0,
			"-0.023": 0.0,
			"-0.022": 0.0,
			"-0.021": 0.0,
			"-0.02": 0.0,
			"-0.019": 0.0,
			"-0.018": 0.0,
			"-0.017": 0.0,
			"-0.016": 0.0,
			"-0.015": 0.0,
			"-0.014": 0.0,
			"-0.013": 0.0,
			"-0.012": 0.0,
			"-0.011": 0.0,
			"-0.01": 0.0,
			"-0.009": 1.02486725322,
			"-0.008": 4.16538595478,
			"-0.007": 6.24008685514,
			"-0.006": 8.27906687514,
			"-0.005": 11.3531303307,
			"-0.004": 14.4560336753,
			"-0.003": 19.8160224944,
			"-0.002": 17.8938359388,
			"-0.001": 21.3430677665,
			"0.0": 20.6491699973,
			"0.001": 26.134655523,
			"0.002": 15.8458090838,
			"0.003": 13.3575056,
			"0.004": 13.9208627805,
			"0.005": 11.3254469045,
			"0.006": 14.8552505628,
			"0.007": 2.00802942777,
			"0.008": 1.52547444399,
			"0.009": 1.62759753146,
			"0.01": 1.35002939452,
			"0.011": 1.09851286031,
			"0.012": 0.0,
			"0.013": 0.0,
			"0.014": 0.0,
			"0.015": 0.0,
			"0.016": 0.0,
			"0.017": 0.0,
			"0.018": 0.0,
			"0.019": 0.0,
			"0.02": 0.0,
			"0.021": 0.0,
			"0.022": 0.0,
			"0.023": 0.0,
			"0.024": 0.0,
			"0.025": 0.0
		}
	}
}
