{
	 "smiles": "OC(=O)C1=C(OC2=C(Cl)C=C(Cl)C=C2)N=CC=C1", 
	 "Tm": 465.15, 
	 "num_atms": 25, 
	 "gaussian": { 
		 "optdone": 1, 
		 "sigma_profile": "yes", 
		 "theory": "DFT", 
		 "functional": "B3LYP", 
		 "basiset": "6-31G**", 
		 "properties": { 
			 "R2extent": 6419.8118, 
			 "electric_dipole_moment_norm": 4.32182415306, 
			 "electric_quadrupole_moment_norm": 23.3659030129, 
			 "total_energy": -1662.30484536, 
			 "HOMO_LUMO_gap": 0.19554, 
			 "cosmo_polarized_energy": -13.83, 
			 "cosmo_cavitation_energy": 34.55, 
			 "cosmo_dispersion_energy": -24.53, 
			 "cosmo_repulsion_energy": 1.91, 
			 "cosmo_total_nonelectrostatic_energy": 11.93, 
			 "SMD_solvation_energy": 5.77 
		},
		"coords": [
			{
				"x": -2.7062842865,
				"y": -1.8339542387,
				"z": -0.1644297667,
				"element": "O" 
			},
			{
				"x": -2.131415575,
				"y": -2.9637355423,
				"z": 0.2814148318,
				"element": "C" 
			},
			{
				"x": -2.7774013796,
				"y": -3.9796126838,
				"z": 0.415733916,
				"element": "O" 
			},
			{
				"x": -0.6602382462,
				"y": -2.9270196616,
				"z": 0.6127978776,
				"element": "C" 
			},
			{
				"x": 0.2183090669,
				"y": -1.8352554244,
				"z": 0.4607947091,
				"element": "C" 
			},
			{
				"x": -0.3043360243,
				"y": -0.6682083783,
				"z": -0.0671251935,
				"element": "O" 
			},
			{
				"x": 0.496794189,
				"y": 0.4657960748,
				"z": -0.1537222199,
				"element": "C" 
			},
			{
				"x": 0.5442369919,
				"y": 1.3805653511,
				"z": 0.9024939282,
				"element": "C" 
			},
			{
				"x": -0.3185957037,
				"y": 1.0571699397,
				"z": 2.3840913165,
				"element": "Cl" 
			},
			{
				"x": 1.2745513959,
				"y": 2.5617695051,
				"z": 0.7744731679,
				"element": "C" 
			},
			{
				"x": 1.9510013539,
				"y": 2.8113713895,
				"z": -0.4186594964,
				"element": "C" 
			},
			{
				"x": 2.8683680462,
				"y": 4.295970373,
				"z": -0.5812732826,
				"element": "Cl" 
			},
			{
				"x": 1.9076853559,
				"y": 1.9088388053,
				"z": -1.4814504309,
				"element": "C" 
			},
			{
				"x": 1.1742941898,
				"y": 0.7333854874,
				"z": -1.3392898855,
				"element": "C" 
			},
			{
				"x": 1.5004302258,
				"y": -1.8445504836,
				"z": 0.7696091981,
				"element": "N" 
			},
			{
				"x": 2.0130305713,
				"y": -2.9782450649,
				"z": 1.2688473093,
				"element": "C" 
			},
			{
				"x": 1.2593906451,
				"y": -4.1320948131,
				"z": 1.465647541,
				"element": "C" 
			},
			{
				"x": -0.0918221641,
				"y": -4.0948129459,
				"z": 1.1292456625,
				"element": "C" 
			},
			{
				"x": -2.051178456,
				"y": -1.1145828101,
				"z": -0.2086046182,
				"element": "H" 
			},
			{
				"x": 1.3096960089,
				"y": 3.2709014982,
				"z": 1.592177907,
				"element": "H" 
			},
			{
				"x": 2.4374092079,
				"y": 2.1225125082,
				"z": -2.4022577898,
				"element": "H" 
			},
			{
				"x": 1.1185687534,
				"y": 0.0121508941,
				"z": -2.1473391061,
				"element": "H" 
			},
			{
				"x": 3.0716832578,
				"y": -2.9502485412,
				"z": 1.5166540496,
				"element": "H" 
			},
			{
				"x": 1.7159137502,
				"y": -5.0285617702,
				"z": 1.8701070496,
				"element": "H" 
			},
			{
				"x": -0.7427911748,
				"y": -4.9534494684,
				"z": 1.2550633256,
				"element": "H" 
			}
		],
		 "valence_orbital": [ 
			{
				"type": "occ",
				"energy": -0.30186,
				"method": "rhf"
			},
			{
				"type": "occ",
				"energy": -0.27859,
				"method": "rhf"
			},
			{
				"type": "occ",
				"energy": -0.27195,
				"method": "rhf"
			},
			{
				"type": "occ",
				"energy": -0.26894,
				"method": "rhf"
			},
			{
				"type": "occ",
				"energy": -0.26176,
				"method": "rhf"
			},
			{
				"type": "unocc",
				"energy": -0.06622,
				"method": "rhf"
			},
			{
				"type": "unocc",
				"energy": -0.04015,
				"method": "rhf"
			},
			{
				"type": "unocc",
				"energy": -0.03752,
				"method": "rhf"
			},
			{
				"type": "unocc",
				"energy": -0.03181,
				"method": "rhf"
			},
			{
				"type": "unocc",
				"energy": -0.00747,
				"method": "rhf"
			}
		],
		"cosmo_sigma_profile": { 
			"-0.025": 0.0,
			"-0.024": 0.0,
			"-0.023": 0.0,
			"-0.022": 0.0,
			"-0.021": 0.0,
			"-0.02": 0.0,
			"-0.019": 0.0,
			"-0.018": 0.0,
			"-0.017": 0.0,
			"-0.016": 0.0,
			"-0.015": 0.0,
			"-0.014": 0.0,
			"-0.013": 0.0,
			"-0.012": 0.220585653253,
			"-0.011": 0.445720909156,
			"-0.01": 0.837620848509,
			"-0.009": 2.65196967945,
			"-0.008": 9.62505097415,
			"-0.007": 14.1115447888,
			"-0.006": 14.1752968299,
			"-0.005": 12.9498636531,
			"-0.004": 13.3025908718,
			"-0.003": 15.05367089,
			"-0.002": 19.6557638803,
			"-0.001": 26.7850648219,
			"0.0": 30.9131903281,
			"0.001": 29.3878011299,
			"0.002": 19.7856177975,
			"0.003": 19.833093918,
			"0.004": 16.1430751592,
			"0.005": 4.74008791559,
			"0.006": 3.62799256145,
			"0.007": 4.02650720513,
			"0.008": 3.62979001857,
			"0.009": 4.4703249162,
			"0.01": 5.25273871131,
			"0.011": 6.05571105244,
			"0.012": 4.49047018412,
			"0.013": 1.60124541504,
			"0.014": 0.0633080539535,
			"0.015": 0.0,
			"0.016": 0.0,
			"0.017": 0.0,
			"0.018": 0.0,
			"0.019": 0.0,
			"0.02": 0.0,
			"0.021": 0.0,
			"0.022": 0.0,
			"0.023": 0.0,
			"0.024": 0.0,
			"0.025": 0.0
		}
	}
}
