{
	 "smiles": "O=C1CC2=C(N1)C=CC(=C2)C#N", 
	 "Tm": 523.15, 
	 "num_atms": 18, 
	 "gaussian": { 
		 "optdone": 1, 
		 "sigma_profile": "yes", 
		 "theory": "DFT", 
		 "functional": "B3LYP", 
		 "basiset": "6-31G**", 
		 "properties": { 
			 "R2extent": 2501.5094, 
			 "electric_dipole_moment_norm": 3.17735032692, 
			 "electric_quadrupole_moment_norm": 27.8648952693, 
			 "total_energy": -531.306064163, 
			 "HOMO_LUMO_gap": 0.18713, 
			 "cosmo_polarized_energy": -17.22, 
			 "cosmo_cavitation_energy": 23.77, 
			 "cosmo_dispersion_energy": -17.21, 
			 "cosmo_repulsion_energy": 1.38, 
			 "cosmo_total_nonelectrostatic_energy": 7.94, 
			 "SMD_solvation_energy": 5.9 
		},
		"coords": [
			{
				"x": -1.1958112154,
				"y": -0.6864328839,
				"z": -3.8064924978,
				"element": "O" 
			},
			{
				"x": -0.6078711046,
				"y": -0.5832526796,
				"z": -2.752114554,
				"element": "C" 
			},
			{
				"x": 0.6136809354,
				"y": 0.2910831523,
				"z": -2.4187242502,
				"element": "C" 
			},
			{
				"x": 0.8810013621,
				"y": -0.0094740968,
				"z": -0.9659565077,
				"element": "C" 
			},
			{
				"x": -0.0761588741,
				"y": -0.9461311948,
				"z": -0.5232577987,
				"element": "C" 
			},
			{
				"x": -0.9280476646,
				"y": -1.263217889,
				"z": -1.577835852,
				"element": "N" 
			},
			{
				"x": -0.0897945114,
				"y": -1.423874369,
				"z": 0.7848847928,
				"element": "C" 
			},
			{
				"x": 0.882215638,
				"y": -0.9465887137,
				"z": 1.6639390911,
				"element": "C" 
			},
			{
				"x": 1.8442763036,
				"y": -0.0130281238,
				"z": 1.2409591258,
				"element": "C" 
			},
			{
				"x": 1.8411440556,
				"y": 0.4594779112,
				"z": -0.0908958444,
				"element": "C" 
			},
			{
				"x": 2.8316281118,
				"y": 0.4612278747,
				"z": 2.1630994719,
				"element": "C" 
			},
			{
				"x": 3.634836316,
				"y": 0.8475856984,
				"z": 2.9116306225,
				"element": "N" 
			},
			{
				"x": 0.3710953416,
				"y": 1.3413889042,
				"z": -2.6144942971,
				"element": "H" 
			},
			{
				"x": 1.4421951364,
				"y": 0.0242693029,
				"z": -3.0840842018,
				"element": "H" 
			},
			{
				"x": -1.7026928509,
				"y": -1.9094686445,
				"z": -1.5336688339,
				"element": "H" 
			},
			{
				"x": -0.8300467096,
				"y": -2.1445627318,
				"z": 1.1167863934,
				"element": "H" 
			},
			{
				"x": 0.9012560379,
				"y": -1.2971853708,
				"z": 2.6902568346,
				"element": "H" 
			},
			{
				"x": 2.5882936924,
				"y": 1.1801838539,
				"z": -0.4074316945,
				"element": "H" 
			}
		],
		 "valence_orbital": [ 
			{
				"type": "occ",
				"energy": -0.33017,
				"method": "rhf"
			},
			{
				"type": "occ",
				"energy": -0.31557,
				"method": "rhf"
			},
			{
				"type": "occ",
				"energy": -0.28178,
				"method": "rhf"
			},
			{
				"type": "occ",
				"energy": -0.27571,
				"method": "rhf"
			},
			{
				"type": "occ",
				"energy": -0.23893,
				"method": "rhf"
			},
			{
				"type": "unocc",
				"energy": -0.0518,
				"method": "rhf"
			},
			{
				"type": "unocc",
				"energy": -0.03589,
				"method": "rhf"
			},
			{
				"type": "unocc",
				"energy": 0.00499,
				"method": "rhf"
			},
			{
				"type": "unocc",
				"energy": 0.03599,
				"method": "rhf"
			},
			{
				"type": "unocc",
				"energy": 0.07104,
				"method": "rhf"
			}
		],
		"cosmo_sigma_profile": { 
			"-0.025": 0.0,
			"-0.024": 0.0,
			"-0.023": 0.0,
			"-0.022": 0.0,
			"-0.021": 0.0,
			"-0.02": 0.0,
			"-0.019": 0.0,
			"-0.018": 0.0,
			"-0.017": 0.0881321030311,
			"-0.016": 1.39142970533,
			"-0.015": 1.46127029759,
			"-0.014": 1.09395661476,
			"-0.013": 1.17493568373,
			"-0.012": 1.05159010745,
			"-0.011": 1.40458329043,
			"-0.01": 1.13537931871,
			"-0.009": 1.0667476691,
			"-0.008": 8.09844696117,
			"-0.007": 12.6338417127,
			"-0.006": 12.4901559194,
			"-0.005": 12.3251495491,
			"-0.004": 11.5379476505,
			"-0.003": 8.38538042594,
			"-0.002": 9.24992575286,
			"-0.001": 12.1820340927,
			"0.0": 14.2859961913,
			"0.001": 11.859337631,
			"0.002": 13.2544895101,
			"0.003": 7.38960203684,
			"0.004": 3.11248431676,
			"0.005": 2.75658825728,
			"0.006": 4.12092519629,
			"0.007": 3.76469292998,
			"0.008": 4.298151677,
			"0.009": 4.79963818146,
			"0.01": 5.47850873257,
			"0.011": 5.31968975421,
			"0.012": 8.23059346503,
			"0.013": 5.79419292787,
			"0.014": 0.799595115928,
			"0.015": 0.0,
			"0.016": 0.0,
			"0.017": 0.0,
			"0.018": 0.0,
			"0.019": 0.0,
			"0.02": 0.0,
			"0.021": 0.0,
			"0.022": 0.0,
			"0.023": 0.0,
			"0.024": 0.0,
			"0.025": 0.0
		}
	}
}
