{
	 "smiles": "NCCCNCCCCNCCCN", 
	 "Tm": 301.65, 
	 "num_atms": 40, 
	 "gaussian": { 
		 "optdone": 1, 
		 "sigma_profile": "yes", 
		 "theory": "DFT", 
		 "functional": "B3LYP", 
		 "basiset": "6-31G**", 
		 "properties": { 
			 "R2extent": 5160.1423, 
			 "electric_dipole_moment_norm": 1.2270916062, 
			 "electric_quadrupole_moment_norm": 23.3809101694, 
			 "total_energy": -615.720946567, 
			 "HOMO_LUMO_gap": 0.26516, 
			 "cosmo_polarized_energy": -14.81, 
			 "cosmo_cavitation_energy": 39.52, 
			 "cosmo_dispersion_energy": -26.58, 
			 "cosmo_repulsion_energy": 2.2, 
			 "cosmo_total_nonelectrostatic_energy": 15.14, 
			 "SMD_solvation_energy": 0.19 
		},
		"coords": [
			{
				"x": 3.1572905149,
				"y": -2.1107815625,
				"z": -2.8801054013,
				"element": "N" 
			},
			{
				"x": 2.0711615043,
				"y": -2.8572523922,
				"z": -2.2330083905,
				"element": "C" 
			},
			{
				"x": 0.953961344,
				"y": -1.9114599341,
				"z": -1.7769720814,
				"element": "C" 
			},
			{
				"x": 0.2579037406,
				"y": -1.183863112,
				"z": -2.9431076134,
				"element": "C" 
			},
			{
				"x": -0.8081459439,
				"y": -0.2475529811,
				"z": -2.5880264453,
				"element": "N" 
			},
			{
				"x": -0.3791692043,
				"y": 0.9544488853,
				"z": -1.8731671488,
				"element": "C" 
			},
			{
				"x": -1.5022319569,
				"y": 1.9947491227,
				"z": -1.775188914,
				"element": "C" 
			},
			{
				"x": -2.740175275,
				"y": 1.552812189,
				"z": -0.9751190446,
				"element": "C" 
			},
			{
				"x": -2.5026457193,
				"y": 1.3021677366,
				"z": 0.5194797198,
				"element": "C" 
			},
			{
				"x": -2.041805297,
				"y": 2.5132278153,
				"z": 1.1977319856,
				"element": "N" 
			},
			{
				"x": -1.9125437993,
				"y": 2.4101273704,
				"z": 2.6588956328,
				"element": "C" 
			},
			{
				"x": -0.4689137711,
				"y": 2.1913869637,
				"z": 3.1417149903,
				"element": "C" 
			},
			{
				"x": 0.199383962,
				"y": 0.8911080691,
				"z": 2.6855698075,
				"element": "C" 
			},
			{
				"x": -0.4852821225,
				"y": -0.2890935012,
				"z": 3.2309335625,
				"element": "N" 
			},
			{
				"x": 3.8502062379,
				"y": -2.7537614845,
				"z": -3.2544545978,
				"element": "H" 
			},
			{
				"x": 3.6407925379,
				"y": -1.5417519023,
				"z": -2.1882290394,
				"element": "H" 
			},
			{
				"x": 2.3997982005,
				"y": -3.4667166375,
				"z": -1.3721478819,
				"element": "H" 
			},
			{
				"x": 1.6670621701,
				"y": -3.5609105606,
				"z": -2.9728846498,
				"element": "H" 
			},
			{
				"x": 1.3722477968,
				"y": -1.1790501019,
				"z": -1.0724650908,
				"element": "H" 
			},
			{
				"x": 0.2106611668,
				"y": -2.4918256629,
				"z": -1.2117799369,
				"element": "H" 
			},
			{
				"x": -0.1693297985,
				"y": -1.9375437626,
				"z": -3.6190946352,
				"element": "H" 
			},
			{
				"x": 1.0120700547,
				"y": -0.6432356168,
				"z": -3.5241737944,
				"element": "H" 
			},
			{
				"x": -1.5189454622,
				"y": -0.7355250866,
				"z": -2.0484150568,
				"element": "H" 
			},
			{
				"x": 0.0255955659,
				"y": 0.7550379668,
				"z": -0.8637348193,
				"element": "H" 
			},
			{
				"x": 0.4481616578,
				"y": 1.3930487241,
				"z": -2.445607512,
				"element": "H" 
			},
			{
				"x": -1.8177707119,
				"y": 2.2508590747,
				"z": -2.7933101635,
				"element": "H" 
			},
			{
				"x": -1.0923206742,
				"y": 2.9006425413,
				"z": -1.315348993,
				"element": "H" 
			},
			{
				"x": -3.1738545814,
				"y": 0.6475871918,
				"z": -1.4191593443,
				"element": "H" 
			},
			{
				"x": -3.5174236591,
				"y": 2.3241056564,
				"z": -1.076624821,
				"element": "H" 
			},
			{
				"x": -1.7436885623,
				"y": 0.5201673119,
				"z": 0.6480704701,
				"element": "H" 
			},
			{
				"x": -3.4345983869,
				"y": 0.9002664724,
				"z": 0.9645306799,
				"element": "H" 
			},
			{
				"x": -2.6904256447,
				"y": 3.2624765618,
				"z": 0.9738467219,
				"element": "H" 
			},
			{
				"x": -2.5695834311,
				"y": 1.6226454898,
				"z": 3.0685402744,
				"element": "H" 
			},
			{
				"x": -2.2661760056,
				"y": 3.3495195402,
				"z": 3.0998968325,
				"element": "H" 
			},
			{
				"x": -0.4686013832,
				"y": 2.213949204,
				"z": 4.2389237031,
				"element": "H" 
			},
			{
				"x": 0.1382395231,
				"y": 3.0341195543,
				"z": 2.7898145068,
				"element": "H" 
			},
			{
				"x": 0.2798965533,
				"y": 0.8996241448,
				"z": 1.5847901881,
				"element": "H" 
			},
			{
				"x": 1.2266126139,
				"y": 0.8782647142,
				"z": 3.0693841711,
				"element": "H" 
			},
			{
				"x": 0.0299455183,
				"y": -1.1307429559,
				"z": 2.9851175491,
				"element": "H" 
			},
			{
				"x": -1.4035592723,
				"y": -0.3890750456,
				"z": 2.8049845799,
				"element": "H" 
			}
		],
		 "valence_orbital": [ 
			{
				"type": "occ",
				"energy": -0.31221,
				"method": "rhf"
			},
			{
				"type": "occ",
				"energy": -0.23448,
				"method": "rhf"
			},
			{
				"type": "occ",
				"energy": -0.22929,
				"method": "rhf"
			},
			{
				"type": "occ",
				"energy": -0.21577,
				"method": "rhf"
			},
			{
				"type": "occ",
				"energy": -0.20346,
				"method": "rhf"
			},
			{
				"type": "unocc",
				"energy": 0.0617,
				"method": "rhf"
			},
			{
				"type": "unocc",
				"energy": 0.08061,
				"method": "rhf"
			},
			{
				"type": "unocc",
				"energy": 0.08727,
				"method": "rhf"
			},
			{
				"type": "unocc",
				"energy": 0.08992,
				"method": "rhf"
			},
			{
				"type": "unocc",
				"energy": 0.10104,
				"method": "rhf"
			}
		],
		"cosmo_sigma_profile": { 
			"-0.025": 0.0,
			"-0.024": 0.0,
			"-0.023": 0.0,
			"-0.022": 0.0,
			"-0.021": 0.0,
			"-0.02": 0.0,
			"-0.019": 0.0,
			"-0.018": 0.0,
			"-0.017": 0.0,
			"-0.016": 0.0,
			"-0.015": 0.0,
			"-0.014": 0.0,
			"-0.013": 0.0,
			"-0.012": 0.0,
			"-0.011": 0.0,
			"-0.01": 0.616753960848,
			"-0.009": 5.06164101431,
			"-0.008": 6.30137237741,
			"-0.007": 7.97673811425,
			"-0.006": 10.2116258483,
			"-0.005": 10.0212722272,
			"-0.004": 12.6205511989,
			"-0.003": 20.6904072227,
			"-0.002": 40.9187588722,
			"-0.001": 49.3180843937,
			"0.0": 46.902771438,
			"0.001": 28.3604173241,
			"0.002": 11.835152692,
			"0.003": 5.67674477257,
			"0.004": 5.25969152275,
			"0.005": 4.53936332307,
			"0.006": 3.83262674295,
			"0.007": 2.88223926857,
			"0.008": 2.83947932742,
			"0.009": 4.26545408346,
			"0.01": 3.08923301028,
			"0.011": 2.75675933045,
			"0.012": 2.56653585505,
			"0.013": 2.39591632919,
			"0.014": 2.39340615461,
			"0.015": 2.30504668924,
			"0.016": 1.71843246594,
			"0.017": 1.6636108843,
			"0.018": 1.17704563945,
			"0.019": 0.890106961484,
			"0.02": 0.470761595547,
			"0.021": 0.0148215199137,
			"0.022": 0.0,
			"0.023": 0.0,
			"0.024": 0.0,
			"0.025": 0.0
		}
	}
}
