{
	 "smiles": "CC(O)CC(C)(C)O", 
	 "Tm": 233.15, 
	 "num_atms": 22, 
	 "gaussian": { 
		 "optdone": 1, 
		 "sigma_profile": "yes", 
		 "theory": "DFT", 
		 "functional": "B3LYP", 
		 "basiset": "6-31G**", 
		 "properties": { 
			 "R2extent": 1418.0282, 
			 "electric_dipole_moment_norm": 2.13915509255, 
			 "electric_quadrupole_moment_norm": 3.80584606625, 
			 "total_energy": -387.521571422, 
			 "HOMO_LUMO_gap": 0.32341, 
			 "cosmo_polarized_energy": -10.59, 
			 "cosmo_cavitation_energy": 23.02, 
			 "cosmo_dispersion_energy": -16.51, 
			 "cosmo_repulsion_energy": 1.37, 
			 "cosmo_total_nonelectrostatic_energy": 7.88, 
			 "SMD_solvation_energy": 4.02 
		},
		"coords": [
			{
				"x": -1.4718183485,
				"y": 0.7593862537,
				"z": 1.6224796385,
				"element": "C" 
			},
			{
				"x": -1.1327688583,
				"y": 1.636051181,
				"z": 0.42126501,
				"element": "C" 
			},
			{
				"x": -1.5722374829,
				"y": 2.9501291177,
				"z": 0.7816090934,
				"element": "O" 
			},
			{
				"x": 0.3562088113,
				"y": 1.6978520604,
				"z": 0.0352894095,
				"element": "C" 
			},
			{
				"x": 1.0699806187,
				"y": 0.4366506382,
				"z": -0.5026652916,
				"element": "C" 
			},
			{
				"x": 1.5202783564,
				"y": -0.5206531783,
				"z": 0.6115224205,
				"element": "C" 
			},
			{
				"x": 0.2349019873,
				"y": -0.3008515135,
				"z": -1.5610256885,
				"element": "C" 
			},
			{
				"x": 2.2454233985,
				"y": 0.9822549129,
				"z": -1.1330600204,
				"element": "O" 
			},
			{
				"x": -1.3519583488,
				"y": -0.3030301504,
				"z": 1.3955726308,
				"element": "H" 
			},
			{
				"x": -2.5133821156,
				"y": 0.9312058652,
				"z": 1.9079842079,
				"element": "H" 
			},
			{
				"x": -0.837893014,
				"y": 1.011181501,
				"z": 2.4787807305,
				"element": "H" 
			},
			{
				"x": -1.7149015439,
				"y": 1.2810344772,
				"z": -0.4449869922,
				"element": "H" 
			},
			{
				"x": -1.3388575593,
				"y": 3.5486976255,
				"z": 0.0600228796,
				"element": "H" 
			},
			{
				"x": 0.9196754177,
				"y": 2.0883837501,
				"z": 0.8909252966,
				"element": "H" 
			},
			{
				"x": 0.453512496,
				"y": 2.4448654048,
				"z": -0.764397745,
				"element": "H" 
			},
			{
				"x": 2.1008930008,
				"y": -1.3486728076,
				"z": 0.1851529917,
				"element": "H" 
			},
			{
				"x": 0.6802975686,
				"y": -0.9598044431,
				"z": 1.1547250344,
				"element": "H" 
			},
			{
				"x": 2.1577110792,
				"y": 0.008193633,
				"z": 1.3259634086,
				"element": "H" 
			},
			{
				"x": -0.6699442406,
				"y": -0.7484753027,
				"z": -1.1375753192,
				"element": "H" 
			},
			{
				"x": -0.0569415175,
				"y": 0.3829355957,
				"z": -2.3638935803,
				"element": "H" 
			},
			{
				"x": 0.8238220667,
				"y": -1.1115699526,
				"z": -2.0066457777,
				"element": "H" 
			},
			{
				"x": 2.7863982282,
				"y": 0.2383353318,
				"z": -1.4313423371,
				"element": "H" 
			}
		],
		 "valence_orbital": [ 
			{
				"type": "occ",
				"energy": -0.34049,
				"method": "rhf"
			},
			{
				"type": "occ",
				"energy": -0.32383,
				"method": "rhf"
			},
			{
				"type": "occ",
				"energy": -0.31025,
				"method": "rhf"
			},
			{
				"type": "occ",
				"energy": -0.26474,
				"method": "rhf"
			},
			{
				"type": "occ",
				"energy": -0.25948,
				"method": "rhf"
			},
			{
				"type": "unocc",
				"energy": 0.06393,
				"method": "rhf"
			},
			{
				"type": "unocc",
				"energy": 0.08355,
				"method": "rhf"
			},
			{
				"type": "unocc",
				"energy": 0.10881,
				"method": "rhf"
			},
			{
				"type": "unocc",
				"energy": 0.11116,
				"method": "rhf"
			},
			{
				"type": "unocc",
				"energy": 0.13012,
				"method": "rhf"
			}
		],
		"cosmo_sigma_profile": { 
			"-0.025": 0.0,
			"-0.024": 0.0,
			"-0.023": 0.0,
			"-0.022": 0.0,
			"-0.021": 0.0,
			"-0.02": 0.0,
			"-0.019": 0.0,
			"-0.018": 0.0,
			"-0.017": 0.0,
			"-0.016": 0.0,
			"-0.015": 0.180866011766,
			"-0.014": 1.84063470928,
			"-0.013": 1.71370952421,
			"-0.012": 2.1959447285,
			"-0.011": 1.60996869417,
			"-0.01": 2.31673472745,
			"-0.009": 2.21931841332,
			"-0.008": 1.941040734,
			"-0.007": 2.28679322387,
			"-0.006": 2.50197680119,
			"-0.005": 4.12525057557,
			"-0.004": 8.59804061818,
			"-0.003": 17.5772584288,
			"-0.002": 22.8334473625,
			"-0.001": 20.2590447182,
			"0.0": 20.8974783394,
			"0.001": 19.7444783513,
			"0.002": 6.89209197349,
			"0.003": 3.74031708772,
			"0.004": 3.07214690992,
			"0.005": 2.67691440522,
			"0.006": 2.23277864842,
			"0.007": 2.90813082473,
			"0.008": 2.98794125789,
			"0.009": 2.8110766206,
			"0.01": 2.1877436256,
			"0.011": 3.09524160942,
			"0.012": 1.14882545697,
			"0.013": 3.13040648213,
			"0.014": 4.29925395889,
			"0.015": 2.17682895618,
			"0.016": 0.00438471015665,
			"0.017": 0.0,
			"0.018": 0.0,
			"0.019": 0.0,
			"0.02": 0.0,
			"0.021": 0.0,
			"0.022": 0.0,
			"0.023": 0.0,
			"0.024": 0.0,
			"0.025": 0.0
		}
	}
}
