{
	 "smiles": "NS(=O)(=O)C1=C(Br)C=C(F)C=C1Br", 
	 "Tm": 448.15, 
	 "num_atms": 17, 
	 "gaussian": { 
		 "optdone": 1, 
		 "sigma_profile": "yes", 
		 "theory": "DFT", 
		 "functional": "B3LYP", 
		 "basiset": "6-31G**", 
		 "properties": { 
			 "R2extent": 4703.576, 
			 "electric_dipole_moment_norm": 3.26042509192, 
			 "electric_quadrupole_moment_norm": 10.385716514, 
			 "total_energy": -6076.979216, 
			 "HOMO_LUMO_gap": 0.21048, 
			 "cosmo_polarized_energy": -14.29, 
			 "cosmo_cavitation_energy": 27.35, 
			 "cosmo_dispersion_energy": -21.48, 
			 "cosmo_repulsion_energy": 1.61, 
			 "cosmo_total_nonelectrostatic_energy": 7.48, 
			 "SMD_solvation_energy": 2.92 
		},
		"coords": [
			{
				"x": -1.2579120855,
				"y": 2.1898880744,
				"z": 1.7251088259,
				"element": "N" 
			},
			{
				"x": -0.8628729272,
				"y": 0.5543315613,
				"z": 1.6218195858,
				"element": "S" 
			},
			{
				"x": -0.2212850101,
				"y": 0.240648794,
				"z": 2.893883104,
				"element": "O" 
			},
			{
				"x": -2.0024443083,
				"y": -0.219266651,
				"z": 1.1338702544,
				"element": "O" 
			},
			{
				"x": 0.3800448269,
				"y": 0.5498752198,
				"z": 0.2817408229,
				"element": "C" 
			},
			{
				"x": 0.0215497623,
				"y": 1.0258223486,
				"z": -0.9987160676,
				"element": "C" 
			},
			{
				"x": -1.7129374742,
				"y": 1.7067320259,
				"z": -1.4288045102,
				"element": "Br" 
			},
			{
				"x": 0.9150078445,
				"y": 1.0337382634,
				"z": -2.0643035929,
				"element": "C" 
			},
			{
				"x": 2.1941877432,
				"y": 0.5404300341,
				"z": -1.8549448419,
				"element": "C" 
			},
			{
				"x": 3.0653974333,
				"y": 0.5418661929,
				"z": -2.8733975114,
				"element": "F" 
			},
			{
				"x": 2.5919812123,
				"y": 0.041260789,
				"z": -0.6275469997,
				"element": "C" 
			},
			{
				"x": 1.6873391254,
				"y": 0.0419146072,
				"z": 0.4372490964,
				"element": "C" 
			},
			{
				"x": 2.4006067228,
				"y": -0.7187799232,
				"z": 2.0341801384,
				"element": "Br" 
			},
			{
				"x": -1.2035256332,
				"y": 2.4656616272,
				"z": 2.7018304548,
				"element": "H" 
			},
			{
				"x": -2.1631698296,
				"y": 2.384367912,
				"z": 1.3091134191,
				"element": "H" 
			},
			{
				"x": 0.6251414267,
				"y": 1.4089431455,
				"z": -3.0369862672,
				"element": "H" 
			},
			{
				"x": 3.5928911708,
				"y": -0.3491340212,
				"z": -0.4987959107,
				"element": "H" 
			}
		],
		 "valence_orbital": [ 
			{
				"type": "occ",
				"energy": -0.30537,
				"method": "rhf"
			},
			{
				"type": "occ",
				"energy": -0.29925,
				"method": "rhf"
			},
			{
				"type": "occ",
				"energy": -0.27969,
				"method": "rhf"
			},
			{
				"type": "occ",
				"energy": -0.2743,
				"method": "rhf"
			},
			{
				"type": "occ",
				"energy": -0.26453,
				"method": "rhf"
			},
			{
				"type": "unocc",
				"energy": -0.05405,
				"method": "rhf"
			},
			{
				"type": "unocc",
				"energy": -0.04976,
				"method": "rhf"
			},
			{
				"type": "unocc",
				"energy": -0.04444,
				"method": "rhf"
			},
			{
				"type": "unocc",
				"energy": 0.0079,
				"method": "rhf"
			},
			{
				"type": "unocc",
				"energy": 0.05118,
				"method": "rhf"
			}
		],
		"cosmo_sigma_profile": { 
			"-0.025": 0.0,
			"-0.024": 0.0,
			"-0.023": 0.0,
			"-0.022": 0.0,
			"-0.021": 0.0,
			"-0.02": 0.0,
			"-0.019": 0.0,
			"-0.018": 0.0,
			"-0.017": 0.0,
			"-0.016": 0.164977686516,
			"-0.015": 1.16709780254,
			"-0.014": 2.03093304752,
			"-0.013": 2.68081228868,
			"-0.012": 2.36422726192,
			"-0.011": 1.69089398987,
			"-0.01": 2.82884658149,
			"-0.009": 3.86601455704,
			"-0.008": 5.55065820592,
			"-0.007": 4.32573878355,
			"-0.006": 6.37733204437,
			"-0.005": 8.25917753567,
			"-0.004": 9.06821168523,
			"-0.003": 14.366797139,
			"-0.002": 20.9376090917,
			"-0.001": 23.9700141881,
			"0.0": 14.9116437945,
			"0.001": 13.3788604957,
			"0.002": 16.901035841,
			"0.003": 23.5155700501,
			"0.004": 6.59200048351,
			"0.005": 4.43273413124,
			"0.006": 4.76189537652,
			"0.007": 4.08287754874,
			"0.008": 4.28935460569,
			"0.009": 6.54319865425,
			"0.01": 11.3381852748,
			"0.011": 5.61106362379,
			"0.012": 0.0734968791331,
			"0.013": 0.0,
			"0.014": 0.0,
			"0.015": 0.0,
			"0.016": 0.0,
			"0.017": 0.0,
			"0.018": 0.0,
			"0.019": 0.0,
			"0.02": 0.0,
			"0.021": 0.0,
			"0.022": 0.0,
			"0.023": 0.0,
			"0.024": 0.0,
			"0.025": 0.0
		}
	}
}
