{
	 "smiles": "OC(=O)C1=C(Cl)C(=CC=C1Cl)S(Cl)(=O)=O", 
	 "Tm": 442.15, 
	 "num_atms": 18, 
	 "gaussian": { 
		 "optdone": 1, 
		 "sigma_profile": "yes", 
		 "theory": "DFT", 
		 "functional": "B3LYP", 
		 "basiset": "6-31G**", 
		 "properties": { 
			 "R2extent": 6267.5951, 
			 "electric_dipole_moment_norm": 3.93590925835, 
			 "electric_quadrupole_moment_norm": 15.3745500006, 
			 "total_energy": -2348.13043607, 
			 "HOMO_LUMO_gap": 0.18861, 
			 "cosmo_polarized_energy": -13.9, 
			 "cosmo_cavitation_energy": 30.53, 
			 "cosmo_dispersion_energy": -22.45, 
			 "cosmo_repulsion_energy": 1.72, 
			 "cosmo_total_nonelectrostatic_energy": 9.8, 
			 "SMD_solvation_energy": 4.6 
		},
		"coords": [
			{
				"x": 2.2355206077,
				"y": 1.1729952034,
				"z": 2.2477335632,
				"element": "O" 
			},
			{
				"x": 2.537493763,
				"y": 0.4966911879,
				"z": 1.1259954993,
				"element": "C" 
			},
			{
				"x": 3.6149271901,
				"y": 0.0132234967,
				"z": 0.8822153792,
				"element": "O" 
			},
			{
				"x": 1.345091029,
				"y": 0.4065610703,
				"z": 0.2011924603,
				"element": "C" 
			},
			{
				"x": 1.1076366113,
				"y": 1.4073554487,
				"z": -0.7508105268,
				"element": "C" 
			},
			{
				"x": 2.1888587041,
				"y": 2.7677382876,
				"z": -0.8028937979,
				"element": "Cl" 
			},
			{
				"x": 0.0267475254,
				"y": 1.277826211,
				"z": -1.6371925769,
				"element": "C" 
			},
			{
				"x": -0.8069181166,
				"y": 0.158126129,
				"z": -1.5789123214,
				"element": "C" 
			},
			{
				"x": -0.5810196739,
				"y": -0.8340293587,
				"z": -0.6333219215,
				"element": "C" 
			},
			{
				"x": 0.4902172286,
				"y": -0.702105403,
				"z": 0.2485315495,
				"element": "C" 
			},
			{
				"x": 0.7610881996,
				"y": -1.9510617367,
				"z": 1.4360829627,
				"element": "Cl" 
			},
			{
				"x": -0.4245969766,
				"y": 2.517216087,
				"z": -2.8651255061,
				"element": "S" 
			},
			{
				"x": 1.1540698603,
				"y": 2.325531924,
				"z": -4.2631470052,
				"element": "Cl" 
			},
			{
				"x": -0.3425275352,
				"y": 3.8540201383,
				"z": -2.2986545444,
				"element": "O" 
			},
			{
				"x": -1.6254315179,
				"y": 2.0453550338,
				"z": -3.5428527033,
				"element": "O" 
			},
			{
				"x": 3.0425735554,
				"y": 1.1929019222,
				"z": 2.7917590379,
				"element": "H" 
			},
			{
				"x": -1.6314027889,
				"y": 0.0784653622,
				"z": -2.2772199568,
				"element": "H" 
			},
			{
				"x": -1.2269276655,
				"y": -1.7020110039,
				"z": -0.5766795918,
				"element": "H" 
			}
		],
		 "valence_orbital": [ 
			{
				"type": "occ",
				"energy": -0.33499,
				"method": "rhf"
			},
			{
				"type": "occ",
				"energy": -0.32363,
				"method": "rhf"
			},
			{
				"type": "occ",
				"energy": -0.31657,
				"method": "rhf"
			},
			{
				"type": "occ",
				"energy": -0.29251,
				"method": "rhf"
			},
			{
				"type": "occ",
				"energy": -0.28984,
				"method": "rhf"
			},
			{
				"type": "unocc",
				"energy": -0.10123,
				"method": "rhf"
			},
			{
				"type": "unocc",
				"energy": -0.06857,
				"method": "rhf"
			},
			{
				"type": "unocc",
				"energy": -0.06459,
				"method": "rhf"
			},
			{
				"type": "unocc",
				"energy": -0.02614,
				"method": "rhf"
			},
			{
				"type": "unocc",
				"energy": -0.02065,
				"method": "rhf"
			}
		],
		"cosmo_sigma_profile": { 
			"-0.025": 0.0,
			"-0.024": 0.0,
			"-0.023": 0.0,
			"-0.022": 0.0,
			"-0.021": 0.0,
			"-0.02": 0.237380318641,
			"-0.019": 1.22765305389,
			"-0.018": 0.941472581637,
			"-0.017": 1.07926855971,
			"-0.016": 0.425627645773,
			"-0.015": 0.399605106986,
			"-0.014": 0.919005704686,
			"-0.013": 0.792820010092,
			"-0.012": 0.790128670318,
			"-0.011": 0.747889897384,
			"-0.01": 2.48611487382,
			"-0.009": 5.27930713091,
			"-0.008": 4.67636094633,
			"-0.007": 3.90834402269,
			"-0.006": 5.6513185691,
			"-0.005": 7.5461714862,
			"-0.004": 12.2678808858,
			"-0.003": 22.0187231908,
			"-0.002": 21.4686861617,
			"-0.001": 19.5743288443,
			"0.0": 18.093418819,
			"0.001": 20.5104102747,
			"0.002": 31.5609921497,
			"0.003": 18.8546472275,
			"0.004": 5.42950064344,
			"0.005": 5.19537795227,
			"0.006": 8.13219881659,
			"0.007": 11.58632637,
			"0.008": 10.7919056972,
			"0.009": 3.44968881857,
			"0.01": 5.20112006553,
			"0.011": 1.52631042972,
			"0.012": 0.0,
			"0.013": 0.0,
			"0.014": 0.0,
			"0.015": 0.0,
			"0.016": 0.0,
			"0.017": 0.0,
			"0.018": 0.0,
			"0.019": 0.0,
			"0.02": 0.0,
			"0.021": 0.0,
			"0.022": 0.0,
			"0.023": 0.0,
			"0.024": 0.0,
			"0.025": 0.0
		}
	}
}
