{
	 "smiles": "NNS(=O)(=O)C1=C(C=CC=C1)[N+]([O-])=O", 
	 "Tm": 363.15, 
	 "num_atms": 21, 
	 "gaussian": { 
		 "optdone": 1, 
		 "sigma_profile": "yes", 
		 "theory": "DFT", 
		 "functional": "B3LYP", 
		 "basiset": "6-31G**", 
		 "properties": { 
			 "R2extent": 3133.3965, 
			 "electric_dipole_moment_norm": 4.959166925, 
			 "electric_quadrupole_moment_norm": 16.3654168459, 
			 "total_energy": -1095.97449075, 
			 "HOMO_LUMO_gap": 0.15262, 
			 "cosmo_polarized_energy": -17.37, 
			 "cosmo_cavitation_energy": 27.07, 
			 "cosmo_dispersion_energy": -20.38, 
			 "cosmo_repulsion_energy": 1.55, 
			 "cosmo_total_nonelectrostatic_energy": 8.24, 
			 "SMD_solvation_energy": 6.39 
		},
		"coords": [
			{
				"x": 1.7056264274,
				"y": -0.1940451745,
				"z": -2.9885842284,
				"element": "N" 
			},
			{
				"x": 0.516713988,
				"y": 0.0739094771,
				"z": -2.2738413812,
				"element": "N" 
			},
			{
				"x": 0.6744568496,
				"y": 0.0755096972,
				"z": -0.5593325098,
				"element": "S" 
			},
			{
				"x": 0.5253710606,
				"y": -1.2428081605,
				"z": 0.066748085,
				"element": "O" 
			},
			{
				"x": 1.8923951938,
				"y": 0.8578152761,
				"z": -0.3132313787,
				"element": "O" 
			},
			{
				"x": -0.7281213015,
				"y": 1.1075835269,
				"z": -0.0377209341,
				"element": "C" 
			},
			{
				"x": -2.0658530668,
				"y": 0.6924166171,
				"z": 0.0528328109,
				"element": "C" 
			},
			{
				"x": -3.0377682357,
				"y": 1.5142699119,
				"z": 0.6194036063,
				"element": "C" 
			},
			{
				"x": -2.6862012489,
				"y": 2.7799127087,
				"z": 1.0843223802,
				"element": "C" 
			},
			{
				"x": -1.3628315309,
				"y": 3.2078958183,
				"z": 0.9965642324,
				"element": "C" 
			},
			{
				"x": -0.3884994329,
				"y": 2.3697320012,
				"z": 0.4507241407,
				"element": "C" 
			},
			{
				"x": -2.5389229968,
				"y": -0.5999103231,
				"z": -0.4733811568,
				"element": "N" 
			},
			{
				"x": -3.5201038827,
				"y": -1.1010272481,
				"z": 0.0631333054,
				"element": "O" 
			},
			{
				"x": -1.9506923479,
				"y": -1.0788155255,
				"z": -1.4433937507,
				"element": "O" 
			},
			{
				"x": 2.3102277809,
				"y": 0.6160288152,
				"z": -2.888394106,
				"element": "H" 
			},
			{
				"x": 2.2008072962,
				"y": -1.0068533288,
				"z": -2.6189490038,
				"element": "H" 
			},
			{
				"x": -0.2302899628,
				"y": -0.5629409915,
				"z": -2.539597383,
				"element": "H" 
			},
			{
				"x": -4.0555693821,
				"y": 1.1490569016,
				"z": 0.6791608802,
				"element": "H" 
			},
			{
				"x": -3.4466465868,
				"y": 3.4237605083,
				"z": 1.5139753599,
				"element": "H" 
			},
			{
				"x": -1.0794905046,
				"y": 4.189692399,
				"z": 1.3623331204,
				"element": "H" 
			},
			{
				"x": 0.651291884,
				"y": 2.6726170935,
				"z": 0.4094279111,
				"element": "H" 
			}
		],
		 "valence_orbital": [ 
			{
				"type": "occ",
				"energy": -0.31959,
				"method": "rhf"
			},
			{
				"type": "occ",
				"energy": -0.29902,
				"method": "rhf"
			},
			{
				"type": "occ",
				"energy": -0.29621,
				"method": "rhf"
			},
			{
				"type": "occ",
				"energy": -0.28983,
				"method": "rhf"
			},
			{
				"type": "occ",
				"energy": -0.26182,
				"method": "rhf"
			},
			{
				"type": "unocc",
				"energy": -0.1092,
				"method": "rhf"
			},
			{
				"type": "unocc",
				"energy": -0.05689,
				"method": "rhf"
			},
			{
				"type": "unocc",
				"energy": -0.03028,
				"method": "rhf"
			},
			{
				"type": "unocc",
				"energy": 0.03066,
				"method": "rhf"
			},
			{
				"type": "unocc",
				"energy": 0.05079,
				"method": "rhf"
			}
		],
		"cosmo_sigma_profile": { 
			"-0.025": 0.0,
			"-0.024": 0.0,
			"-0.023": 0.0,
			"-0.022": 0.0,
			"-0.021": 0.0,
			"-0.02": 0.0,
			"-0.019": 0.0,
			"-0.018": 0.0,
			"-0.017": 0.0,
			"-0.016": 0.0,
			"-0.015": 0.0,
			"-0.014": 0.0,
			"-0.013": 0.595200523414,
			"-0.012": 2.70220227277,
			"-0.011": 3.48877480068,
			"-0.01": 3.06366841084,
			"-0.009": 6.27961639027,
			"-0.008": 12.5283853484,
			"-0.007": 11.6995370324,
			"-0.006": 9.41078758297,
			"-0.005": 10.6223662207,
			"-0.004": 8.47820065462,
			"-0.003": 10.9904410704,
			"-0.002": 14.6256114805,
			"-0.001": 16.7092758965,
			"0.0": 17.7128193287,
			"0.001": 8.77898244708,
			"0.002": 5.38398590745,
			"0.003": 5.80990723617,
			"0.004": 6.19981916898,
			"0.005": 6.51350601515,
			"0.006": 10.2256863461,
			"0.007": 9.02424207336,
			"0.008": 8.80769030611,
			"0.009": 8.54311275697,
			"0.01": 8.73078990159,
			"0.011": 6.88821241461,
			"0.012": 1.15977985049,
			"0.013": 0.708115025189,
			"0.014": 0.648652878609,
			"0.015": 0.366733604938,
			"0.016": 0.0,
			"0.017": 0.0,
			"0.018": 0.0,
			"0.019": 0.0,
			"0.02": 0.0,
			"0.021": 0.0,
			"0.022": 0.0,
			"0.023": 0.0,
			"0.024": 0.0,
			"0.025": 0.0
		}
	}
}
