{
	 "smiles": "OC1=CC=C(OCC2=CN=CC=C2)C=C1", 
	 "Tm": 431.15, 
	 "num_atms": 26, 
	 "gaussian": { 
		 "optdone": 1, 
		 "sigma_profile": "yes", 
		 "theory": "DFT", 
		 "functional": "B3LYP", 
		 "basiset": "6-31G**", 
		 "properties": { 
			 "R2extent": 4260.5968, 
			 "electric_dipole_moment_norm": 2.11302054178, 
			 "electric_quadrupole_moment_norm": 13.5598830378, 
			 "total_energy": -669.077925422, 
			 "HOMO_LUMO_gap": 0.1862, 
			 "cosmo_polarized_energy": -14.29, 
			 "cosmo_cavitation_energy": 30.85, 
			 "cosmo_dispersion_energy": -21.5, 
			 "cosmo_repulsion_energy": 1.69, 
			 "cosmo_total_nonelectrostatic_energy": 11.04, 
			 "SMD_solvation_energy": 4.18 
		},
		"coords": [
			{
				"x": 1.1522279022,
				"y": 5.5460098777,
				"z": -0.7954767989,
				"element": "O" 
			},
			{
				"x": 1.0096365959,
				"y": 4.1969422125,
				"z": -0.9765312467,
				"element": "C" 
			},
			{
				"x": -0.2359194855,
				"y": 3.7341939113,
				"z": -1.4170856339,
				"element": "C" 
			},
			{
				"x": -0.4388368896,
				"y": 2.372422544,
				"z": -1.6231686628,
				"element": "C" 
			},
			{
				"x": 0.5944333186,
				"y": 1.4592490754,
				"z": -1.3821631966,
				"element": "C" 
			},
			{
				"x": 0.4316518906,
				"y": 0.1087653451,
				"z": -1.6373552977,
				"element": "O" 
			},
			{
				"x": -0.475147503,
				"y": -0.592370745,
				"z": -0.771200676,
				"element": "C" 
			},
			{
				"x": 0.0934614882,
				"y": -0.8192101777,
				"z": 0.6101522383,
				"element": "C" 
			},
			{
				"x": 1.1328063821,
				"y": -1.7395595904,
				"z": 0.8081173779,
				"element": "C" 
			},
			{
				"x": 1.7081330211,
				"y": -1.9851966991,
				"z": 1.9886444189,
				"element": "N" 
			},
			{
				"x": 1.2528313844,
				"y": -1.2982049908,
				"z": 3.0460877496,
				"element": "C" 
			},
			{
				"x": 0.2268905265,
				"y": -0.3568939092,
				"z": 2.9694308197,
				"element": "C" 
			},
			{
				"x": -0.3589614625,
				"y": -0.1135745746,
				"z": 1.7273758294,
				"element": "C" 
			},
			{
				"x": 1.8345265617,
				"y": 1.9211672748,
				"z": -0.9414166944,
				"element": "C" 
			},
			{
				"x": 2.0455056492,
				"y": 3.2866296,
				"z": -0.7450694926,
				"element": "C" 
			},
			{
				"x": 2.0541766693,
				"y": 5.7313292183,
				"z": -0.5043113494,
				"element": "H" 
			},
			{
				"x": -1.0256050039,
				"y": 4.4541181646,
				"z": -1.6052006396,
				"element": "H" 
			},
			{
				"x": -1.3963486649,
				"y": 2.0158204963,
				"z": -1.9911297465,
				"element": "H" 
			},
			{
				"x": -0.6541262841,
				"y": -1.5464533754,
				"z": -1.2754319625,
				"element": "H" 
			},
			{
				"x": -1.4324527311,
				"y": -0.0595031498,
				"z": -0.7032076038,
				"element": "H" 
			},
			{
				"x": 1.5167661926,
				"y": -2.3063389221,
				"z": -0.0399014677,
				"element": "H" 
			},
			{
				"x": 1.7320945607,
				"y": -1.5139349366,
				"z": 3.9995355695,
				"element": "H" 
			},
			{
				"x": -0.1016919978,
				"y": 0.1714671395,
				"z": 3.8590152096,
				"element": "H" 
			},
			{
				"x": -1.1591435552,
				"y": 0.6152444938,
				"z": 1.6250875068,
				"element": "H" 
			},
			{
				"x": 2.6291552542,
				"y": 1.2048302606,
				"z": -0.7620147224,
				"element": "H" 
			},
			{
				"x": 3.0168361805,
				"y": 3.640951457,
				"z": -0.4058815281,
				"element": "H" 
			}
		],
		 "valence_orbital": [ 
			{
				"type": "occ",
				"energy": -0.28229,
				"method": "rhf"
			},
			{
				"type": "occ",
				"energy": -0.2608,
				"method": "rhf"
			},
			{
				"type": "occ",
				"energy": -0.2549,
				"method": "rhf"
			},
			{
				"type": "occ",
				"energy": -0.25142,
				"method": "rhf"
			},
			{
				"type": "occ",
				"energy": -0.21197,
				"method": "rhf"
			},
			{
				"type": "unocc",
				"energy": -0.02577,
				"method": "rhf"
			},
			{
				"type": "unocc",
				"energy": -0.01874,
				"method": "rhf"
			},
			{
				"type": "unocc",
				"energy": -0.00624,
				"method": "rhf"
			},
			{
				"type": "unocc",
				"energy": 0.01723,
				"method": "rhf"
			},
			{
				"type": "unocc",
				"energy": 0.0695,
				"method": "rhf"
			}
		],
		"cosmo_sigma_profile": { 
			"-0.025": 0.0,
			"-0.024": 0.0,
			"-0.023": 0.0,
			"-0.022": 0.0,
			"-0.021": 0.0,
			"-0.02": 0.0,
			"-0.019": 0.0,
			"-0.018": 0.28170173913,
			"-0.017": 1.10852220969,
			"-0.016": 0.880706174971,
			"-0.015": 1.33650367193,
			"-0.014": 1.01820769193,
			"-0.013": 0.716001133002,
			"-0.012": 1.12234442193,
			"-0.011": 1.0661291272,
			"-0.01": 0.762441215698,
			"-0.009": 0.96101084823,
			"-0.008": 1.6019292832,
			"-0.007": 5.75527964218,
			"-0.006": 21.0081316419,
			"-0.005": 20.6753102898,
			"-0.004": 19.7242339834,
			"-0.003": 14.1734692683,
			"-0.002": 12.4343189865,
			"-0.001": 11.0636724666,
			"0.0": 13.8397231988,
			"0.001": 14.0571962028,
			"0.002": 19.2910882395,
			"0.003": 18.0879398716,
			"0.004": 17.5065690754,
			"0.005": 16.5102695973,
			"0.006": 4.92643249456,
			"0.007": 3.29209202162,
			"0.008": 3.88167429904,
			"0.009": 3.850710727,
			"0.01": 4.21300681754,
			"0.011": 4.12051247679,
			"0.012": 3.32636292052,
			"0.013": 0.577474043057,
			"0.014": 1.38998776867,
			"0.015": 0.501075553123,
			"0.016": 1.04316754129,
			"0.017": 0.23914800579,
			"0.018": 0.0,
			"0.019": 0.0,
			"0.02": 0.0,
			"0.021": 0.0,
			"0.022": 0.0,
			"0.023": 0.0,
			"0.024": 0.0,
			"0.025": 0.0
		}
	}
}
