{
	 "smiles": "NC1=C(C=CC=C1F)N1C=NC=N1", 
	 "Tm": 377.15, 
	 "num_atms": 20, 
	 "gaussian": { 
		 "optdone": 1, 
		 "sigma_profile": "yes", 
		 "theory": "DFT", 
		 "functional": "B3LYP", 
		 "basiset": "6-31G**", 
		 "properties": { 
			 "R2extent": 3154.5629, 
			 "electric_dipole_moment_norm": 2.25423371016, 
			 "electric_quadrupole_moment_norm": 12.7187401609, 
			 "total_energy": -627.890900609, 
			 "HOMO_LUMO_gap": 0.19181, 
			 "cosmo_polarized_energy": -11.5, 
			 "cosmo_cavitation_energy": 24.77, 
			 "cosmo_dispersion_energy": -18.39, 
			 "cosmo_repulsion_energy": 1.4, 
			 "cosmo_total_nonelectrostatic_energy": 7.78, 
			 "SMD_solvation_energy": 2.8 
		},
		"coords": [
			{
				"x": 1.750754374,
				"y": 0.3144346821,
				"z": -0.3162721841,
				"element": "N" 
			},
			{
				"x": 0.6552522506,
				"y": -0.5410671399,
				"z": -0.1923701386,
				"element": "C" 
			},
			{
				"x": -0.0154727447,
				"y": -1.1262907599,
				"z": -1.2840742435,
				"element": "C" 
			},
			{
				"x": -1.1159148598,
				"y": -1.9677284515,
				"z": -1.0911174085,
				"element": "C" 
			},
			{
				"x": -1.5874618813,
				"y": -2.22735303,
				"z": 0.1915821021,
				"element": "C" 
			},
			{
				"x": -0.9605042918,
				"y": -1.6402278029,
				"z": 1.2948466396,
				"element": "C" 
			},
			{
				"x": 0.1323983637,
				"y": -0.8222138915,
				"z": 1.078933309,
				"element": "C" 
			},
			{
				"x": 0.7812758099,
				"y": -0.2659886831,
				"z": 2.1352089983,
				"element": "F" 
			},
			{
				"x": 0.43666975,
				"y": -0.876168819,
				"z": -2.612085025,
				"element": "N" 
			},
			{
				"x": 0.8335631453,
				"y": 0.2915044528,
				"z": -3.1929429826,
				"element": "C" 
			},
			{
				"x": 1.0781972091,
				"y": 0.1098247197,
				"z": -4.477356355,
				"element": "N" 
			},
			{
				"x": 0.798595962,
				"y": -1.2140329818,
				"z": -4.6474157468,
				"element": "C" 
			},
			{
				"x": 0.4044990488,
				"y": -1.8579261538,
				"z": -3.5605495232,
				"element": "N" 
			},
			{
				"x": 2.2322243935,
				"y": 0.4561901814,
				"z": 0.5623578114,
				"element": "H" 
			},
			{
				"x": 2.3896885122,
				"y": 0.075515531,
				"z": -1.0649035038,
				"element": "H" 
			},
			{
				"x": -1.581206208,
				"y": -2.4096447933,
				"z": -1.963874203,
				"element": "H" 
			},
			{
				"x": -2.4436731352,
				"y": -2.8771773603,
				"z": 0.3351690947,
				"element": "H" 
			},
			{
				"x": -1.2976101109,
				"y": -1.8135086215,
				"z": 2.3108652508,
				"element": "H" 
			},
			{
				"x": 0.9154931244,
				"y": 1.2171710649,
				"z": -2.6420917229,
				"element": "H" 
			},
			{
				"x": 0.8931312881,
				"y": -1.7203121431,
				"z": -5.598310169,
				"element": "H" 
			}
		],
		 "valence_orbital": [ 
			{
				"type": "occ",
				"energy": -0.3111,
				"method": "rhf"
			},
			{
				"type": "occ",
				"energy": -0.28062,
				"method": "rhf"
			},
			{
				"type": "occ",
				"energy": -0.2768,
				"method": "rhf"
			},
			{
				"type": "occ",
				"energy": -0.2472,
				"method": "rhf"
			},
			{
				"type": "occ",
				"energy": -0.22259,
				"method": "rhf"
			},
			{
				"type": "unocc",
				"energy": -0.03078,
				"method": "rhf"
			},
			{
				"type": "unocc",
				"energy": -0.00288,
				"method": "rhf"
			},
			{
				"type": "unocc",
				"energy": 0.01757,
				"method": "rhf"
			},
			{
				"type": "unocc",
				"energy": 0.04613,
				"method": "rhf"
			},
			{
				"type": "unocc",
				"energy": 0.06707,
				"method": "rhf"
			}
		],
		"cosmo_sigma_profile": { 
			"-0.025": 0.0,
			"-0.024": 0.0,
			"-0.023": 0.0,
			"-0.022": 0.0,
			"-0.021": 0.0,
			"-0.02": 0.0,
			"-0.019": 0.0,
			"-0.018": 0.0,
			"-0.017": 0.0,
			"-0.016": 0.0,
			"-0.015": 0.0,
			"-0.014": 0.0853852740329,
			"-0.013": 1.22591070143,
			"-0.012": 2.02584424228,
			"-0.011": 2.15137773603,
			"-0.01": 3.50708700313,
			"-0.009": 4.75020279478,
			"-0.008": 5.64920779906,
			"-0.007": 6.759434675,
			"-0.006": 11.2552061551,
			"-0.005": 9.24333679123,
			"-0.004": 10.2359612107,
			"-0.003": 9.20895190214,
			"-0.002": 10.7863195526,
			"-0.001": 12.4004297367,
			"0.0": 12.6974383016,
			"0.001": 16.7082030288,
			"0.002": 15.3968417696,
			"0.003": 16.6363886429,
			"0.004": 17.0589667204,
			"0.005": 5.77436427723,
			"0.006": 3.38323024799,
			"0.007": 3.87359013064,
			"0.008": 3.62519641571,
			"0.009": 2.76567976372,
			"0.01": 2.43674112384,
			"0.011": 2.078954496,
			"0.012": 2.63411610545,
			"0.013": 2.00178626873,
			"0.014": 1.40046539746,
			"0.015": 0.76790854995,
			"0.016": 1.08750412536,
			"0.017": 0.0261886025664,
			"0.018": 0.0,
			"0.019": 0.0,
			"0.02": 0.0,
			"0.021": 0.0,
			"0.022": 0.0,
			"0.023": 0.0,
			"0.024": 0.0,
			"0.025": 0.0
		}
	}
}
