{
	 "smiles": "OC(=O)C1=CC(=CC(I)=C1)C(F)(F)F", 
	 "Tm": 456.15, 
	 "num_atms": 18, 
	 "gaussian": { 
		 "optdone": 1, 
		 "sigma_profile": "yes", 
		 "theory": "DFT", 
		 "functional": "B3LYP", 
		 "basiset": "6-31G**", 
		 "properties": { 
			 "R2extent": 4622.0091, 
			 "electric_dipole_moment_norm": 2.36658987997, 
			 "electric_quadrupole_moment_norm": 10.6198665778, 
			 "total_energy": -768.638880443, 
			 "HOMO_LUMO_gap": 0.18566, 
			 "cosmo_polarized_energy": -8.91, 
			 "cosmo_cavitation_energy": 28.24, 
			 "cosmo_dispersion_energy": -21.36, 
			 "cosmo_repulsion_energy": 1.6, 
			 "cosmo_total_nonelectrostatic_energy": 8.49, 
			 "SMD_solvation_energy": 6.39 
		},
		"coords": [
			{
				"x": 4.292626476,
				"y": -0.5200924994,
				"z": -3.2214571752,
				"element": "O" 
			},
			{
				"x": 4.0244382528,
				"y": -0.8677347444,
				"z": -1.9414181193,
				"element": "C" 
			},
			{
				"x": 4.6524341115,
				"y": -1.7192559326,
				"z": -1.3474328012,
				"element": "O" 
			},
			{
				"x": 2.8892573775,
				"y": -0.0967201697,
				"z": -1.3566784261,
				"element": "C" 
			},
			{
				"x": 2.5263285368,
				"y": -0.3739886294,
				"z": -0.0350430906,
				"element": "C" 
			},
			{
				"x": 1.4691818982,
				"y": 0.3204396314,
				"z": 0.5466266211,
				"element": "C" 
			},
			{
				"x": 0.7674310557,
				"y": 1.2893627339,
				"z": -0.1783363838,
				"element": "C" 
			},
			{
				"x": 1.140072521,
				"y": 1.5562432084,
				"z": -1.4958108881,
				"element": "C" 
			},
			{
				"x": 0.0796687135,
				"y": 3.0165792104,
				"z": -2.6022019298,
				"element": "I" 
			},
			{
				"x": 2.1973784816,
				"y": 0.8720540988,
				"z": -2.0951621134,
				"element": "C" 
			},
			{
				"x": 1.1048344152,
				"y": 0.0727796689,
				"z": 1.9894792358,
				"element": "C" 
			},
			{
				"x": 1.4111485259,
				"y": -1.1829013213,
				"z": 2.3728119732,
				"element": "F" 
			},
			{
				"x": -0.214730401,
				"y": 0.2607121851,
				"z": 2.2076437456,
				"element": "F" 
			},
			{
				"x": 1.7660884254,
				"y": 0.9153383418,
				"z": 2.8136368458,
				"element": "F" 
			},
			{
				"x": 5.0391467486,
				"y": -1.0748139635,
				"z": -3.5020045528,
				"element": "H" 
			},
			{
				"x": 3.0719437565,
				"y": -1.1326021782,
				"z": 0.5134624863,
				"element": "H" 
			},
			{
				"x": -0.0597136072,
				"y": 1.8152745204,
				"z": 0.282987445,
				"element": "H" 
			},
			{
				"x": 2.4867647117,
				"y": 1.0765258392,
				"z": -3.1180028725,
				"element": "H" 
			}
		],
		 "valence_orbital": [ 
			{
				"type": "occ",
				"energy": -0.31722,
				"method": "rhf"
			},
			{
				"type": "occ",
				"energy": -0.29641,
				"method": "rhf"
			},
			{
				"type": "occ",
				"energy": -0.29272,
				"method": "rhf"
			},
			{
				"type": "occ",
				"energy": -0.28289,
				"method": "rhf"
			},
			{
				"type": "occ",
				"energy": -0.26032,
				"method": "rhf"
			},
			{
				"type": "unocc",
				"energy": -0.07466,
				"method": "rhf"
			},
			{
				"type": "unocc",
				"energy": -0.0543,
				"method": "rhf"
			},
			{
				"type": "unocc",
				"energy": -0.04808,
				"method": "rhf"
			},
			{
				"type": "unocc",
				"energy": 0.02353,
				"method": "rhf"
			},
			{
				"type": "unocc",
				"energy": 0.03661,
				"method": "rhf"
			}
		],
		"cosmo_sigma_profile": { 
			"-0.025": 0.0,
			"-0.024": 0.0,
			"-0.023": 0.0,
			"-0.022": 0.0,
			"-0.021": 0.0,
			"-0.02": 0.0,
			"-0.019": 0.264467369928,
			"-0.018": 1.24265444977,
			"-0.017": 0.67196852346,
			"-0.016": 0.801209923247,
			"-0.015": 1.04164557191,
			"-0.014": 0.704511359395,
			"-0.013": 0.585215852315,
			"-0.012": 0.675275051621,
			"-0.011": 0.846244387477,
			"-0.01": 0.596242635587,
			"-0.009": 0.618385191074,
			"-0.008": 2.45088307855,
			"-0.007": 5.61729298493,
			"-0.006": 6.6830633711,
			"-0.005": 7.61279480851,
			"-0.004": 9.3019853188,
			"-0.003": 14.082819877,
			"-0.002": 15.4952737991,
			"-0.001": 23.6353541788,
			"0.0": 27.5666434533,
			"0.001": 20.6362923658,
			"0.002": 30.4660483795,
			"0.003": 30.0945307882,
			"0.004": 11.6820527759,
			"0.005": 2.8357275023,
			"0.006": 2.63743994388,
			"0.007": 2.04354108974,
			"0.008": 1.62883993114,
			"0.009": 1.54634837645,
			"0.01": 2.62015385935,
			"0.011": 4.86006653249,
			"0.012": 0.959283140353,
			"0.013": 0.0,
			"0.014": 0.0,
			"0.015": 0.0,
			"0.016": 0.0,
			"0.017": 0.0,
			"0.018": 0.0,
			"0.019": 0.0,
			"0.02": 0.0,
			"0.021": 0.0,
			"0.022": 0.0,
			"0.023": 0.0,
			"0.024": 0.0,
			"0.025": 0.0
		}
	}
}
