{
	 "smiles": "CCOC(=O)C1=CC=C(NCC2CC2)C=C1", 
	 "Tm": 343.15, 
	 "num_atms": 33, 
	 "gaussian": { 
		 "optdone": 1, 
		 "sigma_profile": "yes", 
		 "theory": "DFT", 
		 "functional": "B3LYP", 
		 "basiset": "6-31G**", 
		 "properties": { 
			 "R2extent": 6291.9467, 
			 "electric_dipole_moment_norm": 3.99031651627, 
			 "electric_quadrupole_moment_norm": 19.4373711574, 
			 "total_energy": -710.821368203, 
			 "HOMO_LUMO_gap": 0.17662, 
			 "cosmo_polarized_energy": -12.66, 
			 "cosmo_cavitation_energy": 36.09, 
			 "cosmo_dispersion_energy": -25.73, 
			 "cosmo_repulsion_energy": 2.04, 
			 "cosmo_total_nonelectrostatic_energy": 12.4, 
			 "SMD_solvation_energy": 5.89 
		},
		"coords": [
			{
				"x": 1.4004126309,
				"y": 4.3139744661,
				"z": -0.2805826822,
				"element": "C" 
			},
			{
				"x": 1.6380528866,
				"y": 3.2231434874,
				"z": -1.315195116,
				"element": "C" 
			},
			{
				"x": 1.0446630211,
				"y": 1.9715626522,
				"z": -0.9092304596,
				"element": "O" 
			},
			{
				"x": 1.7942909923,
				"y": 1.1862022909,
				"z": -0.0903919897,
				"element": "C" 
			},
			{
				"x": 2.9105191531,
				"y": 1.4978292067,
				"z": 0.2891535524,
				"element": "O" 
			},
			{
				"x": 1.1052782663,
				"y": -0.0704279291,
				"z": 0.2721292361,
				"element": "C" 
			},
			{
				"x": -0.1799196907,
				"y": -0.4003923197,
				"z": -0.1825877747,
				"element": "C" 
			},
			{
				"x": -0.7897337809,
				"y": -1.5918332514,
				"z": 0.1875319662,
				"element": "C" 
			},
			{
				"x": -0.1256446365,
				"y": -2.507188476,
				"z": 1.0328512793,
				"element": "C" 
			},
			{
				"x": -0.6587242313,
				"y": -3.7319275922,
				"z": 1.3856381038,
				"element": "N" 
			},
			{
				"x": -2.065879319,
				"y": -4.1050158123,
				"z": 1.3128128947,
				"element": "C" 
			},
			{
				"x": -2.917633611,
				"y": -3.6485363645,
				"z": 2.4860426574,
				"element": "C" 
			},
			{
				"x": -3.5911210051,
				"y": -2.2984138865,
				"z": 2.4984916049,
				"element": "C" 
			},
			{
				"x": -4.416897607,
				"y": -3.5511709032,
				"z": 2.3319160349,
				"element": "C" 
			},
			{
				"x": 1.170740619,
				"y": -2.1688134166,
				"z": 1.4869113828,
				"element": "C" 
			},
			{
				"x": 1.7689724516,
				"y": -0.9787583784,
				"z": 1.1135105451,
				"element": "C" 
			},
			{
				"x": 0.3314748033,
				"y": 4.4358328685,
				"z": -0.0810648636,
				"element": "H" 
			},
			{
				"x": 1.9096712234,
				"y": 4.0691017173,
				"z": 0.6545017872,
				"element": "H" 
			},
			{
				"x": 1.7931383886,
				"y": 5.2686017375,
				"z": -0.6470941723,
				"element": "H" 
			},
			{
				"x": 1.1516889509,
				"y": 3.4615270674,
				"z": -2.2648121981,
				"element": "H" 
			},
			{
				"x": 2.7069331394,
				"y": 3.0706073848,
				"z": -1.4831861853,
				"element": "H" 
			},
			{
				"x": -0.705093625,
				"y": 0.2894395535,
				"z": -0.8337353926,
				"element": "H" 
			},
			{
				"x": -1.7815749272,
				"y": -1.8143812714,
				"z": -0.1885445579,
				"element": "H" 
			},
			{
				"x": -0.1284001121,
				"y": -4.2304704634,
				"z": 2.08617879,
				"element": "H" 
			},
			{
				"x": -2.4861770951,
				"y": -3.7299924308,
				"z": 0.3742787367,
				"element": "H" 
			},
			{
				"x": -2.1044183529,
				"y": -5.1992348446,
				"z": 1.2422341818,
				"element": "H" 
			},
			{
				"x": -2.5626066835,
				"y": -4.0109375131,
				"z": 3.4500332028,
				"element": "H" 
			},
			{
				"x": -3.4627069593,
				"y": -1.6534444437,
				"z": 1.6350416253,
				"element": "H" 
			},
			{
				"x": -3.6476575757,
				"y": -1.7637611373,
				"z": 3.4417386586,
				"element": "H" 
			},
			{
				"x": -4.8401986295,
				"y": -3.7523098523,
				"z": 1.3510132211,
				"element": "H" 
			},
			{
				"x": -5.0435383397,
				"y": -3.8764979036,
				"z": 3.1565624867,
				"element": "H" 
			},
			{
				"x": 1.700445937,
				"y": -2.8607084424,
				"z": 2.1380408151,
				"element": "H" 
			},
			{
				"x": 2.7627437182,
				"y": -0.7243057998,
				"z": 1.4670126291,
				"element": "H" 
			}
		],
		 "valence_orbital": [ 
			{
				"type": "occ",
				"energy": -0.29041,
				"method": "rhf"
			},
			{
				"type": "occ",
				"energy": -0.28228,
				"method": "rhf"
			},
			{
				"type": "occ",
				"energy": -0.25624,
				"method": "rhf"
			},
			{
				"type": "occ",
				"energy": -0.24906,
				"method": "rhf"
			},
			{
				"type": "occ",
				"energy": -0.19855,
				"method": "rhf"
			},
			{
				"type": "unocc",
				"energy": -0.02193,
				"method": "rhf"
			},
			{
				"type": "unocc",
				"energy": 0.0027,
				"method": "rhf"
			},
			{
				"type": "unocc",
				"energy": 0.07376,
				"method": "rhf"
			},
			{
				"type": "unocc",
				"energy": 0.07555,
				"method": "rhf"
			},
			{
				"type": "unocc",
				"energy": 0.08581,
				"method": "rhf"
			}
		],
		"cosmo_sigma_profile": { 
			"-0.025": 0.0,
			"-0.024": 0.0,
			"-0.023": 0.0,
			"-0.022": 0.0,
			"-0.021": 0.0,
			"-0.02": 0.0,
			"-0.019": 0.0,
			"-0.018": 0.0,
			"-0.017": 0.0,
			"-0.016": 0.0,
			"-0.015": 0.0,
			"-0.014": 0.0,
			"-0.013": 0.93590414975,
			"-0.012": 1.76127152928,
			"-0.011": 1.10346857431,
			"-0.01": 1.5495679571,
			"-0.009": 1.77641023672,
			"-0.008": 1.61985593445,
			"-0.007": 4.05632347689,
			"-0.006": 7.15145312103,
			"-0.005": 14.9760381215,
			"-0.004": 27.242718888,
			"-0.003": 28.6728427669,
			"-0.002": 25.6878966014,
			"-0.001": 24.5088957625,
			"0.0": 24.3947734417,
			"0.001": 20.4902359108,
			"0.002": 16.2707227692,
			"0.003": 17.184984125,
			"0.004": 19.5308766104,
			"0.005": 20.0052811138,
			"0.006": 7.70627848376,
			"0.007": 3.82273869687,
			"0.008": 2.44592021736,
			"0.009": 1.50401351841,
			"0.01": 1.95032782485,
			"0.011": 1.72426543624,
			"0.012": 3.04501844187,
			"0.013": 3.39056703489,
			"0.014": 0.0,
			"0.015": 0.0,
			"0.016": 0.0,
			"0.017": 0.0,
			"0.018": 0.0,
			"0.019": 0.0,
			"0.02": 0.0,
			"0.021": 0.0,
			"0.022": 0.0,
			"0.023": 0.0,
			"0.024": 0.0,
			"0.025": 0.0
		}
	}
}
