{
	 "smiles": "NC1=C(Cl)C=NC=C1Cl", 
	 "Tm": 434.15, 
	 "num_atms": 13, 
	 "gaussian": { 
		 "optdone": 1, 
		 "sigma_profile": "yes", 
		 "theory": "DFT", 
		 "functional": "B3LYP", 
		 "basiset": "6-31G**", 
		 "properties": { 
			 "R2extent": 2058.028, 
			 "electric_dipole_moment_norm": 2.72885454724, 
			 "electric_quadrupole_moment_norm": 2.95245740189, 
			 "total_energy": -1222.83062915, 
			 "HOMO_LUMO_gap": 0.21331, 
			 "cosmo_polarized_energy": -8.03, 
			 "cosmo_cavitation_energy": 20.56, 
			 "cosmo_dispersion_energy": -16.01, 
			 "cosmo_repulsion_energy": 1.3, 
			 "cosmo_total_nonelectrostatic_energy": 5.86, 
			 "SMD_solvation_energy": 1.56 
		},
		"coords": [
			{
				"x": -0.6797765189,
				"y": 0.5136514547,
				"z": -0.2948341068,
				"element": "N" 
			},
			{
				"x": 0.5521130952,
				"y": 0.2557189189,
				"z": 0.2233918964,
				"element": "C" 
			},
			{
				"x": 1.4217022023,
				"y": 1.2733186187,
				"z": 0.6737993623,
				"element": "C" 
			},
			{
				"x": 0.9267328697,
				"y": 2.9531093551,
				"z": 0.5140333684,
				"element": "Cl" 
			},
			{
				"x": 2.6546444302,
				"y": 0.9636891668,
				"z": 1.2335689547,
				"element": "C" 
			},
			{
				"x": 3.1001071232,
				"y": -0.2883861903,
				"z": 1.3820227821,
				"element": "N" 
			},
			{
				"x": 2.3010028457,
				"y": -1.274180123,
				"z": 0.9603534456,
				"element": "C" 
			},
			{
				"x": 1.0539311117,
				"y": -1.0538908048,
				"z": 0.389708266,
				"element": "C" 
			},
			{
				"x": 0.078117072,
				"y": -2.4169040106,
				"z": -0.1414885047,
				"element": "Cl" 
			},
			{
				"x": -0.8970840157,
				"y": 1.4602912347,
				"z": -0.5634015346,
				"element": "H" 
			},
			{
				"x": -1.1644291763,
				"y": -0.2313133018,
				"z": -0.7698265647,
				"element": "H" 
			},
			{
				"x": 3.3041947158,
				"y": 1.7669115649,
				"z": 1.5725502603,
				"element": "H" 
			},
			{
				"x": 2.6626442452,
				"y": -2.2928158833,
				"z": 1.0769223751,
				"element": "H" 
			}
		],
		 "valence_orbital": [ 
			{
				"type": "occ",
				"energy": -0.339,
				"method": "rhf"
			},
			{
				"type": "occ",
				"energy": -0.33092,
				"method": "rhf"
			},
			{
				"type": "occ",
				"energy": -0.26741,
				"method": "rhf"
			},
			{
				"type": "occ",
				"energy": -0.25873,
				"method": "rhf"
			},
			{
				"type": "occ",
				"energy": -0.23922,
				"method": "rhf"
			},
			{
				"type": "unocc",
				"energy": -0.02591,
				"method": "rhf"
			},
			{
				"type": "unocc",
				"energy": -0.0198,
				"method": "rhf"
			},
			{
				"type": "unocc",
				"energy": 0.00069,
				"method": "rhf"
			},
			{
				"type": "unocc",
				"energy": 0.04195,
				"method": "rhf"
			},
			{
				"type": "unocc",
				"energy": 0.07723,
				"method": "rhf"
			}
		],
		"cosmo_sigma_profile": { 
			"-0.025": 0.0,
			"-0.024": 0.0,
			"-0.023": 0.0,
			"-0.022": 0.0,
			"-0.021": 0.0,
			"-0.02": 0.0,
			"-0.019": 0.0,
			"-0.018": 0.0,
			"-0.017": 0.0,
			"-0.016": 0.0,
			"-0.015": 0.0,
			"-0.014": 0.665071854128,
			"-0.013": 1.77041049676,
			"-0.012": 1.91444199365,
			"-0.011": 2.35926934519,
			"-0.01": 2.40340814618,
			"-0.009": 0.995923894363,
			"-0.008": 2.69359980507,
			"-0.007": 5.56141792991,
			"-0.006": 4.56731512215,
			"-0.005": 5.70706287117,
			"-0.004": 5.61187814748,
			"-0.003": 7.41363267318,
			"-0.002": 9.45064889434,
			"-0.001": 13.0239828152,
			"0.0": 22.921471818,
			"0.001": 21.6201721502,
			"0.002": 15.269814662,
			"0.003": 14.4055625369,
			"0.004": 14.4580466167,
			"0.005": 4.00178582315,
			"0.006": 1.15991823992,
			"0.007": 2.43533806412,
			"0.008": 2.17257130018,
			"0.009": 0.846164385472,
			"0.01": 0.974707365171,
			"0.011": 0.857763134543,
			"0.012": 0.887553392933,
			"0.013": 1.31211174967,
			"0.014": 1.0519272294,
			"0.015": 0.614381795256,
			"0.016": 0.642198794898,
			"0.017": 0.00248522680733,
			"0.018": 0.0,
			"0.019": 0.0,
			"0.02": 0.0,
			"0.021": 0.0,
			"0.022": 0.0,
			"0.023": 0.0,
			"0.024": 0.0,
			"0.025": 0.0
		}
	}
}
