{
	 "smiles": "OC(=O)C1=C(C=CC=C1C(F)(F)F)C(F)(F)F", 
	 "Tm": 411.15, 
	 "num_atms": 21, 
	 "gaussian": { 
		 "optdone": 1, 
		 "sigma_profile": "yes", 
		 "theory": "DFT", 
		 "functional": "B3LYP", 
		 "basiset": "6-31G**", 
		 "properties": { 
			 "R2extent": 3962.1673, 
			 "electric_dipole_moment_norm": 5.87261116796, 
			 "electric_quadrupole_moment_norm": 8.67267402823, 
			 "total_energy": -1094.86643736, 
			 "HOMO_LUMO_gap": 0.21256, 
			 "cosmo_polarized_energy": -13.1, 
			 "cosmo_cavitation_energy": 27.95, 
			 "cosmo_dispersion_energy": -19.59, 
			 "cosmo_repulsion_energy": 1.38, 
			 "cosmo_total_nonelectrostatic_energy": 9.74, 
			 "SMD_solvation_energy": 7.65 
		},
		"coords": [
			{
				"x": -2.4911372376,
				"y": 0.0111159601,
				"z": -2.0507368794,
				"element": "O" 
			},
			{
				"x": -1.7539597481,
				"y": 0.9511354208,
				"z": -1.4268690723,
				"element": "C" 
			},
			{
				"x": -2.0140154018,
				"y": 2.1213161955,
				"z": -1.5293893376,
				"element": "O" 
			},
			{
				"x": -0.571579847,
				"y": 0.46365461,
				"z": -0.6008121756,
				"element": "C" 
			},
			{
				"x": 0.7252760109,
				"y": 0.9106936203,
				"z": -0.9163251526,
				"element": "C" 
			},
			{
				"x": 1.8106797813,
				"y": 0.5591237164,
				"z": -0.1114178466,
				"element": "C" 
			},
			{
				"x": 1.6254547345,
				"y": -0.2265803837,
				"z": 1.022606048,
				"element": "C" 
			},
			{
				"x": 0.351786968,
				"y": -0.6831413567,
				"z": 1.344170854,
				"element": "C" 
			},
			{
				"x": -0.7394548859,
				"y": -0.3468004713,
				"z": 0.5390262407,
				"element": "C" 
			},
			{
				"x": -2.093892245,
				"y": -0.9138609859,
				"z": 0.8971941682,
				"element": "C" 
			},
			{
				"x": -2.4476282497,
				"y": -1.8985731817,
				"z": 0.0144462476,
				"element": "F" 
			},
			{
				"x": -3.0677548873,
				"y": 0.0110717827,
				"z": 0.8606860044,
				"element": "F" 
			},
			{
				"x": -2.1045260841,
				"y": -1.4743603943,
				"z": 2.1186731331,
				"element": "F" 
			},
			{
				"x": 0.9941083711,
				"y": 1.7726763443,
				"z": -2.1369403475,
				"element": "C" 
			},
			{
				"x": 0.6923700402,
				"y": 3.0624546653,
				"z": -1.9248335297,
				"element": "F" 
			},
			{
				"x": 0.2909308497,
				"y": 1.3473616708,
				"z": -3.207787864,
				"element": "F" 
			},
			{
				"x": 2.3030049104,
				"y": 1.7211312034,
				"z": -2.4793762087,
				"element": "F" 
			},
			{
				"x": -2.1995981968,
				"y": -0.8815462324,
				"z": -1.8131247558,
				"element": "H" 
			},
			{
				"x": 2.8017070717,
				"y": 0.9016933018,
				"z": -0.3836043268,
				"element": "H" 
			},
			{
				"x": 2.4721031803,
				"y": -0.4885076671,
				"z": 1.648431495,
				"element": "H" 
			},
			{
				"x": 0.1936248652,
				"y": -1.2986578183,
				"z": 2.2214833051,
				"element": "H" 
			}
		],
		 "valence_orbital": [ 
			{
				"type": "occ",
				"energy": -0.37981,
				"method": "rhf"
			},
			{
				"type": "occ",
				"energy": -0.32573,
				"method": "rhf"
			},
			{
				"type": "occ",
				"energy": -0.30471,
				"method": "rhf"
			},
			{
				"type": "occ",
				"energy": -0.30226,
				"method": "rhf"
			},
			{
				"type": "occ",
				"energy": -0.2796,
				"method": "rhf"
			},
			{
				"type": "unocc",
				"energy": -0.06704,
				"method": "rhf"
			},
			{
				"type": "unocc",
				"energy": -0.06014,
				"method": "rhf"
			},
			{
				"type": "unocc",
				"energy": 0.00551,
				"method": "rhf"
			},
			{
				"type": "unocc",
				"energy": 0.07544,
				"method": "rhf"
			},
			{
				"type": "unocc",
				"energy": 0.08201,
				"method": "rhf"
			}
		],
		"cosmo_sigma_profile": { 
			"-0.025": 0.0,
			"-0.024": 0.0,
			"-0.023": 0.0,
			"-0.022": 0.0,
			"-0.021": 0.0,
			"-0.02": 0.0,
			"-0.019": 0.0,
			"-0.018": 0.0583355490353,
			"-0.017": 0.518387864977,
			"-0.016": 0.96656824051,
			"-0.015": 0.634155764013,
			"-0.014": 0.732704078641,
			"-0.013": 0.941824896113,
			"-0.012": 0.810382193062,
			"-0.011": 0.852869363138,
			"-0.01": 1.09138773874,
			"-0.009": 1.40369311223,
			"-0.008": 6.89047333981,
			"-0.007": 7.70369459146,
			"-0.006": 6.5858519506,
			"-0.005": 8.98914447813,
			"-0.004": 9.23044315451,
			"-0.003": 11.3565619443,
			"-0.002": 13.0473318891,
			"-0.001": 18.4186407936,
			"0.0": 19.4305440973,
			"0.001": 29.3092759189,
			"0.002": 40.5961532229,
			"0.003": 12.4493052836,
			"0.004": 4.33695709184,
			"0.005": 3.25751195474,
			"0.006": 3.77280878153,
			"0.007": 3.36634198078,
			"0.008": 3.87402448365,
			"0.009": 5.20961099611,
			"0.01": 5.20887384441,
			"0.011": 3.60880804328,
			"0.012": 0.689961222054,
			"0.013": 0.0,
			"0.014": 0.0,
			"0.015": 0.0,
			"0.016": 0.0,
			"0.017": 0.0,
			"0.018": 0.0,
			"0.019": 0.0,
			"0.02": 0.0,
			"0.021": 0.0,
			"0.022": 0.0,
			"0.023": 0.0,
			"0.024": 0.0,
			"0.025": 0.0
		}
	}
}
