{
	 "smiles": "COC1=CC2=C(C=C(N2)C(O)=O)C=C1", 
	 "Tm": 464.15, 
	 "num_atms": 23, 
	 "gaussian": { 
		 "optdone": 1, 
		 "sigma_profile": "yes", 
		 "theory": "DFT", 
		 "functional": "B3LYP", 
		 "basiset": "6-31G**", 
		 "properties": { 
			 "R2extent": 4461.5127, 
			 "electric_dipole_moment_norm": 5.83280554193, 
			 "electric_quadrupole_moment_norm": 30.6732741976, 
			 "total_energy": -666.908315038, 
			 "HOMO_LUMO_gap": 0.16402, 
			 "cosmo_polarized_energy": -20.06, 
			 "cosmo_cavitation_energy": 27.83, 
			 "cosmo_dispersion_energy": -20.64, 
			 "cosmo_repulsion_energy": 1.61, 
			 "cosmo_total_nonelectrostatic_energy": 8.8, 
			 "SMD_solvation_energy": 6.39 
		},
		"coords": [
			{
				"x": -2.5636564128,
				"y": 3.7481158865,
				"z": 1.521308165,
				"element": "C" 
			},
			{
				"x": -1.2228374361,
				"y": 3.6625987018,
				"z": 1.0676325696,
				"element": "O" 
			},
			{
				"x": -0.8798940223,
				"y": 2.6239970492,
				"z": 0.2536100179,
				"element": "C" 
			},
			{
				"x": -1.7626127967,
				"y": 1.6293160275,
				"z": -0.1625510541,
				"element": "C" 
			},
			{
				"x": -1.2416445014,
				"y": 0.6311157447,
				"z": -0.9979658335,
				"element": "C" 
			},
			{
				"x": 0.109169665,
				"y": 0.614921446,
				"z": -1.4347239457,
				"element": "C" 
			},
			{
				"x": 0.2561720525,
				"y": -0.5111877424,
				"z": -2.3043695686,
				"element": "C" 
			},
			{
				"x": -0.95967654,
				"y": -1.1468406654,
				"z": -2.3670670199,
				"element": "C" 
			},
			{
				"x": -1.8716191024,
				"y": -0.4777475435,
				"z": -1.5335444776,
				"element": "N" 
			},
			{
				"x": -1.3019309853,
				"y": -2.3805968412,
				"z": -3.090515433,
				"element": "C" 
			},
			{
				"x": -2.4131777244,
				"y": -3.0395923392,
				"z": -2.6296957323,
				"element": "O" 
			},
			{
				"x": -0.6817109003,
				"y": -2.8101371303,
				"z": -4.0342001562,
				"element": "O" 
			},
			{
				"x": 0.9748698384,
				"y": 1.6319535336,
				"z": -0.9810904376,
				"element": "C" 
			},
			{
				"x": 0.4809359197,
				"y": 2.6181757456,
				"z": -0.1518609726,
				"element": "C" 
			},
			{
				"x": -3.2673957313,
				"y": 3.8503533965,
				"z": 0.6848479258,
				"element": "H" 
			},
			{
				"x": -2.6156120556,
				"y": 4.6414430464,
				"z": 2.1452429059,
				"element": "H" 
			},
			{
				"x": -2.8440185646,
				"y": 2.8721688252,
				"z": 2.1209128825,
				"element": "H" 
			},
			{
				"x": -2.8008447903,
				"y": 1.6141994669,
				"z": 0.1459694809,
				"element": "H" 
			},
			{
				"x": 1.1524483186,
				"y": -0.8493315335,
				"z": -2.8040967747,
				"element": "H" 
			},
			{
				"x": -2.8705480091,
				"y": -0.5174631542,
				"z": -1.6785041844,
				"element": "H" 
			},
			{
				"x": -2.6077268627,
				"y": -2.7501011496,
				"z": -1.7260720651,
				"element": "H" 
			},
			{
				"x": 2.0168325061,
				"y": 1.6452811536,
				"z": -1.2864926613,
				"element": "H" 
			},
			{
				"x": 1.1146781349,
				"y": 3.4193580759,
				"z": 0.2126263688,
				"element": "H" 
			}
		],
		 "valence_orbital": [ 
			{
				"type": "occ",
				"energy": -0.31368,
				"method": "rhf"
			},
			{
				"type": "occ",
				"energy": -0.28382,
				"method": "rhf"
			},
			{
				"type": "occ",
				"energy": -0.27146,
				"method": "rhf"
			},
			{
				"type": "occ",
				"energy": -0.23495,
				"method": "rhf"
			},
			{
				"type": "occ",
				"energy": -0.2107,
				"method": "rhf"
			},
			{
				"type": "unocc",
				"energy": -0.04668,
				"method": "rhf"
			},
			{
				"type": "unocc",
				"energy": 0.00172,
				"method": "rhf"
			},
			{
				"type": "unocc",
				"energy": 0.02961,
				"method": "rhf"
			},
			{
				"type": "unocc",
				"energy": 0.04648,
				"method": "rhf"
			},
			{
				"type": "unocc",
				"energy": 0.08465,
				"method": "rhf"
			}
		],
		"cosmo_sigma_profile": { 
			"-0.025": 0.0,
			"-0.024": 0.0,
			"-0.023": 0.0,
			"-0.022": 0.0,
			"-0.021": 0.0,
			"-0.02": 0.0,
			"-0.019": 0.0127378226922,
			"-0.018": 1.04321162856,
			"-0.017": 1.72300560688,
			"-0.016": 2.29094863932,
			"-0.015": 2.00905345251,
			"-0.014": 2.41009421328,
			"-0.013": 1.8442775197,
			"-0.012": 1.97775399527,
			"-0.011": 1.81219207716,
			"-0.01": 1.48284823937,
			"-0.009": 1.59746582498,
			"-0.008": 2.30898713939,
			"-0.007": 5.55081472277,
			"-0.006": 10.9566264594,
			"-0.005": 16.7957233458,
			"-0.004": 14.659886185,
			"-0.003": 16.0165244174,
			"-0.002": 10.8644642885,
			"-0.001": 8.90128362319,
			"0.0": 9.62641430766,
			"0.001": 9.96570580047,
			"0.002": 10.6607942963,
			"0.003": 16.2523257657,
			"0.004": 21.9626420859,
			"0.005": 12.2959465357,
			"0.006": 5.16621526805,
			"0.007": 3.13547824439,
			"0.008": 3.41450424513,
			"0.009": 5.45530089043,
			"0.01": 5.69012311314,
			"0.011": 5.67055871328,
			"0.012": 6.17479787729,
			"0.013": 2.41968200328,
			"0.014": 0.18930611304,
			"0.015": 0.0,
			"0.016": 0.0,
			"0.017": 0.0,
			"0.018": 0.0,
			"0.019": 0.0,
			"0.02": 0.0,
			"0.021": 0.0,
			"0.022": 0.0,
			"0.023": 0.0,
			"0.024": 0.0,
			"0.025": 0.0
		}
	}
}
