{
	 "smiles": "CN1CCN(CCOC2=CC=C(Br)C=C2)CC1", 
	 "Tm": 473.15, 
	 "num_atms": 36, 
	 "gaussian": { 
		 "optdone": 1, 
		 "sigma_profile": "yes", 
		 "theory": "DFT", 
		 "functional": "B3LYP", 
		 "basiset": "6-31G**", 
		 "properties": { 
			 "R2extent": 9814.5035, 
			 "electric_dipole_moment_norm": 2.14248306644, 
			 "electric_quadrupole_moment_norm": 16.1605607267, 
			 "total_energy": -3262.92271141, 
			 "HOMO_LUMO_gap": 0.18743, 
			 "cosmo_polarized_energy": -8.98, 
			 "cosmo_cavitation_energy": 39.17, 
			 "cosmo_dispersion_energy": -28.26, 
			 "cosmo_repulsion_energy": 2.21, 
			 "cosmo_total_nonelectrostatic_energy": 13.12, 
			 "SMD_solvation_energy": 0.3 
		},
		"coords": [
			{
				"x": -4.0754753888,
				"y": -0.688646884,
				"z": -2.122254267,
				"element": "C" 
			},
			{
				"x": -3.3360623866,
				"y": -1.8738196162,
				"z": -1.7206692044,
				"element": "N" 
			},
			{
				"x": -1.9043371228,
				"y": -1.844748679,
				"z": -2.074868994,
				"element": "C" 
			},
			{
				"x": -0.99516618,
				"y": -1.5060726704,
				"z": -0.8912766106,
				"element": "C" 
			},
			{
				"x": -1.1107821418,
				"y": -2.5436375134,
				"z": 0.1490754773,
				"element": "N" 
			},
			{
				"x": -0.616451688,
				"y": -2.1042007264,
				"z": 1.4484185333,
				"element": "C" 
			},
			{
				"x": 0.911755852,
				"y": -2.0020065354,
				"z": 1.5105518258,
				"element": "C" 
			},
			{
				"x": 1.4593496342,
				"y": -0.8687996362,
				"z": 0.8291265037,
				"element": "O" 
			},
			{
				"x": 1.5065492258,
				"y": 0.3476428324,
				"z": 1.4452070399,
				"element": "C" 
			},
			{
				"x": 2.0909756622,
				"y": 1.3779514337,
				"z": 0.6912735351,
				"element": "C" 
			},
			{
				"x": 2.2118166961,
				"y": 2.6590238428,
				"z": 1.2156044453,
				"element": "C" 
			},
			{
				"x": 1.7466130723,
				"y": 2.9209526384,
				"z": 2.5059340969,
				"element": "C" 
			},
			{
				"x": 1.9093604642,
				"y": 4.6833106853,
				"z": 3.232300948,
				"element": "Br" 
			},
			{
				"x": 1.1638261134,
				"y": 1.9121705027,
				"z": 3.2643404493,
				"element": "C" 
			},
			{
				"x": 1.0392332783,
				"y": 0.623529167,
				"z": 2.736932579,
				"element": "C" 
			},
			{
				"x": -2.4598991811,
				"y": -3.1458284813,
				"z": 0.1832021991,
				"element": "C" 
			},
			{
				"x": -3.5533717061,
				"y": -2.1947676828,
				"z": -0.3072176412,
				"element": "C" 
			},
			{
				"x": -3.9715280519,
				"y": -0.526689173,
				"z": -3.1997500634,
				"element": "H" 
			},
			{
				"x": -3.7594437472,
				"y": 0.237191784,
				"z": -1.6017279362,
				"element": "H" 
			},
			{
				"x": -5.1406948494,
				"y": -0.8355645322,
				"z": -1.910813508,
				"element": "H" 
			},
			{
				"x": -1.7488646399,
				"y": -1.1121272649,
				"z": -2.8726546344,
				"element": "H" 
			},
			{
				"x": -1.6042421552,
				"y": -2.8208545958,
				"z": -2.4801607143,
				"element": "H" 
			},
			{
				"x": 0.0454059847,
				"y": -1.4324943141,
				"z": -1.2222686206,
				"element": "H" 
			},
			{
				"x": -1.2676075337,
				"y": -0.5085959655,
				"z": -0.4968124435,
				"element": "H" 
			},
			{
				"x": -1.0603943715,
				"y": -1.1436113509,
				"z": 1.7755960435,
				"element": "H" 
			},
			{
				"x": -0.902400555,
				"y": -2.8576589139,
				"z": 2.1919196765,
				"element": "H" 
			},
			{
				"x": 1.2529889411,
				"y": -2.0107293805,
				"z": 2.553363187,
				"element": "H" 
			},
			{
				"x": 1.3410732647,
				"y": -2.8687279412,
				"z": 1.0017001368,
				"element": "H" 
			},
			{
				"x": 2.4506607781,
				"y": 1.1491627159,
				"z": -0.3064528996,
				"element": "H" 
			},
			{
				"x": 2.6661317628,
				"y": 3.4490173857,
				"z": 0.6283225771,
				"element": "H" 
			},
			{
				"x": 0.8008996336,
				"y": 2.1227199052,
				"z": 4.2640917419,
				"element": "H" 
			},
			{
				"x": 0.5719891072,
				"y": -0.1428980811,
				"z": 3.3428232008,
				"element": "H" 
			},
			{
				"x": -2.6835481726,
				"y": -3.4711092871,
				"z": 1.2035674722,
				"element": "H" 
			},
			{
				"x": -2.4747693991,
				"y": -4.0460996028,
				"z": -0.4459142569,
				"element": "H" 
			},
			{
				"x": -4.5422179571,
				"y": -2.6582172549,
				"z": -0.1878610825,
				"element": "H" 
			},
			{
				"x": -3.5513722427,
				"y": -1.28726681,
				"z": 0.3294512077,
				"element": "H" 
			}
		],
		 "valence_orbital": [ 
			{
				"type": "occ",
				"energy": -0.28234,
				"method": "rhf"
			},
			{
				"type": "occ",
				"energy": -0.26254,
				"method": "rhf"
			},
			{
				"type": "occ",
				"energy": -0.22087,
				"method": "rhf"
			},
			{
				"type": "occ",
				"energy": -0.2055,
				"method": "rhf"
			},
			{
				"type": "occ",
				"energy": -0.20123,
				"method": "rhf"
			},
			{
				"type": "unocc",
				"energy": -0.0138,
				"method": "rhf"
			},
			{
				"type": "unocc",
				"energy": 0.00106,
				"method": "rhf"
			},
			{
				"type": "unocc",
				"energy": 0.01191,
				"method": "rhf"
			},
			{
				"type": "unocc",
				"energy": 0.07595,
				"method": "rhf"
			},
			{
				"type": "unocc",
				"energy": 0.09168,
				"method": "rhf"
			}
		],
		"cosmo_sigma_profile": { 
			"-0.025": 0.0,
			"-0.024": 0.0,
			"-0.023": 0.0,
			"-0.022": 0.0,
			"-0.021": 0.0,
			"-0.02": 0.0,
			"-0.019": 0.0,
			"-0.018": 0.0,
			"-0.017": 0.0,
			"-0.016": 0.0,
			"-0.015": 0.0,
			"-0.014": 0.0,
			"-0.013": 0.0,
			"-0.012": 0.0,
			"-0.011": 0.0,
			"-0.01": 0.0,
			"-0.009": 0.0,
			"-0.008": 0.879965647311,
			"-0.007": 5.28979996645,
			"-0.006": 9.89690790177,
			"-0.005": 17.0511783232,
			"-0.004": 19.5198139983,
			"-0.003": 26.8499724506,
			"-0.002": 37.9837280185,
			"-0.001": 43.5909493038,
			"0.0": 30.7025186529,
			"0.001": 19.0795435239,
			"0.002": 18.5260083254,
			"0.003": 22.9131357383,
			"0.004": 25.2288097176,
			"0.005": 15.0932500647,
			"0.006": 3.76717447232,
			"0.007": 2.89329046561,
			"0.008": 1.79254139804,
			"0.009": 2.09960890301,
			"0.01": 1.4420752528,
			"0.011": 1.19396447898,
			"0.012": 1.04939536264,
			"0.013": 0.789023150689,
			"0.014": 0.975115202889,
			"0.015": 0.890182807096,
			"0.016": 0.346722751624,
			"0.017": 0.258119086675,
			"0.018": 0.0,
			"0.019": 0.0,
			"0.02": 0.0,
			"0.021": 0.0,
			"0.022": 0.0,
			"0.023": 0.0,
			"0.024": 0.0,
			"0.025": 0.0
		}
	}
}
