{
	 "smiles": "CC(=C)N1C(=O)NC2=C1C=CC=C2", 
	 "Tm": 395.15, 
	 "num_atms": 23, 
	 "gaussian": { 
		 "optdone": 1, 
		 "sigma_profile": "yes", 
		 "theory": "DFT", 
		 "functional": "B3LYP", 
		 "basiset": "6-31G**", 
		 "properties": { 
			 "R2extent": 2360.3619, 
			 "electric_dipole_moment_norm": 2.3558871917, 
			 "electric_quadrupole_moment_norm": 14.5440806856, 
			 "total_energy": -571.834367353, 
			 "HOMO_LUMO_gap": 0.19833, 
			 "cosmo_polarized_energy": -11.0, 
			 "cosmo_cavitation_energy": 26.53, 
			 "cosmo_dispersion_energy": -19.43, 
			 "cosmo_repulsion_energy": 1.52, 
			 "cosmo_total_nonelectrostatic_energy": 8.62, 
			 "SMD_solvation_energy": 5.88 
		},
		"coords": [
			{
				"x": 3.0180221908,
				"y": -1.2468759981,
				"z": -1.2616154013,
				"element": "C" 
			},
			{
				"x": 1.9670776912,
				"y": -0.1799848662,
				"z": -1.1154363185,
				"element": "C" 
			},
			{
				"x": 2.1987745581,
				"y": 1.1282000597,
				"z": -1.2656613033,
				"element": "C" 
			},
			{
				"x": 0.6642578052,
				"y": -0.6409555029,
				"z": -0.74975454,
				"element": "N" 
			},
			{
				"x": 0.0027979407,
				"y": -1.7005164713,
				"z": -1.4031654748,
				"element": "C" 
			},
			{
				"x": 0.4074712455,
				"y": -2.3805924768,
				"z": -2.3309028047,
				"element": "O" 
			},
			{
				"x": -1.2300893636,
				"y": -1.8010680501,
				"z": -0.7689968188,
				"element": "N" 
			},
			{
				"x": -1.3654100671,
				"y": -0.8519308614,
				"z": 0.2356632466,
				"element": "C" 
			},
			{
				"x": -0.1676567951,
				"y": -0.1081901022,
				"z": 0.2494049042,
				"element": "C" 
			},
			{
				"x": 0.0250791188,
				"y": 0.9086202893,
				"z": 1.1779005956,
				"element": "C" 
			},
			{
				"x": -1.0124795642,
				"y": 1.1748663706,
				"z": 2.0804640409,
				"element": "C" 
			},
			{
				"x": -2.2043084995,
				"y": 0.4443893014,
				"z": 2.0543588712,
				"element": "C" 
			},
			{
				"x": -2.3963545875,
				"y": -0.5877676356,
				"z": 1.1278747221,
				"element": "C" 
			},
			{
				"x": 3.9774553719,
				"y": -0.7991714467,
				"z": -1.5294218089,
				"element": "H" 
			},
			{
				"x": 2.7256560153,
				"y": -1.9660776721,
				"z": -2.0304103471,
				"element": "H" 
			},
			{
				"x": 3.1364584264,
				"y": -1.8010347864,
				"z": -0.3228035728,
				"element": "H" 
			},
			{
				"x": 3.1994142177,
				"y": 1.4828520609,
				"z": -1.4844908865,
				"element": "H" 
			},
			{
				"x": 1.4107249438,
				"y": 1.8675623537,
				"z": -1.181504241,
				"element": "H" 
			},
			{
				"x": -1.9089898753,
				"y": -2.4872080148,
				"z": -1.0563969,
				"element": "H" 
			},
			{
				"x": 0.9491441724,
				"y": 1.4738319227,
				"z": 1.2020967194,
				"element": "H" 
			},
			{
				"x": -0.8842067618,
				"y": 1.9664272066,
				"z": 2.8122107762,
				"element": "H" 
			},
			{
				"x": -2.9938106706,
				"y": 0.676075618,
				"z": 2.7624035687,
				"element": "H" 
			},
			{
				"x": -3.3158275129,
				"y": -1.164551298,
				"z": 1.1097829725,
				"element": "H" 
			}
		],
		 "valence_orbital": [ 
			{
				"type": "occ",
				"energy": -0.30644,
				"method": "rhf"
			},
			{
				"type": "occ",
				"energy": -0.27562,
				"method": "rhf"
			},
			{
				"type": "occ",
				"energy": -0.25978,
				"method": "rhf"
			},
			{
				"type": "occ",
				"energy": -0.23316,
				"method": "rhf"
			},
			{
				"type": "occ",
				"energy": -0.20647,
				"method": "rhf"
			},
			{
				"type": "unocc",
				"energy": -0.00814,
				"method": "rhf"
			},
			{
				"type": "unocc",
				"energy": -0.0001,
				"method": "rhf"
			},
			{
				"type": "unocc",
				"energy": 0.0178,
				"method": "rhf"
			},
			{
				"type": "unocc",
				"energy": 0.07217,
				"method": "rhf"
			},
			{
				"type": "unocc",
				"energy": 0.08561,
				"method": "rhf"
			}
		],
		"cosmo_sigma_profile": { 
			"-0.025": 0.0,
			"-0.024": 0.0,
			"-0.023": 0.0,
			"-0.022": 0.0,
			"-0.021": 0.0,
			"-0.02": 0.0,
			"-0.019": 0.0,
			"-0.018": 0.0,
			"-0.017": 0.0660535359368,
			"-0.016": 1.18476772702,
			"-0.015": 1.33644777643,
			"-0.014": 1.02749372497,
			"-0.013": 1.18301520651,
			"-0.012": 0.83489716769,
			"-0.011": 0.940598171115,
			"-0.01": 0.897310404898,
			"-0.009": 1.07038158588,
			"-0.008": 1.52253572109,
			"-0.007": 2.37048384855,
			"-0.006": 6.88276310271,
			"-0.005": 13.717112349,
			"-0.004": 17.0788585651,
			"-0.003": 15.1567953106,
			"-0.002": 16.2025444704,
			"-0.001": 22.0644309532,
			"0.0": 20.2816763489,
			"0.001": 16.0679814298,
			"0.002": 13.1127427311,
			"0.003": 11.8018821373,
			"0.004": 11.2828441456,
			"0.005": 11.7164572608,
			"0.006": 7.2008964583,
			"0.007": 2.17806059298,
			"0.008": 1.05920418808,
			"0.009": 1.19477314084,
			"0.01": 1.22386263204,
			"0.011": 2.39885359443,
			"0.012": 1.62496990897,
			"0.013": 4.88667709818,
			"0.014": 2.36657067458,
			"0.015": 0.0254141929605,
			"0.016": 0.0,
			"0.017": 0.0,
			"0.018": 0.0,
			"0.019": 0.0,
			"0.02": 0.0,
			"0.021": 0.0,
			"0.022": 0.0,
			"0.023": 0.0,
			"0.024": 0.0,
			"0.025": 0.0
		}
	}
}
