{
	 "smiles": "ClC1=CC=C(OCC(=O)NC2=NC3=C(S2)C=CC=C3)C=C1", 
	 "Tm": 412.15, 
	 "num_atms": 32, 
	 "gaussian": { 
		 "optdone": 1, 
		 "sigma_profile": "yes", 
		 "theory": "DFT", 
		 "functional": "B3LYP", 
		 "basiset": "6-31G**", 
		 "properties": { 
			 "R2extent": 9797.9859, 
			 "electric_dipole_moment_norm": 2.41695818334, 
			 "electric_quadrupole_moment_norm": 12.3276925899, 
			 "total_energy": -1696.55745011, 
			 "HOMO_LUMO_gap": 0.18159, 
			 "cosmo_polarized_energy": -14.34, 
			 "cosmo_cavitation_energy": 40.64, 
			 "cosmo_dispersion_energy": -29.66, 
			 "cosmo_repulsion_energy": 2.23, 
			 "cosmo_total_nonelectrostatic_energy": 13.2, 
			 "SMD_solvation_energy": 5.36 
		},
		"coords": [
			{
				"x": -0.3777966513,
				"y": -6.0613668435,
				"z": 2.7766103692,
				"element": "Cl" 
			},
			{
				"x": -0.7542809091,
				"y": -4.4368542392,
				"z": 2.219101275,
				"element": "C" 
			},
			{
				"x": -1.6247264825,
				"y": -4.2593325599,
				"z": 1.1490274722,
				"element": "C" 
			},
			{
				"x": -1.9255974563,
				"y": -2.9687133082,
				"z": 0.7030540923,
				"element": "C" 
			},
			{
				"x": -1.34920743,
				"y": -1.8655092277,
				"z": 1.3384636632,
				"element": "C" 
			},
			{
				"x": -1.574315431,
				"y": -0.5587996437,
				"z": 0.9828275368,
				"element": "O" 
			},
			{
				"x": -2.4688577244,
				"y": -0.2987441588,
				"z": -0.0895743455,
				"element": "C" 
			},
			{
				"x": -2.6357420538,
				"y": 1.2111293046,
				"z": -0.2107730291,
				"element": "C" 
			},
			{
				"x": -3.7261415101,
				"y": 1.7346960489,
				"z": -0.063093575,
				"element": "O" 
			},
			{
				"x": -1.5336432343,
				"y": 2.002195229,
				"z": -0.5036856609,
				"element": "N" 
			},
			{
				"x": -0.2425686557,
				"y": 1.7626598736,
				"z": -0.960397247,
				"element": "C" 
			},
			{
				"x": 0.3919378428,
				"y": 2.7121623146,
				"z": -1.5757356254,
				"element": "N" 
			},
			{
				"x": 1.6633795714,
				"y": 2.303465049,
				"z": -1.9409546753,
				"element": "C" 
			},
			{
				"x": 1.9970379672,
				"y": 0.9745970513,
				"z": -1.5903984243,
				"element": "C" 
			},
			{
				"x": 0.6558020985,
				"y": 0.245665321,
				"z": -0.7173982398,
				"element": "S" 
			},
			{
				"x": 3.2360092475,
				"y": 0.4191149927,
				"z": -1.9115820037,
				"element": "C" 
			},
			{
				"x": 4.1526159587,
				"y": 1.2175059017,
				"z": -2.5937874277,
				"element": "C" 
			},
			{
				"x": 3.8360523785,
				"y": 2.5400441654,
				"z": -2.9461874976,
				"element": "C" 
			},
			{
				"x": 2.5997839254,
				"y": 3.0905143214,
				"z": -2.6262303093,
				"element": "C" 
			},
			{
				"x": -0.4729180104,
				"y": -2.0537358902,
				"z": 2.4154186314,
				"element": "C" 
			},
			{
				"x": -0.1746393386,
				"y": -3.3369532212,
				"z": 2.8572653964,
				"element": "C" 
			},
			{
				"x": -2.0696182072,
				"y": -5.1194190732,
				"z": 0.6611159925,
				"element": "H" 
			},
			{
				"x": -2.6054831908,
				"y": -2.8475246053,
				"z": -0.1317107809,
				"element": "H" 
			},
			{
				"x": -2.0890610131,
				"y": -0.7256884185,
				"z": -1.0299524607,
				"element": "H" 
			},
			{
				"x": -3.4666870421,
				"y": -0.6987942887,
				"z": 0.1134233185,
				"element": "H" 
			},
			{
				"x": -1.7925365568,
				"y": 2.9782622184,
				"z": -0.6154596182,
				"element": "H" 
			},
			{
				"x": 3.4832339163,
				"y": -0.6018617791,
				"z": -1.6387466822,
				"element": "H" 
			},
			{
				"x": 5.1241011891,
				"y": 0.8089267289,
				"z": -2.8546437678,
				"element": "H" 
			},
			{
				"x": 4.5683190745,
				"y": 3.1405402399,
				"z": -3.4773790595,
				"element": "H" 
			},
			{
				"x": 2.3421653661,
				"y": 4.1095108084,
				"z": -2.8950507866,
				"element": "H" 
			},
			{
				"x": -0.0379761009,
				"y": -1.1827603676,
				"z": 2.8936011263,
				"element": "H" 
			},
			{
				"x": 0.5021584626,
				"y": -3.486331944,
				"z": 3.6911323425,
				"element": "H" 
			}
		],
		 "valence_orbital": [ 
			{
				"type": "occ",
				"energy": -0.28085,
				"method": "rhf"
			},
			{
				"type": "occ",
				"energy": -0.27264,
				"method": "rhf"
			},
			{
				"type": "occ",
				"energy": -0.24322,
				"method": "rhf"
			},
			{
				"type": "occ",
				"energy": -0.23342,
				"method": "rhf"
			},
			{
				"type": "occ",
				"energy": -0.23036,
				"method": "rhf"
			},
			{
				"type": "unocc",
				"energy": -0.04877,
				"method": "rhf"
			},
			{
				"type": "unocc",
				"energy": -0.02366,
				"method": "rhf"
			},
			{
				"type": "unocc",
				"energy": -0.0123,
				"method": "rhf"
			},
			{
				"type": "unocc",
				"energy": -0.01052,
				"method": "rhf"
			},
			{
				"type": "unocc",
				"energy": -0.00681,
				"method": "rhf"
			}
		],
		"cosmo_sigma_profile": { 
			"-0.025": 0.0,
			"-0.024": 0.0,
			"-0.023": 0.0,
			"-0.022": 0.0,
			"-0.021": 0.0,
			"-0.02": 0.0,
			"-0.019": 0.0,
			"-0.018": 0.0,
			"-0.017": 0.0,
			"-0.016": 0.0228568629286,
			"-0.015": 0.645061943219,
			"-0.014": 0.700278824856,
			"-0.013": 0.964963935296,
			"-0.012": 0.312242742298,
			"-0.011": 0.618477583697,
			"-0.01": 1.50954757863,
			"-0.009": 3.19151167248,
			"-0.008": 8.81045837476,
			"-0.007": 15.1375587939,
			"-0.006": 20.2814276591,
			"-0.005": 18.9420602894,
			"-0.004": 17.2790469178,
			"-0.003": 16.3281005204,
			"-0.002": 15.7345567532,
			"-0.001": 18.7688553328,
			"0.0": 24.2825935754,
			"0.001": 25.7986905927,
			"0.002": 34.044915816,
			"0.003": 35.0916357653,
			"0.004": 28.4583266885,
			"0.005": 18.9028536948,
			"0.006": 3.99417659686,
			"0.007": 1.84456568026,
			"0.008": 2.59447348188,
			"0.009": 2.46013739632,
			"0.01": 3.18084662988,
			"0.011": 5.44895952176,
			"0.012": 4.43847995673,
			"0.013": 0.918700880467,
			"0.014": 0.0580198677144,
			"0.015": 0.0,
			"0.016": 0.0,
			"0.017": 0.0,
			"0.018": 0.0,
			"0.019": 0.0,
			"0.02": 0.0,
			"0.021": 0.0,
			"0.022": 0.0,
			"0.023": 0.0,
			"0.024": 0.0,
			"0.025": 0.0
		}
	}
}
