{
	 "smiles": "CC1=CC(SC2=CC=CC=C2)=C(C=C1)C#N", 
	 "Tm": 333.15, 
	 "num_atms": 27, 
	 "gaussian": { 
		 "optdone": 1, 
		 "sigma_profile": "yes", 
		 "theory": "DFT", 
		 "functional": "B3LYP", 
		 "basiset": "6-31G**", 
		 "properties": { 
			 "R2extent": 4365.0984, 
			 "electric_dipole_moment_norm": 4.61136523169, 
			 "electric_quadrupole_moment_norm": 18.7242233879, 
			 "total_energy": -993.044295826, 
			 "HOMO_LUMO_gap": 0.17112, 
			 "cosmo_polarized_energy": -11.65, 
			 "cosmo_cavitation_energy": 33.79, 
			 "cosmo_dispersion_energy": -23.34, 
			 "cosmo_repulsion_energy": 1.79, 
			 "cosmo_total_nonelectrostatic_energy": 12.24, 
			 "SMD_solvation_energy": 6.42 
		},
		"coords": [
			{
				"x": 3.6639556893,
				"y": -0.7603479261,
				"z": -3.2247538776,
				"element": "C" 
			},
			{
				"x": 3.0342159242,
				"y": -0.4911772749,
				"z": -1.8799076583,
				"element": "C" 
			},
			{
				"x": 1.9861816679,
				"y": -1.2927127058,
				"z": -1.4070170859,
				"element": "C" 
			},
			{
				"x": 1.4049361223,
				"y": -1.0859812798,
				"z": -0.1529413891,
				"element": "C" 
			},
			{
				"x": 0.1244085608,
				"y": -2.2173799657,
				"z": 0.3921817842,
				"element": "S" 
			},
			{
				"x": -1.3073139811,
				"y": -1.1410232961,
				"z": 0.582237933,
				"element": "C" 
			},
			{
				"x": -1.8020574519,
				"y": -0.3990990896,
				"z": -0.4983490303,
				"element": "C" 
			},
			{
				"x": -2.9505058405,
				"y": 0.3752315215,
				"z": -0.3392603265,
				"element": "C" 
			},
			{
				"x": -3.6228590738,
				"y": 0.393123471,
				"z": 0.8857014558,
				"element": "C" 
			},
			{
				"x": -3.1354043959,
				"y": -0.3563718095,
				"z": 1.9566674937,
				"element": "C" 
			},
			{
				"x": -1.9728732415,
				"y": -1.1163670772,
				"z": 1.8124988253,
				"element": "C" 
			},
			{
				"x": 1.8969448381,
				"y": -0.0428158952,
				"z": 0.6645735265,
				"element": "C" 
			},
			{
				"x": 2.9291517414,
				"y": 0.7806483764,
				"z": 0.1854594293,
				"element": "C" 
			},
			{
				"x": 3.4875790206,
				"y": 0.557080641,
				"z": -1.0682140133,
				"element": "C" 
			},
			{
				"x": 1.386809897,
				"y": 0.1898330319,
				"z": 1.9833341734,
				"element": "C" 
			},
			{
				"x": 1.0118887023,
				"y": 0.4060565372,
				"z": 3.0632629564,
				"element": "N" 
			},
			{
				"x": 3.9932692364,
				"y": 0.1660530809,
				"z": -3.7044923339,
				"element": "H" 
			},
			{
				"x": 4.5459145905,
				"y": -1.4043324499,
				"z": -3.119906768,
				"element": "H" 
			},
			{
				"x": 2.9682740272,
				"y": -1.2669834966,
				"z": -3.8992848424,
				"element": "H" 
			},
			{
				"x": 1.6022295175,
				"y": -2.0960386861,
				"z": -2.0286576345,
				"element": "H" 
			},
			{
				"x": -1.2890061952,
				"y": -0.4283444982,
				"z": -1.4545229842,
				"element": "H" 
			},
			{
				"x": -3.3274711268,
				"y": 0.9554662731,
				"z": -1.1767435094,
				"element": "H" 
			},
			{
				"x": -4.5216726716,
				"y": 0.991215988,
				"z": 1.0038824672,
				"element": "H" 
			},
			{
				"x": -3.6479428581,
				"y": -0.338424115,
				"z": 2.9139556299,
				"element": "H" 
			},
			{
				"x": -1.5722993506,
				"y": -1.674356468,
				"z": 2.6519844799,
				"element": "H" 
			},
			{
				"x": 3.2922448306,
				"y": 1.588074272,
				"z": 0.8128679262,
				"element": "H" 
			},
			{
				"x": 4.2876018208,
				"y": 1.2029728407,
				"z": -1.4191566275,
				"element": "H" 
			}
		],
		 "valence_orbital": [ 
			{
				"type": "occ",
				"energy": -0.28155,
				"method": "rhf"
			},
			{
				"type": "occ",
				"energy": -0.26521,
				"method": "rhf"
			},
			{
				"type": "occ",
				"energy": -0.25924,
				"method": "rhf"
			},
			{
				"type": "occ",
				"energy": -0.25314,
				"method": "rhf"
			},
			{
				"type": "occ",
				"energy": -0.22575,
				"method": "rhf"
			},
			{
				"type": "unocc",
				"energy": -0.05463,
				"method": "rhf"
			},
			{
				"type": "unocc",
				"energy": -0.03118,
				"method": "rhf"
			},
			{
				"type": "unocc",
				"energy": -0.01756,
				"method": "rhf"
			},
			{
				"type": "unocc",
				"energy": -0.00392,
				"method": "rhf"
			},
			{
				"type": "unocc",
				"energy": 0.04121,
				"method": "rhf"
			}
		],
		"cosmo_sigma_profile": { 
			"-0.025": 0.0,
			"-0.024": 0.0,
			"-0.023": 0.0,
			"-0.022": 0.0,
			"-0.021": 0.0,
			"-0.02": 0.0,
			"-0.019": 0.0,
			"-0.018": 0.0,
			"-0.017": 0.0,
			"-0.016": 0.0,
			"-0.015": 0.0,
			"-0.014": 0.0,
			"-0.013": 0.0,
			"-0.012": 0.0,
			"-0.011": 0.0,
			"-0.01": 0.0,
			"-0.009": 0.0417874573091,
			"-0.008": 1.80672944355,
			"-0.007": 5.39583773317,
			"-0.006": 16.9673268832,
			"-0.005": 22.8191295902,
			"-0.004": 21.3424580901,
			"-0.003": 19.2515771576,
			"-0.002": 21.4631291632,
			"-0.001": 26.4508267143,
			"0.0": 22.4295862535,
			"0.001": 21.3896442805,
			"0.002": 21.5206518517,
			"0.003": 15.5135973738,
			"0.004": 16.3509770889,
			"0.005": 13.0231023526,
			"0.006": 5.77093746225,
			"0.007": 6.02290869814,
			"0.008": 3.6842827677,
			"0.009": 3.09342405685,
			"0.01": 2.59471289368,
			"0.011": 2.5330805322,
			"0.012": 2.3119908798,
			"0.013": 1.62093456608,
			"0.014": 0.0821644588876,
			"0.015": 0.0,
			"0.016": 0.0,
			"0.017": 0.0,
			"0.018": 0.0,
			"0.019": 0.0,
			"0.02": 0.0,
			"0.021": 0.0,
			"0.022": 0.0,
			"0.023": 0.0,
			"0.024": 0.0,
			"0.025": 0.0
		}
	}
}
