{
	 "smiles": "CNS(=O)(=O)C1=CC(C(O)=O)=C(C=C1)C1=CC=CS1", 
	 "Tm": 438.15, 
	 "num_atms": 30, 
	 "gaussian": { 
		 "optdone": 1, 
		 "sigma_profile": "yes", 
		 "theory": "DFT", 
		 "functional": "B3LYP", 
		 "basiset": "6-31G**", 
		 "properties": { 
			 "R2extent": 7467.4903, 
			 "electric_dipole_moment_norm": 3.83847772691, 
			 "electric_quadrupole_moment_norm": 19.7730230074, 
			 "total_energy": -1615.85347943, 
			 "HOMO_LUMO_gap": 0.15966, 
			 "cosmo_polarized_energy": -20.81, 
			 "cosmo_cavitation_energy": 37.96, 
			 "cosmo_dispersion_energy": -27.53, 
			 "cosmo_repulsion_energy": 2.06, 
			 "cosmo_total_nonelectrostatic_energy": 12.48, 
			 "SMD_solvation_energy": 6.41 
		},
		"coords": [
			{
				"x": -1.1183379135,
				"y": -2.9236026654,
				"z": -2.1238859959,
				"element": "C" 
			},
			{
				"x": -2.0202196544,
				"y": -1.778401019,
				"z": -1.948559093,
				"element": "N" 
			},
			{
				"x": -1.5375246753,
				"y": -0.3009343458,
				"z": -2.6136193188,
				"element": "S" 
			},
			{
				"x": -0.6446552392,
				"y": -0.5074470507,
				"z": -3.7609388389,
				"element": "O" 
			},
			{
				"x": -2.7760737651,
				"y": 0.472600449,
				"z": -2.7392072096,
				"element": "O" 
			},
			{
				"x": -0.5398962205,
				"y": 0.3955062927,
				"z": -1.2953916989,
				"element": "C" 
			},
			{
				"x": -1.1580134687,
				"y": 0.8249250723,
				"z": -0.1236805037,
				"element": "C" 
			},
			{
				"x": -0.399999379,
				"y": 1.4007438825,
				"z": 0.9023162511,
				"element": "C" 
			},
			{
				"x": -1.1315560431,
				"y": 1.9986347383,
				"z": 2.0622266334,
				"element": "C" 
			},
			{
				"x": -2.3548180014,
				"y": 1.4369593242,
				"z": 2.2388353957,
				"element": "O" 
			},
			{
				"x": -0.733604229,
				"y": 2.9057905397,
				"z": 2.7601654198,
				"element": "O" 
			},
			{
				"x": 1.0089922761,
				"y": 1.5137705279,
				"z": 0.764376316,
				"element": "C" 
			},
			{
				"x": 1.5938388685,
				"y": 1.0777322461,
				"z": -0.4370245647,
				"element": "C" 
			},
			{
				"x": 0.8349711996,
				"y": 0.5361322988,
				"z": -1.4714448382,
				"element": "C" 
			},
			{
				"x": 1.9199268389,
				"y": 2.0281381957,
				"z": 1.8051886524,
				"element": "C" 
			},
			{
				"x": 2.8989461654,
				"y": 2.9801406424,
				"z": 1.6412146583,
				"element": "C" 
			},
			{
				"x": 3.6874561063,
				"y": 3.1910788787,
				"z": 2.8092409196,
				"element": "C" 
			},
			{
				"x": 3.3178701395,
				"y": 2.3795119944,
				"z": 3.8467416845,
				"element": "C" 
			},
			{
				"x": 1.9913230386,
				"y": 1.3544407873,
				"z": 3.417251003,
				"element": "S" 
			},
			{
				"x": -0.1779502303,
				"y": -2.7231476656,
				"z": -1.6037897914,
				"element": "H" 
			},
			{
				"x": -0.8996782198,
				"y": -3.1511240826,
				"z": -3.172832829,
				"element": "H" 
			},
			{
				"x": -1.58458739,
				"y": -3.7898532095,
				"z": -1.648795848,
				"element": "H" 
			},
			{
				"x": -2.9729637363,
				"y": -1.9435336202,
				"z": -2.265562992,
				"element": "H" 
			},
			{
				"x": -2.2322957233,
				"y": 0.7433198751,
				"z": -0.0145966783,
				"element": "H" 
			},
			{
				"x": -2.7687713556,
				"y": 1.9321680643,
				"z": 2.9650242242,
				"element": "H" 
			},
			{
				"x": 2.6712636263,
				"y": 1.1483598032,
				"z": -0.5413105091,
				"element": "H" 
			},
			{
				"x": 1.2945978585,
				"y": 0.2150547325,
				"z": -2.3996830888,
				"element": "H" 
			},
			{
				"x": 3.0275028086,
				"y": 3.5306918806,
				"z": 0.7159932406,
				"element": "H" 
			},
			{
				"x": 4.4913564602,
				"y": 3.9152412031,
				"z": 2.8730875964,
				"element": "H" 
			},
			{
				"x": 3.7446998578,
				"y": 2.3205022299,
				"z": 4.8384618035,
				"element": "H" 
			}
		],
		 "valence_orbital": [ 
			{
				"type": "occ",
				"energy": -0.2864,
				"method": "rhf"
			},
			{
				"type": "occ",
				"energy": -0.27842,
				"method": "rhf"
			},
			{
				"type": "occ",
				"energy": -0.26899,
				"method": "rhf"
			},
			{
				"type": "occ",
				"energy": -0.25321,
				"method": "rhf"
			},
			{
				"type": "occ",
				"energy": -0.22949,
				"method": "rhf"
			},
			{
				"type": "unocc",
				"energy": -0.06983,
				"method": "rhf"
			},
			{
				"type": "unocc",
				"energy": -0.04759,
				"method": "rhf"
			},
			{
				"type": "unocc",
				"energy": -0.00861,
				"method": "rhf"
			},
			{
				"type": "unocc",
				"energy": 0.02633,
				"method": "rhf"
			},
			{
				"type": "unocc",
				"energy": 0.03139,
				"method": "rhf"
			}
		],
		"cosmo_sigma_profile": { 
			"-0.025": 0.0,
			"-0.024": 0.0,
			"-0.023": 0.0,
			"-0.022": 0.0,
			"-0.021": 0.0,
			"-0.02": 0.0,
			"-0.019": 0.211594864321,
			"-0.018": 0.882207623001,
			"-0.017": 1.14539112749,
			"-0.016": 0.532241771517,
			"-0.015": 0.988573682834,
			"-0.014": 2.43353460582,
			"-0.013": 1.72436935019,
			"-0.012": 1.3588149561,
			"-0.011": 1.69225378547,
			"-0.01": 1.77567072689,
			"-0.009": 2.44400500753,
			"-0.008": 5.0166889974,
			"-0.007": 11.416233147,
			"-0.006": 14.4966204611,
			"-0.005": 19.0405168702,
			"-0.004": 21.5020093519,
			"-0.003": 23.6762604106,
			"-0.002": 20.9728258575,
			"-0.001": 19.6002955229,
			"0.0": 24.3731818771,
			"0.001": 19.6433311692,
			"0.002": 15.3546567193,
			"0.003": 15.1134191475,
			"0.004": 13.6152340786,
			"0.005": 11.5384038793,
			"0.006": 7.27283690657,
			"0.007": 6.00561820263,
			"0.008": 6.81091411132,
			"0.009": 6.40008211577,
			"0.01": 10.5140007842,
			"0.011": 12.9499322133,
			"0.012": 5.04110393108,
			"0.013": 0.0263367355939,
			"0.014": 0.0,
			"0.015": 0.0,
			"0.016": 0.0,
			"0.017": 0.0,
			"0.018": 0.0,
			"0.019": 0.0,
			"0.02": 0.0,
			"0.021": 0.0,
			"0.022": 0.0,
			"0.023": 0.0,
			"0.024": 0.0,
			"0.025": 0.0
		}
	}
}
