{
	 "smiles": "NCC1=C(CN2CCN(CC2)C2=CC=CC=C2)C=CC=C1", 
	 "Tm": 360.15, 
	 "num_atms": 44, 
	 "gaussian": { 
		 "optdone": 1, 
		 "sigma_profile": "yes", 
		 "theory": "DFT", 
		 "functional": "B3LYP", 
		 "basiset": "6-31G**", 
		 "properties": { 
			 "R2extent": 7637.614, 
			 "electric_dipole_moment_norm": 1.9601144737, 
			 "electric_quadrupole_moment_norm": 8.28813919767, 
			 "total_energy": -864.008271178, 
			 "HOMO_LUMO_gap": 0.17398, 
			 "cosmo_polarized_energy": -12.86, 
			 "cosmo_cavitation_energy": 43.46, 
			 "cosmo_dispersion_energy": -30.25, 
			 "cosmo_repulsion_energy": 2.32, 
			 "cosmo_total_nonelectrostatic_energy": 15.52, 
			 "SMD_solvation_energy": 1.63 
		},
		"coords": [
			{
				"x": 4.7387761469,
				"y": -1.9921644865,
				"z": -2.2349978591,
				"element": "N" 
			},
			{
				"x": 3.2974417813,
				"y": -2.1471079739,
				"z": -1.9698618007,
				"element": "C" 
			},
			{
				"x": 2.4315993541,
				"y": -0.9529809457,
				"z": -2.3538189433,
				"element": "C" 
			},
			{
				"x": 2.2545293016,
				"y": 0.1773412247,
				"z": -1.522975339,
				"element": "C" 
			},
			{
				"x": 2.7852994815,
				"y": 0.2568984285,
				"z": -0.0892809682,
				"element": "C" 
			},
			{
				"x": 1.8396333861,
				"y": -0.022157078,
				"z": 1.0025682055,
				"element": "N" 
			},
			{
				"x": 0.752409144,
				"y": 0.9473836725,
				"z": 1.137210213,
				"element": "C" 
			},
			{
				"x": -0.0132266164,
				"y": 0.7083361619,
				"z": 2.447765993,
				"element": "C" 
			},
			{
				"x": -0.5278336306,
				"y": -0.6599302897,
				"z": 2.5226014212,
				"element": "N" 
			},
			{
				"x": 0.5596517071,
				"y": -1.6162473341,
				"z": 2.3493951437,
				"element": "C" 
			},
			{
				"x": 1.3426838239,
				"y": -1.3981442868,
				"z": 1.0462670432,
				"element": "C" 
			},
			{
				"x": -1.8335607204,
				"y": -0.9545430203,
				"z": 2.0920031872,
				"element": "C" 
			},
			{
				"x": -2.9023606303,
				"y": -0.1009844301,
				"z": 2.4447266927,
				"element": "C" 
			},
			{
				"x": -4.2102891207,
				"y": -0.3938247037,
				"z": 2.0726875024,
				"element": "C" 
			},
			{
				"x": -4.5104231399,
				"y": -1.5522286242,
				"z": 1.351351019,
				"element": "C" 
			},
			{
				"x": -3.4667393913,
				"y": -2.4091421072,
				"z": 1.0071287166,
				"element": "C" 
			},
			{
				"x": -2.1485938852,
				"y": -2.1174540262,
				"z": 1.359775015,
				"element": "C" 
			},
			{
				"x": 1.5468345427,
				"y": 1.2784397165,
				"z": -2.0307822025,
				"element": "C" 
			},
			{
				"x": 0.9917916535,
				"y": 1.2730200742,
				"z": -3.3093895955,
				"element": "C" 
			},
			{
				"x": 1.1434424456,
				"y": 0.1467313546,
				"z": -4.1172133032,
				"element": "C" 
			},
			{
				"x": 1.862755956,
				"y": -0.9456661727,
				"z": -3.6369334836,
				"element": "C" 
			},
			{
				"x": 4.869322862,
				"y": -1.7368546347,
				"z": -3.2122893741,
				"element": "H" 
			},
			{
				"x": 5.0998300771,
				"y": -1.2042216223,
				"z": -1.7003824126,
				"element": "H" 
			},
			{
				"x": 3.1831718896,
				"y": -2.4015033307,
				"z": -0.9137336145,
				"element": "H" 
			},
			{
				"x": 2.9552343484,
				"y": -3.0235157957,
				"z": -2.531326305,
				"element": "H" 
			},
			{
				"x": 3.1693048335,
				"y": 1.2703133126,
				"z": 0.0812201915,
				"element": "H" 
			},
			{
				"x": 3.6331753644,
				"y": -0.4224961624,
				"z": 0.0457887914,
				"element": "H" 
			},
			{
				"x": 1.1854019126,
				"y": 1.9557356714,
				"z": 1.1503177063,
				"element": "H" 
			},
			{
				"x": 0.0354303898,
				"y": 0.9041348732,
				"z": 0.2974903348,
				"element": "H" 
			},
			{
				"x": 0.6657231975,
				"y": 0.8728954239,
				"z": 3.2946651163,
				"element": "H" 
			},
			{
				"x": -0.8299656929,
				"y": 1.425833445,
				"z": 2.5278314361,
				"element": "H" 
			},
			{
				"x": 0.1748386403,
				"y": -2.6358818212,
				"z": 2.410596676,
				"element": "H" 
			},
			{
				"x": 1.2550329834,
				"y": -1.478134259,
				"z": 3.1883145883,
				"element": "H" 
			},
			{
				"x": 0.7045423426,
				"y": -1.6451047626,
				"z": 0.178333062,
				"element": "H" 
			},
			{
				"x": 2.2015048592,
				"y": -2.079659316,
				"z": 1.0324229739,
				"element": "H" 
			},
			{
				"x": -2.7111137968,
				"y": 0.7824789528,
				"z": 3.044752473,
				"element": "H" 
			},
			{
				"x": -5.006070927,
				"y": 0.2856873805,
				"z": 2.3666226091,
				"element": "H" 
			},
			{
				"x": -5.5330668174,
				"y": -1.7800618189,
				"z": 1.0676248816,
				"element": "H" 
			},
			{
				"x": -3.6697909422,
				"y": -3.3142371487,
				"z": 0.4405626818,
				"element": "H" 
			},
			{
				"x": -1.3645564768,
				"y": -2.7940676444,
				"z": 1.0407351024,
				"element": "H" 
			},
			{
				"x": 1.4385918785,
				"y": 2.1647053454,
				"z": -1.4108412468,
				"element": "H" 
			},
			{
				"x": 0.4487460986,
				"y": 2.1416345586,
				"z": -3.6707113737,
				"element": "H" 
			},
			{
				"x": 0.7124447466,
				"y": 0.1210072355,
				"z": -5.1140556068,
				"element": "H" 
			},
			{
				"x": 1.9928466395,
				"y": -1.8204630361,
				"z": -4.2709653484,
				"element": "H" 
			}
		],
		 "valence_orbital": [ 
			{
				"type": "occ",
				"energy": -0.24734,
				"method": "rhf"
			},
			{
				"type": "occ",
				"energy": -0.23896,
				"method": "rhf"
			},
			{
				"type": "occ",
				"energy": -0.23062,
				"method": "rhf"
			},
			{
				"type": "occ",
				"energy": -0.21538,
				"method": "rhf"
			},
			{
				"type": "occ",
				"energy": -0.1827,
				"method": "rhf"
			},
			{
				"type": "unocc",
				"energy": -0.00872,
				"method": "rhf"
			},
			{
				"type": "unocc",
				"energy": -0.00454,
				"method": "rhf"
			},
			{
				"type": "unocc",
				"energy": 0.0087,
				"method": "rhf"
			},
			{
				"type": "unocc",
				"energy": 0.02082,
				"method": "rhf"
			},
			{
				"type": "unocc",
				"energy": 0.07699,
				"method": "rhf"
			}
		],
		"cosmo_sigma_profile": { 
			"-0.025": 0.0,
			"-0.024": 0.0,
			"-0.023": 0.0,
			"-0.022": 0.0,
			"-0.021": 0.0,
			"-0.02": 0.0,
			"-0.019": 0.0,
			"-0.018": 0.0,
			"-0.017": 0.0,
			"-0.016": 0.0,
			"-0.015": 0.0,
			"-0.014": 0.0,
			"-0.013": 0.0,
			"-0.012": 0.0,
			"-0.011": 0.0,
			"-0.01": 0.0619285895505,
			"-0.009": 2.07911801059,
			"-0.008": 2.77203246908,
			"-0.007": 4.26395085235,
			"-0.006": 10.3373887316,
			"-0.005": 27.5794975966,
			"-0.004": 35.1664552929,
			"-0.003": 40.940665727,
			"-0.002": 33.8591271259,
			"-0.001": 32.1509707723,
			"0.0": 24.2325019561,
			"0.001": 17.0118912265,
			"0.002": 17.4270045657,
			"0.003": 14.7139042581,
			"0.004": 15.6340199629,
			"0.005": 15.9820026341,
			"0.006": 17.691618923,
			"0.007": 12.259103673,
			"0.008": 4.6983835401,
			"0.009": 2.33826208174,
			"0.01": 2.01936584245,
			"0.011": 0.966875266329,
			"0.012": 1.47580508285,
			"0.013": 0.927300535999,
			"0.014": 0.770736855198,
			"0.015": 0.853300978352,
			"0.016": 0.764567942301,
			"0.017": 0.842314591989,
			"0.018": 0.714747446877,
			"0.019": 0.452562465938,
			"0.02": 0.383726938595,
			"0.021": 0.0,
			"0.022": 0.0,
			"0.023": 0.0,
			"0.024": 0.0,
			"0.025": 0.0
		}
	}
}
