{
	 "smiles": "NNC(=O)C1=C2N=CC=CC2=CC=C1", 
	 "Tm": 362.15, 
	 "num_atms": 23, 
	 "gaussian": { 
		 "optdone": 1, 
		 "sigma_profile": "yes", 
		 "theory": "DFT", 
		 "functional": "B3LYP", 
		 "basiset": "6-31G**", 
		 "properties": { 
			 "R2extent": 3701.2609, 
			 "electric_dipole_moment_norm": 4.66443328283, 
			 "electric_quadrupole_moment_norm": 10.4787735556, 
			 "total_energy": -625.96107242, 
			 "HOMO_LUMO_gap": 0.1701, 
			 "cosmo_polarized_energy": -12.9, 
			 "cosmo_cavitation_energy": 27.03, 
			 "cosmo_dispersion_energy": -20.32, 
			 "cosmo_repulsion_energy": 1.57, 
			 "cosmo_total_nonelectrostatic_energy": 8.29, 
			 "SMD_solvation_energy": 4.89 
		},
		"coords": [
			{
				"x": -1.2653763737,
				"y": -2.8474667334,
				"z": -2.4083738497,
				"element": "N" 
			},
			{
				"x": -0.356223785,
				"y": -2.1109043531,
				"z": -1.6247651057,
				"element": "N" 
			},
			{
				"x": 0.6467871389,
				"y": -2.7213367763,
				"z": -0.946546911,
				"element": "C" 
			},
			{
				"x": 0.8072967566,
				"y": -3.9434483047,
				"z": -0.9817431718,
				"element": "O" 
			},
			{
				"x": 1.5765640751,
				"y": -1.8405732725,
				"z": -0.1328018486,
				"element": "C" 
			},
			{
				"x": 1.5051342342,
				"y": -0.4119864696,
				"z": -0.0076624006,
				"element": "C" 
			},
			{
				"x": 0.5297698096,
				"y": 0.2922176065,
				"z": -0.6573943562,
				"element": "N" 
			},
			{
				"x": 0.4844844638,
				"y": 1.6036613593,
				"z": -0.5273648644,
				"element": "C" 
			},
			{
				"x": 1.3944950489,
				"y": 2.3505142301,
				"z": 0.2547288739,
				"element": "C" 
			},
			{
				"x": 2.3868656722,
				"y": 1.6717184153,
				"z": 0.9205156326,
				"element": "C" 
			},
			{
				"x": 2.4745636558,
				"y": 0.2608440547,
				"z": 0.8100760051,
				"element": "C" 
			},
			{
				"x": 3.4804100101,
				"y": -0.4839038293,
				"z": 1.4776561186,
				"element": "C" 
			},
			{
				"x": 3.5293264695,
				"y": -1.8514924419,
				"z": 1.3430427979,
				"element": "C" 
			},
			{
				"x": 2.5787392598,
				"y": -2.517192672,
				"z": 0.5403131663,
				"element": "C" 
			},
			{
				"x": -0.715037651,
				"y": -3.3926882889,
				"z": -3.0733954671,
				"element": "H" 
			},
			{
				"x": -1.6900279659,
				"y": -3.5470750921,
				"z": -1.7979433947,
				"element": "H" 
			},
			{
				"x": -0.4589779383,
				"y": -1.1008166497,
				"z": -1.5779099221,
				"element": "H" 
			},
			{
				"x": -0.3124699558,
				"y": 2.1134009156,
				"z": -1.0665375727,
				"element": "H" 
			},
			{
				"x": 1.2993713385,
				"y": 3.4293803225,
				"z": 0.3179077639,
				"element": "H" 
			},
			{
				"x": 3.1119278279,
				"y": 2.1992370977,
				"z": 1.5351801543,
				"element": "H" 
			},
			{
				"x": 4.2047433736,
				"y": 0.044688319,
				"z": 2.0919885934,
				"element": "H" 
			},
			{
				"x": 4.2970523718,
				"y": -2.4265993126,
				"z": 1.8516811833,
				"element": "H" 
			},
			{
				"x": 2.6062821634,
				"y": -3.5954781248,
				"z": 0.4256485751,
				"element": "H" 
			}
		],
		 "valence_orbital": [ 
			{
				"type": "occ",
				"energy": -0.26439,
				"method": "rhf"
			},
			{
				"type": "occ",
				"energy": -0.25871,
				"method": "rhf"
			},
			{
				"type": "occ",
				"energy": -0.24585,
				"method": "rhf"
			},
			{
				"type": "occ",
				"energy": -0.24368,
				"method": "rhf"
			},
			{
				"type": "occ",
				"energy": -0.24259,
				"method": "rhf"
			},
			{
				"type": "unocc",
				"energy": -0.07249,
				"method": "rhf"
			},
			{
				"type": "unocc",
				"energy": -0.02815,
				"method": "rhf"
			},
			{
				"type": "unocc",
				"energy": -0.01119,
				"method": "rhf"
			},
			{
				"type": "unocc",
				"energy": 0.05915,
				"method": "rhf"
			},
			{
				"type": "unocc",
				"energy": 0.08431,
				"method": "rhf"
			}
		],
		"cosmo_sigma_profile": { 
			"-0.025": 0.0,
			"-0.024": 0.0,
			"-0.023": 0.0,
			"-0.022": 0.0,
			"-0.021": 0.0,
			"-0.02": 0.0,
			"-0.019": 0.0,
			"-0.018": 0.0,
			"-0.017": 0.0,
			"-0.016": 0.0,
			"-0.015": 0.0,
			"-0.014": 0.0,
			"-0.013": 0.0,
			"-0.012": 0.0,
			"-0.011": 1.20555171421,
			"-0.01": 2.59364192758,
			"-0.009": 2.47483460542,
			"-0.008": 5.18121082865,
			"-0.007": 11.890774687,
			"-0.006": 13.8236969642,
			"-0.005": 14.1436072028,
			"-0.004": 11.7202109662,
			"-0.003": 9.59013112313,
			"-0.002": 10.4242628639,
			"-0.001": 11.0542502638,
			"0.0": 18.9806677622,
			"0.001": 29.8616469451,
			"0.002": 24.2646863416,
			"0.003": 14.0468854737,
			"0.004": 5.10914213761,
			"0.005": 4.95012651157,
			"0.006": 2.79759234246,
			"0.007": 1.91539789938,
			"0.008": 1.79735134724,
			"0.009": 1.80661574831,
			"0.01": 2.01346337357,
			"0.011": 2.32797271427,
			"0.012": 1.9818439715,
			"0.013": 3.14766157084,
			"0.014": 5.49220167639,
			"0.015": 1.09673272091,
			"0.016": 0.437444894222,
			"0.017": 0.52010198938,
			"0.018": 0.0213129738063,
			"0.019": 0.0,
			"0.02": 0.0,
			"0.021": 0.0,
			"0.022": 0.0,
			"0.023": 0.0,
			"0.024": 0.0,
			"0.025": 0.0
		}
	}
}
