{
	 "smiles": "OC(=O)CCCSSCCCC(O)=O", 
	 "Tm": 381.15, 
	 "num_atms": 28, 
	 "gaussian": { 
		 "optdone": 1, 
		 "sigma_profile": "yes", 
		 "theory": "DFT", 
		 "functional": "B3LYP", 
		 "basiset": "6-31G**", 
		 "properties": { 
			 "R2extent": 6088.7061, 
			 "electric_dipole_moment_norm": 2.67897015474, 
			 "electric_quadrupole_moment_norm": 36.2084880448, 
			 "total_energy": -1410.59141437, 
			 "HOMO_LUMO_gap": 0.21063, 
			 "cosmo_polarized_energy": -26.78, 
			 "cosmo_cavitation_energy": 34.96, 
			 "cosmo_dispersion_energy": -24.71, 
			 "cosmo_repulsion_energy": 1.92, 
			 "cosmo_total_nonelectrostatic_energy": 12.16, 
			 "SMD_solvation_energy": 6.7 
		},
		"coords": [
			{
				"x": 4.2303213669,
				"y": -3.26622683,
				"z": -1.5991395135,
				"element": "O" 
			},
			{
				"x": 3.1934107368,
				"y": -2.399782349,
				"z": -1.7426387139,
				"element": "C" 
			},
			{
				"x": 2.3980177615,
				"y": -2.5564678828,
				"z": -2.6369139492,
				"element": "O" 
			},
			{
				"x": 3.1461249178,
				"y": -1.2648798032,
				"z": -0.7261529087,
				"element": "C" 
			},
			{
				"x": 1.9169874099,
				"y": -0.3659996636,
				"z": -0.8823524487,
				"element": "C" 
			},
			{
				"x": 0.5912207382,
				"y": -1.035548637,
				"z": -0.5092340045,
				"element": "C" 
			},
			{
				"x": 0.44565258,
				"y": -1.5612875436,
				"z": 1.2564709909,
				"element": "S" 
			},
			{
				"x": 0.4419481053,
				"y": 0.2265194656,
				"z": 2.3412250981,
				"element": "S" 
			},
			{
				"x": -1.3501186765,
				"y": 0.5433098713,
				"z": 2.6624285656,
				"element": "C" 
			},
			{
				"x": -2.1974578826,
				"y": 0.9349506689,
				"z": 1.4499921443,
				"element": "C" 
			},
			{
				"x": -1.7850675901,
				"y": 2.2473165714,
				"z": 0.7782604692,
				"element": "C" 
			},
			{
				"x": -2.0746860484,
				"y": 3.477516172,
				"z": 1.6317055808,
				"element": "C" 
			},
			{
				"x": -1.688312094,
				"y": 4.6634623096,
				"z": 1.0909793693,
				"element": "O" 
			},
			{
				"x": -2.6117982006,
				"y": 3.4557102016,
				"z": 2.7117273491,
				"element": "O" 
			},
			{
				"x": 4.7691689187,
				"y": -3.0202605919,
				"z": -0.8335160778,
				"element": "H" 
			},
			{
				"x": 3.179397065,
				"y": -1.6915989379,
				"z": 0.2850916658,
				"element": "H" 
			},
			{
				"x": 4.064067035,
				"y": -0.6731068331,
				"z": -0.8430857671,
				"element": "H" 
			},
			{
				"x": 1.8451221506,
				"y": -0.0444434448,
				"z": -1.9275449136,
				"element": "H" 
			},
			{
				"x": 2.0516631842,
				"y": 0.533829033,
				"z": -0.2721941367,
				"element": "H" 
			},
			{
				"x": -0.2508413926,
				"y": -0.3834760959,
				"z": -0.7530006405,
				"element": "H" 
			},
			{
				"x": 0.4639883665,
				"y": -1.9665504263,
				"z": -1.0709400706,
				"element": "H" 
			},
			{
				"x": -1.7611299817,
				"y": -0.3464923709,
				"z": 3.1448186676,
				"element": "H" 
			},
			{
				"x": -1.342186099,
				"y": 1.3509283791,
				"z": 3.4012345824,
				"element": "H" 
			},
			{
				"x": -2.1722671713,
				"y": 0.1249459722,
				"z": 0.7130528773,
				"element": "H" 
			},
			{
				"x": -3.2357317528,
				"y": 1.0241776413,
				"z": 1.788937382,
				"element": "H" 
			},
			{
				"x": -0.7133745308,
				"y": 2.2339880657,
				"z": 0.5372013043,
				"element": "H" 
			},
			{
				"x": -2.3168142999,
				"y": 2.368712443,
				"z": -0.1752798308,
				"element": "H" 
			},
			{
				"x": -1.2711046161,
				"y": 4.5194546155,
				"z": 0.2295669288,
				"element": "H" 
			}
		],
		 "valence_orbital": [ 
			{
				"type": "occ",
				"energy": -0.31678,
				"method": "rhf"
			},
			{
				"type": "occ",
				"energy": -0.28013,
				"method": "rhf"
			},
			{
				"type": "occ",
				"energy": -0.27911,
				"method": "rhf"
			},
			{
				"type": "occ",
				"energy": -0.25244,
				"method": "rhf"
			},
			{
				"type": "occ",
				"energy": -0.24252,
				"method": "rhf"
			},
			{
				"type": "unocc",
				"energy": -0.03189,
				"method": "rhf"
			},
			{
				"type": "unocc",
				"energy": 0.00181,
				"method": "rhf"
			},
			{
				"type": "unocc",
				"energy": 0.00299,
				"method": "rhf"
			},
			{
				"type": "unocc",
				"energy": 0.03386,
				"method": "rhf"
			},
			{
				"type": "unocc",
				"energy": 0.04518,
				"method": "rhf"
			}
		],
		"cosmo_sigma_profile": { 
			"-0.025": 0.0,
			"-0.024": 0.0,
			"-0.023": 0.0,
			"-0.022": 0.0,
			"-0.021": 0.0,
			"-0.02": 0.00522316385468,
			"-0.019": 1.18060544828,
			"-0.018": 2.08271798668,
			"-0.017": 2.01554733675,
			"-0.016": 2.24806077385,
			"-0.015": 2.36639296964,
			"-0.014": 1.73013312955,
			"-0.013": 1.80749186927,
			"-0.012": 2.55645716201,
			"-0.011": 3.11899407462,
			"-0.01": 2.21293253894,
			"-0.009": 1.79066036617,
			"-0.008": 3.80701432302,
			"-0.007": 6.50541930947,
			"-0.006": 9.30982728677,
			"-0.005": 18.4276348597,
			"-0.004": 22.7447362717,
			"-0.003": 25.9809692625,
			"-0.002": 21.0225066401,
			"-0.001": 17.3716243011,
			"0.0": 11.6141362877,
			"0.001": 10.4546011155,
			"0.002": 8.65723974081,
			"0.003": 10.607517196,
			"0.004": 10.9309828912,
			"0.005": 11.3860764557,
			"0.006": 11.1232733024,
			"0.007": 8.33398979643,
			"0.008": 7.62841244578,
			"0.009": 6.52395453961,
			"0.01": 9.03943656878,
			"0.011": 10.5488982571,
			"0.012": 8.69784767874,
			"0.013": 3.52462761176,
			"0.014": 0.223834095391,
			"0.015": 0.0,
			"0.016": 0.0,
			"0.017": 0.0,
			"0.018": 0.0,
			"0.019": 0.0,
			"0.02": 0.0,
			"0.021": 0.0,
			"0.022": 0.0,
			"0.023": 0.0,
			"0.024": 0.0,
			"0.025": 0.0
		}
	}
}
