{
	 "smiles": "ON=CC1=CC2=C(C=C1)C(=O)C1=C(Cl)C(Cl)=C(Cl)C(Cl)=C1C2=O", 
	 "Tm": 507.15, 
	 "num_atms": 28, 
	 "gaussian": { 
		 "optdone": 1, 
		 "sigma_profile": "yes", 
		 "theory": "DFT", 
		 "functional": "B3LYP", 
		 "basiset": "6-31G**", 
		 "properties": { 
			 "R2extent": 15093.5027, 
			 "electric_dipole_moment_norm": 3.14095034345, 
			 "electric_quadrupole_moment_norm": 5.67599881431, 
			 "total_energy": -2695.71565455, 
			 "HOMO_LUMO_gap": 0.13173, 
			 "cosmo_polarized_energy": -14.27, 
			 "cosmo_cavitation_energy": 40.78, 
			 "cosmo_dispersion_energy": -30.36, 
			 "cosmo_repulsion_energy": 2.25, 
			 "cosmo_total_nonelectrostatic_energy": 12.67, 
			 "SMD_solvation_energy": 6.94 
		},
		"coords": [
			{
				"x": -2.004926993,
				"y": -5.1279011214,
				"z": 0.2139209333,
				"element": "O" 
			},
			{
				"x": -1.3585732962,
				"y": -3.9152004683,
				"z": 0.4228614579,
				"element": "N" 
			},
			{
				"x": -1.7992714321,
				"y": -3.0115332116,
				"z": -0.3732522828,
				"element": "C" 
			},
			{
				"x": -1.2643254347,
				"y": -1.6475309628,
				"z": -0.3333240862,
				"element": "C" 
			},
			{
				"x": -0.2738397635,
				"y": -1.2633546262,
				"z": 0.583219918,
				"element": "C" 
			},
			{
				"x": 0.2256951104,
				"y": 0.0381570831,
				"z": 0.5690792912,
				"element": "C" 
			},
			{
				"x": -0.2784447194,
				"y": 0.9830871621,
				"z": -0.3360082575,
				"element": "C" 
			},
			{
				"x": -1.2920230175,
				"y": 0.6155793467,
				"z": -1.2286294113,
				"element": "C" 
			},
			{
				"x": -1.7665647456,
				"y": -0.689956348,
				"z": -1.2361044925,
				"element": "C" 
			},
			{
				"x": 0.1991198026,
				"y": 2.3874009131,
				"z": -0.3107947484,
				"element": "C" 
			},
			{
				"x": -0.4493619463,
				"y": 3.262742989,
				"z": -0.8630156032,
				"element": "O" 
			},
			{
				"x": 1.5042071327,
				"y": 2.667898262,
				"z": 0.4015600013,
				"element": "C" 
			},
			{
				"x": 2.2171702876,
				"y": 3.8598104327,
				"z": 0.1641633352,
				"element": "C" 
			},
			{
				"x": 1.6878970093,
				"y": 5.0566546962,
				"z": -0.9785902832,
				"element": "Cl" 
			},
			{
				"x": 3.4303916773,
				"y": 4.1033742813,
				"z": 0.8362495102,
				"element": "C" 
			},
			{
				"x": 4.3119128476,
				"y": 5.5679862578,
				"z": 0.5492216115,
				"element": "Cl" 
			},
			{
				"x": 3.9395240302,
				"y": 3.1577951021,
				"z": 1.7377376061,
				"element": "C" 
			},
			{
				"x": 5.4408155824,
				"y": 3.4713862517,
				"z": 2.5453270929,
				"element": "Cl" 
			},
			{
				"x": 3.2389064142,
				"y": 1.9604133291,
				"z": 1.9782258583,
				"element": "C" 
			},
			{
				"x": 3.9675754089,
				"y": 0.8164672445,
				"z": 3.0640264157,
				"element": "Cl" 
			},
			{
				"x": 2.0192280599,
				"y": 1.7104797329,
				"z": 1.3189493432,
				"element": "C" 
			},
			{
				"x": 1.2459228349,
				"y": 0.4358284727,
				"z": 1.5759462829,
				"element": "C" 
			},
			{
				"x": 1.4366932277,
				"y": -0.2594488134,
				"z": 2.5601336846,
				"element": "O" 
			},
			{
				"x": -1.5879788981,
				"y": -5.7086022632,
				"z": 0.8654511224,
				"element": "H" 
			},
			{
				"x": -2.5836299188,
				"y": -3.244179402,
				"z": -1.0972721661,
				"element": "H" 
			},
			{
				"x": 0.1084470226,
				"y": -1.9722930821,
				"z": 1.3079952285,
				"element": "H" 
			},
			{
				"x": -1.6901666775,
				"y": 1.3657178699,
				"z": -1.9028074499,
				"element": "H" 
			},
			{
				"x": -2.5402996056,
				"y": -0.978379128,
				"z": -1.9424699121,
				"element": "H" 
			}
		],
		 "valence_orbital": [ 
			{
				"type": "occ",
				"energy": -0.27871,
				"method": "rhf"
			},
			{
				"type": "occ",
				"energy": -0.27433,
				"method": "rhf"
			},
			{
				"type": "occ",
				"energy": -0.26618,
				"method": "rhf"
			},
			{
				"type": "occ",
				"energy": -0.26151,
				"method": "rhf"
			},
			{
				"type": "occ",
				"energy": -0.2496,
				"method": "rhf"
			},
			{
				"type": "unocc",
				"energy": -0.11787,
				"method": "rhf"
			},
			{
				"type": "unocc",
				"energy": -0.08513,
				"method": "rhf"
			},
			{
				"type": "unocc",
				"energy": -0.06029,
				"method": "rhf"
			},
			{
				"type": "unocc",
				"energy": -0.04113,
				"method": "rhf"
			},
			{
				"type": "unocc",
				"energy": -0.0367,
				"method": "rhf"
			}
		],
		"cosmo_sigma_profile": { 
			"-0.025": 0.0,
			"-0.024": 0.0,
			"-0.023": 0.0,
			"-0.022": 0.0,
			"-0.021": 0.0,
			"-0.02": 0.0,
			"-0.019": 0.0250403899824,
			"-0.018": 0.743923825294,
			"-0.017": 1.35975786171,
			"-0.016": 0.721343402952,
			"-0.015": 0.683977700746,
			"-0.014": 0.773347924905,
			"-0.013": 0.399353916467,
			"-0.012": 0.691902816476,
			"-0.011": 0.814038911001,
			"-0.01": 1.22171329953,
			"-0.009": 3.3405519121,
			"-0.008": 5.75657530442,
			"-0.007": 6.37336869535,
			"-0.006": 10.1026996142,
			"-0.005": 11.5125395833,
			"-0.004": 24.1878957355,
			"-0.003": 31.8370478182,
			"-0.002": 24.5529418927,
			"-0.001": 23.6355286203,
			"0.0": 33.1379713432,
			"0.001": 33.9426831986,
			"0.002": 30.125420401,
			"0.003": 32.4463839165,
			"0.004": 13.1817974691,
			"0.005": 7.41649389525,
			"0.006": 5.73495140025,
			"0.007": 7.02430755329,
			"0.008": 7.13268335028,
			"0.009": 7.64061737616,
			"0.01": 9.07085766088,
			"0.011": 2.84808491242,
			"0.012": 0.0,
			"0.013": 0.0,
			"0.014": 0.0,
			"0.015": 0.0,
			"0.016": 0.0,
			"0.017": 0.0,
			"0.018": 0.0,
			"0.019": 0.0,
			"0.02": 0.0,
			"0.021": 0.0,
			"0.022": 0.0,
			"0.023": 0.0,
			"0.024": 0.0,
			"0.025": 0.0
		}
	}
}
