{
	 "smiles": "CC1=CC(C)=C(C)C(CO)=C1C", 
	 "Tm": 385.15, 
	 "num_atms": 28, 
	 "gaussian": { 
		 "optdone": 1, 
		 "sigma_profile": "yes", 
		 "theory": "DFT", 
		 "functional": "B3LYP", 
		 "basiset": "6-31G**", 
		 "properties": { 
			 "R2extent": 2344.3762, 
			 "electric_dipole_moment_norm": 1.46554211813, 
			 "electric_quadrupole_moment_norm": 10.8700601116, 
			 "total_energy": -504.047041667, 
			 "HOMO_LUMO_gap": 0.21828, 
			 "cosmo_polarized_energy": -8.41, 
			 "cosmo_cavitation_energy": 28.83, 
			 "cosmo_dispersion_energy": -20.95, 
			 "cosmo_repulsion_energy": 1.66, 
			 "cosmo_total_nonelectrostatic_energy": 9.54, 
			 "SMD_solvation_energy": 4.93 
		},
		"coords": [
			{
				"x": -2.1902282224,
				"y": 0.0366144429,
				"z": 1.845037641,
				"element": "C" 
			},
			{
				"x": -0.895170155,
				"y": 0.0780987365,
				"z": 1.0638211906,
				"element": "C" 
			},
			{
				"x": 0.319509598,
				"y": 0.1078168253,
				"z": 1.7526325858,
				"element": "C" 
			},
			{
				"x": 1.5565760892,
				"y": 0.1225105533,
				"z": 1.1043905279,
				"element": "C" 
			},
			{
				"x": 2.8257886499,
				"y": 0.1275200787,
				"z": 1.9279428231,
				"element": "C" 
			},
			{
				"x": 1.5818373741,
				"y": 0.1334837,
				"z": -0.302912083,
				"element": "C" 
			},
			{
				"x": 2.9025263912,
				"y": 0.1107782897,
				"z": -1.0467649919,
				"element": "C" 
			},
			{
				"x": 0.364333065,
				"y": 0.158627222,
				"z": -1.0127285113,
				"element": "C" 
			},
			{
				"x": 0.3876378865,
				"y": 0.2539711304,
				"z": -2.5227644197,
				"element": "C" 
			},
			{
				"x": 0.4219588614,
				"y": -1.0682739858,
				"z": -3.0754118469,
				"element": "O" 
			},
			{
				"x": -0.8742653522,
				"y": 0.0890344401,
				"z": -0.3435603739,
				"element": "C" 
			},
			{
				"x": -2.1678993198,
				"y": 0.0190142185,
				"z": -1.1307526454,
				"element": "C" 
			},
			{
				"x": -2.8630701529,
				"y": 0.8574653383,
				"z": 1.5713863694,
				"element": "H" 
			},
			{
				"x": -1.9964195607,
				"y": 0.1120537316,
				"z": 2.9185441906,
				"element": "H" 
			},
			{
				"x": -2.7420482122,
				"y": -0.8965705643,
				"z": 1.6770006472,
				"element": "H" 
			},
			{
				"x": 0.3015295361,
				"y": 0.10638303,
				"z": 2.8407610644,
				"element": "H" 
			},
			{
				"x": 3.4771716554,
				"y": 0.9722948748,
				"z": 1.6760322206,
				"element": "H" 
			},
			{
				"x": 3.4162765238,
				"y": -0.7850025801,
				"z": 1.7788800717,
				"element": "H" 
			},
			{
				"x": 2.5940661131,
				"y": 0.1953931789,
				"z": 2.994416161,
				"element": "H" 
			},
			{
				"x": 3.238437808,
				"y": 1.1194124921,
				"z": -1.3242933528,
				"element": "H" 
			},
			{
				"x": 2.8279862484,
				"y": -0.4804169042,
				"z": -1.9623192629,
				"element": "H" 
			},
			{
				"x": 3.6947811591,
				"y": -0.330100246,
				"z": -0.4382122404,
				"element": "H" 
			},
			{
				"x": 1.2627682703,
				"y": 0.8322890149,
				"z": -2.8475363806,
				"element": "H" 
			},
			{
				"x": -0.4974751638,
				"y": 0.7988684546,
				"z": -2.8769128729,
				"element": "H" 
			},
			{
				"x": 0.4363791081,
				"y": -0.9815695597,
				"z": -4.0380634976,
				"element": "H" 
			},
			{
				"x": -2.5298082512,
				"y": 1.0148789705,
				"z": -1.4213850625,
				"element": "H" 
			},
			{
				"x": -2.0420845852,
				"y": -0.5699095428,
				"z": -2.0421716892,
				"element": "H" 
			},
			{
				"x": -2.9638953623,
				"y": -0.4490653403,
				"z": -0.5479562624,
				"element": "H" 
			}
		],
		 "valence_orbital": [ 
			{
				"type": "occ",
				"energy": -0.31589,
				"method": "rhf"
			},
			{
				"type": "occ",
				"energy": -0.30677,
				"method": "rhf"
			},
			{
				"type": "occ",
				"energy": -0.26464,
				"method": "rhf"
			},
			{
				"type": "occ",
				"energy": -0.22598,
				"method": "rhf"
			},
			{
				"type": "occ",
				"energy": -0.21424,
				"method": "rhf"
			},
			{
				"type": "unocc",
				"energy": 0.00404,
				"method": "rhf"
			},
			{
				"type": "unocc",
				"energy": 0.0133,
				"method": "rhf"
			},
			{
				"type": "unocc",
				"energy": 0.08253,
				"method": "rhf"
			},
			{
				"type": "unocc",
				"energy": 0.10413,
				"method": "rhf"
			},
			{
				"type": "unocc",
				"energy": 0.10753,
				"method": "rhf"
			}
		],
		"cosmo_sigma_profile": { 
			"-0.025": 0.0,
			"-0.024": 0.0,
			"-0.023": 0.0,
			"-0.022": 0.0,
			"-0.021": 0.0,
			"-0.02": 0.0,
			"-0.019": 0.0,
			"-0.018": 0.0,
			"-0.017": 0.0,
			"-0.016": 0.172942346127,
			"-0.015": 1.06722341056,
			"-0.014": 0.981373176655,
			"-0.013": 0.709606969043,
			"-0.012": 1.15479746104,
			"-0.011": 0.991643744284,
			"-0.01": 0.698783273408,
			"-0.009": 0.682451553517,
			"-0.008": 0.760527827451,
			"-0.007": 1.32101320095,
			"-0.006": 0.588317952186,
			"-0.005": 1.51887025069,
			"-0.004": 16.39234143,
			"-0.003": 29.3396647255,
			"-0.002": 29.8346634269,
			"-0.001": 30.1959712151,
			"0.0": 28.7537131956,
			"0.001": 23.5376394757,
			"0.002": 8.83528491331,
			"0.003": 7.34439117801,
			"0.004": 7.17289250633,
			"0.005": 5.86724816935,
			"0.006": 7.31790466764,
			"0.007": 7.20313606674,
			"0.008": 3.86854730277,
			"0.009": 1.00380721883,
			"0.01": 1.27436821599,
			"0.011": 1.34432590734,
			"0.012": 1.53568586402,
			"0.013": 1.07804590167,
			"0.014": 1.65240561825,
			"0.015": 0.709520445893,
			"0.016": 0.0,
			"0.017": 0.0,
			"0.018": 0.0,
			"0.019": 0.0,
			"0.02": 0.0,
			"0.021": 0.0,
			"0.022": 0.0,
			"0.023": 0.0,
			"0.024": 0.0,
			"0.025": 0.0
		}
	}
}
