{
	 "smiles": "NCC1=CC=C(C=C1)N1CC=CC1", 
	 "Tm": 348.15, 
	 "num_atms": 27, 
	 "gaussian": { 
		 "optdone": 1, 
		 "sigma_profile": "yes", 
		 "theory": "DFT", 
		 "functional": "B3LYP", 
		 "basiset": "6-31G**", 
		 "properties": { 
			 "R2extent": 4370.3525, 
			 "electric_dipole_moment_norm": 3.71480640949, 
			 "electric_quadrupole_moment_norm": 7.20980166371, 
			 "total_energy": -537.079997621, 
			 "HOMO_LUMO_gap": 0.18419, 
			 "cosmo_polarized_energy": -9.18, 
			 "cosmo_cavitation_energy": 29.43, 
			 "cosmo_dispersion_energy": -21.58, 
			 "cosmo_repulsion_energy": 1.71, 
			 "cosmo_total_nonelectrostatic_energy": 9.56, 
			 "SMD_solvation_energy": 2.42 
		},
		"coords": [
			{
				"x": 2.826788542,
				"y": 0.3159291365,
				"z": -1.0561026504,
				"element": "N" 
			},
			{
				"x": 2.0672418569,
				"y": -0.7696482629,
				"z": -0.4052061502,
				"element": "C" 
			},
			{
				"x": 0.5766217471,
				"y": -0.5383083266,
				"z": -0.2489254302,
				"element": "C" 
			},
			{
				"x": 0.0504817654,
				"y": 0.102437464,
				"z": 0.8805236211,
				"element": "C" 
			},
			{
				"x": -1.3084161395,
				"y": 0.3727999983,
				"z": 1.0100681204,
				"element": "C" 
			},
			{
				"x": -2.2162727865,
				"y": 0.0026399714,
				"z": -0.007222473,
				"element": "C" 
			},
			{
				"x": -1.693085849,
				"y": -0.6498194184,
				"z": -1.1459359445,
				"element": "C" 
			},
			{
				"x": -0.3298447949,
				"y": -0.9086648008,
				"z": -1.251034632,
				"element": "C" 
			},
			{
				"x": -3.5654377517,
				"y": 0.2638080206,
				"z": 0.109644702,
				"element": "N" 
			},
			{
				"x": -4.1678920877,
				"y": 0.920464332,
				"z": 1.2642348187,
				"element": "C" 
			},
			{
				"x": -5.6279725687,
				"y": 0.9482578243,
				"z": 0.8998087938,
				"element": "C" 
			},
			{
				"x": -5.8399532203,
				"y": 0.3851087382,
				"z": -0.2888210146,
				"element": "C" 
			},
			{
				"x": -4.5535198023,
				"y": -0.1040279966,
				"z": -0.8981395935,
				"element": "C" 
			},
			{
				"x": 2.4206387928,
				"y": 0.4926811299,
				"z": -1.9737912455,
				"element": "H" 
			},
			{
				"x": 2.678193704,
				"y": 1.1770518758,
				"z": -0.5319497214,
				"element": "H" 
			},
			{
				"x": 2.2404822519,
				"y": -1.6823092047,
				"z": -0.9878240643,
				"element": "H" 
			},
			{
				"x": 2.5201921609,
				"y": -0.9386304495,
				"z": 0.5790124931,
				"element": "H" 
			},
			{
				"x": 0.7200611121,
				"y": 0.3950580296,
				"z": 1.6875771252,
				"element": "H" 
			},
			{
				"x": -1.6682478369,
				"y": 0.866056835,
				"z": 1.9063664572,
				"element": "H" 
			},
			{
				"x": -2.3555847606,
				"y": -0.9612613946,
				"z": -1.946081643,
				"element": "H" 
			},
			{
				"x": 0.0372470375,
				"y": -1.420221687,
				"z": -2.1392096134,
				"element": "H" 
			},
			{
				"x": -3.9863525641,
				"y": 0.3626810013,
				"z": 2.1990085531,
				"element": "H" 
			},
			{
				"x": -3.7615708001,
				"y": 1.9342227647,
				"z": 1.4217465765,
				"element": "H" 
			},
			{
				"x": -6.3800994698,
				"y": 1.3802647839,
				"z": 1.5500025285,
				"element": "H" 
			},
			{
				"x": -6.7967095134,
				"y": 0.2734822503,
				"z": -0.7860463115,
				"element": "H" 
			},
			{
				"x": -4.3488238584,
				"y": 0.3740102633,
				"z": -1.8713803791,
				"element": "H" 
			},
			{
				"x": -4.5715651666,
				"y": -1.1919628781,
				"z": -1.0824229228,
				"element": "H" 
			}
		],
		 "valence_orbital": [ 
			{
				"type": "occ",
				"energy": -0.28786,
				"method": "rhf"
			},
			{
				"type": "occ",
				"energy": -0.2528,
				"method": "rhf"
			},
			{
				"type": "occ",
				"energy": -0.24009,
				"method": "rhf"
			},
			{
				"type": "occ",
				"energy": -0.22773,
				"method": "rhf"
			},
			{
				"type": "occ",
				"energy": -0.18072,
				"method": "rhf"
			},
			{
				"type": "unocc",
				"energy": 0.00347,
				"method": "rhf"
			},
			{
				"type": "unocc",
				"energy": 0.01666,
				"method": "rhf"
			},
			{
				"type": "unocc",
				"energy": 0.02273,
				"method": "rhf"
			},
			{
				"type": "unocc",
				"energy": 0.09235,
				"method": "rhf"
			},
			{
				"type": "unocc",
				"energy": 0.09976,
				"method": "rhf"
			}
		],
		"cosmo_sigma_profile": { 
			"-0.025": 0.0,
			"-0.024": 0.0,
			"-0.023": 0.0,
			"-0.022": 0.0,
			"-0.021": 0.0,
			"-0.02": 0.0,
			"-0.019": 0.0,
			"-0.018": 0.0,
			"-0.017": 0.0,
			"-0.016": 0.0,
			"-0.015": 0.0,
			"-0.014": 0.0,
			"-0.013": 0.0,
			"-0.012": 0.0,
			"-0.011": 0.0,
			"-0.01": 0.0,
			"-0.009": 1.15817747566,
			"-0.008": 2.52749722627,
			"-0.007": 2.78117672741,
			"-0.006": 7.32753564309,
			"-0.005": 12.2385418707,
			"-0.004": 30.0126357612,
			"-0.003": 33.458683079,
			"-0.002": 24.727842526,
			"-0.001": 15.7473576345,
			"0.0": 14.0192935224,
			"0.001": 10.9932986622,
			"0.002": 11.8563559108,
			"0.003": 12.3342784408,
			"0.004": 11.6361369981,
			"0.005": 10.6232528966,
			"0.006": 8.96114035772,
			"0.007": 8.39180894141,
			"0.008": 4.25222012115,
			"0.009": 0.904391830448,
			"0.01": 0.963963567392,
			"0.011": 0.663208332692,
			"0.012": 0.758535141569,
			"0.013": 0.595060012993,
			"0.014": 1.00931027218,
			"0.015": 0.429408511426,
			"0.016": 0.442535575337,
			"0.017": 0.895282728179,
			"0.018": 0.503337307729,
			"0.019": 0.805043489354,
			"0.02": 0.519034339017,
			"0.021": 0.072957630708,
			"0.022": 0.0,
			"0.023": 0.0,
			"0.024": 0.0,
			"0.025": 0.0
		}
	}
}
