{
	 "smiles": "CC(Cl)C(=O)NC1=CC(=CC=C1)S(=O)(=O)N(C)C", 
	 "Tm": 438.15, 
	 "num_atms": 33, 
	 "gaussian": { 
		 "optdone": 1, 
		 "sigma_profile": "yes", 
		 "theory": "DFT", 
		 "functional": "B3LYP", 
		 "basiset": "6-31G**", 
		 "properties": { 
			 "R2extent": 7205.7316, 
			 "electric_dipole_moment_norm": 5.09085428686, 
			 "electric_quadrupole_moment_norm": 25.5035960568, 
			 "total_energy": -1621.70682451, 
			 "HOMO_LUMO_gap": 0.20572, 
			 "cosmo_polarized_energy": -21.67, 
			 "cosmo_cavitation_energy": 39.43, 
			 "cosmo_dispersion_energy": -26.77, 
			 "cosmo_repulsion_energy": 2.03, 
			 "cosmo_total_nonelectrostatic_energy": 14.69, 
			 "SMD_solvation_energy": 5.55 
		},
		"coords": [
			{
				"x": -3.4827722862,
				"y": -0.2330933537,
				"z": -1.8674501385,
				"element": "C" 
			},
			{
				"x": -2.4006176691,
				"y": -0.3012757686,
				"z": -0.8064174535,
				"element": "C" 
			},
			{
				"x": -0.7600763482,
				"y": -0.5842194687,
				"z": -1.588809349,
				"element": "Cl" 
			},
			{
				"x": -2.6364610716,
				"y": -1.4590844704,
				"z": 0.1772042184,
				"element": "C" 
			},
			{
				"x": -3.3327572379,
				"y": -2.4142127588,
				"z": -0.1235508101,
				"element": "O" 
			},
			{
				"x": -2.0147931977,
				"y": -1.3941228325,
				"z": 1.4061055741,
				"element": "N" 
			},
			{
				"x": -1.1570500021,
				"y": -0.3889378223,
				"z": 1.9363853588,
				"element": "C" 
			},
			{
				"x": 0.1760907865,
				"y": -0.7024483352,
				"z": 2.2211384792,
				"element": "C" 
			},
			{
				"x": 1.0029268577,
				"y": 0.2717675911,
				"z": 2.7811055218,
				"element": "C" 
			},
			{
				"x": 0.5294530679,
				"y": 1.5568249609,
				"z": 3.0584307121,
				"element": "C" 
			},
			{
				"x": -0.8026436215,
				"y": 1.8592724138,
				"z": 2.7758459573,
				"element": "C" 
			},
			{
				"x": -1.6461358768,
				"y": 0.8909749549,
				"z": 2.2301441275,
				"element": "C" 
			},
			{
				"x": 2.735582527,
				"y": -0.1239490044,
				"z": 3.0892362572,
				"element": "S" 
			},
			{
				"x": 2.8175934952,
				"y": -1.573570361,
				"z": 3.2738152674,
				"element": "O" 
			},
			{
				"x": 3.2178513153,
				"y": 0.8229340142,
				"z": 4.0959053087,
				"element": "O" 
			},
			{
				"x": 3.5684984829,
				"y": 0.2249033298,
				"z": 1.6657639808,
				"element": "N" 
			},
			{
				"x": 3.7121775504,
				"y": 1.642255507,
				"z": 1.3246218827,
				"element": "C" 
			},
			{
				"x": 3.3241006565,
				"y": -0.6685802163,
				"z": 0.5292754434,
				"element": "C" 
			},
			{
				"x": -3.5834412775,
				"y": -1.1954924353,
				"z": -2.3702681744,
				"element": "H" 
			},
			{
				"x": -4.4405110513,
				"y": 0.0004071082,
				"z": -1.3898333675,
				"element": "H" 
			},
			{
				"x": -3.25442913,
				"y": 0.5460404237,
				"z": -2.5975695925,
				"element": "H" 
			},
			{
				"x": -2.2852200281,
				"y": 0.6496973525,
				"z": -0.2881022179,
				"element": "H" 
			},
			{
				"x": -2.0913111177,
				"y": -2.2635943735,
				"z": 1.9213549464,
				"element": "H" 
			},
			{
				"x": 0.560098884,
				"y": -1.6970093647,
				"z": 2.0230987974,
				"element": "H" 
			},
			{
				"x": 1.1874239024,
				"y": 2.2856397589,
				"z": 3.5178746217,
				"element": "H" 
			},
			{
				"x": -1.1940421134,
				"y": 2.8450081734,
				"z": 3.0074018701,
				"element": "H" 
			},
			{
				"x": -2.6945456423,
				"y": 1.1118515138,
				"z": 2.0551664647,
				"element": "H" 
			},
			{
				"x": 3.9694056165,
				"y": 2.2058315132,
				"z": 2.2209320454,
				"element": "H" 
			},
			{
				"x": 4.5338604807,
				"y": 1.7345380347,
				"z": 0.6086898276,
				"element": "H" 
			},
			{
				"x": 2.8037775514,
				"y": 2.0643582934,
				"z": 0.8680674804,
				"element": "H" 
			},
			{
				"x": 2.3788410441,
				"y": -0.4495208278,
				"z": 0.0100642932,
				"element": "H" 
			},
			{
				"x": 4.1474234505,
				"y": -0.5424201728,
				"z": -0.1795340358,
				"element": "H" 
			},
			{
				"x": 3.322602002,
				"y": -1.7015733777,
				"z": 0.875706703,
				"element": "H" 
			}
		],
		 "valence_orbital": [ 
			{
				"type": "occ",
				"energy": -0.30414,
				"method": "rhf"
			},
			{
				"type": "occ",
				"energy": -0.28858,
				"method": "rhf"
			},
			{
				"type": "occ",
				"energy": -0.27262,
				"method": "rhf"
			},
			{
				"type": "occ",
				"energy": -0.26235,
				"method": "rhf"
			},
			{
				"type": "occ",
				"energy": -0.25878,
				"method": "rhf"
			},
			{
				"type": "unocc",
				"energy": -0.05306,
				"method": "rhf"
			},
			{
				"type": "unocc",
				"energy": -0.0447,
				"method": "rhf"
			},
			{
				"type": "unocc",
				"energy": -0.02807,
				"method": "rhf"
			},
			{
				"type": "unocc",
				"energy": 0.04698,
				"method": "rhf"
			},
			{
				"type": "unocc",
				"energy": 0.05182,
				"method": "rhf"
			}
		],
		"cosmo_sigma_profile": { 
			"-0.025": 0.0,
			"-0.024": 0.0,
			"-0.023": 0.0,
			"-0.022": 0.0,
			"-0.021": 0.0,
			"-0.02": 0.0,
			"-0.019": 0.0,
			"-0.018": 0.0,
			"-0.017": 0.0,
			"-0.016": 0.0,
			"-0.015": 1.07271648548,
			"-0.014": 0.875416034322,
			"-0.013": 1.30747576529,
			"-0.012": 1.04280286651,
			"-0.011": 1.24146307328,
			"-0.01": 1.65944448368,
			"-0.009": 2.59008380622,
			"-0.008": 6.84126344485,
			"-0.007": 10.1464073823,
			"-0.006": 16.7631447988,
			"-0.005": 21.7742340094,
			"-0.004": 23.498749221,
			"-0.003": 30.1502437787,
			"-0.002": 27.346157624,
			"-0.001": 19.7711142991,
			"0.0": 19.9678512959,
			"0.001": 20.4140154874,
			"0.002": 17.9183071231,
			"0.003": 11.9201679674,
			"0.004": 10.5363333267,
			"0.005": 11.6885220536,
			"0.006": 10.5059516876,
			"0.007": 5.60437100929,
			"0.008": 4.52475047146,
			"0.009": 6.64657992163,
			"0.01": 8.10774012217,
			"0.011": 9.95075570538,
			"0.012": 7.60332213193,
			"0.013": 2.66299930268,
			"0.014": 0.0374713617308,
			"0.015": 0.0,
			"0.016": 0.0,
			"0.017": 0.0,
			"0.018": 0.0,
			"0.019": 0.0,
			"0.02": 0.0,
			"0.021": 0.0,
			"0.022": 0.0,
			"0.023": 0.0,
			"0.024": 0.0,
			"0.025": 0.0
		}
	}
}
