{
	 "smiles": "CN1C2=C(C=CC=C2)N2C1=C(C#N)C1=CN=CC=C1C2=O", 
	 "Tm": 569.15, 
	 "num_atms": 31, 
	 "gaussian": { 
		 "optdone": 1, 
		 "sigma_profile": "yes", 
		 "theory": "DFT", 
		 "functional": "B3LYP", 
		 "basiset": "6-31G**", 
		 "properties": { 
			 "R2extent": 6052.7848, 
			 "electric_dipole_moment_norm": 6.00790486193, 
			 "electric_quadrupole_moment_norm": 13.4941187826, 
			 "total_energy": -909.972212641, 
			 "HOMO_LUMO_gap": 0.13754, 
			 "cosmo_polarized_energy": -16.24, 
			 "cosmo_cavitation_energy": 35.45, 
			 "cosmo_dispersion_energy": -25.75, 
			 "cosmo_repulsion_energy": 1.85, 
			 "cosmo_total_nonelectrostatic_energy": 11.54, 
			 "SMD_solvation_energy": 5.66 
		},
		"coords": [
			{
				"x": -1.6560400506,
				"y": -0.7861646445,
				"z": -1.7047125244,
				"element": "C" 
			},
			{
				"x": -0.3350051349,
				"y": -0.337751422,
				"z": -1.2779456964,
				"element": "N" 
			},
			{
				"x": 0.710713206,
				"y": 0.0207245384,
				"z": -2.1366501725,
				"element": "C" 
			},
			{
				"x": 1.8094614423,
				"y": 0.3924624205,
				"z": -1.3462304792,
				"element": "C" 
			},
			{
				"x": 3.014389162,
				"y": 0.8042112282,
				"z": -1.9084010987,
				"element": "C" 
			},
			{
				"x": 3.08468933,
				"y": 0.8321767424,
				"z": -3.3039218157,
				"element": "C" 
			},
			{
				"x": 1.9908416021,
				"y": 0.4621357831,
				"z": -4.0965982118,
				"element": "C" 
			},
			{
				"x": 0.7834327109,
				"y": 0.0495023113,
				"z": -3.5271248334,
				"element": "C" 
			},
			{
				"x": 1.3999802697,
				"y": 0.2491654054,
				"z": -0.0055651903,
				"element": "N" 
			},
			{
				"x": 0.0827686366,
				"y": -0.1994039573,
				"z": 0.0225563024,
				"element": "C" 
			},
			{
				"x": -0.575864375,
				"y": -0.4272506003,
				"z": 1.2248010672,
				"element": "C" 
			},
			{
				"x": -1.9184468811,
				"y": -0.8846336586,
				"z": 1.2846205377,
				"element": "C" 
			},
			{
				"x": -3.0193412973,
				"y": -1.259893412,
				"z": 1.3755822816,
				"element": "N" 
			},
			{
				"x": 0.16015003,
				"y": -0.1802481737,
				"z": 2.446831047,
				"element": "C" 
			},
			{
				"x": -0.4051731082,
				"y": -0.3766455109,
				"z": 3.733176086,
				"element": "C" 
			},
			{
				"x": 0.2405097338,
				"y": -0.1601162967,
				"z": 4.8682016496,
				"element": "N" 
			},
			{
				"x": 1.5182304681,
				"y": 0.2752495615,
				"z": 4.8053065845,
				"element": "C" 
			},
			{
				"x": 2.1792691294,
				"y": 0.5039414226,
				"z": 3.6121870773,
				"element": "C" 
			},
			{
				"x": 1.4970582648,
				"y": 0.2751942054,
				"z": 2.4062130447,
				"element": "C" 
			},
			{
				"x": 2.1902716349,
				"y": 0.5150328465,
				"z": 1.1375778002,
				"element": "C" 
			},
			{
				"x": 3.3424234644,
				"y": 0.9076981681,
				"z": 1.0157035685,
				"element": "O" 
			},
			{
				"x": -2.4334897829,
				"y": -0.113995177,
				"z": -1.3362159103,
				"element": "H" 
			},
			{
				"x": -1.6793043473,
				"y": -0.7903911295,
				"z": -2.7934233038,
				"element": "H" 
			},
			{
				"x": -1.8609832501,
				"y": -1.7953091406,
				"z": -1.3418596925,
				"element": "H" 
			},
			{
				"x": 3.8455302181,
				"y": 1.0852592505,
				"z": -1.2776240098,
				"element": "H" 
			},
			{
				"x": 4.0075845634,
				"y": 1.1476972453,
				"z": -3.7794978464,
				"element": "H" 
			},
			{
				"x": 2.0780030838,
				"y": 0.4949397309,
				"z": -5.1780705101,
				"element": "H" 
			},
			{
				"x": -0.0558591652,
				"y": -0.2343933456,
				"z": -4.1520229913,
				"element": "H" 
			},
			{
				"x": -1.4324116091,
				"y": -0.7267570867,
				"z": 3.8144381057,
				"element": "H" 
			},
			{
				"x": 2.0140800254,
				"y": 0.4412707483,
				"z": 5.7583751069,
				"element": "H" 
			},
			{
				"x": 3.2051320261,
				"y": 0.8533919471,
				"z": 3.5803940271,
				"element": "H" 
			}
		],
		 "valence_orbital": [ 
			{
				"type": "occ",
				"energy": -0.28521,
				"method": "rhf"
			},
			{
				"type": "occ",
				"energy": -0.26838,
				"method": "rhf"
			},
			{
				"type": "occ",
				"energy": -0.26317,
				"method": "rhf"
			},
			{
				"type": "occ",
				"energy": -0.26009,
				"method": "rhf"
			},
			{
				"type": "occ",
				"energy": -0.20758,
				"method": "rhf"
			},
			{
				"type": "unocc",
				"energy": -0.07004,
				"method": "rhf"
			},
			{
				"type": "unocc",
				"energy": -0.04773,
				"method": "rhf"
			},
			{
				"type": "unocc",
				"energy": -0.01695,
				"method": "rhf"
			},
			{
				"type": "unocc",
				"energy": -0.01033,
				"method": "rhf"
			},
			{
				"type": "unocc",
				"energy": -0.00374,
				"method": "rhf"
			}
		],
		"cosmo_sigma_profile": { 
			"-0.025": 0.0,
			"-0.024": 0.0,
			"-0.023": 0.0,
			"-0.022": 0.0,
			"-0.021": 0.0,
			"-0.02": 0.0,
			"-0.019": 0.0,
			"-0.018": 0.0,
			"-0.017": 0.0,
			"-0.016": 0.0,
			"-0.015": 0.0,
			"-0.014": 0.0,
			"-0.013": 0.0,
			"-0.012": 0.0,
			"-0.011": 0.143755618786,
			"-0.01": 1.31882411598,
			"-0.009": 1.97924310385,
			"-0.008": 2.693451936,
			"-0.007": 11.7994140337,
			"-0.006": 19.933496144,
			"-0.005": 23.5328073125,
			"-0.004": 27.9646620635,
			"-0.003": 18.7745292874,
			"-0.002": 17.1618126328,
			"-0.001": 21.7861540081,
			"0.0": 24.2140314101,
			"0.001": 20.8408307618,
			"0.002": 19.7130273659,
			"0.003": 14.7963371232,
			"0.004": 13.3933892071,
			"0.005": 6.02273006933,
			"0.006": 4.55405573642,
			"0.007": 3.9239859125,
			"0.008": 4.32478013309,
			"0.009": 6.20555958154,
			"0.01": 5.28711965,
			"0.011": 6.75601741498,
			"0.012": 4.87635614654,
			"0.013": 2.9978565916,
			"0.014": 1.45028278863,
			"0.015": 0.895937107963,
			"0.016": 0.394649083629,
			"0.017": 0.0,
			"0.018": 0.0,
			"0.019": 0.0,
			"0.02": 0.0,
			"0.021": 0.0,
			"0.022": 0.0,
			"0.023": 0.0,
			"0.024": 0.0,
			"0.025": 0.0
		}
	}
}
