{
	 "smiles": "NC1=CC(=NN1)C1CCNCC1", 
	 "Tm": 425.15, 
	 "num_atms": 26, 
	 "gaussian": { 
		 "optdone": 1, 
		 "sigma_profile": "yes", 
		 "theory": "DFT", 
		 "functional": "B3LYP", 
		 "basiset": "6-31G**", 
		 "properties": { 
			 "R2extent": 2569.333, 
			 "electric_dipole_moment_norm": 3.94735674344, 
			 "electric_quadrupole_moment_norm": 11.3811169711, 
			 "total_energy": -532.261519507, 
			 "HOMO_LUMO_gap": 0.23899, 
			 "cosmo_polarized_energy": -16.63, 
			 "cosmo_cavitation_energy": 27.53, 
			 "cosmo_dispersion_energy": -20.52, 
			 "cosmo_repulsion_energy": 1.67, 
			 "cosmo_total_nonelectrostatic_energy": 8.67, 
			 "SMD_solvation_energy": 0.65 
		},
		"coords": [
			{
				"x": 1.5330842821,
				"y": -3.9890914605,
				"z": 0.6344672299,
				"element": "N" 
			},
			{
				"x": 1.2357384607,
				"y": -2.6333545414,
				"z": 0.8179622722,
				"element": "C" 
			},
			{
				"x": 0.6895472958,
				"y": -1.6726073314,
				"z": -0.0156218885,
				"element": "C" 
			},
			{
				"x": 0.5656557758,
				"y": -0.5090290323,
				"z": 0.7957740528,
				"element": "C" 
			},
			{
				"x": 1.005300562,
				"y": -0.727580087,
				"z": 2.0331062941,
				"element": "N" 
			},
			{
				"x": 1.4097823954,
				"y": -2.0308985184,
				"z": 2.0245481676,
				"element": "N" 
			},
			{
				"x": 0.0522099255,
				"y": 0.8550982797,
				"z": 0.4170368854,
				"element": "C" 
			},
			{
				"x": 0.9607822461,
				"y": 1.5865994485,
				"z": -0.6233762265,
				"element": "C" 
			},
			{
				"x": 0.3985922797,
				"y": 1.502998672,
				"z": -2.043430254,
				"element": "C" 
			},
			{
				"x": -0.8903012505,
				"y": 2.2088142365,
				"z": -2.1166010161,
				"element": "N" 
			},
			{
				"x": -1.7347614067,
				"y": 2.0596350438,
				"z": -0.9147619522,
				"element": "C" 
			},
			{
				"x": -1.4106939602,
				"y": 0.8026453153,
				"z": -0.0982579453,
				"element": "C" 
			},
			{
				"x": 1.3671417989,
				"y": -4.28098796,
				"z": -0.3204607789,
				"element": "H" 
			},
			{
				"x": 2.4831713123,
				"y": -4.2309214844,
				"z": 0.8975761665,
				"element": "H" 
			},
			{
				"x": 0.4352267558,
				"y": -1.7923999957,
				"z": -1.0585100489,
				"element": "H" 
			},
			{
				"x": 1.6909098639,
				"y": -2.4672996615,
				"z": 2.8880038588,
				"element": "H" 
			},
			{
				"x": 0.0687183255,
				"y": 1.4412432235,
				"z": 1.342182188,
				"element": "H" 
			},
			{
				"x": 1.0416660193,
				"y": 2.6459278071,
				"z": -0.3530493209,
				"element": "H" 
			},
			{
				"x": 1.9739063502,
				"y": 1.1743918806,
				"z": -0.5962090818,
				"element": "H" 
			},
			{
				"x": 1.0955864895,
				"y": 1.9687605283,
				"z": -2.7519050283,
				"element": "H" 
			},
			{
				"x": 0.3260423985,
				"y": 0.4388209501,
				"z": -2.3342887511,
				"element": "H" 
			},
			{
				"x": -1.4013614929,
				"y": 1.8898410655,
				"z": -2.9327101026,
				"element": "H" 
			},
			{
				"x": -1.6073205021,
				"y": 2.9423678454,
				"z": -0.2702872612,
				"element": "H" 
			},
			{
				"x": -2.7852522679,
				"y": 2.0607712409,
				"z": -1.2252459824,
				"element": "H" 
			},
			{
				"x": -1.555845896,
				"y": -0.0843316149,
				"z": -0.7278038406,
				"element": "H" 
			},
			{
				"x": -2.0995257608,
				"y": 0.6983861502,
				"z": 0.747662364,
				"element": "H" 
			}
		],
		 "valence_orbital": [ 
			{
				"type": "occ",
				"energy": -0.29802,
				"method": "rhf"
			},
			{
				"type": "occ",
				"energy": -0.27103,
				"method": "rhf"
			},
			{
				"type": "occ",
				"energy": -0.23442,
				"method": "rhf"
			},
			{
				"type": "occ",
				"energy": -0.20504,
				"method": "rhf"
			},
			{
				"type": "occ",
				"energy": -0.20096,
				"method": "rhf"
			},
			{
				"type": "unocc",
				"energy": 0.03803,
				"method": "rhf"
			},
			{
				"type": "unocc",
				"energy": 0.06797,
				"method": "rhf"
			},
			{
				"type": "unocc",
				"energy": 0.08068,
				"method": "rhf"
			},
			{
				"type": "unocc",
				"energy": 0.0859,
				"method": "rhf"
			},
			{
				"type": "unocc",
				"energy": 0.10026,
				"method": "rhf"
			}
		],
		"cosmo_sigma_profile": { 
			"-0.025": 0.0,
			"-0.024": 0.0,
			"-0.023": 0.0,
			"-0.022": 0.0,
			"-0.021": 0.0,
			"-0.02": 0.0,
			"-0.019": 0.0,
			"-0.018": 0.0,
			"-0.017": 0.0,
			"-0.016": 0.206801447071,
			"-0.015": 1.47564686814,
			"-0.014": 1.20714508983,
			"-0.013": 2.7566012508,
			"-0.012": 4.39721505553,
			"-0.011": 4.40125638264,
			"-0.01": 4.05816656471,
			"-0.009": 4.0687410438,
			"-0.008": 4.8728723512,
			"-0.007": 3.32678128658,
			"-0.006": 3.45933632385,
			"-0.005": 5.55017476871,
			"-0.004": 8.27894631821,
			"-0.003": 13.8814421864,
			"-0.002": 24.6703210615,
			"-0.001": 25.8674419508,
			"0.0": 20.7111051347,
			"0.001": 12.5955414652,
			"0.002": 7.97073279352,
			"0.003": 6.69873605596,
			"0.004": 6.61855466952,
			"0.005": 6.2738863465,
			"0.006": 8.25403199384,
			"0.007": 6.5696660504,
			"0.008": 3.23299159948,
			"0.009": 2.35503814266,
			"0.01": 2.87297745196,
			"0.011": 3.24361626008,
			"0.012": 2.67146128028,
			"0.013": 2.48659762164,
			"0.014": 2.2878024347,
			"0.015": 1.42546383285,
			"0.016": 2.11612321922,
			"0.017": 1.62531951038,
			"0.018": 0.759503655536,
			"0.019": 0.384257768588,
			"0.02": 0.0153558661401,
			"0.021": 0.0,
			"0.022": 0.0,
			"0.023": 0.0,
			"0.024": 0.0,
			"0.025": 0.0
		}
	}
}
