{
	 "smiles": "CC(C)C1=CC(OC(C)C(O)=O)=C(C)C=C1", 
	 "Tm": 354.15, 
	 "num_atms": 34, 
	 "gaussian": { 
		 "optdone": 1, 
		 "sigma_profile": "yes", 
		 "theory": "DFT", 
		 "functional": "B3LYP", 
		 "basiset": "6-31G**", 
		 "properties": { 
			 "R2extent": 5076.8535, 
			 "electric_dipole_moment_norm": 3.60780362409, 
			 "electric_quadrupole_moment_norm": 20.4959860948, 
			 "total_energy": -731.930806074, 
			 "HOMO_LUMO_gap": 0.2199, 
			 "cosmo_polarized_energy": -11.65, 
			 "cosmo_cavitation_energy": 36.52, 
			 "cosmo_dispersion_energy": -24.7, 
			 "cosmo_repulsion_energy": 1.98, 
			 "cosmo_total_nonelectrostatic_energy": 13.8, 
			 "SMD_solvation_energy": 7.63 
		},
		"coords": [
			{
				"x": 2.1301668295,
				"y": -1.8574767455,
				"z": -2.262473463,
				"element": "C" 
			},
			{
				"x": 0.7972560843,
				"y": -1.8631955867,
				"z": -1.4903535027,
				"element": "C" 
			},
			{
				"x": 0.6705743279,
				"y": -3.1230333773,
				"z": -0.6132136271,
				"element": "C" 
			},
			{
				"x": 0.6093637464,
				"y": -0.5877452852,
				"z": -0.6784453695,
				"element": "C" 
			},
			{
				"x": -0.460704979,
				"y": 0.2736845459,
				"z": -0.9599367298,
				"element": "C" 
			},
			{
				"x": -0.6447115494,
				"y": 1.4452848243,
				"z": -0.2225868883,
				"element": "C" 
			},
			{
				"x": -1.6927660586,
				"y": 2.3303774117,
				"z": -0.4420025834,
				"element": "O" 
			},
			{
				"x": -2.3984282977,
				"y": 2.2818028679,
				"z": -1.6886297833,
				"element": "C" 
			},
			{
				"x": -2.9651250125,
				"y": 3.6764735804,
				"z": -1.9504100251,
				"element": "C" 
			},
			{
				"x": -3.5397268036,
				"y": 1.2516479674,
				"z": -1.6350220271,
				"element": "C" 
			},
			{
				"x": -3.9284578319,
				"y": 0.9076614357,
				"z": -0.3926267413,
				"element": "O" 
			},
			{
				"x": -4.0763903254,
				"y": 0.8266275112,
				"z": -2.6286169178,
				"element": "O" 
			},
			{
				"x": 0.2218677434,
				"y": 1.7974126845,
				"z": 0.8261886603,
				"element": "C" 
			},
			{
				"x": 0.0053680329,
				"y": 3.0648236095,
				"z": 1.6134123001,
				"element": "C" 
			},
			{
				"x": 1.2802182993,
				"y": 0.9264101272,
				"z": 1.0954735586,
				"element": "C" 
			},
			{
				"x": 1.4794605463,
				"y": -0.2431797374,
				"z": 0.3610880021,
				"element": "C" 
			},
			{
				"x": 2.2080204726,
				"y": -0.9813668622,
				"z": -2.9137600059,
				"element": "H" 
			},
			{
				"x": 2.9857408997,
				"y": -1.8417852913,
				"z": -1.5784400341,
				"element": "H" 
			},
			{
				"x": 2.2189349381,
				"y": -2.754414033,
				"z": -2.8850216538,
				"element": "H" 
			},
			{
				"x": -0.0119687943,
				"y": -1.8964742325,
				"z": -2.231424682,
				"element": "H" 
			},
			{
				"x": -0.291058088,
				"y": -3.1477361217,
				"z": -0.09158358,
				"element": "H" 
			},
			{
				"x": 0.7501574867,
				"y": -4.0281471514,
				"z": -1.225068551,
				"element": "H" 
			},
			{
				"x": 1.4623457018,
				"y": -3.1622334464,
				"z": 0.1429238459,
				"element": "H" 
			},
			{
				"x": -1.1507462364,
				"y": 0.0044902102,
				"z": -1.7529536437,
				"element": "H" 
			},
			{
				"x": -1.7232470922,
				"y": 1.991831978,
				"z": -2.499117551,
				"element": "H" 
			},
			{
				"x": -2.1510549328,
				"y": 4.4000665727,
				"z": -2.0371265821,
				"element": "H" 
			},
			{
				"x": -3.621200969,
				"y": 3.9847637276,
				"z": -1.1311134999,
				"element": "H" 
			},
			{
				"x": -3.541823264,
				"y": 3.6689888715,
				"z": -2.8782428229,
				"element": "H" 
			},
			{
				"x": -3.3271744459,
				"y": 1.3506189668,
				"z": 0.2330401861,
				"element": "H" 
			},
			{
				"x": -0.9485880741,
				"y": 3.0484191901,
				"z": 2.1532674082,
				"element": "H" 
			},
			{
				"x": -0.0230942955,
				"y": 3.9418537003,
				"z": 0.9581167101,
				"element": "H" 
			},
			{
				"x": 0.8046789123,
				"y": 3.2069000324,
				"z": 2.3452232545,
				"element": "H" 
			},
			{
				"x": 1.9680212215,
				"y": 1.1773462844,
				"z": 1.8992464019,
				"element": "H" 
			},
			{
				"x": 2.3186918074,
				"y": -0.8876982289,
				"z": 0.605789937,
				"element": "H" 
			}
		],
		 "valence_orbital": [ 
			{
				"type": "occ",
				"energy": -0.3231,
				"method": "rhf"
			},
			{
				"type": "occ",
				"energy": -0.3144,
				"method": "rhf"
			},
			{
				"type": "occ",
				"energy": -0.2694,
				"method": "rhf"
			},
			{
				"type": "occ",
				"energy": -0.24764,
				"method": "rhf"
			},
			{
				"type": "occ",
				"energy": -0.2264,
				"method": "rhf"
			},
			{
				"type": "unocc",
				"energy": -0.0065,
				"method": "rhf"
			},
			{
				"type": "unocc",
				"energy": 0.00057,
				"method": "rhf"
			},
			{
				"type": "unocc",
				"energy": 0.00757,
				"method": "rhf"
			},
			{
				"type": "unocc",
				"energy": 0.0727,
				"method": "rhf"
			},
			{
				"type": "unocc",
				"energy": 0.08467,
				"method": "rhf"
			}
		],
		"cosmo_sigma_profile": { 
			"-0.025": 0.0,
			"-0.024": 0.0,
			"-0.023": 0.0,
			"-0.022": 0.0,
			"-0.021": 0.0,
			"-0.02": 0.0,
			"-0.019": 0.0,
			"-0.018": 0.0,
			"-0.017": 0.0,
			"-0.016": 0.000396856153016,
			"-0.015": 0.328547826579,
			"-0.014": 0.608517194239,
			"-0.013": 0.787298669661,
			"-0.012": 0.566312917315,
			"-0.011": 0.566246984425,
			"-0.01": 1.11667417362,
			"-0.009": 1.27419037164,
			"-0.008": 1.9197520596,
			"-0.007": 4.6042365646,
			"-0.006": 5.90367579527,
			"-0.005": 14.6432520731,
			"-0.004": 21.4813953893,
			"-0.003": 29.8464651766,
			"-0.002": 32.2643771739,
			"-0.001": 31.7583094264,
			"0.0": 29.9290999082,
			"0.001": 28.0170341722,
			"0.002": 16.5163699483,
			"0.003": 10.3248464196,
			"0.004": 9.57987870953,
			"0.005": 9.93947443746,
			"0.006": 8.41554633667,
			"0.007": 3.1877298221,
			"0.008": 3.61938546332,
			"0.009": 3.26533526514,
			"0.01": 4.62259222495,
			"0.011": 4.83355261706,
			"0.012": 4.93896355471,
			"0.013": 1.22484566031,
			"0.014": 0.0,
			"0.015": 0.0,
			"0.016": 0.0,
			"0.017": 0.0,
			"0.018": 0.0,
			"0.019": 0.0,
			"0.02": 0.0,
			"0.021": 0.0,
			"0.022": 0.0,
			"0.023": 0.0,
			"0.024": 0.0,
			"0.025": 0.0
		}
	}
}
