{
	 "smiles": "COC1=CC=C(OC2=CC=C(CO)C=C2)C=C1", 
	 "Tm": 374.15, 
	 "num_atms": 31, 
	 "gaussian": { 
		 "optdone": 1, 
		 "sigma_profile": "yes", 
		 "theory": "DFT", 
		 "functional": "B3LYP", 
		 "basiset": "6-31G**", 
		 "properties": { 
			 "R2extent": 6896.1979, 
			 "electric_dipole_moment_norm": 3.21310733403, 
			 "electric_quadrupole_moment_norm": 11.8569618077, 
			 "total_energy": -767.566280264, 
			 "HOMO_LUMO_gap": 0.19695, 
			 "cosmo_polarized_energy": -11.58, 
			 "cosmo_cavitation_energy": 35.28, 
			 "cosmo_dispersion_energy": -25.51, 
			 "cosmo_repulsion_energy": 1.99, 
			 "cosmo_total_nonelectrostatic_energy": 11.77, 
			 "SMD_solvation_energy": 6.95 
		},
		"coords": [
			{
				"x": -0.0164200063,
				"y": 5.3306644705,
				"z": -2.0291420776,
				"element": "C" 
			},
			{
				"x": 0.7974519203,
				"y": 4.1798919676,
				"z": -1.8738562938,
				"element": "O" 
			},
			{
				"x": 0.500368916,
				"y": 3.311947198,
				"z": -0.8618384306,
				"element": "C" 
			},
			{
				"x": -0.5580689851,
				"y": 3.469495793,
				"z": 0.0396665754,
				"element": "C" 
			},
			{
				"x": -0.7697877845,
				"y": 2.5105797869,
				"z": 1.0360186284,
				"element": "C" 
			},
			{
				"x": 0.0714922897,
				"y": 1.4085547847,
				"z": 1.1389869774,
				"element": "C" 
			},
			{
				"x": -0.1117995411,
				"y": 0.5292637292,
				"z": 2.1968067241,
				"element": "O" 
			},
			{
				"x": -0.4522968817,
				"y": -0.7836520526,
				"z": 1.9524618636,
				"element": "C" 
			},
			{
				"x": -0.9611947885,
				"y": -1.2448394344,
				"z": 0.7355759879,
				"element": "C" 
			},
			{
				"x": -1.3015131131,
				"y": -2.5930051409,
				"z": 0.6059582112,
				"element": "C" 
			},
			{
				"x": -1.1592121552,
				"y": -3.4884123275,
				"z": 1.669667246,
				"element": "C" 
			},
			{
				"x": -1.5645149454,
				"y": -4.9422604611,
				"z": 1.5337728352,
				"element": "C" 
			},
			{
				"x": -0.7242502603,
				"y": -5.8363501302,
				"z": 2.253900273,
				"element": "O" 
			},
			{
				"x": -0.6493182552,
				"y": -3.0030456016,
				"z": 2.8829572511,
				"element": "C" 
			},
			{
				"x": -0.2937704133,
				"y": -1.666430035,
				"z": 3.0272190931,
				"element": "C" 
			},
			{
				"x": 1.1369627595,
				"y": 1.2514209926,
				"z": 0.2444113099,
				"element": "C" 
			},
			{
				"x": 1.3453379727,
				"y": 2.1956529083,
				"z": -0.7520789479,
				"element": "C" 
			},
			{
				"x": 0.0151106368,
				"y": 5.9732078612,
				"z": -1.1394766882,
				"element": "H" 
			},
			{
				"x": 0.3925962583,
				"y": 5.877423406,
				"z": -2.880176555,
				"element": "H" 
			},
			{
				"x": -1.0603524956,
				"y": 5.0642444241,
				"z": -2.2405990091,
				"element": "H" 
			},
			{
				"x": -1.2218782265,
				"y": 4.3235286958,
				"z": -0.02042129,
				"element": "H" 
			},
			{
				"x": -1.5847301803,
				"y": 2.6203806166,
				"z": 1.7439898822,
				"element": "H" 
			},
			{
				"x": -1.0832840173,
				"y": -0.564373695,
				"z": -0.099238748,
				"element": "H" 
			},
			{
				"x": -1.6883011342,
				"y": -2.9481732737,
				"z": -0.3467838384,
				"element": "H" 
			},
			{
				"x": -2.5662282869,
				"y": -5.1012465651,
				"z": 1.9515705557,
				"element": "H" 
			},
			{
				"x": -1.6208384277,
				"y": -5.210701933,
				"z": 0.4665548261,
				"element": "H" 
			},
			{
				"x": 0.1823870974,
				"y": -5.6778997795,
				"z": 1.958238053,
				"element": "H" 
			},
			{
				"x": -0.5219899926,
				"y": -3.6916414648,
				"z": 3.7128968014,
				"element": "H" 
			},
			{
				"x": 0.1052165074,
				"y": -1.2843524101,
				"z": 3.9613483337,
				"element": "H" 
			},
			{
				"x": 1.7958118266,
				"y": 0.3943121113,
				"z": 0.3389954063,
				"element": "H" 
			},
			{
				"x": 2.1653137061,
				"y": 2.0965155587,
				"z": -1.4556849562,
				"element": "H" 
			}
		],
		 "valence_orbital": [ 
			{
				"type": "occ",
				"energy": -0.27121,
				"method": "rhf"
			},
			{
				"type": "occ",
				"energy": -0.25895,
				"method": "rhf"
			},
			{
				"type": "occ",
				"energy": -0.24982,
				"method": "rhf"
			},
			{
				"type": "occ",
				"energy": -0.22621,
				"method": "rhf"
			},
			{
				"type": "occ",
				"energy": -0.20899,
				"method": "rhf"
			},
			{
				"type": "unocc",
				"energy": -0.01204,
				"method": "rhf"
			},
			{
				"type": "unocc",
				"energy": 0.00046,
				"method": "rhf"
			},
			{
				"type": "unocc",
				"energy": 0.00437,
				"method": "rhf"
			},
			{
				"type": "unocc",
				"energy": 0.01484,
				"method": "rhf"
			},
			{
				"type": "unocc",
				"energy": 0.08716,
				"method": "rhf"
			}
		],
		"cosmo_sigma_profile": { 
			"-0.025": 0.0,
			"-0.024": 0.0,
			"-0.023": 0.0,
			"-0.022": 0.0,
			"-0.021": 0.0,
			"-0.02": 0.0,
			"-0.019": 0.0,
			"-0.018": 0.0,
			"-0.017": 0.0,
			"-0.016": 0.071428573435,
			"-0.015": 0.654418528174,
			"-0.014": 0.859808929314,
			"-0.013": 1.00892722334,
			"-0.012": 0.879296976216,
			"-0.011": 0.818448623798,
			"-0.01": 0.343566682769,
			"-0.009": 0.448088689231,
			"-0.008": 1.22794304933,
			"-0.007": 3.41695479213,
			"-0.006": 14.2524772356,
			"-0.005": 25.6775760928,
			"-0.004": 27.8483738879,
			"-0.003": 24.9432236846,
			"-0.002": 19.8160701029,
			"-0.001": 16.3841086157,
			"0.0": 17.531321114,
			"0.001": 15.5398399822,
			"0.002": 17.0187656957,
			"0.003": 21.7683343473,
			"0.004": 24.3163534916,
			"0.005": 17.0503005461,
			"0.006": 7.72748503948,
			"0.007": 3.41488001063,
			"0.008": 3.62219908044,
			"0.009": 3.47829851728,
			"0.01": 3.70442043671,
			"0.011": 1.21841092682,
			"0.012": 1.08409644003,
			"0.013": 2.08597719534,
			"0.014": 1.88622464588,
			"0.015": 0.328372757231,
			"0.016": 0.0,
			"0.017": 0.0,
			"0.018": 0.0,
			"0.019": 0.0,
			"0.02": 0.0,
			"0.021": 0.0,
			"0.022": 0.0,
			"0.023": 0.0,
			"0.024": 0.0,
			"0.025": 0.0
		}
	}
}
