{
	 "smiles": "CC(C)NC1=NN=C(S)S1", 
	 "Tm": 468.15, 
	 "num_atms": 19, 
	 "gaussian": { 
		 "optdone": 1, 
		 "sigma_profile": "yes", 
		 "theory": "DFT", 
		 "functional": "B3LYP", 
		 "basiset": "6-31G**", 
		 "properties": { 
			 "R2extent": 3467.3302, 
			 "electric_dipole_moment_norm": 4.97714249444, 
			 "electric_quadrupole_moment_norm": 17.0221112894, 
			 "total_energy": -1156.55372791, 
			 "HOMO_LUMO_gap": 0.19186, 
			 "cosmo_polarized_energy": -13.73, 
			 "cosmo_cavitation_energy": 26.02, 
			 "cosmo_dispersion_energy": -19.88, 
			 "cosmo_repulsion_energy": 1.54, 
			 "cosmo_total_nonelectrostatic_energy": 7.69, 
			 "SMD_solvation_energy": 1.43 
		},
		"coords": [
			{
				"x": 1.6842397645,
				"y": 1.0705850304,
				"z": 1.1546923459,
				"element": "C" 
			},
			{
				"x": 1.0784327379,
				"y": 0.428359829,
				"z": -0.1027238294,
				"element": "C" 
			},
			{
				"x": 2.0995894114,
				"y": 0.3017697257,
				"z": -1.2360018685,
				"element": "C" 
			},
			{
				"x": 0.5092047612,
				"y": -0.8979853275,
				"z": 0.1658232213,
				"element": "N" 
			},
			{
				"x": -0.6530966422,
				"y": -1.1146647116,
				"z": 0.8394444011,
				"element": "C" 
			},
			{
				"x": -0.9231906322,
				"y": -2.25837847,
				"z": 1.4337477498,
				"element": "N" 
			},
			{
				"x": -2.1850923862,
				"y": -2.3041250118,
				"z": 1.9450162192,
				"element": "N" 
			},
			{
				"x": -2.869125493,
				"y": -1.2159735165,
				"z": 1.7753386902,
				"element": "C" 
			},
			{
				"x": -4.478620347,
				"y": -0.9576294111,
				"z": 2.4640951848,
				"element": "S" 
			},
			{
				"x": -1.9678747322,
				"y": 0.0570964342,
				"z": 0.9175402497,
				"element": "S" 
			},
			{
				"x": 2.5280152311,
				"y": 0.4763209121,
				"z": 1.5226878556,
				"element": "H" 
			},
			{
				"x": 0.9438156181,
				"y": 1.144544906,
				"z": 1.9563751109,
				"element": "H" 
			},
			{
				"x": 2.0497942986,
				"y": 2.0790239777,
				"z": 0.9350081012,
				"element": "H" 
			},
			{
				"x": 0.2500278358,
				"y": 1.0547494829,
				"z": -0.4571485181,
				"element": "H" 
			},
			{
				"x": 2.510846879,
				"y": 1.282472415,
				"z": -1.4907296145,
				"element": "H" 
			},
			{
				"x": 2.9367355269,
				"y": -0.3397532539,
				"z": -0.9350778085,
				"element": "H" 
			},
			{
				"x": 1.6412784157,
				"y": -0.1288570032,
				"z": -2.1301913585,
				"element": "H" 
			},
			{
				"x": 1.1706351358,
				"y": -1.6558499588,
				"z": 0.2956521242,
				"element": "H" 
			},
			{
				"x": -5.1364153832,
				"y": -0.7999060486,
				"z": 1.2946517435,
				"element": "H" 
			}
		],
		 "valence_orbital": [ 
			{
				"type": "occ",
				"energy": -0.30234,
				"method": "rhf"
			},
			{
				"type": "occ",
				"energy": -0.29272,
				"method": "rhf"
			},
			{
				"type": "occ",
				"energy": -0.26856,
				"method": "rhf"
			},
			{
				"type": "occ",
				"energy": -0.25596,
				"method": "rhf"
			},
			{
				"type": "occ",
				"energy": -0.22275,
				"method": "rhf"
			},
			{
				"type": "unocc",
				"energy": -0.03089,
				"method": "rhf"
			},
			{
				"type": "unocc",
				"energy": -0.0053,
				"method": "rhf"
			},
			{
				"type": "unocc",
				"energy": 0.02427,
				"method": "rhf"
			},
			{
				"type": "unocc",
				"energy": 0.04418,
				"method": "rhf"
			},
			{
				"type": "unocc",
				"energy": 0.05517,
				"method": "rhf"
			}
		],
		"cosmo_sigma_profile": { 
			"-0.025": 0.0,
			"-0.024": 0.0,
			"-0.023": 0.0,
			"-0.022": 0.0,
			"-0.021": 0.0,
			"-0.02": 0.0,
			"-0.019": 0.0,
			"-0.018": 0.0,
			"-0.017": 0.0,
			"-0.016": 0.0,
			"-0.015": 0.0,
			"-0.014": 0.450629995256,
			"-0.013": 1.115126518,
			"-0.012": 1.08834543745,
			"-0.011": 3.93613931763,
			"-0.01": 3.29654010857,
			"-0.009": 3.03231433668,
			"-0.008": 2.60209453764,
			"-0.007": 2.45176629674,
			"-0.006": 5.34832487755,
			"-0.005": 6.44514780308,
			"-0.004": 15.2902260826,
			"-0.003": 19.3386952395,
			"-0.002": 20.8318173435,
			"-0.001": 22.2764408204,
			"0.0": 25.3832052118,
			"0.001": 17.1745344826,
			"0.002": 9.9474409439,
			"0.003": 7.76582246605,
			"0.004": 5.87037647523,
			"0.005": 4.62209388617,
			"0.006": 5.54761203358,
			"0.007": 4.07079185149,
			"0.008": 4.19664767178,
			"0.009": 2.57872723907,
			"0.01": 2.05843258542,
			"0.011": 2.90355673182,
			"0.012": 3.95684926381,
			"0.013": 2.891387873,
			"0.014": 2.52934897119,
			"0.015": 1.25083418851,
			"0.016": 0.0914267340703,
			"0.017": 0.0,
			"0.018": 0.0,
			"0.019": 0.0,
			"0.02": 0.0,
			"0.021": 0.0,
			"0.022": 0.0,
			"0.023": 0.0,
			"0.024": 0.0,
			"0.025": 0.0
		}
	}
}
