{
	 "smiles": "NC1=CC=C(CCCC(O)=O)C=C1", 
	 "Tm": 395.15, 
	 "num_atms": 26, 
	 "gaussian": { 
		 "optdone": 1, 
		 "sigma_profile": "yes", 
		 "theory": "DFT", 
		 "functional": "B3LYP", 
		 "basiset": "6-31G**", 
		 "properties": { 
			 "R2extent": 3110.157, 
			 "electric_dipole_moment_norm": 4.55388244359, 
			 "electric_quadrupole_moment_norm": 25.779718738, 
			 "total_energy": -594.118229839, 
			 "HOMO_LUMO_gap": 0.19803, 
			 "cosmo_polarized_energy": -16.46, 
			 "cosmo_cavitation_energy": 28.88, 
			 "cosmo_dispersion_energy": -20.45, 
			 "cosmo_repulsion_energy": 1.64, 
			 "cosmo_total_nonelectrostatic_energy": 10.06, 
			 "SMD_solvation_energy": 5.41 
		},
		"coords": [
			{
				"x": -2.0750968524,
				"y": -2.8371371062,
				"z": -2.8733015884,
				"element": "N" 
			},
			{
				"x": -1.2231500017,
				"y": -1.9412702998,
				"z": -2.2341236019,
				"element": "C" 
			},
			{
				"x": -0.6978296171,
				"y": -0.8297845151,
				"z": -2.9151550427,
				"element": "C" 
			},
			{
				"x": 0.1945521117,
				"y": 0.0329359662,
				"z": -2.2830039839,
				"element": "C" 
			},
			{
				"x": 0.599620215,
				"y": -0.1651786156,
				"z": -0.9533245973,
				"element": "C" 
			},
			{
				"x": 1.5583784127,
				"y": 0.7819994949,
				"z": -0.260222264,
				"element": "C" 
			},
			{
				"x": 0.909528468,
				"y": 1.7460616548,
				"z": 0.7600606677,
				"element": "C" 
			},
			{
				"x": -0.0936991132,
				"y": 2.767364427,
				"z": 0.1560859255,
				"element": "C" 
			},
			{
				"x": -1.5656152414,
				"y": 2.5060301573,
				"z": 0.4660210603,
				"element": "C" 
			},
			{
				"x": -2.0382438977,
				"y": 1.2735159931,
				"z": 0.1607640681,
				"element": "O" 
			},
			{
				"x": -2.2991608133,
				"y": 3.3336135495,
				"z": 0.951944895,
				"element": "O" 
			},
			{
				"x": 0.074622586,
				"y": -1.285965542,
				"z": -0.2849749532,
				"element": "C" 
			},
			{
				"x": -0.8175708043,
				"y": -2.1556422454,
				"z": -0.9035066573,
				"element": "C" 
			},
			{
				"x": -2.5807574647,
				"y": -2.4682430122,
				"z": -3.6664674405,
				"element": "H" 
			},
			{
				"x": -2.6667088093,
				"y": -3.3860311497,
				"z": -2.26533644,
				"element": "H" 
			},
			{
				"x": -0.9885949601,
				"y": -0.6462904866,
				"z": -3.9464191818,
				"element": "H" 
			},
			{
				"x": 0.5900661294,
				"y": 0.8792275386,
				"z": -2.8397785887,
				"element": "H" 
			},
			{
				"x": 2.0861098379,
				"y": 1.3765073434,
				"z": -1.0160541156,
				"element": "H" 
			},
			{
				"x": 2.3270148929,
				"y": 0.2005928012,
				"z": 0.26433426,
				"element": "H" 
			},
			{
				"x": 1.7143698335,
				"y": 2.3028254616,
				"z": 1.2517535722,
				"element": "H" 
			},
			{
				"x": 0.4230218628,
				"y": 1.1644316124,
				"z": 1.5522321047,
				"element": "H" 
			},
			{
				"x": 0.108596633,
				"y": 3.773524687,
				"z": 0.5262898686,
				"element": "H" 
			},
			{
				"x": 0.0189314891,
				"y": 2.8022905636,
				"z": -0.9361166044,
				"element": "H" 
			},
			{
				"x": -1.3479346417,
				"y": 0.7273629255,
				"z": -0.2537463106,
				"element": "H" 
			},
			{
				"x": 0.3695527972,
				"y": -1.4806976023,
				"z": 0.7436719919,
				"element": "H" 
			},
			{
				"x": -1.2029030521,
				"y": -3.0133436014,
				"z": -0.3580270436,
				"element": "H" 
			}
		],
		 "valence_orbital": [ 
			{
				"type": "occ",
				"energy": -0.3126,
				"method": "rhf"
			},
			{
				"type": "occ",
				"energy": -0.29503,
				"method": "rhf"
			},
			{
				"type": "occ",
				"energy": -0.26199,
				"method": "rhf"
			},
			{
				"type": "occ",
				"energy": -0.24984,
				"method": "rhf"
			},
			{
				"type": "occ",
				"energy": -0.2128,
				"method": "rhf"
			},
			{
				"type": "unocc",
				"energy": -0.01477,
				"method": "rhf"
			},
			{
				"type": "unocc",
				"energy": -0.00056,
				"method": "rhf"
			},
			{
				"type": "unocc",
				"energy": 0.0274,
				"method": "rhf"
			},
			{
				"type": "unocc",
				"energy": 0.07198,
				"method": "rhf"
			},
			{
				"type": "unocc",
				"energy": 0.08396,
				"method": "rhf"
			}
		],
		"cosmo_sigma_profile": { 
			"-0.025": 0.0,
			"-0.024": 0.0,
			"-0.023": 0.0,
			"-0.022": 0.0,
			"-0.021": 0.0,
			"-0.02": 0.0,
			"-0.019": 0.0,
			"-0.018": 0.0,
			"-0.017": 0.0,
			"-0.016": 0.0,
			"-0.015": 0.0,
			"-0.014": 0.0,
			"-0.013": 0.431018102823,
			"-0.012": 2.70652958553,
			"-0.011": 2.61886896541,
			"-0.01": 2.62570812774,
			"-0.009": 3.45390971528,
			"-0.008": 3.09562543456,
			"-0.007": 3.00615689359,
			"-0.006": 8.65646422846,
			"-0.005": 17.513700245,
			"-0.004": 25.5505628497,
			"-0.003": 23.6559826543,
			"-0.002": 20.958086934,
			"-0.001": 15.8918506042,
			"0.0": 12.4662650347,
			"0.001": 7.95147652522,
			"0.002": 8.78524489741,
			"0.003": 9.81222228643,
			"0.004": 7.96347653866,
			"0.005": 6.55434561291,
			"0.006": 8.92626679843,
			"0.007": 3.89091476692,
			"0.008": 3.06250065227,
			"0.009": 3.87704745107,
			"0.01": 3.97106240613,
			"0.011": 6.03819077742,
			"0.012": 7.02666177873,
			"0.013": 4.99083075835,
			"0.014": 1.60490792411,
			"0.015": 0.0311360475078,
			"0.016": 0.0,
			"0.017": 0.0,
			"0.018": 0.0,
			"0.019": 0.0,
			"0.02": 0.0,
			"0.021": 0.0,
			"0.022": 0.0,
			"0.023": 0.0,
			"0.024": 0.0,
			"0.025": 0.0
		}
	}
}
