{
	 "smiles": "ClCCCCCCCCCl", 
	 "Tm": 265.15, 
	 "num_atms": 26, 
	 "gaussian": { 
		 "optdone": 1, 
		 "sigma_profile": "yes", 
		 "theory": "DFT", 
		 "functional": "B3LYP", 
		 "basiset": "6-31G**", 
		 "properties": { 
			 "R2extent": 5208.4599, 
			 "electric_dipole_moment_norm": 3.34410777787, 
			 "electric_quadrupole_moment_norm": 18.2385496024, 
			 "total_energy": -1234.90929968, 
			 "HOMO_LUMO_gap": 0.31244, 
			 "cosmo_polarized_energy": -7.29, 
			 "cosmo_cavitation_energy": 30.94, 
			 "cosmo_dispersion_energy": -22.23, 
			 "cosmo_repulsion_energy": 1.87, 
			 "cosmo_total_nonelectrostatic_energy": 10.59, 
			 "SMD_solvation_energy": 3.75 
		},
		"coords": [
			{
				"x": -0.2570270308,
				"y": -2.6670602857,
				"z": -4.1053498164,
				"element": "Cl" 
			},
			{
				"x": 0.6924260703,
				"y": -3.7458744876,
				"z": -2.9812100835,
				"element": "C" 
			},
			{
				"x": 1.482987341,
				"y": -2.9580358047,
				"z": -1.9441683968,
				"element": "C" 
			},
			{
				"x": 0.6169331161,
				"y": -2.2054210285,
				"z": -0.9255953938,
				"element": "C" 
			},
			{
				"x": 1.4152775175,
				"y": -1.4802956411,
				"z": 0.171479544,
				"element": "C" 
			},
			{
				"x": 2.2429126683,
				"y": -0.2866520548,
				"z": -0.3293062386,
				"element": "C" 
			},
			{
				"x": 3.0629556454,
				"y": 0.4224610135,
				"z": 0.7647075207,
				"element": "C" 
			},
			{
				"x": 2.2603103961,
				"y": 1.0766120972,
				"z": 1.9067392679,
				"element": "C" 
			},
			{
				"x": 1.373221121,
				"y": 2.2188150826,
				"z": 1.426561946,
				"element": "C" 
			},
			{
				"x": 0.5070954621,
				"y": 3.0204338962,
				"z": 2.8133690732,
				"element": "Cl" 
			},
			{
				"x": -0.0397934086,
				"y": -4.4097197098,
				"z": -2.5165341478,
				"element": "H" 
			},
			{
				"x": 1.3483893102,
				"y": -4.3341005163,
				"z": -3.6244305888,
				"element": "H" 
			},
			{
				"x": 2.1623229142,
				"y": -2.2737760878,
				"z": -2.4638992485,
				"element": "H" 
			},
			{
				"x": 2.1164566708,
				"y": -3.6861307747,
				"z": -1.4156937408,
				"element": "H" 
			},
			{
				"x": -0.0181250693,
				"y": -1.4840547509,
				"z": -1.4539278668,
				"element": "H" 
			},
			{
				"x": -0.0651756167,
				"y": -2.9232930521,
				"z": -0.4504420876,
				"element": "H" 
			},
			{
				"x": 2.0807128421,
				"y": -2.1964794709,
				"z": 0.6755408168,
				"element": "H" 
			},
			{
				"x": 0.7074062439,
				"y": -1.1380764951,
				"z": 0.9362942879,
				"element": "H" 
			},
			{
				"x": 1.5759203995,
				"y": 0.4290506378,
				"z": -0.8291213431,
				"element": "H" 
			},
			{
				"x": 2.9436841987,
				"y": -0.6239196666,
				"z": -1.1026884654,
				"element": "H" 
			},
			{
				"x": 3.7541493613,
				"y": -0.3029239674,
				"z": 1.2134795176,
				"element": "H" 
			},
			{
				"x": 3.6948057746,
				"y": 1.1871329246,
				"z": 0.2933506845,
				"element": "H" 
			},
			{
				"x": 2.9598234318,
				"y": 1.4681593029,
				"z": 2.6533610804,
				"element": "H" 
			},
			{
				"x": 1.6424601543,
				"y": 0.3334018354,
				"z": 2.4219126378,
				"element": "H" 
			},
			{
				"x": 0.5913693927,
				"y": 1.8832738999,
				"z": 0.7441408372,
				"element": "H" 
			},
			{
				"x": 1.9543010936,
				"y": 3.0038731037,
				"z": 0.9379302041,
				"element": "H" 
			}
		],
		 "valence_orbital": [ 
			{
				"type": "occ",
				"energy": -0.3191,
				"method": "rhf"
			},
			{
				"type": "occ",
				"energy": -0.29445,
				"method": "rhf"
			},
			{
				"type": "occ",
				"energy": -0.29197,
				"method": "rhf"
			},
			{
				"type": "occ",
				"energy": -0.29092,
				"method": "rhf"
			},
			{
				"type": "occ",
				"energy": -0.28925,
				"method": "rhf"
			},
			{
				"type": "unocc",
				"energy": 0.02319,
				"method": "rhf"
			},
			{
				"type": "unocc",
				"energy": 0.02563,
				"method": "rhf"
			},
			{
				"type": "unocc",
				"energy": 0.07898,
				"method": "rhf"
			},
			{
				"type": "unocc",
				"energy": 0.08948,
				"method": "rhf"
			},
			{
				"type": "unocc",
				"energy": 0.09738,
				"method": "rhf"
			}
		],
		"cosmo_sigma_profile": { 
			"-0.025": 0.0,
			"-0.024": 0.0,
			"-0.023": 0.0,
			"-0.022": 0.0,
			"-0.021": 0.0,
			"-0.02": 0.0,
			"-0.019": 0.0,
			"-0.018": 0.0,
			"-0.017": 0.0,
			"-0.016": 0.0,
			"-0.015": 0.0,
			"-0.014": 0.0,
			"-0.013": 0.0,
			"-0.012": 0.0,
			"-0.011": 0.0,
			"-0.01": 0.0,
			"-0.009": 0.0,
			"-0.008": 0.0,
			"-0.007": 1.06355614086,
			"-0.006": 8.43848941326,
			"-0.005": 10.6805568904,
			"-0.004": 18.5776306271,
			"-0.003": 30.5197025605,
			"-0.002": 31.1277006618,
			"-0.001": 31.2926179009,
			"0.0": 25.7847591653,
			"0.001": 16.1477275599,
			"0.002": 10.7032614541,
			"0.003": 7.91142821406,
			"0.004": 8.54978467365,
			"0.005": 8.66461137325,
			"0.006": 14.102054563,
			"0.007": 19.192639783,
			"0.008": 1.30177053688,
			"0.009": 0.0,
			"0.01": 0.0,
			"0.011": 0.0,
			"0.012": 0.0,
			"0.013": 0.0,
			"0.014": 0.0,
			"0.015": 0.0,
			"0.016": 0.0,
			"0.017": 0.0,
			"0.018": 0.0,
			"0.019": 0.0,
			"0.02": 0.0,
			"0.021": 0.0,
			"0.022": 0.0,
			"0.023": 0.0,
			"0.024": 0.0,
			"0.025": 0.0
		}
	}
}
