{
	 "smiles": "N#CC(=C/C1=CC=CC=C1)C1=NC2=C(S1)C=CC=C2", 
	 "Tm": 378.15, 
	 "num_atms": 29, 
	 "gaussian": { 
		 "optdone": 1, 
		 "sigma_profile": "yes", 
		 "theory": "DFT", 
		 "functional": "B3LYP", 
		 "basiset": "6-31G**", 
		 "properties": { 
			 "R2extent": 7623.7546, 
			 "electric_dipole_moment_norm": 3.32747929069, 
			 "electric_quadrupole_moment_norm": 21.3459798852, 
			 "total_energy": -1123.40221559, 
			 "HOMO_LUMO_gap": 0.13075, 
			 "cosmo_polarized_energy": -10.22, 
			 "cosmo_cavitation_energy": 36.45, 
			 "cosmo_dispersion_energy": -26.64, 
			 "cosmo_repulsion_energy": 1.96, 
			 "cosmo_total_nonelectrostatic_energy": 11.77, 
			 "SMD_solvation_energy": 5.22 
		},
		"coords": [
			{
				"x": 1.6908010017,
				"y": -1.9852604757,
				"z": -1.8348287884,
				"element": "N" 
			},
			{
				"x": 0.9617271821,
				"y": -1.5392802954,
				"z": -1.0435683963,
				"element": "C" 
			},
			{
				"x": 0.0508964116,
				"y": -0.9612280082,
				"z": -0.1037749062,
				"element": "C" 
			},
			{
				"x": -0.0768828716,
				"y": -1.3774891083,
				"z": 1.1904371741,
				"element": "C" 
			},
			{
				"x": 0.5925002356,
				"y": -2.4224744226,
				"z": 1.9484934947,
				"element": "C" 
			},
			{
				"x": 0.1993493444,
				"y": -2.5740578729,
				"z": 3.2969039458,
				"element": "C" 
			},
			{
				"x": 0.7748826328,
				"y": -3.5423423429,
				"z": 4.1124812979,
				"element": "C" 
			},
			{
				"x": 1.7614491902,
				"y": -4.3863845535,
				"z": 3.5982634663,
				"element": "C" 
			},
			{
				"x": 2.1641502874,
				"y": -4.2520964829,
				"z": 2.2659318468,
				"element": "C" 
			},
			{
				"x": 1.5917299215,
				"y": -3.2852519139,
				"z": 1.4460522635,
				"element": "C" 
			},
			{
				"x": -0.7831664678,
				"y": 0.1478929045,
				"z": -0.5976462133,
				"element": "C" 
			},
			{
				"x": -1.656995007,
				"y": 0.7743903608,
				"z": 0.1322608909,
				"element": "N" 
			},
			{
				"x": -2.2938603037,
				"y": 1.7672078348,
				"z": -0.5841043798,
				"element": "C" 
			},
			{
				"x": -1.8795922716,
				"y": 1.9013171546,
				"z": -1.9339191683,
				"element": "C" 
			},
			{
				"x": -0.6396662895,
				"y": 0.7161043354,
				"z": -2.2800460634,
				"element": "S" 
			},
			{
				"x": -2.439621543,
				"y": 2.865402556,
				"z": -2.776044978,
				"element": "C" 
			},
			{
				"x": -3.4238688091,
				"y": 3.699395772,
				"z": -2.2526962246,
				"element": "C" 
			},
			{
				"x": -3.8439173318,
				"y": 3.5768979156,
				"z": -0.9153553634,
				"element": "C" 
			},
			{
				"x": -3.2885313981,
				"y": 2.6194875813,
				"z": -0.0772127009,
				"element": "C" 
			},
			{
				"x": -0.8215228852,
				"y": -0.8144831553,
				"z": 1.7484482504,
				"element": "H" 
			},
			{
				"x": -0.5683003836,
				"y": -1.9176849691,
				"z": 3.6977960963,
				"element": "H" 
			},
			{
				"x": 0.4556240127,
				"y": -3.6390792121,
				"z": 5.1457916816,
				"element": "H" 
			},
			{
				"x": 2.2145647349,
				"y": -5.1444679679,
				"z": 4.2303570859,
				"element": "H" 
			},
			{
				"x": 2.9309341439,
				"y": -4.9065816023,
				"z": 1.8624341771,
				"element": "H" 
			},
			{
				"x": 1.9220886392,
				"y": -3.2031401268,
				"z": 0.4186076277,
				"element": "H" 
			},
			{
				"x": -2.1190569231,
				"y": 2.96381406,
				"z": -3.808117495,
				"element": "H" 
			},
			{
				"x": -3.8733977471,
				"y": 4.4560571173,
				"z": -2.8885965794,
				"element": "H" 
			},
			{
				"x": -4.6136635176,
				"y": 4.2417903837,
				"z": -0.5354611463,
				"element": "H" 
			},
			{
				"x": -3.6022539882,
				"y": 2.513244534,
				"z": 0.9559131043,
				"element": "H" 
			}
		],
		 "valence_orbital": [ 
			{
				"type": "occ",
				"energy": -0.28514,
				"method": "rhf"
			},
			{
				"type": "occ",
				"energy": -0.26742,
				"method": "rhf"
			},
			{
				"type": "occ",
				"energy": -0.26624,
				"method": "rhf"
			},
			{
				"type": "occ",
				"energy": -0.24015,
				"method": "rhf"
			},
			{
				"type": "occ",
				"energy": -0.22384,
				"method": "rhf"
			},
			{
				"type": "unocc",
				"energy": -0.09309,
				"method": "rhf"
			},
			{
				"type": "unocc",
				"energy": -0.02491,
				"method": "rhf"
			},
			{
				"type": "unocc",
				"energy": -0.01547,
				"method": "rhf"
			},
			{
				"type": "unocc",
				"energy": -0.01046,
				"method": "rhf"
			},
			{
				"type": "unocc",
				"energy": -0.00094,
				"method": "rhf"
			}
		],
		"cosmo_sigma_profile": { 
			"-0.025": 0.0,
			"-0.024": 0.0,
			"-0.023": 0.0,
			"-0.022": 0.0,
			"-0.021": 0.0,
			"-0.02": 0.0,
			"-0.019": 0.0,
			"-0.018": 0.0,
			"-0.017": 0.0,
			"-0.016": 0.0,
			"-0.015": 0.0,
			"-0.014": 0.0,
			"-0.013": 0.0,
			"-0.012": 0.0,
			"-0.011": 0.0,
			"-0.01": 0.0,
			"-0.009": 0.45557285837,
			"-0.008": 2.77133014122,
			"-0.007": 8.83217210845,
			"-0.006": 18.8721722617,
			"-0.005": 20.0191020013,
			"-0.004": 20.0775710793,
			"-0.003": 17.7148079384,
			"-0.002": 22.8498695169,
			"-0.001": 22.8294595637,
			"0.0": 25.6612403181,
			"0.001": 27.4180515846,
			"0.002": 27.9303949159,
			"0.003": 31.2700601899,
			"0.004": 21.5559516617,
			"0.005": 6.49506402811,
			"0.006": 3.44743712451,
			"0.007": 3.35347458523,
			"0.008": 3.61733843846,
			"0.009": 4.50566637463,
			"0.01": 3.2297742572,
			"0.011": 2.94833866418,
			"0.012": 1.78729751988,
			"0.013": 0.327705118183,
			"0.014": 0.0,
			"0.015": 0.0,
			"0.016": 0.0,
			"0.017": 0.0,
			"0.018": 0.0,
			"0.019": 0.0,
			"0.02": 0.0,
			"0.021": 0.0,
			"0.022": 0.0,
			"0.023": 0.0,
			"0.024": 0.0,
			"0.025": 0.0
		}
	}
}
