{
	 "smiles": "CCCC(=O)C1=C(O)C=CC=C1", 
	 "Tm": 283.15, 
	 "num_atms": 24, 
	 "gaussian": { 
		 "optdone": 1, 
		 "sigma_profile": "yes", 
		 "theory": "DFT", 
		 "functional": "B3LYP", 
		 "basiset": "6-31G**", 
		 "properties": { 
			 "R2extent": 2621.5288, 
			 "electric_dipole_moment_norm": 2.96031184844, 
			 "electric_quadrupole_moment_norm": 6.51592339964, 
			 "total_energy": -538.76574274, 
			 "HOMO_LUMO_gap": 0.16422, 
			 "cosmo_polarized_energy": -7.2, 
			 "cosmo_cavitation_energy": 26.69, 
			 "cosmo_dispersion_energy": -19.89, 
			 "cosmo_repulsion_energy": 1.58, 
			 "cosmo_total_nonelectrostatic_energy": 8.39, 
			 "SMD_solvation_energy": 5.09 
		},
		"coords": [
			{
				"x": 2.085977683,
				"y": 0.5262745428,
				"z": -3.4829427652,
				"element": "C" 
			},
			{
				"x": 2.650805852,
				"y": 0.1956281332,
				"z": -2.0970753398,
				"element": "C" 
			},
			{
				"x": 1.6469508832,
				"y": 0.405481304,
				"z": -0.9564042024,
				"element": "C" 
			},
			{
				"x": 0.5407330404,
				"y": -0.6407592395,
				"z": -0.8953542486,
				"element": "C" 
			},
			{
				"x": 0.5963789388,
				"y": -1.6281269986,
				"z": -1.6480696372,
				"element": "O" 
			},
			{
				"x": -0.5667311234,
				"y": -0.4902548191,
				"z": 0.0633430196,
				"element": "C" 
			},
			{
				"x": -1.5865305305,
				"y": -1.4852989081,
				"z": 0.1088484458,
				"element": "C" 
			},
			{
				"x": -1.5768529652,
				"y": -2.5578510659,
				"z": -0.6909175731,
				"element": "O" 
			},
			{
				"x": -2.6493137206,
				"y": -1.3517570683,
				"z": 1.020364163,
				"element": "C" 
			},
			{
				"x": -2.7037032377,
				"y": -0.2617043033,
				"z": 1.8740288852,
				"element": "C" 
			},
			{
				"x": -1.7050532638,
				"y": 0.7264721655,
				"z": 1.846828537,
				"element": "C" 
			},
			{
				"x": -0.656540837,
				"y": 0.6050733389,
				"z": 0.9503069543,
				"element": "C" 
			},
			{
				"x": 1.7484183443,
				"y": 1.5682847506,
				"z": -3.5355637983,
				"element": "H" 
			},
			{
				"x": 1.2383972552,
				"y": -0.1199462772,
				"z": -3.7254213821,
				"element": "H" 
			},
			{
				"x": 2.8464358584,
				"y": 0.3858368096,
				"z": -4.2577920119,
				"element": "H" 
			},
			{
				"x": 3.525859612,
				"y": 0.8259714463,
				"z": -1.8986456327,
				"element": "H" 
			},
			{
				"x": 2.9958789906,
				"y": -0.8430542957,
				"z": -2.0790690852,
				"element": "H" 
			},
			{
				"x": 1.1914285297,
				"y": 1.4015799577,
				"z": -1.0273157269,
				"element": "H" 
			},
			{
				"x": 2.1623615111,
				"y": 0.3859197185,
				"z": 0.0141994595,
				"element": "H" 
			},
			{
				"x": -0.7581518596,
				"y": -2.4787306447,
				"z": -1.2485637513,
				"element": "H" 
			},
			{
				"x": -3.4115442731,
				"y": -2.1235831437,
				"z": 1.0302561498,
				"element": "H" 
			},
			{
				"x": -3.5308189077,
				"y": -0.1732943213,
				"z": 2.5730901549,
				"element": "H" 
			},
			{
				"x": -1.7550826781,
				"y": 1.5757536887,
				"z": 2.5202025237,
				"element": "H" 
			},
			{
				"x": 0.1143968979,
				"y": 1.3679852296,
				"z": 0.931366862,
				"element": "H" 
			}
		],
		 "valence_orbital": [ 
			{
				"type": "occ",
				"energy": -0.33843,
				"method": "rhf"
			},
			{
				"type": "occ",
				"energy": -0.33592,
				"method": "rhf"
			},
			{
				"type": "occ",
				"energy": -0.26431,
				"method": "rhf"
			},
			{
				"type": "occ",
				"energy": -0.26249,
				"method": "rhf"
			},
			{
				"type": "occ",
				"energy": -0.22643,
				"method": "rhf"
			},
			{
				"type": "unocc",
				"energy": -0.06221,
				"method": "rhf"
			},
			{
				"type": "unocc",
				"energy": 0.0032,
				"method": "rhf"
			},
			{
				"type": "unocc",
				"energy": 0.03446,
				"method": "rhf"
			},
			{
				"type": "unocc",
				"energy": 0.08563,
				"method": "rhf"
			},
			{
				"type": "unocc",
				"energy": 0.095,
				"method": "rhf"
			}
		],
		"cosmo_sigma_profile": { 
			"-0.025": 0.0,
			"-0.024": 0.0,
			"-0.023": 0.0,
			"-0.022": 0.0,
			"-0.021": 0.0,
			"-0.02": 0.0,
			"-0.019": 0.0,
			"-0.018": 0.0,
			"-0.017": 0.0,
			"-0.016": 0.0,
			"-0.015": 0.0,
			"-0.014": 0.0,
			"-0.013": 0.0,
			"-0.012": 0.0,
			"-0.011": 0.0,
			"-0.01": 0.0,
			"-0.009": 0.0,
			"-0.008": 0.0,
			"-0.007": 2.32947914855,
			"-0.006": 12.4000205452,
			"-0.005": 15.0871660337,
			"-0.004": 12.549217971,
			"-0.003": 17.7590315443,
			"-0.002": 22.4846335128,
			"-0.001": 21.8566895373,
			"0.0": 20.0928120634,
			"0.001": 19.2127724479,
			"0.002": 15.9989796804,
			"0.003": 13.7858133774,
			"0.004": 12.5310114049,
			"0.005": 6.39331987484,
			"0.006": 3.39028370505,
			"0.007": 2.07251770803,
			"0.008": 3.55442236895,
			"0.009": 3.1418298424,
			"0.01": 2.42573966698,
			"0.011": 3.12570396467,
			"0.012": 0.926177377204,
			"0.013": 0.0,
			"0.014": 0.0,
			"0.015": 0.0,
			"0.016": 0.0,
			"0.017": 0.0,
			"0.018": 0.0,
			"0.019": 0.0,
			"0.02": 0.0,
			"0.021": 0.0,
			"0.022": 0.0,
			"0.023": 0.0,
			"0.024": 0.0,
			"0.025": 0.0
		}
	}
}
