{
	 "smiles": "CC(=O)OCCS(=O)(=O)C1=CC=C(S1)S(N)(=O)=O", 
	 "Tm": 388.15, 
	 "num_atms": 29, 
	 "gaussian": { 
		 "optdone": 1, 
		 "sigma_profile": "yes", 
		 "theory": "DFT", 
		 "functional": "B3LYP", 
		 "basiset": "6-31G**", 
		 "properties": { 
			 "R2extent": 6235.2565, 
			 "electric_dipole_moment_norm": 2.66591885285, 
			 "electric_quadrupole_moment_norm": 34.2978425896, 
			 "total_energy": -2011.98765178, 
			 "HOMO_LUMO_gap": 0.19628, 
			 "cosmo_polarized_energy": -26.71, 
			 "cosmo_cavitation_energy": 38.41, 
			 "cosmo_dispersion_energy": -26.93, 
			 "cosmo_repulsion_energy": 1.97, 
			 "cosmo_total_nonelectrostatic_energy": 13.45, 
			 "SMD_solvation_energy": 6.35 
		},
		"coords": [
			{
				"x": 2.7244599505,
				"y": -0.3470965316,
				"z": 1.3765468639,
				"element": "C" 
			},
			{
				"x": 2.6300316205,
				"y": -0.840393512,
				"z": -0.044125669,
				"element": "C" 
			},
			{
				"x": 3.5134920329,
				"y": -0.8237232774,
				"z": -0.8699949851,
				"element": "O" 
			},
			{
				"x": 1.3832813097,
				"y": -1.3269450272,
				"z": -0.313794751,
				"element": "O" 
			},
			{
				"x": 1.1891176385,
				"y": -1.8053582716,
				"z": -1.6553843717,
				"element": "C" 
			},
			{
				"x": -0.2199616079,
				"y": -2.3588972174,
				"z": -1.7575051417,
				"element": "C" 
			},
			{
				"x": -1.54814869,
				"y": -1.1167446902,
				"z": -1.9412177228,
				"element": "S" 
			},
			{
				"x": -2.797126042,
				"y": -1.8752728507,
				"z": -2.0843038389,
				"element": "O" 
			},
			{
				"x": -1.1069515279,
				"y": -0.1361359054,
				"z": -2.9446015749,
				"element": "O" 
			},
			{
				"x": -1.6295559186,
				"y": -0.2518475704,
				"z": -0.38218651,
				"element": "C" 
			},
			{
				"x": -2.2965921247,
				"y": -0.6725213615,
				"z": 0.741757215,
				"element": "C" 
			},
			{
				"x": -2.1335428222,
				"y": 0.2322231574,
				"z": 1.8245987245,
				"element": "C" 
			},
			{
				"x": -1.3596613442,
				"y": 1.3131690569,
				"z": 1.4760347336,
				"element": "C" 
			},
			{
				"x": -0.8174178411,
				"y": 1.2644999807,
				"z": -0.1707046338,
				"element": "S" 
			},
			{
				"x": -0.8207457824,
				"y": 2.5600575974,
				"z": 2.619300822,
				"element": "S" 
			},
			{
				"x": -1.3325286277,
				"y": 3.9801970193,
				"z": 1.8740625435,
				"element": "N" 
			},
			{
				"x": -1.5634848865,
				"y": 2.3239974246,
				"z": 3.8581386824,
				"element": "O" 
			},
			{
				"x": 0.6427846697,
				"y": 2.6152662986,
				"z": 2.5949294215,
				"element": "O" 
			},
			{
				"x": 2.3245664752,
				"y": -1.0934745036,
				"z": 2.0680438126,
				"element": "H" 
			},
			{
				"x": 2.1330224275,
				"y": 0.565915911,
				"z": 1.5037424701,
				"element": "H" 
			},
			{
				"x": 3.7669955866,
				"y": -0.135258765,
				"z": 1.6121539315,
				"element": "H" 
			},
			{
				"x": 1.3545051937,
				"y": -0.998962439,
				"z": -2.375775599,
				"element": "H" 
			},
			{
				"x": 1.9143031987,
				"y": -2.5970695948,
				"z": -1.8695406157,
				"element": "H" 
			},
			{
				"x": -0.3319471648,
				"y": -2.9484547787,
				"z": -2.6732078246,
				"element": "H" 
			},
			{
				"x": -0.4806427268,
				"y": -2.9874464017,
				"z": -0.9027597667,
				"element": "H" 
			},
			{
				"x": -2.8820826939,
				"y": -1.5832144295,
				"z": 0.7776404848,
				"element": "H" 
			},
			{
				"x": -2.5546471665,
				"y": 0.1081918857,
				"z": 2.8144109465,
				"element": "H" 
			},
			{
				"x": -2.2315592057,
				"y": 4.2872162743,
				"z": 2.2368038632,
				"element": "H" 
			},
			{
				"x": -0.6144639306,
				"y": 4.6917825217,
				"z": 1.9846384899,
				"element": "H" 
			}
		],
		 "valence_orbital": [ 
			{
				"type": "occ",
				"energy": -0.31298,
				"method": "rhf"
			},
			{
				"type": "occ",
				"energy": -0.30298,
				"method": "rhf"
			},
			{
				"type": "occ",
				"energy": -0.28941,
				"method": "rhf"
			},
			{
				"type": "occ",
				"energy": -0.28021,
				"method": "rhf"
			},
			{
				"type": "occ",
				"energy": -0.27747,
				"method": "rhf"
			},
			{
				"type": "unocc",
				"energy": -0.08119,
				"method": "rhf"
			},
			{
				"type": "unocc",
				"energy": -0.00524,
				"method": "rhf"
			},
			{
				"type": "unocc",
				"energy": 0.00273,
				"method": "rhf"
			},
			{
				"type": "unocc",
				"energy": 0.00505,
				"method": "rhf"
			},
			{
				"type": "unocc",
				"energy": 0.01517,
				"method": "rhf"
			}
		],
		"cosmo_sigma_profile": { 
			"-0.025": 0.0,
			"-0.024": 0.0,
			"-0.023": 0.0,
			"-0.022": 0.0,
			"-0.021": 0.0,
			"-0.02": 0.0,
			"-0.019": 0.0,
			"-0.018": 0.0,
			"-0.017": 0.0,
			"-0.016": 0.582084442417,
			"-0.015": 3.08776614551,
			"-0.014": 2.58910422909,
			"-0.013": 2.32291209226,
			"-0.012": 2.99085744788,
			"-0.011": 2.08380277537,
			"-0.01": 5.62162559726,
			"-0.009": 10.1387560584,
			"-0.008": 11.7912459427,
			"-0.007": 10.9181167993,
			"-0.006": 14.3140519223,
			"-0.005": 12.9868763307,
			"-0.004": 13.7521467228,
			"-0.003": 17.1859586086,
			"-0.002": 24.2122575651,
			"-0.001": 26.5662368678,
			"0.0": 19.427630141,
			"0.001": 15.8022490231,
			"0.002": 10.2951358072,
			"0.003": 8.61549438827,
			"0.004": 9.21701360112,
			"0.005": 8.28605770865,
			"0.006": 7.19532205379,
			"0.007": 8.48262304776,
			"0.008": 9.11488447959,
			"0.009": 10.5192409996,
			"0.01": 18.4506525587,
			"0.011": 16.1561904562,
			"0.012": 4.19873491557,
			"0.013": 0.527615640212,
			"0.014": 0.0,
			"0.015": 0.0,
			"0.016": 0.0,
			"0.017": 0.0,
			"0.018": 0.0,
			"0.019": 0.0,
			"0.02": 0.0,
			"0.021": 0.0,
			"0.022": 0.0,
			"0.023": 0.0,
			"0.024": 0.0,
			"0.025": 0.0
		}
	}
}
