{
	 "smiles": "CC1=C2N=C(CCC(O)=O)NC2=CC=C1", 
	 "Tm": 512.15, 
	 "num_atms": 27, 
	 "gaussian": { 
		 "optdone": 1, 
		 "sigma_profile": "yes", 
		 "theory": "DFT", 
		 "functional": "B3LYP", 
		 "basiset": "6-31G**", 
		 "properties": { 
			 "R2extent": 4137.515, 
			 "electric_dipole_moment_norm": 3.85702612255, 
			 "electric_quadrupole_moment_norm": 8.17278464478, 
			 "total_energy": -686.404586105, 
			 "HOMO_LUMO_gap": 0.19227, 
			 "cosmo_polarized_energy": -14.63, 
			 "cosmo_cavitation_energy": 30.77, 
			 "cosmo_dispersion_energy": -22.62, 
			 "cosmo_repulsion_energy": 1.79, 
			 "cosmo_total_nonelectrostatic_energy": 9.94, 
			 "SMD_solvation_energy": 3.95 
		},
		"coords": [
			{
				"x": 0.3155481675,
				"y": 1.364300262,
				"z": -4.4952380861,
				"element": "C" 
			},
			{
				"x": -0.4079501777,
				"y": 0.4983003973,
				"z": -3.4986336855,
				"element": "C" 
			},
			{
				"x": 0.1605143754,
				"y": 0.2166777239,
				"z": -2.2417569436,
				"element": "C" 
			},
			{
				"x": 1.3764153662,
				"y": 0.6385954648,
				"z": -1.7187837887,
				"element": "N" 
			},
			{
				"x": 1.4343318105,
				"y": 0.103044418,
				"z": -0.519307562,
				"element": "C" 
			},
			{
				"x": 2.5798828411,
				"y": 0.2740394545,
				"z": 0.4338399968,
				"element": "C" 
			},
			{
				"x": 2.2687566442,
				"y": 1.1066390848,
				"z": 1.6908606039,
				"element": "C" 
			},
			{
				"x": 1.4332214616,
				"y": 0.3899951061,
				"z": 2.728766858,
				"element": "C" 
			},
			{
				"x": 1.3467616638,
				"y": 1.0994594684,
				"z": 3.8715757545,
				"element": "O" 
			},
			{
				"x": 0.8913608392,
				"y": -0.6928810048,
				"z": 2.6012018808,
				"element": "O" 
			},
			{
				"x": 0.3268815702,
				"y": -0.6569672148,
				"z": -0.2157280134,
				"element": "N" 
			},
			{
				"x": -0.519943178,
				"y": -0.5994662272,
				"z": -1.3066563843,
				"element": "C" 
			},
			{
				"x": -1.7729255753,
				"y": -1.1604131783,
				"z": -1.5687961619,
				"element": "C" 
			},
			{
				"x": -2.3271814262,
				"y": -0.8748992803,
				"z": -2.8124995368,
				"element": "C" 
			},
			{
				"x": -1.6582814042,
				"y": -0.0650061922,
				"z": -3.7531700628,
				"element": "C" 
			},
			{
				"x": -0.2640597337,
				"y": 1.4788511603,
				"z": -5.4154421973,
				"element": "H" 
			},
			{
				"x": 1.2918011683,
				"y": 0.9382137479,
				"z": -4.7515788911,
				"element": "H" 
			},
			{
				"x": 0.5109820112,
				"y": 2.3605885622,
				"z": -4.0832513255,
				"element": "H" 
			},
			{
				"x": 2.9626145183,
				"y": -0.7065619448,
				"z": 0.7408806614,
				"element": "H" 
			},
			{
				"x": 3.3713160391,
				"y": 0.775613858,
				"z": -0.1270528824,
				"element": "H" 
			},
			{
				"x": 3.1977953459,
				"y": 1.4152585317,
				"z": 2.1835963011,
				"element": "H" 
			},
			{
				"x": 1.7499241062,
				"y": 2.036177659,
				"z": 1.426659693,
				"element": "H" 
			},
			{
				"x": 0.7897252434,
				"y": 0.5830126783,
				"z": 4.478693052,
				"element": "H" 
			},
			{
				"x": 0.1813987939,
				"y": -1.0963980093,
				"z": 0.6843303634,
				"element": "H" 
			},
			{
				"x": -2.2879304827,
				"y": -1.785856831,
				"z": -0.8460769445,
				"element": "H" 
			},
			{
				"x": -3.2995606557,
				"y": -1.2861470507,
				"z": -3.0682337804,
				"element": "H" 
			},
			{
				"x": -2.1343993324,
				"y": 0.1267293563,
				"z": -4.7114989186,
				"element": "H" 
			}
		],
		 "valence_orbital": [ 
			{
				"type": "occ",
				"energy": -0.3008,
				"method": "rhf"
			},
			{
				"type": "occ",
				"energy": -0.28655,
				"method": "rhf"
			},
			{
				"type": "occ",
				"energy": -0.25962,
				"method": "rhf"
			},
			{
				"type": "occ",
				"energy": -0.21336,
				"method": "rhf"
			},
			{
				"type": "occ",
				"energy": -0.20625,
				"method": "rhf"
			},
			{
				"type": "unocc",
				"energy": -0.01398,
				"method": "rhf"
			},
			{
				"type": "unocc",
				"energy": -0.00399,
				"method": "rhf"
			},
			{
				"type": "unocc",
				"energy": 0.03598,
				"method": "rhf"
			},
			{
				"type": "unocc",
				"energy": 0.05867,
				"method": "rhf"
			},
			{
				"type": "unocc",
				"energy": 0.06715,
				"method": "rhf"
			}
		],
		"cosmo_sigma_profile": { 
			"-0.025": 0.0,
			"-0.024": 0.0,
			"-0.023": 0.0,
			"-0.022": 0.0,
			"-0.021": 0.0,
			"-0.02": 0.0,
			"-0.019": 0.131881440674,
			"-0.018": 1.20032407908,
			"-0.017": 0.777570529418,
			"-0.016": 0.690698527798,
			"-0.015": 0.497151025142,
			"-0.014": 0.720416039563,
			"-0.013": 0.545053719465,
			"-0.012": 1.23675307498,
			"-0.011": 1.76364753966,
			"-0.01": 1.12292259089,
			"-0.009": 1.42018088823,
			"-0.008": 1.3679401133,
			"-0.007": 6.5688644544,
			"-0.006": 11.1555117287,
			"-0.005": 17.3780442438,
			"-0.004": 20.5682939158,
			"-0.003": 21.0039550044,
			"-0.002": 19.7751937106,
			"-0.001": 15.2205900675,
			"0.0": 16.8481665669,
			"0.001": 13.1573552573,
			"0.002": 12.0810926135,
			"0.003": 12.233323141,
			"0.004": 13.53410865,
			"0.005": 11.6155123079,
			"0.006": 11.5166433864,
			"0.007": 9.18545773667,
			"0.008": 4.4753738289,
			"0.009": 4.64970896679,
			"0.01": 2.81342062158,
			"0.011": 2.81458350869,
			"0.012": 1.35767216808,
			"0.013": 1.05423317387,
			"0.014": 1.12598445242,
			"0.015": 0.390202998888,
			"0.016": 1.13741524402,
			"0.017": 0.64234276379,
			"0.018": 0.113297808939,
			"0.019": 0.0,
			"0.02": 0.0,
			"0.021": 0.0,
			"0.022": 0.0,
			"0.023": 0.0,
			"0.024": 0.0,
			"0.025": 0.0
		}
	}
}
