{
	 "smiles": "COC1=CC=C(C=C1)S(=O)(=O)CC(C)C(O)=O", 
	 "Tm": 390.15, 
	 "num_atms": 31, 
	 "gaussian": { 
		 "optdone": 1, 
		 "sigma_profile": "yes", 
		 "theory": "DFT", 
		 "functional": "B3LYP", 
		 "basiset": "6-31G**", 
		 "properties": { 
			 "R2extent": 5059.2291, 
			 "electric_dipole_moment_norm": 6.16306185025, 
			 "electric_quadrupole_moment_norm": 23.6720998283, 
			 "total_energy": -1201.85660867, 
			 "HOMO_LUMO_gap": 0.21143, 
			 "cosmo_polarized_energy": -20.97, 
			 "cosmo_cavitation_energy": 35.48, 
			 "cosmo_dispersion_energy": -24.87, 
			 "cosmo_repulsion_energy": 1.88, 
			 "cosmo_total_nonelectrostatic_energy": 12.49, 
			 "SMD_solvation_energy": 7.0 
		},
		"coords": [
			{
				"x": -1.3337923828,
				"y": 2.0611890156,
				"z": -3.6145005969,
				"element": "C" 
			},
			{
				"x": -1.5461138605,
				"y": 0.7937572546,
				"z": -3.0056667771,
				"element": "O" 
			},
			{
				"x": -0.7072871998,
				"y": 0.3984354269,
				"z": -2.013979686,
				"element": "C" 
			},
			{
				"x": -0.9576362357,
				"y": -0.8786206361,
				"z": -1.4823081093,
				"element": "C" 
			},
			{
				"x": -0.1597422465,
				"y": -1.3806073123,
				"z": -0.4644486964,
				"element": "C" 
			},
			{
				"x": 0.8903750772,
				"y": -0.5998220085,
				"z": 0.0346598262,
				"element": "C" 
			},
			{
				"x": 1.1548830492,
				"y": 0.6627536447,
				"z": -0.4956714808,
				"element": "C" 
			},
			{
				"x": 0.3560022118,
				"y": 1.1698602264,
				"z": -1.5194374679,
				"element": "C" 
			},
			{
				"x": 1.9508388884,
				"y": -1.2443830835,
				"z": 1.3281259662,
				"element": "S" 
			},
			{
				"x": 3.2706640978,
				"y": -0.6069105003,
				"z": 1.1789210751,
				"element": "O" 
			},
			{
				"x": 1.8144966801,
				"y": -2.711245718,
				"z": 1.3344628865,
				"element": "O" 
			},
			{
				"x": 1.3058990714,
				"y": -0.5753422156,
				"z": 2.9101668704,
				"element": "C" 
			},
			{
				"x": 0.0005077513,
				"y": -1.1418492526,
				"z": 3.5078095409,
				"element": "C" 
			},
			{
				"x": 0.0619692877,
				"y": -2.6165381954,
				"z": 3.9177659756,
				"element": "C" 
			},
			{
				"x": -1.2199911833,
				"y": -0.8503408189,
				"z": 2.6429138198,
				"element": "C" 
			},
			{
				"x": -1.3360584742,
				"y": 0.474437414,
				"z": 2.3754911875,
				"element": "O" 
			},
			{
				"x": -2.0206613118,
				"y": -1.6673144678,
				"z": 2.2484504972,
				"element": "O" 
			},
			{
				"x": -1.434255164,
				"y": 2.8787022807,
				"z": -2.8897596308,
				"element": "H" 
			},
			{
				"x": -0.3471859152,
				"y": 2.1186965143,
				"z": -4.0901961247,
				"element": "H" 
			},
			{
				"x": -2.1074431922,
				"y": 2.1595919689,
				"z": -4.3767892211,
				"element": "H" 
			},
			{
				"x": -1.7772959403,
				"y": -1.4588752638,
				"z": -1.8920707449,
				"element": "H" 
			},
			{
				"x": -0.3392534736,
				"y": -2.3694283401,
				"z": -0.0584950034,
				"element": "H" 
			},
			{
				"x": 1.9975380425,
				"y": 1.2367562498,
				"z": -0.124793868,
				"element": "H" 
			},
			{
				"x": 0.5746529289,
				"y": 2.1484759588,
				"z": -1.9288245974,
				"element": "H" 
			},
			{
				"x": 1.2356016205,
				"y": 0.5034886968,
				"z": 2.7550002086,
				"element": "H" 
			},
			{
				"x": 2.1396711984,
				"y": -0.7689154174,
				"z": 3.5920706581,
				"element": "H" 
			},
			{
				"x": -0.1527238678,
				"y": -0.532298383,
				"z": 4.4108745719,
				"element": "H" 
			},
			{
				"x": -0.8639595803,
				"y": -2.9035995756,
				"z": 4.4214373716,
				"element": "H" 
			},
			{
				"x": 0.8968260217,
				"y": -2.7783121762,
				"z": 4.6061251174,
				"element": "H" 
			},
			{
				"x": 0.2030233112,
				"y": -3.2642391689,
				"z": 3.0530623302,
				"element": "H" 
			},
			{
				"x": -2.1181492101,
				"y": 0.5690978824,
				"z": 1.8063041014,
				"element": "H" 
			}
		],
		 "valence_orbital": [ 
			{
				"type": "occ",
				"energy": -0.29202,
				"method": "rhf"
			},
			{
				"type": "occ",
				"energy": -0.2853,
				"method": "rhf"
			},
			{
				"type": "occ",
				"energy": -0.27732,
				"method": "rhf"
			},
			{
				"type": "occ",
				"energy": -0.2718,
				"method": "rhf"
			},
			{
				"type": "occ",
				"energy": -0.24341,
				"method": "rhf"
			},
			{
				"type": "unocc",
				"energy": -0.03198,
				"method": "rhf"
			},
			{
				"type": "unocc",
				"energy": -0.02087,
				"method": "rhf"
			},
			{
				"type": "unocc",
				"energy": -0.00136,
				"method": "rhf"
			},
			{
				"type": "unocc",
				"energy": 0.06349,
				"method": "rhf"
			},
			{
				"type": "unocc",
				"energy": 0.06537,
				"method": "rhf"
			}
		],
		"cosmo_sigma_profile": { 
			"-0.025": 0.0,
			"-0.024": 0.0,
			"-0.023": 0.0,
			"-0.022": 0.0,
			"-0.021": 0.0,
			"-0.02": 0.0,
			"-0.019": 0.00869223497101,
			"-0.018": 0.883480395546,
			"-0.017": 0.706178732483,
			"-0.016": 0.442518131544,
			"-0.015": 0.463021316346,
			"-0.014": 0.596337138483,
			"-0.013": 0.963845048835,
			"-0.012": 0.710198069781,
			"-0.011": 0.704911225973,
			"-0.01": 0.591977102886,
			"-0.009": 1.86108087637,
			"-0.008": 5.93322664454,
			"-0.007": 16.0340647071,
			"-0.006": 21.0265843732,
			"-0.005": 20.9661257046,
			"-0.004": 19.2150301657,
			"-0.003": 17.7130176182,
			"-0.002": 16.0018767313,
			"-0.001": 15.3860670799,
			"0.0": 17.3150620238,
			"0.001": 17.8813777581,
			"0.002": 15.5592602736,
			"0.003": 16.1724000586,
			"0.004": 9.01962375827,
			"0.005": 8.40706762908,
			"0.006": 6.04104218574,
			"0.007": 6.78694661527,
			"0.008": 6.5069487277,
			"0.009": 7.58239527988,
			"0.01": 6.6659148671,
			"0.011": 10.79666926,
			"0.012": 10.0682213385,
			"0.013": 1.07635351046,
			"0.014": 0.0,
			"0.015": 0.0,
			"0.016": 0.0,
			"0.017": 0.0,
			"0.018": 0.0,
			"0.019": 0.0,
			"0.02": 0.0,
			"0.021": 0.0,
			"0.022": 0.0,
			"0.023": 0.0,
			"0.024": 0.0,
			"0.025": 0.0
		}
	}
}
