{
	 "smiles": "CC1=CC(C)=CC(C)=C1", 
	 "Tm": 228.25, 
	 "num_atms": 21, 
	 "gaussian": { 
		 "optdone": 1, 
		 "sigma_profile": "yes", 
		 "theory": "DFT", 
		 "functional": "B3LYP", 
		 "basiset": "6-31G**", 
		 "properties": { 
			 "R2extent": 1946.29, 
			 "electric_dipole_moment_norm": 0.0417876776096, 
			 "electric_quadrupole_moment_norm": 5.15571537131, 
			 "total_energy": -350.212500445, 
			 "HOMO_LUMO_gap": 0.23671, 
			 "cosmo_polarized_energy": -3.07, 
			 "cosmo_cavitation_energy": 23.59, 
			 "cosmo_dispersion_energy": -17.23, 
			 "cosmo_repulsion_energy": 1.42, 
			 "cosmo_total_nonelectrostatic_energy": 7.78, 
			 "SMD_solvation_energy": 4.26 
		},
		"coords": [
			{
				"x": 1.6046085665,
				"y": -3.6716014141,
				"z": 1.5136555956,
				"element": "C" 
			},
			{
				"x": 0.8865655001,
				"y": -2.3606148414,
				"z": 1.2840799279,
				"element": "C" 
			},
			{
				"x": -0.5110931015,
				"y": -2.3100616245,
				"z": 1.2336618257,
				"element": "C" 
			},
			{
				"x": -1.1903101718,
				"y": -1.111440488,
				"z": 0.9876819681,
				"element": "C" 
			},
			{
				"x": -2.699740668,
				"y": -1.0827108979,
				"z": 0.8993941856,
				"element": "C" 
			},
			{
				"x": -0.4407062427,
				"y": 0.0554061011,
				"z": 0.8003369625,
				"element": "C" 
			},
			{
				"x": 0.9577254481,
				"y": 0.0415287524,
				"z": 0.8523140073,
				"element": "C" 
			},
			{
				"x": 1.7497051478,
				"y": 1.3193814771,
				"z": 0.688447335,
				"element": "C" 
			},
			{
				"x": 1.6056931645,
				"y": -1.1754384465,
				"z": 1.0924010971,
				"element": "C" 
			},
			{
				"x": 1.8152863156,
				"y": -4.1804408607,
				"z": 0.5646552483,
				"element": "H" 
			},
			{
				"x": 1.0047722161,
				"y": -4.3552849802,
				"z": 2.1223035075,
				"element": "H" 
			},
			{
				"x": 2.5627272254,
				"y": -3.5203963998,
				"z": 2.0204639758,
				"element": "H" 
			},
			{
				"x": -1.0825118315,
				"y": -3.2234293304,
				"z": 1.3882184963,
				"element": "H" 
			},
			{
				"x": -3.1522846841,
				"y": -1.8550208752,
				"z": 1.5290111151,
				"element": "H" 
			},
			{
				"x": -3.101160891,
				"y": -0.1138519017,
				"z": 1.2122648786,
				"element": "H" 
			},
			{
				"x": -3.0408289566,
				"y": -1.2596230351,
				"z": -0.1283526494,
				"element": "H" 
			},
			{
				"x": -0.956962924,
				"y": 0.9954056906,
				"z": 0.6145688218,
				"element": "H" 
			},
			{
				"x": 2.7360388658,
				"y": 1.1263750778,
				"z": 0.2553288045,
				"element": "H" 
			},
			{
				"x": 1.2300714205,
				"y": 2.032212821,
				"z": 0.0407230912,
				"element": "H" 
			},
			{
				"x": 1.9097312384,
				"y": 1.8142994865,
				"z": 1.6545510888,
				"element": "H" 
			},
			{
				"x": 2.6929743624,
				"y": -1.1998943111,
				"z": 1.1354907168,
				"element": "H" 
			}
		],
		 "valence_orbital": [ 
			{
				"type": "occ",
				"energy": -0.32561,
				"method": "rhf"
			},
			{
				"type": "occ",
				"energy": -0.32511,
				"method": "rhf"
			},
			{
				"type": "occ",
				"energy": -0.32493,
				"method": "rhf"
			},
			{
				"type": "occ",
				"energy": -0.22725,
				"method": "rhf"
			},
			{
				"type": "occ",
				"energy": -0.22723,
				"method": "rhf"
			},
			{
				"type": "unocc",
				"energy": 0.00948,
				"method": "rhf"
			},
			{
				"type": "unocc",
				"energy": 0.00959,
				"method": "rhf"
			},
			{
				"type": "unocc",
				"energy": 0.10105,
				"method": "rhf"
			},
			{
				"type": "unocc",
				"energy": 0.12317,
				"method": "rhf"
			},
			{
				"type": "unocc",
				"energy": 0.12453,
				"method": "rhf"
			}
		],
		"cosmo_sigma_profile": { 
			"-0.025": 0.0,
			"-0.024": 0.0,
			"-0.023": 0.0,
			"-0.022": 0.0,
			"-0.021": 0.0,
			"-0.02": 0.0,
			"-0.019": 0.0,
			"-0.018": 0.0,
			"-0.017": 0.0,
			"-0.016": 0.0,
			"-0.015": 0.0,
			"-0.014": 0.0,
			"-0.013": 0.0,
			"-0.012": 0.0,
			"-0.011": 0.0,
			"-0.01": 0.0,
			"-0.009": 0.0,
			"-0.008": 0.0,
			"-0.007": 0.0,
			"-0.006": 0.0,
			"-0.005": 0.706753723555,
			"-0.004": 16.5032738097,
			"-0.003": 27.8847616572,
			"-0.002": 22.8958409515,
			"-0.001": 22.1134789518,
			"0.0": 30.1264805829,
			"0.001": 20.6083090133,
			"0.002": 8.66975030144,
			"0.003": 7.4071813341,
			"0.004": 6.97026983756,
			"0.005": 6.62009965734,
			"0.006": 6.35685302847,
			"0.007": 6.87676203873,
			"0.008": 1.47003106748,
			"0.009": 0.0,
			"0.01": 0.0,
			"0.011": 0.0,
			"0.012": 0.0,
			"0.013": 0.0,
			"0.014": 0.0,
			"0.015": 0.0,
			"0.016": 0.0,
			"0.017": 0.0,
			"0.018": 0.0,
			"0.019": 0.0,
			"0.02": 0.0,
			"0.021": 0.0,
			"0.022": 0.0,
			"0.023": 0.0,
			"0.024": 0.0,
			"0.025": 0.0
		}
	}
}
