{
	 "smiles": "COC1=CC(=CC(OC)=C1)C(=O)C1=C(N)SC2=C1CCC(C)C2", 
	 "Tm": 436.15, 
	 "num_atms": 44, 
	 "gaussian": { 
		 "optdone": 1, 
		 "sigma_profile": "yes", 
		 "theory": "DFT", 
		 "functional": "B3LYP", 
		 "basiset": "6-31G**", 
		 "properties": { 
			 "R2extent": 9519.7134, 
			 "electric_dipole_moment_norm": 2.23412074428, 
			 "electric_quadrupole_moment_norm": 9.03407900342, 
			 "total_energy": -1377.1714525, 
			 "HOMO_LUMO_gap": 0.14622, 
			 "cosmo_polarized_energy": -14.06, 
			 "cosmo_cavitation_energy": 46.38, 
			 "cosmo_dispersion_energy": -32.5, 
			 "cosmo_repulsion_energy": 2.46, 
			 "cosmo_total_nonelectrostatic_energy": 16.34, 
			 "SMD_solvation_energy": 8.45 
		},
		"coords": [
			{
				"x": 4.375686472,
				"y": -0.1575757017,
				"z": -2.7957246011,
				"element": "C" 
			},
			{
				"x": 3.0439989967,
				"y": 0.0739506334,
				"z": -3.2291705096,
				"element": "O" 
			},
			{
				"x": 2.1005398856,
				"y": 0.3620799623,
				"z": -2.2863841129,
				"element": "C" 
			},
			{
				"x": 2.3524205043,
				"y": 0.4250720158,
				"z": -0.9105700685,
				"element": "C" 
			},
			{
				"x": 1.2966647357,
				"y": 0.7038290523,
				"z": -0.0365073065,
				"element": "C" 
			},
			{
				"x": 0.006430056,
				"y": 0.959236448,
				"z": -0.5186320636,
				"element": "C" 
			},
			{
				"x": -0.2239361046,
				"y": 0.9201048671,
				"z": -1.9012955527,
				"element": "C" 
			},
			{
				"x": -1.4315618779,
				"y": 1.1711993366,
				"z": -2.4872652929,
				"element": "O" 
			},
			{
				"x": -2.527538366,
				"y": 1.5078322894,
				"z": -1.6520254814,
				"element": "C" 
			},
			{
				"x": 0.8161751965,
				"y": 0.6094543252,
				"z": -2.7799483252,
				"element": "C" 
			},
			{
				"x": 1.6112123977,
				"y": 0.8706960292,
				"z": 1.4250516101,
				"element": "C" 
			},
			{
				"x": 2.6345213995,
				"y": 1.5200307403,
				"z": 1.7102759515,
				"element": "O" 
			},
			{
				"x": 0.7177381004,
				"y": 0.3653236951,
				"z": 2.4682907194,
				"element": "C" 
			},
			{
				"x": 0.7729084638,
				"y": 0.9623291152,
				"z": 3.7373370294,
				"element": "C" 
			},
			{
				"x": 1.5779044787,
				"y": 1.9829694103,
				"z": 4.1184145782,
				"element": "N" 
			},
			{
				"x": -0.4099304302,
				"y": 0.2843852484,
				"z": 4.8296364686,
				"element": "S" 
			},
			{
				"x": -0.9256002022,
				"y": -0.8874131357,
				"z": 3.6103709855,
				"element": "C" 
			},
			{
				"x": -0.2541037601,
				"y": -0.7270911176,
				"z": 2.4359055929,
				"element": "C" 
			},
			{
				"x": -0.4302982658,
				"y": -1.7467390284,
				"z": 1.3294379657,
				"element": "C" 
			},
			{
				"x": -1.669108631,
				"y": -2.6348650438,
				"z": 1.542661234,
				"element": "C" 
			},
			{
				"x": -1.8109828384,
				"y": -3.150105239,
				"z": 2.9871368523,
				"element": "C" 
			},
			{
				"x": -0.6558467455,
				"y": -4.075500027,
				"z": 3.3977118722,
				"element": "C" 
			},
			{
				"x": -1.9466540666,
				"y": -1.9416422063,
				"z": 3.9412351842,
				"element": "C" 
			},
			{
				"x": 4.4386960612,
				"y": -1.0226335421,
				"z": -2.1232145917,
				"element": "H" 
			},
			{
				"x": 4.7954132591,
				"y": 0.7202273912,
				"z": -2.2885612827,
				"element": "H" 
			},
			{
				"x": 4.9537102303,
				"y": -0.3620520363,
				"z": -3.6983586658,
				"element": "H" 
			},
			{
				"x": 3.3425669751,
				"y": 0.2817679862,
				"z": -0.4988211395,
				"element": "H" 
			},
			{
				"x": -0.7832224878,
				"y": 1.2033326647,
				"z": 0.1805893755,
				"element": "H" 
			},
			{
				"x": -2.7727315281,
				"y": 0.6961145547,
				"z": -0.9547108052,
				"element": "H" 
			},
			{
				"x": -3.374534389,
				"y": 1.6733191156,
				"z": -2.3197931859,
				"element": "H" 
			},
			{
				"x": -2.3356153998,
				"y": 2.4242001313,
				"z": -1.0793586518,
				"element": "H" 
			},
			{
				"x": 0.6296973544,
				"y": 0.5715816174,
				"z": -3.846937586,
				"element": "H" 
			},
			{
				"x": 2.3632049527,
				"y": 2.140042902,
				"z": 3.4910296885,
				"element": "H" 
			},
			{
				"x": 1.6465923217,
				"y": 2.237757061,
				"z": 5.0899965429,
				"element": "H" 
			},
			{
				"x": -0.5001756715,
				"y": -1.2647575278,
				"z": 0.3530020475,
				"element": "H" 
			},
			{
				"x": 0.4765550513,
				"y": -2.3669468356,
				"z": 1.2832607337,
				"element": "H" 
			},
			{
				"x": -2.5684223647,
				"y": -2.0580971541,
				"z": 1.2880010176,
				"element": "H" 
			},
			{
				"x": -1.6322364123,
				"y": -3.4793850125,
				"z": 0.8443458112,
				"element": "H" 
			},
			{
				"x": -2.7422782434,
				"y": -3.7283714262,
				"z": 3.0501333738,
				"element": "H" 
			},
			{
				"x": -0.5482341599,
				"y": -4.9061475054,
				"z": 2.691373332,
				"element": "H" 
			},
			{
				"x": -0.8324246736,
				"y": -4.5030051025,
				"z": 4.3906717854,
				"element": "H" 
			},
			{
				"x": 0.2978022333,
				"y": -3.5394983001,
				"z": 3.4350989377,
				"element": "H" 
			},
			{
				"x": -2.9610370618,
				"y": -1.5236493456,
				"z": 3.861046576,
				"element": "H" 
			},
			{
				"x": -1.8371654462,
				"y": -2.2727613051,
				"z": 4.9819639567,
				"element": "H" 
			}
		],
		 "valence_orbital": [ 
			{
				"type": "occ",
				"energy": -0.24626,
				"method": "rhf"
			},
			{
				"type": "occ",
				"energy": -0.23997,
				"method": "rhf"
			},
			{
				"type": "occ",
				"energy": -0.22176,
				"method": "rhf"
			},
			{
				"type": "occ",
				"energy": -0.21391,
				"method": "rhf"
			},
			{
				"type": "occ",
				"energy": -0.18866,
				"method": "rhf"
			},
			{
				"type": "unocc",
				"energy": -0.04244,
				"method": "rhf"
			},
			{
				"type": "unocc",
				"energy": 0.0036,
				"method": "rhf"
			},
			{
				"type": "unocc",
				"energy": 0.01325,
				"method": "rhf"
			},
			{
				"type": "unocc",
				"energy": 0.02256,
				"method": "rhf"
			},
			{
				"type": "unocc",
				"energy": 0.02545,
				"method": "rhf"
			}
		],
		"cosmo_sigma_profile": { 
			"-0.025": 0.0,
			"-0.024": 0.0,
			"-0.023": 0.0,
			"-0.022": 0.0,
			"-0.021": 0.0,
			"-0.02": 0.0,
			"-0.019": 0.0,
			"-0.018": 0.0,
			"-0.017": 0.0,
			"-0.016": 0.0,
			"-0.015": 0.619385662981,
			"-0.014": 1.4596811217,
			"-0.013": 1.21153119499,
			"-0.012": 1.03619488104,
			"-0.011": 1.41360265297,
			"-0.01": 1.63701670733,
			"-0.009": 1.69715703244,
			"-0.008": 2.12706604624,
			"-0.007": 1.74976905828,
			"-0.006": 10.5173172028,
			"-0.005": 22.0625236006,
			"-0.004": 24.4408339447,
			"-0.003": 34.2658476378,
			"-0.002": 41.2800280387,
			"-0.001": 39.531581016,
			"0.0": 32.1638301581,
			"0.001": 26.7032363975,
			"0.002": 24.8109599995,
			"0.003": 22.9728557559,
			"0.004": 27.1284543516,
			"0.005": 13.9210633059,
			"0.006": 7.90538196189,
			"0.007": 4.72150083645,
			"0.008": 5.08931854557,
			"0.009": 5.62925803606,
			"0.01": 4.08404702694,
			"0.011": 2.65157752932,
			"0.012": 2.11941509449,
			"0.013": 1.56282951067,
			"0.014": 0.926765379898,
			"0.015": 0.0316870327225,
			"0.016": 0.0,
			"0.017": 0.0,
			"0.018": 0.0,
			"0.019": 0.0,
			"0.02": 0.0,
			"0.021": 0.0,
			"0.022": 0.0,
			"0.023": 0.0,
			"0.024": 0.0,
			"0.025": 0.0
		}
	}
}
