{
	 "smiles": "CNC1=C(C=CC=N1)C(N)=O", 
	 "Tm": 455.15, 
	 "num_atms": 20, 
	 "gaussian": { 
		 "optdone": 1, 
		 "sigma_profile": "yes", 
		 "theory": "DFT", 
		 "functional": "B3LYP", 
		 "basiset": "6-31G**", 
		 "properties": { 
			 "R2extent": 2062.384, 
			 "electric_dipole_moment_norm": 2.67019958243, 
			 "electric_quadrupole_moment_norm": 11.9278166103, 
			 "total_energy": -511.675049648, 
			 "HOMO_LUMO_gap": 0.15941, 
			 "cosmo_polarized_energy": -12.67, 
			 "cosmo_cavitation_energy": 23.55, 
			 "cosmo_dispersion_energy": -17.9, 
			 "cosmo_repulsion_energy": 1.45, 
			 "cosmo_total_nonelectrostatic_energy": 7.09, 
			 "SMD_solvation_energy": 3.27 
		},
		"coords": [
			{
				"x": 2.2671552093,
				"y": -0.7918061102,
				"z": -2.1019503417,
				"element": "C" 
			},
			{
				"x": 1.8918914636,
				"y": 0.2510009801,
				"z": -1.1682568178,
				"element": "N" 
			},
			{
				"x": 0.6870782835,
				"y": 0.2918832105,
				"z": -0.557774985,
				"element": "C" 
			},
			{
				"x": 0.3529842297,
				"y": 1.3340112054,
				"z": 0.3768334845,
				"element": "C" 
			},
			{
				"x": -0.8966616385,
				"y": 1.2505145822,
				"z": 0.9975294404,
				"element": "C" 
			},
			{
				"x": -1.7860625519,
				"y": 0.2276331111,
				"z": 0.6828617774,
				"element": "C" 
			},
			{
				"x": -1.3753267149,
				"y": -0.7025906159,
				"z": -0.2744664263,
				"element": "C" 
			},
			{
				"x": -0.1889783465,
				"y": -0.6887510518,
				"z": -0.8760658138,
				"element": "N" 
			},
			{
				"x": 1.3092153824,
				"y": 2.4322120138,
				"z": 0.6630874093,
				"element": "C" 
			},
			{
				"x": 0.8354256023,
				"y": 3.5116865999,
				"z": 1.3735384617,
				"element": "N" 
			},
			{
				"x": 2.4964705407,
				"y": 2.4047643584,
				"z": 0.3137377779,
				"element": "O" 
			},
			{
				"x": 1.5776543317,
				"y": -0.8324017459,
				"z": -2.9511364004,
				"element": "H" 
			},
			{
				"x": 2.2666810424,
				"y": -1.7819393531,
				"z": -1.6311764211,
				"element": "H" 
			},
			{
				"x": 3.2721521966,
				"y": -0.5746069361,
				"z": -2.4701642958,
				"element": "H" 
			},
			{
				"x": 2.5600703992,
				"y": 0.9462956491,
				"z": -0.849913933,
				"element": "H" 
			},
			{
				"x": -1.1695553647,
				"y": 1.9771804675,
				"z": 1.7575401425,
				"element": "H" 
			},
			{
				"x": -2.7557028875,
				"y": 0.1483794164,
				"z": 1.1609800028,
				"element": "H" 
			},
			{
				"x": -2.0411458359,
				"y": -1.5147227001,
				"z": -0.5663320395,
				"element": "H" 
			},
			{
				"x": -0.1432799069,
				"y": 3.7494927959,
				"z": 1.3443114006,
				"element": "H" 
			},
			{
				"x": 1.4833345653,
				"y": 4.2840641227,
				"z": 1.4355175773,
				"element": "H" 
			}
		],
		 "valence_orbital": [ 
			{
				"type": "occ",
				"energy": -0.27985,
				"method": "rhf"
			},
			{
				"type": "occ",
				"energy": -0.27792,
				"method": "rhf"
			},
			{
				"type": "occ",
				"energy": -0.26308,
				"method": "rhf"
			},
			{
				"type": "occ",
				"energy": -0.24968,
				"method": "rhf"
			},
			{
				"type": "occ",
				"energy": -0.2027,
				"method": "rhf"
			},
			{
				"type": "unocc",
				"energy": -0.04329,
				"method": "rhf"
			},
			{
				"type": "unocc",
				"energy": 0.00716,
				"method": "rhf"
			},
			{
				"type": "unocc",
				"energy": 0.05298,
				"method": "rhf"
			},
			{
				"type": "unocc",
				"energy": 0.0759,
				"method": "rhf"
			},
			{
				"type": "unocc",
				"energy": 0.11392,
				"method": "rhf"
			}
		],
		"cosmo_sigma_profile": { 
			"-0.025": 0.0,
			"-0.024": 0.0,
			"-0.023": 0.0,
			"-0.022": 0.0,
			"-0.021": 0.0,
			"-0.02": 0.0,
			"-0.019": 0.0,
			"-0.018": 0.0,
			"-0.017": 0.0,
			"-0.016": 0.0,
			"-0.015": 0.259494455823,
			"-0.014": 1.31417107564,
			"-0.013": 2.38226170524,
			"-0.012": 2.80058853836,
			"-0.011": 2.49852295372,
			"-0.01": 2.67741333715,
			"-0.009": 2.64772642838,
			"-0.008": 2.94760728074,
			"-0.007": 3.92570895384,
			"-0.006": 7.92975644006,
			"-0.005": 9.88941969324,
			"-0.004": 10.7700432924,
			"-0.003": 11.7530265979,
			"-0.002": 12.5976873031,
			"-0.001": 13.9542746098,
			"0.0": 10.7188448076,
			"0.001": 12.888246808,
			"0.002": 15.7535836922,
			"0.003": 16.2854620859,
			"0.004": 10.3385677652,
			"0.005": 5.53409594375,
			"0.006": 3.33034567677,
			"0.007": 3.81235588011,
			"0.008": 3.32782156392,
			"0.009": 3.31819581163,
			"0.01": 2.49272255904,
			"0.011": 2.88812728563,
			"0.012": 2.75230858251,
			"0.013": 3.04448926954,
			"0.014": 2.13325355246,
			"0.015": 0.280463406361,
			"0.016": 0.0,
			"0.017": 0.0,
			"0.018": 0.0,
			"0.019": 0.0,
			"0.02": 0.0,
			"0.021": 0.0,
			"0.022": 0.0,
			"0.023": 0.0,
			"0.024": 0.0,
			"0.025": 0.0
		}
	}
}
