{
	 "smiles": "[O-][N+](=O)C1=CN=C(C=C1)N1CCOCC1", 
	 "Tm": 417.15, 
	 "num_atms": 26, 
	 "gaussian": { 
		 "optdone": 1, 
		 "sigma_profile": "yes", 
		 "theory": "DFT", 
		 "functional": "B3LYP", 
		 "basiset": "6-31G**", 
		 "properties": { 
			 "R2extent": 4510.8102, 
			 "electric_dipole_moment_norm": 6.16786314537, 
			 "electric_quadrupole_moment_norm": 21.4332001229, 
			 "total_energy": -739.392477518, 
			 "HOMO_LUMO_gap": 0.15017, 
			 "cosmo_polarized_energy": -14.23, 
			 "cosmo_cavitation_energy": 29.32, 
			 "cosmo_dispersion_energy": -22.11, 
			 "cosmo_repulsion_energy": 1.72, 
			 "cosmo_total_nonelectrostatic_energy": 8.93, 
			 "SMD_solvation_energy": 5.57 
		},
		"coords": [
			{
				"x": 2.2299798873,
				"y": 2.9776576007,
				"z": 3.0481047869,
				"element": "O" 
			},
			{
				"x": 1.1068103451,
				"y": 2.7151529367,
				"z": 2.60751351,
				"element": "N" 
			},
			{
				"x": 0.0656200413,
				"y": 3.2685474237,
				"z": 2.9726273865,
				"element": "O" 
			},
			{
				"x": 1.0060611896,
				"y": 1.6868370959,
				"z": 1.5917007863,
				"element": "C" 
			},
			{
				"x": -0.2359193254,
				"y": 1.3462750984,
				"z": 1.0532341572,
				"element": "C" 
			},
			{
				"x": -0.3857831204,
				"y": 0.4094933599,
				"z": 0.1251672612,
				"element": "N" 
			},
			{
				"x": 0.7108727699,
				"y": -0.2442411655,
				"z": -0.3262079055,
				"element": "C" 
			},
			{
				"x": 2.0126839835,
				"y": 0.0476765408,
				"z": 0.1724576118,
				"element": "C" 
			},
			{
				"x": 2.1510195669,
				"y": 1.0218687556,
				"z": 1.1387366446,
				"element": "C" 
			},
			{
				"x": 0.5140178379,
				"y": -1.1986720676,
				"z": -1.2826151144,
				"element": "N" 
			},
			{
				"x": 1.6295301608,
				"y": -1.9730338697,
				"z": -1.8304251494,
				"element": "C" 
			},
			{
				"x": 1.1046014788,
				"y": -2.9520355205,
				"z": -2.8822039294,
				"element": "C" 
			},
			{
				"x": 0.3354951969,
				"y": -2.285363104,
				"z": -3.8634413417,
				"element": "O" 
			},
			{
				"x": -0.7805540477,
				"y": -1.5546065151,
				"z": -3.3390186369,
				"element": "C" 
			},
			{
				"x": -0.814785459,
				"y": -1.508634832,
				"z": -1.8097835271,
				"element": "C" 
			},
			{
				"x": -1.1294764744,
				"y": 1.8581484493,
				"z": 1.3975922227,
				"element": "H" 
			},
			{
				"x": 2.8848623801,
				"y": -0.4778165603,
				"z": -0.1934787448,
				"element": "H" 
			},
			{
				"x": 3.1178179724,
				"y": 1.2830705043,
				"z": 1.5521390776,
				"element": "H" 
			},
			{
				"x": 2.3564405325,
				"y": -1.2983542694,
				"z": -2.3023155088,
				"element": "H" 
			},
			{
				"x": 2.1512542088,
				"y": -2.5272469852,
				"z": -1.0361956566,
				"element": "H" 
			},
			{
				"x": 0.5380362229,
				"y": -3.7648046721,
				"z": -2.4017972385,
				"element": "H" 
			},
			{
				"x": 1.9490814674,
				"y": -3.4081403808,
				"z": -3.4055783596,
				"element": "H" 
			},
			{
				"x": -1.7136029136,
				"y": -2.0048302003,
				"z": -3.7059545396,
				"element": "H" 
			},
			{
				"x": -0.7149780701,
				"y": -0.5361377826,
				"z": -3.7401614936,
				"element": "H" 
			},
			{
				"x": -1.5046959103,
				"y": -0.7379133525,
				"z": -1.4687662242,
				"element": "H" 
			},
			{
				"x": -1.1663899213,
				"y": -2.4653964878,
				"z": -1.4006300746,
				"element": "H" 
			}
		],
		 "valence_orbital": [ 
			{
				"type": "occ",
				"energy": -0.29533,
				"method": "rhf"
			},
			{
				"type": "occ",
				"energy": -0.28038,
				"method": "rhf"
			},
			{
				"type": "occ",
				"energy": -0.27419,
				"method": "rhf"
			},
			{
				"type": "occ",
				"energy": -0.26781,
				"method": "rhf"
			},
			{
				"type": "occ",
				"energy": -0.2274,
				"method": "rhf"
			},
			{
				"type": "unocc",
				"energy": -0.07723,
				"method": "rhf"
			},
			{
				"type": "unocc",
				"energy": -0.03809,
				"method": "rhf"
			},
			{
				"type": "unocc",
				"energy": 0.01316,
				"method": "rhf"
			},
			{
				"type": "unocc",
				"energy": 0.06881,
				"method": "rhf"
			},
			{
				"type": "unocc",
				"energy": 0.08952,
				"method": "rhf"
			}
		],
		"cosmo_sigma_profile": { 
			"-0.025": 0.0,
			"-0.024": 0.0,
			"-0.023": 0.0,
			"-0.022": 0.0,
			"-0.021": 0.0,
			"-0.02": 0.0,
			"-0.019": 0.0,
			"-0.018": 0.0,
			"-0.017": 0.0,
			"-0.016": 0.0,
			"-0.015": 0.0,
			"-0.014": 0.0,
			"-0.013": 0.0,
			"-0.012": 0.0,
			"-0.011": 0.0,
			"-0.01": 0.0,
			"-0.009": 0.00347800782975,
			"-0.008": 2.01917571966,
			"-0.007": 6.64203951296,
			"-0.006": 16.1037718457,
			"-0.005": 28.4882828863,
			"-0.004": 23.798002396,
			"-0.003": 18.5288796775,
			"-0.002": 15.236516306,
			"-0.001": 18.9436006421,
			"0.0": 19.2634644918,
			"0.001": 10.2666914963,
			"0.002": 9.64946182206,
			"0.003": 6.21589087184,
			"0.004": 5.65213039329,
			"0.005": 5.08451016752,
			"0.006": 5.34905366225,
			"0.007": 7.13256830546,
			"0.008": 11.0918881262,
			"0.009": 9.11593542079,
			"0.01": 6.57161504602,
			"0.011": 4.13846829473,
			"0.012": 1.37693768442,
			"0.013": 1.61643878359,
			"0.014": 0.270026774626,
			"0.015": 0.0,
			"0.016": 0.0,
			"0.017": 0.0,
			"0.018": 0.0,
			"0.019": 0.0,
			"0.02": 0.0,
			"0.021": 0.0,
			"0.022": 0.0,
			"0.023": 0.0,
			"0.024": 0.0,
			"0.025": 0.0
		}
	}
}
