{
	 "smiles": "OC(=O)C1(CCCC1)C#N", 
	 "Tm": 541.15, 
	 "num_atms": 19, 
	 "gaussian": { 
		 "optdone": 1, 
		 "sigma_profile": "yes", 
		 "theory": "DFT", 
		 "functional": "B3LYP", 
		 "basiset": "6-31G**", 
		 "properties": { 
			 "R2extent": 1716.3699, 
			 "electric_dipole_moment_norm": 2.51654232033, 
			 "electric_quadrupole_moment_norm": 18.2369499969, 
			 "total_energy": -477.364951844, 
			 "HOMO_LUMO_gap": 0.27695, 
			 "cosmo_polarized_energy": -12.66, 
			 "cosmo_cavitation_energy": 22.58, 
			 "cosmo_dispersion_energy": -16.05, 
			 "cosmo_repulsion_energy": 1.33, 
			 "cosmo_total_nonelectrostatic_energy": 7.86, 
			 "SMD_solvation_energy": 5.89 
		},
		"coords": [
			{
				"x": -2.9726419296,
				"y": -0.9362739011,
				"z": 0.6874432622,
				"element": "O" 
			},
			{
				"x": -1.8330967096,
				"y": -1.2549326318,
				"z": 0.0487186751,
				"element": "C" 
			},
			{
				"x": -1.8024383252,
				"y": -1.8576731871,
				"z": -1.0010608908,
				"element": "O" 
			},
			{
				"x": -0.568960539,
				"y": -0.7840392451,
				"z": 0.7740169088,
				"element": "C" 
			},
			{
				"x": 0.3107645035,
				"y": 0.1051600833,
				"z": -0.1596368136,
				"element": "C" 
			},
			{
				"x": 1.7330262143,
				"y": 0.0123084707,
				"z": 0.4331340484,
				"element": "C" 
			},
			{
				"x": 1.7870665407,
				"y": -1.3336964122,
				"z": 1.213860079,
				"element": "C" 
			},
			{
				"x": 0.39596986,
				"y": -1.9805950772,
				"z": 1.0451792885,
				"element": "C" 
			},
			{
				"x": -0.8610561196,
				"y": -0.0722896889,
				"z": 2.0269882559,
				"element": "C" 
			},
			{
				"x": -1.0180374036,
				"y": 0.4982947719,
				"z": 3.0257028463,
				"element": "N" 
			},
			{
				"x": -3.7019740243,
				"y": -1.2804657153,
				"z": 0.143564988,
				"element": "H" 
			},
			{
				"x": -0.0664356075,
				"y": 1.1282670701,
				"z": -0.2338700134,
				"element": "H" 
			},
			{
				"x": 0.265471524,
				"y": -0.3495141266,
				"z": -1.1533741713,
				"element": "H" 
			},
			{
				"x": 1.9187985993,
				"y": 0.8510518642,
				"z": 1.1098275393,
				"element": "H" 
			},
			{
				"x": 2.4863815218,
				"y": 0.0664605105,
				"z": -0.3576597632,
				"element": "H" 
			},
			{
				"x": 1.9953372515,
				"y": -1.1503880008,
				"z": 2.2716771249,
				"element": "H" 
			},
			{
				"x": 2.5716418725,
				"y": -1.9996458026,
				"z": 0.8440285153,
				"element": "H" 
			},
			{
				"x": 0.0840147237,
				"y": -2.5783588267,
				"z": 1.9053647846,
				"element": "H" 
			},
			{
				"x": 0.3598680472,
				"y": -2.6156701555,
				"z": 0.1553953359,
				"element": "H" 
			}
		],
		 "valence_orbital": [ 
			{
				"type": "occ",
				"energy": -0.34583,
				"method": "rhf"
			},
			{
				"type": "occ",
				"energy": -0.33665,
				"method": "rhf"
			},
			{
				"type": "occ",
				"energy": -0.32907,
				"method": "rhf"
			},
			{
				"type": "occ",
				"energy": -0.31628,
				"method": "rhf"
			},
			{
				"type": "occ",
				"energy": -0.29105,
				"method": "rhf"
			},
			{
				"type": "unocc",
				"energy": -0.0141,
				"method": "rhf"
			},
			{
				"type": "unocc",
				"energy": 0.02746,
				"method": "rhf"
			},
			{
				"type": "unocc",
				"energy": 0.03665,
				"method": "rhf"
			},
			{
				"type": "unocc",
				"energy": 0.0596,
				"method": "rhf"
			},
			{
				"type": "unocc",
				"energy": 0.07659,
				"method": "rhf"
			}
		],
		"cosmo_sigma_profile": { 
			"-0.025": 0.0,
			"-0.024": 0.0,
			"-0.023": 0.0,
			"-0.022": 0.0,
			"-0.021": 0.0,
			"-0.02": 0.0538425785115,
			"-0.019": 0.760973465292,
			"-0.018": 1.24185125178,
			"-0.017": 0.356620595106,
			"-0.016": 1.40613478509,
			"-0.015": 0.2414782625,
			"-0.014": 0.693652593276,
			"-0.013": 0.803375541035,
			"-0.012": 1.08340842739,
			"-0.011": 0.728128750177,
			"-0.01": 0.304143476066,
			"-0.009": 0.649242395258,
			"-0.008": 1.02413899113,
			"-0.007": 2.53827990473,
			"-0.006": 5.83821936102,
			"-0.005": 8.64228311415,
			"-0.004": 17.6624951026,
			"-0.003": 24.734756531,
			"-0.002": 22.1409708325,
			"-0.001": 14.3900432943,
			"0.0": 11.6710671004,
			"0.001": 4.99055720995,
			"0.002": 3.66543678846,
			"0.003": 4.16697846575,
			"0.004": 2.79259405126,
			"0.005": 4.40321322895,
			"0.006": 5.18810379446,
			"0.007": 5.10596439942,
			"0.008": 7.20897571777,
			"0.009": 5.75395456488,
			"0.01": 6.08286544175,
			"0.011": 7.00365722926,
			"0.012": 2.81381978817,
			"0.013": 1.48967832842,
			"0.014": 0.0686581883718,
			"0.015": 0.0,
			"0.016": 0.0,
			"0.017": 0.0,
			"0.018": 0.0,
			"0.019": 0.0,
			"0.02": 0.0,
			"0.021": 0.0,
			"0.022": 0.0,
			"0.023": 0.0,
			"0.024": 0.0,
			"0.025": 0.0
		}
	}
}
