{
	 "smiles": "OC(=O)C1=CC(=C(Cl)C=C1)S(=O)(=O)NCC1CCCO1", 
	 "Tm": 481.15, 
	 "num_atms": 34, 
	 "gaussian": { 
		 "optdone": 1, 
		 "sigma_profile": "yes", 
		 "theory": "DFT", 
		 "functional": "B3LYP", 
		 "basiset": "6-31G**", 
		 "properties": { 
			 "R2extent": 9245.1335, 
			 "electric_dipole_moment_norm": 4.57189644349, 
			 "electric_quadrupole_moment_norm": 30.6539333869, 
			 "total_energy": -1754.89730055, 
			 "HOMO_LUMO_gap": 0.18346, 
			 "cosmo_polarized_energy": -20.33, 
			 "cosmo_cavitation_energy": 40.79, 
			 "cosmo_dispersion_energy": -29.3, 
			 "cosmo_repulsion_energy": 2.23, 
			 "cosmo_total_nonelectrostatic_energy": 13.71, 
			 "SMD_solvation_energy": 6.51 
		},
		"coords": [
			{
				"x": -1.503007407,
				"y": -1.883165517,
				"z": -5.2090462032,
				"element": "O" 
			},
			{
				"x": -1.1700269035,
				"y": -1.7300835581,
				"z": -3.9043232233,
				"element": "C" 
			},
			{
				"x": -0.3488010474,
				"y": -2.4360772221,
				"z": -3.3545108486,
				"element": "O" 
			},
			{
				"x": -1.9113195811,
				"y": -0.6212000426,
				"z": -3.2463028112,
				"element": "C" 
			},
			{
				"x": -1.6563443931,
				"y": -0.3837038925,
				"z": -1.8911661233,
				"element": "C" 
			},
			{
				"x": -2.3087403298,
				"y": 0.6417442455,
				"z": -1.2120990991,
				"element": "C" 
			},
			{
				"x": -3.240866478,
				"y": 1.436049089,
				"z": -1.9044884165,
				"element": "C" 
			},
			{
				"x": -4.1127861085,
				"y": 2.7296882581,
				"z": -1.1272481741,
				"element": "Cl" 
			},
			{
				"x": -3.4991903992,
				"y": 1.1985198972,
				"z": -3.2566164826,
				"element": "C" 
			},
			{
				"x": -2.8374025958,
				"y": 0.1755370559,
				"z": -3.9280839723,
				"element": "C" 
			},
			{
				"x": -1.9640582842,
				"y": 0.9348059097,
				"z": 0.5450069621,
				"element": "S" 
			},
			{
				"x": -3.1574211016,
				"y": 0.5557533567,
				"z": 1.3033108061,
				"element": "O" 
			},
			{
				"x": -1.3752502551,
				"y": 2.2740335322,
				"z": 0.6453320033,
				"element": "O" 
			},
			{
				"x": -0.7902175955,
				"y": -0.2136748078,
				"z": 0.8842105019,
				"element": "N" 
			},
			{
				"x": 0.599517877,
				"y": 0.2136735733,
				"z": 1.1048811831,
				"element": "C" 
			},
			{
				"x": 0.8742964209,
				"y": 0.5556987299,
				"z": 2.5722966857,
				"element": "C" 
			},
			{
				"x": 2.3774266504,
				"y": 0.6902978035,
				"z": 2.9002414013,
				"element": "C" 
			},
			{
				"x": 2.7186718958,
				"y": -0.6609776035,
				"z": 3.5541667729,
				"element": "C" 
			},
			{
				"x": 1.4013553026,
				"y": -1.0035249307,
				"z": 4.2506019999,
				"element": "C" 
			},
			{
				"x": 0.3777264919,
				"y": -0.5392991537,
				"z": 3.3674048355,
				"element": "O" 
			},
			{
				"x": -0.9673832466,
				"y": -2.6243331612,
				"z": -5.5365352839,
				"element": "H" 
			},
			{
				"x": -0.9456513682,
				"y": -1.0104063332,
				"z": -1.3673950537,
				"element": "H" 
			},
			{
				"x": -4.2215461106,
				"y": 1.8215926872,
				"z": -3.7716232319,
				"element": "H" 
			},
			{
				"x": -3.0393109303,
				"y": -0.0055099199,
				"z": -4.9773796335,
				"element": "H" 
			},
			{
				"x": -1.1300263004,
				"y": -0.8190682758,
				"z": 1.6298347333,
				"element": "H" 
			},
			{
				"x": 0.8070913187,
				"y": 1.0781881098,
				"z": 0.4705192444,
				"element": "H" 
			},
			{
				"x": 1.2499387317,
				"y": -0.6100014418,
				"z": 0.7868749301,
				"element": "H" 
			},
			{
				"x": 0.315531941,
				"y": 1.4626268736,
				"z": 2.8333871323,
				"element": "H" 
			},
			{
				"x": 2.9802012269,
				"y": 0.9005608935,
				"z": 2.0112896045,
				"element": "H" 
			},
			{
				"x": 2.5375994122,
				"y": 1.5098107528,
				"z": 3.6075458953,
				"element": "H" 
			},
			{
				"x": 2.9504200563,
				"y": -1.4140350689,
				"z": 2.7931461111,
				"element": "H" 
			},
			{
				"x": 3.5660607128,
				"y": -0.6034113293,
				"z": 4.2428925471,
				"element": "H" 
			},
			{
				"x": 1.2476205887,
				"y": -2.0744551292,
				"z": 4.4134070379,
				"element": "H" 
			},
			{
				"x": 1.3253918088,
				"y": -0.4923533807,
				"z": 5.2230681699,
				"element": "H" 
			}
		],
		 "valence_orbital": [ 
			{
				"type": "occ",
				"energy": -0.29028,
				"method": "rhf"
			},
			{
				"type": "occ",
				"energy": -0.27965,
				"method": "rhf"
			},
			{
				"type": "occ",
				"energy": -0.27824,
				"method": "rhf"
			},
			{
				"type": "occ",
				"energy": -0.26511,
				"method": "rhf"
			},
			{
				"type": "occ",
				"energy": -0.25268,
				"method": "rhf"
			},
			{
				"type": "unocc",
				"energy": -0.06922,
				"method": "rhf"
			},
			{
				"type": "unocc",
				"energy": -0.03959,
				"method": "rhf"
			},
			{
				"type": "unocc",
				"energy": 0.01375,
				"method": "rhf"
			},
			{
				"type": "unocc",
				"energy": 0.02912,
				"method": "rhf"
			},
			{
				"type": "unocc",
				"energy": 0.06245,
				"method": "rhf"
			}
		],
		"cosmo_sigma_profile": { 
			"-0.025": 0.0,
			"-0.024": 0.0,
			"-0.023": 0.0,
			"-0.022": 0.0,
			"-0.021": 0.0,
			"-0.02": 0.0,
			"-0.019": 0.277702669387,
			"-0.018": 0.947123955179,
			"-0.017": 0.961966338263,
			"-0.016": 0.78979494869,
			"-0.015": 0.862495893318,
			"-0.014": 0.757492502699,
			"-0.013": 0.722594809058,
			"-0.012": 0.328459224786,
			"-0.011": 1.47436980327,
			"-0.01": 1.42303785883,
			"-0.009": 1.77684788169,
			"-0.008": 5.55100606671,
			"-0.007": 5.690193394,
			"-0.006": 6.4790739148,
			"-0.005": 14.7510978934,
			"-0.004": 26.744406631,
			"-0.003": 39.1163009745,
			"-0.002": 37.2601148066,
			"-0.001": 36.7900041415,
			"0.0": 29.34236137,
			"0.001": 15.6408888573,
			"0.002": 11.5690886435,
			"0.003": 12.2438754946,
			"0.004": 8.7286984349,
			"0.005": 6.9907819729,
			"0.006": 8.92168149773,
			"0.007": 7.76061107263,
			"0.008": 5.63104142415,
			"0.009": 6.73707340238,
			"0.01": 13.6321163371,
			"0.011": 12.7427037687,
			"0.012": 2.48027006331,
			"0.013": 0.152814500232,
			"0.014": 0.0,
			"0.015": 0.0,
			"0.016": 0.0,
			"0.017": 0.0,
			"0.018": 0.0,
			"0.019": 0.0,
			"0.02": 0.0,
			"0.021": 0.0,
			"0.022": 0.0,
			"0.023": 0.0,
			"0.024": 0.0,
			"0.025": 0.0
		}
	}
}
