{
	 "smiles": "COC1=CC=C(O)C(C=O)=C1", 
	 "Tm": 287.65, 
	 "num_atms": 19, 
	 "gaussian": { 
		 "optdone": 1, 
		 "sigma_profile": "yes", 
		 "theory": "DFT", 
		 "functional": "B3LYP", 
		 "basiset": "6-31G**", 
		 "properties": { 
			 "R2extent": 2798.9415, 
			 "electric_dipole_moment_norm": 3.55741955215, 
			 "electric_quadrupole_moment_norm": 17.0959924582, 
			 "total_energy": -535.316419095, 
			 "HOMO_LUMO_gap": 0.15598, 
			 "cosmo_polarized_energy": -13.03, 
			 "cosmo_cavitation_energy": 23.53, 
			 "cosmo_dispersion_energy": -17.34, 
			 "cosmo_repulsion_energy": 1.39, 
			 "cosmo_total_nonelectrostatic_energy": 7.59, 
			 "SMD_solvation_energy": 6.27 
		},
		"coords": [
			{
				"x": 1.5579689591,
				"y": -0.4929979479,
				"z": 2.8177492864,
				"element": "C" 
			},
			{
				"x": 1.1582912833,
				"y": -1.403214456,
				"z": 1.8041400542,
				"element": "O" 
			},
			{
				"x": -0.0728382132,
				"y": -1.2243288146,
				"z": 1.2403110297,
				"element": "C" 
			},
			{
				"x": -0.4255649105,
				"y": -2.1495512533,
				"z": 0.2413589215,
				"element": "C" 
			},
			{
				"x": -1.6526012298,
				"y": -2.0652425355,
				"z": -0.4011650074,
				"element": "C" 
			},
			{
				"x": -2.5623296287,
				"y": -1.05357245,
				"z": -0.0635128666,
				"element": "C" 
			},
			{
				"x": -3.7799722417,
				"y": -0.9372965349,
				"z": -0.6731328102,
				"element": "O" 
			},
			{
				"x": -2.219201982,
				"y": -0.1245052863,
				"z": 0.9331541392,
				"element": "C" 
			},
			{
				"x": -3.1421108162,
				"y": 0.9616552174,
				"z": 1.3270716283,
				"element": "C" 
			},
			{
				"x": -2.8824380055,
				"y": 1.7879799576,
				"z": 2.1869619836,
				"element": "O" 
			},
			{
				"x": -0.9723514198,
				"y": -0.219261226,
				"z": 1.5782372084,
				"element": "C" 
			},
			{
				"x": 1.6035375316,
				"y": 0.5369364285,
				"z": 2.441140333,
				"element": "H" 
			},
			{
				"x": 0.8811046593,
				"y": -0.5266978537,
				"z": 3.6811123793,
				"element": "H" 
			},
			{
				"x": 2.5551829118,
				"y": -0.8072171636,
				"z": 3.1292063137,
				"element": "H" 
			},
			{
				"x": 0.2831924478,
				"y": -2.9302293343,
				"z": -0.0152377522,
				"element": "H" 
			},
			{
				"x": -1.9095022651,
				"y": -2.7892002047,
				"z": -1.1716812562,
				"element": "H" 
			},
			{
				"x": -3.8750782018,
				"y": -1.6386051115,
				"z": -1.3300485793,
				"element": "H" 
			},
			{
				"x": -4.1068503724,
				"y": 0.9871744144,
				"z": 0.7870488122,
				"element": "H" 
			},
			{
				"x": -0.7619385063,
				"y": 0.5238741544,
				"z": 2.3380861823,
				"element": "H" 
			}
		],
		 "valence_orbital": [ 
			{
				"type": "occ",
				"energy": -0.33668,
				"method": "rhf"
			},
			{
				"type": "occ",
				"energy": -0.30353,
				"method": "rhf"
			},
			{
				"type": "occ",
				"energy": -0.26303,
				"method": "rhf"
			},
			{
				"type": "occ",
				"energy": -0.24499,
				"method": "rhf"
			},
			{
				"type": "occ",
				"energy": -0.21367,
				"method": "rhf"
			},
			{
				"type": "unocc",
				"energy": -0.05769,
				"method": "rhf"
			},
			{
				"type": "unocc",
				"energy": 0.00872,
				"method": "rhf"
			},
			{
				"type": "unocc",
				"energy": 0.04699,
				"method": "rhf"
			},
			{
				"type": "unocc",
				"energy": 0.05702,
				"method": "rhf"
			},
			{
				"type": "unocc",
				"energy": 0.09284,
				"method": "rhf"
			}
		],
		"cosmo_sigma_profile": { 
			"-0.025": 0.0,
			"-0.024": 0.0,
			"-0.023": 0.0,
			"-0.022": 0.0,
			"-0.021": 0.0,
			"-0.02": 0.0,
			"-0.019": 0.122732992499,
			"-0.018": 1.24170256047,
			"-0.017": 1.04489517022,
			"-0.016": 1.10215137825,
			"-0.015": 1.30711273248,
			"-0.014": 0.753805562897,
			"-0.013": 0.531210922324,
			"-0.012": 0.566878461487,
			"-0.011": 1.80972472447,
			"-0.01": 1.60452219598,
			"-0.009": 0.983495794152,
			"-0.008": 1.12892200977,
			"-0.007": 3.07782073621,
			"-0.006": 8.73031754973,
			"-0.005": 16.6088972613,
			"-0.004": 14.1006489342,
			"-0.003": 14.1885036532,
			"-0.002": 9.78153414575,
			"-0.001": 9.45410391653,
			"0.0": 8.31282378752,
			"0.001": 11.8765471595,
			"0.002": 16.2526833506,
			"0.003": 18.7560194003,
			"0.004": 8.35131837144,
			"0.005": 5.33569679025,
			"0.006": 4.32687889442,
			"0.007": 3.73198517753,
			"0.008": 5.00072346465,
			"0.009": 4.51484021204,
			"0.01": 3.723330159,
			"0.011": 3.76512485698,
			"0.012": 3.91587828433,
			"0.013": 1.46942296313,
			"0.014": 0.133376734417,
			"0.015": 0.0,
			"0.016": 0.0,
			"0.017": 0.0,
			"0.018": 0.0,
			"0.019": 0.0,
			"0.02": 0.0,
			"0.021": 0.0,
			"0.022": 0.0,
			"0.023": 0.0,
			"0.024": 0.0,
			"0.025": 0.0
		}
	}
}
