{
	 "smiles": "CCCCCCCCCCCCCCCCCC(CC)C1=CC=CC=C1", 
	 "Tm": 302.45, 
	 "num_atms": 72, 
	 "gaussian": { 
		 "optdone": 1, 
		 "sigma_profile": "yes", 
		 "theory": "DFT", 
		 "functional": "B3LYP", 
		 "basiset": "6-31G**", 
		 "properties": { 
			 "R2extent": 14865.6183, 
			 "electric_dipole_moment_norm": 0.367436116897, 
			 "electric_quadrupole_moment_norm": 4.13018839643, 
			 "total_energy": -1018.55453782, 
			 "HOMO_LUMO_gap": 0.23785, 
			 "cosmo_polarized_energy": -3.9, 
			 "cosmo_cavitation_energy": 68.99, 
			 "cosmo_dispersion_energy": -40.85, 
			 "cosmo_repulsion_energy": 3.22, 
			 "cosmo_total_nonelectrostatic_energy": 31.37, 
			 "SMD_solvation_energy": 8.9 
		},
		"coords": [
			{
				"x": 2.1880667977,
				"y": 3.3960475214,
				"z": 3.2109651988,
				"element": "C" 
			},
			{
				"x": 1.8449529301,
				"y": 4.2433832867,
				"z": 1.9799833855,
				"element": "C" 
			},
			{
				"x": 1.3068918961,
				"y": 3.4359656265,
				"z": 0.7848850004,
				"element": "C" 
			},
			{
				"x": -0.0281557054,
				"y": 2.7025908683,
				"z": 1.0094279091,
				"element": "C" 
			},
			{
				"x": -1.2296923868,
				"y": 3.630808229,
				"z": 1.2428061848,
				"element": "C" 
			},
			{
				"x": -2.5664118457,
				"y": 2.9054187978,
				"z": 1.4736691944,
				"element": "C" 
			},
			{
				"x": -3.0934685135,
				"y": 2.1144245512,
				"z": 0.2673944544,
				"element": "C" 
			},
			{
				"x": -4.4777743114,
				"y": 1.4992984476,
				"z": 0.5167941594,
				"element": "C" 
			},
			{
				"x": -5.0612690206,
				"y": 0.719014349,
				"z": -0.673806354,
				"element": "C" 
			},
			{
				"x": -4.331907202,
				"y": -0.5742487534,
				"z": -1.0884603232,
				"element": "C" 
			},
			{
				"x": -4.3306287713,
				"y": -1.6975965208,
				"z": -0.0243764501,
				"element": "C" 
			},
			{
				"x": -3.0798758644,
				"y": -1.7739645864,
				"z": 0.8724754111,
				"element": "C" 
			},
			{
				"x": -1.831536734,
				"y": -2.3156238966,
				"z": 0.1605051642,
				"element": "C" 
			},
			{
				"x": -0.5902284503,
				"y": -2.3455549571,
				"z": 1.0639498711,
				"element": "C" 
			},
			{
				"x": 0.6440946307,
				"y": -3.0225505871,
				"z": 0.4458316856,
				"element": "C" 
			},
			{
				"x": 1.2301900828,
				"y": -2.3055059237,
				"z": -0.7800267091,
				"element": "C" 
			},
			{
				"x": 2.4991358672,
				"y": -2.992303414,
				"z": -1.3028675813,
				"element": "C" 
			},
			{
				"x": 3.2077896505,
				"y": -2.3070301521,
				"z": -2.5054373585,
				"element": "C" 
			},
			{
				"x": 2.3327375092,
				"y": -2.2228702516,
				"z": -3.774998938,
				"element": "C" 
			},
			{
				"x": 1.9288646997,
				"y": -3.5871508823,
				"z": -4.3459224707,
				"element": "C" 
			},
			{
				"x": 3.8136954105,
				"y": -0.9665465038,
				"z": -2.0988520626,
				"element": "C" 
			},
			{
				"x": 5.0711642652,
				"y": -0.945211488,
				"z": -1.4748440717,
				"element": "C" 
			},
			{
				"x": 5.6582662115,
				"y": 0.2499793503,
				"z": -1.0614927829,
				"element": "C" 
			},
			{
				"x": 4.9967682089,
				"y": 1.4624238966,
				"z": -1.2681148671,
				"element": "C" 
			},
			{
				"x": 3.7482111765,
				"y": 1.4614086429,
				"z": -1.8903784151,
				"element": "C" 
			},
			{
				"x": 3.1636312532,
				"y": 0.2596145063,
				"z": -2.2994365532,
				"element": "C" 
			},
			{
				"x": 1.3030194678,
				"y": 2.9064898615,
				"z": 3.6306413643,
				"element": "H" 
			},
			{
				"x": 2.6269297536,
				"y": 4.011529134,
				"z": 4.0033925958,
				"element": "H" 
			},
			{
				"x": 2.9110984726,
				"y": 2.611082281,
				"z": 2.9601227354,
				"element": "H" 
			},
			{
				"x": 2.7469299155,
				"y": 4.7772125285,
				"z": 1.6536931666,
				"element": "H" 
			},
			{
				"x": 1.1251689458,
				"y": 5.0225755621,
				"z": 2.261654174,
				"element": "H" 
			},
			{
				"x": 2.0663513743,
				"y": 2.6991967902,
				"z": 0.4904234013,
				"element": "H" 
			},
			{
				"x": 1.1931218767,
				"y": 4.1131603815,
				"z": -0.0735610003,
				"element": "H" 
			},
			{
				"x": -0.2189934774,
				"y": 2.0732798457,
				"z": 0.1313932206,
				"element": "H" 
			},
			{
				"x": 0.0635095487,
				"y": 2.0100365571,
				"z": 1.8576087675,
				"element": "H" 
			},
			{
				"x": -1.0314642162,
				"y": 4.2706785391,
				"z": 2.1119256361,
				"element": "H" 
			},
			{
				"x": -1.3307760508,
				"y": 4.3110758654,
				"z": 0.3842791388,
				"element": "H" 
			},
			{
				"x": -2.4658456215,
				"y": 2.2275882193,
				"z": 2.3339453587,
				"element": "H" 
			},
			{
				"x": -3.3228980238,
				"y": 3.6475328139,
				"z": 1.7638359981,
				"element": "H" 
			},
			{
				"x": -3.1480935695,
				"y": 2.7802130029,
				"z": -0.6066218111,
				"element": "H" 
			},
			{
				"x": -2.3797675759,
				"y": 1.3251544331,
				"z": 0.0024359715,
				"element": "H" 
			},
			{
				"x": -5.1767988078,
				"y": 2.307025746,
				"z": 0.7742506074,
				"element": "H" 
			},
			{
				"x": -4.4371082903,
				"y": 0.8519882281,
				"z": 1.4031128195,
				"element": "H" 
			},
			{
				"x": -5.102949244,
				"y": 1.3893658544,
				"z": -1.5438251476,
				"element": "H" 
			},
			{
				"x": -6.1044078621,
				"y": 0.462162157,
				"z": -0.4430908773,
				"element": "H" 
			},
			{
				"x": -3.3029453452,
				"y": -0.3440022239,
				"z": -1.3924529078,
				"element": "H" 
			},
			{
				"x": -4.8250052466,
				"y": -0.9453751063,
				"z": -1.9954664654,
				"element": "H" 
			},
			{
				"x": -4.444770751,
				"y": -2.6687923212,
				"z": -0.5242105506,
				"element": "H" 
			},
			{
				"x": -5.2217300325,
				"y": -1.5861247948,
				"z": 0.6079715604,
				"element": "H" 
			},
			{
				"x": -2.8562396207,
				"y": -0.7852761784,
				"z": 1.2932155758,
				"element": "H" 
			},
			{
				"x": -3.2987771422,
				"y": -2.4230881095,
				"z": 1.7314290557,
				"element": "H" 
			},
			{
				"x": -1.6244670237,
				"y": -1.7129890917,
				"z": -0.7328067916,
				"element": "H" 
			},
			{
				"x": -2.0412449867,
				"y": -3.3328501187,
				"z": -0.2021842851,
				"element": "H" 
			},
			{
				"x": -0.3315907359,
				"y": -1.3180376087,
				"z": 1.3576962361,
				"element": "H" 
			},
			{
				"x": -0.845827322,
				"y": -2.8697168216,
				"z": 1.9951993441,
				"element": "H" 
			},
			{
				"x": 0.3888460759,
				"y": -4.0571035569,
				"z": 0.1734381644,
				"element": "H" 
			},
			{
				"x": 1.4249427936,
				"y": -3.0978113146,
				"z": 1.2148716773,
				"element": "H" 
			},
			{
				"x": 1.456532522,
				"y": -1.264236212,
				"z": -0.5155232513,
				"element": "H" 
			},
			{
				"x": 0.4763747924,
				"y": -2.2651367672,
				"z": -1.5759537737,
				"element": "H" 
			},
			{
				"x": 3.2251802749,
				"y": -3.0641819318,
				"z": -0.48245792,
				"element": "H" 
			},
			{
				"x": 2.2583837806,
				"y": -4.0268206017,
				"z": -1.5804544792,
				"element": "H" 
			},
			{
				"x": 4.0559194903,
				"y": -2.9602750658,
				"z": -2.7580269393,
				"element": "H" 
			},
			{
				"x": 1.4268450849,
				"y": -1.6374437485,
				"z": -3.5777036075,
				"element": "H" 
			},
			{
				"x": 2.8904644253,
				"y": -1.6659583186,
				"z": -4.5379120436,
				"element": "H" 
			},
			{
				"x": 1.2803584155,
				"y": -4.1442753911,
				"z": -3.6622634669,
				"element": "H" 
			},
			{
				"x": 1.3841576315,
				"y": -3.4680355777,
				"z": -5.2881831081,
				"element": "H" 
			},
			{
				"x": 2.8088557622,
				"y": -4.2087993785,
				"z": -4.5484303872,
				"element": "H" 
			},
			{
				"x": 5.5987634802,
				"y": -1.8835276866,
				"z": -1.3167154232,
				"element": "H" 
			},
			{
				"x": 6.6348564894,
				"y": 0.2355392523,
				"z": -0.5851589411,
				"element": "H" 
			},
			{
				"x": 5.4522221833,
				"y": 2.3969971982,
				"z": -0.9534090627,
				"element": "H" 
			},
			{
				"x": 3.225609274,
				"y": 2.3982377721,
				"z": -2.0628955519,
				"element": "H" 
			},
			{
				"x": 2.1936473309,
				"y": 0.2859157459,
				"z": -2.7858014584,
				"element": "H" 
			}
		],
		 "valence_orbital": [ 
			{
				"type": "occ",
				"energy": -0.29628,
				"method": "rhf"
			},
			{
				"type": "occ",
				"energy": -0.29427,
				"method": "rhf"
			},
			{
				"type": "occ",
				"energy": -0.29365,
				"method": "rhf"
			},
			{
				"type": "occ",
				"energy": -0.24396,
				"method": "rhf"
			},
			{
				"type": "occ",
				"energy": -0.23553,
				"method": "rhf"
			},
			{
				"type": "unocc",
				"energy": 0.00232,
				"method": "rhf"
			},
			{
				"type": "unocc",
				"energy": 0.00513,
				"method": "rhf"
			},
			{
				"type": "unocc",
				"energy": 0.06771,
				"method": "rhf"
			},
			{
				"type": "unocc",
				"energy": 0.08213,
				"method": "rhf"
			},
			{
				"type": "unocc",
				"energy": 0.08649,
				"method": "rhf"
			}
		],
		"cosmo_sigma_profile": { 
			"-0.025": 0.0,
			"-0.024": 0.0,
			"-0.023": 0.0,
			"-0.022": 0.0,
			"-0.021": 0.0,
			"-0.02": 0.0,
			"-0.019": 0.0,
			"-0.018": 0.0,
			"-0.017": 0.0,
			"-0.016": 0.0,
			"-0.015": 0.0,
			"-0.014": 0.0,
			"-0.013": 0.0,
			"-0.012": 0.0,
			"-0.011": 0.0,
			"-0.01": 0.0,
			"-0.009": 0.0,
			"-0.008": 0.0,
			"-0.007": 0.0,
			"-0.006": 0.494412936893,
			"-0.005": 6.90511073589,
			"-0.004": 10.6985722828,
			"-0.003": 19.1483962207,
			"-0.002": 60.0887191864,
			"-0.001": 113.573867556,
			"0.0": 128.471555482,
			"0.001": 106.966932199,
			"0.002": 49.7582314668,
			"0.003": 9.04262934122,
			"0.004": 6.75940485129,
			"0.005": 7.41645078675,
			"0.006": 6.92304848852,
			"0.007": 4.28687661959,
			"0.008": 0.0552792738548,
			"0.009": 0.0,
			"0.01": 0.0,
			"0.011": 0.0,
			"0.012": 0.0,
			"0.013": 0.0,
			"0.014": 0.0,
			"0.015": 0.0,
			"0.016": 0.0,
			"0.017": 0.0,
			"0.018": 0.0,
			"0.019": 0.0,
			"0.02": 0.0,
			"0.021": 0.0,
			"0.022": 0.0,
			"0.023": 0.0,
			"0.024": 0.0,
			"0.025": 0.0
		}
	}
}
