{
	 "smiles": "OC(=O)C1CC11CCOC2=C1C=CC=C2", 
	 "Tm": 433.15, 
	 "num_atms": 27, 
	 "gaussian": { 
		 "optdone": 1, 
		 "sigma_profile": "yes", 
		 "theory": "DFT", 
		 "functional": "B3LYP", 
		 "basiset": "6-31G**", 
		 "properties": { 
			 "R2extent": 3660.2826, 
			 "electric_dipole_moment_norm": 3.03367176372, 
			 "electric_quadrupole_moment_norm": 18.4852824452, 
			 "total_energy": -690.159543146, 
			 "HOMO_LUMO_gap": 0.19962, 
			 "cosmo_polarized_energy": -15.85, 
			 "cosmo_cavitation_energy": 29.38, 
			 "cosmo_dispersion_energy": -21.6, 
			 "cosmo_repulsion_energy": 1.67, 
			 "cosmo_total_nonelectrostatic_energy": 9.46, 
			 "SMD_solvation_energy": 5.78 
		},
		"coords": [
			{
				"x": 1.0582964703,
				"y": -3.5577913106,
				"z": 2.4078390035,
				"element": "O" 
			},
			{
				"x": 0.1660618824,
				"y": -2.6051435812,
				"z": 2.7899965247,
				"element": "C" 
			},
			{
				"x": -0.7917424849,
				"y": -2.9156837018,
				"z": 3.4602862668,
				"element": "O" 
			},
			{
				"x": 0.4625348246,
				"y": -1.2156549805,
				"z": 2.3185170827,
				"element": "C" 
			},
			{
				"x": -0.2524255938,
				"y": -0.0689096248,
				"z": 2.9923665015,
				"element": "C" 
			},
			{
				"x": -0.6286372989,
				"y": -0.41804964,
				"z": 1.5759475111,
				"element": "C" 
			},
			{
				"x": -1.9675046707,
				"y": -1.0926606884,
				"z": 1.3010518076,
				"element": "C" 
			},
			{
				"x": -2.9326547081,
				"y": -0.0650612618,
				"z": 0.73119281,
				"element": "C" 
			},
			{
				"x": -2.450972283,
				"y": 0.4617394092,
				"z": -0.5095522167,
				"element": "O" 
			},
			{
				"x": -1.1486798911,
				"y": 0.877608278,
				"z": -0.5199272097,
				"element": "C" 
			},
			{
				"x": -0.2074780162,
				"y": 0.5070769592,
				"z": 0.4638007599,
				"element": "C" 
			},
			{
				"x": 1.0867207115,
				"y": 1.0397123672,
				"z": 0.3508682062,
				"element": "C" 
			},
			{
				"x": 1.4536791549,
				"y": 1.8735273664,
				"z": -0.7017819359,
				"element": "C" 
			},
			{
				"x": 0.5134027854,
				"y": 2.197311346,
				"z": -1.6840128165,
				"element": "C" 
			},
			{
				"x": -0.782539692,
				"y": 1.7054261269,
				"z": -1.5888960219,
				"element": "C" 
			},
			{
				"x": 1.7468626691,
				"y": -3.1689999855,
				"z": 1.8507780701,
				"element": "H" 
			},
			{
				"x": 1.4808131071,
				"y": -1.0423065187,
				"z": 1.9807274833,
				"element": "H" 
			},
			{
				"x": -0.9386208857,
				"y": -0.3551961173,
				"z": 3.7842010869,
				"element": "H" 
			},
			{
				"x": 0.3100714967,
				"y": 0.8440383455,
				"z": 3.161198164,
				"element": "H" 
			},
			{
				"x": -2.3720463206,
				"y": -1.544004818,
				"z": 2.2086191739,
				"element": "H" 
			},
			{
				"x": -1.8403883463,
				"y": -1.8957512565,
				"z": 0.564358676,
				"element": "H" 
			},
			{
				"x": -3.0831891775,
				"y": 0.7616283356,
				"z": 1.4406149733,
				"element": "H" 
			},
			{
				"x": -3.9050247917,
				"y": -0.5065027226,
				"z": 0.5017920676,
				"element": "H" 
			},
			{
				"x": 1.8317350121,
				"y": 0.7996096191,
				"z": 1.1046356021,
				"element": "H" 
			},
			{
				"x": 2.4650846779,
				"y": 2.263948444,
				"z": -0.756678637,
				"element": "H" 
			},
			{
				"x": 0.78615726,
				"y": 2.8413037732,
				"z": -2.5148654019,
				"element": "H" 
			},
			{
				"x": -1.5416158915,
				"y": 1.9531858374,
				"z": -2.3236775319,
				"element": "H" 
			}
		],
		 "valence_orbital": [ 
			{
				"type": "occ",
				"energy": -0.31172,
				"method": "rhf"
			},
			{
				"type": "occ",
				"energy": -0.29799,
				"method": "rhf"
			},
			{
				"type": "occ",
				"energy": -0.27563,
				"method": "rhf"
			},
			{
				"type": "occ",
				"energy": -0.24485,
				"method": "rhf"
			},
			{
				"type": "occ",
				"energy": -0.21889,
				"method": "rhf"
			},
			{
				"type": "unocc",
				"energy": -0.01927,
				"method": "rhf"
			},
			{
				"type": "unocc",
				"energy": 0.00344,
				"method": "rhf"
			},
			{
				"type": "unocc",
				"energy": 0.0136,
				"method": "rhf"
			},
			{
				"type": "unocc",
				"energy": 0.05204,
				"method": "rhf"
			},
			{
				"type": "unocc",
				"energy": 0.08644,
				"method": "rhf"
			}
		],
		"cosmo_sigma_profile": { 
			"-0.025": 0.0,
			"-0.024": 0.0,
			"-0.023": 0.0,
			"-0.022": 0.0,
			"-0.021": 0.0,
			"-0.02": 0.0,
			"-0.019": 0.647886915477,
			"-0.018": 1.40881701723,
			"-0.017": 1.06157771624,
			"-0.016": 0.92964517906,
			"-0.015": 1.16620753272,
			"-0.014": 1.06261608706,
			"-0.013": 0.88105744478,
			"-0.012": 1.29290372029,
			"-0.011": 0.927290335446,
			"-0.01": 0.957977535501,
			"-0.009": 1.34521360201,
			"-0.008": 2.72291834751,
			"-0.007": 3.01524728315,
			"-0.006": 8.04899699824,
			"-0.005": 15.8749593948,
			"-0.004": 23.9340350689,
			"-0.003": 22.7213600037,
			"-0.002": 17.2197069221,
			"-0.001": 14.0911304802,
			"0.0": 13.7756748794,
			"0.001": 11.7968536409,
			"0.002": 11.2440239638,
			"0.003": 11.092921639,
			"0.004": 12.03070856,
			"0.005": 13.1944796297,
			"0.006": 10.4575072159,
			"0.007": 4.04535955902,
			"0.008": 3.51941284266,
			"0.009": 4.4768715846,
			"0.01": 5.0738996186,
			"0.011": 6.06425939031,
			"0.012": 4.32724729737,
			"0.013": 2.15492756294,
			"0.014": 0.231639230192,
			"0.015": 0.0,
			"0.016": 0.0,
			"0.017": 0.0,
			"0.018": 0.0,
			"0.019": 0.0,
			"0.02": 0.0,
			"0.021": 0.0,
			"0.022": 0.0,
			"0.023": 0.0,
			"0.024": 0.0,
			"0.025": 0.0
		}
	}
}
