{
	 "smiles": "ClC1=NC=C(Br)C(Cl)=N1", 
	 "Tm": 303.15, 
	 "num_atms": 10, 
	 "gaussian": { 
		 "optdone": 1, 
		 "sigma_profile": "yes", 
		 "theory": "DFT", 
		 "functional": "B3LYP", 
		 "basiset": "6-31G**", 
		 "properties": { 
			 "R2extent": 4623.4672, 
			 "electric_dipole_moment_norm": 2.23273457894, 
			 "electric_quadrupole_moment_norm": 6.72711846707, 
			 "total_energy": -3754.30032981, 
			 "HOMO_LUMO_gap": 0.20009, 
			 "cosmo_polarized_energy": -5.76, 
			 "cosmo_cavitation_energy": 21.13, 
			 "cosmo_dispersion_energy": -16.65, 
			 "cosmo_repulsion_energy": 1.37, 
			 "cosmo_total_nonelectrostatic_energy": 5.85, 
			 "SMD_solvation_energy": -0.73 
		},
		"coords": [
			{
				"x": -1.9340924356,
				"y": -1.2438701849,
				"z": -1.6855332263,
				"element": "Cl" 
			},
			{
				"x": -0.5196707185,
				"y": -1.6904305994,
				"z": -0.7715641826,
				"element": "C" 
			},
			{
				"x": -0.5101152343,
				"y": -2.9145230991,
				"z": -0.2562391916,
				"element": "N" 
			},
			{
				"x": 0.5837240524,
				"y": -3.2331773472,
				"z": 0.4397564438,
				"element": "C" 
			},
			{
				"x": 1.6498379718,
				"y": -2.349542807,
				"z": 0.6201488263,
				"element": "C" 
			},
			{
				"x": 3.1598455218,
				"y": -2.8796430823,
				"z": 1.6190629931,
				"element": "Br" 
			},
			{
				"x": 1.5084516848,
				"y": -1.0889504653,
				"z": 0.0215975607,
				"element": "C" 
			},
			{
				"x": 2.7455720482,
				"y": 0.1233395462,
				"z": 0.1527914619,
				"element": "Cl" 
			},
			{
				"x": 0.4269619271,
				"y": -0.7639737358,
				"z": -0.6706503343,
				"element": "N" 
			},
			{
				"x": 0.6216851822,
				"y": -4.2284282253,
				"z": 0.8743296491,
				"element": "H" 
			}
		],
		 "valence_orbital": [ 
			{
				"type": "occ",
				"energy": -0.33515,
				"method": "rhf"
			},
			{
				"type": "occ",
				"energy": -0.32697,
				"method": "rhf"
			},
			{
				"type": "occ",
				"energy": -0.32095,
				"method": "rhf"
			},
			{
				"type": "occ",
				"energy": -0.28953,
				"method": "rhf"
			},
			{
				"type": "occ",
				"energy": -0.27764,
				"method": "rhf"
			},
			{
				"type": "unocc",
				"energy": -0.07755,
				"method": "rhf"
			},
			{
				"type": "unocc",
				"energy": -0.06528,
				"method": "rhf"
			},
			{
				"type": "unocc",
				"energy": -0.03069,
				"method": "rhf"
			},
			{
				"type": "unocc",
				"energy": 0.01208,
				"method": "rhf"
			},
			{
				"type": "unocc",
				"energy": 0.03995,
				"method": "rhf"
			}
		],
		"cosmo_sigma_profile": { 
			"-0.025": 0.0,
			"-0.024": 0.0,
			"-0.023": 0.0,
			"-0.022": 0.0,
			"-0.021": 0.0,
			"-0.02": 0.0,
			"-0.019": 0.0,
			"-0.018": 0.0,
			"-0.017": 0.0,
			"-0.016": 0.0,
			"-0.015": 0.0,
			"-0.014": 0.0,
			"-0.013": 0.0,
			"-0.012": 0.0,
			"-0.011": 0.149732254235,
			"-0.01": 1.761608411,
			"-0.009": 1.79175983347,
			"-0.008": 2.1614100299,
			"-0.007": 4.33461944752,
			"-0.006": 5.69900080327,
			"-0.005": 9.44352094164,
			"-0.004": 15.3220195674,
			"-0.003": 11.6509070888,
			"-0.002": 12.0602351946,
			"-0.001": 12.7934942381,
			"0.0": 12.5653018436,
			"0.001": 17.6379977022,
			"0.002": 24.2051607149,
			"0.003": 23.0547092224,
			"0.004": 7.61693145608,
			"0.005": 3.98672319347,
			"0.006": 2.62894940357,
			"0.007": 2.54971734204,
			"0.008": 2.6743737011,
			"0.009": 1.7456563575,
			"0.01": 1.67925867458,
			"0.011": 1.28074621663,
			"0.012": 0.636054560358,
			"0.013": 0.0712374245717,
			"0.014": 0.0,
			"0.015": 0.0,
			"0.016": 0.0,
			"0.017": 0.0,
			"0.018": 0.0,
			"0.019": 0.0,
			"0.02": 0.0,
			"0.021": 0.0,
			"0.022": 0.0,
			"0.023": 0.0,
			"0.024": 0.0,
			"0.025": 0.0
		}
	}
}
