{
	 "smiles": "CCCCCCCCCCCCC(OC1=CC=C(C=C1)[N+]([O-])=O)C(=O)NN", 
	 "Tm": 400.15, 
	 "num_atms": 60, 
	 "gaussian": { 
		 "optdone": 1, 
		 "sigma_profile": "yes", 
		 "theory": "DFT", 
		 "functional": "B3LYP", 
		 "basiset": "6-31G**", 
		 "properties": { 
			 "R2extent": 17362.9132, 
			 "electric_dipole_moment_norm": 4.19764053487, 
			 "electric_quadrupole_moment_norm": 38.8021471408, 
			 "total_energy": -1247.06227926, 
			 "HOMO_LUMO_gap": 0.16507, 
			 "cosmo_polarized_energy": -19.87, 
			 "cosmo_cavitation_energy": 60.37, 
			 "cosmo_dispersion_energy": -38.07, 
			 "cosmo_repulsion_energy": 2.91, 
			 "cosmo_total_nonelectrostatic_energy": 25.22, 
			 "SMD_solvation_energy": 11.63 
		},
		"coords": [
			{
				"x": 2.7442721985,
				"y": 6.357461011,
				"z": 0.2954459892,
				"element": "C" 
			},
			{
				"x": 1.4278983252,
				"y": 6.0567518231,
				"z": -0.4310238647,
				"element": "C" 
			},
			{
				"x": 1.3099993742,
				"y": 4.6171617842,
				"z": -0.9626978417,
				"element": "C" 
			},
			{
				"x": 1.3413095291,
				"y": 3.5064692325,
				"z": 0.1031230554,
				"element": "C" 
			},
			{
				"x": 0.2327412557,
				"y": 3.5643326604,
				"z": 1.170937803,
				"element": "C" 
			},
			{
				"x": -1.2330746114,
				"y": 3.5116854644,
				"z": 0.6933042909,
				"element": "C" 
			},
			{
				"x": -1.7257138419,
				"y": 2.1702052752,
				"z": 0.1096252511,
				"element": "C" 
			},
			{
				"x": -1.4593750519,
				"y": 1.9482021657,
				"z": -1.3884699493,
				"element": "C" 
			},
			{
				"x": -2.0354191663,
				"y": 0.6299992198,
				"z": -1.9385436377,
				"element": "C" 
			},
			{
				"x": -1.3364113175,
				"y": -0.6613087855,
				"z": -1.4737546073,
				"element": "C" 
			},
			{
				"x": 0.0963980473,
				"y": -0.8191040228,
				"z": -2.0117233025,
				"element": "C" 
			},
			{
				"x": 0.7382023925,
				"y": -2.2029446251,
				"z": -1.7999893697,
				"element": "C" 
			},
			{
				"x": 1.2702774975,
				"y": -2.52353713,
				"z": -0.3902619659,
				"element": "C" 
			},
			{
				"x": 0.2392945619,
				"y": -2.5497358625,
				"z": 0.6147983821,
				"element": "O" 
			},
			{
				"x": -0.5194501077,
				"y": -3.6660111721,
				"z": 0.7942464763,
				"element": "C" 
			},
			{
				"x": -1.4901432042,
				"y": -3.5698555904,
				"z": 1.8086539007,
				"element": "C" 
			},
			{
				"x": -2.3140588716,
				"y": -4.6449016188,
				"z": 2.0970231619,
				"element": "C" 
			},
			{
				"x": -2.168679478,
				"y": -5.8262239789,
				"z": 1.3650826862,
				"element": "C" 
			},
			{
				"x": -1.217319307,
				"y": -5.9393178588,
				"z": 0.3553432908,
				"element": "C" 
			},
			{
				"x": -0.3899195117,
				"y": -4.8583290986,
				"z": 0.0634339707,
				"element": "C" 
			},
			{
				"x": -3.0366176854,
				"y": -6.9657207788,
				"z": 1.663336597,
				"element": "N" 
			},
			{
				"x": -3.8673664748,
				"y": -6.8312907988,
				"z": 2.5632728011,
				"element": "O" 
			},
			{
				"x": -2.8857154696,
				"y": -7.9913841381,
				"z": 0.9976084487,
				"element": "O" 
			},
			{
				"x": 2.4261153623,
				"y": -1.5726362015,
				"z": -0.0245412705,
				"element": "C" 
			},
			{
				"x": 3.4707832893,
				"y": -1.712919651,
				"z": -0.6501718168,
				"element": "O" 
			},
			{
				"x": 2.3180995462,
				"y": -0.6144681028,
				"z": 0.9430032877,
				"element": "N" 
			},
			{
				"x": 1.211454696,
				"y": -0.1784024944,
				"z": 1.696174344,
				"element": "N" 
			},
			{
				"x": 2.8573706756,
				"y": 5.7572182409,
				"z": 1.2043116743,
				"element": "H" 
			},
			{
				"x": 3.6069363403,
				"y": 6.1475858301,
				"z": -0.347856085,
				"element": "H" 
			},
			{
				"x": 2.799428062,
				"y": 7.4104400897,
				"z": 0.5907888696,
				"element": "H" 
			},
			{
				"x": 0.5846775741,
				"y": 6.2787166263,
				"z": 0.2357587158,
				"element": "H" 
			},
			{
				"x": 1.3244493312,
				"y": 6.7449564735,
				"z": -1.2797225016,
				"element": "H" 
			},
			{
				"x": 0.3864360593,
				"y": 4.5343597526,
				"z": -1.5496216433,
				"element": "H" 
			},
			{
				"x": 2.1302526076,
				"y": 4.4370392042,
				"z": -1.6713224383,
				"element": "H" 
			},
			{
				"x": 1.3166248903,
				"y": 2.5347613998,
				"z": -0.4061211317,
				"element": "H" 
			},
			{
				"x": 2.3079693795,
				"y": 3.5318009466,
				"z": 0.622427076,
				"element": "H" 
			},
			{
				"x": 0.3597513995,
				"y": 4.4838128106,
				"z": 1.7570622157,
				"element": "H" 
			},
			{
				"x": 0.3994699577,
				"y": 2.7393364883,
				"z": 1.8765988464,
				"element": "H" 
			},
			{
				"x": -1.4282005091,
				"y": 4.3144557038,
				"z": -0.0304489145,
				"element": "H" 
			},
			{
				"x": -1.8578028154,
				"y": 3.7463970436,
				"z": 1.5643949321,
				"element": "H" 
			},
			{
				"x": -1.2984616553,
				"y": 1.348712467,
				"z": 0.7026602344,
				"element": "H" 
			},
			{
				"x": -2.8114196677,
				"y": 2.10108559,
				"z": 0.2634377033,
				"element": "H" 
			},
			{
				"x": -0.386589659,
				"y": 2.0032892869,
				"z": -1.6039701206,
				"element": "H" 
			},
			{
				"x": -1.9147489086,
				"y": 2.7804941348,
				"z": -1.9415210355,
				"element": "H" 
			},
			{
				"x": -2.0058943602,
				"y": 0.6615256907,
				"z": -3.0362169578,
				"element": "H" 
			},
			{
				"x": -3.0982590826,
				"y": 0.5719254841,
				"z": -1.6673189266,
				"element": "H" 
			},
			{
				"x": -1.9312382992,
				"y": -1.5173213134,
				"z": -1.8200155422,
				"element": "H" 
			},
			{
				"x": -1.3413059074,
				"y": -0.7253012002,
				"z": -0.3796529302,
				"element": "H" 
			},
			{
				"x": 0.7551671072,
				"y": -0.0434250611,
				"z": -1.5996730862,
				"element": "H" 
			},
			{
				"x": 0.0747259619,
				"y": -0.6355019538,
				"z": -3.0939715838,
				"element": "H" 
			},
			{
				"x": 1.6074173887,
				"y": -2.3013183249,
				"z": -2.4582757169,
				"element": "H" 
			},
			{
				"x": 0.0275580032,
				"y": -2.9851948389,
				"z": -2.0922319327,
				"element": "H" 
			},
			{
				"x": 1.761515094,
				"y": -3.5013630191,
				"z": -0.4158218524,
				"element": "H" 
			},
			{
				"x": -1.5786365838,
				"y": -2.6394156141,
				"z": 2.3591157505,
				"element": "H" 
			},
			{
				"x": -3.0653369958,
				"y": -4.5903096929,
				"z": 2.8748019353,
				"element": "H" 
			},
			{
				"x": -1.1361602445,
				"y": -6.869252853,
				"z": -0.193581293,
				"element": "H" 
			},
			{
				"x": 0.3386617122,
				"y": -4.9571682047,
				"z": -0.7306419763,
				"element": "H" 
			},
			{
				"x": 3.1616223957,
				"y": -0.0686796719,
				"z": 1.0685554168,
				"element": "H" 
			},
			{
				"x": 0.4680137932,
				"y": 0.1182026365,
				"z": 1.0692852845,
				"element": "H" 
			},
			{
				"x": 0.8543249787,
				"y": -0.9587408797,
				"z": 2.2382509033,
				"element": "H" 
			}
		],
		 "valence_orbital": [ 
			{
				"type": "occ",
				"energy": -0.28847,
				"method": "rhf"
			},
			{
				"type": "occ",
				"energy": -0.28616,
				"method": "rhf"
			},
			{
				"type": "occ",
				"energy": -0.26976,
				"method": "rhf"
			},
			{
				"type": "occ",
				"energy": -0.26522,
				"method": "rhf"
			},
			{
				"type": "occ",
				"energy": -0.2511,
				"method": "rhf"
			},
			{
				"type": "unocc",
				"energy": -0.08603,
				"method": "rhf"
			},
			{
				"type": "unocc",
				"energy": -0.03568,
				"method": "rhf"
			},
			{
				"type": "unocc",
				"energy": -0.00116,
				"method": "rhf"
			},
			{
				"type": "unocc",
				"energy": 0.00804,
				"method": "rhf"
			},
			{
				"type": "unocc",
				"energy": 0.03238,
				"method": "rhf"
			}
		],
		"cosmo_sigma_profile": { 
			"-0.025": 0.0,
			"-0.024": 0.0,
			"-0.023": 0.0,
			"-0.022": 0.0,
			"-0.021": 0.0,
			"-0.02": 0.0,
			"-0.019": 0.0,
			"-0.018": 0.0,
			"-0.017": 0.0,
			"-0.016": 0.0,
			"-0.015": 0.0,
			"-0.014": 0.166882835331,
			"-0.013": 0.754307312955,
			"-0.012": 1.41243254395,
			"-0.011": 0.463820676551,
			"-0.01": 1.97078980599,
			"-0.009": 4.41665445466,
			"-0.008": 7.92422384945,
			"-0.007": 13.237611228,
			"-0.006": 12.7557896158,
			"-0.005": 13.2005433384,
			"-0.004": 15.8775180048,
			"-0.003": 25.8133515624,
			"-0.002": 48.7784708438,
			"-0.001": 69.4770752326,
			"0.0": 76.7320804092,
			"0.001": 72.1614014509,
			"0.002": 35.0178899075,
			"0.003": 7.10076281549,
			"0.004": 4.92901013596,
			"0.005": 5.32987834979,
			"0.006": 5.72867730574,
			"0.007": 6.6188817516,
			"0.008": 12.6307521944,
			"0.009": 6.11030861039,
			"0.01": 6.07868581096,
			"0.011": 2.7912816139,
			"0.012": 2.85609241788,
			"0.013": 5.35521664477,
			"0.014": 3.79571640363,
			"0.015": 0.355874194373,
			"0.016": 0.0,
			"0.017": 0.0,
			"0.018": 0.0,
			"0.019": 0.0,
			"0.02": 0.0,
			"0.021": 0.0,
			"0.022": 0.0,
			"0.023": 0.0,
			"0.024": 0.0,
			"0.025": 0.0
		}
	}
}
