{
	 "smiles": "OC(=O)C1=C(F)C=C(Cl)C(=C1)S(Cl)(=O)=O", 
	 "Tm": 418.15, 
	 "num_atms": 18, 
	 "gaussian": { 
		 "optdone": 1, 
		 "sigma_profile": "yes", 
		 "theory": "DFT", 
		 "functional": "B3LYP", 
		 "basiset": "6-31G**", 
		 "properties": { 
			 "R2extent": 6926.9328, 
			 "electric_dipole_moment_norm": 5.92852970727, 
			 "electric_quadrupole_moment_norm": 15.75376485, 
			 "total_energy": -1987.77850544, 
			 "HOMO_LUMO_gap": 0.1948, 
			 "cosmo_polarized_energy": -16.32, 
			 "cosmo_cavitation_energy": 28.87, 
			 "cosmo_dispersion_energy": -21.74, 
			 "cosmo_repulsion_energy": 1.62, 
			 "cosmo_total_nonelectrostatic_energy": 8.75, 
			 "SMD_solvation_energy": 5.09 
		},
		"coords": [
			{
				"x": 2.0657388507,
				"y": -2.8789913488,
				"z": -2.0185969679,
				"element": "O" 
			},
			{
				"x": 1.5486675326,
				"y": -1.8155892898,
				"z": -2.6596340716,
				"element": "C" 
			},
			{
				"x": 1.9112149041,
				"y": -1.5212991197,
				"z": -3.7730580053,
				"element": "O" 
			},
			{
				"x": 0.4979040807,
				"y": -0.9993867668,
				"z": -1.9425508736,
				"element": "C" 
			},
			{
				"x": -0.00491607,
				"y": -1.232666623,
				"z": -0.6613272341,
				"element": "C" 
			},
			{
				"x": 0.4559594351,
				"y": -2.2832086891,
				"z": 0.0645152468,
				"element": "F" 
			},
			{
				"x": -0.9752309569,
				"y": -0.441320169,
				"z": -0.0642754488,
				"element": "C" 
			},
			{
				"x": -1.4834937432,
				"y": 0.652024299,
				"z": -0.763282818,
				"element": "C" 
			},
			{
				"x": -2.7090050598,
				"y": 1.6051204776,
				"z": 0.0074757588,
				"element": "Cl" 
			},
			{
				"x": -0.9964307163,
				"y": 0.9208414559,
				"z": -2.0571871296,
				"element": "C" 
			},
			{
				"x": -0.0264277307,
				"y": 0.1018907334,
				"z": -2.6282529271,
				"element": "C" 
			},
			{
				"x": -1.5149726973,
				"y": 2.3329207456,
				"z": -3.0521047843,
				"element": "S" 
			},
			{
				"x": -3.4927468902,
				"y": 1.7740487204,
				"z": -3.5597688855,
				"element": "Cl" 
			},
			{
				"x": -1.6007803755,
				"y": 3.5247184225,
				"z": -2.2234301728,
				"element": "O" 
			},
			{
				"x": -0.7504783063,
				"y": 2.3073010576,
				"z": -4.2903776783,
				"element": "O" 
			},
			{
				"x": 1.6757422418,
				"y": -2.9847858972,
				"z": -1.1375736555,
				"element": "H" 
			},
			{
				"x": -1.3271972559,
				"y": -0.6787379248,
				"z": 0.9321406894,
				"element": "H" 
			},
			{
				"x": 0.3476527571,
				"y": 0.3047199161,
				"z": -3.6257110426,
				"element": "H" 
			}
		],
		 "valence_orbital": [ 
			{
				"type": "occ",
				"energy": -0.33809,
				"method": "rhf"
			},
			{
				"type": "occ",
				"energy": -0.32733,
				"method": "rhf"
			},
			{
				"type": "occ",
				"energy": -0.31565,
				"method": "rhf"
			},
			{
				"type": "occ",
				"energy": -0.30258,
				"method": "rhf"
			},
			{
				"type": "occ",
				"energy": -0.30144,
				"method": "rhf"
			},
			{
				"type": "unocc",
				"energy": -0.10664,
				"method": "rhf"
			},
			{
				"type": "unocc",
				"energy": -0.09239,
				"method": "rhf"
			},
			{
				"type": "unocc",
				"energy": -0.06989,
				"method": "rhf"
			},
			{
				"type": "unocc",
				"energy": -0.01734,
				"method": "rhf"
			},
			{
				"type": "unocc",
				"energy": 0.0023,
				"method": "rhf"
			}
		],
		"cosmo_sigma_profile": { 
			"-0.025": 0.0,
			"-0.024": 0.0,
			"-0.023": 0.0,
			"-0.022": 0.0,
			"-0.021": 0.0,
			"-0.02": 0.0,
			"-0.019": 0.0,
			"-0.018": 0.0,
			"-0.017": 0.0,
			"-0.016": 0.0,
			"-0.015": 0.307528366942,
			"-0.014": 0.582186498097,
			"-0.013": 1.00964791833,
			"-0.012": 2.22428830982,
			"-0.011": 3.21161311853,
			"-0.01": 3.05366421209,
			"-0.009": 3.71738420018,
			"-0.008": 3.8718063119,
			"-0.007": 4.87438104555,
			"-0.006": 6.57339743477,
			"-0.005": 15.5864758117,
			"-0.004": 21.466404453,
			"-0.003": 22.5824248716,
			"-0.002": 12.5081322635,
			"-0.001": 12.4961397653,
			"0.0": 14.4999318246,
			"0.001": 18.5694928467,
			"0.002": 21.3384851164,
			"0.003": 13.4920617282,
			"0.004": 5.12624092131,
			"0.005": 6.23308610768,
			"0.006": 6.97470617372,
			"0.007": 11.3164905504,
			"0.008": 10.9914213249,
			"0.009": 4.86979231827,
			"0.01": 5.33919284071,
			"0.011": 3.88974969533,
			"0.012": 1.69053269223,
			"0.013": 0.0292303471268,
			"0.014": 0.0,
			"0.015": 0.0,
			"0.016": 0.0,
			"0.017": 0.0,
			"0.018": 0.0,
			"0.019": 0.0,
			"0.02": 0.0,
			"0.021": 0.0,
			"0.022": 0.0,
			"0.023": 0.0,
			"0.024": 0.0,
			"0.025": 0.0
		}
	}
}
