{
	 "smiles": "OC(CC1=CC=CC=C1)C(CC1=CC=CC=C1)=NNC1=CC=C(C=C1)[N+]([O-])=O", 
	 "Tm": 395.15, 
	 "num_atms": 49, 
	 "gaussian": { 
		 "optdone": 1, 
		 "sigma_profile": "yes", 
		 "theory": "DFT", 
		 "functional": "B3LYP", 
		 "basiset": "6-31G**", 
		 "properties": { 
			 "R2extent": 12673.5804, 
			 "electric_dipole_moment_norm": 8.23241259535, 
			 "electric_quadrupole_moment_norm": 37.8170300324, 
			 "total_energy": -1240.79830564, 
			 "HOMO_LUMO_gap": 0.14461, 
			 "cosmo_polarized_energy": -19.69, 
			 "cosmo_cavitation_energy": 52.93, 
			 "cosmo_dispersion_energy": -34.47, 
			 "cosmo_repulsion_energy": 2.6, 
			 "cosmo_total_nonelectrostatic_energy": 21.06, 
			 "SMD_solvation_energy": 9.97 
		},
		"coords": [
			{
				"x": 2.6833487849,
				"y": -1.6067655741,
				"z": -2.3153510384,
				"element": "O" 
			},
			{
				"x": 1.3793140524,
				"y": -2.0506591474,
				"z": -2.6167155209,
				"element": "C" 
			},
			{
				"x": 1.1992363661,
				"y": -3.5103107225,
				"z": -2.1206131054,
				"element": "C" 
			},
			{
				"x": 1.1838982966,
				"y": -3.728980998,
				"z": -0.6212887928,
				"element": "C" 
			},
			{
				"x": 0.1025794584,
				"y": -4.3858505398,
				"z": -0.0160172991,
				"element": "C" 
			},
			{
				"x": 0.0810677414,
				"y": -4.6268388987,
				"z": 1.3601921818,
				"element": "C" 
			},
			{
				"x": 1.1475133349,
				"y": -4.2115561327,
				"z": 2.1575458173,
				"element": "C" 
			},
			{
				"x": 2.2343535512,
				"y": -3.5628824593,
				"z": 1.5664845502,
				"element": "C" 
			},
			{
				"x": 2.2569967739,
				"y": -3.3285543746,
				"z": 0.1916380621,
				"element": "C" 
			},
			{
				"x": 0.3215803779,
				"y": -1.0642350414,
				"z": -2.1277784331,
				"element": "C" 
			},
			{
				"x": -1.0999288133,
				"y": -1.2371704969,
				"z": -2.6352659908,
				"element": "C" 
			},
			{
				"x": -2.2424379327,
				"y": -1.0140690573,
				"z": -1.651841948,
				"element": "C" 
			},
			{
				"x": -3.360007534,
				"y": -0.2597081912,
				"z": -2.0401649685,
				"element": "C" 
			},
			{
				"x": -4.4359096251,
				"y": -0.0727212173,
				"z": -1.1694216014,
				"element": "C" 
			},
			{
				"x": -4.4075186812,
				"y": -0.6360117217,
				"z": 0.1068536873,
				"element": "C" 
			},
			{
				"x": -3.2977479532,
				"y": -1.3848870761,
				"z": 0.5051279361,
				"element": "C" 
			},
			{
				"x": -2.2236600128,
				"y": -1.5734988815,
				"z": -0.3649428241,
				"element": "C" 
			},
			{
				"x": 0.7792724738,
				"y": -0.0717511518,
				"z": -1.4499729653,
				"element": "N" 
			},
			{
				"x": -0.0316199062,
				"y": 0.9390663263,
				"z": -1.0526154896,
				"element": "N" 
			},
			{
				"x": 0.4420543552,
				"y": 1.9713208306,
				"z": -0.2624511758,
				"element": "C" 
			},
			{
				"x": -0.4839985786,
				"y": 2.9236667846,
				"z": 0.213643709,
				"element": "C" 
			},
			{
				"x": -0.0596946684,
				"y": 3.9898803135,
				"z": 0.9883571699,
				"element": "C" 
			},
			{
				"x": 1.2976522002,
				"y": 4.1136291606,
				"z": 1.2956024211,
				"element": "C" 
			},
			{
				"x": 2.2286132664,
				"y": 3.1795947826,
				"z": 0.8355742902,
				"element": "C" 
			},
			{
				"x": 1.806441415,
				"y": 2.1111991343,
				"z": 0.059407289,
				"element": "C" 
			},
			{
				"x": 1.7471252856,
				"y": 5.2341842123,
				"z": 2.1109749582,
				"element": "N" 
			},
			{
				"x": 2.9516703593,
				"y": 5.3158285123,
				"z": 2.3657483431,
				"element": "O" 
			},
			{
				"x": 0.8974432739,
				"y": 6.0398087936,
				"z": 2.5015998261,
				"element": "O" 
			},
			{
				"x": 2.571312402,
				"y": -0.7597027769,
				"z": -1.8511175916,
				"element": "H" 
			},
			{
				"x": 1.2634201495,
				"y": -2.0936802266,
				"z": -3.7162186609,
				"element": "H" 
			},
			{
				"x": 0.284301523,
				"y": -3.9258241034,
				"z": -2.5589130395,
				"element": "H" 
			},
			{
				"x": 2.0307252082,
				"y": -4.0682181633,
				"z": -2.568410822,
				"element": "H" 
			},
			{
				"x": -0.7298174285,
				"y": -4.7218241494,
				"z": -0.6305550406,
				"element": "H" 
			},
			{
				"x": -0.76577764,
				"y": -5.1427706457,
				"z": 1.8044982959,
				"element": "H" 
			},
			{
				"x": 1.1363708236,
				"y": -4.3976505723,
				"z": 3.2276812314,
				"element": "H" 
			},
			{
				"x": 3.0732703965,
				"y": -3.2431181039,
				"z": 2.1785742413,
				"element": "H" 
			},
			{
				"x": 3.1042477512,
				"y": -2.8311964672,
				"z": -0.2662533109,
				"element": "H" 
			},
			{
				"x": -1.2293988711,
				"y": -0.5495494492,
				"z": -3.4838981596,
				"element": "H" 
			},
			{
				"x": -1.1863163495,
				"y": -2.243295277,
				"z": -3.0619823786,
				"element": "H" 
			},
			{
				"x": -3.3897319204,
				"y": 0.180676074,
				"z": -3.0341456896,
				"element": "H" 
			},
			{
				"x": -5.2927337547,
				"y": 0.5128607405,
				"z": -1.4899077342,
				"element": "H" 
			},
			{
				"x": -5.2411771706,
				"y": -0.4898911118,
				"z": 0.7872759274,
				"element": "H" 
			},
			{
				"x": -3.2644025878,
				"y": -1.8232386858,
				"z": 1.4983249179,
				"element": "H" 
			},
			{
				"x": -1.3642516003,
				"y": -2.1528921001,
				"z": -0.0415390891,
				"element": "H" 
			},
			{
				"x": -1.0369661695,
				"y": 0.8225503839,
				"z": -1.1280625708,
				"element": "H" 
			},
			{
				"x": -1.5375324126,
				"y": 2.8170625592,
				"z": -0.0301372215,
				"element": "H" 
			},
			{
				"x": -0.757022284,
				"y": 4.7287761074,
				"z": 1.3626524671,
				"element": "H" 
			},
			{
				"x": 3.2724339158,
				"y": 3.3047644912,
				"z": 1.0955154833,
				"element": "H" 
			},
			{
				"x": 2.5172083574,
				"y": 1.3784343081,
				"z": -0.2983903435,
				"element": "H" 
			}
		],
		 "valence_orbital": [ 
			{
				"type": "occ",
				"energy": -0.27104,
				"method": "rhf"
			},
			{
				"type": "occ",
				"energy": -0.26284,
				"method": "rhf"
			},
			{
				"type": "occ",
				"energy": -0.25086,
				"method": "rhf"
			},
			{
				"type": "occ",
				"energy": -0.24372,
				"method": "rhf"
			},
			{
				"type": "occ",
				"energy": -0.21868,
				"method": "rhf"
			},
			{
				"type": "unocc",
				"energy": -0.07407,
				"method": "rhf"
			},
			{
				"type": "unocc",
				"energy": -0.02788,
				"method": "rhf"
			},
			{
				"type": "unocc",
				"energy": -0.02608,
				"method": "rhf"
			},
			{
				"type": "unocc",
				"energy": -0.02197,
				"method": "rhf"
			},
			{
				"type": "unocc",
				"energy": -0.01507,
				"method": "rhf"
			}
		],
		"cosmo_sigma_profile": { 
			"-0.025": 0.0,
			"-0.024": 0.0,
			"-0.023": 0.0,
			"-0.022": 0.0,
			"-0.021": 0.0,
			"-0.02": 0.0,
			"-0.019": 0.0,
			"-0.018": 0.0,
			"-0.017": 0.0,
			"-0.016": 0.0,
			"-0.015": 0.0,
			"-0.014": 0.0,
			"-0.013": 0.0,
			"-0.012": 0.0273391913852,
			"-0.011": 0.638728885237,
			"-0.01": 0.673921184458,
			"-0.009": 1.23811716775,
			"-0.008": 3.9686664683,
			"-0.007": 11.9566866057,
			"-0.006": 23.313775522,
			"-0.005": 36.6775843587,
			"-0.004": 33.5035070828,
			"-0.003": 34.5389819301,
			"-0.002": 27.0016539053,
			"-0.001": 32.0110946145,
			"0.0": 31.218404811,
			"0.001": 33.6896677793,
			"0.002": 35.364297718,
			"0.003": 27.2026750464,
			"0.004": 19.172125234,
			"0.005": 19.8519472992,
			"0.006": 12.8476828303,
			"0.007": 5.99986218897,
			"0.008": 9.53535049926,
			"0.009": 8.54283506316,
			"0.01": 5.89798919241,
			"0.011": 3.2777295756,
			"0.012": 1.32282842211,
			"0.013": 1.38774035649,
			"0.014": 1.28881334582,
			"0.015": 0.213805092812,
			"0.016": 0.0,
			"0.017": 0.0,
			"0.018": 0.0,
			"0.019": 0.0,
			"0.02": 0.0,
			"0.021": 0.0,
			"0.022": 0.0,
			"0.023": 0.0,
			"0.024": 0.0,
			"0.025": 0.0
		}
	}
}
