{
	 "smiles": "COC1=C(SC)C=CC(=C1)C(C)=O", 
	 "Tm": 366.15, 
	 "num_atms": 25, 
	 "gaussian": { 
		 "optdone": 1, 
		 "sigma_profile": "yes", 
		 "theory": "DFT", 
		 "functional": "B3LYP", 
		 "basiset": "6-31G**", 
		 "properties": { 
			 "R2extent": 3795.4613, 
			 "electric_dipole_moment_norm": 3.27168521255, 
			 "electric_quadrupole_moment_norm": 10.0149136392, 
			 "total_energy": -936.918600707, 
			 "HOMO_LUMO_gap": 0.16271, 
			 "cosmo_polarized_energy": -9.67, 
			 "cosmo_cavitation_energy": 30.17, 
			 "cosmo_dispersion_energy": -21.72, 
			 "cosmo_repulsion_energy": 1.69, 
			 "cosmo_total_nonelectrostatic_energy": 10.13, 
			 "SMD_solvation_energy": 6.79 
		},
		"coords": [
			{
				"x": -1.8068794327,
				"y": 1.1859606068,
				"z": -0.8616958588,
				"element": "C" 
			},
			{
				"x": -0.4106542208,
				"y": 0.9681637235,
				"z": -1.0962250371,
				"element": "O" 
			},
			{
				"x": 0.3269018565,
				"y": 0.72718579,
				"z": 0.042944048,
				"element": "C" 
			},
			{
				"x": 0.9341849387,
				"y": 1.782271256,
				"z": 0.7527210472,
				"element": "C" 
			},
			{
				"x": 0.7261206944,
				"y": 3.4970740524,
				"z": 0.2927456246,
				"element": "S" 
			},
			{
				"x": 1.3676983901,
				"y": 3.5183398532,
				"z": -1.4259962517,
				"element": "C" 
			},
			{
				"x": 1.6841989899,
				"y": 1.4749544342,
				"z": 1.8997432152,
				"element": "C" 
			},
			{
				"x": 1.8339171109,
				"y": 0.1613465466,
				"z": 2.3276476727,
				"element": "C" 
			},
			{
				"x": 1.2529358794,
				"y": -0.8911210999,
				"z": 1.604938019,
				"element": "C" 
			},
			{
				"x": 0.5019763486,
				"y": -0.592473859,
				"z": 0.4600553676,
				"element": "C" 
			},
			{
				"x": 1.465611563,
				"y": -2.2935346617,
				"z": 2.0920271681,
				"element": "C" 
			},
			{
				"x": 0.8574616581,
				"y": -3.4433523147,
				"z": 1.306786975,
				"element": "C" 
			},
			{
				"x": 2.1167956648,
				"y": -2.5064296662,
				"z": 3.1036788178,
				"element": "O" 
			},
			{
				"x": -1.9688266423,
				"y": 2.0658434214,
				"z": -0.2295817712,
				"element": "H" 
			},
			{
				"x": -2.2611720774,
				"y": 1.3514506863,
				"z": -1.8404636125,
				"element": "H" 
			},
			{
				"x": -2.2671604501,
				"y": 0.3075640352,
				"z": -0.3917516779,
				"element": "H" 
			},
			{
				"x": 1.2388696239,
				"y": 4.5433712933,
				"z": -1.7810052015,
				"element": "H" 
			},
			{
				"x": 2.4287440345,
				"y": 3.2624911353,
				"z": -1.4411247443,
				"element": "H" 
			},
			{
				"x": 0.7987061787,
				"y": 2.8321337346,
				"z": -2.0521975299,
				"element": "H" 
			},
			{
				"x": 2.1580215076,
				"y": 2.2853284691,
				"z": 2.4446984208,
				"element": "H" 
			},
			{
				"x": 2.4152817888,
				"y": -0.0791969825,
				"z": 3.2110121068,
				"element": "H" 
			},
			{
				"x": 0.0355362935,
				"y": -1.3725755782,
				"z": -0.1323093228,
				"element": "H" 
			},
			{
				"x": 1.1172999789,
				"y": -4.3793425191,
				"z": 1.8017631367,
				"element": "H" 
			},
			{
				"x": 1.2323461494,
				"y": -3.4592081672,
				"z": 0.277489257,
				"element": "H" 
			},
			{
				"x": -0.2331158267,
				"y": -3.3506441895,
				"z": 1.255300131,
				"element": "H" 
			}
		],
		 "valence_orbital": [ 
			{
				"type": "occ",
				"energy": -0.28527,
				"method": "rhf"
			},
			{
				"type": "occ",
				"energy": -0.27036,
				"method": "rhf"
			},
			{
				"type": "occ",
				"energy": -0.25533,
				"method": "rhf"
			},
			{
				"type": "occ",
				"energy": -0.24911,
				"method": "rhf"
			},
			{
				"type": "occ",
				"energy": -0.22435,
				"method": "rhf"
			},
			{
				"type": "unocc",
				"energy": -0.06164,
				"method": "rhf"
			},
			{
				"type": "unocc",
				"energy": -0.01307,
				"method": "rhf"
			},
			{
				"type": "unocc",
				"energy": 0.02267,
				"method": "rhf"
			},
			{
				"type": "unocc",
				"energy": 0.04814,
				"method": "rhf"
			},
			{
				"type": "unocc",
				"energy": 0.07643,
				"method": "rhf"
			}
		],
		"cosmo_sigma_profile": { 
			"-0.025": 0.0,
			"-0.024": 0.0,
			"-0.023": 0.0,
			"-0.022": 0.0,
			"-0.021": 0.0,
			"-0.02": 0.0,
			"-0.019": 0.0,
			"-0.018": 0.0,
			"-0.017": 0.0,
			"-0.016": 0.0,
			"-0.015": 0.0,
			"-0.014": 0.0,
			"-0.013": 0.0,
			"-0.012": 0.0,
			"-0.011": 0.0,
			"-0.01": 0.0,
			"-0.009": 0.0,
			"-0.008": 0.0,
			"-0.007": 3.4745661766,
			"-0.006": 14.8236712691,
			"-0.005": 17.8264698694,
			"-0.004": 20.5751793413,
			"-0.003": 25.2192648081,
			"-0.002": 23.6263726574,
			"-0.001": 23.89365799,
			"0.0": 17.0039446957,
			"0.001": 15.4389186955,
			"0.002": 18.8605641847,
			"0.003": 16.0441234064,
			"0.004": 8.68391365427,
			"0.005": 5.86294325868,
			"0.006": 6.01247477826,
			"0.007": 4.95707319857,
			"0.008": 3.81337236217,
			"0.009": 2.93137892563,
			"0.01": 3.19069947668,
			"0.011": 3.72007950054,
			"0.012": 3.7382553039,
			"0.013": 1.47179982838,
			"0.014": 0.0965112027156,
			"0.015": 0.0,
			"0.016": 0.0,
			"0.017": 0.0,
			"0.018": 0.0,
			"0.019": 0.0,
			"0.02": 0.0,
			"0.021": 0.0,
			"0.022": 0.0,
			"0.023": 0.0,
			"0.024": 0.0,
			"0.025": 0.0
		}
	}
}
