{
	 "smiles": "CC1=CC=C(C=C1)C(O)C1=CC(C)=CC=C1O", 
	 "Tm": 371.15, 
	 "num_atms": 33, 
	 "gaussian": { 
		 "optdone": 1, 
		 "sigma_profile": "yes", 
		 "theory": "DFT", 
		 "functional": "B3LYP", 
		 "basiset": "6-31G**", 
		 "properties": { 
			 "R2extent": 4973.701, 
			 "electric_dipole_moment_norm": 1.71380775176, 
			 "electric_quadrupole_moment_norm": 10.7040585378, 
			 "total_energy": -731.692002904, 
			 "HOMO_LUMO_gap": 0.20167, 
			 "cosmo_polarized_energy": -12.85, 
			 "cosmo_cavitation_energy": 35.95, 
			 "cosmo_dispersion_energy": -25.43, 
			 "cosmo_repulsion_energy": 2.0, 
			 "cosmo_total_nonelectrostatic_energy": 12.51, 
			 "SMD_solvation_energy": 6.37 
		},
		"coords": [
			{
				"x": 0.9574855738,
				"y": -4.6584895498,
				"z": 0.6563637392,
				"element": "C" 
			},
			{
				"x": 0.2160556187,
				"y": -3.3496590357,
				"z": 0.5153914503,
				"element": "C" 
			},
			{
				"x": -0.6581523273,
				"y": -2.8996248578,
				"z": 1.5114346642,
				"element": "C" 
			},
			{
				"x": -1.3253284194,
				"y": -1.6793855764,
				"z": 1.3898510775,
				"element": "C" 
			},
			{
				"x": -1.1331736362,
				"y": -0.8705713608,
				"z": 0.2662979514,
				"element": "C" 
			},
			{
				"x": -0.2623267832,
				"y": -1.3173033267,
				"z": -0.7372398549,
				"element": "C" 
			},
			{
				"x": 0.3979686506,
				"y": -2.5371304956,
				"z": -0.6137442676,
				"element": "C" 
			},
			{
				"x": -1.8649417241,
				"y": 0.4624447596,
				"z": 0.1160585995,
				"element": "C" 
			},
			{
				"x": -2.3644521124,
				"y": 0.6272937008,
				"z": -1.2118009794,
				"element": "O" 
			},
			{
				"x": -0.966412068,
				"y": 1.6523357929,
				"z": 0.4194900895,
				"element": "C" 
			},
			{
				"x": -0.3888154514,
				"y": 2.412705515,
				"z": -0.5966159701,
				"element": "C" 
			},
			{
				"x": 0.4553257457,
				"y": 3.5015487454,
				"z": -0.3315158919,
				"element": "C" 
			},
			{
				"x": 1.064599239,
				"y": 4.2954765522,
				"z": -1.4642792259,
				"element": "C" 
			},
			{
				"x": 0.7095147692,
				"y": 3.8229479246,
				"z": 1.0036885641,
				"element": "C" 
			},
			{
				"x": 0.1362712073,
				"y": 3.0848936277,
				"z": 2.0409465942,
				"element": "C" 
			},
			{
				"x": -0.6979583362,
				"y": 2.0055899034,
				"z": 1.7535385588,
				"element": "C" 
			},
			{
				"x": -1.2937342957,
				"y": 1.2583616296,
				"z": 2.7399225179,
				"element": "O" 
			},
			{
				"x": 0.4726707354,
				"y": -5.3172066142,
				"z": 1.3828521672,
				"element": "H" 
			},
			{
				"x": 1.9878286184,
				"y": -4.4969659431,
				"z": 0.9977398508,
				"element": "H" 
			},
			{
				"x": 1.0153488235,
				"y": -5.1920722489,
				"z": -0.2980026206,
				"element": "H" 
			},
			{
				"x": -0.8258592681,
				"y": -3.5152019484,
				"z": 2.3922624106,
				"element": "H" 
			},
			{
				"x": -1.9959476872,
				"y": -1.3475202628,
				"z": 2.1769447711,
				"element": "H" 
			},
			{
				"x": -0.1135096074,
				"y": -0.7049603233,
				"z": -1.6217679096,
				"element": "H" 
			},
			{
				"x": 1.0656139494,
				"y": -2.8669473142,
				"z": -1.4067214274,
				"element": "H" 
			},
			{
				"x": -2.6946294915,
				"y": 0.4736438877,
				"z": 0.8380035222,
				"element": "H" 
			},
			{
				"x": -2.7858739741,
				"y": -0.2060388735,
				"z": -1.4587024965,
				"element": "H" 
			},
			{
				"x": -0.6250866033,
				"y": 2.1496357258,
				"z": -1.6224902312,
				"element": "H" 
			},
			{
				"x": 1.7441818438,
				"y": 3.6810652568,
				"z": -2.0671215484,
				"element": "H" 
			},
			{
				"x": 0.2955836249,
				"y": 4.6817048244,
				"z": -2.1431049243,
				"element": "H" 
			},
			{
				"x": 1.6366951094,
				"y": 5.1492572322,
				"z": -1.0895580792,
				"element": "H" 
			},
			{
				"x": 1.3570710774,
				"y": 4.6622805237,
				"z": 1.2442644628,
				"element": "H" 
			},
			{
				"x": 0.335702028,
				"y": 3.3517953644,
				"z": 3.0773033983,
				"element": "H" 
			},
			{
				"x": -1.0318148291,
				"y": 1.6110967649,
				"z": 3.5998110374,
				"element": "H" 
			}
		],
		 "valence_orbital": [ 
			{
				"type": "occ",
				"energy": -0.27414,
				"method": "rhf"
			},
			{
				"type": "occ",
				"energy": -0.24267,
				"method": "rhf"
			},
			{
				"type": "occ",
				"energy": -0.23847,
				"method": "rhf"
			},
			{
				"type": "occ",
				"energy": -0.22603,
				"method": "rhf"
			},
			{
				"type": "occ",
				"energy": -0.20696,
				"method": "rhf"
			},
			{
				"type": "unocc",
				"energy": -0.00529,
				"method": "rhf"
			},
			{
				"type": "unocc",
				"energy": 0.0047,
				"method": "rhf"
			},
			{
				"type": "unocc",
				"energy": 0.01491,
				"method": "rhf"
			},
			{
				"type": "unocc",
				"energy": 0.02347,
				"method": "rhf"
			},
			{
				"type": "unocc",
				"energy": 0.07108,
				"method": "rhf"
			}
		],
		"cosmo_sigma_profile": { 
			"-0.025": 0.0,
			"-0.024": 0.0,
			"-0.023": 0.0,
			"-0.022": 0.0,
			"-0.021": 0.0,
			"-0.02": 0.0,
			"-0.019": 0.0,
			"-0.018": 0.193387983017,
			"-0.017": 0.857160422325,
			"-0.016": 1.25740730802,
			"-0.015": 1.92694254596,
			"-0.014": 2.34522356219,
			"-0.013": 1.35005655107,
			"-0.012": 1.3970753351,
			"-0.011": 1.38844338296,
			"-0.01": 2.06523957336,
			"-0.009": 1.71195359071,
			"-0.008": 2.02293042541,
			"-0.007": 2.20771501921,
			"-0.006": 2.67597211914,
			"-0.005": 9.54560483462,
			"-0.004": 23.6575894277,
			"-0.003": 28.7105093703,
			"-0.002": 23.4282621827,
			"-0.001": 25.0949618246,
			"0.0": 27.5426642762,
			"0.001": 21.3869778682,
			"0.002": 15.1468459113,
			"0.003": 14.3201564733,
			"0.004": 15.9091578205,
			"0.005": 19.5652022474,
			"0.006": 19.8416314898,
			"0.007": 7.49845115357,
			"0.008": 2.97358199213,
			"0.009": 2.88741301564,
			"0.01": 1.24756440503,
			"0.011": 1.03498061501,
			"0.012": 1.09944238621,
			"0.013": 0.912413165232,
			"0.014": 0.498761002193,
			"0.015": 0.000746818707906,
			"0.016": 0.0,
			"0.017": 0.0,
			"0.018": 0.0,
			"0.019": 0.0,
			"0.02": 0.0,
			"0.021": 0.0,
			"0.022": 0.0,
			"0.023": 0.0,
			"0.024": 0.0,
			"0.025": 0.0
		}
	}
}
