{
	 "smiles": "COC1=CC=C2NC=C(C=O)C2=C1", 
	 "Tm": 454.15, 
	 "num_atms": 22, 
	 "gaussian": { 
		 "optdone": 1, 
		 "sigma_profile": "yes", 
		 "theory": "DFT", 
		 "functional": "B3LYP", 
		 "basiset": "6-31G**", 
		 "properties": { 
			 "R2extent": 2837.1068, 
			 "electric_dipole_moment_norm": 3.41801437387, 
			 "electric_quadrupole_moment_norm": 26.7720166108, 
			 "total_energy": -591.670173593, 
			 "HOMO_LUMO_gap": 0.17218, 
			 "cosmo_polarized_energy": -15.71, 
			 "cosmo_cavitation_energy": 26.58, 
			 "cosmo_dispersion_energy": -19.51, 
			 "cosmo_repulsion_energy": 1.53, 
			 "cosmo_total_nonelectrostatic_energy": 8.61, 
			 "SMD_solvation_energy": 6.25 
		},
		"coords": [
			{
				"x": -3.7123767269,
				"y": 2.4639255703,
				"z": 1.0441843316,
				"element": "C" 
			},
			{
				"x": -2.3758916504,
				"y": 2.9002890204,
				"z": 1.2211788257,
				"element": "O" 
			},
			{
				"x": -1.3672244501,
				"y": 2.0405426544,
				"z": 0.8824098435,
				"element": "C" 
			},
			{
				"x": -0.0649105471,
				"y": 2.5563058828,
				"z": 1.0914614114,
				"element": "C" 
			},
			{
				"x": 1.0592254124,
				"y": 1.803954612,
				"z": 0.795832834,
				"element": "C" 
			},
			{
				"x": 0.8627982078,
				"y": 0.5173356812,
				"z": 0.2836816237,
				"element": "C" 
			},
			{
				"x": 1.7849559684,
				"y": -0.4518219456,
				"z": -0.0988924633,
				"element": "N" 
			},
			{
				"x": 1.1296059123,
				"y": -1.5605535518,
				"z": -0.541873843,
				"element": "C" 
			},
			{
				"x": -0.2387878228,
				"y": -1.3531335561,
				"z": -0.4636312738,
				"element": "C" 
			},
			{
				"x": -1.2394838781,
				"y": -2.333042252,
				"z": -0.8566094015,
				"element": "C" 
			},
			{
				"x": -0.98926338,
				"y": -3.4455613068,
				"z": -1.2990183913,
				"element": "O" 
			},
			{
				"x": -0.4285276235,
				"y": -0.0191689278,
				"z": 0.0663282324,
				"element": "C" 
			},
			{
				"x": -1.5618025591,
				"y": 0.7590672523,
				"z": 0.3723099071,
				"element": "C" 
			},
			{
				"x": -4.3468049658,
				"y": 3.2896388454,
				"z": 1.3704600458,
				"element": "H" 
			},
			{
				"x": -3.929228387,
				"y": 2.2369580728,
				"z": -0.0080966318,
				"element": "H" 
			},
			{
				"x": -3.9337489505,
				"y": 1.5771636965,
				"z": 1.6528584923,
				"element": "H" 
			},
			{
				"x": 0.0227490264,
				"y": 3.56073299,
				"z": 1.4910996356,
				"element": "H" 
			},
			{
				"x": 2.0548523032,
				"y": 2.206315073,
				"z": 0.9588924162,
				"element": "H" 
			},
			{
				"x": 2.7866563803,
				"y": -0.3491383266,
				"z": -0.0550374677,
				"element": "H" 
			},
			{
				"x": 1.6555377939,
				"y": -2.4377588994,
				"z": -0.8891577956,
				"element": "H" 
			},
			{
				"x": -2.2946629377,
				"y": -2.0035720269,
				"z": -0.7294533275,
				"element": "H" 
			},
			{
				"x": -2.5566671256,
				"y": 0.3627214417,
				"z": 0.2116729961,
				"element": "H" 
			}
		],
		 "valence_orbital": [ 
			{
				"type": "occ",
				"energy": -0.3052,
				"method": "rhf"
			},
			{
				"type": "occ",
				"energy": -0.28315,
				"method": "rhf"
			},
			{
				"type": "occ",
				"energy": -0.23748,
				"method": "rhf"
			},
			{
				"type": "occ",
				"energy": -0.21746,
				"method": "rhf"
			},
			{
				"type": "occ",
				"energy": -0.21053,
				"method": "rhf"
			},
			{
				"type": "unocc",
				"energy": -0.03835,
				"method": "rhf"
			},
			{
				"type": "unocc",
				"energy": -0.00891,
				"method": "rhf"
			},
			{
				"type": "unocc",
				"energy": 0.02795,
				"method": "rhf"
			},
			{
				"type": "unocc",
				"energy": 0.06698,
				"method": "rhf"
			},
			{
				"type": "unocc",
				"energy": 0.09194,
				"method": "rhf"
			}
		],
		"cosmo_sigma_profile": { 
			"-0.025": 0.0,
			"-0.024": 0.0,
			"-0.023": 0.0,
			"-0.022": 0.0,
			"-0.021": 0.0,
			"-0.02": 0.0,
			"-0.019": 0.0,
			"-0.018": 0.0,
			"-0.017": 0.728735269172,
			"-0.016": 1.70638439631,
			"-0.015": 1.56534440925,
			"-0.014": 1.49162732219,
			"-0.013": 1.09842160939,
			"-0.012": 1.24715401368,
			"-0.011": 1.71439156452,
			"-0.01": 1.17404289514,
			"-0.009": 3.16874739991,
			"-0.008": 2.52862039136,
			"-0.007": 4.37072196059,
			"-0.006": 10.9015746052,
			"-0.005": 16.5723388375,
			"-0.004": 16.9781652081,
			"-0.003": 16.3913883073,
			"-0.002": 12.4132842303,
			"-0.001": 8.89955033823,
			"0.0": 9.26553195766,
			"0.001": 11.2154761016,
			"0.002": 12.5182277479,
			"0.003": 14.3896806437,
			"0.004": 16.4468289437,
			"0.005": 15.1314047143,
			"0.006": 5.41951100438,
			"0.007": 2.606188296,
			"0.008": 3.12915749459,
			"0.009": 2.82914297085,
			"0.01": 3.32887776107,
			"0.011": 3.47171483349,
			"0.012": 3.79916510467,
			"0.013": 4.39042710247,
			"0.014": 1.53878852376,
			"0.015": 0.1511228856,
			"0.016": 0.0,
			"0.017": 0.0,
			"0.018": 0.0,
			"0.019": 0.0,
			"0.02": 0.0,
			"0.021": 0.0,
			"0.022": 0.0,
			"0.023": 0.0,
			"0.024": 0.0,
			"0.025": 0.0
		}
	}
}
