{
	 "smiles": "CC(Cl)C(=O)NC1=C(F)C=C(C)C=C1", 
	 "Tm": 379.15, 
	 "num_atms": 25, 
	 "gaussian": { 
		 "optdone": 1, 
		 "sigma_profile": "yes", 
		 "theory": "DFT", 
		 "functional": "B3LYP", 
		 "basiset": "6-31G**", 
		 "properties": { 
			 "R2extent": 4299.554, 
			 "electric_dipole_moment_norm": 1.18295899337, 
			 "electric_quadrupole_moment_norm": 12.7122178053, 
			 "total_energy": -1077.73103481, 
			 "HOMO_LUMO_gap": 0.19909, 
			 "cosmo_polarized_energy": -7.87, 
			 "cosmo_cavitation_energy": 30.78, 
			 "cosmo_dispersion_energy": -22.28, 
			 "cosmo_repulsion_energy": 1.74, 
			 "cosmo_total_nonelectrostatic_energy": 10.24, 
			 "SMD_solvation_energy": 5.86 
		},
		"coords": [
			{
				"x": -3.3745563465,
				"y": 0.9070076613,
				"z": -1.7319578833,
				"element": "C" 
			},
			{
				"x": -3.020732864,
				"y": -0.2282807262,
				"z": -0.7754009991,
				"element": "C" 
			},
			{
				"x": -2.8980861285,
				"y": -1.8098075086,
				"z": -1.7002387426,
				"element": "Cl" 
			},
			{
				"x": -1.7732174058,
				"y": 0.1232735035,
				"z": 0.0576014633,
				"element": "C" 
			},
			{
				"x": -1.8521055973,
				"y": 1.1107555868,
				"z": 0.7792251498,
				"element": "O" 
			},
			{
				"x": -0.6786656168,
				"y": -0.6723125233,
				"z": -0.0784182517,
				"element": "N" 
			},
			{
				"x": 0.5637936196,
				"y": -0.5382453114,
				"z": 0.5690036356,
				"element": "C" 
			},
			{
				"x": 1.5391852227,
				"y": -1.4997341582,
				"z": 0.2691166242,
				"element": "C" 
			},
			{
				"x": 1.2034049111,
				"y": -2.4752490553,
				"z": -0.616223189,
				"element": "F" 
			},
			{
				"x": 2.8017344942,
				"y": -1.4903372141,
				"z": 0.8285534244,
				"element": "C" 
			},
			{
				"x": 3.1476438313,
				"y": -0.4826381211,
				"z": 1.7423214535,
				"element": "C" 
			},
			{
				"x": 4.5218591367,
				"y": -0.4560776696,
				"z": 2.3675298481,
				"element": "C" 
			},
			{
				"x": 2.1826775545,
				"y": 0.4822477142,
				"z": 2.0492165567,
				"element": "C" 
			},
			{
				"x": 0.907134226,
				"y": 0.4676000048,
				"z": 1.4796477174,
				"element": "C" 
			},
			{
				"x": -3.454379682,
				"y": 1.8302958298,
				"z": -1.1527365578,
				"element": "H" 
			},
			{
				"x": -4.3262139275,
				"y": 0.7085943935,
				"z": -2.2291716483,
				"element": "H" 
			},
			{
				"x": -2.599043594,
				"y": 1.032591298,
				"z": -2.4923951108,
				"element": "H" 
			},
			{
				"x": -3.8294474265,
				"y": -0.3914256801,
				"z": -0.0607897518,
				"element": "H" 
			},
			{
				"x": -0.7586157376,
				"y": -1.4659670314,
				"z": -0.7021070707,
				"element": "H" 
			},
			{
				"x": 3.5031006629,
				"y": -2.2693845479,
				"z": 0.5463173732,
				"element": "H" 
			},
			{
				"x": 5.3073570006,
				"y": -0.3955794221,
				"z": 1.6055141868,
				"element": "H" 
			},
			{
				"x": 4.7120274621,
				"y": -1.3623844183,
				"z": 2.9542109199,
				"element": "H" 
			},
			{
				"x": 4.6366734804,
				"y": 0.4024937028,
				"z": 3.0343150307,
				"element": "H" 
			},
			{
				"x": 2.4277030651,
				"y": 1.2721601781,
				"z": 2.7537111171,
				"element": "H" 
			},
			{
				"x": 0.1733696592,
				"y": 1.2211035148,
				"z": 1.7285547044,
				"element": "H" 
			}
		],
		 "valence_orbital": [ 
			{
				"type": "occ",
				"energy": -0.31507,
				"method": "rhf"
			},
			{
				"type": "occ",
				"energy": -0.30419,
				"method": "rhf"
			},
			{
				"type": "occ",
				"energy": -0.26383,
				"method": "rhf"
			},
			{
				"type": "occ",
				"energy": -0.25281,
				"method": "rhf"
			},
			{
				"type": "occ",
				"energy": -0.22338,
				"method": "rhf"
			},
			{
				"type": "unocc",
				"energy": -0.02429,
				"method": "rhf"
			},
			{
				"type": "unocc",
				"energy": -0.00233,
				"method": "rhf"
			},
			{
				"type": "unocc",
				"energy": 0.00914,
				"method": "rhf"
			},
			{
				"type": "unocc",
				"energy": 0.03441,
				"method": "rhf"
			},
			{
				"type": "unocc",
				"energy": 0.08311,
				"method": "rhf"
			}
		],
		"cosmo_sigma_profile": { 
			"-0.025": 0.0,
			"-0.024": 0.0,
			"-0.023": 0.0,
			"-0.022": 0.0,
			"-0.021": 0.0,
			"-0.02": 0.0,
			"-0.019": 0.0,
			"-0.018": 0.0,
			"-0.017": 0.0,
			"-0.016": 0.0,
			"-0.015": 0.0,
			"-0.014": 0.0,
			"-0.013": 0.0,
			"-0.012": 0.0,
			"-0.011": 0.0,
			"-0.01": 0.0,
			"-0.009": 0.917410841582,
			"-0.008": 2.59831381578,
			"-0.007": 4.10052305609,
			"-0.006": 7.98827053883,
			"-0.005": 16.4854815968,
			"-0.004": 22.237170651,
			"-0.003": 20.8653633417,
			"-0.002": 20.1699024231,
			"-0.001": 23.7119372935,
			"0.0": 23.8468128925,
			"0.001": 18.9320480615,
			"0.002": 18.5048359001,
			"0.003": 18.8068531635,
			"0.004": 19.4542057621,
			"0.005": 12.0742488293,
			"0.006": 4.29063465378,
			"0.007": 1.17676855115,
			"0.008": 1.47702527629,
			"0.009": 1.46107041827,
			"0.01": 1.77702441991,
			"0.011": 2.37406366361,
			"0.012": 2.63999319769,
			"0.013": 1.12127072083,
			"0.014": 0.0,
			"0.015": 0.0,
			"0.016": 0.0,
			"0.017": 0.0,
			"0.018": 0.0,
			"0.019": 0.0,
			"0.02": 0.0,
			"0.021": 0.0,
			"0.022": 0.0,
			"0.023": 0.0,
			"0.024": 0.0,
			"0.025": 0.0
		}
	}
}
