{
	 "smiles": "BrCC(CBr)(CBr)CBr", 
	 "Tm": 436.15, 
	 "num_atms": 17, 
	 "gaussian": { 
		 "optdone": 1, 
		 "sigma_profile": "yes", 
		 "theory": "DFT", 
		 "functional": "B3LYP", 
		 "basiset": "6-31G**", 
		 "properties": { 
			 "R2extent": 7203.7282, 
			 "electric_dipole_moment_norm": 3.03881177601, 
			 "electric_quadrupole_moment_norm": 7.72100325735, 
			 "total_energy": -10480.9664211, 
			 "HOMO_LUMO_gap": 0.22538, 
			 "cosmo_polarized_energy": -12.32, 
			 "cosmo_cavitation_energy": 27.22, 
			 "cosmo_dispersion_energy": -20.92, 
			 "cosmo_repulsion_energy": 1.69, 
			 "cosmo_total_nonelectrostatic_energy": 7.98, 
			 "SMD_solvation_energy": 0.1 
		},
		"coords": [
			{
				"x": -1.0119825955,
				"y": 1.4440559045,
				"z": 1.5783171797,
				"element": "Br" 
			},
			{
				"x": -0.4853811177,
				"y": -0.3231208796,
				"z": 0.8744848614,
				"element": "C" 
			},
			{
				"x": -1.5015818378,
				"y": -0.9978952316,
				"z": -0.0598683209,
				"element": "C" 
			},
			{
				"x": -2.8540748264,
				"y": -1.2682649721,
				"z": 0.6173970257,
				"element": "C" 
			},
			{
				"x": -2.8023230892,
				"y": -2.4649316248,
				"z": 2.1861063054,
				"element": "Br" 
			},
			{
				"x": -0.853607579,
				"y": -2.2910422564,
				"z": -0.6506732694,
				"element": "C" 
			},
			{
				"x": 0.3132093906,
				"y": -3.3830848866,
				"z": 0.5145338568,
				"element": "Br" 
			},
			{
				"x": -1.7534690999,
				"y": -0.1808677868,
				"z": -1.3676258995,
				"element": "C" 
			},
			{
				"x": -3.1665692239,
				"y": 1.2030900635,
				"z": -1.3625020909,
				"element": "Br" 
			},
			{
				"x": 0.4636730474,
				"y": -0.1605159019,
				"z": 0.3639527262,
				"element": "H" 
			},
			{
				"x": -0.319315356,
				"y": -0.9372296481,
				"z": 1.7552738385,
				"element": "H" 
			},
			{
				"x": -3.5512873894,
				"y": -1.7336769084,
				"z": -0.0790713543,
				"element": "H" 
			},
			{
				"x": -3.28105427,
				"y": -0.34019089,
				"z": 0.9873555416,
				"element": "H" 
			},
			{
				"x": -1.6272914637,
				"y": -2.9718666899,
				"z": -1.0052852668,
				"element": "H" 
			},
			{
				"x": -0.1954051009,
				"y": -2.0343823347,
				"z": -1.4805020669,
				"element": "H" 
			},
			{
				"x": -2.069747656,
				"y": -0.846961404,
				"z": -2.1700989475,
				"element": "H" 
			},
			{
				"x": -0.8429918326,
				"y": 0.336285447,
				"z": -1.6699941191,
				"element": "H" 
			}
		],
		 "valence_orbital": [ 
			{
				"type": "occ",
				"energy": -0.28881,
				"method": "rhf"
			},
			{
				"type": "occ",
				"energy": -0.28096,
				"method": "rhf"
			},
			{
				"type": "occ",
				"energy": -0.2809,
				"method": "rhf"
			},
			{
				"type": "occ",
				"energy": -0.26578,
				"method": "rhf"
			},
			{
				"type": "occ",
				"energy": -0.26479,
				"method": "rhf"
			},
			{
				"type": "unocc",
				"energy": -0.03941,
				"method": "rhf"
			},
			{
				"type": "unocc",
				"energy": -0.00702,
				"method": "rhf"
			},
			{
				"type": "unocc",
				"energy": -0.00697,
				"method": "rhf"
			},
			{
				"type": "unocc",
				"energy": 0.01273,
				"method": "rhf"
			},
			{
				"type": "unocc",
				"energy": 0.06124,
				"method": "rhf"
			}
		],
		"cosmo_sigma_profile": { 
			"-0.025": 0.0,
			"-0.024": 0.0,
			"-0.023": 0.0,
			"-0.022": 0.0,
			"-0.021": 0.0,
			"-0.02": 0.0,
			"-0.019": 0.0,
			"-0.018": 0.0,
			"-0.017": 0.0,
			"-0.016": 0.0,
			"-0.015": 0.0,
			"-0.014": 0.0,
			"-0.013": 0.0,
			"-0.012": 0.459334145545,
			"-0.011": 2.14048797628,
			"-0.01": 4.37305786766,
			"-0.009": 8.70582102204,
			"-0.008": 10.6994510908,
			"-0.007": 7.74858095449,
			"-0.006": 7.1159255496,
			"-0.005": 8.40663891093,
			"-0.004": 7.45222377886,
			"-0.003": 11.2663921893,
			"-0.002": 12.5121878936,
			"-0.001": 13.0882507371,
			"0.0": 12.3080539901,
			"0.001": 13.7455547032,
			"0.002": 15.3472652604,
			"0.003": 16.9955562956,
			"0.004": 20.2463727013,
			"0.005": 26.7052505869,
			"0.006": 21.8523988883,
			"0.007": 4.77658427104,
			"0.008": 0.431927147116,
			"0.009": 0.0,
			"0.01": 0.0,
			"0.011": 0.0,
			"0.012": 0.0,
			"0.013": 0.0,
			"0.014": 0.0,
			"0.015": 0.0,
			"0.016": 0.0,
			"0.017": 0.0,
			"0.018": 0.0,
			"0.019": 0.0,
			"0.02": 0.0,
			"0.021": 0.0,
			"0.022": 0.0,
			"0.023": 0.0,
			"0.024": 0.0,
			"0.025": 0.0
		}
	}
}
