{
	 "smiles": "NC1=C(OCC2CCCCC2)C=CC=N1", 
	 "Tm": 391.15, 
	 "num_atms": 33, 
	 "gaussian": { 
		 "optdone": 1, 
		 "sigma_profile": "yes", 
		 "theory": "DFT", 
		 "functional": "B3LYP", 
		 "basiset": "6-31G**", 
		 "properties": { 
			 "R2extent": 5285.665, 
			 "electric_dipole_moment_norm": 1.99230524519, 
			 "electric_quadrupole_moment_norm": 10.8477988804, 
			 "total_energy": -652.857988881, 
			 "HOMO_LUMO_gap": 0.1978, 
			 "cosmo_polarized_energy": -8.78, 
			 "cosmo_cavitation_energy": 33.94, 
			 "cosmo_dispersion_energy": -24.44, 
			 "cosmo_repulsion_energy": 1.93, 
			 "cosmo_total_nonelectrostatic_energy": 11.43, 
			 "SMD_solvation_energy": 3.32 
		},
		"coords": [
			{
				"x": -2.9823441808,
				"y": -1.0194727082,
				"z": -0.9452314653,
				"element": "N" 
			},
			{
				"x": -3.2516490589,
				"y": 0.3052935043,
				"z": -1.2356361622,
				"element": "C" 
			},
			{
				"x": -2.2221051263,
				"y": 1.2715296751,
				"z": -1.1195709644,
				"element": "C" 
			},
			{
				"x": -0.9853540701,
				"y": 0.8766708312,
				"z": -0.6473633562,
				"element": "O" 
			},
			{
				"x": -0.0457614425,
				"y": 0.509734304,
				"z": -1.6758616773,
				"element": "C" 
			},
			{
				"x": 1.2306773005,
				"y": -0.0029163375,
				"z": -1.0154574656,
				"element": "C" 
			},
			{
				"x": 0.9482459786,
				"y": -1.2103547266,
				"z": -0.0885623647,
				"element": "C" 
			},
			{
				"x": 2.2206821803,
				"y": -2.0328822922,
				"z": 0.1541439151,
				"element": "C" 
			},
			{
				"x": 2.7343616867,
				"y": -2.6768236067,
				"z": -1.1575066193,
				"element": "C" 
			},
			{
				"x": 2.3308207063,
				"y": -1.8559823447,
				"z": -2.4039139603,
				"element": "C" 
			},
			{
				"x": 2.2970873584,
				"y": -0.3526794692,
				"z": -2.0937994067,
				"element": "C" 
			},
			{
				"x": -2.5049900715,
				"y": 2.5893822344,
				"z": -1.4354800391,
				"element": "C" 
			},
			{
				"x": -3.7937911745,
				"y": 2.9228128806,
				"z": -1.8731121258,
				"element": "C" 
			},
			{
				"x": -4.7335786361,
				"y": 1.9016628451,
				"z": -1.96239326,
				"element": "C" 
			},
			{
				"x": -4.4841884519,
				"y": 0.6221445277,
				"z": -1.6460735341,
				"element": "N" 
			},
			{
				"x": -3.8113161716,
				"y": -1.5795359491,
				"z": -0.8021969795,
				"element": "H" 
			},
			{
				"x": -2.2389145403,
				"y": -1.1665651205,
				"z": -0.2770110775,
				"element": "H" 
			},
			{
				"x": 0.1683542273,
				"y": 1.3890579351,
				"z": -2.2997997897,
				"element": "H" 
			},
			{
				"x": -0.4897107934,
				"y": -0.2626241845,
				"z": -2.3211142553,
				"element": "H" 
			},
			{
				"x": 1.6197681593,
				"y": 0.8158469858,
				"z": -0.3961397734,
				"element": "H" 
			},
			{
				"x": 0.1859312124,
				"y": -1.8558414331,
				"z": -0.5489061509,
				"element": "H" 
			},
			{
				"x": 0.5237071342,
				"y": -0.8558222299,
				"z": 0.8555284474,
				"element": "H" 
			},
			{
				"x": 2.9905366872,
				"y": -1.3712124962,
				"z": 0.5725608301,
				"element": "H" 
			},
			{
				"x": 2.0419420215,
				"y": -2.8045063558,
				"z": 0.9111406075,
				"element": "H" 
			},
			{
				"x": 3.8257884646,
				"y": -2.7731521084,
				"z": -1.1130967218,
				"element": "H" 
			},
			{
				"x": 2.3412300984,
				"y": -3.6957990577,
				"z": -1.2542347142,
				"element": "H" 
			},
			{
				"x": 1.3395585738,
				"y": -2.1724495255,
				"z": -2.7526650674,
				"element": "H" 
			},
			{
				"x": 3.0201516718,
				"y": -2.0594792598,
				"z": -3.2309303013,
				"element": "H" 
			},
			{
				"x": 2.111990954,
				"y": 0.2225394534,
				"z": -3.009757267,
				"element": "H" 
			},
			{
				"x": 3.2875347257,
				"y": -0.0411398082,
				"z": -1.7401271381,
				"element": "H" 
			},
			{
				"x": -1.7252661633,
				"y": 3.3382240771,
				"z": -1.3301082841,
				"element": "H" 
			},
			{
				"x": -4.0553979543,
				"y": 3.9439344325,
				"z": -2.1291434491,
				"element": "H" 
			},
			{
				"x": -5.7477013057,
				"y": 2.1146053272,
				"z": -2.2960804295,
				"element": "H" 
			}
		],
		 "valence_orbital": [ 
			{
				"type": "occ",
				"energy": -0.29919,
				"method": "rhf"
			},
			{
				"type": "occ",
				"energy": -0.28251,
				"method": "rhf"
			},
			{
				"type": "occ",
				"energy": -0.26491,
				"method": "rhf"
			},
			{
				"type": "occ",
				"energy": -0.24456,
				"method": "rhf"
			},
			{
				"type": "occ",
				"energy": -0.20596,
				"method": "rhf"
			},
			{
				"type": "unocc",
				"energy": -0.00816,
				"method": "rhf"
			},
			{
				"type": "unocc",
				"energy": 0.01547,
				"method": "rhf"
			},
			{
				"type": "unocc",
				"energy": 0.07299,
				"method": "rhf"
			},
			{
				"type": "unocc",
				"energy": 0.08199,
				"method": "rhf"
			},
			{
				"type": "unocc",
				"energy": 0.10374,
				"method": "rhf"
			}
		],
		"cosmo_sigma_profile": { 
			"-0.025": 0.0,
			"-0.024": 0.0,
			"-0.023": 0.0,
			"-0.022": 0.0,
			"-0.021": 0.0,
			"-0.02": 0.0,
			"-0.019": 0.0,
			"-0.018": 0.0,
			"-0.017": 0.0,
			"-0.016": 0.0,
			"-0.015": 0.0,
			"-0.014": 0.0,
			"-0.013": 0.136642295532,
			"-0.012": 0.926069667764,
			"-0.011": 1.34232355967,
			"-0.01": 1.13960748552,
			"-0.009": 2.08525775539,
			"-0.008": 2.00397598969,
			"-0.007": 3.02550573326,
			"-0.006": 6.46176014467,
			"-0.005": 7.5662852716,
			"-0.004": 11.3390530559,
			"-0.003": 20.7319376958,
			"-0.002": 36.6044057785,
			"-0.001": 38.9828449249,
			"0.0": 35.529686395,
			"0.001": 28.2203677766,
			"0.002": 15.0807304277,
			"0.003": 11.9846516987,
			"0.004": 10.8178472628,
			"0.005": 6.61509705506,
			"0.006": 3.67688786005,
			"0.007": 4.06624940708,
			"0.008": 2.65309356371,
			"0.009": 3.41142074919,
			"0.01": 2.91665381983,
			"0.011": 2.13500490247,
			"0.012": 1.48295930139,
			"0.013": 0.923558933551,
			"0.014": 0.642070063399,
			"0.015": 1.16199734854,
			"0.016": 0.53537970141,
			"0.017": 0.0131674633253,
			"0.018": 0.0,
			"0.019": 0.0,
			"0.02": 0.0,
			"0.021": 0.0,
			"0.022": 0.0,
			"0.023": 0.0,
			"0.024": 0.0,
			"0.025": 0.0
		}
	}
}
