{
	 "smiles": "CC(N)C1=NC(=CS1)C1=CC=C(Br)C=C1", 
	 "Tm": 351.15, 
	 "num_atms": 26, 
	 "gaussian": { 
		 "optdone": 1, 
		 "sigma_profile": "yes", 
		 "theory": "DFT", 
		 "functional": "B3LYP", 
		 "basiset": "6-31G**", 
		 "properties": { 
			 "R2extent": 8515.2286, 
			 "electric_dipole_moment_norm": 2.16882233943, 
			 "electric_quadrupole_moment_norm": 10.1755086865, 
			 "total_energy": -3504.89761629, 
			 "HOMO_LUMO_gap": 0.17355, 
			 "cosmo_polarized_energy": -9.71, 
			 "cosmo_cavitation_energy": 34.01, 
			 "cosmo_dispersion_energy": -25.26, 
			 "cosmo_repulsion_energy": 1.94, 
			 "cosmo_total_nonelectrostatic_energy": 10.69, 
			 "SMD_solvation_energy": 2.24 
		},
		"coords": [
			{
				"x": 1.2099136601,
				"y": 3.240412708,
				"z": -2.4524121789,
				"element": "C" 
			},
			{
				"x": 0.9482530942,
				"y": 3.2399231542,
				"z": -0.9375520864,
				"element": "C" 
			},
			{
				"x": 2.2262007431,
				"y": 3.2580105796,
				"z": -0.2248386895,
				"element": "N" 
			},
			{
				"x": 0.0664505976,
				"y": 2.0590515649,
				"z": -0.5561109552,
				"element": "C" 
			},
			{
				"x": 0.5182131041,
				"y": 0.8602152808,
				"z": -0.3436469593,
				"element": "N" 
			},
			{
				"x": -0.4898034765,
				"y": -0.0426930188,
				"z": -0.0451612181,
				"element": "C" 
			},
			{
				"x": -1.7497901731,
				"y": 0.5046682766,
				"z": -0.0329344506,
				"element": "C" 
			},
			{
				"x": -1.6839279359,
				"y": 2.1934382906,
				"z": -0.400424144,
				"element": "S" 
			},
			{
				"x": -0.1354919998,
				"y": -1.4493895876,
				"z": 0.2240302309,
				"element": "C" 
			},
			{
				"x": 1.2064671582,
				"y": -1.8573533363,
				"z": 0.152630195,
				"element": "C" 
			},
			{
				"x": 1.5723654375,
				"y": -3.1784274919,
				"z": 0.4001509651,
				"element": "C" 
			},
			{
				"x": 0.5882467016,
				"y": -4.1099532194,
				"z": 0.7241103072,
				"element": "C" 
			},
			{
				"x": 1.0789251746,
				"y": -5.9249611773,
				"z": 1.0656585078,
				"element": "Br" 
			},
			{
				"x": -0.7527122395,
				"y": -3.7346401693,
				"z": 0.8027060439,
				"element": "C" 
			},
			{
				"x": -1.1050647935,
				"y": -2.41143498,
				"z": 0.553158489,
				"element": "C" 
			},
			{
				"x": 1.8334570355,
				"y": 4.0990249116,
				"z": -2.7138125896,
				"element": "H" 
			},
			{
				"x": 1.734353045,
				"y": 2.324414059,
				"z": -2.7438724385,
				"element": "H" 
			},
			{
				"x": 0.2748093463,
				"y": 3.2893656165,
				"z": -3.0180290204,
				"element": "H" 
			},
			{
				"x": 0.4123866739,
				"y": 4.1615800847,
				"z": -0.6790104329,
				"element": "H" 
			},
			{
				"x": 2.0558340442,
				"y": 3.3128982678,
				"z": 0.7774476719,
				"element": "H" 
			},
			{
				"x": 2.6864371823,
				"y": 2.3612432979,
				"z": -0.3732297327,
				"element": "H" 
			},
			{
				"x": -2.6948435514,
				"y": 0.0248929601,
				"z": 0.1738681632,
				"element": "H" 
			},
			{
				"x": 1.9620665212,
				"y": -1.1229536525,
				"z": -0.1009716952,
				"element": "H" 
			},
			{
				"x": 2.6117512773,
				"y": -3.4811125686,
				"z": 0.3415383791,
				"element": "H" 
			},
			{
				"x": -1.5103877369,
				"y": -4.4673304543,
				"z": 1.0560298383,
				"element": "H" 
			},
			{
				"x": -2.1524088903,
				"y": -2.1335893964,
				"z": 0.6190777999,
				"element": "H" 
			}
		],
		 "valence_orbital": [ 
			{
				"type": "occ",
				"energy": -0.28216,
				"method": "rhf"
			},
			{
				"type": "occ",
				"energy": -0.26961,
				"method": "rhf"
			},
			{
				"type": "occ",
				"energy": -0.26389,
				"method": "rhf"
			},
			{
				"type": "occ",
				"energy": -0.24721,
				"method": "rhf"
			},
			{
				"type": "occ",
				"energy": -0.2198,
				"method": "rhf"
			},
			{
				"type": "unocc",
				"energy": -0.04625,
				"method": "rhf"
			},
			{
				"type": "unocc",
				"energy": -0.01917,
				"method": "rhf"
			},
			{
				"type": "unocc",
				"energy": -0.00875,
				"method": "rhf"
			},
			{
				"type": "unocc",
				"energy": 0.00545,
				"method": "rhf"
			},
			{
				"type": "unocc",
				"energy": 0.01202,
				"method": "rhf"
			}
		],
		"cosmo_sigma_profile": { 
			"-0.025": 0.0,
			"-0.024": 0.0,
			"-0.023": 0.0,
			"-0.022": 0.0,
			"-0.021": 0.0,
			"-0.02": 0.0,
			"-0.019": 0.0,
			"-0.018": 0.0,
			"-0.017": 0.0,
			"-0.016": 0.0,
			"-0.015": 0.0,
			"-0.014": 0.0,
			"-0.013": 0.0,
			"-0.012": 0.0,
			"-0.011": 0.0853647931066,
			"-0.01": 2.09873594473,
			"-0.009": 4.32444603396,
			"-0.008": 4.69752282161,
			"-0.007": 8.28217967403,
			"-0.006": 12.5669658456,
			"-0.005": 13.4370310532,
			"-0.004": 16.986602227,
			"-0.003": 17.5559020474,
			"-0.002": 17.657274615,
			"-0.001": 19.4748516814,
			"0.0": 20.2325026497,
			"0.001": 25.996053874,
			"0.002": 32.3917422596,
			"0.003": 33.7788391969,
			"0.004": 23.2278891652,
			"0.005": 10.081779552,
			"0.006": 2.88419025848,
			"0.007": 2.69118191552,
			"0.008": 1.25161268385,
			"0.009": 0.947583756857,
			"0.01": 0.991558637196,
			"0.011": 0.309177447139,
			"0.012": 0.441084964535,
			"0.013": 0.950866819583,
			"0.014": 0.635186616335,
			"0.015": 0.445117661568,
			"0.016": 0.875454043401,
			"0.017": 0.414280351916,
			"0.018": 0.521907652594,
			"0.019": 0.307890807514,
			"0.02": 0.0,
			"0.021": 0.0,
			"0.022": 0.0,
			"0.023": 0.0,
			"0.024": 0.0,
			"0.025": 0.0
		}
	}
}
