{
	 "smiles": "CN1CCN(CC1)C1=NC=C(C=O)C=N1", 
	 "Tm": 364.15, 
	 "num_atms": 29, 
	 "gaussian": { 
		 "optdone": 1, 
		 "sigma_profile": "yes", 
		 "theory": "DFT", 
		 "functional": "B3LYP", 
		 "basiset": "6-31G**", 
		 "properties": { 
			 "R2extent": 6131.1401, 
			 "electric_dipole_moment_norm": 4.39789831852, 
			 "electric_quadrupole_moment_norm": 25.0900262054, 
			 "total_energy": -683.710898468, 
			 "HOMO_LUMO_gap": 0.1597, 
			 "cosmo_polarized_energy": -11.53, 
			 "cosmo_cavitation_energy": 31.54, 
			 "cosmo_dispersion_energy": -23.23, 
			 "cosmo_repulsion_energy": 1.8, 
			 "cosmo_total_nonelectrostatic_energy": 10.1, 
			 "SMD_solvation_energy": 1.03 
		},
		"coords": [
			{
				"x": -0.6295079967,
				"y": 2.8005997,
				"z": 1.1100925271,
				"element": "C" 
			},
			{
				"x": -0.574794127,
				"y": 1.6660528339,
				"z": 0.2019368012,
				"element": "N" 
			},
			{
				"x": -1.1684845509,
				"y": 0.4686601829,
				"z": 0.7980603731,
				"element": "C" 
			},
			{
				"x": -0.8148733204,
				"y": -0.7855456855,
				"z": 0.0054249512,
				"element": "C" 
			},
			{
				"x": 0.6397745504,
				"y": -0.9893045165,
				"z": 0.0270022603,
				"element": "N" 
			},
			{
				"x": 1.4762603005,
				"y": 0.2032213349,
				"z": 0.2087624416,
				"element": "C" 
			},
			{
				"x": 0.7540968998,
				"y": 1.4174724985,
				"z": -0.3838735407,
				"element": "C" 
			},
			{
				"x": 1.1796164958,
				"y": -2.2221436143,
				"z": -0.1247329952,
				"element": "C" 
			},
			{
				"x": 0.3206292105,
				"y": -3.2533787908,
				"z": -0.3380302107,
				"element": "N" 
			},
			{
				"x": 0.8736859141,
				"y": -4.4500374005,
				"z": -0.4763815261,
				"element": "C" 
			},
			{
				"x": 2.2556727841,
				"y": -4.6763187556,
				"z": -0.4239922567,
				"element": "C" 
			},
			{
				"x": 2.8409103185,
				"y": -6.0087089361,
				"z": -0.5861903958,
				"element": "C" 
			},
			{
				"x": 4.0353545334,
				"y": -6.2532758667,
				"z": -0.5442300476,
				"element": "O" 
			},
			{
				"x": 3.0438232215,
				"y": -3.5311833137,
				"z": -0.2047722247,
				"element": "C" 
			},
			{
				"x": 2.53629743,
				"y": -2.3200617746,
				"z": -0.0500133975,
				"element": "N" 
			},
			{
				"x": -1.6685829012,
				"y": 2.9772146737,
				"z": 1.4092364161,
				"element": "H" 
			},
			{
				"x": -0.2732849981,
				"y": 3.7034575121,
				"z": 0.6049468429,
				"element": "H" 
			},
			{
				"x": -0.0363282174,
				"y": 2.6644156622,
				"z": 2.0356796722,
				"element": "H" 
			},
			{
				"x": -0.8452853114,
				"y": 0.3213461064,
				"z": 1.8474726863,
				"element": "H" 
			},
			{
				"x": -2.2598098629,
				"y": 0.5801108862,
				"z": 0.8191519035,
				"element": "H" 
			},
			{
				"x": -1.2985264296,
				"y": -1.6621240853,
				"z": 0.4376415017,
				"element": "H" 
			},
			{
				"x": -1.1733238724,
				"y": -0.6928652312,
				"z": -1.0288816802,
				"element": "H" 
			},
			{
				"x": 1.6896401308,
				"y": 0.3590713749,
				"z": 1.2756787653,
				"element": "H" 
			},
			{
				"x": 2.4330524135,
				"y": 0.0380145509,
				"z": -0.2877593112,
				"element": "H" 
			},
			{
				"x": 1.3829819005,
				"y": 2.3023416741,
				"z": -0.2450571779,
				"element": "H" 
			},
			{
				"x": 0.6564878693,
				"y": 1.2664214773,
				"z": -1.4679591963,
				"element": "H" 
			},
			{
				"x": 0.1875695985,
				"y": -5.2826337081,
				"z": -0.6423483705,
				"element": "H" 
			},
			{
				"x": 2.0985330811,
				"y": -6.821289375,
				"z": -0.7577641843,
				"element": "H" 
			},
			{
				"x": 4.1268149359,
				"y": -3.6309294141,
				"z": -0.1541006271,
				"element": "H" 
			}
		],
		 "valence_orbital": [ 
			{
				"type": "occ",
				"energy": -0.306,
				"method": "rhf"
			},
			{
				"type": "occ",
				"energy": -0.25266,
				"method": "rhf"
			},
			{
				"type": "occ",
				"energy": -0.24792,
				"method": "rhf"
			},
			{
				"type": "occ",
				"energy": -0.22484,
				"method": "rhf"
			},
			{
				"type": "occ",
				"energy": -0.21421,
				"method": "rhf"
			},
			{
				"type": "unocc",
				"energy": -0.05451,
				"method": "rhf"
			},
			{
				"type": "unocc",
				"energy": -0.03921,
				"method": "rhf"
			},
			{
				"type": "unocc",
				"energy": 0.03907,
				"method": "rhf"
			},
			{
				"type": "unocc",
				"energy": 0.07032,
				"method": "rhf"
			},
			{
				"type": "unocc",
				"energy": 0.10839,
				"method": "rhf"
			}
		],
		"cosmo_sigma_profile": { 
			"-0.025": 0.0,
			"-0.024": 0.0,
			"-0.023": 0.0,
			"-0.022": 0.0,
			"-0.021": 0.0,
			"-0.02": 0.0,
			"-0.019": 0.0,
			"-0.018": 0.0,
			"-0.017": 0.0,
			"-0.016": 0.0,
			"-0.015": 0.0,
			"-0.014": 0.0,
			"-0.013": 0.0,
			"-0.012": 0.0,
			"-0.011": 0.0,
			"-0.01": 0.0,
			"-0.009": 0.470747637818,
			"-0.008": 3.65985782718,
			"-0.007": 4.27951881477,
			"-0.006": 5.67758347384,
			"-0.005": 12.2108548793,
			"-0.004": 27.2756483022,
			"-0.003": 33.8162277342,
			"-0.002": 30.7635332477,
			"-0.001": 31.7396912038,
			"0.0": 25.4114042006,
			"0.001": 8.91733805424,
			"0.002": 7.49288318776,
			"0.003": 7.55228821722,
			"0.004": 5.84412672773,
			"0.005": 4.01913730175,
			"0.006": 5.89200887,
			"0.007": 5.51566088982,
			"0.008": 3.47008482578,
			"0.009": 5.08001272453,
			"0.01": 4.2964377586,
			"0.011": 5.57104795939,
			"0.012": 6.24020908586,
			"0.013": 2.11917095744,
			"0.014": 0.542270510835,
			"0.015": 0.472621007824,
			"0.016": 0.265065682993,
			"0.017": 0.038442066742,
			"0.018": 0.0,
			"0.019": 0.0,
			"0.02": 0.0,
			"0.021": 0.0,
			"0.022": 0.0,
			"0.023": 0.0,
			"0.024": 0.0,
			"0.025": 0.0
		}
	}
}
