{
	 "smiles": "CC1=C(Cl)C=CC=C1Cl", 
	 "Tm": 298.95, 
	 "num_atms": 15, 
	 "gaussian": { 
		 "optdone": 1, 
		 "sigma_profile": "yes", 
		 "theory": "DFT", 
		 "functional": "B3LYP", 
		 "basiset": "6-31G**", 
		 "properties": { 
			 "R2extent": 1906.5071, 
			 "electric_dipole_moment_norm": 1.12310468346, 
			 "electric_quadrupole_moment_norm": 5.97091337653, 
			 "total_energy": -1190.75257688, 
			 "HOMO_LUMO_gap": 0.22789, 
			 "cosmo_polarized_energy": -3.33, 
			 "cosmo_cavitation_energy": 21.83, 
			 "cosmo_dispersion_energy": -16.64, 
			 "cosmo_repulsion_energy": 1.35, 
			 "cosmo_total_nonelectrostatic_energy": 6.54, 
			 "SMD_solvation_energy": 3.32 
		},
		"coords": [
			{
				"x": -0.9519287068,
				"y": 1.8417081762,
				"z": -1.672515884,
				"element": "C" 
			},
			{
				"x": -0.2584950195,
				"y": 0.7085529009,
				"z": -0.9622121616,
				"element": "C" 
			},
			{
				"x": 0.9856026377,
				"y": 0.2041987466,
				"z": -1.3833135281,
				"element": "C" 
			},
			{
				"x": 1.7903172128,
				"y": 0.9157143009,
				"z": -2.7816843058,
				"element": "Cl" 
			},
			{
				"x": 1.6396605061,
				"y": -0.8446901428,
				"z": -0.738916684,
				"element": "C" 
			},
			{
				"x": 1.0515857042,
				"y": -1.4286333317,
				"z": 0.379921647,
				"element": "C" 
			},
			{
				"x": -0.1734502815,
				"y": -0.9600420982,
				"z": 0.8471792576,
				"element": "C" 
			},
			{
				"x": -0.8008311511,
				"y": 0.0905577152,
				"z": 0.1794647098,
				"element": "C" 
			},
			{
				"x": -2.3396909057,
				"y": 0.65295772,
				"z": 0.8312701565,
				"element": "Cl" 
			},
			{
				"x": -2.0346301028,
				"y": 1.7659668044,
				"z": -1.565917491,
				"element": "H" 
			},
			{
				"x": -0.7002819452,
				"y": 1.8505796709,
				"z": -2.733620004,
				"element": "H" 
			},
			{
				"x": -0.6464543052,
				"y": 2.8082628936,
				"z": -1.2534126331,
				"element": "H" 
			},
			{
				"x": 2.595652997,
				"y": -1.1910976239,
				"z": -1.1140987047,
				"element": "H" 
			},
			{
				"x": 1.5499191007,
				"y": -2.2468974075,
				"z": 0.890073389,
				"element": "H" 
			},
			{
				"x": -0.6441757406,
				"y": -1.3972383245,
				"z": 1.7200822364,
				"element": "H" 
			}
		],
		 "valence_orbital": [ 
			{
				"type": "occ",
				"energy": -0.32387,
				"method": "rhf"
			},
			{
				"type": "occ",
				"energy": -0.32116,
				"method": "rhf"
			},
			{
				"type": "occ",
				"energy": -0.31294,
				"method": "rhf"
			},
			{
				"type": "occ",
				"energy": -0.25592,
				"method": "rhf"
			},
			{
				"type": "occ",
				"energy": -0.25011,
				"method": "rhf"
			},
			{
				"type": "unocc",
				"energy": -0.02222,
				"method": "rhf"
			},
			{
				"type": "unocc",
				"energy": -0.02113,
				"method": "rhf"
			},
			{
				"type": "unocc",
				"energy": 0.00643,
				"method": "rhf"
			},
			{
				"type": "unocc",
				"energy": 0.05123,
				"method": "rhf"
			},
			{
				"type": "unocc",
				"energy": 0.112,
				"method": "rhf"
			}
		],
		"cosmo_sigma_profile": { 
			"-0.025": 0.0,
			"-0.024": 0.0,
			"-0.023": 0.0,
			"-0.022": 0.0,
			"-0.021": 0.0,
			"-0.02": 0.0,
			"-0.019": 0.0,
			"-0.018": 0.0,
			"-0.017": 0.0,
			"-0.016": 0.0,
			"-0.015": 0.0,
			"-0.014": 0.0,
			"-0.013": 0.0,
			"-0.012": 0.0,
			"-0.011": 0.0,
			"-0.01": 0.0,
			"-0.009": 0.0,
			"-0.008": 0.774273818244,
			"-0.007": 5.68703095504,
			"-0.006": 6.17277563053,
			"-0.005": 8.09653971206,
			"-0.004": 8.32686595722,
			"-0.003": 11.148691392,
			"-0.002": 13.942894028,
			"-0.001": 17.8540110729,
			"0.0": 17.1899544725,
			"0.001": 21.0519072011,
			"0.002": 24.1033191879,
			"0.003": 20.229637191,
			"0.004": 17.2216893422,
			"0.005": 7.39505197731,
			"0.006": 0.0,
			"0.007": 0.0,
			"0.008": 0.0,
			"0.009": 0.0,
			"0.01": 0.0,
			"0.011": 0.0,
			"0.012": 0.0,
			"0.013": 0.0,
			"0.014": 0.0,
			"0.015": 0.0,
			"0.016": 0.0,
			"0.017": 0.0,
			"0.018": 0.0,
			"0.019": 0.0,
			"0.02": 0.0,
			"0.021": 0.0,
			"0.022": 0.0,
			"0.023": 0.0,
			"0.024": 0.0,
			"0.025": 0.0
		}
	}
}
