{
	 "smiles": "OC1=CC(NN=C(/C(=O)C2=CC=C(Cl)C=C2)S(=O)(=O)C2=CC=CC=C2)=CC=C1", 
	 "Tm": 398.15, 
	 "num_atms": 43, 
	 "gaussian": { 
		 "optdone": 1, 
		 "sigma_profile": "yes", 
		 "theory": "DFT", 
		 "functional": "B3LYP", 
		 "basiset": "6-31G**", 
		 "properties": { 
			 "R2extent": 16301.937, 
			 "electric_dipole_moment_norm": 7.31568132165, 
			 "electric_quadrupole_moment_norm": 9.84460419672, 
			 "total_energy": -2039.83670871, 
			 "HOMO_LUMO_gap": 0.13047, 
			 "cosmo_polarized_energy": -21.81, 
			 "cosmo_cavitation_energy": 51.86, 
			 "cosmo_dispersion_energy": -35.81, 
			 "cosmo_repulsion_energy": 2.65, 
			 "cosmo_total_nonelectrostatic_energy": 18.69, 
			 "SMD_solvation_energy": 8.11 
		},
		"coords": [
			{
				"x": -3.9874335927,
				"y": -4.606440871,
				"z": -2.4170460711,
				"element": "O" 
			},
			{
				"x": -2.7818469274,
				"y": -3.9795207155,
				"z": -2.2984515344,
				"element": "C" 
			},
			{
				"x": -2.6232444698,
				"y": -3.1161697777,
				"z": -1.211855339,
				"element": "C" 
			},
			{
				"x": -1.4092507577,
				"y": -2.4452897063,
				"z": -1.0382942401,
				"element": "C" 
			},
			{
				"x": -1.3062649056,
				"y": -1.5870729702,
				"z": 0.0707233195,
				"element": "N" 
			},
			{
				"x": -0.2079058375,
				"y": -0.9235651722,
				"z": 0.3165820516,
				"element": "N" 
			},
			{
				"x": -0.0740461503,
				"y": -0.1446156936,
				"z": 1.3579925289,
				"element": "C" 
			},
			{
				"x": -1.1164241041,
				"y": 0.0650309534,
				"z": 2.3933736555,
				"element": "C" 
			},
			{
				"x": -2.2600994375,
				"y": -0.3508881393,
				"z": 2.1360773653,
				"element": "O" 
			},
			{
				"x": -0.8698943438,
				"y": 0.709283795,
				"z": 3.7119696584,
				"element": "C" 
			},
			{
				"x": 0.3479039976,
				"y": 0.6297637278,
				"z": 4.404551132,
				"element": "C" 
			},
			{
				"x": 0.4721935968,
				"y": 1.1847842834,
				"z": 5.676333799,
				"element": "C" 
			},
			{
				"x": -0.6218538717,
				"y": 1.8306283934,
				"z": 6.2502621451,
				"element": "C" 
			},
			{
				"x": -0.4630025026,
				"y": 2.542955203,
				"z": 7.8452910579,
				"element": "Cl" 
			},
			{
				"x": -1.8462248621,
				"y": 1.916200428,
				"z": 5.582902173,
				"element": "C" 
			},
			{
				"x": -1.9660585958,
				"y": 1.3414916741,
				"z": 4.3239748936,
				"element": "C" 
			},
			{
				"x": 1.5257510006,
				"y": 0.7306420074,
				"z": 1.3497522339,
				"element": "S" 
			},
			{
				"x": 2.5183811304,
				"y": -0.0602874516,
				"z": 2.1041598377,
				"element": "O" 
			},
			{
				"x": 1.2476849816,
				"y": 2.1251841168,
				"z": 1.7314647585,
				"element": "O" 
			},
			{
				"x": 2.0384835868,
				"y": 0.719464705,
				"z": -0.3755925835,
				"element": "C" 
			},
			{
				"x": 1.5946092991,
				"y": 1.741851497,
				"z": -1.2151875695,
				"element": "C" 
			},
			{
				"x": 2.0370126289,
				"y": 1.7654240402,
				"z": -2.5380257318,
				"element": "C" 
			},
			{
				"x": 2.9146183799,
				"y": 0.7817968219,
				"z": -3.0006526701,
				"element": "C" 
			},
			{
				"x": 3.3616772155,
				"y": -0.226895364,
				"z": -2.1426274813,
				"element": "C" 
			},
			{
				"x": 2.9255055478,
				"y": -0.2628782029,
				"z": -0.8177726716,
				"element": "C" 
			},
			{
				"x": -0.3478572891,
				"y": -2.6258545892,
				"z": -1.9366005701,
				"element": "C" 
			},
			{
				"x": -0.5296238948,
				"y": -3.4905374675,
				"z": -3.0112473461,
				"element": "C" 
			},
			{
				"x": -1.7334656068,
				"y": -4.171423547,
				"z": -3.2050199731,
				"element": "C" 
			},
			{
				"x": -3.9751499711,
				"y": -5.1744603536,
				"z": -3.1981888063,
				"element": "H" 
			},
			{
				"x": -3.4471177398,
				"y": -2.9826835184,
				"z": -0.5180051768,
				"element": "H" 
			},
			{
				"x": -2.0980857409,
				"y": -1.4278367213,
				"z": 0.7023362195,
				"element": "H" 
			},
			{
				"x": 1.2021252101,
				"y": 0.1206503724,
				"z": 3.9726645265,
				"element": "H" 
			},
			{
				"x": 1.4097241151,
				"y": 1.1170076357,
				"z": 6.2161267501,
				"element": "H" 
			},
			{
				"x": -2.686007401,
				"y": 2.4200123396,
				"z": 6.0480061078,
				"element": "H" 
			},
			{
				"x": -2.9118585275,
				"y": 1.3772997966,
				"z": 3.7947488643,
				"element": "H" 
			},
			{
				"x": 0.9316483228,
				"y": 2.5089700024,
				"z": -0.8298672047,
				"element": "H" 
			},
			{
				"x": 1.703446589,
				"y": 2.5555370372,
				"z": -3.2038232646,
				"element": "H" 
			},
			{
				"x": 3.2593869578,
				"y": 0.8069382246,
				"z": -4.0303109032,
				"element": "H" 
			},
			{
				"x": 4.0565231971,
				"y": -0.9801070313,
				"z": -2.5018674802,
				"element": "H" 
			},
			{
				"x": 3.2723479541,
				"y": -1.0233274052,
				"z": -0.1271036896,
				"element": "H" 
			},
			{
				"x": 0.5834796402,
				"y": -2.0948992477,
				"z": -1.7877327643,
				"element": "H" 
			},
			{
				"x": 0.2828216355,
				"y": -3.6397410638,
				"z": -3.7162788085,
				"element": "H" 
			},
			{
				"x": -1.8573084574,
				"y": -4.8442220458,
				"z": -4.0501411977,
				"element": "H" 
			}
		],
		 "valence_orbital": [ 
			{
				"type": "occ",
				"energy": -0.26712,
				"method": "rhf"
			},
			{
				"type": "occ",
				"energy": -0.25907,
				"method": "rhf"
			},
			{
				"type": "occ",
				"energy": -0.25096,
				"method": "rhf"
			},
			{
				"type": "occ",
				"energy": -0.2416,
				"method": "rhf"
			},
			{
				"type": "occ",
				"energy": -0.2235,
				"method": "rhf"
			},
			{
				"type": "unocc",
				"energy": -0.09303,
				"method": "rhf"
			},
			{
				"type": "unocc",
				"energy": -0.04248,
				"method": "rhf"
			},
			{
				"type": "unocc",
				"energy": -0.03133,
				"method": "rhf"
			},
			{
				"type": "unocc",
				"energy": -0.0207,
				"method": "rhf"
			},
			{
				"type": "unocc",
				"energy": -0.01491,
				"method": "rhf"
			}
		],
		"cosmo_sigma_profile": { 
			"-0.025": 0.0,
			"-0.024": 0.0,
			"-0.023": 0.0,
			"-0.022": 0.0,
			"-0.021": 0.0,
			"-0.02": 0.0,
			"-0.019": 0.0,
			"-0.018": 0.804595155155,
			"-0.017": 0.994592902115,
			"-0.016": 0.928908355484,
			"-0.015": 1.40057579451,
			"-0.014": 0.811491542188,
			"-0.013": 1.03691797066,
			"-0.012": 1.83966022631,
			"-0.011": 1.48555235179,
			"-0.01": 2.19669197935,
			"-0.009": 2.90460605777,
			"-0.008": 4.44731015756,
			"-0.007": 16.6193124182,
			"-0.006": 24.971423862,
			"-0.005": 24.5400955548,
			"-0.004": 22.1834432976,
			"-0.003": 24.4566488531,
			"-0.002": 23.8574947732,
			"-0.001": 27.1517359267,
			"0.0": 32.3042057309,
			"0.001": 36.74323666,
			"0.002": 42.904255321,
			"0.003": 38.1855893976,
			"0.004": 26.9336605373,
			"0.005": 12.5940028918,
			"0.006": 6.14933100293,
			"0.007": 6.14168665588,
			"0.008": 5.81521726198,
			"0.009": 7.98939648008,
			"0.01": 10.4798151808,
			"0.011": 8.82515807194,
			"0.012": 2.2333869784,
			"0.013": 0.0,
			"0.014": 0.0,
			"0.015": 0.0,
			"0.016": 0.0,
			"0.017": 0.0,
			"0.018": 0.0,
			"0.019": 0.0,
			"0.02": 0.0,
			"0.021": 0.0,
			"0.022": 0.0,
			"0.023": 0.0,
			"0.024": 0.0,
			"0.025": 0.0
		}
	}
}
