{
	 "smiles": "CC(=O)N(C1=NC(C=O)=CS1)C1=CC=C(C)C=C1", 
	 "Tm": 440.15, 
	 "num_atms": 30, 
	 "gaussian": { 
		 "optdone": 1, 
		 "sigma_profile": "yes", 
		 "theory": "DFT", 
		 "functional": "B3LYP", 
		 "basiset": "6-31G**", 
		 "properties": { 
			 "R2extent": 7937.3076, 
			 "electric_dipole_moment_norm": 6.14756540266, 
			 "electric_quadrupole_moment_norm": 23.7653893761, 
			 "total_energy": -1160.75414289, 
			 "HOMO_LUMO_gap": 0.17592, 
			 "cosmo_polarized_energy": -14.26, 
			 "cosmo_cavitation_energy": 36.65, 
			 "cosmo_dispersion_energy": -25.74, 
			 "cosmo_repulsion_energy": 1.98, 
			 "cosmo_total_nonelectrostatic_energy": 12.88, 
			 "SMD_solvation_energy": 7.27 
		},
		"coords": [
			{
				"x": 1.0466842356,
				"y": -1.4362173991,
				"z": -0.8582198711,
				"element": "C" 
			},
			{
				"x": 2.0478699909,
				"y": -0.6307437031,
				"z": -0.0578924993,
				"element": "C" 
			},
			{
				"x": 3.2552650021,
				"y": -0.7997917226,
				"z": -0.1627163052,
				"element": "O" 
			},
			{
				"x": 1.5359428832,
				"y": 0.3277504375,
				"z": 0.8190381187,
				"element": "N" 
			},
			{
				"x": 2.3867820531,
				"y": 1.1213027475,
				"z": 1.6020128214,
				"element": "C" 
			},
			{
				"x": 1.9251586932,
				"y": 2.0179925483,
				"z": 2.4229611987,
				"element": "N" 
			},
			{
				"x": 2.9608608839,
				"y": 2.6603887504,
				"z": 3.0724835716,
				"element": "C" 
			},
			{
				"x": 2.6508356377,
				"y": 3.718364036,
				"z": 4.0514849826,
				"element": "C" 
			},
			{
				"x": 3.4903892746,
				"y": 4.3419846683,
				"z": 4.6744622219,
				"element": "O" 
			},
			{
				"x": 4.2221367238,
				"y": 2.2440433491,
				"z": 2.7384687733,
				"element": "C" 
			},
			{
				"x": 4.1533595462,
				"y": 0.9860348548,
				"z": 1.5545956051,
				"element": "S" 
			},
			{
				"x": 0.113044886,
				"y": 0.5484887005,
				"z": 0.9628218746,
				"element": "C" 
			},
			{
				"x": -0.5314783843,
				"y": 1.4848392042,
				"z": 0.1544353312,
				"element": "C" 
			},
			{
				"x": -1.9046913387,
				"y": 1.6832654047,
				"z": 0.2880119747,
				"element": "C" 
			},
			{
				"x": -2.6539927858,
				"y": 0.9603730498,
				"z": 1.2264976994,
				"element": "C" 
			},
			{
				"x": -4.1462116373,
				"y": 1.1589983691,
				"z": 1.3471337575,
				"element": "C" 
			},
			{
				"x": -1.9833987043,
				"y": 0.0343161215,
				"z": 2.0376203211,
				"element": "C" 
			},
			{
				"x": -0.6107113205,
				"y": -0.1723178078,
				"z": 1.9129349852,
				"element": "C" 
			},
			{
				"x": 0.4259144182,
				"y": -0.7907465124,
				"z": -1.485734444,
				"element": "H" 
			},
			{
				"x": 0.3720972098,
				"y": -1.9961192032,
				"z": -0.204554232,
				"element": "H" 
			},
			{
				"x": 1.6096896971,
				"y": -2.1274007652,
				"z": -1.4846289203,
				"element": "H" 
			},
			{
				"x": 1.5638018183,
				"y": 3.9047473575,
				"z": 4.1775440043,
				"element": "H" 
			},
			{
				"x": 5.1564512213,
				"y": 2.6187377234,
				"z": 3.1322042169,
				"element": "H" 
			},
			{
				"x": 0.0436201234,
				"y": 2.0584884078,
				"z": -0.5658707456,
				"element": "H" 
			},
			{
				"x": -2.400746536,
				"y": 2.415977354,
				"z": -0.342978318,
				"element": "H" 
			},
			{
				"x": -4.4392455047,
				"y": 2.1727998784,
				"z": 1.0595978699,
				"element": "H" 
			},
			{
				"x": -4.6906843054,
				"y": 0.4645860985,
				"z": 0.6950795737,
				"element": "H" 
			},
			{
				"x": -4.4916546591,
				"y": 0.98262486,
				"z": 2.369948492,
				"element": "H" 
			},
			{
				"x": -2.5412978196,
				"y": -0.5285046947,
				"z": 2.7813311962,
				"element": "H" 
			},
			{
				"x": -0.0967913028,
				"y": -0.8817621135,
				"z": 2.5542267457,
				"element": "H" 
			}
		],
		 "valence_orbital": [ 
			{
				"type": "occ",
				"energy": -0.27721,
				"method": "rhf"
			},
			{
				"type": "occ",
				"energy": -0.26929,
				"method": "rhf"
			},
			{
				"type": "occ",
				"energy": -0.25629,
				"method": "rhf"
			},
			{
				"type": "occ",
				"energy": -0.24835,
				"method": "rhf"
			},
			{
				"type": "occ",
				"energy": -0.23052,
				"method": "rhf"
			},
			{
				"type": "unocc",
				"energy": -0.0546,
				"method": "rhf"
			},
			{
				"type": "unocc",
				"energy": -0.02535,
				"method": "rhf"
			},
			{
				"type": "unocc",
				"energy": -0.02408,
				"method": "rhf"
			},
			{
				"type": "unocc",
				"energy": -0.0213,
				"method": "rhf"
			},
			{
				"type": "unocc",
				"energy": 0.02879,
				"method": "rhf"
			}
		],
		"cosmo_sigma_profile": { 
			"-0.025": 0.0,
			"-0.024": 0.0,
			"-0.023": 0.0,
			"-0.022": 0.0,
			"-0.021": 0.0,
			"-0.02": 0.0,
			"-0.019": 0.0,
			"-0.018": 0.0,
			"-0.017": 0.0,
			"-0.016": 0.0,
			"-0.015": 0.0,
			"-0.014": 0.0,
			"-0.013": 0.0,
			"-0.012": 0.0,
			"-0.011": 0.00082324538327,
			"-0.01": 0.8063424289,
			"-0.009": 1.50928394943,
			"-0.008": 1.72106007175,
			"-0.007": 5.16566417279,
			"-0.006": 19.6336712448,
			"-0.005": 24.2141775627,
			"-0.004": 26.5956779489,
			"-0.003": 24.7659799908,
			"-0.002": 28.7759279352,
			"-0.001": 25.6939535409,
			"0.0": 23.6495185599,
			"0.001": 21.0933431972,
			"0.002": 15.9059635118,
			"0.003": 14.4990931694,
			"0.004": 10.6677220853,
			"0.005": 7.75939979393,
			"0.006": 5.13044323747,
			"0.007": 4.89283577045,
			"0.008": 5.70390900034,
			"0.009": 5.37120093006,
			"0.01": 5.95996921591,
			"0.011": 7.76037260933,
			"0.012": 6.04233910811,
			"0.013": 1.65064344812,
			"0.014": 0.0,
			"0.015": 0.0,
			"0.016": 0.0,
			"0.017": 0.0,
			"0.018": 0.0,
			"0.019": 0.0,
			"0.02": 0.0,
			"0.021": 0.0,
			"0.022": 0.0,
			"0.023": 0.0,
			"0.024": 0.0,
			"0.025": 0.0
		}
	}
}
