{
	 "smiles": "OC12CC3CC(C1)C(=O)C(C3)C2", 
	 "Tm": 574.15, 
	 "num_atms": 26, 
	 "gaussian": { 
		 "optdone": 1, 
		 "sigma_profile": "yes", 
		 "theory": "DFT", 
		 "functional": "B3LYP", 
		 "basiset": "6-31G**", 
		 "properties": { 
			 "R2extent": 1792.591, 
			 "electric_dipole_moment_norm": 3.48360406763, 
			 "electric_quadrupole_moment_norm": 9.34724809663, 
			 "total_energy": -539.964257424, 
			 "HOMO_LUMO_gap": 0.2192, 
			 "cosmo_polarized_energy": -11.38, 
			 "cosmo_cavitation_energy": 24.99, 
			 "cosmo_dispersion_energy": -19.08, 
			 "cosmo_repulsion_energy": 1.49, 
			 "cosmo_total_nonelectrostatic_energy": 7.4, 
			 "SMD_solvation_energy": 3.64 
		},
		"coords": [
			{
				"x": 0.8846261323,
				"y": 1.3093654369,
				"z": 2.870259972,
				"element": "O" 
			},
			{
				"x": 0.2216396879,
				"y": 0.8536701391,
				"z": 1.6941557127,
				"element": "C" 
			},
			{
				"x": 0.0636388358,
				"y": 1.9853975655,
				"z": 0.6592925182,
				"element": "C" 
			},
			{
				"x": -0.5907794038,
				"y": 1.441093399,
				"z": -0.6282185609,
				"element": "C" 
			},
			{
				"x": -1.9808151103,
				"y": 0.8608692636,
				"z": -0.2957870759,
				"element": "C" 
			},
			{
				"x": -1.8371242271,
				"y": -0.281356208,
				"z": 0.742456246,
				"element": "C" 
			},
			{
				"x": -1.1679092104,
				"y": 0.2693539207,
				"z": 2.025502484,
				"element": "C" 
			},
			{
				"x": -0.9252887225,
				"y": -1.3533729506,
				"z": 0.1466729995,
				"element": "C" 
			},
			{
				"x": -1.2725435262,
				"y": -2.5019260366,
				"z": -0.0489466695,
				"element": "O" 
			},
			{
				"x": 0.4641997925,
				"y": -0.8152146291,
				"z": -0.1894225441,
				"element": "C" 
			},
			{
				"x": 0.2986267536,
				"y": 0.3294839449,
				"z": -1.2219633125,
				"element": "C" 
			},
			{
				"x": 1.1059816617,
				"y": -0.2568775391,
				"z": 1.1030769861,
				"element": "C" 
			},
			{
				"x": 0.3497051723,
				"y": 2.0167625004,
				"z": 3.2558372523,
				"element": "H" 
			},
			{
				"x": -0.5533225145,
				"y": 2.789072432,
				"z": 1.0867773573,
				"element": "H" 
			},
			{
				"x": 1.0500652581,
				"y": 2.4140208041,
				"z": 0.4456518657,
				"element": "H" 
			},
			{
				"x": -0.6985270197,
				"y": 2.252145547,
				"z": -1.3586112909,
				"element": "H" 
			},
			{
				"x": -2.4622723838,
				"y": 0.4822129865,
				"z": -1.2055761124,
				"element": "H" 
			},
			{
				"x": -2.6355678413,
				"y": 1.6420958209,
				"z": 0.1115174101,
				"element": "H" 
			},
			{
				"x": -2.8061056547,
				"y": -0.7372207171,
				"z": 0.9658517499,
				"element": "H" 
			},
			{
				"x": -1.0573372169,
				"y": -0.5187998859,
				"z": 2.7790622329,
				"element": "H" 
			},
			{
				"x": -1.80466934,
				"y": 1.0510328717,
				"z": 2.4640244585,
				"element": "H" 
			},
			{
				"x": 1.060811282,
				"y": -1.6342764458,
				"z": -0.6012046278,
				"element": "H" 
			},
			{
				"x": 1.2870350291,
				"y": 0.7281956076,
				"z": -1.4831393059,
				"element": "H" 
			},
			{
				"x": -0.1453137971,
				"y": -0.0595680354,
				"z": -2.146402166,
				"element": "H" 
			},
			{
				"x": 2.1006031276,
				"y": 0.1501582836,
				"z": 0.8860750573,
				"element": "H" 
			},
			{
				"x": 1.2362432352,
				"y": -1.0488180759,
				"z": 1.8493573633,
				"element": "H" 
			}
		],
		 "valence_orbital": [ 
			{
				"type": "occ",
				"energy": -0.31724,
				"method": "rhf"
			},
			{
				"type": "occ",
				"energy": -0.31381,
				"method": "rhf"
			},
			{
				"type": "occ",
				"energy": -0.29775,
				"method": "rhf"
			},
			{
				"type": "occ",
				"energy": -0.26483,
				"method": "rhf"
			},
			{
				"type": "occ",
				"energy": -0.23113,
				"method": "rhf"
			},
			{
				"type": "unocc",
				"energy": -0.01193,
				"method": "rhf"
			},
			{
				"type": "unocc",
				"energy": 0.06336,
				"method": "rhf"
			},
			{
				"type": "unocc",
				"energy": 0.0799,
				"method": "rhf"
			},
			{
				"type": "unocc",
				"energy": 0.11416,
				"method": "rhf"
			},
			{
				"type": "unocc",
				"energy": 0.11989,
				"method": "rhf"
			}
		],
		"cosmo_sigma_profile": { 
			"-0.025": 0.0,
			"-0.024": 0.0,
			"-0.023": 0.0,
			"-0.022": 0.0,
			"-0.021": 0.0,
			"-0.02": 0.0,
			"-0.019": 0.0,
			"-0.018": 0.0,
			"-0.017": 0.0,
			"-0.016": 0.0,
			"-0.015": 0.555634092,
			"-0.014": 0.719055412369,
			"-0.013": 1.04580676975,
			"-0.012": 1.37620533135,
			"-0.011": 0.542261433579,
			"-0.01": 0.919151540924,
			"-0.009": 0.756021817985,
			"-0.008": 1.13160454132,
			"-0.007": 1.63542512672,
			"-0.006": 1.72964672567,
			"-0.005": 2.81470851075,
			"-0.004": 18.5929562669,
			"-0.003": 34.6536596281,
			"-0.002": 31.2433833883,
			"-0.001": 25.774308757,
			"0.0": 18.3064090574,
			"0.001": 6.09487514657,
			"0.002": 3.87402509391,
			"0.003": 3.30271060274,
			"0.004": 2.48282677848,
			"0.005": 2.31811301816,
			"0.006": 2.88891843397,
			"0.007": 3.41375316565,
			"0.008": 1.74558723437,
			"0.009": 2.79533581109,
			"0.01": 3.09453876052,
			"0.011": 4.39783475354,
			"0.012": 5.97060752614,
			"0.013": 4.67115918712,
			"0.014": 2.96411564549,
			"0.015": 0.20935872412,
			"0.016": 0.0,
			"0.017": 0.0,
			"0.018": 0.0,
			"0.019": 0.0,
			"0.02": 0.0,
			"0.021": 0.0,
			"0.022": 0.0,
			"0.023": 0.0,
			"0.024": 0.0,
			"0.025": 0.0
		}
	}
}
