{
	 "smiles": "NC1=CC=CC(OC2=CC=C(C=C2)S(=O)(=O)C2=CC=C(OC3=CC(N)=CC=C3)C=C2)=C1", 
	 "Tm": 407.15, 
	 "num_atms": 51, 
	 "gaussian": { 
		 "optdone": 1, 
		 "sigma_profile": "yes", 
		 "theory": "DFT", 
		 "functional": "B3LYP", 
		 "basiset": "6-31G**", 
		 "properties": { 
			 "R2extent": 24495.726, 
			 "electric_dipole_moment_norm": 6.63156829792, 
			 "electric_quadrupole_moment_norm": 64.772705818, 
			 "total_energy": -1735.11744602, 
			 "HOMO_LUMO_gap": 0.17477, 
			 "cosmo_polarized_energy": -26.73, 
			 "cosmo_cavitation_energy": 58.43, 
			 "cosmo_dispersion_energy": -41.18, 
			 "cosmo_repulsion_energy": 3.06, 
			 "cosmo_total_nonelectrostatic_energy": 20.31, 
			 "SMD_solvation_energy": 9.33 
		},
		"coords": [
			{
				"x": -7.3706709632,
				"y": 3.794325354,
				"z": 2.5842534131,
				"element": "N" 
			},
			{
				"x": -7.2324633641,
				"y": 3.0251096051,
				"z": 1.4309229748,
				"element": "C" 
			},
			{
				"x": -7.7193103406,
				"y": 3.4863026722,
				"z": 0.1944606892,
				"element": "C" 
			},
			{
				"x": -7.528306666,
				"y": 2.7323939344,
				"z": -0.9608806044,
				"element": "C" 
			},
			{
				"x": -6.8570434526,
				"y": 1.5092009272,
				"z": -0.9268012732,
				"element": "C" 
			},
			{
				"x": -6.3708008701,
				"y": 1.0647682464,
				"z": 0.3043037155,
				"element": "C" 
			},
			{
				"x": -5.7663230986,
				"y": -0.1815408242,
				"z": 0.4283582304,
				"element": "O" 
			},
			{
				"x": -4.6206722858,
				"y": -0.4743364693,
				"z": -0.2635199974,
				"element": "C" 
			},
			{
				"x": -3.7741974163,
				"y": 0.4966270461,
				"z": -0.8137783098,
				"element": "C" 
			},
			{
				"x": -2.6075313036,
				"y": 0.0973860949,
				"z": -1.4617678188,
				"element": "C" 
			},
			{
				"x": -2.2895708031,
				"y": -1.2587385538,
				"z": -1.5530749694,
				"element": "C" 
			},
			{
				"x": -3.1367986444,
				"y": -2.2288858636,
				"z": -1.008359488,
				"element": "C" 
			},
			{
				"x": -4.3028194639,
				"y": -1.8359600549,
				"z": -0.3634148549,
				"element": "C" 
			},
			{
				"x": -0.785923095,
				"y": -1.7631992324,
				"z": -2.3935948237,
				"element": "S" 
			},
			{
				"x": -0.4200158934,
				"y": -0.6782335238,
				"z": -3.3207573726,
				"element": "O" 
			},
			{
				"x": -0.9906839709,
				"y": -3.1455514989,
				"z": -2.8603208229,
				"element": "O" 
			},
			{
				"x": 0.4741602313,
				"y": -1.8168521662,
				"z": -1.116197282,
				"element": "C" 
			},
			{
				"x": 1.234967442,
				"y": -0.6775774753,
				"z": -0.848469288,
				"element": "C" 
			},
			{
				"x": 2.2186738325,
				"y": -0.7130504174,
				"z": 0.137239849,
				"element": "C" 
			},
			{
				"x": 2.4365132265,
				"y": -1.9006555453,
				"z": 0.8475092581,
				"element": "C" 
			},
			{
				"x": 3.352110956,
				"y": -2.0265050792,
				"z": 1.8586843562,
				"element": "O" 
			},
			{
				"x": 4.3788315147,
				"y": -1.1001728311,
				"z": 2.0075529354,
				"element": "C" 
			},
			{
				"x": 5.3407889528,
				"y": -0.9542030716,
				"z": 1.0096528787,
				"element": "C" 
			},
			{
				"x": 6.4177823309,
				"y": -0.0739435809,
				"z": 1.2050716775,
				"element": "C" 
			},
			{
				"x": 7.3548098142,
				"y": 0.1309570694,
				"z": 0.1950647446,
				"element": "N" 
			},
			{
				"x": 6.5045308108,
				"y": 0.6331553114,
				"z": 2.4195425922,
				"element": "C" 
			},
			{
				"x": 5.5360458617,
				"y": 0.4601913266,
				"z": 3.4035740638,
				"element": "C" 
			},
			{
				"x": 4.4564824401,
				"y": -0.4053985042,
				"z": 3.212418939,
				"element": "C" 
			},
			{
				"x": 1.6754772767,
				"y": -3.0452736554,
				"z": 0.5719416512,
				"element": "C" 
			},
			{
				"x": 0.6937159286,
				"y": -3.0038331311,
				"z": -0.4100806854,
				"element": "C" 
			},
			{
				"x": -6.5465261421,
				"y": 1.7989027519,
				"z": 1.4722845766,
				"element": "C" 
			},
			{
				"x": -8.128600881,
				"y": 4.4622334337,
				"z": 2.5719860757,
				"element": "H" 
			},
			{
				"x": -7.3232420371,
				"y": 3.2859630576,
				"z": 3.4560912425,
				"element": "H" 
			},
			{
				"x": -8.2457791028,
				"y": 4.435744909,
				"z": 0.1461510814,
				"element": "H" 
			},
			{
				"x": -7.9193688001,
				"y": 3.0997760919,
				"z": -1.9053170933,
				"element": "H" 
			},
			{
				"x": -6.7205815259,
				"y": 0.9101867298,
				"z": -1.8198682893,
				"element": "H" 
			},
			{
				"x": -4.02875384,
				"y": 1.5471612612,
				"z": -0.7401928479,
				"element": "H" 
			},
			{
				"x": -1.9517064583,
				"y": 0.8341702689,
				"z": -1.9129053227,
				"element": "H" 
			},
			{
				"x": -2.8922350142,
				"y": -3.2799159241,
				"z": -1.1166484889,
				"element": "H" 
			},
			{
				"x": -4.9853341808,
				"y": -2.563551782,
				"z": 0.0624671436,
				"element": "H" 
			},
			{
				"x": 1.0684500434,
				"y": 0.226795473,
				"z": -1.4236999041,
				"element": "H" 
			},
			{
				"x": 2.8142596466,
				"y": 0.166758728,
				"z": 0.3494188598,
				"element": "H" 
			},
			{
				"x": 5.2515577715,
				"y": -1.5222842699,
				"z": 0.0885506937,
				"element": "H" 
			},
			{
				"x": 8.2563419568,
				"y": 0.4699118173,
				"z": 0.4999248953,
				"element": "H" 
			},
			{
				"x": 7.4346426031,
				"y": -0.6109866383,
				"z": -0.4860128066,
				"element": "H" 
			},
			{
				"x": 7.3329808413,
				"y": 1.317435895,
				"z": 2.5819398013,
				"element": "H" 
			},
			{
				"x": 5.6214620734,
				"y": 1.0106724996,
				"z": 4.3360353477,
				"element": "H" 
			},
			{
				"x": 3.6949339477,
				"y": -0.5534433354,
				"z": 3.9692360284,
				"element": "H" 
			},
			{
				"x": 1.8763408624,
				"y": -3.9523154271,
				"z": 1.131902039,
				"element": "H" 
			},
			{
				"x": 0.1162539154,
				"y": -3.8892974303,
				"z": -0.6523690701,
				"element": "H" 
			},
			{
				"x": -6.1515546663,
				"y": 1.408875781,
				"z": 2.4052916595,
				"element": "H" 
			}
		],
		 "valence_orbital": [ 
			{
				"type": "occ",
				"energy": -0.25204,
				"method": "rhf"
			},
			{
				"type": "occ",
				"energy": -0.2377,
				"method": "rhf"
			},
			{
				"type": "occ",
				"energy": -0.22544,
				"method": "rhf"
			},
			{
				"type": "occ",
				"energy": -0.21097,
				"method": "rhf"
			},
			{
				"type": "occ",
				"energy": -0.20944,
				"method": "rhf"
			},
			{
				"type": "unocc",
				"energy": -0.03467,
				"method": "rhf"
			},
			{
				"type": "unocc",
				"energy": -0.01997,
				"method": "rhf"
			},
			{
				"type": "unocc",
				"energy": -0.01146,
				"method": "rhf"
			},
			{
				"type": "unocc",
				"energy": -0.00828,
				"method": "rhf"
			},
			{
				"type": "unocc",
				"energy": -0.00171,
				"method": "rhf"
			}
		],
		"cosmo_sigma_profile": { 
			"-0.025": 0.0,
			"-0.024": 0.0,
			"-0.023": 0.0,
			"-0.022": 0.0,
			"-0.021": 0.0,
			"-0.02": 0.0,
			"-0.019": 0.0,
			"-0.018": 0.0,
			"-0.017": 0.0,
			"-0.016": 0.0,
			"-0.015": 0.0,
			"-0.014": 0.0,
			"-0.013": 1.31726001083,
			"-0.012": 5.72031576809,
			"-0.011": 5.70020427351,
			"-0.01": 6.80730398648,
			"-0.009": 6.01497970505,
			"-0.008": 7.12147418145,
			"-0.007": 16.6489197964,
			"-0.006": 26.5797600793,
			"-0.005": 30.7870467953,
			"-0.004": 28.2759502154,
			"-0.003": 26.278941568,
			"-0.002": 21.8908285535,
			"-0.001": 25.0007473365,
			"0.0": 31.7697814347,
			"0.001": 34.6421748962,
			"0.002": 44.0945953895,
			"0.003": 36.2180941219,
			"0.004": 23.6559454786,
			"0.005": 25.7925749296,
			"0.006": 16.4743219117,
			"0.007": 6.48328641301,
			"0.008": 9.07646630793,
			"0.009": 5.00588314195,
			"0.01": 6.59560816639,
			"0.011": 8.97581253657,
			"0.012": 7.94680707276,
			"0.013": 1.90453584623,
			"0.014": 0.936747459478,
			"0.015": 0.0239301796498,
			"0.016": 0.0,
			"0.017": 0.0,
			"0.018": 0.0,
			"0.019": 0.0,
			"0.02": 0.0,
			"0.021": 0.0,
			"0.022": 0.0,
			"0.023": 0.0,
			"0.024": 0.0,
			"0.025": 0.0
		}
	}
}
