{
	 "smiles": "CC1=CC(=O)OC2=C1C=CC(OCCBr)=C2", 
	 "Tm": 376.15, 
	 "num_atms": 27, 
	 "gaussian": { 
		 "optdone": 1, 
		 "sigma_profile": "yes", 
		 "theory": "DFT", 
		 "functional": "B3LYP", 
		 "basiset": "6-31G**", 
		 "properties": { 
			 "R2extent": 7185.7205, 
			 "electric_dipole_moment_norm": 3.33434603333, 
			 "electric_quadrupole_moment_norm": 27.8327230716, 
			 "total_energy": -3260.98751297, 
			 "HOMO_LUMO_gap": 0.16451, 
			 "cosmo_polarized_energy": -16.29, 
			 "cosmo_cavitation_energy": 33.42, 
			 "cosmo_dispersion_energy": -24.62, 
			 "cosmo_repulsion_energy": 1.92, 
			 "cosmo_total_nonelectrostatic_energy": 10.72, 
			 "SMD_solvation_energy": 5.81 
		},
		"coords": [
			{
				"x": -3.2511126589,
				"y": 2.9834208402,
				"z": -0.6001259495,
				"element": "C" 
			},
			{
				"x": -2.8776738793,
				"y": 1.564577415,
				"z": -0.2654341075,
				"element": "C" 
			},
			{
				"x": -3.6692040363,
				"y": 0.5235032891,
				"z": -0.6349111603,
				"element": "C" 
			},
			{
				"x": -3.3517499427,
				"y": -0.8624989396,
				"z": -0.3357215003,
				"element": "C" 
			},
			{
				"x": -4.0077761967,
				"y": -1.8333505247,
				"z": -0.6322534433,
				"element": "O" 
			},
			{
				"x": -2.1599300702,
				"y": -1.0789334871,
				"z": 0.3687768246,
				"element": "O" 
			},
			{
				"x": -1.3468500087,
				"y": -0.0571503607,
				"z": 0.7529532236,
				"element": "C" 
			},
			{
				"x": -1.6543757339,
				"y": 1.2855542443,
				"z": 0.464219234,
				"element": "C" 
			},
			{
				"x": -0.7408370037,
				"y": 2.2655369094,
				"z": 0.9083753172,
				"element": "C" 
			},
			{
				"x": 0.4074609739,
				"y": 1.9251548575,
				"z": 1.5968985868,
				"element": "C" 
			},
			{
				"x": 0.6887899351,
				"y": 0.5716153817,
				"z": 1.8731253758,
				"element": "C" 
			},
			{
				"x": 1.8344289407,
				"y": 0.3545565636,
				"z": 2.5763059332,
				"element": "O" 
			},
			{
				"x": 2.2699312075,
				"y": -0.9716782601,
				"z": 2.8464793602,
				"element": "C" 
			},
			{
				"x": 2.9319476876,
				"y": -1.6515576945,
				"z": 1.6579526699,
				"element": "C" 
			},
			{
				"x": 4.58469484,
				"y": -0.7275384016,
				"z": 1.1032163593,
				"element": "Br" 
			},
			{
				"x": -0.1903037796,
				"y": -0.4245968279,
				"z": 1.4474052771,
				"element": "C" 
			},
			{
				"x": -4.1947934464,
				"y": 3.02120561,
				"z": -1.1479016156,
				"element": "H" 
			},
			{
				"x": -3.3573998059,
				"y": 3.5873173039,
				"z": 0.3083066001,
				"element": "H" 
			},
			{
				"x": -2.4784031994,
				"y": 3.4592590838,
				"z": -1.2147168876,
				"element": "H" 
			},
			{
				"x": -4.5932535008,
				"y": 0.6747510274,
				"z": -1.1810389648,
				"element": "H" 
			},
			{
				"x": -0.94236436,
				"y": 3.3118203218,
				"z": 0.7045737671,
				"element": "H" 
			},
			{
				"x": 1.1099452014,
				"y": 2.6773887971,
				"z": 1.937177293,
				"element": "H" 
			},
			{
				"x": 2.9816987753,
				"y": -0.8741548733,
				"z": 3.6688148709,
				"element": "H" 
			},
			{
				"x": 1.4337260965,
				"y": -1.5945258623,
				"z": 3.1943487104,
				"element": "H" 
			},
			{
				"x": 2.292013795,
				"y": -1.6687981998,
				"z": 0.777109766,
				"element": "H" 
			},
			{
				"x": 3.2260694024,
				"y": -2.6686474533,
				"z": 1.9188199284,
				"element": "H" 
			},
			{
				"x": -0.0275792327,
				"y": -1.4787307601,
				"z": 1.629744531,
				"element": "H" 
			}
		],
		 "valence_orbital": [ 
			{
				"type": "occ",
				"energy": -0.28076,
				"method": "rhf"
			},
			{
				"type": "occ",
				"energy": -0.27962,
				"method": "rhf"
			},
			{
				"type": "occ",
				"energy": -0.26949,
				"method": "rhf"
			},
			{
				"type": "occ",
				"energy": -0.25594,
				"method": "rhf"
			},
			{
				"type": "occ",
				"energy": -0.22457,
				"method": "rhf"
			},
			{
				"type": "unocc",
				"energy": -0.06006,
				"method": "rhf"
			},
			{
				"type": "unocc",
				"energy": -0.01782,
				"method": "rhf"
			},
			{
				"type": "unocc",
				"energy": -0.00641,
				"method": "rhf"
			},
			{
				"type": "unocc",
				"energy": 0.00767,
				"method": "rhf"
			},
			{
				"type": "unocc",
				"energy": 0.07604,
				"method": "rhf"
			}
		],
		"cosmo_sigma_profile": { 
			"-0.025": 0.0,
			"-0.024": 0.0,
			"-0.023": 0.0,
			"-0.022": 0.0,
			"-0.021": 0.0,
			"-0.02": 0.0,
			"-0.019": 0.0,
			"-0.018": 0.0,
			"-0.017": 0.0,
			"-0.016": 0.0,
			"-0.015": 0.0,
			"-0.014": 0.0,
			"-0.013": 0.0,
			"-0.012": 0.0,
			"-0.011": 0.0869820838266,
			"-0.01": 1.23087776769,
			"-0.009": 2.98648285468,
			"-0.008": 7.10736953299,
			"-0.007": 13.9332309224,
			"-0.006": 19.7380169919,
			"-0.005": 20.5977106855,
			"-0.004": 15.8382469997,
			"-0.003": 15.8661131759,
			"-0.002": 17.0244032364,
			"-0.001": 18.9833553466,
			"0.0": 18.8344637813,
			"0.001": 19.8026227458,
			"0.002": 19.9107000017,
			"0.003": 14.0061329302,
			"0.004": 10.5242576949,
			"0.005": 10.1688232789,
			"0.006": 13.0898009278,
			"0.007": 5.84540945985,
			"0.008": 4.02953548297,
			"0.009": 3.79561936802,
			"0.01": 2.60592238291,
			"0.011": 3.03009470258,
			"0.012": 5.89309269717,
			"0.013": 4.45961080725,
			"0.014": 0.577140352018,
			"0.015": 0.0,
			"0.016": 0.0,
			"0.017": 0.0,
			"0.018": 0.0,
			"0.019": 0.0,
			"0.02": 0.0,
			"0.021": 0.0,
			"0.022": 0.0,
			"0.023": 0.0,
			"0.024": 0.0,
			"0.025": 0.0
		}
	}
}
