{
	 "smiles": "ClCC(=O)N1CCCC1=O", 
	 "Tm": 307.15, 
	 "num_atms": 18, 
	 "gaussian": { 
		 "optdone": 1, 
		 "sigma_profile": "yes", 
		 "theory": "DFT", 
		 "functional": "B3LYP", 
		 "basiset": "6-31G**", 
		 "properties": { 
			 "R2extent": 2753.6813, 
			 "electric_dipole_moment_norm": 5.16735397955, 
			 "electric_quadrupole_moment_norm": 10.8663083184, 
			 "total_energy": -898.876992999, 
			 "HOMO_LUMO_gap": 0.23322, 
			 "cosmo_polarized_energy": -12.98, 
			 "cosmo_cavitation_energy": 23.09, 
			 "cosmo_dispersion_energy": -17.47, 
			 "cosmo_repulsion_energy": 1.44, 
			 "cosmo_total_nonelectrostatic_energy": 7.06, 
			 "SMD_solvation_energy": 4.4 
		},
		"coords": [
			{
				"x": -0.0639764099,
				"y": 1.7960602285,
				"z": 3.8706406663,
				"element": "Cl" 
			},
			{
				"x": -0.8586617725,
				"y": 0.9403229565,
				"z": 2.5107694002,
				"element": "C" 
			},
			{
				"x": -0.4430341449,
				"y": 1.52067974,
				"z": 1.1607410308,
				"element": "C" 
			},
			{
				"x": 0.3468570519,
				"y": 2.4306906476,
				"z": 1.0200612203,
				"element": "O" 
			},
			{
				"x": -1.0423960362,
				"y": 0.9423532689,
				"z": 0.0294807183,
				"element": "N" 
			},
			{
				"x": -0.6959454618,
				"y": 1.4611974918,
				"z": -1.306435595,
				"element": "C" 
			},
			{
				"x": -1.7821759556,
				"y": 0.8559042679,
				"z": -2.2146197131,
				"element": "C" 
			},
			{
				"x": -2.179896322,
				"y": -0.4429334999,
				"z": -1.4988028876,
				"element": "C" 
			},
			{
				"x": -1.8957620861,
				"y": -0.1681751617,
				"z": -0.0269149049,
				"element": "C" 
			},
			{
				"x": -2.3067323378,
				"y": -0.7955582028,
				"z": 0.930117331,
				"element": "O" 
			},
			{
				"x": -1.9386653272,
				"y": 1.0090578619,
				"z": 2.6419702374,
				"element": "H" 
			},
			{
				"x": -0.600327178,
				"y": -0.1172366628,
				"z": 2.567300812,
				"element": "H" 
			},
			{
				"x": 0.3116461927,
				"y": 1.1276238842,
				"z": -1.5806270353,
				"element": "H" 
			},
			{
				"x": -0.6893390097,
				"y": 2.551649775,
				"z": -1.2884995879,
				"element": "H" 
			},
			{
				"x": -1.421304391,
				"y": 0.6982992952,
				"z": -3.2331358584,
				"element": "H" 
			},
			{
				"x": -2.6409217838,
				"y": 1.5327173691,
				"z": -2.2655901022,
				"element": "H" 
			},
			{
				"x": -3.2205468191,
				"y": -0.7451133802,
				"z": -1.6317141755,
				"element": "H" 
			},
			{
				"x": -1.551718209,
				"y": -1.2898398791,
				"z": -1.8034415562,
				"element": "H" 
			}
		],
		 "valence_orbital": [ 
			{
				"type": "occ",
				"energy": -0.30033,
				"method": "rhf"
			},
			{
				"type": "occ",
				"energy": -0.29468,
				"method": "rhf"
			},
			{
				"type": "occ",
				"energy": -0.2878,
				"method": "rhf"
			},
			{
				"type": "occ",
				"energy": -0.2829,
				"method": "rhf"
			},
			{
				"type": "occ",
				"energy": -0.27253,
				"method": "rhf"
			},
			{
				"type": "unocc",
				"energy": -0.03931,
				"method": "rhf"
			},
			{
				"type": "unocc",
				"energy": 0.02659,
				"method": "rhf"
			},
			{
				"type": "unocc",
				"energy": 0.03157,
				"method": "rhf"
			},
			{
				"type": "unocc",
				"energy": 0.07169,
				"method": "rhf"
			},
			{
				"type": "unocc",
				"energy": 0.0989,
				"method": "rhf"
			}
		],
		"cosmo_sigma_profile": { 
			"-0.025": 0.0,
			"-0.024": 0.0,
			"-0.023": 0.0,
			"-0.022": 0.0,
			"-0.021": 0.0,
			"-0.02": 0.0,
			"-0.019": 0.0,
			"-0.018": 0.0,
			"-0.017": 0.0,
			"-0.016": 0.0,
			"-0.015": 0.0,
			"-0.014": 0.0,
			"-0.013": 0.0,
			"-0.012": 0.0,
			"-0.011": 0.0,
			"-0.01": 0.0,
			"-0.009": 2.21373950696,
			"-0.008": 4.2541481506,
			"-0.007": 6.6059803243,
			"-0.006": 12.7495255105,
			"-0.005": 22.0498607458,
			"-0.004": 22.5943751752,
			"-0.003": 16.2581102858,
			"-0.002": 11.8165275852,
			"-0.001": 9.17618316878,
			"0.0": 5.50034264094,
			"0.001": 5.7206516024,
			"0.002": 5.37458988399,
			"0.003": 4.97234035214,
			"0.004": 7.60240065655,
			"0.005": 8.68819849935,
			"0.006": 9.05171731279,
			"0.007": 4.18928426993,
			"0.008": 2.84812786037,
			"0.009": 4.02467756593,
			"0.01": 4.73951500133,
			"0.011": 7.48777600561,
			"0.012": 4.87194823734,
			"0.013": 1.88596362721,
			"0.014": 0.0027967609761,
			"0.015": 0.0,
			"0.016": 0.0,
			"0.017": 0.0,
			"0.018": 0.0,
			"0.019": 0.0,
			"0.02": 0.0,
			"0.021": 0.0,
			"0.022": 0.0,
			"0.023": 0.0,
			"0.024": 0.0,
			"0.025": 0.0
		}
	}
}
