{
	 "smiles": "OC(=O)C1=CCCO1", 
	 "Tm": 372.15, 
	 "num_atms": 14, 
	 "gaussian": { 
		 "optdone": 1, 
		 "sigma_profile": "yes", 
		 "theory": "DFT", 
		 "functional": "B3LYP", 
		 "basiset": "6-31G**", 
		 "properties": { 
			 "R2extent": 1945.7013, 
			 "electric_dipole_moment_norm": 5.32429480307, 
			 "electric_quadrupole_moment_norm": 16.7184711646, 
			 "total_energy": -419.79610635, 
			 "HOMO_LUMO_gap": 0.1941, 
			 "cosmo_polarized_energy": -11.31, 
			 "cosmo_cavitation_energy": 18.03, 
			 "cosmo_dispersion_energy": -13.85, 
			 "cosmo_repulsion_energy": 1.18, 
			 "cosmo_total_nonelectrostatic_energy": 5.36, 
			 "SMD_solvation_energy": 4.73 
		},
		"coords": [
			{
				"x": 0.6105982026,
				"y": 0.500199489,
				"z": -2.7074513368,
				"element": "O" 
			},
			{
				"x": 1.8802542595,
				"y": 0.538806053,
				"z": -2.2463212089,
				"element": "C" 
			},
			{
				"x": 2.8352128076,
				"y": 0.3523853514,
				"z": -2.9625170932,
				"element": "O" 
			},
			{
				"x": 1.9929438352,
				"y": 0.8266987214,
				"z": -0.7909448551,
				"element": "C" 
			},
			{
				"x": 3.0873507056,
				"y": 0.9232342006,
				"z": -0.0319952365,
				"element": "C" 
			},
			{
				"x": 2.6721370172,
				"y": 1.2721508852,
				"z": 1.3768079759,
				"element": "C" 
			},
			{
				"x": 1.1281428641,
				"y": 1.1473752424,
				"z": 1.2912767945,
				"element": "C" 
			},
			{
				"x": 0.8035798589,
				"y": 1.0326526065,
				"z": -0.1232959933,
				"element": "O" 
			},
			{
				"x": 0.0066041484,
				"y": 0.6689314924,
				"z": -1.9642955125,
				"element": "H" 
			},
			{
				"x": 4.10021409,
				"y": 0.8073274394,
				"z": -0.3891827306,
				"element": "H" 
			},
			{
				"x": 3.0928583824,
				"y": 0.5941081685,
				"z": 2.1274762944,
				"element": "H" 
			},
			{
				"x": 2.9935343082,
				"y": 2.2865511228,
				"z": 1.6484429088,
				"element": "H" 
			},
			{
				"x": 0.7609728335,
				"y": 0.2437017555,
				"z": 1.7894215176,
				"element": "H" 
			},
			{
				"x": 0.5916966867,
				"y": 2.0131774719,
				"z": 1.6850784757,
				"element": "H" 
			}
		],
		 "valence_orbital": [ 
			{
				"type": "occ",
				"energy": -0.36788,
				"method": "rhf"
			},
			{
				"type": "occ",
				"energy": -0.36018,
				"method": "rhf"
			},
			{
				"type": "occ",
				"energy": -0.31271,
				"method": "rhf"
			},
			{
				"type": "occ",
				"energy": -0.27451,
				"method": "rhf"
			},
			{
				"type": "occ",
				"energy": -0.23576,
				"method": "rhf"
			},
			{
				"type": "unocc",
				"energy": -0.04166,
				"method": "rhf"
			},
			{
				"type": "unocc",
				"energy": 0.07097,
				"method": "rhf"
			},
			{
				"type": "unocc",
				"energy": 0.09447,
				"method": "rhf"
			},
			{
				"type": "unocc",
				"energy": 0.09842,
				"method": "rhf"
			},
			{
				"type": "unocc",
				"energy": 0.11556,
				"method": "rhf"
			}
		],
		"cosmo_sigma_profile": { 
			"-0.025": 0.0,
			"-0.024": 0.0,
			"-0.023": 0.0,
			"-0.022": 0.0,
			"-0.021": 0.0,
			"-0.02": 0.0,
			"-0.019": 0.0,
			"-0.018": 0.0,
			"-0.017": 0.0,
			"-0.016": 0.0780898556655,
			"-0.015": 0.559881011114,
			"-0.014": 0.603645449645,
			"-0.013": 0.407537758353,
			"-0.012": 0.62166509037,
			"-0.011": 0.527918334279,
			"-0.01": 0.737006988321,
			"-0.009": 0.501108675487,
			"-0.008": 1.70275994376,
			"-0.007": 3.21171345578,
			"-0.006": 8.89304723184,
			"-0.005": 16.3938302148,
			"-0.004": 14.3823082889,
			"-0.003": 13.552856232,
			"-0.002": 11.7706879134,
			"-0.001": 7.4493970338,
			"0.0": 6.92498658166,
			"0.001": 6.38505561578,
			"0.002": 7.03040665999,
			"0.003": 4.15347370467,
			"0.004": 4.05016660668,
			"0.005": 4.09372248669,
			"0.006": 3.01308730326,
			"0.007": 3.23288216582,
			"0.008": 2.83059242134,
			"0.009": 3.54486341572,
			"0.01": 5.64764712625,
			"0.011": 4.54737278552,
			"0.012": 5.01894261524,
			"0.013": 1.27328758711,
			"0.014": 0.0135970118062,
			"0.015": 0.0,
			"0.016": 0.0,
			"0.017": 0.0,
			"0.018": 0.0,
			"0.019": 0.0,
			"0.02": 0.0,
			"0.021": 0.0,
			"0.022": 0.0,
			"0.023": 0.0,
			"0.024": 0.0,
			"0.025": 0.0
		}
	}
}
