{
	 "smiles": "NC1=NC=C(Cl)C=N1", 
	 "Tm": 508.15, 
	 "num_atms": 12, 
	 "gaussian": { 
		 "optdone": 1, 
		 "sigma_profile": "yes", 
		 "theory": "DFT", 
		 "functional": "B3LYP", 
		 "basiset": "6-31G**", 
		 "properties": { 
			 "R2extent": 1762.0828, 
			 "electric_dipole_moment_norm": 1.99783226773, 
			 "electric_quadrupole_moment_norm": 6.30492299556, 
			 "total_energy": -779.287269417, 
			 "HOMO_LUMO_gap": 0.18542, 
			 "cosmo_polarized_energy": -8.2, 
			 "cosmo_cavitation_energy": 18.39, 
			 "cosmo_dispersion_energy": -14.23, 
			 "cosmo_repulsion_energy": 1.2, 
			 "cosmo_total_nonelectrostatic_energy": 5.35, 
			 "SMD_solvation_energy": 0.17 
		},
		"coords": [
			{
				"x": 0.3793244528,
				"y": -0.5145649454,
				"z": 2.5605556986,
				"element": "N" 
			},
			{
				"x": 0.3714361877,
				"y": 0.3667767247,
				"z": 1.5227243501,
				"element": "C" 
			},
			{
				"x": -0.2011152139,
				"y": -0.0497916894,
				"z": 0.3739789953,
				"element": "N" 
			},
			{
				"x": -0.1662703979,
				"y": 0.8059236367,
				"z": -0.6445552921,
				"element": "C" 
			},
			{
				"x": 0.4251020903,
				"y": 2.064533693,
				"z": -0.5349863344,
				"element": "C" 
			},
			{
				"x": 0.4609575369,
				"y": 3.1773379584,
				"z": -1.8842782013,
				"element": "Cl" 
			},
			{
				"x": 0.9771578312,
				"y": 2.4007745207,
				"z": 0.70113739,
				"element": "C" 
			},
			{
				"x": 0.9560410083,
				"y": 1.5641868881,
				"z": 1.73580896,
				"element": "N" 
			},
			{
				"x": 0.6335001816,
				"y": -0.1677749949,
				"z": 3.4708440535,
				"element": "H" 
			},
			{
				"x": -0.2020727813,
				"y": -1.3331817698,
				"z": 2.4875166986,
				"element": "H" 
			},
			{
				"x": -0.6245174452,
				"y": 0.4863683524,
				"z": -1.5784197905,
				"element": "H" 
			},
			{
				"x": 1.4439565494,
				"y": 3.3715116255,
				"z": 0.8559734721,
				"element": "H" 
			}
		],
		 "valence_orbital": [ 
			{
				"type": "occ",
				"energy": -0.32462,
				"method": "rhf"
			},
			{
				"type": "occ",
				"energy": -0.32296,
				"method": "rhf"
			},
			{
				"type": "occ",
				"energy": -0.31203,
				"method": "rhf"
			},
			{
				"type": "occ",
				"energy": -0.25522,
				"method": "rhf"
			},
			{
				"type": "occ",
				"energy": -0.22911,
				"method": "rhf"
			},
			{
				"type": "unocc",
				"energy": -0.04369,
				"method": "rhf"
			},
			{
				"type": "unocc",
				"energy": -0.00901,
				"method": "rhf"
			},
			{
				"type": "unocc",
				"energy": 0.02858,
				"method": "rhf"
			},
			{
				"type": "unocc",
				"energy": 0.0874,
				"method": "rhf"
			},
			{
				"type": "unocc",
				"energy": 0.12919,
				"method": "rhf"
			}
		],
		"cosmo_sigma_profile": { 
			"-0.025": 0.0,
			"-0.024": 0.0,
			"-0.023": 0.0,
			"-0.022": 0.0,
			"-0.021": 0.0,
			"-0.02": 0.0,
			"-0.019": 0.0,
			"-0.018": 0.0,
			"-0.017": 0.0,
			"-0.016": 0.0,
			"-0.015": 0.0566763274926,
			"-0.014": 1.35416905263,
			"-0.013": 2.40829483108,
			"-0.012": 1.53954512809,
			"-0.011": 2.13351366642,
			"-0.01": 2.65513431447,
			"-0.009": 1.82743426326,
			"-0.008": 5.05096478651,
			"-0.007": 4.24242095096,
			"-0.006": 5.05327577444,
			"-0.005": 5.45288801465,
			"-0.004": 4.12404489099,
			"-0.003": 5.28080578247,
			"-0.002": 10.1676114696,
			"-0.001": 12.6858228089,
			"0.0": 15.1347205193,
			"0.001": 12.2580983299,
			"0.002": 8.63885557475,
			"0.003": 10.6413491833,
			"0.004": 12.6534699566,
			"0.005": 7.06597275524,
			"0.006": 3.81741898113,
			"0.007": 3.20345347514,
			"0.008": 2.3382865885,
			"0.009": 2.16505759115,
			"0.01": 1.34530731779,
			"0.011": 2.01764261588,
			"0.012": 1.7768155115,
			"0.013": 1.15845075564,
			"0.014": 1.41379363541,
			"0.015": 0.175309345748,
			"0.016": 0.0,
			"0.017": 0.0,
			"0.018": 0.0,
			"0.019": 0.0,
			"0.02": 0.0,
			"0.021": 0.0,
			"0.022": 0.0,
			"0.023": 0.0,
			"0.024": 0.0,
			"0.025": 0.0
		}
	}
}
