{
	 "smiles": "ClC1=CC=C(SCCBr)C=C1", 
	 "Tm": 314.15, 
	 "num_atms": 19, 
	 "gaussian": { 
		 "optdone": 1, 
		 "sigma_profile": "yes", 
		 "theory": "DFT", 
		 "functional": "B3LYP", 
		 "basiset": "6-31G**", 
		 "properties": { 
			 "R2extent": 4618.5131, 
			 "electric_dipole_moment_norm": 2.34999881489, 
			 "electric_quadrupole_moment_norm": 8.37009002281, 
			 "total_energy": -3739.45897253, 
			 "HOMO_LUMO_gap": 0.20161, 
			 "cosmo_polarized_energy": -8.44, 
			 "cosmo_cavitation_energy": 28.56, 
			 "cosmo_dispersion_energy": -21.17, 
			 "cosmo_repulsion_energy": 1.68, 
			 "cosmo_total_nonelectrostatic_energy": 9.07, 
			 "SMD_solvation_energy": 2.85 
		},
		"coords": [
			{
				"x": 2.4987425064,
				"y": 2.1786405479,
				"z": 3.7918936427,
				"element": "Cl" 
			},
			{
				"x": 1.2520853773,
				"y": 1.4606516191,
				"z": 2.7849294706,
				"element": "C" 
			},
			{
				"x": 1.4159270652,
				"y": 0.1575294103,
				"z": 2.3165428812,
				"element": "C" 
			},
			{
				"x": 0.4216004182,
				"y": -0.4071939441,
				"z": 1.5163516721,
				"element": "C" 
			},
			{
				"x": -0.7275878257,
				"y": 0.3237632485,
				"z": 1.1834900051,
				"element": "C" 
			},
			{
				"x": -2.0201232246,
				"y": -0.4325774319,
				"z": 0.1935008211,
				"element": "S" 
			},
			{
				"x": -1.5788693486,
				"y": 0.1736322918,
				"z": -1.4880625309,
				"element": "C" 
			},
			{
				"x": -0.2346036463,
				"y": -0.2721736209,
				"z": -2.0382354922,
				"element": "C" 
			},
			{
				"x": -0.1206786167,
				"y": -2.2222708314,
				"z": -2.3367516307,
				"element": "Br" 
			},
			{
				"x": -0.8751269844,
				"y": 1.6286253117,
				"z": 1.6747831257,
				"element": "C" 
			},
			{
				"x": 0.1132182828,
				"y": 2.2041304039,
				"z": 2.4722096121,
				"element": "C" 
			},
			{
				"x": 2.3055423641,
				"y": -0.4062507157,
				"z": 2.5746724591,
				"element": "H" 
			},
			{
				"x": 0.5344520596,
				"y": -1.421746707,
				"z": 1.1477711513,
				"element": "H" 
			},
			{
				"x": -1.5973101882,
				"y": 1.2699242092,
				"z": -1.4816476635,
				"element": "H" 
			},
			{
				"x": -2.3943602876,
				"y": -0.1711684288,
				"z": -2.1295757489,
				"element": "H" 
			},
			{
				"x": -0.0509186609,
				"y": 0.1803629811,
				"z": -3.0138138278,
				"element": "H" 
			},
			{
				"x": 0.5859765322,
				"y": -0.0273776941,
				"z": -1.3646515394,
				"element": "H" 
			},
			{
				"x": -1.7718956147,
				"y": 2.1926649404,
				"z": 1.4381847501,
				"element": "H" 
			},
			{
				"x": 0.000629792,
				"y": 3.2129344101,
				"z": 2.8538088423,
				"element": "H" 
			}
		],
		 "valence_orbital": [ 
			{
				"type": "occ",
				"energy": -0.27713,
				"method": "rhf"
			},
			{
				"type": "occ",
				"energy": -0.27579,
				"method": "rhf"
			},
			{
				"type": "occ",
				"energy": -0.27497,
				"method": "rhf"
			},
			{
				"type": "occ",
				"energy": -0.25527,
				"method": "rhf"
			},
			{
				"type": "occ",
				"energy": -0.23852,
				"method": "rhf"
			},
			{
				"type": "unocc",
				"energy": -0.03691,
				"method": "rhf"
			},
			{
				"type": "unocc",
				"energy": -0.02611,
				"method": "rhf"
			},
			{
				"type": "unocc",
				"energy": -0.00054,
				"method": "rhf"
			},
			{
				"type": "unocc",
				"energy": 0.01947,
				"method": "rhf"
			},
			{
				"type": "unocc",
				"energy": 0.0446,
				"method": "rhf"
			}
		],
		"cosmo_sigma_profile": { 
			"-0.025": 0.0,
			"-0.024": 0.0,
			"-0.023": 0.0,
			"-0.022": 0.0,
			"-0.021": 0.0,
			"-0.02": 0.0,
			"-0.019": 0.0,
			"-0.018": 0.0,
			"-0.017": 0.0,
			"-0.016": 0.0,
			"-0.015": 0.0,
			"-0.014": 0.0,
			"-0.013": 0.0,
			"-0.012": 0.0,
			"-0.011": 0.0,
			"-0.01": 0.0,
			"-0.009": 0.0,
			"-0.008": 2.50425327469,
			"-0.007": 11.7809456898,
			"-0.006": 16.324174539,
			"-0.005": 16.5865222682,
			"-0.004": 15.1734873013,
			"-0.003": 12.6391362859,
			"-0.002": 13.3643036891,
			"-0.001": 12.8631096601,
			"0.0": 16.0185898306,
			"0.001": 21.1731136193,
			"0.002": 23.7500170021,
			"0.003": 20.1121524975,
			"0.004": 16.9023143008,
			"0.005": 13.4781107845,
			"0.006": 12.6159233628,
			"0.007": 3.88699188906,
			"0.008": 2.70065226897,
			"0.009": 2.36464336954,
			"0.01": 0.990709047865,
			"0.011": 0.0106077017607,
			"0.012": 0.0,
			"0.013": 0.0,
			"0.014": 0.0,
			"0.015": 0.0,
			"0.016": 0.0,
			"0.017": 0.0,
			"0.018": 0.0,
			"0.019": 0.0,
			"0.02": 0.0,
			"0.021": 0.0,
			"0.022": 0.0,
			"0.023": 0.0,
			"0.024": 0.0,
			"0.025": 0.0
		}
	}
}
