{
	 "smiles": "CC(C)(CO)NCC(O)CS(O)(=O)=O", 
	 "Tm": 493.15, 
	 "num_atms": 31, 
	 "gaussian": { 
		 "optdone": 1, 
		 "sigma_profile": "yes", 
		 "theory": "DFT", 
		 "functional": "B3LYP", 
		 "basiset": "6-31G**", 
		 "properties": { 
			 "R2extent": 4317.3641, 
			 "electric_dipole_moment_norm": 7.71776841516, 
			 "electric_quadrupole_moment_norm": 26.7094476719, 
			 "total_energy": -1105.97103443, 
			 "HOMO_LUMO_gap": 0.27312, 
			 "cosmo_polarized_energy": -24.75, 
			 "cosmo_cavitation_energy": 32.87, 
			 "cosmo_dispersion_energy": -23.78, 
			 "cosmo_repulsion_energy": 1.83, 
			 "cosmo_total_nonelectrostatic_energy": 10.91, 
			 "SMD_solvation_energy": 3.94 
		},
		"coords": [
			{
				"x": -2.4882760896,
				"y": 0.8033761207,
				"z": -1.229234583,
				"element": "C" 
			},
			{
				"x": -1.3739626479,
				"y": 1.273853806,
				"z": -0.2760198922,
				"element": "C" 
			},
			{
				"x": -1.971014953,
				"y": 2.1748775552,
				"z": 0.8160327975,
				"element": "C" 
			},
			{
				"x": -0.2987275769,
				"y": 2.0692513316,
				"z": -1.0610774533,
				"element": "C" 
			},
			{
				"x": -0.8418202893,
				"y": 3.1629685478,
				"z": -1.7903951495,
				"element": "O" 
			},
			{
				"x": -0.684339863,
				"y": 0.165642911,
				"z": 0.4297376531,
				"element": "N" 
			},
			{
				"x": -0.2683486062,
				"y": -0.9957072821,
				"z": -0.3463198768,
				"element": "C" 
			},
			{
				"x": 0.8073875698,
				"y": -1.7815987423,
				"z": 0.4223524828,
				"element": "C" 
			},
			{
				"x": 1.1571897821,
				"y": -2.9926882392,
				"z": -0.2687672184,
				"element": "O" 
			},
			{
				"x": 2.0908666525,
				"y": -0.9878102874,
				"z": 0.6847018536,
				"element": "C" 
			},
			{
				"x": 3.1650865192,
				"y": -0.7521018116,
				"z": -0.762449539,
				"element": "S" 
			},
			{
				"x": 3.6301870987,
				"y": -2.2820959407,
				"z": -1.0478985871,
				"element": "O" 
			},
			{
				"x": 2.3544159763,
				"y": -0.2675226886,
				"z": -1.8831014168,
				"element": "O" 
			},
			{
				"x": 4.3582573238,
				"y": -0.0313204718,
				"z": -0.3461790841,
				"element": "O" 
			},
			{
				"x": -3.2810403995,
				"y": 0.2806151182,
				"z": -0.6815606509,
				"element": "H" 
			},
			{
				"x": -2.0998530104,
				"y": 0.1276121792,
				"z": -1.9979098579,
				"element": "H" 
			},
			{
				"x": -2.9261627313,
				"y": 1.6618428425,
				"z": -1.7441255862,
				"element": "H" 
			},
			{
				"x": -2.7477660086,
				"y": 1.6472825579,
				"z": 1.3822271515,
				"element": "H" 
			},
			{
				"x": -2.4410544265,
				"y": 3.0585618266,
				"z": 0.3750202858,
				"element": "H" 
			},
			{
				"x": -1.195914378,
				"y": 2.4981851306,
				"z": 1.5189858234,
				"element": "H" 
			},
			{
				"x": 0.4779843865,
				"y": 2.3945260581,
				"z": -0.3544863838,
				"element": "H" 
			},
			{
				"x": 0.1892830249,
				"y": 1.4286269525,
				"z": -1.8004016224,
				"element": "H" 
			},
			{
				"x": -0.9884791283,
				"y": 3.8911276459,
				"z": -1.1750725567,
				"element": "H" 
			},
			{
				"x": -1.2683002945,
				"y": -0.1382520519,
				"z": 1.2050336817,
				"element": "H" 
			},
			{
				"x": -1.0947788805,
				"y": -1.6974907096,
				"z": -0.572301788,
				"element": "H" 
			},
			{
				"x": 0.1540615402,
				"y": -0.676077067,
				"z": -1.299584136,
				"element": "H" 
			},
			{
				"x": 0.4043533126,
				"y": -2.0441001765,
				"z": 1.4135183969,
				"element": "H" 
			},
			{
				"x": 0.3614266664,
				"y": -3.359195052,
				"z": -0.676398743,
				"element": "H" 
			},
			{
				"x": 1.8155877898,
				"y": 0.011799098,
				"z": 1.0292107127,
				"element": "H" 
			},
			{
				"x": 2.7221382328,
				"y": -1.4721665127,
				"z": 1.4328808233,
				"element": "H" 
			},
			{
				"x": 2.8033134077,
				"y": -2.8187226485,
				"z": -1.0444175372,
				"element": "H" 
			}
		],
		 "valence_orbital": [ 
			{
				"type": "occ",
				"energy": -0.3117,
				"method": "rhf"
			},
			{
				"type": "occ",
				"energy": -0.29918,
				"method": "rhf"
			},
			{
				"type": "occ",
				"energy": -0.29176,
				"method": "rhf"
			},
			{
				"type": "occ",
				"energy": -0.27253,
				"method": "rhf"
			},
			{
				"type": "occ",
				"energy": -0.2404,
				"method": "rhf"
			},
			{
				"type": "unocc",
				"energy": 0.03272,
				"method": "rhf"
			},
			{
				"type": "unocc",
				"energy": 0.05569,
				"method": "rhf"
			},
			{
				"type": "unocc",
				"energy": 0.06366,
				"method": "rhf"
			},
			{
				"type": "unocc",
				"energy": 0.06879,
				"method": "rhf"
			},
			{
				"type": "unocc",
				"energy": 0.07831,
				"method": "rhf"
			}
		],
		"cosmo_sigma_profile": { 
			"-0.025": 0.0,
			"-0.024": 0.0,
			"-0.023": 0.0,
			"-0.022": 0.0,
			"-0.021": 0.0,
			"-0.02": 0.0,
			"-0.019": 0.0,
			"-0.018": 0.0,
			"-0.017": 0.631584522347,
			"-0.016": 1.03500019352,
			"-0.015": 1.71034938987,
			"-0.014": 1.85870622655,
			"-0.013": 2.08283065034,
			"-0.012": 1.66617496528,
			"-0.011": 2.70552244516,
			"-0.01": 3.60362669368,
			"-0.009": 5.0902761264,
			"-0.008": 8.33565631471,
			"-0.007": 8.59376906766,
			"-0.006": 12.9232476412,
			"-0.005": 11.4005388809,
			"-0.004": 12.3440459237,
			"-0.003": 18.7684230376,
			"-0.002": 19.131567361,
			"-0.001": 17.8734181611,
			"0.0": 17.852292161,
			"0.001": 16.0717128849,
			"0.002": 11.0816338513,
			"0.003": 9.52647849071,
			"0.004": 6.27003141779,
			"0.005": 6.04204697306,
			"0.006": 6.27746575021,
			"0.007": 8.3168970289,
			"0.008": 7.33351885772,
			"0.009": 8.21499973309,
			"0.01": 11.5780280902,
			"0.011": 10.5683164076,
			"0.012": 1.84163035075,
			"0.013": 1.63985468993,
			"0.014": 1.6894582267,
			"0.015": 0.594358681116,
			"0.016": 0.0,
			"0.017": 0.0,
			"0.018": 0.0,
			"0.019": 0.0,
			"0.02": 0.0,
			"0.021": 0.0,
			"0.022": 0.0,
			"0.023": 0.0,
			"0.024": 0.0,
			"0.025": 0.0
		}
	}
}
