{
	 "smiles": "CN1N=CC(C(N)=O)=C1N", 
	 "Tm": 505.15, 
	 "num_atms": 18, 
	 "gaussian": { 
		 "optdone": 1, 
		 "sigma_profile": "yes", 
		 "theory": "DFT", 
		 "functional": "B3LYP", 
		 "basiset": "6-31G**", 
		 "properties": { 
			 "R2extent": 1683.7067, 
			 "electric_dipole_moment_norm": 1.04210343537, 
			 "electric_quadrupole_moment_norm": 19.8549101071, 
			 "total_energy": -489.58976322, 
			 "HOMO_LUMO_gap": 0.2125, 
			 "cosmo_polarized_energy": -17.05, 
			 "cosmo_cavitation_energy": 21.97, 
			 "cosmo_dispersion_energy": -16.57, 
			 "cosmo_repulsion_energy": 1.35, 
			 "cosmo_total_nonelectrostatic_energy": 6.76, 
			 "SMD_solvation_energy": 3.61 
		},
		"coords": [
			{
				"x": -1.0447600851,
				"y": 2.1809732886,
				"z": 2.2789288311,
				"element": "C" 
			},
			{
				"x": -0.3603482118,
				"y": 1.2995753683,
				"z": 1.3580172306,
				"element": "N" 
			},
			{
				"x": 0.2103810736,
				"y": 0.1322508257,
				"z": 1.8118465017,
				"element": "N" 
			},
			{
				"x": 0.7345923438,
				"y": -0.4214991094,
				"z": 0.7320133416,
				"element": "C" 
			},
			{
				"x": 0.5343339804,
				"y": 0.3626409087,
				"z": -0.4366433271,
				"element": "C" 
			},
			{
				"x": 0.9450781217,
				"y": 0.2141438697,
				"z": -1.8305951528,
				"element": "C" 
			},
			{
				"x": 1.6464079657,
				"y": -0.9178653799,
				"z": -2.1633339639,
				"element": "N" 
			},
			{
				"x": 0.7049177505,
				"y": 1.0831896502,
				"z": -2.6816843467,
				"element": "O" 
			},
			{
				"x": -0.1778626781,
				"y": 1.4788478157,
				"z": 0.0277335881,
				"element": "C" 
			},
			{
				"x": -0.6883996472,
				"y": 2.5356937622,
				"z": -0.6878508924,
				"element": "N" 
			},
			{
				"x": -1.3059891868,
				"y": 1.5968606274,
				"z": 3.1610005979,
				"element": "H" 
			},
			{
				"x": -0.4119320013,
				"y": 3.022688154,
				"z": 2.5860872244,
				"element": "H" 
			},
			{
				"x": -1.9563917767,
				"y": 2.5666050473,
				"z": 1.812702306,
				"element": "H" 
			},
			{
				"x": 1.2521696922,
				"y": -1.3682048392,
				"z": 0.8286664999,
				"element": "H" 
			},
			{
				"x": 1.6345006069,
				"y": -1.7274547466,
				"z": -1.5636076237,
				"element": "H" 
			},
			{
				"x": 1.7978923017,
				"y": -1.0697441569,
				"z": -3.1493238804,
				"element": "H" 
			},
			{
				"x": -0.6256424682,
				"y": 3.4455778279,
				"z": -0.2502660305,
				"element": "H" 
			},
			{
				"x": -0.3329477812,
				"y": 2.5031210863,
				"z": -1.6431909036,
				"element": "H" 
			}
		],
		 "valence_orbital": [ 
			{
				"type": "occ",
				"energy": -0.28934,
				"method": "rhf"
			},
			{
				"type": "occ",
				"energy": -0.26401,
				"method": "rhf"
			},
			{
				"type": "occ",
				"energy": -0.24864,
				"method": "rhf"
			},
			{
				"type": "occ",
				"energy": -0.24761,
				"method": "rhf"
			},
			{
				"type": "occ",
				"energy": -0.2087,
				"method": "rhf"
			},
			{
				"type": "unocc",
				"energy": 0.0038,
				"method": "rhf"
			},
			{
				"type": "unocc",
				"energy": 0.03099,
				"method": "rhf"
			},
			{
				"type": "unocc",
				"energy": 0.07475,
				"method": "rhf"
			},
			{
				"type": "unocc",
				"energy": 0.07868,
				"method": "rhf"
			},
			{
				"type": "unocc",
				"energy": 0.12174,
				"method": "rhf"
			}
		],
		"cosmo_sigma_profile": { 
			"-0.025": 0.0,
			"-0.024": 0.0,
			"-0.023": 0.0,
			"-0.022": 0.0,
			"-0.021": 0.0,
			"-0.02": 0.0,
			"-0.019": 0.0,
			"-0.018": 0.0,
			"-0.017": 0.0,
			"-0.016": 0.0,
			"-0.015": 0.0,
			"-0.014": 1.23233110355,
			"-0.013": 3.57114465026,
			"-0.012": 4.43257144734,
			"-0.011": 3.50637941181,
			"-0.01": 4.6659864645,
			"-0.009": 4.91254350093,
			"-0.008": 5.33945943577,
			"-0.007": 5.29323030971,
			"-0.006": 10.0423648762,
			"-0.005": 10.0015320836,
			"-0.004": 9.44144717739,
			"-0.003": 10.61803801,
			"-0.002": 7.33946910093,
			"-0.001": 5.74513100614,
			"0.0": 5.73127276436,
			"0.001": 7.79513106161,
			"0.002": 8.39821473892,
			"0.003": 10.6656421629,
			"0.004": 9.40520889797,
			"0.005": 6.91320589306,
			"0.006": 4.83097677762,
			"0.007": 5.45819789663,
			"0.008": 4.71929011321,
			"0.009": 3.12657353811,
			"0.01": 3.75295334311,
			"0.011": 3.49011583148,
			"0.012": 2.54638327941,
			"0.013": 4.26253873573,
			"0.014": 3.85760067803,
			"0.015": 2.11859883965,
			"0.016": 0.761528792081,
			"0.017": 0.0,
			"0.018": 0.0,
			"0.019": 0.0,
			"0.02": 0.0,
			"0.021": 0.0,
			"0.022": 0.0,
			"0.023": 0.0,
			"0.024": 0.0,
			"0.025": 0.0
		}
	}
}
