{
	 "smiles": "ONC(=O)C12CC3CC(CC(C3)C1)C2", 
	 "Tm": 384.15, 
	 "num_atms": 31, 
	 "gaussian": { 
		 "optdone": 1, 
		 "sigma_profile": "yes", 
		 "theory": "DFT", 
		 "functional": "B3LYP", 
		 "basiset": "6-31G**", 
		 "properties": { 
			 "R2extent": 2647.798, 
			 "electric_dipole_moment_norm": 2.91635800614, 
			 "electric_quadrupole_moment_norm": 13.0013094737, 
			 "total_energy": -634.591797961, 
			 "HOMO_LUMO_gap": 0.25199, 
			 "cosmo_polarized_energy": -10.9, 
			 "cosmo_cavitation_energy": 28.79, 
			 "cosmo_dispersion_energy": -21.76, 
			 "cosmo_repulsion_energy": 1.68, 
			 "cosmo_total_nonelectrostatic_energy": 8.7, 
			 "SMD_solvation_energy": 4.94 
		},
		"coords": [
			{
				"x": 0.3150541221,
				"y": -1.1054938197,
				"z": 2.7083823568,
				"element": "O" 
			},
			{
				"x": -0.9622145261,
				"y": -0.5107614175,
				"z": 2.8244956235,
				"element": "N" 
			},
			{
				"x": -1.7634140285,
				"y": -0.3372665138,
				"z": 1.6936953802,
				"element": "C" 
			},
			{
				"x": -2.971942503,
				"y": -0.3076836039,
				"z": 1.8788987027,
				"element": "O" 
			},
			{
				"x": -1.1196451643,
				"y": -0.1102686026,
				"z": 0.3211723682,
				"element": "C" 
			},
			{
				"x": -0.5708217125,
				"y": -1.4560471512,
				"z": -0.241315062,
				"element": "C" 
			},
			{
				"x": 0.0131725707,
				"y": -1.2353876573,
				"z": -1.6525805744,
				"element": "C" 
			},
			{
				"x": 1.1581006298,
				"y": -0.2034843744,
				"z": -1.5805822514,
				"element": "C" 
			},
			{
				"x": 0.6125685078,
				"y": 1.138744078,
				"z": -1.0494411664,
				"element": "C" 
			},
			{
				"x": -0.4903435656,
				"y": 1.6562424083,
				"z": -1.9936198901,
				"element": "C" 
			},
			{
				"x": -1.6335692076,
				"y": 0.623396412,
				"z": -2.0555389647,
				"element": "C" 
			},
			{
				"x": -1.0887082904,
				"y": -0.7142350503,
				"z": -2.5962544411,
				"element": "C" 
			},
			{
				"x": -2.2145315594,
				"y": 0.411480496,
				"z": -0.6440458491,
				"element": "C" 
			},
			{
				"x": 0.0317249205,
				"y": 0.9313009039,
				"z": 0.3656842316,
				"element": "C" 
			},
			{
				"x": 0.9202665496,
				"y": -0.4189517167,
				"z": 3.0260788394,
				"element": "H" 
			},
			{
				"x": -1.4826568658,
				"y": -0.9314417504,
				"z": 3.5900154588,
				"element": "H" 
			},
			{
				"x": -1.3867430401,
				"y": -2.189020022,
				"z": -0.2826844882,
				"element": "H" 
			},
			{
				"x": 0.1942972199,
				"y": -1.8573082744,
				"z": 0.4290731055,
				"element": "H" 
			},
			{
				"x": 0.4019316971,
				"y": -2.1906412526,
				"z": -2.0279308214,
				"element": "H" 
			},
			{
				"x": 1.5999730486,
				"y": -0.0615023026,
				"z": -2.5754313817,
				"element": "H" 
			},
			{
				"x": 1.9586480511,
				"y": -0.5723202238,
				"z": -0.9256835184,
				"element": "H" 
			},
			{
				"x": 1.4273916292,
				"y": 1.8721158359,
				"z": -0.9943425842,
				"element": "H" 
			},
			{
				"x": -0.8718985872,
				"y": 2.6214194951,
				"z": -1.6354023934,
				"element": "H" 
			},
			{
				"x": -0.0778776064,
				"y": 1.8280329364,
				"z": -2.9965170905,
				"element": "H" 
			},
			{
				"x": -2.4281760204,
				"y": 0.9919138866,
				"z": -2.716528516,
				"element": "H" 
			},
			{
				"x": -0.6861923137,
				"y": -0.5782406698,
				"z": -3.6087466368,
				"element": "H" 
			},
			{
				"x": -1.9002349941,
				"y": -1.4496963873,
				"z": -2.6708784885,
				"element": "H" 
			},
			{
				"x": -2.6276272447,
				"y": 1.3495858127,
				"z": -0.2554548943,
				"element": "H" 
			},
			{
				"x": -3.0447144166,
				"y": -0.301148802,
				"z": -0.6697582917,
				"element": "H" 
			},
			{
				"x": -0.3470648377,
				"y": 1.8823661874,
				"z": 0.7616966333,
				"element": "H" 
			},
			{
				"x": 0.8262475376,
				"y": 0.5919011401,
				"z": 1.0366446045,
				"element": "H" 
			}
		],
		 "valence_orbital": [ 
			{
				"type": "occ",
				"energy": -0.29672,
				"method": "rhf"
			},
			{
				"type": "occ",
				"energy": -0.27932,
				"method": "rhf"
			},
			{
				"type": "occ",
				"energy": -0.27623,
				"method": "rhf"
			},
			{
				"type": "occ",
				"energy": -0.26402,
				"method": "rhf"
			},
			{
				"type": "occ",
				"energy": -0.24481,
				"method": "rhf"
			},
			{
				"type": "unocc",
				"energy": 0.00718,
				"method": "rhf"
			},
			{
				"type": "unocc",
				"energy": 0.05131,
				"method": "rhf"
			},
			{
				"type": "unocc",
				"energy": 0.07502,
				"method": "rhf"
			},
			{
				"type": "unocc",
				"energy": 0.10395,
				"method": "rhf"
			},
			{
				"type": "unocc",
				"energy": 0.12434,
				"method": "rhf"
			}
		],
		"cosmo_sigma_profile": { 
			"-0.025": 0.0,
			"-0.024": 0.0,
			"-0.023": 0.0,
			"-0.022": 0.0,
			"-0.021": 0.0,
			"-0.02": 0.0,
			"-0.019": 0.0,
			"-0.018": 0.0,
			"-0.017": 0.66582104058,
			"-0.016": 1.19818040848,
			"-0.015": 0.590066202195,
			"-0.014": 1.79144398001,
			"-0.013": 1.66253528237,
			"-0.012": 1.26627497039,
			"-0.011": 2.24195832175,
			"-0.01": 1.71779369593,
			"-0.009": 1.91243003928,
			"-0.008": 1.186637471,
			"-0.007": 1.91776783291,
			"-0.006": 2.02768810179,
			"-0.005": 2.26596691962,
			"-0.004": 1.73351856648,
			"-0.003": 6.90118574846,
			"-0.002": 34.5591328632,
			"-0.001": 43.7119253154,
			"0.0": 40.143875559,
			"0.001": 26.8498380356,
			"0.002": 8.92405041094,
			"0.003": 4.44491343353,
			"0.004": 3.56799295573,
			"0.005": 3.66435697322,
			"0.006": 3.74739306833,
			"0.007": 2.98479399959,
			"0.008": 1.92968125896,
			"0.009": 2.44960212684,
			"0.01": 2.66395617688,
			"0.011": 2.6488821126,
			"0.012": 2.67857100161,
			"0.013": 5.36235074696,
			"0.014": 1.35249005726,
			"0.015": 0.0,
			"0.016": 0.0,
			"0.017": 0.0,
			"0.018": 0.0,
			"0.019": 0.0,
			"0.02": 0.0,
			"0.021": 0.0,
			"0.022": 0.0,
			"0.023": 0.0,
			"0.024": 0.0,
			"0.025": 0.0
		}
	}
}
