{
	 "smiles": "COC1=CC=C(C(O)=O)C(=C1)C(F)(F)F", 
	 "Tm": 422.15, 
	 "num_atms": 22, 
	 "gaussian": { 
		 "optdone": 1, 
		 "sigma_profile": "yes", 
		 "theory": "DFT", 
		 "functional": "B3LYP", 
		 "basiset": "6-31G**", 
		 "properties": { 
			 "R2extent": 3224.7707, 
			 "electric_dipole_moment_norm": 6.24614583964, 
			 "electric_quadrupole_moment_norm": 5.62373860079, 
			 "total_energy": -872.369655191, 
			 "HOMO_LUMO_gap": 0.19189, 
			 "cosmo_polarized_energy": -12.69, 
			 "cosmo_cavitation_energy": 27.49, 
			 "cosmo_dispersion_energy": -19.9, 
			 "cosmo_repulsion_energy": 1.49, 
			 "cosmo_total_nonelectrostatic_energy": 9.08, 
			 "SMD_solvation_energy": 7.61 
		},
		"coords": [
			{
				"x": 1.2562189223,
				"y": -0.2232514544,
				"z": 3.8217750106,
				"element": "C" 
			},
			{
				"x": 1.8868347293,
				"y": -0.7822923557,
				"z": 2.6747678061,
				"element": "O" 
			},
			{
				"x": 1.3558371646,
				"y": -0.533888036,
				"z": 1.452779066,
				"element": "C" 
			},
			{
				"x": 2.0140778664,
				"y": -1.1201467754,
				"z": 0.3620558406,
				"element": "C" 
			},
			{
				"x": 1.5348083622,
				"y": -0.9193047992,
				"z": -0.9205378104,
				"element": "C" 
			},
			{
				"x": 0.4108828267,
				"y": -0.1149060996,
				"z": -1.1793646779,
				"element": "C" 
			},
			{
				"x": 0.0340109604,
				"y": -0.014824521,
				"z": -2.6394187886,
				"element": "C" 
			},
			{
				"x": -0.4890408065,
				"y": 1.1393977859,
				"z": -3.1017852262,
				"element": "O" 
			},
			{
				"x": 0.2426543746,
				"y": -0.9308367148,
				"z": -3.4017370928,
				"element": "O" 
			},
			{
				"x": -0.2536701312,
				"y": 0.4517720402,
				"z": -0.0736018179,
				"element": "C" 
			},
			{
				"x": 0.2132128585,
				"y": 0.2416897732,
				"z": 1.2284597357,
				"element": "C" 
			},
			{
				"x": -1.5093927245,
				"y": 1.2771445994,
				"z": -0.2247124561,
				"element": "C" 
			},
			{
				"x": -1.2324470022,
				"y": 2.4949498224,
				"z": -0.8051413331,
				"element": "F" 
			},
			{
				"x": -2.4258368509,
				"y": 0.6824526185,
				"z": -1.0059993704,
				"element": "F" 
			},
			{
				"x": -2.0951910345,
				"y": 1.5568543069,
				"z": 0.9523901353,
				"element": "F" 
			},
			{
				"x": 1.8517195243,
				"y": -0.5464903349,
				"z": 4.6759829446,
				"element": "H" 
			},
			{
				"x": 1.2465260598,
				"y": 0.8727282994,
				"z": 3.7804448977,
				"element": "H" 
			},
			{
				"x": 0.2296804051,
				"y": -0.5922137029,
				"z": 3.935487061,
				"element": "H" 
			},
			{
				"x": 2.8896885741,
				"y": -1.7326882736,
				"z": 0.5483348468,
				"element": "H" 
			},
			{
				"x": 2.0226321504,
				"y": -1.388900664,
				"z": -1.767113823,
				"element": "H" 
			},
			{
				"x": -0.5396890779,
				"y": 1.8194225611,
				"z": -2.4138217628,
				"element": "H" 
			},
			{
				"x": -0.3334171511,
				"y": 0.6749319243,
				"z": 2.0538568149,
				"element": "H" 
			}
		],
		 "valence_orbital": [ 
			{
				"type": "occ",
				"energy": -0.34776,
				"method": "rhf"
			},
			{
				"type": "occ",
				"energy": -0.31072,
				"method": "rhf"
			},
			{
				"type": "occ",
				"energy": -0.28673,
				"method": "rhf"
			},
			{
				"type": "occ",
				"energy": -0.27339,
				"method": "rhf"
			},
			{
				"type": "occ",
				"energy": -0.24809,
				"method": "rhf"
			},
			{
				"type": "unocc",
				"energy": -0.0562,
				"method": "rhf"
			},
			{
				"type": "unocc",
				"energy": -0.03234,
				"method": "rhf"
			},
			{
				"type": "unocc",
				"energy": 0.04121,
				"method": "rhf"
			},
			{
				"type": "unocc",
				"energy": 0.08029,
				"method": "rhf"
			},
			{
				"type": "unocc",
				"energy": 0.09057,
				"method": "rhf"
			}
		],
		"cosmo_sigma_profile": { 
			"-0.025": 0.0,
			"-0.024": 0.0,
			"-0.023": 0.0,
			"-0.022": 0.0,
			"-0.021": 0.0,
			"-0.02": 0.0,
			"-0.019": 0.0,
			"-0.018": 0.0,
			"-0.017": 0.0,
			"-0.016": 0.0,
			"-0.015": 0.0,
			"-0.014": 0.0,
			"-0.013": 0.672143504327,
			"-0.012": 1.13690366789,
			"-0.011": 1.11217897397,
			"-0.01": 0.736237435553,
			"-0.009": 0.97519675144,
			"-0.008": 3.03312173811,
			"-0.007": 8.6241586486,
			"-0.006": 13.2151850603,
			"-0.005": 13.770177404,
			"-0.004": 16.3185850886,
			"-0.003": 13.6818059957,
			"-0.002": 13.218460595,
			"-0.001": 15.5595322976,
			"0.0": 17.9583836063,
			"0.001": 28.3864218381,
			"0.002": 27.1940401316,
			"0.003": 5.84748793455,
			"0.004": 4.43344760303,
			"0.005": 3.45146208276,
			"0.006": 3.32211217399,
			"0.007": 3.74864844687,
			"0.008": 4.31766423117,
			"0.009": 4.41995817616,
			"0.01": 4.59160206963,
			"0.011": 5.29152291048,
			"0.012": 4.29922792195,
			"0.013": 1.25184516986,
			"0.014": 0.0159097923965,
			"0.015": 0.0,
			"0.016": 0.0,
			"0.017": 0.0,
			"0.018": 0.0,
			"0.019": 0.0,
			"0.02": 0.0,
			"0.021": 0.0,
			"0.022": 0.0,
			"0.023": 0.0,
			"0.024": 0.0,
			"0.025": 0.0
		}
	}
}
