{
	 "smiles": "OC(=O)C1=CNN=C1C1=CC=C(Cl)C=C1", 
	 "Tm": 550.15, 
	 "num_atms": 22, 
	 "gaussian": { 
		 "optdone": 1, 
		 "sigma_profile": "yes", 
		 "theory": "DFT", 
		 "functional": "B3LYP", 
		 "basiset": "6-31G**", 
		 "properties": { 
			 "R2extent": 5406.1464, 
			 "electric_dipole_moment_norm": 4.17150585041, 
			 "electric_quadrupole_moment_norm": 18.2304672197, 
			 "total_energy": -1105.41968101, 
			 "HOMO_LUMO_gap": 0.20055, 
			 "cosmo_polarized_energy": -18.01, 
			 "cosmo_cavitation_energy": 29.0, 
			 "cosmo_dispersion_energy": -21.4, 
			 "cosmo_repulsion_energy": 1.67, 
			 "cosmo_total_nonelectrostatic_energy": 9.27, 
			 "SMD_solvation_energy": 5.02 
		},
		"coords": [
			{
				"x": 1.1568384208,
				"y": -0.9165701712,
				"z": 0.2173694346,
				"element": "O" 
			},
			{
				"x": 0.7481116642,
				"y": -1.2621522203,
				"z": -1.0290164613,
				"element": "C" 
			},
			{
				"x": 1.5079840196,
				"y": -1.8357468123,
				"z": -1.7775033566,
				"element": "O" 
			},
			{
				"x": -0.6280195185,
				"y": -0.8874800992,
				"z": -1.4321437127,
				"element": "C" 
			},
			{
				"x": -1.0173393643,
				"y": -0.9218265437,
				"z": -2.7631630315,
				"element": "C" 
			},
			{
				"x": -2.2756127812,
				"y": -0.4446658584,
				"z": -2.8056729269,
				"element": "N" 
			},
			{
				"x": -2.7648821936,
				"y": -0.1061663696,
				"z": -1.5923460283,
				"element": "N" 
			},
			{
				"x": -1.7729355519,
				"y": -0.3726202771,
				"z": -0.7380465052,
				"element": "C" 
			},
			{
				"x": -1.9867404201,
				"y": -0.1208653566,
				"z": 0.7026788474,
				"element": "C" 
			},
			{
				"x": -1.5526672249,
				"y": -1.0279790833,
				"z": 1.6846506133,
				"element": "C" 
			},
			{
				"x": -1.7828109132,
				"y": -0.7838031253,
				"z": 3.0393558721,
				"element": "C" 
			},
			{
				"x": -2.4661152323,
				"y": 0.3704895599,
				"z": 3.4162655013,
				"element": "C" 
			},
			{
				"x": -2.76022724,
				"y": 0.6855853671,
				"z": 5.1171176615,
				"element": "Cl" 
			},
			{
				"x": -2.9248658878,
				"y": 1.2785831043,
				"z": 2.4596355535,
				"element": "C" 
			},
			{
				"x": -2.682626641,
				"y": 1.0294130681,
				"z": 1.1124193585,
				"element": "C" 
			},
			{
				"x": 0.4696506311,
				"y": -0.4155501649,
				"z": 0.6837246378,
				"element": "H" 
			},
			{
				"x": -0.4662421785,
				"y": -1.2350842378,
				"z": -3.6368556415,
				"element": "H" 
			},
			{
				"x": -2.8688164331,
				"y": -0.3372946992,
				"z": -3.6146682289,
				"element": "H" 
			},
			{
				"x": -1.0533155723,
				"y": -1.9469580822,
				"z": 1.3939363219,
				"element": "H" 
			},
			{
				"x": -1.44798905,
				"y": -1.489723246,
				"z": 3.7910408004,
				"element": "H" 
			},
			{
				"x": -3.4587997004,
				"y": 2.1698856376,
				"z": 2.7699910985,
				"element": "H" 
			},
			{
				"x": -3.0343788326,
				"y": 1.7269296102,
				"z": 0.3600301922,
				"element": "H" 
			}
		],
		 "valence_orbital": [ 
			{
				"type": "occ",
				"energy": -0.29634,
				"method": "rhf"
			},
			{
				"type": "occ",
				"energy": -0.27868,
				"method": "rhf"
			},
			{
				"type": "occ",
				"energy": -0.27423,
				"method": "rhf"
			},
			{
				"type": "occ",
				"energy": -0.26608,
				"method": "rhf"
			},
			{
				"type": "occ",
				"energy": -0.24781,
				"method": "rhf"
			},
			{
				"type": "unocc",
				"energy": -0.04726,
				"method": "rhf"
			},
			{
				"type": "unocc",
				"energy": -0.03128,
				"method": "rhf"
			},
			{
				"type": "unocc",
				"energy": -0.02527,
				"method": "rhf"
			},
			{
				"type": "unocc",
				"energy": 0.01477,
				"method": "rhf"
			},
			{
				"type": "unocc",
				"energy": 0.02152,
				"method": "rhf"
			}
		],
		"cosmo_sigma_profile": { 
			"-0.025": 0.0,
			"-0.024": 0.0,
			"-0.023": 0.0,
			"-0.022": 0.0,
			"-0.021": 0.0,
			"-0.02": 0.0,
			"-0.019": 0.0,
			"-0.018": 0.875086937975,
			"-0.017": 2.07154262156,
			"-0.016": 1.46666352368,
			"-0.015": 1.07692082194,
			"-0.014": 0.8108388242,
			"-0.013": 2.11539925533,
			"-0.012": 2.11829104682,
			"-0.011": 2.16279514859,
			"-0.01": 3.18887723257,
			"-0.009": 3.24778328525,
			"-0.008": 5.40070846426,
			"-0.007": 11.1291627799,
			"-0.006": 9.90545356165,
			"-0.005": 9.88616453543,
			"-0.004": 8.77440187909,
			"-0.003": 11.1112045897,
			"-0.002": 10.2619061018,
			"-0.001": 13.4847953311,
			"0.0": 18.8261018838,
			"0.001": 22.5433325496,
			"0.002": 21.457923148,
			"0.003": 15.9203069962,
			"0.004": 14.0513354013,
			"0.005": 7.0053709203,
			"0.006": 4.23213133564,
			"0.007": 3.5970337611,
			"0.008": 3.49621258948,
			"0.009": 4.02298345797,
			"0.01": 4.75190106791,
			"0.011": 6.027572789,
			"0.012": 6.87327852612,
			"0.013": 2.89016550768,
			"0.014": 1.00688856217,
			"0.015": 0.0212764449666,
			"0.016": 0.0,
			"0.017": 0.0,
			"0.018": 0.0,
			"0.019": 0.0,
			"0.02": 0.0,
			"0.021": 0.0,
			"0.022": 0.0,
			"0.023": 0.0,
			"0.024": 0.0,
			"0.025": 0.0
		}
	}
}
