{
	 "smiles": "CC1=NOC(=N1)C1=CC=C(Br)C=C1", 
	 "Tm": 370.65, 
	 "num_atms": 20, 
	 "gaussian": { 
		 "optdone": 1, 
		 "sigma_profile": "yes", 
		 "theory": "DFT", 
		 "functional": "B3LYP", 
		 "basiset": "6-31G**", 
		 "properties": { 
			 "R2extent": 7090.3719, 
			 "electric_dipole_moment_norm": 1.05653522894, 
			 "electric_quadrupole_moment_norm": 8.65997475574, 
			 "total_energy": -3103.27965207, 
			 "HOMO_LUMO_gap": 0.17919, 
			 "cosmo_polarized_energy": -7.47, 
			 "cosmo_cavitation_energy": 27.59, 
			 "cosmo_dispersion_energy": -20.93, 
			 "cosmo_repulsion_energy": 1.65, 
			 "cosmo_total_nonelectrostatic_energy": 8.31, 
			 "SMD_solvation_energy": 1.91 
		},
		"coords": [
			{
				"x": -2.1907834018,
				"y": -3.1147855826,
				"z": -2.0763455301,
				"element": "C" 
			},
			{
				"x": -2.0029645977,
				"y": -1.9062616144,
				"z": -1.2133859513,
				"element": "C" 
			},
			{
				"x": -2.5927227409,
				"y": -0.7609424232,
				"z": -1.4667862399,
				"element": "N" 
			},
			{
				"x": -2.1437612563,
				"y": 0.0717477661,
				"z": -0.4263961578,
				"element": "O" 
			},
			{
				"x": -1.32810684,
				"y": -0.674046083,
				"z": 0.3409065564,
				"element": "C" 
			},
			{
				"x": -1.2022585157,
				"y": -1.9008992316,
				"z": -0.0936060491,
				"element": "N" 
			},
			{
				"x": -0.7046791807,
				"y": -0.0663314773,
				"z": 1.5128969978,
				"element": "C" 
			},
			{
				"x": -0.9423971218,
				"y": 1.2754585759,
				"z": 1.8481656619,
				"element": "C" 
			},
			{
				"x": -0.3381362003,
				"y": 1.8360529184,
				"z": 2.969924085,
				"element": "C" 
			},
			{
				"x": 0.5049568231,
				"y": 1.0487654736,
				"z": 3.7549484272,
				"element": "C" 
			},
			{
				"x": 1.3347046979,
				"y": 1.8135686327,
				"z": 5.2926616767,
				"element": "Br" 
			},
			{
				"x": 0.7531568538,
				"y": -0.2877813418,
				"z": 3.436960545,
				"element": "C" 
			},
			{
				"x": 0.1465718174,
				"y": -0.8424628648,
				"z": 2.3148970875,
				"element": "C" 
			},
			{
				"x": -1.8648302052,
				"y": -2.9152600927,
				"z": -3.1009563586,
				"element": "H" 
			},
			{
				"x": -1.6063025785,
				"y": -3.9417926909,
				"z": -1.6718174482,
				"element": "H" 
			},
			{
				"x": -3.2440653146,
				"y": -3.4066047034,
				"z": -2.112673462,
				"element": "H" 
			},
			{
				"x": -1.5998196598,
				"y": 1.8773801745,
				"z": 1.230086324,
				"element": "H" 
			},
			{
				"x": -0.518257449,
				"y": 2.8717244532,
				"z": 3.2334059871,
				"element": "H" 
			},
			{
				"x": 1.4112793285,
				"y": -0.8826263621,
				"z": 4.059563558,
				"element": "H" 
			},
			{
				"x": 0.3238155419,
				"y": -1.8785035265,
				"z": 2.0472502905,
				"element": "H" 
			}
		],
		 "valence_orbital": [ 
			{
				"type": "occ",
				"energy": -0.29874,
				"method": "rhf"
			},
			{
				"type": "occ",
				"energy": -0.296,
				"method": "rhf"
			},
			{
				"type": "occ",
				"energy": -0.29135,
				"method": "rhf"
			},
			{
				"type": "occ",
				"energy": -0.27863,
				"method": "rhf"
			},
			{
				"type": "occ",
				"energy": -0.24578,
				"method": "rhf"
			},
			{
				"type": "unocc",
				"energy": -0.06659,
				"method": "rhf"
			},
			{
				"type": "unocc",
				"energy": -0.0276,
				"method": "rhf"
			},
			{
				"type": "unocc",
				"energy": -0.00254,
				"method": "rhf"
			},
			{
				"type": "unocc",
				"energy": 0.00828,
				"method": "rhf"
			},
			{
				"type": "unocc",
				"energy": 0.05468,
				"method": "rhf"
			}
		],
		"cosmo_sigma_profile": { 
			"-0.025": 0.0,
			"-0.024": 0.0,
			"-0.023": 0.0,
			"-0.022": 0.0,
			"-0.021": 0.0,
			"-0.02": 0.0,
			"-0.019": 0.0,
			"-0.018": 0.0,
			"-0.017": 0.0,
			"-0.016": 0.0,
			"-0.015": 0.0,
			"-0.014": 0.0,
			"-0.013": 0.0,
			"-0.012": 0.0,
			"-0.011": 0.0,
			"-0.01": 0.0,
			"-0.009": 0.0,
			"-0.008": 2.4001580604,
			"-0.007": 7.97252695196,
			"-0.006": 10.9845524569,
			"-0.005": 12.6174994366,
			"-0.004": 14.3171998436,
			"-0.003": 18.1812489067,
			"-0.002": 22.9276852229,
			"-0.001": 18.7973266808,
			"0.0": 18.6658507255,
			"0.001": 24.4729208451,
			"0.002": 21.0069737117,
			"0.003": 12.6905465493,
			"0.004": 13.8120716827,
			"0.005": 4.1367022352,
			"0.006": 5.86544304623,
			"0.007": 3.43233414493,
			"0.008": 2.87420896062,
			"0.009": 1.77736050441,
			"0.01": 2.67883034894,
			"0.011": 2.36770035289,
			"0.012": 1.94318576325,
			"0.013": 1.52181899817,
			"0.014": 0.17481186722,
			"0.015": 0.0,
			"0.016": 0.0,
			"0.017": 0.0,
			"0.018": 0.0,
			"0.019": 0.0,
			"0.02": 0.0,
			"0.021": 0.0,
			"0.022": 0.0,
			"0.023": 0.0,
			"0.024": 0.0,
			"0.025": 0.0
		}
	}
}
