{
	 "smiles": "CC1=C(C=CC=C1)N1N=C(C(O)=O)C2=C1CCC2", 
	 "Tm": 479.15, 
	 "num_atms": 32, 
	 "gaussian": { 
		 "optdone": 1, 
		 "sigma_profile": "yes", 
		 "theory": "DFT", 
		 "functional": "B3LYP", 
		 "basiset": "6-31G**", 
		 "properties": { 
			 "R2extent": 4921.1674, 
			 "electric_dipole_moment_norm": 7.19464654657, 
			 "electric_quadrupole_moment_norm": 17.2661334774, 
			 "total_energy": -801.876194812, 
			 "HOMO_LUMO_gap": 0.20434, 
			 "cosmo_polarized_energy": -14.1, 
			 "cosmo_cavitation_energy": 35.31, 
			 "cosmo_dispersion_energy": -24.97, 
			 "cosmo_repulsion_energy": 1.95, 
			 "cosmo_total_nonelectrostatic_energy": 12.29, 
			 "SMD_solvation_energy": 6.14 
		},
		"coords": [
			{
				"x": -1.6899584796,
				"y": 2.5275461467,
				"z": 1.5096013799,
				"element": "C" 
			},
			{
				"x": -0.620041953,
				"y": 1.660420698,
				"z": 2.1283542059,
				"element": "C" 
			},
			{
				"x": -0.0318876999,
				"y": 0.5811956328,
				"z": 1.446609764,
				"element": "C" 
			},
			{
				"x": 0.9141749091,
				"y": -0.2444177799,
				"z": 2.0618391568,
				"element": "C" 
			},
			{
				"x": 1.311544958,
				"y": 0.0072472253,
				"z": 3.3716078273,
				"element": "C" 
			},
			{
				"x": 0.7610232904,
				"y": 1.0894360156,
				"z": 4.0608509289,
				"element": "C" 
			},
			{
				"x": -0.1920072777,
				"y": 1.8966282538,
				"z": 3.442867286,
				"element": "C" 
			},
			{
				"x": -0.4046054971,
				"y": 0.2754310373,
				"z": 0.0983539417,
				"element": "N" 
			},
			{
				"x": -0.9132900044,
				"y": -0.9477368125,
				"z": -0.2017735826,
				"element": "N" 
			},
			{
				"x": -1.0616979988,
				"y": -0.9649745867,
				"z": -1.5366091259,
				"element": "C" 
			},
			{
				"x": -1.6101366033,
				"y": -2.176155567,
				"z": -2.1926622871,
				"element": "C" 
			},
			{
				"x": -1.9334487204,
				"y": -3.1763779121,
				"z": -1.3419602477,
				"element": "O" 
			},
			{
				"x": -1.7594343554,
				"y": -2.2744392569,
				"z": -3.3899428809,
				"element": "O" 
			},
			{
				"x": -0.6283240749,
				"y": 0.2480525132,
				"z": -2.1077645701,
				"element": "C" 
			},
			{
				"x": -0.2129411543,
				"y": 1.007035676,
				"z": -1.0408043779,
				"element": "C" 
			},
			{
				"x": 0.3218020168,
				"y": 2.3540510819,
				"z": -1.4243381014,
				"element": "C" 
			},
			{
				"x": 0.4777949559,
				"y": 2.1684586352,
				"z": -2.9732050938,
				"element": "C" 
			},
			{
				"x": -0.4521903908,
				"y": 0.9835326061,
				"z": -3.40402904,
				"element": "C" 
			},
			{
				"x": -2.3308419779,
				"y": 1.9570885172,
				"z": 0.8322773854,
				"element": "H" 
			},
			{
				"x": -1.2603577605,
				"y": 3.3568090933,
				"z": 0.9352749855,
				"element": "H" 
			},
			{
				"x": -2.3202374793,
				"y": 2.9667398236,
				"z": 2.2873682498,
				"element": "H" 
			},
			{
				"x": 1.3235314874,
				"y": -1.0772266452,
				"z": 1.500308546,
				"element": "H" 
			},
			{
				"x": 2.0467907592,
				"y": -0.6339192446,
				"z": 3.84776632,
				"element": "H" 
			},
			{
				"x": 1.0642566599,
				"y": 1.2979523339,
				"z": 5.0825784236,
				"element": "H" 
			},
			{
				"x": -0.634468637,
				"y": 2.7226265069,
				"z": 3.9934412043,
				"element": "H" 
			},
			{
				"x": -1.7316451004,
				"y": -2.8733275966,
				"z": -0.437992404,
				"element": "H" 
			},
			{
				"x": -0.3928234209,
				"y": 3.1527317267,
				"z": -1.1868578268,
				"element": "H" 
			},
			{
				"x": 1.2671219376,
				"y": 2.6139964644,
				"z": -0.9367942596,
				"element": "H" 
			},
			{
				"x": 1.5167145183,
				"y": 1.9001242312,
				"z": -3.1893264267,
				"element": "H" 
			},
			{
				"x": 0.2612284119,
				"y": 3.0911127459,
				"z": -3.518219578,
				"element": "H" 
			},
			{
				"x": -0.0077006383,
				"y": 0.373014872,
				"z": -4.194651494,
				"element": "H" 
			},
			{
				"x": -1.4148446807,
				"y": 1.3436435646,
				"z": -3.7887683084,
				"element": "H" 
			}
		],
		 "valence_orbital": [ 
			{
				"type": "occ",
				"energy": -0.2823,
				"method": "rhf"
			},
			{
				"type": "occ",
				"energy": -0.26203,
				"method": "rhf"
			},
			{
				"type": "occ",
				"energy": -0.26017,
				"method": "rhf"
			},
			{
				"type": "occ",
				"energy": -0.25189,
				"method": "rhf"
			},
			{
				"type": "occ",
				"energy": -0.24091,
				"method": "rhf"
			},
			{
				"type": "unocc",
				"energy": -0.03657,
				"method": "rhf"
			},
			{
				"type": "unocc",
				"energy": -0.01967,
				"method": "rhf"
			},
			{
				"type": "unocc",
				"energy": -0.0137,
				"method": "rhf"
			},
			{
				"type": "unocc",
				"energy": 0.02876,
				"method": "rhf"
			},
			{
				"type": "unocc",
				"energy": 0.07929,
				"method": "rhf"
			}
		],
		"cosmo_sigma_profile": { 
			"-0.025": 0.0,
			"-0.024": 0.0,
			"-0.023": 0.0,
			"-0.022": 0.0,
			"-0.021": 0.0,
			"-0.02": 0.0,
			"-0.019": 0.0,
			"-0.018": 0.0,
			"-0.017": 0.0,
			"-0.016": 0.0,
			"-0.015": 0.0831957387787,
			"-0.014": 0.297986007993,
			"-0.013": 0.513042563768,
			"-0.012": 0.577652004402,
			"-0.011": 0.697597304572,
			"-0.01": 0.789602232503,
			"-0.009": 0.581346326562,
			"-0.008": 0.315357183034,
			"-0.007": 1.79443288628,
			"-0.006": 9.59477688737,
			"-0.005": 18.0087261063,
			"-0.004": 27.3235372155,
			"-0.003": 33.4832341058,
			"-0.002": 33.8299872579,
			"-0.001": 28.8110876634,
			"0.0": 23.3690041491,
			"0.001": 15.512765198,
			"0.002": 14.712750225,
			"0.003": 13.0516429087,
			"0.004": 13.4454525384,
			"0.005": 9.084855775,
			"0.006": 4.61573797839,
			"0.007": 4.34970495046,
			"0.008": 3.92204909824,
			"0.009": 4.09805303007,
			"0.01": 5.12137299516,
			"0.011": 5.03564870721,
			"0.012": 5.21681654571,
			"0.013": 1.9913500917,
			"0.014": 0.330859018771,
			"0.015": 0.0,
			"0.016": 0.0,
			"0.017": 0.0,
			"0.018": 0.0,
			"0.019": 0.0,
			"0.02": 0.0,
			"0.021": 0.0,
			"0.022": 0.0,
			"0.023": 0.0,
			"0.024": 0.0,
			"0.025": 0.0
		}
	}
}
