{
	 "smiles": "NC1=C(C=CS1)C1=NC2=C(S1)C=CC=C2", 
	 "Tm": 412.15, 
	 "num_atms": 23, 
	 "gaussian": { 
		 "optdone": 1, 
		 "sigma_profile": "yes", 
		 "theory": "DFT", 
		 "functional": "B3LYP", 
		 "basiset": "6-31G**", 
		 "properties": { 
			 "R2extent": 4516.4875, 
			 "electric_dipole_moment_norm": 0.977406379148, 
			 "electric_quadrupole_moment_norm": 11.7968497986, 
			 "total_energy": -1329.87632836, 
			 "HOMO_LUMO_gap": 0.15021, 
			 "cosmo_polarized_energy": -8.86, 
			 "cosmo_cavitation_energy": 30.03, 
			 "cosmo_dispersion_energy": -23.71, 
			 "cosmo_repulsion_energy": 1.73, 
			 "cosmo_total_nonelectrostatic_energy": 8.05, 
			 "SMD_solvation_energy": 3.43 
		},
		"coords": [
			{
				"x": 2.5516341554,
				"y": -0.4604333339,
				"z": 1.8707306267,
				"element": "N" 
			},
			{
				"x": 1.6357206359,
				"y": 0.4864894687,
				"z": 2.204817716,
				"element": "C" 
			},
			{
				"x": 0.43147963,
				"y": 0.7555306853,
				"z": 1.5459263201,
				"element": "C" 
			},
			{
				"x": -0.3241086511,
				"y": 1.7844039115,
				"z": 2.2140185111,
				"element": "C" 
			},
			{
				"x": 0.278142363,
				"y": 2.2802252876,
				"z": 3.3226961635,
				"element": "C" 
			},
			{
				"x": 1.8192829168,
				"y": 1.4934352654,
				"z": 3.6256605147,
				"element": "S" 
			},
			{
				"x": 0.0596474099,
				"y": 0.076773902,
				"z": 0.3299428414,
				"element": "C" 
			},
			{
				"x": 0.7860823342,
				"y": -0.8420349958,
				"z": -0.2595526912,
				"element": "N" 
			},
			{
				"x": 0.1913586668,
				"y": -1.3108156445,
				"z": -1.4162706535,
				"element": "C" 
			},
			{
				"x": -1.058937405,
				"y": -0.7261392928,
				"z": -1.7346013327,
				"element": "C" 
			},
			{
				"x": -1.4735467237,
				"y": 0.458977984,
				"z": -0.5091539028,
				"element": "S" 
			},
			{
				"x": -1.7734135909,
				"y": -1.1044582502,
				"z": -2.8718001347,
				"element": "C" 
			},
			{
				"x": -1.224496125,
				"y": -2.082224579,
				"z": -3.7002978142,
				"element": "C" 
			},
			{
				"x": 0.0143110141,
				"y": -2.6701414079,
				"z": -3.3966699114,
				"element": "C" 
			},
			{
				"x": 0.7259341754,
				"y": -2.2933967523,
				"z": -2.2628897752,
				"element": "C" 
			},
			{
				"x": 3.5002883921,
				"y": -0.3726882559,
				"z": 2.199145543,
				"element": "H" 
			},
			{
				"x": 2.3806869839,
				"y": -0.900868765,
				"z": 0.967486465,
				"element": "H" 
			},
			{
				"x": -1.2848530483,
				"y": 2.1407032676,
				"z": 1.8588723513,
				"element": "H" 
			},
			{
				"x": -0.062306361,
				"y": 3.055919422,
				"z": 3.9924503127,
				"element": "H" 
			},
			{
				"x": -2.7309841266,
				"y": -0.651357348,
				"z": -3.1080838694,
				"element": "H" 
			},
			{
				"x": -1.7638431855,
				"y": -2.3912290116,
				"z": -4.5905659092,
				"element": "H" 
			},
			{
				"x": 0.4215060407,
				"y": -3.4301169856,
				"z": -4.0569052663,
				"element": "H" 
			},
			{
				"x": 1.6833144987,
				"y": -2.7424545717,
				"z": -2.018856105,
				"element": "H" 
			}
		],
		 "valence_orbital": [ 
			{
				"type": "occ",
				"energy": -0.27786,
				"method": "rhf"
			},
			{
				"type": "occ",
				"energy": -0.27057,
				"method": "rhf"
			},
			{
				"type": "occ",
				"energy": -0.23114,
				"method": "rhf"
			},
			{
				"type": "occ",
				"energy": -0.23094,
				"method": "rhf"
			},
			{
				"type": "occ",
				"energy": -0.1906,
				"method": "rhf"
			},
			{
				"type": "unocc",
				"energy": -0.04039,
				"method": "rhf"
			},
			{
				"type": "unocc",
				"energy": -0.00231,
				"method": "rhf"
			},
			{
				"type": "unocc",
				"energy": 0.00189,
				"method": "rhf"
			},
			{
				"type": "unocc",
				"energy": 0.00437,
				"method": "rhf"
			},
			{
				"type": "unocc",
				"energy": 0.02436,
				"method": "rhf"
			}
		],
		"cosmo_sigma_profile": { 
			"-0.025": 0.0,
			"-0.024": 0.0,
			"-0.023": 0.0,
			"-0.022": 0.0,
			"-0.021": 0.0,
			"-0.02": 0.0,
			"-0.019": 0.0,
			"-0.018": 0.0,
			"-0.017": 0.0,
			"-0.016": 0.0,
			"-0.015": 0.514733050708,
			"-0.014": 1.36469508194,
			"-0.013": 1.42840332305,
			"-0.012": 1.02878320568,
			"-0.011": 1.48993670348,
			"-0.01": 1.0600366592,
			"-0.009": 2.34024345559,
			"-0.008": 3.7006640424,
			"-0.007": 6.63517473883,
			"-0.006": 12.2869339647,
			"-0.005": 13.7699670814,
			"-0.004": 13.7024065958,
			"-0.003": 12.5831859102,
			"-0.002": 13.2345534994,
			"-0.001": 10.2008388453,
			"0.0": 15.6431361683,
			"0.001": 19.6377536976,
			"0.002": 25.8856159324,
			"0.003": 29.4453001387,
			"0.004": 29.6875489917,
			"0.005": 20.7149941689,
			"0.006": 6.00625067413,
			"0.007": 2.41481047596,
			"0.008": 0.902576802249,
			"0.009": 0.569833350533,
			"0.01": 0.2592137859,
			"0.011": 0.0,
			"0.012": 0.0,
			"0.013": 0.0,
			"0.014": 0.0,
			"0.015": 0.0,
			"0.016": 0.0,
			"0.017": 0.0,
			"0.018": 0.0,
			"0.019": 0.0,
			"0.02": 0.0,
			"0.021": 0.0,
			"0.022": 0.0,
			"0.023": 0.0,
			"0.024": 0.0,
			"0.025": 0.0
		}
	}
}
