{
	 "smiles": "COC(=O)C1=C(O)C=CS1", 
	 "Tm": 323.15, 
	 "num_atms": 16, 
	 "gaussian": { 
		 "optdone": 1, 
		 "sigma_profile": "yes", 
		 "theory": "DFT", 
		 "functional": "B3LYP", 
		 "basiset": "6-31G**", 
		 "properties": { 
			 "R2extent": 3057.481, 
			 "electric_dipole_moment_norm": 2.9516674745, 
			 "electric_quadrupole_moment_norm": 18.7334548012, 
			 "total_energy": -856.094153343, 
			 "HOMO_LUMO_gap": 0.18334, 
			 "cosmo_polarized_energy": -15.71, 
			 "cosmo_cavitation_energy": 22.4, 
			 "cosmo_dispersion_energy": -17.21, 
			 "cosmo_repulsion_energy": 1.36, 
			 "cosmo_total_nonelectrostatic_energy": 6.56, 
			 "SMD_solvation_energy": 6.0 
		},
		"coords": [
			{
				"x": -1.8041516977,
				"y": 1.9079475595,
				"z": 0.4605399201,
				"element": "C" 
			},
			{
				"x": -2.0089888197,
				"y": 0.7851176379,
				"z": -0.4066975283,
				"element": "O" 
			},
			{
				"x": -1.1338989865,
				"y": -0.2451207943,
				"z": -0.2336153759,
				"element": "C" 
			},
			{
				"x": -0.240742569,
				"y": -0.2304790694,
				"z": 0.5894219585,
				"element": "O" 
			},
			{
				"x": -1.4258866312,
				"y": -1.3374867961,
				"z": -1.1610800903,
				"element": "C" 
			},
			{
				"x": -0.7532241913,
				"y": -2.5437993842,
				"z": -1.2790648811,
				"element": "C" 
			},
			{
				"x": 0.3090362689,
				"y": -2.8653435278,
				"z": -0.5064846096,
				"element": "O" 
			},
			{
				"x": -1.3018098705,
				"y": -3.3906479891,
				"z": -2.2915153615,
				"element": "C" 
			},
			{
				"x": -2.3735556476,
				"y": -2.8208811224,
				"z": -2.922467428,
				"element": "C" 
			},
			{
				"x": -2.7451168254,
				"y": -1.2524535984,
				"z": -2.3110338294,
				"element": "S" 
			},
			{
				"x": -0.8099127276,
				"y": 2.3370273848,
				"z": 0.3102459552,
				"element": "H" 
			},
			{
				"x": -2.5759887756,
				"y": 2.6303520279,
				"z": 0.1945494945,
				"element": "H" 
			},
			{
				"x": -1.9022254337,
				"y": 1.6110808211,
				"z": 1.5081411821,
				"element": "H" 
			},
			{
				"x": 0.6221315284,
				"y": -3.7449845814,
				"z": -0.7541095651,
				"element": "H" 
			},
			{
				"x": -0.9094190556,
				"y": -4.3740353253,
				"z": -2.529715749,
				"element": "H" 
			},
			{
				"x": -2.9663465657,
				"y": -3.2470932427,
				"z": -3.7204140923,
				"element": "H" 
			}
		],
		 "valence_orbital": [ 
			{
				"type": "occ",
				"energy": -0.34398,
				"method": "rhf"
			},
			{
				"type": "occ",
				"energy": -0.29149,
				"method": "rhf"
			},
			{
				"type": "occ",
				"energy": -0.26256,
				"method": "rhf"
			},
			{
				"type": "occ",
				"energy": -0.25346,
				"method": "rhf"
			},
			{
				"type": "occ",
				"energy": -0.22669,
				"method": "rhf"
			},
			{
				"type": "unocc",
				"energy": -0.04335,
				"method": "rhf"
			},
			{
				"type": "unocc",
				"energy": 0.01996,
				"method": "rhf"
			},
			{
				"type": "unocc",
				"energy": 0.03667,
				"method": "rhf"
			},
			{
				"type": "unocc",
				"energy": 0.07357,
				"method": "rhf"
			},
			{
				"type": "unocc",
				"energy": 0.09062,
				"method": "rhf"
			}
		],
		"cosmo_sigma_profile": { 
			"-0.025": 0.0,
			"-0.024": 0.0,
			"-0.023": 0.0,
			"-0.022": 0.0,
			"-0.021": 0.0,
			"-0.02": 0.0,
			"-0.019": 0.813146491979,
			"-0.018": 1.2666775196,
			"-0.017": 1.0301777185,
			"-0.016": 1.51878284942,
			"-0.015": 0.569614237881,
			"-0.014": 1.16180030668,
			"-0.013": 0.702640008399,
			"-0.012": 1.11314030177,
			"-0.011": 1.25396971053,
			"-0.01": 1.80788592275,
			"-0.009": 3.54183900038,
			"-0.008": 3.63698899274,
			"-0.007": 4.19071543858,
			"-0.006": 8.15694302745,
			"-0.005": 10.4017771101,
			"-0.004": 10.4223063283,
			"-0.003": 12.0383960813,
			"-0.002": 9.60077803763,
			"-0.001": 8.63889397737,
			"0.0": 8.41271477319,
			"0.001": 12.1304602913,
			"0.002": 17.9979731992,
			"0.003": 16.231655578,
			"0.004": 10.906946672,
			"0.005": 4.26137901923,
			"0.006": 4.65323221013,
			"0.007": 3.44250584117,
			"0.008": 2.18617331498,
			"0.009": 2.56509289203,
			"0.01": 1.83160504975,
			"0.011": 2.56520462344,
			"0.012": 5.40451534831,
			"0.013": 3.12855255462,
			"0.014": 1.76730633148,
			"0.015": 1.42695625925,
			"0.016": 0.283888872524,
			"0.017": 0.0,
			"0.018": 0.0,
			"0.019": 0.0,
			"0.02": 0.0,
			"0.021": 0.0,
			"0.022": 0.0,
			"0.023": 0.0,
			"0.024": 0.0,
			"0.025": 0.0
		}
	}
}
