{
	 "smiles": "COC(=O)C1=C(Cl)N=CC(=C1)S(Cl)(=O)=O", 
	 "Tm": 322.15, 
	 "num_atms": 20, 
	 "gaussian": { 
		 "optdone": 1, 
		 "sigma_profile": "yes", 
		 "theory": "DFT", 
		 "functional": "B3LYP", 
		 "basiset": "6-31G**", 
		 "properties": { 
			 "R2extent": 5216.8908, 
			 "electric_dipole_moment_norm": 4.56819489624, 
			 "electric_quadrupole_moment_norm": 15.9004546904, 
			 "total_energy": -1943.8952167, 
			 "HOMO_LUMO_gap": 0.1912, 
			 "cosmo_polarized_energy": -11.99, 
			 "cosmo_cavitation_energy": 31.08, 
			 "cosmo_dispersion_energy": -23.03, 
			 "cosmo_repulsion_energy": 1.77, 
			 "cosmo_total_nonelectrostatic_energy": 9.83, 
			 "SMD_solvation_energy": 4.15 
		},
		"coords": [
			{
				"x": -0.4627273944,
				"y": -4.4207252108,
				"z": 2.4827238801,
				"element": "C" 
			},
			{
				"x": -0.687696722,
				"y": -3.3948453545,
				"z": 1.494562026,
				"element": "O" 
			},
			{
				"x": 0.3233230932,
				"y": -2.5421421436,
				"z": 1.3160035289,
				"element": "C" 
			},
			{
				"x": 1.3686799576,
				"y": -2.5864791689,
				"z": 1.9338753164,
				"element": "O" 
			},
			{
				"x": 0.0598819773,
				"y": -1.4704334306,
				"z": 0.2898342751,
				"element": "C" 
			},
			{
				"x": -0.9811968554,
				"y": -1.3787133539,
				"z": -0.6644124032,
				"element": "C" 
			},
			{
				"x": -2.2114924737,
				"y": -2.6020712083,
				"z": -0.8362327634,
				"element": "Cl" 
			},
			{
				"x": -1.1059978036,
				"y": -0.3759886771,
				"z": -1.5280020422,
				"element": "N" 
			},
			{
				"x": -0.2160646065,
				"y": 0.6144156877,
				"z": -1.5105094011,
				"element": "C" 
			},
			{
				"x": 0.8522180237,
				"y": 0.614412368,
				"z": -0.612716598,
				"element": "C" 
			},
			{
				"x": 0.9987019062,
				"y": -0.4327152599,
				"z": 0.2862960311,
				"element": "C" 
			},
			{
				"x": 2.0473721744,
				"y": 1.9409747658,
				"z": -0.6481952384,
				"element": "S" 
			},
			{
				"x": 1.2273438292,
				"y": 3.264306898,
				"z": 0.798892237,
				"element": "Cl" 
			},
			{
				"x": 3.3081149535,
				"y": 1.4596843254,
				"z": -0.1024243466,
				"element": "O" 
			},
			{
				"x": 1.949485011,
				"y": 2.6192183867,
				"z": -1.9332427806,
				"element": "O" 
			},
			{
				"x": 0.4023557662,
				"y": -5.0282435883,
				"z": 2.2086020788,
				"element": "H" 
			},
			{
				"x": -1.3722067752,
				"y": -5.0195567105,
				"z": 2.4871430698,
				"element": "H" 
			},
			{
				"x": -0.2879341206,
				"y": -3.9709286401,
				"z": 3.4625170626,
				"element": "H" 
			},
			{
				"x": -0.3474365511,
				"y": 1.4160008823,
				"z": -2.2316357697,
				"element": "H" 
			},
			{
				"x": 1.8272766102,
				"y": -0.4787705676,
				"z": 0.9847218373,
				"element": "H" 
			}
		],
		 "valence_orbital": [ 
			{
				"type": "occ",
				"energy": -0.32694,
				"method": "rhf"
			},
			{
				"type": "occ",
				"energy": -0.32635,
				"method": "rhf"
			},
			{
				"type": "occ",
				"energy": -0.31811,
				"method": "rhf"
			},
			{
				"type": "occ",
				"energy": -0.29961,
				"method": "rhf"
			},
			{
				"type": "occ",
				"energy": -0.29841,
				"method": "rhf"
			},
			{
				"type": "unocc",
				"energy": -0.10721,
				"method": "rhf"
			},
			{
				"type": "unocc",
				"energy": -0.09279,
				"method": "rhf"
			},
			{
				"type": "unocc",
				"energy": -0.07008,
				"method": "rhf"
			},
			{
				"type": "unocc",
				"energy": -0.00242,
				"method": "rhf"
			},
			{
				"type": "unocc",
				"energy": 0.01049,
				"method": "rhf"
			}
		],
		"cosmo_sigma_profile": { 
			"-0.025": 0.0,
			"-0.024": 0.0,
			"-0.023": 0.0,
			"-0.022": 0.0,
			"-0.021": 0.0,
			"-0.02": 0.0,
			"-0.019": 0.0,
			"-0.018": 0.0,
			"-0.017": 0.0,
			"-0.016": 0.0,
			"-0.015": 0.0,
			"-0.014": 0.0,
			"-0.013": 0.0,
			"-0.012": 0.0,
			"-0.011": 0.0891936124366,
			"-0.01": 1.39640557614,
			"-0.009": 1.88529464592,
			"-0.008": 4.34615502502,
			"-0.007": 7.8326131473,
			"-0.006": 15.0188556069,
			"-0.005": 22.9546916723,
			"-0.004": 26.6029381191,
			"-0.003": 17.9334836782,
			"-0.002": 14.6971409293,
			"-0.001": 12.3221534198,
			"0.0": 14.0402957383,
			"0.001": 14.7184280483,
			"0.002": 20.1644117513,
			"0.003": 22.0237318368,
			"0.004": 8.99639768602,
			"0.005": 9.35177474431,
			"0.006": 7.72785422216,
			"0.007": 11.6514581868,
			"0.008": 9.7499291368,
			"0.009": 3.90297644607,
			"0.01": 3.84039873805,
			"0.011": 3.50744271389,
			"0.012": 0.628293773804,
			"0.013": 0.0,
			"0.014": 0.0,
			"0.015": 0.0,
			"0.016": 0.0,
			"0.017": 0.0,
			"0.018": 0.0,
			"0.019": 0.0,
			"0.02": 0.0,
			"0.021": 0.0,
			"0.022": 0.0,
			"0.023": 0.0,
			"0.024": 0.0,
			"0.025": 0.0
		}
	}
}
