{
	 "smiles": "CCC(=O)NC1=CC(CN)=CC=C1", 
	 "Tm": 330.15, 
	 "num_atms": 27, 
	 "gaussian": { 
		 "optdone": 1, 
		 "sigma_profile": "yes", 
		 "theory": "DFT", 
		 "functional": "B3LYP", 
		 "basiset": "6-31G**", 
		 "properties": { 
			 "R2extent": 4060.7668, 
			 "electric_dipole_moment_norm": 2.9340400304, 
			 "electric_quadrupole_moment_norm": 22.4970916505, 
			 "total_energy": -574.244910588, 
			 "HOMO_LUMO_gap": 0.21021, 
			 "cosmo_polarized_energy": -14.55, 
			 "cosmo_cavitation_energy": 30.46, 
			 "cosmo_dispersion_energy": -21.27, 
			 "cosmo_repulsion_energy": 1.73, 
			 "cosmo_total_nonelectrostatic_energy": 10.92, 
			 "SMD_solvation_energy": 4.37 
		},
		"coords": [
			{
				"x": -3.7428957739,
				"y": 3.01988873,
				"z": 0.2199726034,
				"element": "C" 
			},
			{
				"x": -2.5935082839,
				"y": 3.1965298402,
				"z": 1.2223466469,
				"element": "C" 
			},
			{
				"x": -1.3921417253,
				"y": 3.8764996714,
				"z": 0.5786774529,
				"element": "C" 
			},
			{
				"x": -1.4867725671,
				"y": 4.991506103,
				"z": 0.0827311683,
				"element": "O" 
			},
			{
				"x": -0.1585958676,
				"y": 3.2481802639,
				"z": 0.6057246525,
				"element": "N" 
			},
			{
				"x": 0.2267109227,
				"y": 1.9447778404,
				"z": 1.0019037043,
				"element": "C" 
			},
			{
				"x": -0.4984032418,
				"y": 0.808147763,
				"z": 0.6185609838,
				"element": "C" 
			},
			{
				"x": -0.0919466916,
				"y": -0.4737617601,
				"z": 1.007746773,
				"element": "C" 
			},
			{
				"x": -0.8586193039,
				"y": -1.6991076077,
				"z": 0.5353353168,
				"element": "C" 
			},
			{
				"x": -0.3934332469,
				"y": -2.2879572688,
				"z": -0.7304471868,
				"element": "N" 
			},
			{
				"x": 1.0763305489,
				"y": -0.6108993751,
				"z": 1.7689303837,
				"element": "C" 
			},
			{
				"x": 1.8219043555,
				"y": 0.5129320836,
				"z": 2.1264253516,
				"element": "C" 
			},
			{
				"x": 1.4001882298,
				"y": 1.7874313848,
				"z": 1.7533761583,
				"element": "C" 
			},
			{
				"x": -3.9678753088,
				"y": 3.9756502375,
				"z": -0.2593830301,
				"element": "H" 
			},
			{
				"x": -4.644118344,
				"y": 2.6582639296,
				"z": 0.72339799,
				"element": "H" 
			},
			{
				"x": -3.4853770821,
				"y": 2.3010498584,
				"z": -0.5658891808,
				"element": "H" 
			},
			{
				"x": -2.3300578009,
				"y": 2.2495479432,
				"z": 1.6967827091,
				"element": "H" 
			},
			{
				"x": -2.9149442012,
				"y": 3.8802271723,
				"z": 2.0167863374,
				"element": "H" 
			},
			{
				"x": 0.5799749538,
				"y": 3.8669205293,
				"z": 0.2918556752,
				"element": "H" 
			},
			{
				"x": -1.3794753235,
				"y": 0.9232157765,
				"z": -0.0066276179,
				"element": "H" 
			},
			{
				"x": -1.9182113871,
				"y": -1.4472094587,
				"z": 0.4144581672,
				"element": "H" 
			},
			{
				"x": -0.8070011045,
				"y": -2.4802337677,
				"z": 1.3022659649,
				"element": "H" 
			},
			{
				"x": 0.5899059774,
				"y": -2.537779804,
				"z": -0.6436653442,
				"element": "H" 
			},
			{
				"x": -0.4326568034,
				"y": -1.5828047148,
				"z": -1.4640787752,
				"element": "H" 
			},
			{
				"x": 1.4027078826,
				"y": -1.600445756,
				"z": 2.0798929148,
				"element": "H" 
			},
			{
				"x": 2.7275805426,
				"y": 0.3997182759,
				"z": 2.715441089,
				"element": "H" 
			},
			{
				"x": 1.9634306444,
				"y": 2.6661121098,
				"z": 2.054579092,
				"element": "H" 
			}
		],
		 "valence_orbital": [ 
			{
				"type": "occ",
				"energy": -0.29465,
				"method": "rhf"
			},
			{
				"type": "occ",
				"energy": -0.26511,
				"method": "rhf"
			},
			{
				"type": "occ",
				"energy": -0.24938,
				"method": "rhf"
			},
			{
				"type": "occ",
				"energy": -0.23785,
				"method": "rhf"
			},
			{
				"type": "occ",
				"energy": -0.22963,
				"method": "rhf"
			},
			{
				"type": "unocc",
				"energy": -0.01942,
				"method": "rhf"
			},
			{
				"type": "unocc",
				"energy": -0.01557,
				"method": "rhf"
			},
			{
				"type": "unocc",
				"energy": 0.02865,
				"method": "rhf"
			},
			{
				"type": "unocc",
				"energy": 0.07521,
				"method": "rhf"
			},
			{
				"type": "unocc",
				"energy": 0.09375,
				"method": "rhf"
			}
		],
		"cosmo_sigma_profile": { 
			"-0.025": 0.0,
			"-0.024": 0.0,
			"-0.023": 0.0,
			"-0.022": 0.0,
			"-0.021": 0.0,
			"-0.02": 0.0,
			"-0.019": 0.0,
			"-0.018": 0.0,
			"-0.017": 0.0,
			"-0.016": 0.0,
			"-0.015": 0.0,
			"-0.014": 0.433804234517,
			"-0.013": 1.13923836717,
			"-0.012": 0.70109455635,
			"-0.011": 1.16968563096,
			"-0.01": 1.7047371955,
			"-0.009": 2.96650688588,
			"-0.008": 3.64641850455,
			"-0.007": 4.84936154487,
			"-0.006": 11.2097802575,
			"-0.005": 17.6228964352,
			"-0.004": 20.6735877299,
			"-0.003": 21.2632890983,
			"-0.002": 22.8148443767,
			"-0.001": 22.4674893892,
			"0.0": 18.8844939824,
			"0.001": 14.6998909196,
			"0.002": 11.7894117605,
			"0.003": 10.7911387652,
			"0.004": 8.5106577871,
			"0.005": 9.93787290541,
			"0.006": 4.31014338315,
			"0.007": 2.2999440269,
			"0.008": 1.75091518098,
			"0.009": 1.97762229567,
			"0.01": 2.14684398339,
			"0.011": 2.74237661414,
			"0.012": 2.17311304989,
			"0.013": 4.44962626812,
			"0.014": 5.78044997156,
			"0.015": 1.50971136143,
			"0.016": 0.37093173355,
			"0.017": 0.80214538007,
			"0.018": 0.756836239232,
			"0.019": 0.545373445523,
			"0.02": 0.277550865614,
			"0.021": 0.0,
			"0.022": 0.0,
			"0.023": 0.0,
			"0.024": 0.0,
			"0.025": 0.0
		}
	}
}
