{
	 "smiles": "CCC1=CC=CC(=C1)N(=O)=O", 
	 "Tm": 235.25, 
	 "num_atms": 20, 
	 "gaussian": { 
		 "optdone": 1, 
		 "sigma_profile": "yes", 
		 "theory": "DFT", 
		 "functional": "B3LYP", 
		 "basiset": "6-31G**", 
		 "properties": { 
			 "R2extent": 2441.6158, 
			 "electric_dipole_moment_norm": 4.84020158465, 
			 "electric_quadrupole_moment_norm": 12.4342029873, 
			 "total_energy": -515.385813902, 
			 "HOMO_LUMO_gap": 0.18046, 
			 "cosmo_polarized_energy": -7.57, 
			 "cosmo_cavitation_energy": 24.4, 
			 "cosmo_dispersion_energy": -17.62, 
			 "cosmo_repulsion_energy": 1.43, 
			 "cosmo_total_nonelectrostatic_energy": 8.21, 
			 "SMD_solvation_energy": 6.47 
		},
		"coords": [
			{
				"x": 1.8386050293,
				"y": -1.401503437,
				"z": 0.5367966472,
				"element": "C" 
			},
			{
				"x": 0.3813450128,
				"y": -1.373730782,
				"z": 1.0323840349,
				"element": "C" 
			},
			{
				"x": -0.277926944,
				"y": -0.0248265325,
				"z": 0.836865326,
				"element": "C" 
			},
			{
				"x": -0.195417536,
				"y": 0.9705942089,
				"z": 1.8224753935,
				"element": "C" 
			},
			{
				"x": -0.7694312932,
				"y": 2.2298610021,
				"z": 1.635076224,
				"element": "C" 
			},
			{
				"x": -1.443459396,
				"y": 2.5266344125,
				"z": 0.4526961333,
				"element": "C" 
			},
			{
				"x": -1.5221866128,
				"y": 1.5333359298,
				"z": -0.5208507517,
				"element": "C" 
			},
			{
				"x": -0.9557403375,
				"y": 0.2723638432,
				"z": -0.3498884248,
				"element": "C" 
			},
			{
				"x": -2.2356397204,
				"y": 1.824822536,
				"z": -1.7765018206,
				"element": "N" 
			},
			{
				"x": -2.7275827065,
				"y": 2.9453026543,
				"z": -1.9069219968,
				"element": "O" 
			},
			{
				"x": -2.2968344372,
				"y": 0.9315245612,
				"z": -2.6209732207,
				"element": "O" 
			},
			{
				"x": 1.8944732935,
				"y": -1.1703080467,
				"z": -0.5316955423,
				"element": "H" 
			},
			{
				"x": 2.4495430841,
				"y": -0.664890124,
				"z": 1.0686060559,
				"element": "H" 
			},
			{
				"x": 2.2835534951,
				"y": -2.3890898231,
				"z": 0.6943725409,
				"element": "H" 
			},
			{
				"x": 0.3544066536,
				"y": -1.6402867507,
				"z": 2.095397102,
				"element": "H" 
			},
			{
				"x": -0.1960160091,
				"y": -2.140386392,
				"z": 0.5033100942,
				"element": "H" 
			},
			{
				"x": 0.3229024041,
				"y": 0.7526443092,
				"z": 2.7529849267,
				"element": "H" 
			},
			{
				"x": -0.6951518025,
				"y": 2.9814000877,
				"z": 2.4149243925,
				"element": "H" 
			},
			{
				"x": -1.9032555823,
				"y": 3.4901968761,
				"z": 0.2744849949,
				"element": "H" 
			},
			{
				"x": -1.0548865949,
				"y": -0.4603585331,
				"z": -1.1422421089,
				"element": "H" 
			}
		],
		 "valence_orbital": [ 
			{
				"type": "occ",
				"energy": -0.30697,
				"method": "rhf"
			},
			{
				"type": "occ",
				"energy": -0.30387,
				"method": "rhf"
			},
			{
				"type": "occ",
				"energy": -0.28788,
				"method": "rhf"
			},
			{
				"type": "occ",
				"energy": -0.27831,
				"method": "rhf"
			},
			{
				"type": "occ",
				"energy": -0.26649,
				"method": "rhf"
			},
			{
				"type": "unocc",
				"energy": -0.08603,
				"method": "rhf"
			},
			{
				"type": "unocc",
				"energy": -0.02408,
				"method": "rhf"
			},
			{
				"type": "unocc",
				"energy": 0.00305,
				"method": "rhf"
			},
			{
				"type": "unocc",
				"energy": 0.07752,
				"method": "rhf"
			},
			{
				"type": "unocc",
				"energy": 0.10099,
				"method": "rhf"
			}
		],
		"cosmo_sigma_profile": { 
			"-0.025": 0.0,
			"-0.024": 0.0,
			"-0.023": 0.0,
			"-0.022": 0.0,
			"-0.021": 0.0,
			"-0.02": 0.0,
			"-0.019": 0.0,
			"-0.018": 0.0,
			"-0.017": 0.0,
			"-0.016": 0.0,
			"-0.015": 0.0,
			"-0.014": 0.0,
			"-0.013": 0.0,
			"-0.012": 0.0,
			"-0.011": 0.0,
			"-0.01": 0.0,
			"-0.009": 0.0,
			"-0.008": 0.100191833082,
			"-0.007": 4.44076124289,
			"-0.006": 9.46393352502,
			"-0.005": 11.7776692794,
			"-0.004": 13.0129235971,
			"-0.003": 19.2089714718,
			"-0.002": 17.9091184729,
			"-0.001": 22.3910915975,
			"0.0": 20.560890152,
			"0.001": 18.8117474085,
			"0.002": 14.6512171284,
			"0.003": 8.67104068845,
			"0.004": 2.29056223194,
			"0.005": 3.15809760983,
			"0.006": 3.67816438684,
			"0.007": 6.75686971072,
			"0.008": 9.09320684037,
			"0.009": 4.52689554515,
			"0.01": 3.02457940983,
			"0.011": 0.279920145266,
			"0.012": 0.0,
			"0.013": 0.0,
			"0.014": 0.0,
			"0.015": 0.0,
			"0.016": 0.0,
			"0.017": 0.0,
			"0.018": 0.0,
			"0.019": 0.0,
			"0.02": 0.0,
			"0.021": 0.0,
			"0.022": 0.0,
			"0.023": 0.0,
			"0.024": 0.0,
			"0.025": 0.0
		}
	}
}
