{
	 "smiles": "OCC1CCNCC1", 
	 "Tm": 332.15, 
	 "num_atms": 21, 
	 "gaussian": { 
		 "optdone": 1, 
		 "sigma_profile": "yes", 
		 "theory": "DFT", 
		 "functional": "B3LYP", 
		 "basiset": "6-31G**", 
		 "properties": { 
			 "R2extent": 1375.7864, 
			 "electric_dipole_moment_norm": 1.56503453636, 
			 "electric_quadrupole_moment_norm": 12.0493001, 
			 "total_energy": -366.440138535, 
			 "HOMO_LUMO_gap": 0.287, 
			 "cosmo_polarized_energy": -8.96, 
			 "cosmo_cavitation_energy": 21.56, 
			 "cosmo_dispersion_energy": -16.36, 
			 "cosmo_repulsion_energy": 1.36, 
			 "cosmo_total_nonelectrostatic_energy": 6.57, 
			 "SMD_solvation_energy": 0.45 
		},
		"coords": [
			{
				"x": 0.7510744651,
				"y": -2.5852670598,
				"z": -0.1964900847,
				"element": "O" 
			},
			{
				"x": 1.4581293618,
				"y": -1.4857861981,
				"z": -0.756250013,
				"element": "C" 
			},
			{
				"x": 0.7926238612,
				"y": -0.1280112474,
				"z": -0.4984038212,
				"element": "C" 
			},
			{
				"x": 0.6972875161,
				"y": 0.2064877336,
				"z": 1.0015445485,
				"element": "C" 
			},
			{
				"x": 0.0986614747,
				"y": 1.6077203871,
				"z": 1.2256546634,
				"element": "C" 
			},
			{
				"x": 0.7826618164,
				"y": 2.6770380777,
				"z": 0.4946439896,
				"element": "N" 
			},
			{
				"x": 0.8993418914,
				"y": 2.3746569216,
				"z": -0.9346849635,
				"element": "C" 
			},
			{
				"x": 1.5278103324,
				"y": 1.0026487317,
				"z": -1.2403077225,
				"element": "C" 
			},
			{
				"x": 0.8290183758,
				"y": -2.5290456613,
				"z": 0.7637380162,
				"element": "H" 
			},
			{
				"x": 2.5014307521,
				"y": -1.4585016204,
				"z": -0.396959006,
				"element": "H" 
			},
			{
				"x": 1.4954715303,
				"y": -1.6767365612,
				"z": -1.8345680471,
				"element": "H" 
			},
			{
				"x": -0.2322459346,
				"y": -0.1919085066,
				"z": -0.8945964446,
				"element": "H" 
			},
			{
				"x": 0.0857824326,
				"y": -0.5421919098,
				"z": 1.5228390856,
				"element": "H" 
			},
			{
				"x": 1.7039419267,
				"y": 0.1695186823,
				"z": 1.4473466642,
				"element": "H" 
			},
			{
				"x": -0.9518464104,
				"y": 1.6044434575,
				"z": 0.902272314,
				"element": "H" 
			},
			{
				"x": 0.0980747239,
				"y": 1.860010176,
				"z": 2.2919869366,
				"element": "H" 
			},
			{
				"x": 1.7152909585,
				"y": 2.8021975834,
				"z": 0.8846910743,
				"element": "H" 
			},
			{
				"x": 1.4730628014,
				"y": 3.1760241807,
				"z": -1.4135465802,
				"element": "H" 
			},
			{
				"x": -0.1118013121,
				"y": 2.4114373989,
				"z": -1.3641797458,
				"element": "H" 
			},
			{
				"x": 1.5193782584,
				"y": 0.8170389622,
				"z": -2.3227061471,
				"element": "H" 
			},
			{
				"x": 2.5842511784,
				"y": 1.015226472,
				"z": -0.9315247168,
				"element": "H" 
			}
		],
		 "valence_orbital": [ 
			{
				"type": "occ",
				"energy": -0.32816,
				"method": "rhf"
			},
			{
				"type": "occ",
				"energy": -0.31696,
				"method": "rhf"
			},
			{
				"type": "occ",
				"energy": -0.31005,
				"method": "rhf"
			},
			{
				"type": "occ",
				"energy": -0.26371,
				"method": "rhf"
			},
			{
				"type": "occ",
				"energy": -0.21515,
				"method": "rhf"
			},
			{
				"type": "unocc",
				"energy": 0.07185,
				"method": "rhf"
			},
			{
				"type": "unocc",
				"energy": 0.08662,
				"method": "rhf"
			},
			{
				"type": "unocc",
				"energy": 0.1016,
				"method": "rhf"
			},
			{
				"type": "unocc",
				"energy": 0.11188,
				"method": "rhf"
			},
			{
				"type": "unocc",
				"energy": 0.13088,
				"method": "rhf"
			}
		],
		"cosmo_sigma_profile": { 
			"-0.025": 0.0,
			"-0.024": 0.0,
			"-0.023": 0.0,
			"-0.022": 0.0,
			"-0.021": 0.0,
			"-0.02": 0.0,
			"-0.019": 0.0,
			"-0.018": 0.0,
			"-0.017": 0.0,
			"-0.016": 0.0,
			"-0.015": 0.0380822420432,
			"-0.014": 0.971343670366,
			"-0.013": 0.497936936046,
			"-0.012": 0.72793009013,
			"-0.011": 0.999679663409,
			"-0.01": 1.34281978037,
			"-0.009": 1.88437205603,
			"-0.008": 2.17941189028,
			"-0.007": 2.32190357549,
			"-0.006": 2.72947394937,
			"-0.005": 3.43615777544,
			"-0.004": 5.50018887039,
			"-0.003": 18.2831764136,
			"-0.002": 35.1846819658,
			"-0.001": 26.4265307149,
			"0.0": 19.905944879,
			"0.001": 8.30766156816,
			"0.002": 3.14671964162,
			"0.003": 2.8502021939,
			"0.004": 2.03060235747,
			"0.005": 2.9125170946,
			"0.006": 2.17969623448,
			"0.007": 1.8069125378,
			"0.008": 1.99049949501,
			"0.009": 2.00309905558,
			"0.01": 1.47349747519,
			"0.011": 1.86930102597,
			"0.012": 2.6840236594,
			"0.013": 2.14899514618,
			"0.014": 2.7264446593,
			"0.015": 2.00450352242,
			"0.016": 0.89014417507,
			"0.017": 0.567469757777,
			"0.018": 0.556602157363,
			"0.019": 0.356796130767,
			"0.02": 0.0205231282259,
			"0.021": 0.0,
			"0.022": 0.0,
			"0.023": 0.0,
			"0.024": 0.0,
			"0.025": 0.0
		}
	}
}
