{
	 "smiles": "CS(=O)(=O)CC1=C(C=C(Cl)C=C1)S(Cl)(=O)=O", 
	 "Tm": 377.15, 
	 "num_atms": 24, 
	 "gaussian": { 
		 "optdone": 1, 
		 "sigma_profile": "yes", 
		 "theory": "DFT", 
		 "functional": "B3LYP", 
		 "basiset": "6-31G**", 
		 "properties": { 
			 "R2extent": 5973.615, 
			 "electric_dipole_moment_norm": 3.16260761082, 
			 "electric_quadrupole_moment_norm": 16.1585016332, 
			 "total_energy": -2327.19555188, 
			 "HOMO_LUMO_gap": 0.16753, 
			 "cosmo_polarized_energy": -17.2, 
			 "cosmo_cavitation_energy": 33.97, 
			 "cosmo_dispersion_energy": -25.12, 
			 "cosmo_repulsion_energy": 1.87, 
			 "cosmo_total_nonelectrostatic_energy": 10.72, 
			 "SMD_solvation_energy": 3.88 
		},
		"coords": [
			{
				"x": -0.7258086039,
				"y": -1.8232492927,
				"z": -2.1759859623,
				"element": "C" 
			},
			{
				"x": 0.9926681921,
				"y": -1.8246866303,
				"z": -1.6298079971,
				"element": "S" 
			},
			{
				"x": 1.8519448127,
				"y": -2.1393841642,
				"z": -2.778773047,
				"element": "O" 
			},
			{
				"x": 1.0786397872,
				"y": -2.6197078289,
				"z": -0.3926580447,
				"element": "O" 
			},
			{
				"x": 1.3663138419,
				"y": -0.0683959286,
				"z": -1.1997388481,
				"element": "C" 
			},
			{
				"x": 0.5788004447,
				"y": 0.49066207,
				"z": -0.0449413701,
				"element": "C" 
			},
			{
				"x": -0.3552673453,
				"y": 1.5419617028,
				"z": -0.1345410224,
				"element": "C" 
			},
			{
				"x": -1.0381965515,
				"y": 2.0450359176,
				"z": 0.9758527649,
				"element": "C" 
			},
			{
				"x": -0.8004273698,
				"y": 1.4706847161,
				"z": 2.221072343,
				"element": "C" 
			},
			{
				"x": -1.6495558316,
				"y": 2.0766370222,
				"z": 3.6223316793,
				"element": "Cl" 
			},
			{
				"x": 0.1100516243,
				"y": 0.4227682208,
				"z": 2.3561332439,
				"element": "C" 
			},
			{
				"x": 0.7864095917,
				"y": -0.0490416967,
				"z": 1.2349418223,
				"element": "C" 
			},
			{
				"x": -0.7686701263,
				"y": 2.3514732918,
				"z": -1.6895066679,
				"element": "S" 
			},
			{
				"x": 0.981356599,
				"y": 3.5025536308,
				"z": -2.049509637,
				"element": "Cl" 
			},
			{
				"x": -0.8345502324,
				"y": 1.3654638406,
				"z": -2.7651590817,
				"element": "O" 
			},
			{
				"x": -1.8513394779,
				"y": 3.2981261347,
				"z": -1.4642612094,
				"element": "O" 
			},
			{
				"x": -0.8384975482,
				"y": -1.1318181762,
				"z": -3.0104376317,
				"element": "H" 
			},
			{
				"x": -1.3677537859,
				"y": -1.5408818342,
				"z": -1.340867831,
				"element": "H" 
			},
			{
				"x": -0.9347872374,
				"y": -2.8493559103,
				"z": -2.4843881603,
				"element": "H" 
			},
			{
				"x": 2.4290267482,
				"y": -0.1325140301,
				"z": -0.94718285,
				"element": "H" 
			},
			{
				"x": 1.267669851,
				"y": 0.4894162398,
				"z": -2.1278369442,
				"element": "H" 
			},
			{
				"x": -1.7391939727,
				"y": 2.8622489439,
				"z": 0.8621125826,
				"element": "H" 
			},
			{
				"x": 0.290578969,
				"y": -0.0176412149,
				"z": 3.3302794922,
				"element": "H" 
			},
			{
				"x": 1.480587621,
				"y": -0.8753550239,
				"z": 1.3393723767,
				"element": "H" 
			}
		],
		 "valence_orbital": [ 
			{
				"type": "occ",
				"energy": -0.32412,
				"method": "rhf"
			},
			{
				"type": "occ",
				"energy": -0.31319,
				"method": "rhf"
			},
			{
				"type": "occ",
				"energy": -0.30742,
				"method": "rhf"
			},
			{
				"type": "occ",
				"energy": -0.30336,
				"method": "rhf"
			},
			{
				"type": "occ",
				"energy": -0.27817,
				"method": "rhf"
			},
			{
				"type": "unocc",
				"energy": -0.11064,
				"method": "rhf"
			},
			{
				"type": "unocc",
				"energy": -0.06897,
				"method": "rhf"
			},
			{
				"type": "unocc",
				"energy": -0.0612,
				"method": "rhf"
			},
			{
				"type": "unocc",
				"energy": -0.00134,
				"method": "rhf"
			},
			{
				"type": "unocc",
				"energy": 0.03307,
				"method": "rhf"
			}
		],
		"cosmo_sigma_profile": { 
			"-0.025": 0.0,
			"-0.024": 0.0,
			"-0.023": 0.0,
			"-0.022": 0.0,
			"-0.021": 0.0,
			"-0.02": 0.0,
			"-0.019": 0.0,
			"-0.018": 0.0,
			"-0.017": 0.0,
			"-0.016": 0.0,
			"-0.015": 0.0,
			"-0.014": 0.0,
			"-0.013": 0.0,
			"-0.012": 0.0,
			"-0.011": 0.202398038889,
			"-0.01": 2.72809223392,
			"-0.009": 6.67402448835,
			"-0.008": 10.0203263929,
			"-0.007": 15.0517034737,
			"-0.006": 15.6337858114,
			"-0.005": 13.580814313,
			"-0.004": 15.1822053547,
			"-0.003": 18.8872066701,
			"-0.002": 19.2843545269,
			"-0.001": 23.4284979871,
			"0.0": 17.4074811701,
			"0.001": 16.9911539204,
			"0.002": 18.627527749,
			"0.003": 22.318753404,
			"0.004": 8.98402283586,
			"0.005": 4.32162457607,
			"0.006": 5.02509459593,
			"0.007": 8.03728233791,
			"0.008": 9.07415317993,
			"0.009": 3.44776797152,
			"0.01": 5.47123026853,
			"0.011": 9.50868327571,
			"0.012": 7.11290659842,
			"0.013": 0.141930270641,
			"0.014": 0.0,
			"0.015": 0.0,
			"0.016": 0.0,
			"0.017": 0.0,
			"0.018": 0.0,
			"0.019": 0.0,
			"0.02": 0.0,
			"0.021": 0.0,
			"0.022": 0.0,
			"0.023": 0.0,
			"0.024": 0.0,
			"0.025": 0.0
		}
	}
}
