{
	 "smiles": "CCC(C)C1(CC(Br)=C)C(=O)NC(=O)NC1=O", 
	 "Tm": 405.15, 
	 "num_atms": 32, 
	 "gaussian": { 
		 "optdone": 1, 
		 "sigma_profile": "yes", 
		 "theory": "DFT", 
		 "functional": "B3LYP", 
		 "basiset": "6-31G**", 
		 "properties": { 
			 "R2extent": 5657.5558, 
			 "electric_dipole_moment_norm": 2.04388718378, 
			 "electric_quadrupole_moment_norm": 8.06645959452, 
			 "total_energy": -3334.82627912, 
			 "HOMO_LUMO_gap": 0.20759, 
			 "cosmo_polarized_energy": -15.85, 
			 "cosmo_cavitation_energy": 35.65, 
			 "cosmo_dispersion_energy": -24.16, 
			 "cosmo_repulsion_energy": 1.86, 
			 "cosmo_total_nonelectrostatic_energy": 13.34, 
			 "SMD_solvation_energy": 7.36 
		},
		"coords": [
			{
				"x": -1.0011668763,
				"y": -1.3954829365,
				"z": -2.0177131119,
				"element": "C" 
			},
			{
				"x": -1.323558337,
				"y": -1.7423093943,
				"z": -0.5571157824,
				"element": "C" 
			},
			{
				"x": -0.148649423,
				"y": -1.7717619938,
				"z": 0.4554090772,
				"element": "C" 
			},
			{
				"x": 0.9627455311,
				"y": -2.7255466808,
				"z": -0.0101586566,
				"element": "C" 
			},
			{
				"x": 0.3503342837,
				"y": -0.3341108821,
				"z": 0.9109296479,
				"element": "C" 
			},
			{
				"x": 1.4301443472,
				"y": -0.4972036655,
				"z": 2.0384713754,
				"element": "C" 
			},
			{
				"x": 2.0964801198,
				"y": 0.7689024685,
				"z": 2.5144897204,
				"element": "C" 
			},
			{
				"x": 1.1240604247,
				"y": 1.8108168135,
				"z": 3.8155332279,
				"element": "Br" 
			},
			{
				"x": 3.293561607,
				"y": 1.1969839884,
				"z": 2.1184749845,
				"element": "C" 
			},
			{
				"x": -0.8815994147,
				"y": 0.3540451429,
				"z": 1.5203097432,
				"element": "C" 
			},
			{
				"x": -1.5061662196,
				"y": -0.1394811692,
				"z": 2.439438248,
				"element": "O" 
			},
			{
				"x": -1.2876340149,
				"y": 1.5559917365,
				"z": 0.9588433178,
				"element": "N" 
			},
			{
				"x": -0.68390863,
				"y": 2.2639762308,
				"z": -0.0711066035,
				"element": "C" 
			},
			{
				"x": -1.0935981029,
				"y": 3.3345014698,
				"z": -0.4686605288,
				"element": "O" 
			},
			{
				"x": 0.4299416744,
				"y": 1.6339200955,
				"z": -0.6171432568,
				"element": "N" 
			},
			{
				"x": 1.0141304121,
				"y": 0.4349881072,
				"z": -0.2325052264,
				"element": "C" 
			},
			{
				"x": 2.030356247,
				"y": 0.0493922202,
				"z": -0.7833686887,
				"element": "O" 
			},
			{
				"x": -0.650470938,
				"y": -0.3674950934,
				"z": -2.1428425212,
				"element": "H" 
			},
			{
				"x": -1.9017505498,
				"y": -1.5032901099,
				"z": -2.6306512802,
				"element": "H" 
			},
			{
				"x": -0.2383117384,
				"y": -2.0585422336,
				"z": -2.4356040997,
				"element": "H" 
			},
			{
				"x": -2.1121548368,
				"y": -1.075624062,
				"z": -0.1885549837,
				"element": "H" 
			},
			{
				"x": -1.7653988144,
				"y": -2.7463398321,
				"z": -0.5350469102,
				"element": "H" 
			},
			{
				"x": -0.5717539678,
				"y": -2.1761837621,
				"z": 1.3819149346,
				"element": "H" 
			},
			{
				"x": 0.506041557,
				"y": -3.6666618569,
				"z": -0.3350932455,
				"element": "H" 
			},
			{
				"x": 1.542317332,
				"y": -2.3182686755,
				"z": -0.8397951274,
				"element": "H" 
			},
			{
				"x": 1.6585820112,
				"y": -2.9730262173,
				"z": 0.7955927752,
				"element": "H" 
			},
			{
				"x": 2.2194818149,
				"y": -1.1333196436,
				"z": 1.6366891539,
				"element": "H" 
			},
			{
				"x": 0.951705651,
				"y": -1.0157360627,
				"z": 2.8734711213,
				"element": "H" 
			},
			{
				"x": 3.7391411854,
				"y": 2.110245712,
				"z": 2.4938781555,
				"element": "H" 
			},
			{
				"x": 3.8495269237,
				"y": 0.6227294566,
				"z": 1.3830952248,
				"element": "H" 
			},
			{
				"x": -2.089049519,
				"y": 2.0060308503,
				"z": 1.3856914174,
				"element": "H" 
			},
			{
				"x": 0.8976202604,
				"y": 2.1461599788,
				"z": -1.356172102,
				"element": "H" 
			}
		],
		 "valence_orbital": [ 
			{
				"type": "occ",
				"energy": -0.30262,
				"method": "rhf"
			},
			{
				"type": "occ",
				"energy": -0.29307,
				"method": "rhf"
			},
			{
				"type": "occ",
				"energy": -0.28651,
				"method": "rhf"
			},
			{
				"type": "occ",
				"energy": -0.2688,
				"method": "rhf"
			},
			{
				"type": "occ",
				"energy": -0.25701,
				"method": "rhf"
			},
			{
				"type": "unocc",
				"energy": -0.04942,
				"method": "rhf"
			},
			{
				"type": "unocc",
				"energy": -0.01353,
				"method": "rhf"
			},
			{
				"type": "unocc",
				"energy": -0.00997,
				"method": "rhf"
			},
			{
				"type": "unocc",
				"energy": 0.00121,
				"method": "rhf"
			},
			{
				"type": "unocc",
				"energy": 0.0533,
				"method": "rhf"
			}
		],
		"cosmo_sigma_profile": { 
			"-0.025": 0.0,
			"-0.024": 0.0,
			"-0.023": 0.0,
			"-0.022": 0.0,
			"-0.021": 0.0,
			"-0.02": 0.0,
			"-0.019": 0.0,
			"-0.018": 0.0,
			"-0.017": 0.405861296915,
			"-0.016": 2.23916214128,
			"-0.015": 1.64088685686,
			"-0.014": 1.51755774655,
			"-0.013": 0.970903575929,
			"-0.012": 1.23316052836,
			"-0.011": 2.35290770335,
			"-0.01": 1.88192211689,
			"-0.009": 1.35127995295,
			"-0.008": 2.70494797575,
			"-0.007": 4.54159710174,
			"-0.006": 8.49493491493,
			"-0.005": 11.6711339481,
			"-0.004": 18.4459468263,
			"-0.003": 30.3531410158,
			"-0.002": 26.5903785807,
			"-0.001": 26.5537160496,
			"0.0": 25.229833394,
			"0.001": 23.8334160969,
			"0.002": 14.9848527496,
			"0.003": 13.3964595427,
			"0.004": 11.8484225662,
			"0.005": 8.42271307366,
			"0.006": 4.19852118764,
			"0.007": 4.80742558295,
			"0.008": 4.43270999815,
			"0.009": 3.84917750986,
			"0.01": 5.9799556739,
			"0.011": 12.5316806815,
			"0.012": 6.28315749982,
			"0.013": 0.0123411652295,
			"0.014": 0.0,
			"0.015": 0.0,
			"0.016": 0.0,
			"0.017": 0.0,
			"0.018": 0.0,
			"0.019": 0.0,
			"0.02": 0.0,
			"0.021": 0.0,
			"0.022": 0.0,
			"0.023": 0.0,
			"0.024": 0.0,
			"0.025": 0.0
		}
	}
}
