{
	 "smiles": "O=C1NC2=C(CC(CC2)C2=CC=CC=C2)C=C1C#N", 
	 "Tm": 553.15, 
	 "num_atms": 33, 
	 "gaussian": { 
		 "optdone": 1, 
		 "sigma_profile": "yes", 
		 "theory": "DFT", 
		 "functional": "B3LYP", 
		 "basiset": "6-31G**", 
		 "properties": { 
			 "R2extent": 6203.0173, 
			 "electric_dipole_moment_norm": 9.25122384715, 
			 "electric_quadrupole_moment_norm": 33.5361250415, 
			 "total_energy": -802.875348172, 
			 "HOMO_LUMO_gap": 0.15447, 
			 "cosmo_polarized_energy": -22.78, 
			 "cosmo_cavitation_energy": 36.5, 
			 "cosmo_dispersion_energy": -25.48, 
			 "cosmo_repulsion_energy": 1.95, 
			 "cosmo_total_nonelectrostatic_energy": 12.97, 
			 "SMD_solvation_energy": 7.4 
		},
		"coords": [
			{
				"x": 1.7327936442,
				"y": 3.0097250771,
				"z": -3.6414787732,
				"element": "O" 
			},
			{
				"x": 1.1570305786,
				"y": 2.7188604735,
				"z": -2.6031425343,
				"element": "C" 
			},
			{
				"x": -0.059188465,
				"y": 2.0073823126,
				"z": -2.6357761044,
				"element": "N" 
			},
			{
				"x": -0.8145680014,
				"y": 1.6118173994,
				"z": -1.5686461559,
				"element": "C" 
			},
			{
				"x": -0.3923909471,
				"y": 1.9083401626,
				"z": -0.2908987846,
				"element": "C" 
			},
			{
				"x": -1.1991295365,
				"y": 1.5103626837,
				"z": 0.93122421,
				"element": "C" 
			},
			{
				"x": -2.3080690202,
				"y": 0.4731965589,
				"z": 0.6533282033,
				"element": "C" 
			},
			{
				"x": -3.0307781134,
				"y": 0.8438741684,
				"z": -0.6652496974,
				"element": "C" 
			},
			{
				"x": -2.0703800782,
				"y": 0.8340078464,
				"z": -1.8605580241,
				"element": "C" 
			},
			{
				"x": -1.8516785389,
				"y": -0.983839703,
				"z": 0.6527055414,
				"element": "C" 
			},
			{
				"x": -2.8075118767,
				"y": -1.9856377789,
				"z": 0.8868390749,
				"element": "C" 
			},
			{
				"x": -2.4585111597,
				"y": -3.3349787368,
				"z": 0.8802269636,
				"element": "C" 
			},
			{
				"x": -1.1359192382,
				"y": -3.7142303958,
				"z": 0.6389410561,
				"element": "C" 
			},
			{
				"x": -0.173809355,
				"y": -2.7319036711,
				"z": 0.4087421654,
				"element": "C" 
			},
			{
				"x": -0.5282244749,
				"y": -1.3797591376,
				"z": 0.4157575032,
				"element": "C" 
			},
			{
				"x": 0.8232479018,
				"y": 2.6300627795,
				"z": -0.1552300879,
				"element": "C" 
			},
			{
				"x": 1.5806171651,
				"y": 3.0277093662,
				"z": -1.2364239885,
				"element": "C" 
			},
			{
				"x": 2.7990780935,
				"y": 3.7490700222,
				"z": -1.0575391202,
				"element": "C" 
			},
			{
				"x": 3.7877650145,
				"y": 4.3357801614,
				"z": -0.8776256371,
				"element": "N" 
			},
			{
				"x": -0.3688979064,
				"y": 1.7873102382,
				"z": -3.5758988524,
				"element": "H" 
			},
			{
				"x": -1.6694461104,
				"y": 2.4105975436,
				"z": 1.3502157862,
				"element": "H" 
			},
			{
				"x": -0.525954137,
				"y": 1.1352576006,
				"z": 1.710929492,
				"element": "H" 
			},
			{
				"x": -3.0459892691,
				"y": 0.56840195,
				"z": 1.4591037444,
				"element": "H" 
			},
			{
				"x": -3.4694336026,
				"y": 1.8438997126,
				"z": -0.5593212888,
				"element": "H" 
			},
			{
				"x": -3.8547716903,
				"y": 0.14892295,
				"z": -0.8534605567,
				"element": "H" 
			},
			{
				"x": -2.5618800069,
				"y": 1.2459937799,
				"z": -2.7507245599,
				"element": "H" 
			},
			{
				"x": -1.7914222733,
				"y": -0.2000459489,
				"z": -2.1065804977,
				"element": "H" 
			},
			{
				"x": -3.8384354543,
				"y": -1.7009771011,
				"z": 1.0870250548,
				"element": "H" 
			},
			{
				"x": -3.216490844,
				"y": -4.0895319667,
				"z": 1.0709261063,
				"element": "H" 
			},
			{
				"x": -0.8588171573,
				"y": -4.7643053428,
				"z": 0.6364187853,
				"element": "H" 
			},
			{
				"x": 0.8592281728,
				"y": -3.0133082058,
				"z": 0.2248162556,
				"element": "H" 
			},
			{
				"x": 0.2392956658,
				"y": -0.6338529005,
				"z": 0.2359556715,
				"element": "H" 
			},
			{
				"x": 1.1750410205,
				"y": 2.8778981024,
				"z": 0.8433990491,
				"element": "H" 
			}
		],
		 "valence_orbital": [ 
			{
				"type": "occ",
				"energy": -0.2986,
				"method": "rhf"
			},
			{
				"type": "occ",
				"energy": -0.26466,
				"method": "rhf"
			},
			{
				"type": "occ",
				"energy": -0.2614,
				"method": "rhf"
			},
			{
				"type": "occ",
				"energy": -0.25458,
				"method": "rhf"
			},
			{
				"type": "occ",
				"energy": -0.22594,
				"method": "rhf"
			},
			{
				"type": "unocc",
				"energy": -0.07147,
				"method": "rhf"
			},
			{
				"type": "unocc",
				"energy": -0.0163,
				"method": "rhf"
			},
			{
				"type": "unocc",
				"energy": -0.01242,
				"method": "rhf"
			},
			{
				"type": "unocc",
				"energy": -0.00201,
				"method": "rhf"
			},
			{
				"type": "unocc",
				"energy": 0.04129,
				"method": "rhf"
			}
		],
		"cosmo_sigma_profile": { 
			"-0.025": 0.0,
			"-0.024": 0.0,
			"-0.023": 0.0,
			"-0.022": 0.0,
			"-0.021": 0.0,
			"-0.02": 0.0,
			"-0.019": 0.0,
			"-0.018": 0.0,
			"-0.017": 0.01145862911,
			"-0.016": 0.712203217139,
			"-0.015": 1.12431447231,
			"-0.014": 1.2861107072,
			"-0.013": 1.21672142206,
			"-0.012": 1.0734226528,
			"-0.011": 0.997744409583,
			"-0.01": 1.43490309237,
			"-0.009": 2.17465848357,
			"-0.008": 4.02350368217,
			"-0.007": 4.9482711219,
			"-0.006": 7.44043367279,
			"-0.005": 18.4161322542,
			"-0.004": 34.1560302204,
			"-0.003": 36.6373192965,
			"-0.002": 30.0248730947,
			"-0.001": 24.8435193896,
			"0.0": 18.5568677035,
			"0.001": 9.53475353375,
			"0.002": 9.64437295042,
			"0.003": 8.87895778467,
			"0.004": 9.84676056526,
			"0.005": 10.1034813916,
			"0.006": 11.9046998811,
			"0.007": 6.31475280805,
			"0.008": 4.85617628301,
			"0.009": 5.3386232525,
			"0.01": 4.64204740049,
			"0.011": 4.76016828008,
			"0.012": 4.7739841827,
			"0.013": 8.22485870537,
			"0.014": 2.9362510021,
			"0.015": 0.0,
			"0.016": 0.0,
			"0.017": 0.0,
			"0.018": 0.0,
			"0.019": 0.0,
			"0.02": 0.0,
			"0.021": 0.0,
			"0.022": 0.0,
			"0.023": 0.0,
			"0.024": 0.0,
			"0.025": 0.0
		}
	}
}
