{
	 "smiles": "CC(C)OC1=C(CC(O)=O)C=CC=C1", 
	 "Tm": 366.15, 
	 "num_atms": 28, 
	 "gaussian": { 
		 "optdone": 1, 
		 "sigma_profile": "yes", 
		 "theory": "DFT", 
		 "functional": "B3LYP", 
		 "basiset": "6-31G**", 
		 "properties": { 
			 "R2extent": 3326.4463, 
			 "electric_dipole_moment_norm": 2.19050417484, 
			 "electric_quadrupole_moment_norm": 13.6350406563, 
			 "total_energy": -653.301172021, 
			 "HOMO_LUMO_gap": 0.2136, 
			 "cosmo_polarized_energy": -12.33, 
			 "cosmo_cavitation_energy": 31.34, 
			 "cosmo_dispersion_energy": -21.25, 
			 "cosmo_repulsion_energy": 1.7, 
			 "cosmo_total_nonelectrostatic_energy": 11.79, 
			 "SMD_solvation_energy": 6.78 
		},
		"coords": [
			{
				"x": -2.8205294379,
				"y": 0.1542015445,
				"z": -0.6440209638,
				"element": "C" 
			},
			{
				"x": -2.3313025703,
				"y": -0.5863716607,
				"z": 0.6005990934,
				"element": "C" 
			},
			{
				"x": -3.2691937724,
				"y": -1.7111461198,
				"z": 1.0236832498,
				"element": "C" 
			},
			{
				"x": -1.0648359057,
				"y": -1.2223818041,
				"z": 0.3439255656,
				"element": "O" 
			},
			{
				"x": 0.0965775516,
				"y": -0.5045685754,
				"z": 0.2996200286,
				"element": "C" 
			},
			{
				"x": 1.2246151324,
				"y": -1.246436845,
				"z": -0.111418477,
				"element": "C" 
			},
			{
				"x": 1.0644838125,
				"y": -2.7111068573,
				"z": -0.4449193732,
				"element": "C" 
			},
			{
				"x": 0.135583373,
				"y": -3.0296675972,
				"z": -1.6070571067,
				"element": "C" 
			},
			{
				"x": 0.2418162767,
				"y": -2.1341766576,
				"z": -2.6182202931,
				"element": "O" 
			},
			{
				"x": -0.5874573575,
				"y": -3.9987115909,
				"z": -1.6724631699,
				"element": "O" 
			},
			{
				"x": 2.4616673002,
				"y": -0.6074834079,
				"z": -0.1671604376,
				"element": "C" 
			},
			{
				"x": 2.6012758688,
				"y": 0.7416856575,
				"z": 0.1718059371,
				"element": "C" 
			},
			{
				"x": 1.4792087455,
				"y": 1.4608522033,
				"z": 0.5727159244,
				"element": "C" 
			},
			{
				"x": 0.2247709525,
				"y": 0.8462637125,
				"z": 0.6374994824,
				"element": "C" 
			},
			{
				"x": -3.7807835425,
				"y": 0.6408382065,
				"z": -0.4446994228,
				"element": "H" 
			},
			{
				"x": -2.9549811503,
				"y": -0.5521033933,
				"z": -1.4691589104,
				"element": "H" 
			},
			{
				"x": -2.1084544385,
				"y": 0.919912454,
				"z": -0.962282481,
				"element": "H" 
			},
			{
				"x": -2.2132599526,
				"y": 0.1156370801,
				"z": 1.4369937384,
				"element": "H" 
			},
			{
				"x": -2.8932072302,
				"y": -2.20889216,
				"z": 1.9214728934,
				"element": "H" 
			},
			{
				"x": -3.3482901019,
				"y": -2.4564978497,
				"z": 0.2264730916,
				"element": "H" 
			},
			{
				"x": -4.2674703748,
				"y": -1.3160569857,
				"z": 1.2351106194,
				"element": "H" 
			},
			{
				"x": 0.676993416,
				"y": -3.277322065,
				"z": 0.4062292687,
				"element": "H" 
			},
			{
				"x": 2.0435778563,
				"y": -3.1340191134,
				"z": -0.7008600622,
				"element": "H" 
			},
			{
				"x": -0.3613704995,
				"y": -2.4504238965,
				"z": -3.3115454748,
				"element": "H" 
			},
			{
				"x": 3.3317328678,
				"y": -1.1777352331,
				"z": -0.4832234269,
				"element": "H" 
			},
			{
				"x": 3.5740802251,
				"y": 1.2203297616,
				"z": 0.1195836057,
				"element": "H" 
			},
			{
				"x": 1.5678252148,
				"y": 2.5106474879,
				"z": 0.8378120732,
				"element": "H" 
			},
			{
				"x": -0.6365722592,
				"y": 1.4248337047,
				"z": 0.9492050276,
				"element": "H" 
			}
		],
		 "valence_orbital": [ 
			{
				"type": "occ",
				"energy": -0.3129,
				"method": "rhf"
			},
			{
				"type": "occ",
				"energy": -0.30745,
				"method": "rhf"
			},
			{
				"type": "occ",
				"energy": -0.26924,
				"method": "rhf"
			},
			{
				"type": "occ",
				"energy": -0.24364,
				"method": "rhf"
			},
			{
				"type": "occ",
				"energy": -0.21538,
				"method": "rhf"
			},
			{
				"type": "unocc",
				"energy": -0.00178,
				"method": "rhf"
			},
			{
				"type": "unocc",
				"energy": 0.01277,
				"method": "rhf"
			},
			{
				"type": "unocc",
				"energy": 0.0213,
				"method": "rhf"
			},
			{
				"type": "unocc",
				"energy": 0.07864,
				"method": "rhf"
			},
			{
				"type": "unocc",
				"energy": 0.09035,
				"method": "rhf"
			}
		],
		"cosmo_sigma_profile": { 
			"-0.025": 0.0,
			"-0.024": 0.0,
			"-0.023": 0.0,
			"-0.022": 0.0,
			"-0.021": 0.0,
			"-0.02": 0.0,
			"-0.019": 0.0,
			"-0.018": 0.330660643045,
			"-0.017": 0.994593047445,
			"-0.016": 0.964327591293,
			"-0.015": 0.701561234813,
			"-0.014": 0.64117721953,
			"-0.013": 0.567781411247,
			"-0.012": 0.764577666124,
			"-0.011": 0.950649712481,
			"-0.01": 0.780484677088,
			"-0.009": 0.487892899254,
			"-0.008": 0.643475250319,
			"-0.007": 5.03016634513,
			"-0.006": 9.9485029609,
			"-0.005": 13.1176567726,
			"-0.004": 21.6832468908,
			"-0.003": 26.1162755258,
			"-0.002": 23.654606557,
			"-0.001": 20.9640218737,
			"0.0": 20.5333963172,
			"0.001": 15.6018009367,
			"0.002": 10.2242754292,
			"0.003": 11.6681464457,
			"0.004": 10.5661813887,
			"0.005": 10.9584817753,
			"0.006": 11.9050774885,
			"0.007": 6.90812075535,
			"0.008": 3.40941129933,
			"0.009": 3.53478056251,
			"0.01": 3.32646857838,
			"0.011": 2.73658748287,
			"0.012": 5.09754990979,
			"0.013": 1.76660022093,
			"0.014": 0.0420382659837,
			"0.015": 0.0,
			"0.016": 0.0,
			"0.017": 0.0,
			"0.018": 0.0,
			"0.019": 0.0,
			"0.02": 0.0,
			"0.021": 0.0,
			"0.022": 0.0,
			"0.023": 0.0,
			"0.024": 0.0,
			"0.025": 0.0
		}
	}
}
