{
	 "smiles": "COC1=C(O)C(OC2=C(OC)C=C3CCN(C)C(CC(C)C)C3=C2O)=C2C(CC(C)C)N(C)CCC2=C1", 
	 "Tm": 437.15, 
	 "num_atms": 81, 
	 "gaussian": { 
		 "optdone": 1, 
		 "sigma_profile": "yes", 
		 "theory": "DFT", 
		 "functional": "B3LYP", 
		 "basiset": "6-31G**", 
		 "properties": { 
			 "R2extent": 20850.6584, 
			 "electric_dipole_moment_norm": 5.91666638995, 
			 "electric_quadrupole_moment_norm": 17.6711779856, 
			 "total_energy": -1655.30056414, 
			 "HOMO_LUMO_gap": 0.20161, 
			 "cosmo_polarized_energy": -16.12, 
			 "cosmo_cavitation_energy": 73.85, 
			 "cosmo_dispersion_energy": -46.8, 
			 "cosmo_repulsion_energy": 3.52, 
			 "cosmo_total_nonelectrostatic_energy": 30.57, 
			 "SMD_solvation_energy": 10.91 
		},
		"coords": [
			{
				"x": 2.077572739,
				"y": 5.6545048153,
				"z": -0.6530317876,
				"element": "C" 
			},
			{
				"x": 1.9414333314,
				"y": 4.2466614189,
				"z": -0.5389271204,
				"element": "O" 
			},
			{
				"x": 0.6713680989,
				"y": 3.7177883888,
				"z": -0.5352475288,
				"element": "C" 
			},
			{
				"x": 0.6529565672,
				"y": 2.3146484875,
				"z": -0.4484020519,
				"element": "C" 
			},
			{
				"x": 1.8173656748,
				"y": 1.6052225072,
				"z": -0.4083731896,
				"element": "O" 
			},
			{
				"x": -0.5737723711,
				"y": 1.6547640427,
				"z": -0.4317560129,
				"element": "C" 
			},
			{
				"x": -0.6033369369,
				"y": 0.2619448499,
				"z": -0.3842977289,
				"element": "O" 
			},
			{
				"x": 0.0366934206,
				"y": -0.4222042563,
				"z": 0.6507093066,
				"element": "C" 
			},
			{
				"x": -0.3338505629,
				"y": -0.2967284683,
				"z": 1.9981177043,
				"element": "C" 
			},
			{
				"x": -1.3211765099,
				"y": 0.607360533,
				"z": 2.2738428792,
				"element": "O" 
			},
			{
				"x": -1.6666878789,
				"y": 0.8104715499,
				"z": 3.6347285768,
				"element": "C" 
			},
			{
				"x": 0.31184792,
				"y": -1.0894484441,
				"z": 2.9479980286,
				"element": "C" 
			},
			{
				"x": 1.2940668839,
				"y": -2.0174431791,
				"z": 2.5656247701,
				"element": "C" 
			},
			{
				"x": 2.0091258888,
				"y": -2.817119962,
				"z": 3.6391726041,
				"element": "C" 
			},
			{
				"x": 2.8357569728,
				"y": -3.9745729215,
				"z": 3.0530472603,
				"element": "C" 
			},
			{
				"x": 3.5911474009,
				"y": -3.606024687,
				"z": 1.8543104322,
				"element": "N" 
			},
			{
				"x": 4.6509089999,
				"y": -2.6388690154,
				"z": 2.123986398,
				"element": "C" 
			},
			{
				"x": 2.6977708077,
				"y": -3.184845023,
				"z": 0.7608513777,
				"element": "C" 
			},
			{
				"x": 2.0158151957,
				"y": -4.3815909665,
				"z": 0.0487590115,
				"element": "C" 
			},
			{
				"x": 2.9245875017,
				"y": -5.4105964497,
				"z": -0.6690943381,
				"element": "C" 
			},
			{
				"x": 3.6014002233,
				"y": -6.4112466596,
				"z": 0.2810236786,
				"element": "C" 
			},
			{
				"x": 3.9535683686,
				"y": -4.7455827139,
				"z": -1.5967155022,
				"element": "C" 
			},
			{
				"x": 1.6497723276,
				"y": -2.1674818053,
				"z": 1.2202341059,
				"element": "C" 
			},
			{
				"x": 1.0131710802,
				"y": -1.345054742,
				"z": 0.2736264553,
				"element": "C" 
			},
			{
				"x": 1.3643933656,
				"y": -1.4565765497,
				"z": -1.0371956643,
				"element": "O" 
			},
			{
				"x": -1.7888077718,
				"y": 2.3486355523,
				"z": -0.5808114594,
				"element": "C" 
			},
			{
				"x": -3.1234062211,
				"y": 1.5995336122,
				"z": -0.6354698633,
				"element": "C" 
			},
			{
				"x": -3.5385949115,
				"y": 1.0751719422,
				"z": -2.0410769437,
				"element": "C" 
			},
			{
				"x": -2.7471456065,
				"y": -0.1071017858,
				"z": -2.6521971801,
				"element": "C" 
			},
			{
				"x": -1.5584934792,
				"y": 0.3539433244,
				"z": -3.5120644867,
				"element": "C" 
			},
			{
				"x": -3.6861833824,
				"y": -0.9843817009,
				"z": -3.4974013839,
				"element": "C" 
			},
			{
				"x": -4.2302133946,
				"y": 2.4241420179,
				"z": -0.1081232238,
				"element": "N" 
			},
			{
				"x": -4.2217443791,
				"y": 2.5380911755,
				"z": 1.3453747036,
				"element": "C" 
			},
			{
				"x": -4.3012201789,
				"y": 3.7206808027,
				"z": -0.7823697925,
				"element": "C" 
			},
			{
				"x": -3.0269065404,
				"y": 4.5739898249,
				"z": -0.6325597468,
				"element": "C" 
			},
			{
				"x": -1.7499295767,
				"y": 3.7500456593,
				"z": -0.6423581022,
				"element": "C" 
			},
			{
				"x": -0.518418986,
				"y": 4.4273530316,
				"z": -0.6156740187,
				"element": "C" 
			},
			{
				"x": 1.6111055491,
				"y": 6.1712400974,
				"z": 0.195054686,
				"element": "H" 
			},
			{
				"x": 3.1493206039,
				"y": 5.8588068095,
				"z": -0.6544958535,
				"element": "H" 
			},
			{
				"x": 1.6351299622,
				"y": 6.0237834846,
				"z": -1.5866165313,
				"element": "H" 
			},
			{
				"x": 2.5394828918,
				"y": 2.2519919083,
				"z": -0.4239276077,
				"element": "H" 
			},
			{
				"x": -2.0693673844,
				"y": -0.1030746224,
				"z": 4.0907796138,
				"element": "H" 
			},
			{
				"x": -0.8053244026,
				"y": 1.1530900985,
				"z": 4.2219286045,
				"element": "H" 
			},
			{
				"x": -2.4356822911,
				"y": 1.5837193073,
				"z": 3.6375973903,
				"element": "H" 
			},
			{
				"x": 0.0546960684,
				"y": -1.0041500556,
				"z": 3.9975661251,
				"element": "H" 
			},
			{
				"x": 1.2856752613,
				"y": -3.2067069864,
				"z": 4.3665926491,
				"element": "H" 
			},
			{
				"x": 2.6657842895,
				"y": -2.1406217229,
				"z": 4.2040657875,
				"element": "H" 
			},
			{
				"x": 3.5352605618,
				"y": -4.3592708957,
				"z": 3.8042200025,
				"element": "H" 
			},
			{
				"x": 2.1702561849,
				"y": -4.8038557728,
				"z": 2.7908691482,
				"element": "H" 
			},
			{
				"x": 5.293901702,
				"y": -3.0203540655,
				"z": 2.9248288039,
				"element": "H" 
			},
			{
				"x": 5.2689121004,
				"y": -2.5192537292,
				"z": 1.2280033237,
				"element": "H" 
			},
			{
				"x": 4.2965026372,
				"y": -1.6358484939,
				"z": 2.4197224143,
				"element": "H" 
			},
			{
				"x": 3.3268891781,
				"y": -2.6877808581,
				"z": 0.0151414231,
				"element": "H" 
			},
			{
				"x": 1.3455895111,
				"y": -3.94471001,
				"z": -0.6993260917,
				"element": "H" 
			},
			{
				"x": 1.3673917901,
				"y": -4.9092730589,
				"z": 0.7598864068,
				"element": "H" 
			},
			{
				"x": 2.2447098794,
				"y": -5.9906740536,
				"z": -1.3113569518,
				"element": "H" 
			},
			{
				"x": 2.8593172539,
				"y": -6.9344468146,
				"z": 0.8957804074,
				"element": "H" 
			},
			{
				"x": 4.1550697028,
				"y": -7.1702435115,
				"z": -0.2847022401,
				"element": "H" 
			},
			{
				"x": 4.2939766175,
				"y": -5.8999196889,
				"z": 0.9537331655,
				"element": "H" 
			},
			{
				"x": 4.4513136044,
				"y": -5.4944015096,
				"z": -2.2229797814,
				"element": "H" 
			},
			{
				"x": 3.4826896675,
				"y": -4.0113596723,
				"z": -2.2601262178,
				"element": "H" 
			},
			{
				"x": 4.7335315741,
				"y": -4.230817508,
				"z": -1.0247227059,
				"element": "H" 
			},
			{
				"x": 0.9011850168,
				"y": -0.7480170125,
				"z": -1.511545126,
				"element": "H" 
			},
			{
				"x": -3.0396961067,
				"y": 0.7279738758,
				"z": 0.0211898684,
				"element": "H" 
			},
			{
				"x": -4.5854241503,
				"y": 0.7753223255,
				"z": -1.9159738934,
				"element": "H" 
			},
			{
				"x": -3.5398131248,
				"y": 1.9009379958,
				"z": -2.764112558,
				"element": "H" 
			},
			{
				"x": -2.3573809574,
				"y": -0.7230650211,
				"z": -1.8338787704,
				"element": "H" 
			},
			{
				"x": -0.8798657317,
				"y": 1.0123801876,
				"z": -2.9646897671,
				"element": "H" 
			},
			{
				"x": -1.9127699567,
				"y": 0.9059123766,
				"z": -4.3921447974,
				"element": "H" 
			},
			{
				"x": -0.9814401176,
				"y": -0.5045196589,
				"z": -3.8755574653,
				"element": "H" 
			},
			{
				"x": -4.4971910809,
				"y": -1.4020682648,
				"z": -2.8909278464,
				"element": "H" 
			},
			{
				"x": -4.1431546888,
				"y": -0.4032839454,
				"z": -4.308455029,
				"element": "H" 
			},
			{
				"x": -3.1439519389,
				"y": -1.8195509174,
				"z": -3.9549753064,
				"element": "H" 
			},
			{
				"x": -5.1005922702,
				"y": 3.1090245576,
				"z": 1.6654987944,
				"element": "H" 
			},
			{
				"x": -4.2904838988,
				"y": 1.5380523008,
				"z": 1.7850366764,
				"element": "H" 
			},
			{
				"x": -3.3246567059,
				"y": 3.0266509077,
				"z": 1.7655609035,
				"element": "H" 
			},
			{
				"x": -5.1669369572,
				"y": 4.2688039777,
				"z": -0.3933224548,
				"element": "H" 
			},
			{
				"x": -4.5006095447,
				"y": 3.5410341144,
				"z": -1.8432492827,
				"element": "H" 
			},
			{
				"x": -2.997431071,
				"y": 5.3335981745,
				"z": -1.4243740008,
				"element": "H" 
			},
			{
				"x": -3.0630125539,
				"y": 5.1330087853,
				"z": 0.3130029625,
				"element": "H" 
			},
			{
				"x": -0.5116407556,
				"y": 5.5114523585,
				"z": -0.6584590445,
				"element": "H" 
			}
		],
		 "valence_orbital": [ 
			{
				"type": "occ",
				"energy": -0.20508,
				"method": "rhf"
			},
			{
				"type": "occ",
				"energy": -0.20378,
				"method": "rhf"
			},
			{
				"type": "occ",
				"energy": -0.2011,
				"method": "rhf"
			},
			{
				"type": "occ",
				"energy": -0.19626,
				"method": "rhf"
			},
			{
				"type": "occ",
				"energy": -0.19474,
				"method": "rhf"
			},
			{
				"type": "unocc",
				"energy": 0.00687,
				"method": "rhf"
			},
			{
				"type": "unocc",
				"energy": 0.01403,
				"method": "rhf"
			},
			{
				"type": "unocc",
				"energy": 0.02171,
				"method": "rhf"
			},
			{
				"type": "unocc",
				"energy": 0.02879,
				"method": "rhf"
			},
			{
				"type": "unocc",
				"energy": 0.05886,
				"method": "rhf"
			}
		],
		"cosmo_sigma_profile": { 
			"-0.025": 0.0,
			"-0.024": 0.0,
			"-0.023": 0.0,
			"-0.022": 0.0,
			"-0.021": 0.0,
			"-0.02": 0.0,
			"-0.019": 0.0,
			"-0.018": 0.0,
			"-0.017": 0.0,
			"-0.016": 0.0,
			"-0.015": 0.0381862047588,
			"-0.014": 0.481731016677,
			"-0.013": 0.610845688591,
			"-0.012": 0.245383585595,
			"-0.011": 0.758424846776,
			"-0.01": 0.574838224544,
			"-0.009": 0.837930864955,
			"-0.008": 1.80463993694,
			"-0.007": 1.60032925856,
			"-0.006": 7.3572733705,
			"-0.005": 23.4995150478,
			"-0.004": 30.8615049373,
			"-0.003": 61.8345566979,
			"-0.002": 71.9367422515,
			"-0.001": 76.9036425291,
			"0.0": 73.3587969104,
			"0.001": 56.0812128704,
			"0.002": 51.6180271496,
			"0.003": 30.1353648457,
			"0.004": 22.3266375774,
			"0.005": 18.6987912987,
			"0.006": 14.8696730159,
			"0.007": 8.99419153901,
			"0.008": 7.09893528166,
			"0.009": 5.24204749308,
			"0.01": 2.44389626916,
			"0.011": 0.353835148272,
			"0.012": 0.804467649431,
			"0.013": 0.528960686038,
			"0.014": 0.451431221773,
			"0.015": 0.322584235708,
			"0.016": 0.228293065982,
			"0.017": 0.00619340720858,
			"0.018": 0.0,
			"0.019": 0.0,
			"0.02": 0.0,
			"0.021": 0.0,
			"0.022": 0.0,
			"0.023": 0.0,
			"0.024": 0.0,
			"0.025": 0.0
		}
	}
}
