{
	 "smiles": "CN(CC(O)=O)S(C)(=O)=O", 
	 "Tm": 328.15, 
	 "num_atms": 19, 
	 "gaussian": { 
		 "optdone": 1, 
		 "sigma_profile": "yes", 
		 "theory": "DFT", 
		 "functional": "B3LYP", 
		 "basiset": "6-31G**", 
		 "properties": { 
			 "R2extent": 1782.7814, 
			 "electric_dipole_moment_norm": 5.89318664391, 
			 "electric_quadrupole_moment_norm": 15.6858726381, 
			 "total_energy": -911.622049066, 
			 "HOMO_LUMO_gap": 0.25652, 
			 "cosmo_polarized_energy": -18.51, 
			 "cosmo_cavitation_energy": 23.45, 
			 "cosmo_dispersion_energy": -17.53, 
			 "cosmo_repulsion_energy": 1.36, 
			 "cosmo_total_nonelectrostatic_energy": 7.29, 
			 "SMD_solvation_energy": 4.72 
		},
		"coords": [
			{
				"x": -1.7022872454,
				"y": -0.7871044537,
				"z": -0.8640675388,
				"element": "C" 
			},
			{
				"x": -0.2496016712,
				"y": -0.956745231,
				"z": -0.700370619,
				"element": "N" 
			},
			{
				"x": 0.1811855241,
				"y": -2.0877518321,
				"z": 0.1328631566,
				"element": "C" 
			},
			{
				"x": -0.3360417413,
				"y": -2.0709745594,
				"z": 1.5890880833,
				"element": "C" 
			},
			{
				"x": -0.0665321449,
				"y": -0.973700626,
				"z": 2.3091436613,
				"element": "O" 
			},
			{
				"x": -0.9493723761,
				"y": -3.0069360688,
				"z": 2.0448211481,
				"element": "O" 
			},
			{
				"x": 0.7185919039,
				"y": 0.4164960893,
				"z": -0.7225461214,
				"element": "S" 
			},
			{
				"x": 1.910086635,
				"y": 0.0748886469,
				"z": -2.0258345008,
				"element": "C" 
			},
			{
				"x": -0.1065810327,
				"y": 1.5518598204,
				"z": -1.1303212167,
				"element": "O" 
			},
			{
				"x": 1.4909905112,
				"y": 0.4606955268,
				"z": 0.5413949163,
				"element": "O" 
			},
			{
				"x": -2.1033659802,
				"y": -1.7141648659,
				"z": -1.2831409872,
				"element": "H" 
			},
			{
				"x": -2.2046944192,
				"y": -0.5789997483,
				"z": 0.0879805354,
				"element": "H" 
			},
			{
				"x": -1.8983838648,
				"y": 0.0330187072,
				"z": -1.5525611946,
				"element": "H" 
			},
			{
				"x": 1.2745366916,
				"y": -2.1342951465,
				"z": 0.1446912789,
				"element": "H" 
			},
			{
				"x": -0.1930906564,
				"y": -3.0083714008,
				"z": -0.3204623436,
				"element": "H" 
			},
			{
				"x": 0.5173937137,
				"y": -0.3562690297,
				"z": 1.8149910252,
				"element": "H" 
			},
			{
				"x": 1.3715944053,
				"y": 0.0033250266,
				"z": -2.9708235104,
				"element": "H" 
			},
			{
				"x": 2.4336422166,
				"y": -0.854998756,
				"z": -1.8007293276,
				"element": "H" 
			},
			{
				"x": 2.6132295307,
				"y": 0.9095279008,
				"z": -2.0422164448,
				"element": "H" 
			}
		],
		 "valence_orbital": [ 
			{
				"type": "occ",
				"energy": -0.33479,
				"method": "rhf"
			},
			{
				"type": "occ",
				"energy": -0.32852,
				"method": "rhf"
			},
			{
				"type": "occ",
				"energy": -0.31003,
				"method": "rhf"
			},
			{
				"type": "occ",
				"energy": -0.29333,
				"method": "rhf"
			},
			{
				"type": "occ",
				"energy": -0.25799,
				"method": "rhf"
			},
			{
				"type": "unocc",
				"energy": -0.00147,
				"method": "rhf"
			},
			{
				"type": "unocc",
				"energy": 0.0416,
				"method": "rhf"
			},
			{
				"type": "unocc",
				"energy": 0.04901,
				"method": "rhf"
			},
			{
				"type": "unocc",
				"energy": 0.06815,
				"method": "rhf"
			},
			{
				"type": "unocc",
				"energy": 0.07376,
				"method": "rhf"
			}
		],
		"cosmo_sigma_profile": { 
			"-0.025": 0.0,
			"-0.024": 0.0,
			"-0.023": 0.0,
			"-0.022": 0.0,
			"-0.021": 0.0,
			"-0.02": 0.0,
			"-0.019": 0.0,
			"-0.018": 0.0,
			"-0.017": 0.0,
			"-0.016": 0.0,
			"-0.015": 0.0,
			"-0.014": 0.0,
			"-0.013": 0.0,
			"-0.012": 0.0908463512802,
			"-0.011": 0.852344006638,
			"-0.01": 2.40177566416,
			"-0.009": 7.9040519113,
			"-0.008": 8.92561398397,
			"-0.007": 11.8292363095,
			"-0.006": 12.5750291226,
			"-0.005": 18.9978479845,
			"-0.004": 16.0875979546,
			"-0.003": 13.5234359212,
			"-0.002": 8.7249677129,
			"-0.001": 4.22967352731,
			"0.0": 5.39766277276,
			"0.001": 5.22213938607,
			"0.002": 4.15238487613,
			"0.003": 4.27268820918,
			"0.004": 4.45706869973,
			"0.005": 4.92833572697,
			"0.006": 4.45299328538,
			"0.007": 4.10189054396,
			"0.008": 5.18470259686,
			"0.009": 8.06345129838,
			"0.01": 11.3914411134,
			"0.011": 10.051037181,
			"0.012": 5.17036287383,
			"0.013": 2.08050268556,
			"0.014": 0.0638829839124,
			"0.015": 0.0,
			"0.016": 0.0,
			"0.017": 0.0,
			"0.018": 0.0,
			"0.019": 0.0,
			"0.02": 0.0,
			"0.021": 0.0,
			"0.022": 0.0,
			"0.023": 0.0,
			"0.024": 0.0,
			"0.025": 0.0
		}
	}
}
