{
	 "smiles": "OC(=O)C1=CC=C(C=C1)S(=O)(=O)NCC1=CC=CO1", 
	 "Tm": 503.15, 
	 "num_atms": 30, 
	 "gaussian": { 
		 "optdone": 1, 
		 "sigma_profile": "yes", 
		 "theory": "DFT", 
		 "functional": "B3LYP", 
		 "basiset": "6-31G**", 
		 "properties": { 
			 "R2extent": 6715.9591, 
			 "electric_dipole_moment_norm": 5.39548608654, 
			 "electric_quadrupole_moment_norm": 22.1740495929, 
			 "total_energy": -1292.87996523, 
			 "HOMO_LUMO_gap": 0.16471, 
			 "cosmo_polarized_energy": -20.88, 
			 "cosmo_cavitation_energy": 36.92, 
			 "cosmo_dispersion_energy": -25.74, 
			 "cosmo_repulsion_energy": 1.94, 
			 "cosmo_total_nonelectrostatic_energy": 13.12, 
			 "SMD_solvation_energy": 7.17 
		},
		"coords": [
			{
				"x": -2.2305375144,
				"y": 4.0235994901,
				"z": -2.0342146514,
				"element": "O" 
			},
			{
				"x": -0.9658331653,
				"y": 3.5506069796,
				"z": -1.9200720539,
				"element": "C" 
			},
			{
				"x": -0.0169954011,
				"y": 4.2783835121,
				"z": -1.707254525,
				"element": "O" 
			},
			{
				"x": -0.8807156212,
				"y": 2.0718359769,
				"z": -2.0788489297,
				"element": "C" 
			},
			{
				"x": 0.3866713375,
				"y": 1.4790247076,
				"z": -2.002680966,
				"element": "C" 
			},
			{
				"x": 0.5250852624,
				"y": 0.1013535062,
				"z": -2.1395800422,
				"element": "C" 
			},
			{
				"x": -0.6154078467,
				"y": -0.6765217208,
				"z": -2.35197539,
				"element": "C" 
			},
			{
				"x": -1.8842014038,
				"y": -0.0986171327,
				"z": -2.4452382708,
				"element": "C" 
			},
			{
				"x": -2.0156681643,
				"y": 1.2806467729,
				"z": -2.3053312154,
				"element": "C" 
			},
			{
				"x": -0.4537355026,
				"y": -2.4644856111,
				"z": -2.5206750372,
				"element": "S" 
			},
			{
				"x": -1.5945016467,
				"y": -2.9070360795,
				"z": -3.3227791731,
				"element": "O" 
			},
			{
				"x": 0.9372995596,
				"y": -2.7370638037,
				"z": -2.8874764674,
				"element": "O" 
			},
			{
				"x": -0.6787604093,
				"y": -3.1588336229,
				"z": -1.0208701879,
				"element": "N" 
			},
			{
				"x": 0.3776771999,
				"y": -3.2760160022,
				"z": -0.0057043114,
				"element": "C" 
			},
			{
				"x": 0.2772928362,
				"y": -2.3179717042,
				"z": 1.1337560387,
				"element": "C" 
			},
			{
				"x": -0.1082548869,
				"y": -2.4600260081,
				"z": 2.4356216563,
				"element": "C" 
			},
			{
				"x": -0.0048953242,
				"y": -1.1630211517,
				"z": 3.0385558763,
				"element": "C" 
			},
			{
				"x": 0.4335488382,
				"y": -0.3275470767,
				"z": 2.0580531487,
				"element": "C" 
			},
			{
				"x": 0.6132145144,
				"y": -1.0126632136,
				"z": 0.8928243692,
				"element": "O" 
			},
			{
				"x": -2.166933533,
				"y": 4.9858301332,
				"z": -1.9174632697,
				"element": "H" 
			},
			{
				"x": 1.250245129,
				"y": 2.1150647473,
				"z": -1.8415668963,
				"element": "H" 
			},
			{
				"x": 1.4998755605,
				"y": -0.3700509963,
				"z": -2.0990677249,
				"element": "H" 
			},
			{
				"x": -2.7475993964,
				"y": -0.7219264287,
				"z": -2.6503342764,
				"element": "H" 
			},
			{
				"x": -2.9909860476,
				"y": 1.7473584029,
				"z": -2.3791823017,
				"element": "H" 
			},
			{
				"x": -1.6405114963,
				"y": -3.1349971034,
				"z": -0.7022229491,
				"element": "H" 
			},
			{
				"x": 1.3296230538,
				"y": -3.1722731943,
				"z": -0.5338500061,
				"element": "H" 
			},
			{
				"x": 0.3463478875,
				"y": -4.293447426,
				"z": 0.3982636133,
				"element": "H" 
			},
			{
				"x": -0.4234838683,
				"y": -3.3786665991,
				"z": 2.9103540262,
				"element": "H" 
			},
			{
				"x": -0.2260045368,
				"y": -0.8950884057,
				"z": 4.0615344718,
				"element": "H" 
			},
			{
				"x": 0.6606445859,
				"y": 0.726649052,
				"z": 2.0230254449,
				"element": "H" 
			}
		],
		 "valence_orbital": [ 
			{
				"type": "occ",
				"energy": -0.28943,
				"method": "rhf"
			},
			{
				"type": "occ",
				"energy": -0.28859,
				"method": "rhf"
			},
			{
				"type": "occ",
				"energy": -0.27649,
				"method": "rhf"
			},
			{
				"type": "occ",
				"energy": -0.26775,
				"method": "rhf"
			},
			{
				"type": "occ",
				"energy": -0.23619,
				"method": "rhf"
			},
			{
				"type": "unocc",
				"energy": -0.07148,
				"method": "rhf"
			},
			{
				"type": "unocc",
				"energy": -0.02629,
				"method": "rhf"
			},
			{
				"type": "unocc",
				"energy": -0.00529,
				"method": "rhf"
			},
			{
				"type": "unocc",
				"energy": 0.02733,
				"method": "rhf"
			},
			{
				"type": "unocc",
				"energy": 0.05413,
				"method": "rhf"
			}
		],
		"cosmo_sigma_profile": { 
			"-0.025": 0.0,
			"-0.024": 0.0,
			"-0.023": 0.0,
			"-0.022": 0.0,
			"-0.021": 0.0,
			"-0.02": 0.0,
			"-0.019": 0.361719230607,
			"-0.018": 1.06731998227,
			"-0.017": 0.605193809948,
			"-0.016": 0.853241378982,
			"-0.015": 1.97821595812,
			"-0.014": 1.96881484928,
			"-0.013": 1.30312485288,
			"-0.012": 1.70839630526,
			"-0.011": 1.9824877276,
			"-0.01": 1.24200220255,
			"-0.009": 2.76228689522,
			"-0.008": 5.84922248179,
			"-0.007": 14.4103896045,
			"-0.006": 18.1723147833,
			"-0.005": 14.0203997381,
			"-0.004": 17.5102554718,
			"-0.003": 18.4313781196,
			"-0.002": 15.5075571613,
			"-0.001": 17.9233973104,
			"0.0": 20.4305766815,
			"0.001": 23.6045273299,
			"0.002": 18.0404751364,
			"0.003": 14.8267245701,
			"0.004": 15.879092603,
			"0.005": 13.4532722581,
			"0.006": 7.37816697463,
			"0.007": 6.82660711235,
			"0.008": 5.56246128732,
			"0.009": 5.77695159356,
			"0.01": 8.73497426154,
			"0.011": 13.5500017996,
			"0.012": 4.06981055064,
			"0.013": 0.0,
			"0.014": 0.0,
			"0.015": 0.0,
			"0.016": 0.0,
			"0.017": 0.0,
			"0.018": 0.0,
			"0.019": 0.0,
			"0.02": 0.0,
			"0.021": 0.0,
			"0.022": 0.0,
			"0.023": 0.0,
			"0.024": 0.0,
			"0.0": 0.0
		}
	}
}
