{
	 "smiles": "OC(=O)CC1CCS(=O)(=O)C1", 
	 "Tm": 361.15, 
	 "num_atms": 21, 
	 "gaussian": { 
		 "optdone": 1, 
		 "sigma_profile": "yes", 
		 "theory": "DFT", 
		 "functional": "B3LYP", 
		 "basiset": "6-31G**", 
		 "properties": { 
			 "R2extent": 3197.4243, 
			 "electric_dipole_moment_norm": 7.29378825783, 
			 "electric_quadrupole_moment_norm": 17.6517952138, 
			 "total_energy": -933.69655013, 
			 "HOMO_LUMO_gap": 0.26875, 
			 "cosmo_polarized_energy": -27.52, 
			 "cosmo_cavitation_energy": 25.35, 
			 "cosmo_dispersion_energy": -19.11, 
			 "cosmo_repulsion_energy": 1.5, 
			 "cosmo_total_nonelectrostatic_energy": 7.74, 
			 "SMD_solvation_energy": 4.28 
		},
		"coords": [
			{
				"x": -0.0122083624,
				"y": -3.9721518716,
				"z": -2.4553663224,
				"element": "O" 
			},
			{
				"x": 0.3494755761,
				"y": -3.450580938,
				"z": -1.2554368332,
				"element": "C" 
			},
			{
				"x": 0.4459877096,
				"y": -4.1637390163,
				"z": -0.2883166427,
				"element": "O" 
			},
			{
				"x": 0.6250435465,
				"y": -1.9495488034,
				"z": -1.2496779046,
				"element": "C" 
			},
			{
				"x": 0.9595918289,
				"y": -1.4064776314,
				"z": 0.14136797,
				"element": "C" 
			},
			{
				"x": 1.4338284025,
				"y": 0.0664274239,
				"z": 0.1050197321,
				"element": "C" 
			},
			{
				"x": 1.5332423516,
				"y": 0.534592026,
				"z": 1.5565395753,
				"element": "C" 
			},
			{
				"x": 0.0189198345,
				"y": -0.1323031799,
				"z": 2.3456676095,
				"element": "S" 
			},
			{
				"x": -1.0630916959,
				"y": 0.8528932219,
				"z": 2.1755088703,
				"element": "O" 
			},
			{
				"x": 0.3344330934,
				"y": -0.681277116,
				"z": 3.6725778054,
				"element": "O" 
			},
			{
				"x": -0.2303911238,
				"y": -1.4817846902,
				"z": 1.1174221724,
				"element": "C" 
			},
			{
				"x": -0.0489424296,
				"y": -3.2808690378,
				"z": -3.1318825275,
				"element": "H" 
			},
			{
				"x": 1.461398215,
				"y": -1.7568429763,
				"z": -1.9370603812,
				"element": "H" 
			},
			{
				"x": -0.2442632078,
				"y": -1.4229138534,
				"z": -1.6685415712,
				"element": "H" 
			},
			{
				"x": 1.7697960443,
				"y": -2.0190898422,
				"z": 0.5531254766,
				"element": "H" 
			},
			{
				"x": 0.7059101174,
				"y": 0.6852335226,
				"z": -0.4336212728,
				"element": "H" 
			},
			{
				"x": 2.3950951658,
				"y": 0.1613443425,
				"z": -0.4100744548,
				"element": "H" 
			},
			{
				"x": 1.5234792001,
				"y": 1.6169312356,
				"z": 1.6930409223,
				"element": "H" 
			},
			{
				"x": 2.3880786998,
				"y": 0.0966410483,
				"z": 2.0781578145,
				"element": "H" 
			},
			{
				"x": -0.2939650893,
				"y": -2.4309887527,
				"z": 1.648058333,
				"element": "H" 
			},
			{
				"x": -1.1850178767,
				"y": -1.2599951116,
				"z": 0.632591629,
				"element": "H" 
			}
		],
		 "valence_orbital": [ 
			{
				"type": "occ",
				"energy": -0.31697,
				"method": "rhf"
			},
			{
				"type": "occ",
				"energy": -0.30556,
				"method": "rhf"
			},
			{
				"type": "occ",
				"energy": -0.29354,
				"method": "rhf"
			},
			{
				"type": "occ",
				"energy": -0.29099,
				"method": "rhf"
			},
			{
				"type": "occ",
				"energy": -0.27889,
				"method": "rhf"
			},
			{
				"type": "unocc",
				"energy": -0.01014,
				"method": "rhf"
			},
			{
				"type": "unocc",
				"energy": 0.03437,
				"method": "rhf"
			},
			{
				"type": "unocc",
				"energy": 0.04707,
				"method": "rhf"
			},
			{
				"type": "unocc",
				"energy": 0.05896,
				"method": "rhf"
			},
			{
				"type": "unocc",
				"energy": 0.07067,
				"method": "rhf"
			}
		],
		"cosmo_sigma_profile": { 
			"-0.025": 0.0,
			"-0.024": 0.0,
			"-0.023": 0.0,
			"-0.022": 0.0,
			"-0.021": 0.0,
			"-0.02": 0.0746534390006,
			"-0.019": 0.915293101151,
			"-0.018": 1.08814151567,
			"-0.017": 1.29891694286,
			"-0.016": 1.04977754563,
			"-0.015": 0.892985914881,
			"-0.014": 0.912248010511,
			"-0.013": 0.765489275677,
			"-0.012": 1.90372005502,
			"-0.011": 1.41607793623,
			"-0.01": 1.14300866109,
			"-0.009": 1.78436501973,
			"-0.008": 10.1306502785,
			"-0.007": 15.1798502805,
			"-0.006": 16.8047540022,
			"-0.005": 21.3450664463,
			"-0.004": 15.4083805254,
			"-0.003": 9.9978618068,
			"-0.002": 7.05884041632,
			"-0.001": 4.6264358614,
			"0.0": 4.4361617964,
			"0.001": 3.53216951669,
			"0.002": 3.97154817673,
			"0.003": 4.83560504014,
			"0.004": 3.30276740756,
			"0.005": 3.43641714476,
			"0.006": 4.22120256943,
			"0.007": 4.65564749345,
			"0.008": 4.68791361789,
			"0.009": 5.45071298958,
			"0.01": 8.6568312694,
			"0.011": 12.8811463438,
			"0.012": 15.7490574863,
			"0.013": 4.90562082931,
			"0.014": 0.0136274847124,
			"0.015": 0.0,
			"0.016": 0.0,
			"0.017": 0.0,
			"0.018": 0.0,
			"0.019": 0.0,
			"0.02": 0.0,
			"0.021": 0.0,
			"0.022": 0.0,
			"0.023": 0.0,
			"0.024": 0.0,
			"0.025": 0.0
		}
	}
}
