{
	 "smiles": "CC1(NC(=O)N(CC(O)=O)C1=O)C1=CC=C(F)C=C1", 
	 "Tm": 441.15, 
	 "num_atms": 30, 
	 "gaussian": { 
		 "optdone": 1, 
		 "sigma_profile": "yes", 
		 "theory": "DFT", 
		 "functional": "B3LYP", 
		 "basiset": "6-31G**", 
		 "properties": { 
			 "R2extent": 6003.4749, 
			 "electric_dipole_moment_norm": 3.44511823019, 
			 "electric_quadrupole_moment_norm": 13.369118125, 
			 "total_energy": -974.195418553, 
			 "HOMO_LUMO_gap": 0.22252, 
			 "cosmo_polarized_energy": -20.33, 
			 "cosmo_cavitation_energy": 35.69, 
			 "cosmo_dispersion_energy": -24.26, 
			 "cosmo_repulsion_energy": 1.85, 
			 "cosmo_total_nonelectrostatic_energy": 13.28, 
			 "SMD_solvation_energy": 9.27 
		},
		"coords": [
			{
				"x": 0.8214607692,
				"y": -1.678639843,
				"z": -0.5241438791,
				"element": "C" 
			},
			{
				"x": 0.1417385392,
				"y": -0.5959903289,
				"z": 0.3410965526,
				"element": "C" 
			},
			{
				"x": 0.2672939238,
				"y": -0.9020940487,
				"z": 1.7661163521,
				"element": "N" 
			},
			{
				"x": 1.122575641,
				"y": -0.0620819153,
				"z": 2.4338955281,
				"element": "C" 
			},
			{
				"x": 1.5165932696,
				"y": -0.1332185944,
				"z": 3.5795325621,
				"element": "O" 
			},
			{
				"x": 1.4662337203,
				"y": 0.955854332,
				"z": 1.5144969142,
				"element": "N" 
			},
			{
				"x": 2.402830936,
				"y": 2.0072598074,
				"z": 1.8297701575,
				"element": "C" 
			},
			{
				"x": 3.8449424863,
				"y": 1.7385124167,
				"z": 1.4121302369,
				"element": "C" 
			},
			{
				"x": 4.0514338681,
				"y": 0.4702573015,
				"z": 0.9989688796,
				"element": "O" 
			},
			{
				"x": 4.7121637951,
				"y": 2.5773969188,
				"z": 1.4687590074,
				"element": "O" 
			},
			{
				"x": 0.9753014389,
				"y": 0.7073428867,
				"z": 0.2506432329,
				"element": "C" 
			},
			{
				"x": 1.1837769798,
				"y": 1.3750489332,
				"z": -0.7417176856,
				"element": "O" 
			},
			{
				"x": -1.3071269066,
				"y": -0.3489446104,
				"z": -0.0931721444,
				"element": "C" 
			},
			{
				"x": -2.3787686017,
				"y": -0.5689615759,
				"z": 0.7790350484,
				"element": "C" 
			},
			{
				"x": -3.6962737826,
				"y": -0.3691651658,
				"z": 0.3633834501,
				"element": "C" 
			},
			{
				"x": -3.9289677295,
				"y": 0.0633894982,
				"z": -0.9352793317,
				"element": "C" 
			},
			{
				"x": -5.1986829149,
				"y": 0.2585409341,
				"z": -1.3455136293,
				"element": "F" 
			},
			{
				"x": -2.8865075874,
				"y": 0.3069865269,
				"z": -1.823185124,
				"element": "C" 
			},
			{
				"x": -1.5771358167,
				"y": 0.097052452,
				"z": -1.3966832034,
				"element": "C" 
			},
			{
				"x": 0.2815819982,
				"y": -2.6257819687,
				"z": -0.4289429644,
				"element": "H" 
			},
			{
				"x": 1.8585393359,
				"y": -1.8231837368,
				"z": -0.2070548903,
				"element": "H" 
			},
			{
				"x": 0.8177699896,
				"y": -1.3840553099,
				"z": -1.5752491633,
				"element": "H" 
			},
			{
				"x": 0.1029127008,
				"y": -1.8227369092,
				"z": 2.1455075938,
				"element": "H" 
			},
			{
				"x": 2.3944683295,
				"y": 2.1496711932,
				"z": 2.9138057355,
				"element": "H" 
			},
			{
				"x": 2.0916712956,
				"y": 2.9370496144,
				"z": 1.3487729161,
				"element": "H" 
			},
			{
				"x": 4.9946619863,
				"y": 0.4109020601,
				"z": 0.7709826098,
				"element": "H" 
			},
			{
				"x": -2.1878085309,
				"y": -0.8868487044,
				"z": 1.797925025,
				"element": "H" 
			},
			{
				"x": -4.5333964611,
				"y": -0.5390814071,
				"z": 1.0317077453,
				"element": "H" 
			},
			{
				"x": -3.1062225289,
				"y": 0.6584809906,
				"z": -2.8254072632,
				"element": "H" 
			},
			{
				"x": -0.7572601427,
				"y": 0.3138382531,
				"z": -2.0721802686,
				"element": "H" 
			}
		],
		 "valence_orbital": [ 
			{
				"type": "occ",
				"energy": -0.28348,
				"method": "rhf"
			},
			{
				"type": "occ",
				"energy": -0.27626,
				"method": "rhf"
			},
			{
				"type": "occ",
				"energy": -0.27103,
				"method": "rhf"
			},
			{
				"type": "occ",
				"energy": -0.2673,
				"method": "rhf"
			},
			{
				"type": "occ",
				"energy": -0.248,
				"method": "rhf"
			},
			{
				"type": "unocc",
				"energy": -0.02548,
				"method": "rhf"
			},
			{
				"type": "unocc",
				"energy": -0.01898,
				"method": "rhf"
			},
			{
				"type": "unocc",
				"energy": -0.00258,
				"method": "rhf"
			},
			{
				"type": "unocc",
				"energy": -0.00081,
				"method": "rhf"
			},
			{
				"type": "unocc",
				"energy": 0.04463,
				"method": "rhf"
			}
		],
		"cosmo_sigma_profile": { 
			"-0.025": 0.0,
			"-0.024": 0.0,
			"-0.023": 0.0,
			"-0.022": 0.0,
			"-0.021": 0.0,
			"-0.02": 0.0,
			"-0.019": 0.627188627971,
			"-0.018": 0.964346286517,
			"-0.017": 0.852797339964,
			"-0.016": 1.18470795191,
			"-0.015": 1.9208286169,
			"-0.014": 1.87746699206,
			"-0.013": 1.60557491324,
			"-0.012": 2.01445289272,
			"-0.011": 1.93291819279,
			"-0.01": 2.34676072725,
			"-0.009": 3.07193289243,
			"-0.008": 6.02873483131,
			"-0.007": 9.83523942016,
			"-0.006": 12.1341087987,
			"-0.005": 17.3248570823,
			"-0.004": 18.7990089796,
			"-0.003": 18.2597201461,
			"-0.002": 17.1084019888,
			"-0.001": 17.3103880654,
			"0.0": 16.1706253961,
			"0.001": 18.3172478733,
			"0.002": 16.4295835105,
			"0.003": 20.7209079564,
			"0.004": 22.7029778288,
			"0.005": 8.74343203778,
			"0.006": 5.28635955423,
			"0.007": 3.27549010958,
			"0.008": 3.62310353737,
			"0.009": 6.02819493517,
			"0.01": 5.67232829355,
			"0.011": 11.5664458512,
			"0.012": 8.46305011683,
			"0.013": 1.75265413483,
			"0.014": 0.0420293213606,
			"0.015": 0.0,
			"0.016": 0.0,
			"0.017": 0.0,
			"0.018": 0.0,
			"0.019": 0.0,
			"0.02": 0.0,
			"0.021": 0.0,
			"0.022": 0.0,
			"0.023": 0.0,
			"0.024": 0.0,
			"0.025": 0.0
		}
	}
}
