{
	 "smiles": "COC1=CC(Br)=CC(F)=C1F", 
	 "Tm": 308.15, 
	 "num_atms": 16, 
	 "gaussian": { 
		 "optdone": 1, 
		 "sigma_profile": "yes", 
		 "theory": "DFT", 
		 "functional": "B3LYP", 
		 "basiset": "6-31G**", 
		 "properties": { 
			 "R2extent": 3095.795, 
			 "electric_dipole_moment_norm": 1.8574029019, 
			 "electric_quadrupole_moment_norm": 8.64745948935, 
			 "total_energy": -3116.02490128, 
			 "HOMO_LUMO_gap": 0.22098, 
			 "cosmo_polarized_energy": -4.17, 
			 "cosmo_cavitation_energy": 23.62, 
			 "cosmo_dispersion_energy": -17.78, 
			 "cosmo_repulsion_energy": 1.39, 
			 "cosmo_total_nonelectrostatic_energy": 7.22, 
			 "SMD_solvation_energy": 4.68 
		},
		"coords": [
			{
				"x": -3.3002882741,
				"y": 0.2226668192,
				"z": -1.1522466575,
				"element": "C" 
			},
			{
				"x": -2.0620631997,
				"y": -0.4923861957,
				"z": -1.2068219669,
				"element": "O" 
			},
			{
				"x": -0.9148162331,
				"y": 0.0380706852,
				"z": -0.7191533162,
				"element": "C" 
			},
			{
				"x": 0.2217344099,
				"y": -0.7811217455,
				"z": -0.8422592767,
				"element": "C" 
			},
			{
				"x": 1.4545247495,
				"y": -0.3453654692,
				"z": -0.3787429526,
				"element": "C" 
			},
			{
				"x": 2.9730869371,
				"y": -1.4863128812,
				"z": -0.5639482604,
				"element": "Br" 
			},
			{
				"x": 1.6189347568,
				"y": 0.9042435193,
				"z": 0.220116547,
				"element": "C" 
			},
			{
				"x": 0.4927630358,
				"y": 1.7037006823,
				"z": 0.3364756463,
				"element": "C" 
			},
			{
				"x": 0.5859967168,
				"y": 2.9170930206,
				"z": 0.9034802514,
				"element": "F" 
			},
			{
				"x": -0.7618377673,
				"y": 1.2960054976,
				"z": -0.1190429619,
				"element": "C" 
			},
			{
				"x": -1.7963977613,
				"y": 2.1503185559,
				"z": 0.0416923999,
				"element": "F" 
			},
			{
				"x": -3.595419096,
				"y": 0.4377735397,
				"z": -0.1216734804,
				"element": "H" 
			},
			{
				"x": -3.2504252937,
				"y": 1.1569991502,
				"z": -1.7179488026,
				"element": "H" 
			},
			{
				"x": -4.0304496098,
				"y": -0.445241091,
				"z": -1.6110020412,
				"element": "H" 
			},
			{
				"x": 0.1005117574,
				"y": -1.7518018858,
				"z": -1.3060452772,
				"element": "H" 
			},
			{
				"x": 2.5749448717,
				"y": 1.2552577984,
				"z": 0.5854201488,
				"element": "H" 
			}
		],
		 "valence_orbital": [ 
			{
				"type": "occ",
				"energy": -0.34307,
				"method": "rhf"
			},
			{
				"type": "occ",
				"energy": -0.29865,
				"method": "rhf"
			},
			{
				"type": "occ",
				"energy": -0.29287,
				"method": "rhf"
			},
			{
				"type": "occ",
				"energy": -0.24798,
				"method": "rhf"
			},
			{
				"type": "occ",
				"energy": -0.23643,
				"method": "rhf"
			},
			{
				"type": "unocc",
				"energy": -0.01545,
				"method": "rhf"
			},
			{
				"type": "unocc",
				"energy": -0.01261,
				"method": "rhf"
			},
			{
				"type": "unocc",
				"energy": -0.00457,
				"method": "rhf"
			},
			{
				"type": "unocc",
				"energy": 0.06277,
				"method": "rhf"
			},
			{
				"type": "unocc",
				"energy": 0.11613,
				"method": "rhf"
			}
		],
		"cosmo_sigma_profile": { 
			"-0.025": 0.0,
			"-0.024": 0.0,
			"-0.023": 0.0,
			"-0.022": 0.0,
			"-0.021": 0.0,
			"-0.02": 0.0,
			"-0.019": 0.0,
			"-0.018": 0.0,
			"-0.017": 0.0,
			"-0.016": 0.0,
			"-0.015": 0.0,
			"-0.014": 0.0,
			"-0.013": 0.0,
			"-0.012": 0.0,
			"-0.011": 0.0,
			"-0.01": 0.0,
			"-0.009": 0.69648875736,
			"-0.008": 1.6929255791,
			"-0.007": 2.91143528167,
			"-0.006": 6.99777813784,
			"-0.005": 11.184418257,
			"-0.004": 14.3224895494,
			"-0.003": 12.3201991139,
			"-0.002": 13.1044097816,
			"-0.001": 17.3521551324,
			"0.0": 17.919266104,
			"0.001": 19.7109554785,
			"0.002": 20.8002964501,
			"0.003": 24.6273331341,
			"0.004": 20.6709017153,
			"0.005": 3.82612838113,
			"0.006": 1.31234704784,
			"0.007": 1.17224035306,
			"0.008": 1.52015038217,
			"0.009": 1.02732697664,
			"0.01": 0.0017658478975,
			"0.011": 0.0,
			"0.012": 0.0,
			"0.013": 0.0,
			"0.014": 0.0,
			"0.015": 0.0,
			"0.016": 0.0,
			"0.017": 0.0,
			"0.018": 0.0,
			"0.019": 0.0,
			"0.02": 0.0,
			"0.021": 0.0,
			"0.022": 0.0,
			"0.023": 0.0,
			"0.024": 0.0,
			"0.025": 0.0
		}
	}
}
