{
	 "smiles": "O=C(NC(C#N)C1CC1)C1=CC=CC=C1", 
	 "Tm": 365.15, 
	 "num_atms": 27, 
	 "gaussian": { 
		 "optdone": 1, 
		 "sigma_profile": "yes", 
		 "theory": "DFT", 
		 "functional": "B3LYP", 
		 "basiset": "6-31G**", 
		 "properties": { 
			 "R2extent": 3674.8743, 
			 "electric_dipole_moment_norm": 4.63826240525, 
			 "electric_quadrupole_moment_norm": 17.3542691837, 
			 "total_energy": -649.192135131, 
			 "HOMO_LUMO_gap": 0.20831, 
			 "cosmo_polarized_energy": -15.62, 
			 "cosmo_cavitation_energy": 32.37, 
			 "cosmo_dispersion_energy": -21.63, 
			 "cosmo_repulsion_energy": 1.72, 
			 "cosmo_total_nonelectrostatic_energy": 12.46, 
			 "SMD_solvation_energy": 6.45 
		},
		"coords": [
			{
				"x": -0.459673956,
				"y": 2.1043947254,
				"z": 1.9349363165,
				"element": "O" 
			},
			{
				"x": -0.1518180794,
				"y": 1.2050323719,
				"z": 1.1660637553,
				"element": "C" 
			},
			{
				"x": -0.8881205755,
				"y": 0.9950353648,
				"z": 0.0033460157,
				"element": "N" 
			},
			{
				"x": -1.1316863956,
				"y": -0.2965279969,
				"z": -0.6424235617,
				"element": "C" 
			},
			{
				"x": -2.2166187944,
				"y": -1.0415189092,
				"z": 0.0426155706,
				"element": "C" 
			},
			{
				"x": -3.0749543517,
				"y": -1.60723062,
				"z": 0.5820411597,
				"element": "N" 
			},
			{
				"x": -1.4299435966,
				"y": -0.0947599452,
				"z": -2.125229221,
				"element": "C" 
			},
			{
				"x": -2.2139163724,
				"y": -1.0960401121,
				"z": -2.933383743,
				"element": "C" 
			},
			{
				"x": -2.8153992505,
				"y": 0.2515131041,
				"z": -2.6176215789,
				"element": "C" 
			},
			{
				"x": 1.0580344262,
				"y": 0.3505943226,
				"z": 1.4035705403,
				"element": "C" 
			},
			{
				"x": 1.9430593115,
				"y": -0.0088511204,
				"z": 0.3764802444,
				"element": "C" 
			},
			{
				"x": 3.0937176148,
				"y": -0.7431443372,
				"z": 0.6663171678,
				"element": "C" 
			},
			{
				"x": 3.3630988463,
				"y": -1.1297560145,
				"z": 1.9805414462,
				"element": "C" 
			},
			{
				"x": 2.4910143804,
				"y": -0.762640889,
				"z": 3.0090263053,
				"element": "C" 
			},
			{
				"x": 1.3511542912,
				"y": -0.013974237,
				"z": 2.7246291267,
				"element": "C" 
			},
			{
				"x": -1.6748021888,
				"y": 1.635178521,
				"z": -0.0418601057,
				"element": "H" 
			},
			{
				"x": -0.226107152,
				"y": -0.9006835998,
				"z": -0.5393705383,
				"element": "H" 
			},
			{
				"x": -0.6006552592,
				"y": 0.3987447822,
				"z": -2.6255914644,
				"element": "H" 
			},
			{
				"x": -2.6293825901,
				"y": -1.9579379774,
				"z": -2.4201894951,
				"element": "H" 
			},
			{
				"x": -1.8786038648,
				"y": -1.2948108853,
				"z": -3.9462340838,
				"element": "H" 
			},
			{
				"x": -3.6267068165,
				"y": 0.2720811358,
				"z": -1.895294861,
				"element": "H" 
			},
			{
				"x": -2.9014249305,
				"y": 0.9868008559,
				"z": -3.4111323663,
				"element": "H" 
			},
			{
				"x": 1.7513623084,
				"y": 0.3175264514,
				"z": -0.6417741357,
				"element": "H" 
			},
			{
				"x": 3.7819693584,
				"y": -1.0061223932,
				"z": -0.1315841231,
				"element": "H" 
			},
			{
				"x": 4.255293372,
				"y": -1.7073046977,
				"z": 2.204415098,
				"element": "H" 
			},
			{
				"x": 2.7044631714,
				"y": -1.0537600336,
				"z": 4.0332079903,
				"element": "H" 
			},
			{
				"x": 0.6771470935,
				"y": 0.3000621332,
				"z": 3.5146985412,
				"element": "H" 
			}
		],
		 "valence_orbital": [ 
			{
				"type": "occ",
				"energy": -0.3113,
				"method": "rhf"
			},
			{
				"type": "occ",
				"energy": -0.28096,
				"method": "rhf"
			},
			{
				"type": "occ",
				"energy": -0.26889,
				"method": "rhf"
			},
			{
				"type": "occ",
				"energy": -0.266,
				"method": "rhf"
			},
			{
				"type": "occ",
				"energy": -0.25216,
				"method": "rhf"
			},
			{
				"type": "unocc",
				"energy": -0.04385,
				"method": "rhf"
			},
			{
				"type": "unocc",
				"energy": -0.01791,
				"method": "rhf"
			},
			{
				"type": "unocc",
				"energy": 0.0139,
				"method": "rhf"
			},
			{
				"type": "unocc",
				"energy": 0.02363,
				"method": "rhf"
			},
			{
				"type": "unocc",
				"energy": 0.04434,
				"method": "rhf"
			}
		],
		"cosmo_sigma_profile": { 
			"-0.025": 0.0,
			"-0.024": 0.0,
			"-0.023": 0.0,
			"-0.022": 0.0,
			"-0.021": 0.0,
			"-0.02": 0.0,
			"-0.019": 0.0,
			"-0.018": 0.0,
			"-0.017": 0.0,
			"-0.016": 0.0,
			"-0.015": 0.0,
			"-0.014": 0.0,
			"-0.013": 0.0,
			"-0.012": 0.0,
			"-0.011": 0.666352338595,
			"-0.01": 1.27458970769,
			"-0.009": 2.48626119677,
			"-0.008": 5.72851532349,
			"-0.007": 7.84391610739,
			"-0.006": 16.1874238064,
			"-0.005": 22.9415685983,
			"-0.004": 23.8280984116,
			"-0.003": 19.739019965,
			"-0.002": 18.6380366116,
			"-0.001": 17.7750951334,
			"0.0": 17.2193621405,
			"0.001": 14.5133718267,
			"0.002": 16.305631531,
			"0.003": 13.6305179953,
			"0.004": 15.706811684,
			"0.005": 6.26602589373,
			"0.006": 4.42044899905,
			"0.007": 3.51519207628,
			"0.008": 4.74940934333,
			"0.009": 4.82691775415,
			"0.01": 4.00803276725,
			"0.011": 4.53361264704,
			"0.012": 6.47444596847,
			"0.013": 4.89959399594,
			"0.014": 0.530809318995,
			"0.015": 0.0,
			"0.016": 0.0,
			"0.017": 0.0,
			"0.018": 0.0,
			"0.019": 0.0,
			"0.02": 0.0,
			"0.021": 0.0,
			"0.022": 0.0,
			"0.023": 0.0,
			"0.024": 0.0,
			"0.025": 0.0
		}
	}
}
