{
	 "smiles": "FC1=CC=C(C=C1)C1=CC2=C(S1)C(Cl)=NC=N2", 
	 "Tm": 477.15, 
	 "num_atms": 23, 
	 "gaussian": { 
		 "optdone": 1, 
		 "sigma_profile": "yes", 
		 "theory": "DFT", 
		 "functional": "B3LYP", 
		 "basiset": "6-31G**", 
		 "properties": { 
			 "R2extent": 7122.1728, 
			 "electric_dipole_moment_norm": 3.01293375467, 
			 "electric_quadrupole_moment_norm": 15.08183428, 
			 "total_energy": -1528.61021462, 
			 "HOMO_LUMO_gap": 0.16382, 
			 "cosmo_polarized_energy": -8.38, 
			 "cosmo_cavitation_energy": 32.08, 
			 "cosmo_dispersion_energy": -24.2, 
			 "cosmo_repulsion_energy": 1.76, 
			 "cosmo_total_nonelectrostatic_energy": 9.65, 
			 "SMD_solvation_energy": 2.11 
		},
		"coords": [
			{
				"x": -4.4593077098,
				"y": -1.8801930275,
				"z": -0.6678975483,
				"element": "F" 
			},
			{
				"x": -3.2926074782,
				"y": -1.2708594732,
				"z": -0.3882378426,
				"element": "C" 
			},
			{
				"x": -2.3040139331,
				"y": -1.9795832183,
				"z": 0.2857222559,
				"element": "C" 
			},
			{
				"x": -1.1002552318,
				"y": -1.3422025229,
				"z": 0.5725351475,
				"element": "C" 
			},
			{
				"x": -0.8758854358,
				"y": -0.0072122243,
				"z": 0.1898975835,
				"element": "C" 
			},
			{
				"x": -1.8982967728,
				"y": 0.6735401535,
				"z": -0.4980859468,
				"element": "C" 
			},
			{
				"x": -3.1081457102,
				"y": 0.0500912207,
				"z": -0.7853116026,
				"element": "C" 
			},
			{
				"x": 0.3858897252,
				"y": 0.6774314351,
				"z": 0.4967930653,
				"element": "C" 
			},
			{
				"x": 0.590075382,
				"y": 2.0178168505,
				"z": 0.6883040676,
				"element": "C" 
			},
			{
				"x": 1.9557903804,
				"y": 2.3451704762,
				"z": 0.965979965,
				"element": "C" 
			},
			{
				"x": 2.7838758949,
				"y": 1.1935723559,
				"z": 0.9809330819,
				"element": "C" 
			},
			{
				"x": 1.8859289906,
				"y": -0.2576875669,
				"z": 0.6407397071,
				"element": "S" 
			},
			{
				"x": 4.1353407549,
				"y": 1.4028403957,
				"z": 1.2507656297,
				"element": "C" 
			},
			{
				"x": 5.2424549696,
				"y": 0.0427794734,
				"z": 1.2911515308,
				"element": "Cl" 
			},
			{
				"x": 4.6226883624,
				"y": 2.6042827771,
				"z": 1.4803276162,
				"element": "N" 
			},
			{
				"x": 3.7489420457,
				"y": 3.6339500271,
				"z": 1.4453556593,
				"element": "C" 
			},
			{
				"x": 2.4458906456,
				"y": 3.5792650949,
				"z": 1.2037982935,
				"element": "N" 
			},
			{
				"x": -2.487052564,
				"y": -3.0063106022,
				"z": 0.5825392569,
				"element": "H" 
			},
			{
				"x": -0.3347256485,
				"y": -1.8835729448,
				"z": 1.1201131428,
				"element": "H" 
			},
			{
				"x": -1.7344886397,
				"y": 1.6936065612,
				"z": -0.829471215,
				"element": "H" 
			},
			{
				"x": -3.899055172,
				"y": 0.5649920397,
				"z": -1.3194381226,
				"element": "H" 
			},
			{
				"x": -0.1949274461,
				"y": 2.7630438203,
				"z": 0.6706122808,
				"element": "H" 
			},
			{
				"x": 4.1740845906,
				"y": 4.6155388986,
				"z": 1.6393739943,
				"element": "H" 
			}
		],
		 "valence_orbital": [ 
			{
				"type": "occ",
				"energy": -0.29499,
				"method": "rhf"
			},
			{
				"type": "occ",
				"energy": -0.28139,
				"method": "rhf"
			},
			{
				"type": "occ",
				"energy": -0.2702,
				"method": "rhf"
			},
			{
				"type": "occ",
				"energy": -0.25784,
				"method": "rhf"
			},
			{
				"type": "occ",
				"energy": -0.24161,
				"method": "rhf"
			},
			{
				"type": "unocc",
				"energy": -0.07779,
				"method": "rhf"
			},
			{
				"type": "unocc",
				"energy": -0.03817,
				"method": "rhf"
			},
			{
				"type": "unocc",
				"energy": -0.0326,
				"method": "rhf"
			},
			{
				"type": "unocc",
				"energy": -0.01633,
				"method": "rhf"
			},
			{
				"type": "unocc",
				"energy": -0.00141,
				"method": "rhf"
			}
		],
		"cosmo_sigma_profile": { 
			"-0.025": 0.0,
			"-0.024": 0.0,
			"-0.023": 0.0,
			"-0.022": 0.0,
			"-0.021": 0.0,
			"-0.02": 0.0,
			"-0.019": 0.0,
			"-0.018": 0.0,
			"-0.017": 0.0,
			"-0.016": 0.0,
			"-0.015": 0.0,
			"-0.014": 0.0,
			"-0.013": 0.0,
			"-0.012": 0.0,
			"-0.011": 0.0,
			"-0.01": 0.0,
			"-0.009": 0.505235596105,
			"-0.008": 7.54237203691,
			"-0.007": 10.6225523308,
			"-0.006": 11.00494838,
			"-0.005": 10.1540213487,
			"-0.004": 11.0697483952,
			"-0.003": 15.0836021276,
			"-0.002": 20.914200509,
			"-0.001": 24.2037185335,
			"0.0": 32.8627105475,
			"0.001": 31.3487013579,
			"0.002": 29.3954102635,
			"0.003": 23.302657362,
			"0.004": 14.8526374488,
			"0.005": 4.11025131364,
			"0.006": 3.43505286053,
			"0.007": 1.78445910521,
			"0.008": 2.04476930735,
			"0.009": 1.95435854713,
			"0.01": 2.31611087597,
			"0.011": 1.82092341196,
			"0.012": 1.83998867748,
			"0.013": 1.27133101933,
			"0.014": 1.12270000533,
			"0.015": 0.148212605405,
			"0.016": 0.0,
			"0.017": 0.0,
			"0.018": 0.0,
			"0.019": 0.0,
			"0.02": 0.0,
			"0.021": 0.0,
			"0.022": 0.0,
			"0.023": 0.0,
			"0.024": 0.0,
			"0.025": 0.0
		}
	}
}
