{
	 "smiles": "COCCNS(=O)(=O)C1=CC(C(O)=O)=C(C)C=C1", 
	 "Tm": 411.15, 
	 "num_atms": 33, 
	 "gaussian": { 
		 "optdone": 1, 
		 "sigma_profile": "yes", 
		 "theory": "DFT", 
		 "functional": "B3LYP", 
		 "basiset": "6-31G**", 
		 "properties": { 
			 "R2extent": 5253.0516, 
			 "electric_dipole_moment_norm": 4.11528029301, 
			 "electric_quadrupole_moment_norm": 32.1944089402, 
			 "total_energy": -1257.18954825, 
			 "HOMO_LUMO_gap": 0.20119, 
			 "cosmo_polarized_energy": -24.12, 
			 "cosmo_cavitation_energy": 36.64, 
			 "cosmo_dispersion_energy": -25.9, 
			 "cosmo_repulsion_energy": 1.93, 
			 "cosmo_total_nonelectrostatic_energy": 12.66, 
			 "SMD_solvation_energy": 6.42 
		},
		"coords": [
			{
				"x": -1.1371233453,
				"y": -2.0254563776,
				"z": -2.6477207527,
				"element": "C" 
			},
			{
				"x": 0.1429175457,
				"y": -1.5069171433,
				"z": -2.320361971,
				"element": "O" 
			},
			{
				"x": 0.9164421027,
				"y": -2.3664182701,
				"z": -1.4926304714,
				"element": "C" 
			},
			{
				"x": 0.5952140742,
				"y": -2.2169030844,
				"z": 0.0105086208,
				"element": "C" 
			},
			{
				"x": 1.5778016598,
				"y": -1.4189191362,
				"z": 0.7646098253,
				"element": "N" 
			},
			{
				"x": 1.9193590975,
				"y": 0.2004496809,
				"z": 0.4569090802,
				"element": "S" 
			},
			{
				"x": 2.7380181954,
				"y": 0.6165386063,
				"z": 1.5978113095,
				"element": "O" 
			},
			{
				"x": 2.3928057318,
				"y": 0.2908509592,
				"z": -0.9234406048,
				"element": "O" 
			},
			{
				"x": 0.3753793176,
				"y": 1.1159796738,
				"z": 0.5405968416,
				"element": "C" 
			},
			{
				"x": -0.4842202111,
				"y": 1.1013706083,
				"z": -0.5557240133,
				"element": "C" 
			},
			{
				"x": -1.6952401338,
				"y": 1.8049448129,
				"z": -0.5134943678,
				"element": "C" 
			},
			{
				"x": -2.625074961,
				"y": 1.7217949961,
				"z": -1.6903664897,
				"element": "C" 
			},
			{
				"x": -2.0520095275,
				"y": 1.4750738552,
				"z": -2.900119998,
				"element": "O" 
			},
			{
				"x": -3.8266627695,
				"y": 1.8360328402,
				"z": -1.6155960321,
				"element": "O" 
			},
			{
				"x": -2.0507797816,
				"y": 2.5402359977,
				"z": 0.6445859216,
				"element": "C" 
			},
			{
				"x": -3.3411110103,
				"y": 3.3123134792,
				"z": 0.7632586114,
				"element": "C" 
			},
			{
				"x": -1.1471664812,
				"y": 2.5500308199,
				"z": 1.7170217289,
				"element": "C" 
			},
			{
				"x": 0.0546868731,
				"y": 1.8453308867,
				"z": 1.6844188583,
				"element": "C" 
			},
			{
				"x": -1.0519016015,
				"y": -2.9592542424,
				"z": -3.222694367,
				"element": "H" 
			},
			{
				"x": -1.6417325411,
				"y": -1.2715115048,
				"z": -3.2553209161,
				"element": "H" 
			},
			{
				"x": -1.753569945,
				"y": -2.2219086844,
				"z": -1.7575146878,
				"element": "H" 
			},
			{
				"x": 0.7514160244,
				"y": -3.4107057214,
				"z": -1.7946268581,
				"element": "H" 
			},
			{
				"x": 1.9636219098,
				"y": -2.1145424195,
				"z": -1.66774183,
				"element": "H" 
			},
			{
				"x": -0.4282756885,
				"y": -1.8290804074,
				"z": 0.1222594628,
				"element": "H" 
			},
			{
				"x": 0.6189270879,
				"y": -3.2008721088,
				"z": 0.4893185789,
				"element": "H" 
			},
			{
				"x": 1.5372956685,
				"y": -1.554224536,
				"z": 1.7699667236,
				"element": "H" 
			},
			{
				"x": -0.208355214,
				"y": 0.4975461825,
				"z": -1.4157986995,
				"element": "H" 
			},
			{
				"x": -1.0877729861,
				"y": 1.5408943098,
				"z": -2.8452044779,
				"element": "H" 
			},
			{
				"x": -3.336133572,
				"y": 3.9229928953,
				"z": 1.6696383932,
				"element": "H" 
			},
			{
				"x": -4.198595154,
				"y": 2.6350221654,
				"z": 0.7942302533,
				"element": "H" 
			},
			{
				"x": -3.5051906964,
				"y": 3.9633509779,
				"z": -0.0995756122,
				"element": "H" 
			},
			{
				"x": -1.394875825,
				"y": 3.1303332391,
				"z": 2.6012207831,
				"element": "H" 
			},
			{
				"x": 0.7467061566,
				"y": 1.8722266501,
				"z": 2.5192771571,
				"element": "H" 
			}
		],
		 "valence_orbital": [ 
			{
				"type": "occ",
				"energy": -0.29377,
				"method": "rhf"
			},
			{
				"type": "occ",
				"energy": -0.28669,
				"method": "rhf"
			},
			{
				"type": "occ",
				"energy": -0.27704,
				"method": "rhf"
			},
			{
				"type": "occ",
				"energy": -0.27171,
				"method": "rhf"
			},
			{
				"type": "occ",
				"energy": -0.26471,
				"method": "rhf"
			},
			{
				"type": "unocc",
				"energy": -0.06352,
				"method": "rhf"
			},
			{
				"type": "unocc",
				"energy": -0.04478,
				"method": "rhf"
			},
			{
				"type": "unocc",
				"energy": 0.02745,
				"method": "rhf"
			},
			{
				"type": "unocc",
				"energy": 0.0499,
				"method": "rhf"
			},
			{
				"type": "unocc",
				"energy": 0.06102,
				"method": "rhf"
			}
		],
		"cosmo_sigma_profile": { 
			"-0.025": 0.0,
			"-0.024": 0.0,
			"-0.023": 0.0,
			"-0.022": 0.0,
			"-0.021": 0.0,
			"-0.02": 0.0,
			"-0.019": 0.117150224188,
			"-0.018": 0.508365841792,
			"-0.017": 0.941428432987,
			"-0.016": 0.76141899693,
			"-0.015": 1.64015262327,
			"-0.014": 1.47463565145,
			"-0.013": 2.10604136917,
			"-0.012": 1.87509543192,
			"-0.011": 2.62021569355,
			"-0.01": 1.86897259273,
			"-0.009": 1.30079885758,
			"-0.008": 2.58131042216,
			"-0.007": 9.65464375529,
			"-0.006": 13.4969418432,
			"-0.005": 19.7542779798,
			"-0.004": 27.0704124696,
			"-0.003": 26.5883254757,
			"-0.002": 25.7647697929,
			"-0.001": 20.1379808309,
			"0.0": 20.0643970279,
			"0.001": 16.20980417,
			"0.002": 9.84416342082,
			"0.003": 6.26751932776,
			"0.004": 6.0122377712,
			"0.005": 6.65713901409,
			"0.006": 6.42732878483,
			"0.007": 7.87482393333,
			"0.008": 6.8853001541,
			"0.009": 8.0208246863,
			"0.01": 12.5703817283,
			"0.011": 14.7219542984,
			"0.012": 6.6298533416,
			"0.013": 1.47956013125,
			"0.014": 0.0,
			"0.015": 0.0,
			"0.016": 0.0,
			"0.017": 0.0,
			"0.018": 0.0,
			"0.019": 0.0,
			"0.02": 0.0,
			"0.021": 0.0,
			"0.022": 0.0,
			"0.023": 0.0,
			"0.024": 0.0,
			"0.025": 0.0
		}
	}
}
