{
	 "smiles": "OC(=O)C1=CC2=C(N1)C=C(Cl)C=C2", 
	 "Tm": 516.15, 
	 "num_atms": 19, 
	 "gaussian": { 
		 "optdone": 1, 
		 "sigma_profile": "yes", 
		 "theory": "DFT", 
		 "functional": "B3LYP", 
		 "basiset": "6-31G**", 
		 "properties": { 
			 "R2extent": 4162.4415, 
			 "electric_dipole_moment_norm": 1.91520828371, 
			 "electric_quadrupole_moment_norm": 5.29659573405, 
			 "total_energy": -1011.99242299, 
			 "HOMO_LUMO_gap": 0.16377, 
			 "cosmo_polarized_energy": -11.44, 
			 "cosmo_cavitation_energy": 26.1, 
			 "cosmo_dispersion_energy": -19.6, 
			 "cosmo_repulsion_energy": 1.54, 
			 "cosmo_total_nonelectrostatic_energy": 8.05, 
			 "SMD_solvation_energy": 5.04 
		},
		"coords": [
			{
				"x": -0.6439181639,
				"y": 3.0870733021,
				"z": -1.2334969643,
				"element": "O" 
			},
			{
				"x": -0.2573717643,
				"y": 1.9411217736,
				"z": -1.837442407,
				"element": "C" 
			},
			{
				"x": -0.368488158,
				"y": 1.7456017452,
				"z": -3.036137735,
				"element": "O" 
			},
			{
				"x": 0.3057939757,
				"y": 0.9641457767,
				"z": -0.9085757359,
				"element": "C" 
			},
			{
				"x": 0.5160799551,
				"y": 0.9877890878,
				"z": 0.4540737521,
				"element": "C" 
			},
			{
				"x": 1.102659141,
				"y": -0.2663990461,
				"z": 0.8036465736,
				"element": "C" 
			},
			{
				"x": 1.2261412874,
				"y": -1.0201449015,
				"z": -0.4035289637,
				"element": "C" 
			},
			{
				"x": 0.7351663515,
				"y": -0.2480322312,
				"z": -1.4222347308,
				"element": "N" 
			},
			{
				"x": 1.7682207522,
				"y": -2.3127224934,
				"z": -0.4297134816,
				"element": "C" 
			},
			{
				"x": 2.1841164995,
				"y": -2.8321018531,
				"z": 0.7853936774,
				"element": "C" 
			},
			{
				"x": 2.8742047955,
				"y": -4.4499630915,
				"z": 0.8244257606,
				"element": "Cl" 
			},
			{
				"x": 2.0789541643,
				"y": -2.1186768623,
				"z": 2.000469126,
				"element": "C" 
			},
			{
				"x": 1.5415476247,
				"y": -0.8428945456,
				"z": 2.0116872615,
				"element": "C" 
			},
			{
				"x": -0.9976746578,
				"y": 3.6546850974,
				"z": -1.9379278869,
				"element": "H" 
			},
			{
				"x": 0.2749928763,
				"y": 1.809657486,
				"z": 1.1118094649,
				"element": "H" 
			},
			{
				"x": 0.6724802,
				"y": -0.4749736154,
				"z": -2.4034303872,
				"element": "H" 
			},
			{
				"x": 1.8611059037,
				"y": -2.8831800876,
				"z": -1.3467425711,
				"element": "H" 
			},
			{
				"x": 2.4236524763,
				"y": -2.5838637302,
				"z": 2.9166912154,
				"element": "H" 
			},
			{
				"x": 1.4605367409,
				"y": -0.2942218109,
				"z": 2.945234032,
				"element": "H" 
			}
		],
		 "valence_orbital": [ 
			{
				"type": "occ",
				"energy": -0.31336,
				"method": "rhf"
			},
			{
				"type": "occ",
				"energy": -0.29059,
				"method": "rhf"
			},
			{
				"type": "occ",
				"energy": -0.29018,
				"method": "rhf"
			},
			{
				"type": "occ",
				"energy": -0.23858,
				"method": "rhf"
			},
			{
				"type": "occ",
				"energy": -0.22273,
				"method": "rhf"
			},
			{
				"type": "unocc",
				"energy": -0.05896,
				"method": "rhf"
			},
			{
				"type": "unocc",
				"energy": 0.00195,
				"method": "rhf"
			},
			{
				"type": "unocc",
				"energy": 0.01438,
				"method": "rhf"
			},
			{
				"type": "unocc",
				"energy": 0.02866,
				"method": "rhf"
			},
			{
				"type": "unocc",
				"energy": 0.07146,
				"method": "rhf"
			}
		],
		"cosmo_sigma_profile": { 
			"-0.025": 0.0,
			"-0.024": 0.0,
			"-0.023": 0.0,
			"-0.022": 0.0,
			"-0.021": 0.0,
			"-0.02": 0.0,
			"-0.019": 0.209000787692,
			"-0.018": 0.930012689842,
			"-0.017": 0.949520714615,
			"-0.016": 1.20535879931,
			"-0.015": 1.73091561944,
			"-0.014": 1.85370019646,
			"-0.013": 1.43219438539,
			"-0.012": 1.19314464633,
			"-0.011": 2.52751656576,
			"-0.01": 1.76805669628,
			"-0.009": 1.52053395608,
			"-0.008": 3.36801128398,
			"-0.007": 6.60164317411,
			"-0.006": 7.74660284084,
			"-0.005": 8.69582779889,
			"-0.004": 8.26395806888,
			"-0.003": 8.37367831683,
			"-0.002": 11.4513622489,
			"-0.001": 13.1081416546,
			"0.0": 12.1999896245,
			"0.001": 16.196799946,
			"0.002": 24.1980573227,
			"0.003": 24.7733867127,
			"0.004": 21.0743998925,
			"0.005": 11.5219658822,
			"0.006": 2.50829993035,
			"0.007": 3.42767067171,
			"0.008": 2.5582085951,
			"0.009": 1.47217094723,
			"0.01": 2.50207702138,
			"0.011": 3.77247231361,
			"0.012": 2.7726740764,
			"0.013": 0.0896102374123,
			"0.014": 0.0,
			"0.015": 0.0,
			"0.016": 0.0,
			"0.017": 0.0,
			"0.018": 0.0,
			"0.019": 0.0,
			"0.02": 0.0,
			"0.021": 0.0,
			"0.022": 0.0,
			"0.023": 0.0,
			"0.024": 0.0,
			"0.025": 0.0
		}
	}
}
