{
	 "smiles": "CC1=CC=C(CC(O)=O)C=C1", 
	 "Tm": 365.65, 
	 "num_atms": 21, 
	 "gaussian": { 
		 "optdone": 1, 
		 "sigma_profile": "yes", 
		 "theory": "DFT", 
		 "functional": "B3LYP", 
		 "basiset": "6-31G**", 
		 "properties": { 
			 "R2extent": 2792.7616, 
			 "electric_dipole_moment_norm": 4.02369443919, 
			 "electric_quadrupole_moment_norm": 17.744097121, 
			 "total_energy": -499.446908319, 
			 "HOMO_LUMO_gap": 0.23248, 
			 "cosmo_polarized_energy": -16.85, 
			 "cosmo_cavitation_energy": 25.32, 
			 "cosmo_dispersion_energy": -18.11, 
			 "cosmo_repulsion_energy": 1.48, 
			 "cosmo_total_nonelectrostatic_energy": 8.69, 
			 "SMD_solvation_energy": 5.55 
		},
		"coords": [
			{
				"x": 0.7365542498,
				"y": -4.1370802521,
				"z": -1.0129356388,
				"element": "C" 
			},
			{
				"x": 0.0050657489,
				"y": -2.9270752076,
				"z": -0.4811661712,
				"element": "C" 
			},
			{
				"x": -0.8985844031,
				"y": -3.039311632,
				"z": 0.5833278201,
				"element": "C" 
			},
			{
				"x": -1.5964890684,
				"y": -1.9287993272,
				"z": 1.0549036122,
				"element": "C" 
			},
			{
				"x": -1.4107478693,
				"y": -0.6680747985,
				"z": 0.4782523269,
				"element": "C" 
			},
			{
				"x": -2.1532020056,
				"y": 0.5375375103,
				"z": 0.9990326127,
				"element": "C" 
			},
			{
				"x": -1.4229460882,
				"y": 1.2910910527,
				"z": 2.1177265263,
				"element": "C" 
			},
			{
				"x": -2.0933345389,
				"y": 2.3809095544,
				"z": 2.5892679239,
				"element": "O" 
			},
			{
				"x": -0.3531961146,
				"y": 0.9940058083,
				"z": 2.5782901143,
				"element": "O" 
			},
			{
				"x": -0.5075259397,
				"y": -0.5505511037,
				"z": -0.5832666967,
				"element": "C" 
			},
			{
				"x": 0.1896352413,
				"y": -1.661996046,
				"z": -1.0537417119,
				"element": "C" 
			},
			{
				"x": 0.1637106815,
				"y": -4.6302700555,
				"z": -1.8085480571,
				"element": "H" 
			},
			{
				"x": 0.905438856,
				"y": -4.8793731059,
				"z": -0.2270197777,
				"element": "H" 
			},
			{
				"x": 1.7082070834,
				"y": -3.8632113155,
				"z": -1.434913941,
				"element": "H" 
			},
			{
				"x": -1.0573724696,
				"y": -4.0082910842,
				"z": 1.050373385,
				"element": "H" 
			},
			{
				"x": -2.2883287139,
				"y": -2.0438978209,
				"z": 1.885919531,
				"element": "H" 
			},
			{
				"x": -2.3437998842,
				"y": 1.2524588952,
				"z": 0.1868922435,
				"element": "H" 
			},
			{
				"x": -3.139435484,
				"y": 0.2450463212,
				"z": 1.3847795424,
				"element": "H" 
			},
			{
				"x": -2.9335722372,
				"y": 2.4875765124,
				"z": 2.1210481103,
				"element": "H" 
			},
			{
				"x": -0.3411132368,
				"y": 0.4205878677,
				"z": -1.0433391825,
				"element": "H" 
			},
			{
				"x": 0.8891361927,
				"y": -1.544681773,
				"z": -1.8778825716,
				"element": "H" 
			}
		],
		 "valence_orbital": [ 
			{
				"type": "occ",
				"energy": -0.3362,
				"method": "rhf"
			},
			{
				"type": "occ",
				"energy": -0.3145,
				"method": "rhf"
			},
			{
				"type": "occ",
				"energy": -0.27069,
				"method": "rhf"
			},
			{
				"type": "occ",
				"energy": -0.24896,
				"method": "rhf"
			},
			{
				"type": "occ",
				"energy": -0.23645,
				"method": "rhf"
			},
			{
				"type": "unocc",
				"energy": -0.00397,
				"method": "rhf"
			},
			{
				"type": "unocc",
				"energy": -0.00324,
				"method": "rhf"
			},
			{
				"type": "unocc",
				"energy": 0.01612,
				"method": "rhf"
			},
			{
				"type": "unocc",
				"energy": 0.05625,
				"method": "rhf"
			},
			{
				"type": "unocc",
				"energy": 0.08859,
				"method": "rhf"
			}
		],
		"cosmo_sigma_profile": { 
			"-0.025": 0.0,
			"-0.024": 0.0,
			"-0.023": 0.0,
			"-0.022": 0.0,
			"-0.021": 0.0,
			"-0.02": 0.00030829632428,
			"-0.019": 0.652697429861,
			"-0.018": 1.13028197919,
			"-0.017": 0.990081100039,
			"-0.016": 1.18021493284,
			"-0.015": 1.20593088505,
			"-0.014": 1.03199036002,
			"-0.013": 1.0139379522,
			"-0.012": 1.1630258626,
			"-0.011": 1.39809864062,
			"-0.01": 1.37551963739,
			"-0.009": 1.1451162857,
			"-0.008": 3.24149523527,
			"-0.007": 5.49150478496,
			"-0.006": 8.19833502656,
			"-0.005": 12.231560495,
			"-0.004": 17.1034646595,
			"-0.003": 16.0424376216,
			"-0.002": 13.4587731197,
			"-0.001": 13.8096553157,
			"0.0": 14.763186718,
			"0.001": 10.9662420848,
			"0.002": 7.35534283717,
			"0.003": 7.57511454816,
			"0.004": 8.25278765182,
			"0.005": 8.81274879852,
			"0.006": 8.8566133072,
			"0.007": 4.67322383492,
			"0.008": 3.22243940852,
			"0.009": 4.00495333545,
			"0.01": 5.2403242952,
			"0.011": 6.4102139019,
			"0.012": 5.75635301669,
			"0.013": 2.46931134585,
			"0.014": 0.0385826216126,
			"0.015": 0.0,
			"0.016": 0.0,
			"0.017": 0.0,
			"0.018": 0.0,
			"0.019": 0.0,
			"0.02": 0.0,
			"0.021": 0.0,
			"0.022": 0.0,
			"0.023": 0.0,
			"0.024": 0.0,
			"0.025": 0.0
		}
	}
}
