{
	 "smiles": "CC1=CC(C)=C(C(N)=O)C(N)=N1", 
	 "Tm": 446.15, 
	 "num_atms": 23, 
	 "gaussian": { 
		 "optdone": 1, 
		 "sigma_profile": "yes", 
		 "theory": "DFT", 
		 "functional": "B3LYP", 
		 "basiset": "6-31G**", 
		 "properties": { 
			 "R2extent": 2389.6644, 
			 "electric_dipole_moment_norm": 2.01287694855, 
			 "electric_quadrupole_moment_norm": 16.1437044122, 
			 "total_energy": -551.001475409, 
			 "HOMO_LUMO_gap": 0.18498, 
			 "cosmo_polarized_energy": -13.31, 
			 "cosmo_cavitation_energy": 26.0, 
			 "cosmo_dispersion_energy": -19.51, 
			 "cosmo_repulsion_energy": 1.57, 
			 "cosmo_total_nonelectrostatic_energy": 8.06, 
			 "SMD_solvation_energy": 4.13 
		},
		"coords": [
			{
				"x": 1.635793835,
				"y": -2.7698034901,
				"z": 1.4195745915,
				"element": "C" 
			},
			{
				"x": 1.1807779666,
				"y": -1.6070856133,
				"z": 0.572609226,
				"element": "C" 
			},
			{
				"x": 1.4333426937,
				"y": -0.2877516083,
				"z": 0.9584494739,
				"element": "C" 
			},
			{
				"x": 1.0083242165,
				"y": 0.7747579809,
				"z": 0.1598415785,
				"element": "C" 
			},
			{
				"x": 1.2992037711,
				"y": 2.182872189,
				"z": 0.6191984956,
				"element": "C" 
			},
			{
				"x": 0.3396889751,
				"y": 0.4750153761,
				"z": -1.0516605751,
				"element": "C" 
			},
			{
				"x": -0.1089066121,
				"y": 1.5897845746,
				"z": -1.9471141443,
				"element": "C" 
			},
			{
				"x": -0.2275376518,
				"y": 1.3003173353,
				"z": -3.2941475134,
				"element": "N" 
			},
			{
				"x": -0.3798441705,
				"y": 2.7125866992,
				"z": -1.5332856592,
				"element": "O" 
			},
			{
				"x": 0.1100996267,
				"y": -0.8973952907,
				"z": -1.3426561125,
				"element": "C" 
			},
			{
				"x": -0.5354962669,
				"y": -1.3274045653,
				"z": -2.4960580756,
				"element": "N" 
			},
			{
				"x": 0.5199149575,
				"y": -1.9020714413,
				"z": -0.5506231756,
				"element": "N" 
			},
			{
				"x": 1.3737289753,
				"y": -3.7096637656,
				"z": 0.9314447494,
				"element": "H" 
			},
			{
				"x": 2.7196338436,
				"y": -2.7416104796,
				"z": 1.5781471512,
				"element": "H" 
			},
			{
				"x": 1.1646591422,
				"y": -2.7434385844,
				"z": 2.4089139063,
				"element": "H" 
			},
			{
				"x": 1.9621821381,
				"y": -0.0870672507,
				"z": 1.885259287,
				"element": "H" 
			},
			{
				"x": 1.9570063657,
				"y": 2.163466407,
				"z": 1.4923021934,
				"element": "H" 
			},
			{
				"x": 1.7688480447,
				"y": 2.7789064153,
				"z": -0.1672693922,
				"element": "H" 
			},
			{
				"x": 0.3756601163,
				"y": 2.7068263666,
				"z": 0.8759517789,
				"element": "H" 
			},
			{
				"x": 0.2789367046,
				"y": 0.5186872824,
				"z": -3.6880182407,
				"element": "H" 
			},
			{
				"x": -0.3552974746,
				"y": 2.1140141666,
				"z": -3.8800249489,
				"element": "H" 
			},
			{
				"x": -0.7918953044,
				"y": -2.3042339807,
				"z": -2.4325662412,
				"element": "H" 
			},
			{
				"x": -1.2552238924,
				"y": -0.722508723,
				"z": -2.8682683529,
				"element": "H" 
			}
		],
		 "valence_orbital": [ 
			{
				"type": "occ",
				"energy": -0.2722,
				"method": "rhf"
			},
			{
				"type": "occ",
				"energy": -0.26797,
				"method": "rhf"
			},
			{
				"type": "occ",
				"energy": -0.26382,
				"method": "rhf"
			},
			{
				"type": "occ",
				"energy": -0.24098,
				"method": "rhf"
			},
			{
				"type": "occ",
				"energy": -0.21725,
				"method": "rhf"
			},
			{
				"type": "unocc",
				"energy": -0.03227,
				"method": "rhf"
			},
			{
				"type": "unocc",
				"energy": 0.00095,
				"method": "rhf"
			},
			{
				"type": "unocc",
				"energy": 0.0512,
				"method": "rhf"
			},
			{
				"type": "unocc",
				"energy": 0.09051,
				"method": "rhf"
			},
			{
				"type": "unocc",
				"energy": 0.11046,
				"method": "rhf"
			}
		],
		"cosmo_sigma_profile": { 
			"-0.025": 0.0,
			"-0.024": 0.0,
			"-0.023": 0.0,
			"-0.022": 0.0,
			"-0.021": 0.0,
			"-0.02": 0.0,
			"-0.019": 0.0,
			"-0.018": 0.0,
			"-0.017": 0.0,
			"-0.016": 0.0,
			"-0.015": 0.0,
			"-0.014": 0.147929728355,
			"-0.013": 1.23108084318,
			"-0.012": 2.17767127354,
			"-0.011": 4.10820503736,
			"-0.01": 4.58619566815,
			"-0.009": 3.93845317478,
			"-0.008": 3.36345497445,
			"-0.007": 3.76446475057,
			"-0.006": 3.80848108502,
			"-0.005": 9.36073983132,
			"-0.004": 13.7698167177,
			"-0.003": 16.5273937165,
			"-0.002": 15.8602980816,
			"-0.001": 17.8294155887,
			"0.0": 20.0440090661,
			"0.001": 15.6872526723,
			"0.002": 11.7431194504,
			"0.003": 12.0826221105,
			"0.004": 8.28127299603,
			"0.005": 5.35776558862,
			"0.006": 3.82697918939,
			"0.007": 4.12995047115,
			"0.008": 3.36100888513,
			"0.009": 3.67622463062,
			"0.01": 2.70636661287,
			"0.011": 2.13318707237,
			"0.012": 2.90658345075,
			"0.013": 4.60196052784,
			"0.014": 3.42269416305,
			"0.015": 0.403873703566,
			"0.016": 0.0,
			"0.017": 0.0,
			"0.018": 0.0,
			"0.019": 0.0,
			"0.02": 0.0,
			"0.021": 0.0,
			"0.022": 0.0,
			"0.023": 0.0,
			"0.024": 0.0,
			"0.025": 0.0
		}
	}
}
