{
	 "smiles": "CC(OC1C(NC(C)=O)C(OCC2=CC=CC=C2)OC2COC(OC12)C1=CC=CC=C1)C(O)=O", 
	 "Tm": 494.15, 
	 "num_atms": 63, 
	 "gaussian": { 
		 "optdone": 1, 
		 "sigma_profile": "yes", 
		 "theory": "DFT", 
		 "functional": "B3LYP", 
		 "basiset": "6-31G**", 
		 "properties": { 
			 "R2extent": 17448.0358, 
			 "electric_dipole_moment_norm": 3.30755787553, 
			 "electric_quadrupole_moment_norm": 24.4093502576, 
			 "total_energy": -1626.65372734, 
			 "HOMO_LUMO_gap": 0.23245, 
			 "cosmo_polarized_energy": -30.05, 
			 "cosmo_cavitation_energy": 65.03, 
			 "cosmo_dispersion_energy": -40.4, 
			 "cosmo_repulsion_energy": 3.11, 
			 "cosmo_total_nonelectrostatic_energy": 27.74, 
			 "SMD_solvation_energy": 11.84 
		},
		"coords": [
			{
				"x": 4.4906447259,
				"y": -0.9529573062,
				"z": 1.1372923922,
				"element": "C" 
			},
			{
				"x": 3.0201830115,
				"y": -1.0485834702,
				"z": 0.7272390364,
				"element": "C" 
			},
			{
				"x": 2.4278312681,
				"y": 0.2139390361,
				"z": 0.9627510359,
				"element": "O" 
			},
			{
				"x": 1.0046490566,
				"y": 0.244873918,
				"z": 0.9766087058,
				"element": "C" 
			},
			{
				"x": 0.5072333692,
				"y": 1.4849089573,
				"z": 0.2311031469,
				"element": "C" 
			},
			{
				"x": 1.0060876088,
				"y": 2.7096435683,
				"z": 0.8509948005,
				"element": "N" 
			},
			{
				"x": 1.3075699195,
				"y": 3.9068427913,
				"z": 0.2333580079,
				"element": "C" 
			},
			{
				"x": 0.8656954266,
				"y": 4.0826132482,
				"z": -1.2101238018,
				"element": "C" 
			},
			{
				"x": 1.9023269983,
				"y": 4.7841411242,
				"z": 0.8435033563,
				"element": "O" 
			},
			{
				"x": -1.0468818377,
				"y": 1.4049939582,
				"z": 0.1778025662,
				"element": "C" 
			},
			{
				"x": -1.441281382,
				"y": 0.5079685262,
				"z": -0.8384445871,
				"element": "O" 
			},
			{
				"x": -1.7030763476,
				"y": 1.0916967469,
				"z": -2.1115950824,
				"element": "C" 
			},
			{
				"x": -2.9545725852,
				"y": 1.9498105167,
				"z": -2.1491650232,
				"element": "C" 
			},
			{
				"x": -4.0515175269,
				"y": 1.6479428193,
				"z": -1.3320727027,
				"element": "C" 
			},
			{
				"x": -5.2166206547,
				"y": 2.4115717652,
				"z": -1.407781186,
				"element": "C" 
			},
			{
				"x": -5.3023306305,
				"y": 3.4795126696,
				"z": -2.3041834837,
				"element": "C" 
			},
			{
				"x": -4.2123837245,
				"y": 3.7862089628,
				"z": -3.1204773829,
				"element": "C" 
			},
			{
				"x": -3.0430809924,
				"y": 3.0279298396,
				"z": -3.0378029232,
				"element": "C" 
			},
			{
				"x": -1.630054797,
				"y": 0.8598988769,
				"z": 1.3464615652,
				"element": "O" 
			},
			{
				"x": -0.8737588484,
				"y": 0.9382444145,
				"z": 2.5554232698,
				"element": "C" 
			},
			{
				"x": -1.7021666411,
				"y": 0.2958935171,
				"z": 3.6615835421,
				"element": "C" 
			},
			{
				"x": -1.8300176483,
				"y": -1.1203908558,
				"z": 3.5452045353,
				"element": "O" 
			},
			{
				"x": -0.8668714162,
				"y": -1.7331932446,
				"z": 2.7108425039,
				"element": "C" 
			},
			{
				"x": 0.4158909106,
				"y": -1.1402389274,
				"z": 2.9101568155,
				"element": "O" 
			},
			{
				"x": 0.4822696428,
				"y": 0.2097686967,
				"z": 2.4266019906,
				"element": "C" 
			},
			{
				"x": -0.7686484379,
				"y": -3.196927889,
				"z": 3.0598405044,
				"element": "C" 
			},
			{
				"x": -0.7172125131,
				"y": -4.1564506429,
				"z": 2.04581646,
				"element": "C" 
			},
			{
				"x": -0.5850738206,
				"y": -5.51035041,
				"z": 2.3609300183,
				"element": "C" 
			},
			{
				"x": -0.5050624059,
				"y": -5.909208974,
				"z": 3.6957282306,
				"element": "C" 
			},
			{
				"x": -0.5596735859,
				"y": -4.9521254705,
				"z": 4.7131055786,
				"element": "C" 
			},
			{
				"x": -0.6909973443,
				"y": -3.6010103034,
				"z": 4.3970933803,
				"element": "C" 
			},
			{
				"x": 2.8755824023,
				"y": -1.4346867165,
				"z": -0.7491985508,
				"element": "C" 
			},
			{
				"x": 3.420305664,
				"y": -2.6492440413,
				"z": -0.9916989963,
				"element": "O" 
			},
			{
				"x": 2.3399510204,
				"y": -0.7706497814,
				"z": -1.6085789148,
				"element": "O" 
			},
			{
				"x": 5.0010795055,
				"y": -1.9020976597,
				"z": 0.9628038159,
				"element": "H" 
			},
			{
				"x": 4.5527705246,
				"y": -0.7013472032,
				"z": 2.1984276808,
				"element": "H" 
			},
			{
				"x": 4.9913093751,
				"y": -0.1665109655,
				"z": 0.5653531304,
				"element": "H" 
			},
			{
				"x": 2.5242216042,
				"y": -1.8295460483,
				"z": 1.3209761926,
				"element": "H" 
			},
			{
				"x": 0.5897101164,
				"y": -0.6131891456,
				"z": 0.4386850031,
				"element": "H" 
			},
			{
				"x": 0.8743215522,
				"y": 1.408819103,
				"z": -0.7957262602,
				"element": "H" 
			},
			{
				"x": 1.4868317262,
				"y": 2.6281114565,
				"z": 1.7374871934,
				"element": "H" 
			},
			{
				"x": 1.1060298006,
				"y": 5.1027983951,
				"z": -1.5078746986,
				"element": "H" 
			},
			{
				"x": 1.3966077875,
				"y": 3.3861479588,
				"z": -1.8687997627,
				"element": "H" 
			},
			{
				"x": -0.2081374149,
				"y": 3.9133255414,
				"z": -1.3380215655,
				"element": "H" 
			},
			{
				"x": -1.4682625651,
				"y": 2.4050661649,
				"z": -0.0033487193,
				"element": "H" 
			},
			{
				"x": -0.8387613822,
				"y": 1.6684844092,
				"z": -2.4727585376,
				"element": "H" 
			},
			{
				"x": -1.810509967,
				"y": 0.2333998138,
				"z": -2.7838732918,
				"element": "H" 
			},
			{
				"x": -3.9748086849,
				"y": 0.8244061718,
				"z": -0.629005161,
				"element": "H" 
			},
			{
				"x": -6.0596037828,
				"y": 2.172201213,
				"z": -0.7656004363,
				"element": "H" 
			},
			{
				"x": -6.2106798435,
				"y": 4.0723195557,
				"z": -2.361961395,
				"element": "H" 
			},
			{
				"x": -4.2678343777,
				"y": 4.6202421689,
				"z": -3.8143603462,
				"element": "H" 
			},
			{
				"x": -2.1936789397,
				"y": 3.2749419562,
				"z": -3.6713031085,
				"element": "H" 
			},
			{
				"x": -0.7023990156,
				"y": 1.9906214887,
				"z": 2.8208088197,
				"element": "H" 
			},
			{
				"x": -1.2261694353,
				"y": 0.5421588444,
				"z": 4.621387901,
				"element": "H" 
			},
			{
				"x": -2.7111562286,
				"y": 0.7192812215,
				"z": 3.657172148,
				"element": "H" 
			},
			{
				"x": -1.1646357753,
				"y": -1.603922262,
				"z": 1.6594248408,
				"element": "H" 
			},
			{
				"x": 1.2181898506,
				"y": 0.7011169168,
				"z": 3.0728733229,
				"element": "H" 
			},
			{
				"x": -0.7868032794,
				"y": -3.8443457267,
				"z": 1.0064807595,
				"element": "H" 
			},
			{
				"x": -0.550127578,
				"y": -6.2507450934,
				"z": 1.5668456167,
				"element": "H" 
			},
			{
				"x": -0.4053840327,
				"y": -6.9621413589,
				"z": 3.9440785078,
				"element": "H" 
			},
			{
				"x": -0.5024585858,
				"y": -5.2612129862,
				"z": 5.7530175358,
				"element": "H" 
			},
			{
				"x": -0.7476236048,
				"y": -2.8512049201,
				"z": 5.1788796179,
				"element": "H" 
			},
			{
				"x": 3.2885247662,
				"y": -2.8261649302,
				"z": -1.9385876116,
				"element": "H" 
			}
		],
		 "valence_orbital": [ 
			{
				"type": "occ",
				"energy": -0.24935,
				"method": "rhf"
			},
			{
				"type": "occ",
				"energy": -0.24768,
				"method": "rhf"
			},
			{
				"type": "occ",
				"energy": -0.24718,
				"method": "rhf"
			},
			{
				"type": "occ",
				"energy": -0.24653,
				"method": "rhf"
			},
			{
				"type": "occ",
				"energy": -0.24062,
				"method": "rhf"
			},
			{
				"type": "unocc",
				"energy": -0.00817,
				"method": "rhf"
			},
			{
				"type": "unocc",
				"energy": -0.00787,
				"method": "rhf"
			},
			{
				"type": "unocc",
				"energy": -0.00625,
				"method": "rhf"
			},
			{
				"type": "unocc",
				"energy": -0.00372,
				"method": "rhf"
			},
			{
				"type": "unocc",
				"energy": -0.00025,
				"method": "rhf"
			}
		],
		"cosmo_sigma_profile": { 
			"-0.025": 0.0,
			"-0.024": 0.0,
			"-0.023": 0.0,
			"-0.022": 0.0,
			"-0.021": 0.0,
			"-0.02": 0.0,
			"-0.019": 0.230953707604,
			"-0.018": 0.699563630778,
			"-0.017": 0.88408306441,
			"-0.016": 1.1606598243,
			"-0.015": 0.796414985773,
			"-0.014": 0.615858182474,
			"-0.013": 1.70589532391,
			"-0.012": 1.69072494889,
			"-0.011": 1.69812064677,
			"-0.01": 3.24930183515,
			"-0.009": 2.21329887803,
			"-0.008": 4.32535463169,
			"-0.007": 10.9076022271,
			"-0.006": 29.3817547267,
			"-0.005": 46.687665787,
			"-0.004": 47.2940993419,
			"-0.003": 43.8158814386,
			"-0.002": 37.601002737,
			"-0.001": 36.2094087006,
			"0.0": 26.8632536917,
			"0.001": 25.217706028,
			"0.002": 24.2366223581,
			"0.003": 26.41875385,
			"0.004": 26.5585491781,
			"0.005": 29.1781879378,
			"0.006": 21.370825361,
			"0.007": 11.1163295579,
			"0.008": 10.9034499289,
			"0.009": 8.37944257527,
			"0.01": 8.99125743405,
			"0.011": 7.20184416718,
			"0.012": 4.03272406409,
			"0.013": 4.41244813344,
			"0.014": 5.12227638486,
			"0.015": 1.23983089982,
			"0.016": 0.0,
			"0.017": 0.0,
			"0.018": 0.0,
			"0.019": 0.0,
			"0.02": 0.0,
			"0.021": 0.0,
			"0.022": 0.0,
			"0.023": 0.0,
			"0.024": 0.0,
			"0.025": 0.0
		}
	}
}
