{
	 "smiles": "COC1=C(C(=O)C(=O)C2=C1C=CC=C2)C(C)(C)C(C)C", 
	 "Tm": 366.55, 
	 "num_atms": 40, 
	 "gaussian": { 
		 "optdone": 1, 
		 "sigma_profile": "yes", 
		 "theory": "DFT", 
		 "functional": "B3LYP", 
		 "basiset": "6-31G**", 
		 "properties": { 
			 "R2extent": 5550.7857, 
			 "electric_dipole_moment_norm": 5.81900259667, 
			 "electric_quadrupole_moment_norm": 14.7378781163, 
			 "total_energy": -885.502024564, 
			 "HOMO_LUMO_gap": 0.12819, 
			 "cosmo_polarized_energy": -13.14, 
			 "cosmo_cavitation_energy": 39.46, 
			 "cosmo_dispersion_energy": -27.36, 
			 "cosmo_repulsion_energy": 2.05, 
			 "cosmo_total_nonelectrostatic_energy": 14.15, 
			 "SMD_solvation_energy": 8.35 
		},
		"coords": [
			{
				"x": -1.2086791886,
				"y": -0.8771277569,
				"z": -2.6584999414,
				"element": "C" 
			},
			{
				"x": -0.3562775733,
				"y": 0.139826386,
				"z": -2.114803628,
				"element": "O" 
			},
			{
				"x": -0.260988865,
				"y": 0.1679925031,
				"z": -0.7453181611,
				"element": "C" 
			},
			{
				"x": 0.8729782979,
				"y": -0.238909755,
				"z": -0.0948597376,
				"element": "C" 
			},
			{
				"x": 0.8366603382,
				"y": -0.1265981282,
				"z": 1.393217516,
				"element": "C" 
			},
			{
				"x": 1.8148187312,
				"y": -0.2349780459,
				"z": 2.1167374597,
				"element": "O" 
			},
			{
				"x": -0.5208429398,
				"y": 0.1012186131,
				"z": 2.1159287652,
				"element": "C" 
			},
			{
				"x": -0.6150332087,
				"y": -0.1565424137,
				"z": 3.3018333784,
				"element": "O" 
			},
			{
				"x": -1.6114754401,
				"y": 0.6876011203,
				"z": 1.316457648,
				"element": "C" 
			},
			{
				"x": -1.4506328994,
				"y": 0.761013715,
				"z": -0.0802006523,
				"element": "C" 
			},
			{
				"x": -2.4367588094,
				"y": 1.4210249822,
				"z": -0.8283045823,
				"element": "C" 
			},
			{
				"x": -3.5643583673,
				"y": 1.9529372681,
				"z": -0.2005135937,
				"element": "C" 
			},
			{
				"x": -3.7343138751,
				"y": 1.8352443814,
				"z": 1.1816571688,
				"element": "C" 
			},
			{
				"x": -2.7506183888,
				"y": 1.2041674747,
				"z": 1.9396339454,
				"element": "C" 
			},
			{
				"x": 2.1937276872,
				"y": -0.7554461511,
				"z": -0.7274969911,
				"element": "C" 
			},
			{
				"x": 2.0994184645,
				"y": -1.0936150511,
				"z": -2.2322851484,
				"element": "C" 
			},
			{
				"x": 2.5798944521,
				"y": -2.0853698636,
				"z": -0.0182951327,
				"element": "C" 
			},
			{
				"x": 3.3074531339,
				"y": 0.3447690949,
				"z": -0.4904397549,
				"element": "C" 
			},
			{
				"x": 4.7226919242,
				"y": -0.1097442003,
				"z": -0.8908945597,
				"element": "C" 
			},
			{
				"x": 2.9871943638,
				"y": 1.6843884169,
				"z": -1.1752142433,
				"element": "C" 
			},
			{
				"x": -2.2343455411,
				"y": -0.7913997362,
				"z": -2.2847140636,
				"element": "H" 
			},
			{
				"x": -0.8227787804,
				"y": -1.8744777997,
				"z": -2.420981688,
				"element": "H" 
			},
			{
				"x": -1.200380295,
				"y": -0.7326844293,
				"z": -3.7399660284,
				"element": "H" 
			},
			{
				"x": -2.3072540398,
				"y": 1.533631299,
				"z": -1.8980494639,
				"element": "H" 
			},
			{
				"x": -4.3135362503,
				"y": 2.4653355791,
				"z": -0.7971562122,
				"element": "H" 
			},
			{
				"x": -4.6168995518,
				"y": 2.2463547364,
				"z": 1.6618855703,
				"element": "H" 
			},
			{
				"x": -2.8305217841,
				"y": 1.1137854037,
				"z": 3.0181850546,
				"element": "H" 
			},
			{
				"x": 3.0646707582,
				"y": -1.4888774983,
				"z": -2.5610938666,
				"element": "H" 
			},
			{
				"x": 1.8463643452,
				"y": -0.2399105762,
				"z": -2.8577869054,
				"element": "H" 
			},
			{
				"x": 1.3620412237,
				"y": -1.8803517688,
				"z": -2.4150858756,
				"element": "H" 
			},
			{
				"x": 3.4071990807,
				"y": -2.5666865928,
				"z": -0.5466355857,
				"element": "H" 
			},
			{
				"x": 2.8725920785,
				"y": -1.9338825272,
				"z": 1.0199629237,
				"element": "H" 
			},
			{
				"x": 1.7352272957,
				"y": -2.7833300614,
				"z": -0.0392811513,
				"element": "H" 
			},
			{
				"x": 3.3274810267,
				"y": 0.5188488898,
				"z": 0.5882403418,
				"element": "H" 
			},
			{
				"x": 5.0305282515,
				"y": -1.0235943788,
				"z": -0.3760991749,
				"element": "H" 
			},
			{
				"x": 5.4429365133,
				"y": 0.670663419,
				"z": -0.6223045657,
				"element": "H" 
			},
			{
				"x": 4.8184358026,
				"y": -0.2763676177,
				"z": -1.969324498,
				"element": "H" 
			},
			{
				"x": 3.036710968,
				"y": 1.6086264783,
				"z": -2.2670493132,
				"element": "H" 
			},
			{
				"x": 1.9934981433,
				"y": 2.0582764439,
				"z": -0.911414337,
				"element": "H" 
			},
			{
				"x": 3.7156729176,
				"y": 2.4433881474,
				"z": -0.8703709158,
				"element": "H" 
			}
		],
		 "valence_orbital": [ 
			{
				"type": "occ",
				"energy": -0.2934,
				"method": "rhf"
			},
			{
				"type": "occ",
				"energy": -0.28023,
				"method": "rhf"
			},
			{
				"type": "occ",
				"energy": -0.27194,
				"method": "rhf"
			},
			{
				"type": "occ",
				"energy": -0.2404,
				"method": "rhf"
			},
			{
				"type": "occ",
				"energy": -0.23628,
				"method": "rhf"
			},
			{
				"type": "unocc",
				"energy": -0.10809,
				"method": "rhf"
			},
			{
				"type": "unocc",
				"energy": -0.04498,
				"method": "rhf"
			},
			{
				"type": "unocc",
				"energy": -0.0115,
				"method": "rhf"
			},
			{
				"type": "unocc",
				"energy": 0.02626,
				"method": "rhf"
			},
			{
				"type": "unocc",
				"energy": 0.07063,
				"method": "rhf"
			}
		],
		"cosmo_sigma_profile": { 
			"-0.025": 0.0,
			"-0.024": 0.0,
			"-0.023": 0.0,
			"-0.022": 0.0,
			"-0.021": 0.0,
			"-0.02": 0.0,
			"-0.019": 0.0,
			"-0.018": 0.0,
			"-0.017": 0.0,
			"-0.016": 0.0,
			"-0.015": 0.0,
			"-0.014": 0.0,
			"-0.013": 0.0,
			"-0.012": 0.0,
			"-0.011": 0.0,
			"-0.01": 0.0,
			"-0.009": 0.0,
			"-0.008": 0.112106840146,
			"-0.007": 5.86322615348,
			"-0.006": 13.5056513068,
			"-0.005": 17.9614624011,
			"-0.004": 20.5306525582,
			"-0.003": 27.4409034168,
			"-0.002": 35.606552485,
			"-0.001": 31.37575774,
			"0.0": 34.5907927634,
			"0.001": 39.3968791923,
			"0.002": 32.9585980599,
			"0.003": 11.2329908864,
			"0.004": 5.37124769386,
			"0.005": 3.29936434694,
			"0.006": 3.35675579085,
			"0.007": 4.2058279014,
			"0.008": 2.99056259066,
			"0.009": 4.52549130874,
			"0.01": 5.25160643939,
			"0.011": 5.29818300918,
			"0.012": 1.97448887928,
			"0.013": 2.31259580506,
			"0.014": 1.25641279601,
			"0.015": 0.501156862186,
			"0.016": 0.0,
			"0.017": 0.0,
			"0.018": 0.0,
			"0.019": 0.0,
			"0.02": 0.0,
			"0.021": 0.0,
			"0.022": 0.0,
			"0.023": 0.0,
			"0.024": 0.0,
			"0.025": 0.0
		}
	}
}
