{
	 "smiles": "ClC1=C(CN2C=C(C=O)C=N2)C=CC=C1", 
	 "Tm": 328.15, 
	 "num_atms": 24, 
	 "gaussian": { 
		 "optdone": 1, 
		 "sigma_profile": "yes", 
		 "theory": "DFT", 
		 "functional": "B3LYP", 
		 "basiset": "6-31G**", 
		 "properties": { 
			 "R2extent": 4739.1583, 
			 "electric_dipole_moment_norm": 6.7122823637, 
			 "electric_quadrupole_moment_norm": 8.70082504996, 
			 "total_energy": -1069.48051609, 
			 "HOMO_LUMO_gap": 0.20541, 
			 "cosmo_polarized_energy": -14.52, 
			 "cosmo_cavitation_energy": 31.09, 
			 "cosmo_dispersion_energy": -21.68, 
			 "cosmo_repulsion_energy": 1.69, 
			 "cosmo_total_nonelectrostatic_energy": 11.11, 
			 "SMD_solvation_energy": 5.49 
		},
		"coords": [
			{
				"x": -1.5825340253,
				"y": -3.0706143968,
				"z": -0.0898972753,
				"element": "Cl" 
			},
			{
				"x": -1.4019489947,
				"y": -1.9856971606,
				"z": -1.4593901068,
				"element": "C" 
			},
			{
				"x": -0.125952167,
				"y": -1.7062980575,
				"z": -1.9762168765,
				"element": "C" 
			},
			{
				"x": 1.1341046968,
				"y": -2.3083371476,
				"z": -1.4013105483,
				"element": "C" 
			},
			{
				"x": 1.5529159233,
				"y": -1.6809767528,
				"z": -0.144331952,
				"element": "N" 
			},
			{
				"x": 1.4035447022,
				"y": -0.4005809134,
				"z": 0.2568925505,
				"element": "C" 
			},
			{
				"x": 2.0660173737,
				"y": -0.2820928422,
				"z": 1.4759466151,
				"element": "C" 
			},
			{
				"x": 2.1754224571,
				"y": 0.9057562229,
				"z": 2.31399396,
				"element": "C" 
			},
			{
				"x": 2.774774037,
				"y": 0.9493217653,
				"z": 3.3750404255,
				"element": "O" 
			},
			{
				"x": 2.5946028148,
				"y": -1.5801145457,
				"z": 1.7104678809,
				"element": "C" 
			},
			{
				"x": 2.2881617789,
				"y": -2.4203153499,
				"z": 0.7330767941,
				"element": "N" 
			},
			{
				"x": -0.0475617626,
				"y": -0.8407134767,
				"z": -3.0760802949,
				"element": "C" 
			},
			{
				"x": -1.1881073457,
				"y": -0.2710514405,
				"z": -3.6409092822,
				"element": "C" 
			},
			{
				"x": -2.4421064378,
				"y": -0.5649524783,
				"z": -3.1060787759,
				"element": "C" 
			},
			{
				"x": -2.552330686,
				"y": -1.4254877834,
				"z": -2.0136049455,
				"element": "C" 
			},
			{
				"x": 1.0054168851,
				"y": -3.3677628755,
				"z": -1.1720260751,
				"element": "H" 
			},
			{
				"x": 1.9477697853,
				"y": -2.2188029241,
				"z": -2.1293575491,
				"element": "H" 
			},
			{
				"x": 0.8456858468,
				"y": 0.3196277938,
				"z": -0.3233378368,
				"element": "H" 
			},
			{
				"x": 1.6609546076,
				"y": 1.8082440645,
				"z": 1.9130437423,
				"element": "H" 
			},
			{
				"x": 3.1747581719,
				"y": -1.9117602857,
				"z": 2.5602583826,
				"element": "H" 
			},
			{
				"x": 0.9307643254,
				"y": -0.6187115748,
				"z": -3.4943997739,
				"element": "H" 
			},
			{
				"x": -1.0968773764,
				"y": 0.3945761312,
				"z": -4.4933563041,
				"element": "H" 
			},
			{
				"x": -3.3390024216,
				"y": -0.1302139366,
				"z": -3.5366555659,
				"element": "H" 
			},
			{
				"x": -3.5210721889,
				"y": -1.6670420356,
				"z": -1.5906671888,
				"element": "H" 
			}
		],
		 "valence_orbital": [ 
			{
				"type": "occ",
				"energy": -0.28185,
				"method": "rhf"
			},
			{
				"type": "occ",
				"energy": -0.26794,
				"method": "rhf"
			},
			{
				"type": "occ",
				"energy": -0.26278,
				"method": "rhf"
			},
			{
				"type": "occ",
				"energy": -0.25451,
				"method": "rhf"
			},
			{
				"type": "occ",
				"energy": -0.24393,
				"method": "rhf"
			},
			{
				"type": "unocc",
				"energy": -0.03852,
				"method": "rhf"
			},
			{
				"type": "unocc",
				"energy": -0.03742,
				"method": "rhf"
			},
			{
				"type": "unocc",
				"energy": -0.03225,
				"method": "rhf"
			},
			{
				"type": "unocc",
				"energy": 0.00825,
				"method": "rhf"
			},
			{
				"type": "unocc",
				"energy": 0.01858,
				"method": "rhf"
			}
		],
		"cosmo_sigma_profile": { 
			"-0.025": 0.0,
			"-0.024": 0.0,
			"-0.023": 0.0,
			"-0.022": 0.0,
			"-0.021": 0.0,
			"-0.02": 0.0,
			"-0.019": 0.0,
			"-0.018": 0.0,
			"-0.017": 0.0,
			"-0.016": 0.0,
			"-0.015": 0.0,
			"-0.014": 0.0,
			"-0.013": 0.0,
			"-0.012": 0.0,
			"-0.011": 0.0,
			"-0.01": 0.448656976588,
			"-0.009": 1.81917747094,
			"-0.008": 6.7874837211,
			"-0.007": 14.0154149355,
			"-0.006": 19.0566898051,
			"-0.005": 19.722583357,
			"-0.004": 14.2603241096,
			"-0.003": 12.4754590026,
			"-0.002": 14.6656207689,
			"-0.001": 15.145803538,
			"0.0": 16.215717991,
			"0.001": 21.3268733193,
			"0.002": 23.5997330586,
			"0.003": 20.2479289786,
			"0.004": 16.8642619534,
			"0.005": 5.40567004388,
			"0.006": 2.63254467172,
			"0.007": 3.49473884328,
			"0.008": 3.05416028881,
			"0.009": 2.43728657425,
			"0.01": 3.65822040289,
			"0.011": 4.36686318501,
			"0.012": 5.53199946887,
			"0.013": 3.06548623507,
			"0.014": 1.4429209504,
			"0.015": 0.191292039648,
			"0.016": 0.0,
			"0.017": 0.0,
			"0.018": 0.0,
			"0.019": 0.0,
			"0.02": 0.0,
			"0.021": 0.0,
			"0.022": 0.0,
			"0.023": 0.0,
			"0.024": 0.0,
			"0.025": 0.0
		}
	}
}
