{
	 "smiles": "O=C1NC2CC=CCC12", 
	 "Tm": 395.15, 
	 "num_atms": 18, 
	 "gaussian": { 
		 "optdone": 1, 
		 "sigma_profile": "yes", 
		 "theory": "DFT", 
		 "functional": "B3LYP", 
		 "basiset": "6-31G**", 
		 "properties": { 
			 "R2extent": 2322.9462, 
			 "electric_dipole_moment_norm": 3.80482102207, 
			 "electric_quadrupole_moment_norm": 19.6675554434, 
			 "total_energy": -402.116514054, 
			 "HOMO_LUMO_gap": 0.2548, 
			 "cosmo_polarized_energy": -11.13, 
			 "cosmo_cavitation_energy": 20.33, 
			 "cosmo_dispersion_energy": -15.48, 
			 "cosmo_repulsion_energy": 1.31, 
			 "cosmo_total_nonelectrostatic_energy": 6.16, 
			 "SMD_solvation_energy": 2.88 
		},
		"coords": [
			{
				"x": 1.6283648658,
				"y": -1.7756782206,
				"z": 3.9263306884,
				"element": "O" 
			},
			{
				"x": 1.2336332724,
				"y": -1.3131333887,
				"z": 2.8803014405,
				"element": "C" 
			},
			{
				"x": 1.0249489716,
				"y": -0.030866041,
				"z": 2.4374610074,
				"element": "N" 
			},
			{
				"x": 0.4876421245,
				"y": -0.4033461785,
				"z": 1.1184757778,
				"element": "C" 
			},
			{
				"x": -0.9790047436,
				"y": -0.0215803889,
				"z": 0.8734999925,
				"element": "C" 
			},
			{
				"x": -1.9509091347,
				"y": -0.837446823,
				"z": 1.6916161768,
				"element": "C" 
			},
			{
				"x": -1.7165771771,
				"y": -2.1111669777,
				"z": 2.0192726359,
				"element": "C" 
			},
			{
				"x": -0.4536183657,
				"y": -2.8331485748,
				"z": 1.6164596376,
				"element": "C" 
			},
			{
				"x": 0.754403359,
				"y": -1.8943345371,
				"z": 1.5249555677,
				"element": "C" 
			},
			{
				"x": 1.100296484,
				"y": 0.8603840189,
				"z": 2.9116459176,
				"element": "H" 
			},
			{
				"x": 1.1165508151,
				"y": -0.0443694241,
				"z": 0.295173685,
				"element": "H" 
			},
			{
				"x": -1.1123773345,
				"y": 1.0506734042,
				"z": 1.064985936,
				"element": "H" 
			},
			{
				"x": -1.192472184,
				"y": -0.1567812664,
				"z": -0.1978700605,
				"element": "H" 
			},
			{
				"x": -2.881543076,
				"y": -0.3615668342,
				"z": 1.9922812389,
				"element": "H" 
			},
			{
				"x": -2.4577660935,
				"y": -2.6706050127,
				"z": 2.5854139524,
				"element": "H" 
			},
			{
				"x": -0.6068266654,
				"y": -3.3367377039,
				"z": 0.6503432923,
				"element": "H" 
			},
			{
				"x": -0.2186063836,
				"y": -3.62565408,
				"z": 2.336491611,
				"element": "H" 
			},
			{
				"x": 1.5756612657,
				"y": -2.3553419714,
				"z": 0.9682615027,
				"element": "H" 
			}
		],
		 "valence_orbital": [ 
			{
				"type": "occ",
				"energy": -0.32638,
				"method": "rhf"
			},
			{
				"type": "occ",
				"energy": -0.32484,
				"method": "rhf"
			},
			{
				"type": "occ",
				"energy": -0.2541,
				"method": "rhf"
			},
			{
				"type": "occ",
				"energy": -0.25102,
				"method": "rhf"
			},
			{
				"type": "occ",
				"energy": -0.23926,
				"method": "rhf"
			},
			{
				"type": "unocc",
				"energy": 0.01554,
				"method": "rhf"
			},
			{
				"type": "unocc",
				"energy": 0.03903,
				"method": "rhf"
			},
			{
				"type": "unocc",
				"energy": 0.08213,
				"method": "rhf"
			},
			{
				"type": "unocc",
				"energy": 0.09816,
				"method": "rhf"
			},
			{
				"type": "unocc",
				"energy": 0.11646,
				"method": "rhf"
			}
		],
		"cosmo_sigma_profile": { 
			"-0.025": 0.0,
			"-0.024": 0.0,
			"-0.023": 0.0,
			"-0.022": 0.0,
			"-0.021": 0.0,
			"-0.02": 0.0,
			"-0.019": 0.0,
			"-0.018": 0.0,
			"-0.017": 0.0,
			"-0.016": 0.0,
			"-0.015": 0.0130082917751,
			"-0.014": 0.786001679231,
			"-0.013": 1.72775646212,
			"-0.012": 1.19455852351,
			"-0.011": 1.0390536449,
			"-0.01": 0.775658855286,
			"-0.009": 0.800787871521,
			"-0.008": 1.54286495251,
			"-0.007": 0.969569372152,
			"-0.006": 1.76781506767,
			"-0.005": 8.73876113267,
			"-0.004": 21.2545768583,
			"-0.003": 23.1269602185,
			"-0.002": 19.9911457844,
			"-0.001": 13.9014538082,
			"0.0": 8.1462138597,
			"0.001": 5.98770541056,
			"0.002": 6.50494159092,
			"0.003": 5.74423596709,
			"0.004": 5.08632390512,
			"0.005": 4.74973733131,
			"0.006": 4.36374836302,
			"0.007": 1.7058603216,
			"0.008": 1.6301521012,
			"0.009": 1.15448931788,
			"0.01": 1.47170850869,
			"0.011": 1.67216780907,
			"0.012": 2.56176972527,
			"0.013": 5.52048484739,
			"0.014": 4.98528859705,
			"0.015": 0.634321225345,
			"0.016": 0.0,
			"0.017": 0.0,
			"0.018": 0.0,
			"0.019": 0.0,
			"0.02": 0.0,
			"0.021": 0.0,
			"0.022": 0.0,
			"0.023": 0.0,
			"0.024": 0.0,
			"0.025": 0.0
		}
	}
}
