{
	 "smiles": "NC(=O)C1CCN(CCC2=CC=C(N)C=C2)CC1", 
	 "Tm": 497.15, 
	 "num_atms": 39, 
	 "gaussian": { 
		 "optdone": 1, 
		 "sigma_profile": "yes", 
		 "theory": "DFT", 
		 "functional": "B3LYP", 
		 "basiset": "6-31G**", 
		 "properties": { 
			 "R2extent": 7386.65, 
			 "electric_dipole_moment_norm": 4.18761067078, 
			 "electric_quadrupole_moment_norm": 25.8313482259, 
			 "total_energy": -785.638473541, 
			 "HOMO_LUMO_gap": 0.20175, 
			 "cosmo_polarized_energy": -19.95, 
			 "cosmo_cavitation_energy": 39.92, 
			 "cosmo_dispersion_energy": -28.02, 
			 "cosmo_repulsion_energy": 2.2, 
			 "cosmo_total_nonelectrostatic_energy": 14.09, 
			 "SMD_solvation_energy": 5.96 
		},
		"coords": [
			{
				"x": 3.2548575584,
				"y": -2.6774676199,
				"z": -4.0110135472,
				"element": "N" 
			},
			{
				"x": 2.1718147548,
				"y": -2.6753953244,
				"z": -3.1758495975,
				"element": "C" 
			},
			{
				"x": 1.1681925354,
				"y": -3.3333940063,
				"z": -3.4203547482,
				"element": "O" 
			},
			{
				"x": 2.2894858359,
				"y": -1.7505881063,
				"z": -1.9596476606,
				"element": "C" 
			},
			{
				"x": 1.6443825865,
				"y": -0.3706430765,
				"z": -2.2938615248,
				"element": "C" 
			},
			{
				"x": 0.1567164556,
				"y": -0.3543601525,
				"z": -1.9406644798,
				"element": "C" 
			},
			{
				"x": -0.0421525997,
				"y": -0.4778080865,
				"z": -0.4881895422,
				"element": "N" 
			},
			{
				"x": -1.4172610671,
				"y": -0.8412617056,
				"z": -0.1513836149,
				"element": "C" 
			},
			{
				"x": -2.4100804094,
				"y": 0.3374120473,
				"z": -0.2756163391,
				"element": "C" 
			},
			{
				"x": -2.2614650419,
				"y": 1.4003541391,
				"z": 0.7912433822,
				"element": "C" 
			},
			{
				"x": -1.1651832457,
				"y": 2.2759748276,
				"z": 0.8178090888,
				"element": "C" 
			},
			{
				"x": -1.0275097787,
				"y": 3.2395111856,
				"z": 1.8129814375,
				"element": "C" 
			},
			{
				"x": -1.9902712099,
				"y": 3.3674638468,
				"z": 2.8283380105,
				"element": "C" 
			},
			{
				"x": -1.8859418951,
				"y": 4.3776649805,
				"z": 3.7940109019,
				"element": "N" 
			},
			{
				"x": -3.0901290382,
				"y": 2.4963401521,
				"z": 2.8108328305,
				"element": "C" 
			},
			{
				"x": -3.2147802485,
				"y": 1.5359953128,
				"z": 1.808499178,
				"element": "C" 
			},
			{
				"x": 1.0006034044,
				"y": -1.2830548562,
				"z": 0.1737532802,
				"element": "C" 
			},
			{
				"x": 1.5955282092,
				"y": -2.3744331179,
				"z": -0.7264104305,
				"element": "C" 
			},
			{
				"x": 3.2081698973,
				"y": -3.2331430984,
				"z": -4.8516755622,
				"element": "H" 
			},
			{
				"x": 4.0948619363,
				"y": -2.1601586097,
				"z": -3.8117365213,
				"element": "H" 
			},
			{
				"x": 3.3528261093,
				"y": -1.5857686408,
				"z": -1.7432058292,
				"element": "H" 
			},
			{
				"x": 2.1556074076,
				"y": 0.4153999331,
				"z": -1.7264510261,
				"element": "H" 
			},
			{
				"x": 1.7767985805,
				"y": -0.1305484784,
				"z": -3.3542570318,
				"element": "H" 
			},
			{
				"x": -0.3439060519,
				"y": -1.1725124519,
				"z": -2.4899199273,
				"element": "H" 
			},
			{
				"x": -0.2929529765,
				"y": 0.5828319165,
				"z": -2.2915227023,
				"element": "H" 
			},
			{
				"x": -1.784429326,
				"y": -1.6744413511,
				"z": -0.7826664877,
				"element": "H" 
			},
			{
				"x": -1.4384810386,
				"y": -1.1910227195,
				"z": 0.8859335407,
				"element": "H" 
			},
			{
				"x": -3.4234951563,
				"y": -0.079327899,
				"z": -0.2282097522,
				"element": "H" 
			},
			{
				"x": -2.3163339091,
				"y": 0.7816295217,
				"z": -1.2745129194,
				"element": "H" 
			},
			{
				"x": -0.3987403629,
				"y": 2.1856104906,
				"z": 0.0549961251,
				"element": "H" 
			},
			{
				"x": -0.1692069545,
				"y": 3.9080694347,
				"z": 1.8041426926,
				"element": "H" 
			},
			{
				"x": -0.9410772088,
				"y": 4.692033994,
				"z": 3.9706816201,
				"element": "H" 
			},
			{
				"x": -2.3739214515,
				"y": 4.183227861,
				"z": 4.6582389526,
				"element": "H" 
			},
			{
				"x": -3.8531363383,
				"y": 2.5789124851,
				"z": 3.581718179,
				"element": "H" 
			},
			{
				"x": -4.0792908565,
				"y": 0.8753891918,
				"z": 1.8199407155,
				"element": "H" 
			},
			{
				"x": 1.8079164353,
				"y": -0.6201533281,
				"z": 0.5203141268,
				"element": "H" 
			},
			{
				"x": 0.5722268986,
				"y": -1.7316372981,
				"z": 1.074724441,
				"element": "H" 
			},
			{
				"x": 0.8008611727,
				"y": -3.0389571232,
				"z": -1.0799617189,
				"element": "H" 
			},
			{
				"x": 2.3048963872,
				"y": -2.9896442699,
				"z": -0.1607475396,
				"element": "H" 
			}
		],
		 "valence_orbital": [ 
			{
				"type": "occ",
				"energy": -0.2666,
				"method": "rhf"
			},
			{
				"type": "occ",
				"energy": -0.24471,
				"method": "rhf"
			},
			{
				"type": "occ",
				"energy": -0.23289,
				"method": "rhf"
			},
			{
				"type": "occ",
				"energy": -0.1944,
				"method": "rhf"
			},
			{
				"type": "occ",
				"energy": -0.18598,
				"method": "rhf"
			},
			{
				"type": "unocc",
				"energy": 0.01577,
				"method": "rhf"
			},
			{
				"type": "unocc",
				"energy": 0.02942,
				"method": "rhf"
			},
			{
				"type": "unocc",
				"energy": 0.02958,
				"method": "rhf"
			},
			{
				"type": "unocc",
				"energy": 0.06806,
				"method": "rhf"
			},
			{
				"type": "unocc",
				"energy": 0.0876,
				"method": "rhf"
			}
		],
		"cosmo_sigma_profile": { 
			"-0.025": 0.0,
			"-0.024": 0.0,
			"-0.023": 0.0,
			"-0.022": 0.0,
			"-0.021": 0.0,
			"-0.02": 0.0,
			"-0.019": 0.0,
			"-0.018": 0.0,
			"-0.017": 0.0,
			"-0.016": 0.0,
			"-0.015": 0.0616107587701,
			"-0.014": 1.08329638058,
			"-0.013": 2.7276914823,
			"-0.012": 3.94721577487,
			"-0.011": 4.54766404134,
			"-0.01": 5.07759018606,
			"-0.009": 6.3908533361,
			"-0.008": 4.73079006821,
			"-0.007": 4.16831864687,
			"-0.006": 5.78375676066,
			"-0.005": 7.88013571064,
			"-0.004": 15.7742287785,
			"-0.003": 30.8264768625,
			"-0.002": 34.141256495,
			"-0.001": 37.3318593754,
			"0.0": 32.6958683358,
			"0.001": 16.8256897282,
			"0.002": 10.662793508,
			"0.003": 11.0238264005,
			"0.004": 11.0193420105,
			"0.005": 9.54235076031,
			"0.006": 10.9761461357,
			"0.007": 11.9592099065,
			"0.008": 9.24438004315,
			"0.009": 3.4258452828,
			"0.01": 2.67062347277,
			"0.011": 2.53765274791,
			"0.012": 2.26746835497,
			"0.013": 2.38439548055,
			"0.014": 6.05337467941,
			"0.015": 2.58407954649,
			"0.016": 0.143574427734,
			"0.017": 0.0,
			"0.018": 0.0,
			"0.019": 0.0,
			"0.02": 0.0,
			"0.021": 0.0,
			"0.022": 0.0,
			"0.023": 0.0,
			"0.024": 0.0,
			"0.025": 0.0
		}
	}
}
