{
	 "smiles": "NC1=C(Cl)C=CC(=C1)C#N", 
	 "Tm": 362.15, 
	 "num_atms": 15, 
	 "gaussian": { 
		 "optdone": 1, 
		 "sigma_profile": "yes", 
		 "theory": "DFT", 
		 "functional": "B3LYP", 
		 "basiset": "6-31G**", 
		 "properties": { 
			 "R2extent": 1981.4151, 
			 "electric_dipole_moment_norm": 4.09179886602, 
			 "electric_quadrupole_moment_norm": 15.9373201684, 
			 "total_energy": -839.441536561, 
			 "HOMO_LUMO_gap": 0.17682, 
			 "cosmo_polarized_energy": -11.81, 
			 "cosmo_cavitation_energy": 22.18, 
			 "cosmo_dispersion_energy": -16.16, 
			 "cosmo_repulsion_energy": 1.31, 
			 "cosmo_total_nonelectrostatic_energy": 7.33, 
			 "SMD_solvation_energy": 4.93 
		},
		"coords": [
			{
				"x": 0.3061052537,
				"y": 2.4106446677,
				"z": 0.2345550616,
				"element": "N" 
			},
			{
				"x": 0.2375937887,
				"y": 1.0407474625,
				"z": 0.3849894281,
				"element": "C" 
			},
			{
				"x": 0.916791054,
				"y": 0.3683686284,
				"z": 1.4238612786,
				"element": "C" 
			},
			{
				"x": 1.8119921118,
				"y": 1.3153785991,
				"z": 2.6059081477,
				"element": "Cl" 
			},
			{
				"x": 0.8949711869,
				"y": -1.0180526478,
				"z": 1.5449904093,
				"element": "C" 
			},
			{
				"x": 0.1882989693,
				"y": -1.7915034438,
				"z": 0.630067308,
				"element": "C" 
			},
			{
				"x": -0.4996568777,
				"y": -1.1476697826,
				"z": -0.4114738144,
				"element": "C" 
			},
			{
				"x": -0.4746285121,
				"y": 0.2466133769,
				"z": -0.5298289352,
				"element": "C" 
			},
			{
				"x": -1.2403021192,
				"y": -1.9211661512,
				"z": -1.3662944724,
				"element": "C" 
			},
			{
				"x": -1.8419634647,
				"y": -2.5482330182,
				"z": -2.1394903174,
				"element": "N" 
			},
			{
				"x": -0.4190925283,
				"y": 2.8404368621,
				"z": -0.3196043745,
				"element": "H" 
			},
			{
				"x": 0.5811385972,
				"y": 2.9429986666,
				"z": 1.0470155049,
				"element": "H" 
			},
			{
				"x": 1.4328241951,
				"y": -1.4850832031,
				"z": 2.3624032249,
				"element": "H" 
			},
			{
				"x": 0.1655940033,
				"y": -2.8712297526,
				"z": 0.7170216138,
				"element": "H" 
			},
			{
				"x": -1.0085656581,
				"y": 0.724949736,
				"z": -1.3449200631,
				"element": "H" 
			}
		],
		 "valence_orbital": [ 
			{
				"type": "occ",
				"energy": -0.33373,
				"method": "rhf"
			},
			{
				"type": "occ",
				"energy": -0.33196,
				"method": "rhf"
			},
			{
				"type": "occ",
				"energy": -0.32167,
				"method": "rhf"
			},
			{
				"type": "occ",
				"energy": -0.26501,
				"method": "rhf"
			},
			{
				"type": "occ",
				"energy": -0.23013,
				"method": "rhf"
			},
			{
				"type": "unocc",
				"energy": -0.05331,
				"method": "rhf"
			},
			{
				"type": "unocc",
				"energy": -0.01751,
				"method": "rhf"
			},
			{
				"type": "unocc",
				"energy": 0.01378,
				"method": "rhf"
			},
			{
				"type": "unocc",
				"energy": 0.03597,
				"method": "rhf"
			},
			{
				"type": "unocc",
				"energy": 0.06639,
				"method": "rhf"
			}
		],
		"cosmo_sigma_profile": { 
			"-0.025": 0.0,
			"-0.024": 0.0,
			"-0.023": 0.0,
			"-0.022": 0.0,
			"-0.021": 0.0,
			"-0.02": 0.0,
			"-0.019": 0.0,
			"-0.018": 0.0,
			"-0.017": 0.0,
			"-0.016": 0.0,
			"-0.015": 0.0,
			"-0.014": 0.872676520048,
			"-0.013": 2.11982342982,
			"-0.012": 2.15953285255,
			"-0.011": 2.72177959025,
			"-0.01": 2.8459290035,
			"-0.009": 3.48551311092,
			"-0.008": 5.50359326271,
			"-0.007": 6.47514169689,
			"-0.006": 8.10657965312,
			"-0.005": 6.94023994852,
			"-0.004": 6.13508839413,
			"-0.003": 6.45809668358,
			"-0.002": 9.3758121332,
			"-0.001": 12.8163895158,
			"0.0": 12.7909315683,
			"0.001": 18.7565776058,
			"0.002": 20.2460288746,
			"0.003": 13.4274950448,
			"0.004": 9.63584283901,
			"0.005": 3.90572169428,
			"0.006": 3.03591500573,
			"0.007": 3.86885225887,
			"0.008": 4.17686632673,
			"0.009": 4.34249268886,
			"0.01": 3.66243221645,
			"0.011": 3.06686191695,
			"0.012": 2.67872971756,
			"0.013": 1.5382575191,
			"0.014": 0.0835422318558,
			"0.015": 0.0,
			"0.016": 0.0,
			"0.017": 0.0,
			"0.018": 0.0,
			"0.019": 0.0,
			"0.02": 0.0,
			"0.021": 0.0,
			"0.022": 0.0,
			"0.023": 0.0,
			"0.024": 0.0,
			"0.025": 0.0
		}
	}
}
