{
	 "smiles": "COC1=CC(OC)=CC(N)=C1", 
	 "Tm": 328.15, 
	 "num_atms": 22, 
	 "gaussian": { 
		 "optdone": 1, 
		 "sigma_profile": "yes", 
		 "theory": "DFT", 
		 "functional": "B3LYP", 
		 "basiset": "6-31G**", 
		 "properties": { 
			 "R2extent": 2427.7328, 
			 "electric_dipole_moment_norm": 1.76531452438, 
			 "electric_quadrupole_moment_norm": 9.93077159238, 
			 "total_energy": -516.657871664, 
			 "HOMO_LUMO_gap": 0.22086, 
			 "cosmo_polarized_energy": -11.75, 
			 "cosmo_cavitation_energy": 25.36, 
			 "cosmo_dispersion_energy": -18.96, 
			 "cosmo_repulsion_energy": 1.53, 
			 "cosmo_total_nonelectrostatic_energy": 7.93, 
			 "SMD_solvation_energy": 5.86 
		},
		"coords": [
			{
				"x": 1.6898626148,
				"y": -0.4127437356,
				"z": 1.6602221931,
				"element": "C" 
			},
			{
				"x": 0.5513390782,
				"y": -0.9086161498,
				"z": 0.9788897065,
				"element": "O" 
			},
			{
				"x": 0.0161166209,
				"y": -0.1520669777,
				"z": -0.0271151937,
				"element": "C" 
			},
			{
				"x": -1.1172364529,
				"y": -0.711163576,
				"z": -0.6403545308,
				"element": "C" 
			},
			{
				"x": -1.7288976482,
				"y": -0.0083102104,
				"z": -1.6772382386,
				"element": "C" 
			},
			{
				"x": -2.8329403653,
				"y": -0.4501129751,
				"z": -2.3507587212,
				"element": "O" 
			},
			{
				"x": -3.397096195,
				"y": -1.6927559045,
				"z": -1.9678822808,
				"element": "C" 
			},
			{
				"x": -1.2273024446,
				"y": 1.2286812184,
				"z": -2.1066877885,
				"element": "C" 
			},
			{
				"x": -0.1013423942,
				"y": 1.7725765205,
				"z": -1.4872019211,
				"element": "C" 
			},
			{
				"x": 0.3750835865,
				"y": 3.0325712146,
				"z": -1.8626399292,
				"element": "N" 
			},
			{
				"x": 0.5312475976,
				"y": 1.0763731258,
				"z": -0.4358173616,
				"element": "C" 
			},
			{
				"x": 2.5451313606,
				"y": -0.2839425386,
				"z": 0.9836196059,
				"element": "H" 
			},
			{
				"x": 1.4820279666,
				"y": 0.5440254628,
				"z": 2.1570541119,
				"element": "H" 
			},
			{
				"x": 1.9408263075,
				"y": -1.1605883328,
				"z": 2.4146042165,
				"element": "H" 
			},
			{
				"x": -1.4739814942,
				"y": -1.6681139002,
				"z": -0.2848042322,
				"element": "H" 
			},
			{
				"x": -3.7336875749,
				"y": -1.6811394093,
				"z": -0.9231394706,
				"element": "H" 
			},
			{
				"x": -4.2581139192,
				"y": -1.8478319414,
				"z": -2.620497114,
				"element": "H" 
			},
			{
				"x": -2.6880919688,
				"y": -2.5198461135,
				"z": -2.1034825825,
				"element": "H" 
			},
			{
				"x": -1.7333680058,
				"y": 1.7463074031,
				"z": -2.9150286265,
				"element": "H" 
			},
			{
				"x": 0.1164419239,
				"y": 3.3195246835,
				"z": -2.796796605,
				"element": "H" 
			},
			{
				"x": 1.3589755127,
				"y": 3.1837297191,
				"z": -1.6866620472,
				"element": "H" 
			},
			{
				"x": 1.3988058937,
				"y": 1.5139424173,
				"z": 0.0435168095,
				"element": "H" 
			}
		],
		 "valence_orbital": [ 
			{
				"type": "occ",
				"energy": -0.32407,
				"method": "rhf"
			},
			{
				"type": "occ",
				"energy": -0.32313,
				"method": "rhf"
			},
			{
				"type": "occ",
				"energy": -0.25453,
				"method": "rhf"
			},
			{
				"type": "occ",
				"energy": -0.20301,
				"method": "rhf"
			},
			{
				"type": "occ",
				"energy": -0.19157,
				"method": "rhf"
			},
			{
				"type": "unocc",
				"energy": 0.02929,
				"method": "rhf"
			},
			{
				"type": "unocc",
				"energy": 0.03215,
				"method": "rhf"
			},
			{
				"type": "unocc",
				"energy": 0.08574,
				"method": "rhf"
			},
			{
				"type": "unocc",
				"energy": 0.10556,
				"method": "rhf"
			},
			{
				"type": "unocc",
				"energy": 0.11145,
				"method": "rhf"
			}
		],
		"cosmo_sigma_profile": { 
			"-0.025": 0.0,
			"-0.024": 0.0,
			"-0.023": 0.0,
			"-0.022": 0.0,
			"-0.021": 0.0,
			"-0.02": 0.0,
			"-0.019": 0.0,
			"-0.018": 0.0,
			"-0.017": 0.0,
			"-0.016": 0.0,
			"-0.015": 0.0,
			"-0.014": 0.0,
			"-0.013": 0.124178747234,
			"-0.012": 1.85802814583,
			"-0.011": 2.83830940627,
			"-0.01": 3.02151300906,
			"-0.009": 2.96081699805,
			"-0.008": 2.74616169406,
			"-0.007": 3.26254502043,
			"-0.006": 6.96895913296,
			"-0.005": 19.3100921673,
			"-0.004": 22.5645016563,
			"-0.003": 20.050464864,
			"-0.002": 13.7299922069,
			"-0.001": 8.46860518598,
			"0.0": 7.57741843416,
			"0.001": 6.43254967641,
			"0.002": 6.54569781469,
			"0.003": 6.76446595944,
			"0.004": 8.75740785611,
			"0.005": 11.8864550918,
			"0.006": 17.0319479931,
			"0.007": 9.35630874648,
			"0.008": 4.91412460696,
			"0.009": 3.22195251831,
			"0.01": 3.95734672165,
			"0.011": 3.12996422133,
			"0.012": 0.668855615238,
			"0.013": 0.62892248817,
			"0.014": 0.720770914835,
			"0.015": 0.461125023858,
			"0.016": 0.0,
			"0.017": 0.0,
			"0.018": 0.0,
			"0.019": 0.0,
			"0.02": 0.0,
			"0.021": 0.0,
			"0.022": 0.0,
			"0.023": 0.0,
			"0.024": 0.0,
			"0.025": 0.0
		}
	}
}
