{
	 "smiles": "OC(=O)C1=CN=C(C=C1)N1C=CC=N1", 
	 "Tm": 541.15, 
	 "num_atms": 21, 
	 "gaussian": { 
		 "optdone": 1, 
		 "sigma_profile": "yes", 
		 "theory": "DFT", 
		 "functional": "B3LYP", 
		 "basiset": "6-31G**", 
		 "properties": { 
			 "R2extent": 3573.0951, 
			 "electric_dipole_moment_norm": 2.15632374888, 
			 "electric_quadrupole_moment_norm": 19.3217929002, 
			 "total_energy": -661.861500515, 
			 "HOMO_LUMO_gap": 0.17687, 
			 "cosmo_polarized_energy": -17.78, 
			 "cosmo_cavitation_energy": 26.65, 
			 "cosmo_dispersion_energy": -19.89, 
			 "cosmo_repulsion_energy": 1.53, 
			 "cosmo_total_nonelectrostatic_energy": 8.3, 
			 "SMD_solvation_energy": 4.47 
		},
		"coords": [
			{
				"x": -3.9793881052,
				"y": -1.9725145652,
				"z": 0.9234693324,
				"element": "O" 
			},
			{
				"x": -2.7429634949,
				"y": -2.2198181685,
				"z": 1.4202732409,
				"element": "C" 
			},
			{
				"x": -2.5468518026,
				"y": -3.0216586055,
				"z": 2.3126330097,
				"element": "O" 
			},
			{
				"x": -1.6849309589,
				"y": -1.4182339056,
				"z": 0.7626787488,
				"element": "C" 
			},
			{
				"x": -1.9385381708,
				"y": -0.5011054277,
				"z": -0.26443802,
				"element": "C" 
			},
			{
				"x": -0.9911859163,
				"y": 0.2231221597,
				"z": -0.860065832,
				"element": "N" 
			},
			{
				"x": 0.2676145278,
				"y": 0.0624524774,
				"z": -0.452118789,
				"element": "C" 
			},
			{
				"x": 0.6405709703,
				"y": -0.8300241201,
				"z": 0.571031473,
				"element": "C" 
			},
			{
				"x": -0.3559827946,
				"y": -1.5741163229,
				"z": 1.178596422,
				"element": "C" 
			},
			{
				"x": 1.2450769703,
				"y": 0.8463634102,
				"z": -1.1057609619,
				"element": "N" 
			},
			{
				"x": 2.602453789,
				"y": 0.8665958477,
				"z": -0.8738519239,
				"element": "C" 
			},
			{
				"x": 3.1430802014,
				"y": 1.7776770402,
				"z": -1.7445904417,
				"element": "C" 
			},
			{
				"x": 2.0302055612,
				"y": 2.269958784,
				"z": -2.4772323751,
				"element": "C" 
			},
			{
				"x": 0.8920908054,
				"y": 1.7139177673,
				"z": -2.0969287124,
				"element": "N" 
			},
			{
				"x": -4.5866138548,
				"y": -2.5451256822,
				"z": 1.420549628,
				"element": "H" 
			},
			{
				"x": -2.9533063354,
				"y": -0.346160607,
				"z": -0.6204277853,
				"element": "H" 
			},
			{
				"x": 1.670577661,
				"y": -0.9426292826,
				"z": 0.8848083023,
				"element": "H" 
			},
			{
				"x": -0.1305146531,
				"y": -2.2780590219,
				"z": 1.9727563517,
				"element": "H" 
			},
			{
				"x": 3.0717381497,
				"y": 0.2478705515,
				"z": -0.1264792113,
				"element": "H" 
			},
			{
				"x": 4.1833320124,
				"y": 2.0503095515,
				"z": -1.8411701838,
				"element": "H" 
			},
			{
				"x": 2.0214354382,
				"y": 3.0093781195,
				"z": -3.2673322724,
				"element": "H" 
			}
		],
		 "valence_orbital": [ 
			{
				"type": "occ",
				"energy": -0.29917,
				"method": "rhf"
			},
			{
				"type": "occ",
				"energy": -0.28831,
				"method": "rhf"
			},
			{
				"type": "occ",
				"energy": -0.26424,
				"method": "rhf"
			},
			{
				"type": "occ",
				"energy": -0.25859,
				"method": "rhf"
			},
			{
				"type": "occ",
				"energy": -0.24389,
				"method": "rhf"
			},
			{
				"type": "unocc",
				"energy": -0.06702,
				"method": "rhf"
			},
			{
				"type": "unocc",
				"energy": -0.0367,
				"method": "rhf"
			},
			{
				"type": "unocc",
				"energy": 0.00244,
				"method": "rhf"
			},
			{
				"type": "unocc",
				"energy": 0.06192,
				"method": "rhf"
			},
			{
				"type": "unocc",
				"energy": 0.06531,
				"method": "rhf"
			}
		],
		"cosmo_sigma_profile": { 
			"-0.025": 0.0,
			"-0.024": 0.0,
			"-0.023": 0.0,
			"-0.022": 0.0,
			"-0.021": 0.0,
			"-0.02": 0.0,
			"-0.019": 0.164001699367,
			"-0.018": 1.24980137821,
			"-0.017": 0.749733940313,
			"-0.016": 0.727959880696,
			"-0.015": 0.39885769456,
			"-0.014": 0.593413936283,
			"-0.013": 0.490219127132,
			"-0.012": 2.5671679694,
			"-0.011": 2.69025709634,
			"-0.01": 2.64587579765,
			"-0.009": 2.39585740294,
			"-0.008": 6.07080571117,
			"-0.007": 9.85918660912,
			"-0.006": 8.50183520455,
			"-0.005": 10.2947781732,
			"-0.004": 9.62232314841,
			"-0.003": 12.6726797293,
			"-0.002": 16.9902892948,
			"-0.001": 22.1174452685,
			"0.0": 16.8109822916,
			"0.001": 12.6098166063,
			"0.002": 10.5256150285,
			"0.003": 11.3481688643,
			"0.004": 9.85683941204,
			"0.005": 5.55001803166,
			"0.006": 4.74772102532,
			"0.007": 4.72339788249,
			"0.008": 3.17048061922,
			"0.009": 3.43302684859,
			"0.01": 4.17811770257,
			"0.011": 5.39278720241,
			"0.012": 4.04969441812,
			"0.013": 1.52828368956,
			"0.014": 1.01459300936,
			"0.015": 1.76121606267,
			"0.016": 0.638356731347,
			"0.017": 0.685695919582,
			"0.018": 1.23598425674,
			"0.019": 0.768927983901,
			"0.02": 0.479695870211,
			"0.021": 0.0228419665217,
			"0.022": 0.0,
			"0.023": 0.0,
			"0.024": 0.0,
			"0.025": 0.0
		}
	}
}
