{
	 "smiles": "CSC1=CC(=NN1)C1=CC=C(F)C=C1", 
	 "Tm": 375.15, 
	 "num_atms": 23, 
	 "gaussian": { 
		 "optdone": 1, 
		 "sigma_profile": "yes", 
		 "theory": "DFT", 
		 "functional": "B3LYP", 
		 "basiset": "6-31G**", 
		 "properties": { 
			 "R2extent": 4800.9335, 
			 "electric_dipole_moment_norm": 3.64823402484, 
			 "electric_quadrupole_moment_norm": 10.0391504172, 
			 "total_energy": -993.995011335, 
			 "HOMO_LUMO_gap": 0.19119, 
			 "cosmo_polarized_energy": -11.85, 
			 "cosmo_cavitation_energy": 29.6, 
			 "cosmo_dispersion_energy": -22.2, 
			 "cosmo_repulsion_energy": 1.66, 
			 "cosmo_total_nonelectrostatic_energy": 9.06, 
			 "SMD_solvation_energy": 4.62 
		},
		"coords": [
			{
				"x": 2.2670678761,
				"y": 2.5679552752,
				"z": -1.9125936892,
				"element": "C" 
			},
			{
				"x": 2.0273544422,
				"y": 3.1955741149,
				"z": -0.2174371569,
				"element": "S" 
			},
			{
				"x": 0.9004070645,
				"y": 1.9865835033,
				"z": 0.4033336384,
				"element": "C" 
			},
			{
				"x": 0.3124171101,
				"y": 0.8604281155,
				"z": -0.1467232243,
				"element": "C" 
			},
			{
				"x": -0.4998099991,
				"y": 0.3243151338,
				"z": 0.8921853049,
				"element": "C" 
			},
			{
				"x": -0.4173164839,
				"y": 1.0667045097,
				"z": 2.0000953297,
				"element": "N" 
			},
			{
				"x": 0.4347690845,
				"y": 2.0661780821,
				"z": 1.681374587,
				"element": "N" 
			},
			{
				"x": -1.3527259164,
				"y": -0.8761610282,
				"z": 0.8587405923,
				"element": "C" 
			},
			{
				"x": -2.0899034112,
				"y": -1.2535183131,
				"z": 1.9950628658,
				"element": "C" 
			},
			{
				"x": -2.9006794262,
				"y": -2.3841641691,
				"z": 1.9820808847,
				"element": "C" 
			},
			{
				"x": -2.9741183646,
				"y": -3.1448285985,
				"z": 0.8193850951,
				"element": "C" 
			},
			{
				"x": -3.759473993,
				"y": -4.2435089223,
				"z": 0.8007029472,
				"element": "F" 
			},
			{
				"x": -2.2609333778,
				"y": -2.8042640785,
				"z": -0.3233000654,
				"element": "C" 
			},
			{
				"x": -1.4528367051,
				"y": -1.6687698037,
				"z": -0.2952188066,
				"element": "C" 
			},
			{
				"x": 1.3236725562,
				"y": 2.5643265677,
				"z": -2.4620183118,
				"element": "H" 
			},
			{
				"x": 2.9622172764,
				"y": 3.2590952205,
				"z": -2.3925905863,
				"element": "H" 
			},
			{
				"x": 2.7041750057,
				"y": 1.5676558357,
				"z": -1.8978464026,
				"element": "H" 
			},
			{
				"x": 0.4495038506,
				"y": 0.4831872896,
				"z": -1.1471854162,
				"element": "H" 
			},
			{
				"x": 0.6553803566,
				"y": 2.7645772171,
				"z": 2.3741396434,
				"element": "H" 
			},
			{
				"x": -2.0168757573,
				"y": -0.645303495,
				"z": 2.8898133588,
				"element": "H" 
			},
			{
				"x": -3.4727049371,
				"y": -2.6824274724,
				"z": 2.8541936071,
				"element": "H" 
			},
			{
				"x": -2.3433144614,
				"y": -3.4215944301,
				"z": -1.2112873936,
				"element": "H" 
			},
			{
				"x": -0.8951717898,
				"y": -1.4017405543,
				"z": -1.1874068016,
				"element": "H" 
			}
		],
		 "valence_orbital": [ 
			{
				"type": "occ",
				"energy": -0.28977,
				"method": "rhf"
			},
			{
				"type": "occ",
				"energy": -0.27852,
				"method": "rhf"
			},
			{
				"type": "occ",
				"energy": -0.25518,
				"method": "rhf"
			},
			{
				"type": "occ",
				"energy": -0.22589,
				"method": "rhf"
			},
			{
				"type": "occ",
				"energy": -0.20882,
				"method": "rhf"
			},
			{
				"type": "unocc",
				"energy": -0.01763,
				"method": "rhf"
			},
			{
				"type": "unocc",
				"energy": -0.00526,
				"method": "rhf"
			},
			{
				"type": "unocc",
				"energy": 0.01038,
				"method": "rhf"
			},
			{
				"type": "unocc",
				"energy": 0.02952,
				"method": "rhf"
			},
			{
				"type": "unocc",
				"energy": 0.06957,
				"method": "rhf"
			}
		],
		"cosmo_sigma_profile": { 
			"-0.025": 0.0,
			"-0.024": 0.0,
			"-0.023": 0.0,
			"-0.022": 0.0,
			"-0.021": 0.0,
			"-0.02": 0.0,
			"-0.019": 0.0,
			"-0.018": 0.0,
			"-0.017": 0.763256296115,
			"-0.016": 1.66417997954,
			"-0.015": 0.817149371582,
			"-0.014": 0.697155353406,
			"-0.013": 1.10354510884,
			"-0.012": 1.54331096862,
			"-0.011": 0.85805240842,
			"-0.01": 0.820880387758,
			"-0.009": 0.711411595759,
			"-0.008": 2.7826772985,
			"-0.007": 9.1532769519,
			"-0.006": 14.1488548693,
			"-0.005": 15.7525435458,
			"-0.004": 15.4071183745,
			"-0.003": 13.1994755553,
			"-0.002": 12.1480934042,
			"-0.001": 10.4683782491,
			"0.0": 11.5787902018,
			"0.001": 15.7204400304,
			"0.002": 16.7884183851,
			"0.003": 23.4696875007,
			"0.004": 33.9416727179,
			"0.005": 15.9306242858,
			"0.006": 5.45777199474,
			"0.007": 4.64215198985,
			"0.008": 3.2863761194,
			"0.009": 1.25089628937,
			"0.01": 1.09158816458,
			"0.011": 1.39283559203,
			"0.012": 1.33927341667,
			"0.013": 1.0628092616,
			"0.014": 0.403183576385,
			"0.015": 0.0,
			"0.016": 0.0,
			"0.017": 0.0,
			"0.018": 0.0,
			"0.019": 0.0,
			"0.02": 0.0,
			"0.021": 0.0,
			"0.022": 0.0,
			"0.023": 0.0,
			"0.024": 0.0,
			"0.025": 0.0
		}
	}
}
