{
	 "smiles": "OC(=O)C1=C2C=CC(OC(F)(F)F)=CC2=NN1", 
	 "Tm": 535.15, 
	 "num_atms": 22, 
	 "gaussian": { 
		 "optdone": 1, 
		 "sigma_profile": "yes", 
		 "theory": "DFT", 
		 "functional": "B3LYP", 
		 "basiset": "6-31G**", 
		 "properties": { 
			 "R2extent": 5207.0413, 
			 "electric_dipole_moment_norm": 2.07715868436, 
			 "electric_quadrupole_moment_norm": 20.1317611594, 
			 "total_energy": -980.655287542, 
			 "HOMO_LUMO_gap": 0.1596, 
			 "cosmo_polarized_energy": -15.95, 
			 "cosmo_cavitation_energy": 29.13, 
			 "cosmo_dispersion_energy": -21.35, 
			 "cosmo_repulsion_energy": 1.57, 
			 "cosmo_total_nonelectrostatic_energy": 9.35, 
			 "SMD_solvation_energy": 6.38 
		},
		"coords": [
			{
				"x": -0.2469647683,
				"y": -0.5087191383,
				"z": 4.5516740092,
				"element": "O" 
			},
			{
				"x": 0.4019510003,
				"y": -1.5205158341,
				"z": 3.92692276,
				"element": "C" 
			},
			{
				"x": 0.8664447654,
				"y": -2.4476386826,
				"z": 4.5550643493,
				"element": "O" 
			},
			{
				"x": 0.5165039482,
				"y": -1.4331975559,
				"z": 2.4633740767,
				"element": "C" 
			},
			{
				"x": -0.0098802469,
				"y": -0.625461017,
				"z": 1.4347964535,
				"element": "C" 
			},
			{
				"x": -0.9150561923,
				"y": 0.459930328,
				"z": 1.3370103902,
				"element": "C" 
			},
			{
				"x": -1.1752886886,
				"y": 0.9845981235,
				"z": 0.093887898,
				"element": "C" 
			},
			{
				"x": -0.560884842,
				"y": 0.4521204063,
				"z": -1.0762440828,
				"element": "C" 
			},
			{
				"x": -0.9560290891,
				"y": 1.1248569019,
				"z": -2.231900247,
				"element": "O" 
			},
			{
				"x": -0.4711486086,
				"y": 0.7746693476,
				"z": -3.4515328092,
				"element": "C" 
			},
			{
				"x": 0.86780208,
				"y": 0.8920750822,
				"z": -3.524876754,
				"element": "F" 
			},
			{
				"x": -0.7818542922,
				"y": -0.4925061879,
				"z": -3.7835662644,
				"element": "F" 
			},
			{
				"x": -1.0202315323,
				"y": 1.5949980731,
				"z": -4.3440148249,
				"element": "F" 
			},
			{
				"x": 0.3092060545,
				"y": -0.6109981891,
				"z": -1.037772398,
				"element": "C" 
			},
			{
				"x": 0.5831458587,
				"y": -1.1559663761,
				"z": 0.2404909583,
				"element": "C" 
			},
			{
				"x": 1.3961634051,
				"y": -2.2049165684,
				"z": 0.5111280367,
				"element": "N" 
			},
			{
				"x": 1.3178408938,
				"y": -2.3300523416,
				"z": 1.8318793695,
				"element": "N" 
			},
			{
				"x": -0.4231724246,
				"y": 0.2155665931,
				"z": 3.9348578896,
				"element": "H" 
			},
			{
				"x": -1.426984933,
				"y": 0.8700965937,
				"z": 2.2035321317,
				"element": "H" 
			},
			{
				"x": -1.8631185234,
				"y": 1.8132463047,
				"z": -0.0323531708,
				"element": "H" 
			},
			{
				"x": 0.7729898545,
				"y": -1.0340750179,
				"z": -1.917821308,
				"element": "H" 
			},
			{
				"x": 1.8294662808,
				"y": -3.0587108451,
				"z": 2.3156635366,
				"element": "H" 
			}
		],
		 "valence_orbital": [ 
			{
				"type": "occ",
				"energy": -0.31782,
				"method": "rhf"
			},
			{
				"type": "occ",
				"energy": -0.31359,
				"method": "rhf"
			},
			{
				"type": "occ",
				"energy": -0.29612,
				"method": "rhf"
			},
			{
				"type": "occ",
				"energy": -0.26884,
				"method": "rhf"
			},
			{
				"type": "occ",
				"energy": -0.23971,
				"method": "rhf"
			},
			{
				"type": "unocc",
				"energy": -0.08011,
				"method": "rhf"
			},
			{
				"type": "unocc",
				"energy": -0.02589,
				"method": "rhf"
			},
			{
				"type": "unocc",
				"energy": 0.00173,
				"method": "rhf"
			},
			{
				"type": "unocc",
				"energy": 0.0354,
				"method": "rhf"
			},
			{
				"type": "unocc",
				"energy": 0.07687,
				"method": "rhf"
			}
		],
		"cosmo_sigma_profile": { 
			"-0.025": 0.0,
			"-0.024": 0.0,
			"-0.023": 0.0,
			"-0.022": 0.0,
			"-0.021": 0.0,
			"-0.02": 0.0,
			"-0.019": 0.0662018342659,
			"-0.018": 0.802758420296,
			"-0.017": 2.22138178545,
			"-0.016": 1.82713384923,
			"-0.015": 1.44220840126,
			"-0.014": 2.4149388735,
			"-0.013": 2.75750029121,
			"-0.012": 1.82149434244,
			"-0.011": 1.4326987044,
			"-0.01": 2.17483584334,
			"-0.009": 2.15084916948,
			"-0.008": 4.31992010965,
			"-0.007": 5.17984591295,
			"-0.006": 6.91419314092,
			"-0.005": 7.78432131978,
			"-0.004": 8.25896941106,
			"-0.003": 7.167507898,
			"-0.002": 11.4666323468,
			"-0.001": 17.4147730545,
			"0.0": 22.3627990522,
			"0.001": 38.1337775961,
			"0.002": 36.2492447704,
			"0.003": 8.90881941683,
			"0.004": 4.08719868171,
			"0.005": 4.04367274698,
			"0.006": 3.88339302009,
			"0.007": 3.80009638747,
			"0.008": 3.70971993115,
			"0.009": 5.82049980712,
			"0.01": 5.28397050374,
			"0.011": 5.75759929074,
			"0.012": 3.41505990591,
			"0.013": 1.25592880811,
			"0.014": 0.836404748091,
			"0.015": 0.104980799772,
			"0.016": 0.0,
			"0.017": 0.0,
			"0.018": 0.0,
			"0.019": 0.0,
			"0.02": 0.0,
			"0.021": 0.0,
			"0.022": 0.0,
			"0.023": 0.0,
			"0.024": 0.0,
			"0.025": 0.0
		}
	}
}
