{
	 "smiles": "CN(C)C(=O)C1=CC(Cl)=C(Cl)N=C1", 
	 "Tm": 363.15, 
	 "num_atms": 21, 
	 "gaussian": { 
		 "optdone": 1, 
		 "sigma_profile": "yes", 
		 "theory": "DFT", 
		 "functional": "B3LYP", 
		 "basiset": "6-31G**", 
		 "properties": { 
			 "R2extent": 5770.8136, 
			 "electric_dipole_moment_norm": 4.98943873597, 
			 "electric_quadrupole_moment_norm": 9.76186957504, 
			 "total_energy": -1414.78154581, 
			 "HOMO_LUMO_gap": 0.19288, 
			 "cosmo_polarized_energy": -12.14, 
			 "cosmo_cavitation_energy": 28.86, 
			 "cosmo_dispersion_energy": -21.05, 
			 "cosmo_repulsion_energy": 1.68, 
			 "cosmo_total_nonelectrostatic_energy": 9.49, 
			 "SMD_solvation_energy": 3.67 
		},
		"coords": [
			{
				"x": 1.2045190187,
				"y": -1.0662187413,
				"z": 0.3370788543,
				"element": "C" 
			},
			{
				"x": 2.1249408912,
				"y": -0.2385363072,
				"z": 1.1067820301,
				"element": "N" 
			},
			{
				"x": 3.4886534207,
				"y": -0.7492561406,
				"z": 1.195677652,
				"element": "C" 
			},
			{
				"x": 1.9104814497,
				"y": 1.0747185791,
				"z": 1.4505550334,
				"element": "C" 
			},
			{
				"x": 2.8228715066,
				"y": 1.8346799919,
				"z": 1.7651997087,
				"element": "O" 
			},
			{
				"x": 0.4939515663,
				"y": 1.5877901484,
				"z": 1.495472677,
				"element": "C" 
			},
			{
				"x": -0.5670957943,
				"y": 0.9006429328,
				"z": 2.0919109981,
				"element": "C" 
			},
			{
				"x": -1.8153660648,
				"y": 1.5123908775,
				"z": 2.1860499696,
				"element": "C" 
			},
			{
				"x": -3.1312379402,
				"y": 0.6588876712,
				"z": 2.9457563844,
				"element": "Cl" 
			},
			{
				"x": -1.9569264461,
				"y": 2.8083782226,
				"z": 1.6615290919,
				"element": "C" 
			},
			{
				"x": -3.4978495987,
				"y": 3.6317473078,
				"z": 1.7241213885,
				"element": "Cl" 
			},
			{
				"x": -0.9545080561,
				"y": 3.4694861371,
				"z": 1.1077262988,
				"element": "N" 
			},
			{
				"x": 0.244434919,
				"y": 2.8873224394,
				"z": 1.0393054015,
				"element": "C" 
			},
			{
				"x": 0.2777196986,
				"y": -0.5343186951,
				"z": 0.1307884223,
				"element": "H" 
			},
			{
				"x": 1.6607922416,
				"y": -1.335575597,
				"z": -0.6243345916,
				"element": "H" 
			},
			{
				"x": 0.9682904085,
				"y": -1.9954302391,
				"z": 0.8703734217,
				"element": "H" 
			},
			{
				"x": 3.4687322995,
				"y": -1.776080482,
				"z": 1.5760261593,
				"element": "H" 
			},
			{
				"x": 4.0616010904,
				"y": -0.1132825116,
				"z": 1.8679195177,
				"element": "H" 
			},
			{
				"x": 3.9770859469,
				"y": -0.7518188645,
				"z": 0.2120757376,
				"element": "H" 
			},
			{
				"x": -0.4319499213,
				"y": -0.0944933587,
				"z": 2.5013065409,
				"element": "H" 
			},
			{
				"x": 1.0498593637,
				"y": 3.4736666292,
				"z": 0.6068793039,
				"element": "H" 
			}
		],
		 "valence_orbital": [ 
			{
				"type": "occ",
				"energy": -0.30098,
				"method": "rhf"
			},
			{
				"type": "occ",
				"energy": -0.29011,
				"method": "rhf"
			},
			{
				"type": "occ",
				"energy": -0.27349,
				"method": "rhf"
			},
			{
				"type": "occ",
				"energy": -0.25892,
				"method": "rhf"
			},
			{
				"type": "occ",
				"energy": -0.25242,
				"method": "rhf"
			},
			{
				"type": "unocc",
				"energy": -0.05954,
				"method": "rhf"
			},
			{
				"type": "unocc",
				"energy": -0.04894,
				"method": "rhf"
			},
			{
				"type": "unocc",
				"energy": -0.00089,
				"method": "rhf"
			},
			{
				"type": "unocc",
				"energy": 0.02564,
				"method": "rhf"
			},
			{
				"type": "unocc",
				"energy": 0.04955,
				"method": "rhf"
			}
		],
		"cosmo_sigma_profile": { 
			"-0.025": 0.0,
			"-0.024": 0.0,
			"-0.023": 0.0,
			"-0.022": 0.0,
			"-0.021": 0.0,
			"-0.02": 0.0,
			"-0.019": 0.0,
			"-0.018": 0.0,
			"-0.017": 0.0,
			"-0.016": 0.0,
			"-0.015": 0.0,
			"-0.014": 0.0,
			"-0.013": 0.0,
			"-0.012": 0.0,
			"-0.011": 0.0,
			"-0.01": 0.230425751914,
			"-0.009": 1.15944014501,
			"-0.008": 2.56980847109,
			"-0.007": 3.14630611975,
			"-0.006": 7.2722398035,
			"-0.005": 20.7433567329,
			"-0.004": 22.0089420005,
			"-0.003": 26.7962045117,
			"-0.002": 27.784588246,
			"-0.001": 18.1733149161,
			"0.0": 14.3024033224,
			"0.001": 11.8757546554,
			"0.002": 14.9789312892,
			"0.003": 18.8321772493,
			"0.004": 13.4682262103,
			"0.005": 5.2579501307,
			"0.006": 3.43800529282,
			"0.007": 2.5030548847,
			"0.008": 3.14290880427,
			"0.009": 2.66556687464,
			"0.01": 1.82623946614,
			"0.011": 3.03459406167,
			"0.012": 3.1434947134,
			"0.013": 5.36930052521,
			"0.014": 1.37044173434,
			"0.015": 0.0,
			"0.016": 0.0,
			"0.017": 0.0,
			"0.018": 0.0,
			"0.019": 0.0,
			"0.02": 0.0,
			"0.021": 0.0,
			"0.022": 0.0,
			"0.023": 0.0,
			"0.024": 0.0,
			"0.025": 0.0
		}
	}
}
