{
	 "smiles": "NC1=NC=NC2=C1C=NN2C1=CC=CC=C1", 
	 "Tm": 488.65, 
	 "num_atms": 25, 
	 "gaussian": { 
		 "optdone": 1, 
		 "sigma_profile": "yes", 
		 "theory": "DFT", 
		 "functional": "B3LYP", 
		 "basiset": "6-31G**", 
		 "properties": { 
			 "R2extent": 4211.833, 
			 "electric_dipole_moment_norm": 3.03700228844, 
			 "electric_quadrupole_moment_norm": 20.265450165, 
			 "total_energy": -698.351292278, 
			 "HOMO_LUMO_gap": 0.17649, 
			 "cosmo_polarized_energy": -13.8, 
			 "cosmo_cavitation_energy": 29.37, 
			 "cosmo_dispersion_energy": -22.28, 
			 "cosmo_repulsion_energy": 1.69, 
			 "cosmo_total_nonelectrostatic_energy": 8.78, 
			 "SMD_solvation_energy": 2.16 
		},
		"coords": [
			{
				"x": 3.8491272362,
				"y": 1.0799553542,
				"z": 2.4040442987,
				"element": "N" 
			},
			{
				"x": 2.5933587741,
				"y": 1.1412695466,
				"z": 1.8858457836,
				"element": "C" 
			},
			{
				"x": 2.118132413,
				"y": 2.3548751716,
				"z": 1.5697765628,
				"element": "N" 
			},
			{
				"x": 0.8893058728,
				"y": 2.4254761447,
				"z": 1.0302575862,
				"element": "C" 
			},
			{
				"x": 0.0386422548,
				"y": 1.4382909076,
				"z": 0.7584962302,
				"element": "N" 
			},
			{
				"x": 0.5300032402,
				"y": 0.2287033685,
				"z": 1.0825495349,
				"element": "C" 
			},
			{
				"x": 1.8008076154,
				"y": -0.0070307113,
				"z": 1.647636865,
				"element": "C" 
			},
			{
				"x": 1.8709659547,
				"y": -1.4183659702,
				"z": 1.8048686028,
				"element": "C" 
			},
			{
				"x": 0.7646818536,
				"y": -1.9975778723,
				"z": 1.3861682181,
				"element": "N" 
			},
			{
				"x": -0.0689470256,
				"y": -1.0019218487,
				"z": 0.9401320627,
				"element": "N" 
			},
			{
				"x": -1.3513454901,
				"y": -1.3524353249,
				"z": 0.4237189437,
				"element": "C" 
			},
			{
				"x": -2.2357981956,
				"y": -0.3686465974,
				"z": -0.0378333497,
				"element": "C" 
			},
			{
				"x": -3.4815347247,
				"y": -0.7524269374,
				"z": -0.5352331125,
				"element": "C" 
			},
			{
				"x": -3.8551932113,
				"y": -2.0955427505,
				"z": -0.5782977555,
				"element": "C" 
			},
			{
				"x": -2.9646213029,
				"y": -3.0662818927,
				"z": -0.1153065282,
				"element": "C" 
			},
			{
				"x": -1.7161431123,
				"y": -2.7051405332,
				"z": 0.3850731089,
				"element": "C" 
			},
			{
				"x": 4.1753246024,
				"y": 0.2429551303,
				"z": 2.8577374051,
				"element": "H" 
			},
			{
				"x": 4.2753990531,
				"y": 1.9577816993,
				"z": 2.659967053,
				"element": "H" 
			},
			{
				"x": 0.5458092434,
				"y": 3.4293789939,
				"z": 0.7881384916,
				"element": "H" 
			},
			{
				"x": 2.6726653254,
				"y": -2.0311030348,
				"z": 2.1965882366,
				"element": "H" 
			},
			{
				"x": -1.9457837132,
				"y": 0.6729903243,
				"z": -0.0048977415,
				"element": "H" 
			},
			{
				"x": -4.1631745073,
				"y": 0.0144748525,
				"z": -0.8918512269,
				"element": "H" 
			},
			{
				"x": -4.8272786755,
				"y": -2.3832241559,
				"z": -0.9674402693,
				"element": "H" 
			},
			{
				"x": -3.2397861751,
				"y": -4.1167711305,
				"z": -0.1419181611,
				"element": "H" 
			},
			{
				"x": -1.0205173055,
				"y": -3.4514827338,
				"z": 0.7455791608,
				"element": "H" 
			}
		],
		 "valence_orbital": [ 
			{
				"type": "occ",
				"energy": -0.282,
				"method": "rhf"
			},
			{
				"type": "occ",
				"energy": -0.25995,
				"method": "rhf"
			},
			{
				"type": "occ",
				"energy": -0.24693,
				"method": "rhf"
			},
			{
				"type": "occ",
				"energy": -0.2403,
				"method": "rhf"
			},
			{
				"type": "occ",
				"energy": -0.21683,
				"method": "rhf"
			},
			{
				"type": "unocc",
				"energy": -0.04034,
				"method": "rhf"
			},
			{
				"type": "unocc",
				"energy": -0.01571,
				"method": "rhf"
			},
			{
				"type": "unocc",
				"energy": 0.00175,
				"method": "rhf"
			},
			{
				"type": "unocc",
				"energy": 0.01926,
				"method": "rhf"
			},
			{
				"type": "unocc",
				"energy": 0.05544,
				"method": "rhf"
			}
		],
		"cosmo_sigma_profile": { 
			"-0.025": 0.0,
			"-0.024": 0.0,
			"-0.023": 0.0,
			"-0.022": 0.0,
			"-0.021": 0.0,
			"-0.02": 0.0,
			"-0.019": 0.0,
			"-0.018": 0.0,
			"-0.017": 0.0,
			"-0.016": 0.0,
			"-0.015": 0.901664255899,
			"-0.014": 2.4425767665,
			"-0.013": 2.57621894,
			"-0.012": 2.84497148921,
			"-0.011": 2.81606826397,
			"-0.01": 2.71747927903,
			"-0.009": 3.43455546974,
			"-0.008": 3.81870704638,
			"-0.007": 3.74059309928,
			"-0.006": 8.79583777811,
			"-0.005": 11.2616794539,
			"-0.004": 12.6759295901,
			"-0.003": 12.0864227055,
			"-0.002": 11.2617258944,
			"-0.001": 18.3035274514,
			"0.0": 20.1518898113,
			"0.001": 18.7941887897,
			"0.002": 18.3794420056,
			"0.003": 18.743956547,
			"0.004": 17.3841753171,
			"0.005": 15.5194335716,
			"0.006": 7.34536240889,
			"0.007": 5.04997006899,
			"0.008": 3.99895558828,
			"0.009": 4.8885596756,
			"0.01": 2.34013805461,
			"0.011": 1.53321522731,
			"0.012": 1.11058347363,
			"0.013": 0.684960357823,
			"0.014": 0.85353358965,
			"0.015": 0.486789756064,
			"0.016": 0.0540886073431,
			"0.017": 0.0,
			"0.018": 0.0,
			"0.019": 0.0,
			"0.02": 0.0,
			"0.021": 0.0,
			"0.022": 0.0,
			"0.023": 0.0,
			"0.024": 0.0,
			"0.025": 0.0
		}
	}
}
