{
	 "smiles": "CC(O)C1CCNCC1", 
	 "Tm": 342.15, 
	 "num_atms": 24, 
	 "gaussian": { 
		 "optdone": 1, 
		 "sigma_profile": "yes", 
		 "theory": "DFT", 
		 "functional": "B3LYP", 
		 "basiset": "6-31G**", 
		 "properties": { 
			 "R2extent": 1503.3429, 
			 "electric_dipole_moment_norm": 1.8531246801, 
			 "electric_quadrupole_moment_norm": 8.93689198939, 
			 "total_energy": -405.746692906, 
			 "HOMO_LUMO_gap": 0.2673, 
			 "cosmo_polarized_energy": -8.94, 
			 "cosmo_cavitation_energy": 23.62, 
			 "cosmo_dispersion_energy": -17.74, 
			 "cosmo_repulsion_energy": 1.45, 
			 "cosmo_total_nonelectrostatic_energy": 7.33, 
			 "SMD_solvation_energy": 0.91 
		},
		"coords": [
			{
				"x": -0.5325476092,
				"y": -0.9609440741,
				"z": 1.3297336307,
				"element": "C" 
			},
			{
				"x": 0.3531417021,
				"y": -0.7174734998,
				"z": 0.1053464305,
				"element": "C" 
			},
			{
				"x": 1.6024864339,
				"y": -1.3983679812,
				"z": 0.2622361248,
				"element": "O" 
			},
			{
				"x": 0.7122412058,
				"y": 0.7651508963,
				"z": -0.1229445053,
				"element": "C" 
			},
			{
				"x": -0.5158049231,
				"y": 1.6900435143,
				"z": -0.2255572036,
				"element": "C" 
			},
			{
				"x": -1.3628210003,
				"y": 1.4136214046,
				"z": -1.4915822417,
				"element": "C" 
			},
			{
				"x": -0.5715340606,
				"y": 1.0198442259,
				"z": -2.6716067458,
				"element": "N" 
			},
			{
				"x": 0.8088320854,
				"y": 1.5057813404,
				"z": -2.5951259923,
				"element": "C" 
			},
			{
				"x": 1.6037923941,
				"y": 0.9542645323,
				"z": -1.387763506,
				"element": "C" 
			},
			{
				"x": -0.0673228171,
				"y": -0.5406655727,
				"z": 2.2276270913,
				"element": "H" 
			},
			{
				"x": -1.5286042548,
				"y": -0.5237050969,
				"z": 1.2135155013,
				"element": "H" 
			},
			{
				"x": -0.6681750103,
				"y": -2.0368910245,
				"z": 1.4932378319,
				"element": "H" 
			},
			{
				"x": -0.1659448902,
				"y": -1.1049569437,
				"z": -0.788549345,
				"element": "H" 
			},
			{
				"x": 1.4168621234,
				"y": -2.3414971115,
				"z": 0.3538094933,
				"element": "H" 
			},
			{
				"x": 1.2934368868,
				"y": 1.0546814442,
				"z": 0.7618728474,
				"element": "H" 
			},
			{
				"x": -1.146538043,
				"y": 1.6281439763,
				"z": 0.6676201236,
				"element": "H" 
			},
			{
				"x": -0.1483706972,
				"y": 2.7229898595,
				"z": -0.2565247288,
				"element": "H" 
			},
			{
				"x": -1.9440132564,
				"y": 2.3151690375,
				"z": -1.7323075893,
				"element": "H" 
			},
			{
				"x": -2.0960975744,
				"y": 0.6227255606,
				"z": -1.2957534986,
				"element": "H" 
			},
			{
				"x": -0.5568224587,
				"y": 0.0065714162,
				"z": -2.7477812879,
				"element": "H" 
			},
			{
				"x": 1.3205911851,
				"y": 1.2575060287,
				"z": -3.5316578979,
				"element": "H" 
			},
			{
				"x": 0.7661846603,
				"y": 2.6018781402,
				"z": -2.5550366327,
				"element": "H" 
			},
			{
				"x": 2.061936946,
				"y": -0.0067406628,
				"z": -1.6413392512,
				"element": "H" 
			},
			{
				"x": 2.4340909725,
				"y": 1.6340705902,
				"z": -1.1600686489,
				"element": "H" 
			}
		],
		 "valence_orbital": [ 
			{
				"type": "occ",
				"energy": -0.33325,
				"method": "rhf"
			},
			{
				"type": "occ",
				"energy": -0.306,
				"method": "rhf"
			},
			{
				"type": "occ",
				"energy": -0.29632,
				"method": "rhf"
			},
			{
				"type": "occ",
				"energy": -0.26516,
				"method": "rhf"
			},
			{
				"type": "occ",
				"energy": -0.20557,
				"method": "rhf"
			},
			{
				"type": "unocc",
				"energy": 0.06173,
				"method": "rhf"
			},
			{
				"type": "unocc",
				"energy": 0.08438,
				"method": "rhf"
			},
			{
				"type": "unocc",
				"energy": 0.09724,
				"method": "rhf"
			},
			{
				"type": "unocc",
				"energy": 0.1165,
				"method": "rhf"
			},
			{
				"type": "unocc",
				"energy": 0.13064,
				"method": "rhf"
			}
		],
		"cosmo_sigma_profile": { 
			"-0.025": 0.0,
			"-0.024": 0.0,
			"-0.023": 0.0,
			"-0.022": 0.0,
			"-0.021": 0.0,
			"-0.02": 0.0,
			"-0.019": 0.0,
			"-0.018": 0.0,
			"-0.017": 0.0,
			"-0.016": 0.0,
			"-0.015": 0.447644317433,
			"-0.014": 1.04920647984,
			"-0.013": 0.890949989814,
			"-0.012": 0.698604635671,
			"-0.011": 1.18291329589,
			"-0.01": 0.960685734197,
			"-0.009": 1.67927271138,
			"-0.008": 2.47090034789,
			"-0.007": 2.95676438813,
			"-0.006": 2.90834942361,
			"-0.005": 4.24631214426,
			"-0.004": 4.92886229147,
			"-0.003": 18.1159832004,
			"-0.002": 25.5162866587,
			"-0.001": 29.7435661908,
			"0.0": 25.9474672702,
			"0.001": 18.23876388,
			"0.002": 7.43046292298,
			"0.003": 3.02417725233,
			"0.004": 2.98050149517,
			"0.005": 2.67498345597,
			"0.006": 2.14273261515,
			"0.007": 2.46996297755,
			"0.008": 2.37910626673,
			"0.009": 2.16551239665,
			"0.01": 2.14640859732,
			"0.011": 1.99621361375,
			"0.012": 1.84011387162,
			"0.013": 1.82300469064,
			"0.014": 2.38224968248,
			"0.015": 1.18737198282,
			"0.016": 0.590939130154,
			"0.017": 0.47939546388,
			"0.018": 0.62133272601,
			"0.019": 0.409597279037,
			"0.02": 0.0,
			"0.021": 0.0,
			"0.022": 0.0,
			"0.023": 0.0,
			"0.024": 0.0,
			"0.025": 0.0
		}
	}
}
