{
	 "smiles": "COC(=O)NC1=NC2=CC=CC=C2N1", 
	 "Tm": 578.15, 
	 "num_atms": 23, 
	 "gaussian": { 
		 "optdone": 1, 
		 "sigma_profile": "yes", 
		 "theory": "DFT", 
		 "functional": "B3LYP", 
		 "basiset": "6-31G**", 
		 "properties": { 
			 "R2extent": 3648.055, 
			 "electric_dipole_moment_norm": 3.87823975793, 
			 "electric_quadrupole_moment_norm": 12.3891345121, 
			 "total_energy": -663.118491888, 
			 "HOMO_LUMO_gap": 0.1953, 
			 "cosmo_polarized_energy": -14.99, 
			 "cosmo_cavitation_energy": 27.75, 
			 "cosmo_dispersion_energy": -20.87, 
			 "cosmo_repulsion_energy": 1.64, 
			 "cosmo_total_nonelectrostatic_energy": 8.51, 
			 "SMD_solvation_energy": 4.24 
		},
		"coords": [
			{
				"x": 0.5549895975,
				"y": -3.7709454955,
				"z": -2.6188226797,
				"element": "C" 
			},
			{
				"x": 0.5402499667,
				"y": -2.8297674475,
				"z": -1.5284854884,
				"element": "O" 
			},
			{
				"x": 0.4075532491,
				"y": -3.3979792709,
				"z": -0.3006055253,
				"element": "C" 
			},
			{
				"x": 0.3079462258,
				"y": -4.5907431844,
				"z": -0.1051581485,
				"element": "O" 
			},
			{
				"x": 0.399028929,
				"y": -2.4608435665,
				"z": 0.7071886521,
				"element": "N" 
			},
			{
				"x": 0.4999029695,
				"y": -1.0751784832,
				"z": 0.682241466,
				"element": "C" 
			},
			{
				"x": 0.4682294371,
				"y": -0.3666462789,
				"z": 1.7844787533,
				"element": "N" 
			},
			{
				"x": 0.5947098932,
				"y": 0.9472682856,
				"z": 1.3490303796,
				"element": "C" 
			},
			{
				"x": 0.6249957871,
				"y": 2.1375540603,
				"z": 2.0835646748,
				"element": "C" 
			},
			{
				"x": 0.7629086486,
				"y": 3.3356225581,
				"z": 1.3855659668,
				"element": "C" 
			},
			{
				"x": 0.8695665995,
				"y": 3.3609508786,
				"z": -0.0173043296,
				"element": "C" 
			},
			{
				"x": 0.8416504926,
				"y": 2.1859309362,
				"z": -0.7694195511,
				"element": "C" 
			},
			{
				"x": 0.7034918069,
				"y": 0.9935018307,
				"z": -0.0627184479,
				"element": "C" 
			},
			{
				"x": 0.6383969554,
				"y": -0.3360243292,
				"z": -0.4643804991,
				"element": "N" 
			},
			{
				"x": 1.3922595257,
				"y": -4.4637452784,
				"z": -2.5134428403,
				"element": "H" 
			},
			{
				"x": -0.3778550237,
				"y": -4.3376420576,
				"z": -2.6462220971,
				"element": "H" 
			},
			{
				"x": 0.6655182891,
				"y": -3.1690169443,
				"z": -3.5205123331,
				"element": "H" 
			},
			{
				"x": 0.3019864017,
				"y": -2.8463060687,
				"z": 1.6367079763,
				"element": "H" 
			},
			{
				"x": 0.542526993,
				"y": 2.1146918157,
				"z": 3.1653152923,
				"element": "H" 
			},
			{
				"x": 0.7889866679,
				"y": 4.2726430449,
				"z": 1.9340165909,
				"element": "H" 
			},
			{
				"x": 0.9758760385,
				"y": 4.3140132349,
				"z": -0.5267140077,
				"element": "H" 
			},
			{
				"x": 0.9240231858,
				"y": 2.2062042824,
				"z": -1.8520071039,
				"element": "H" 
			},
			{
				"x": 0.679957364,
				"y": -0.7246425222,
				"z": -1.3931167003,
				"element": "H" 
			}
		],
		 "valence_orbital": [ 
			{
				"type": "occ",
				"energy": -0.29839,
				"method": "rhf"
			},
			{
				"type": "occ",
				"energy": -0.29235,
				"method": "rhf"
			},
			{
				"type": "occ",
				"energy": -0.2775,
				"method": "rhf"
			},
			{
				"type": "occ",
				"energy": -0.22548,
				"method": "rhf"
			},
			{
				"type": "occ",
				"energy": -0.20975,
				"method": "rhf"
			},
			{
				"type": "unocc",
				"energy": -0.01445,
				"method": "rhf"
			},
			{
				"type": "unocc",
				"energy": 0.02137,
				"method": "rhf"
			},
			{
				"type": "unocc",
				"energy": 0.03239,
				"method": "rhf"
			},
			{
				"type": "unocc",
				"energy": 0.07232,
				"method": "rhf"
			},
			{
				"type": "unocc",
				"energy": 0.08439,
				"method": "rhf"
			}
		],
		"cosmo_sigma_profile": { 
			"-0.025": 0.0,
			"-0.024": 0.0,
			"-0.023": 0.0,
			"-0.022": 0.0,
			"-0.021": 0.0,
			"-0.02": 0.0,
			"-0.019": 0.0,
			"-0.018": 0.0,
			"-0.017": 0.076291747696,
			"-0.016": 0.419735178446,
			"-0.015": 1.39109192949,
			"-0.014": 1.32294648048,
			"-0.013": 0.902187405744,
			"-0.012": 1.71914577346,
			"-0.011": 1.76782307483,
			"-0.01": 1.48237149699,
			"-0.009": 1.7213537116,
			"-0.008": 1.7163038422,
			"-0.007": 4.76480234599,
			"-0.006": 12.5494455547,
			"-0.005": 16.477958429,
			"-0.004": 20.5247703039,
			"-0.003": 21.0977066669,
			"-0.002": 15.6523205396,
			"-0.001": 13.4044708507,
			"0.0": 12.1241904418,
			"0.001": 12.0125535852,
			"0.002": 9.54978510036,
			"0.003": 9.75152377681,
			"0.004": 11.2517307458,
			"0.005": 11.9098317579,
			"0.006": 10.6410879739,
			"0.007": 5.37779887524,
			"0.008": 2.14636217538,
			"0.009": 2.4484621703,
			"0.01": 2.59032617971,
			"0.011": 4.43696621971,
			"0.012": 6.25377611823,
			"0.013": 1.92234020078,
			"0.014": 0.723779227583,
			"0.015": 0.696281911849,
			"0.016": 1.11499805859,
			"0.017": 0.257536745346,
			"0.018": 0.0,
			"0.019": 0.0,
			"0.02": 0.0,
			"0.021": 0.0,
			"0.022": 0.0,
			"0.023": 0.0,
			"0.024": 0.0,
			"0.025": 0.0
		}
	}
}
