{
	 "smiles": "CC(C)(C)OC(=O)N1CCN(CC1)C1=CC=C(C=O)C=N1", 
	 "Tm": 400.15, 
	 "num_atms": 42, 
	 "gaussian": { 
		 "optdone": 1, 
		 "sigma_profile": "yes", 
		 "theory": "DFT", 
		 "functional": "B3LYP", 
		 "basiset": "6-31G**", 
		 "properties": { 
			 "R2extent": 11414.3627, 
			 "electric_dipole_moment_norm": 6.38399080278, 
			 "electric_quadrupole_moment_norm": 26.7263642473, 
			 "total_energy": -974.209118235, 
			 "HOMO_LUMO_gap": 0.16386, 
			 "cosmo_polarized_energy": -16.66, 
			 "cosmo_cavitation_energy": 43.6, 
			 "cosmo_dispersion_energy": -30.79, 
			 "cosmo_repulsion_energy": 2.35, 
			 "cosmo_total_nonelectrostatic_energy": 15.16, 
			 "SMD_solvation_energy": 7.29 
		},
		"coords": [
			{
				"x": -1.1425500304,
				"y": -3.0747912785,
				"z": -3.8271151067,
				"element": "C" 
			},
			{
				"x": -1.9282041358,
				"y": -2.9277327359,
				"z": -2.5212589169,
				"element": "C" 
			},
			{
				"x": -2.1895731782,
				"y": -4.2981706696,
				"z": -1.8876706873,
				"element": "C" 
			},
			{
				"x": -3.2198279452,
				"y": -2.1361168438,
				"z": -2.7509059976,
				"element": "C" 
			},
			{
				"x": -1.0017069515,
				"y": -2.1516075275,
				"z": -1.6789971224,
				"element": "O" 
			},
			{
				"x": -1.3409804944,
				"y": -1.8003956666,
				"z": -0.4152675955,
				"element": "C" 
			},
			{
				"x": -2.3911150304,
				"y": -2.0813817036,
				"z": 0.1438790884,
				"element": "O" 
			},
			{
				"x": -0.3456206838,
				"y": -1.057554607,
				"z": 0.1742252495,
				"element": "N" 
			},
			{
				"x": 0.9650354314,
				"y": -0.804482919,
				"z": -0.4049527757,
				"element": "C" 
			},
			{
				"x": 1.3660314784,
				"y": 0.6650974953,
				"z": -0.2130709967,
				"element": "C" 
			},
			{
				"x": 1.2402255226,
				"y": 1.0603099392,
				"z": 1.1858923872,
				"element": "N" 
			},
			{
				"x": -0.0852908607,
				"y": 0.7926929939,
				"z": 1.7590238505,
				"element": "C" 
			},
			{
				"x": -0.4704627086,
				"y": -0.673895136,
				"z": 1.5764024124,
				"element": "C" 
			},
			{
				"x": 2.1049504853,
				"y": 1.9381116719,
				"z": 1.8012482084,
				"element": "C" 
			},
			{
				"x": 3.267036966,
				"y": 2.451743457,
				"z": 1.163778177,
				"element": "C" 
			},
			{
				"x": 4.0998754485,
				"y": 3.2894090557,
				"z": 1.8801917125,
				"element": "C" 
			},
			{
				"x": 3.7933006044,
				"y": 3.630250852,
				"z": 3.2071994239,
				"element": "C" 
			},
			{
				"x": 4.6515371425,
				"y": 4.5188083885,
				"z": 3.9989053196,
				"element": "C" 
			},
			{
				"x": 4.4377111514,
				"y": 4.8550905189,
				"z": 5.151473804,
				"element": "O" 
			},
			{
				"x": 2.6130720122,
				"y": 3.0885916828,
				"z": 3.7385354421,
				"element": "C" 
			},
			{
				"x": 1.7967974865,
				"y": 2.2808358053,
				"z": 3.0749295678,
				"element": "N" 
			},
			{
				"x": -1.7266108936,
				"y": -3.6467878827,
				"z": -4.5540247472,
				"element": "H" 
			},
			{
				"x": -0.1980776118,
				"y": -3.5989439638,
				"z": -3.6536134301,
				"element": "H" 
			},
			{
				"x": -0.9203817277,
				"y": -2.0939837759,
				"z": -4.2580445598,
				"element": "H" 
			},
			{
				"x": -2.7291879307,
				"y": -4.1965444006,
				"z": -0.9461000678,
				"element": "H" 
			},
			{
				"x": -1.2437939581,
				"y": -4.8171865094,
				"z": -1.7018448949,
				"element": "H" 
			},
			{
				"x": -2.7838338171,
				"y": -4.9114020337,
				"z": -2.5728613452,
				"element": "H" 
			},
			{
				"x": -3.8511845879,
				"y": -2.6662043114,
				"z": -3.4713927181,
				"element": "H" 
			},
			{
				"x": -2.9917087277,
				"y": -1.1479499638,
				"z": -3.1632258185,
				"element": "H" 
			},
			{
				"x": -3.7730478698,
				"y": -2.012739045,
				"z": -1.8199125317,
				"element": "H" 
			},
			{
				"x": 0.9441647848,
				"y": -1.0450230891,
				"z": -1.4662419732,
				"element": "H" 
			},
			{
				"x": 1.7177488139,
				"y": -1.4438218744,
				"z": 0.08168509,
				"element": "H" 
			},
			{
				"x": 2.3977552935,
				"y": 0.7760919479,
				"z": -0.5455536882,
				"element": "H" 
			},
			{
				"x": 0.731812808,
				"y": 1.3033807123,
				"z": -0.8486255446,
				"element": "H" 
			},
			{
				"x": -0.8321030061,
				"y": 1.4291008163,
				"z": 1.2592901359,
				"element": "H" 
			},
			{
				"x": -0.0572480439,
				"y": 1.0574857016,
				"z": 2.8140292225,
				"element": "H" 
			},
			{
				"x": 0.1846500956,
				"y": -1.3055743387,
				"z": 2.1948332636,
				"element": "H" 
			},
			{
				"x": -1.5028914707,
				"y": -0.8416217318,
				"z": 1.8827640364,
				"element": "H" 
			},
			{
				"x": 3.5037590748,
				"y": 2.2162959247,
				"z": 0.1347531248,
				"element": "H" 
			},
			{
				"x": 4.9938798566,
				"y": 3.6944711486,
				"z": 1.4102875724,
				"element": "H" 
			},
			{
				"x": 5.554685697,
				"y": 4.8855326332,
				"z": 3.458045743,
				"element": "H" 
			},
			{
				"x": 2.3329715108,
				"y": 3.3387112629,
				"z": 4.759907686,
				"element": "H" 
			}
		],
		 "valence_orbital": [ 
			{
				"type": "occ",
				"energy": -0.26935,
				"method": "rhf"
			},
			{
				"type": "occ",
				"energy": -0.2665,
				"method": "rhf"
			},
			{
				"type": "occ",
				"energy": -0.24819,
				"method": "rhf"
			},
			{
				"type": "occ",
				"energy": -0.24206,
				"method": "rhf"
			},
			{
				"type": "occ",
				"energy": -0.21579,
				"method": "rhf"
			},
			{
				"type": "unocc",
				"energy": -0.05193,
				"method": "rhf"
			},
			{
				"type": "unocc",
				"energy": -0.02744,
				"method": "rhf"
			},
			{
				"type": "unocc",
				"energy": 0.04363,
				"method": "rhf"
			},
			{
				"type": "unocc",
				"energy": 0.04544,
				"method": "rhf"
			},
			{
				"type": "unocc",
				"energy": 0.07693,
				"method": "rhf"
			}
		],
		"cosmo_sigma_profile": { 
			"-0.025": 0.0,
			"-0.024": 0.0,
			"-0.023": 0.0,
			"-0.022": 0.0,
			"-0.021": 0.0,
			"-0.02": 0.0,
			"-0.019": 0.0,
			"-0.018": 0.0,
			"-0.017": 0.0,
			"-0.016": 0.0,
			"-0.015": 0.0,
			"-0.014": 0.0,
			"-0.013": 0.0,
			"-0.012": 0.0,
			"-0.011": 0.0,
			"-0.01": 0.140764099363,
			"-0.009": 1.40290245973,
			"-0.008": 3.03149242693,
			"-0.007": 7.06470069439,
			"-0.006": 9.46988081609,
			"-0.005": 18.5719710101,
			"-0.004": 40.1729326379,
			"-0.003": 37.3957863534,
			"-0.002": 29.3621707676,
			"-0.001": 30.4873888238,
			"0.0": 36.6626760563,
			"0.001": 37.2031191097,
			"0.002": 19.4802188443,
			"0.003": 12.4522767109,
			"0.004": 10.4637882505,
			"0.005": 8.2700791812,
			"0.006": 4.70524950573,
			"0.007": 5.11033366961,
			"0.008": 4.23309700883,
			"0.009": 4.4084586603,
			"0.01": 4.95765200211,
			"0.011": 5.24687291825,
			"0.012": 6.30580415579,
			"0.013": 5.20519460856,
			"0.014": 1.27957119648,
			"0.015": 0.0,
			"0.016": 0.0,
			"0.017": 0.0,
			"0.018": 0.0,
			"0.019": 0.0,
			"0.02": 0.0,
			"0.021": 0.0,
			"0.022": 0.0,
			"0.023": 0.0,
			"0.024": 0.0,
			"0.025": 0.0
		}
	}
}
