{
	 "smiles": "CC1CC2=C(CCC(=O)C2)C2CCC3(C)C(CCC3(O)C#C)C12", 
	 "Tm": 440.15, 
	 "num_atms": 51, 
	 "gaussian": { 
		 "optdone": 1, 
		 "sigma_profile": "yes", 
		 "theory": "DFT", 
		 "functional": "B3LYP", 
		 "basiset": "6-31G**", 
		 "properties": { 
			 "R2extent": 7941.7028, 
			 "electric_dipole_moment_norm": 3.13717058988, 
			 "electric_quadrupole_moment_norm": 23.4807600269, 
			 "total_energy": -967.486897993, 
			 "HOMO_LUMO_gap": 0.21757, 
			 "cosmo_polarized_energy": -12.69, 
			 "cosmo_cavitation_energy": 45.99, 
			 "cosmo_dispersion_energy": -31.11, 
			 "cosmo_repulsion_energy": 2.33, 
			 "cosmo_total_nonelectrostatic_energy": 17.2, 
			 "SMD_solvation_energy": 8.12 
		},
		"coords": [
			{
				"x": -2.2815694074,
				"y": -1.8693557505,
				"z": 1.3589112929,
				"element": "C" 
			},
			{
				"x": -1.9047518613,
				"y": -0.9049391141,
				"z": 0.2209922782,
				"element": "C" 
			},
			{
				"x": -2.5189609617,
				"y": 0.4874924906,
				"z": 0.4469822118,
				"element": "C" 
			},
			{
				"x": -1.7800065512,
				"y": 1.307968007,
				"z": 1.4834617124,
				"element": "C" 
			},
			{
				"x": -0.522197799,
				"y": 1.0261528671,
				"z": 1.8719364236,
				"element": "C" 
			},
			{
				"x": 0.1635299183,
				"y": 1.823203962,
				"z": 2.9672017478,
				"element": "C" 
			},
			{
				"x": -0.8250730584,
				"y": 2.5548606597,
				"z": 3.8927077122,
				"element": "C" 
			},
			{
				"x": -1.8437494012,
				"y": 3.3210819168,
				"z": 3.0765218383,
				"element": "C" 
			},
			{
				"x": -2.0859033981,
				"y": 4.5012739881,
				"z": 3.2432263507,
				"element": "O" 
			},
			{
				"x": -2.5627268315,
				"y": 2.4868469097,
				"z": 2.0268186481,
				"element": "C" 
			},
			{
				"x": 0.2828963761,
				"y": -0.1183058047,
				"z": 1.2683389985,
				"element": "C" 
			},
			{
				"x": 1.7244209254,
				"y": 0.2863550057,
				"z": 0.8965860403,
				"element": "C" 
			},
			{
				"x": 2.5482432741,
				"y": -0.9411336513,
				"z": 0.484291159,
				"element": "C" 
			},
			{
				"x": 1.8984464306,
				"y": -1.9100967989,
				"z": -0.535065884,
				"element": "C" 
			},
			{
				"x": 2.4867926203,
				"y": -3.3161882448,
				"z": -0.2640894231,
				"element": "C" 
			},
			{
				"x": 0.3347917897,
				"y": -1.9972236554,
				"z": -0.4788325419,
				"element": "C" 
			},
			{
				"x": -0.1097737165,
				"y": -2.3873217226,
				"z": -1.9297205326,
				"element": "C" 
			},
			{
				"x": 1.1570274325,
				"y": -2.3954748786,
				"z": -2.8107152204,
				"element": "C" 
			},
			{
				"x": 2.192525145,
				"y": -1.5411874332,
				"z": -2.0354816151,
				"element": "C" 
			},
			{
				"x": 3.5479650915,
				"y": -1.8901245773,
				"z": -2.3331774563,
				"element": "O" 
			},
			{
				"x": 1.9964063527,
				"y": -0.1150292437,
				"z": -2.3621161019,
				"element": "C" 
			},
			{
				"x": 1.8811202468,
				"y": 1.0240236093,
				"z": -2.7525969813,
				"element": "C" 
			},
			{
				"x": -0.3830599206,
				"y": -0.7179569235,
				"z": 0.0135593825,
				"element": "C" 
			},
			{
				"x": -1.9572060031,
				"y": -1.4931300083,
				"z": 2.3340551734,
				"element": "H" 
			},
			{
				"x": -3.3689202756,
				"y": -1.9960535809,
				"z": 1.4013230873,
				"element": "H" 
			},
			{
				"x": -1.8450425836,
				"y": -2.8631542475,
				"z": 1.2193656725,
				"element": "H" 
			},
			{
				"x": -2.3316314282,
				"y": -1.3099678262,
				"z": -0.7057866552,
				"element": "H" 
			},
			{
				"x": -2.5453734437,
				"y": 1.042380492,
				"z": -0.5036197104,
				"element": "H" 
			},
			{
				"x": -3.5703588219,
				"y": 0.3885662158,
				"z": 0.7535468765,
				"element": "H" 
			},
			{
				"x": 0.7896195451,
				"y": 1.1534555905,
				"z": 3.5705640548,
				"element": "H" 
			},
			{
				"x": 0.8568880014,
				"y": 2.5537901356,
				"z": 2.5271910154,
				"element": "H" 
			},
			{
				"x": -1.3691604503,
				"y": 1.8083759835,
				"z": 4.4887418563,
				"element": "H" 
			},
			{
				"x": -0.3207599023,
				"y": 3.2410144211,
				"z": 4.5776361038,
				"element": "H" 
			},
			{
				"x": -3.5008015904,
				"y": 2.1298602951,
				"z": 2.483651264,
				"element": "H" 
			},
			{
				"x": -2.8772241769,
				"y": 3.1591067152,
				"z": 1.21764854,
				"element": "H" 
			},
			{
				"x": 0.3619832099,
				"y": -0.9038423734,
				"z": 2.0419485366,
				"element": "H" 
			},
			{
				"x": 1.6907622304,
				"y": 1.0264659921,
				"z": 0.090974418,
				"element": "H" 
			},
			{
				"x": 2.2303409909,
				"y": 0.7631725112,
				"z": 1.742903097,
				"element": "H" 
			},
			{
				"x": 2.7578397507,
				"y": -1.5127518764,
				"z": 1.3977845904,
				"element": "H" 
			},
			{
				"x": 3.5255913574,
				"y": -0.6347733384,
				"z": 0.0928536101,
				"element": "H" 
			},
			{
				"x": 2.2290249651,
				"y": -3.6198270814,
				"z": 0.7558983984,
				"element": "H" 
			},
			{
				"x": 2.0951760706,
				"y": -4.0790335585,
				"z": -0.942388596,
				"element": "H" 
			},
			{
				"x": 3.5746505282,
				"y": -3.3105386481,
				"z": -0.3597808442,
				"element": "H" 
			},
			{
				"x": 0.0784857615,
				"y": -2.804138902,
				"z": 0.2170974057,
				"element": "H" 
			},
			{
				"x": -0.8237430011,
				"y": -1.650219548,
				"z": -2.3104323606,
				"element": "H" 
			},
			{
				"x": -0.618872638,
				"y": -3.3551704199,
				"z": -1.9592991912,
				"element": "H" 
			},
			{
				"x": 1.5766193963,
				"y": -3.399659261,
				"z": -2.9140656064,
				"element": "H" 
			},
			{
				"x": 0.9779773141,
				"y": -2.0090634807,
				"z": -3.818007727,
				"element": "H" 
			},
			{
				"x": 3.7780824102,
				"y": -1.4760504725,
				"z": -3.1752812916,
				"element": "H" 
			},
			{
				"x": 1.7707768573,
				"y": 2.0383970104,
				"z": -3.0602541629,
				"element": "H" 
			},
			{
				"x": -0.2767167699,
				"y": 0.0373676434,
				"z": -0.7784075943,
				"element": "H" 
			}
		],
		 "valence_orbital": [ 
			{
				"type": "occ",
				"energy": -0.27885,
				"method": "rhf"
			},
			{
				"type": "occ",
				"energy": -0.27443,
				"method": "rhf"
			},
			{
				"type": "occ",
				"energy": -0.2585,
				"method": "rhf"
			},
			{
				"type": "occ",
				"energy": -0.23439,
				"method": "rhf"
			},
			{
				"type": "occ",
				"energy": -0.22685,
				"method": "rhf"
			},
			{
				"type": "unocc",
				"energy": -0.00928,
				"method": "rhf"
			},
			{
				"type": "unocc",
				"energy": 0.02299,
				"method": "rhf"
			},
			{
				"type": "unocc",
				"energy": 0.02704,
				"method": "rhf"
			},
			{
				"type": "unocc",
				"energy": 0.04474,
				"method": "rhf"
			},
			{
				"type": "unocc",
				"energy": 0.07608,
				"method": "rhf"
			}
		],
		"cosmo_sigma_profile": { 
			"-0.025": 0.0,
			"-0.024": 0.0,
			"-0.023": 0.0,
			"-0.022": 0.0,
			"-0.021": 0.0,
			"-0.02": 0.0,
			"-0.019": 0.0,
			"-0.018": 0.0,
			"-0.017": 0.0,
			"-0.016": 0.0855347987012,
			"-0.015": 0.819033620722,
			"-0.014": 0.879293884474,
			"-0.013": 0.532318403529,
			"-0.012": 1.29274948757,
			"-0.011": 1.65606117773,
			"-0.01": 1.83211102618,
			"-0.009": 1.31182970318,
			"-0.008": 1.95789041513,
			"-0.007": 2.42943328584,
			"-0.006": 4.52818013427,
			"-0.005": 9.05296404044,
			"-0.004": 14.8524236216,
			"-0.003": 31.7808283345,
			"-0.002": 58.7813092088,
			"-0.001": 55.1251469956,
			"0.0": 42.3945074185,
			"0.001": 37.3456039568,
			"0.002": 23.9150340343,
			"0.003": 12.6341936672,
			"0.004": 9.10480622425,
			"0.005": 8.91703214419,
			"0.006": 6.60097661724,
			"0.007": 3.71206508311,
			"0.008": 3.6616064183,
			"0.009": 2.30882264807,
			"0.01": 3.00564427009,
			"0.011": 5.4722973516,
			"0.012": 5.52129180485,
			"0.013": 3.2953155623,
			"0.014": 0.90988505102,
			"0.015": 0.0,
			"0.016": 0.0,
			"0.017": 0.0,
			"0.018": 0.0,
			"0.019": 0.0,
			"0.02": 0.0,
			"0.021": 0.0,
			"0.022": 0.0,
			"0.023": 0.0,
			"0.024": 0.0,
			"0.025": 0.0
		}
	}
}
