{
	 "smiles": "NC1=CC(Cl)=CN=C1", 
	 "Tm": 346.15, 
	 "num_atms": 13, 
	 "gaussian": { 
		 "optdone": 1, 
		 "sigma_profile": "yes", 
		 "theory": "DFT", 
		 "functional": "B3LYP", 
		 "basiset": "6-31G**", 
		 "properties": { 
			 "R2extent": 1422.542, 
			 "electric_dipole_moment_norm": 3.7864625972, 
			 "electric_quadrupole_moment_norm": 7.43855987272, 
			 "total_energy": -763.235080738, 
			 "HOMO_LUMO_gap": 0.19487, 
			 "cosmo_polarized_energy": -10.71, 
			 "cosmo_cavitation_energy": 19.0, 
			 "cosmo_dispersion_energy": -14.51, 
			 "cosmo_repulsion_energy": 1.21, 
			 "cosmo_total_nonelectrostatic_energy": 5.7, 
			 "SMD_solvation_energy": 1.7 
		},
		"coords": [
			{
				"x": 0.5007488311,
				"y": 1.7164648742,
				"z": 1.3044755239,
				"element": "N" 
			},
			{
				"x": 0.0063624824,
				"y": 1.0846811386,
				"z": 0.1711733518,
				"element": "C" 
			},
			{
				"x": 0.6690387378,
				"y": -0.0067256637,
				"z": -0.410990845,
				"element": "C" 
			},
			{
				"x": 0.0817991556,
				"y": -0.6219864448,
				"z": -1.5097524888,
				"element": "C" 
			},
			{
				"x": 0.8794243674,
				"y": -1.989302856,
				"z": -2.2710895525,
				"element": "Cl" 
			},
			{
				"x": -1.1345805136,
				"y": -0.1614253312,
				"z": -2.0157836485,
				"element": "C" 
			},
			{
				"x": -1.7650766809,
				"y": 0.8791814634,
				"z": -1.4621249484,
				"element": "N" 
			},
			{
				"x": -1.2159233808,
				"y": 1.4799813315,
				"z": -0.4090103538,
				"element": "C" 
			},
			{
				"x": 1.4959452877,
				"y": 1.6385365958,
				"z": 1.4594392444,
				"element": "H" 
			},
			{
				"x": 0.1543444278,
				"y": 2.6508450135,
				"z": 1.4713461449,
				"element": "H" 
			},
			{
				"x": 1.6129220746,
				"y": -0.3666745361,
				"z": -0.0141260366,
				"element": "H" 
			},
			{
				"x": -1.5981838496,
				"y": -0.6379128003,
				"z": -2.8745683541,
				"element": "H" 
			},
			{
				"x": -1.7632209396,
				"y": 2.323137215,
				"z": 0.0124119627,
				"element": "H" 
			}
		],
		 "valence_orbital": [ 
			{
				"type": "occ",
				"energy": -0.33585,
				"method": "rhf"
			},
			{
				"type": "occ",
				"energy": -0.31931,
				"method": "rhf"
			},
			{
				"type": "occ",
				"energy": -0.26634,
				"method": "rhf"
			},
			{
				"type": "occ",
				"energy": -0.2587,
				"method": "rhf"
			},
			{
				"type": "occ",
				"energy": -0.22287,
				"method": "rhf"
			},
			{
				"type": "unocc",
				"energy": -0.028,
				"method": "rhf"
			},
			{
				"type": "unocc",
				"energy": -0.00406,
				"method": "rhf"
			},
			{
				"type": "unocc",
				"energy": 0.02908,
				"method": "rhf"
			},
			{
				"type": "unocc",
				"energy": 0.06601,
				"method": "rhf"
			},
			{
				"type": "unocc",
				"energy": 0.11693,
				"method": "rhf"
			}
		],
		"cosmo_sigma_profile": { 
			"-0.025": 0.0,
			"-0.024": 0.0,
			"-0.023": 0.0,
			"-0.022": 0.0,
			"-0.021": 0.0,
			"-0.02": 0.0,
			"-0.019": 0.0,
			"-0.018": 0.0,
			"-0.017": 0.0,
			"-0.016": 0.0,
			"-0.015": 0.0,
			"-0.014": 0.487447529408,
			"-0.013": 2.522554898,
			"-0.012": 3.44276189504,
			"-0.011": 3.35135169643,
			"-0.01": 3.30121623551,
			"-0.009": 3.91756649663,
			"-0.008": 3.7878696469,
			"-0.007": 4.56490632092,
			"-0.006": 5.56015100471,
			"-0.005": 5.21526828639,
			"-0.004": 4.73419568108,
			"-0.003": 4.89400907358,
			"-0.002": 7.02957427923,
			"-0.001": 6.46350560704,
			"0.0": 9.48807965576,
			"0.001": 14.3209169768,
			"0.002": 20.2690554057,
			"0.003": 12.3880991632,
			"0.004": 12.8796766688,
			"0.005": 8.23842602185,
			"0.006": 2.33674995254,
			"0.007": 2.1518103708,
			"0.008": 2.33535348878,
			"0.009": 2.14530856373,
			"0.01": 1.30878944709,
			"0.011": 1.50665472436,
			"0.012": 1.64021999739,
			"0.013": 1.55562562969,
			"0.014": 0.683197077709,
			"0.015": 0.861623106087,
			"0.016": 0.842063899912,
			"0.017": 0.0186994129279,
			"0.018": 0.0,
			"0.019": 0.0,
			"0.02": 0.0,
			"0.021": 0.0,
			"0.022": 0.0,
			"0.023": 0.0,
			"0.024": 0.0,
			"0.025": 0.0
		}
	}
}
