{
	 "smiles": "CC(C)N(C(C)C)C(=O)COC(=O)C1=CC=CC=C1", 
	 "Tm": 379.15, 
	 "num_atms": 40, 
	 "gaussian": { 
		 "optdone": 1, 
		 "sigma_profile": "yes", 
		 "theory": "DFT", 
		 "functional": "B3LYP", 
		 "basiset": "6-31G**", 
		 "properties": { 
			 "R2extent": 7441.0774, 
			 "electric_dipole_moment_norm": 3.18311542518, 
			 "electric_quadrupole_moment_norm": 16.2197742259, 
			 "total_energy": -864.712376745, 
			 "HOMO_LUMO_gap": 0.19883, 
			 "cosmo_polarized_energy": -15.75, 
			 "cosmo_cavitation_energy": 41.93, 
			 "cosmo_dispersion_energy": -28.39, 
			 "cosmo_repulsion_energy": 2.19, 
			 "cosmo_total_nonelectrostatic_energy": 15.73, 
			 "SMD_solvation_energy": 8.63 
		},
		"coords": [
			{
				"x": -2.8716872694,
				"y": -1.9122349865,
				"z": -0.9986137045,
				"element": "C" 
			},
			{
				"x": -1.9153805926,
				"y": -1.634678209,
				"z": -2.1680978759,
				"element": "C" 
			},
			{
				"x": -2.5046430407,
				"y": -0.6448775225,
				"z": -3.1841050484,
				"element": "C" 
			},
			{
				"x": -0.5608009909,
				"y": -1.225486148,
				"z": -1.7053476668,
				"element": "N" 
			},
			{
				"x": 0.5755234941,
				"y": -2.1180235389,
				"z": -2.017398832,
				"element": "C" 
			},
			{
				"x": 0.805085664,
				"y": -2.2504272491,
				"z": -3.5319976202,
				"element": "C" 
			},
			{
				"x": 0.438742521,
				"y": -3.4863724162,
				"z": -1.3299162357,
				"element": "C" 
			},
			{
				"x": -0.4273203305,
				"y": -0.064092501,
				"z": -0.9925928647,
				"element": "C" 
			},
			{
				"x": -1.3681048,
				"y": 0.6747802715,
				"z": -0.7253669419,
				"element": "O" 
			},
			{
				"x": 0.9924484577,
				"y": 0.3241561044,
				"z": -0.5127094364,
				"element": "C" 
			},
			{
				"x": 0.938159599,
				"y": 1.5575651372,
				"z": 0.1911237983,
				"element": "O" 
			},
			{
				"x": 0.5328335283,
				"y": 1.4713165518,
				"z": 1.486553547,
				"element": "C" 
			},
			{
				"x": 0.3627043996,
				"y": 0.412550789,
				"z": 2.0575861072,
				"element": "O" 
			},
			{
				"x": 0.37211141,
				"y": 2.8090456179,
				"z": 2.1176606365,
				"element": "C" 
			},
			{
				"x": 0.0685677591,
				"y": 2.8533822913,
				"z": 3.4852629916,
				"element": "C" 
			},
			{
				"x": -0.0923452387,
				"y": 4.0796930377,
				"z": 4.1249341076,
				"element": "C" 
			},
			{
				"x": 0.0460211547,
				"y": 5.267547888,
				"z": 3.4015054283,
				"element": "C" 
			},
			{
				"x": 0.3441252166,
				"y": 5.226480102,
				"z": 2.0371899183,
				"element": "C" 
			},
			{
				"x": 0.5074890412,
				"y": 4.0012049981,
				"z": 1.3929736207,
				"element": "C" 
			},
			{
				"x": -3.0759907124,
				"y": -0.9972088795,
				"z": -0.4418866181,
				"element": "H" 
			},
			{
				"x": -3.8167540135,
				"y": -2.3106024872,
				"z": -1.3833174118,
				"element": "H" 
			},
			{
				"x": -2.4461431272,
				"y": -2.6507263334,
				"z": -0.3123511168,
				"element": "H" 
			},
			{
				"x": -1.7576142188,
				"y": -2.5824231958,
				"z": -2.6912436712,
				"element": "H" 
			},
			{
				"x": -2.6928467979,
				"y": 0.3213936779,
				"z": -2.714722401,
				"element": "H" 
			},
			{
				"x": -1.823672738,
				"y": -0.4988764421,
				"z": -4.0285895963,
				"element": "H" 
			},
			{
				"x": -3.4498931977,
				"y": -1.0365858171,
				"z": -3.574942054,
				"element": "H" 
			},
			{
				"x": 1.4692041208,
				"y": -1.6480345995,
				"z": -1.6054446889,
				"element": "H" 
			},
			{
				"x": 0.9372160229,
				"y": -1.267507747,
				"z": -3.9938240455,
				"element": "H" 
			},
			{
				"x": -0.0302354916,
				"y": -2.7513245653,
				"z": -4.0310302927,
				"element": "H" 
			},
			{
				"x": 1.7050304046,
				"y": -2.843821183,
				"z": -3.7233593918,
				"element": "H" 
			},
			{
				"x": 0.3215080262,
				"y": -3.3675393545,
				"z": -0.2490026507,
				"element": "H" 
			},
			{
				"x": 1.3331399084,
				"y": -4.0901086256,
				"z": -1.5152140488,
				"element": "H" 
			},
			{
				"x": -0.4212687644,
				"y": -4.0485290766,
				"z": -1.7070793854,
				"element": "H" 
			},
			{
				"x": 1.6622818942,
				"y": 0.5001124954,
				"z": -1.3585706514,
				"element": "H" 
			},
			{
				"x": 1.4098754758,
				"y": -0.4514800086,
				"z": 0.1350449351,
				"element": "H" 
			},
			{
				"x": -0.0372576749,
				"y": 1.9173662053,
				"z": 4.023137327,
				"element": "H" 
			},
			{
				"x": -0.3267568786,
				"y": 4.1115827895,
				"z": 5.1849122349,
				"element": "H" 
			},
			{
				"x": -0.0809755292,
				"y": 6.2244615446,
				"z": 3.9001088936,
				"element": "H" 
			},
			{
				"x": 0.4463602059,
				"y": 6.1499603186,
				"z": 1.4747786004,
				"element": "H" 
			},
			{
				"x": 0.7312631029,
				"y": 3.9586610662,
				"z": 0.3335521043,
				"element": "H" 
			}
		],
		 "valence_orbital": [ 
			{
				"type": "occ",
				"energy": -0.26936,
				"method": "rhf"
			},
			{
				"type": "occ",
				"energy": -0.25343,
				"method": "rhf"
			},
			{
				"type": "occ",
				"energy": -0.25168,
				"method": "rhf"
			},
			{
				"type": "occ",
				"energy": -0.24226,
				"method": "rhf"
			},
			{
				"type": "occ",
				"energy": -0.23742,
				"method": "rhf"
			},
			{
				"type": "unocc",
				"energy": -0.03859,
				"method": "rhf"
			},
			{
				"type": "unocc",
				"energy": -0.00102,
				"method": "rhf"
			},
			{
				"type": "unocc",
				"energy": 0.02865,
				"method": "rhf"
			},
			{
				"type": "unocc",
				"energy": 0.06363,
				"method": "rhf"
			},
			{
				"type": "unocc",
				"energy": 0.06648,
				"method": "rhf"
			}
		],
		"cosmo_sigma_profile": { 
			"-0.025": 0.0,
			"-0.024": 0.0,
			"-0.023": 0.0,
			"-0.022": 0.0,
			"-0.021": 0.0,
			"-0.02": 0.0,
			"-0.019": 0.0,
			"-0.018": 0.0,
			"-0.017": 0.0,
			"-0.016": 0.0,
			"-0.015": 0.0,
			"-0.014": 0.0,
			"-0.013": 0.0,
			"-0.012": 0.0,
			"-0.011": 0.0,
			"-0.01": 0.0,
			"-0.009": 0.00783761109273,
			"-0.008": 3.66211285756,
			"-0.007": 7.54516920663,
			"-0.006": 12.719640093,
			"-0.005": 19.4472324842,
			"-0.004": 25.4901972145,
			"-0.003": 33.1906020287,
			"-0.002": 32.7984942547,
			"-0.001": 32.5972197724,
			"0.0": 32.6468142413,
			"0.001": 33.9207067551,
			"0.002": 22.2184533155,
			"0.003": 17.0456776231,
			"0.004": 15.88741996,
			"0.005": 6.32132812424,
			"0.006": 3.89495246802,
			"0.007": 2.97291210793,
			"0.008": 4.72280759239,
			"0.009": 5.1591188036,
			"0.01": 2.86745375169,
			"0.011": 5.96894435965,
			"0.012": 4.18860282738,
			"0.013": 2.73932693345,
			"0.014": 1.57741086828,
			"0.015": 0.0217759366968,
			"0.016": 0.0,
			"0.017": 0.0,
			"0.018": 0.0,
			"0.019": 0.0,
			"0.02": 0.0,
			"0.021": 0.0,
			"0.022": 0.0,
			"0.023": 0.0,
			"0.024": 0.0,
			"0.025": 0.0
		}
	}
}
