{
	 "smiles": "CCCCCCCCOC1=CC=C(N)C=C1", 
	 "Tm": 310.15, 
	 "num_atms": 39, 
	 "gaussian": { 
		 "optdone": 1, 
		 "sigma_profile": "yes", 
		 "theory": "DFT", 
		 "functional": "B3LYP", 
		 "basiset": "6-31G**", 
		 "properties": { 
			 "R2extent": 9066.9796, 
			 "electric_dipole_moment_norm": 1.85215283117, 
			 "electric_quadrupole_moment_norm": 16.003540847, 
			 "total_energy": -677.338119156, 
			 "HOMO_LUMO_gap": 0.18601, 
			 "cosmo_polarized_energy": -9.92, 
			 "cosmo_cavitation_energy": 40.04, 
			 "cosmo_dispersion_energy": -28.29, 
			 "cosmo_repulsion_energy": 2.27, 
			 "cosmo_total_nonelectrostatic_energy": 14.02, 
			 "SMD_solvation_energy": 6.07 
		},
		"coords": [
			{
				"x": -2.7045402644,
				"y": -4.5127873891,
				"z": 1.0858642161,
				"element": "C" 
			},
			{
				"x": -2.2395730527,
				"y": -4.1986016433,
				"z": 2.5124873997,
				"element": "C" 
			},
			{
				"x": -1.2917971448,
				"y": -2.9946029727,
				"z": 2.6619600552,
				"element": "C" 
			},
			{
				"x": -1.8774939764,
				"y": -1.618480729,
				"z": 2.2740657758,
				"element": "C" 
			},
			{
				"x": -1.6431855794,
				"y": -1.191494094,
				"z": 0.815986838,
				"element": "C" 
			},
			{
				"x": -2.2372070377,
				"y": 0.1884568875,
				"z": 0.5006050976,
				"element": "C" 
			},
			{
				"x": -2.067282433,
				"y": 0.645837852,
				"z": -0.9575666939,
				"element": "C" 
			},
			{
				"x": -0.6176805808,
				"y": 0.9249837181,
				"z": -1.368199958,
				"element": "C" 
			},
			{
				"x": 0.0155047708,
				"y": 1.9117938203,
				"z": -0.5550177161,
				"element": "O" 
			},
			{
				"x": -0.2222270525,
				"y": 3.2443666872,
				"z": -0.7917917925,
				"element": "C" 
			},
			{
				"x": -1.000037329,
				"y": 3.7630963525,
				"z": -1.8316691786,
				"element": "C" 
			},
			{
				"x": -1.1455813951,
				"y": 5.1456577263,
				"z": -1.9783496587,
				"element": "C" 
			},
			{
				"x": -0.5258232684,
				"y": 6.0421166067,
				"z": -1.0998481324,
				"element": "C" 
			},
			{
				"x": -0.6235996197,
				"y": 7.4322309744,
				"z": -1.2867940869,
				"element": "N" 
			},
			{
				"x": 0.2521674627,
				"y": 5.5083421965,
				"z": -0.0574002529,
				"element": "C" 
			},
			{
				"x": 0.3989700509,
				"y": 4.1354533159,
				"z": 0.0939943961,
				"element": "C" 
			},
			{
				"x": -3.3246104556,
				"y": -3.7110788899,
				"z": 0.6724937874,
				"element": "H" 
			},
			{
				"x": -1.8523135091,
				"y": -4.6561853594,
				"z": 0.411351181,
				"element": "H" 
			},
			{
				"x": -3.302327983,
				"y": -5.430436548,
				"z": 1.0638082308,
				"element": "H" 
			},
			{
				"x": -3.1199617369,
				"y": -4.0353877574,
				"z": 3.1495294773,
				"element": "H" 
			},
			{
				"x": -1.7342198223,
				"y": -5.0836147269,
				"z": 2.9210797964,
				"element": "H" 
			},
			{
				"x": -0.3759120786,
				"y": -3.1767472858,
				"z": 2.0816481064,
				"element": "H" 
			},
			{
				"x": -0.9747598031,
				"y": -2.9576980514,
				"z": 3.7117712896,
				"element": "H" 
			},
			{
				"x": -1.4364955794,
				"y": -0.8490338701,
				"z": 2.9213185959,
				"element": "H" 
			},
			{
				"x": -2.9553218905,
				"y": -1.6056708952,
				"z": 2.4922664286,
				"element": "H" 
			},
			{
				"x": -0.5612047504,
				"y": -1.1858499717,
				"z": 0.6278476678,
				"element": "H" 
			},
			{
				"x": -2.0673943068,
				"y": -1.9341146542,
				"z": 0.1283610066,
				"element": "H" 
			},
			{
				"x": -1.7878051604,
				"y": 0.9400079145,
				"z": 1.1613273151,
				"element": "H" 
			},
			{
				"x": -3.3097492439,
				"y": 0.1744399929,
				"z": 0.7357765387,
				"element": "H" 
			},
			{
				"x": -2.6659591986,
				"y": 1.5490097603,
				"z": -1.1218927621,
				"element": "H" 
			},
			{
				"x": -2.4647450131,
				"y": -0.1191209134,
				"z": -1.639700125,
				"element": "H" 
			},
			{
				"x": -0.0031532927,
				"y": 0.029406796,
				"z": -1.2378977558,
				"element": "H" 
			},
			{
				"x": -0.5588059376,
				"y": 1.2047921624,
				"z": -2.4283926532,
				"element": "H" 
			},
			{
				"x": -1.50429722,
				"y": 3.1106909827,
				"z": -2.5347930987,
				"element": "H" 
			},
			{
				"x": -1.7529002955,
				"y": 5.5290037011,
				"z": -2.7950720927,
				"element": "H" 
			},
			{
				"x": -1.4563215493,
				"y": 7.7220356428,
				"z": -1.783194354,
				"element": "H" 
			},
			{
				"x": -0.5135068701,
				"y": 7.9691812605,
				"z": -0.4362178818,
				"element": "H" 
			},
			{
				"x": 0.7508732712,
				"y": 6.1798962549,
				"z": 0.6375841638,
				"element": "H" 
			},
			{
				"x": 1.0011788751,
				"y": 3.727205146,
				"z": 0.8994708293,
				"element": "H" 
			}
		],
		 "valence_orbital": [ 
			{
				"type": "occ",
				"energy": -0.30218,
				"method": "rhf"
			},
			{
				"type": "occ",
				"energy": -0.29753,
				"method": "rhf"
			},
			{
				"type": "occ",
				"energy": -0.26717,
				"method": "rhf"
			},
			{
				"type": "occ",
				"energy": -0.24123,
				"method": "rhf"
			},
			{
				"type": "occ",
				"energy": -0.17986,
				"method": "rhf"
			},
			{
				"type": "unocc",
				"energy": 0.00615,
				"method": "rhf"
			},
			{
				"type": "unocc",
				"energy": 0.03538,
				"method": "rhf"
			},
			{
				"type": "unocc",
				"energy": 0.08467,
				"method": "rhf"
			},
			{
				"type": "unocc",
				"energy": 0.08751,
				"method": "rhf"
			},
			{
				"type": "unocc",
				"energy": 0.0954,
				"method": "rhf"
			}
		],
		"cosmo_sigma_profile": { 
			"-0.025": 0.0,
			"-0.024": 0.0,
			"-0.023": 0.0,
			"-0.022": 0.0,
			"-0.021": 0.0,
			"-0.02": 0.0,
			"-0.019": 0.0,
			"-0.018": 0.0,
			"-0.017": 0.0,
			"-0.016": 0.0,
			"-0.015": 0.0,
			"-0.014": 0.0,
			"-0.013": 0.0,
			"-0.012": 1.08626811437,
			"-0.011": 2.76409868992,
			"-0.01": 2.85106220498,
			"-0.009": 2.72954419915,
			"-0.008": 3.50175206818,
			"-0.007": 3.72302759494,
			"-0.006": 5.20681117662,
			"-0.005": 10.2276570646,
			"-0.004": 12.8758100775,
			"-0.003": 19.1396262933,
			"-0.002": 34.3475199572,
			"-0.001": 46.1306743137,
			"0.0": 46.9051327558,
			"0.001": 39.1313977674,
			"0.002": 20.4456321463,
			"0.003": 7.27972054469,
			"0.004": 9.04418670101,
			"0.005": 10.5532581638,
			"0.006": 11.0557013374,
			"0.007": 10.4378744313,
			"0.008": 1.71235149767,
			"0.009": 2.51979096791,
			"0.01": 2.15179451993,
			"0.011": 1.61187082751,
			"0.012": 1.00469839861,
			"0.013": 0.691395315356,
			"0.014": 0.613605891515,
			"0.015": 0.683635099211,
			"0.016": 0.408999483682,
			"0.017": 0.026968272367,
			"0.018": 0.0,
			"0.019": 0.0,
			"0.02": 0.0,
			"0.021": 0.0,
			"0.022": 0.0,
			"0.023": 0.0,
			"0.024": 0.0,
			"0.025": 0.0
		}
	}
}
