{
	 "smiles": "NC(=O)C1=CC=C(C=C1)C#N", 
	 "Tm": 499.15, 
	 "num_atms": 17, 
	 "gaussian": { 
		 "optdone": 1, 
		 "sigma_profile": "yes", 
		 "theory": "DFT", 
		 "functional": "B3LYP", 
		 "basiset": "6-31G**", 
		 "properties": { 
			 "R2extent": 2071.2791, 
			 "electric_dipole_moment_norm": 4.60904864153, 
			 "electric_quadrupole_moment_norm": 20.3006293053, 
			 "total_energy": -493.194977461, 
			 "HOMO_LUMO_gap": 0.1891, 
			 "cosmo_polarized_energy": -17.08, 
			 "cosmo_cavitation_energy": 23.04, 
			 "cosmo_dispersion_energy": -16.43, 
			 "cosmo_repulsion_energy": 1.33, 
			 "cosmo_total_nonelectrostatic_energy": 7.94, 
			 "SMD_solvation_energy": 6.23 
		},
		"coords": [
			{
				"x": -0.5552579164,
				"y": -0.0037768417,
				"z": -3.0660120252,
				"element": "N" 
			},
			{
				"x": 0.1303886712,
				"y": -0.7663693212,
				"z": -2.1538042953,
				"element": "C" 
			},
			{
				"x": 0.7995713054,
				"y": -1.7356681967,
				"z": -2.4861179854,
				"element": "O" 
			},
			{
				"x": 0.0384181382,
				"y": -0.3298671847,
				"z": -0.7151049239,
				"element": "C" 
			},
			{
				"x": 0.3952480463,
				"y": -1.2689682237,
				"z": 0.2618032229,
				"element": "C" 
			},
			{
				"x": 0.3363038142,
				"y": -0.9433159417,
				"z": 1.6109103429,
				"element": "C" 
			},
			{
				"x": -0.0710066852,
				"y": 0.3449883139,
				"z": 2.000562663,
				"element": "C" 
			},
			{
				"x": -0.4092603211,
				"y": 1.2982096923,
				"z": 1.0259547975,
				"element": "C" 
			},
			{
				"x": -0.3533294625,
				"y": 0.9576156959,
				"z": -0.3220928951,
				"element": "C" 
			},
			{
				"x": -0.1348069772,
				"y": 0.6901985797,
				"z": 3.3913729535,
				"element": "C" 
			},
			{
				"x": -0.1890249259,
				"y": 0.9707379975,
				"z": 4.5189180851,
				"element": "N" 
			},
			{
				"x": -1.336215764,
				"y": 0.5657395722,
				"z": -2.7802992354,
				"element": "H" 
			},
			{
				"x": -0.5741892315,
				"y": -0.3671264705,
				"z": -4.0082636645,
				"element": "H" 
			},
			{
				"x": 0.7195063578,
				"y": -2.2508585252,
				"z": -0.0647299435,
				"element": "H" 
			},
			{
				"x": 0.6041948866,
				"y": -1.6726100975,
				"z": 2.3678638205,
				"element": "H" 
			},
			{
				"x": -0.7047948695,
				"y": 2.2962930216,
				"z": 1.330932511,
				"element": "H" 
			},
			{
				"x": -0.5843450663,
				"y": 1.7139779298,
				"z": -1.065693428,
				"element": "H" 
			}
		],
		 "valence_orbital": [ 
			{
				"type": "occ",
				"energy": -0.33678,
				"method": "rhf"
			},
			{
				"type": "occ",
				"energy": -0.28927,
				"method": "rhf"
			},
			{
				"type": "occ",
				"energy": -0.28426,
				"method": "rhf"
			},
			{
				"type": "occ",
				"energy": -0.276,
				"method": "rhf"
			},
			{
				"type": "occ",
				"energy": -0.26513,
				"method": "rhf"
			},
			{
				"type": "unocc",
				"energy": -0.07603,
				"method": "rhf"
			},
			{
				"type": "unocc",
				"energy": -0.03416,
				"method": "rhf"
			},
			{
				"type": "unocc",
				"energy": 0.01775,
				"method": "rhf"
			},
			{
				"type": "unocc",
				"energy": 0.03003,
				"method": "rhf"
			},
			{
				"type": "unocc",
				"energy": 0.0591,
				"method": "rhf"
			}
		],
		"cosmo_sigma_profile": { 
			"-0.025": 0.0,
			"-0.024": 0.0,
			"-0.023": 0.0,
			"-0.022": 0.0,
			"-0.021": 0.0,
			"-0.02": 0.0,
			"-0.019": 0.0,
			"-0.018": 0.0,
			"-0.017": 0.0,
			"-0.016": 0.0,
			"-0.015": 0.49816201678,
			"-0.014": 2.32930789488,
			"-0.013": 2.66207809488,
			"-0.012": 2.38917486903,
			"-0.011": 2.62162869019,
			"-0.01": 2.73712757108,
			"-0.009": 3.22481439227,
			"-0.008": 8.08691223705,
			"-0.007": 8.68130682232,
			"-0.006": 8.8014660494,
			"-0.005": 6.68893398634,
			"-0.004": 7.9623559732,
			"-0.003": 8.24017782923,
			"-0.002": 12.9593614664,
			"-0.001": 13.3538379572,
			"0.0": 12.1772127103,
			"0.001": 17.616074658,
			"0.002": 10.2160848758,
			"0.003": 4.879418914,
			"0.004": 3.73434861021,
			"0.005": 6.08084522909,
			"0.006": 4.26859408384,
			"0.007": 3.91953032355,
			"0.008": 5.04601442422,
			"0.009": 4.78490747387,
			"0.01": 5.34874146839,
			"0.011": 3.78681951725,
			"0.012": 5.27766087728,
			"0.013": 6.16201971145,
			"0.014": 1.44447184936,
			"0.015": 0.0,
			"0.016": 0.0,
			"0.017": 0.0,
			"0.018": 0.0,
			"0.019": 0.0,
			"0.02": 0.0,
			"0.021": 0.0,
			"0.022": 0.0,
			"0.023": 0.0,
			"0.024": 0.0,
			"0.025": 0.0
		}
	}
}
