{
	 "smiles": "NNC(=O)C1=CC(F)=CC=C1", 
	 "Tm": 411.15, 
	 "num_atms": 18, 
	 "gaussian": { 
		 "optdone": 1, 
		 "sigma_profile": "yes", 
		 "theory": "DFT", 
		 "functional": "B3LYP", 
		 "basiset": "6-31G**", 
		 "properties": { 
			 "R2extent": 2209.4828, 
			 "electric_dipole_moment_norm": 2.72486789772, 
			 "electric_quadrupole_moment_norm": 6.83711867675, 
			 "total_energy": -555.497449158, 
			 "HOMO_LUMO_gap": 0.20126, 
			 "cosmo_polarized_energy": -13.3, 
			 "cosmo_cavitation_energy": 23.06, 
			 "cosmo_dispersion_energy": -16.66, 
			 "cosmo_repulsion_energy": 1.33, 
			 "cosmo_total_nonelectrostatic_energy": 7.73, 
			 "SMD_solvation_energy": 5.62 
		},
		"coords": [
			{
				"x": -2.2679851783,
				"y": 2.1566992784,
				"z": -0.3497244792,
				"element": "N" 
			},
			{
				"x": -2.3136641983,
				"y": 0.8807354552,
				"z": 0.2540330886,
				"element": "N" 
			},
			{
				"x": -1.2610542654,
				"y": -0.0071085776,
				"z": 0.3666624027,
				"element": "C" 
			},
			{
				"x": -1.471110432,
				"y": -1.2117412434,
				"z": 0.4376680807,
				"element": "O" 
			},
			{
				"x": 0.1373074302,
				"y": 0.5452309014,
				"z": 0.4193636099,
				"element": "C" 
			},
			{
				"x": 0.4666023416,
				"y": 1.7133731887,
				"z": 1.1205669942,
				"element": "C" 
			},
			{
				"x": 1.7975804951,
				"y": 2.1066695069,
				"z": 1.1811369793,
				"element": "C" 
			},
			{
				"x": 2.1117265732,
				"y": 3.2238573738,
				"z": 1.8695060539,
				"element": "F" 
			},
			{
				"x": 2.8133644955,
				"y": 1.388910758,
				"z": 0.5595333716,
				"element": "C" 
			},
			{
				"x": 2.4764698424,
				"y": 0.2219874276,
				"z": -0.129186768,
				"element": "C" 
			},
			{
				"x": 1.15127268,
				"y": -0.2066151615,
				"z": -0.1896634262,
				"element": "C" 
			},
			{
				"x": -1.9991814227,
				"y": 2.8545638369,
				"z": 0.3370651956,
				"element": "H" 
			},
			{
				"x": -1.5808679097,
				"y": 2.1704843396,
				"z": -1.0994650844,
				"element": "H" 
			},
			{
				"x": -3.2020115687,
				"y": 0.4092218427,
				"z": 0.1280483202,
				"element": "H" 
			},
			{
				"x": -0.2781194155,
				"y": 2.2957409431,
				"z": 1.650905389,
				"element": "H" 
			},
			{
				"x": 3.8371814215,
				"y": 1.7398485829,
				"z": 0.6298239691,
				"element": "H" 
			},
			{
				"x": 3.2564885062,
				"y": -0.3582800904,
				"z": -0.6124627805,
				"element": "H" 
			},
			{
				"x": 0.8834006049,
				"y": -1.1273783622,
				"z": -0.6957109164,
				"element": "H" 
			}
		],
		 "valence_orbital": [ 
			{
				"type": "occ",
				"energy": -0.30183,
				"method": "rhf"
			},
			{
				"type": "occ",
				"energy": -0.27642,
				"method": "rhf"
			},
			{
				"type": "occ",
				"energy": -0.26231,
				"method": "rhf"
			},
			{
				"type": "occ",
				"energy": -0.25667,
				"method": "rhf"
			},
			{
				"type": "occ",
				"energy": -0.24796,
				"method": "rhf"
			},
			{
				"type": "unocc",
				"energy": -0.0467,
				"method": "rhf"
			},
			{
				"type": "unocc",
				"energy": -0.01355,
				"method": "rhf"
			},
			{
				"type": "unocc",
				"energy": 0.03946,
				"method": "rhf"
			},
			{
				"type": "unocc",
				"energy": 0.06115,
				"method": "rhf"
			},
			{
				"type": "unocc",
				"energy": 0.09007,
				"method": "rhf"
			}
		],
		"cosmo_sigma_profile": { 
			"-0.025": 0.0,
			"-0.024": 0.0,
			"-0.023": 0.0,
			"-0.022": 0.0,
			"-0.021": 0.0,
			"-0.02": 0.0,
			"-0.019": 0.0,
			"-0.018": 0.0,
			"-0.017": 0.0,
			"-0.016": 0.0,
			"-0.015": 0.0,
			"-0.014": 0.0752632849379,
			"-0.013": 0.810887299389,
			"-0.012": 3.48206526123,
			"-0.011": 3.97385067295,
			"-0.01": 3.37050966724,
			"-0.009": 4.56163946953,
			"-0.008": 4.8476337446,
			"-0.007": 7.54747696618,
			"-0.006": 9.41235285231,
			"-0.005": 9.30852463364,
			"-0.004": 8.51251368487,
			"-0.003": 8.24847348309,
			"-0.002": 9.02884234216,
			"-0.001": 8.91003962123,
			"0.0": 13.5436891983,
			"0.001": 13.5773929075,
			"0.002": 14.9169819779,
			"0.003": 13.2551445578,
			"0.004": 15.4708543775,
			"0.005": 5.1297583022,
			"0.006": 2.16723003997,
			"0.007": 2.10903949242,
			"0.008": 1.87820227221,
			"0.009": 2.40241768282,
			"0.01": 2.04156552394,
			"0.011": 2.46208306415,
			"0.012": 3.48895687573,
			"0.013": 5.79148949977,
			"0.014": 2.27118907072,
			"0.015": 0.86676622356,
			"0.016": 0.31768422416,
			"0.017": 0.0,
			"0.018": 0.0,
			"0.019": 0.0,
			"0.02": 0.0,
			"0.021": 0.0,
			"0.022": 0.0,
			"0.023": 0.0,
			"0.024": 0.0,
			"0.025": 0.0
		}
	}
}
