{
	 "smiles": "COC(=O)NC(=O)CCl", 
	 "Tm": 422.15, 
	 "num_atms": 15, 
	 "gaussian": { 
		 "optdone": 1, 
		 "sigma_profile": "yes", 
		 "theory": "DFT", 
		 "functional": "B3LYP", 
		 "basiset": "6-31G**", 
		 "properties": { 
			 "R2extent": 2242.0086, 
			 "electric_dipole_moment_norm": 3.04129654917, 
			 "electric_quadrupole_moment_norm": 15.9618011061, 
			 "total_energy": -896.677846231, 
			 "HOMO_LUMO_gap": 0.2429, 
			 "cosmo_polarized_energy": -14.58, 
			 "cosmo_cavitation_energy": 21.87, 
			 "cosmo_dispersion_energy": -16.27, 
			 "cosmo_repulsion_energy": 1.38, 
			 "cosmo_total_nonelectrostatic_energy": 6.97, 
			 "SMD_solvation_energy": 6.18 
		},
		"coords": [
			{
				"x": -0.6283854788,
				"y": -0.3361246032,
				"z": 2.7456794395,
				"element": "C" 
			},
			{
				"x": -0.4415023903,
				"y": -0.5548173516,
				"z": 1.3372729682,
				"element": "O" 
			},
			{
				"x": 0.8130782309,
				"y": -0.3066591886,
				"z": 0.8904938073,
				"element": "C" 
			},
			{
				"x": 1.7375486974,
				"y": 0.0677322973,
				"z": 1.5656030114,
				"element": "O" 
			},
			{
				"x": 0.8244317844,
				"y": -0.5659485428,
				"z": -0.4850439785,
				"element": "N" 
			},
			{
				"x": 1.9138599672,
				"y": -0.4366385495,
				"z": -1.3234566939,
				"element": "C" 
			},
			{
				"x": 3.0258878417,
				"y": -0.079464643,
				"z": -1.0030741083,
				"element": "O" 
			},
			{
				"x": 1.6803024401,
				"y": -0.7813512704,
				"z": -2.8013065021,
				"element": "C" 
			},
			{
				"x": 0.0139413382,
				"y": -1.317874284,
				"z": -3.2789088899,
				"element": "Cl" 
			},
			{
				"x": -1.6730678135,
				"y": -0.5765820694,
				"z": 2.9407075339,
				"element": "H" 
			},
			{
				"x": 0.030680128,
				"y": -0.9863243246,
				"z": 3.3258089996,
				"element": "H" 
			},
			{
				"x": -0.4186551425,
				"y": 0.704622277,
				"z": 3.0036065251,
				"element": "H" 
			},
			{
				"x": -0.0506992924,
				"y": -0.8764529,
				"z": -0.8889986886,
				"element": "H" 
			},
			{
				"x": 1.917736776,
				"y": 0.1022993422,
				"z": -3.3940566975,
				"element": "H" 
			},
			{
				"x": 2.3679429136,
				"y": -1.5828161893,
				"z": -3.0721267262,
				"element": "H" 
			}
		],
		 "valence_orbital": [ 
			{
				"type": "occ",
				"energy": -0.32361,
				"method": "rhf"
			},
			{
				"type": "occ",
				"energy": -0.3143,
				"method": "rhf"
			},
			{
				"type": "occ",
				"energy": -0.29862,
				"method": "rhf"
			},
			{
				"type": "occ",
				"energy": -0.29798,
				"method": "rhf"
			},
			{
				"type": "occ",
				"energy": -0.2696,
				"method": "rhf"
			},
			{
				"type": "unocc",
				"energy": -0.0267,
				"method": "rhf"
			},
			{
				"type": "unocc",
				"energy": 0.00254,
				"method": "rhf"
			},
			{
				"type": "unocc",
				"energy": 0.05756,
				"method": "rhf"
			},
			{
				"type": "unocc",
				"energy": 0.08816,
				"method": "rhf"
			},
			{
				"type": "unocc",
				"energy": 0.10256,
				"method": "rhf"
			}
		],
		"cosmo_sigma_profile": { 
			"-0.025": 0.0,
			"-0.024": 0.0,
			"-0.023": 0.0,
			"-0.022": 0.0,
			"-0.021": 0.0,
			"-0.02": 0.0,
			"-0.019": 0.0,
			"-0.018": 0.0,
			"-0.017": 0.0,
			"-0.016": 0.0,
			"-0.015": 0.0,
			"-0.014": 0.0,
			"-0.013": 0.0,
			"-0.012": 0.0224649806232,
			"-0.011": 0.827424730762,
			"-0.01": 3.20755212537,
			"-0.009": 6.43169702009,
			"-0.008": 4.30797455313,
			"-0.007": 8.14020133485,
			"-0.006": 13.4373342648,
			"-0.005": 12.7942309943,
			"-0.004": 17.7246317001,
			"-0.003": 14.2382575932,
			"-0.002": 7.79951252179,
			"-0.001": 6.65288985393,
			"0.0": 7.46699576247,
			"0.001": 7.4247653855,
			"0.002": 6.76340437953,
			"0.003": 7.49768269818,
			"0.004": 8.4022355163,
			"0.005": 9.45265371031,
			"0.006": 3.34000444463,
			"0.007": 2.40699801607,
			"0.008": 2.64949787261,
			"0.009": 2.80565276073,
			"0.01": 3.6632371994,
			"0.011": 9.19045672631,
			"0.012": 4.54271865934,
			"0.013": 2.02916759282,
			"0.014": 1.45649178915,
			"0.015": 1.15968910851,
			"0.016": 0.340976088131,
			"0.017": 0.0,
			"0.018": 0.0,
			"0.019": 0.0,
			"0.02": 0.0,
			"0.021": 0.0,
			"0.022": 0.0,
			"0.023": 0.0,
			"0.024": 0.0,
			"0.025": 0.0
		}
	}
}
