{
	 "smiles": "BrC1=CC=C(C=C1)C1=CC=C(C=C1)C(=O)C1=CC=CC=C1", 
	 "Tm": 430.15, 
	 "num_atms": 34, 
	 "gaussian": { 
		 "optdone": 1, 
		 "sigma_profile": "yes", 
		 "theory": "DFT", 
		 "functional": "B3LYP", 
		 "basiset": "6-31G**", 
		 "properties": { 
			 "R2extent": 17125.0596, 
			 "electric_dipole_moment_norm": 2.69047929002, 
			 "electric_quadrupole_moment_norm": 16.9266619757, 
			 "total_energy": -3378.49682075, 
			 "HOMO_LUMO_gap": 0.16116, 
			 "cosmo_polarized_energy": -11.11, 
			 "cosmo_cavitation_energy": 41.18, 
			 "cosmo_dispersion_energy": -30.11, 
			 "cosmo_repulsion_energy": 2.27, 
			 "cosmo_total_nonelectrostatic_energy": 13.34, 
			 "SMD_solvation_energy": 5.9 
		},
		"coords": [
			{
				"x": -6.3672754944,
				"y": 5.2214040458,
				"z": 1.3563558257,
				"element": "Br" 
			},
			{
				"x": -5.0750935758,
				"y": 3.8276879532,
				"z": 1.1636394931,
				"element": "C" 
			},
			{
				"x": -3.9275232971,
				"y": 3.8396753487,
				"z": 1.9547080504,
				"element": "C" 
			},
			{
				"x": -2.9890018132,
				"y": 2.8204831029,
				"z": 1.8078100742,
				"element": "C" 
			},
			{
				"x": -3.1767662713,
				"y": 1.781683693,
				"z": 0.8801672009,
				"element": "C" 
			},
			{
				"x": -4.3452675471,
				"y": 1.7988187361,
				"z": 0.0996821285,
				"element": "C" 
			},
			{
				"x": -5.2922083633,
				"y": 2.8120017986,
				"z": 0.2341529056,
				"element": "C" 
			},
			{
				"x": -2.173289481,
				"y": 0.6998061873,
				"z": 0.7286327276,
				"element": "C" 
			},
			{
				"x": -2.5712207286,
				"y": -0.6280765406,
				"z": 0.4825592195,
				"element": "C" 
			},
			{
				"x": -1.6320173041,
				"y": -1.6414890987,
				"z": 0.345646666,
				"element": "C" 
			},
			{
				"x": -0.2578301932,
				"y": -1.3634685626,
				"z": 0.4231213525,
				"element": "C" 
			},
			{
				"x": 0.1457037213,
				"y": -0.0439223238,
				"z": 0.6776814465,
				"element": "C" 
			},
			{
				"x": -0.7982867954,
				"y": 0.9683600177,
				"z": 0.8324793596,
				"element": "C" 
			},
			{
				"x": 0.6974838513,
				"y": -2.5150862735,
				"z": 0.320290943,
				"element": "C" 
			},
			{
				"x": 0.3245685225,
				"y": -3.641324098,
				"z": 0.6327617976,
				"element": "O" 
			},
			{
				"x": 2.1037387272,
				"y": -2.3030675201,
				"z": -0.1586022889,
				"element": "C" 
			},
			{
				"x": 2.4587203875,
				"y": -1.30009836,
				"z": -1.0742446825,
				"element": "C" 
			},
			{
				"x": 3.7724757869,
				"y": -1.1996581379,
				"z": -1.5342520028,
				"element": "C" 
			},
			{
				"x": 4.7446555537,
				"y": -2.0901360463,
				"z": -1.0760930752,
				"element": "C" 
			},
			{
				"x": 4.3974958391,
				"y": -3.0972131345,
				"z": -0.1699689073,
				"element": "C" 
			},
			{
				"x": 3.0838596506,
				"y": -3.2108069028,
				"z": 0.2747245153,
				"element": "C" 
			},
			{
				"x": -3.7740743492,
				"y": 4.62913629,
				"z": 2.6816249863,
				"element": "H" 
			},
			{
				"x": -2.1100930525,
				"y": 2.8192341411,
				"z": 2.4451106365,
				"element": "H" 
			},
			{
				"x": -4.5062581931,
				"y": 1.0238008497,
				"z": -0.6433414367,
				"element": "H" 
			},
			{
				"x": -6.1843110805,
				"y": 2.8173820271,
				"z": -0.3817407508,
				"element": "H" 
			},
			{
				"x": -3.6289148482,
				"y": -0.8684990236,
				"z": 0.4323198899,
				"element": "H" 
			},
			{
				"x": -1.941688182,
				"y": -2.6692399684,
				"z": 0.1879174039,
				"element": "H" 
			},
			{
				"x": 1.2000876409,
				"y": 0.1928106801,
				"z": 0.7720544879,
				"element": "H" 
			},
			{
				"x": -0.4631506153,
				"y": 1.9852764717,
				"z": 1.0127082984,
				"element": "H" 
			},
			{
				"x": 1.7044341463,
				"y": -0.6158852147,
				"z": -1.4482657153,
				"element": "H" 
			},
			{
				"x": 4.0349259056,
				"y": -0.4285864908,
				"z": -2.2527425312,
				"element": "H" 
			},
			{
				"x": 5.7686590335,
				"y": -2.0051531845,
				"z": -1.4286833881,
				"element": "H" 
			},
			{
				"x": 5.1512529605,
				"y": -3.7954627109,
				"z": 0.1821929336,
				"element": "H" 
			},
			{
				"x": 2.7893094584,
				"y": -3.9991877514,
				"z": 0.9593924365,
				"element": "H" 
			}
		],
		 "valence_orbital": [ 
			{
				"type": "occ",
				"energy": -0.26539,
				"method": "rhf"
			},
			{
				"type": "occ",
				"energy": -0.26227,
				"method": "rhf"
			},
			{
				"type": "occ",
				"energy": -0.26073,
				"method": "rhf"
			},
			{
				"type": "occ",
				"energy": -0.2473,
				"method": "rhf"
			},
			{
				"type": "occ",
				"energy": -0.23196,
				"method": "rhf"
			},
			{
				"type": "unocc",
				"energy": -0.0708,
				"method": "rhf"
			},
			{
				"type": "unocc",
				"energy": -0.0341,
				"method": "rhf"
			},
			{
				"type": "unocc",
				"energy": -0.02162,
				"method": "rhf"
			},
			{
				"type": "unocc",
				"energy": -0.01633,
				"method": "rhf"
			},
			{
				"type": "unocc",
				"energy": -0.00859,
				"method": "rhf"
			}
		],
		"cosmo_sigma_profile": { 
			"-0.025": 0.0,
			"-0.024": 0.0,
			"-0.023": 0.0,
			"-0.022": 0.0,
			"-0.021": 0.0,
			"-0.02": 0.0,
			"-0.019": 0.0,
			"-0.018": 0.0,
			"-0.017": 0.0,
			"-0.016": 0.0,
			"-0.015": 0.0,
			"-0.014": 0.0,
			"-0.013": 0.0,
			"-0.012": 0.0,
			"-0.011": 0.0,
			"-0.01": 0.0,
			"-0.009": 0.0,
			"-0.008": 0.165078689805,
			"-0.007": 7.66170280531,
			"-0.006": 23.6162435024,
			"-0.005": 25.9979144833,
			"-0.004": 26.2060694063,
			"-0.003": 23.4847427974,
			"-0.002": 22.3593229388,
			"-0.001": 21.5275669934,
			"0.0": 22.4606877472,
			"0.001": 26.9391147362,
			"0.002": 33.3472556921,
			"0.003": 41.382853712,
			"0.004": 33.5807605579,
			"0.005": 9.04054077679,
			"0.006": 1.8997011107,
			"0.007": 2.57118230648,
			"0.008": 1.67509568699,
			"0.009": 1.2547289213,
			"0.01": 1.87531174131,
			"0.011": 2.89013159867,
			"0.012": 4.12140055944,
			"0.013": 1.06699948419,
			"0.014": 0.0,
			"0.015": 0.0,
			"0.016": 0.0,
			"0.017": 0.0,
			"0.018": 0.0,
			"0.019": 0.0,
			"0.02": 0.0,
			"0.021": 0.0,
			"0.022": 0.0,
			"0.023": 0.0,
			"0.024": 0.0,
			"0.025": 0.0
		}
	}
}
