{
	 "smiles": "CN(C)C(Cl)=S", 
	 "Tm": 315.65, 
	 "num_atms": 12, 
	 "gaussian": { 
		 "optdone": 1, 
		 "sigma_profile": "yes", 
		 "theory": "DFT", 
		 "functional": "B3LYP", 
		 "basiset": "6-31G**", 
		 "properties": { 
			 "R2extent": 1156.728, 
			 "electric_dipole_moment_norm": 5.00988948481, 
			 "electric_quadrupole_moment_norm": 6.37737888635, 
			 "total_energy": -1031.05951929, 
			 "HOMO_LUMO_gap": 0.18231, 
			 "cosmo_polarized_energy": -9.79, 
			 "cosmo_cavitation_energy": 18.58, 
			 "cosmo_dispersion_energy": -14.39, 
			 "cosmo_repulsion_energy": 1.18, 
			 "cosmo_total_nonelectrostatic_energy": 5.36, 
			 "SMD_solvation_energy": 2.43 
		},
		"coords": [
			{
				"x": 1.2651632048,
				"y": 0.1559654887,
				"z": -2.2051397341,
				"element": "C" 
			},
			{
				"x": 0.578005286,
				"y": -0.1281161768,
				"z": -0.9380737936,
				"element": "N" 
			},
			{
				"x": 1.3816718209,
				"y": -0.3052531143,
				"z": 0.2793515131,
				"element": "C" 
			},
			{
				"x": -0.7655352648,
				"y": -0.2117613406,
				"z": -0.9665044615,
				"element": "C" 
			},
			{
				"x": -1.4763754684,
				"y": -0.5627172658,
				"z": 0.6463717663,
				"element": "Cl" 
			},
			{
				"x": -1.7410408553,
				"y": -0.02879159,
				"z": -2.2810133048,
				"element": "S" 
			},
			{
				"x": 0.9258970174,
				"y": 1.1110279644,
				"z": -2.6157314048,
				"element": "H" 
			},
			{
				"x": 1.0421944279,
				"y": -0.6214294989,
				"z": -2.9412245108,
				"element": "H" 
			},
			{
				"x": 2.3387083082,
				"y": 0.193513777,
				"z": -2.0214677714,
				"element": "H" 
			},
			{
				"x": 1.1197397544,
				"y": 0.4386112809,
				"z": 1.0361176895,
				"element": "H" 
			},
			{
				"x": 2.431760014,
				"y": -0.185073325,
				"z": 0.0166621964,
				"element": "H" 
			},
			{
				"x": 1.2362117551,
				"y": -1.3008761996,
				"z": 0.7062518158,
				"element": "H" 
			}
		],
		 "valence_orbital": [ 
			{
				"type": "occ",
				"energy": -0.37763,
				"method": "rhf"
			},
			{
				"type": "occ",
				"energy": -0.32308,
				"method": "rhf"
			},
			{
				"type": "occ",
				"energy": -0.30598,
				"method": "rhf"
			},
			{
				"type": "occ",
				"energy": -0.23772,
				"method": "rhf"
			},
			{
				"type": "occ",
				"energy": -0.2224,
				"method": "rhf"
			},
			{
				"type": "unocc",
				"energy": -0.04009,
				"method": "rhf"
			},
			{
				"type": "unocc",
				"energy": 0.00441,
				"method": "rhf"
			},
			{
				"type": "unocc",
				"energy": 0.07454,
				"method": "rhf"
			},
			{
				"type": "unocc",
				"energy": 0.10089,
				"method": "rhf"
			},
			{
				"type": "unocc",
				"energy": 0.10255,
				"method": "rhf"
			}
		],
		"cosmo_sigma_profile": { 
			"-0.025": 0.0,
			"-0.024": 0.0,
			"-0.023": 0.0,
			"-0.022": 0.0,
			"-0.021": 0.0,
			"-0.02": 0.0,
			"-0.019": 0.0,
			"-0.018": 0.0,
			"-0.017": 0.0,
			"-0.016": 0.0,
			"-0.015": 0.0,
			"-0.014": 0.0,
			"-0.013": 0.0,
			"-0.012": 0.0,
			"-0.011": 0.0,
			"-0.01": 0.267608327987,
			"-0.009": 1.92431123428,
			"-0.008": 2.52971120476,
			"-0.007": 4.13075841906,
			"-0.006": 8.30514354867,
			"-0.005": 13.4109797378,
			"-0.004": 16.6992633197,
			"-0.003": 18.3881876681,
			"-0.002": 7.79669369732,
			"-0.001": 6.34369740162,
			"0.0": 5.16331494951,
			"0.001": 6.4740184578,
			"0.002": 9.2076304413,
			"0.003": 7.81356398171,
			"0.004": 9.45395711787,
			"0.005": 6.09897218832,
			"0.006": 6.39448156472,
			"0.007": 8.1252356346,
			"0.008": 7.67467604919,
			"0.009": 2.99896517013,
			"0.01": 2.20677000598,
			"0.011": 0.620562742559,
			"0.012": 0.0,
			"0.013": 0.0,
			"0.014": 0.0,
			"0.015": 0.0,
			"0.016": 0.0,
			"0.017": 0.0,
			"0.018": 0.0,
			"0.019": 0.0,
			"0.02": 0.0,
			"0.021": 0.0,
			"0.022": 0.0,
			"0.023": 0.0,
			"0.024": 0.0,
			"0.025": 0.0
		}
	}
}
