{
	 "smiles": "COC1=CC(CC(O)=O)=CC(OC)=C1O", 
	 "Tm": 402.15, 
	 "num_atms": 27, 
	 "gaussian": { 
		 "optdone": 1, 
		 "sigma_profile": "yes", 
		 "theory": "DFT", 
		 "functional": "B3LYP", 
		 "basiset": "6-31G**", 
		 "properties": { 
			 "R2extent": 4045.3937, 
			 "electric_dipole_moment_norm": 1.99047576976, 
			 "electric_quadrupole_moment_norm": 11.6348992823, 
			 "total_energy": -764.398459973, 
			 "HOMO_LUMO_gap": 0.20202, 
			 "cosmo_polarized_energy": -14.06, 
			 "cosmo_cavitation_energy": 31.3, 
			 "cosmo_dispersion_energy": -22.49, 
			 "cosmo_repulsion_energy": 1.8, 
			 "cosmo_total_nonelectrostatic_energy": 10.61, 
			 "SMD_solvation_energy": 8.3 
		},
		"coords": [
			{
				"x": -2.1352035827,
				"y": 0.9197322664,
				"z": -1.492863213,
				"element": "C" 
			},
			{
				"x": -1.8436506145,
				"y": -0.2714189746,
				"z": -0.7751641539,
				"element": "O" 
			},
			{
				"x": -0.5374136405,
				"y": -0.5088519959,
				"z": -0.4169643793,
				"element": "C" 
			},
			{
				"x": 0.5424933262,
				"y": 0.3228461561,
				"z": -0.690278219,
				"element": "C" 
			},
			{
				"x": 1.8275183693,
				"y": -0.0560202616,
				"z": -0.2681132403,
				"element": "C" 
			},
			{
				"x": 3.0243102738,
				"y": 0.8316684066,
				"z": -0.5792533529,
				"element": "C" 
			},
			{
				"x": 2.8365832271,
				"y": 2.236685445,
				"z": -0.0388210377,
				"element": "C" 
			},
			{
				"x": 3.5608616443,
				"y": 2.4577386402,
				"z": 1.0821263106,
				"element": "O" 
			},
			{
				"x": 2.1117195698,
				"y": 3.0804570447,
				"z": -0.5231889468,
				"element": "O" 
			},
			{
				"x": 1.9972521833,
				"y": -1.2493023959,
				"z": 0.4299838531,
				"element": "C" 
			},
			{
				"x": 0.9111299144,
				"y": -2.0922597562,
				"z": 0.7021736017,
				"element": "C" 
			},
			{
				"x": 1.1638032019,
				"y": -3.2823762391,
				"z": 1.3356350837,
				"element": "O" 
			},
			{
				"x": 0.4597879973,
				"y": -3.5211411018,
				"z": 2.5577754614,
				"element": "C" 
			},
			{
				"x": -0.367841849,
				"y": -1.729220069,
				"z": 0.2670116764,
				"element": "C" 
			},
			{
				"x": -1.4420034745,
				"y": -2.5423815376,
				"z": 0.4873747248,
				"element": "O" 
			},
			{
				"x": -1.6026319798,
				"y": 0.9473188785,
				"z": -2.4512434443,
				"element": "H" 
			},
			{
				"x": -1.8725768474,
				"y": 1.8105892156,
				"z": -0.9099075391,
				"element": "H" 
			},
			{
				"x": -3.2107117665,
				"y": 0.9089953949,
				"z": -1.6756115836,
				"element": "H" 
			},
			{
				"x": 0.4087528136,
				"y": 1.2644736748,
				"z": -1.2085101677,
				"element": "H" 
			},
			{
				"x": 3.934107195,
				"y": 0.3959115997,
				"z": -0.1625298392,
				"element": "H" 
			},
			{
				"x": 3.1514049512,
				"y": 0.9277778226,
				"z": -1.6635014956,
				"element": "H" 
			},
			{
				"x": 3.3520553198,
				"y": 3.3648501004,
				"z": 1.3640364204,
				"element": "H" 
			},
			{
				"x": 2.9762078156,
				"y": -1.5649622594,
				"z": 0.7760097603,
				"element": "H" 
			},
			{
				"x": -0.6174601917,
				"y": -3.6085814028,
				"z": 2.394862124,
				"element": "H" 
			},
			{
				"x": 0.850716301,
				"y": -4.4626585415,
				"z": 2.949172722,
				"element": "H" 
			},
			{
				"x": 0.6557417487,
				"y": -2.7209715487,
				"z": 3.2834863592,
				"element": "H" 
			},
			{
				"x": -2.210651906,
				"y": -2.0903985612,
				"z": 0.1053025145,
				"element": "H" 
			}
		],
		 "valence_orbital": [ 
			{
				"type": "occ",
				"energy": -0.30861,
				"method": "rhf"
			},
			{
				"type": "occ",
				"energy": -0.27871,
				"method": "rhf"
			},
			{
				"type": "occ",
				"energy": -0.27089,
				"method": "rhf"
			},
			{
				"type": "occ",
				"energy": -0.22133,
				"method": "rhf"
			},
			{
				"type": "occ",
				"energy": -0.20404,
				"method": "rhf"
			},
			{
				"type": "unocc",
				"energy": -0.00202,
				"method": "rhf"
			},
			{
				"type": "unocc",
				"energy": 0.01235,
				"method": "rhf"
			},
			{
				"type": "unocc",
				"energy": 0.02419,
				"method": "rhf"
			},
			{
				"type": "unocc",
				"energy": 0.07186,
				"method": "rhf"
			},
			{
				"type": "unocc",
				"energy": 0.07821,
				"method": "rhf"
			}
		],
		"cosmo_sigma_profile": { 
			"-0.025": 0.0,
			"-0.024": 0.0,
			"-0.023": 0.0,
			"-0.022": 0.0,
			"-0.021": 0.0,
			"-0.02": 0.0,
			"-0.019": 0.0660282254594,
			"-0.018": 0.689509718612,
			"-0.017": 0.829953295956,
			"-0.016": 0.92521267807,
			"-0.015": 1.18471025247,
			"-0.014": 0.749898222855,
			"-0.013": 0.957216457044,
			"-0.012": 1.62008681008,
			"-0.011": 1.26928941814,
			"-0.01": 1.25446189271,
			"-0.009": 1.29439473965,
			"-0.008": 0.949377610241,
			"-0.007": 2.89036468473,
			"-0.006": 12.6244620125,
			"-0.005": 20.5095383274,
			"-0.004": 23.187044728,
			"-0.003": 22.1323326442,
			"-0.002": 18.9507462105,
			"-0.001": 14.3202008063,
			"0.0": 11.4756836332,
			"0.001": 11.8531175971,
			"0.002": 16.4570892851,
			"0.003": 15.0648437618,
			"0.004": 15.2667624535,
			"0.005": 12.2889991025,
			"0.006": 6.55368023449,
			"0.007": 5.49218166443,
			"0.008": 5.56185361393,
			"0.009": 6.04735349232,
			"0.01": 4.46705271783,
			"0.011": 5.57145084148,
			"0.012": 4.81600330638,
			"0.013": 0.179222468896,
			"0.014": 0.0,
			"0.015": 0.0,
			"0.016": 0.0,
			"0.017": 0.0,
			"0.018": 0.0,
			"0.019": 0.0,
			"0.02": 0.0,
			"0.021": 0.0,
			"0.022": 0.0,
			"0.023": 0.0,
			"0.024": 0.0,
			"0.025": 0.0
		}
	}
}
