{
	 "smiles": "CN1NN=NC1=NCC=C", 
	 "Tm": 340.15, 
	 "num_atms": 19, 
	 "gaussian": { 
		 "optdone": 1, 
		 "sigma_profile": "yes", 
		 "theory": "DFT", 
		 "functional": "B3LYP", 
		 "basiset": "6-31G**", 
		 "properties": { 
			 "R2extent": 2210.0642, 
			 "electric_dipole_moment_norm": 4.98149886279, 
			 "electric_quadrupole_moment_norm": 5.1300286851, 
			 "total_energy": -469.577919552, 
			 "HOMO_LUMO_gap": 0.16911, 
			 "cosmo_polarized_energy": -15.28, 
			 "cosmo_cavitation_energy": 22.83, 
			 "cosmo_dispersion_energy": -16.51, 
			 "cosmo_repulsion_energy": 1.35, 
			 "cosmo_total_nonelectrostatic_energy": 7.67, 
			 "SMD_solvation_energy": 0.31 
		},
		"coords": [
			{
				"x": -0.6191423215,
				"y": -0.1371476794,
				"z": 2.9609306643,
				"element": "C" 
			},
			{
				"x": -0.4816970604,
				"y": -0.3676463458,
				"z": 1.5133690173,
				"element": "N" 
			},
			{
				"x": -1.7357134641,
				"y": -0.4869283109,
				"z": 0.8654416438,
				"element": "N" 
			},
			{
				"x": -1.675755069,
				"y": 0.1961316039,
				"z": -0.3244574894,
				"element": "N" 
			},
			{
				"x": -0.611720458,
				"y": 0.8636012275,
				"z": -0.4103515688,
				"element": "N" 
			},
			{
				"x": 0.2357315738,
				"y": 0.552015141,
				"z": 0.6997019671,
				"element": "C" 
			},
			{
				"x": 1.4188329043,
				"y": 1.0107496565,
				"z": 0.7746015246,
				"element": "N" 
			},
			{
				"x": 2.3587782017,
				"y": 0.5088754712,
				"z": 1.7559862641,
				"element": "C" 
			},
			{
				"x": 2.6173271375,
				"y": 1.4408829695,
				"z": 2.9168133459,
				"element": "C" 
			},
			{
				"x": 2.027939343,
				"y": 2.620404584,
				"z": 3.1126860195,
				"element": "C" 
			},
			{
				"x": -0.8070675584,
				"y": -1.086143288,
				"z": 3.4701357273,
				"element": "H" 
			},
			{
				"x": -1.4462767944,
				"y": 0.5517335296,
				"z": 3.1640891858,
				"element": "H" 
			},
			{
				"x": 0.3028494244,
				"y": 0.2975400571,
				"z": 3.3436688375,
				"element": "H" 
			},
			{
				"x": -2.0552012135,
				"y": -1.4448272282,
				"z": 0.7282029966,
				"element": "H" 
			},
			{
				"x": 2.0831979278,
				"y": -0.4859724799,
				"z": 2.1497228528,
				"element": "H" 
			},
			{
				"x": 3.3171538565,
				"y": 0.3645999096,
				"z": 1.2340306544,
				"element": "H" 
			},
			{
				"x": 3.3689828853,
				"y": 1.0841015804,
				"z": 3.6214671315,
				"element": "H" 
			},
			{
				"x": 2.2771696963,
				"y": 3.241122793,
				"z": 3.967915555,
				"element": "H" 
			},
			{
				"x": 1.2960109887,
				"y": 3.006706809,
				"z": 2.4100456706,
				"element": "H" 
			}
		],
		 "valence_orbital": [ 
			{
				"type": "occ",
				"energy": -0.32955,
				"method": "rhf"
			},
			{
				"type": "occ",
				"energy": -0.29045,
				"method": "rhf"
			},
			{
				"type": "occ",
				"energy": -0.26236,
				"method": "rhf"
			},
			{
				"type": "occ",
				"energy": -0.25134,
				"method": "rhf"
			},
			{
				"type": "occ",
				"energy": -0.22894,
				"method": "rhf"
			},
			{
				"type": "unocc",
				"energy": -0.05983,
				"method": "rhf"
			},
			{
				"type": "unocc",
				"energy": 0.0184,
				"method": "rhf"
			},
			{
				"type": "unocc",
				"energy": 0.04349,
				"method": "rhf"
			},
			{
				"type": "unocc",
				"energy": 0.07208,
				"method": "rhf"
			},
			{
				"type": "unocc",
				"energy": 0.09057,
				"method": "rhf"
			}
		],
		"cosmo_sigma_profile": { 
			"-0.025": 0.0,
			"-0.024": 0.0,
			"-0.023": 0.0,
			"-0.022": 0.0,
			"-0.021": 0.0,
			"-0.02": 0.0,
			"-0.019": 0.0,
			"-0.018": 0.0066783349926,
			"-0.017": 1.30063227865,
			"-0.016": 1.52779826386,
			"-0.015": 1.44479235385,
			"-0.014": 1.08772407381,
			"-0.013": 0.881021105343,
			"-0.012": 0.999930248934,
			"-0.011": 1.08175123957,
			"-0.01": 0.981051476043,
			"-0.009": 0.755656008312,
			"-0.008": 1.39360923706,
			"-0.007": 2.35307338616,
			"-0.006": 6.32949997118,
			"-0.005": 13.6169090078,
			"-0.004": 18.3376140277,
			"-0.003": 19.7868676419,
			"-0.002": 14.3359080127,
			"-0.001": 11.9294533662,
			"0.0": 10.9909423681,
			"0.001": 9.5677344421,
			"0.002": 7.35215937074,
			"0.003": 7.8138127646,
			"0.004": 6.94069723671,
			"0.005": 5.71312528249,
			"0.006": 5.68639362916,
			"0.007": 5.27237361197,
			"0.008": 4.2633539255,
			"0.009": 3.53204583223,
			"0.01": 3.61033356135,
			"0.011": 2.62740411079,
			"0.012": 2.85060344875,
			"0.013": 2.40313749714,
			"0.014": 2.1638764594,
			"0.015": 1.07904271195,
			"0.016": 0.92674026149,
			"0.017": 0.499805088386,
			"0.018": 0.0,
			"0.019": 0.0,
			"0.02": 0.0,
			"0.021": 0.0,
			"0.022": 0.0,
			"0.023": 0.0,
			"0.024": 0.0,
			"0.025": 0.0
		}
	}
}
