{
	 "smiles": "CCC1=C2NC=C(C(=O)CC#N)C2=CC=C1", 
	 "Tm": 452.15, 
	 "num_atms": 28, 
	 "gaussian": { 
		 "optdone": 1, 
		 "sigma_profile": "yes", 
		 "theory": "DFT", 
		 "functional": "B3LYP", 
		 "basiset": "6-31G**", 
		 "properties": { 
			 "R2extent": 4149.6199, 
			 "electric_dipole_moment_norm": 4.47027346479, 
			 "electric_quadrupole_moment_norm": 13.5253776439, 
			 "total_energy": -687.341713643, 
			 "HOMO_LUMO_gap": 0.1681, 
			 "cosmo_polarized_energy": -18.23, 
			 "cosmo_cavitation_energy": 32.78, 
			 "cosmo_dispersion_energy": -22.81, 
			 "cosmo_repulsion_energy": 1.77, 
			 "cosmo_total_nonelectrostatic_energy": 11.73, 
			 "SMD_solvation_energy": 7.08 
		},
		"coords": [
			{
				"x": 3.085918853,
				"y": 0.7268763353,
				"z": -2.6034751483,
				"element": "C" 
			},
			{
				"x": 1.9104797584,
				"y": -0.2313690389,
				"z": -2.8752171748,
				"element": "C" 
			},
			{
				"x": 0.6072670995,
				"y": 0.2235456535,
				"z": -2.2567330511,
				"element": "C" 
			},
			{
				"x": 0.3258147373,
				"y": 0.0477225571,
				"z": -0.8925632331,
				"element": "C" 
			},
			{
				"x": 1.0943321007,
				"y": -0.5646097736,
				"z": 0.0950334198,
				"element": "N" 
			},
			{
				"x": 0.4384694272,
				"y": -0.525612873,
				"z": 1.2881793642,
				"element": "C" 
			},
			{
				"x": -0.7839974092,
				"y": 0.1115501856,
				"z": 1.1244730347,
				"element": "C" 
			},
			{
				"x": -1.808194676,
				"y": 0.3586810914,
				"z": 2.127104017,
				"element": "C" 
			},
			{
				"x": -2.8579548775,
				"y": 0.9356578789,
				"z": 1.8782436546,
				"element": "O" 
			},
			{
				"x": -1.6292584232,
				"y": -0.1928652468,
				"z": 3.572138953,
				"element": "C" 
			},
			{
				"x": -0.3450918286,
				"y": 0.0761924056,
				"z": 4.214735988,
				"element": "C" 
			},
			{
				"x": 0.6819726285,
				"y": 0.2849112753,
				"z": 4.7151870626,
				"element": "N" 
			},
			{
				"x": -0.8697293269,
				"y": 0.4862360045,
				"z": -0.2755066465,
				"element": "C" 
			},
			{
				"x": -1.8413601255,
				"y": 1.1383364723,
				"z": -1.0511970266,
				"element": "C" 
			},
			{
				"x": -1.582300352,
				"y": 1.3230166091,
				"z": -2.4035710941,
				"element": "C" 
			},
			{
				"x": -0.3838720911,
				"y": 0.8733629899,
				"z": -2.9915873194,
				"element": "C" 
			},
			{
				"x": 3.267909666,
				"y": 0.8494409584,
				"z": -1.5302861918,
				"element": "H" 
			},
			{
				"x": 4.0082168719,
				"y": 0.3554965792,
				"z": -3.0619754934,
				"element": "H" 
			},
			{
				"x": 2.8771352134,
				"y": 1.719922464,
				"z": -3.0123483112,
				"element": "H" 
			},
			{
				"x": 2.167367741,
				"y": -1.2363711143,
				"z": -2.5110987816,
				"element": "H" 
			},
			{
				"x": 1.7724995851,
				"y": -0.3338581318,
				"z": -3.9569948001,
				"element": "H" 
			},
			{
				"x": 2.0128724586,
				"y": -0.9563147464,
				"z": -0.0399780653,
				"element": "H" 
			},
			{
				"x": 0.8958906085,
				"y": -0.9324010792,
				"z": 2.1777347384,
				"element": "H" 
			},
			{
				"x": -1.7878040218,
				"y": -1.2787806097,
				"z": 3.5495687135,
				"element": "H" 
			},
			{
				"x": -2.4351949942,
				"y": 0.2453221048,
				"z": 4.1666019278,
				"element": "H" 
			},
			{
				"x": -2.760748529,
				"y": 1.4784439031,
				"z": -0.590942781,
				"element": "H" 
			},
			{
				"x": -2.3187888319,
				"y": 1.8222139314,
				"z": -3.0264684745,
				"element": "H" 
			},
			{
				"x": -0.2227512621,
				"y": 1.0336532144,
				"z": -4.0548572807,
				"element": "H" 
			}
		],
		 "valence_orbital": [ 
			{
				"type": "occ",
				"energy": -0.32876,
				"method": "rhf"
			},
			{
				"type": "occ",
				"energy": -0.28062,
				"method": "rhf"
			},
			{
				"type": "occ",
				"energy": -0.25667,
				"method": "rhf"
			},
			{
				"type": "occ",
				"energy": -0.23519,
				"method": "rhf"
			},
			{
				"type": "occ",
				"energy": -0.21987,
				"method": "rhf"
			},
			{
				"type": "unocc",
				"energy": -0.05177,
				"method": "rhf"
			},
			{
				"type": "unocc",
				"energy": -0.00988,
				"method": "rhf"
			},
			{
				"type": "unocc",
				"energy": 0.01665,
				"method": "rhf"
			},
			{
				"type": "unocc",
				"energy": 0.02632,
				"method": "rhf"
			},
			{
				"type": "unocc",
				"energy": 0.03284,
				"method": "rhf"
			}
		],
		"cosmo_sigma_profile": { 
			"-0.025": 0.0,
			"-0.024": 0.0,
			"-0.023": 0.0,
			"-0.022": 0.0,
			"-0.021": 0.0,
			"-0.02": 0.0,
			"-0.019": 0.0,
			"-0.018": 0.0,
			"-0.017": 0.10188681886,
			"-0.016": 1.14518135957,
			"-0.015": 1.27354913001,
			"-0.014": 0.882591570425,
			"-0.013": 1.18937046753,
			"-0.012": 1.5468942815,
			"-0.011": 1.9523868553,
			"-0.01": 4.87862926453,
			"-0.009": 6.87210190383,
			"-0.008": 7.29216301197,
			"-0.007": 6.83117561718,
			"-0.006": 8.11976234574,
			"-0.005": 10.1871084462,
			"-0.004": 14.6129069324,
			"-0.003": 18.7622590027,
			"-0.002": 17.8531087491,
			"-0.001": 20.2714590216,
			"0.0": 20.2482728136,
			"0.001": 19.3777198942,
			"0.002": 15.3617681255,
			"0.003": 12.6132877473,
			"0.004": 13.3702797024,
			"0.005": 13.987445812,
			"0.006": 11.2303878812,
			"0.007": 4.68381944628,
			"0.008": 4.61347522387,
			"0.009": 4.873304857,
			"0.01": 4.85957283233,
			"0.011": 5.37463770127,
			"0.012": 5.12009602878,
			"0.013": 2.25428374795,
			"0.014": 0.0502712827309,
			"0.015": 0.0,
			"0.016": 0.0,
			"0.017": 0.0,
			"0.018": 0.0,
			"0.019": 0.0,
			"0.02": 0.0,
			"0.021": 0.0,
			"0.022": 0.0,
			"0.023": 0.0,
			"0.024": 0.0,
			"0.025": 0.0
		}
	}
}
