{
	 "smiles": "O=S1CCC1", 
	 "Tm": 304.65, 
	 "num_atms": 11, 
	 "gaussian": { 
		 "optdone": 1, 
		 "sigma_profile": "yes", 
		 "theory": "DFT", 
		 "functional": "B3LYP", 
		 "basiset": "6-31G**", 
		 "properties": { 
			 "R2extent": 907.1947, 
			 "electric_dipole_moment_norm": 3.93701575689, 
			 "electric_quadrupole_moment_norm": 8.67235798961, 
			 "total_energy": -591.272543455, 
			 "HOMO_LUMO_gap": 0.22727, 
			 "cosmo_polarized_energy": -11.11, 
			 "cosmo_cavitation_energy": 15.21, 
			 "cosmo_dispersion_energy": -12.32, 
			 "cosmo_repulsion_energy": 1.03, 
			 "cosmo_total_nonelectrostatic_energy": 3.92, 
			 "SMD_solvation_energy": 1.95 
		},
		"coords": [
			{
				"x": 1.9440884767,
				"y": -1.0207894435,
				"z": -1.519149694,
				"element": "O" 
			},
			{
				"x": 2.1602763132,
				"y": -0.1806410862,
				"z": -0.2827917093,
				"element": "S" 
			},
			{
				"x": 0.4896887396,
				"y": 0.3306571206,
				"z": 0.4282207451,
				"element": "C" 
			},
			{
				"x": 0.4179573397,
				"y": -0.9213980229,
				"z": 1.3228325485,
				"element": "C" 
			},
			{
				"x": 1.9212470063,
				"y": -1.2504169596,
				"z": 1.252216303,
				"element": "C" 
			},
			{
				"x": 0.6131447516,
				"y": 1.2703839531,
				"z": 0.9750091951,
				"element": "H" 
			},
			{
				"x": -0.2635440612,
				"y": 0.4466128627,
				"z": -0.3532442445,
				"element": "H" 
			},
			{
				"x": 0.0182968714,
				"y": -0.7591306985,
				"z": 2.3285630582,
				"element": "H" 
			},
			{
				"x": -0.1721431175,
				"y": -1.7055995173,
				"z": 0.8433390835,
				"element": "H" 
			},
			{
				"x": 2.5148550151,
				"y": -0.8299736289,
				"z": 2.0696266354,
				"element": "H" 
			},
			{
				"x": 2.2115326652,
				"y": -2.2870045794,
				"z": 1.0713780789,
				"element": "H" 
			}
		],
		 "valence_orbital": [ 
			{
				"type": "occ",
				"energy": -0.36738,
				"method": "rhf"
			},
			{
				"type": "occ",
				"energy": -0.35679,
				"method": "rhf"
			},
			{
				"type": "occ",
				"energy": -0.34351,
				"method": "rhf"
			},
			{
				"type": "occ",
				"energy": -0.25495,
				"method": "rhf"
			},
			{
				"type": "occ",
				"energy": -0.22008,
				"method": "rhf"
			},
			{
				"type": "unocc",
				"energy": 0.00719,
				"method": "rhf"
			},
			{
				"type": "unocc",
				"energy": 0.03976,
				"method": "rhf"
			},
			{
				"type": "unocc",
				"energy": 0.06866,
				"method": "rhf"
			},
			{
				"type": "unocc",
				"energy": 0.08299,
				"method": "rhf"
			},
			{
				"type": "unocc",
				"energy": 0.1073,
				"method": "rhf"
			}
		],
		"cosmo_sigma_profile": { 
			"-0.025": 0.0,
			"-0.024": 0.0,
			"-0.023": 0.0,
			"-0.022": 0.0,
			"-0.021": 0.0,
			"-0.02": 0.0,
			"-0.019": 0.0,
			"-0.018": 0.0,
			"-0.017": 0.0,
			"-0.016": 0.0,
			"-0.015": 0.0,
			"-0.014": 0.0,
			"-0.013": 0.0,
			"-0.012": 0.0,
			"-0.011": 0.0,
			"-0.01": 0.0,
			"-0.009": 0.0291529307921,
			"-0.008": 0.925268499556,
			"-0.007": 5.72535963921,
			"-0.006": 8.97240949718,
			"-0.005": 11.5935312268,
			"-0.004": 16.6735923957,
			"-0.003": 15.3823293486,
			"-0.002": 12.1938396742,
			"-0.001": 11.2394635965,
			"0.0": 4.2360483121,
			"0.001": 2.23955406696,
			"0.002": 3.24248030868,
			"0.003": 3.70515123544,
			"0.004": 2.07010776092,
			"0.005": 1.31068287346,
			"0.006": 0.987850013436,
			"0.007": 0.611789562524,
			"0.008": 1.71171629184,
			"0.009": 1.00048260249,
			"0.01": 0.732841939884,
			"0.011": 1.26439655189,
			"0.012": 1.72032886991,
			"0.013": 0.942102756702,
			"0.014": 3.70423878906,
			"0.015": 6.55996187227,
			"0.016": 2.2659978297,
			"0.017": 0.00226196210634,
			"0.018": 0.0,
			"0.019": 0.0,
			"0.02": 0.0,
			"0.021": 0.0,
			"0.022": 0.0,
			"0.023": 0.0,
			"0.024": 0.0,
			"0.025": 0.0
		}
	}
}
