{
	 "smiles": "CC(=O)N(O)CCCCCNC(=O)CCC(=O)N(O)CCCCCNC(=O)CCC(=O)N(O)CCCCCN", 
	 "Tm": 413.15, 
	 "num_atms": 87, 
	 "gaussian": { 
		 "optdone": 1, 
		 "sigma_profile": "yes", 
		 "theory": "DFT", 
		 "functional": "B3LYP", 
		 "basiset": "6-31G**", 
		 "properties": { 
			 "R2extent": 23094.9791, 
			 "electric_dipole_moment_norm": 10.040514068, 
			 "electric_quadrupole_moment_norm": 49.953503113, 
			 "total_energy": -1911.8480353, 
			 "HOMO_LUMO_gap": 0.21148, 
			 "cosmo_polarized_energy": -37.73, 
			 "cosmo_cavitation_energy": 83.11, 
			 "cosmo_dispersion_energy": -46.45, 
			 "cosmo_repulsion_energy": 3.47, 
			 "cosmo_total_nonelectrostatic_energy": 40.13, 
			 "SMD_solvation_energy": 13.45 
		},
		"coords": [
			{
				"x": -2.233303059,
				"y": 0.0483167462,
				"z": 6.4866521771,
				"element": "C" 
			},
			{
				"x": -2.4061079941,
				"y": -0.8470266668,
				"z": 5.2765111339,
				"element": "C" 
			},
			{
				"x": -3.0147998011,
				"y": -0.486669911,
				"z": 4.2672094162,
				"element": "O" 
			},
			{
				"x": -1.8689310512,
				"y": -2.1020335637,
				"z": 5.3701262194,
				"element": "N" 
			},
			{
				"x": -1.0861567839,
				"y": -2.3936836423,
				"z": 6.4959041173,
				"element": "O" 
			},
			{
				"x": -1.814943975,
				"y": -3.0915114826,
				"z": 4.2979467095,
				"element": "C" 
			},
			{
				"x": -0.3950500585,
				"y": -3.4214064375,
				"z": 3.8174237135,
				"element": "C" 
			},
			{
				"x": 0.343319383,
				"y": -2.2622212941,
				"z": 3.1375665324,
				"element": "C" 
			},
			{
				"x": 1.747182752,
				"y": -2.6519327725,
				"z": 2.6570856066,
				"element": "C" 
			},
			{
				"x": 2.5268863916,
				"y": -1.5093834315,
				"z": 1.9842305378,
				"element": "C" 
			},
			{
				"x": 1.9718805256,
				"y": -1.0536309849,
				"z": 0.7184476782,
				"element": "N" 
			},
			{
				"x": 2.3643398061,
				"y": -1.6002675269,
				"z": -0.4708877328,
				"element": "C" 
			},
			{
				"x": 3.1828985856,
				"y": -2.5127911605,
				"z": -0.5524005954,
				"element": "O" 
			},
			{
				"x": 1.7156957048,
				"y": -0.9751191729,
				"z": -1.7023525441,
				"element": "C" 
			},
			{
				"x": 0.9944052279,
				"y": -2.0511561668,
				"z": -2.5366526646,
				"element": "C" 
			},
			{
				"x": 0.4938631577,
				"y": -1.5146087131,
				"z": -3.859941298,
				"element": "C" 
			},
			{
				"x": 1.2213912552,
				"y": -1.4104439197,
				"z": -4.8666285858,
				"element": "O" 
			},
			{
				"x": -0.8124166673,
				"y": -1.1675805517,
				"z": -3.9683503505,
				"element": "N" 
			},
			{
				"x": -1.1635310424,
				"y": -0.6587673081,
				"z": -5.2332019064,
				"element": "O" 
			},
			{
				"x": -1.7830324823,
				"y": -0.8056027908,
				"z": -2.9421715245,
				"element": "C" 
			},
			{
				"x": -2.8507391925,
				"y": -1.8819491284,
				"z": -2.6905655191,
				"element": "C" 
			},
			{
				"x": -4.0781572749,
				"y": -1.349108371,
				"z": -1.9210722858,
				"element": "C" 
			},
			{
				"x": -3.776042493,
				"y": -0.4748115287,
				"z": -0.6905909486,
				"element": "C" 
			},
			{
				"x": -2.9801195917,
				"y": -1.1702889578,
				"z": 0.4265633551,
				"element": "C" 
			},
			{
				"x": -2.4880277273,
				"y": -0.215215932,
				"z": 1.4164206045,
				"element": "N" 
			},
			{
				"x": -1.3769444991,
				"y": 0.5124397134,
				"z": 1.1931308504,
				"element": "C" 
			},
			{
				"x": -0.6809243761,
				"y": 0.3695331386,
				"z": 0.172303572,
				"element": "O" 
			},
			{
				"x": -0.9822473332,
				"y": 1.5223253201,
				"z": 2.2668449452,
				"element": "C" 
			},
			{
				"x": -0.2460637065,
				"y": 2.7134691639,
				"z": 1.6422296187,
				"element": "C" 
			},
			{
				"x": -1.1941294359,
				"y": 3.5452849649,
				"z": 0.7913551065,
				"element": "C" 
			},
			{
				"x": -2.4109160823,
				"y": 3.6119859047,
				"z": 1.0432994416,
				"element": "O" 
			},
			{
				"x": -0.711373888,
				"y": 4.246916691,
				"z": -0.2588892856,
				"element": "N" 
			},
			{
				"x": -1.6659776159,
				"y": 5.056193337,
				"z": -0.8944334875,
				"element": "O" 
			},
			{
				"x": 0.6310958796,
				"y": 4.4868428691,
				"z": -0.7589603511,
				"element": "C" 
			},
			{
				"x": 0.760453826,
				"y": 4.2594445171,
				"z": -2.2732288408,
				"element": "C" 
			},
			{
				"x": 0.4422280484,
				"y": 2.829977038,
				"z": -2.7298365297,
				"element": "C" 
			},
			{
				"x": 0.5622974736,
				"y": 2.629492032,
				"z": -4.2510529677,
				"element": "C" 
			},
			{
				"x": 2.0027671262,
				"y": 2.5533128842,
				"z": -4.7802847875,
				"element": "C" 
			},
			{
				"x": 2.7043186874,
				"y": 1.3818807837,
				"z": -4.2432609634,
				"element": "N" 
			},
			{
				"x": -2.6737106755,
				"y": -0.4023629732,
				"z": 7.3810523142,
				"element": "H" 
			},
			{
				"x": -2.7300764988,
				"y": 0.9943515318,
				"z": 6.273734485,
				"element": "H" 
			},
			{
				"x": -1.1750405972,
				"y": 0.2186299871,
				"z": 6.7015062261,
				"element": "H" 
			},
			{
				"x": -1.6478103786,
				"y": -2.9498544886,
				"z": 7.0615230508,
				"element": "H" 
			},
			{
				"x": -2.4249990897,
				"y": -2.6764904287,
				"z": 3.4933991772,
				"element": "H" 
			},
			{
				"x": -2.3072004334,
				"y": -4.007552141,
				"z": 4.6526195089,
				"element": "H" 
			},
			{
				"x": 0.1893180167,
				"y": -3.7862533607,
				"z": 4.6700789448,
				"element": "H" 
			},
			{
				"x": -0.4807664214,
				"y": -4.2629164209,
				"z": 3.1177304045,
				"element": "H" 
			},
			{
				"x": -0.2494262282,
				"y": -1.9048177551,
				"z": 2.2865887891,
				"element": "H" 
			},
			{
				"x": 0.4229562538,
				"y": -1.4212066345,
				"z": 3.8412282001,
				"element": "H" 
			},
			{
				"x": 1.6867614503,
				"y": -3.4878492237,
				"z": 1.9497154616,
				"element": "H" 
			},
			{
				"x": 2.3378926349,
				"y": -3.0072786543,
				"z": 3.5128198397,
				"element": "H" 
			},
			{
				"x": 2.5907272552,
				"y": -0.6493204508,
				"z": 2.6634046813,
				"element": "H" 
			},
			{
				"x": 3.5444205914,
				"y": -1.8490166112,
				"z": 1.775404551,
				"element": "H" 
			},
			{
				"x": 1.1947428214,
				"y": -0.4018930903,
				"z": 0.7012535285,
				"element": "H" 
			},
			{
				"x": 1.0214239719,
				"y": -0.1826580865,
				"z": -1.4167146754,
				"element": "H" 
			},
			{
				"x": 2.5036833417,
				"y": -0.5146547006,
				"z": -2.306745997,
				"element": "H" 
			},
			{
				"x": 0.1743372642,
				"y": -2.4880829102,
				"z": -1.9578016944,
				"element": "H" 
			},
			{
				"x": 1.7041716028,
				"y": -2.8497980523,
				"z": -2.7665387046,
				"element": "H" 
			},
			{
				"x": -0.3026397359,
				"y": -0.7805900347,
				"z": -5.7010892733,
				"element": "H" 
			},
			{
				"x": -2.2485611749,
				"y": 0.118166776,
				"z": -3.3009201829,
				"element": "H" 
			},
			{
				"x": -1.2513160467,
				"y": -0.5563898762,
				"z": -2.0212856146,
				"element": "H" 
			},
			{
				"x": -2.3914033218,
				"y": -2.7214129889,
				"z": -2.1533528576,
				"element": "H" 
			},
			{
				"x": -3.1831711637,
				"y": -2.2813803892,
				"z": -3.6548553497,
				"element": "H" 
			},
			{
				"x": -4.6849028465,
				"y": -0.7474249904,
				"z": -2.6096119623,
				"element": "H" 
			},
			{
				"x": -4.7086087339,
				"y": -2.2000443713,
				"z": -1.6312967364,
				"element": "H" 
			},
			{
				"x": -4.7189890878,
				"y": -0.102629833,
				"z": -0.2727840548,
				"element": "H" 
			},
			{
				"x": -3.2126741224,
				"y": 0.4117959563,
				"z": -0.9981960171,
				"element": "H" 
			},
			{
				"x": -3.6024376008,
				"y": -1.9055605693,
				"z": 0.9471610385,
				"element": "H" 
			},
			{
				"x": -2.1181060486,
				"y": -1.6997574932,
				"z": 0.0099184287,
				"element": "H" 
			},
			{
				"x": -2.9467105192,
				"y": -0.1411331532,
				"z": 2.3191262985,
				"element": "H" 
			},
			{
				"x": -1.8642958215,
				"y": 1.8596204719,
				"z": 2.8140783649,
				"element": "H" 
			},
			{
				"x": -0.317980874,
				"y": 1.0194737161,
				"z": 2.9805745363,
				"element": "H" 
			},
			{
				"x": 0.5976950916,
				"y": 2.3498194095,
				"z": 1.0544534892,
				"element": "H" 
			},
			{
				"x": 0.1511078692,
				"y": 3.3568724285,
				"z": 2.4371339832,
				"element": "H" 
			},
			{
				"x": -2.4654716259,
				"y": 4.8024478337,
				"z": -0.3751880231,
				"element": "H" 
			},
			{
				"x": 0.9104547117,
				"y": 5.5207096843,
				"z": -0.5145660812,
				"element": "H" 
			},
			{
				"x": 1.3026842527,
				"y": 3.8214450182,
				"z": -0.2128352911,
				"element": "H" 
			},
			{
				"x": 0.1030191452,
				"y": 4.9694897405,
				"z": -2.7870406266,
				"element": "H" 
			},
			{
				"x": 1.788990378,
				"y": 4.5300788705,
				"z": -2.5430927132,
				"element": "H" 
			},
			{
				"x": -0.5771325484,
				"y": 2.5821963459,
				"z": -2.4118466842,
				"element": "H" 
			},
			{
				"x": 1.1130953903,
				"y": 2.1222119211,
				"z": -2.229859209,
				"element": "H" 
			},
			{
				"x": 0.041495469,
				"y": 1.7077132403,
				"z": -4.5417588483,
				"element": "H" 
			},
			{
				"x": 0.0402854505,
				"y": 3.4439795763,
				"z": -4.772195092,
				"element": "H" 
			},
			{
				"x": 1.9657717524,
				"y": 2.5781491906,
				"z": -5.8841956379,
				"element": "H" 
			},
			{
				"x": 2.5596621698,
				"y": 3.4492904366,
				"z": -4.4760490878,
				"element": "H" 
			},
			{
				"x": 2.3106171994,
				"y": 0.5257380516,
				"z": -4.6337224773,
				"element": "H" 
			},
			{
				"x": 3.6814298112,
				"y": 1.4019458068,
				"z": -4.5233505769,
				"element": "H" 
			}
		],
		 "valence_orbital": [ 
			{
				"type": "occ",
				"energy": -0.23648,
				"method": "rhf"
			},
			{
				"type": "occ",
				"energy": -0.22781,
				"method": "rhf"
			},
			{
				"type": "occ",
				"energy": -0.21713,
				"method": "rhf"
			},
			{
				"type": "occ",
				"energy": -0.21628,
				"method": "rhf"
			},
			{
				"type": "occ",
				"energy": -0.21264,
				"method": "rhf"
			},
			{
				"type": "unocc",
				"energy": -0.00116,
				"method": "rhf"
			},
			{
				"type": "unocc",
				"energy": 0.01166,
				"method": "rhf"
			},
			{
				"type": "unocc",
				"energy": 0.01863,
				"method": "rhf"
			},
			{
				"type": "unocc",
				"energy": 0.02514,
				"method": "rhf"
			},
			{
				"type": "unocc",
				"energy": 0.02645,
				"method": "rhf"
			}
		],
		"cosmo_sigma_profile": { 
			"-0.025": 0.0,
			"-0.024": 0.0,
			"-0.023": 0.0,
			"-0.022": 0.0,
			"-0.021": 0.0,
			"-0.02": 0.0,
			"-0.019": 0.0,
			"-0.018": 0.480744959015,
			"-0.017": 1.00507620477,
			"-0.016": 1.48025868465,
			"-0.015": 0.903703080859,
			"-0.014": 1.02558227204,
			"-0.013": 0.22953971708,
			"-0.012": 0.882812227213,
			"-0.011": 2.06908587982,
			"-0.01": 2.77282849141,
			"-0.009": 3.93419315501,
			"-0.008": 4.02686763666,
			"-0.007": 6.09398215402,
			"-0.006": 15.6080628926,
			"-0.005": 33.6875734706,
			"-0.004": 50.0455230438,
			"-0.003": 72.7820826467,
			"-0.002": 84.5068329705,
			"-0.001": 78.7690549022,
			"0.0": 63.7326482879,
			"0.001": 43.7707306779,
			"0.002": 29.2546062393,
			"0.003": 23.7924189385,
			"0.004": 19.3607373627,
			"0.005": 15.9309327788,
			"0.006": 12.6880620172,
			"0.007": 11.2326216792,
			"0.008": 8.65215309112,
			"0.009": 10.6979283525,
			"0.01": 11.2128796675,
			"0.011": 7.99232241072,
			"0.012": 7.91177010269,
			"0.013": 6.92807046843,
			"0.014": 7.38767563814,
			"0.015": 2.98218078877,
			"0.016": 0.250469160793,
			"0.017": 0.0,
			"0.018": 0.0,
			"0.019": 0.0,
			"0.02": 0.0,
			"0.021": 0.0,
			"0.022": 0.0,
			"0.023": 0.0,
			"0.024": 0.0,
			"0.025": 0.0
		}
	}
}
