{
	 "smiles": "NC1=C(Br)C=CC(F)=C1", 
	 "Tm": 317.15, 
	 "num_atms": 14, 
	 "gaussian": { 
		 "optdone": 1, 
		 "sigma_profile": "yes", 
		 "theory": "DFT", 
		 "functional": "B3LYP", 
		 "basiset": "6-31G**", 
		 "properties": { 
			 "R2extent": 3358.3677, 
			 "electric_dipole_moment_norm": 1.68006022809, 
			 "electric_quadrupole_moment_norm": 12.2139529817, 
			 "total_energy": -2957.64522091, 
			 "HOMO_LUMO_gap": 0.20375, 
			 "cosmo_polarized_energy": -7.02, 
			 "cosmo_cavitation_energy": 20.65, 
			 "cosmo_dispersion_energy": -15.9, 
			 "cosmo_repulsion_energy": 1.28, 
			 "cosmo_total_nonelectrostatic_energy": 6.02, 
			 "SMD_solvation_energy": 2.95 
		},
		"coords": [
			{
				"x": -1.9299574056,
				"y": -2.8239065173,
				"z": -1.608337254,
				"element": "N" 
			},
			{
				"x": -1.2773593034,
				"y": -1.8414347395,
				"z": -0.8895171796,
				"element": "C" 
			},
			{
				"x": -1.3275066339,
				"y": -1.7798632642,
				"z": 0.518939993,
				"element": "C" 
			},
			{
				"x": -2.2611234758,
				"y": -3.1488814815,
				"z": 1.4851599029,
				"element": "Br" 
			},
			{
				"x": -0.7130695822,
				"y": -0.7544428133,
				"z": 1.2306032287,
				"element": "C" 
			},
			{
				"x": -0.0160107026,
				"y": 0.2528199134,
				"z": 0.5650828988,
				"element": "C" 
			},
			{
				"x": 0.0373245179,
				"y": 0.1887812758,
				"z": -0.8231498691,
				"element": "C" 
			},
			{
				"x": 0.7072079853,
				"y": 1.1479869967,
				"z": -1.4959572694,
				"element": "F" 
			},
			{
				"x": -0.5683797247,
				"y": -0.8214128348,
				"z": -1.5524712814,
				"element": "C" 
			},
			{
				"x": -1.5850704227,
				"y": -3.0008231764,
				"z": -2.5398370969,
				"element": "H" 
			},
			{
				"x": -2.184535393,
				"y": -3.6550410601,
				"z": -1.0933874907,
				"element": "H" 
			},
			{
				"x": -0.7775669777,
				"y": -0.7485841633,
				"z": 2.3127692498,
				"element": "H" 
			},
			{
				"x": 0.4713365961,
				"y": 1.0605795723,
				"z": 1.0974029648,
				"element": "H" 
			},
			{
				"x": -0.4987894778,
				"y": -0.8119777078,
				"z": -2.6353007969,
				"element": "H" 
			}
		],
		 "valence_orbital": [ 
			{
				"type": "occ",
				"energy": -0.32313,
				"method": "rhf"
			},
			{
				"type": "occ",
				"energy": -0.30681,
				"method": "rhf"
			},
			{
				"type": "occ",
				"energy": -0.29487,
				"method": "rhf"
			},
			{
				"type": "occ",
				"energy": -0.24407,
				"method": "rhf"
			},
			{
				"type": "occ",
				"energy": -0.21395,
				"method": "rhf"
			},
			{
				"type": "unocc",
				"energy": -0.0102,
				"method": "rhf"
			},
			{
				"type": "unocc",
				"energy": 0.00443,
				"method": "rhf"
			},
			{
				"type": "unocc",
				"energy": 0.00668,
				"method": "rhf"
			},
			{
				"type": "unocc",
				"energy": 0.07951,
				"method": "rhf"
			},
			{
				"type": "unocc",
				"energy": 0.1046,
				"method": "rhf"
			}
		],
		"cosmo_sigma_profile": { 
			"-0.025": 0.0,
			"-0.024": 0.0,
			"-0.023": 0.0,
			"-0.022": 0.0,
			"-0.021": 0.0,
			"-0.02": 0.0,
			"-0.019": 0.0,
			"-0.018": 0.0,
			"-0.017": 0.0,
			"-0.016": 0.0,
			"-0.015": 0.0,
			"-0.014": 0.410169461518,
			"-0.013": 1.41611424149,
			"-0.012": 1.51756990248,
			"-0.011": 2.56685662762,
			"-0.01": 2.43133158656,
			"-0.009": 2.72679560758,
			"-0.008": 3.19418958816,
			"-0.007": 5.64776960031,
			"-0.006": 6.51655923535,
			"-0.005": 6.10882960748,
			"-0.004": 6.95198418776,
			"-0.003": 7.3782498241,
			"-0.002": 7.54695464632,
			"-0.001": 7.06380269997,
			"0.0": 9.85366873438,
			"0.001": 14.1905921341,
			"0.002": 17.0932758137,
			"0.003": 24.2654963404,
			"0.004": 26.0684420549,
			"0.005": 10.6587266451,
			"0.006": 0.707760462409,
			"0.007": 0.919651627724,
			"0.008": 0.824261576892,
			"0.009": 0.632164715653,
			"0.01": 0.600991543454,
			"0.011": 0.710606420119,
			"0.012": 0.518412799311,
			"0.013": 0.110454035161,
			"0.014": 0.0,
			"0.015": 0.0,
			"0.016": 0.0,
			"0.017": 0.0,
			"0.018": 0.0,
			"0.019": 0.0,
			"0.02": 0.0,
			"0.021": 0.0,
			"0.022": 0.0,
			"0.023": 0.0,
			"0.024": 0.0,
			"0.025": 0.0
		}
	}
}
