{
	 "smiles": "CSC1=CC=C(C=C1)N=C=S", 
	 "Tm": 323.15, 
	 "num_atms": 18, 
	 "gaussian": { 
		 "optdone": 1, 
		 "sigma_profile": "yes", 
		 "theory": "DFT", 
		 "functional": "B3LYP", 
		 "basiset": "6-31G**", 
		 "properties": { 
			 "R2extent": 4197.7005, 
			 "electric_dipole_moment_norm": 4.52792790027, 
			 "electric_quadrupole_moment_norm": 17.1614632057, 
			 "total_energy": -1160.19129224, 
			 "HOMO_LUMO_gap": 0.16656, 
			 "cosmo_polarized_energy": -7.93, 
			 "cosmo_cavitation_energy": 26.89, 
			 "cosmo_dispersion_energy": -20.56, 
			 "cosmo_repulsion_energy": 1.57, 
			 "cosmo_total_nonelectrostatic_energy": 7.9, 
			 "SMD_solvation_energy": 5.19 
		},
		"coords": [
			{
				"x": -0.1135101703,
				"y": -1.7246810509,
				"z": 3.6252371108,
				"element": "C" 
			},
			{
				"x": 1.1719210481,
				"y": -0.8761268749,
				"z": 2.6538447132,
				"element": "S" 
			},
			{
				"x": 0.4520956799,
				"y": -0.7411646901,
				"z": 1.0334155112,
				"element": "C" 
			},
			{
				"x": 1.2346860926,
				"y": -0.1124841932,
				"z": 0.0475688446,
				"element": "C" 
			},
			{
				"x": 0.7616104634,
				"y": 0.041035356,
				"z": -1.2470778468,
				"element": "C" 
			},
			{
				"x": -0.5168852629,
				"y": -0.4353019867,
				"z": -1.5884282449,
				"element": "C" 
			},
			{
				"x": -1.3034083513,
				"y": -1.0628621129,
				"z": -0.6122279031,
				"element": "C" 
			},
			{
				"x": -0.8215439912,
				"y": -1.2133274803,
				"z": 0.6856088032,
				"element": "C" 
			},
			{
				"x": -0.9906020096,
				"y": -0.2862550713,
				"z": -2.867390777,
				"element": "N" 
			},
			{
				"x": -1.3849358202,
				"y": -0.1569148685,
				"z": -3.9789886529,
				"element": "C" 
			},
			{
				"x": -1.9193334292,
				"y": 0.017255146,
				"z": -5.4722041827,
				"element": "S" 
			},
			{
				"x": -1.0321702554,
				"y": -1.1357360007,
				"z": 3.6773441992,
				"element": "H" 
			},
			{
				"x": 0.2994581222,
				"y": -1.8233545139,
				"z": 4.6311547671,
				"element": "H" 
			},
			{
				"x": -0.3229571964,
				"y": -2.7217030875,
				"z": 3.2307283171,
				"element": "H" 
			},
			{
				"x": 2.2235708248,
				"y": 0.2591007979,
				"z": 0.3000540986,
				"element": "H" 
			},
			{
				"x": 1.3690401844,
				"y": 0.5266233519,
				"z": -2.0032772134,
				"element": "H" 
			},
			{
				"x": -2.2892974261,
				"y": -1.4294781768,
				"z": -0.8777099842,
				"element": "H" 
			},
			{
				"x": -1.4520385027,
				"y": -1.7025245442,
				"z": 1.4185484399,
				"element": "H" 
			}
		],
		 "valence_orbital": [ 
			{
				"type": "occ",
				"energy": -0.3116,
				"method": "rhf"
			},
			{
				"type": "occ",
				"energy": -0.27493,
				"method": "rhf"
			},
			{
				"type": "occ",
				"energy": -0.25594,
				"method": "rhf"
			},
			{
				"type": "occ",
				"energy": -0.24929,
				"method": "rhf"
			},
			{
				"type": "occ",
				"energy": -0.21243,
				"method": "rhf"
			},
			{
				"type": "unocc",
				"energy": -0.04587,
				"method": "rhf"
			},
			{
				"type": "unocc",
				"energy": -0.02322,
				"method": "rhf"
			},
			{
				"type": "unocc",
				"energy": 0.0066,
				"method": "rhf"
			},
			{
				"type": "unocc",
				"energy": 0.02391,
				"method": "rhf"
			},
			{
				"type": "unocc",
				"energy": 0.04533,
				"method": "rhf"
			}
		],
		"cosmo_sigma_profile": { 
			"-0.025": 0.0,
			"-0.024": 0.0,
			"-0.023": 0.0,
			"-0.022": 0.0,
			"-0.021": 0.0,
			"-0.02": 0.0,
			"-0.019": 0.0,
			"-0.018": 0.0,
			"-0.017": 0.0,
			"-0.016": 0.0,
			"-0.015": 0.0,
			"-0.014": 0.0,
			"-0.013": 0.0,
			"-0.012": 0.0,
			"-0.011": 0.0,
			"-0.01": 0.0,
			"-0.009": 0.0,
			"-0.008": 1.40267996092,
			"-0.007": 10.6181098061,
			"-0.006": 17.3285047084,
			"-0.005": 13.3474005153,
			"-0.004": 12.9683561013,
			"-0.003": 12.280597988,
			"-0.002": 15.2489790205,
			"-0.001": 18.7135948411,
			"0.0": 17.4572841294,
			"0.001": 14.7387388326,
			"0.002": 15.0068450147,
			"0.003": 22.1274804507,
			"0.004": 13.5556674292,
			"0.005": 11.0220008999,
			"0.006": 15.4677466615,
			"0.007": 7.65023230745,
			"0.008": 2.30409952591,
			"0.009": 0.594822027048,
			"0.01": 0.0,
			"0.011": 0.0,
			"0.012": 0.0,
			"0.013": 0.0,
			"0.014": 0.0,
			"0.015": 0.0,
			"0.016": 0.0,
			"0.017": 0.0,
			"0.018": 0.0,
			"0.019": 0.0,
			"0.02": 0.0,
			"0.021": 0.0,
			"0.022": 0.0,
			"0.023": 0.0,
			"0.024": 0.0,
			"0.025": 0.0
		}
	}
}
