{
	 "smiles": "CC1=C(C)C=C(SCCC(O)=O)C=C1", 
	 "Tm": 309.15, 
	 "num_atms": 28, 
	 "gaussian": { 
		 "optdone": 1, 
		 "sigma_profile": "yes", 
		 "theory": "DFT", 
		 "functional": "B3LYP", 
		 "basiset": "6-31G**", 
		 "properties": { 
			 "R2extent": 4677.555, 
			 "electric_dipole_moment_norm": 4.24500206125, 
			 "electric_quadrupole_moment_norm": 20.6989201356, 
			 "total_energy": -976.264094038, 
			 "HOMO_LUMO_gap": 0.21325, 
			 "cosmo_polarized_energy": -17.62, 
			 "cosmo_cavitation_energy": 32.5, 
			 "cosmo_dispersion_energy": -22.99, 
			 "cosmo_repulsion_energy": 1.77, 
			 "cosmo_total_nonelectrostatic_energy": 11.28, 
			 "SMD_solvation_energy": 6.0 
		},
		"coords": [
			{
				"x": -0.2487594953,
				"y": -1.4590124834,
				"z": -3.7989557781,
				"element": "C" 
			},
			{
				"x": -0.8365482734,
				"y": -1.2260178372,
				"z": -2.428240145,
				"element": "C" 
			},
			{
				"x": -0.3269013428,
				"y": -1.9025591529,
				"z": -1.2979714053,
				"element": "C" 
			},
			{
				"x": 0.8205165803,
				"y": -2.8762699246,
				"z": -1.4273130608,
				"element": "C" 
			},
			{
				"x": -0.9025082482,
				"y": -1.668348209,
				"z": -0.0443461575,
				"element": "C" 
			},
			{
				"x": -1.9645345866,
				"y": -0.7663157759,
				"z": 0.1122844383,
				"element": "C" 
			},
			{
				"x": -2.7226675315,
				"y": -0.5198746668,
				"z": 1.7230381128,
				"element": "S" 
			},
			{
				"x": -1.6417923663,
				"y": 0.7850967225,
				"z": 2.4515902654,
				"element": "C" 
			},
			{
				"x": -0.1858917266,
				"y": 0.3629633889,
				"z": 2.7011638642,
				"element": "C" 
			},
			{
				"x": -0.0170621815,
				"y": -0.8838854357,
				"z": 3.5632158445,
				"element": "C" 
			},
			{
				"x": -0.5438752392,
				"y": -0.8207508156,
				"z": 4.8152718416,
				"element": "O" 
			},
			{
				"x": 0.561626322,
				"y": -1.8795685278,
				"z": 3.2054223457,
				"element": "O" 
			},
			{
				"x": -2.4692263685,
				"y": -0.1000380031,
				"z": -1.0084476151,
				"element": "C" 
			},
			{
				"x": -1.9029616124,
				"y": -0.3351701282,
				"z": -2.2609927095,
				"element": "C" 
			},
			{
				"x": -0.7596254765,
				"y": -0.8583853568,
				"z": -4.5559196011,
				"element": "H" 
			},
			{
				"x": 0.8172030237,
				"y": -1.2026842005,
				"z": -3.8305776197,
				"element": "H" 
			},
			{
				"x": -0.3264655276,
				"y": -2.511433154,
				"z": -4.097638427,
				"element": "H" 
			},
			{
				"x": 1.0935793523,
				"y": -3.2926841284,
				"z": -0.4548870941,
				"element": "H" 
			},
			{
				"x": 0.5680454608,
				"y": -3.7113164805,
				"z": -2.0922971665,
				"element": "H" 
			},
			{
				"x": 1.7121126672,
				"y": -2.3967677811,
				"z": -1.8494215216,
				"element": "H" 
			},
			{
				"x": -0.5134857792,
				"y": -2.1872903262,
				"z": 0.8268588376,
				"element": "H" 
			},
			{
				"x": -1.660205962,
				"y": 1.6684390384,
				"z": 1.8073278492,
				"element": "H" 
			},
			{
				"x": -2.1524883261,
				"y": 1.0605110732,
				"z": 3.3820883393,
				"element": "H" 
			},
			{
				"x": 0.3465894774,
				"y": 1.1970703225,
				"z": 3.1811903406,
				"element": "H" 
			},
			{
				"x": 0.3129143329,
				"y": 0.1604862609,
				"z": 1.7524911504,
				"element": "H" 
			},
			{
				"x": -0.9718776118,
				"y": 0.0342973745,
				"z": 4.961656511,
				"element": "H" 
			},
			{
				"x": -3.3010114161,
				"y": 0.5890108037,
				"z": -0.9005912472,
				"element": "H" 
			},
			{
				"x": -2.2999981452,
				"y": 0.1828974031,
				"z": -3.1306001925,
				"element": "H" 
			}
		],
		 "valence_orbital": [ 
			{
				"type": "occ",
				"energy": -0.31175,
				"method": "rhf"
			},
			{
				"type": "occ",
				"energy": -0.27036,
				"method": "rhf"
			},
			{
				"type": "occ",
				"energy": -0.2477,
				"method": "rhf"
			},
			{
				"type": "occ",
				"energy": -0.23914,
				"method": "rhf"
			},
			{
				"type": "occ",
				"energy": -0.23112,
				"method": "rhf"
			},
			{
				"type": "unocc",
				"energy": -0.01787,
				"method": "rhf"
			},
			{
				"type": "unocc",
				"energy": -0.00134,
				"method": "rhf"
			},
			{
				"type": "unocc",
				"energy": 0.00619,
				"method": "rhf"
			},
			{
				"type": "unocc",
				"energy": 0.04238,
				"method": "rhf"
			},
			{
				"type": "unocc",
				"energy": 0.05117,
				"method": "rhf"
			}
		],
		"cosmo_sigma_profile": { 
			"-0.025": 0.0,
			"-0.024": 0.0,
			"-0.023": 0.0,
			"-0.022": 0.0,
			"-0.021": 0.0,
			"-0.02": 0.0,
			"-0.019": 0.539999400826,
			"-0.018": 1.22556816728,
			"-0.017": 1.30727148381,
			"-0.016": 1.20635103887,
			"-0.015": 1.29724032604,
			"-0.014": 0.820367583998,
			"-0.013": 0.597320669981,
			"-0.012": 1.49253992764,
			"-0.011": 1.42656919353,
			"-0.01": 1.34842940009,
			"-0.009": 1.80028516238,
			"-0.008": 2.30992470871,
			"-0.007": 4.29374703723,
			"-0.006": 7.00718798839,
			"-0.005": 12.8577116431,
			"-0.004": 24.195975349,
			"-0.003": 23.7032469061,
			"-0.002": 19.8116922707,
			"-0.001": 19.1656623429,
			"0.0": 22.8720178632,
			"0.001": 16.0128803199,
			"0.002": 12.733770068,
			"0.003": 13.097328043,
			"0.004": 13.7356268964,
			"0.005": 13.3123152508,
			"0.006": 8.36372773833,
			"0.007": 6.14317392699,
			"0.008": 4.4975273941,
			"0.009": 4.59078835549,
			"0.01": 5.54682997029,
			"0.011": 4.65232318905,
			"0.012": 4.33484032567,
			"0.013": 1.53768718193,
			"0.014": 0.0559751465018,
			"0.015": 0.0,
			"0.016": 0.0,
			"0.017": 0.0,
			"0.018": 0.0,
			"0.019": 0.0,
			"0.02": 0.0,
			"0.021": 0.0,
			"0.022": 0.0,
			"0.023": 0.0,
			"0.024": 0.0,
			"0.025": 0.0
		}
	}
}
