{
	 "smiles": "OCC(CO)(CO)[N+]([O-])=O", 
	 "Tm": 487.15, 
	 "num_atms": 19, 
	 "gaussian": { 
		 "optdone": 1, 
		 "sigma_profile": "yes", 
		 "theory": "DFT", 
		 "functional": "B3LYP", 
		 "basiset": "6-31G**", 
		 "properties": { 
			 "R2extent": 1543.6509, 
			 "electric_dipole_moment_norm": 2.22494568473, 
			 "electric_quadrupole_moment_norm": 11.6894860503, 
			 "total_energy": -588.593031286, 
			 "HOMO_LUMO_gap": 0.20311, 
			 "cosmo_polarized_energy": -13.52, 
			 "cosmo_cavitation_energy": 22.05, 
			 "cosmo_dispersion_energy": -16.12, 
			 "cosmo_repulsion_energy": 1.32, 
			 "cosmo_total_nonelectrostatic_energy": 7.24, 
			 "SMD_solvation_energy": 5.78 
		},
		"coords": [
			{
				"x": -0.9056598447,
				"y": 1.961263262,
				"z": -0.6503048117,
				"element": "O" 
			},
			{
				"x": 0.403335977,
				"y": 1.750546597,
				"z": -0.1825053591,
				"element": "C" 
			},
			{
				"x": 0.6211169668,
				"y": 0.2611273353,
				"z": 0.2338656509,
				"element": "C" 
			},
			{
				"x": -0.5824794114,
				"y": -0.2594812106,
				"z": 1.0427939099,
				"element": "C" 
			},
			{
				"x": -1.125668359,
				"y": 0.7213057125,
				"z": 1.9147935556,
				"element": "O" 
			},
			{
				"x": 0.8986962012,
				"y": -0.6083137374,
				"z": -0.984572287,
				"element": "C" 
			},
			{
				"x": 0.9093041031,
				"y": -1.9651561655,
				"z": -0.5691796262,
				"element": "O" 
			},
			{
				"x": 1.8555936647,
				"y": 0.2857485796,
				"z": 1.1402646267,
				"element": "N" 
			},
			{
				"x": 1.6577000696,
				"y": 0.3933989454,
				"z": 2.3549533433,
				"element": "O" 
			},
			{
				"x": 2.9616776625,
				"y": 0.2827908064,
				"z": 0.6181024768,
				"element": "O" 
			},
			{
				"x": -1.4712637163,
				"y": 1.9266861963,
				"z": 0.1381900986,
				"element": "H" 
			},
			{
				"x": 0.6398926693,
				"y": 2.3919958316,
				"z": 0.6757991709,
				"element": "H" 
			},
			{
				"x": 1.0933056605,
				"y": 2.0046875528,
				"z": -0.9929088842,
				"element": "H" 
			},
			{
				"x": -1.3703262993,
				"y": -0.5120227083,
				"z": 0.3301880455,
				"element": "H" 
			},
			{
				"x": -0.3033526822,
				"y": -1.1748644421,
				"z": 1.5719288532,
				"element": "H" 
			},
			{
				"x": -0.4466825305,
				"y": 0.8737367839,
				"z": 2.5897660211,
				"element": "H" 
			},
			{
				"x": 0.0949231638,
				"y": -0.4012394138,
				"z": -1.7069186086,
				"element": "H" 
			},
			{
				"x": 1.8548074999,
				"y": -0.3056105447,
				"z": -1.4276351125,
				"element": "H" 
			},
			{
				"x": 1.181179205,
				"y": -2.5123993806,
				"z": -1.315521063,
				"element": "H" 
			}
		],
		 "valence_orbital": [ 
			{
				"type": "occ",
				"energy": -0.31113,
				"method": "rhf"
			},
			{
				"type": "occ",
				"energy": -0.3076,
				"method": "rhf"
			},
			{
				"type": "occ",
				"energy": -0.2927,
				"method": "rhf"
			},
			{
				"type": "occ",
				"energy": -0.29067,
				"method": "rhf"
			},
			{
				"type": "occ",
				"energy": -0.28093,
				"method": "rhf"
			},
			{
				"type": "unocc",
				"energy": -0.07782,
				"method": "rhf"
			},
			{
				"type": "unocc",
				"energy": 0.05315,
				"method": "rhf"
			},
			{
				"type": "unocc",
				"energy": 0.07177,
				"method": "rhf"
			},
			{
				"type": "unocc",
				"energy": 0.08943,
				"method": "rhf"
			},
			{
				"type": "unocc",
				"energy": 0.11231,
				"method": "rhf"
			}
		],
		"cosmo_sigma_profile": { 
			"-0.025": 0.0,
			"-0.024": 0.0,
			"-0.023": 0.0,
			"-0.022": 0.0,
			"-0.021": 0.0,
			"-0.02": 0.0,
			"-0.019": 0.0,
			"-0.018": 0.0,
			"-0.017": 0.23772597666,
			"-0.016": 1.44590967581,
			"-0.015": 0.795898892345,
			"-0.014": 1.10315294471,
			"-0.013": 1.00875401078,
			"-0.012": 1.2948695718,
			"-0.011": 1.72921366988,
			"-0.01": 2.15847373986,
			"-0.009": 2.09421222812,
			"-0.008": 3.82317389764,
			"-0.007": 6.73599946585,
			"-0.006": 12.0614605169,
			"-0.005": 15.0783025071,
			"-0.004": 14.6474723818,
			"-0.003": 11.3945546033,
			"-0.002": 7.92615155061,
			"-0.001": 6.40415427594,
			"0.0": 5.37855151537,
			"0.001": 5.46844086975,
			"0.002": 5.75717119806,
			"0.003": 5.80529331728,
			"0.004": 5.86219510872,
			"0.005": 7.49794995274,
			"0.006": 7.71614347071,
			"0.007": 11.8197106122,
			"0.008": 6.56375256229,
			"0.009": 6.25074064963,
			"0.01": 4.33615475205,
			"0.011": 3.63730482325,
			"0.012": 2.65558553475,
			"0.013": 2.28382928875,
			"0.014": 0.284502781459,
			"0.015": 0.0,
			"0.016": 0.0,
			"0.017": 0.0,
			"0.018": 0.0,
			"0.019": 0.0,
			"0.02": 0.0,
			"0.021": 0.0,
			"0.022": 0.0,
			"0.023": 0.0,
			"0.024": 0.0,
			"0.025": 0.0
		}
	}
}
