{
	 "smiles": "CC1CNC2=C(C=CC=C2)N(CC2=CC=CC=C2)C1=O", 
	 "Tm": 381.15, 
	 "num_atms": 38, 
	 "gaussian": { 
		 "optdone": 1, 
		 "sigma_profile": "yes", 
		 "theory": "DFT", 
		 "functional": "B3LYP", 
		 "basiset": "6-31G**", 
		 "properties": { 
			 "R2extent": 5827.252, 
			 "electric_dipole_moment_norm": 3.39837348301, 
			 "electric_quadrupole_moment_norm": 11.413112883, 
			 "total_energy": -843.400944692, 
			 "HOMO_LUMO_gap": 0.1927, 
			 "cosmo_polarized_energy": -13.86, 
			 "cosmo_cavitation_energy": 39.42, 
			 "cosmo_dispersion_energy": -26.93, 
			 "cosmo_repulsion_energy": 2.07, 
			 "cosmo_total_nonelectrostatic_energy": 14.56, 
			 "SMD_solvation_energy": 5.44 
		},
		"coords": [
			{
				"x": 4.1064396067,
				"y": -2.922692805,
				"z": 1.8183132656,
				"element": "C" 
			},
			{
				"x": 2.9395092274,
				"y": -1.9404426789,
				"z": 1.6887869504,
				"element": "C" 
			},
			{
				"x": 3.4397695689,
				"y": -0.4869781334,
				"z": 1.7001130738,
				"element": "C" 
			},
			{
				"x": 2.3718234325,
				"y": 0.464171584,
				"z": 1.354707354,
				"element": "N" 
			},
			{
				"x": 1.0721003705,
				"y": 0.2428337579,
				"z": 1.8498105155,
				"element": "C" 
			},
			{
				"x": 0.3194524794,
				"y": -0.8635585164,
				"z": 1.388411925,
				"element": "C" 
			},
			{
				"x": -0.9790325537,
				"y": -1.0595538575,
				"z": 1.8738844408,
				"element": "C" 
			},
			{
				"x": -1.5632698501,
				"y": -0.1569249587,
				"z": 2.76093602,
				"element": "C" 
			},
			{
				"x": -0.8380141371,
				"y": 0.9558885917,
				"z": 3.1879631582,
				"element": "C" 
			},
			{
				"x": 0.4715711462,
				"y": 1.1369166332,
				"z": 2.7493534938,
				"element": "C" 
			},
			{
				"x": 0.8454020182,
				"y": -1.7396259419,
				"z": 0.3920420047,
				"element": "N" 
			},
			{
				"x": 0.0522728793,
				"y": -1.9743752866,
				"z": -0.8364021649,
				"element": "C" 
			},
			{
				"x": 0.0565784786,
				"y": -0.8017578766,
				"z": -1.7977333613,
				"element": "C" 
			},
			{
				"x": -1.0607404474,
				"y": 0.0325833201,
				"z": -1.9144336166,
				"element": "C" 
			},
			{
				"x": -1.0558147191,
				"y": 1.1116234259,
				"z": -2.8014575768,
				"element": "C" 
			},
			{
				"x": 0.0714775255,
				"y": 1.3668197704,
				"z": -3.5824006719,
				"element": "C" 
			},
			{
				"x": 1.1921423074,
				"y": 0.5387399599,
				"z": -3.4722830835,
				"element": "C" 
			},
			{
				"x": 1.1860256,
				"y": -0.5382435023,
				"z": -2.5871105322,
				"element": "C" 
			},
			{
				"x": 2.1487066624,
				"y": -2.1940605502,
				"z": 0.4025446559,
				"element": "C" 
			},
			{
				"x": 2.6413151442,
				"y": -2.7900121124,
				"z": -0.5520412543,
				"element": "O" 
			},
			{
				"x": 4.7452684037,
				"y": -2.8779287305,
				"z": 0.9335776267,
				"element": "H" 
			},
			{
				"x": 4.7052160258,
				"y": -2.6915011251,
				"z": 2.7054266686,
				"element": "H" 
			},
			{
				"x": 3.7430825761,
				"y": -3.9495520549,
				"z": 1.9101158907,
				"element": "H" 
			},
			{
				"x": 2.2621142401,
				"y": -2.070696707,
				"z": 2.5411231827,
				"element": "H" 
			},
			{
				"x": 3.8755056145,
				"y": -0.2790314263,
				"z": 2.6923983426,
				"element": "H" 
			},
			{
				"x": 4.2408337867,
				"y": -0.3776800954,
				"z": 0.9594592549,
				"element": "H" 
			},
			{
				"x": 2.6694196204,
				"y": 1.4167804385,
				"z": 1.5314374777,
				"element": "H" 
			},
			{
				"x": -1.5397361255,
				"y": -1.9278760702,
				"z": 1.5425882871,
				"element": "H" 
			},
			{
				"x": -2.5753489678,
				"y": -0.3256466013,
				"z": 3.1153651143,
				"element": "H" 
			},
			{
				"x": -1.2805749455,
				"y": 1.6702158148,
				"z": 3.8758729766,
				"element": "H" 
			},
			{
				"x": 1.050022263,
				"y": 1.9885940839,
				"z": 3.1001888286,
				"element": "H" 
			},
			{
				"x": -0.9723953996,
				"y": -2.214261928,
				"z": -0.5445769771,
				"element": "H" 
			},
			{
				"x": 0.4898654773,
				"y": -2.8549149125,
				"z": -1.308077641,
				"element": "H" 
			},
			{
				"x": -1.9413047543,
				"y": -0.162777611,
				"z": -1.3072924924,
				"element": "H" 
			},
			{
				"x": -1.9317416352,
				"y": 1.7494713358,
				"z": -2.8819568893,
				"element": "H" 
			},
			{
				"x": 0.0771092312,
				"y": 2.2035620382,
				"z": -4.2754643677,
				"element": "H" 
			},
			{
				"x": 2.0710942199,
				"y": 0.7303346883,
				"z": -4.0817860979,
				"element": "H" 
			},
			{
				"x": 2.0533556296,
				"y": -1.1852419605,
				"z": -2.4968037811,
				"element": "H" 
			}
		],
		 "valence_orbital": [ 
			{
				"type": "occ",
				"energy": -0.24759,
				"method": "rhf"
			},
			{
				"type": "occ",
				"energy": -0.24101,
				"method": "rhf"
			},
			{
				"type": "occ",
				"energy": -0.23692,
				"method": "rhf"
			},
			{
				"type": "occ",
				"energy": -0.22899,
				"method": "rhf"
			},
			{
				"type": "occ",
				"energy": -0.20548,
				"method": "rhf"
			},
			{
				"type": "unocc",
				"energy": -0.01278,
				"method": "rhf"
			},
			{
				"type": "unocc",
				"energy": -0.00044,
				"method": "rhf"
			},
			{
				"type": "unocc",
				"energy": 0.00239,
				"method": "rhf"
			},
			{
				"type": "unocc",
				"energy": 0.0087,
				"method": "rhf"
			},
			{
				"type": "unocc",
				"energy": 0.03346,
				"method": "rhf"
			}
		],
		"cosmo_sigma_profile": { 
			"-0.025": 0.0,
			"-0.024": 0.0,
			"-0.023": 0.0,
			"-0.022": 0.0,
			"-0.021": 0.0,
			"-0.02": 0.0,
			"-0.019": 0.0,
			"-0.018": 0.0,
			"-0.017": 0.0,
			"-0.016": 0.0,
			"-0.015": 0.0,
			"-0.014": 0.0,
			"-0.013": 0.0690537413905,
			"-0.012": 1.05654885283,
			"-0.011": 1.49068234542,
			"-0.01": 1.62476041598,
			"-0.009": 1.29028418488,
			"-0.008": 1.75266570646,
			"-0.007": 4.05953553666,
			"-0.006": 10.7509957342,
			"-0.005": 19.503429147,
			"-0.004": 31.554583391,
			"-0.003": 38.2037406966,
			"-0.002": 28.3346459488,
			"-0.001": 23.5875610863,
			"0.0": 20.2142112932,
			"0.001": 21.661546315,
			"0.002": 14.9695253699,
			"0.003": 16.7764527166,
			"0.004": 18.1986548139,
			"0.005": 19.0499059382,
			"0.006": 15.8802361388,
			"0.007": 4.8841193079,
			"0.008": 3.38474590751,
			"0.009": 2.37190982975,
			"0.01": 2.58119849807,
			"0.011": 2.23854935337,
			"0.012": 1.32915790824,
			"0.013": 3.24928529379,
			"0.014": 2.0370518708,
			"0.015": 0.00719542551196,
			"0.016": 0.0,
			"0.017": 0.0,
			"0.018": 0.0,
			"0.019": 0.0,
			"0.02": 0.0,
			"0.021": 0.0,
			"0.022": 0.0,
			"0.023": 0.0,
			"0.024": 0.0,
			"0.025": 0.0
		}
	}
}
