{
	 "smiles": "C=CCN(CC=C)CC=C", 
	 "Tm": 367.15, 
	 "num_atms": 25, 
	 "gaussian": { 
		 "optdone": 1, 
		 "sigma_profile": "yes", 
		 "theory": "DFT", 
		 "functional": "B3LYP", 
		 "basiset": "6-31G**", 
		 "properties": { 
			 "R2extent": 2103.4598, 
			 "electric_dipole_moment_norm": 0.55533205382, 
			 "electric_quadrupole_moment_norm": 2.13161541794, 
			 "total_energy": -406.660108528, 
			 "HOMO_LUMO_gap": 0.22383, 
			 "cosmo_polarized_energy": -4.72, 
			 "cosmo_cavitation_energy": 28.2, 
			 "cosmo_dispersion_energy": -18.87, 
			 "cosmo_repulsion_energy": 1.56, 
			 "cosmo_total_nonelectrostatic_energy": 10.9, 
			 "SMD_solvation_energy": 4.71 
		},
		"coords": [
			{
				"x": -1.0363310268,
				"y": -1.8840183033,
				"z": -2.7049494099,
				"element": "C" 
			},
			{
				"x": -1.0376044227,
				"y": -1.6296862926,
				"z": -1.3968726166,
				"element": "C" 
			},
			{
				"x": -0.7392344595,
				"y": -0.2792076463,
				"z": -0.7975310561,
				"element": "C" 
			},
			{
				"x": 0.3382090475,
				"y": -0.3143570761,
				"z": 0.2063881864,
				"element": "N" 
			},
			{
				"x": -0.121072375,
				"y": -0.8531103322,
				"z": 1.4910861343,
				"element": "C" 
			},
			{
				"x": 1.0211539682,
				"y": -1.2602183176,
				"z": 2.3832396861,
				"element": "C" 
			},
			{
				"x": 1.1636356505,
				"y": -0.8900693581,
				"z": 3.656136494,
				"element": "C" 
			},
			{
				"x": 0.9729429954,
				"y": 0.9999971809,
				"z": 0.3689415358,
				"element": "C" 
			},
			{
				"x": 1.8009038012,
				"y": 1.3859200566,
				"z": -0.8265117943,
				"element": "C" 
			},
			{
				"x": 1.7176865573,
				"y": 2.5522407601,
				"z": -1.4673899763,
				"element": "C" 
			},
			{
				"x": -1.2787091643,
				"y": -2.8676219789,
				"z": -3.0968735877,
				"element": "H" 
			},
			{
				"x": -0.794447533,
				"y": -1.1152758512,
				"z": -3.4355169779,
				"element": "H" 
			},
			{
				"x": -1.2887608148,
				"y": -2.4338870014,
				"z": -0.7057441349,
				"element": "H" 
			},
			{
				"x": -0.4285741582,
				"y": 0.3973153562,
				"z": -1.5985068554,
				"element": "H" 
			},
			{
				"x": -1.6658615702,
				"y": 0.1504241974,
				"z": -0.3632557307,
				"element": "H" 
			},
			{
				"x": -0.7226478433,
				"y": -1.7457239198,
				"z": 1.2794135439,
				"element": "H" 
			},
			{
				"x": -0.7878019075,
				"y": -0.1484614721,
				"z": 2.0267738647,
				"element": "H" 
			},
			{
				"x": 1.7548023616,
				"y": -1.9190816871,
				"z": 1.9195815801,
				"element": "H" 
			},
			{
				"x": 0.4506420521,
				"y": -0.2256876957,
				"z": 4.1394438694,
				"element": "H" 
			},
			{
				"x": 1.9915358684,
				"y": -1.241442893,
				"z": 4.2648622325,
				"element": "H" 
			},
			{
				"x": 1.631082116,
				"y": 0.9289176821,
				"z": 1.2440607857,
				"element": "H" 
			},
			{
				"x": 0.2363769449,
				"y": 1.7969641861,
				"z": 0.5924716394,
				"element": "H" 
			},
			{
				"x": 2.5191977226,
				"y": 0.6337765694,
				"z": -1.1513542267,
				"element": "H" 
			},
			{
				"x": 1.0024950781,
				"y": 3.3159924006,
				"z": -1.1696278326,
				"element": "H" 
			},
			{
				"x": 2.3652811115,
				"y": 2.7922014362,
				"z": -2.305565353,
				"element": "H" 
			}
		],
		 "valence_orbital": [ 
			{
				"type": "occ",
				"energy": -0.33515,
				"method": "rhf"
			},
			{
				"type": "occ",
				"energy": -0.26616,
				"method": "rhf"
			},
			{
				"type": "occ",
				"energy": -0.25628,
				"method": "rhf"
			},
			{
				"type": "occ",
				"energy": -0.25133,
				"method": "rhf"
			},
			{
				"type": "occ",
				"energy": -0.21455,
				"method": "rhf"
			},
			{
				"type": "unocc",
				"energy": 0.00928,
				"method": "rhf"
			},
			{
				"type": "unocc",
				"energy": 0.02204,
				"method": "rhf"
			},
			{
				"type": "unocc",
				"energy": 0.02471,
				"method": "rhf"
			},
			{
				"type": "unocc",
				"energy": 0.10404,
				"method": "rhf"
			},
			{
				"type": "unocc",
				"energy": 0.11644,
				"method": "rhf"
			}
		],
		"cosmo_sigma_profile": { 
			"-0.025": 0.0,
			"-0.024": 0.0,
			"-0.023": 0.0,
			"-0.022": 0.0,
			"-0.021": 0.0,
			"-0.02": 0.0,
			"-0.019": 0.0,
			"-0.018": 0.0,
			"-0.017": 0.0,
			"-0.016": 0.0,
			"-0.015": 0.0,
			"-0.014": 0.0,
			"-0.013": 0.0,
			"-0.012": 0.0,
			"-0.011": 0.0,
			"-0.01": 0.0,
			"-0.009": 0.0,
			"-0.008": 0.0,
			"-0.007": 0.0949638209146,
			"-0.006": 1.99050514333,
			"-0.005": 10.5394685184,
			"-0.004": 17.1306936449,
			"-0.003": 21.7468657347,
			"-0.002": 36.1580186873,
			"-0.001": 28.4763876997,
			"0.0": 24.8927212352,
			"0.001": 17.0689243108,
			"0.002": 14.4337506383,
			"0.003": 12.3193131665,
			"0.004": 11.687918166,
			"0.005": 9.23055834257,
			"0.006": 6.44510132519,
			"0.007": 3.33560506187,
			"0.008": 1.50784772474,
			"0.009": 1.4383285354,
			"0.01": 0.68275497152,
			"0.011": 0.489243044705,
			"0.012": 0.455400358513,
			"0.013": 0.476628935267,
			"0.014": 0.80648063569,
			"0.015": 0.103230275554,
			"0.016": 0.0,
			"0.017": 0.0,
			"0.018": 0.0,
			"0.019": 0.0,
			"0.02": 0.0,
			"0.021": 0.0,
			"0.022": 0.0,
			"0.023": 0.0,
			"0.024": 0.0,
			"0.025": 0.0
		}
	}
}
