{
	 "smiles": "BrC1=CC=C(C=C1)C(=O)CC1=CC=CC=C1", 
	 "Tm": 384.15, 
	 "num_atms": 27, 
	 "gaussian": { 
		 "optdone": 1, 
		 "sigma_profile": "yes", 
		 "theory": "DFT", 
		 "functional": "B3LYP", 
		 "basiset": "6-31G**", 
		 "properties": { 
			 "R2extent": 7187.2147, 
			 "electric_dipole_moment_norm": 2.15794806703, 
			 "electric_quadrupole_moment_norm": 7.68731723035, 
			 "total_energy": -3186.75162155, 
			 "HOMO_LUMO_gap": 0.17486, 
			 "cosmo_polarized_energy": -9.05, 
			 "cosmo_cavitation_energy": 33.71, 
			 "cosmo_dispersion_energy": -24.3, 
			 "cosmo_repulsion_energy": 1.89, 
			 "cosmo_total_nonelectrostatic_energy": 11.3, 
			 "SMD_solvation_energy": 4.8 
		},
		"coords": [
			{
				"x": -0.8430107826,
				"y": 2.7083052399,
				"z": -4.4671168016,
				"element": "Br" 
			},
			{
				"x": -0.2643649588,
				"y": 1.6214858889,
				"z": -3.0095655506,
				"element": "C" 
			},
			{
				"x": -0.0641971778,
				"y": 0.2541126262,
				"z": -3.2118428743,
				"element": "C" 
			},
			{
				"x": 0.3574088125,
				"y": -0.5296277674,
				"z": -2.1440344482,
				"element": "C" 
			},
			{
				"x": 0.5886480889,
				"y": 0.0354468739,
				"z": -0.8793718924,
				"element": "C" 
			},
			{
				"x": 0.3779165639,
				"y": 1.4108063542,
				"z": -0.7028771162,
				"element": "C" 
			},
			{
				"x": -0.0510113976,
				"y": 2.2080193523,
				"z": -1.7628684403,
				"element": "C" 
			},
			{
				"x": 1.0510554628,
				"y": -0.8729216723,
				"z": 0.218415827,
				"element": "C" 
			},
			{
				"x": 1.1299598732,
				"y": -2.0790393378,
				"z": 0.0321849693,
				"element": "O" 
			},
			{
				"x": 1.4103481179,
				"y": -0.2927979129,
				"z": 1.5885135534,
				"element": "C" 
			},
			{
				"x": 0.1837925621,
				"y": -0.0495577804,
				"z": 2.4568968833,
				"element": "C" 
			},
			{
				"x": -0.022658005,
				"y": 1.1863682746,
				"z": 3.0817836386,
				"element": "C" 
			},
			{
				"x": -1.1383525957,
				"y": 1.3983346235,
				"z": 3.894417527,
				"element": "C" 
			},
			{
				"x": -2.0655900125,
				"y": 0.3744347721,
				"z": 4.0900266066,
				"element": "C" 
			},
			{
				"x": -1.8676440769,
				"y": -0.8624382107,
				"z": 3.4716691382,
				"element": "C" 
			},
			{
				"x": -0.7520994465,
				"y": -1.0736282436,
				"z": 2.6618722212,
				"element": "C" 
			},
			{
				"x": -0.2373870487,
				"y": -0.1831999748,
				"z": -4.1884858422,
				"element": "H" 
			},
			{
				"x": 0.5186201476,
				"y": -1.5953231621,
				"z": -2.2668566973,
				"element": "H" 
			},
			{
				"x": 0.5265291928,
				"y": 1.8708725815,
				"z": 0.2674732668,
				"element": "H" 
			},
			{
				"x": -0.2189793699,
				"y": 3.2697105172,
				"z": -1.6239243859,
				"element": "H" 
			},
			{
				"x": 2.0627995186,
				"y": -1.0338823654,
				"z": 2.0607161952,
				"element": "H" 
			},
			{
				"x": 1.9811249069,
				"y": 0.6347324127,
				"z": 1.4809193725,
				"element": "H" 
			},
			{
				"x": 0.7005138407,
				"y": 1.986694384,
				"z": 2.9412549161,
				"element": "H" 
			},
			{
				"x": -1.2805896572,
				"y": 2.3628068336,
				"z": 4.3737777893,
				"element": "H" 
			},
			{
				"x": -2.9347708707,
				"y": 0.5374462931,
				"z": 4.7205505239,
				"element": "H" 
			},
			{
				"x": -2.5835389516,
				"y": -1.6658707438,
				"z": 3.620458914,
				"element": "H" 
			},
			{
				"x": -0.6002227366,
				"y": -2.0371898566,
				"z": 2.1835127062,
				"element": "H" 
			}
		],
		 "valence_orbital": [ 
			{
				"type": "occ",
				"energy": -0.2734,
				"method": "rhf"
			},
			{
				"type": "occ",
				"energy": -0.26331,
				"method": "rhf"
			},
			{
				"type": "occ",
				"energy": -0.25489,
				"method": "rhf"
			},
			{
				"type": "occ",
				"energy": -0.25197,
				"method": "rhf"
			},
			{
				"type": "occ",
				"energy": -0.24175,
				"method": "rhf"
			},
			{
				"type": "unocc",
				"energy": -0.06689,
				"method": "rhf"
			},
			{
				"type": "unocc",
				"energy": -0.02272,
				"method": "rhf"
			},
			{
				"type": "unocc",
				"energy": -0.00876,
				"method": "rhf"
			},
			{
				"type": "unocc",
				"energy": -0.00563,
				"method": "rhf"
			},
			{
				"type": "unocc",
				"energy": 0.00107,
				"method": "rhf"
			}
		],
		"cosmo_sigma_profile": { 
			"-0.025": 0.0,
			"-0.024": 0.0,
			"-0.023": 0.0,
			"-0.022": 0.0,
			"-0.021": 0.0,
			"-0.02": 0.0,
			"-0.019": 0.0,
			"-0.018": 0.0,
			"-0.017": 0.0,
			"-0.016": 0.0,
			"-0.015": 0.0,
			"-0.014": 0.0,
			"-0.013": 0.0,
			"-0.012": 0.0,
			"-0.011": 0.0,
			"-0.01": 0.0,
			"-0.009": 0.348556528917,
			"-0.008": 2.56620361614,
			"-0.007": 7.08434552086,
			"-0.006": 14.580289751,
			"-0.005": 20.0067127211,
			"-0.004": 20.0514739068,
			"-0.003": 22.2726692585,
			"-0.002": 17.8541574834,
			"-0.001": 18.3411515623,
			"0.0": 19.9756362375,
			"0.001": 27.8223947945,
			"0.002": 30.7459744153,
			"0.003": 20.7605042751,
			"0.004": 20.0648759328,
			"0.005": 11.2800676494,
			"0.006": 6.71247470907,
			"0.007": 1.97548092085,
			"0.008": 1.35988592805,
			"0.009": 1.71245237552,
			"0.01": 2.01162119006,
			"0.011": 2.84181540647,
			"0.012": 2.85236958972,
			"0.013": 0.474720269573,
			"0.014": 0.0,
			"0.015": 0.0,
			"0.016": 0.0,
			"0.017": 0.0,
			"0.018": 0.0,
			"0.019": 0.0,
			"0.02": 0.0,
			"0.021": 0.0,
			"0.022": 0.0,
			"0.023": 0.0,
			"0.024": 0.0,
			"0.025": 0.0
		}
	}
}
