{
	 "smiles": "CC1=CSC(NCC(O)=O)=N1", 
	 "Tm": 498.15, 
	 "num_atms": 19, 
	 "gaussian": { 
		 "optdone": 1, 
		 "sigma_profile": "yes", 
		 "theory": "DFT", 
		 "functional": "B3LYP", 
		 "basiset": "6-31G**", 
		 "properties": { 
			 "R2extent": 2679.1656, 
			 "electric_dipole_moment_norm": 5.29173261418, 
			 "electric_quadrupole_moment_norm": 17.7061248016, 
			 "total_energy": -891.602080154, 
			 "HOMO_LUMO_gap": 0.20568, 
			 "cosmo_polarized_energy": -17.91, 
			 "cosmo_cavitation_energy": 25.21, 
			 "cosmo_dispersion_energy": -18.86, 
			 "cosmo_repulsion_energy": 1.52, 
			 "cosmo_total_nonelectrostatic_energy": 7.86, 
			 "SMD_solvation_energy": 4.33 
		},
		"coords": [
			{
				"x": -2.8990141588,
				"y": 1.1007524845,
				"z": 0.5300984745,
				"element": "C" 
			},
			{
				"x": -1.8786988742,
				"y": 0.7701920927,
				"z": -0.5172663353,
				"element": "C" 
			},
			{
				"x": -2.1276389076,
				"y": 0.5608290667,
				"z": -1.840101601,
				"element": "C" 
			},
			{
				"x": -0.6430273662,
				"y": 0.2065470706,
				"z": -2.6968651986,
				"element": "S" 
			},
			{
				"x": 0.2040407037,
				"y": 0.3669508203,
				"z": -1.1557370852,
				"element": "C" 
			},
			{
				"x": 1.5882682599,
				"y": 0.2489682819,
				"z": -1.0826379177,
				"element": "N" 
			},
			{
				"x": 2.1954482025,
				"y": 0.0790404143,
				"z": 0.2410399005,
				"element": "C" 
			},
			{
				"x": 2.6937036381,
				"y": 1.3963978268,
				"z": 0.8563698759,
				"element": "C" 
			},
			{
				"x": 2.6521274544,
				"y": 2.4630578977,
				"z": 0.0395172914,
				"element": "O" 
			},
			{
				"x": 3.1211798895,
				"y": 1.448053181,
				"z": 1.9823819844,
				"element": "O" 
			},
			{
				"x": -0.5473841369,
				"y": 0.6571444492,
				"z": -0.1387651416,
				"element": "N" 
			},
			{
				"x": -2.8988443143,
				"y": 0.3431215849,
				"z": 1.3211110658,
				"element": "H" 
			},
			{
				"x": -3.9025539738,
				"y": 1.1565902004,
				"z": 0.1018769297,
				"element": "H" 
			},
			{
				"x": -2.6671291722,
				"y": 2.0609902736,
				"z": 1.0030700292,
				"element": "H" 
			},
			{
				"x": -3.0715153178,
				"y": 0.5885413759,
				"z": -2.3645143513,
				"element": "H" 
			},
			{
				"x": 1.9978232839,
				"y": -0.3117335676,
				"z": -1.8176394228,
				"element": "H" 
			},
			{
				"x": 1.4895908159,
				"y": -0.3660230135,
				"z": 0.94659531,
				"element": "H" 
			},
			{
				"x": 3.0600305144,
				"y": -0.5848827834,
				"z": 0.1540700269,
				"element": "H" 
			},
			{
				"x": 2.2629934595,
				"y": 2.1610623437,
				"z": -0.8030038349,
				"element": "H" 
			}
		],
		 "valence_orbital": [ 
			{
				"type": "occ",
				"energy": -0.30631,
				"method": "rhf"
			},
			{
				"type": "occ",
				"energy": -0.2874,
				"method": "rhf"
			},
			{
				"type": "occ",
				"energy": -0.28587,
				"method": "rhf"
			},
			{
				"type": "occ",
				"energy": -0.26423,
				"method": "rhf"
			},
			{
				"type": "occ",
				"energy": -0.22367,
				"method": "rhf"
			},
			{
				"type": "unocc",
				"energy": -0.01799,
				"method": "rhf"
			},
			{
				"type": "unocc",
				"energy": -0.00447,
				"method": "rhf"
			},
			{
				"type": "unocc",
				"energy": 0.0167,
				"method": "rhf"
			},
			{
				"type": "unocc",
				"energy": 0.04833,
				"method": "rhf"
			},
			{
				"type": "unocc",
				"energy": 0.06471,
				"method": "rhf"
			}
		],
		"cosmo_sigma_profile": { 
			"-0.025": 0.0,
			"-0.024": 0.0,
			"-0.023": 0.0,
			"-0.022": 0.0,
			"-0.021": 0.0,
			"-0.02": 0.0,
			"-0.019": 0.0,
			"-0.018": 0.0,
			"-0.017": 0.0,
			"-0.016": 0.402904726705,
			"-0.015": 1.91458147437,
			"-0.014": 2.25040564155,
			"-0.013": 1.91701208711,
			"-0.012": 2.08584384527,
			"-0.011": 2.59952642494,
			"-0.01": 2.88976020169,
			"-0.009": 4.62842903563,
			"-0.008": 6.67984783264,
			"-0.007": 6.61159864864,
			"-0.006": 6.36036769311,
			"-0.005": 9.00511687936,
			"-0.004": 13.0231549863,
			"-0.003": 11.0365316258,
			"-0.002": 11.6427092568,
			"-0.001": 11.9986703546,
			"0.0": 13.3564164945,
			"0.001": 13.4925544438,
			"0.002": 11.4696623334,
			"0.003": 12.5562299311,
			"0.004": 12.2686439443,
			"0.005": 7.95165380518,
			"0.006": 3.67106017495,
			"0.007": 4.05068060135,
			"0.008": 3.68468739601,
			"0.009": 4.5968239158,
			"0.01": 6.0665879768,
			"0.011": 4.83356297763,
			"0.012": 6.59625634235,
			"0.013": 2.75634287788,
			"0.014": 0.200861216271,
			"0.015": 0.0,
			"0.016": 0.0,
			"0.017": 0.0,
			"0.018": 0.0,
			"0.019": 0.0,
			"0.02": 0.0,
			"0.021": 0.0,
			"0.022": 0.0,
			"0.023": 0.0,
			"0.024": 0.0,
			"0.025": 0.0
		}
	}
}
