{
	 "smiles": "CC12CCC(C(C1)C(=O)OC1=CC=CC=C1)C2(C)C", 
	 "Tm": 314.15, 
	 "num_atms": 41, 
	 "gaussian": { 
		 "optdone": 1, 
		 "sigma_profile": "yes", 
		 "theory": "DFT", 
		 "functional": "B3LYP", 
		 "basiset": "6-31G**", 
		 "properties": { 
			 "R2extent": 5852.5058, 
			 "electric_dipole_moment_norm": 4.00077078699, 
			 "electric_quadrupole_moment_norm": 21.3383738977, 
			 "total_energy": -811.524644634, 
			 "HOMO_LUMO_gap": 0.22907, 
			 "cosmo_polarized_energy": -9.43, 
			 "cosmo_cavitation_energy": 39.19, 
			 "cosmo_dispersion_energy": -26.88, 
			 "cosmo_repulsion_energy": 2.04, 
			 "cosmo_total_nonelectrostatic_energy": 14.34, 
			 "SMD_solvation_energy": 7.06 
		},
		"coords": [
			{
				"x": -0.9204035224,
				"y": -4.3877693953,
				"z": 0.4881874091,
				"element": "C" 
			},
			{
				"x": -0.7315334536,
				"y": -2.8760857367,
				"z": 0.468836786,
				"element": "C" 
			},
			{
				"x": -1.3533838743,
				"y": -2.1739950279,
				"z": -0.7750661689,
				"element": "C" 
			},
			{
				"x": -0.6289891535,
				"y": -0.7915457121,
				"z": -0.8310459873,
				"element": "C" 
			},
			{
				"x": 0.2743036391,
				"y": -0.8339133232,
				"z": 0.4250004802,
				"element": "C" 
			},
			{
				"x": -0.7196193219,
				"y": -0.7245004011,
				"z": 1.638545628,
				"element": "C" 
			},
			{
				"x": -1.3172876757,
				"y": -2.1584938899,
				"z": 1.7136848638,
				"element": "C" 
			},
			{
				"x": -0.1224362645,
				"y": -0.2362350054,
				"z": 2.9500372607,
				"element": "C" 
			},
			{
				"x": 0.0786939939,
				"y": -0.9097022436,
				"z": 3.9298702179,
				"element": "O" 
			},
			{
				"x": 0.23807253,
				"y": 1.0963860504,
				"z": 3.0272570211,
				"element": "O" 
			},
			{
				"x": -0.1493696321,
				"y": 2.0704559808,
				"z": 2.1154369867,
				"element": "C" 
			},
			{
				"x": -1.4615938601,
				"y": 2.5489964378,
				"z": 2.1113806716,
				"element": "C" 
			},
			{
				"x": -1.8069675033,
				"y": 3.5887972826,
				"z": 1.2468838895,
				"element": "C" 
			},
			{
				"x": -0.846811898,
				"y": 4.1568939879,
				"z": 0.4065471539,
				"element": "C" 
			},
			{
				"x": 0.4670699601,
				"y": 3.6845232712,
				"z": 0.4367682543,
				"element": "C" 
			},
			{
				"x": 0.8220246223,
				"y": 2.6404076172,
				"z": 1.2922332372,
				"element": "C" 
			},
			{
				"x": 0.7422047162,
				"y": -2.3241367899,
				"z": 0.4479829266,
				"element": "C" 
			},
			{
				"x": 1.5518952871,
				"y": -2.7271100054,
				"z": -0.8017465962,
				"element": "C" 
			},
			{
				"x": 1.6012137002,
				"y": -2.7162493381,
				"z": 1.6642886284,
				"element": "C" 
			},
			{
				"x": -1.9851260946,
				"y": -4.6489563992,
				"z": 0.4983258771,
				"element": "H" 
			},
			{
				"x": -0.4644299117,
				"y": -4.8386227885,
				"z": 1.3762220441,
				"element": "H" 
			},
			{
				"x": -0.4771185698,
				"y": -4.8586802829,
				"z": -0.3962714914,
				"element": "H" 
			},
			{
				"x": -2.438974454,
				"y": -2.0753361006,
				"z": -0.6678954485,
				"element": "H" 
			},
			{
				"x": -1.1801800932,
				"y": -2.7559490586,
				"z": -1.6859069725,
				"element": "H" 
			},
			{
				"x": -0.0338918002,
				"y": -0.6848524568,
				"z": -1.7420104255,
				"element": "H" 
			},
			{
				"x": -1.3211435785,
				"y": 0.0554381899,
				"z": -0.8058010661,
				"element": "H" 
			},
			{
				"x": 1.0715913149,
				"y": -0.0871346679,
				"z": 0.4270277054,
				"element": "H" 
			},
			{
				"x": -1.4902642591,
				"y": 0.0031346639,
				"z": 1.3710122895,
				"element": "H" 
			},
			{
				"x": -2.4121534282,
				"y": -2.1459838842,
				"z": 1.6927457484,
				"element": "H" 
			},
			{
				"x": -1.0155556684,
				"y": -2.6466125542,
				"z": 2.643113381,
				"element": "H" 
			},
			{
				"x": -2.1910872199,
				"y": 2.117038045,
				"z": 2.7894462123,
				"element": "H" 
			},
			{
				"x": -2.8270936393,
				"y": 3.9613428808,
				"z": 1.2396394482,
				"element": "H" 
			},
			{
				"x": -1.1188260187,
				"y": 4.9689843823,
				"z": -0.2606371286,
				"element": "H" 
			},
			{
				"x": 1.2213442312,
				"y": 4.1299868136,
				"z": -0.2051658916,
				"element": "H" 
			},
			{
				"x": 1.8404647088,
				"y": 2.2692384397,
				"z": 1.3402399143,
				"element": "H" 
			},
			{
				"x": 1.8137076645,
				"y": -3.7896558518,
				"z": -0.7545661783,
				"element": "H" 
			},
			{
				"x": 1.0331498264,
				"y": -2.561864055,
				"z": -1.7474424916,
				"element": "H" 
			},
			{
				"x": 2.49309698,
				"y": -2.16659223,
				"z": -0.8391733461,
				"element": "H" 
			},
			{
				"x": 1.1449272317,
				"y": -2.4954297621,
				"z": 2.6277382952,
				"element": "H" 
			},
			{
				"x": 2.5628775261,
				"y": -2.1907442095,
				"z": 1.6283231664,
				"element": "H" 
			},
			{
				"x": 1.8242029623,
				"y": -3.7888728732,
				"z": 1.6371536959,
				"element": "H" 
			}
		],
		 "valence_orbital": [ 
			{
				"type": "occ",
				"energy": -0.29649,
				"method": "rhf"
			},
			{
				"type": "occ",
				"energy": -0.28277,
				"method": "rhf"
			},
			{
				"type": "occ",
				"energy": -0.27393,
				"method": "rhf"
			},
			{
				"type": "occ",
				"energy": -0.26371,
				"method": "rhf"
			},
			{
				"type": "occ",
				"energy": -0.246,
				"method": "rhf"
			},
			{
				"type": "unocc",
				"energy": -0.01693,
				"method": "rhf"
			},
			{
				"type": "unocc",
				"energy": -0.01252,
				"method": "rhf"
			},
			{
				"type": "unocc",
				"energy": 0.00319,
				"method": "rhf"
			},
			{
				"type": "unocc",
				"energy": 0.07085,
				"method": "rhf"
			},
			{
				"type": "unocc",
				"energy": 0.08134,
				"method": "rhf"
			}
		],
		"cosmo_sigma_profile": { 
			"-0.025": 0.0,
			"-0.024": 0.0,
			"-0.023": 0.0,
			"-0.022": 0.0,
			"-0.021": 0.0,
			"-0.02": 0.0,
			"-0.019": 0.0,
			"-0.018": 0.0,
			"-0.017": 0.0,
			"-0.016": 0.0,
			"-0.015": 0.0,
			"-0.014": 0.0,
			"-0.013": 0.0,
			"-0.012": 0.0,
			"-0.011": 0.0,
			"-0.01": 0.0,
			"-0.009": 0.0,
			"-0.008": 0.530129130419,
			"-0.007": 4.27678295462,
			"-0.006": 11.1864536805,
			"-0.005": 12.8671808405,
			"-0.004": 16.0629373212,
			"-0.003": 24.8163450553,
			"-0.002": 39.6614209341,
			"-0.001": 43.019082073,
			"0.0": 34.7446928709,
			"0.001": 37.3683111171,
			"0.002": 27.2686510346,
			"0.003": 13.0408329381,
			"0.004": 12.0402148771,
			"0.005": 6.53744772975,
			"0.006": 2.42537121354,
			"0.007": 2.62705640124,
			"0.008": 2.17743020006,
			"0.009": 2.70701970045,
			"0.01": 3.95830163101,
			"0.011": 4.59910938212,
			"0.012": 3.2859404356,
			"0.013": 0.878773507786,
			"0.014": 0.0,
			"0.015": 0.0,
			"0.016": 0.0,
			"0.017": 0.0,
			"0.018": 0.0,
			"0.019": 0.0,
			"0.02": 0.0,
			"0.021": 0.0,
			"0.022": 0.0,
			"0.023": 0.0,
			"0.024": 0.0,
			"0.025": 0.0
		}
	}
}
