{
	 "smiles": "COC(=O)C1=CN=C(NN)N=C1C(F)(F)F", 
	 "Tm": 406.15, 
	 "num_atms": 23, 
	 "gaussian": { 
		 "optdone": 1, 
		 "sigma_profile": "yes", 
		 "theory": "DFT", 
		 "functional": "B3LYP", 
		 "basiset": "6-31G**", 
		 "properties": { 
			 "R2extent": 4428.7202, 
			 "electric_dipole_moment_norm": 2.93194530815, 
			 "electric_quadrupole_moment_norm": 13.6691600821, 
			 "total_energy": -939.915118539, 
			 "HOMO_LUMO_gap": 0.18131, 
			 "cosmo_polarized_energy": -13.47, 
			 "cosmo_cavitation_energy": 29.71, 
			 "cosmo_dispersion_energy": -21.22, 
			 "cosmo_repulsion_energy": 1.62, 
			 "cosmo_total_nonelectrostatic_energy": 10.12, 
			 "SMD_solvation_energy": 5.93 
		},
		"coords": [
			{
				"x": 0.6555932021,
				"y": 2.3997369888,
				"z": -2.3225452873,
				"element": "C" 
			},
			{
				"x": 0.6847651383,
				"y": 1.3213223475,
				"z": -1.3738020556,
				"element": "O" 
			},
			{
				"x": -0.4468876702,
				"y": 1.173145136,
				"z": -0.6395295417,
				"element": "C" 
			},
			{
				"x": -1.420074279,
				"y": 1.8822699299,
				"z": -0.7789977609,
				"element": "O" 
			},
			{
				"x": -0.3052802212,
				"y": 0.0623580357,
				"z": 0.3383339004,
				"element": "C" 
			},
			{
				"x": 0.9617194178,
				"y": -0.502772322,
				"z": 0.5972062221,
				"element": "C" 
			},
			{
				"x": 1.1834786828,
				"y": -1.4633713557,
				"z": 1.4796940502,
				"element": "N" 
			},
			{
				"x": 0.0903524951,
				"y": -1.8947736062,
				"z": 2.1481471591,
				"element": "C" 
			},
			{
				"x": 0.2962852709,
				"y": -2.8643129299,
				"z": 3.071513266,
				"element": "N" 
			},
			{
				"x": -0.7090252495,
				"y": -3.4638284434,
				"z": 3.8402855156,
				"element": "N" 
			},
			{
				"x": -1.1727166443,
				"y": -1.458361813,
				"z": 1.9774894536,
				"element": "N" 
			},
			{
				"x": -1.3627420754,
				"y": -0.4943421874,
				"z": 1.0847176759,
				"element": "C" 
			},
			{
				"x": -2.8309587895,
				"y": -0.0706312346,
				"z": 0.9345862678,
				"element": "C" 
			},
			{
				"x": -3.6371136392,
				"y": -0.8804040652,
				"z": 1.6406794985,
				"element": "F" 
			},
			{
				"x": -3.2237752795,
				"y": -0.1386780392,
				"z": -0.3498898399,
				"element": "F" 
			},
			{
				"x": -3.0216214743,
				"y": 1.1797101323,
				"z": 1.3862411438,
				"element": "F" 
			},
			{
				"x": -0.1485749587,
				"y": 2.251292455,
				"z": -3.0471612345,
				"element": "H" 
			},
			{
				"x": 0.5001824041,
				"y": 3.3551553073,
				"z": -1.8152913502,
				"element": "H" 
			},
			{
				"x": 1.6266003266,
				"y": 2.3805706942,
				"z": -2.8170317688,
				"element": "H" 
			},
			{
				"x": 1.825299389,
				"y": -0.1367037581,
				"z": 0.0500590704,
				"element": "H" 
			},
			{
				"x": 1.2338810518,
				"y": -3.2201392244,
				"z": 3.1830612524,
				"element": "H" 
			},
			{
				"x": -1.4275024796,
				"y": -3.8161156586,
				"z": 3.2086280118,
				"element": "H" 
			},
			{
				"x": -1.1600846179,
				"y": -2.7397263891,
				"z": 4.3982063514,
				"element": "H" 
			}
		],
		 "valence_orbital": [ 
			{
				"type": "occ",
				"energy": -0.30818,
				"method": "rhf"
			},
			{
				"type": "occ",
				"energy": -0.29186,
				"method": "rhf"
			},
			{
				"type": "occ",
				"energy": -0.28058,
				"method": "rhf"
			},
			{
				"type": "occ",
				"energy": -0.26884,
				"method": "rhf"
			},
			{
				"type": "occ",
				"energy": -0.24686,
				"method": "rhf"
			},
			{
				"type": "unocc",
				"energy": -0.06555,
				"method": "rhf"
			},
			{
				"type": "unocc",
				"energy": -0.05006,
				"method": "rhf"
			},
			{
				"type": "unocc",
				"energy": 0.03986,
				"method": "rhf"
			},
			{
				"type": "unocc",
				"energy": 0.07821,
				"method": "rhf"
			},
			{
				"type": "unocc",
				"energy": 0.09504,
				"method": "rhf"
			}
		],
		"cosmo_sigma_profile": { 
			"-0.025": 0.0,
			"-0.024": 0.0,
			"-0.023": 0.0,
			"-0.022": 0.0,
			"-0.021": 0.0,
			"-0.02": 0.0,
			"-0.019": 0.0,
			"-0.018": 0.0,
			"-0.017": 0.0,
			"-0.016": 0.0,
			"-0.015": 0.429558073402,
			"-0.014": 1.01094028883,
			"-0.013": 1.07592967064,
			"-0.012": 1.23074750497,
			"-0.011": 3.84711390001,
			"-0.01": 3.02315387172,
			"-0.009": 3.2636667464,
			"-0.008": 3.3746614162,
			"-0.007": 4.68812600368,
			"-0.006": 9.13099632639,
			"-0.005": 11.1169199872,
			"-0.004": 16.448636887,
			"-0.003": 22.3775801066,
			"-0.002": 19.3075805234,
			"-0.001": 15.4501239129,
			"0.0": 14.0082861998,
			"0.001": 12.5966445181,
			"0.002": 23.8568854254,
			"0.003": 21.1991968573,
			"0.004": 8.19115386565,
			"0.005": 7.22245703386,
			"0.006": 5.69556021766,
			"0.007": 3.98264292907,
			"0.008": 4.70874487661,
			"0.009": 4.58954954296,
			"0.01": 4.4853444127,
			"0.011": 4.63560389239,
			"0.012": 3.39155258507,
			"0.013": 1.23991675697,
			"0.014": 0.600734281524,
			"0.015": 0.799981344296,
			"0.016": 0.267088551235,
			"0.017": 0.0,
			"0.018": 0.0,
			"0.019": 0.0,
			"0.02": 0.0,
			"0.021": 0.0,
			"0.022": 0.0,
			"0.023": 0.0,
			"0.024": 0.0,
			"0.025": 0.0
		}
	}
}
