{
	 "smiles": "COC1=C(OC)C=C(CCC2CCCCN2)C=C1", 
	 "Tm": 313.15, 
	 "num_atms": 41, 
	 "gaussian": { 
		 "optdone": 1, 
		 "sigma_profile": "yes", 
		 "theory": "DFT", 
		 "functional": "B3LYP", 
		 "basiset": "6-31G**", 
		 "properties": { 
			 "R2extent": 8914.6989, 
			 "electric_dipole_moment_norm": 3.00399212715, 
			 "electric_quadrupole_moment_norm": 17.4181753637, 
			 "total_energy": -790.629442164, 
			 "HOMO_LUMO_gap": 0.21412, 
			 "cosmo_polarized_energy": -10.36, 
			 "cosmo_cavitation_energy": 41.52, 
			 "cosmo_dispersion_energy": -29.42, 
			 "cosmo_repulsion_energy": 2.32, 
			 "cosmo_total_nonelectrostatic_energy": 14.42, 
			 "SMD_solvation_energy": 5.7 
		},
		"coords": [
			{
				"x": -6.614383182,
				"y": 0.4690586944,
				"z": -1.1129740222,
				"element": "C" 
			},
			{
				"x": -6.1976624721,
				"y": -0.7374633382,
				"z": -0.4723855868,
				"element": "O" 
			},
			{
				"x": -4.8476454051,
				"y": -0.854305916,
				"z": -0.2382910193,
				"element": "C" 
			},
			{
				"x": -3.9243482957,
				"y": -1.0323745814,
				"z": -1.2931931042,
				"element": "C" 
			},
			{
				"x": -4.4500008239,
				"y": -1.0333490944,
				"z": -2.5561081409,
				"element": "O" 
			},
			{
				"x": -3.5726173744,
				"y": -1.2580753241,
				"z": -3.6467412268,
				"element": "C" 
			},
			{
				"x": -2.5699126311,
				"y": -1.2067063854,
				"z": -0.9983968506,
				"element": "C" 
			},
			{
				"x": -2.1077100408,
				"y": -1.2226010031,
				"z": 0.3279796649,
				"element": "C" 
			},
			{
				"x": -0.629777265,
				"y": -1.3751081335,
				"z": 0.6183551756,
				"element": "C" 
			},
			{
				"x": 0.1050698879,
				"y": -0.0209634311,
				"z": 0.7101039428,
				"element": "C" 
			},
			{
				"x": 1.6060617702,
				"y": -0.1436886573,
				"z": 0.9960034297,
				"element": "C" 
			},
			{
				"x": 2.2772079448,
				"y": 1.2224268862,
				"z": 1.2246035075,
				"element": "C" 
			},
			{
				"x": 3.762593973,
				"y": 1.0443115629,
				"z": 1.6266595911,
				"element": "C" 
			},
			{
				"x": 4.3438206475,
				"y": -0.2816506955,
				"z": 1.084884918,
				"element": "C" 
			},
			{
				"x": 3.7062552989,
				"y": -0.64881439,
				"z": -0.2555191561,
				"element": "C" 
			},
			{
				"x": 2.2639846149,
				"y": -0.9104020086,
				"z": -0.0838506616,
				"element": "N" 
			},
			{
				"x": -3.0339161627,
				"y": -1.0614631886,
				"z": 1.3607945832,
				"element": "C" 
			},
			{
				"x": -4.3884819435,
				"y": -0.873589876,
				"z": 1.0746336211,
				"element": "C" 
			},
			{
				"x": -6.3300166274,
				"y": 1.3478825599,
				"z": -0.5187682326,
				"element": "H" 
			},
			{
				"x": -6.1927995018,
				"y": 0.5580021077,
				"z": -2.118760005,
				"element": "H" 
			},
			{
				"x": -7.7035937198,
				"y": 0.418934745,
				"z": -1.1783348387,
				"element": "H" 
			},
			{
				"x": -4.1953087123,
				"y": -1.2408187297,
				"z": -4.5427099748,
				"element": "H" 
			},
			{
				"x": -3.0758856194,
				"y": -2.2338372854,
				"z": -3.5713954822,
				"element": "H" 
			},
			{
				"x": -2.8083447333,
				"y": -0.4734393907,
				"z": -3.7238869456,
				"element": "H" 
			},
			{
				"x": -1.8547735608,
				"y": -1.3483353869,
				"z": -1.8016940425,
				"element": "H" 
			},
			{
				"x": -0.1540419971,
				"y": -1.9930520311,
				"z": -0.1501590509,
				"element": "H" 
			},
			{
				"x": -0.49445774,
				"y": -1.9099932215,
				"z": 1.5665247709,
				"element": "H" 
			},
			{
				"x": -0.3578184962,
				"y": 0.582892531,
				"z": 1.5002142904,
				"element": "H" 
			},
			{
				"x": -0.0409994554,
				"y": 0.5406772702,
				"z": -0.2248848673,
				"element": "H" 
			},
			{
				"x": 1.7114753485,
				"y": -0.7229804643,
				"z": 1.927622772,
				"element": "H" 
			},
			{
				"x": 1.7372345872,
				"y": 1.7902080039,
				"z": 1.9917282411,
				"element": "H" 
			},
			{
				"x": 2.2005267947,
				"y": 1.8048971374,
				"z": 0.2964592489,
				"element": "H" 
			},
			{
				"x": 4.3484152118,
				"y": 1.8902072758,
				"z": 1.2481547262,
				"element": "H" 
			},
			{
				"x": 3.8628354348,
				"y": 1.065248189,
				"z": 2.7179435057,
				"element": "H" 
			},
			{
				"x": 5.4309070938,
				"y": -0.2093656127,
				"z": 0.9733614563,
				"element": "H" 
			},
			{
				"x": 4.1565357684,
				"y": -1.0973997557,
				"z": 1.793417366,
				"element": "H" 
			},
			{
				"x": 3.9044239231,
				"y": 0.1712174168,
				"z": -0.9687263197,
				"element": "H" 
			},
			{
				"x": 4.1822977181,
				"y": -1.5457744386,
				"z": -0.6726556119,
				"element": "H" 
			},
			{
				"x": 1.7874627925,
				"y": -0.7107585665,
				"z": -0.9595362182,
				"element": "H" 
			},
			{
				"x": -2.6999866424,
				"y": -1.0820324161,
				"z": 2.3948421395,
				"element": "H" 
			},
			{
				"x": -5.1201264079,
				"y": -0.7535210579,
				"z": 1.8676844072,
				"element": "H" 
			}
		],
		 "valence_orbital": [ 
			{
				"type": "occ",
				"energy": -0.29894,
				"method": "rhf"
			},
			{
				"type": "occ",
				"energy": -0.26529,
				"method": "rhf"
			},
			{
				"type": "occ",
				"energy": -0.23189,
				"method": "rhf"
			},
			{
				"type": "occ",
				"energy": -0.20756,
				"method": "rhf"
			},
			{
				"type": "occ",
				"energy": -0.20468,
				"method": "rhf"
			},
			{
				"type": "unocc",
				"energy": 0.00944,
				"method": "rhf"
			},
			{
				"type": "unocc",
				"energy": 0.01687,
				"method": "rhf"
			},
			{
				"type": "unocc",
				"energy": 0.07425,
				"method": "rhf"
			},
			{
				"type": "unocc",
				"energy": 0.08828,
				"method": "rhf"
			},
			{
				"type": "unocc",
				"energy": 0.09924,
				"method": "rhf"
			}
		],
		"cosmo_sigma_profile": { 
			"-0.025": 0.0,
			"-0.024": 0.0,
			"-0.023": 0.0,
			"-0.022": 0.0,
			"-0.021": 0.0,
			"-0.02": 0.0,
			"-0.019": 0.0,
			"-0.018": 0.0,
			"-0.017": 0.0,
			"-0.016": 0.0,
			"-0.015": 0.0,
			"-0.014": 0.0,
			"-0.013": 0.0,
			"-0.012": 0.0,
			"-0.011": 0.0,
			"-0.01": 0.0,
			"-0.009": 0.377401393134,
			"-0.008": 1.16180131806,
			"-0.007": 1.17720625252,
			"-0.006": 6.01478255041,
			"-0.005": 17.6425398966,
			"-0.004": 21.7475396328,
			"-0.003": 31.1866097493,
			"-0.002": 49.0587153066,
			"-0.001": 47.7635192818,
			"0.0": 37.694857803,
			"0.001": 29.1576596931,
			"0.002": 14.2222601265,
			"0.003": 11.9124271508,
			"0.004": 11.2310380837,
			"0.005": 11.7437480085,
			"0.006": 9.38376438931,
			"0.007": 3.9137832647,
			"0.008": 2.68521711429,
			"0.009": 2.76009670907,
			"0.01": 2.61923119453,
			"0.011": 3.26527187285,
			"0.012": 2.76216165258,
			"0.013": 1.26217307524,
			"0.014": 0.345855915738,
			"0.015": 0.210497563813,
			"0.016": 0.321733014721,
			"0.017": 0.774238169883,
			"0.018": 0.354945742354,
			"0.019": 0.0584976672284,
			"0.02": 0.0,
			"0.021": 0.0,
			"0.022": 0.0,
			"0.023": 0.0,
			"0.024": 0.0,
			"0.025": 0.0
		}
	}
}
