{
	 "smiles": "BrC(=O)C1=CC=CC=C1", 
	 "Tm": 249.15, 
	 "num_atms": 14, 
	 "gaussian": { 
		 "optdone": 1, 
		 "sigma_profile": "yes", 
		 "theory": "DFT", 
		 "functional": "B3LYP", 
		 "basiset": "6-31G**", 
		 "properties": { 
			 "R2extent": 3362.1973, 
			 "electric_dipole_moment_norm": 4.13641242745, 
			 "electric_quadrupole_moment_norm": 8.70549495491, 
			 "total_energy": -2916.39313978, 
			 "HOMO_LUMO_gap": 0.19632, 
			 "cosmo_polarized_energy": -5.72, 
			 "cosmo_cavitation_energy": 20.83, 
			 "cosmo_dispersion_energy": -15.9, 
			 "cosmo_repulsion_energy": 1.3, 
			 "cosmo_total_nonelectrostatic_energy": 6.22, 
			 "SMD_solvation_energy": 3.42 
		},
		"coords": [
			{
				"x": 0.3517083874,
				"y": -4.0359185325,
				"z": -1.1440844046,
				"element": "Br" 
			},
			{
				"x": 0.222360265,
				"y": -2.2241489975,
				"z": -2.0110056043,
				"element": "C" 
			},
			{
				"x": 0.1900913231,
				"y": -2.1747760105,
				"z": -3.201767447,
				"element": "O" 
			},
			{
				"x": 0.1763890132,
				"y": -1.0706721753,
				"z": -1.0820350267,
				"element": "C" 
			},
			{
				"x": 0.2169648111,
				"y": -1.1839422085,
				"z": 0.3140942575,
				"element": "C" 
			},
			{
				"x": 0.1679738985,
				"y": -0.0367522863,
				"z": 1.103303863,
				"element": "C" 
			},
			{
				"x": 0.078766531,
				"y": 1.2232893052,
				"z": 0.5076859136,
				"element": "C" 
			},
			{
				"x": 0.0380597615,
				"y": 1.3405077137,
				"z": -0.88497349,
				"element": "C" 
			},
			{
				"x": 0.0864405016,
				"y": 0.2005025293,
				"z": -1.6796753734,
				"element": "C" 
			},
			{
				"x": 0.2862153265,
				"y": -2.1636885063,
				"z": 0.7706661795,
				"element": "H" 
			},
			{
				"x": 0.1995470286,
				"y": -0.1271975079,
				"z": 2.1846014403,
				"element": "H" 
			},
			{
				"x": 0.040920412,
				"y": 2.1142207734,
				"z": 1.1278407074,
				"element": "H" 
			},
			{
				"x": -0.0312864366,
				"y": 2.3197417998,
				"z": -1.3486467291,
				"element": "H" 
			},
			{
				"x": 0.0560491772,
				"y": 0.2708341034,
				"z": -2.7613042861,
				"element": "H" 
			}
		],
		 "valence_orbital": [ 
			{
				"type": "occ",
				"energy": -0.29635,
				"method": "rhf"
			},
			{
				"type": "occ",
				"energy": -0.29221,
				"method": "rhf"
			},
			{
				"type": "occ",
				"energy": -0.27804,
				"method": "rhf"
			},
			{
				"type": "occ",
				"energy": -0.2774,
				"method": "rhf"
			},
			{
				"type": "occ",
				"energy": -0.27543,
				"method": "rhf"
			},
			{
				"type": "unocc",
				"energy": -0.07911,
				"method": "rhf"
			},
			{
				"type": "unocc",
				"energy": -0.02462,
				"method": "rhf"
			},
			{
				"type": "unocc",
				"energy": -0.00575,
				"method": "rhf"
			},
			{
				"type": "unocc",
				"energy": 0.02455,
				"method": "rhf"
			},
			{
				"type": "unocc",
				"energy": 0.0826,
				"method": "rhf"
			}
		],
		"cosmo_sigma_profile": { 
			"-0.025": 0.0,
			"-0.024": 0.0,
			"-0.023": 0.0,
			"-0.022": 0.0,
			"-0.021": 0.0,
			"-0.02": 0.0,
			"-0.019": 0.0,
			"-0.018": 0.0,
			"-0.017": 0.0,
			"-0.016": 0.0,
			"-0.015": 0.0,
			"-0.014": 0.0,
			"-0.013": 0.0,
			"-0.012": 0.0,
			"-0.011": 0.0,
			"-0.01": 0.0,
			"-0.009": 0.0,
			"-0.008": 0.332766500233,
			"-0.007": 6.95690657734,
			"-0.006": 11.0595147651,
			"-0.005": 10.5443657052,
			"-0.004": 8.71427807413,
			"-0.003": 10.9708952181,
			"-0.002": 13.0172269622,
			"-0.001": 14.344901482,
			"0.0": 14.4770699677,
			"0.001": 15.0358150009,
			"0.002": 19.4137393885,
			"0.003": 15.7041902901,
			"0.004": 9.36229324798,
			"0.005": 8.3909054993,
			"0.006": 3.36729218675,
			"0.007": 2.92740761325,
			"0.008": 4.28808553652,
			"0.009": 2.3913180889,
			"0.01": 0.0912069187247,
			"0.011": 0.0,
			"0.012": 0.0,
			"0.013": 0.0,
			"0.014": 0.0,
			"0.015": 0.0,
			"0.016": 0.0,
			"0.017": 0.0,
			"0.018": 0.0,
			"0.019": 0.0,
			"0.02": 0.0,
			"0.021": 0.0,
			"0.022": 0.0,
			"0.023": 0.0,
			"0.024": 0.0,
			"0.025": 0.0
		}
	}
}
