{
	 "smiles": "N1C2=CC=CC=C2N=C1C1=CC=CC=N1", 
	 "Tm": 496.15, 
	 "num_atms": 24, 
	 "gaussian": { 
		 "optdone": 1, 
		 "sigma_profile": "yes", 
		 "theory": "DFT", 
		 "functional": "B3LYP", 
		 "basiset": "6-31G**", 
		 "properties": { 
			 "R2extent": 4297.0604, 
			 "electric_dipole_moment_norm": 2.52827052746, 
			 "electric_quadrupole_moment_norm": 14.744661144, 
			 "total_energy": -626.978221059, 
			 "HOMO_LUMO_gap": 0.16024, 
			 "cosmo_polarized_energy": -10.7, 
			 "cosmo_cavitation_energy": 28.53, 
			 "cosmo_dispersion_energy": -21.6, 
			 "cosmo_repulsion_energy": 1.66, 
			 "cosmo_total_nonelectrostatic_energy": 8.58, 
			 "SMD_solvation_energy": 1.67 
		},
		"coords": [
			{
				"x": -0.005993259,
				"y": -0.025758382,
				"z": -0.4474843268,
				"element": "N" 
			},
			{
				"x": -1.0169301164,
				"y": -0.5703959039,
				"z": 0.3147100323,
				"element": "C" 
			},
			{
				"x": -1.2799502244,
				"y": -1.8663516755,
				"z": 0.7656558801,
				"element": "C" 
			},
			{
				"x": -2.4274297576,
				"y": -2.0413640731,
				"z": 1.533822802,
				"element": "C" 
			},
			{
				"x": -3.2834183881,
				"y": -0.9623997815,
				"z": 1.8421545188,
				"element": "C" 
			},
			{
				"x": -3.0178814606,
				"y": 0.3251689691,
				"z": 1.3914247064,
				"element": "C" 
			},
			{
				"x": -1.8675011991,
				"y": 0.5284822035,
				"z": 0.6151770004,
				"element": "C" 
			},
			{
				"x": -1.374463074,
				"y": 1.6893366422,
				"z": 0.0474560605,
				"element": "N" 
			},
			{
				"x": -0.2721518052,
				"y": 1.3177971657,
				"z": -0.5723714735,
				"element": "C" 
			},
			{
				"x": 0.6294365132,
				"y": 2.1843182019,
				"z": -1.3354584622,
				"element": "C" 
			},
			{
				"x": 0.3677374116,
				"y": 3.5546498379,
				"z": -1.4694906823,
				"element": "C" 
			},
			{
				"x": 1.2600745883,
				"y": 4.3262648364,
				"z": -2.2057794945,
				"element": "C" 
			},
			{
				"x": 2.3750128722,
				"y": 3.7111450924,
				"z": -2.7795611188,
				"element": "C" 
			},
			{
				"x": 2.5466548766,
				"y": 2.33908763,
				"z": -2.5879422919,
				"element": "C" 
			},
			{
				"x": 1.7010826597,
				"y": 1.5804075868,
				"z": -1.8842509648,
				"element": "N" 
			},
			{
				"x": 0.8007387053,
				"y": -0.467075277,
				"z": -0.8639514262,
				"element": "H" 
			},
			{
				"x": -0.624254805,
				"y": -2.6993133389,
				"z": 0.5309014312,
				"element": "H" 
			},
			{
				"x": -2.6701964224,
				"y": -3.032645072,
				"z": 1.9051908606,
				"element": "H" 
			},
			{
				"x": -4.1675338547,
				"y": -1.1475297934,
				"z": 2.4450452689,
				"element": "H" 
			},
			{
				"x": -3.6724301326,
				"y": 1.1585566463,
				"z": 1.6253818169,
				"element": "H" 
			},
			{
				"x": -0.5152802822,
				"y": 3.9725405845,
				"z": -0.999845085,
				"element": "H" 
			},
			{
				"x": 1.0902924388,
				"y": 5.3916786529,
				"z": -2.3314091887,
				"element": "H" 
			},
			{
				"x": 3.0953686033,
				"y": 4.276863179,
				"z": -3.3613952026,
				"element": "H" 
			},
			{
				"x": 3.4037161125,
				"y": 1.8258360687,
				"z": -3.0201806608,
				"element": "H" 
			}
		],
		 "valence_orbital": [ 
			{
				"type": "occ",
				"energy": -0.27515,
				"method": "rhf"
			},
			{
				"type": "occ",
				"energy": -0.27464,
				"method": "rhf"
			},
			{
				"type": "occ",
				"energy": -0.26811,
				"method": "rhf"
			},
			{
				"type": "occ",
				"energy": -0.22325,
				"method": "rhf"
			},
			{
				"type": "occ",
				"energy": -0.21362,
				"method": "rhf"
			},
			{
				"type": "unocc",
				"energy": -0.05338,
				"method": "rhf"
			},
			{
				"type": "unocc",
				"energy": -0.02635,
				"method": "rhf"
			},
			{
				"type": "unocc",
				"energy": 0.01135,
				"method": "rhf"
			},
			{
				"type": "unocc",
				"energy": 0.02758,
				"method": "rhf"
			},
			{
				"type": "unocc",
				"energy": 0.07356,
				"method": "rhf"
			}
		],
		"cosmo_sigma_profile": { 
			"-0.025": 0.0,
			"-0.024": 0.0,
			"-0.023": 0.0,
			"-0.022": 0.0,
			"-0.021": 0.0,
			"-0.02": 0.0,
			"-0.019": 0.0,
			"-0.018": 0.0,
			"-0.017": 0.0,
			"-0.016": 0.0102133730144,
			"-0.015": 0.50872784725,
			"-0.014": 0.877618584319,
			"-0.013": 1.03624629573,
			"-0.012": 0.800852149169,
			"-0.011": 0.67261966434,
			"-0.01": 1.10281983727,
			"-0.009": 0.763145421762,
			"-0.008": 1.18297933527,
			"-0.007": 8.17375291167,
			"-0.006": 14.7340106618,
			"-0.005": 16.4187521392,
			"-0.004": 15.5070155225,
			"-0.003": 13.8396765733,
			"-0.002": 11.0838718363,
			"-0.001": 11.7452131667,
			"0.0": 18.0070935298,
			"0.001": 23.3308567513,
			"0.002": 25.1868954601,
			"0.003": 14.6683614333,
			"0.004": 12.5567602325,
			"0.005": 12.4951619302,
			"0.006": 9.83470406128,
			"0.007": 3.7078144917,
			"0.008": 2.98838994263,
			"0.009": 2.1923284539,
			"0.01": 1.56998042572,
			"0.011": 1.52625267259,
			"0.012": 0.741910038624,
			"0.013": 0.83510425486,
			"0.014": 1.18757218727,
			"0.015": 0.845624919292,
			"0.016": 0.162513386122,
			"0.017": 0.0,
			"0.018": 0.0,
			"0.019": 0.0,
			"0.02": 0.0,
			"0.021": 0.0,
			"0.022": 0.0,
			"0.023": 0.0,
			"0.024": 0.0,
			"0.025": 0.0
		}
	}
}
