{
	 "smiles": "NS(=O)(=O)C1=C(Br)C=C(C=C1)C(O)=O", 
	 "Tm": 475.15, 
	 "num_atms": 20, 
	 "gaussian": { 
		 "optdone": 1, 
		 "sigma_profile": "yes", 
		 "theory": "DFT", 
		 "functional": "B3LYP", 
		 "basiset": "6-31G**", 
		 "properties": { 
			 "R2extent": 6589.096, 
			 "electric_dipole_moment_norm": 4.43533359399, 
			 "electric_quadrupole_moment_norm": 34.2165042192, 
			 "total_energy": -3595.52618464, 
			 "HOMO_LUMO_gap": 0.19385, 
			 "cosmo_polarized_energy": -26.24, 
			 "cosmo_cavitation_energy": 28.4, 
			 "cosmo_dispersion_energy": -21.89, 
			 "cosmo_repulsion_energy": 1.66, 
			 "cosmo_total_nonelectrostatic_energy": 8.17, 
			 "SMD_solvation_energy": 4.68 
		},
		"coords": [
			{
				"x": -1.5878074806,
				"y": -3.1211507094,
				"z": -2.574034895,
				"element": "N" 
			},
			{
				"x": -2.3297054126,
				"y": -2.950190916,
				"z": -1.0912663912,
				"element": "S" 
			},
			{
				"x": -3.7671244929,
				"y": -2.9212671785,
				"z": -1.3274886973,
				"element": "O" 
			},
			{
				"x": -1.6958229146,
				"y": -3.9315928098,
				"z": -0.2129596801,
				"element": "O" 
			},
			{
				"x": -1.8467919325,
				"y": -1.3219159942,
				"z": -0.4372201996,
				"element": "C" 
			},
			{
				"x": -2.1202999908,
				"y": -0.0976637523,
				"z": -1.064986609,
				"element": "C" 
			},
			{
				"x": -2.9865293203,
				"y": 0.0164456333,
				"z": -2.7633853477,
				"element": "Br" 
			},
			{
				"x": -1.7485961762,
				"y": 1.0990582822,
				"z": -0.4619839261,
				"element": "C" 
			},
			{
				"x": -1.0929640104,
				"y": 1.0927047705,
				"z": 0.7745286901,
				"element": "C" 
			},
			{
				"x": -0.8362668537,
				"y": -0.1259591493,
				"z": 1.4124262481,
				"element": "C" 
			},
			{
				"x": -1.2115938844,
				"y": -1.3228899004,
				"z": 0.8076745185,
				"element": "C" 
			},
			{
				"x": -0.7334157702,
				"y": 2.4316693062,
				"z": 1.3604393051,
				"element": "C" 
			},
			{
				"x": 0.2164465803,
				"y": 2.4425194606,
				"z": 2.3278903301,
				"element": "O" 
			},
			{
				"x": -1.252299121,
				"y": 3.4607810485,
				"z": 1.0018338256,
				"element": "O" 
			},
			{
				"x": -0.580468609,
				"y": -3.2221196991,
				"z": -2.5088416695,
				"element": "H" 
			},
			{
				"x": -1.9010155325,
				"y": -2.4460763994,
				"z": -3.2651853361,
				"element": "H" 
			},
			{
				"x": -1.9630158624,
				"y": 2.0497583877,
				"z": -0.9351791163,
				"element": "H" 
			},
			{
				"x": -0.3800375662,
				"y": -0.1617289182,
				"z": 2.3979799113,
				"element": "H" 
			},
			{
				"x": -1.0265539709,
				"y": -2.2756589784,
				"z": 1.2903913682,
				"element": "H" 
			},
			{
				"x": 0.6476623209,
				"y": 1.5797775161,
				"z": 2.3983676709,
				"element": "H" 
			}
		],
		 "valence_orbital": [ 
			{
				"type": "occ",
				"energy": -0.32212,
				"method": "rhf"
			},
			{
				"type": "occ",
				"energy": -0.3087,
				"method": "rhf"
			},
			{
				"type": "occ",
				"energy": -0.29949,
				"method": "rhf"
			},
			{
				"type": "occ",
				"energy": -0.29016,
				"method": "rhf"
			},
			{
				"type": "occ",
				"energy": -0.28251,
				"method": "rhf"
			},
			{
				"type": "unocc",
				"energy": -0.08866,
				"method": "rhf"
			},
			{
				"type": "unocc",
				"energy": -0.05483,
				"method": "rhf"
			},
			{
				"type": "unocc",
				"energy": -0.03071,
				"method": "rhf"
			},
			{
				"type": "unocc",
				"energy": 0.01037,
				"method": "rhf"
			},
			{
				"type": "unocc",
				"energy": 0.03859,
				"method": "rhf"
			}
		],
		"cosmo_sigma_profile": { 
			"-0.025": 0.0,
			"-0.024": 0.0,
			"-0.023": 0.0,
			"-0.022": 0.0,
			"-0.021": 0.0,
			"-0.02": 0.122097358584,
			"-0.019": 1.12398133744,
			"-0.018": 1.08510601386,
			"-0.017": 0.954180080495,
			"-0.016": 2.36299125955,
			"-0.015": 2.44982939298,
			"-0.014": 1.93664956092,
			"-0.013": 3.37197419088,
			"-0.012": 4.80919533439,
			"-0.011": 2.60433091009,
			"-0.01": 4.13469879392,
			"-0.009": 4.14191038321,
			"-0.008": 6.66858340747,
			"-0.007": 5.94376249195,
			"-0.006": 7.686757519,
			"-0.005": 8.47546003894,
			"-0.004": 11.3751506599,
			"-0.003": 12.1475977371,
			"-0.002": 11.8607150016,
			"-0.001": 21.1049884856,
			"0.0": 14.6860728647,
			"0.001": 9.63960350962,
			"0.002": 9.47286025481,
			"0.003": 9.23039409036,
			"0.004": 5.53767856088,
			"0.005": 5.69931839081,
			"0.006": 6.60088416055,
			"0.007": 7.54597035633,
			"0.008": 6.95568400879,
			"0.009": 10.5531993436,
			"0.01": 15.2714347518,
			"0.011": 12.9250091797,
			"0.012": 2.385112101,
			"0.013": 0.204850121177,
			"0.014": 0.0,
			"0.015": 0.0,
			"0.016": 0.0,
			"0.017": 0.0,
			"0.018": 0.0,
			"0.019": 0.0,
			"0.02": 0.0,
			"0.021": 0.0,
			"0.022": 0.0,
			"0.023": 0.0,
			"0.024": 0.0,
			"0.025": 0.0
		}
	}
}
