{
	 "smiles": "ClCC(=O)N1CCOCC1", 
	 "Tm": 310.15, 
	 "num_atms": 20, 
	 "gaussian": { 
		 "optdone": 1, 
		 "sigma_profile": "yes", 
		 "theory": "DFT", 
		 "functional": "B3LYP", 
		 "basiset": "6-31G**", 
		 "properties": { 
			 "R2extent": 2132.9027, 
			 "electric_dipole_moment_norm": 2.44239934491, 
			 "electric_quadrupole_moment_norm": 8.36845245849, 
			 "total_energy": -900.042586773, 
			 "HOMO_LUMO_gap": 0.22877, 
			 "cosmo_polarized_energy": -12.31, 
			 "cosmo_cavitation_energy": 23.8, 
			 "cosmo_dispersion_energy": -17.93, 
			 "cosmo_repulsion_energy": 1.47, 
			 "cosmo_total_nonelectrostatic_energy": 7.34, 
			 "SMD_solvation_energy": 3.61 
		},
		"coords": [
			{
				"x": 1.7691258789,
				"y": -2.9691752998,
				"z": -0.735194973,
				"element": "Cl" 
			},
			{
				"x": 0.8275150364,
				"y": -1.7209900365,
				"z": -1.662472023,
				"element": "C" 
			},
			{
				"x": 0.783696898,
				"y": -0.3577806149,
				"z": -0.9691728835,
				"element": "C" 
			},
			{
				"x": 1.3282921962,
				"y": 0.6024575329,
				"z": -1.5050924752,
				"element": "O" 
			},
			{
				"x": 0.1113377576,
				"y": -0.2506030904,
				"z": 0.2141335706,
				"element": "N" 
			},
			{
				"x": -0.6011650932,
				"y": -1.3300686025,
				"z": 0.9067196314,
				"element": "C" 
			},
			{
				"x": -1.7349804095,
				"y": -0.7292178884,
				"z": 1.735926101,
				"element": "C" 
			},
			{
				"x": -1.2776624726,
				"y": 0.1908404763,
				"z": 2.7198947744,
				"element": "O" 
			},
			{
				"x": -0.0639658504,
				"y": 0.8634165079,
				"z": 2.3855318465,
				"element": "C" 
			},
			{
				"x": 0.1178523736,
				"y": 1.0574013161,
				"z": 0.8854690283,
				"element": "C" 
			},
			{
				"x": 1.3409857889,
				"y": -1.5756139649,
				"z": -2.6097401915,
				"element": "H" 
			},
			{
				"x": -0.1660364323,
				"y": -2.1392321425,
				"z": -1.8369911714,
				"element": "H" 
			},
			{
				"x": -1.0242864421,
				"y": -2.0323079844,
				"z": 0.1836765874,
				"element": "H" 
			},
			{
				"x": 0.0778917283,
				"y": -1.8991326355,
				"z": 1.5537266795,
				"element": "H" 
			},
			{
				"x": -2.454666879,
				"y": -0.2392962029,
				"z": 1.0614098664,
				"element": "H" 
			},
			{
				"x": -2.2642298148,
				"y": -1.5283220361,
				"z": 2.2654794175,
				"element": "H" 
			},
			{
				"x": 0.7974451437,
				"y": 0.3095945293,
				"z": 2.78942618,
				"element": "H" 
			},
			{
				"x": -0.0955320599,
				"y": 1.8376583797,
				"z": 2.8832048703,
				"element": "H" 
			},
			{
				"x": 1.067993776,
				"y": 1.551226696,
				"z": 0.6689808532,
				"element": "H" 
			},
			{
				"x": -0.6788111239,
				"y": 1.6970450606,
				"z": 0.4827843113,
				"element": "H" 
			}
		],
		 "valence_orbital": [ 
			{
				"type": "occ",
				"energy": -0.31648,
				"method": "rhf"
			},
			{
				"type": "occ",
				"energy": -0.30648,
				"method": "rhf"
			},
			{
				"type": "occ",
				"energy": -0.26511,
				"method": "rhf"
			},
			{
				"type": "occ",
				"energy": -0.25672,
				"method": "rhf"
			},
			{
				"type": "occ",
				"energy": -0.24902,
				"method": "rhf"
			},
			{
				"type": "unocc",
				"energy": -0.02025,
				"method": "rhf"
			},
			{
				"type": "unocc",
				"energy": 0.04697,
				"method": "rhf"
			},
			{
				"type": "unocc",
				"energy": 0.07163,
				"method": "rhf"
			},
			{
				"type": "unocc",
				"energy": 0.09368,
				"method": "rhf"
			},
			{
				"type": "unocc",
				"energy": 0.10668,
				"method": "rhf"
			}
		],
		"cosmo_sigma_profile": { 
			"-0.025": 0.0,
			"-0.024": 0.0,
			"-0.023": 0.0,
			"-0.022": 0.0,
			"-0.021": 0.0,
			"-0.02": 0.0,
			"-0.019": 0.0,
			"-0.018": 0.0,
			"-0.017": 0.0,
			"-0.016": 0.0,
			"-0.015": 0.0,
			"-0.014": 0.0,
			"-0.013": 0.0,
			"-0.012": 0.0,
			"-0.011": 0.0168374164161,
			"-0.01": 1.91922616015,
			"-0.009": 2.84588885565,
			"-0.008": 3.80700695508,
			"-0.007": 5.32879017721,
			"-0.006": 9.14441417446,
			"-0.005": 23.2777045573,
			"-0.004": 24.2399669238,
			"-0.003": 14.760722911,
			"-0.002": 10.7581465222,
			"-0.001": 8.29319678798,
			"0.0": 9.56134505331,
			"0.001": 9.74000332988,
			"0.002": 7.16105126148,
			"0.003": 6.89734756959,
			"0.004": 8.85616325956,
			"0.005": 8.65744077984,
			"0.006": 7.17751306606,
			"0.007": 2.53761728885,
			"0.008": 2.5309434606,
			"0.009": 2.76909233979,
			"0.01": 2.46504183816,
			"0.011": 2.68540440872,
			"0.012": 3.64068011681,
			"0.013": 6.91334514886,
			"0.014": 2.59032538632,
			"0.015": 0.0,
			"0.016": 0.0,
			"0.017": 0.0,
			"0.018": 0.0,
			"0.019": 0.0,
			"0.02": 0.0,
			"0.021": 0.0,
			"0.022": 0.0,
			"0.023": 0.0,
			"0.024": 0.0,
			"0.025": 0.0
		}
	}
}
