{
	 "smiles": "CN1N=C(C=C1N)C1CCCCC1", 
	 "Tm": 443.15, 
	 "num_atms": 30, 
	 "gaussian": { 
		 "optdone": 1, 
		 "sigma_profile": "yes", 
		 "theory": "DFT", 
		 "functional": "B3LYP", 
		 "basiset": "6-31G**", 
		 "properties": { 
			 "R2extent": 3252.2747, 
			 "electric_dipole_moment_norm": 3.06884235014, 
			 "electric_quadrupole_moment_norm": 11.5681835549, 
			 "total_energy": -555.554219823, 
			 "HOMO_LUMO_gap": 0.24286, 
			 "cosmo_polarized_energy": -11.66, 
			 "cosmo_cavitation_energy": 30.73, 
			 "cosmo_dispersion_energy": -22.48, 
			 "cosmo_repulsion_energy": 1.81, 
			 "cosmo_total_nonelectrostatic_energy": 10.06, 
			 "SMD_solvation_energy": 3.51 
		},
		"coords": [
			{
				"x": -2.7615725324,
				"y": -2.3929952192,
				"z": -2.6613076053,
				"element": "C" 
			},
			{
				"x": -2.0180373814,
				"y": -1.7717699058,
				"z": -1.5878134881,
				"element": "N" 
			},
			{
				"x": -0.8928400269,
				"y": -1.0498391936,
				"z": -1.8561949759,
				"element": "N" 
			},
			{
				"x": -0.470434233,
				"y": -0.6099036518,
				"z": -0.6704943552,
				"element": "C" 
			},
			{
				"x": -1.3105968422,
				"y": -1.068552403,
				"z": 0.3780701833,
				"element": "C" 
			},
			{
				"x": -2.2896891938,
				"y": -1.8188914955,
				"z": -0.2538469456,
				"element": "C" 
			},
			{
				"x": -3.4354010274,
				"y": -2.4742178703,
				"z": 0.2241978256,
				"element": "N" 
			},
			{
				"x": 0.7733943518,
				"y": 0.2364596719,
				"z": -0.5893220278,
				"element": "C" 
			},
			{
				"x": 1.9663737558,
				"y": -0.5033549761,
				"z": 0.0995960301,
				"element": "C" 
			},
			{
				"x": 2.1359973558,
				"y": -0.0938879257,
				"z": 1.5684345475,
				"element": "C" 
			},
			{
				"x": 2.4667560633,
				"y": 1.4115875058,
				"z": 1.6976081365,
				"element": "C" 
			},
			{
				"x": 1.8003322586,
				"y": 2.2523303002,
				"z": 0.5805342228,
				"element": "C" 
			},
			{
				"x": 0.4983753391,
				"y": 1.600795755,
				"z": 0.0979426958,
				"element": "C" 
			},
			{
				"x": -2.4117151074,
				"y": -3.4123523273,
				"z": -2.8684840161,
				"element": "H" 
			},
			{
				"x": -2.6275966828,
				"y": -1.7889623251,
				"z": -3.55937042,
				"element": "H" 
			},
			{
				"x": -3.8204135669,
				"y": -2.4246301879,
				"z": -2.3921177941,
				"element": "H" 
			},
			{
				"x": -1.2219632184,
				"y": -0.8868274932,
				"z": 1.4392839256,
				"element": "H" 
			},
			{
				"x": -3.4330818681,
				"y": -3.4728350649,
				"z": 0.0381056509,
				"element": "H" 
			},
			{
				"x": -3.5525370935,
				"y": -2.3268788057,
				"z": 1.2192383666,
				"element": "H" 
			},
			{
				"x": 1.0614873352,
				"y": 0.4310033654,
				"z": -1.6285219707,
				"element": "H" 
			},
			{
				"x": 2.8927113744,
				"y": -0.2660463752,
				"z": -0.4395158412,
				"element": "H" 
			},
			{
				"x": 1.8291064193,
				"y": -1.5858490231,
				"z": 0.0112001387,
				"element": "H" 
			},
			{
				"x": 1.2104339592,
				"y": -0.32055908,
				"z": 2.1129336263,
				"element": "H" 
			},
			{
				"x": 2.9190605936,
				"y": -0.6949151771,
				"z": 2.0449675882,
				"element": "H" 
			},
			{
				"x": 2.1405081801,
				"y": 1.7713583988,
				"z": 2.6810517524,
				"element": "H" 
			},
			{
				"x": 3.5531901808,
				"y": 1.5578145587,
				"z": 1.6641439847,
				"element": "H" 
			},
			{
				"x": 1.6134483168,
				"y": 3.2723916582,
				"z": 0.9348724396,
				"element": "H" 
			},
			{
				"x": 2.4839991238,
				"y": 2.3480622122,
				"z": -0.2733640292,
				"element": "H" 
			},
			{
				"x": -0.1722297121,
				"y": 1.4567558849,
				"z": 0.9550448241,
				"element": "H" 
			},
			{
				"x": -0.0371661211,
				"y": 2.2559091893,
				"z": -0.5979724693,
				"element": "H" 
			}
		],
		 "valence_orbital": [ 
			{
				"type": "occ",
				"energy": -0.28985,
				"method": "rhf"
			},
			{
				"type": "occ",
				"energy": -0.28711,
				"method": "rhf"
			},
			{
				"type": "occ",
				"energy": -0.26512,
				"method": "rhf"
			},
			{
				"type": "occ",
				"energy": -0.22212,
				"method": "rhf"
			},
			{
				"type": "occ",
				"energy": -0.2028,
				"method": "rhf"
			},
			{
				"type": "unocc",
				"energy": 0.04006,
				"method": "rhf"
			},
			{
				"type": "unocc",
				"energy": 0.07117,
				"method": "rhf"
			},
			{
				"type": "unocc",
				"energy": 0.08514,
				"method": "rhf"
			},
			{
				"type": "unocc",
				"energy": 0.08812,
				"method": "rhf"
			},
			{
				"type": "unocc",
				"energy": 0.10533,
				"method": "rhf"
			}
		],
		"cosmo_sigma_profile": { 
			"-0.025": 0.0,
			"-0.024": 0.0,
			"-0.023": 0.0,
			"-0.022": 0.0,
			"-0.021": 0.0,
			"-0.02": 0.0,
			"-0.019": 0.0,
			"-0.018": 0.0,
			"-0.017": 0.0,
			"-0.016": 0.0,
			"-0.015": 0.0,
			"-0.014": 0.0,
			"-0.013": 0.955147263193,
			"-0.012": 2.71146369682,
			"-0.011": 2.46040609141,
			"-0.01": 2.86386504623,
			"-0.009": 3.18686466262,
			"-0.008": 2.64658838471,
			"-0.007": 2.49345226333,
			"-0.006": 3.48934029589,
			"-0.005": 9.61553344922,
			"-0.004": 10.1958552935,
			"-0.003": 13.7554196961,
			"-0.002": 29.8122699108,
			"-0.001": 32.0356000108,
			"0.0": 32.1078871335,
			"0.001": 27.1391580214,
			"0.002": 14.8948495662,
			"0.003": 6.04122317573,
			"0.004": 5.47558752104,
			"0.005": 7.01029102729,
			"0.006": 6.48671512594,
			"0.007": 5.48164796443,
			"0.008": 2.86300741933,
			"0.009": 2.57145679099,
			"0.01": 2.34530700823,
			"0.011": 1.91406064287,
			"0.012": 1.61567247322,
			"0.013": 1.23249618472,
			"0.014": 1.67038281662,
			"0.015": 1.47945892228,
			"0.016": 0.690873120623,
			"0.017": 0.851522631021,
			"0.018": 0.182336844978,
			"0.019": 0.0,
			"0.02": 0.0,
			"0.021": 0.0,
			"0.022": 0.0,
			"0.023": 0.0,
			"0.024": 0.0,
			"0.025": 0.0
		}
	}
}
