{
	 "smiles": "CC(C)OC(=O)C1=C(C)NC(=S)NC1C1=CC=CC=C1", 
	 "Tm": 450.15, 
	 "num_atms": 38, 
	 "gaussian": { 
		 "optdone": 1, 
		 "sigma_profile": "yes", 
		 "theory": "DFT", 
		 "functional": "B3LYP", 
		 "basiset": "6-31G**", 
		 "properties": { 
			 "R2extent": 6753.9746, 
			 "electric_dipole_moment_norm": 4.18584213391, 
			 "electric_quadrupole_moment_norm": 23.0515409891, 
			 "total_energy": -1240.62664251, 
			 "HOMO_LUMO_gap": 0.15717, 
			 "cosmo_polarized_energy": -18.35, 
			 "cosmo_cavitation_energy": 42.48, 
			 "cosmo_dispersion_energy": -28.71, 
			 "cosmo_repulsion_energy": 2.2, 
			 "cosmo_total_nonelectrostatic_energy": 15.98, 
			 "SMD_solvation_energy": 6.46 
		},
		"coords": [
			{
				"x": 3.596576834,
				"y": -2.840543207,
				"z": 0.4709366354,
				"element": "C" 
			},
			{
				"x": 2.9074077589,
				"y": -1.7936195667,
				"z": -0.3985506044,
				"element": "C" 
			},
			{
				"x": 3.7633447729,
				"y": -0.5630274933,
				"z": -0.6644856543,
				"element": "C" 
			},
			{
				"x": 1.7104722765,
				"y": -1.3095160825,
				"z": 0.2773059884,
				"element": "O" 
			},
			{
				"x": 0.5790053684,
				"y": -2.0472418073,
				"z": 0.1427534772,
				"element": "C" 
			},
			{
				"x": 0.553187075,
				"y": -3.0934842058,
				"z": -0.4881572927,
				"element": "O" 
			},
			{
				"x": -0.5483458165,
				"y": -1.4050042307,
				"z": 0.8500024759,
				"element": "C" 
			},
			{
				"x": -1.7667866959,
				"y": -1.9995688957,
				"z": 0.9799864196,
				"element": "C" 
			},
			{
				"x": -2.2022329192,
				"y": -3.3320310447,
				"z": 0.4367609507,
				"element": "C" 
			},
			{
				"x": -2.7646295767,
				"y": -1.3547189608,
				"z": 1.6998180986,
				"element": "N" 
			},
			{
				"x": -2.5771984889,
				"y": -0.252572728,
				"z": 2.5079826073,
				"element": "C" 
			},
			{
				"x": -3.8068717837,
				"y": 0.3202866958,
				"z": 3.4913207226,
				"element": "S" 
			},
			{
				"x": -1.3382916535,
				"y": 0.2731225449,
				"z": 2.4530481131,
				"element": "N" 
			},
			{
				"x": -0.3180136934,
				"y": -0.013072983,
				"z": 1.4255606062,
				"element": "C" 
			},
			{
				"x": -0.2851453665,
				"y": 1.0942001173,
				"z": 0.3694934274,
				"element": "C" 
			},
			{
				"x": -1.3239426933,
				"y": 1.2416083114,
				"z": -0.5593429901,
				"element": "C" 
			},
			{
				"x": -1.3007509935,
				"y": 2.2811471284,
				"z": -1.4879466481,
				"element": "C" 
			},
			{
				"x": -0.236444723,
				"y": 3.1865734484,
				"z": -1.5028850036,
				"element": "C" 
			},
			{
				"x": 0.8031921151,
				"y": 3.0466923513,
				"z": -0.5830461397,
				"element": "C" 
			},
			{
				"x": 0.7757354815,
				"y": 2.0058729139,
				"z": 0.3476598713,
				"element": "C" 
			},
			{
				"x": 4.5111765021,
				"y": -3.1915892684,
				"z": -0.0180755249,
				"element": "H" 
			},
			{
				"x": 3.8683143299,
				"y": -2.4158954835,
				"z": 1.4430119994,
				"element": "H" 
			},
			{
				"x": 2.9409813217,
				"y": -3.6997924952,
				"z": 0.6278492952,
				"element": "H" 
			},
			{
				"x": 2.5860571661,
				"y": -2.2520958828,
				"z": -1.337964332,
				"element": "H" 
			},
			{
				"x": 4.6622625778,
				"y": -0.8462747861,
				"z": -1.2208282027,
				"element": "H" 
			},
			{
				"x": 3.2099388016,
				"y": 0.1759273164,
				"z": -1.2499633985,
				"element": "H" 
			},
			{
				"x": 4.0764787695,
				"y": -0.0955011886,
				"z": 0.2749255713,
				"element": "H" 
			},
			{
				"x": -3.1020503398,
				"y": -3.2020522931,
				"z": -0.1769137931,
				"element": "H" 
			},
			{
				"x": -2.46403933,
				"y": -4.0018871164,
				"z": 1.2648220143,
				"element": "H" 
			},
			{
				"x": -1.4189592811,
				"y": -3.7851523726,
				"z": -0.1631849253,
				"element": "H" 
			},
			{
				"x": -3.6672357609,
				"y": -1.7974718344,
				"z": 1.7987817482,
				"element": "H" 
			},
			{
				"x": -1.2173761747,
				"y": 1.1128402312,
				"z": 3.0026095453,
				"element": "H" 
			},
			{
				"x": 0.6484876194,
				"y": -0.0056594913,
				"z": 1.9365200462,
				"element": "H" 
			},
			{
				"x": -2.1533801571,
				"y": 0.5402750889,
				"z": -0.557748212,
				"element": "H" 
			},
			{
				"x": -2.1130621011,
				"y": 2.3847835497,
				"z": -2.2015917586,
				"element": "H" 
			},
			{
				"x": -0.2188525134,
				"y": 3.9951247391,
				"z": -2.2278937059,
				"element": "H" 
			},
			{
				"x": 1.6350581382,
				"y": 3.7453245849,
				"z": -0.588817737,
				"element": "H" 
			},
			{
				"x": 1.5898331536,
				"y": 1.8951943965,
				"z": 1.0598463094,
				"element": "H" 
			}
		],
		 "valence_orbital": [ 
			{
				"type": "occ",
				"energy": -0.2578,
				"method": "rhf"
			},
			{
				"type": "occ",
				"energy": -0.25634,
				"method": "rhf"
			},
			{
				"type": "occ",
				"energy": -0.24019,
				"method": "rhf"
			},
			{
				"type": "occ",
				"energy": -0.21602,
				"method": "rhf"
			},
			{
				"type": "occ",
				"energy": -0.21257,
				"method": "rhf"
			},
			{
				"type": "unocc",
				"energy": -0.0554,
				"method": "rhf"
			},
			{
				"type": "unocc",
				"energy": -0.01304,
				"method": "rhf"
			},
			{
				"type": "unocc",
				"energy": -0.00662,
				"method": "rhf"
			},
			{
				"type": "unocc",
				"energy": 0.01376,
				"method": "rhf"
			},
			{
				"type": "unocc",
				"energy": 0.0588,
				"method": "rhf"
			}
		],
		"cosmo_sigma_profile": { 
			"-0.025": 0.0,
			"-0.024": 0.0,
			"-0.023": 0.0,
			"-0.022": 0.0,
			"-0.021": 0.0,
			"-0.02": 0.0,
			"-0.019": 0.0,
			"-0.018": 0.0,
			"-0.017": 0.0,
			"-0.016": 0.011554158481,
			"-0.015": 1.18928789616,
			"-0.014": 2.00225456719,
			"-0.013": 1.48307878429,
			"-0.012": 2.68024946795,
			"-0.011": 1.50017869478,
			"-0.01": 1.92584273383,
			"-0.009": 3.07235965361,
			"-0.008": 3.06920967055,
			"-0.007": 4.26867161125,
			"-0.006": 11.3795329914,
			"-0.005": 18.2582620325,
			"-0.004": 27.7404413436,
			"-0.003": 30.8248819716,
			"-0.002": 28.9287125849,
			"-0.001": 32.355185566,
			"0.0": 34.1188208978,
			"0.001": 24.2840819523,
			"0.002": 16.4699047435,
			"0.003": 15.7205646411,
			"0.004": 14.9817333574,
			"0.005": 15.4080350833,
			"0.006": 8.47745665691,
			"0.007": 4.21534057264,
			"0.008": 5.74674795617,
			"0.009": 6.93609366662,
			"0.01": 8.84612547365,
			"0.011": 8.46964098299,
			"0.012": 4.13880790085,
			"0.013": 0.36133575468,
			"0.014": 0.0,
			"0.015": 0.0,
			"0.016": 0.0,
			"0.017": 0.0,
			"0.018": 0.0,
			"0.019": 0.0,
			"0.02": 0.0,
			"0.021": 0.0,
			"0.022": 0.0,
			"0.023": 0.0,
			"0.024": 0.0,
			"0.025": 0.0
		}
	}
}
