{
	 "smiles": "CC(C)(C)SC1=CC=C(N)C=C1", 
	 "Tm": 341.15, 
	 "num_atms": 27, 
	 "gaussian": { 
		 "optdone": 1, 
		 "sigma_profile": "yes", 
		 "theory": "DFT", 
		 "functional": "B3LYP", 
		 "basiset": "6-31G**", 
		 "properties": { 
			 "R2extent": 3284.4343, 
			 "electric_dipole_moment_norm": 3.67662498088, 
			 "electric_quadrupole_moment_norm": 15.5312770776, 
			 "total_energy": -843.060855054, 
			 "HOMO_LUMO_gap": 0.2033, 
			 "cosmo_polarized_energy": -10.28, 
			 "cosmo_cavitation_energy": 30.22, 
			 "cosmo_dispersion_energy": -21.7, 
			 "cosmo_repulsion_energy": 1.69, 
			 "cosmo_total_nonelectrostatic_energy": 10.2, 
			 "SMD_solvation_energy": 4.72 
		},
		"coords": [
			{
				"x": 1.4517084057,
				"y": -1.1472063013,
				"z": -1.672195984,
				"element": "C" 
			},
			{
				"x": -0.0254604405,
				"y": -1.0824784215,
				"z": -1.2673353342,
				"element": "C" 
			},
			{
				"x": -0.3036359547,
				"y": -2.0111163172,
				"z": -0.0797515046,
				"element": "C" 
			},
			{
				"x": -0.9261932883,
				"y": -1.4461843966,
				"z": -2.4575299639,
				"element": "C" 
			},
			{
				"x": -0.5213393466,
				"y": 0.690559405,
				"z": -0.8522481112,
				"element": "S" 
			},
			{
				"x": 0.5163501539,
				"y": 1.1379809579,
				"z": 0.5341232179,
				"element": "C" 
			},
			{
				"x": 0.080115686,
				"y": 0.9438996862,
				"z": 1.8545532548,
				"element": "C" 
			},
			{
				"x": 0.8589223485,
				"y": 1.3420006146,
				"z": 2.9362102032,
				"element": "C" 
			},
			{
				"x": 2.1058122458,
				"y": 1.9601874599,
				"z": 2.7323182645,
				"element": "C" 
			},
			{
				"x": 2.8621239918,
				"y": 2.411279975,
				"z": 3.8107686343,
				"element": "N" 
			},
			{
				"x": 2.540467076,
				"y": 2.16899296,
				"z": 1.4109794832,
				"element": "C" 
			},
			{
				"x": 1.7553711658,
				"y": 1.7677996503,
				"z": 0.3350102123,
				"element": "C" 
			},
			{
				"x": 1.7210591306,
				"y": -2.176700026,
				"z": -1.9411573599,
				"element": "H" 
			},
			{
				"x": 2.1035215903,
				"y": -0.8352822959,
				"z": -0.8510795971,
				"element": "H" 
			},
			{
				"x": 1.6537518501,
				"y": -0.5047489285,
				"z": -2.5342810836,
				"element": "H" 
			},
			{
				"x": -1.3609399419,
				"y": -1.9888837597,
				"z": 0.2002239869,
				"element": "H" 
			},
			{
				"x": -0.040211277,
				"y": -3.0436864907,
				"z": -0.3427316684,
				"element": "H" 
			},
			{
				"x": 0.28930934,
				"y": -1.7277031441,
				"z": 0.7945923896,
				"element": "H" 
			},
			{
				"x": -1.9856468825,
				"y": -1.3886547707,
				"z": -2.1889027072,
				"element": "H" 
			},
			{
				"x": -0.7138707641,
				"y": -2.4722894258,
				"z": -2.7798853668,
				"element": "H" 
			},
			{
				"x": -0.7508226269,
				"y": -0.7812805634,
				"z": -3.3090373224,
				"element": "H" 
			},
			{
				"x": -0.8850188644,
				"y": 0.4797052579,
				"z": 2.0313705406,
				"element": "H" 
			},
			{
				"x": 0.4982269863,
				"y": 1.1854072119,
				"z": 3.9500898416,
				"element": "H" 
			},
			{
				"x": 2.6809772719,
				"y": 1.9558833129,
				"z": 4.6941081575,
				"element": "H" 
			},
			{
				"x": 3.8495918959,
				"y": 2.5305486142,
				"z": 3.6342214089,
				"element": "H" 
			},
			{
				"x": 3.4946593888,
				"y": 2.6590375411,
				"z": 1.2322429551,
				"element": "H" 
			},
			{
				"x": 2.1017708596,
				"y": 1.9486321943,
				"z": -0.6776765472,
				"element": "H" 
			}
		],
		 "valence_orbital": [ 
			{
				"type": "occ",
				"energy": -0.31926,
				"method": "rhf"
			},
			{
				"type": "occ",
				"energy": -0.28149,
				"method": "rhf"
			},
			{
				"type": "occ",
				"energy": -0.24919,
				"method": "rhf"
			},
			{
				"type": "occ",
				"energy": -0.21316,
				"method": "rhf"
			},
			{
				"type": "occ",
				"energy": -0.20326,
				"method": "rhf"
			},
			{
				"type": "unocc",
				"energy": 4e-05,
				"method": "rhf"
			},
			{
				"type": "unocc",
				"energy": 0.00022,
				"method": "rhf"
			},
			{
				"type": "unocc",
				"energy": 0.06618,
				"method": "rhf"
			},
			{
				"type": "unocc",
				"energy": 0.07042,
				"method": "rhf"
			},
			{
				"type": "unocc",
				"energy": 0.08499,
				"method": "rhf"
			}
		],
		"cosmo_sigma_profile": { 
			"-0.025": 0.0,
			"-0.024": 0.0,
			"-0.023": 0.0,
			"-0.022": 0.0,
			"-0.021": 0.0,
			"-0.02": 0.0,
			"-0.019": 0.0,
			"-0.018": 0.0,
			"-0.017": 0.0,
			"-0.016": 0.0,
			"-0.015": 0.0,
			"-0.014": 0.0,
			"-0.013": 0.823718910765,
			"-0.012": 2.80938965094,
			"-0.011": 2.64672741184,
			"-0.01": 2.51399358936,
			"-0.009": 3.71261882207,
			"-0.008": 3.30797888899,
			"-0.007": 2.94731533691,
			"-0.006": 4.77281722028,
			"-0.005": 7.18453337007,
			"-0.004": 9.81318365273,
			"-0.003": 21.5779024293,
			"-0.002": 20.5323198677,
			"-0.001": 25.1945520414,
			"0.0": 29.5310756026,
			"0.001": 26.7216888278,
			"0.002": 11.1683865069,
			"0.003": 10.4694966201,
			"0.004": 11.0186123333,
			"0.005": 12.7553921061,
			"0.006": 10.9742686167,
			"0.007": 5.1594196729,
			"0.008": 3.49276234753,
			"0.009": 2.50825193794,
			"0.01": 2.22698071409,
			"0.011": 2.32122451399,
			"0.012": 0.877130512728,
			"0.013": 0.554678380967,
			"0.014": 0.35118487806,
			"0.015": 0.0,
			"0.016": 0.0,
			"0.017": 0.0,
			"0.018": 0.0,
			"0.019": 0.0,
			"0.02": 0.0,
			"0.021": 0.0,
			"0.022": 0.0,
			"0.023": 0.0,
			"0.024": 0.0,
			"0.025": 0.0
		}
	}
}
