{
	 "smiles": "COC1=C(OCC(F)F)C=C(C(CO)=C1)[N+]([O-])=O", 
	 "Tm": 381.15, 
	 "num_atms": 29, 
	 "gaussian": { 
		 "optdone": 1, 
		 "sigma_profile": "yes", 
		 "theory": "DFT", 
		 "functional": "B3LYP", 
		 "basiset": "6-31G**", 
		 "properties": { 
			 "R2extent": 6108.5078, 
			 "electric_dipole_moment_norm": 5.23788957215, 
			 "electric_quadrupole_moment_norm": 13.3421721942, 
			 "total_energy": -1018.09255849, 
			 "HOMO_LUMO_gap": 0.1638, 
			 "cosmo_polarized_energy": -15.93, 
			 "cosmo_cavitation_energy": 34.5, 
			 "cosmo_dispersion_energy": -23.85, 
			 "cosmo_repulsion_energy": 1.84, 
			 "cosmo_total_nonelectrostatic_energy": 12.49, 
			 "SMD_solvation_energy": 9.67 
		},
		"coords": [
			{
				"x": 0.5740184016,
				"y": -1.8108663855,
				"z": -1.483152389,
				"element": "C" 
			},
			{
				"x": -0.5353047463,
				"y": -0.9360466688,
				"z": -1.2323863791,
				"element": "O" 
			},
			{
				"x": -0.2965905732,
				"y": 0.1239552675,
				"z": -0.406589443,
				"element": "C" 
			},
			{
				"x": 0.551414751,
				"y": 1.1827565977,
				"z": -0.784574082,
				"element": "C" 
			},
			{
				"x": 1.2365897222,
				"y": 1.1017037946,
				"z": -1.9795397842,
				"element": "O" 
			},
			{
				"x": 0.874808299,
				"y": 2.0270196441,
				"z": -3.0018555487,
				"element": "C" 
			},
			{
				"x": -0.4013272794,
				"y": 1.6053890844,
				"z": -3.7136688297,
				"element": "C" 
			},
			{
				"x": -1.4705873853,
				"y": 1.7605222325,
				"z": -2.8798500302,
				"element": "F" 
			},
			{
				"x": -0.5778081198,
				"y": 2.4314875697,
				"z": -4.7892512081,
				"element": "F" 
			},
			{
				"x": 0.7164665712,
				"y": 2.2595822014,
				"z": 0.0723596216,
				"element": "C" 
			},
			{
				"x": 0.022965645,
				"y": 2.3033606645,
				"z": 1.2854760684,
				"element": "C" 
			},
			{
				"x": -0.8374960703,
				"y": 1.2651489675,
				"z": 1.6941140939,
				"element": "C" 
			},
			{
				"x": -1.6145609641,
				"y": 1.2254900048,
				"z": 3.0084697049,
				"element": "C" 
			},
			{
				"x": -2.2535218166,
				"y": -0.0207076757,
				"z": 3.2328582931,
				"element": "O" 
			},
			{
				"x": -0.9660481096,
				"y": 0.1848391844,
				"z": 0.8159933653,
				"element": "C" 
			},
			{
				"x": 0.2371662246,
				"y": 3.4976515497,
				"z": 2.1075515185,
				"element": "N" 
			},
			{
				"x": -0.4884097261,
				"y": 3.659686743,
				"z": 3.0932877562,
				"element": "O" 
			},
			{
				"x": 1.1237431076,
				"y": 4.2834162347,
				"z": 1.7704702234,
				"element": "O" 
			},
			{
				"x": 1.4052323354,
				"y": -1.2797788772,
				"z": -1.9540288467,
				"element": "H" 
			},
			{
				"x": 0.1989718845,
				"y": -2.584228297,
				"z": -2.1556075666,
				"element": "H" 
			},
			{
				"x": 0.9143394358,
				"y": -2.2776938743,
				"z": -0.5507193361,
				"element": "H" 
			},
			{
				"x": 1.6986063953,
				"y": 2.0317691244,
				"z": -3.719241127,
				"element": "H" 
			},
			{
				"x": 0.736739788,
				"y": 3.0407994992,
				"z": -2.6079974679,
				"element": "H" 
			},
			{
				"x": -0.3793176923,
				"y": 0.5652540339,
				"z": -4.0564875298,
				"element": "H" 
			},
			{
				"x": 1.3758300912,
				"y": 3.079450742,
				"z": -0.183112115,
				"element": "H" 
			},
			{
				"x": -2.405302494,
				"y": 1.9802729543,
				"z": 2.9865702541,
				"element": "H" 
			},
			{
				"x": -0.9591514565,
				"y": 1.5005208926,
				"z": 3.8419111533,
				"element": "H" 
			},
			{
				"x": -1.5808925986,
				"y": -0.6559653897,
				"z": 3.5107402131,
				"element": "H" 
			},
			{
				"x": -1.6314736204,
				"y": -0.6277898186,
				"z": 1.0809594174,
				"element": "H" 
			}
		],
		 "valence_orbital": [ 
			{
				"type": "occ",
				"energy": -0.29988,
				"method": "rhf"
			},
			{
				"type": "occ",
				"energy": -0.29385,
				"method": "rhf"
			},
			{
				"type": "occ",
				"energy": -0.284,
				"method": "rhf"
			},
			{
				"type": "occ",
				"energy": -0.26875,
				"method": "rhf"
			},
			{
				"type": "occ",
				"energy": -0.25169,
				"method": "rhf"
			},
			{
				"type": "unocc",
				"energy": -0.08789,
				"method": "rhf"
			},
			{
				"type": "unocc",
				"energy": -0.02474,
				"method": "rhf"
			},
			{
				"type": "unocc",
				"energy": -0.00032,
				"method": "rhf"
			},
			{
				"type": "unocc",
				"energy": 0.06365,
				"method": "rhf"
			},
			{
				"type": "unocc",
				"energy": 0.06756,
				"method": "rhf"
			}
		],
		"cosmo_sigma_profile": { 
			"-0.025": 0.0,
			"-0.024": 0.0,
			"-0.023": 0.0,
			"-0.022": 0.0,
			"-0.021": 0.0,
			"-0.02": 0.0,
			"-0.019": 0.0,
			"-0.018": 0.0,
			"-0.017": 0.0418369949049,
			"-0.016": 0.812123187964,
			"-0.015": 1.24297581195,
			"-0.014": 0.973578297394,
			"-0.013": 0.941584753857,
			"-0.012": 0.606796915704,
			"-0.011": 1.0899363681,
			"-0.01": 1.21326269508,
			"-0.009": 1.90654931502,
			"-0.008": 9.20314795574,
			"-0.007": 9.40052099059,
			"-0.006": 13.468691155,
			"-0.005": 18.0099095538,
			"-0.004": 17.946270179,
			"-0.003": 22.2524036484,
			"-0.002": 17.4602667901,
			"-0.001": 15.8196320961,
			"0.0": 19.2310819575,
			"0.001": 16.9136091424,
			"0.002": 12.7691399931,
			"0.003": 12.5942733061,
			"0.004": 23.1104617806,
			"0.005": 12.9976894056,
			"0.006": 7.00528728767,
			"0.007": 8.02715193059,
			"0.008": 10.0663156994,
			"0.009": 7.12034529231,
			"0.01": 5.65866531077,
			"0.011": 1.89532408223,
			"0.012": 1.43165741233,
			"0.013": 1.82249928073,
			"0.014": 0.543852776046,
			"0.015": 0.0,
			"0.016": 0.0,
			"0.017": 0.0,
			"0.018": 0.0,
			"0.019": 0.0,
			"0.02": 0.0,
			"0.021": 0.0,
			"0.022": 0.0,
			"0.023": 0.0,
			"0.024": 0.0,
			"0.025": 0.0
		}
	}
}
