{
	 "smiles": "FC(F)(F)N=C1/SC(=N/C2=CC=CC=C2)N(/C/1=N/C(F)(F)F)C1=CC=CC=C1", 
	 "Tm": 391.15, 
	 "num_atms": 38, 
	 "gaussian": { 
		 "optdone": 1, 
		 "sigma_profile": "yes", 
		 "theory": "DFT", 
		 "functional": "B3LYP", 
		 "basiset": "6-31G**", 
		 "properties": { 
			 "R2extent": 13334.7453, 
			 "electric_dipole_moment_norm": 5.22047899431, 
			 "electric_quadrupole_moment_norm": 22.1293616137, 
			 "total_energy": -1870.04757749, 
			 "HOMO_LUMO_gap": 0.1271, 
			 "cosmo_polarized_energy": -12.64, 
			 "cosmo_cavitation_energy": 48.61, 
			 "cosmo_dispersion_energy": -32.08, 
			 "cosmo_repulsion_energy": 2.33, 
			 "cosmo_total_nonelectrostatic_energy": 18.86, 
			 "SMD_solvation_energy": 6.61 
		},
		"coords": [
			{
				"x": 0.9769006778,
				"y": -3.6810694346,
				"z": 3.4523297846,
				"element": "F" 
			},
			{
				"x": 1.265946009,
				"y": -2.6166233858,
				"z": 4.2522422936,
				"element": "C" 
			},
			{
				"x": 0.3349422801,
				"y": -2.5884178721,
				"z": 5.2161295209,
				"element": "F" 
			},
			{
				"x": 2.4572012775,
				"y": -2.8642163143,
				"z": 4.8133213357,
				"element": "F" 
			},
			{
				"x": 1.3057565564,
				"y": -1.3647901906,
				"z": 3.6011166174,
				"element": "N" 
			},
			{
				"x": 1.054877534,
				"y": -1.1776713711,
				"z": 2.3728784344,
				"element": "C" 
			},
			{
				"x": 0.6028606677,
				"y": -2.3541214669,
				"z": 1.1118802208,
				"element": "S" 
			},
			{
				"x": 0.4479695682,
				"y": -1.0365248482,
				"z": -0.1163090738,
				"element": "C" 
			},
			{
				"x": 0.0660987675,
				"y": -1.1504378935,
				"z": -1.3169949988,
				"element": "N" 
			},
			{
				"x": -0.2199618914,
				"y": -2.3843601281,
				"z": -1.9283429338,
				"element": "C" 
			},
			{
				"x": -1.4498636541,
				"y": -2.5256095759,
				"z": -2.5912993271,
				"element": "C" 
			},
			{
				"x": -1.761844169,
				"y": -3.718167398,
				"z": -3.2382009536,
				"element": "C" 
			},
			{
				"x": -0.8448417195,
				"y": -4.7733304632,
				"z": -3.2601362042,
				"element": "C" 
			},
			{
				"x": 0.3908854535,
				"y": -4.6244795066,
				"z": -2.6299030405,
				"element": "C" 
			},
			{
				"x": 0.7080699466,
				"y": -3.4388686031,
				"z": -1.9658176366,
				"element": "C" 
			},
			{
				"x": 0.7791961274,
				"y": 0.1970362671,
				"z": 0.4489094884,
				"element": "N" 
			},
			{
				"x": 1.1253080276,
				"y": 0.2243139194,
				"z": 1.7918466463,
				"element": "C" 
			},
			{
				"x": 1.4304550265,
				"y": 1.338930257,
				"z": 2.3325091495,
				"element": "N" 
			},
			{
				"x": 1.8182119948,
				"y": 1.5551125435,
				"z": 3.6684238073,
				"element": "C" 
			},
			{
				"x": 2.087519204,
				"y": 2.8666036986,
				"z": 3.8204294044,
				"element": "F" 
			},
			{
				"x": 0.8490693325,
				"y": 1.2553176434,
				"z": 4.5592699831,
				"element": "F" 
			},
			{
				"x": 2.9408581288,
				"y": 0.8897180331,
				"z": 4.0158513889,
				"element": "F" 
			},
			{
				"x": 0.7439914031,
				"y": 1.3999395794,
				"z": -0.3497384684,
				"element": "C" 
			},
			{
				"x": 1.8010400689,
				"y": 1.678892372,
				"z": -1.2143142,
				"element": "C" 
			},
			{
				"x": 1.7634918603,
				"y": 2.8412978181,
				"z": -1.9839289544,
				"element": "C" 
			},
			{
				"x": 0.6784323376,
				"y": 3.7139778465,
				"z": -1.8824566356,
				"element": "C" 
			},
			{
				"x": -0.3735479321,
				"y": 3.4248441959,
				"z": -1.0108944505,
				"element": "C" 
			},
			{
				"x": -0.3453705309,
				"y": 2.262875427,
				"z": -0.2406705218,
				"element": "C" 
			},
			{
				"x": -2.1473181861,
				"y": -1.6943994687,
				"z": -2.5799973399,
				"element": "H" 
			},
			{
				"x": -2.7219173283,
				"y": -3.8215769105,
				"z": -3.7355060291,
				"element": "H" 
			},
			{
				"x": -1.0878971384,
				"y": -5.6978991995,
				"z": -3.7747103199,
				"element": "H" 
			},
			{
				"x": 1.1178005268,
				"y": -5.431071945,
				"z": -2.657020127,
				"element": "H" 
			},
			{
				"x": 1.6826247884,
				"y": -3.3151150168,
				"z": -1.5040477382,
				"element": "H" 
			},
			{
				"x": 2.6388348018,
				"y": 0.9928213511,
				"z": -1.2816611163,
				"element": "H" 
			},
			{
				"x": 2.5828490958,
				"y": 3.0645576753,
				"z": -2.66019225,
				"element": "H" 
			},
			{
				"x": 0.6531005642,
				"y": 4.6194778997,
				"z": -2.4812262887,
				"element": "H" 
			},
			{
				"x": -1.2171531504,
				"y": 4.1031873414,
				"z": -0.9289368667,
				"element": "H" 
			},
			{
				"x": -1.1545763267,
				"y": 2.0270471238,
				"z": 0.4423673995,
				"element": "H" 
			}
		],
		 "valence_orbital": [ 
			{
				"type": "occ",
				"energy": -0.27666,
				"method": "rhf"
			},
			{
				"type": "occ",
				"energy": -0.26855,
				"method": "rhf"
			},
			{
				"type": "occ",
				"energy": -0.26645,
				"method": "rhf"
			},
			{
				"type": "occ",
				"energy": -0.26204,
				"method": "rhf"
			},
			{
				"type": "occ",
				"energy": -0.23396,
				"method": "rhf"
			},
			{
				"type": "unocc",
				"energy": -0.10686,
				"method": "rhf"
			},
			{
				"type": "unocc",
				"energy": -0.0354,
				"method": "rhf"
			},
			{
				"type": "unocc",
				"energy": -0.025,
				"method": "rhf"
			},
			{
				"type": "unocc",
				"energy": -0.0173,
				"method": "rhf"
			},
			{
				"type": "unocc",
				"energy": -0.01651,
				"method": "rhf"
			}
		],
		"cosmo_sigma_profile": { 
			"-0.025": 0.0,
			"-0.024": 0.0,
			"-0.023": 0.0,
			"-0.022": 0.0,
			"-0.021": 0.0,
			"-0.02": 0.0,
			"-0.019": 0.0,
			"-0.018": 0.0,
			"-0.017": 0.0,
			"-0.016": 0.0,
			"-0.015": 0.0,
			"-0.014": 0.0,
			"-0.013": 0.0,
			"-0.012": 0.0,
			"-0.011": 0.00787158113279,
			"-0.01": 0.772656215733,
			"-0.009": 1.51891713235,
			"-0.008": 3.30605594847,
			"-0.007": 12.1491573016,
			"-0.006": 26.2261679872,
			"-0.005": 27.760995866,
			"-0.004": 23.9724628125,
			"-0.003": 18.9752738734,
			"-0.002": 19.8076982303,
			"-0.001": 20.475276728,
			"0.0": 30.1750699726,
			"0.001": 38.4791296873,
			"0.002": 53.5488560473,
			"0.003": 50.4340689378,
			"0.004": 30.6307126376,
			"0.005": 18.7584101194,
			"0.006": 5.4986328902,
			"0.007": 2.80513627322,
			"0.008": 3.08007971251,
			"0.009": 2.44574550392,
			"0.01": 2.23134893866,
			"0.011": 1.05042794937,
			"0.012": 0.0972027904589,
			"0.013": 0.0,
			"0.014": 0.0,
			"0.015": 0.0,
			"0.016": 0.0,
			"0.017": 0.0,
			"0.018": 0.0,
			"0.019": 0.0,
			"0.02": 0.0,
			"0.021": 0.0,
			"0.022": 0.0,
			"0.023": 0.0,
			"0.024": 0.0,
			"0.025": 0.0
		}
	}
}
