{
	 "smiles": "CC(=O)C1=CC=C(OCC#C)C=C1", 
	 "Tm": 346.15, 
	 "num_atms": 23, 
	 "gaussian": { 
		 "optdone": 1, 
		 "sigma_profile": "yes", 
		 "theory": "DFT", 
		 "functional": "B3LYP", 
		 "basiset": "6-31G**", 
		 "properties": { 
			 "R2extent": 3652.7168, 
			 "electric_dipole_moment_norm": 3.00846999819, 
			 "electric_quadrupole_moment_norm": 19.0690897643, 
			 "total_energy": -575.558424229, 
			 "HOMO_LUMO_gap": 0.18664, 
			 "cosmo_polarized_energy": -11.74, 
			 "cosmo_cavitation_energy": 28.41, 
			 "cosmo_dispersion_energy": -19.92, 
			 "cosmo_repulsion_energy": 1.57, 
			 "cosmo_total_nonelectrostatic_energy": 10.06, 
			 "SMD_solvation_energy": 7.27 
		},
		"coords": [
			{
				"x": 2.4505997365,
				"y": -3.9550183652,
				"z": 0.5768797212,
				"element": "C" 
			},
			{
				"x": 0.9871646068,
				"y": -3.5463854304,
				"z": 0.5040642311,
				"element": "C" 
			},
			{
				"x": 0.1123908118,
				"y": -4.3139545291,
				"z": 0.882161388,
				"element": "O" 
			},
			{
				"x": 0.6428302588,
				"y": -2.1972463329,
				"z": -0.0346609755,
				"element": "C" 
			},
			{
				"x": 1.6067129609,
				"y": -1.2755471138,
				"z": -0.480706396,
				"element": "C" 
			},
			{
				"x": 1.2305266732,
				"y": -0.0331295288,
				"z": -0.9707686743,
				"element": "C" 
			},
			{
				"x": -0.1270779113,
				"y": 0.317644318,
				"z": -1.0264197638,
				"element": "C" 
			},
			{
				"x": -0.3831691109,
				"y": 1.5686800535,
				"z": -1.5097108356,
				"element": "O" 
			},
			{
				"x": -1.7253181599,
				"y": 2.0599630106,
				"z": -1.4966750602,
				"element": "C" 
			},
			{
				"x": -2.5769272226,
				"y": 1.4878930111,
				"z": -2.5425300765,
				"element": "C" 
			},
			{
				"x": -3.287765124,
				"y": 1.0305095393,
				"z": -3.4042186258,
				"element": "C" 
			},
			{
				"x": -1.1039276649,
				"y": -0.5916938907,
				"z": -0.5945350297,
				"element": "C" 
			},
			{
				"x": -0.7090986978,
				"y": -1.8318583687,
				"z": -0.1037380027,
				"element": "C" 
			},
			{
				"x": 3.0209624525,
				"y": -3.2671138984,
				"z": 1.210947497,
				"element": "H" 
			},
			{
				"x": 2.9133220292,
				"y": -3.9435010853,
				"z": -0.4162031683,
				"element": "H" 
			},
			{
				"x": 2.5101656539,
				"y": -4.9616570991,
				"z": 0.9915003522,
				"element": "H" 
			},
			{
				"x": 2.6623642076,
				"y": -1.524723093,
				"z": -0.4443851068,
				"element": "H" 
			},
			{
				"x": 1.9657843124,
				"y": 0.6872738642,
				"z": -1.3132878574,
				"element": "H" 
			},
			{
				"x": -2.1771148089,
				"y": 1.9051580882,
				"z": -0.5074565201,
				"element": "H" 
			},
			{
				"x": -1.624105818,
				"y": 3.1385787231,
				"z": -1.6495509908,
				"element": "H" 
			},
			{
				"x": -3.9088116004,
				"y": 0.6215845738,
				"z": -4.1677976266,
				"element": "H" 
			},
			{
				"x": -2.1584520865,
				"y": -0.3530699169,
				"z": -0.6604625208,
				"element": "H" 
			},
			{
				"x": -1.4478554986,
				"y": -2.5510865295,
				"z": 0.2341540414,
				"element": "H" 
			}
		],
		 "valence_orbital": [ 
			{
				"type": "occ",
				"energy": -0.29003,
				"method": "rhf"
			},
			{
				"type": "occ",
				"energy": -0.28296,
				"method": "rhf"
			},
			{
				"type": "occ",
				"energy": -0.26044,
				"method": "rhf"
			},
			{
				"type": "occ",
				"energy": -0.24091,
				"method": "rhf"
			},
			{
				"type": "occ",
				"energy": -0.23147,
				"method": "rhf"
			},
			{
				"type": "unocc",
				"energy": -0.04483,
				"method": "rhf"
			},
			{
				"type": "unocc",
				"energy": -0.00983,
				"method": "rhf"
			},
			{
				"type": "unocc",
				"energy": 0.01649,
				"method": "rhf"
			},
			{
				"type": "unocc",
				"energy": 0.03908,
				"method": "rhf"
			},
			{
				"type": "unocc",
				"energy": 0.05093,
				"method": "rhf"
			}
		],
		"cosmo_sigma_profile": { 
			"-0.025": 0.0,
			"-0.024": 0.0,
			"-0.023": 0.0,
			"-0.022": 0.0,
			"-0.021": 0.0,
			"-0.02": 0.0,
			"-0.019": 0.0,
			"-0.018": 0.0,
			"-0.017": 0.0,
			"-0.016": 0.0,
			"-0.015": 0.0,
			"-0.014": 0.0,
			"-0.013": 0.0339542847478,
			"-0.012": 1.07526661072,
			"-0.011": 1.43825048053,
			"-0.01": 0.867352683347,
			"-0.009": 2.06195906753,
			"-0.008": 6.13220996565,
			"-0.007": 7.80123407895,
			"-0.006": 16.5861495656,
			"-0.005": 18.2617217744,
			"-0.004": 13.3313582422,
			"-0.003": 13.990310854,
			"-0.002": 12.7025626453,
			"-0.001": 14.757136254,
			"0.0": 12.7431689672,
			"0.001": 12.6153510902,
			"0.002": 15.0438494711,
			"0.003": 21.0968787679,
			"0.004": 18.9027190591,
			"0.005": 10.8298383438,
			"0.006": 7.65666034886,
			"0.007": 3.44297226816,
			"0.008": 2.85480711138,
			"0.009": 2.25565057126,
			"0.01": 1.8847454394,
			"0.011": 2.33028762481,
			"0.012": 4.14624857426,
			"0.013": 2.70505231573,
			"0.014": 0.526598780671,
			"0.015": 0.0,
			"0.016": 0.0,
			"0.017": 0.0,
			"0.018": 0.0,
			"0.019": 0.0,
			"0.02": 0.0,
			"0.021": 0.0,
			"0.022": 0.0,
			"0.023": 0.0,
			"0.024": 0.0,
			"0.025": 0.0
		}
	}
}
