{
	 "smiles": "NC1=NC2=C(C=CC=C2)N1CC1=CC=C(Cl)C=C1", 
	 "Tm": 471.15, 
	 "num_atms": 30, 
	 "gaussian": { 
		 "optdone": 1, 
		 "sigma_profile": "yes", 
		 "theory": "DFT", 
		 "functional": "B3LYP", 
		 "basiset": "6-31G**", 
		 "properties": { 
			 "R2extent": 7149.922, 
			 "electric_dipole_moment_norm": 3.9107889447, 
			 "electric_quadrupole_moment_norm": 16.5114102105, 
			 "total_energy": -1165.18801811, 
			 "HOMO_LUMO_gap": 0.17907, 
			 "cosmo_polarized_energy": -17.18, 
			 "cosmo_cavitation_energy": 36.0, 
			 "cosmo_dispersion_energy": -25.58, 
			 "cosmo_repulsion_energy": 1.97, 
			 "cosmo_total_nonelectrostatic_energy": 12.4, 
			 "SMD_solvation_energy": 3.32 
		},
		"coords": [
			{
				"x": -2.1946198507,
				"y": -1.1433431699,
				"z": -0.2041181116,
				"element": "N" 
			},
			{
				"x": -1.4644459377,
				"y": 0.0374883395,
				"z": -0.2852390582,
				"element": "C" 
			},
			{
				"x": -1.995483495,
				"y": 1.225812018,
				"z": -0.4328922405,
				"element": "N" 
			},
			{
				"x": -0.9188606677,
				"y": 2.1028684247,
				"z": -0.3564319503,
				"element": "C" 
			},
			{
				"x": 0.2877471967,
				"y": 1.3886999745,
				"z": -0.1667551469,
				"element": "C" 
			},
			{
				"x": 1.5260160741,
				"y": 2.0181607754,
				"z": -0.0682813489,
				"element": "C" 
			},
			{
				"x": 1.5344021908,
				"y": 3.411556252,
				"z": -0.1674858294,
				"element": "C" 
			},
			{
				"x": 0.3461747577,
				"y": 4.137222005,
				"z": -0.3592264018,
				"element": "C" 
			},
			{
				"x": -0.8891316293,
				"y": 3.4965584452,
				"z": -0.455485045,
				"element": "C" 
			},
			{
				"x": -0.0881589169,
				"y": 0.0444187565,
				"z": -0.1274072856,
				"element": "N" 
			},
			{
				"x": 0.7860520866,
				"y": -1.0820966525,
				"z": 0.1724805949,
				"element": "C" 
			},
			{
				"x": 1.1399519711,
				"y": -1.2248004331,
				"z": 1.6437849715,
				"element": "C" 
			},
			{
				"x": 2.4752835451,
				"y": -1.2356668564,
				"z": 2.0557931102,
				"element": "C" 
			},
			{
				"x": 2.8134310418,
				"y": -1.3878603543,
				"z": 3.4018997806,
				"element": "C" 
			},
			{
				"x": 1.7944863049,
				"y": -1.5273154563,
				"z": 4.3408690073,
				"element": "C" 
			},
			{
				"x": 2.2036856202,
				"y": -1.7176275565,
				"z": 6.0396112062,
				"element": "Cl" 
			},
			{
				"x": 0.4526596774,
				"y": -1.5192866821,
				"z": 3.9553503984,
				"element": "C" 
			},
			{
				"x": 0.1330831564,
				"y": -1.3703026526,
				"z": 2.6078494895,
				"element": "C" 
			},
			{
				"x": -3.1698167869,
				"y": -0.9508385046,
				"z": -0.4019078392,
				"element": "H" 
			},
			{
				"x": -1.8522963947,
				"y": -1.8959726477,
				"z": -0.7911673833,
				"element": "H" 
			},
			{
				"x": 2.4447515167,
				"y": 1.462708168,
				"z": 0.0921212819,
				"element": "H" 
			},
			{
				"x": 2.4783489382,
				"y": 3.9428216377,
				"z": -0.0900918925,
				"element": "H" 
			},
			{
				"x": 0.3932039233,
				"y": 5.2199433348,
				"z": -0.4313728058,
				"element": "H" 
			},
			{
				"x": -1.8090440002,
				"y": 4.053150924,
				"z": -0.6032250006,
				"element": "H" 
			},
			{
				"x": 0.2925852521,
				"y": -1.992912908,
				"z": -0.1807452176,
				"element": "H" 
			},
			{
				"x": 1.6994847969,
				"y": -0.9736271289,
				"z": -0.4217954023,
				"element": "H" 
			},
			{
				"x": 3.2689226213,
				"y": -1.1249568908,
				"z": 1.3209220109,
				"element": "H" 
			},
			{
				"x": 3.8507674451,
				"y": -1.3929574789,
				"z": 3.7174494897,
				"element": "H" 
			},
			{
				"x": -0.3268222511,
				"y": -1.6306207296,
				"z": 4.7009209986,
				"element": "H" 
			},
			{
				"x": -0.9091581862,
				"y": -1.3685229531,
				"z": 2.3010756195,
				"element": "H" 
			}
		],
		 "valence_orbital": [ 
			{
				"type": "occ",
				"energy": -0.26892,
				"method": "rhf"
			},
			{
				"type": "occ",
				"energy": -0.26776,
				"method": "rhf"
			},
			{
				"type": "occ",
				"energy": -0.24921,
				"method": "rhf"
			},
			{
				"type": "occ",
				"energy": -0.21782,
				"method": "rhf"
			},
			{
				"type": "occ",
				"energy": -0.20314,
				"method": "rhf"
			},
			{
				"type": "unocc",
				"energy": -0.02407,
				"method": "rhf"
			},
			{
				"type": "unocc",
				"energy": -0.01943,
				"method": "rhf"
			},
			{
				"type": "unocc",
				"energy": 0.00033,
				"method": "rhf"
			},
			{
				"type": "unocc",
				"energy": 0.02366,
				"method": "rhf"
			},
			{
				"type": "unocc",
				"energy": 0.02943,
				"method": "rhf"
			}
		],
		"cosmo_sigma_profile": { 
			"-0.025": 0.0,
			"-0.024": 0.0,
			"-0.023": 0.0,
			"-0.022": 0.0,
			"-0.021": 0.0,
			"-0.02": 0.0,
			"-0.019": 0.0,
			"-0.018": 0.0,
			"-0.017": 0.0,
			"-0.016": 0.0,
			"-0.015": 0.0955298559623,
			"-0.014": 1.4154972583,
			"-0.013": 3.09768909887,
			"-0.012": 2.71404650404,
			"-0.011": 3.29189991448,
			"-0.01": 2.55177098557,
			"-0.009": 1.99374987681,
			"-0.008": 3.85991291126,
			"-0.007": 11.541093944,
			"-0.006": 12.4822974604,
			"-0.005": 18.4281467837,
			"-0.004": 16.45721502,
			"-0.003": 17.973721868,
			"-0.002": 15.873239969,
			"-0.001": 15.9653083075,
			"0.0": 17.7801980725,
			"0.001": 19.6101455519,
			"0.002": 22.9786091282,
			"0.003": 27.2794840924,
			"0.004": 24.8020967786,
			"0.005": 18.4853351654,
			"0.006": 10.6706599333,
			"0.007": 7.55201236863,
			"0.008": 2.87142672284,
			"0.009": 2.11481226002,
			"0.01": 1.25333478983,
			"0.011": 0.922686285462,
			"0.012": 1.23329494533,
			"0.013": 1.49389654864,
			"0.014": 0.471723456096,
			"0.015": 0.899125127566,
			"0.016": 0.949313618928,
			"0.017": 1.1738697817,
			"0.018": 0.27005155477,
			"0.019": 0.0,
			"0.02": 0.0,
			"0.021": 0.0,
			"0.022": 0.0,
			"0.023": 0.0,
			"0.024": 0.0,
			"0.025": 0.0
		}
	}
}
