{
	 "smiles": "CCN(C)C1=CC=C(C=C1)C(C)=O", 
	 "Tm": 315.15, 
	 "num_atms": 28, 
	 "gaussian": { 
		 "optdone": 1, 
		 "sigma_profile": "yes", 
		 "theory": "DFT", 
		 "functional": "B3LYP", 
		 "basiset": "6-31G**", 
		 "properties": { 
			 "R2extent": 4240.9008, 
			 "electric_dipole_moment_norm": 5.56194168704, 
			 "electric_quadrupole_moment_norm": 24.5701343551, 
			 "total_energy": -558.19279912, 
			 "HOMO_LUMO_gap": 0.16408, 
			 "cosmo_polarized_energy": -11.46, 
			 "cosmo_cavitation_energy": 30.27, 
			 "cosmo_dispersion_energy": -21.8, 
			 "cosmo_repulsion_energy": 1.71, 
			 "cosmo_total_nonelectrostatic_energy": 10.18, 
			 "SMD_solvation_energy": 5.52 
		},
		"coords": [
			{
				"x": -0.3482608355,
				"y": 2.4849685896,
				"z": -0.8851738205,
				"element": "C" 
			},
			{
				"x": -1.2675852196,
				"y": 1.2572765804,
				"z": -0.9419157443,
				"element": "C" 
			},
			{
				"x": -0.6925211654,
				"y": 0.105192777,
				"z": -1.6319282694,
				"element": "N" 
			},
			{
				"x": -0.8695184911,
				"y": 0.0255061946,
				"z": -3.0740700574,
				"element": "C" 
			},
			{
				"x": 0.1921028965,
				"y": -0.750117715,
				"z": -1.0021058182,
				"element": "C" 
			},
			{
				"x": 0.5039730911,
				"y": -0.6295724665,
				"z": 0.3757469862,
				"element": "C" 
			},
			{
				"x": 1.3694459809,
				"y": -1.5210315125,
				"z": 0.9934767323,
				"element": "C" 
			},
			{
				"x": 1.978919552,
				"y": -2.5690063059,
				"z": 0.2847506919,
				"element": "C" 
			},
			{
				"x": 1.6814567976,
				"y": -2.6820507176,
				"z": -1.0837986049,
				"element": "C" 
			},
			{
				"x": 0.8198167167,
				"y": -1.8034468034,
				"z": -1.7174220537,
				"element": "C" 
			},
			{
				"x": 2.9139687963,
				"y": -3.5460358872,
				"z": 0.8989752794,
				"element": "C" 
			},
			{
				"x": 3.2357786684,
				"y": -3.4205090369,
				"z": 2.3825139981,
				"element": "C" 
			},
			{
				"x": 3.4231262269,
				"y": -4.4418474107,
				"z": 0.2349990375,
				"element": "O" 
			},
			{
				"x": -0.8390466311,
				"y": 3.3072673825,
				"z": -0.3533216285,
				"element": "H" 
			},
			{
				"x": 0.587548279,
				"y": 2.253090515,
				"z": -0.3686783202,
				"element": "H" 
			},
			{
				"x": -0.0994114438,
				"y": 2.834500851,
				"z": -1.8923583284,
				"element": "H" 
			},
			{
				"x": -1.5631799487,
				"y": 0.9562839951,
				"z": 0.067907827,
				"element": "H" 
			},
			{
				"x": -2.1979002456,
				"y": 1.5160031048,
				"z": -1.4579909971,
				"element": "H" 
			},
			{
				"x": -1.2682911999,
				"y": -0.9508176013,
				"z": -3.3758522835,
				"element": "H" 
			},
			{
				"x": 0.0668047502,
				"y": 0.1935934915,
				"z": -3.6242846943,
				"element": "H" 
			},
			{
				"x": -1.5854451476,
				"y": 0.7875463955,
				"z": -3.3859574054,
				"element": "H" 
			},
			{
				"x": 0.0744099973,
				"y": 0.1677884943,
				"z": 0.9690993178,
				"element": "H" 
			},
			{
				"x": 1.5741199369,
				"y": -1.3863028588,
				"z": 2.0513505287,
				"element": "H" 
			},
			{
				"x": 2.1521507268,
				"y": -3.4859984812,
				"z": -1.6406275189,
				"element": "H" 
			},
			{
				"x": 0.6270492403,
				"y": -1.9347905217,
				"z": -2.7748150365,
				"element": "H" 
			},
			{
				"x": 2.3295408631,
				"y": -3.5060873967,
				"z": 2.9924463919,
				"element": "H" 
			},
			{
				"x": 3.9304820818,
				"y": -4.2155240743,
				"z": 2.6553114398,
				"element": "H" 
			},
			{
				"x": 3.6902657264,
				"y": -2.4492795818,
				"z": 2.607922351,
				"element": "H" 
			}
		],
		 "valence_orbital": [ 
			{
				"type": "occ",
				"energy": -0.33026,
				"method": "rhf"
			},
			{
				"type": "occ",
				"energy": -0.28509,
				"method": "rhf"
			},
			{
				"type": "occ",
				"energy": -0.24982,
				"method": "rhf"
			},
			{
				"type": "occ",
				"energy": -0.2294,
				"method": "rhf"
			},
			{
				"type": "occ",
				"energy": -0.19632,
				"method": "rhf"
			},
			{
				"type": "unocc",
				"energy": -0.03224,
				"method": "rhf"
			},
			{
				"type": "unocc",
				"energy": 0.00139,
				"method": "rhf"
			},
			{
				"type": "unocc",
				"energy": 0.06093,
				"method": "rhf"
			},
			{
				"type": "unocc",
				"energy": 0.07471,
				"method": "rhf"
			},
			{
				"type": "unocc",
				"energy": 0.09808,
				"method": "rhf"
			}
		],
		"cosmo_sigma_profile": { 
			"-0.025": 0.0,
			"-0.024": 0.0,
			"-0.023": 0.0,
			"-0.022": 0.0,
			"-0.021": 0.0,
			"-0.02": 0.0,
			"-0.019": 0.0,
			"-0.018": 0.0,
			"-0.017": 0.0,
			"-0.016": 0.0,
			"-0.015": 0.0,
			"-0.014": 0.0,
			"-0.013": 0.0,
			"-0.012": 0.0,
			"-0.011": 0.0,
			"-0.01": 0.0,
			"-0.009": 0.0,
			"-0.008": 0.0,
			"-0.007": 0.694454024628,
			"-0.006": 7.98315527503,
			"-0.005": 20.1892562506,
			"-0.004": 24.4527642683,
			"-0.003": 29.6111567898,
			"-0.002": 29.8013809599,
			"-0.001": 23.0801720606,
			"0.0": 18.1736291755,
			"0.001": 15.0468940034,
			"0.002": 10.0259020953,
			"0.003": 9.66723531717,
			"0.004": 11.4556771885,
			"0.005": 12.5029358049,
			"0.006": 6.89283121763,
			"0.007": 2.09426789972,
			"0.008": 1.7920624895,
			"0.009": 1.56298265375,
			"0.01": 1.87169213969,
			"0.011": 1.83236609844,
			"0.012": 3.21746601148,
			"0.013": 4.32955046587,
			"0.014": 1.9897301307,
			"0.015": 0.186742890456,
			"0.016": 0.0,
			"0.017": 0.0,
			"0.018": 0.0,
			"0.019": 0.0,
			"0.02": 0.0,
			"0.021": 0.0,
			"0.022": 0.0,
			"0.023": 0.0,
			"0.024": 0.0,
			"0.025": 0.0
		}
	}
}
