{
	 "smiles": "COC(=O)C1(CC1)C(O)=O", 
	 "Tm": 322.15, 
	 "num_atms": 18, 
	 "gaussian": { 
		 "optdone": 1, 
		 "sigma_profile": "yes", 
		 "theory": "DFT", 
		 "functional": "B3LYP", 
		 "basiset": "6-31G**", 
		 "properties": { 
			 "R2extent": 1868.5848, 
			 "electric_dipole_moment_norm": 4.04815353711, 
			 "electric_quadrupole_moment_norm": 16.1808041175, 
			 "total_energy": -534.346482623, 
			 "HOMO_LUMO_gap": 0.25105, 
			 "cosmo_polarized_energy": -12.6, 
			 "cosmo_cavitation_energy": 21.93, 
			 "cosmo_dispersion_energy": -16.14, 
			 "cosmo_repulsion_energy": 1.3, 
			 "cosmo_total_nonelectrostatic_energy": 7.1, 
			 "SMD_solvation_energy": 6.45 
		},
		"coords": [
			{
				"x": 0.8924322576,
				"y": -1.8173569514,
				"z": -1.2283817577,
				"element": "C" 
			},
			{
				"x": 0.7685355769,
				"y": -0.4040802355,
				"z": -0.9608004949,
				"element": "O" 
			},
			{
				"x": -0.5057511536,
				"y": 0.0761102118,
				"z": -0.8691006107,
				"element": "C" 
			},
			{
				"x": -1.4702438593,
				"y": -0.6444330077,
				"z": -1.0044222385,
				"element": "O" 
			},
			{
				"x": -0.5757002813,
				"y": 1.5432842252,
				"z": -0.5918482476,
				"element": "C" 
			},
			{
				"x": -1.8117907204,
				"y": 2.2302629884,
				"z": -1.2110941369,
				"element": "C" 
			},
			{
				"x": -1.8106206564,
				"y": 1.9567814686,
				"z": 0.2371641436,
				"element": "C" 
			},
			{
				"x": 0.6175190486,
				"y": 2.4671019048,
				"z": -0.4184060937,
				"element": "C" 
			},
			{
				"x": 1.8517572555,
				"y": 1.9505452459,
				"z": -0.5171584425,
				"element": "O" 
			},
			{
				"x": 0.4541135259,
				"y": 3.6467918457,
				"z": -0.1955106686,
				"element": "O" 
			},
			{
				"x": 0.4224771974,
				"y": -2.3929544819,
				"z": -0.4289386194,
				"element": "H" 
			},
			{
				"x": 0.4145562505,
				"y": -2.0624523058,
				"z": -2.1785217434,
				"element": "H" 
			},
			{
				"x": 1.9630270633,
				"y": -2.0133498463,
				"z": -1.2701380698,
				"element": "H" 
			},
			{
				"x": -2.4155985621,
				"y": 1.5995308546,
				"z": -1.8537011983,
				"element": "H" 
			},
			{
				"x": -1.6348678151,
				"y": 3.2481337872,
				"z": -1.5384775264,
				"element": "H" 
			},
			{
				"x": -2.4136558011,
				"y": 1.1350245651,
				"z": 0.6065048028,
				"element": "H" 
			},
			{
				"x": -1.632968892,
				"y": 2.78520091,
				"z": 0.9129764907,
				"element": "H" 
			},
			{
				"x": 1.7945795656,
				"y": 0.9935588212,
				"z": -0.6978455886,
				"element": "H" 
			}
		],
		 "valence_orbital": [ 
			{
				"type": "occ",
				"energy": -0.33243,
				"method": "rhf"
			},
			{
				"type": "occ",
				"energy": -0.31589,
				"method": "rhf"
			},
			{
				"type": "occ",
				"energy": -0.30843,
				"method": "rhf"
			},
			{
				"type": "occ",
				"energy": -0.29844,
				"method": "rhf"
			},
			{
				"type": "occ",
				"energy": -0.26708,
				"method": "rhf"
			},
			{
				"type": "unocc",
				"energy": -0.01603,
				"method": "rhf"
			},
			{
				"type": "unocc",
				"energy": 0.01001,
				"method": "rhf"
			},
			{
				"type": "unocc",
				"energy": 0.07543,
				"method": "rhf"
			},
			{
				"type": "unocc",
				"energy": 0.09628,
				"method": "rhf"
			},
			{
				"type": "unocc",
				"energy": 0.1053,
				"method": "rhf"
			}
		],
		"cosmo_sigma_profile": { 
			"-0.025": 0.0,
			"-0.024": 0.0,
			"-0.023": 0.0,
			"-0.022": 0.0,
			"-0.021": 0.0,
			"-0.02": 0.0,
			"-0.019": 0.0,
			"-0.018": 0.0,
			"-0.017": 0.0,
			"-0.016": 0.0,
			"-0.015": 0.0,
			"-0.014": 0.0,
			"-0.013": 0.0,
			"-0.012": 0.0,
			"-0.011": 0.108547001005,
			"-0.01": 0.813798379787,
			"-0.009": 0.927514973731,
			"-0.008": 1.41585119941,
			"-0.007": 7.62127352329,
			"-0.006": 14.6306097258,
			"-0.005": 16.3682358812,
			"-0.004": 19.7452823368,
			"-0.003": 17.4517510864,
			"-0.002": 16.1243853346,
			"-0.001": 11.4793456421,
			"0.0": 8.17892362077,
			"0.001": 5.64477678327,
			"0.002": 4.70205794583,
			"0.003": 3.91036845714,
			"0.004": 4.02810103989,
			"0.005": 3.26867553479,
			"0.006": 3.42145794761,
			"0.007": 3.45865379374,
			"0.008": 3.67877748874,
			"0.009": 4.9379937804,
			"0.01": 5.36602968177,
			"0.011": 9.16870342854,
			"0.012": 5.20532670085,
			"0.013": 2.15867655897,
			"0.014": 0.260089659548,
			"0.015": 0.0,
			"0.016": 0.0,
			"0.017": 0.0,
			"0.018": 0.0,
			"0.019": 0.0,
			"0.02": 0.0,
			"0.021": 0.0,
			"0.022": 0.0,
			"0.023": 0.0,
			"0.024": 0.0,
			"0.025": 0.0
		}
	}
}
