{
	 "smiles": "OC(=O)CCC(=O)C1=CSC2=C1C=CC=C2", 
	 "Tm": 413.15, 
	 "num_atms": 26, 
	 "gaussian": { 
		 "optdone": 1, 
		 "sigma_profile": "yes", 
		 "theory": "DFT", 
		 "functional": "B3LYP", 
		 "basiset": "6-31G**", 
		 "properties": { 
			 "R2extent": 5240.7426, 
			 "electric_dipole_moment_norm": 7.46985206413, 
			 "electric_quadrupole_moment_norm": 28.7892506261, 
			 "total_energy": -1087.18050618, 
			 "HOMO_LUMO_gap": 0.16284, 
			 "cosmo_polarized_energy": -16.2, 
			 "cosmo_cavitation_energy": 31.52, 
			 "cosmo_dispersion_energy": -23.75, 
			 "cosmo_repulsion_energy": 1.77, 
			 "cosmo_total_nonelectrostatic_energy": 9.54, 
			 "SMD_solvation_energy": 6.26 
		},
		"coords": [
			{
				"x": 4.7114785137,
				"y": 1.2060433454,
				"z": 0.5061607271,
				"element": "O" 
			},
			{
				"x": 4.0061426737,
				"y": 2.2791476343,
				"z": 0.9018195131,
				"element": "C" 
			},
			{
				"x": 4.4140619498,
				"y": 3.4050384226,
				"z": 0.7311051502,
				"element": "O" 
			},
			{
				"x": 2.666226666,
				"y": 1.9844365105,
				"z": 1.5850435844,
				"element": "C" 
			},
			{
				"x": 1.5905098799,
				"y": 1.3596590543,
				"z": 0.6758823861,
				"element": "C" 
			},
			{
				"x": 1.7622212039,
				"y": -0.1261431081,
				"z": 0.4047497264,
				"element": "C" 
			},
			{
				"x": 2.8055752657,
				"y": -0.7027886075,
				"z": 0.7270010117,
				"element": "O" 
			},
			{
				"x": 0.6647711043,
				"y": -0.9033898558,
				"z": -0.218163502,
				"element": "C" 
			},
			{
				"x": 0.8169962816,
				"y": -2.2664898956,
				"z": -0.2996115306,
				"element": "C" 
			},
			{
				"x": -0.5167160202,
				"y": -3.0893618946,
				"z": -1.0085118248,
				"element": "S" 
			},
			{
				"x": -1.3684235499,
				"y": -1.5696417573,
				"z": -1.2496522181,
				"element": "C" 
			},
			{
				"x": -0.6116731724,
				"y": -0.465023227,
				"z": -0.777202705,
				"element": "C" 
			},
			{
				"x": -1.1758275165,
				"y": 0.8181720963,
				"z": -0.9345523871,
				"element": "C" 
			},
			{
				"x": -2.4279368856,
				"y": 0.9636193298,
				"z": -1.5183067386,
				"element": "C" 
			},
			{
				"x": -3.1564110636,
				"y": -0.1497376681,
				"z": -1.9663378667,
				"element": "C" 
			},
			{
				"x": -2.6283299963,
				"y": -1.4279822517,
				"z": -1.8373420532,
				"element": "C" 
			},
			{
				"x": 4.1940439899,
				"y": 0.3914127693,
				"z": 0.6941940264,
				"element": "H" 
			},
			{
				"x": 2.2995061987,
				"y": 2.9417607091,
				"z": 1.9582165877,
				"element": "H" 
			},
			{
				"x": 2.8366516421,
				"y": 1.3258625275,
				"z": 2.4446175988,
				"element": "H" 
			},
			{
				"x": 1.5450625086,
				"y": 1.8858750265,
				"z": -0.287644167,
				"element": "H" 
			},
			{
				"x": 0.606280826,
				"y": 1.5015609167,
				"z": 1.1373208586,
				"element": "H" 
			},
			{
				"x": 1.6826137747,
				"y": -2.8129155098,
				"z": 0.0486896744,
				"element": "H" 
			},
			{
				"x": -0.6434573154,
				"y": 1.7034560929,
				"z": -0.6130775189,
				"element": "H" 
			},
			{
				"x": -2.8470109111,
				"y": 1.9587037269,
				"z": -1.6320589734,
				"element": "H" 
			},
			{
				"x": -4.1330505907,
				"y": -0.012399119,
				"z": -2.4197755917,
				"element": "H" 
			},
			{
				"x": -3.1778054567,
				"y": -2.2966752675,
				"z": -2.186463768,
				"element": "H" 
			}
		],
		 "valence_orbital": [ 
			{
				"type": "occ",
				"energy": -0.29171,
				"method": "rhf"
			},
			{
				"type": "occ",
				"energy": -0.28487,
				"method": "rhf"
			},
			{
				"type": "occ",
				"energy": -0.26207,
				"method": "rhf"
			},
			{
				"type": "occ",
				"energy": -0.25035,
				"method": "rhf"
			},
			{
				"type": "occ",
				"energy": -0.24486,
				"method": "rhf"
			},
			{
				"type": "unocc",
				"energy": -0.08202,
				"method": "rhf"
			},
			{
				"type": "unocc",
				"energy": -0.03408,
				"method": "rhf"
			},
			{
				"type": "unocc",
				"energy": -0.02526,
				"method": "rhf"
			},
			{
				"type": "unocc",
				"energy": -0.00142,
				"method": "rhf"
			},
			{
				"type": "unocc",
				"energy": 0.02441,
				"method": "rhf"
			}
		],
		"cosmo_sigma_profile": { 
			"-0.025": 0.0,
			"-0.024": 0.0,
			"-0.023": 0.0,
			"-0.022": 0.0,
			"-0.021": 0.0,
			"-0.02": 0.0,
			"-0.019": 0.0,
			"-0.018": 0.0,
			"-0.017": 0.0,
			"-0.016": 0.0,
			"-0.015": 0.0,
			"-0.014": 0.0,
			"-0.013": 0.0,
			"-0.012": 0.0,
			"-0.011": 0.0,
			"-0.01": 0.429747673806,
			"-0.009": 1.88452999233,
			"-0.008": 6.94033710898,
			"-0.007": 15.0400408538,
			"-0.006": 19.819543752,
			"-0.005": 20.8235810353,
			"-0.004": 19.0126599879,
			"-0.003": 14.3375526638,
			"-0.002": 12.991395847,
			"-0.001": 13.8925970253,
			"0.0": 16.716861899,
			"0.001": 23.0632812755,
			"0.002": 17.1726431707,
			"0.003": 16.4068924192,
			"0.004": 12.6581457214,
			"0.005": 6.96101112277,
			"0.006": 3.69701463476,
			"0.007": 3.07921507902,
			"0.008": 3.94985001525,
			"0.009": 4.14763406825,
			"0.01": 3.6812288444,
			"0.011": 5.6610680909,
			"0.012": 6.39767291403,
			"0.013": 4.63856647582,
			"0.014": 1.36088949177,
			"0.015": 0.0,
			"0.016": 0.0,
			"0.017": 0.0,
			"0.018": 0.0,
			"0.019": 0.0,
			"0.02": 0.0,
			"0.021": 0.0,
			"0.022": 0.0,
			"0.023": 0.0,
			"0.024": 0.0,
			"0.025": 0.0
		}
	}
}
