{
	 "smiles": "CC(C)CC1=CC=C(C=CC(O)=O)C=C1", 
	 "Tm": 433.15, 
	 "num_atms": 31, 
	 "gaussian": { 
		 "optdone": 1, 
		 "sigma_profile": "yes", 
		 "theory": "DFT", 
		 "functional": "B3LYP", 
		 "basiset": "6-31G**", 
		 "properties": { 
			 "R2extent": 5712.6157, 
			 "electric_dipole_moment_norm": 3.56691503263, 
			 "electric_quadrupole_moment_norm": 14.4954413017, 
			 "total_energy": -655.49627018, 
			 "HOMO_LUMO_gap": 0.16524, 
			 "cosmo_polarized_energy": -10.63, 
			 "cosmo_cavitation_energy": 34.36, 
			 "cosmo_dispersion_energy": -24.15, 
			 "cosmo_repulsion_energy": 1.9, 
			 "cosmo_total_nonelectrostatic_energy": 12.1, 
			 "SMD_solvation_energy": 6.96 
		},
		"coords": [
			{
				"x": -1.9012966975,
				"y": 3.3541732508,
				"z": 1.2008837995,
				"element": "C" 
			},
			{
				"x": -0.5232196351,
				"y": 3.877673268,
				"z": 0.7731821341,
				"element": "C" 
			},
			{
				"x": 0.4844426713,
				"y": 3.7911683852,
				"z": 1.9278381828,
				"element": "C" 
			},
			{
				"x": -0.0031189132,
				"y": 3.1950466982,
				"z": -0.5255545996,
				"element": "C" 
			},
			{
				"x": 0.2427384538,
				"y": 1.7042342216,
				"z": -0.4374535305,
				"element": "C" 
			},
			{
				"x": 1.4938006068,
				"y": 1.1958379873,
				"z": -0.0455935953,
				"element": "C" 
			},
			{
				"x": 1.7251634373,
				"y": -0.1707744144,
				"z": 0.0486470434,
				"element": "C" 
			},
			{
				"x": 0.7080676618,
				"y": -1.097312543,
				"z": -0.2515440302,
				"element": "C" 
			},
			{
				"x": 0.8881338936,
				"y": -2.5466922169,
				"z": -0.1742579928,
				"element": "C" 
			},
			{
				"x": 1.9999090342,
				"y": -3.2135532387,
				"z": 0.1929886587,
				"element": "C" 
			},
			{
				"x": 2.0966493779,
				"y": -4.6798484467,
				"z": 0.2449165185,
				"element": "C" 
			},
			{
				"x": 0.9515432221,
				"y": -5.3241004025,
				"z": -0.1143332509,
				"element": "O" 
			},
			{
				"x": 3.0979508256,
				"y": -5.2878038983,
				"z": 0.575710539,
				"element": "O" 
			},
			{
				"x": -0.540206755,
				"y": -0.5896131329,
				"z": -0.6535175706,
				"element": "C" 
			},
			{
				"x": -0.7662337477,
				"y": 0.7808923447,
				"z": -0.7462635064,
				"element": "C" 
			},
			{
				"x": -1.857040148,
				"y": 2.2970611859,
				"z": 1.4836751242,
				"element": "H" 
			},
			{
				"x": -2.6374487276,
				"y": 3.4555010505,
				"z": 0.3952808863,
				"element": "H" 
			},
			{
				"x": -2.2757645187,
				"y": 3.9131221775,
				"z": 2.0651226427,
				"element": "H" 
			},
			{
				"x": -0.6388225614,
				"y": 4.9398109575,
				"z": 0.5142432662,
				"element": "H" 
			},
			{
				"x": 0.1258495997,
				"y": 4.3536524668,
				"z": 2.7965028802,
				"element": "H" 
			},
			{
				"x": 0.6402843052,
				"y": 2.7547679999,
				"z": 2.2456249762,
				"element": "H" 
			},
			{
				"x": 1.4585175355,
				"y": 4.2050278836,
				"z": 1.6431682153,
				"element": "H" 
			},
			{
				"x": 0.9284838894,
				"y": 3.6931180789,
				"z": -0.821201314,
				"element": "H" 
			},
			{
				"x": -0.7285088146,
				"y": 3.3897834816,
				"z": -1.3250136423,
				"element": "H" 
			},
			{
				"x": 2.3004522772,
				"y": 1.8879647981,
				"z": 0.1808917435,
				"element": "H" 
			},
			{
				"x": 2.7068387689,
				"y": -0.5216812879,
				"z": 0.3514387664,
				"element": "H" 
			},
			{
				"x": 0.0172457394,
				"y": -3.1397219677,
				"z": -0.4453689581,
				"element": "H" 
			},
			{
				"x": 2.91709463,
				"y": -2.7115314828,
				"z": 0.4815295664,
				"element": "H" 
			},
			{
				"x": 1.1545343875,
				"y": -6.2700864159,
				"z": -0.035540375,
				"element": "H" 
			},
			{
				"x": -1.3390866648,
				"y": -1.2842286844,
				"z": -0.9007983908,
				"element": "H" 
			},
			{
				"x": -1.7387531333,
				"y": 1.1411118959,
				"z": -1.070804187,
				"element": "H" 
			}
		],
		 "valence_orbital": [ 
			{
				"type": "occ",
				"energy": -0.3115,
				"method": "rhf"
			},
			{
				"type": "occ",
				"energy": -0.29806,
				"method": "rhf"
			},
			{
				"type": "occ",
				"energy": -0.26688,
				"method": "rhf"
			},
			{
				"type": "occ",
				"energy": -0.25985,
				"method": "rhf"
			},
			{
				"type": "occ",
				"energy": -0.23059,
				"method": "rhf"
			},
			{
				"type": "unocc",
				"energy": -0.06535,
				"method": "rhf"
			},
			{
				"type": "unocc",
				"energy": -0.01019,
				"method": "rhf"
			},
			{
				"type": "unocc",
				"energy": 0.01946,
				"method": "rhf"
			},
			{
				"type": "unocc",
				"energy": 0.07471,
				"method": "rhf"
			},
			{
				"type": "unocc",
				"energy": 0.08364,
				"method": "rhf"
			}
		],
		"cosmo_sigma_profile": { 
			"-0.025": 0.0,
			"-0.024": 0.0,
			"-0.023": 0.0,
			"-0.022": 0.0,
			"-0.021": 0.0,
			"-0.02": 0.0,
			"-0.019": 0.0,
			"-0.018": 0.368134570621,
			"-0.017": 1.02648493582,
			"-0.016": 0.611716917287,
			"-0.015": 0.704249899624,
			"-0.014": 0.711899257595,
			"-0.013": 1.13442763835,
			"-0.012": 0.459085190639,
			"-0.011": 0.664118385041,
			"-0.01": 0.538677665605,
			"-0.009": 0.630136586319,
			"-0.008": 2.67823006997,
			"-0.007": 5.34485204267,
			"-0.006": 6.23549347358,
			"-0.005": 9.78842208191,
			"-0.004": 13.6210921757,
			"-0.003": 20.7958946113,
			"-0.002": 28.9419328504,
			"-0.001": 30.9035230886,
			"0.0": 31.6340541469,
			"0.001": 30.1512681976,
			"0.002": 24.4783708051,
			"0.003": 14.7427971396,
			"0.004": 12.5654049926,
			"0.005": 8.28147995152,
			"0.006": 3.00502294008,
			"0.007": 3.07838034552,
			"0.008": 2.76369309741,
			"0.009": 1.60641204362,
			"0.01": 1.90961639061,
			"0.011": 2.08859237666,
			"0.012": 5.35444793581,
			"0.013": 3.09882246453,
			"0.014": 0.279764631469,
			"0.015": 0.0,
			"0.016": 0.0,
			"0.017": 0.0,
			"0.018": 0.0,
			"0.019": 0.0,
			"0.02": 0.0,
			"0.021": 0.0,
			"0.022": 0.0,
			"0.023": 0.0,
			"0.024": 0.0,
			"0.025": 0.0
		}
	}
}
