{
	 "smiles": "ClC1=CC=C2NC(=N)SC2=C1", 
	 "Tm": 473.15, 
	 "num_atms": 16, 
	 "gaussian": { 
		 "optdone": 1, 
		 "sigma_profile": "yes", 
		 "theory": "DFT", 
		 "functional": "B3LYP", 
		 "basiset": "6-31G**", 
		 "properties": { 
			 "R2extent": 3468.4959, 
			 "electric_dipole_moment_norm": 3.80811935869, 
			 "electric_quadrupole_moment_norm": 21.9024530202, 
			 "total_energy": -1237.63790321, 
			 "HOMO_LUMO_gap": 0.18574, 
			 "cosmo_polarized_energy": -14.42, 
			 "cosmo_cavitation_energy": 23.92, 
			 "cosmo_dispersion_energy": -18.66, 
			 "cosmo_repulsion_energy": 1.44, 
			 "cosmo_total_nonelectrostatic_energy": 6.69, 
			 "SMD_solvation_energy": 2.31 
		},
		"coords": [
			{
				"x": 1.5048758076,
				"y": -2.338746859,
				"z": -2.2402953197,
				"element": "Cl" 
			},
			{
				"x": 0.41421314,
				"y": -1.0647080686,
				"z": -1.7122563326,
				"element": "C" 
			},
			{
				"x": 0.8523599571,
				"y": 0.2597100404,
				"z": -1.7265569907,
				"element": "C" 
			},
			{
				"x": -0.0045439109,
				"y": 1.2816466941,
				"z": -1.3093677991,
				"element": "C" 
			},
			{
				"x": -1.2897884111,
				"y": 0.9534633533,
				"z": -0.883953568,
				"element": "C" 
			},
			{
				"x": -2.2764491205,
				"y": 1.8247425138,
				"z": -0.4368215556,
				"element": "N" 
			},
			{
				"x": -3.4946291656,
				"y": 1.2654742096,
				"z": -0.0594361927,
				"element": "C" 
			},
			{
				"x": -4.5581559372,
				"y": 1.8034700932,
				"z": 0.3806972423,
				"element": "N" 
			},
			{
				"x": -3.3837183056,
				"y": -0.518373791,
				"z": -0.2920977551,
				"element": "S" 
			},
			{
				"x": -1.7187028825,
				"y": -0.3868781873,
				"z": -0.8746828588,
				"element": "C" 
			},
			{
				"x": -0.8723415082,
				"y": -1.4091975814,
				"z": -1.2882188561,
				"element": "C" 
			},
			{
				"x": 1.8564714608,
				"y": 0.492681864,
				"z": -2.06127316,
				"element": "H" 
			},
			{
				"x": 0.3315860591,
				"y": 2.3140506744,
				"z": -1.3186390084,
				"element": "H" 
			},
			{
				"x": -2.1342744746,
				"y": 2.8222967009,
				"z": -0.3787797688,
				"element": "H" 
			},
			{
				"x": -4.4751528516,
				"y": 2.8180578139,
				"z": 0.460289732,
				"element": "H" 
			},
			{
				"x": -1.1923498567,
				"y": -2.4446894704,
				"z": -1.2851078087,
				"element": "H" 
			}
		],
		 "valence_orbital": [ 
			{
				"type": "occ",
				"energy": -0.31674,
				"method": "rhf"
			},
			{
				"type": "occ",
				"energy": -0.28856,
				"method": "rhf"
			},
			{
				"type": "occ",
				"energy": -0.28031,
				"method": "rhf"
			},
			{
				"type": "occ",
				"energy": -0.24988,
				"method": "rhf"
			},
			{
				"type": "occ",
				"energy": -0.21197,
				"method": "rhf"
			},
			{
				"type": "unocc",
				"energy": -0.02623,
				"method": "rhf"
			},
			{
				"type": "unocc",
				"energy": -0.01523,
				"method": "rhf"
			},
			{
				"type": "unocc",
				"energy": -0.0015,
				"method": "rhf"
			},
			{
				"type": "unocc",
				"energy": 0.0264,
				"method": "rhf"
			},
			{
				"type": "unocc",
				"energy": 0.03083,
				"method": "rhf"
			}
		],
		"cosmo_sigma_profile": { 
			"-0.025": 0.0,
			"-0.024": 0.0,
			"-0.023": 0.0,
			"-0.022": 0.0,
			"-0.021": 0.0,
			"-0.02": 0.0,
			"-0.019": 0.0,
			"-0.018": 0.0,
			"-0.017": 0.620325877617,
			"-0.016": 2.11826313202,
			"-0.015": 1.87610222886,
			"-0.014": 2.07189168537,
			"-0.013": 1.62486907977,
			"-0.012": 2.07699496469,
			"-0.011": 2.67357323616,
			"-0.01": 1.84859905153,
			"-0.009": 1.79718048686,
			"-0.008": 5.79386883072,
			"-0.007": 6.92798532408,
			"-0.006": 6.58343302108,
			"-0.005": 6.88288901356,
			"-0.004": 5.04056611339,
			"-0.003": 5.68122280945,
			"-0.002": 7.83250837123,
			"-0.001": 11.3585458649,
			"0.0": 13.8511880675,
			"0.001": 19.8872586332,
			"0.002": 21.684493065,
			"0.003": 23.7135971321,
			"0.004": 15.685675125,
			"0.005": 12.759613517,
			"0.006": 2.93547526235,
			"0.007": 1.01100345345,
			"0.008": 1.17164737572,
			"0.009": 1.55594786832,
			"0.01": 1.35133663768,
			"0.011": 1.28375188118,
			"0.012": 1.19888182984,
			"0.013": 1.40009192048,
			"0.014": 1.22272371388,
			"0.015": 0.82275265268,
			"0.016": 1.19258687184,
			"0.017": 1.11256880444,
			"0.018": 0.144459343104,
			"0.019": 0.0,
			"0.02": 0.0,
			"0.021": 0.0,
			"0.022": 0.0,
			"0.023": 0.0,
			"0.024": 0.0,
			"0.025": 0.0
		}
	}
}
