{
	 "smiles": "COC1=CC=CC=C1C1(C)CCC2=C(C3=C1C=C(C)O3)C1=C(O2)C(Br)=CC(Br)=C1", 
	 "Tm": 467.15, 
	 "num_atms": 49, 
	 "gaussian": { 
		 "optdone": 1, 
		 "sigma_profile": "yes", 
		 "theory": "DFT", 
		 "functional": "B3LYP", 
		 "basiset": "6-31G**", 
		 "properties": { 
			 "R2extent": 25282.7023, 
			 "electric_dipole_moment_norm": 5.02016081217, 
			 "electric_quadrupole_moment_norm": 22.2712960745, 
			 "total_energy": -6295.06977494, 
			 "HOMO_LUMO_gap": 0.15559, 
			 "cosmo_polarized_energy": -9.87, 
			 "cosmo_cavitation_energy": 54.74, 
			 "cosmo_dispersion_energy": -37.89, 
			 "cosmo_repulsion_energy": 2.87, 
			 "cosmo_total_nonelectrostatic_energy": 19.73, 
			 "SMD_solvation_energy": 7.73 
		},
		"coords": [
			{
				"x": -3.2619752348,
				"y": -0.7586015618,
				"z": 0.4500731493,
				"element": "C" 
			},
			{
				"x": -1.9778569956,
				"y": -0.1761756098,
				"z": 0.6011687664,
				"element": "O" 
			},
			{
				"x": -1.5034375537,
				"y": 0.074117442,
				"z": 1.8588649091,
				"element": "C" 
			},
			{
				"x": -2.2719958826,
				"y": -0.1355640147,
				"z": 3.0087579585,
				"element": "C" 
			},
			{
				"x": -1.7443997542,
				"y": 0.1452952477,
				"z": 4.2708275911,
				"element": "C" 
			},
			{
				"x": -0.4493125054,
				"y": 0.6336452578,
				"z": 4.3853394621,
				"element": "C" 
			},
			{
				"x": 0.3140454182,
				"y": 0.8352061983,
				"z": 3.2306557444,
				"element": "C" 
			},
			{
				"x": -0.1742336642,
				"y": 0.5652519565,
				"z": 1.9488218924,
				"element": "C" 
			},
			{
				"x": 0.6744287305,
				"y": 0.8123586904,
				"z": 0.6789092833,
				"element": "C" 
			},
			{
				"x": 2.1226665559,
				"y": 1.2289987559,
				"z": 1.0372294958,
				"element": "C" 
			},
			{
				"x": -0.0130043555,
				"y": 1.981376856,
				"z": -0.103144116,
				"element": "C" 
			},
			{
				"x": 0.7217211452,
				"y": 2.5950946334,
				"z": -1.3104248317,
				"element": "C" 
			},
			{
				"x": 0.8796005261,
				"y": 1.6828716989,
				"z": -2.47604975,
				"element": "C" 
			},
			{
				"x": 0.9570243216,
				"y": 0.3194136028,
				"z": -2.5817350353,
				"element": "C" 
			},
			{
				"x": 0.9112807178,
				"y": -0.6195867461,
				"z": -1.4859033922,
				"element": "C" 
			},
			{
				"x": 0.7762438848,
				"y": -0.4774035756,
				"z": -0.1266023375,
				"element": "C" 
			},
			{
				"x": 0.8570709494,
				"y": -1.8082460927,
				"z": 0.4074480981,
				"element": "C" 
			},
			{
				"x": 1.0204564211,
				"y": -2.6634489243,
				"z": -0.6404789696,
				"element": "C" 
			},
			{
				"x": 1.1588567925,
				"y": -4.1403801616,
				"z": -0.7544387448,
				"element": "C" 
			},
			{
				"x": 1.0546225554,
				"y": -1.9501325635,
				"z": -1.8077759499,
				"element": "O" 
			},
			{
				"x": 1.1162422657,
				"y": 0.0369990319,
				"z": -3.9978991151,
				"element": "C" 
			},
			{
				"x": 1.1196806019,
				"y": 1.2960029875,
				"z": -4.6264548016,
				"element": "C" 
			},
			{
				"x": 0.9760137404,
				"y": 2.2922844703,
				"z": -3.7114490578,
				"element": "O" 
			},
			{
				"x": 1.2516054946,
				"y": 1.4406309045,
				"z": -6.0019027823,
				"element": "C" 
			},
			{
				"x": 1.2493107499,
				"y": 3.1603048237,
				"z": -6.8079858856,
				"element": "Br" 
			},
			{
				"x": 1.3856737789,
				"y": 0.2887708659,
				"z": -6.772717194,
				"element": "C" 
			},
			{
				"x": 1.3830618358,
				"y": -0.9666612635,
				"z": -6.1444597898,
				"element": "C" 
			},
			{
				"x": 1.570529923,
				"y": -2.5226600289,
				"z": -7.2447638201,
				"element": "Br" 
			},
			{
				"x": 1.251316704,
				"y": -1.1252759732,
				"z": -4.7700530231,
				"element": "C" 
			},
			{
				"x": -4.0552869664,
				"y": -0.0997528045,
				"z": 0.8261604955,
				"element": "H" 
			},
			{
				"x": -3.3977356088,
				"y": -0.9067354431,
				"z": -0.6222498838,
				"element": "H" 
			},
			{
				"x": -3.3281079707,
				"y": -1.7277470024,
				"z": 0.9601873699,
				"element": "H" 
			},
			{
				"x": -3.2839359595,
				"y": -0.5133324923,
				"z": 2.9275281232,
				"element": "H" 
			},
			{
				"x": -2.3544196672,
				"y": -0.0205187492,
				"z": 5.1541606854,
				"element": "H" 
			},
			{
				"x": -0.0251232762,
				"y": 0.856848603,
				"z": 5.3593905555,
				"element": "H" 
			},
			{
				"x": 1.3229213065,
				"y": 1.2125693902,
				"z": 3.3454277131,
				"element": "H" 
			},
			{
				"x": 2.152814533,
				"y": 2.1967999478,
				"z": 1.5509822185,
				"element": "H" 
			},
			{
				"x": 2.6058564335,
				"y": 0.4811192623,
				"z": 1.6717353135,
				"element": "H" 
			},
			{
				"x": 2.7203975888,
				"y": 1.3104495774,
				"z": 0.1267648556,
				"element": "H" 
			},
			{
				"x": -0.1643664566,
				"y": 2.7909317449,
				"z": 0.6193246133,
				"element": "H" 
			},
			{
				"x": -1.0035602809,
				"y": 1.6523386614,
				"z": -0.4215767376,
				"element": "H" 
			},
			{
				"x": 0.1487420256,
				"y": 3.4666518155,
				"z": -1.6493573021,
				"element": "H" 
			},
			{
				"x": 1.7024153207,
				"y": 2.9907330434,
				"z": -1.0119383801,
				"element": "H" 
			},
			{
				"x": 0.7855064104,
				"y": -2.085162477,
				"z": 1.4495842843,
				"element": "H" 
			},
			{
				"x": 2.1100887921,
				"y": -4.4208201417,
				"z": -1.2220982093,
				"element": "H" 
			},
			{
				"x": 1.1199446441,
				"y": -4.5940312424,
				"z": 0.2385642166,
				"element": "H" 
			},
			{
				"x": 0.355654865,
				"y": -4.5749968463,
				"z": -1.3613749661,
				"element": "H" 
			},
			{
				"x": 1.4910522703,
				"y": 0.3638661559,
				"z": -7.8470497765,
				"element": "H" 
			},
			{
				"x": 1.2537048297,
				"y": -2.1044979106,
				"z": -4.3118229429,
				"element": "H" 
			}
		],
		 "valence_orbital": [ 
			{
				"type": "occ",
				"energy": -0.24936,
				"method": "rhf"
			},
			{
				"type": "occ",
				"energy": -0.24148,
				"method": "rhf"
			},
			{
				"type": "occ",
				"energy": -0.23065,
				"method": "rhf"
			},
			{
				"type": "occ",
				"energy": -0.2212,
				"method": "rhf"
			},
			{
				"type": "occ",
				"energy": -0.18887,
				"method": "rhf"
			},
			{
				"type": "unocc",
				"energy": -0.03328,
				"method": "rhf"
			},
			{
				"type": "unocc",
				"energy": -0.00861,
				"method": "rhf"
			},
			{
				"type": "unocc",
				"energy": -0.00626,
				"method": "rhf"
			},
			{
				"type": "unocc",
				"energy": -0.00158,
				"method": "rhf"
			},
			{
				"type": "unocc",
				"energy": 0.0002,
				"method": "rhf"
			}
		],
		"cosmo_sigma_profile": { 
			"-0.025": 0.0,
			"-0.024": 0.0,
			"-0.023": 0.0,
			"-0.022": 0.0,
			"-0.021": 0.0,
			"-0.02": 0.0,
			"-0.019": 0.0,
			"-0.018": 0.0,
			"-0.017": 0.0,
			"-0.016": 0.0,
			"-0.015": 0.0,
			"-0.014": 0.0,
			"-0.013": 0.0,
			"-0.012": 0.0,
			"-0.011": 0.0,
			"-0.01": 0.0,
			"-0.009": 0.00795609526661,
			"-0.008": 0.927205388688,
			"-0.007": 1.20532676235,
			"-0.006": 7.72049837118,
			"-0.005": 30.1893964073,
			"-0.004": 37.5502595566,
			"-0.003": 48.0480388083,
			"-0.002": 35.4480977512,
			"-0.001": 38.7349172888,
			"0.0": 41.8337411326,
			"0.001": 41.9890828311,
			"0.002": 46.7306509525,
			"0.003": 36.9754381322,
			"0.004": 35.9325489206,
			"0.005": 19.5976437541,
			"0.006": 11.7386273092,
			"0.007": 5.45353681217,
			"0.008": 1.53649210101,
			"0.009": 0.916617177588,
			"0.01": 0.132880156315,
			"0.011": 0.0,
			"0.012": 0.0,
			"0.013": 0.0,
			"0.014": 0.0,
			"0.015": 0.0,
			"0.016": 0.0,
			"0.017": 0.0,
			"0.018": 0.0,
			"0.019": 0.0,
			"0.02": 0.0,
			"0.021": 0.0,
			"0.022": 0.0,
			"0.023": 0.0,
			"0.024": 0.0,
			"0.025": 0.0
		}
	}
}
