{
	 "smiles": "OC(=O)C(F)(F)C(F)(F)C(F)(F)C(F)(F)C(F)(F)C(F)(F)C(F)(F)C(F)(F)C(F)(F)C(F)(F)C(F)(F)F", 
	 "Tm": 386.15, 
	 "num_atms": 38, 
	 "gaussian": { 
		 "optdone": 1, 
		 "sigma_profile": "yes", 
		 "theory": "DFT", 
		 "functional": "B3LYP", 
		 "basiset": "6-31G**", 
		 "properties": { 
			 "R2extent": 18780.9617, 
			 "electric_dipole_moment_norm": 1.92435103606, 
			 "electric_quadrupole_moment_norm": 19.5540703998, 
			 "total_energy": -2904.54826781, 
			 "HOMO_LUMO_gap": 0.27087, 
			 "cosmo_polarized_energy": -8.49, 
			 "cosmo_cavitation_energy": 49.95, 
			 "cosmo_dispersion_energy": -31.86, 
			 "cosmo_repulsion_energy": 1.98, 
			 "cosmo_total_nonelectrostatic_energy": 20.07, 
			 "SMD_solvation_energy": 16.34 
		},
		"coords": [
			{
				"x": 4.1890245501,
				"y": -1.8972144152,
				"z": -4.3122167118,
				"element": "O" 
			},
			{
				"x": 3.5776823809,
				"y": -2.750268089,
				"z": -3.4799170211,
				"element": "C" 
			},
			{
				"x": 4.0554058667,
				"y": -3.7508637194,
				"z": -3.0157513918,
				"element": "O" 
			},
			{
				"x": 2.1158810871,
				"y": -2.3130136135,
				"z": -3.2228989157,
				"element": "C" 
			},
			{
				"x": 1.5146870323,
				"y": -3.2566410729,
				"z": -2.4713396637,
				"element": "F" 
			},
			{
				"x": 1.4824981356,
				"y": -2.2315511502,
				"z": -4.4229790476,
				"element": "F" 
			},
			{
				"x": 1.9005145525,
				"y": -0.9372620908,
				"z": -2.5253740445,
				"element": "C" 
			},
			{
				"x": 2.4608287502,
				"y": 0.0314977659,
				"z": -3.2838523284,
				"element": "F" 
			},
			{
				"x": 0.5642353506,
				"y": -0.7298737574,
				"z": -2.4623045451,
				"element": "F" 
			},
			{
				"x": 2.4811024979,
				"y": -0.8533437967,
				"z": -1.0925339014,
				"element": "C" 
			},
			{
				"x": 1.7822204919,
				"y": -1.6625227047,
				"z": -0.2746279222,
				"element": "F" 
			},
			{
				"x": 3.7643858978,
				"y": -1.3136282206,
				"z": -1.154429772,
				"element": "F" 
			},
			{
				"x": 2.5933622868,
				"y": 0.563313584,
				"z": -0.4407044013,
				"element": "C" 
			},
			{
				"x": 3.00021454,
				"y": 0.3563006093,
				"z": 0.8337164806,
				"element": "F" 
			},
			{
				"x": 3.5628903767,
				"y": 1.2297610884,
				"z": -1.1079250282,
				"element": "F" 
			},
			{
				"x": 1.3756348275,
				"y": 1.5427105325,
				"z": -0.3922079658,
				"element": "C" 
			},
			{
				"x": 1.8647290631,
				"y": 2.6829507332,
				"z": 0.1470881819,
				"element": "F" 
			},
			{
				"x": 0.9713358731,
				"y": 1.7951351416,
				"z": -1.65863682,
				"element": "F" 
			},
			{
				"x": 0.1486561688,
				"y": 1.1099505437,
				"z": 0.4595944152,
				"element": "C" 
			},
			{
				"x": -0.259175842,
				"y": -0.1164057139,
				"z": 0.0548098024,
				"element": "F" 
			},
			{
				"x": 0.5368845055,
				"y": 1.0468476107,
				"z": 1.7521365658,
				"element": "F" 
			},
			{
				"x": -1.0731472831,
				"y": 2.0676265597,
				"z": 0.334191255,
				"element": "C" 
			},
			{
				"x": -0.6436639579,
				"y": 3.3468243815,
				"z": 0.4479936097,
				"element": "F" 
			},
			{
				"x": -1.6275965199,
				"y": 1.8992440896,
				"z": -0.8836182226,
				"element": "F" 
			},
			{
				"x": -2.1944523833,
				"y": 1.9088726502,
				"z": 1.4150113666,
				"element": "C" 
			},
			{
				"x": -3.1699271132,
				"y": 2.7772018903,
				"z": 1.056810585,
				"element": "F" 
			},
			{
				"x": -1.6860059986,
				"y": 2.2867101741,
				"z": 2.6098308292,
				"element": "F" 
			},
			{
				"x": -2.8224359385,
				"y": 0.5008220605,
				"z": 1.5741936593,
				"element": "C" 
			},
			{
				"x": -3.0715497932,
				"y": -0.0050891604,
				"z": 0.3434912873,
				"element": "F" 
			},
			{
				"x": -1.9292457226,
				"y": -0.2934304319,
				"z": 2.2078359825,
				"element": "F" 
			},
			{
				"x": -4.1724153765,
				"y": 0.4226416125,
				"z": 2.351231949,
				"element": "C" 
			},
			{
				"x": -4.4663054537,
				"y": -0.8947234629,
				"z": 2.4500494991,
				"element": "F" 
			},
			{
				"x": -5.1314280055,
				"y": 1.0342551673,
				"z": 1.6244261145,
				"element": "F" 
			},
			{
				"x": -4.2052478057,
				"y": 1.0104648242,
				"z": 3.7828290656,
				"element": "C" 
			},
			{
				"x": -4.1431091586,
				"y": 2.347726694,
				"z": 3.7386686836,
				"element": "F" 
			},
			{
				"x": -5.3518465509,
				"y": 0.6536105129,
				"z": 4.3711392117,
				"element": "F" 
			},
			{
				"x": -3.1805461447,
				"y": 0.5454043046,
				"z": 4.5073461277,
				"element": "F" 
			},
			{
				"x": 5.0896248128,
				"y": -2.2356411316,
				"z": -4.4566769684,
				"element": "H" 
			}
		],
		 "valence_orbital": [ 
			{
				"type": "occ",
				"energy": -0.36812,
				"method": "rhf"
			},
			{
				"type": "occ",
				"energy": -0.36003,
				"method": "rhf"
			},
			{
				"type": "occ",
				"energy": -0.35492,
				"method": "rhf"
			},
			{
				"type": "occ",
				"energy": -0.34839,
				"method": "rhf"
			},
			{
				"type": "occ",
				"energy": -0.31275,
				"method": "rhf"
			},
			{
				"type": "unocc",
				"energy": -0.04188,
				"method": "rhf"
			},
			{
				"type": "unocc",
				"energy": -0.00363,
				"method": "rhf"
			},
			{
				"type": "unocc",
				"energy": 0.00826,
				"method": "rhf"
			},
			{
				"type": "unocc",
				"energy": 0.02197,
				"method": "rhf"
			},
			{
				"type": "unocc",
				"energy": 0.02332,
				"method": "rhf"
			}
		],
		"cosmo_sigma_profile": { 
			"-0.025": 0.0,
			"-0.024": 0.0,
			"-0.023": 0.0,
			"-0.022": 0.0,
			"-0.021": 0.327967737613,
			"-0.02": 1.06499028432,
			"-0.019": 1.39960698929,
			"-0.018": 0.605148382131,
			"-0.017": 0.471120132078,
			"-0.016": 0.162071075815,
			"-0.015": 1.11344931787,
			"-0.014": 1.34574178471,
			"-0.013": 1.03007855144,
			"-0.012": 0.444089629478,
			"-0.011": 0.58375415697,
			"-0.01": 1.26734891942,
			"-0.009": 0.384990881371,
			"-0.008": 0.528447000802,
			"-0.007": 1.29832175303,
			"-0.006": 2.37450239236,
			"-0.005": 2.79281331552,
			"-0.004": 5.37664956765,
			"-0.003": 10.0005835427,
			"-0.002": 21.6134513695,
			"-0.001": 41.6646247613,
			"0.0": 121.636699341,
			"0.001": 139.480087168,
			"0.002": 17.2405642888,
			"0.003": 5.33867636274,
			"0.004": 3.6962299045,
			"0.005": 3.37338081396,
			"0.006": 2.93106499333,
			"0.007": 2.28029889333,
			"0.008": 2.63749076757,
			"0.009": 4.88217639043,
			"0.01": 1.9702806682,
			"0.011": 0.0,
			"0.012": 0.0,
			"0.013": 0.0,
			"0.014": 0.0,
			"0.015": 0.0,
			"0.016": 0.0,
			"0.017": 0.0,
			"0.018": 0.0,
			"0.019": 0.0,
			"0.02": 0.0,
			"0.021": 0.0,
			"0.022": 0.0,
			"0.023": 0.0,
			"0.024": 0.0,
			"0.025": 0.0
		}
	}
}
