{
	 "smiles": "COCC1=CC=C(CNC(=O)CCl)C=C1", 
	 "Tm": 357.15, 
	 "num_atms": 29, 
	 "gaussian": { 
		 "optdone": 1, 
		 "sigma_profile": "yes", 
		 "theory": "DFT", 
		 "functional": "B3LYP", 
		 "basiset": "6-31G**", 
		 "properties": { 
			 "R2extent": 5739.6767, 
			 "electric_dipole_moment_norm": 4.39085447948, 
			 "electric_quadrupole_moment_norm": 24.8336848635, 
			 "total_energy": -1092.99288878, 
			 "HOMO_LUMO_gap": 0.23084, 
			 "cosmo_polarized_energy": -18.24, 
			 "cosmo_cavitation_energy": 34.48, 
			 "cosmo_dispersion_energy": -24.08, 
			 "cosmo_repulsion_energy": 1.95, 
			 "cosmo_total_nonelectrostatic_energy": 12.34, 
			 "SMD_solvation_energy": 6.42 
		},
		"coords": [
			{
				"x": -0.7323393719,
				"y": -5.1943589267,
				"z": 0.5167555859,
				"element": "C" 
			},
			{
				"x": 0.6757804684,
				"y": -5.0605685199,
				"z": 0.4280768162,
				"element": "O" 
			},
			{
				"x": 1.0990176032,
				"y": -4.2868486239,
				"z": -0.6800805144,
				"element": "C" 
			},
			{
				"x": 0.8473435709,
				"y": -2.7964392686,
				"z": -0.525574779,
				"element": "C" 
			},
			{
				"x": 0.5035743444,
				"y": -2.003314773,
				"z": -1.6238838183,
				"element": "C" 
			},
			{
				"x": 0.3231564006,
				"y": -0.6255177231,
				"z": -1.4864170246,
				"element": "C" 
			},
			{
				"x": 0.4687105284,
				"y": -0.0119350247,
				"z": -0.238776186,
				"element": "C" 
			},
			{
				"x": 0.3205480827,
				"y": 1.4953102201,
				"z": -0.0574417216,
				"element": "C" 
			},
			{
				"x": -0.4891476124,
				"y": 2.1826781819,
				"z": -1.0533937708,
				"element": "N" 
			},
			{
				"x": -1.8586197985,
				"y": 2.1965910047,
				"z": -1.175523185,
				"element": "C" 
			},
			{
				"x": -2.4141565303,
				"y": 2.743590831,
				"z": -2.1098671047,
				"element": "O" 
			},
			{
				"x": -2.5999842514,
				"y": 1.4942031111,
				"z": -0.0286969668,
				"element": "C" 
			},
			{
				"x": -4.3710891705,
				"y": 1.4685412729,
				"z": -0.2730219326,
				"element": "Cl" 
			},
			{
				"x": 0.7969925834,
				"y": -0.8095810922,
				"z": 0.8661166781,
				"element": "C" 
			},
			{
				"x": 0.9903853305,
				"y": -2.1815880604,
				"z": 0.725016272,
				"element": "C" 
			},
			{
				"x": -0.9381941049,
				"y": -5.8262644976,
				"z": 1.3837676232,
				"element": "H" 
			},
			{
				"x": -1.2337951642,
				"y": -4.2263059747,
				"z": 0.6534607951,
				"element": "H" 
			},
			{
				"x": -1.1465348077,
				"y": -5.6769949956,
				"z": -0.3819700118,
				"element": "H" 
			},
			{
				"x": 0.6329458102,
				"y": -4.6479392433,
				"z": -1.6115617135,
				"element": "H" 
			},
			{
				"x": 2.1769781474,
				"y": -4.4718725501,
				"z": -0.763858411,
				"element": "H" 
			},
			{
				"x": 0.3713582727,
				"y": -2.4640876359,
				"z": -2.6001807681,
				"element": "H" 
			},
			{
				"x": 0.0487404271,
				"y": -0.0287935563,
				"z": -2.351237089,
				"element": "H" 
			},
			{
				"x": -0.068894436,
				"y": 1.7021555075,
				"z": 0.9464924835,
				"element": "H" 
			},
			{
				"x": 1.3115027735,
				"y": 1.9634236511,
				"z": -0.0861460756,
				"element": "H" 
			},
			{
				"x": -0.0221392796,
				"y": 2.6406555663,
				"z": -1.8242777034,
				"element": "H" 
			},
			{
				"x": -2.2593904959,
				"y": 0.4615115521,
				"z": 0.0703735271,
				"element": "H" 
			},
			{
				"x": -2.4055488602,
				"y": 2.0114867282,
				"z": 0.9146121155,
				"element": "H" 
			},
			{
				"x": 0.9030414625,
				"y": -0.3517596161,
				"z": 1.8476241855,
				"element": "H" 
			},
			{
				"x": 1.2363580775,
				"y": -2.7938775448,
				"z": 1.587412694,
				"element": "H" 
			}
		],
		 "valence_orbital": [ 
			{
				"type": "occ",
				"energy": -0.26609,
				"method": "rhf"
			},
			{
				"type": "occ",
				"energy": -0.26502,
				"method": "rhf"
			},
			{
				"type": "occ",
				"energy": -0.26303,
				"method": "rhf"
			},
			{
				"type": "occ",
				"energy": -0.25985,
				"method": "rhf"
			},
			{
				"type": "occ",
				"energy": -0.24971,
				"method": "rhf"
			},
			{
				"type": "unocc",
				"energy": -0.01887,
				"method": "rhf"
			},
			{
				"type": "unocc",
				"energy": -0.01627,
				"method": "rhf"
			},
			{
				"type": "unocc",
				"energy": 0.01627,
				"method": "rhf"
			},
			{
				"type": "unocc",
				"energy": 0.02562,
				"method": "rhf"
			},
			{
				"type": "unocc",
				"energy": 0.07872,
				"method": "rhf"
			}
		],
		"cosmo_sigma_profile": { 
			"-0.025": 0.0,
			"-0.024": 0.0,
			"-0.023": 0.0,
			"-0.022": 0.0,
			"-0.021": 0.0,
			"-0.02": 0.0,
			"-0.019": 0.0,
			"-0.018": 0.0,
			"-0.017": 0.0,
			"-0.016": 0.0,
			"-0.015": 0.00714345215307,
			"-0.014": 0.89142527541,
			"-0.013": 1.57147951166,
			"-0.012": 1.03953013595,
			"-0.011": 0.745013349982,
			"-0.01": 2.32073318246,
			"-0.009": 4.59434341476,
			"-0.008": 4.17018551854,
			"-0.007": 7.04887214794,
			"-0.006": 11.5329769015,
			"-0.005": 21.4052529573,
			"-0.004": 24.4337970308,
			"-0.003": 25.2348969613,
			"-0.002": 25.0864556753,
			"-0.001": 18.8094037654,
			"0.0": 13.5774855422,
			"0.001": 15.1893262176,
			"0.002": 12.996486869,
			"0.003": 13.3689580025,
			"0.004": 11.9141706033,
			"0.005": 15.6373591476,
			"0.006": 11.0947875038,
			"0.007": 4.7943022566,
			"0.008": 2.98364416031,
			"0.009": 2.6585097576,
			"0.01": 2.11964739175,
			"0.011": 3.50947430131,
			"0.012": 4.243921083,
			"0.013": 7.46459510268,
			"0.014": 3.29192540436,
			"0.015": 0.548082324002,
			"0.016": 0.0,
			"0.017": 0.0,
			"0.018": 0.0,
			"0.019": 0.0,
			"0.02": 0.0,
			"0.021": 0.0,
			"0.022": 0.0,
			"0.023": 0.0,
			"0.024": 0.0,
			"0.025": 0.0
		}
	}
}
