{
	 "smiles": "NC1=C(C=O)C=C(Br)C=C1Br", 
	 "Tm": 411.15, 
	 "num_atms": 16, 
	 "gaussian": { 
		 "optdone": 1, 
		 "sigma_profile": "yes", 
		 "theory": "DFT", 
		 "functional": "B3LYP", 
		 "basiset": "6-31G**", 
		 "properties": { 
			 "R2extent": 5666.7603, 
			 "electric_dipole_moment_norm": 0.704725258523, 
			 "electric_quadrupole_moment_norm": 7.22822152192, 
			 "total_energy": -5542.54554006, 
			 "HOMO_LUMO_gap": 0.145, 
			 "cosmo_polarized_energy": -7.31, 
			 "cosmo_cavitation_energy": 24.91, 
			 "cosmo_dispersion_energy": -19.51, 
			 "cosmo_repulsion_energy": 1.55, 
			 "cosmo_total_nonelectrostatic_energy": 6.95, 
			 "SMD_solvation_energy": 2.79 
		},
		"coords": [
			{
				"x": -0.1057261867,
				"y": -0.0864664418,
				"z": 1.3498980151,
				"element": "N" 
			},
			{
				"x": 0.8207281979,
				"y": 0.0302339045,
				"z": 0.3759153595,
				"element": "C" 
			},
			{
				"x": 2.0903096497,
				"y": -0.6204074838,
				"z": 0.4850731229,
				"element": "C" 
			},
			{
				"x": 2.4298560478,
				"y": -1.4332590643,
				"z": 1.6509438234,
				"element": "C" 
			},
			{
				"x": 1.7044173704,
				"y": -1.64120533,
				"z": 2.6200366476,
				"element": "O" 
			},
			{
				"x": 3.051074578,
				"y": -0.4942565706,
				"z": -0.5333458696,
				"element": "C" 
			},
			{
				"x": 2.7892185418,
				"y": 0.2604469248,
				"z": -1.6605543086,
				"element": "C" 
			},
			{
				"x": 4.0943102031,
				"y": 0.4309738908,
				"z": -3.042815543,
				"element": "Br" 
			},
			{
				"x": 1.5543735713,
				"y": 0.9095830471,
				"z": -1.7959827282,
				"element": "C" 
			},
			{
				"x": 0.6005558293,
				"y": 0.793221695,
				"z": -0.800680008,
				"element": "C" 
			},
			{
				"x": -1.0739226739,
				"y": 1.6930390372,
				"z": -1.0202447118,
				"element": "Br" 
			},
			{
				"x": 0.1296368035,
				"y": -0.6508812929,
				"z": 2.1586758762,
				"element": "H" 
			},
			{
				"x": -0.9946550004,
				"y": 0.3773444485,
				"z": 1.2562183565,
				"element": "H" 
			},
			{
				"x": 3.4433331427,
				"y": -1.8835428935,
				"z": 1.6148623307,
				"element": "H" 
			},
			{
				"x": 4.0047483552,
				"y": -1.0003231586,
				"z": -0.4206895752,
				"element": "H" 
			},
			{
				"x": 1.3431415703,
				"y": 1.5024992875,
				"z": -2.6773107872,
				"element": "H" 
			}
		],
		 "valence_orbital": [ 
			{
				"type": "occ",
				"energy": -0.29557,
				"method": "rhf"
			},
			{
				"type": "occ",
				"energy": -0.29488,
				"method": "rhf"
			},
			{
				"type": "occ",
				"energy": -0.27036,
				"method": "rhf"
			},
			{
				"type": "occ",
				"energy": -0.26923,
				"method": "rhf"
			},
			{
				"type": "occ",
				"energy": -0.21964,
				"method": "rhf"
			},
			{
				"type": "unocc",
				"energy": -0.07464,
				"method": "rhf"
			},
			{
				"type": "unocc",
				"energy": -0.02191,
				"method": "rhf"
			},
			{
				"type": "unocc",
				"energy": -0.01588,
				"method": "rhf"
			},
			{
				"type": "unocc",
				"energy": 0.01675,
				"method": "rhf"
			},
			{
				"type": "unocc",
				"energy": 0.02289,
				"method": "rhf"
			}
		],
		"cosmo_sigma_profile": { 
			"-0.025": 0.0,
			"-0.024": 0.0,
			"-0.023": 0.0,
			"-0.022": 0.0,
			"-0.021": 0.0,
			"-0.02": 0.0,
			"-0.019": 0.0,
			"-0.018": 0.0,
			"-0.017": 0.0,
			"-0.016": 0.0,
			"-0.015": 0.0,
			"-0.014": 0.0160394365298,
			"-0.013": 0.550400569164,
			"-0.012": 0.716590236162,
			"-0.011": 0.907335420633,
			"-0.01": 1.4296314458,
			"-0.009": 3.64509520557,
			"-0.008": 5.91351183986,
			"-0.007": 6.66706188918,
			"-0.006": 6.46190709297,
			"-0.005": 7.93984930021,
			"-0.004": 8.5739633577,
			"-0.003": 10.7530224819,
			"-0.002": 12.3858992762,
			"-0.001": 15.2952439562,
			"0.0": 22.0400890017,
			"0.001": 27.0955640728,
			"0.002": 22.1016355906,
			"0.003": 16.4396626475,
			"0.004": 18.5410247629,
			"0.005": 6.78826648594,
			"0.006": 1.6838285056,
			"0.007": 1.41940145601,
			"0.008": 1.65818935327,
			"0.009": 1.81293772842,
			"0.01": 1.69122626942,
			"0.011": 2.14705031013,
			"0.012": 1.72435125545,
			"0.013": 0.624456081141,
			"0.014": 0.0,
			"0.015": 0.0,
			"0.016": 0.0,
			"0.017": 0.0,
			"0.018": 0.0,
			"0.019": 0.0,
			"0.02": 0.0,
			"0.021": 0.0,
			"0.022": 0.0,
			"0.023": 0.0,
			"0.024": 0.0,
			"0.025": 0.0
		}
	}
}
