{
	 "smiles": "FC1=CC(=CC=C1)C(=O)CN1C=CN=C1", 
	 "Tm": 387.15, 
	 "num_atms": 24, 
	 "gaussian": { 
		 "optdone": 1, 
		 "sigma_profile": "yes", 
		 "theory": "DFT", 
		 "functional": "B3LYP", 
		 "basiset": "6-31G**", 
		 "properties": { 
			 "R2extent": 3575.3478, 
			 "electric_dipole_moment_norm": 3.66601299779, 
			 "electric_quadrupole_moment_norm": 16.6617841716, 
			 "total_energy": -709.13438493, 
			 "HOMO_LUMO_gap": 0.15174, 
			 "cosmo_polarized_energy": -14.86, 
			 "cosmo_cavitation_energy": 29.36, 
			 "cosmo_dispersion_energy": -20.37, 
			 "cosmo_repulsion_energy": 1.55, 
			 "cosmo_total_nonelectrostatic_energy": 10.54, 
			 "SMD_solvation_energy": 5.14 
		},
		"coords": [
			{
				"x": 3.3911231862,
				"y": 0.9709614259,
				"z": 1.5396701609,
				"element": "F" 
			},
			{
				"x": 2.0865075343,
				"y": 0.8799101306,
				"z": 1.8654706428,
				"element": "C" 
			},
			{
				"x": 1.1797522961,
				"y": 0.4934030889,
				"z": 0.8876292214,
				"element": "C" 
			},
			{
				"x": -0.1787815955,
				"y": 0.3964580131,
				"z": 1.2262535107,
				"element": "C" 
			},
			{
				"x": -0.5910555126,
				"y": 0.6927949206,
				"z": 2.5362352046,
				"element": "C" 
			},
			{
				"x": 0.3404933318,
				"y": 1.0792273883,
				"z": 3.4952726437,
				"element": "C" 
			},
			{
				"x": 1.6951000992,
				"y": 1.17542813,
				"z": 3.1667519349,
				"element": "C" 
			},
			{
				"x": -1.2260379001,
				"y": -0.0400792804,
				"z": 0.2527013303,
				"element": "C" 
			},
			{
				"x": -2.3952456684,
				"y": -0.1511257286,
				"z": 0.5843572969,
				"element": "O" 
			},
			{
				"x": -0.8424163165,
				"y": -0.3904709896,
				"z": -1.1978330408,
				"element": "C" 
			},
			{
				"x": -0.3334024191,
				"y": 0.75060113,
				"z": -1.9465744251,
				"element": "N" 
			},
			{
				"x": 0.8089619691,
				"y": 0.7933850336,
				"z": -2.7272537749,
				"element": "C" 
			},
			{
				"x": 0.8474079575,
				"y": 2.0603139407,
				"z": -3.2539307267,
				"element": "C" 
			},
			{
				"x": -0.2330460647,
				"y": 2.7977686596,
				"z": -2.8261629914,
				"element": "N" 
			},
			{
				"x": -0.9189510228,
				"y": 1.9859783512,
				"z": -2.0508926865,
				"element": "C" 
			},
			{
				"x": 1.5464501994,
				"y": 0.2998714892,
				"z": -0.112711022,
				"element": "H" 
			},
			{
				"x": -1.6450323603,
				"y": 0.608968323,
				"z": 2.7752879131,
				"element": "H" 
			},
			{
				"x": 0.0174067791,
				"y": 1.3071231547,
				"z": 4.5062767539,
				"element": "H" 
			},
			{
				"x": 2.4421599152,
				"y": 1.4740594433,
				"z": 3.8942257687,
				"element": "H" 
			},
			{
				"x": -0.0743826882,
				"y": -1.1696094412,
				"z": -1.2042222698,
				"element": "H" 
			},
			{
				"x": -1.7451204865,
				"y": -0.7916175892,
				"z": -1.6665166659,
				"element": "H" 
			},
			{
				"x": 1.4535756454,
				"y": -0.0658094831,
				"z": -2.8382435292,
				"element": "H" 
			},
			{
				"x": 1.5910994123,
				"y": 2.4809259953,
				"z": -3.9166390031,
				"element": "H" 
			},
			{
				"x": -1.8414662913,
				"y": 2.2243338942,
				"z": -1.5381522465,
				"element": "H" 
			}
		],
		 "valence_orbital": [ 
			{
				"type": "occ",
				"energy": -0.27984,
				"method": "rhf"
			},
			{
				"type": "occ",
				"energy": -0.26635,
				"method": "rhf"
			},
			{
				"type": "occ",
				"energy": -0.26329,
				"method": "rhf"
			},
			{
				"type": "occ",
				"energy": -0.26222,
				"method": "rhf"
			},
			{
				"type": "occ",
				"energy": -0.2313,
				"method": "rhf"
			},
			{
				"type": "unocc",
				"energy": -0.07956,
				"method": "rhf"
			},
			{
				"type": "unocc",
				"energy": -0.01931,
				"method": "rhf"
			},
			{
				"type": "unocc",
				"energy": 0.01715,
				"method": "rhf"
			},
			{
				"type": "unocc",
				"energy": 0.01865,
				"method": "rhf"
			},
			{
				"type": "unocc",
				"energy": 0.05825,
				"method": "rhf"
			}
		],
		"cosmo_sigma_profile": { 
			"-0.025": 0.0,
			"-0.024": 0.0,
			"-0.023": 0.0,
			"-0.022": 0.0,
			"-0.021": 0.0,
			"-0.02": 0.0,
			"-0.019": 0.0,
			"-0.018": 0.0,
			"-0.017": 0.0,
			"-0.016": 0.0,
			"-0.015": 0.0,
			"-0.014": 0.0,
			"-0.013": 0.0,
			"-0.012": 0.147008771691,
			"-0.011": 1.06021978208,
			"-0.01": 2.13590192947,
			"-0.009": 6.38335386252,
			"-0.008": 7.91732990146,
			"-0.007": 11.53363315,
			"-0.006": 15.602916797,
			"-0.005": 15.759966912,
			"-0.004": 12.5440859754,
			"-0.003": 11.0983673619,
			"-0.002": 11.7006252042,
			"-0.001": 13.4901964951,
			"0.0": 18.135540342,
			"0.001": 21.1786576143,
			"0.002": 17.83623843,
			"0.003": 15.0151551333,
			"0.004": 15.5244878702,
			"0.005": 7.03310809822,
			"0.006": 4.3292724707,
			"0.007": 3.20264504264,
			"0.008": 3.11885499022,
			"0.009": 3.88851436013,
			"0.01": 4.36110649023,
			"0.011": 4.55257851157,
			"0.012": 2.22450287019,
			"0.013": 1.4146365134,
			"0.014": 1.09838800313,
			"0.015": 0.979866940234,
			"0.016": 1.20005182094,
			"0.017": 1.26168092138,
			"0.018": 0.528831483386,
			"0.019": 0.00529121221792,
			"0.02": 0.0,
			"0.021": 0.0,
			"0.022": 0.0,
			"0.023": 0.0,
			"0.024": 0.0,
			"0.025": 0.0
		}
	}
}
