{
	 "smiles": "CCN(CC)C(=O)N1CCCC(C1)C(O)=O", 
	 "Tm": 368.15, 
	 "num_atms": 36, 
	 "gaussian": { 
		 "optdone": 1, 
		 "sigma_profile": "yes", 
		 "theory": "DFT", 
		 "functional": "B3LYP", 
		 "basiset": "6-31G**", 
		 "properties": { 
			 "R2extent": 4634.34, 
			 "electric_dipole_moment_norm": 4.27691369331, 
			 "electric_quadrupole_moment_norm": 12.3735704172, 
			 "total_energy": -766.434669526, 
			 "HOMO_LUMO_gap": 0.22673, 
			 "cosmo_polarized_energy": -16.06, 
			 "cosmo_cavitation_energy": 36.5, 
			 "cosmo_dispersion_energy": -25.01, 
			 "cosmo_repulsion_energy": 1.98, 
			 "cosmo_total_nonelectrostatic_energy": 13.47, 
			 "SMD_solvation_energy": 6.67 
		},
		"coords": [
			{
				"x": 2.7009385738,
				"y": 3.3114799267,
				"z": -1.6822078487,
				"element": "C" 
			},
			{
				"x": 2.3242037041,
				"y": 2.0294704014,
				"z": -2.4249185922,
				"element": "C" 
			},
			{
				"x": 1.8127212534,
				"y": 0.9860679096,
				"z": -1.5178566768,
				"element": "N" 
			},
			{
				"x": 2.1975610994,
				"y": -0.3925231435,
				"z": -1.8668656544,
				"element": "C" 
			},
			{
				"x": 1.5979928705,
				"y": -0.8983401472,
				"z": -3.1853717992,
				"element": "C" 
			},
			{
				"x": 0.5236562939,
				"y": 1.2305427961,
				"z": -1.0243376642,
				"element": "C" 
			},
			{
				"x": -0.1895815216,
				"y": 2.1313914951,
				"z": -1.4588656745,
				"element": "O" 
			},
			{
				"x": 0.0889247155,
				"y": 0.3912962843,
				"z": -0.0008086121,
				"element": "N" 
			},
			{
				"x": 0.9656373351,
				"y": -0.0233989298,
				"z": 1.0989413089,
				"element": "C" 
			},
			{
				"x": 0.618143856,
				"y": -1.4594968557,
				"z": 1.5405436324,
				"element": "C" 
			},
			{
				"x": -0.8782813098,
				"y": -1.756690821,
				"z": 1.3056638258,
				"element": "C" 
			},
			{
				"x": -1.7105973763,
				"y": -0.4621715258,
				"z": 1.4681438419,
				"element": "C" 
			},
			{
				"x": -1.3102037201,
				"y": 0.582451841,
				"z": 0.4037999927,
				"element": "C" 
			},
			{
				"x": -3.1922375387,
				"y": -0.782401738,
				"z": 1.381050239,
				"element": "C" 
			},
			{
				"x": -3.6560119242,
				"y": -1.2844677129,
				"z": 2.5530684303,
				"element": "O" 
			},
			{
				"x": -3.8998784685,
				"y": -0.6566741267,
				"z": 0.4059330283,
				"element": "O" 
			},
			{
				"x": 3.1118524287,
				"y": 4.0459689581,
				"z": -2.3830950619,
				"element": "H" 
			},
			{
				"x": 1.820842481,
				"y": 3.751492702,
				"z": -1.2084663256,
				"element": "H" 
			},
			{
				"x": 3.4532893965,
				"y": 3.1104980007,
				"z": -0.9127073414,
				"element": "H" 
			},
			{
				"x": 3.2125415408,
				"y": 1.614918127,
				"z": -2.9121640477,
				"element": "H" 
			},
			{
				"x": 1.5884180123,
				"y": 2.2558562835,
				"z": -3.2054164818,
				"element": "H" 
			},
			{
				"x": 1.8951671237,
				"y": -1.0607161015,
				"z": -1.0600909529,
				"element": "H" 
			},
			{
				"x": 3.2924034487,
				"y": -0.4285826145,
				"z": -1.912437193,
				"element": "H" 
			},
			{
				"x": 1.933533917,
				"y": -1.9216550096,
				"z": -3.3865522941,
				"element": "H" 
			},
			{
				"x": 1.8986453936,
				"y": -0.2746079274,
				"z": -4.0324681924,
				"element": "H" 
			},
			{
				"x": 0.5044537222,
				"y": -0.9013677842,
				"z": -3.1381872732,
				"element": "H" 
			},
			{
				"x": 0.8285346063,
				"y": 0.6693389198,
				"z": 1.9453032484,
				"element": "H" 
			},
			{
				"x": 2.006289433,
				"y": 0.0712120904,
				"z": 0.791136044,
				"element": "H" 
			},
			{
				"x": 0.8703778749,
				"y": -1.5766179555,
				"z": 2.6008822847,
				"element": "H" 
			},
			{
				"x": 1.2215387108,
				"y": -2.1899884266,
				"z": 0.9900510587,
				"element": "H" 
			},
			{
				"x": -1.2340423542,
				"y": -2.5260205086,
				"z": 1.9971488424,
				"element": "H" 
			},
			{
				"x": -1.0298858701,
				"y": -2.135669066,
				"z": 0.2893165628,
				"element": "H" 
			},
			{
				"x": -1.5326136406,
				"y": -0.0755974559,
				"z": 2.478490258,
				"element": "H" 
			},
			{
				"x": -1.9468327129,
				"y": 0.4694354356,
				"z": -0.475217009,
				"element": "H" 
			},
			{
				"x": -1.4715467869,
				"y": 1.59981974,
				"z": 0.7866863522,
				"element": "H" 
			},
			{
				"x": -4.5917545676,
				"y": -1.5002530609,
				"z": 2.4018757446,
				"element": "H" 
			}
		],
		 "valence_orbital": [ 
			{
				"type": "occ",
				"energy": -0.31983,
				"method": "rhf"
			},
			{
				"type": "occ",
				"energy": -0.27705,
				"method": "rhf"
			},
			{
				"type": "occ",
				"energy": -0.25899,
				"method": "rhf"
			},
			{
				"type": "occ",
				"energy": -0.23018,
				"method": "rhf"
			},
			{
				"type": "occ",
				"energy": -0.2226,
				"method": "rhf"
			},
			{
				"type": "unocc",
				"energy": 0.00413,
				"method": "rhf"
			},
			{
				"type": "unocc",
				"energy": 0.03646,
				"method": "rhf"
			},
			{
				"type": "unocc",
				"energy": 0.06761,
				"method": "rhf"
			},
			{
				"type": "unocc",
				"energy": 0.07958,
				"method": "rhf"
			},
			{
				"type": "unocc",
				"energy": 0.09583,
				"method": "rhf"
			}
		],
		"cosmo_sigma_profile": { 
			"-0.025": 0.0,
			"-0.024": 0.0,
			"-0.023": 0.0,
			"-0.022": 0.0,
			"-0.021": 0.0,
			"-0.02": 0.0,
			"-0.019": 0.0810576108453,
			"-0.018": 0.622860568466,
			"-0.017": 0.838857875221,
			"-0.016": 0.922656339643,
			"-0.015": 1.11957210676,
			"-0.014": 0.343715363946,
			"-0.013": 0.39561863108,
			"-0.012": 0.641760950172,
			"-0.011": 1.09119709099,
			"-0.01": 0.81125155418,
			"-0.009": 0.333566876743,
			"-0.008": 0.364250358054,
			"-0.007": 1.19841283874,
			"-0.006": 2.8338820238,
			"-0.005": 11.4426625389,
			"-0.004": 24.5807348443,
			"-0.003": 38.0453761509,
			"-0.002": 40.3380223159,
			"-0.001": 37.5136861046,
			"0.0": 27.3991692389,
			"0.001": 21.67375198,
			"0.002": 12.6774296218,
			"0.003": 6.80840451361,
			"0.004": 5.89614207504,
			"0.005": 4.88995263202,
			"0.006": 4.50583540663,
			"0.007": 4.2986194186,
			"0.008": 4.62113061637,
			"0.009": 4.29491076143,
			"0.01": 3.64372659366,
			"0.011": 5.93399788002,
			"0.012": 4.91318577405,
			"0.013": 1.94931220478,
			"0.014": 4.26781746536,
			"0.015": 1.45503462348,
			"0.016": 0.0,
			"0.017": 0.0,
			"0.018": 0.0,
			"0.019": 0.0,
			"0.02": 0.0,
			"0.021": 0.0,
			"0.022": 0.0,
			"0.023": 0.0,
			"0.024": 0.0,
			"0.025": 0.0
		}
	}
}
