{
	 "smiles": "CC(C)OC(=O)C1(CCCCC1)S(=O)(=O)C1=CC=C(C=C1)N(=O)=O", 
	 "Tm": 383.15, 
	 "num_atms": 45, 
	 "gaussian": { 
		 "optdone": 1, 
		 "sigma_profile": "yes", 
		 "theory": "DFT", 
		 "functional": "B3LYP", 
		 "basiset": "6-31G**", 
		 "properties": { 
			 "R2extent": 10487.5207, 
			 "electric_dipole_moment_norm": 5.49708915154, 
			 "electric_quadrupole_moment_norm": 26.926849372, 
			 "total_energy": -1526.50149905, 
			 "HOMO_LUMO_gap": 0.17808, 
			 "cosmo_polarized_energy": -16.8, 
			 "cosmo_cavitation_energy": 47.49, 
			 "cosmo_dispersion_energy": -32.08, 
			 "cosmo_repulsion_energy": 2.41, 
			 "cosmo_total_nonelectrostatic_energy": 17.82, 
			 "SMD_solvation_energy": 9.58 
		},
		"coords": [
			{
				"x": 2.3331946054,
				"y": -1.7862168976,
				"z": -3.0854090618,
				"element": "C" 
			},
			{
				"x": 1.0936333417,
				"y": -0.9633917537,
				"z": -2.7692011308,
				"element": "C" 
			},
			{
				"x": -0.1075396022,
				"y": -1.2860272224,
				"z": -3.6499308536,
				"element": "C" 
			},
			{
				"x": 0.7619161786,
				"y": -1.2672843437,
				"z": -1.3741053015,
				"element": "O" 
			},
			{
				"x": 0.1475298112,
				"y": -0.3172870662,
				"z": -0.6632037567,
				"element": "C" 
			},
			{
				"x": -0.2035351288,
				"y": 0.7599089376,
				"z": -1.1078235648,
				"element": "O" 
			},
			{
				"x": -0.0890314821,
				"y": -0.7104473653,
				"z": 0.8017981376,
				"element": "C" 
			},
			{
				"x": -1.5383264269,
				"y": -0.3167035532,
				"z": 1.2099888126,
				"element": "C" 
			},
			{
				"x": -2.0958191536,
				"y": -1.2270976445,
				"z": 2.3100861411,
				"element": "C" 
			},
			{
				"x": -2.1832412551,
				"y": -2.6942763514,
				"z": 1.8330921689,
				"element": "C" 
			},
			{
				"x": -1.0248056119,
				"y": -3.0587651856,
				"z": 0.8723732292,
				"element": "C" 
			},
			{
				"x": 0.216372983,
				"y": -2.19212772,
				"z": 1.1350461925,
				"element": "C" 
			},
			{
				"x": 1.1827203606,
				"y": 0.2832636445,
				"z": 1.7848758571,
				"element": "S" 
			},
			{
				"x": 2.471122153,
				"y": 0.1312555586,
				"z": 1.0869737745,
				"element": "O" 
			},
			{
				"x": 1.0310249733,
				"y": -0.113621909,
				"z": 3.1972667565,
				"element": "O" 
			},
			{
				"x": 0.7360773998,
				"y": 2.0385692976,
				"z": 1.7102586554,
				"element": "C" 
			},
			{
				"x": 1.2021664291,
				"y": 2.8232793188,
				"z": 0.6530569229,
				"element": "C" 
			},
			{
				"x": 0.9155906746,
				"y": 4.1855575069,
				"z": 0.6425052711,
				"element": "C" 
			},
			{
				"x": 0.1739115135,
				"y": 4.7211808746,
				"z": 1.6936871825,
				"element": "C" 
			},
			{
				"x": -0.2819088057,
				"y": 3.9508183735,
				"z": 2.7608500682,
				"element": "C" 
			},
			{
				"x": 0.00924919,
				"y": 2.5884948961,
				"z": 2.7692243539,
				"element": "C" 
			},
			{
				"x": -0.1326498499,
				"y": 6.1658013493,
				"z": 1.6814658815,
				"element": "N" 
			},
			{
				"x": -0.7941455603,
				"y": 6.6131880417,
				"z": 2.6161810129,
				"element": "O" 
			},
			{
				"x": 0.2918921605,
				"y": 6.8281305917,
				"z": 0.7370902024,
				"element": "O" 
			},
			{
				"x": 2.1217985257,
				"y": -2.8570625199,
				"z": -3.0035530004,
				"element": "H" 
			},
			{
				"x": 3.146205763,
				"y": -1.539131599,
				"z": -2.3978018109,
				"element": "H" 
			},
			{
				"x": 2.6663241671,
				"y": -1.5788662437,
				"z": -4.1069730836,
				"element": "H" 
			},
			{
				"x": 1.3127410535,
				"y": 0.106473171,
				"z": -2.8189671139,
				"element": "H" 
			},
			{
				"x": -0.9657997988,
				"y": -0.6686381895,
				"z": -3.3742928241,
				"element": "H" 
			},
			{
				"x": 0.1344447306,
				"y": -1.0845914266,
				"z": -4.6983165616,
				"element": "H" 
			},
			{
				"x": -0.3814392313,
				"y": -2.3419900654,
				"z": -3.5580345722,
				"element": "H" 
			},
			{
				"x": -1.5847591201,
				"y": 0.7366389126,
				"z": 1.4977725417,
				"element": "H" 
			},
			{
				"x": -2.1664024716,
				"y": -0.3936086454,
				"z": 0.3152439134,
				"element": "H" 
			},
			{
				"x": -1.4535062863,
				"y": -1.1526626757,
				"z": 3.193610743,
				"element": "H" 
			},
			{
				"x": -3.0850119258,
				"y": -0.8672495254,
				"z": 2.612776391,
				"element": "H" 
			},
			{
				"x": -2.1692081302,
				"y": -3.3563999762,
				"z": 2.7059095001,
				"element": "H" 
			},
			{
				"x": -3.1416578755,
				"y": -2.8675299374,
				"z": 1.3299532131,
				"element": "H" 
			},
			{
				"x": -1.335962493,
				"y": -2.9294374267,
				"z": -0.1713224941,
				"element": "H" 
			},
			{
				"x": -0.7573796639,
				"y": -4.1151370309,
				"z": 0.9786566184,
				"element": "H" 
			},
			{
				"x": 0.4886993979,
				"y": -2.2662044988,
				"z": 2.1922058396,
				"element": "H" 
			},
			{
				"x": 1.0729205326,
				"y": -2.5293158523,
				"z": 0.5521964301,
				"element": "H" 
			},
			{
				"x": 1.7852724563,
				"y": 2.3756208777,
				"z": -0.1412243206,
				"element": "H" 
			},
			{
				"x": 1.2551797603,
				"y": 4.8326691897,
				"z": -0.1560219356,
				"element": "H" 
			},
			{
				"x": -0.8410545947,
				"y": 4.420399269,
				"z": 3.5600663017,
				"element": "H" 
			},
			{
				"x": -0.2982036937,
				"y": 1.9582228145,
				"z": 3.5957692735,
				"element": "H" 
			}
		],
		 "valence_orbital": [ 
			{
				"type": "occ",
				"energy": -0.30138,
				"method": "rhf"
			},
			{
				"type": "occ",
				"energy": -0.30001,
				"method": "rhf"
			},
			{
				"type": "occ",
				"energy": -0.29126,
				"method": "rhf"
			},
			{
				"type": "occ",
				"energy": -0.28545,
				"method": "rhf"
			},
			{
				"type": "occ",
				"energy": -0.28187,
				"method": "rhf"
			},
			{
				"type": "unocc",
				"energy": -0.10379,
				"method": "rhf"
			},
			{
				"type": "unocc",
				"energy": -0.04012,
				"method": "rhf"
			},
			{
				"type": "unocc",
				"energy": -0.03173,
				"method": "rhf"
			},
			{
				"type": "unocc",
				"energy": -0.02012,
				"method": "rhf"
			},
			{
				"type": "unocc",
				"energy": 0.04495,
				"method": "rhf"
			}
		],
		"cosmo_sigma_profile": { 
			"-0.025": 0.0,
			"-0.024": 0.0,
			"-0.023": 0.0,
			"-0.022": 0.0,
			"-0.021": 0.0,
			"-0.02": 0.0,
			"-0.019": 0.0,
			"-0.018": 0.0,
			"-0.017": 0.0,
			"-0.016": 0.0,
			"-0.015": 0.0,
			"-0.014": 0.0,
			"-0.013": 0.0,
			"-0.012": 0.0,
			"-0.011": 0.0,
			"-0.01": 0.0,
			"-0.009": 1.75362620421,
			"-0.008": 6.89681387387,
			"-0.007": 8.17654628093,
			"-0.006": 8.15263065682,
			"-0.005": 16.0023598867,
			"-0.004": 29.7737540186,
			"-0.003": 41.4876281582,
			"-0.002": 54.9193289012,
			"-0.001": 48.9210407646,
			"0.0": 39.6549235988,
			"0.001": 16.6717947262,
			"0.002": 11.4553413181,
			"0.003": 9.17738335155,
			"0.004": 10.7498389021,
			"0.005": 8.29604104849,
			"0.006": 9.07868273082,
			"0.007": 15.0177990471,
			"0.008": 10.0569040484,
			"0.009": 8.34623956688,
			"0.01": 9.00900300775,
			"0.011": 8.48185817407,
			"0.012": 1.52442187253,
			"0.013": 0.0,
			"0.014": 0.0,
			"0.015": 0.0,
			"0.016": 0.0,
			"0.017": 0.0,
			"0.018": 0.0,
			"0.019": 0.0,
			"0.02": 0.0,
			"0.021": 0.0,
			"0.022": 0.0,
			"0.023": 0.0,
			"0.024": 0.0,
			"0.025": 0.0
		}
	}
}
