{
	 "smiles": "COC(=O)CC[C@H](C)[C@H]1CCC2C3[C@@H](C[C@@H]4CC(=O)CC[C@]4(C)C3CC(=O)[C@]12C)OC(C)=O", 
	 "Tm": 439.15, 
	 "num_atms": 73, 
	 "gaussian": { 
		 "optdone": 1, 
		 "sigma_profile": "yes", 
		 "theory": "DFT", 
		 "functional": "B3LYP", 
		 "basiset": "6-31G**", 
		 "properties": { 
			 "R2extent": 16506.6583, 
			 "electric_dipole_moment_norm": 4.98892491024, 
			 "electric_quadrupole_moment_norm": 31.8962671256, 
			 "total_energy": -1504.34082045, 
			 "HOMO_LUMO_gap": 0.21969, 
			 "cosmo_polarized_energy": -24.45, 
			 "cosmo_cavitation_energy": 62.01, 
			 "cosmo_dispersion_energy": -40.76, 
			 "cosmo_repulsion_energy": 2.97, 
			 "cosmo_total_nonelectrostatic_energy": 24.22, 
			 "SMD_solvation_energy": 12.25 
		},
		"coords": [
			{
				"x": 1.5576721771,
				"y": 5.7541263929,
				"z": 3.6953310915,
				"element": "C" 
			},
			{
				"x": 0.649416044,
				"y": 4.7129104857,
				"z": 3.2956179226,
				"element": "O" 
			},
			{
				"x": 0.138308735,
				"y": 3.9718787436,
				"z": 4.3090142977,
				"element": "C" 
			},
			{
				"x": 0.4243103894,
				"y": 4.1529847076,
				"z": 5.4728514641,
				"element": "O" 
			},
			{
				"x": -0.8478594346,
				"y": 2.9367541274,
				"z": 3.8033774058,
				"element": "C" 
			},
			{
				"x": -0.7186001204,
				"y": 1.5717995181,
				"z": 4.5043205496,
				"element": "C" 
			},
			{
				"x": 0.4466864898,
				"y": 0.6164632207,
				"z": 4.1339576067,
				"element": "C" 
			},
			{
				"x": 1.8291035416,
				"y": 1.2119260277,
				"z": 4.4603272085,
				"element": "C" 
			},
			{
				"x": 0.3731832218,
				"y": -0.20389254,
				"z": 2.7954674198,
				"element": "C" 
			},
			{
				"x": -0.9987652218,
				"y": -0.8980236219,
				"z": 2.639027025,
				"element": "C" 
			},
			{
				"x": -1.8202023025,
				"y": -0.0079787874,
				"z": 1.6905843555,
				"element": "C" 
			},
			{
				"x": -0.7985693022,
				"y": 0.6432956327,
				"z": 0.717150287,
				"element": "C" 
			},
			{
				"x": -0.9474815915,
				"y": 0.2479956427,
				"z": -0.7880858186,
				"element": "C" 
			},
			{
				"x": -1.4587149048,
				"y": -1.1710707536,
				"z": -1.1276867296,
				"element": "C" 
			},
			{
				"x": -1.2028361783,
				"y": -1.5503983786,
				"z": -2.6026849143,
				"element": "C" 
			},
			{
				"x": -1.0319749013,
				"y": -0.3462831747,
				"z": -3.5437167893,
				"element": "C" 
			},
			{
				"x": -0.8467667522,
				"y": -0.8294465104,
				"z": -4.997243403,
				"element": "C" 
			},
			{
				"x": 0.4603718487,
				"y": -1.5832452633,
				"z": -5.2062950905,
				"element": "C" 
			},
			{
				"x": 0.5551188988,
				"y": -2.5360657732,
				"z": -5.9548058973,
				"element": "O" 
			},
			{
				"x": 1.6477365168,
				"y": -1.0491007887,
				"z": -4.4112882533,
				"element": "C" 
			},
			{
				"x": 1.4212041384,
				"y": 0.3906460687,
				"z": -3.9285645498,
				"element": "C" 
			},
			{
				"x": 0.1173668951,
				"y": 0.6349511922,
				"z": -3.1037712648,
				"element": "C" 
			},
			{
				"x": -0.3450816728,
				"y": 2.0758659465,
				"z": -3.4231307261,
				"element": "C" 
			},
			{
				"x": 0.3558485893,
				"y": 0.5669078421,
				"z": -1.5472077577,
				"element": "C" 
			},
			{
				"x": 1.4685393232,
				"y": -0.3634438091,
				"z": -1.0134436528,
				"element": "C" 
			},
			{
				"x": 1.4287998741,
				"y": -0.609730384,
				"z": 0.505493674,
				"element": "C" 
			},
			{
				"x": 2.0828995292,
				"y": -1.5199285672,
				"z": 0.9788731579,
				"element": "O" 
			},
			{
				"x": 0.6283241939,
				"y": 0.3984565987,
				"z": 1.3642663409,
				"element": "C" 
			},
			{
				"x": 1.5266901497,
				"y": 1.6639237152,
				"z": 1.3357177965,
				"element": "C" 
			},
			{
				"x": -0.7884528515,
				"y": -2.1450093443,
				"z": -0.2829597927,
				"element": "O" 
			},
			{
				"x": -1.3854524902,
				"y": -3.3580623382,
				"z": -0.1465283782,
				"element": "C" 
			},
			{
				"x": -0.547433066,
				"y": -4.2894448049,
				"z": 0.6976030004,
				"element": "C" 
			},
			{
				"x": -2.455385517,
				"y": -3.6350819544,
				"z": -0.642878706,
				"element": "O" 
			},
			{
				"x": 2.4205989866,
				"y": 5.3325536073,
				"z": 4.2165824461,
				"element": "H" 
			},
			{
				"x": 1.8683736913,
				"y": 6.2447083412,
				"z": 2.7729715568,
				"element": "H" 
			},
			{
				"x": 1.0592536163,
				"y": 6.4646113221,
				"z": 4.3593749361,
				"element": "H" 
			},
			{
				"x": -0.7939640785,
				"y": 2.868860364,
				"z": 2.7159666627,
				"element": "H" 
			},
			{
				"x": -1.8400945782,
				"y": 3.3453099155,
				"z": 4.0381076007,
				"element": "H" 
			},
			{
				"x": -0.6376095808,
				"y": 1.7802846455,
				"z": 5.57747222,
				"element": "H" 
			},
			{
				"x": -1.6650057643,
				"y": 1.0381488353,
				"z": 4.3746417476,
				"element": "H" 
			},
			{
				"x": 0.3218148437,
				"y": -0.1939656532,
				"z": 4.8680017202,
				"element": "H" 
			},
			{
				"x": 2.0611625261,
				"y": 2.1165659208,
				"z": 3.8958133324,
				"element": "H" 
			},
			{
				"x": 1.8811463949,
				"y": 1.4764749936,
				"z": 5.5212122252,
				"element": "H" 
			},
			{
				"x": 2.6212392443,
				"y": 0.4837897488,
				"z": 4.2543188717,
				"element": "H" 
			},
			{
				"x": 1.1472935685,
				"y": -0.9670529191,
				"z": 2.9232378479,
				"element": "H" 
			},
			{
				"x": -0.8526194709,
				"y": -1.8789257048,
				"z": 2.1842565872,
				"element": "H" 
			},
			{
				"x": -1.4994817883,
				"y": -1.0625965594,
				"z": 3.5990433491,
				"element": "H" 
			},
			{
				"x": -2.6039680799,
				"y": -0.5691947838,
				"z": 1.1743699202,
				"element": "H" 
			},
			{
				"x": -2.3321608029,
				"y": 0.7772844189,
				"z": 2.2558314574,
				"element": "H" 
			},
			{
				"x": -0.9558994647,
				"y": 1.7285701704,
				"z": 0.7218382145,
				"element": "H" 
			},
			{
				"x": -1.7341241422,
				"y": 0.9021098587,
				"z": -1.1860139935,
				"element": "H" 
			},
			{
				"x": -2.5272766883,
				"y": -1.2425533912,
				"z": -0.9114056334,
				"element": "H" 
			},
			{
				"x": -2.0183188234,
				"y": -2.1876502627,
				"z": -2.9564388453,
				"element": "H" 
			},
			{
				"x": -0.3026044061,
				"y": -2.1735099842,
				"z": -2.6300953654,
				"element": "H" 
			},
			{
				"x": -1.9727851941,
				"y": 0.2191456654,
				"z": -3.5170563353,
				"element": "H" 
			},
			{
				"x": -0.8303019754,
				"y": 0.0367044666,
				"z": -5.6748968044,
				"element": "H" 
			},
			{
				"x": -1.6722860877,
				"y": -1.46905342,
				"z": -5.3225504258,
				"element": "H" 
			},
			{
				"x": 2.5393684825,
				"y": -1.1248171656,
				"z": -5.0424667616,
				"element": "H" 
			},
			{
				"x": 1.8176881949,
				"y": -1.7369292804,
				"z": -3.5737643948,
				"element": "H" 
			},
			{
				"x": 2.2909855829,
				"y": 0.7397744552,
				"z": -3.3621851516,
				"element": "H" 
			},
			{
				"x": 1.3842234129,
				"y": 1.0304457492,
				"z": -4.8191127106,
				"element": "H" 
			},
			{
				"x": 0.4696030491,
				"y": 2.7926348635,
				"z": -3.269216288,
				"element": "H" 
			},
			{
				"x": -0.6706582739,
				"y": 2.164126287,
				"z": -4.4656865688,
				"element": "H" 
			},
			{
				"x": -1.1842968876,
				"y": 2.3824150989,
				"z": -2.7890991587,
				"element": "H" 
			},
			{
				"x": 0.6401399472,
				"y": 1.5868661327,
				"z": -1.2663513463,
				"element": "H" 
			},
			{
				"x": 1.4429315225,
				"y": -1.3577854702,
				"z": -1.46168396,
				"element": "H" 
			},
			{
				"x": 2.4633841313,
				"y": 0.0427843477,
				"z": -1.2335218233,
				"element": "H" 
			},
			{
				"x": 1.0681443194,
				"y": 2.5031357963,
				"z": 1.8595631473,
				"element": "H" 
			},
			{
				"x": 2.4933854409,
				"y": 1.4575368643,
				"z": 1.8013006823,
				"element": "H" 
			},
			{
				"x": 1.7267705978,
				"y": 1.999539091,
				"z": 0.3154127009,
				"element": "H" 
			},
			{
				"x": -0.4320590755,
				"y": -5.23728315,
				"z": 0.1654765424,
				"element": "H" 
			},
			{
				"x": -1.0824964914,
				"y": -4.5031291675,
				"z": 1.6280946638,
				"element": "H" 
			},
			{
				"x": 0.4290998522,
				"y": -3.8611131164,
				"z": 0.9255682546,
				"element": "H" 
			}
		],
		 "valence_orbital": [ 
			{
				"type": "occ",
				"energy": -0.29067,
				"method": "rhf"
			},
			{
				"type": "occ",
				"energy": -0.27401,
				"method": "rhf"
			},
			{
				"type": "occ",
				"energy": -0.27253,
				"method": "rhf"
			},
			{
				"type": "occ",
				"energy": -0.23921,
				"method": "rhf"
			},
			{
				"type": "occ",
				"energy": -0.23669,
				"method": "rhf"
			},
			{
				"type": "unocc",
				"energy": -0.017,
				"method": "rhf"
			},
			{
				"type": "unocc",
				"energy": -0.01407,
				"method": "rhf"
			},
			{
				"type": "unocc",
				"energy": 0.00707,
				"method": "rhf"
			},
			{
				"type": "unocc",
				"energy": 0.00774,
				"method": "rhf"
			},
			{
				"type": "unocc",
				"energy": 0.04884,
				"method": "rhf"
			}
		],
		"cosmo_sigma_profile": { 
			"-0.025": 0.0,
			"-0.024": 0.0,
			"-0.023": 0.0,
			"-0.022": 0.0,
			"-0.021": 0.0,
			"-0.02": 0.0,
			"-0.019": 0.0,
			"-0.018": 0.0,
			"-0.017": 0.00292466057249,
			"-0.016": 0.0215348291775,
			"-0.015": 0.00201702025003,
			"-0.014": 0.016653743563,
			"-0.013": 0.0355926265273,
			"-0.012": 0.000141133909736,
			"-0.011": 0.0,
			"-0.01": 0.150112151224,
			"-0.009": 0.255032382902,
			"-0.008": 0.998221164076,
			"-0.007": 2.95902945163,
			"-0.006": 16.9858799063,
			"-0.005": 33.9512669296,
			"-0.004": 48.8757093825,
			"-0.003": 66.4307793951,
			"-0.002": 68.023198911,
			"-0.001": 53.3401102932,
			"0.0": 37.3511001544,
			"0.001": 30.8119773464,
			"0.002": 18.1504673867,
			"0.003": 10.466734342,
			"0.004": 9.76939662924,
			"0.005": 9.77332213404,
			"0.006": 8.48244707837,
			"0.007": 6.22331565783,
			"0.008": 7.24935900534,
			"0.009": 6.66396917445,
			"0.01": 6.32341026631,
			"0.011": 9.75327772573,
			"0.012": 16.2071438924,
			"0.013": 8.52258893523,
			"0.014": 1.33018315494,
			"0.015": 0.0,
			"0.016": 0.0,
			"0.017": 0.0,
			"0.018": 0.0,
			"0.019": 0.0,
			"0.02": 0.0,
			"0.021": 0.0,
			"0.022": 0.0,
			"0.023": 0.0,
			"0.024": 0.0,
			"0.025": 0.0
		}
	}
}
