{
	 "smiles": "S=C=S", 
	 "Tm": 161.15, 
	 "num_atms": 3, 
	 "gaussian": { 
		 "optdone": 1, 
		 "sigma_profile": "yes", 
		 "theory": "DFT", 
		 "functional": "B3LYP", 
		 "basiset": "6-31G**", 
		 "properties": { 
			 "R2extent": 588.9584, 
			 "electric_dipole_moment_norm": 0.000768114574787, 
			 "electric_quadrupole_moment_norm": 1.13477321523, 
			 "total_energy": -834.482354114, 
			 "HOMO_LUMO_gap": 0.20281, 
			 "cosmo_polarized_energy": -0.29, 
			 "cosmo_cavitation_energy": 11.48, 
			 "cosmo_dispersion_energy": -9.48, 
			 "cosmo_repulsion_energy": 0.79, 
			 "cosmo_total_nonelectrostatic_energy": 2.79, 
			 "SMD_solvation_energy": 1.42 
		},
		"coords": [
			{
				"x": -2.6075433528,
				"y": 0.5067947674,
				"z": -0.7245971806,
				"element": "S" 
			},
			{
				"x": -1.3328662415,
				"y": -0.0538442946,
				"z": -0.0147631938,
				"element": "C" 
			},
			{
				"x": -0.0596904057,
				"y": -0.6172504728,
				"z": 0.6955603744,
				"element": "S" 
			}
		],
		 "valence_orbital": [ 
			{
				"type": "occ",
				"energy": -0.43331,
				"method": "rhf"
			},
			{
				"type": "occ",
				"energy": -0.39171,
				"method": "rhf"
			},
			{
				"type": "occ",
				"energy": -0.39171,
				"method": "rhf"
			},
			{
				"type": "occ",
				"energy": -0.27775,
				"method": "rhf"
			},
			{
				"type": "occ",
				"energy": -0.27775,
				"method": "rhf"
			},
			{
				"type": "unocc",
				"energy": -0.07494,
				"method": "rhf"
			},
			{
				"type": "unocc",
				"energy": -0.07494,
				"method": "rhf"
			},
			{
				"type": "unocc",
				"energy": 0.04994,
				"method": "rhf"
			},
			{
				"type": "unocc",
				"energy": 0.12135,
				"method": "rhf"
			},
			{
				"type": "unocc",
				"energy": 0.17712,
				"method": "rhf"
			}
		],
		"cosmo_sigma_profile": { 
			"-0.025": 0.0,
			"-0.024": 0.0,
			"-0.023": 0.0,
			"-0.022": 0.0,
			"-0.021": 0.0,
			"-0.02": 0.0,
			"-0.019": 0.0,
			"-0.018": 0.0,
			"-0.017": 0.0,
			"-0.016": 0.0,
			"-0.015": 0.0,
			"-0.014": 0.0,
			"-0.013": 0.0,
			"-0.012": 0.0,
			"-0.011": 0.0,
			"-0.01": 0.0,
			"-0.009": 0.0,
			"-0.008": 0.0,
			"-0.007": 0.0,
			"-0.006": 0.0,
			"-0.005": 0.0,
			"-0.004": 0.742102461062,
			"-0.003": 4.70202477447,
			"-0.002": 10.035916182,
			"-0.001": 21.1965526883,
			"0.0": 18.5497379513,
			"0.001": 31.767953191,
			"0.002": 12.9160850659,
			"0.003": 0.0,
			"0.004": 0.0,
			"0.005": 0.0,
			"0.006": 0.0,
			"0.007": 0.0,
			"0.008": 0.0,
			"0.009": 0.0,
			"0.01": 0.0,
			"0.011": 0.0,
			"0.012": 0.0,
			"0.013": 0.0,
			"0.014": 0.0,
			"0.015": 0.0,
			"0.016": 0.0,
			"0.017": 0.0,
			"0.018": 0.0,
			"0.019": 0.0,
			"0.02": 0.0,
			"0.021": 0.0,
			"0.022": 0.0,
			"0.023": 0.0,
			"0.024": 0.0,
			"0.025": 0.0
		}
	}
}
