{
	 "smiles": "CC1=CC=C(OC(=O)C2=CC=CC=C2)C=C1", 
	 "Tm": 343.95, 
	 "num_atms": 28, 
	 "gaussian": { 
		 "optdone": 1, 
		 "sigma_profile": "yes", 
		 "theory": "DFT", 
		 "functional": "B3LYP", 
		 "basiset": "6-31G**", 
		 "properties": { 
			 "R2extent": 5864.32, 
			 "electric_dipole_moment_norm": 1.72690396375, 
			 "electric_quadrupole_moment_norm": 13.5799400098, 
			 "total_energy": -691.188278321, 
			 "HOMO_LUMO_gap": 0.18002, 
			 "cosmo_polarized_energy": -8.21, 
			 "cosmo_cavitation_energy": 32.76, 
			 "cosmo_dispersion_energy": -23.77, 
			 "cosmo_repulsion_energy": 1.84, 
			 "cosmo_total_nonelectrostatic_energy": 10.83, 
			 "SMD_solvation_energy": 6.57 
		},
		"coords": [
			{
				"x": -3.1219078182,
				"y": 2.3007343996,
				"z": 4.0302864349,
				"element": "C" 
			},
			{
				"x": -2.4898960564,
				"y": 1.3633535437,
				"z": 3.0281106348,
				"element": "C" 
			},
			{
				"x": -2.9007794773,
				"y": 0.0281498392,
				"z": 2.926866418,
				"element": "C" 
			},
			{
				"x": -2.2960742209,
				"y": -0.846730212,
				"z": 2.0254139656,
				"element": "C" 
			},
			{
				"x": -1.2676809605,
				"y": -0.3858287108,
				"z": 1.2071130224,
				"element": "C" 
			},
			{
				"x": -0.771894966,
				"y": -1.2983356991,
				"z": 0.2733896699,
				"element": "O" 
			},
			{
				"x": 0.5726851343,
				"y": -1.4244602501,
				"z": 0.052380307,
				"element": "C" 
			},
			{
				"x": 1.4187672611,
				"y": -0.7752387441,
				"z": 0.6269836668,
				"element": "O" 
			},
			{
				"x": 0.857472773,
				"y": -2.4601955464,
				"z": -0.9794852229,
				"element": "C" 
			},
			{
				"x": 2.2015765858,
				"y": -2.7088955369,
				"z": -1.292356993,
				"element": "C" 
			},
			{
				"x": 2.530376574,
				"y": -3.6651609975,
				"z": -2.2494085791,
				"element": "C" 
			},
			{
				"x": 1.5193814772,
				"y": -4.3774450546,
				"z": -2.9005519538,
				"element": "C" 
			},
			{
				"x": 0.1790848665,
				"y": -4.1318850474,
				"z": -2.5920700527,
				"element": "C" 
			},
			{
				"x": -0.1551701638,
				"y": -3.1765012727,
				"z": -1.6337245579,
				"element": "C" 
			},
			{
				"x": -0.84175471,
				"y": 0.9404086851,
				"z": 1.2750666757,
				"element": "C" 
			},
			{
				"x": -1.4571443496,
				"y": 1.7980670212,
				"z": 2.1860884991,
				"element": "C" 
			},
			{
				"x": -4.1434235546,
				"y": 1.9951656503,
				"z": 4.2755840072,
				"element": "H" 
			},
			{
				"x": -2.5536577256,
				"y": 2.3215717522,
				"z": 4.9687832874,
				"element": "H" 
			},
			{
				"x": -3.1579943848,
				"y": 3.3269367203,
				"z": 3.6516447324,
				"element": "H" 
			},
			{
				"x": -3.7056220329,
				"y": -0.3355391879,
				"z": 3.560562681,
				"element": "H" 
			},
			{
				"x": -2.6157778264,
				"y": -1.8804517371,
				"z": 1.9429936552,
				"element": "H" 
			},
			{
				"x": 2.9677672611,
				"y": -2.1424598993,
				"z": -0.7740188773,
				"element": "H" 
			},
			{
				"x": 3.5722614707,
				"y": -3.8558854183,
				"z": -2.4889949646,
				"element": "H" 
			},
			{
				"x": 1.7758052992,
				"y": -5.1232063284,
				"z": -3.6477406275,
				"element": "H" 
			},
			{
				"x": -0.6059791784,
				"y": -4.685436758,
				"z": -3.0986900678,
				"element": "H" 
			},
			{
				"x": -1.1925396071,
				"y": -2.9808739125,
				"z": -1.3890191814,
				"element": "H" 
			},
			{
				"x": -0.0422580275,
				"y": 1.2925618476,
				"z": 0.6365068027,
				"element": "H" 
			},
			{
				"x": -1.1250236427,
				"y": 2.8318808538,
				"z": 2.2393866179,
				"element": "H" 
			}
		],
		 "valence_orbital": [ 
			{
				"type": "occ",
				"energy": -0.27718,
				"method": "rhf"
			},
			{
				"type": "occ",
				"energy": -0.26208,
				"method": "rhf"
			},
			{
				"type": "occ",
				"energy": -0.25967,
				"method": "rhf"
			},
			{
				"type": "occ",
				"energy": -0.24983,
				"method": "rhf"
			},
			{
				"type": "occ",
				"energy": -0.22993,
				"method": "rhf"
			},
			{
				"type": "unocc",
				"energy": -0.04991,
				"method": "rhf"
			},
			{
				"type": "unocc",
				"energy": -0.00911,
				"method": "rhf"
			},
			{
				"type": "unocc",
				"energy": -0.00187,
				"method": "rhf"
			},
			{
				"type": "unocc",
				"energy": 0.00556,
				"method": "rhf"
			},
			{
				"type": "unocc",
				"energy": 0.05749,
				"method": "rhf"
			}
		],
		"cosmo_sigma_profile": { 
			"-0.025": 0.0,
			"-0.024": 0.0,
			"-0.023": 0.0,
			"-0.022": 0.0,
			"-0.021": 0.0,
			"-0.02": 0.0,
			"-0.019": 0.0,
			"-0.018": 0.0,
			"-0.017": 0.0,
			"-0.016": 0.0,
			"-0.015": 0.0,
			"-0.014": 0.0,
			"-0.013": 0.0,
			"-0.012": 0.0,
			"-0.011": 0.0,
			"-0.01": 0.0,
			"-0.009": 0.0,
			"-0.008": 0.0,
			"-0.007": 1.99470384992,
			"-0.006": 13.6470208065,
			"-0.005": 19.9698625034,
			"-0.004": 25.134880459,
			"-0.003": 22.1894016151,
			"-0.002": 19.9195614403,
			"-0.001": 19.6135483562,
			"0.0": 25.6377414456,
			"0.001": 21.0276471775,
			"0.002": 20.9381460123,
			"0.003": 23.1528567792,
			"0.004": 20.9034785119,
			"0.005": 12.1101201397,
			"0.006": 2.79904624544,
			"0.007": 1.73191459051,
			"0.008": 1.73291450701,
			"0.009": 2.09485164279,
			"0.01": 2.39979758216,
			"0.011": 3.80940702083,
			"0.012": 1.68155831345,
			"0.013": 0.0,
			"0.014": 0.0,
			"0.015": 0.0,
			"0.016": 0.0,
			"0.017": 0.0,
			"0.018": 0.0,
			"0.019": 0.0,
			"0.02": 0.0,
			"0.021": 0.0,
			"0.022": 0.0,
			"0.023": 0.0,
			"0.024": 0.0,
			"0.025": 0.0
		}
	}
}
