{
	 "smiles": "CCOCCCl", 
	 "Tm": 213.15, 
	 "num_atms": 15, 
	 "gaussian": { 
		 "optdone": 1, 
		 "sigma_profile": "yes", 
		 "theory": "DFT", 
		 "functional": "B3LYP", 
		 "basiset": "6-31G**", 
		 "properties": { 
			 "R2extent": 1714.2229, 
			 "electric_dipole_moment_norm": 2.91107973955, 
			 "electric_quadrupole_moment_norm": 9.14525062532, 
			 "total_energy": -693.258943859, 
			 "HOMO_LUMO_gap": 0.28974, 
			 "cosmo_polarized_energy": -7.02, 
			 "cosmo_cavitation_energy": 19.52, 
			 "cosmo_dispersion_energy": -14.55, 
			 "cosmo_repulsion_energy": 1.29, 
			 "cosmo_total_nonelectrostatic_energy": 6.26, 
			 "SMD_solvation_energy": 3.29 
		},
		"coords": [
			{
				"x": 0.1510270718,
				"y": -1.7050013883,
				"z": 0.0343115533,
				"element": "C" 
			},
			{
				"x": 0.692006302,
				"y": -0.8635188608,
				"z": -1.1206098657,
				"element": "C" 
			},
			{
				"x": 1.2217398309,
				"y": 0.3918337984,
				"z": -0.71395472,
				"element": "O" 
			},
			{
				"x": 0.2581220127,
				"y": 1.3542402698,
				"z": -0.3547049624,
				"element": "C" 
			},
			{
				"x": 0.9268976584,
				"y": 2.7119658988,
				"z": -0.2649022013,
				"element": "C" 
			},
			{
				"x": 1.4439946996,
				"y": 3.3413178181,
				"z": -1.8858686474,
				"element": "Cl" 
			},
			{
				"x": -0.7203826439,
				"y": -1.24091397,
				"z": 0.5074633337,
				"element": "H" 
			},
			{
				"x": 0.9217158413,
				"y": -1.8458958445,
				"z": 0.7982672787,
				"element": "H" 
			},
			{
				"x": -0.1570407279,
				"y": -2.6909008735,
				"z": -0.3299738465,
				"element": "H" 
			},
			{
				"x": -0.0890406754,
				"y": -0.7116153876,
				"z": -1.8831900643,
				"element": "H" 
			},
			{
				"x": 1.5261528388,
				"y": -1.3821434834,
				"z": -1.6035087345,
				"element": "H" 
			},
			{
				"x": -0.5667025208,
				"y": 1.3854861642,
				"z": -1.0841027744,
				"element": "H" 
			},
			{
				"x": -0.181731689,
				"y": 1.1416356738,
				"z": 0.6355541408,
				"element": "H" 
			},
			{
				"x": 1.8267507156,
				"y": 2.6540996464,
				"z": 0.3488843804,
				"element": "H" 
			},
			{
				"x": 0.2415912858,
				"y": 3.4503105385,
				"z": 0.1545351298,
				"element": "H" 
			}
		],
		 "valence_orbital": [ 
			{
				"type": "occ",
				"energy": -0.35805,
				"method": "rhf"
			},
			{
				"type": "occ",
				"energy": -0.31706,
				"method": "rhf"
			},
			{
				"type": "occ",
				"energy": -0.29101,
				"method": "rhf"
			},
			{
				"type": "occ",
				"energy": -0.28941,
				"method": "rhf"
			},
			{
				"type": "occ",
				"energy": -0.25946,
				"method": "rhf"
			},
			{
				"type": "unocc",
				"energy": 0.03028,
				"method": "rhf"
			},
			{
				"type": "unocc",
				"energy": 0.08286,
				"method": "rhf"
			},
			{
				"type": "unocc",
				"energy": 0.10995,
				"method": "rhf"
			},
			{
				"type": "unocc",
				"energy": 0.11701,
				"method": "rhf"
			},
			{
				"type": "unocc",
				"energy": 0.13357,
				"method": "rhf"
			}
		],
		"cosmo_sigma_profile": { 
			"-0.025": 0.0,
			"-0.024": 0.0,
			"-0.023": 0.0,
			"-0.022": 0.0,
			"-0.021": 0.0,
			"-0.02": 0.0,
			"-0.019": 0.0,
			"-0.018": 0.0,
			"-0.017": 0.0,
			"-0.016": 0.0,
			"-0.015": 0.0,
			"-0.014": 0.0,
			"-0.013": 0.0,
			"-0.012": 0.0,
			"-0.011": 0.0,
			"-0.01": 0.0,
			"-0.009": 0.0,
			"-0.008": 0.737919309288,
			"-0.007": 4.68282053493,
			"-0.006": 5.51409403894,
			"-0.005": 10.6579209639,
			"-0.004": 19.1942535384,
			"-0.003": 18.3628267594,
			"-0.002": 14.7100734998,
			"-0.001": 11.3325466325,
			"0.0": 11.3381024195,
			"0.001": 9.64764162542,
			"0.002": 5.3787647766,
			"0.003": 4.33699103664,
			"0.004": 4.99283191091,
			"0.005": 6.48820623549,
			"0.006": 8.23013937634,
			"0.007": 8.49257978864,
			"0.008": 1.95262773928,
			"0.009": 2.32940570545,
			"0.01": 1.78530938115,
			"0.011": 1.71947528659,
			"0.012": 1.76338739214,
			"0.013": 0.638594002733,
			"0.014": 0.0,
			"0.015": 0.0,
			"0.016": 0.0,
			"0.017": 0.0,
			"0.018": 0.0,
			"0.019": 0.0,
			"0.02": 0.0,
			"0.021": 0.0,
			"0.022": 0.0,
			"0.023": 0.0,
			"0.024": 0.0,
			"0.025": 0.0
		}
	}
}
