{
	 "smiles": "CCCN1CCC2=C(C1)SC(N)=C2C(=O)OCC", 
	 "Tm": 344.15, 
	 "num_atms": 38, 
	 "gaussian": { 
		 "optdone": 1, 
		 "sigma_profile": "yes", 
		 "theory": "DFT", 
		 "functional": "B3LYP", 
		 "basiset": "6-31G**", 
		 "properties": { 
			 "R2extent": 6389.54, 
			 "electric_dipole_moment_norm": 0.447075754207, 
			 "electric_quadrupole_moment_norm": 8.78622979155, 
			 "total_energy": -1165.59190478, 
			 "HOMO_LUMO_gap": 0.17396, 
			 "cosmo_polarized_energy": -10.19, 
			 "cosmo_cavitation_energy": 40.08, 
			 "cosmo_dispersion_energy": -29.09, 
			 "cosmo_repulsion_energy": 2.26, 
			 "cosmo_total_nonelectrostatic_energy": 13.26, 
			 "SMD_solvation_energy": 4.06 
		},
		"coords": [
			{
				"x": -2.9538621649,
				"y": 0.6928326822,
				"z": -4.1671325256,
				"element": "C" 
			},
			{
				"x": -3.3155162803,
				"y": -0.0978098428,
				"z": -2.9054843063,
				"element": "C" 
			},
			{
				"x": -2.0752847571,
				"y": -0.5619393134,
				"z": -2.1320545674,
				"element": "C" 
			},
			{
				"x": -2.4141550779,
				"y": -1.3619018541,
				"z": -0.9471279138,
				"element": "N" 
			},
			{
				"x": -1.3547306413,
				"y": -2.2926527858,
				"z": -0.5430216322,
				"element": "C" 
			},
			{
				"x": -0.0568083013,
				"y": -1.6201444599,
				"z": -0.0462173908,
				"element": "C" 
			},
			{
				"x": -0.3748064125,
				"y": -0.4731975347,
				"z": 0.8847628828,
				"element": "C" 
			},
			{
				"x": -1.6514091877,
				"y": -0.0100873553,
				"z": 0.968781144,
				"element": "C" 
			},
			{
				"x": -2.835239976,
				"y": -0.5589176465,
				"z": 0.2046745798,
				"element": "C" 
			},
			{
				"x": -1.7956726856,
				"y": 1.3166479504,
				"z": 2.1254880214,
				"element": "S" 
			},
			{
				"x": -0.0874771824,
				"y": 1.2359676043,
				"z": 2.4949513134,
				"element": "C" 
			},
			{
				"x": 0.4869108532,
				"y": 2.1115294737,
				"z": 3.3612671851,
				"element": "N" 
			},
			{
				"x": 0.5509235937,
				"y": 0.2396643844,
				"z": 1.7517637042,
				"element": "C" 
			},
			{
				"x": 1.9789252333,
				"y": 0.0234434425,
				"z": 1.9374194415,
				"element": "C" 
			},
			{
				"x": 2.6808390843,
				"y": 0.6461576426,
				"z": 2.7372894902,
				"element": "O" 
			},
			{
				"x": 2.4936975124,
				"y": -0.9463479313,
				"z": 1.1408734852,
				"element": "O" 
			},
			{
				"x": 3.9089502281,
				"y": -1.2093412587,
				"z": 1.2718022479,
				"element": "C" 
			},
			{
				"x": 4.7344358507,
				"y": -0.2547371935,
				"z": 0.4213435253,
				"element": "C" 
			},
			{
				"x": -2.3516954898,
				"y": 0.0894435073,
				"z": -4.8563688737,
				"element": "H" 
			},
			{
				"x": -2.3745922405,
				"y": 1.590783138,
				"z": -3.9234074154,
				"element": "H" 
			},
			{
				"x": -3.8510918105,
				"y": 1.0134023465,
				"z": -4.7058314337,
				"element": "H" 
			},
			{
				"x": -3.9494653673,
				"y": 0.5235126856,
				"z": -2.2601993709,
				"element": "H" 
			},
			{
				"x": -3.9120274244,
				"y": -0.9804231323,
				"z": -3.1640163359,
				"element": "H" 
			},
			{
				"x": -1.4754447478,
				"y": -1.1988034552,
				"z": -2.7940747355,
				"element": "H" 
			},
			{
				"x": -1.4441338719,
				"y": 0.3109908551,
				"z": -1.8861881627,
				"element": "H" 
			},
			{
				"x": -1.7627853804,
				"y": -2.9194843834,
				"z": 0.2603835634,
				"element": "H" 
			},
			{
				"x": -1.1341046595,
				"y": -2.9575414048,
				"z": -1.3853583108,
				"element": "H" 
			},
			{
				"x": 0.5416384262,
				"y": -1.2547585395,
				"z": -0.891239697,
				"element": "H" 
			},
			{
				"x": 0.5727027376,
				"y": -2.3591303672,
				"z": 0.4586837386,
				"element": "H" 
			},
			{
				"x": -3.4542286239,
				"y": -1.1886430824,
				"z": 0.8615161103,
				"element": "H" 
			},
			{
				"x": -3.4861316953,
				"y": 0.2509090672,
				"z": -0.1415795192,
				"element": "H" 
			},
			{
				"x": -0.0849039066,
				"y": 2.5747266962,
				"z": 4.0494241076,
				"element": "H" 
			},
			{
				"x": 1.4525811791,
				"y": 1.888481536,
				"z": 3.588854876,
				"element": "H" 
			},
			{
				"x": 4.0234128985,
				"y": -2.2430433482,
				"z": 0.9355270237,
				"element": "H" 
			},
			{
				"x": 4.1881893753,
				"y": -1.1379105753,
				"z": 2.3254258288,
				"element": "H" 
			},
			{
				"x": 4.4227970553,
				"y": -0.2979406558,
				"z": -0.6265631215,
				"element": "H" 
			},
			{
				"x": 4.6242041318,
				"y": 0.7705714385,
				"z": 0.7819098255,
				"element": "H" 
			},
			{
				"x": 5.7937597253,
				"y": -0.5278083306,
				"z": 0.4765232175,
				"element": "H" 
			}
		],
		 "valence_orbital": [ 
			{
				"type": "occ",
				"energy": -0.28987,
				"method": "rhf"
			},
			{
				"type": "occ",
				"energy": -0.26838,
				"method": "rhf"
			},
			{
				"type": "occ",
				"energy": -0.24366,
				"method": "rhf"
			},
			{
				"type": "occ",
				"energy": -0.20553,
				"method": "rhf"
			},
			{
				"type": "occ",
				"energy": -0.18944,
				"method": "rhf"
			},
			{
				"type": "unocc",
				"energy": -0.01548,
				"method": "rhf"
			},
			{
				"type": "unocc",
				"energy": 0.01362,
				"method": "rhf"
			},
			{
				"type": "unocc",
				"energy": 0.02332,
				"method": "rhf"
			},
			{
				"type": "unocc",
				"energy": 0.08501,
				"method": "rhf"
			},
			{
				"type": "unocc",
				"energy": 0.09276,
				"method": "rhf"
			}
		],
		"cosmo_sigma_profile": { 
			"-0.025": 0.0,
			"-0.024": 0.0,
			"-0.023": 0.0,
			"-0.022": 0.0,
			"-0.021": 0.0,
			"-0.02": 0.0,
			"-0.019": 0.0,
			"-0.018": 0.0,
			"-0.017": 0.0,
			"-0.016": 0.0,
			"-0.015": 0.258623679966,
			"-0.014": 1.43253312029,
			"-0.013": 1.45098349904,
			"-0.012": 1.26317492343,
			"-0.011": 1.12227005716,
			"-0.01": 1.55180630706,
			"-0.009": 2.48989247944,
			"-0.008": 1.62766973412,
			"-0.007": 1.48541847775,
			"-0.006": 2.19195261172,
			"-0.005": 7.69043155847,
			"-0.004": 18.035225737,
			"-0.003": 33.9980310714,
			"-0.002": 37.3140084138,
			"-0.001": 40.8199175092,
			"0.0": 37.483604851,
			"0.001": 31.4421315514,
			"0.002": 22.440044372,
			"0.003": 17.7676595271,
			"0.004": 17.446935899,
			"0.005": 12.8026163096,
			"0.006": 4.95385814837,
			"0.007": 3.11662934634,
			"0.008": 2.98364779364,
			"0.009": 2.84408694802,
			"0.01": 2.64840092373,
			"0.011": 2.28831081765,
			"0.012": 2.14040065338,
			"0.013": 1.16925566715,
			"0.014": 0.261399023947,
			"0.015": 0.359126801998,
			"0.016": 0.326188934822,
			"0.017": 0.0,
			"0.018": 0.0,
			"0.019": 0.0,
			"0.02": 0.0,
			"0.021": 0.0,
			"0.022": 0.0,
			"0.023": 0.0,
			"0.024": 0.0,
			"0.025": 0.0
		}
	}
}
