{
	 "smiles": "[O-][N+](=O)CC(=O)C1=CC=CC=C1", 
	 "Tm": 377.15, 
	 "num_atms": 19, 
	 "gaussian": { 
		 "optdone": 1, 
		 "sigma_profile": "yes", 
		 "theory": "DFT", 
		 "functional": "B3LYP", 
		 "basiset": "6-31G**", 
		 "properties": { 
			 "R2extent": 2433.7891, 
			 "electric_dipole_moment_norm": 3.47027140293, 
			 "electric_quadrupole_moment_norm": 15.9762912815, 
			 "total_energy": -589.38306733, 
			 "HOMO_LUMO_gap": 0.18771, 
			 "cosmo_polarized_energy": -11.27, 
			 "cosmo_cavitation_energy": 24.35, 
			 "cosmo_dispersion_energy": -17.32, 
			 "cosmo_repulsion_energy": 1.38, 
			 "cosmo_total_nonelectrostatic_energy": 8.41, 
			 "SMD_solvation_energy": 6.95 
		},
		"coords": [
			{
				"x": -3.7139377737,
				"y": 1.3377960669,
				"z": 0.681841708,
				"element": "O" 
			},
			{
				"x": -2.6876458033,
				"y": 1.2556740994,
				"z": 1.351728554,
				"element": "N" 
			},
			{
				"x": -2.5807947735,
				"y": 0.7025805578,
				"z": 2.439321241,
				"element": "O" 
			},
			{
				"x": -1.4396463087,
				"y": 1.902474731,
				"z": 0.8040919026,
				"element": "C" 
			},
			{
				"x": -0.2504290755,
				"y": 0.9211124161,
				"z": 0.7598571888,
				"element": "C" 
			},
			{
				"x": 0.7424912285,
				"y": 1.1982874285,
				"z": 1.4083446386,
				"element": "O" 
			},
			{
				"x": -0.3332688514,
				"y": -0.2900330697,
				"z": -0.1006756741,
				"element": "C" 
			},
			{
				"x": 0.7440463327,
				"y": -1.192307639,
				"z": -0.0597555553,
				"element": "C" 
			},
			{
				"x": 0.7338479761,
				"y": -2.333208176,
				"z": -0.8536393756,
				"element": "C" 
			},
			{
				"x": -0.3506223922,
				"y": -2.5847031158,
				"z": -1.7009617727,
				"element": "C" 
			},
			{
				"x": -1.4236709093,
				"y": -1.6931691034,
				"z": -1.7498002967,
				"element": "C" 
			},
			{
				"x": -1.4191157458,
				"y": -0.5482917563,
				"z": -0.9537461943,
				"element": "C" 
			},
			{
				"x": -1.1777232658,
				"y": 2.6988757788,
				"z": 1.5003062676,
				"element": "H" 
			},
			{
				"x": -1.6938136485,
				"y": 2.3067231519,
				"z": -0.17558066,
				"element": "H" 
			},
			{
				"x": 1.5740293522,
				"y": -0.9733321379,
				"z": 0.6032948333,
				"element": "H" 
			},
			{
				"x": 1.5672583923,
				"y": -3.0281835974,
				"z": -0.8153402972,
				"element": "H" 
			},
			{
				"x": -0.3586345286,
				"y": -3.4760637997,
				"z": -2.3216592337,
				"element": "H" 
			},
			{
				"x": -2.2658674978,
				"y": -1.8887343092,
				"z": -2.4063088737,
				"element": "H" 
			},
			{
				"x": -2.2668027077,
				"y": 0.1273024739,
				"z": -0.9986184006,
				"element": "H" 
			}
		],
		 "valence_orbital": [ 
			{
				"type": "occ",
				"energy": -0.31778,
				"method": "rhf"
			},
			{
				"type": "occ",
				"energy": -0.30494,
				"method": "rhf"
			},
			{
				"type": "occ",
				"energy": -0.27524,
				"method": "rhf"
			},
			{
				"type": "occ",
				"energy": -0.2739,
				"method": "rhf"
			},
			{
				"type": "occ",
				"energy": -0.27092,
				"method": "rhf"
			},
			{
				"type": "unocc",
				"energy": -0.08321,
				"method": "rhf"
			},
			{
				"type": "unocc",
				"energy": -0.07487,
				"method": "rhf"
			},
			{
				"type": "unocc",
				"energy": -0.02148,
				"method": "rhf"
			},
			{
				"type": "unocc",
				"energy": 0.01443,
				"method": "rhf"
			},
			{
				"type": "unocc",
				"energy": 0.08048,
				"method": "rhf"
			}
		],
		"cosmo_sigma_profile": { 
			"-0.025": 0.0,
			"-0.024": 0.0,
			"-0.023": 0.0,
			"-0.022": 0.0,
			"-0.021": 0.0,
			"-0.02": 0.0,
			"-0.019": 0.0,
			"-0.018": 0.0,
			"-0.017": 0.0,
			"-0.016": 0.0,
			"-0.015": 0.0,
			"-0.014": 0.0,
			"-0.013": 0.0,
			"-0.012": 0.0,
			"-0.011": 1.28856780185,
			"-0.01": 5.27400286216,
			"-0.009": 4.19532383387,
			"-0.008": 4.28293902732,
			"-0.007": 7.98988989537,
			"-0.006": 13.6337241026,
			"-0.005": 13.2225373315,
			"-0.004": 11.1684597712,
			"-0.003": 9.51378722738,
			"-0.002": 9.9980717389,
			"-0.001": 10.9094697057,
			"0.0": 10.2938066874,
			"0.001": 12.6154990269,
			"0.002": 13.5060125047,
			"0.003": 16.576329678,
			"0.004": 7.69388527138,
			"0.005": 4.9116984439,
			"0.006": 7.25147113552,
			"0.007": 11.6219212248,
			"0.008": 7.76038481476,
			"0.009": 5.07199916599,
			"0.01": 4.02476558844,
			"0.011": 2.33954469948,
			"0.012": 0.107814369775,
			"0.013": 0.0,
			"0.014": 0.0,
			"0.015": 0.0,
			"0.016": 0.0,
			"0.017": 0.0,
			"0.018": 0.0,
			"0.019": 0.0,
			"0.02": 0.0,
			"0.021": 0.0,
			"0.022": 0.0,
			"0.023": 0.0,
			"0.024": 0.0,
			"0.025": 0.0
		}
	}
}
