{
	 "smiles": "CC(=O)NC1=CC(O)=CC=C1", 
	 "Tm": 420.15, 
	 "num_atms": 20, 
	 "gaussian": { 
		 "optdone": 1, 
		 "sigma_profile": "yes", 
		 "theory": "DFT", 
		 "functional": "B3LYP", 
		 "basiset": "6-31G**", 
		 "properties": { 
			 "R2extent": 2172.1298, 
			 "electric_dipole_moment_norm": 4.03702829443, 
			 "electric_quadrupole_moment_norm": 7.69223426775, 
			 "total_energy": -515.485665848, 
			 "HOMO_LUMO_gap": 0.20155, 
			 "cosmo_polarized_energy": -14.77, 
			 "cosmo_cavitation_energy": 24.02, 
			 "cosmo_dispersion_energy": -17.84, 
			 "cosmo_repulsion_energy": 1.43, 
			 "cosmo_total_nonelectrostatic_energy": 7.6, 
			 "SMD_solvation_energy": 5.35 
		},
		"coords": [
			{
				"x": 1.7483905388,
				"y": 1.5421509425,
				"z": 0.6668860924,
				"element": "C" 
			},
			{
				"x": 0.5942095931,
				"y": 1.6220950642,
				"z": 1.6424333737,
				"element": "C" 
			},
			{
				"x": 0.5681374166,
				"y": 2.4530652949,
				"z": 2.539984391,
				"element": "O" 
			},
			{
				"x": -0.4728769137,
				"y": 0.7401909549,
				"z": 1.5341115789,
				"element": "N" 
			},
			{
				"x": -0.8310544006,
				"y": -0.323143518,
				"z": 0.6868414776,
				"element": "C" 
			},
			{
				"x": -0.0668681215,
				"y": -0.7853721244,
				"z": -0.3913632733,
				"element": "C" 
			},
			{
				"x": -0.529108844,
				"y": -1.8555051856,
				"z": -1.1654742984,
				"element": "C" 
			},
			{
				"x": 0.2770736386,
				"y": -2.2438252093,
				"z": -2.1979460187,
				"element": "O" 
			},
			{
				"x": -1.7466126674,
				"y": -2.4799759007,
				"z": -0.8857762172,
				"element": "C" 
			},
			{
				"x": -2.5025118583,
				"y": -2.0134936295,
				"z": 0.1905359538,
				"element": "C" 
			},
			{
				"x": -2.060887853,
				"y": -0.9528707432,
				"z": 0.9705091191,
				"element": "C" 
			},
			{
				"x": 1.414750294,
				"y": 1.7051910745,
				"z": -0.362463592,
				"element": "H" 
			},
			{
				"x": 2.457926832,
				"y": 2.3217600614,
				"z": 0.9425343174,
				"element": "H" 
			},
			{
				"x": 2.2455978341,
				"y": 0.5684797791,
				"z": 0.7137772388,
				"element": "H" 
			},
			{
				"x": -1.145958215,
				"y": 0.9399145708,
				"z": 2.2645103189,
				"element": "H" 
			},
			{
				"x": 0.8820272053,
				"y": -0.352299819,
				"z": -0.665973292,
				"element": "H" 
			},
			{
				"x": -0.1367880609,
				"y": -2.9839402812,
				"z": -2.6602960918,
				"element": "H" 
			},
			{
				"x": -2.0954999582,
				"y": -3.3104815516,
				"z": -1.494169688,
				"element": "H" 
			},
			{
				"x": -3.4519373681,
				"y": -2.4866983616,
				"z": 0.4231811637,
				"element": "H" 
			},
			{
				"x": -2.6623090917,
				"y": -0.6027414181,
				"z": 1.8046574462,
				"element": "H" 
			}
		],
		 "valence_orbital": [ 
			{
				"type": "occ",
				"energy": -0.34736,
				"method": "rhf"
			},
			{
				"type": "occ",
				"energy": -0.29951,
				"method": "rhf"
			},
			{
				"type": "occ",
				"energy": -0.25481,
				"method": "rhf"
			},
			{
				"type": "occ",
				"energy": -0.23727,
				"method": "rhf"
			},
			{
				"type": "occ",
				"energy": -0.2162,
				"method": "rhf"
			},
			{
				"type": "unocc",
				"energy": -0.01465,
				"method": "rhf"
			},
			{
				"type": "unocc",
				"energy": 0.00229,
				"method": "rhf"
			},
			{
				"type": "unocc",
				"energy": 0.04264,
				"method": "rhf"
			},
			{
				"type": "unocc",
				"energy": 0.0642,
				"method": "rhf"
			},
			{
				"type": "unocc",
				"energy": 0.08272,
				"method": "rhf"
			}
		],
		"cosmo_sigma_profile": { 
			"-0.025": 0.0,
			"-0.024": 0.0,
			"-0.023": 0.0,
			"-0.022": 0.0,
			"-0.021": 0.0,
			"-0.02": 0.0,
			"-0.019": 0.0,
			"-0.018": 0.257155782967,
			"-0.017": 1.05790170921,
			"-0.016": 1.4327509162,
			"-0.015": 0.719969903296,
			"-0.014": 0.998516536642,
			"-0.013": 2.26181695196,
			"-0.012": 2.01941336563,
			"-0.011": 2.61490986422,
			"-0.01": 2.09577059452,
			"-0.009": 1.66274280628,
			"-0.008": 2.06490136576,
			"-0.007": 5.19097066386,
			"-0.006": 13.5653726261,
			"-0.005": 11.8988779848,
			"-0.004": 13.424552693,
			"-0.003": 11.033855949,
			"-0.002": 11.9580154511,
			"-0.001": 11.976776506,
			"0.0": 6.75582410281,
			"0.001": 9.2530191784,
			"0.002": 9.63293001227,
			"0.003": 9.85564400977,
			"0.004": 13.7540491225,
			"0.005": 13.068493158,
			"0.006": 5.66122918484,
			"0.007": 3.38870749567,
			"0.008": 2.24690326172,
			"0.009": 2.56325622187,
			"0.01": 2.99325808903,
			"0.011": 3.67952451995,
			"0.012": 3.03329381296,
			"0.013": 5.47126282582,
			"0.014": 2.93856927939,
			"0.015": 0.27798291441,
			"0.016": 0.0,
			"0.017": 0.0,
			"0.018": 0.0,
			"0.019": 0.0,
			"0.02": 0.0,
			"0.021": 0.0,
			"0.022": 0.0,
			"0.023": 0.0,
			"0.024": 0.0,
			"0.025": 0.0
		}
	}
}
