{
	 "smiles": "CCCCCCCCCCCCCCCCCCCCC1=CC=CC=C1", 
	 "Tm": 317.15, 
	 "num_atms": 72, 
	 "gaussian": { 
		 "optdone": 1, 
		 "sigma_profile": "yes", 
		 "theory": "DFT", 
		 "functional": "B3LYP", 
		 "basiset": "6-31G**", 
		 "properties": { 
			 "R2extent": 25141.7076, 
			 "electric_dipole_moment_norm": 0.215935731179, 
			 "electric_quadrupole_moment_norm": 6.18103774054, 
			 "total_energy": -1018.56167761, 
			 "HOMO_LUMO_gap": 0.23822, 
			 "cosmo_polarized_energy": -3.89, 
			 "cosmo_cavitation_energy": 69.93, 
			 "cosmo_dispersion_energy": -46.09, 
			 "cosmo_repulsion_energy": 3.74, 
			 "cosmo_total_nonelectrostatic_energy": 27.57, 
			 "SMD_solvation_energy": 8.81 
		},
		"coords": [
			{
				"x": -5.6182181401,
				"y": 3.383057232,
				"z": 5.5637913111,
				"element": "C" 
			},
			{
				"x": -4.9459911247,
				"y": 2.0080239553,
				"z": 5.6316642145,
				"element": "C" 
			},
			{
				"x": -3.4160841319,
				"y": 2.0842770353,
				"z": 5.715348595,
				"element": "C" 
			},
			{
				"x": -2.7346888298,
				"y": 0.7117007154,
				"z": 5.7835068657,
				"element": "C" 
			},
			{
				"x": -1.2045484263,
				"y": 0.7992149932,
				"z": 5.8958653653,
				"element": "C" 
			},
			{
				"x": -0.4697197264,
				"y": -0.557419269,
				"z": 5.9820061207,
				"element": "C" 
			},
			{
				"x": 0.0058998417,
				"y": -1.157061767,
				"z": 4.6461817578,
				"element": "C" 
			},
			{
				"x": -1.0918503396,
				"y": -1.5389135467,
				"z": 3.6432821977,
				"element": "C" 
			},
			{
				"x": -0.5370257323,
				"y": -2.2407978444,
				"z": 2.3952016066,
				"element": "C" 
			},
			{
				"x": -1.606506948,
				"y": -2.7145489559,
				"z": 1.3947924011,
				"element": "C" 
			},
			{
				"x": -2.4593908289,
				"y": -1.611895095,
				"z": 0.7423867739,
				"element": "C" 
			},
			{
				"x": -1.6720614549,
				"y": -0.6208578931,
				"z": -0.1266673278,
				"element": "C" 
			},
			{
				"x": -2.5742992609,
				"y": 0.401527995,
				"z": -0.8331728603,
				"element": "C" 
			},
			{
				"x": -1.8272646983,
				"y": 1.4652098358,
				"z": -1.6547892274,
				"element": "C" 
			},
			{
				"x": -1.0786399263,
				"y": 0.9245171175,
				"z": -2.8817128176,
				"element": "C" 
			},
			{
				"x": -0.4107586997,
				"y": 2.031681492,
				"z": -3.7100669697,
				"element": "C" 
			},
			{
				"x": 0.2872634776,
				"y": 1.5479994022,
				"z": -4.9920435419,
				"element": "C" 
			},
			{
				"x": 1.51488822,
				"y": 0.6555693584,
				"z": -4.7593221446,
				"element": "C" 
			},
			{
				"x": 2.2188346224,
				"y": 0.258677902,
				"z": -6.0627106418,
				"element": "C" 
			},
			{
				"x": 3.4581350303,
				"y": -0.6428646392,
				"z": -5.8678165048,
				"element": "C" 
			},
			{
				"x": 4.6078273601,
				"y": 0.0306190837,
				"z": -5.1458750713,
				"element": "C" 
			},
			{
				"x": 4.8868486709,
				"y": -0.2443044893,
				"z": -3.8005812724,
				"element": "C" 
			},
			{
				"x": 5.9370722501,
				"y": 0.394269706,
				"z": -3.1372056648,
				"element": "C" 
			},
			{
				"x": 6.7305894584,
				"y": 1.3223769117,
				"z": -3.8120745434,
				"element": "C" 
			},
			{
				"x": 6.4667234206,
				"y": 1.6048526932,
				"z": -5.1544971991,
				"element": "C" 
			},
			{
				"x": 5.4168025694,
				"y": 0.963918329,
				"z": -5.8117072235,
				"element": "C" 
			},
			{
				"x": -5.3806610392,
				"y": 3.9843662541,
				"z": 6.44892537,
				"element": "H" 
			},
			{
				"x": -5.2826460682,
				"y": 3.9453424123,
				"z": 4.6847503068,
				"element": "H" 
			},
			{
				"x": -6.708125561,
				"y": 3.2947725887,
				"z": 5.5051744377,
				"element": "H" 
			},
			{
				"x": -5.3282391495,
				"y": 1.456160863,
				"z": 6.5013294414,
				"element": "H" 
			},
			{
				"x": -5.230935953,
				"y": 1.4173762889,
				"z": 4.750205457,
				"element": "H" 
			},
			{
				"x": -3.1311095851,
				"y": 2.6762433145,
				"z": 6.5973250607,
				"element": "H" 
			},
			{
				"x": -3.0336699477,
				"y": 2.6376840335,
				"z": 4.8453439102,
				"element": "H" 
			},
			{
				"x": -3.1223958036,
				"y": 0.1581531915,
				"z": 6.6508529973,
				"element": "H" 
			},
			{
				"x": -3.0188669248,
				"y": 0.1242176394,
				"z": 4.9016858845,
				"element": "H" 
			},
			{
				"x": -0.8058893063,
				"y": 1.377260967,
				"z": 5.0495563046,
				"element": "H" 
			},
			{
				"x": -0.9683318877,
				"y": 1.3883358795,
				"z": 6.7920531802,
				"element": "H" 
			},
			{
				"x": 0.416677905,
				"y": -0.4360999088,
				"z": 6.6172543003,
				"element": "H" 
			},
			{
				"x": -1.1094489364,
				"y": -1.2847664085,
				"z": 6.5019425951,
				"element": "H" 
			},
			{
				"x": 0.6035143154,
				"y": -2.0527485433,
				"z": 4.8667585461,
				"element": "H" 
			},
			{
				"x": 0.696410197,
				"y": -0.448365911,
				"z": 4.1661486985,
				"element": "H" 
			},
			{
				"x": -1.6436696082,
				"y": -0.6401440067,
				"z": 3.3435302975,
				"element": "H" 
			},
			{
				"x": -1.8228646014,
				"y": -2.1981638579,
				"z": 4.1340482393,
				"element": "H" 
			},
			{
				"x": 0.0475194015,
				"y": -3.1148449505,
				"z": 2.7136618493,
				"element": "H" 
			},
			{
				"x": 0.1769534831,
				"y": -1.5744849578,
				"z": 1.8925141621,
				"element": "H" 
			},
			{
				"x": -2.2765794445,
				"y": -3.4195688958,
				"z": 1.9058462193,
				"element": "H" 
			},
			{
				"x": -1.1120889021,
				"y": -3.290777647,
				"z": 0.6005486928,
				"element": "H" 
			},
			{
				"x": -3.0107585124,
				"y": -1.0582313191,
				"z": 1.5142844952,
				"element": "H" 
			},
			{
				"x": -3.2258511766,
				"y": -2.0936674369,
				"z": 0.1198918502,
				"element": "H" 
			},
			{
				"x": -1.0893902438,
				"y": -1.183724843,
				"z": -0.8683428119,
				"element": "H" 
			},
			{
				"x": -0.9396238553,
				"y": -0.0811260481,
				"z": 0.4891420348,
				"element": "H" 
			},
			{
				"x": -3.2815810391,
				"y": -0.1299340362,
				"z": -1.4863066891,
				"element": "H" 
			},
			{
				"x": -3.187790829,
				"y": 0.9092693269,
				"z": -0.0762135375,
				"element": "H" 
			},
			{
				"x": -1.1179462546,
				"y": 1.9944265704,
				"z": -1.001991966,
				"element": "H" 
			},
			{
				"x": -2.5495665775,
				"y": 2.2222080726,
				"z": -1.9899369274,
				"element": "H" 
			},
			{
				"x": -1.7843385576,
				"y": 0.3722090606,
				"z": -3.5200037147,
				"element": "H" 
			},
			{
				"x": -0.3235328701,
				"y": 0.1966795118,
				"z": -2.5616353699,
				"element": "H" 
			},
			{
				"x": -1.1734931278,
				"y": 2.7736138728,
				"z": -3.9836977055,
				"element": "H" 
			},
			{
				"x": 0.3170284209,
				"y": 2.5652969607,
				"z": -3.0819150628,
				"element": "H" 
			},
			{
				"x": 0.5984060562,
				"y": 2.42590575,
				"z": -5.5746296589,
				"element": "H" 
			},
			{
				"x": -0.4395492474,
				"y": 1.0119202681,
				"z": -5.6196644264,
				"element": "H" 
			},
			{
				"x": 1.2198140461,
				"y": -0.2567010126,
				"z": -4.2233210468,
				"element": "H" 
			},
			{
				"x": 2.2242098072,
				"y": 1.1789739357,
				"z": -4.1048075016,
				"element": "H" 
			},
			{
				"x": 2.5175231195,
				"y": 1.1653262473,
				"z": -6.6063417841,
				"element": "H" 
			},
			{
				"x": 1.5064504676,
				"y": -0.2673478426,
				"z": -6.7127014178,
				"element": "H" 
			},
			{
				"x": 3.1614158946,
				"y": -1.5458926864,
				"z": -5.3198218643,
				"element": "H" 
			},
			{
				"x": 3.8012439344,
				"y": -0.9786323809,
				"z": -6.854553682,
				"element": "H" 
			},
			{
				"x": 4.2765161057,
				"y": -0.9701368088,
				"z": -3.268489588,
				"element": "H" 
			},
			{
				"x": 6.1359089829,
				"y": 0.1633838851,
				"z": -2.0941674199,
				"element": "H" 
			},
			{
				"x": 7.5498935986,
				"y": 1.8182415501,
				"z": -3.2993722772,
				"element": "H" 
			},
			{
				"x": 7.0828811075,
				"y": 2.3211613926,
				"z": -5.691237542,
				"element": "H" 
			},
			{
				"x": 5.2237415135,
				"y": 1.1850994068,
				"z": -6.8592065362,
				"element": "H" 
			}
		],
		 "valence_orbital": [ 
			{
				"type": "occ",
				"energy": -0.29515,
				"method": "rhf"
			},
			{
				"type": "occ",
				"energy": -0.29458,
				"method": "rhf"
			},
			{
				"type": "occ",
				"energy": -0.29355,
				"method": "rhf"
			},
			{
				"type": "occ",
				"energy": -0.24426,
				"method": "rhf"
			},
			{
				"type": "occ",
				"energy": -0.23555,
				"method": "rhf"
			},
			{
				"type": "unocc",
				"energy": 0.00267,
				"method": "rhf"
			},
			{
				"type": "unocc",
				"energy": 0.00538,
				"method": "rhf"
			},
			{
				"type": "unocc",
				"energy": 0.07737,
				"method": "rhf"
			},
			{
				"type": "unocc",
				"energy": 0.09113,
				"method": "rhf"
			},
			{
				"type": "unocc",
				"energy": 0.09468,
				"method": "rhf"
			}
		],
		"cosmo_sigma_profile": { 
			"-0.025": 0.0,
			"-0.024": 0.0,
			"-0.023": 0.0,
			"-0.022": 0.0,
			"-0.021": 0.0,
			"-0.02": 0.0,
			"-0.019": 0.0,
			"-0.018": 0.0,
			"-0.017": 0.0,
			"-0.016": 0.0,
			"-0.015": 0.0,
			"-0.014": 0.0,
			"-0.013": 0.0,
			"-0.012": 0.0,
			"-0.011": 0.0,
			"-0.01": 0.0,
			"-0.009": 0.0,
			"-0.008": 0.0,
			"-0.007": 0.0,
			"-0.006": 0.812862147547,
			"-0.005": 7.80068130527,
			"-0.004": 11.9920173141,
			"-0.003": 19.13629948,
			"-0.002": 55.5858032054,
			"-0.001": 122.21301663,
			"0.0": 128.415957783,
			"0.001": 101.665094847,
			"0.002": 51.5071202276,
			"0.003": 9.20513124821,
			"0.004": 8.66894585158,
			"0.005": 7.35588282501,
			"0.006": 8.22089017279,
			"0.007": 4.29398958702,
			"0.008": 0.0197369918543,
			"0.009": 0.0,
			"0.01": 0.0,
			"0.011": 0.0,
			"0.012": 0.0,
			"0.013": 0.0,
			"0.014": 0.0,
			"0.015": 0.0,
			"0.016": 0.0,
			"0.017": 0.0,
			"0.018": 0.0,
			"0.019": 0.0,
			"0.02": 0.0,
			"0.021": 0.0,
			"0.022": 0.0,
			"0.023": 0.0,
			"0.024": 0.0,
			"0.025": 0.0
		}
	}
}
