{
	 "smiles": "CCCC1=NOC2=C1C=C(C=N2)C(O)=O", 
	 "Tm": 448.15, 
	 "num_atms": 25, 
	 "gaussian": { 
		 "optdone": 1, 
		 "sigma_profile": "yes", 
		 "theory": "DFT", 
		 "functional": "B3LYP", 
		 "basiset": "6-31G**", 
		 "properties": { 
			 "R2extent": 4145.013, 
			 "electric_dipole_moment_norm": 1.38627843163, 
			 "electric_quadrupole_moment_norm": 28.4166320907, 
			 "total_energy": -722.235734599, 
			 "HOMO_LUMO_gap": 0.19962, 
			 "cosmo_polarized_energy": -18.34, 
			 "cosmo_cavitation_energy": 30.09, 
			 "cosmo_dispersion_energy": -21.72, 
			 "cosmo_repulsion_energy": 1.7, 
			 "cosmo_total_nonelectrostatic_energy": 10.07, 
			 "SMD_solvation_energy": 4.32 
		},
		"coords": [
			{
				"x": 0.3854803915,
				"y": 3.8630616573,
				"z": -0.393267471,
				"element": "C" 
			},
			{
				"x": 0.7469138697,
				"y": 2.4050768364,
				"z": -0.097163402,
				"element": "C" 
			},
			{
				"x": -0.166797906,
				"y": 1.7854262774,
				"z": 0.9805351449,
				"element": "C" 
			},
			{
				"x": 0.1642882782,
				"y": 0.3551208737,
				"z": 1.2832767875,
				"element": "C" 
			},
			{
				"x": 0.7168800219,
				"y": 0.0307918161,
				"z": 2.4243247416,
				"element": "N" 
			},
			{
				"x": 0.9363541667,
				"y": -1.3698187703,
				"z": 2.4244958284,
				"element": "O" 
			},
			{
				"x": 0.4941608413,
				"y": -1.8588362074,
				"z": 1.2508284813,
				"element": "C" 
			},
			{
				"x": -0.0185165037,
				"y": -0.815084633,
				"z": 0.4608027202,
				"element": "C" 
			},
			{
				"x": -0.5337441258,
				"y": -1.1419293568,
				"z": -0.7896925752,
				"element": "C" 
			},
			{
				"x": -0.5094064773,
				"y": -2.4937207595,
				"z": -1.1526110402,
				"element": "C" 
			},
			{
				"x": 0.0597807508,
				"y": -3.4338065375,
				"z": -0.263191621,
				"element": "C" 
			},
			{
				"x": 0.5636326492,
				"y": -3.1452905284,
				"z": 0.9390399618,
				"element": "N" 
			},
			{
				"x": -1.0523424729,
				"y": -2.8587263898,
				"z": -2.5006560465,
				"element": "C" 
			},
			{
				"x": -1.3548386881,
				"y": -4.1642341852,
				"z": -2.7175383524,
				"element": "O" 
			},
			{
				"x": -1.2246113957,
				"y": -2.0436612881,
				"z": -3.3761571165,
				"element": "O" 
			},
			{
				"x": -0.6433656488,
				"y": 3.951769745,
				"z": -0.7598507849,
				"element": "H" 
			},
			{
				"x": 1.0478410788,
				"y": 4.2846726591,
				"z": -1.15528385,
				"element": "H" 
			},
			{
				"x": 0.4730010258,
				"y": 4.4833179533,
				"z": 0.5055160108,
				"element": "H" 
			},
			{
				"x": 1.7873535129,
				"y": 2.3380243419,
				"z": 0.241909846,
				"element": "H" 
			},
			{
				"x": 0.6839880056,
				"y": 1.8135775122,
				"z": -1.0189754346,
				"element": "H" 
			},
			{
				"x": -1.2130544795,
				"y": 1.8467876417,
				"z": 0.6536143962,
				"element": "H" 
			},
			{
				"x": -0.0855830521,
				"y": 2.3561886098,
				"z": 1.9110659515,
				"element": "H" 
			},
			{
				"x": -0.9443410582,
				"y": -0.4133145412,
				"z": -1.4806138572,
				"element": "H" 
			},
			{
				"x": 0.1430388257,
				"y": -4.4814632892,
				"z": -0.5513377943,
				"element": "H" 
			},
			{
				"x": -1.3263116098,
				"y": -4.6694294374,
				"z": -1.8934705245,
				"element": "H" 
			}
		],
		 "valence_orbital": [ 
			{
				"type": "occ",
				"energy": -0.32771,
				"method": "rhf"
			},
			{
				"type": "occ",
				"energy": -0.30251,
				"method": "rhf"
			},
			{
				"type": "occ",
				"energy": -0.28835,
				"method": "rhf"
			},
			{
				"type": "occ",
				"energy": -0.28535,
				"method": "rhf"
			},
			{
				"type": "occ",
				"energy": -0.27938,
				"method": "rhf"
			},
			{
				"type": "unocc",
				"energy": -0.07976,
				"method": "rhf"
			},
			{
				"type": "unocc",
				"energy": -0.06033,
				"method": "rhf"
			},
			{
				"type": "unocc",
				"energy": 0.00428,
				"method": "rhf"
			},
			{
				"type": "unocc",
				"energy": 0.04424,
				"method": "rhf"
			},
			{
				"type": "unocc",
				"energy": 0.04895,
				"method": "rhf"
			}
		],
		"cosmo_sigma_profile": { 
			"-0.025": 0.0,
			"-0.024": 0.0,
			"-0.023": 0.0,
			"-0.022": 0.0,
			"-0.021": 0.0,
			"-0.02": 0.334542728395,
			"-0.019": 0.979379189704,
			"-0.018": 1.17214808779,
			"-0.017": 0.924538134176,
			"-0.016": 1.1128727118,
			"-0.015": 0.81458748241,
			"-0.014": 1.15633256712,
			"-0.013": 1.34770477445,
			"-0.012": 1.35295459198,
			"-0.011": 1.04493092581,
			"-0.01": 1.73877601732,
			"-0.009": 1.85003879294,
			"-0.008": 3.18235153021,
			"-0.007": 5.12025461659,
			"-0.006": 6.57820706541,
			"-0.005": 9.00883308111,
			"-0.004": 16.4039128598,
			"-0.003": 29.1418200499,
			"-0.002": 29.6749010856,
			"-0.001": 22.7368391616,
			"0.0": 16.1234398974,
			"0.001": 12.9924568164,
			"0.002": 6.26408203153,
			"0.003": 4.42542841909,
			"0.004": 6.16824164584,
			"0.005": 6.43235299111,
			"0.006": 7.27947469933,
			"0.007": 8.67475821671,
			"0.008": 6.79549565394,
			"0.009": 6.74410916152,
			"0.01": 6.95347757728,
			"0.011": 7.41622288683,
			"0.012": 4.89823351222,
			"0.013": 2.62624920171,
			"0.014": 0.277944602909,
			"0.015": 0.0,
			"0.016": 0.0,
			"0.017": 0.0,
			"0.018": 0.0,
			"0.019": 0.0,
			"0.02": 0.0,
			"0.021": 0.0,
			"0.022": 0.0,
			"0.023": 0.0,
			"0.024": 0.0,
			"0.025": 0.0
		}
	}
}
