{
	 "smiles": "OC1=NC(CCC2=CC=CC=C2)=NN1C1=CC=CC=C1", 
	 "Tm": 455.15, 
	 "num_atms": 35, 
	 "gaussian": { 
		 "optdone": 1, 
		 "sigma_profile": "yes", 
		 "theory": "DFT", 
		 "functional": "B3LYP", 
		 "basiset": "6-31G**", 
		 "properties": { 
			 "R2extent": 7122.8945, 
			 "electric_dipole_moment_norm": 1.70529932563, 
			 "electric_quadrupole_moment_norm": 6.71882258584, 
			 "total_energy": -858.221412237, 
			 "HOMO_LUMO_gap": 0.20423, 
			 "cosmo_polarized_energy": -12.22, 
			 "cosmo_cavitation_energy": 39.11, 
			 "cosmo_dispersion_energy": -27.57, 
			 "cosmo_repulsion_energy": 2.13, 
			 "cosmo_total_nonelectrostatic_energy": 13.67, 
			 "SMD_solvation_energy": 4.48 
		},
		"coords": [
			{
				"x": 0.7572787563,
				"y": 3.8967842668,
				"z": 1.598751647,
				"element": "O" 
			},
			{
				"x": 0.1920708303,
				"y": 2.7463593157,
				"z": 1.2039374907,
				"element": "C" 
			},
			{
				"x": -0.803689642,
				"y": 2.1365792066,
				"z": 1.8068281031,
				"element": "N" 
			},
			{
				"x": -1.0043133015,
				"y": 1.0363651988,
				"z": 1.0107269149,
				"element": "C" 
			},
			{
				"x": -2.0930335542,
				"y": 0.0408117983,
				"z": 1.284847864,
				"element": "C" 
			},
			{
				"x": -1.7979190372,
				"y": -1.392260558,
				"z": 0.7893160332,
				"element": "C" 
			},
			{
				"x": -0.7476811734,
				"y": -2.1202243088,
				"z": 1.6044550191,
				"element": "C" 
			},
			{
				"x": 0.6024586867,
				"y": -2.1125083707,
				"z": 1.2275242237,
				"element": "C" 
			},
			{
				"x": 1.5624330768,
				"y": -2.7731974325,
				"z": 1.9962756683,
				"element": "C" 
			},
			{
				"x": 1.1888660448,
				"y": -3.4538882034,
				"z": 3.1562922253,
				"element": "C" 
			},
			{
				"x": -0.1529303967,
				"y": -3.4701953379,
				"z": 3.5421634806,
				"element": "C" 
			},
			{
				"x": -1.1096034853,
				"y": -2.8096631435,
				"z": 2.7706532535,
				"element": "C" 
			},
			{
				"x": -0.1933465262,
				"y": 0.9512003789,
				"z": -0.0275027676,
				"element": "N" 
			},
			{
				"x": 0.602619712,
				"y": 2.074303735,
				"z": 0.0970241949,
				"element": "N" 
			},
			{
				"x": 1.6116280457,
				"y": 2.3595664594,
				"z": -0.8636622673,
				"element": "C" 
			},
			{
				"x": 2.6407128306,
				"y": 3.2680112935,
				"z": -0.5872868224,
				"element": "C" 
			},
			{
				"x": 3.6091119563,
				"y": 3.518384739,
				"z": -1.5597026736,
				"element": "C" 
			},
			{
				"x": 3.5686530002,
				"y": 2.8678359509,
				"z": -2.7930995764,
				"element": "C" 
			},
			{
				"x": 2.5429946343,
				"y": 1.9566572008,
				"z": -3.0534352685,
				"element": "C" 
			},
			{
				"x": 1.5622934871,
				"y": 1.7000985115,
				"z": -2.0982208673,
				"element": "C" 
			},
			{
				"x": 0.2737614055,
				"y": 4.171121376,
				"z": 2.3929899071,
				"element": "H" 
			},
			{
				"x": -2.2843828809,
				"y": 0.0414824819,
				"z": 2.3626205331,
				"element": "H" 
			},
			{
				"x": -3.0154253468,
				"y": 0.4010685758,
				"z": 0.8085842412,
				"element": "H" 
			},
			{
				"x": -2.7363330291,
				"y": -1.9573879379,
				"z": 0.8256518397,
				"element": "H" 
			},
			{
				"x": -1.4937539678,
				"y": -1.3468479696,
				"z": -0.2608001913,
				"element": "H" 
			},
			{
				"x": 0.896892016,
				"y": -1.5750954614,
				"z": 0.3311878679,
				"element": "H" 
			},
			{
				"x": 2.603895206,
				"y": -2.7575582482,
				"z": 1.6863067902,
				"element": "H" 
			},
			{
				"x": 1.9356633113,
				"y": -3.9705763893,
				"z": 3.7526527886,
				"element": "H" 
			},
			{
				"x": -0.4557939624,
				"y": -4.0019285796,
				"z": 4.4401667928,
				"element": "H" 
			},
			{
				"x": -2.15442911,
				"y": -2.8340656428,
				"z": 3.0734739168,
				"element": "H" 
			},
			{
				"x": 2.6864393636,
				"y": 3.7702089272,
				"z": 0.3698642207,
				"element": "H" 
			},
			{
				"x": 4.4048307201,
				"y": 4.2246828419,
				"z": -1.3416833094,
				"element": "H" 
			},
			{
				"x": 4.3286358904,
				"y": 3.0668287452,
				"z": -3.5425166934,
				"element": "H" 
			},
			{
				"x": 2.5000036663,
				"y": 1.4418591933,
				"z": -4.0088116978,
				"element": "H" 
			},
			{
				"x": 0.7620927733,
				"y": 0.995687387,
				"z": -2.2864728815,
				"element": "H" 
			}
		],
		 "valence_orbital": [ 
			{
				"type": "occ",
				"energy": -0.25742,
				"method": "rhf"
			},
			{
				"type": "occ",
				"energy": -0.25389,
				"method": "rhf"
			},
			{
				"type": "occ",
				"energy": -0.2389,
				"method": "rhf"
			},
			{
				"type": "occ",
				"energy": -0.23208,
				"method": "rhf"
			},
			{
				"type": "occ",
				"energy": -0.2253,
				"method": "rhf"
			},
			{
				"type": "unocc",
				"energy": -0.02107,
				"method": "rhf"
			},
			{
				"type": "unocc",
				"energy": -0.00664,
				"method": "rhf"
			},
			{
				"type": "unocc",
				"energy": 0.00789,
				"method": "rhf"
			},
			{
				"type": "unocc",
				"energy": 0.01,
				"method": "rhf"
			},
			{
				"type": "unocc",
				"energy": 0.0387,
				"method": "rhf"
			}
		],
		"cosmo_sigma_profile": { 
			"-0.025": 0.0,
			"-0.024": 0.0,
			"-0.023": 0.0,
			"-0.022": 0.0,
			"-0.021": 0.0,
			"-0.02": 0.133249998969,
			"-0.019": 0.950617057882,
			"-0.018": 0.935359678994,
			"-0.017": 0.9188095458,
			"-0.016": 0.621481303673,
			"-0.015": 0.425133187575,
			"-0.014": 0.692214748952,
			"-0.013": 0.570823382741,
			"-0.012": 0.977228047587,
			"-0.011": 0.897391339001,
			"-0.01": 0.303138214027,
			"-0.009": 0.709392610032,
			"-0.008": 0.705110057439,
			"-0.007": 0.896484896955,
			"-0.006": 8.37607592301,
			"-0.005": 19.7989036373,
			"-0.004": 27.3834772208,
			"-0.003": 31.3998765594,
			"-0.002": 27.2177891952,
			"-0.001": 25.0680827006,
			"0.0": 22.5289947451,
			"0.001": 19.7855463687,
			"0.002": 22.1091299826,
			"0.003": 24.2438506331,
			"0.004": 26.523788058,
			"0.005": 20.1855411559,
			"0.006": 11.7799367799,
			"0.007": 6.85124660774,
			"0.008": 2.72451663366,
			"0.009": 1.68140736555,
			"0.01": 0.628321277273,
			"0.011": 1.01244621526,
			"0.012": 0.728735767848,
			"0.013": 0.99831366766,
			"0.014": 1.04935009535,
			"0.015": 0.496646268397,
			"0.016": 0.188342633124,
			"0.017": 0.0,
			"0.018": 0.0,
			"0.019": 0.0,
			"0.02": 0.0,
			"0.021": 0.0,
			"0.022": 0.0,
			"0.023": 0.0,
			"0.024": 0.0,
			"0.025": 0.0
		}
	}
}
