{
	 "smiles": "CC1=CC(C)=C(C=C1)C(=O)C1=C(N)SC2=C1CCC2", 
	 "Tm": 437.15, 
	 "num_atms": 36, 
	 "gaussian": { 
		 "optdone": 1, 
		 "sigma_profile": "yes", 
		 "theory": "DFT", 
		 "functional": "B3LYP", 
		 "basiset": "6-31G**", 
		 "properties": { 
			 "R2extent": 6774.0074, 
			 "electric_dipole_moment_norm": 1.55390971424, 
			 "electric_quadrupole_moment_norm": 10.5649645726, 
			 "total_energy": -1148.12406772, 
			 "HOMO_LUMO_gap": 0.14752, 
			 "cosmo_polarized_energy": -10.31, 
			 "cosmo_cavitation_energy": 39.06, 
			 "cosmo_dispersion_energy": -28.21, 
			 "cosmo_repulsion_energy": 2.16, 
			 "cosmo_total_nonelectrostatic_energy": 13.0, 
			 "SMD_solvation_energy": 5.71 
		},
		"coords": [
			{
				"x": -2.5593107587,
				"y": -3.4704336857,
				"z": -0.1130032605,
				"element": "C" 
			},
			{
				"x": -1.5816857268,
				"y": -2.3865736235,
				"z": -0.5016197099,
				"element": "C" 
			},
			{
				"x": -1.9809153007,
				"y": -1.3325816632,
				"z": -1.3367296475,
				"element": "C" 
			},
			{
				"x": -1.1061225387,
				"y": -0.3256770168,
				"z": -1.7520202905,
				"element": "C" 
			},
			{
				"x": -1.59453517,
				"y": 0.7652792531,
				"z": -2.6771910337,
				"element": "C" 
			},
			{
				"x": 0.2243154674,
				"y": -0.3585168725,
				"z": -1.2767747847,
				"element": "C" 
			},
			{
				"x": 0.6309065489,
				"y": -1.40331229,
				"z": -0.4400913249,
				"element": "C" 
			},
			{
				"x": -0.25595658,
				"y": -2.4112106697,
				"z": -0.0614159404,
				"element": "C" 
			},
			{
				"x": 1.2459302038,
				"y": 0.6400764606,
				"z": -1.7482134944,
				"element": "C" 
			},
			{
				"x": 1.4118384175,
				"y": 0.7768593199,
				"z": -2.9768117993,
				"element": "O" 
			},
			{
				"x": 2.0321321716,
				"y": 1.392632309,
				"z": -0.781434127,
				"element": "C" 
			},
			{
				"x": 3.11281465,
				"y": 2.1819488448,
				"z": -1.2236238629,
				"element": "C" 
			},
			{
				"x": 3.5504894571,
				"y": 2.2843292628,
				"z": -2.4967797136,
				"element": "N" 
			},
			{
				"x": 3.9011419375,
				"y": 3.043460024,
				"z": 0.0914160488,
				"element": "S" 
			},
			{
				"x": 2.7384332015,
				"y": 2.3898150714,
				"z": 1.2341118909,
				"element": "C" 
			},
			{
				"x": 1.8452110473,
				"y": 1.5553860764,
				"z": 0.6475137077,
				"element": "C" 
			},
			{
				"x": 0.8764193323,
				"y": 1.0330492226,
				"z": 1.6860928,
				"element": "C" 
			},
			{
				"x": 1.1464512726,
				"y": 1.9586960525,
				"z": 2.9099633988,
				"element": "C" 
			},
			{
				"x": 2.5709535776,
				"y": 2.5611757785,
				"z": 2.7149116803,
				"element": "C" 
			},
			{
				"x": -3.5219883483,
				"y": -3.0494961473,
				"z": 0.1962425648,
				"element": "H" 
			},
			{
				"x": -2.1758636237,
				"y": -4.0786226016,
				"z": 0.7110927673,
				"element": "H" 
			},
			{
				"x": -2.7593701764,
				"y": -4.1443379159,
				"z": -0.955205227,
				"element": "H" 
			},
			{
				"x": -3.0123354464,
				"y": -1.2991702187,
				"z": -1.6827654926,
				"element": "H" 
			},
			{
				"x": -2.6732516037,
				"y": 0.6844857318,
				"z": -2.8363686502,
				"element": "H" 
			},
			{
				"x": -1.0892813036,
				"y": 0.7079577347,
				"z": -3.6448088058,
				"element": "H" 
			},
			{
				"x": -1.3850502237,
				"y": 1.7618114241,
				"z": -2.2730032023,
				"element": "H" 
			},
			{
				"x": 1.6608391288,
				"y": -1.4348496037,
				"z": -0.0959148753,
				"element": "H" 
			},
			{
				"x": 0.0863665288,
				"y": -3.2188459628,
				"z": 0.5806438716,
				"element": "H" 
			},
			{
				"x": 4.2130070104,
				"y": 2.9947293952,
				"z": -2.7612469852,
				"element": "H" 
			},
			{
				"x": 2.9191123593,
				"y": 1.86504461,
				"z": -3.1800102666,
				"element": "H" 
			},
			{
				"x": -0.1680339903,
				"y": 1.0728756638,
				"z": 1.3609663255,
				"element": "H" 
			},
			{
				"x": 1.0815050537,
				"y": -0.0180293588,
				"z": 1.9241135187,
				"element": "H" 
			},
			{
				"x": 0.4161854806,
				"y": 2.7742513107,
				"z": 2.9104871032,
				"element": "H" 
			},
			{
				"x": 1.0458295944,
				"y": 1.4303674827,
				"z": 3.8624186749,
				"element": "H" 
			},
			{
				"x": 3.3322174348,
				"y": 2.0029699541,
				"z": 3.2790653823,
				"element": "H" 
			},
			{
				"x": 2.6265009153,
				"y": 3.6025566475,
				"z": 3.0525927598,
				"element": "H" 
			}
		],
		 "valence_orbital": [ 
			{
				"type": "occ",
				"energy": -0.2457,
				"method": "rhf"
			},
			{
				"type": "occ",
				"energy": -0.24321,
				"method": "rhf"
			},
			{
				"type": "occ",
				"energy": -0.2396,
				"method": "rhf"
			},
			{
				"type": "occ",
				"energy": -0.22912,
				"method": "rhf"
			},
			{
				"type": "occ",
				"energy": -0.18682,
				"method": "rhf"
			},
			{
				"type": "unocc",
				"energy": -0.0393,
				"method": "rhf"
			},
			{
				"type": "unocc",
				"energy": 0.00372,
				"method": "rhf"
			},
			{
				"type": "unocc",
				"energy": 0.00459,
				"method": "rhf"
			},
			{
				"type": "unocc",
				"energy": 0.01481,
				"method": "rhf"
			},
			{
				"type": "unocc",
				"energy": 0.02731,
				"method": "rhf"
			}
		],
		"cosmo_sigma_profile": { 
			"-0.025": 0.0,
			"-0.024": 0.0,
			"-0.023": 0.0,
			"-0.022": 0.0,
			"-0.021": 0.0,
			"-0.02": 0.0,
			"-0.019": 0.0,
			"-0.018": 0.0,
			"-0.017": 0.0,
			"-0.016": 0.0224086288785,
			"-0.015": 0.985647035966,
			"-0.014": 1.47787332936,
			"-0.013": 0.831803111796,
			"-0.012": 1.09321152567,
			"-0.011": 1.79072250456,
			"-0.01": 1.20069634535,
			"-0.009": 1.99886570506,
			"-0.008": 1.69054381721,
			"-0.007": 1.49339212782,
			"-0.006": 1.72484090298,
			"-0.005": 8.30330190055,
			"-0.004": 20.1861620507,
			"-0.003": 32.771265595,
			"-0.002": 36.1011228951,
			"-0.001": 36.0031438663,
			"0.0": 37.2597991774,
			"0.001": 27.3527307447,
			"0.002": 20.1554337736,
			"0.003": 19.9786609617,
			"0.004": 21.94769616,
			"0.005": 15.958914502,
			"0.006": 6.48434986856,
			"0.007": 3.12064297251,
			"0.008": 2.06625825781,
			"0.009": 1.59414354275,
			"0.01": 1.67460648465,
			"0.011": 2.07915256139,
			"0.012": 1.38248932106,
			"0.013": 1.20304314162,
			"0.014": 0.683647301951,
			"0.015": 0.0,
			"0.016": 0.0,
			"0.017": 0.0,
			"0.018": 0.0,
			"0.019": 0.0,
			"0.02": 0.0,
			"0.021": 0.0,
			"0.022": 0.0,
			"0.023": 0.0,
			"0.024": 0.0,
			"0.025": 0.0
		}
	}
}
