{
	 "smiles": "CC1=NC(Cl)=C(C=C1)[N+]([O-])=O", 
	 "Tm": 345.15, 
	 "num_atms": 16, 
	 "gaussian": { 
		 "optdone": 1, 
		 "sigma_profile": "yes", 
		 "theory": "DFT", 
		 "functional": "B3LYP", 
		 "basiset": "6-31G**", 
		 "properties": { 
			 "R2extent": 2092.2257, 
			 "electric_dipole_moment_norm": 5.2403732119, 
			 "electric_quadrupole_moment_norm": 6.02928589801, 
			 "total_energy": -951.684000371, 
			 "HOMO_LUMO_gap": 0.18037, 
			 "cosmo_polarized_energy": -10.41, 
			 "cosmo_cavitation_energy": 23.01, 
			 "cosmo_dispersion_energy": -17.16, 
			 "cosmo_repulsion_energy": 1.39, 
			 "cosmo_total_nonelectrostatic_energy": 7.25, 
			 "SMD_solvation_energy": 4.86 
		},
		"coords": [
			{
				"x": 2.1827519247,
				"y": 1.1348278481,
				"z": 2.0862491656,
				"element": "C" 
			},
			{
				"x": 1.2498019159,
				"y": 0.5487408342,
				"z": 1.0603130522,
				"element": "C" 
			},
			{
				"x": -0.0467140127,
				"y": 0.4651444102,
				"z": 1.3941069509,
				"element": "N" 
			},
			{
				"x": -0.9275374357,
				"y": -0.0165498716,
				"z": 0.5310391302,
				"element": "C" 
			},
			{
				"x": -2.5633949522,
				"y": -0.1263823424,
				"z": 1.1272425406,
				"element": "Cl" 
			},
			{
				"x": -0.5514426427,
				"y": -0.4600552774,
				"z": -0.7475351784,
				"element": "C" 
			},
			{
				"x": 0.8008104711,
				"y": -0.4129745714,
				"z": -1.0917403973,
				"element": "C" 
			},
			{
				"x": 1.7137484595,
				"y": 0.1023045896,
				"z": -0.186613711,
				"element": "C" 
			},
			{
				"x": -1.4793841719,
				"y": -0.9752857461,
				"z": -1.7654127543,
				"element": "N" 
			},
			{
				"x": -1.013572654,
				"y": -1.7852151705,
				"z": -2.5689030681,
				"element": "O" 
			},
			{
				"x": -2.6296569969,
				"y": -0.5531308834,
				"z": -1.7728874682,
				"element": "O" 
			},
			{
				"x": 2.9581690522,
				"y": 0.4129015039,
				"z": 2.3658127476,
				"element": "H" 
			},
			{
				"x": 1.6233607196,
				"y": 1.4168387087,
				"z": 2.9785405225,
				"element": "H" 
			},
			{
				"x": 2.6920586306,
				"y": 2.0201618288,
				"z": 1.6898323245,
				"element": "H" 
			},
			{
				"x": 1.0994439159,
				"y": -0.7807662526,
				"z": -2.0661851774,
				"element": "H" 
			},
			{
				"x": 2.7680577764,
				"y": 0.1606403917,
				"z": -0.4358586794,
				"element": "H" 
			}
		],
		 "valence_orbital": [ 
			{
				"type": "occ",
				"energy": -0.31767,
				"method": "rhf"
			},
			{
				"type": "occ",
				"energy": -0.31183,
				"method": "rhf"
			},
			{
				"type": "occ",
				"energy": -0.2953,
				"method": "rhf"
			},
			{
				"type": "occ",
				"energy": -0.28933,
				"method": "rhf"
			},
			{
				"type": "occ",
				"energy": -0.27771,
				"method": "rhf"
			},
			{
				"type": "unocc",
				"energy": -0.09734,
				"method": "rhf"
			},
			{
				"type": "unocc",
				"energy": -0.05488,
				"method": "rhf"
			},
			{
				"type": "unocc",
				"energy": -0.02603,
				"method": "rhf"
			},
			{
				"type": "unocc",
				"energy": 0.0192,
				"method": "rhf"
			},
			{
				"type": "unocc",
				"energy": 0.08446,
				"method": "rhf"
			}
		],
		"cosmo_sigma_profile": { 
			"-0.025": 0.0,
			"-0.024": 0.0,
			"-0.023": 0.0,
			"-0.022": 0.0,
			"-0.021": 0.0,
			"-0.02": 0.0,
			"-0.019": 0.0,
			"-0.018": 0.0,
			"-0.017": 0.0,
			"-0.016": 0.0,
			"-0.015": 0.0,
			"-0.014": 0.0,
			"-0.013": 0.0,
			"-0.012": 0.0,
			"-0.011": 0.0,
			"-0.01": 0.20849117212,
			"-0.009": 2.27925067344,
			"-0.008": 5.62235924675,
			"-0.007": 6.16062193625,
			"-0.006": 9.81382344243,
			"-0.005": 12.0569123861,
			"-0.004": 12.7410113383,
			"-0.003": 17.1673245731,
			"-0.002": 18.1135710921,
			"-0.001": 17.6497155673,
			"0.0": 10.5471706368,
			"0.001": 7.50090195641,
			"0.002": 8.19619321259,
			"0.003": 9.57223587718,
			"0.004": 7.37439476518,
			"0.005": 7.24993634419,
			"0.006": 6.60292603351,
			"0.007": 12.0236452368,
			"0.008": 8.17561028232,
			"0.009": 4.43454994521,
			"0.01": 1.66885637488,
			"0.011": 0.91438495222,
			"0.012": 0.845115743501,
			"0.013": 0.13200912216,
			"0.014": 0.0,
			"0.015": 0.0,
			"0.016": 0.0,
			"0.017": 0.0,
			"0.018": 0.0,
			"0.019": 0.0,
			"0.02": 0.0,
			"0.021": 0.0,
			"0.022": 0.0,
			"0.023": 0.0,
			"0.024": 0.0,
			"0.025": 0.0
		}
	}
}
