{
	 "smiles": "OC(=O)C1=CC(Cl)=CC(Cl)=C1Cl", 
	 "Tm": 439.15, 
	 "num_atms": 15, 
	 "gaussian": { 
		 "optdone": 1, 
		 "sigma_profile": "yes", 
		 "theory": "DFT", 
		 "functional": "B3LYP", 
		 "basiset": "6-31G**", 
		 "properties": { 
			 "R2extent": 4842.5339, 
			 "electric_dipole_moment_norm": 3.28969249779, 
			 "electric_quadrupole_moment_norm": 3.51517208825, 
			 "total_energy": -1799.57406143, 
			 "HOMO_LUMO_gap": 0.19264, 
			 "cosmo_polarized_energy": -9.7, 
			 "cosmo_cavitation_energy": 25.16, 
			 "cosmo_dispersion_energy": -19.26, 
			 "cosmo_repulsion_energy": 1.52, 
			 "cosmo_total_nonelectrostatic_energy": 7.43, 
			 "SMD_solvation_energy": 4.75 
		},
		"coords": [
			{
				"x": 0.3588453345,
				"y": 0.7592806474,
				"z": 2.674835771,
				"element": "O" 
			},
			{
				"x": 0.3494968368,
				"y": 0.3195886698,
				"z": 1.4082242736,
				"element": "C" 
			},
			{
				"x": 0.9928799154,
				"y": -0.6566946033,
				"z": 1.1000284506,
				"element": "O" 
			},
			{
				"x": -0.5075365831,
				"y": 1.0323888069,
				"z": 0.3654367529,
				"element": "C" 
			},
			{
				"x": -0.6651255302,
				"y": 0.2923226548,
				"z": -0.8152864618,
				"element": "C" 
			},
			{
				"x": -1.4172767605,
				"y": 0.7866429177,
				"z": -1.8715246608,
				"element": "C" 
			},
			{
				"x": -1.6033154785,
				"y": -0.1640092241,
				"z": -3.3267277967,
				"element": "Cl" 
			},
			{
				"x": -2.0274336882,
				"y": 2.0351409818,
				"z": -1.7919494933,
				"element": "C" 
			},
			{
				"x": -1.8729794489,
				"y": 2.7891047077,
				"z": -0.6302693861,
				"element": "C" 
			},
			{
				"x": -2.6396527347,
				"y": 4.354644548,
				"z": -0.570611679,
				"element": "Cl" 
			},
			{
				"x": -1.1213544502,
				"y": 2.2977882589,
				"z": 0.4505008584,
				"element": "C" 
			},
			{
				"x": -0.9637568687,
				"y": 3.3233176568,
				"z": 1.870386666,
				"element": "Cl" 
			},
			{
				"x": -0.1807358216,
				"y": 1.5591141138,
				"z": 2.7847904913,
				"element": "H" 
			},
			{
				"x": -0.17482201,
				"y": -0.6712342609,
				"z": -0.8731561755,
				"element": "H" 
			},
			{
				"x": -2.6126327121,
				"y": 2.4253041249,
				"z": -2.6153776107,
				"element": "H" 
			}
		],
		 "valence_orbital": [ 
			{
				"type": "occ",
				"energy": -0.33452,
				"method": "rhf"
			},
			{
				"type": "occ",
				"energy": -0.325,
				"method": "rhf"
			},
			{
				"type": "occ",
				"energy": -0.29453,
				"method": "rhf"
			},
			{
				"type": "occ",
				"energy": -0.28719,
				"method": "rhf"
			},
			{
				"type": "occ",
				"energy": -0.27318,
				"method": "rhf"
			},
			{
				"type": "unocc",
				"energy": -0.08054,
				"method": "rhf"
			},
			{
				"type": "unocc",
				"energy": -0.05317,
				"method": "rhf"
			},
			{
				"type": "unocc",
				"energy": -0.03446,
				"method": "rhf"
			},
			{
				"type": "unocc",
				"energy": 0.00826,
				"method": "rhf"
			},
			{
				"type": "unocc",
				"energy": 0.02388,
				"method": "rhf"
			}
		],
		"cosmo_sigma_profile": { 
			"-0.025": 0.0,
			"-0.024": 0.0,
			"-0.023": 0.0,
			"-0.022": 0.0,
			"-0.021": 0.0,
			"-0.02": 0.0,
			"-0.019": 0.0,
			"-0.018": 0.0,
			"-0.017": 0.0,
			"-0.016": 0.0,
			"-0.015": 0.0,
			"-0.014": 0.15477566738,
			"-0.013": 0.809638739624,
			"-0.012": 1.49366662549,
			"-0.011": 1.43518432171,
			"-0.01": 1.87252135381,
			"-0.009": 2.3594675857,
			"-0.008": 2.80792311795,
			"-0.007": 5.12644664751,
			"-0.006": 6.22097821183,
			"-0.005": 8.16979716442,
			"-0.004": 9.36770527267,
			"-0.003": 15.289306912,
			"-0.002": 24.4929506301,
			"-0.001": 26.4517104846,
			"0.0": 14.8207828672,
			"0.001": 15.0157615359,
			"0.002": 18.6534482028,
			"0.003": 22.2592941604,
			"0.004": 7.69948397674,
			"0.005": 1.71491177518,
			"0.006": 2.9589544668,
			"0.007": 1.87537257424,
			"0.008": 3.26021628756,
			"0.009": 4.20304939815,
			"0.01": 4.83619453634,
			"0.011": 4.37088106767,
			"0.012": 2.08737871788,
			"0.013": 0.279476342226,
			"0.014": 0.0,
			"0.015": 0.0,
			"0.016": 0.0,
			"0.017": 0.0,
			"0.018": 0.0,
			"0.019": 0.0,
			"0.02": 0.0,
			"0.021": 0.0,
			"0.022": 0.0,
			"0.023": 0.0,
			"0.024": 0.0,
			"0.025": 0.0
		}
	}
}
