{
	 "smiles": "BrC1=CNC2=NC(=NC2=C1)C1CCCO1", 
	 "Tm": 493.15, 
	 "num_atms": 25, 
	 "gaussian": { 
		 "optdone": 1, 
		 "sigma_profile": "yes", 
		 "theory": "DFT", 
		 "functional": "B3LYP", 
		 "basiset": "6-31G**", 
		 "properties": { 
			 "R2extent": 8039.923, 
			 "electric_dipole_moment_norm": 4.17768790242, 
			 "electric_quadrupole_moment_norm": 16.8891099283, 
			 "total_energy": -3197.95311023, 
			 "HOMO_LUMO_gap": 0.15991, 
			 "cosmo_polarized_energy": -19.5, 
			 "cosmo_cavitation_energy": 30.69, 
			 "cosmo_dispersion_energy": -23.52, 
			 "cosmo_repulsion_energy": 1.85, 
			 "cosmo_total_nonelectrostatic_energy": 9.02, 
			 "SMD_solvation_energy": 0.26 
		},
		"coords": [
			{
				"x": -1.6733214201,
				"y": -3.4519391414,
				"z": -4.8782569084,
				"element": "Br" 
			},
			{
				"x": -1.5455374467,
				"y": -2.5774941245,
				"z": -3.1891271328,
				"element": "C" 
			},
			{
				"x": -2.6490671129,
				"y": -2.6053553067,
				"z": -2.3596784354,
				"element": "C" 
			},
			{
				"x": -2.594452152,
				"y": -1.991542403,
				"z": -1.1417961815,
				"element": "N" 
			},
			{
				"x": -1.4732274331,
				"y": -1.351261894,
				"z": -0.7268538384,
				"element": "C" 
			},
			{
				"x": -1.2528380963,
				"y": -0.7102841232,
				"z": 0.4110635011,
				"element": "N" 
			},
			{
				"x": 0.0480523037,
				"y": -0.2842865082,
				"z": 0.2275681372,
				"element": "C" 
			},
			{
				"x": 0.6553122153,
				"y": -0.6084758557,
				"z": -0.9230606584,
				"element": "N" 
			},
			{
				"x": -0.3070468227,
				"y": -1.3100663279,
				"z": -1.5878493608,
				"element": "C" 
			},
			{
				"x": -0.3452860638,
				"y": -1.9280473715,
				"z": -2.8242503552,
				"element": "C" 
			},
			{
				"x": 0.7391834996,
				"y": 0.4873562949,
				"z": 1.3254776742,
				"element": "C" 
			},
			{
				"x": 1.7021124862,
				"y": -0.397580035,
				"z": 2.1471572523,
				"element": "C" 
			},
			{
				"x": 2.9910919561,
				"y": -0.3094505993,
				"z": 1.3153451825,
				"element": "C" 
			},
			{
				"x": 2.9266762665,
				"y": 1.1198944025,
				"z": 0.7499684891,
				"element": "C" 
			},
			{
				"x": 1.5527941397,
				"y": 1.534131328,
				"z": 0.8074660472,
				"element": "O" 
			},
			{
				"x": -3.5754000075,
				"y": -3.0958212309,
				"z": -2.6229559608,
				"element": "H" 
			},
			{
				"x": -3.4003709056,
				"y": -2.0065857807,
				"z": -0.5270237358,
				"element": "H" 
			},
			{
				"x": 0.5062009674,
				"y": -1.9203509209,
				"z": -3.4951549655,
				"element": "H" 
			},
			{
				"x": -0.0388877021,
				"y": 0.9355932696,
				"z": 1.9518581565,
				"element": "H" 
			},
			{
				"x": 1.841739809,
				"y": 0.0514037298,
				"z": 3.1366516679,
				"element": "H" 
			},
			{
				"x": 1.3363149545,
				"y": -1.4187070953,
				"z": 2.2830502624,
				"element": "H" 
			},
			{
				"x": 3.8931775472,
				"y": -0.4872003237,
				"z": 1.907863164,
				"element": "H" 
			},
			{
				"x": 2.9607193195,
				"y": -1.0367145246,
				"z": 0.5002356252,
				"element": "H" 
			},
			{
				"x": 3.2752344069,
				"y": 1.1686229649,
				"z": -0.2873713293,
				"element": "H" 
			},
			{
				"x": 3.5188252913,
				"y": 1.8251615769,
				"z": 1.3491737028,
				"element": "H" 
			}
		],
		 "valence_orbital": [ 
			{
				"type": "occ",
				"energy": -0.29359,
				"method": "rhf"
			},
			{
				"type": "occ",
				"energy": -0.26047,
				"method": "rhf"
			},
			{
				"type": "occ",
				"energy": -0.24576,
				"method": "rhf"
			},
			{
				"type": "occ",
				"energy": -0.23925,
				"method": "rhf"
			},
			{
				"type": "occ",
				"energy": -0.23096,
				"method": "rhf"
			},
			{
				"type": "unocc",
				"energy": -0.07105,
				"method": "rhf"
			},
			{
				"type": "unocc",
				"energy": -0.01473,
				"method": "rhf"
			},
			{
				"type": "unocc",
				"energy": -0.00809,
				"method": "rhf"
			},
			{
				"type": "unocc",
				"energy": 0.05734,
				"method": "rhf"
			},
			{
				"type": "unocc",
				"energy": 0.05926,
				"method": "rhf"
			}
		],
		"cosmo_sigma_profile": { 
			"-0.025": 0.0,
			"-0.024": 0.0,
			"-0.023": 0.0,
			"-0.022": 0.0,
			"-0.021": 0.0,
			"-0.02": 0.0,
			"-0.019": 0.391752245813,
			"-0.018": 1.87024294692,
			"-0.017": 1.73988910718,
			"-0.016": 1.47742635648,
			"-0.015": 0.974527157499,
			"-0.014": 1.05614736476,
			"-0.013": 1.33738644227,
			"-0.012": 1.39908860275,
			"-0.011": 2.13067892334,
			"-0.01": 2.61579734463,
			"-0.009": 2.42773438102,
			"-0.008": 3.50899683887,
			"-0.007": 3.62135930586,
			"-0.006": 3.25721009074,
			"-0.005": 5.86367600698,
			"-0.004": 15.2699891952,
			"-0.003": 23.7842498107,
			"-0.002": 27.7692380179,
			"-0.001": 26.2409553103,
			"0.0": 24.2540414944,
			"0.001": 16.0999639476,
			"0.002": 12.3513681322,
			"0.003": 13.8857879713,
			"0.004": 12.8774500063,
			"0.005": 4.80931623177,
			"0.006": 4.17284486242,
			"0.007": 3.49963751885,
			"0.008": 3.72535889506,
			"0.009": 3.9284538256,
			"0.01": 2.84044019394,
			"0.011": 2.77658212388,
			"0.012": 3.37759375915,
			"0.013": 4.86120692269,
			"0.014": 3.68193340429,
			"0.015": 2.01648479012,
			"0.016": 1.2695753339,
			"0.017": 0.373895848199,
			"0.018": 0.0,
			"0.019": 0.0,
			"0.02": 0.0,
			"0.021": 0.0,
			"0.022": 0.0,
			"0.023": 0.0,
			"0.024": 0.0,
			"0.025": 0.0
		}
	}
}
