{
	 "smiles": "SCCCCCCS", 
	 "Tm": 252.15, 
	 "num_atms": 22, 
	 "gaussian": { 
		 "optdone": 1, 
		 "sigma_profile": "yes", 
		 "theory": "DFT", 
		 "functional": "B3LYP", 
		 "basiset": "6-31G**", 
		 "properties": { 
			 "R2extent": 2377.3727, 
			 "electric_dipole_moment_norm": 1.80520848934, 
			 "electric_quadrupole_moment_norm": 10.0337206305, 
			 "total_energy": -1033.45642023, 
			 "HOMO_LUMO_gap": 0.25302, 
			 "cosmo_polarized_energy": -7.23, 
			 "cosmo_cavitation_energy": 26.25, 
			 "cosmo_dispersion_energy": -19.71, 
			 "cosmo_repulsion_energy": 1.57, 
			 "cosmo_total_nonelectrostatic_energy": 8.11, 
			 "SMD_solvation_energy": 3.07 
		},
		"coords": [
			{
				"x": -2.471513695,
				"y": -2.3956351686,
				"z": -1.3103660928,
				"element": "S" 
			},
			{
				"x": -1.9684879583,
				"y": -1.1508797738,
				"z": -2.5784318475,
				"element": "C" 
			},
			{
				"x": -2.203168762,
				"y": 0.3157788213,
				"z": -2.198130081,
				"element": "C" 
			},
			{
				"x": -1.4917704889,
				"y": 0.8513843028,
				"z": -0.9438243928,
				"element": "C" 
			},
			{
				"x": 0.0501643088,
				"y": 0.9134224149,
				"z": -1.0140474134,
				"element": "C" 
			},
			{
				"x": 0.8193438477,
				"y": -0.334056207,
				"z": -0.5356246041,
				"element": "C" 
			},
			{
				"x": 0.6444005564,
				"y": -0.6989031486,
				"z": 0.942903393,
				"element": "C" 
			},
			{
				"x": 1.2816943001,
				"y": 0.6528783454,
				"z": 2.0392151016,
				"element": "S" 
			},
			{
				"x": -3.7800789043,
				"y": -2.0697670169,
				"z": -1.2790833042,
				"element": "H" 
			},
			{
				"x": -2.48649382,
				"y": -1.385814456,
				"z": -3.5122860754,
				"element": "H" 
			},
			{
				"x": -0.9076789413,
				"y": -1.3548769692,
				"z": -2.7468610201,
				"element": "H" 
			},
			{
				"x": -3.2837839505,
				"y": 0.4734160281,
				"z": -2.0824785117,
				"element": "H" 
			},
			{
				"x": -1.9024886938,
				"y": 0.9231457837,
				"z": -3.0645981186,
				"element": "H" 
			},
			{
				"x": -1.8115966569,
				"y": 0.2731651531,
				"z": -0.0698497638,
				"element": "H" 
			},
			{
				"x": -1.8678067766,
				"y": 1.8679741165,
				"z": -0.7785689289,
				"element": "H" 
			},
			{
				"x": 0.3908338857,
				"y": 1.7687184819,
				"z": -0.419067099,
				"element": "H" 
			},
			{
				"x": 0.356082322,
				"y": 1.1329351454,
				"z": -2.0462059172,
				"element": "H" 
			},
			{
				"x": 0.520410427,
				"y": -1.2157636157,
				"z": -1.1143911048,
				"element": "H" 
			},
			{
				"x": 1.8875042844,
				"y": -0.184675131,
				"z": -0.7365952093,
				"element": "H" 
			},
			{
				"x": -0.4063975188,
				"y": -0.8828801801,
				"z": 1.1782785537,
				"element": "H" 
			},
			{
				"x": 1.2075088256,
				"y": -1.6096978638,
				"z": 1.1608114915,
				"element": "H" 
			},
			{
				"x": 1.0855234088,
				"y": 0.0074309375,
				"z": 3.205800945,
				"element": "H" 
			}
		],
		 "valence_orbital": [ 
			{
				"type": "occ",
				"energy": -0.3204,
				"method": "rhf"
			},
			{
				"type": "occ",
				"energy": -0.31556,
				"method": "rhf"
			},
			{
				"type": "occ",
				"energy": -0.30627,
				"method": "rhf"
			},
			{
				"type": "occ",
				"energy": -0.23953,
				"method": "rhf"
			},
			{
				"type": "occ",
				"energy": -0.22993,
				"method": "rhf"
			},
			{
				"type": "unocc",
				"energy": 0.02309,
				"method": "rhf"
			},
			{
				"type": "unocc",
				"energy": 0.03324,
				"method": "rhf"
			},
			{
				"type": "unocc",
				"energy": 0.06792,
				"method": "rhf"
			},
			{
				"type": "unocc",
				"energy": 0.06995,
				"method": "rhf"
			},
			{
				"type": "unocc",
				"energy": 0.09263,
				"method": "rhf"
			}
		],
		"cosmo_sigma_profile": { 
			"-0.025": 0.0,
			"-0.024": 0.0,
			"-0.023": 0.0,
			"-0.022": 0.0,
			"-0.021": 0.0,
			"-0.02": 0.0,
			"-0.019": 0.0,
			"-0.018": 0.0,
			"-0.017": 0.0,
			"-0.016": 0.0,
			"-0.015": 0.0,
			"-0.014": 0.0,
			"-0.013": 0.0,
			"-0.012": 0.0,
			"-0.011": 0.0,
			"-0.01": 0.0,
			"-0.009": 1.2874358915,
			"-0.008": 4.42764857628,
			"-0.007": 3.83185135424,
			"-0.006": 4.91400954016,
			"-0.005": 9.30495938434,
			"-0.004": 13.2374544957,
			"-0.003": 21.1174414253,
			"-0.002": 28.4306642482,
			"-0.001": 25.9462380957,
			"0.0": 22.0365873835,
			"0.001": 14.2860839484,
			"0.002": 7.93459505749,
			"0.003": 8.80070654541,
			"0.004": 6.62026600746,
			"0.005": 8.0363923347,
			"0.006": 7.16752664891,
			"0.007": 5.693576958,
			"0.008": 4.39131713124,
			"0.009": 4.2190626186,
			"0.01": 2.82424766241,
			"0.011": 3.09818116621,
			"0.012": 0.614120097287,
			"0.013": 0.0,
			"0.014": 0.0,
			"0.015": 0.0,
			"0.016": 0.0,
			"0.017": 0.0,
			"0.018": 0.0,
			"0.019": 0.0,
			"0.02": 0.0,
			"0.021": 0.0,
			"0.022": 0.0,
			"0.023": 0.0,
			"0.024": 0.0,
			"0.025": 0.0
		}
	}
}
