{
	 "smiles": "CCOC(C)C1=NC(CC(O)=O)=CS1", 
	 "Tm": 365.15, 
	 "num_atms": 27, 
	 "gaussian": { 
		 "optdone": 1, 
		 "sigma_profile": "yes", 
		 "theory": "DFT", 
		 "functional": "B3LYP", 
		 "basiset": "6-31G**", 
		 "properties": { 
			 "R2extent": 4186.5199, 
			 "electric_dipole_moment_norm": 5.89723580248, 
			 "electric_quadrupole_moment_norm": 26.5642844519, 
			 "total_energy": -1029.40880031, 
			 "HOMO_LUMO_gap": 0.19828, 
			 "cosmo_polarized_energy": -14.15, 
			 "cosmo_cavitation_energy": 31.91, 
			 "cosmo_dispersion_energy": -23.02, 
			 "cosmo_repulsion_energy": 1.81, 
			 "cosmo_total_nonelectrostatic_energy": 10.69, 
			 "SMD_solvation_energy": 5.99 
		},
		"coords": [
			{
				"x": 3.7881877307,
				"y": -2.0377072617,
				"z": -0.1679902339,
				"element": "C" 
			},
			{
				"x": 2.475135454,
				"y": -1.6536206525,
				"z": 0.4929494929,
				"element": "C" 
			},
			{
				"x": 1.4262466808,
				"y": -1.9325329572,
				"z": -0.439152761,
				"element": "O" 
			},
			{
				"x": 0.1276400097,
				"y": -1.4626346399,
				"z": -0.0963818924,
				"element": "C" 
			},
			{
				"x": -0.3566910078,
				"y": -1.8582084007,
				"z": 1.3005933966,
				"element": "C" 
			},
			{
				"x": 0.0253866393,
				"y": 0.0315941164,
				"z": -0.3459110175,
				"element": "C" 
			},
			{
				"x": -0.7859787877,
				"y": 0.85280128,
				"z": 0.2616169376,
				"element": "N" 
			},
			{
				"x": -0.71127745,
				"y": 2.1402850812,
				"z": -0.2460359508,
				"element": "C" 
			},
			{
				"x": -1.5692961971,
				"y": 3.2092659544,
				"z": 0.3739406795,
				"element": "C" 
			},
			{
				"x": -3.049890528,
				"y": 2.8464056102,
				"z": 0.5978487784,
				"element": "C" 
			},
			{
				"x": -3.297178969,
				"y": 1.585476369,
				"z": 0.9878713079,
				"element": "O" 
			},
			{
				"x": -3.9278646185,
				"y": 3.6683553367,
				"z": 0.4899659889,
				"element": "O" 
			},
			{
				"x": 0.1854734976,
				"y": 2.2912181544,
				"z": -1.264422228,
				"element": "C" 
			},
			{
				"x": 0.9754918947,
				"y": 0.7859472471,
				"z": -1.6082370166,
				"element": "S" 
			},
			{
				"x": 3.7755173406,
				"y": -3.0922912189,
				"z": -0.4578756306,
				"element": "H" 
			},
			{
				"x": 3.9607670558,
				"y": -1.4376684193,
				"z": -1.0659720958,
				"element": "H" 
			},
			{
				"x": 4.6213684663,
				"y": -1.8779349041,
				"z": 0.5234944974,
				"element": "H" 
			},
			{
				"x": 2.4770723947,
				"y": -0.587814911,
				"z": 0.7655172301,
				"element": "H" 
			},
			{
				"x": 2.3269310398,
				"y": -2.2325593783,
				"z": 1.4146660214,
				"element": "H" 
			},
			{
				"x": -0.5225286527,
				"y": -1.9537193897,
				"z": -0.8326030223,
				"element": "H" 
			},
			{
				"x": -1.4162624987,
				"y": -1.6159866424,
				"z": 1.4091659473,
				"element": "H" 
			},
			{
				"x": 0.1867898608,
				"y": -1.3333638838,
				"z": 2.0899545008,
				"element": "H" 
			},
			{
				"x": -0.230531994,
				"y": -2.9360225885,
				"z": 1.4344421933,
				"element": "H" 
			},
			{
				"x": -1.168597166,
				"y": 3.4609059698,
				"z": 1.3668972044,
				"element": "H" 
			},
			{
				"x": -1.5476474596,
				"y": 4.1238525854,
				"z": -0.2194226865,
				"element": "H" 
			},
			{
				"x": -2.4647816351,
				"y": 1.0585292099,
				"z": 0.9512670335,
				"element": "H" 
			},
			{
				"x": 0.4316188992,
				"y": 3.1915283336,
				"z": -1.8091866743,
				"element": "H" 
			}
		],
		 "valence_orbital": [ 
			{
				"type": "occ",
				"energy": -0.30584,
				"method": "rhf"
			},
			{
				"type": "occ",
				"energy": -0.29533,
				"method": "rhf"
			},
			{
				"type": "occ",
				"energy": -0.27857,
				"method": "rhf"
			},
			{
				"type": "occ",
				"energy": -0.2695,
				"method": "rhf"
			},
			{
				"type": "occ",
				"energy": -0.24597,
				"method": "rhf"
			},
			{
				"type": "unocc",
				"energy": -0.04769,
				"method": "rhf"
			},
			{
				"type": "unocc",
				"energy": 0.00774,
				"method": "rhf"
			},
			{
				"type": "unocc",
				"energy": 0.01694,
				"method": "rhf"
			},
			{
				"type": "unocc",
				"energy": 0.03236,
				"method": "rhf"
			},
			{
				"type": "unocc",
				"energy": 0.0717,
				"method": "rhf"
			}
		],
		"cosmo_sigma_profile": { 
			"-0.025": 0.0,
			"-0.024": 0.0,
			"-0.023": 0.0,
			"-0.022": 0.0,
			"-0.021": 0.0,
			"-0.02": 0.0,
			"-0.019": 0.0,
			"-0.018": 0.0,
			"-0.017": 0.0,
			"-0.016": 0.0,
			"-0.015": 0.0,
			"-0.014": 0.0,
			"-0.013": 0.0,
			"-0.012": 0.0,
			"-0.011": 0.0,
			"-0.01": 0.344293597426,
			"-0.009": 2.29655269188,
			"-0.008": 4.53040033629,
			"-0.007": 8.50207462131,
			"-0.006": 9.62235943891,
			"-0.005": 10.5503887087,
			"-0.004": 24.2710446393,
			"-0.003": 29.3565074014,
			"-0.002": 26.8998277702,
			"-0.001": 23.5179272225,
			"0.0": 25.1860203049,
			"0.001": 20.4017786589,
			"0.002": 14.3137118814,
			"0.003": 6.56076545641,
			"0.004": 4.17358867534,
			"0.005": 4.56692743764,
			"0.006": 4.97217948057,
			"0.007": 2.91325257697,
			"0.008": 3.36709056497,
			"0.009": 4.17225142152,
			"0.01": 4.36814179857,
			"0.011": 6.68755295276,
			"0.012": 7.36129430924,
			"0.013": 4.036244501,
			"0.014": 0.642449112913,
			"0.015": 0.0,
			"0.016": 0.0,
			"0.017": 0.0,
			"0.018": 0.0,
			"0.019": 0.0,
			"0.02": 0.0,
			"0.021": 0.0,
			"0.022": 0.0,
			"0.023": 0.0,
			"0.024": 0.0,
			"0.025": 0.0
		}
	}
}
