{
	 "smiles": "COC(=O)C1=C(Cl)C=CC(=C1)S(Cl)(=O)=O", 
	 "Tm": 353.15, 
	 "num_atms": 21, 
	 "gaussian": { 
		 "optdone": 1, 
		 "sigma_profile": "yes", 
		 "theory": "DFT", 
		 "functional": "B3LYP", 
		 "basiset": "6-31G**", 
		 "properties": { 
			 "R2extent": 5847.7529, 
			 "electric_dipole_moment_norm": 5.39280343606, 
			 "electric_quadrupole_moment_norm": 13.7780507511, 
			 "total_energy": -1927.86400496, 
			 "HOMO_LUMO_gap": 0.18876, 
			 "cosmo_polarized_energy": -11.78, 
			 "cosmo_cavitation_energy": 31.68, 
			 "cosmo_dispersion_energy": -23.32, 
			 "cosmo_repulsion_energy": 1.79, 
			 "cosmo_total_nonelectrostatic_energy": 10.15, 
			 "SMD_solvation_energy": 5.5 
		},
		"coords": [
			{
				"x": -3.5866623516,
				"y": -0.829910334,
				"z": 1.6598215618,
				"element": "C" 
			},
			{
				"x": -2.6266719333,
				"y": 0.1422317694,
				"z": 1.2021802208,
				"element": "O" 
			},
			{
				"x": -1.3797107009,
				"y": -0.3157617585,
				"z": 1.0459600762,
				"element": "C" 
			},
			{
				"x": -1.0450607441,
				"y": -1.459239812,
				"z": 1.2836423024,
				"element": "O" 
			},
			{
				"x": -0.3941615153,
				"y": 0.7246479351,
				"z": 0.5819217049,
				"element": "C" 
			},
			{
				"x": -0.6627093501,
				"y": 1.9849356053,
				"z": 0.0090295775,
				"element": "C" 
			},
			{
				"x": -2.2730282991,
				"y": 2.5700946741,
				"z": -0.3236895365,
				"element": "Cl" 
			},
			{
				"x": 0.3826645632,
				"y": 2.8435902482,
				"z": -0.3586775101,
				"element": "C" 
			},
			{
				"x": 1.7067472069,
				"y": 2.4715544033,
				"z": -0.1696874019,
				"element": "C" 
			},
			{
				"x": 1.9686313667,
				"y": 1.217855376,
				"z": 0.38502937,
				"element": "C" 
			},
			{
				"x": 0.9485011247,
				"y": 0.3526277811,
				"z": 0.7521485455,
				"element": "C" 
			},
			{
				"x": 3.6664157487,
				"y": 0.7244751466,
				"z": 0.6499558372,
				"element": "S" 
			},
			{
				"x": 4.1105812385,
				"y": -0.2388150879,
				"z": -1.1971787767,
				"element": "Cl" 
			},
			{
				"x": 3.7157305606,
				"y": -0.3087068545,
				"z": 1.6748775138,
				"element": "O" 
			},
			{
				"x": 4.5010557485,
				"y": 1.9183429497,
				"z": 0.6974652422,
				"element": "O" 
			},
			{
				"x": -3.6529133261,
				"y": -1.6609470434,
				"z": 0.9542117262,
				"element": "H" 
			},
			{
				"x": -3.297763559,
				"y": -1.2166663804,
				"z": 2.6396637585,
				"element": "H" 
			},
			{
				"x": -4.533410442,
				"y": -0.2946846223,
				"z": 1.7182890297,
				"element": "H" 
			},
			{
				"x": 0.1428215464,
				"y": 3.8064833464,
				"z": -0.7943552358,
				"element": "H" 
			},
			{
				"x": 2.5184800433,
				"y": 3.1373561988,
				"z": -0.4400955393,
				"element": "H" 
			},
			{
				"x": 1.159963074,
				"y": -0.6202635409,
				"z": 1.1807875336,
				"element": "H" 
			}
		],
		 "valence_orbital": [ 
			{
				"type": "occ",
				"energy": -0.32097,
				"method": "rhf"
			},
			{
				"type": "occ",
				"energy": -0.31851,
				"method": "rhf"
			},
			{
				"type": "occ",
				"energy": -0.30628,
				"method": "rhf"
			},
			{
				"type": "occ",
				"energy": -0.29676,
				"method": "rhf"
			},
			{
				"type": "occ",
				"energy": -0.28705,
				"method": "rhf"
			},
			{
				"type": "unocc",
				"energy": -0.09829,
				"method": "rhf"
			},
			{
				"type": "unocc",
				"energy": -0.07917,
				"method": "rhf"
			},
			{
				"type": "unocc",
				"energy": -0.05504,
				"method": "rhf"
			},
			{
				"type": "unocc",
				"energy": 0.00377,
				"method": "rhf"
			},
			{
				"type": "unocc",
				"energy": 0.01307,
				"method": "rhf"
			}
		],
		"cosmo_sigma_profile": { 
			"-0.025": 0.0,
			"-0.024": 0.0,
			"-0.023": 0.0,
			"-0.022": 0.0,
			"-0.021": 0.0,
			"-0.02": 0.0,
			"-0.019": 0.0,
			"-0.018": 0.0,
			"-0.017": 0.0,
			"-0.016": 0.0,
			"-0.015": 0.0,
			"-0.014": 0.0,
			"-0.013": 0.0,
			"-0.012": 0.0,
			"-0.011": 0.0,
			"-0.01": 0.877811471055,
			"-0.009": 3.99999271197,
			"-0.008": 3.56438587388,
			"-0.007": 7.06380191557,
			"-0.006": 12.3932993323,
			"-0.005": 14.5795488661,
			"-0.004": 20.9484522796,
			"-0.003": 20.8195161223,
			"-0.002": 28.7808234026,
			"-0.001": 22.1150025028,
			"0.0": 14.0245554421,
			"0.001": 14.6673787344,
			"0.002": 16.777628905,
			"0.003": 24.2688020864,
			"0.004": 11.1372734081,
			"0.005": 6.17409801216,
			"0.006": 6.36146151864,
			"0.007": 9.94108153489,
			"0.008": 10.3328097856,
			"0.009": 3.69144661174,
			"0.01": 2.85361165309,
			"0.011": 3.70519896803,
			"0.012": 0.480203802637,
			"0.013": 0.0,
			"0.014": 0.0,
			"0.015": 0.0,
			"0.016": 0.0,
			"0.017": 0.0,
			"0.018": 0.0,
			"0.019": 0.0,
			"0.02": 0.0,
			"0.021": 0.0,
			"0.022": 0.0,
			"0.023": 0.0,
			"0.024": 0.0,
			"0.025": 0.0
		}
	}
}
