{
	 "smiles": "NC1=C(C=C(Br)C=N1)S(=O)(=O)N1CCCC1", 
	 "Tm": 443.15, 
	 "num_atms": 28, 
	 "gaussian": { 
		 "optdone": 1, 
		 "sigma_profile": "yes", 
		 "theory": "DFT", 
		 "functional": "B3LYP", 
		 "basiset": "6-31G**", 
		 "properties": { 
			 "R2extent": 8734.3195, 
			 "electric_dipole_moment_norm": 5.57480070316, 
			 "electric_quadrupole_moment_norm": 8.22881834773, 
			 "total_energy": -3634.41632239, 
			 "HOMO_LUMO_gap": 0.17469, 
			 "cosmo_polarized_energy": -15.35, 
			 "cosmo_cavitation_energy": 34.1, 
			 "cosmo_dispersion_energy": -25.21, 
			 "cosmo_repulsion_energy": 1.93, 
			 "cosmo_total_nonelectrostatic_energy": 10.83, 
			 "SMD_solvation_energy": 1.95 
		},
		"coords": [
			{
				"x": 0.9503507314,
				"y": -3.4935569714,
				"z": 0.2452503505,
				"element": "N" 
			},
			{
				"x": 1.1061475048,
				"y": -3.0546909403,
				"z": -1.0314397001,
				"element": "C" 
			},
			{
				"x": 0.3985090491,
				"y": -1.9374802231,
				"z": -1.5570654297,
				"element": "C" 
			},
			{
				"x": 0.6164109293,
				"y": -1.5507035543,
				"z": -2.8767536085,
				"element": "C" 
			},
			{
				"x": 1.5176514115,
				"y": -2.278709476,
				"z": -3.6452778368,
				"element": "C" 
			},
			{
				"x": 1.8722486553,
				"y": -1.8057885608,
				"z": -5.4561365934,
				"element": "Br" 
			},
			{
				"x": 2.1623264692,
				"y": -3.371793321,
				"z": -3.0634392757,
				"element": "C" 
			},
			{
				"x": 1.9736008172,
				"y": -3.7429875674,
				"z": -1.7998132733,
				"element": "N" 
			},
			{
				"x": -0.8706340419,
				"y": -1.0672442843,
				"z": -0.6458323634,
				"element": "S" 
			},
			{
				"x": -1.2023200671,
				"y": 0.141101378,
				"z": -1.4159178812,
				"element": "O" 
			},
			{
				"x": -1.9371760773,
				"y": -1.9865421317,
				"z": -0.2396188588,
				"element": "O" 
			},
			{
				"x": -0.0482678372,
				"y": -0.6882516384,
				"z": 0.7922228794,
				"element": "N" 
			},
			{
				"x": 1.0411184837,
				"y": 0.3339688605,
				"z": 0.6894453686,
				"element": "C" 
			},
			{
				"x": 0.8347520919,
				"y": 1.2491916881,
				"z": 1.9119250436,
				"element": "C" 
			},
			{
				"x": 0.0052123064,
				"y": 0.3916224053,
				"z": 2.8811068881,
				"element": "C" 
			},
			{
				"x": -0.9425773752,
				"y": -0.3560707145,
				"z": 1.9422823278,
				"element": "C" 
			},
			{
				"x": 0.5590393674,
				"y": -2.858997707,
				"z": 0.9280177428,
				"element": "H" 
			},
			{
				"x": 1.599124688,
				"y": -4.2045452682,
				"z": 0.5463916633,
				"element": "H" 
			},
			{
				"x": 0.0818248061,
				"y": -0.6971263928,
				"z": -3.2771307563,
				"element": "H" 
			},
			{
				"x": 2.8647043657,
				"y": -3.9649828224,
				"z": -3.64423953,
				"element": "H" 
			},
			{
				"x": 2.0062829358,
				"y": -0.1819292253,
				"z": 0.7205222615,
				"element": "H" 
			},
			{
				"x": 0.9740270817,
				"y": 0.8874227209,
				"z": -0.2511024291,
				"element": "H" 
			},
			{
				"x": 1.7827349007,
				"y": 1.5889031725,
				"z": 2.3370879524,
				"element": "H" 
			},
			{
				"x": 0.2628340999,
				"y": 2.1361429207,
				"z": 1.6198679282,
				"element": "H" 
			},
			{
				"x": 0.6466868826,
				"y": -0.3191912481,
				"z": 3.4144472339,
				"element": "H" 
			},
			{
				"x": -0.5361599195,
				"y": 0.9824641987,
				"z": 3.624749881,
				"element": "H" 
			},
			{
				"x": -1.770794174,
				"y": 0.2950290393,
				"z": 1.6336931505,
				"element": "H" 
			},
			{
				"x": -1.3639580855,
				"y": -1.2707543369,
				"z": 2.3618568647,
				"element": "H" 
			}
		],
		 "valence_orbital": [ 
			{
				"type": "occ",
				"energy": -0.29746,
				"method": "rhf"
			},
			{
				"type": "occ",
				"energy": -0.29331,
				"method": "rhf"
			},
			{
				"type": "occ",
				"energy": -0.27441,
				"method": "rhf"
			},
			{
				"type": "occ",
				"energy": -0.26354,
				"method": "rhf"
			},
			{
				"type": "occ",
				"energy": -0.22624,
				"method": "rhf"
			},
			{
				"type": "unocc",
				"energy": -0.05155,
				"method": "rhf"
			},
			{
				"type": "unocc",
				"energy": -0.01856,
				"method": "rhf"
			},
			{
				"type": "unocc",
				"energy": 0.00072,
				"method": "rhf"
			},
			{
				"type": "unocc",
				"energy": 0.05214,
				"method": "rhf"
			},
			{
				"type": "unocc",
				"energy": 0.06242,
				"method": "rhf"
			}
		],
		"cosmo_sigma_profile": { 
			"-0.025": 0.0,
			"-0.024": 0.0,
			"-0.023": 0.0,
			"-0.022": 0.0,
			"-0.021": 0.0,
			"-0.02": 0.0,
			"-0.019": 0.0,
			"-0.018": 0.0,
			"-0.017": 0.0,
			"-0.016": 0.0,
			"-0.015": 0.0,
			"-0.014": 0.654460700109,
			"-0.013": 1.10098045044,
			"-0.012": 0.697772422003,
			"-0.011": 1.43976692958,
			"-0.01": 2.35326278129,
			"-0.009": 1.45313440373,
			"-0.008": 3.04251748104,
			"-0.007": 4.18904762994,
			"-0.006": 5.56024956972,
			"-0.005": 14.3149970664,
			"-0.004": 29.8129740979,
			"-0.003": 33.6124514019,
			"-0.002": 30.1687654818,
			"-0.001": 25.8748247812,
			"0.0": 20.5732581634,
			"0.001": 13.0204325814,
			"0.002": 10.3877448383,
			"0.003": 12.7202362918,
			"0.004": 15.2612719431,
			"0.005": 5.68302696195,
			"0.006": 4.16412722605,
			"0.007": 5.44391499335,
			"0.008": 5.60543575963,
			"0.009": 3.99651392089,
			"0.01": 8.84877373402,
			"0.011": 9.54801909023,
			"0.012": 3.08781562698,
			"0.013": 0.727614326467,
			"0.014": 0.209901871357,
			"0.015": 0.0,
			"0.016": 0.0,
			"0.017": 0.0,
			"0.018": 0.0,
			"0.019": 0.0,
			"0.02": 0.0,
			"0.021": 0.0,
			"0.022": 0.0,
			"0.023": 0.0,
			"0.024": 0.0,
			"0.025": 0.0
		}
	}
}
