{
	 "smiles": "OC1=C(C=C(Cl)C=C1C=O)[N+]([O-])=O", 
	 "Tm": 379.15, 
	 "num_atms": 17, 
	 "gaussian": { 
		 "optdone": 1, 
		 "sigma_profile": "yes", 
		 "theory": "DFT", 
		 "functional": "B3LYP", 
		 "basiset": "6-31G**", 
		 "properties": { 
			 "R2extent": 3274.4295, 
			 "electric_dipole_moment_norm": 2.80967386186, 
			 "electric_quadrupole_moment_norm": 9.20938675266, 
			 "total_energy": -1084.87824886, 
			 "HOMO_LUMO_gap": 0.14102, 
			 "cosmo_polarized_energy": -13.29, 
			 "cosmo_cavitation_energy": 24.69, 
			 "cosmo_dispersion_energy": -18.5, 
			 "cosmo_repulsion_energy": 1.45, 
			 "cosmo_total_nonelectrostatic_energy": 7.64, 
			 "SMD_solvation_energy": 7.52 
		},
		"coords": [
			{
				"x": 0.2426915233,
				"y": -0.6689691226,
				"z": -1.2211054485,
				"element": "O" 
			},
			{
				"x": -0.120622177,
				"y": -0.0591300181,
				"z": -0.105294541,
				"element": "C" 
			},
			{
				"x": -1.3187687923,
				"y": 0.69477224,
				"z": 0.0206669991,
				"element": "C" 
			},
			{
				"x": -1.681270481,
				"y": 1.3315818786,
				"z": 1.2138889885,
				"element": "C" 
			},
			{
				"x": -0.8498410272,
				"y": 1.2288429906,
				"z": 2.3146591281,
				"element": "C" 
			},
			{
				"x": -1.2806966914,
				"y": 2.0156394612,
				"z": 3.8174147714,
				"element": "Cl" 
			},
			{
				"x": 0.3363748587,
				"y": 0.4951498751,
				"z": 2.2259098831,
				"element": "C" 
			},
			{
				"x": 0.7126425729,
				"y": -0.1450164348,
				"z": 1.0462767871,
				"element": "C" 
			},
			{
				"x": 1.9963137431,
				"y": -0.8974925578,
				"z": 1.0677541661,
				"element": "C" 
			},
			{
				"x": 2.4885495931,
				"y": -1.5139572888,
				"z": 0.1493066581,
				"element": "O" 
			},
			{
				"x": -2.2262541301,
				"y": 0.8340476574,
				"z": -1.1043139856,
				"element": "N" 
			},
			{
				"x": -1.9197906012,
				"y": 0.2719309327,
				"z": -2.1803741775,
				"element": "O" 
			},
			{
				"x": -3.2501432023,
				"y": 1.4891173992,
				"z": -0.966136574,
				"element": "O" 
			},
			{
				"x": -0.4671402091,
				"y": -0.48401384,
				"z": -1.8862744031,
				"element": "H" 
			},
			{
				"x": -2.6070090048,
				"y": 1.8912624036,
				"z": 1.246661994,
				"element": "H" 
			},
			{
				"x": 0.9849639273,
				"y": 0.4182805292,
				"z": 3.0940265464,
				"element": "H" 
			},
			{
				"x": 2.5011000981,
				"y": -0.8454461054,
				"z": 2.0595332078,
				"element": "H" 
			}
		],
		 "valence_orbital": [ 
			{
				"type": "occ",
				"energy": -0.33879,
				"method": "rhf"
			},
			{
				"type": "occ",
				"energy": -0.32573,
				"method": "rhf"
			},
			{
				"type": "occ",
				"energy": -0.31137,
				"method": "rhf"
			},
			{
				"type": "occ",
				"energy": -0.26894,
				"method": "rhf"
			},
			{
				"type": "occ",
				"energy": -0.26312,
				"method": "rhf"
			},
			{
				"type": "unocc",
				"energy": -0.1221,
				"method": "rhf"
			},
			{
				"type": "unocc",
				"energy": -0.08169,
				"method": "rhf"
			},
			{
				"type": "unocc",
				"energy": -0.02948,
				"method": "rhf"
			},
			{
				"type": "unocc",
				"energy": 0.00102,
				"method": "rhf"
			},
			{
				"type": "unocc",
				"energy": 0.01437,
				"method": "rhf"
			}
		],
		"cosmo_sigma_profile": { 
			"-0.025": 0.0,
			"-0.024": 0.0,
			"-0.023": 0.0,
			"-0.022": 0.0,
			"-0.021": 0.0,
			"-0.02": 0.0,
			"-0.019": 0.0,
			"-0.018": 0.0,
			"-0.017": 0.0,
			"-0.016": 0.0,
			"-0.015": 0.0,
			"-0.014": 0.0,
			"-0.013": 0.0,
			"-0.012": 0.07162905935,
			"-0.011": 0.922822848794,
			"-0.01": 4.02029856556,
			"-0.009": 6.04033343305,
			"-0.008": 7.45400491864,
			"-0.007": 8.92943656259,
			"-0.006": 8.81094204641,
			"-0.005": 9.43483302113,
			"-0.004": 13.3038016802,
			"-0.003": 17.0111352916,
			"-0.002": 16.9360117418,
			"-0.001": 13.7963699196,
			"0.0": 9.35069942735,
			"0.001": 8.57728129507,
			"0.002": 9.02611888143,
			"0.003": 12.4637133142,
			"0.004": 11.0904590487,
			"0.005": 4.84975750911,
			"0.006": 7.73278587759,
			"0.007": 8.19905317442,
			"0.008": 5.40132021545,
			"0.009": 4.55800391764,
			"0.01": 3.95005594428,
			"0.011": 4.2745569222,
			"0.012": 3.28833839964,
			"0.013": 1.35362872051,
			"0.014": 0.985268684861,
			"0.015": 0.0204623418392,
			"0.016": 0.0,
			"0.017": 0.0,
			"0.018": 0.0,
			"0.019": 0.0,
			"0.02": 0.0,
			"0.021": 0.0,
			"0.022": 0.0,
			"0.023": 0.0,
			"0.024": 0.0,
			"0.0": 0.0
		}
	}
}
