{
	 "smiles": "OC1=CC=C(N=NC2=CC=C(C=C2)[N+]([O-])=O)C2=C1C=CC=C2", 
	 "Tm": 548.15, 
	 "num_atms": 33, 
	 "gaussian": { 
		 "optdone": 1, 
		 "sigma_profile": "yes", 
		 "theory": "DFT", 
		 "functional": "B3LYP", 
		 "basiset": "6-31G**", 
		 "properties": { 
			 "R2extent": 10648.9071, 
			 "electric_dipole_moment_norm": 7.7110334891, 
			 "electric_quadrupole_moment_norm": 22.306695903, 
			 "total_energy": -1006.12306026, 
			 "HOMO_LUMO_gap": 0.10692, 
			 "cosmo_polarized_energy": -15.06, 
			 "cosmo_cavitation_energy": 39.21, 
			 "cosmo_dispersion_energy": -28.7, 
			 "cosmo_repulsion_energy": 2.12, 
			 "cosmo_total_nonelectrostatic_energy": 12.63, 
			 "SMD_solvation_energy": 7.87 
		},
		"coords": [
			{
				"x": -5.4311673178,
				"y": 1.5736764203,
				"z": 1.3040826932,
				"element": "O" 
			},
			{
				"x": -4.1835200896,
				"y": 1.1690972775,
				"z": 0.9618321365,
				"element": "C" 
			},
			{
				"x": -3.6495133604,
				"y": 0.1142612224,
				"z": 1.6913166042,
				"element": "C" 
			},
			{
				"x": -2.3713044446,
				"y": -0.3648956837,
				"z": 1.4063375619,
				"element": "C" 
			},
			{
				"x": -1.5978106273,
				"y": 0.1953645257,
				"z": 0.3907406702,
				"element": "C" 
			},
			{
				"x": -0.30867761,
				"y": -0.2416963429,
				"z": 0.0631467376,
				"element": "N" 
			},
			{
				"x": 0.1291596291,
				"y": -1.2164217606,
				"z": 0.7442744553,
				"element": "N" 
			},
			{
				"x": 1.4343531674,
				"y": -1.6357647648,
				"z": 0.4020057952,
				"element": "C" 
			},
			{
				"x": 1.9170041263,
				"y": -2.7400498398,
				"z": 1.124021138,
				"element": "C" 
			},
			{
				"x": 3.1877137731,
				"y": -3.2462758561,
				"z": 0.8795655446,
				"element": "C" 
			},
			{
				"x": 3.972236075,
				"y": -2.6320818521,
				"z": -0.0957975522,
				"element": "C" 
			},
			{
				"x": 3.5178603576,
				"y": -1.5303020586,
				"z": -0.827413476,
				"element": "C" 
			},
			{
				"x": 2.2482015133,
				"y": -1.033029009,
				"z": -0.5772752538,
				"element": "C" 
			},
			{
				"x": 5.3170327366,
				"y": -3.1570575612,
				"z": -0.3622156813,
				"element": "N" 
			},
			{
				"x": 5.9894704372,
				"y": -2.5955340376,
				"z": -1.2281309959,
				"element": "O" 
			},
			{
				"x": 5.6933830628,
				"y": -4.127961761,
				"z": 0.295545505,
				"element": "O" 
			},
			{
				"x": -2.1231295981,
				"y": 1.2872808924,
				"z": -0.3815258238,
				"element": "C" 
			},
			{
				"x": -3.4375640745,
				"y": 1.7833139544,
				"z": -0.0933872766,
				"element": "C" 
			},
			{
				"x": -3.9498174177,
				"y": 2.862263906,
				"z": -0.8636787237,
				"element": "C" 
			},
			{
				"x": -3.2071471367,
				"y": 3.432035638,
				"z": -1.8723632375,
				"element": "C" 
			},
			{
				"x": -1.9115364093,
				"y": 2.9427504748,
				"z": -2.1552429372,
				"element": "C" 
			},
			{
				"x": -1.384998057,
				"y": 1.8981620673,
				"z": -1.4288553563,
				"element": "C" 
			},
			{
				"x": -5.7122978169,
				"y": 2.3114025192,
				"z": 0.7487560956,
				"element": "H" 
			},
			{
				"x": -4.2491281447,
				"y": -0.32194309,
				"z": 2.4829094434,
				"element": "H" 
			},
			{
				"x": -1.9526765202,
				"y": -1.1872393468,
				"z": 1.9748434398,
				"element": "H" 
			},
			{
				"x": 1.2710569571,
				"y": -3.1842109059,
				"z": 1.8737439884,
				"element": "H" 
			},
			{
				"x": 3.5806094292,
				"y": -4.0966448395,
				"z": 1.4221977872,
				"element": "H" 
			},
			{
				"x": 4.166773956,
				"y": -1.0881252435,
				"z": -1.5731246156,
				"element": "H" 
			},
			{
				"x": 1.8666501881,
				"y": -0.1804403669,
				"z": -1.125208081,
				"element": "H" 
			},
			{
				"x": -4.9441900277,
				"y": 3.2602388883,
				"z": -0.6712954275,
				"element": "H" 
			},
			{
				"x": -3.6152162363,
				"y": 4.2554076739,
				"z": -2.4503293499,
				"element": "H" 
			},
			{
				"x": -1.3289737841,
				"y": 3.395224861,
				"z": -2.952259373,
				"element": "H" 
			},
			{
				"x": -0.3936367361,
				"y": 1.518693999,
				"z": -1.6421164349,
				"element": "H" 
			}
		],
		 "valence_orbital": [ 
			{
				"type": "occ",
				"energy": -0.27585,
				"method": "rhf"
			},
			{
				"type": "occ",
				"energy": -0.27035,
				"method": "rhf"
			},
			{
				"type": "occ",
				"energy": -0.265,
				"method": "rhf"
			},
			{
				"type": "occ",
				"energy": -0.23699,
				"method": "rhf"
			},
			{
				"type": "occ",
				"energy": -0.2145,
				"method": "rhf"
			},
			{
				"type": "unocc",
				"energy": -0.10758,
				"method": "rhf"
			},
			{
				"type": "unocc",
				"energy": -0.06755,
				"method": "rhf"
			},
			{
				"type": "unocc",
				"energy": -0.03927,
				"method": "rhf"
			},
			{
				"type": "unocc",
				"energy": -0.0267,
				"method": "rhf"
			},
			{
				"type": "unocc",
				"energy": -0.02174,
				"method": "rhf"
			}
		],
		"cosmo_sigma_profile": { 
			"-0.025": 0.0,
			"-0.024": 0.0,
			"-0.023": 0.0,
			"-0.022": 0.0,
			"-0.021": 0.0,
			"-0.02": 0.0,
			"-0.019": 0.40509164909,
			"-0.018": 0.82741394587,
			"-0.017": 0.899342793809,
			"-0.016": 1.20828862003,
			"-0.015": 0.913092604833,
			"-0.014": 0.943151410026,
			"-0.013": 0.73181987965,
			"-0.012": 1.10841467545,
			"-0.011": 1.20933000157,
			"-0.01": 1.05277153545,
			"-0.009": 1.21739614573,
			"-0.008": 2.16273368641,
			"-0.007": 8.68813425986,
			"-0.006": 17.0488334064,
			"-0.005": 18.679148174,
			"-0.004": 18.3576739152,
			"-0.003": 15.6719071971,
			"-0.002": 15.0958563977,
			"-0.001": 18.9619765835,
			"0.0": 26.2289462343,
			"0.001": 42.8550980855,
			"0.002": 37.9510961548,
			"0.003": 23.1191146716,
			"0.004": 16.5643168459,
			"0.005": 6.85109069142,
			"0.006": 6.92828588243,
			"0.007": 9.75578860878,
			"0.008": 9.80015175519,
			"0.009": 7.00458450047,
			"0.01": 4.08194551534,
			"0.011": 0.322901805538,
			"0.012": 0.0,
			"0.013": 0.0,
			"0.014": 0.0,
			"0.015": 0.0,
			"0.016": 0.0,
			"0.017": 0.0,
			"0.018": 0.0,
			"0.019": 0.0,
			"0.02": 0.0,
			"0.021": 0.0,
			"0.022": 0.0,
			"0.023": 0.0,
			"0.024": 0.0,
			"0.025": 0.0
		}
	}
}
