{
	 "smiles": "CC1=CC(C(O)=O)=C2C=CC=CC2=N1", 
	 "Tm": 514.15, 
	 "num_atms": 23, 
	 "gaussian": { 
		 "optdone": 1, 
		 "sigma_profile": "yes", 
		 "theory": "DFT", 
		 "functional": "B3LYP", 
		 "basiset": "6-31G**", 
		 "properties": { 
			 "R2extent": 2989.1029, 
			 "electric_dipole_moment_norm": 2.96636491349, 
			 "electric_quadrupole_moment_norm": 20.270977788, 
			 "total_energy": -629.814069535, 
			 "HOMO_LUMO_gap": 0.16408, 
			 "cosmo_polarized_energy": -14.75, 
			 "cosmo_cavitation_energy": 27.21, 
			 "cosmo_dispersion_energy": -20.2, 
			 "cosmo_repulsion_energy": 1.57, 
			 "cosmo_total_nonelectrostatic_energy": 8.59, 
			 "SMD_solvation_energy": 4.24 
		},
		"coords": [
			{
				"x": -0.196191138,
				"y": -0.7785091104,
				"z": -3.0724316067,
				"element": "C" 
			},
			{
				"x": 0.0367223621,
				"y": -0.6617684227,
				"z": -1.5870885811,
				"element": "C" 
			},
			{
				"x": 1.2999252868,
				"y": -0.2259780244,
				"z": -1.0953184082,
				"element": "C" 
			},
			{
				"x": 1.53052518,
				"y": -0.1363853277,
				"z": 0.2624402778,
				"element": "C" 
			},
			{
				"x": 2.886288738,
				"y": 0.289891495,
				"z": 0.7588822579,
				"element": "C" 
			},
			{
				"x": 3.5086156754,
				"y": 1.2413349593,
				"z": 0.0137314214,
				"element": "O" 
			},
			{
				"x": 3.4346108878,
				"y": -0.1673462904,
				"z": 1.7330296708,
				"element": "O" 
			},
			{
				"x": 0.4785952339,
				"y": -0.4943229753,
				"z": 1.1650852241,
				"element": "C" 
			},
			{
				"x": 0.580292214,
				"y": -0.4526960043,
				"z": 2.581479962,
				"element": "C" 
			},
			{
				"x": -0.5022239157,
				"y": -0.7895747936,
				"z": 3.3650892953,
				"element": "C" 
			},
			{
				"x": -1.7290151165,
				"y": -1.1811124863,
				"z": 2.7784397618,
				"element": "C" 
			},
			{
				"x": -1.8567055831,
				"y": -1.2332261588,
				"z": 1.4090066641,
				"element": "C" 
			},
			{
				"x": -0.7630710822,
				"y": -0.8945064861,
				"z": 0.5706469184,
				"element": "C" 
			},
			{
				"x": -0.9576620685,
				"y": -0.9738626211,
				"z": -0.7799607744,
				"element": "N" 
			},
			{
				"x": -0.0396295016,
				"y": 0.1825731179,
				"z": -3.5761738892,
				"element": "H" 
			},
			{
				"x": 0.4973465184,
				"y": -1.4971146094,
				"z": -3.5245349596,
				"element": "H" 
			},
			{
				"x": -1.2182118119,
				"y": -1.1111766912,
				"z": -3.2578902548,
				"element": "H" 
			},
			{
				"x": 2.0903362374,
				"y": -0.0051610923,
				"z": -1.8083523344,
				"element": "H" 
			},
			{
				"x": 2.893537666,
				"y": 1.5975400499,
				"z": -0.6431853902,
				"element": "H" 
			},
			{
				"x": 1.5227104954,
				"y": -0.17199956,
				"z": 3.0339409487,
				"element": "H" 
			},
			{
				"x": -0.4115947848,
				"y": -0.7571396383,
				"z": 4.4468087267,
				"element": "H" 
			},
			{
				"x": -2.5698888382,
				"y": -1.4421801201,
				"z": 3.4143896934,
				"element": "H" 
			},
			{
				"x": -2.7820126545,
				"y": -1.5304792097,
				"z": 0.9269653762,
				"element": "H" 
			}
		],
		 "valence_orbital": [ 
			{
				"type": "occ",
				"energy": -0.31407,
				"method": "rhf"
			},
			{
				"type": "occ",
				"energy": -0.28531,
				"method": "rhf"
			},
			{
				"type": "occ",
				"energy": -0.26147,
				"method": "rhf"
			},
			{
				"type": "occ",
				"energy": -0.25784,
				"method": "rhf"
			},
			{
				"type": "occ",
				"energy": -0.24014,
				"method": "rhf"
			},
			{
				"type": "unocc",
				"energy": -0.07606,
				"method": "rhf"
			},
			{
				"type": "unocc",
				"energy": -0.02912,
				"method": "rhf"
			},
			{
				"type": "unocc",
				"energy": -0.00991,
				"method": "rhf"
			},
			{
				"type": "unocc",
				"energy": 0.03791,
				"method": "rhf"
			},
			{
				"type": "unocc",
				"energy": 0.06496,
				"method": "rhf"
			}
		],
		"cosmo_sigma_profile": { 
			"-0.025": 0.0,
			"-0.024": 0.0,
			"-0.023": 0.0,
			"-0.022": 0.0,
			"-0.021": 0.0,
			"-0.02": 0.0,
			"-0.019": 0.247515767481,
			"-0.018": 0.907952237093,
			"-0.017": 0.828190902406,
			"-0.016": 1.12577324314,
			"-0.015": 1.41745027486,
			"-0.014": 0.627911136023,
			"-0.013": 0.8887173486,
			"-0.012": 1.2023172856,
			"-0.011": 1.2684735388,
			"-0.01": 1.24581150873,
			"-0.009": 1.25664426261,
			"-0.008": 2.55911700473,
			"-0.007": 3.91102807808,
			"-0.006": 8.93214284551,
			"-0.005": 14.8684432973,
			"-0.004": 17.3353440818,
			"-0.003": 15.5358624623,
			"-0.002": 14.83744717,
			"-0.001": 16.7821879627,
			"0.0": 18.6387098655,
			"0.001": 11.6368154166,
			"0.002": 14.2557378061,
			"0.003": 14.9585630979,
			"0.004": 13.5968075545,
			"0.005": 5.01997807363,
			"0.006": 4.35273564905,
			"0.007": 4.24200806209,
			"0.008": 4.29160789164,
			"0.009": 5.15018506194,
			"0.01": 5.31820084671,
			"0.011": 5.82182754307,
			"0.012": 3.07474977641,
			"0.013": 1.09868768351,
			"0.014": 0.849399942851,
			"0.015": 0.0955363487795,
			"0.016": 0.0,
			"0.017": 0.0,
			"0.018": 0.0,
			"0.019": 0.0,
			"0.02": 0.0,
			"0.021": 0.0,
			"0.022": 0.0,
			"0.023": 0.0,
			"0.024": 0.0,
			"0.025": 0.0
		}
	}
}
