{
	 "smiles": "CC1=CC=C(C=C1)C(N)C(N)C1=CC=C(C)C=C1", 
	 "Tm": 388.15, 
	 "num_atms": 38, 
	 "gaussian": { 
		 "optdone": 1, 
		 "sigma_profile": "yes", 
		 "theory": "DFT", 
		 "functional": "B3LYP", 
		 "basiset": "6-31G**", 
		 "properties": { 
			 "R2extent": 7068.5186, 
			 "electric_dipole_moment_norm": 0.00810308583195, 
			 "electric_quadrupole_moment_norm": 4.83132613161, 
			 "total_energy": -731.271811857, 
			 "HOMO_LUMO_gap": 0.22254, 
			 "cosmo_polarized_energy": -9.43, 
			 "cosmo_cavitation_energy": 39.71, 
			 "cosmo_dispersion_energy": -28.03, 
			 "cosmo_repulsion_energy": 2.2, 
			 "cosmo_total_nonelectrostatic_energy": 13.87, 
			 "SMD_solvation_energy": 5.59 
		},
		"coords": [
			{
				"x": -2.5478478385,
				"y": -3.8437691228,
				"z": -4.6447955327,
				"element": "C" 
			},
			{
				"x": -1.9193264588,
				"y": -2.8046080621,
				"z": -3.7458829301,
				"element": "C" 
			},
			{
				"x": -2.4981039908,
				"y": -1.5428787747,
				"z": -3.5765043452,
				"element": "C" 
			},
			{
				"x": -1.8996060752,
				"y": -0.5807344918,
				"z": -2.7595472968,
				"element": "C" 
			},
			{
				"x": -0.7027478024,
				"y": -0.8454792483,
				"z": -2.0850100605,
				"element": "C" 
			},
			{
				"x": -0.1211641897,
				"y": -2.1142777002,
				"z": -2.2500610013,
				"element": "C" 
			},
			{
				"x": -0.7225681283,
				"y": -3.0717761566,
				"z": -3.0631107152,
				"element": "C" 
			},
			{
				"x": -0.0488707176,
				"y": 0.237481177,
				"z": -1.2315494821,
				"element": "C" 
			},
			{
				"x": 1.1813317265,
				"y": 0.799650781,
				"z": -1.829841954,
				"element": "N" 
			},
			{
				"x": 0.2565032084,
				"y": -0.2289779011,
				"z": 0.2258740722,
				"element": "C" 
			},
			{
				"x": 1.5582089044,
				"y": -0.9306220152,
				"z": 0.2490312959,
				"element": "N" 
			},
			{
				"x": 0.151243979,
				"y": 0.8959843685,
				"z": 1.2516276651,
				"element": "C" 
			},
			{
				"x": -0.6598190776,
				"y": 0.7426785698,
				"z": 2.3812323929,
				"element": "C" 
			},
			{
				"x": -0.7436363752,
				"y": 1.7425604824,
				"z": 3.3532295389,
				"element": "C" 
			},
			{
				"x": -0.0188347847,
				"y": 2.9317640312,
				"z": 3.2273829916,
				"element": "C" 
			},
			{
				"x": -0.0872466225,
				"y": 4.0102615356,
				"z": 4.2833737574,
				"element": "C" 
			},
			{
				"x": 0.7890457314,
				"y": 3.0876619525,
				"z": 2.0902567159,
				"element": "C" 
			},
			{
				"x": 0.8776413478,
				"y": 2.0920943498,
				"z": 1.1205528836,
				"element": "C" 
			},
			{
				"x": -2.5474176628,
				"y": -4.8332843522,
				"z": -4.1751670557,
				"element": "H" 
			},
			{
				"x": -3.5827568541,
				"y": -3.5878566081,
				"z": -4.8897828856,
				"element": "H" 
			},
			{
				"x": -1.99984436,
				"y": -3.9375910826,
				"z": -5.5907910471,
				"element": "H" 
			},
			{
				"x": -3.4300761392,
				"y": -1.3087019319,
				"z": -4.0860171784,
				"element": "H" 
			},
			{
				"x": -2.3761624701,
				"y": 0.3906104523,
				"z": -2.6426790091,
				"element": "H" 
			},
			{
				"x": 0.7970124178,
				"y": -2.3452143084,
				"z": -1.7174429512,
				"element": "H" 
			},
			{
				"x": -0.2568306581,
				"y": -4.0494926661,
				"z": -3.1687482248,
				"element": "H" 
			},
			{
				"x": -0.7622582103,
				"y": 1.065233983,
				"z": -1.1544360278,
				"element": "H" 
			},
			{
				"x": 1.8014663033,
				"y": 0.0264880569,
				"z": -2.0637225832,
				"element": "H" 
			},
			{
				"x": 0.9440323732,
				"y": 1.2421054955,
				"z": -2.7148592909,
				"element": "H" 
			},
			{
				"x": -0.5027281717,
				"y": -0.9755036067,
				"z": 0.4834144353,
				"element": "H" 
			},
			{
				"x": 1.6811648986,
				"y": -1.3655119949,
				"z": 1.1606686714,
				"element": "H" 
			},
			{
				"x": 2.2955779256,
				"y": -0.2323786662,
				"z": 0.1729748997,
				"element": "H" 
			},
			{
				"x": -1.2396835256,
				"y": -0.1700097023,
				"z": 2.5038176652,
				"element": "H" 
			},
			{
				"x": -1.384707987,
				"y": 1.5955217133,
				"z": 4.2194833683,
				"element": "H" 
			},
			{
				"x": -0.9216447136,
				"y": 3.8446683574,
				"z": 4.9709950715,
				"element": "H" 
			},
			{
				"x": 0.8314850057,
				"y": 4.0416838738,
				"z": 4.8823869333,
				"element": "H" 
			},
			{
				"x": -0.2113930295,
				"y": 5.0023351904,
				"z": 3.835829401,
				"element": "H" 
			},
			{
				"x": 1.355481058,
				"y": 4.0078815846,
				"z": 1.9623131319,
				"element": "H" 
			},
			{
				"x": 1.4964809636,
				"y": 2.2377024372,
				"z": 0.2397046806,
				"element": "H" 
			}
		],
		 "valence_orbital": [ 
			{
				"type": "occ",
				"energy": -0.24064,
				"method": "rhf"
			},
			{
				"type": "occ",
				"energy": -0.24029,
				"method": "rhf"
			},
			{
				"type": "occ",
				"energy": -0.23205,
				"method": "rhf"
			},
			{
				"type": "occ",
				"energy": -0.22213,
				"method": "rhf"
			},
			{
				"type": "occ",
				"energy": -0.21856,
				"method": "rhf"
			},
			{
				"type": "unocc",
				"energy": 0.00398,
				"method": "rhf"
			},
			{
				"type": "unocc",
				"energy": 0.00632,
				"method": "rhf"
			},
			{
				"type": "unocc",
				"energy": 0.0068,
				"method": "rhf"
			},
			{
				"type": "unocc",
				"energy": 0.01027,
				"method": "rhf"
			},
			{
				"type": "unocc",
				"energy": 0.08457,
				"method": "rhf"
			}
		],
		"cosmo_sigma_profile": { 
			"-0.025": 0.0,
			"-0.024": 0.0,
			"-0.023": 0.0,
			"-0.022": 0.0,
			"-0.021": 0.0,
			"-0.02": 0.0,
			"-0.019": 0.0,
			"-0.018": 0.0,
			"-0.017": 0.0,
			"-0.016": 0.0,
			"-0.015": 0.0,
			"-0.014": 0.0,
			"-0.013": 0.0,
			"-0.012": 0.0,
			"-0.011": 0.0,
			"-0.01": 1.00890121383,
			"-0.009": 2.86733526191,
			"-0.008": 4.1673658745,
			"-0.007": 5.04262532816,
			"-0.006": 4.67545419596,
			"-0.005": 13.1666851554,
			"-0.004": 31.2749208555,
			"-0.003": 33.9158513127,
			"-0.002": 30.9208571687,
			"-0.001": 28.9810167465,
			"0.0": 31.0704282802,
			"0.001": 23.9823162408,
			"0.002": 16.7855201482,
			"0.003": 15.1002371698,
			"0.004": 16.4223600388,
			"0.005": 15.2291071257,
			"0.006": 15.8397959389,
			"0.007": 12.9294988553,
			"0.008": 1.96714052426,
			"0.009": 1.75134648046,
			"0.01": 1.33346693745,
			"0.011": 1.39737041315,
			"0.012": 0.988446083154,
			"0.013": 0.882042982051,
			"0.014": 0.186881804633,
			"0.015": 0.0,
			"0.016": 0.0,
			"0.017": 0.0,
			"0.018": 0.0,
			"0.019": 0.0,
			"0.02": 0.0,
			"0.021": 0.0,
			"0.022": 0.0,
			"0.023": 0.0,
			"0.024": 0.0,
			"0.025": 0.0
		}
	}
}
