{
	 "smiles": "ClC1=CC2=C(C=C1Cl)C1=C(O2)C=C(Cl)C(Cl)=C1Cl", 
	 "Tm": 498.15, 
	 "num_atms": 21, 
	 "gaussian": { 
		 "optdone": 1, 
		 "sigma_profile": "yes", 
		 "theory": "DFT", 
		 "functional": "B3LYP", 
		 "basiset": "6-31G**", 
		 "properties": { 
			 "R2extent": 9605.3888, 
			 "electric_dipole_moment_norm": 1.65434043353, 
			 "electric_quadrupole_moment_norm": 9.92217035784, 
			 "total_energy": -2835.26251741, 
			 "HOMO_LUMO_gap": 0.17089, 
			 "cosmo_polarized_energy": -5.43, 
			 "cosmo_cavitation_energy": 34.78, 
			 "cosmo_dispersion_energy": -26.47, 
			 "cosmo_repulsion_energy": 2.0, 
			 "cosmo_total_nonelectrostatic_energy": 10.31, 
			 "SMD_solvation_energy": 4.57 
		},
		"coords": [
			{
				"x": -4.1659213528,
				"y": -0.8589946129,
				"z": -1.8837902234,
				"element": "Cl" 
			},
			{
				"x": -2.4755191639,
				"y": -0.7885312268,
				"z": -1.4629552938,
				"element": "C" 
			},
			{
				"x": -2.0164011096,
				"y": 0.3390615411,
				"z": -0.7785563657,
				"element": "C" 
			},
			{
				"x": -0.6710411311,
				"y": 0.3726218686,
				"z": -0.4551841443,
				"element": "C" 
			},
			{
				"x": 0.2314461088,
				"y": -0.6574976166,
				"z": -0.7796432637,
				"element": "C" 
			},
			{
				"x": -0.2433014447,
				"y": -1.7796082791,
				"z": -1.4647469225,
				"element": "C" 
			},
			{
				"x": -1.5948374648,
				"y": -1.8388331283,
				"z": -1.8027463732,
				"element": "C" 
			},
			{
				"x": -2.170911589,
				"y": -3.2484113378,
				"z": -2.6588292793,
				"element": "Cl" 
			},
			{
				"x": 1.5121293598,
				"y": -0.2140560994,
				"z": -0.2601313289,
				"element": "C" 
			},
			{
				"x": 1.2638444255,
				"y": 1.0400654261,
				"z": 0.3284199715,
				"element": "C" 
			},
			{
				"x": -0.0538510265,
				"y": 1.4017682059,
				"z": 0.2145977792,
				"element": "O" 
			},
			{
				"x": 2.2366551118,
				"y": 1.806908387,
				"z": 0.944197031,
				"element": "C" 
			},
			{
				"x": 3.5287505724,
				"y": 1.2826219283,
				"z": 0.9685849855,
				"element": "C" 
			},
			{
				"x": 4.7727587366,
				"y": 2.2301882848,
				"z": 1.7390938072,
				"element": "Cl" 
			},
			{
				"x": 3.8343186264,
				"y": 0.0275854544,
				"z": 0.392595448,
				"element": "C" 
			},
			{
				"x": 5.4583580746,
				"y": -0.587663922,
				"z": 0.4457485098,
				"element": "Cl" 
			},
			{
				"x": 2.8166555416,
				"y": -0.7189815158,
				"z": -0.2230266136,
				"element": "C" 
			},
			{
				"x": 3.1513170646,
				"y": -2.2681985571,
				"z": -0.943940505,
				"element": "Cl" 
			},
			{
				"x": -2.6881462427,
				"y": 1.146638292,
				"z": -0.5160512814,
				"element": "H" 
			},
			{
				"x": 0.4130929374,
				"y": -2.5960733773,
				"z": -1.7352419127,
				"element": "H" 
			},
			{
				"x": 2.0127039655,
				"y": 2.7684902847,
				"z": 1.3878059752,
				"element": "H" 
			}
		],
		 "valence_orbital": [ 
			{
				"type": "occ",
				"energy": -0.31603,
				"method": "rhf"
			},
			{
				"type": "occ",
				"energy": -0.29348,
				"method": "rhf"
			},
			{
				"type": "occ",
				"energy": -0.27661,
				"method": "rhf"
			},
			{
				"type": "occ",
				"energy": -0.25125,
				"method": "rhf"
			},
			{
				"type": "occ",
				"energy": -0.24407,
				"method": "rhf"
			},
			{
				"type": "unocc",
				"energy": -0.07318,
				"method": "rhf"
			},
			{
				"type": "unocc",
				"energy": -0.03942,
				"method": "rhf"
			},
			{
				"type": "unocc",
				"energy": -0.02914,
				"method": "rhf"
			},
			{
				"type": "unocc",
				"energy": -0.02402,
				"method": "rhf"
			},
			{
				"type": "unocc",
				"energy": -0.00791,
				"method": "rhf"
			}
		],
		"cosmo_sigma_profile": { 
			"-0.025": 0.0,
			"-0.024": 0.0,
			"-0.023": 0.0,
			"-0.022": 0.0,
			"-0.021": 0.0,
			"-0.02": 0.0,
			"-0.019": 0.0,
			"-0.018": 0.0,
			"-0.017": 0.0,
			"-0.016": 0.0,
			"-0.015": 0.0,
			"-0.014": 0.0,
			"-0.013": 0.0,
			"-0.012": 0.0,
			"-0.011": 0.0,
			"-0.01": 1.27699282864,
			"-0.009": 3.06480388205,
			"-0.008": 3.20110425637,
			"-0.007": 3.91178837533,
			"-0.006": 4.354640284,
			"-0.005": 4.87237209446,
			"-0.004": 9.41513032841,
			"-0.003": 17.5491335653,
			"-0.002": 30.907939753,
			"-0.001": 48.5805717832,
			"0.0": 41.4358161164,
			"0.001": 26.0248899556,
			"0.002": 24.3512248013,
			"0.003": 39.0792101427,
			"0.004": 27.7568369892,
			"0.005": 5.70785189572,
			"0.006": 1.24596287216,
			"0.007": 0.591078942255,
			"0.008": 0.0,
			"0.009": 0.0,
			"0.01": 0.0,
			"0.011": 0.0,
			"0.012": 0.0,
			"0.013": 0.0,
			"0.014": 0.0,
			"0.015": 0.0,
			"0.016": 0.0,
			"0.017": 0.0,
			"0.018": 0.0,
			"0.019": 0.0,
			"0.02": 0.0,
			"0.021": 0.0,
			"0.022": 0.0,
			"0.023": 0.0,
			"0.024": 0.0,
			"0.025": 0.0
		}
	}
}
