{
	 "smiles": "SC1=NC2=C(O1)C=CC(=C2)S(=O)(=O)N1CCCCC1", 
	 "Tm": 413.15, 
	 "num_atms": 33, 
	 "gaussian": { 
		 "optdone": 1, 
		 "sigma_profile": "yes", 
		 "theory": "DFT", 
		 "functional": "B3LYP", 
		 "basiset": "6-31G**", 
		 "properties": { 
			 "R2extent": 9096.1338, 
			 "electric_dipole_moment_norm": 4.67746726979, 
			 "electric_quadrupole_moment_norm": 26.5612673715, 
			 "total_energy": -1597.1833071, 
			 "HOMO_LUMO_gap": 0.19472, 
			 "cosmo_polarized_energy": -14.91, 
			 "cosmo_cavitation_energy": 38.56, 
			 "cosmo_dispersion_energy": -28.69, 
			 "cosmo_repulsion_energy": 2.12, 
			 "cosmo_total_nonelectrostatic_energy": 12.0, 
			 "SMD_solvation_energy": 2.5 
		},
		"coords": [
			{
				"x": -0.7609464334,
				"y": 7.0181541534,
				"z": 0.9357023965,
				"element": "S" 
			},
			{
				"x": -1.0155546105,
				"y": 5.2822918907,
				"z": 0.9123493393,
				"element": "C" 
			},
			{
				"x": -1.8023677565,
				"y": 4.584238079,
				"z": 0.1602598648,
				"element": "N" 
			},
			{
				"x": -1.5845660497,
				"y": 3.2708738504,
				"z": 0.5871178533,
				"element": "C" 
			},
			{
				"x": -0.6336834938,
				"y": 3.2771673553,
				"z": 1.6168505345,
				"element": "C" 
			},
			{
				"x": -0.2643406932,
				"y": 4.5850096763,
				"z": 1.8275615811,
				"element": "O" 
			},
			{
				"x": -0.1879572012,
				"y": 2.1408809718,
				"z": 2.2759986098,
				"element": "C" 
			},
			{
				"x": -0.7446492975,
				"y": 0.9355938012,
				"z": 1.8492389224,
				"element": "C" 
			},
			{
				"x": -1.6955899115,
				"y": 0.9125596895,
				"z": 0.8123088804,
				"element": "C" 
			},
			{
				"x": -2.1435497707,
				"y": 2.0637710954,
				"z": 0.1639090174,
				"element": "C" 
			},
			{
				"x": -2.3889205267,
				"y": -0.6744982727,
				"z": 0.3304970133,
				"element": "S" 
			},
			{
				"x": -3.53105762,
				"y": -0.395990615,
				"z": -0.5520804848,
				"element": "O" 
			},
			{
				"x": -2.5585483725,
				"y": -1.4902033964,
				"z": 1.5382960024,
				"element": "O" 
			},
			{
				"x": -1.1085209352,
				"y": -1.3594837688,
				"z": -0.5353097282,
				"element": "N" 
			},
			{
				"x": -0.9236566779,
				"y": -0.8299334977,
				"z": -1.9064000607,
				"element": "C" 
			},
			{
				"x": 0.1735601482,
				"y": -1.6345844254,
				"z": -2.6325161021,
				"element": "C" 
			},
			{
				"x": 1.2285917998,
				"y": -2.1425274631,
				"z": -1.6431664164,
				"element": "C" 
			},
			{
				"x": 0.5907073381,
				"y": -3.1219459786,
				"z": -0.630073358,
				"element": "C" 
			},
			{
				"x": -0.9048974376,
				"y": -2.815971803,
				"z": -0.4095315739,
				"element": "C" 
			},
			{
				"x": -1.6523085231,
				"y": 7.2364198857,
				"z": -0.0492476601,
				"element": "H" 
			},
			{
				"x": 0.5412594379,
				"y": 2.1866853288,
				"z": 3.0764907111,
				"element": "H" 
			},
			{
				"x": -0.4594699701,
				"y": 0.0044443382,
				"z": 2.3252132638,
				"element": "H" 
			},
			{
				"x": -2.8963350416,
				"y": 2.0131079246,
				"z": -0.6133875078,
				"element": "H" 
			},
			{
				"x": -1.8644522494,
				"y": -0.8602974714,
				"z": -2.4709456205,
				"element": "H" 
			},
			{
				"x": -0.621979993,
				"y": 0.2199916353,
				"z": -1.8175178278,
				"element": "H" 
			},
			{
				"x": -0.2754238453,
				"y": -2.4870054368,
				"z": -3.156542217,
				"element": "H" 
			},
			{
				"x": 0.6231682621,
				"y": -0.9998323986,
				"z": -3.4030712766,
				"element": "H" 
			},
			{
				"x": 2.0544015432,
				"y": -2.6261356449,
				"z": -2.175268771,
				"element": "H" 
			},
			{
				"x": 1.6564943279,
				"y": -1.2859844644,
				"z": -1.1095208128,
				"element": "H" 
			},
			{
				"x": 0.6790762746,
				"y": -4.154847345,
				"z": -0.9870997585,
				"element": "H" 
			},
			{
				"x": 1.1256289861,
				"y": -3.0682019381,
				"z": 0.3237020012,
				"element": "H" 
			},
			{
				"x": -1.5256699621,
				"y": -3.3543140066,
				"z": -1.140996327,
				"element": "H" 
			},
			{
				"x": -1.2315417451,
				"y": -3.1236317492,
				"z": 0.5833795119,
				"element": "H" 
			}
		],
		 "valence_orbital": [ 
			{
				"type": "occ",
				"energy": -0.3014,
				"method": "rhf"
			},
			{
				"type": "occ",
				"energy": -0.29534,
				"method": "rhf"
			},
			{
				"type": "occ",
				"energy": -0.27146,
				"method": "rhf"
			},
			{
				"type": "occ",
				"energy": -0.24895,
				"method": "rhf"
			},
			{
				"type": "occ",
				"energy": -0.23757,
				"method": "rhf"
			},
			{
				"type": "unocc",
				"energy": -0.04285,
				"method": "rhf"
			},
			{
				"type": "unocc",
				"energy": -0.03115,
				"method": "rhf"
			},
			{
				"type": "unocc",
				"energy": -0.00782,
				"method": "rhf"
			},
			{
				"type": "unocc",
				"energy": 0.01721,
				"method": "rhf"
			},
			{
				"type": "unocc",
				"energy": 0.04734,
				"method": "rhf"
			}
		],
		"cosmo_sigma_profile": { 
			"-0.025": 0.0,
			"-0.024": 0.0,
			"-0.023": 0.0,
			"-0.022": 0.0,
			"-0.021": 0.0,
			"-0.02": 0.0,
			"-0.019": 0.0,
			"-0.018": 0.0,
			"-0.017": 0.0,
			"-0.016": 0.0,
			"-0.015": 0.0,
			"-0.014": 0.0757109036866,
			"-0.013": 1.44589605502,
			"-0.012": 1.75270359354,
			"-0.011": 0.993640835733,
			"-0.01": 1.25354259801,
			"-0.009": 2.32661545873,
			"-0.008": 4.57349749692,
			"-0.007": 6.04387610718,
			"-0.006": 6.44391325366,
			"-0.005": 5.43874771649,
			"-0.004": 22.3411696871,
			"-0.003": 38.3346043048,
			"-0.002": 38.9949450838,
			"-0.001": 36.0855121575,
			"0.0": 33.1563770872,
			"0.001": 24.8969735918,
			"0.002": 14.900938145,
			"0.003": 11.6688340899,
			"0.004": 10.0256267581,
			"0.005": 8.80932082689,
			"0.006": 4.40948081739,
			"0.007": 3.19098929355,
			"0.008": 4.14633236251,
			"0.009": 5.27281515186,
			"0.01": 7.45266803775,
			"0.011": 8.21501158049,
			"0.012": 5.24831478027,
			"0.013": 0.555283566847,
			"0.014": 0.640845556005,
			"0.015": 0.01984171224,
			"0.016": 0.0,
			"0.017": 0.0,
			"0.018": 0.0,
			"0.019": 0.0,
			"0.02": 0.0,
			"0.021": 0.0,
			"0.022": 0.0,
			"0.023": 0.0,
			"0.024": 0.0,
			"0.025": 0.0
		}
	}
}
