{
	 "smiles": "COC(=O)C1=C(C=CS1)N1C=CC=C1", 
	 "Tm": 334.15, 
	 "num_atms": 23, 
	 "gaussian": { 
		 "optdone": 1, 
		 "sigma_profile": "yes", 
		 "theory": "DFT", 
		 "functional": "B3LYP", 
		 "basiset": "6-31G**", 
		 "properties": { 
			 "R2extent": 3589.6137, 
			 "electric_dipole_moment_norm": 1.50028625935, 
			 "electric_quadrupole_moment_norm": 15.2059390766, 
			 "total_energy": -989.845090614, 
			 "HOMO_LUMO_gap": 0.15184, 
			 "cosmo_polarized_energy": -10.33, 
			 "cosmo_cavitation_energy": 29.1, 
			 "cosmo_dispersion_energy": -21.17, 
			 "cosmo_repulsion_energy": 1.61, 
			 "cosmo_total_nonelectrostatic_energy": 9.54, 
			 "SMD_solvation_energy": 7.29 
		},
		"coords": [
			{
				"x": 1.2589900794,
				"y": 3.8941767457,
				"z": 1.5183332034,
				"element": "C" 
			},
			{
				"x": 0.7085184618,
				"y": 2.7517637815,
				"z": 0.8416912598,
				"element": "O" 
			},
			{
				"x": 0.2975862749,
				"y": 2.975451943,
				"z": -0.4213594353,
				"element": "C" 
			},
			{
				"x": 0.3640130817,
				"y": 4.0622834906,
				"z": -0.9688752714,
				"element": "O" 
			},
			{
				"x": -0.2183360757,
				"y": 1.7718635095,
				"z": -1.0943445136,
				"element": "C" 
			},
			{
				"x": -0.3787421046,
				"y": 0.4437224867,
				"z": -0.7161848977,
				"element": "C" 
			},
			{
				"x": -0.8069153782,
				"y": -0.3832622466,
				"z": -1.8008886302,
				"element": "C" 
			},
			{
				"x": -0.9715290696,
				"y": 0.3150838892,
				"z": -2.9646092743,
				"element": "C" 
			},
			{
				"x": -0.6228596443,
				"y": 1.9912675026,
				"z": -2.7800619819,
				"element": "S" 
			},
			{
				"x": -0.1796995285,
				"y": -0.1073439054,
				"z": 0.5644633347,
				"element": "N" 
			},
			{
				"x": 0.4465834978,
				"y": -1.326190895,
				"z": 0.7967084806,
				"element": "C" 
			},
			{
				"x": 0.3476239176,
				"y": -1.611745322,
				"z": 2.1352335138,
				"element": "C" 
			},
			{
				"x": -0.3802498166,
				"y": -0.5454005533,
				"z": 2.7473594844,
				"element": "C" 
			},
			{
				"x": -0.6914764533,
				"y": 0.360696891,
				"z": 1.7650211857,
				"element": "C" 
			},
			{
				"x": 1.5149824419,
				"y": 3.5421448522,
				"z": 2.5171609259,
				"element": "H" 
			},
			{
				"x": 2.1488524984,
				"y": 4.2562484593,
				"z": 0.9975002338,
				"element": "H" 
			},
			{
				"x": 0.5262059233,
				"y": 4.7032536674,
				"z": 1.5681039473,
				"element": "H" 
			},
			{
				"x": -1.008824979,
				"y": -1.4412932457,
				"z": -1.6875326778,
				"element": "H" 
			},
			{
				"x": -1.3075541193,
				"y": -0.0677061203,
				"z": -3.918735755,
				"element": "H" 
			},
			{
				"x": 0.9340955766,
				"y": -1.8510974533,
				"z": -0.0106482342,
				"element": "H" 
			},
			{
				"x": 0.7581497956,
				"y": -2.483279435,
				"z": 2.6256433878,
				"element": "H" 
			},
			{
				"x": -0.649163063,
				"y": -0.4588650923,
				"z": 3.7907946902,
				"element": "H" 
			},
			{
				"x": -1.2369513168,
				"y": 1.2891270504,
				"z": 1.7993270242,
				"element": "H" 
			}
		],
		 "valence_orbital": [ 
			{
				"type": "occ",
				"energy": -0.28048,
				"method": "rhf"
			},
			{
				"type": "occ",
				"energy": -0.27855,
				"method": "rhf"
			},
			{
				"type": "occ",
				"energy": -0.2561,
				"method": "rhf"
			},
			{
				"type": "occ",
				"energy": -0.22622,
				"method": "rhf"
			},
			{
				"type": "occ",
				"energy": -0.21119,
				"method": "rhf"
			},
			{
				"type": "unocc",
				"energy": -0.05935,
				"method": "rhf"
			},
			{
				"type": "unocc",
				"energy": 0.01605,
				"method": "rhf"
			},
			{
				"type": "unocc",
				"energy": 0.02287,
				"method": "rhf"
			},
			{
				"type": "unocc",
				"energy": 0.0423,
				"method": "rhf"
			},
			{
				"type": "unocc",
				"energy": 0.08362,
				"method": "rhf"
			}
		],
		"cosmo_sigma_profile": { 
			"-0.025": 0.0,
			"-0.024": 0.0,
			"-0.023": 0.0,
			"-0.022": 0.0,
			"-0.021": 0.0,
			"-0.02": 0.0,
			"-0.019": 0.0,
			"-0.018": 0.0,
			"-0.017": 0.0,
			"-0.016": 0.0,
			"-0.015": 0.0,
			"-0.014": 0.0,
			"-0.013": 0.0,
			"-0.012": 0.0,
			"-0.011": 0.0,
			"-0.01": 0.958089593277,
			"-0.009": 2.0505881592,
			"-0.008": 3.63732288855,
			"-0.007": 7.18578605197,
			"-0.006": 14.3704226142,
			"-0.005": 18.3154189251,
			"-0.004": 16.5186333021,
			"-0.003": 20.6156157427,
			"-0.002": 15.651217971,
			"-0.001": 14.8713478022,
			"0.0": 17.6546299158,
			"0.001": 20.463085356,
			"0.002": 17.5652582275,
			"0.003": 15.6129512887,
			"0.004": 8.65045046755,
			"0.005": 6.70382800952,
			"0.006": 7.51780660743,
			"0.007": 7.63226318969,
			"0.008": 7.22935585319,
			"0.009": 3.13448860846,
			"0.01": 2.20515197889,
			"0.011": 3.21308910444,
			"0.012": 3.85853479793,
			"0.013": 0.0961091968009,
			"0.014": 0.0,
			"0.015": 0.0,
			"0.016": 0.0,
			"0.017": 0.0,
			"0.018": 0.0,
			"0.019": 0.0,
			"0.02": 0.0,
			"0.021": 0.0,
			"0.022": 0.0,
			"0.023": 0.0,
			"0.024": 0.0,
			"0.025": 0.0
		}
	}
}
