{
	 "smiles": "NC1=CC=C(C=C1)S(=O)(=O)NC1=C(F)C=C(F)C=C1", 
	 "Tm": 436.15, 
	 "num_atms": 29, 
	 "gaussian": { 
		 "optdone": 1, 
		 "sigma_profile": "yes", 
		 "theory": "DFT", 
		 "functional": "B3LYP", 
		 "basiset": "6-31G**", 
		 "properties": { 
			 "R2extent": 7792.5396, 
			 "electric_dipole_moment_norm": 6.79379467897, 
			 "electric_quadrupole_moment_norm": 36.33373713, 
			 "total_energy": -1321.0419351, 
			 "HOMO_LUMO_gap": 0.19446, 
			 "cosmo_polarized_energy": -19.37, 
			 "cosmo_cavitation_energy": 36.38, 
			 "cosmo_dispersion_energy": -26.14, 
			 "cosmo_repulsion_energy": 1.91, 
			 "cosmo_total_nonelectrostatic_energy": 12.15, 
			 "SMD_solvation_energy": 6.26 
		},
		"coords": [
			{
				"x": 2.1580515744,
				"y": -6.2282880982,
				"z": -1.0610598246,
				"element": "N" 
			},
			{
				"x": 1.8749573954,
				"y": -4.8812696879,
				"z": -1.1763307697,
				"element": "C" 
			},
			{
				"x": 0.6115707792,
				"y": -4.3800175756,
				"z": -0.7949879888,
				"element": "C" 
			},
			{
				"x": 0.3398226265,
				"y": -3.0227616139,
				"z": -0.8663274011,
				"element": "C" 
			},
			{
				"x": 1.3300467696,
				"y": -2.1399414073,
				"z": -1.3139436439,
				"element": "C" 
			},
			{
				"x": 2.5850625904,
				"y": -2.6173696534,
				"z": -1.702601202,
				"element": "C" 
			},
			{
				"x": 2.8552719854,
				"y": -3.9775405662,
				"z": -1.6330315178,
				"element": "C" 
			},
			{
				"x": 0.9764756443,
				"y": -0.404464859,
				"z": -1.4347485551,
				"element": "S" 
			},
			{
				"x": 2.1075020635,
				"y": 0.2551274557,
				"z": -2.0997607338,
				"element": "O" 
			},
			{
				"x": -0.3890008461,
				"y": -0.1937100571,
				"z": -1.9243283279,
				"element": "O" 
			},
			{
				"x": 0.9346475833,
				"y": -0.0091690192,
				"z": 0.2496720752,
				"element": "N" 
			},
			{
				"x": 0.5835942684,
				"y": 1.3220310898,
				"z": 0.6135029882,
				"element": "C" 
			},
			{
				"x": 1.4888201673,
				"y": 2.0880072024,
				"z": 1.3570897611,
				"element": "C" 
			},
			{
				"x": 2.687183412,
				"y": 1.533944757,
				"z": 1.6611506314,
				"element": "F" 
			},
			{
				"x": 1.2012854731,
				"y": 3.3656119797,
				"z": 1.8110282407,
				"element": "C" 
			},
			{
				"x": -0.0393599669,
				"y": 3.8977702669,
				"z": 1.4761856359,
				"element": "C" 
			},
			{
				"x": -0.3423496255,
				"y": 5.1421242659,
				"z": 1.8964800438,
				"element": "F" 
			},
			{
				"x": -0.97099796,
				"y": 3.1833991787,
				"z": 0.7315110063,
				"element": "C" 
			},
			{
				"x": -0.6608288988,
				"y": 1.8900518703,
				"z": 0.3125047072,
				"element": "C" 
			},
			{
				"x": 1.3743347391,
				"y": -6.8621186908,
				"z": -1.013816667,
				"element": "H" 
			},
			{
				"x": 2.9380471919,
				"y": -6.5828311784,
				"z": -1.5941082453,
				"element": "H" 
			},
			{
				"x": -0.1534083551,
				"y": -5.0679159381,
				"z": -0.4451309198,
				"element": "H" 
			},
			{
				"x": -0.6364681146,
				"y": -2.64350084,
				"z": -0.5844342207,
				"element": "H" 
			},
			{
				"x": 3.3326733045,
				"y": -1.9205260212,
				"z": -2.0656758521,
				"element": "H" 
			},
			{
				"x": 3.8299643017,
				"y": -4.3514765458,
				"z": -1.934503325,
				"element": "H" 
			},
			{
				"x": 1.8386991355,
				"y": -0.2578772418,
				"z": 0.6482938004,
				"element": "H" 
			},
			{
				"x": 1.9221105442,
				"y": 3.9270838823,
				"z": 2.3924284364,
				"element": "H" 
			},
			{
				"x": -1.9276690572,
				"y": 3.6351340749,
				"z": 0.4957623851,
				"element": "H" 
			},
			{
				"x": -1.3718387255,
				"y": 1.3122929697,
				"z": -0.264320517,
				"element": "H" 
			}
		],
		 "valence_orbital": [ 
			{
				"type": "occ",
				"energy": -0.28928,
				"method": "rhf"
			},
			{
				"type": "occ",
				"energy": -0.27269,
				"method": "rhf"
			},
			{
				"type": "occ",
				"energy": -0.25909,
				"method": "rhf"
			},
			{
				"type": "occ",
				"energy": -0.22962,
				"method": "rhf"
			},
			{
				"type": "occ",
				"energy": -0.22452,
				"method": "rhf"
			},
			{
				"type": "unocc",
				"energy": -0.03006,
				"method": "rhf"
			},
			{
				"type": "unocc",
				"energy": -0.0207,
				"method": "rhf"
			},
			{
				"type": "unocc",
				"energy": -0.01321,
				"method": "rhf"
			},
			{
				"type": "unocc",
				"energy": -0.00059,
				"method": "rhf"
			},
			{
				"type": "unocc",
				"energy": 0.05671,
				"method": "rhf"
			}
		],
		"cosmo_sigma_profile": { 
			"-0.025": 0.0,
			"-0.024": 0.0,
			"-0.023": 0.0,
			"-0.022": 0.0,
			"-0.021": 0.0,
			"-0.02": 0.0,
			"-0.019": 0.0,
			"-0.018": 0.0,
			"-0.017": 0.0,
			"-0.016": 0.0,
			"-0.015": 0.0,
			"-0.014": 0.93590915704,
			"-0.013": 3.5335022341,
			"-0.012": 3.78525791435,
			"-0.011": 4.91815882705,
			"-0.01": 3.88421986485,
			"-0.009": 4.79960849869,
			"-0.008": 7.20222195742,
			"-0.007": 10.7950772924,
			"-0.006": 13.0421140133,
			"-0.005": 14.6587832674,
			"-0.004": 10.6807428739,
			"-0.003": 11.2025137566,
			"-0.002": 12.1857532043,
			"-0.001": 16.1079638876,
			"0.0": 23.3422720371,
			"0.001": 27.2369303168,
			"0.002": 23.5062008546,
			"0.003": 30.9971015058,
			"0.004": 26.0307857292,
			"0.005": 6.47254974586,
			"0.006": 5.15055932432,
			"0.007": 3.54958708104,
			"0.008": 4.00846810366,
			"0.009": 5.43749409107,
			"0.01": 8.18874228166,
			"0.011": 8.05748579749,
			"0.012": 2.25342624347,
			"0.013": 0.0,
			"0.014": 0.0,
			"0.015": 0.0,
			"0.016": 0.0,
			"0.017": 0.0,
			"0.018": 0.0,
			"0.019": 0.0,
			"0.02": 0.0,
			"0.021": 0.0,
			"0.022": 0.0,
			"0.023": 0.0,
			"0.024": 0.0,
			"0.025": 0.0
		}
	}
}
