{
	 "smiles": "ClC1=CC=C(C=C1)C(=O)C1CC1", 
	 "Tm": 303.15, 
	 "num_atms": 21, 
	 "gaussian": { 
		 "optdone": 1, 
		 "sigma_profile": "yes", 
		 "theory": "DFT", 
		 "functional": "B3LYP", 
		 "basiset": "6-31G**", 
		 "properties": { 
			 "R2extent": 3664.01, 
			 "electric_dipole_moment_norm": 2.42465845842, 
			 "electric_quadrupole_moment_norm": 10.1593389426, 
			 "total_energy": -921.880011052, 
			 "HOMO_LUMO_gap": 0.1917, 
			 "cosmo_polarized_energy": -7.89, 
			 "cosmo_cavitation_energy": 26.75, 
			 "cosmo_dispersion_energy": -19.82, 
			 "cosmo_repulsion_energy": 1.57, 
			 "cosmo_total_nonelectrostatic_energy": 8.5, 
			 "SMD_solvation_energy": 4.38 
		},
		"coords": [
			{
				"x": -2.3552462331,
				"y": -2.0885419555,
				"z": -2.4706235174,
				"element": "Cl" 
			},
			{
				"x": -1.485181527,
				"y": -1.524375482,
				"z": -1.055433231,
				"element": "C" 
			},
			{
				"x": -0.515397101,
				"y": -0.5330295147,
				"z": -1.1989229415,
				"element": "C" 
			},
			{
				"x": 0.1728631369,
				"y": -0.0887582942,
				"z": -0.0707905079,
				"element": "C" 
			},
			{
				"x": -0.0986297955,
				"y": -0.6247052182,
				"z": 1.1967896306,
				"element": "C" 
			},
			{
				"x": -1.0816932632,
				"y": -1.6221537953,
				"z": 1.3089184905,
				"element": "C" 
			},
			{
				"x": -1.7765189226,
				"y": -2.0762228065,
				"z": 0.194578385,
				"element": "C" 
			},
			{
				"x": 0.5973723891,
				"y": -0.199942135,
				"z": 2.457561173,
				"element": "C" 
			},
			{
				"x": 0.2922096757,
				"y": -0.7202365641,
				"z": 3.5267136721,
				"element": "O" 
			},
			{
				"x": 1.6569738128,
				"y": 0.8506704561,
				"z": 2.4139641264,
				"element": "C" 
			},
			{
				"x": 2.797719238,
				"y": 0.713338373,
				"z": 3.4172012033,
				"element": "C" 
			},
			{
				"x": 1.765190757,
				"y": 1.7639403403,
				"z": 3.6309165177,
				"element": "C" 
			},
			{
				"x": -0.3038811362,
				"y": -0.117064824,
				"z": -2.1775654162,
				"element": "H" 
			},
			{
				"x": 0.9234498396,
				"y": 0.6827239541,
				"z": -0.1996528759,
				"element": "H" 
			},
			{
				"x": -1.2838001671,
				"y": -2.0293265223,
				"z": 2.2936235297,
				"element": "H" 
			},
			{
				"x": -2.5345107763,
				"y": -2.846382357,
				"z": 0.2848982885,
				"element": "H" 
			},
			{
				"x": 1.906450439,
				"y": 1.2902582693,
				"z": 1.4563208595,
				"element": "H" 
			},
			{
				"x": 2.7549038856,
				"y": -0.1648718577,
				"z": 4.0527798218,
				"element": "H" 
			},
			{
				"x": 3.7871059003,
				"y": 1.0049464911,
				"z": 3.0794110914,
				"element": "H" 
			},
			{
				"x": 1.0303044079,
				"y": 1.5900895598,
				"z": 4.4098768778,
				"element": "H" 
			},
			{
				"x": 2.0206154401,
				"y": 2.8023438827,
				"z": 3.4451348226,
				"element": "H" 
			}
		],
		 "valence_orbital": [ 
			{
				"type": "occ",
				"energy": -0.31342,
				"method": "rhf"
			},
			{
				"type": "occ",
				"energy": -0.29496,
				"method": "rhf"
			},
			{
				"type": "occ",
				"energy": -0.2725,
				"method": "rhf"
			},
			{
				"type": "occ",
				"energy": -0.25496,
				"method": "rhf"
			},
			{
				"type": "occ",
				"energy": -0.25454,
				"method": "rhf"
			},
			{
				"type": "unocc",
				"energy": -0.06284,
				"method": "rhf"
			},
			{
				"type": "unocc",
				"energy": -0.0216,
				"method": "rhf"
			},
			{
				"type": "unocc",
				"energy": 0.02356,
				"method": "rhf"
			},
			{
				"type": "unocc",
				"energy": 0.02911,
				"method": "rhf"
			},
			{
				"type": "unocc",
				"energy": 0.08288,
				"method": "rhf"
			}
		],
		"cosmo_sigma_profile": { 
			"-0.025": 0.0,
			"-0.024": 0.0,
			"-0.023": 0.0,
			"-0.022": 0.0,
			"-0.021": 0.0,
			"-0.02": 0.0,
			"-0.019": 0.0,
			"-0.018": 0.0,
			"-0.017": 0.0,
			"-0.016": 0.0,
			"-0.015": 0.0,
			"-0.014": 0.0,
			"-0.013": 0.0,
			"-0.012": 0.0,
			"-0.011": 0.0,
			"-0.01": 0.148517031438,
			"-0.009": 1.65039051384,
			"-0.008": 3.17927095829,
			"-0.007": 6.29409838579,
			"-0.006": 9.54721449325,
			"-0.005": 13.7875235865,
			"-0.004": 12.8357070411,
			"-0.003": 13.6000312583,
			"-0.002": 14.9857219337,
			"-0.001": 17.2290022007,
			"0.0": 21.0072424442,
			"0.001": 25.3212534614,
			"0.002": 26.888800337,
			"0.003": 16.7540350276,
			"0.004": 14.212707036,
			"0.005": 3.99091302971,
			"0.006": 2.11290947479,
			"0.007": 1.42416673275,
			"0.008": 1.17507014159,
			"0.009": 1.72481227981,
			"0.01": 1.85532136496,
			"0.011": 2.12275322722,
			"0.012": 3.45176780754,
			"0.013": 1.08880644444,
			"0.014": 0.0,
			"0.015": 0.0,
			"0.016": 0.0,
			"0.017": 0.0,
			"0.018": 0.0,
			"0.019": 0.0,
			"0.02": 0.0,
			"0.021": 0.0,
			"0.022": 0.0,
			"0.023": 0.0,
			"0.024": 0.0,
			"0.025": 0.0
		}
	}
}
