{
	 "smiles": "CN(C1=CC=CC=C1)C1=C(C=CC=C1)C(O)=O", 
	 "Tm": 379.15, 
	 "num_atms": 30, 
	 "gaussian": { 
		 "optdone": 1, 
		 "sigma_profile": "yes", 
		 "theory": "DFT", 
		 "functional": "B3LYP", 
		 "basiset": "6-31G**", 
		 "properties": { 
			 "R2extent": 4357.068, 
			 "electric_dipole_moment_norm": 4.37824699623, 
			 "electric_quadrupole_moment_norm": 19.2284942965, 
			 "total_energy": -746.519558507, 
			 "HOMO_LUMO_gap": 0.14334, 
			 "cosmo_polarized_energy": -16.23, 
			 "cosmo_cavitation_energy": 33.11, 
			 "cosmo_dispersion_energy": -23.5, 
			 "cosmo_repulsion_energy": 1.81, 
			 "cosmo_total_nonelectrostatic_energy": 11.42, 
			 "SMD_solvation_energy": 6.65 
		},
		"coords": [
			{
				"x": -1.4196681003,
				"y": 1.407822618,
				"z": 1.9111604176,
				"element": "C" 
			},
			{
				"x": -0.7269011944,
				"y": 0.7676440512,
				"z": 0.7980757335,
				"element": "N" 
			},
			{
				"x": -1.3842602457,
				"y": -0.2508087027,
				"z": 0.08361784,
				"element": "C" 
			},
			{
				"x": -0.6626083886,
				"y": -1.1697890684,
				"z": -0.7064770336,
				"element": "C" 
			},
			{
				"x": -1.3197160761,
				"y": -2.1802890062,
				"z": -1.4004224608,
				"element": "C" 
			},
			{
				"x": -2.707220661,
				"y": -2.3238472271,
				"z": -1.319386646,
				"element": "C" 
			},
			{
				"x": -3.4245773831,
				"y": -1.4359400975,
				"z": -0.5200727623,
				"element": "C" 
			},
			{
				"x": -2.7803879858,
				"y": -0.4121351663,
				"z": 0.1750368561,
				"element": "C" 
			},
			{
				"x": 0.5661188693,
				"y": 1.2032004027,
				"z": 0.4417238982,
				"element": "C" 
			},
			{
				"x": 1.6047489037,
				"y": 1.3487057068,
				"z": 1.3939813412,
				"element": "C" 
			},
			{
				"x": 2.8492131193,
				"y": 1.861483507,
				"z": 0.9846035987,
				"element": "C" 
			},
			{
				"x": 3.0942692405,
				"y": 2.2073547595,
				"z": -0.339353631,
				"element": "C" 
			},
			{
				"x": 2.0722031441,
				"y": 2.0530703323,
				"z": -1.2802786206,
				"element": "C" 
			},
			{
				"x": 0.8285246603,
				"y": 1.568718993,
				"z": -0.8918684519,
				"element": "C" 
			},
			{
				"x": 1.4609497762,
				"y": 0.8545902926,
				"z": 2.8048926937,
				"element": "C" 
			},
			{
				"x": 2.1082078553,
				"y": 1.5952170584,
				"z": 3.752432573,
				"element": "O" 
			},
			{
				"x": 0.8567478202,
				"y": -0.137177022,
				"z": 3.1331504496,
				"element": "O" 
			},
			{
				"x": -0.7687772238,
				"y": 2.1595748391,
				"z": 2.3560841959,
				"element": "H" 
			},
			{
				"x": -1.6927878474,
				"y": 0.6830801832,
				"z": 2.6844595916,
				"element": "H" 
			},
			{
				"x": -2.3224609578,
				"y": 1.9270414764,
				"z": 1.5650107588,
				"element": "H" 
			},
			{
				"x": 0.4175853513,
				"y": -1.1008858771,
				"z": -0.7589240605,
				"element": "H" 
			},
			{
				"x": -0.7344595085,
				"y": -2.8741386923,
				"z": -1.9978117077,
				"element": "H" 
			},
			{
				"x": -3.2141515464,
				"y": -3.1180088977,
				"z": -1.8583933076,
				"element": "H" 
			},
			{
				"x": -4.5032076039,
				"y": -1.5327360583,
				"z": -0.4305439464,
				"element": "H" 
			},
			{
				"x": -3.3730689324,
				"y": 0.2566287313,
				"z": 0.7868146036,
				"element": "H" 
			},
			{
				"x": 3.6566733317,
				"y": 1.9337376777,
				"z": 1.7088754487,
				"element": "H" 
			},
			{
				"x": 4.0682272628,
				"y": 2.583522922,
				"z": -0.6353339506,
				"element": "H" 
			},
			{
				"x": 2.2377895848,
				"y": 2.3306913417,
				"z": -2.3172661336,
				"element": "H" 
			},
			{
				"x": 0.0277439881,
				"y": 1.4774379374,
				"z": -1.6178128788,
				"element": "H" 
			},
			{
				"x": 2.4281507476,
				"y": 2.4189329854,
				"z": 3.3580255912,
				"element": "H" 
			}
		],
		 "valence_orbital": [ 
			{
				"type": "occ",
				"energy": -0.27598,
				"method": "rhf"
			},
			{
				"type": "occ",
				"energy": -0.26623,
				"method": "rhf"
			},
			{
				"type": "occ",
				"energy": -0.26049,
				"method": "rhf"
			},
			{
				"type": "occ",
				"energy": -0.24331,
				"method": "rhf"
			},
			{
				"type": "occ",
				"energy": -0.19046,
				"method": "rhf"
			},
			{
				"type": "unocc",
				"energy": -0.04712,
				"method": "rhf"
			},
			{
				"type": "unocc",
				"energy": -0.02418,
				"method": "rhf"
			},
			{
				"type": "unocc",
				"energy": 0.00666,
				"method": "rhf"
			},
			{
				"type": "unocc",
				"energy": 0.02126,
				"method": "rhf"
			},
			{
				"type": "unocc",
				"energy": 0.0391,
				"method": "rhf"
			}
		],
		"cosmo_sigma_profile": { 
			"-0.025": 0.0,
			"-0.024": 0.0,
			"-0.023": 0.0,
			"-0.022": 0.0,
			"-0.021": 0.0,
			"-0.02": 0.0,
			"-0.019": 0.0587478696782,
			"-0.018": 0.617029556085,
			"-0.017": 0.655210289915,
			"-0.016": 1.38042587929,
			"-0.015": 0.525649443093,
			"-0.014": 0.786285966981,
			"-0.013": 0.95722950709,
			"-0.012": 1.20931976767,
			"-0.011": 1.11367371407,
			"-0.01": 1.33555504431,
			"-0.009": 1.07513026045,
			"-0.008": 2.00122280992,
			"-0.007": 5.28106512359,
			"-0.006": 12.2070570418,
			"-0.005": 20.8528765539,
			"-0.004": 22.6897057222,
			"-0.003": 23.1312772484,
			"-0.002": 21.8396407612,
			"-0.001": 15.3622231474,
			"0.0": 14.580322357,
			"0.001": 16.254998878,
			"0.002": 16.1383877209,
			"0.003": 16.0520514543,
			"0.004": 15.6389373811,
			"0.005": 10.6426782411,
			"0.006": 11.2840652105,
			"0.007": 7.822065268,
			"0.008": 2.88168525971,
			"0.009": 3.42922448847,
			"0.01": 4.86815554797,
			"0.011": 5.45743232381,
			"0.012": 4.5818686375,
			"0.013": 1.53746718878,
			"0.014": 0.0284404467477,
			"0.015": 0.0,
			"0.016": 0.0,
			"0.017": 0.0,
			"0.018": 0.0,
			"0.019": 0.0,
			"0.02": 0.0,
			"0.021": 0.0,
			"0.022": 0.0,
			"0.023": 0.0,
			"0.024": 0.0,
			"0.025": 0.0
		}
	}
}
