{
	 "smiles": "FC1=CC=C(C=C1)N1C(=O)C2ON=C(C2C1=O)C(=O)C1=CC=CC=C1", 
	 "Tm": 429.15, 
	 "num_atms": 36, 
	 "gaussian": { 
		 "optdone": 1, 
		 "sigma_profile": "yes", 
		 "theory": "DFT", 
		 "functional": "B3LYP", 
		 "basiset": "6-31G**", 
		 "properties": { 
			 "R2extent": 10779.367, 
			 "electric_dipole_moment_norm": 1.44657003287, 
			 "electric_quadrupole_moment_norm": 22.9917299184, 
			 "total_energy": -1202.72603908, 
			 "HOMO_LUMO_gap": 0.1582, 
			 "cosmo_polarized_energy": -18.47, 
			 "cosmo_cavitation_energy": 42.65, 
			 "cosmo_dispersion_energy": -29.96, 
			 "cosmo_repulsion_energy": 2.22, 
			 "cosmo_total_nonelectrostatic_energy": 14.91, 
			 "SMD_solvation_energy": 9.14 
		},
		"coords": [
			{
				"x": 4.4063426465,
				"y": 0.5611088673,
				"z": 4.6554842366,
				"element": "F" 
			},
			{
				"x": 3.2280419255,
				"y": 0.4199523725,
				"z": 4.0183705021,
				"element": "C" 
			},
			{
				"x": 3.2234399343,
				"y": 0.2463911762,
				"z": 2.6389771094,
				"element": "C" 
			},
			{
				"x": 2.0046545392,
				"y": 0.0952747305,
				"z": 1.9819840478,
				"element": "C" 
			},
			{
				"x": 0.8110361061,
				"y": 0.1302310097,
				"z": 2.7114663655,
				"element": "C" 
			},
			{
				"x": 0.8339881769,
				"y": 0.3110966855,
				"z": 4.098823934,
				"element": "C" 
			},
			{
				"x": 2.0522744847,
				"y": 0.4519064205,
				"z": 4.7594003362,
				"element": "C" 
			},
			{
				"x": -0.4424288608,
				"y": -0.021491077,
				"z": 2.0328906895,
				"element": "N" 
			},
			{
				"x": -1.4973235933,
				"y": -0.8120363795,
				"z": 2.5179268294,
				"element": "C" 
			},
			{
				"x": -1.5116637742,
				"y": -1.423392461,
				"z": 3.560076932,
				"element": "O" 
			},
			{
				"x": -2.6312943063,
				"y": -0.760363209,
				"z": 1.4885745907,
				"element": "C" 
			},
			{
				"x": -2.7328409626,
				"y": -2.0587860093,
				"z": 0.8219300864,
				"element": "O" 
			},
			{
				"x": -2.470432037,
				"y": -1.9120714271,
				"z": -0.5260716129,
				"element": "N" 
			},
			{
				"x": -2.181266941,
				"y": -0.6908689669,
				"z": -0.8053374676,
				"element": "C" 
			},
			{
				"x": -2.1736647131,
				"y": 0.2123322806,
				"z": 0.4107959446,
				"element": "C" 
			},
			{
				"x": -0.747257882,
				"y": 0.6224033638,
				"z": 0.8164859928,
				"element": "C" 
			},
			{
				"x": -0.0076638733,
				"y": 1.3538054498,
				"z": 0.2043643893,
				"element": "O" 
			},
			{
				"x": -2.027034992,
				"y": -0.1400316071,
				"z": -2.1913160102,
				"element": "C" 
			},
			{
				"x": -2.2620714785,
				"y": 1.0570017193,
				"z": -2.3158888162,
				"element": "O" 
			},
			{
				"x": -1.6336425198,
				"y": -0.991452519,
				"z": -3.3475621196,
				"element": "C" 
			},
			{
				"x": -1.6759245108,
				"y": -0.3896631228,
				"z": -4.6182503288,
				"element": "C" 
			},
			{
				"x": -1.3055046565,
				"y": -1.1073418246,
				"z": -5.7495010188,
				"element": "C" 
			},
			{
				"x": -0.8806487225,
				"y": -2.4342710929,
				"z": -5.6259507731,
				"element": "C" 
			},
			{
				"x": -0.8290302247,
				"y": -3.0372577187,
				"z": -4.3680777344,
				"element": "C" 
			},
			{
				"x": -1.201952513,
				"y": -2.3230274207,
				"z": -3.2300793496,
				"element": "C" 
			},
			{
				"x": 4.1617705328,
				"y": 0.227851645,
				"z": 2.0961917171,
				"element": "H" 
			},
			{
				"x": 1.9820515095,
				"y": -0.0339254038,
				"z": 0.9075902272,
				"element": "H" 
			},
			{
				"x": -0.0906291665,
				"y": 0.3254186566,
				"z": 4.6611368098,
				"element": "H" 
			},
			{
				"x": 2.0975841955,
				"y": 0.5878781243,
				"z": 5.8340647692,
				"element": "H" 
			},
			{
				"x": -3.5877981242,
				"y": -0.5586848951,
				"z": 1.975068071,
				"element": "H" 
			},
			{
				"x": -2.7761084579,
				"y": 1.1086318296,
				"z": 0.2507199134,
				"element": "H" 
			},
			{
				"x": -2.0028342571,
				"y": 0.6419973599,
				"z": -4.6885196594,
				"element": "H" 
			},
			{
				"x": -1.3446915062,
				"y": -0.6363769064,
				"z": -6.7271838677,
				"element": "H" 
			},
			{
				"x": -0.5890432646,
				"y": -2.9955434836,
				"z": -6.5091832195,
				"element": "H" 
			},
			{
				"x": -0.496390306,
				"y": -4.0662872077,
				"z": -4.2708213238,
				"element": "H" 
			},
			{
				"x": -1.1663424072,
				"y": -2.8003089587,
				"z": -2.2590801922,
				"element": "H" 
			}
		],
		 "valence_orbital": [ 
			{
				"type": "occ",
				"energy": -0.27186,
				"method": "rhf"
			},
			{
				"type": "occ",
				"energy": -0.2691,
				"method": "rhf"
			},
			{
				"type": "occ",
				"energy": -0.26525,
				"method": "rhf"
			},
			{
				"type": "occ",
				"energy": -0.26429,
				"method": "rhf"
			},
			{
				"type": "occ",
				"energy": -0.24825,
				"method": "rhf"
			},
			{
				"type": "unocc",
				"energy": -0.09005,
				"method": "rhf"
			},
			{
				"type": "unocc",
				"energy": -0.05171,
				"method": "rhf"
			},
			{
				"type": "unocc",
				"energy": -0.03864,
				"method": "rhf"
			},
			{
				"type": "unocc",
				"energy": -0.02214,
				"method": "rhf"
			},
			{
				"type": "unocc",
				"energy": -0.02109,
				"method": "rhf"
			}
		],
		"cosmo_sigma_profile": { 
			"-0.025": 0.0,
			"-0.024": 0.0,
			"-0.023": 0.0,
			"-0.022": 0.0,
			"-0.021": 0.0,
			"-0.02": 0.0,
			"-0.019": 0.0,
			"-0.018": 0.0,
			"-0.017": 0.0,
			"-0.016": 0.0,
			"-0.015": 0.0,
			"-0.014": 0.0,
			"-0.013": 0.106170582999,
			"-0.012": 0.813927760019,
			"-0.011": 2.23965491272,
			"-0.01": 7.79107260235,
			"-0.009": 6.65590938753,
			"-0.008": 7.24254675954,
			"-0.007": 13.8317562807,
			"-0.006": 20.9771893635,
			"-0.005": 22.9878741113,
			"-0.004": 20.7172482497,
			"-0.003": 17.1742197599,
			"-0.002": 15.9260763642,
			"-0.001": 17.558524708,
			"0.0": 23.5557146622,
			"0.001": 22.630529257,
			"0.002": 28.6617700245,
			"0.003": 30.3734729631,
			"0.004": 23.6164196528,
			"0.005": 8.61943464605,
			"0.006": 7.90847972256,
			"0.007": 9.52341140324,
			"0.008": 9.22033944754,
			"0.009": 9.36787379846,
			"0.01": 12.1119937841,
			"0.011": 4.82206063027,
			"0.012": 0.0350744156299,
			"0.013": 0.0,
			"0.014": 0.0,
			"0.015": 0.0,
			"0.016": 0.0,
			"0.017": 0.0,
			"0.018": 0.0,
			"0.019": 0.0,
			"0.02": 0.0,
			"0.021": 0.0,
			"0.022": 0.0,
			"0.023": 0.0,
			"0.024": 0.0,
			"0.025": 0.0
		}
	}
}
