{
	 "smiles": "CC1(CNCCO1)C1=CC=CC=C1", 
	 "Tm": 309.15, 
	 "num_atms": 28, 
	 "gaussian": { 
		 "optdone": 1, 
		 "sigma_profile": "yes", 
		 "theory": "DFT", 
		 "functional": "B3LYP", 
		 "basiset": "6-31G**", 
		 "properties": { 
			 "R2extent": 2948.4358, 
			 "electric_dipole_moment_norm": 1.668557284, 
			 "electric_quadrupole_moment_norm": 6.98071907184, 
			 "total_energy": -558.172495043, 
			 "HOMO_LUMO_gap": 0.2276, 
			 "cosmo_polarized_energy": -7.62, 
			 "cosmo_cavitation_energy": 28.54, 
			 "cosmo_dispersion_energy": -21.15, 
			 "cosmo_repulsion_energy": 1.67, 
			 "cosmo_total_nonelectrostatic_energy": 9.06, 
			 "SMD_solvation_energy": 2.94 
		},
		"coords": [
			{
				"x": 2.0795583551,
				"y": -1.1930536174,
				"z": -1.9589774736,
				"element": "C" 
			},
			{
				"x": 0.7513059346,
				"y": -1.0137605885,
				"z": -1.2000664414,
				"element": "C" 
			},
			{
				"x": 0.3374578542,
				"y": -2.308298735,
				"z": -0.4568815112,
				"element": "C" 
			},
			{
				"x": 0.0365975186,
				"y": -3.3625185985,
				"z": -1.4262690835,
				"element": "N" 
			},
			{
				"x": -1.0914382441,
				"y": -2.9688869309,
				"z": -2.2697464173,
				"element": "C" 
			},
			{
				"x": -0.693342078,
				"y": -1.7008210564,
				"z": -3.0184560107,
				"element": "C" 
			},
			{
				"x": -0.3015928299,
				"y": -0.6678075859,
				"z": -2.1206319724,
				"element": "O" 
			},
			{
				"x": 0.8498638231,
				"y": 0.1411767958,
				"z": -0.2019188425,
				"element": "C" 
			},
			{
				"x": 0.0043973947,
				"y": 1.2537220293,
				"z": -0.288176706,
				"element": "C" 
			},
			{
				"x": 0.1033521279,
				"y": 2.2961422386,
				"z": 0.6360460695,
				"element": "C" 
			},
			{
				"x": 1.0434513744,
				"y": 2.2428843892,
				"z": 1.6649558317,
				"element": "C" 
			},
			{
				"x": 1.8887039774,
				"y": 1.1359735011,
				"z": 1.7624642837,
				"element": "C" 
			},
			{
				"x": 1.7928692572,
				"y": 0.0976224093,
				"z": 0.8363428291,
				"element": "C" 
			},
			{
				"x": 2.2623688073,
				"y": -0.3168125554,
				"z": -2.5869962671,
				"element": "H" 
			},
			{
				"x": 2.915467822,
				"y": -1.2939482501,
				"z": -1.2616219454,
				"element": "H" 
			},
			{
				"x": 2.0562019272,
				"y": -2.0902616775,
				"z": -2.5808020099,
				"element": "H" 
			},
			{
				"x": -0.5258411343,
				"y": -2.0599837117,
				"z": 0.1863517197,
				"element": "H" 
			},
			{
				"x": 1.1535722585,
				"y": -2.6416957952,
				"z": 0.1918532649,
				"element": "H" 
			},
			{
				"x": -0.1684532189,
				"y": -4.2305036795,
				"z": -0.940437525,
				"element": "H" 
			},
			{
				"x": -2.0114127284,
				"y": -2.7663879913,
				"z": -1.6893128089,
				"element": "H" 
			},
			{
				"x": -1.3109161978,
				"y": -3.7682606599,
				"z": -2.9867086646,
				"element": "H" 
			},
			{
				"x": 0.1127185422,
				"y": -1.9315801256,
				"z": -3.7290985775,
				"element": "H" 
			},
			{
				"x": -1.5407401019,
				"y": -1.2970802994,
				"z": -3.5810857533,
				"element": "H" 
			},
			{
				"x": -0.7277701718,
				"y": 1.2940859927,
				"z": -1.0847679968,
				"element": "H" 
			},
			{
				"x": -0.5597576746,
				"y": 3.1527665891,
				"z": 0.5493511614,
				"element": "H" 
			},
			{
				"x": 1.1183480824,
				"y": 3.0541683961,
				"z": 2.38356178,
				"element": "H" 
			},
			{
				"x": 2.6259122392,
				"y": 1.0801670847,
				"z": 2.5587344532,
				"element": "H" 
			},
			{
				"x": 2.4634170836,
				"y": -0.7526475677,
				"z": 0.928194614,
				"element": "H" 
			}
		],
		 "valence_orbital": [ 
			{
				"type": "occ",
				"energy": -0.29017,
				"method": "rhf"
			},
			{
				"type": "occ",
				"energy": -0.25658,
				"method": "rhf"
			},
			{
				"type": "occ",
				"energy": -0.24097,
				"method": "rhf"
			},
			{
				"type": "occ",
				"energy": -0.23549,
				"method": "rhf"
			},
			{
				"type": "occ",
				"energy": -0.22259,
				"method": "rhf"
			},
			{
				"type": "unocc",
				"energy": 0.00501,
				"method": "rhf"
			},
			{
				"type": "unocc",
				"energy": 0.00867,
				"method": "rhf"
			},
			{
				"type": "unocc",
				"energy": 0.07901,
				"method": "rhf"
			},
			{
				"type": "unocc",
				"energy": 0.09609,
				"method": "rhf"
			},
			{
				"type": "unocc",
				"energy": 0.11737,
				"method": "rhf"
			}
		],
		"cosmo_sigma_profile": { 
			"-0.025": 0.0,
			"-0.024": 0.0,
			"-0.023": 0.0,
			"-0.022": 0.0,
			"-0.021": 0.0,
			"-0.02": 0.0,
			"-0.019": 0.0,
			"-0.018": 0.0,
			"-0.017": 0.0,
			"-0.016": 0.0,
			"-0.015": 0.0,
			"-0.014": 0.0,
			"-0.013": 0.0,
			"-0.012": 0.0,
			"-0.011": 0.258201916071,
			"-0.01": 1.59084306126,
			"-0.009": 0.852436373104,
			"-0.008": 1.11505257934,
			"-0.007": 1.62721908685,
			"-0.006": 5.50286975861,
			"-0.005": 13.8842016521,
			"-0.004": 19.8635483832,
			"-0.003": 24.2715103993,
			"-0.002": 27.4737710511,
			"-0.001": 22.2928243957,
			"0.0": 17.1359225154,
			"0.001": 15.6836246859,
			"0.002": 12.3211487563,
			"0.003": 10.8690239958,
			"0.004": 10.8939687606,
			"0.005": 10.8904943646,
			"0.006": 11.6979616269,
			"0.007": 5.49943219482,
			"0.008": 2.56119215625,
			"0.009": 2.46172804241,
			"0.01": 1.28049781145,
			"0.011": 0.989199042281,
			"0.012": 0.780588287472,
			"0.013": 0.607680269236,
			"0.014": 0.655477772001,
			"0.015": 0.295451647046,
			"0.016": 0.138993939822,
			"0.017": 0.0,
			"0.018": 0.0,
			"0.019": 0.0,
			"0.02": 0.0,
			"0.021": 0.0,
			"0.022": 0.0,
			"0.023": 0.0,
			"0.024": 0.0,
			"0.025": 0.0
		}
	}
}
