{
	 "smiles": "CC(=O)NC1=C(O)C=CC(=C1)C(=O)CCl", 
	 "Tm": 462.15, 
	 "num_atms": 25, 
	 "gaussian": { 
		 "optdone": 1, 
		 "sigma_profile": "yes", 
		 "theory": "DFT", 
		 "functional": "B3LYP", 
		 "basiset": "6-31G**", 
		 "properties": { 
			 "R2extent": 4754.0567, 
			 "electric_dipole_moment_norm": 3.06714474879, 
			 "electric_quadrupole_moment_norm": 14.1461336778, 
			 "total_energy": -1127.72061747, 
			 "HOMO_LUMO_gap": 0.17359, 
			 "cosmo_polarized_energy": -17.84, 
			 "cosmo_cavitation_energy": 31.72, 
			 "cosmo_dispersion_energy": -22.32, 
			 "cosmo_repulsion_energy": 1.78, 
			 "cosmo_total_nonelectrostatic_energy": 11.17, 
			 "SMD_solvation_energy": 7.23 
		},
		"coords": [
			{
				"x": 3.3738587715,
				"y": 0.0249582709,
				"z": 1.2853367914,
				"element": "C" 
			},
			{
				"x": 3.6442800958,
				"y": 0.9233423612,
				"z": 0.0943360664,
				"element": "C" 
			},
			{
				"x": 4.6182434919,
				"y": 1.6472163312,
				"z": 0.0019969699,
				"element": "O" 
			},
			{
				"x": 2.7167294009,
				"y": 0.8576945647,
				"z": -0.9539406567,
				"element": "N" 
			},
			{
				"x": 1.3882411305,
				"y": 0.3292239126,
				"z": -0.8523267116,
				"element": "C" 
			},
			{
				"x": 1.1888573056,
				"y": -1.0118457422,
				"z": -1.2501974119,
				"element": "C" 
			},
			{
				"x": 2.2224134771,
				"y": -1.7591791593,
				"z": -1.6897351743,
				"element": "O" 
			},
			{
				"x": -0.0888993145,
				"y": -1.5796302767,
				"z": -1.1846023574,
				"element": "C" 
			},
			{
				"x": -1.1598223824,
				"y": -0.8143769652,
				"z": -0.7422839932,
				"element": "C" 
			},
			{
				"x": -0.9817100969,
				"y": 0.5260070917,
				"z": -0.3531815519,
				"element": "C" 
			},
			{
				"x": 0.3073663469,
				"y": 1.0814076778,
				"z": -0.4136172362,
				"element": "C" 
			},
			{
				"x": -2.0787877315,
				"y": 1.3910740937,
				"z": 0.1510159745,
				"element": "C" 
			},
			{
				"x": -1.8755405994,
				"y": 2.5321029009,
				"z": 0.5382860622,
				"element": "O" 
			},
			{
				"x": -3.5074629924,
				"y": 0.8435078999,
				"z": 0.2357621998,
				"element": "C" 
			},
			{
				"x": -4.2392710709,
				"y": 0.5939264879,
				"z": -1.4074811261,
				"element": "Cl" 
			},
			{
				"x": 4.236166194,
				"y": 0.0729450638,
				"z": 1.9493475187,
				"element": "H" 
			},
			{
				"x": 2.4811892696,
				"y": 0.3572753303,
				"z": 1.8245416791,
				"element": "H" 
			},
			{
				"x": 3.2015936043,
				"y": -1.0100658701,
				"z": 0.9742330681,
				"element": "H" 
			},
			{
				"x": 2.8752640784,
				"y": 1.5893810948,
				"z": -1.6395370902,
				"element": "H" 
			},
			{
				"x": 2.994709721,
				"y": -1.1671894896,
				"z": -1.7370297212,
				"element": "H" 
			},
			{
				"x": -0.2198861939,
				"y": -2.6100624765,
				"z": -1.4960245049,
				"element": "H" 
			},
			{
				"x": -2.1457138101,
				"y": -1.2653364447,
				"z": -0.718961286,
				"element": "H" 
			},
			{
				"x": 0.4432487177,
				"y": 2.1138670789,
				"z": -0.1074113263,
				"element": "H" 
			},
			{
				"x": -4.1180931704,
				"y": 1.5822408381,
				"z": 0.7510705065,
				"element": "H" 
			},
			{
				"x": -3.5534742431,
				"y": -0.1160845743,
				"z": 0.7545033112,
				"element": "H" 
			}
		],
		 "valence_orbital": [ 
			{
				"type": "occ",
				"energy": -0.29079,
				"method": "rhf"
			},
			{
				"type": "occ",
				"energy": -0.28398,
				"method": "rhf"
			},
			{
				"type": "occ",
				"energy": -0.26533,
				"method": "rhf"
			},
			{
				"type": "occ",
				"energy": -0.26366,
				"method": "rhf"
			},
			{
				"type": "occ",
				"energy": -0.24811,
				"method": "rhf"
			},
			{
				"type": "unocc",
				"energy": -0.07452,
				"method": "rhf"
			},
			{
				"type": "unocc",
				"energy": -0.03372,
				"method": "rhf"
			},
			{
				"type": "unocc",
				"energy": -0.00085,
				"method": "rhf"
			},
			{
				"type": "unocc",
				"energy": 0.00556,
				"method": "rhf"
			},
			{
				"type": "unocc",
				"energy": 0.0472,
				"method": "rhf"
			}
		],
		"cosmo_sigma_profile": { 
			"-0.025": 0.0,
			"-0.024": 0.0,
			"-0.023": 0.0,
			"-0.022": 0.0,
			"-0.021": 0.0,
			"-0.02": 0.0,
			"-0.019": 0.0,
			"-0.018": 0.0,
			"-0.017": 0.0,
			"-0.016": 4.54589318236e-05,
			"-0.015": 0.563346560403,
			"-0.014": 1.38711727346,
			"-0.013": 1.85279651734,
			"-0.012": 1.84659583652,
			"-0.011": 2.10669375009,
			"-0.01": 3.28347896217,
			"-0.009": 5.48605277441,
			"-0.008": 6.61504507817,
			"-0.007": 10.1211416317,
			"-0.006": 14.3347622845,
			"-0.005": 17.4354931167,
			"-0.004": 14.0471225771,
			"-0.003": 14.0188922671,
			"-0.002": 15.2319288389,
			"-0.001": 16.151658178,
			"0.0": 15.8426961876,
			"0.001": 16.018085575,
			"0.002": 17.2698896353,
			"0.003": 15.001357729,
			"0.004": 10.3577711364,
			"0.005": 12.2529646994,
			"0.006": 6.47021257379,
			"0.007": 4.37251483206,
			"0.008": 3.52704961881,
			"0.009": 5.48749531843,
			"0.01": 5.06279818285,
			"0.011": 5.60164754351,
			"0.012": 5.94087633507,
			"0.013": 5.35818144792,
			"0.014": 1.45341379792,
			"0.015": 0.0353256304393,
			"0.016": 0.0,
			"0.017": 0.0,
			"0.018": 0.0,
			"0.019": 0.0,
			"0.02": 0.0,
			"0.021": 0.0,
			"0.022": 0.0,
			"0.023": 0.0,
			"0.024": 0.0,
			"0.025": 0.0
		}
	}
}
