{
	 "smiles": "CC(C)N1C(=O)CNCC1(C)C", 
	 "Tm": 359.15, 
	 "num_atms": 30, 
	 "gaussian": { 
		 "optdone": 1, 
		 "sigma_profile": "yes", 
		 "theory": "DFT", 
		 "functional": "B3LYP", 
		 "basiset": "6-31G**", 
		 "properties": { 
			 "R2extent": 2401.9243, 
			 "electric_dipole_moment_norm": 3.57890833356, 
			 "electric_quadrupole_moment_norm": 11.3157063898, 
			 "total_energy": -538.544400263, 
			 "HOMO_LUMO_gap": 0.25741, 
			 "cosmo_polarized_energy": -11.06, 
			 "cosmo_cavitation_energy": 28.63, 
			 "cosmo_dispersion_energy": -20.65, 
			 "cosmo_repulsion_energy": 1.61, 
			 "cosmo_total_nonelectrostatic_energy": 9.59, 
			 "SMD_solvation_energy": 3.74 
		},
		"coords": [
			{
				"x": -2.0329843911,
				"y": 1.1156788124,
				"z": -0.3143503496,
				"element": "C" 
			},
			{
				"x": -0.9990188343,
				"y": -0.0094513778,
				"z": -0.4444312054,
				"element": "C" 
			},
			{
				"x": -0.1113060859,
				"y": 0.1468190978,
				"z": -1.6911203131,
				"element": "C" 
			},
			{
				"x": -0.2151384759,
				"y": -0.3104708031,
				"z": 0.7903712346,
				"element": "N" 
			},
			{
				"x": -0.1593718584,
				"y": -1.6546394887,
				"z": 1.1024262548,
				"element": "C" 
			},
			{
				"x": -0.6767485785,
				"y": -2.5273469941,
				"z": 0.4064110426,
				"element": "O" 
			},
			{
				"x": 0.617772991,
				"y": -2.1171296834,
				"z": 2.33274214,
				"element": "C" 
			},
			{
				"x": 0.9718347656,
				"y": -1.0417201736,
				"z": 3.2433429652,
				"element": "N" 
			},
			{
				"x": 1.5415469924,
				"y": 0.0562160009,
				"z": 2.4838145807,
				"element": "C" 
			},
			{
				"x": 0.4395467423,
				"y": 0.7355724709,
				"z": 1.6428375979,
				"element": "C" 
			},
			{
				"x": -0.5786027528,
				"y": 1.3860764498,
				"z": 2.6042891255,
				"element": "C" 
			},
			{
				"x": 1.1378534355,
				"y": 1.8123429706,
				"z": 0.7930277894,
				"element": "C" 
			},
			{
				"x": -1.5949745112,
				"y": 2.1119596228,
				"z": -0.2071790799,
				"element": "H" 
			},
			{
				"x": -2.7092521779,
				"y": 0.940879392,
				"z": 0.5266994752,
				"element": "H" 
			},
			{
				"x": -2.6383027197,
				"y": 1.1293527415,
				"z": -1.2270463496,
				"element": "H" 
			},
			{
				"x": -1.5614131446,
				"y": -0.9318884218,
				"z": -0.5944392618,
				"element": "H" 
			},
			{
				"x": -0.7393219092,
				"y": 0.1209422407,
				"z": -2.588592162,
				"element": "H" 
			},
			{
				"x": 0.5967473284,
				"y": -0.6838219033,
				"z": -1.7572296196,
				"element": "H" 
			},
			{
				"x": 0.4483489097,
				"y": 1.0852835317,
				"z": -1.7081640666,
				"element": "H" 
			},
			{
				"x": -0.0139958753,
				"y": -2.8572701025,
				"z": 2.8317085955,
				"element": "H" 
			},
			{
				"x": 1.4930547477,
				"y": -2.6612404867,
				"z": 1.9301820702,
				"element": "H" 
			},
			{
				"x": 1.620045939,
				"y": -1.3728127304,
				"z": 3.9514813848,
				"element": "H" 
			},
			{
				"x": 1.9531868606,
				"y": 0.8012770081,
				"z": 3.1715487987,
				"element": "H" 
			},
			{
				"x": 2.3599294555,
				"y": -0.2626799313,
				"z": 1.8088856318,
				"element": "H" 
			},
			{
				"x": -1.3734107273,
				"y": 1.905618493,
				"z": 2.0691425753,
				"element": "H" 
			},
			{
				"x": -0.0717013889,
				"y": 2.1198309084,
				"z": 3.241224495,
				"element": "H" 
			},
			{
				"x": -1.0192362925,
				"y": 0.6243044103,
				"z": 3.2500248636,
				"element": "H" 
			},
			{
				"x": 1.6586361655,
				"y": 2.5062828315,
				"z": 1.4611790526,
				"element": "H" 
			},
			{
				"x": 0.4380938067,
				"y": 2.4014898932,
				"z": 0.1991098444,
				"element": "H" 
			},
			{
				"x": 1.8781815837,
				"y": 1.370845221,
				"z": 0.1204028898,
				"element": "H" 
			}
		],
		 "valence_orbital": [ 
			{
				"type": "occ",
				"energy": -0.33154,
				"method": "rhf"
			},
			{
				"type": "occ",
				"energy": -0.31702,
				"method": "rhf"
			},
			{
				"type": "occ",
				"energy": -0.23914,
				"method": "rhf"
			},
			{
				"type": "occ",
				"energy": -0.23461,
				"method": "rhf"
			},
			{
				"type": "occ",
				"energy": -0.22321,
				"method": "rhf"
			},
			{
				"type": "unocc",
				"energy": 0.0342,
				"method": "rhf"
			},
			{
				"type": "unocc",
				"energy": 0.07119,
				"method": "rhf"
			},
			{
				"type": "unocc",
				"energy": 0.08189,
				"method": "rhf"
			},
			{
				"type": "unocc",
				"energy": 0.10727,
				"method": "rhf"
			},
			{
				"type": "unocc",
				"energy": 0.11981,
				"method": "rhf"
			}
		],
		"cosmo_sigma_profile": { 
			"-0.025": 0.0,
			"-0.024": 0.0,
			"-0.023": 0.0,
			"-0.022": 0.0,
			"-0.021": 0.0,
			"-0.02": 0.0,
			"-0.019": 0.0,
			"-0.018": 0.0,
			"-0.017": 0.0,
			"-0.016": 0.0,
			"-0.015": 0.0,
			"-0.014": 0.0,
			"-0.013": 0.0,
			"-0.012": 0.0162691805962,
			"-0.011": 1.01309290955,
			"-0.01": 1.55461578163,
			"-0.009": 0.823379892799,
			"-0.008": 1.74089053141,
			"-0.007": 1.35209098346,
			"-0.006": 1.73397308367,
			"-0.005": 7.40880349818,
			"-0.004": 18.5430191306,
			"-0.003": 32.3753906527,
			"-0.002": 31.1556785959,
			"-0.001": 26.8605494769,
			"0.0": 26.6245405754,
			"0.001": 25.4320516552,
			"0.002": 9.49753909676,
			"0.003": 2.95304182824,
			"0.004": 2.53340614378,
			"0.005": 2.97686136549,
			"0.006": 2.98443383075,
			"0.007": 1.81478379626,
			"0.008": 2.27202451053,
			"0.009": 1.86421204195,
			"0.01": 2.28771126855,
			"0.011": 2.40787286638,
			"0.012": 2.0551903308,
			"0.013": 2.10169972132,
			"0.014": 5.0157154659,
			"0.015": 3.04142651933,
			"0.016": 0.253578021021,
			"0.017": 0.0,
			"0.018": 0.0,
			"0.019": 0.0,
			"0.02": 0.0,
			"0.021": 0.0,
			"0.022": 0.0,
			"0.023": 0.0,
			"0.024": 0.0,
			"0.025": 0.0
		}
	}
}
