{
	 "smiles": "FC(F)(F)C1=NC2=CC=CC=C2N1", 
	 "Tm": 483.15, 
	 "num_atms": 18, 
	 "gaussian": { 
		 "optdone": 1, 
		 "sigma_profile": "yes", 
		 "theory": "DFT", 
		 "functional": "B3LYP", 
		 "basiset": "6-31G**", 
		 "properties": { 
			 "R2extent": 2736.4518, 
			 "electric_dipole_moment_norm": 3.640437552, 
			 "electric_quadrupole_moment_norm": 7.04045500163, 
			 "total_energy": -716.898430005, 
			 "HOMO_LUMO_gap": 0.20183, 
			 "cosmo_polarized_energy": -10.53, 
			 "cosmo_cavitation_energy": 24.12, 
			 "cosmo_dispersion_energy": -17.7, 
			 "cosmo_repulsion_energy": 1.33, 
			 "cosmo_total_nonelectrostatic_energy": 7.75, 
			 "SMD_solvation_energy": 3.03 
		},
		"coords": [
			{
				"x": 0.5683400102,
				"y": -0.9135391074,
				"z": -3.365801108,
				"element": "F" 
			},
			{
				"x": -0.1034904553,
				"y": -1.2685320885,
				"z": -2.2390269244,
				"element": "C" 
			},
			{
				"x": 0.2388772247,
				"y": -2.5311369053,
				"z": -1.9387429315,
				"element": "F" 
			},
			{
				"x": -1.4151944252,
				"y": -1.2564016159,
				"z": -2.5233787314,
				"element": "F" 
			},
			{
				"x": 0.2393174147,
				"y": -0.3151887018,
				"z": -1.1301717316,
				"element": "C" 
			},
			{
				"x": -0.2373241802,
				"y": -0.3772411074,
				"z": 0.0840635194,
				"element": "N" 
			},
			{
				"x": 0.3538449864,
				"y": 0.6912962869,
				"z": 0.7411151317,
				"element": "C" 
			},
			{
				"x": 0.211094426,
				"y": 1.115231154,
				"z": 2.0700926091,
				"element": "C" 
			},
			{
				"x": 0.9286889494,
				"y": 2.2328281037,
				"z": 2.4761962305,
				"element": "C" 
			},
			{
				"x": 1.7776037544,
				"y": 2.9269661202,
				"z": 1.5867348623,
				"element": "C" 
			},
			{
				"x": 1.9358441047,
				"y": 2.5262286339,
				"z": 0.2644725399,
				"element": "C" 
			},
			{
				"x": 1.2109905272,
				"y": 1.4008745172,
				"z": -0.1379506714,
				"element": "C" 
			},
			{
				"x": 1.1145154506,
				"y": 0.7247348361,
				"z": -1.3396894629,
				"element": "N" 
			},
			{
				"x": -0.4431742415,
				"y": 0.5764165887,
				"z": 2.7472538102,
				"element": "H" 
			},
			{
				"x": 0.8386613648,
				"y": 2.5849797544,
				"z": 3.4993078103,
				"element": "H" 
			},
			{
				"x": 2.3209199109,
				"y": 3.7963085383,
				"z": 1.9446942057,
				"element": "H" 
			},
			{
				"x": 2.5897195033,
				"y": 3.063229531,
				"z": -0.4156401443,
				"element": "H" 
			},
			{
				"x": 1.5808656748,
				"y": 0.9313454618,
				"z": -2.2094290134,
				"element": "H" 
			}
		],
		 "valence_orbital": [ 
			{
				"type": "occ",
				"energy": -0.35167,
				"method": "rhf"
			},
			{
				"type": "occ",
				"energy": -0.32075,
				"method": "rhf"
			},
			{
				"type": "occ",
				"energy": -0.28962,
				"method": "rhf"
			},
			{
				"type": "occ",
				"energy": -0.24269,
				"method": "rhf"
			},
			{
				"type": "occ",
				"energy": -0.23846,
				"method": "rhf"
			},
			{
				"type": "unocc",
				"energy": -0.03663,
				"method": "rhf"
			},
			{
				"type": "unocc",
				"energy": 0.00953,
				"method": "rhf"
			},
			{
				"type": "unocc",
				"energy": 0.03052,
				"method": "rhf"
			},
			{
				"type": "unocc",
				"energy": 0.07282,
				"method": "rhf"
			},
			{
				"type": "unocc",
				"energy": 0.09273,
				"method": "rhf"
			}
		],
		"cosmo_sigma_profile": { 
			"-0.025": 0.0,
			"-0.024": 0.0,
			"-0.023": 0.0,
			"-0.022": 0.0,
			"-0.021": 0.0,
			"-0.02": 0.0,
			"-0.019": 0.0,
			"-0.018": 0.0361982484483,
			"-0.017": 0.947942088019,
			"-0.016": 1.12833504735,
			"-0.015": 1.06499627424,
			"-0.014": 1.17298989155,
			"-0.013": 0.672304177917,
			"-0.012": 1.25957549091,
			"-0.011": 1.26054185678,
			"-0.01": 1.1241416182,
			"-0.009": 1.52628122607,
			"-0.008": 1.62603167129,
			"-0.007": 3.71949186854,
			"-0.006": 9.24959907231,
			"-0.005": 10.0058041338,
			"-0.004": 10.5448305602,
			"-0.003": 9.61872470402,
			"-0.002": 8.91029206842,
			"-0.001": 10.2187056271,
			"0.0": 12.6573650605,
			"0.001": 17.0366930765,
			"0.002": 35.9718049103,
			"0.003": 19.1296952452,
			"0.004": 13.0705983179,
			"0.005": 10.3280115891,
			"0.006": 2.56046569407,
			"0.007": 1.62652255577,
			"0.008": 1.08524302323,
			"0.009": 1.25489808883,
			"0.01": 1.00466370397,
			"0.011": 0.994330429352,
			"0.012": 0.863864800853,
			"0.013": 0.932150943169,
			"0.014": 0.814786114738,
			"0.015": 0.89724137531,
			"0.016": 0.286306367836,
			"0.017": 0.0,
			"0.018": 0.0,
			"0.019": 0.0,
			"0.02": 0.0,
			"0.021": 0.0,
			"0.022": 0.0,
			"0.023": 0.0,
			"0.024": 0.0,
			"0.025": 0.0
		}
	}
}
