{
	 "smiles": "CCOC(=O)C1=CC=C(N)C=C1", 
	 "Tm": 363.15, 
	 "num_atms": 23, 
	 "gaussian": { 
		 "optdone": 1, 
		 "sigma_profile": "yes", 
		 "theory": "DFT", 
		 "functional": "B3LYP", 
		 "basiset": "6-31G**", 
		 "properties": { 
			 "R2extent": 3154.738, 
			 "electric_dipole_moment_norm": 3.5368293852, 
			 "electric_quadrupole_moment_norm": 19.0948944553, 
			 "total_energy": -554.813253697, 
			 "HOMO_LUMO_gap": 0.18461, 
			 "cosmo_polarized_energy": -12.78, 
			 "cosmo_cavitation_energy": 27.02, 
			 "cosmo_dispersion_energy": -19.87, 
			 "cosmo_repulsion_energy": 1.61, 
			 "cosmo_total_nonelectrostatic_energy": 8.75, 
			 "SMD_solvation_energy": 5.72 
		},
		"coords": [
			{
				"x": 0.4417390764,
				"y": -4.002524356,
				"z": -0.740105439,
				"element": "C" 
			},
			{
				"x": 1.7738622342,
				"y": -3.3011336043,
				"z": -0.5167351302,
				"element": "C" 
			},
			{
				"x": 1.6436601342,
				"y": -1.8682214829,
				"z": -0.6429497215,
				"element": "O" 
			},
			{
				"x": 1.2450329262,
				"y": -1.1987835227,
				"z": 0.4701389427,
				"element": "C" 
			},
			{
				"x": 1.0095755072,
				"y": -1.7519446204,
				"z": 1.5306758243,
				"element": "O" 
			},
			{
				"x": 1.1374969562,
				"y": 0.2601563045,
				"z": 0.2431746413,
				"element": "C" 
			},
			{
				"x": 1.4130671346,
				"y": 0.8641634474,
				"z": -0.9937454295,
				"element": "C" 
			},
			{
				"x": 1.2937610747,
				"y": 2.2373666064,
				"z": -1.1542639354,
				"element": "C" 
			},
			{
				"x": 0.8942064516,
				"y": 3.0531165613,
				"z": -0.0771717898,
				"element": "C" 
			},
			{
				"x": 0.8236884464,
				"y": 4.4302164323,
				"z": -0.2211409442,
				"element": "N" 
			},
			{
				"x": 0.618606147,
				"y": 2.4453691014,
				"z": 1.1643021339,
				"element": "C" 
			},
			{
				"x": 0.7394992456,
				"y": 1.0729676312,
				"z": 1.31618947,
				"element": "C" 
			},
			{
				"x": -0.268418473,
				"y": -3.7308497016,
				"z": 0.044483724,
				"element": "H" 
			},
			{
				"x": 0.0172510328,
				"y": -3.732791683,
				"z": -1.7118343801,
				"element": "H" 
			},
			{
				"x": 0.5831210562,
				"y": -5.0884453813,
				"z": -0.715872484,
				"element": "H" 
			},
			{
				"x": 2.5038301125,
				"y": -3.5776332213,
				"z": -1.2819612367,
				"element": "H" 
			},
			{
				"x": 2.1776483413,
				"y": -3.5338769086,
				"z": 0.4714758774,
				"element": "H" 
			},
			{
				"x": 1.7192075129,
				"y": 0.2466931491,
				"z": -1.8305639872,
				"element": "H" 
			},
			{
				"x": 1.5130190642,
				"y": 2.693527705,
				"z": -2.1164872504,
				"element": "H" 
			},
			{
				"x": 0.2540245434,
				"y": 4.9239972165,
				"z": 0.4504971119,
				"element": "H" 
			},
			{
				"x": 0.7218046811,
				"y": 4.7799707463,
				"z": -1.162772923,
				"element": "H" 
			},
			{
				"x": 0.3127462985,
				"y": 3.0628001178,
				"z": 2.0052567117,
				"element": "H" 
			},
			{
				"x": 0.5262704959,
				"y": 0.600459463,
				"z": 2.2693102137,
				"element": "H" 
			}
		],
		 "valence_orbital": [ 
			{
				"type": "occ",
				"energy": -0.3098,
				"method": "rhf"
			},
			{
				"type": "occ",
				"energy": -0.28526,
				"method": "rhf"
			},
			{
				"type": "occ",
				"energy": -0.25921,
				"method": "rhf"
			},
			{
				"type": "occ",
				"energy": -0.25221,
				"method": "rhf"
			},
			{
				"type": "occ",
				"energy": -0.20984,
				"method": "rhf"
			},
			{
				"type": "unocc",
				"energy": -0.02523,
				"method": "rhf"
			},
			{
				"type": "unocc",
				"energy": -5e-05,
				"method": "rhf"
			},
			{
				"type": "unocc",
				"energy": 0.0676,
				"method": "rhf"
			},
			{
				"type": "unocc",
				"energy": 0.08214,
				"method": "rhf"
			},
			{
				"type": "unocc",
				"energy": 0.10755,
				"method": "rhf"
			}
		],
		"cosmo_sigma_profile": { 
			"-0.025": 0.0,
			"-0.024": 0.0,
			"-0.023": 0.0,
			"-0.022": 0.0,
			"-0.021": 0.0,
			"-0.02": 0.0,
			"-0.019": 0.0,
			"-0.018": 0.0,
			"-0.017": 0.0,
			"-0.016": 0.0,
			"-0.015": 0.0,
			"-0.014": 0.141453092913,
			"-0.013": 2.01427005066,
			"-0.012": 3.03387634582,
			"-0.011": 2.9972532764,
			"-0.01": 3.1398324584,
			"-0.009": 3.07933249424,
			"-0.008": 2.61458831921,
			"-0.007": 3.18949253268,
			"-0.006": 6.38361535029,
			"-0.005": 9.22464574207,
			"-0.004": 16.2250525007,
			"-0.003": 17.6557240535,
			"-0.002": 16.6025939525,
			"-0.001": 15.6416204576,
			"0.0": 16.3345064214,
			"0.001": 13.3732343,
			"0.002": 13.5214345267,
			"0.003": 12.4585927707,
			"0.004": 14.33959667,
			"0.005": 16.6375593636,
			"0.006": 5.36643039257,
			"0.007": 3.04028914515,
			"0.008": 3.03621502083,
			"0.009": 2.01172394374,
			"0.01": 1.90890976047,
			"0.011": 2.9087928822,
			"0.012": 3.92859596309,
			"0.013": 2.96335499167,
			"0.014": 0.0,
			"0.015": 0.0,
			"0.016": 0.0,
			"0.017": 0.0,
			"0.018": 0.0,
			"0.019": 0.0,
			"0.02": 0.0,
			"0.021": 0.0,
			"0.022": 0.0,
			"0.023": 0.0,
			"0.024": 0.0,
			"0.025": 0.0
		}
	}
}
