{
	 "smiles": "CNC1=C(N)N(CC2=CC=CC=C2)C(=O)NC1=O", 
	 "Tm": 493.15, 
	 "num_atms": 32, 
	 "gaussian": { 
		 "optdone": 1, 
		 "sigma_profile": "yes", 
		 "theory": "DFT", 
		 "functional": "B3LYP", 
		 "basiset": "6-31G**", 
		 "properties": { 
			 "R2extent": 5297.4628, 
			 "electric_dipole_moment_norm": 4.85405409632, 
			 "electric_quadrupole_moment_norm": 12.3765935297, 
			 "total_energy": -835.211007661, 
			 "HOMO_LUMO_gap": 0.18886, 
			 "cosmo_polarized_energy": -17.36, 
			 "cosmo_cavitation_energy": 35.18, 
			 "cosmo_dispersion_energy": -25.15, 
			 "cosmo_repulsion_energy": 1.94, 
			 "cosmo_total_nonelectrostatic_energy": 11.96, 
			 "SMD_solvation_energy": 6.58 
		},
		"coords": [
			{
				"x": 3.0128461922,
				"y": -2.5258639416,
				"z": -2.9123430768,
				"element": "C" 
			},
			{
				"x": 1.591294469,
				"y": -2.3256382127,
				"z": -2.5687799211,
				"element": "N" 
			},
			{
				"x": 1.3470209755,
				"y": -2.2307947066,
				"z": -1.1653552368,
				"element": "C" 
			},
			{
				"x": 1.0764092087,
				"y": -0.9935088118,
				"z": -0.6245776762,
				"element": "C" 
			},
			{
				"x": 1.0951842663,
				"y": 0.1333667962,
				"z": -1.4100083736,
				"element": "N" 
			},
			{
				"x": 0.8349206382,
				"y": -0.8277660401,
				"z": 0.7336741258,
				"element": "N" 
			},
			{
				"x": 0.7142835788,
				"y": 0.5146460334,
				"z": 1.3324895539,
				"element": "C" 
			},
			{
				"x": -0.6374633304,
				"y": 1.1727501465,
				"z": 1.120002697,
				"element": "C" 
			},
			{
				"x": -1.8119126395,
				"y": 0.5386385307,
				"z": 1.551739055,
				"element": "C" 
			},
			{
				"x": -3.0497660536,
				"y": 1.1523612115,
				"z": 1.3705113712,
				"element": "C" 
			},
			{
				"x": -3.132923689,
				"y": 2.4085638187,
				"z": 0.7615216143,
				"element": "C" 
			},
			{
				"x": -1.9699590911,
				"y": 3.0506350915,
				"z": 0.3387010893,
				"element": "C" 
			},
			{
				"x": -0.7281295077,
				"y": 2.4336217364,
				"z": 0.5175814591,
				"element": "C" 
			},
			{
				"x": 0.7687455424,
				"y": -1.9250914118,
				"z": 1.6071507048,
				"element": "C" 
			},
			{
				"x": 0.5064142532,
				"y": -1.7997450782,
				"z": 2.7964349587,
				"element": "O" 
			},
			{
				"x": 1.0232242498,
				"y": -3.1419743429,
				"z": 1.0196388547,
				"element": "N" 
			},
			{
				"x": 1.3286136274,
				"y": -3.406696716,
				"z": -0.3349268547,
				"element": "C" 
			},
			{
				"x": 1.5110248206,
				"y": -4.5613240362,
				"z": -0.7109014469,
				"element": "O" 
			},
			{
				"x": 3.5874393433,
				"y": -1.6516436347,
				"z": -2.5921238204,
				"element": "H" 
			},
			{
				"x": 3.1068286313,
				"y": -2.6139800295,
				"z": -3.9993596873,
				"element": "H" 
			},
			{
				"x": 3.4446264364,
				"y": -3.4206178283,
				"z": -2.4454025267,
				"element": "H" 
			},
			{
				"x": 1.066241559,
				"y": -3.1198387842,
				"z": -2.928589465,
				"element": "H" 
			},
			{
				"x": 1.1216506061,
				"y": -0.1389818781,
				"z": -2.3900817207,
				"element": "H" 
			},
			{
				"x": 0.4083929613,
				"y": 0.8443944147,
				"z": -1.1905417068,
				"element": "H" 
			},
			{
				"x": 0.8975056784,
				"y": 0.3697708446,
				"z": 2.3984186329,
				"element": "H" 
			},
			{
				"x": 1.5124331543,
				"y": 1.1387482681,
				"z": 0.9214548109,
				"element": "H" 
			},
			{
				"x": -1.7442325862,
				"y": -0.4282729267,
				"z": 2.0417859956,
				"element": "H" 
			},
			{
				"x": -3.9526878477,
				"y": 0.6531934432,
				"z": 1.7102663522,
				"element": "H" 
			},
			{
				"x": -4.09957745,
				"y": 2.8837612285,
				"z": 0.6226179505,
				"element": "H" 
			},
			{
				"x": -2.0245783288,
				"y": 4.0293111652,
				"z": -0.1292883943,
				"element": "H" 
			},
			{
				"x": 0.1786979933,
				"y": 2.9432418337,
				"z": 0.1973205647,
				"element": "H" 
			},
			{
				"x": 0.9728323384,
				"y": -3.9429661835,
				"z": 1.6367701168,
				"element": "H" 
			}
		],
		 "valence_orbital": [ 
			{
				"type": "occ",
				"energy": -0.2648,
				"method": "rhf"
			},
			{
				"type": "occ",
				"energy": -0.26062,
				"method": "rhf"
			},
			{
				"type": "occ",
				"energy": -0.25563,
				"method": "rhf"
			},
			{
				"type": "occ",
				"energy": -0.2435,
				"method": "rhf"
			},
			{
				"type": "occ",
				"energy": -0.20917,
				"method": "rhf"
			},
			{
				"type": "unocc",
				"energy": -0.02031,
				"method": "rhf"
			},
			{
				"type": "unocc",
				"energy": -0.01755,
				"method": "rhf"
			},
			{
				"type": "unocc",
				"energy": -0.01025,
				"method": "rhf"
			},
			{
				"type": "unocc",
				"energy": 0.01948,
				"method": "rhf"
			},
			{
				"type": "unocc",
				"energy": 0.07951,
				"method": "rhf"
			}
		],
		"cosmo_sigma_profile": { 
			"-0.025": 0.0,
			"-0.024": 0.0,
			"-0.023": 0.0,
			"-0.022": 0.0,
			"-0.021": 0.0,
			"-0.02": 0.0,
			"-0.019": 0.0,
			"-0.018": 0.0,
			"-0.017": 0.0,
			"-0.016": 0.0631715015599,
			"-0.015": 0.869807437573,
			"-0.014": 0.924941025691,
			"-0.013": 0.914383636705,
			"-0.012": 0.695756351874,
			"-0.011": 1.23420459704,
			"-0.01": 3.51392834834,
			"-0.009": 3.73643049994,
			"-0.008": 5.42252038995,
			"-0.007": 5.4829852525,
			"-0.006": 12.8801168992,
			"-0.005": 15.7969351329,
			"-0.004": 24.7087430151,
			"-0.003": 24.9371126542,
			"-0.002": 21.6775194385,
			"-0.001": 25.8062841403,
			"0.0": 22.3747549338,
			"0.001": 16.8829733077,
			"0.002": 13.4115291008,
			"0.003": 12.6782615314,
			"0.004": 12.7682062404,
			"0.005": 12.3212748867,
			"0.006": 5.31565398692,
			"0.007": 3.72858555038,
			"0.008": 3.58116863951,
			"0.009": 3.24792626159,
			"0.01": 3.11454374354,
			"0.011": 3.86602594328,
			"0.012": 5.2899239734,
			"0.013": 6.14023321748,
			"0.014": 5.30691925513,
			"0.015": 0.500011655516,
			"0.016": 0.0,
			"0.017": 0.0,
			"0.018": 0.0,
			"0.019": 0.0,
			"0.02": 0.0,
			"0.021": 0.0,
			"0.022": 0.0,
			"0.023": 0.0,
			"0.024": 0.0,
			"0.025": 0.0
		}
	}
}
