{
	 "smiles": "CC(C)CC1=CC=C(CCC(O)=O)C=C1", 
	 "Tm": 338.15, 
	 "num_atms": 33, 
	 "gaussian": { 
		 "optdone": 1, 
		 "sigma_profile": "yes", 
		 "theory": "DFT", 
		 "functional": "B3LYP", 
		 "basiset": "6-31G**", 
		 "properties": { 
			 "R2extent": 4824.2332, 
			 "electric_dipole_moment_norm": 5.33923971554, 
			 "electric_quadrupole_moment_norm": 27.4016861939, 
			 "total_energy": -656.714459154, 
			 "HOMO_LUMO_gap": 0.22795, 
			 "cosmo_polarized_energy": -12.52, 
			 "cosmo_cavitation_energy": 35.16, 
			 "cosmo_dispersion_energy": -24.08, 
			 "cosmo_repulsion_energy": 1.9, 
			 "cosmo_total_nonelectrostatic_energy": 12.98, 
			 "SMD_solvation_energy": 6.65 
		},
		"coords": [
			{
				"x": 2.9046965372,
				"y": -1.6869880026,
				"z": 1.2763428734,
				"element": "C" 
			},
			{
				"x": 1.7277103263,
				"y": -1.9579442774,
				"z": 2.2228217224,
				"element": "C" 
			},
			{
				"x": 2.1778506915,
				"y": -2.7791810837,
				"z": 3.439263134,
				"element": "C" 
			},
			{
				"x": 1.0388189469,
				"y": -0.6482659295,
				"z": 2.6851234104,
				"element": "C" 
			},
			{
				"x": 0.3865797943,
				"y": 0.1462741117,
				"z": 1.5746281664,
				"element": "C" 
			},
			{
				"x": -0.8326756234,
				"y": -0.2724336455,
				"z": 1.0165899415,
				"element": "C" 
			},
			{
				"x": -1.4373601029,
				"y": 0.43939476,
				"z": -0.0151568053,
				"element": "C" 
			},
			{
				"x": -0.8489707805,
				"y": 1.6060439221,
				"z": -0.5333444544,
				"element": "C" 
			},
			{
				"x": -1.5185832906,
				"y": 2.3811092486,
				"z": -1.653776292,
				"element": "C" 
			},
			{
				"x": -1.546662609,
				"y": 1.665652141,
				"z": -3.0279776669,
				"element": "C" 
			},
			{
				"x": -0.2112214338,
				"y": 1.5794559408,
				"z": -3.7638993559,
				"element": "C" 
			},
			{
				"x": 0.845569308,
				"y": 1.1103120175,
				"z": -3.0545887716,
				"element": "O" 
			},
			{
				"x": -0.0759738161,
				"y": 1.8834659197,
				"z": -4.9238546362,
				"element": "O" 
			},
			{
				"x": 0.3658530076,
				"y": 2.0272991396,
				"z": 0.0255114018,
				"element": "C" 
			},
			{
				"x": 0.9710698971,
				"y": 1.3088669273,
				"z": 1.0607816572,
				"element": "C" 
			},
			{
				"x": 3.354838404,
				"y": -2.6247891145,
				"z": 0.9342475189,
				"element": "H" 
			},
			{
				"x": 3.6879358915,
				"y": -1.1097113212,
				"z": 1.7835235423,
				"element": "H" 
			},
			{
				"x": 2.5937922421,
				"y": -1.1227379507,
				"z": 0.392144453,
				"element": "H" 
			},
			{
				"x": 0.9787388214,
				"y": -2.5467297242,
				"z": 1.6734188464,
				"element": "H" 
			},
			{
				"x": 1.3356819501,
				"y": -3.0166719223,
				"z": 4.0985897097,
				"element": "H" 
			},
			{
				"x": 2.9193973173,
				"y": -2.2285696388,
				"z": 4.0309510352,
				"element": "H" 
			},
			{
				"x": 2.6380102917,
				"y": -3.723280642,
				"z": 3.1291164051,
				"element": "H" 
			},
			{
				"x": 1.7803910036,
				"y": -0.0222938583,
				"z": 3.198057415,
				"element": "H" 
			},
			{
				"x": 0.2784792923,
				"y": -0.9048309572,
				"z": 3.4341309639,
				"element": "H" 
			},
			{
				"x": -1.318228128,
				"y": -1.1646818989,
				"z": 1.4049053278,
				"element": "H" 
			},
			{
				"x": -2.3880433122,
				"y": 0.0950061964,
				"z": -0.4162739625,
				"element": "H" 
			},
			{
				"x": -1.0377824334,
				"y": 3.3591940762,
				"z": -1.7646817342,
				"element": "H" 
			},
			{
				"x": -2.5591604887,
				"y": 2.5811602614,
				"z": -1.3722297577,
				"element": "H" 
			},
			{
				"x": -1.928834709,
				"y": 0.6441530373,
				"z": -2.8995176461,
				"element": "H" 
			},
			{
				"x": -2.2294992476,
				"y": 2.1825080821,
				"z": -3.7051746359,
				"element": "H" 
			},
			{
				"x": 0.5943408711,
				"y": 0.9397904752,
				"z": -2.1316066769,
				"element": "H" 
			},
			{
				"x": 0.8409277066,
				"y": 2.931258641,
				"z": -0.347769721,
				"element": "H" 
			},
			{
				"x": 1.9099136748,
				"y": 1.6643650691,
				"z": 1.4774045922,
				"element": "H" 
			}
		],
		 "valence_orbital": [ 
			{
				"type": "occ",
				"energy": -0.32718,
				"method": "rhf"
			},
			{
				"type": "occ",
				"energy": -0.30292,
				"method": "rhf"
			},
			{
				"type": "occ",
				"energy": -0.26602,
				"method": "rhf"
			},
			{
				"type": "occ",
				"energy": -0.25919,
				"method": "rhf"
			},
			{
				"type": "occ",
				"energy": -0.24856,
				"method": "rhf"
			},
			{
				"type": "unocc",
				"energy": -0.02061,
				"method": "rhf"
			},
			{
				"type": "unocc",
				"energy": -0.01859,
				"method": "rhf"
			},
			{
				"type": "unocc",
				"energy": 0.01894,
				"method": "rhf"
			},
			{
				"type": "unocc",
				"energy": 0.07948,
				"method": "rhf"
			},
			{
				"type": "unocc",
				"energy": 0.08714,
				"method": "rhf"
			}
		],
		"cosmo_sigma_profile": { 
			"-0.025": 0.0,
			"-0.024": 0.0,
			"-0.023": 0.0,
			"-0.022": 0.0,
			"-0.021": 0.0,
			"-0.02": 0.0,
			"-0.019": 0.0,
			"-0.018": 0.0,
			"-0.017": 0.0,
			"-0.016": 0.0,
			"-0.015": 0.0,
			"-0.014": 0.0,
			"-0.013": 0.0,
			"-0.012": 0.0,
			"-0.011": 0.0,
			"-0.01": 0.0802571722478,
			"-0.009": 0.97201768727,
			"-0.008": 1.8032297035,
			"-0.007": 2.31740416889,
			"-0.006": 11.1573452362,
			"-0.005": 20.6180634513,
			"-0.004": 20.1093103677,
			"-0.003": 26.9351137253,
			"-0.002": 34.6853688048,
			"-0.001": 29.3429995214,
			"0.0": 26.1778789998,
			"0.001": 28.4114601909,
			"0.002": 18.18321637,
			"0.003": 8.27495613944,
			"0.004": 7.52631779712,
			"0.005": 7.37251616731,
			"0.006": 3.53343490805,
			"0.007": 1.54546748815,
			"0.008": 2.98010064396,
			"0.009": 2.94880016479,
			"0.01": 3.51737329613,
			"0.011": 6.07513091664,
			"0.012": 5.99739331996,
			"0.013": 3.7227540113,
			"0.014": 0.514601640858,
			"0.015": 0.0,
			"0.016": 0.0,
			"0.017": 0.0,
			"0.018": 0.0,
			"0.019": 0.0,
			"0.02": 0.0,
			"0.021": 0.0,
			"0.022": 0.0,
			"0.023": 0.0,
			"0.024": 0.0,
			"0.025": 0.0
		}
	}
}
