{
	 "smiles": "NS(=O)(=O)CCOC1=CC=CC=C1", 
	 "Tm": 376.15, 
	 "num_atms": 24, 
	 "gaussian": { 
		 "optdone": 1, 
		 "sigma_profile": "yes", 
		 "theory": "DFT", 
		 "functional": "B3LYP", 
		 "basiset": "6-31G**", 
		 "properties": { 
			 "R2extent": 4271.6496, 
			 "electric_dipole_moment_norm": 3.27885258742, 
			 "electric_quadrupole_moment_norm": 22.9957950241, 
			 "total_energy": -990.015946977, 
			 "HOMO_LUMO_gap": 0.21868, 
			 "cosmo_polarized_energy": -16.81, 
			 "cosmo_cavitation_energy": 29.14, 
			 "cosmo_dispersion_energy": -21.74, 
			 "cosmo_repulsion_energy": 1.69, 
			 "cosmo_total_nonelectrostatic_energy": 9.1, 
			 "SMD_solvation_energy": 4.62 
		},
		"coords": [
			{
				"x": 2.7760660477,
				"y": 0.6105495219,
				"z": 2.9437916983,
				"element": "N" 
			},
			{
				"x": 1.300013007,
				"y": 1.1924395788,
				"z": 3.5598652453,
				"element": "S" 
			},
			{
				"x": 0.8462864206,
				"y": 0.2174271336,
				"z": 4.556860454,
				"element": "O" 
			},
			{
				"x": 1.4594007804,
				"y": 2.6133343269,
				"z": 3.8772958167,
				"element": "O" 
			},
			{
				"x": 0.2242564429,
				"y": 1.0665018132,
				"z": 2.1160906635,
				"element": "C" 
			},
			{
				"x": -0.0387256018,
				"y": -0.3847648307,
				"z": 1.697967325,
				"element": "C" 
			},
			{
				"x": -0.8352850036,
				"y": -0.4314461627,
				"z": 0.52271111,
				"element": "O" 
			},
			{
				"x": -0.245645348,
				"y": -0.2387189764,
				"z": -0.7027608819,
				"element": "C" 
			},
			{
				"x": 1.1237199242,
				"y": -0.0362431085,
				"z": -0.9136831751,
				"element": "C" 
			},
			{
				"x": 1.5977458367,
				"y": 0.1306819345,
				"z": -2.2196612165,
				"element": "C" 
			},
			{
				"x": 0.7296723681,
				"y": 0.1015197224,
				"z": -3.3083373487,
				"element": "C" 
			},
			{
				"x": -0.6369941234,
				"y": -0.098531769,
				"z": -3.0856170211,
				"element": "C" 
			},
			{
				"x": -1.1251058681,
				"y": -0.2666221785,
				"z": -1.7944328603,
				"element": "C" 
			},
			{
				"x": 3.1106379657,
				"y": -0.1317048468,
				"z": 3.5537934497,
				"element": "H" 
			},
			{
				"x": 3.4482808642,
				"y": 1.3732878142,
				"z": 2.9043128019,
				"element": "H" 
			},
			{
				"x": -0.7047137771,
				"y": 1.5666020595,
				"z": 2.4030396972,
				"element": "H" 
			},
			{
				"x": 0.7006198138,
				"y": 1.6446352573,
				"z": 1.3212805032,
				"element": "H" 
			},
			{
				"x": -0.6190319503,
				"y": -0.8907249934,
				"z": 2.471160696,
				"element": "H" 
			},
			{
				"x": 0.9011184858,
				"y": -0.9310694646,
				"z": 1.5639741471,
				"element": "H" 
			},
			{
				"x": 1.8252481562,
				"y": -0.0073430469,
				"z": -0.0875628817,
				"element": "H" 
			},
			{
				"x": 2.6615088247,
				"y": 0.2867135615,
				"z": -2.3760495173,
				"element": "H" 
			},
			{
				"x": 1.108581048,
				"y": 0.2337191036,
				"z": -4.316872748,
				"element": "H" 
			},
			{
				"x": -1.3278108564,
				"y": -0.1243691442,
				"z": -3.9235771441,
				"element": "H" 
			},
			{
				"x": -2.1813434573,
				"y": -0.4252733059,
				"z": -1.6029888135,
				"element": "H" 
			}
		],
		 "valence_orbital": [ 
			{
				"type": "occ",
				"energy": -0.31972,
				"method": "rhf"
			},
			{
				"type": "occ",
				"energy": -0.31013,
				"method": "rhf"
			},
			{
				"type": "occ",
				"energy": -0.30038,
				"method": "rhf"
			},
			{
				"type": "occ",
				"energy": -0.25533,
				"method": "rhf"
			},
			{
				"type": "occ",
				"energy": -0.22571,
				"method": "rhf"
			},
			{
				"type": "unocc",
				"energy": -0.00703,
				"method": "rhf"
			},
			{
				"type": "unocc",
				"energy": 0.00715,
				"method": "rhf"
			},
			{
				"type": "unocc",
				"energy": 0.04448,
				"method": "rhf"
			},
			{
				"type": "unocc",
				"energy": 0.06294,
				"method": "rhf"
			},
			{
				"type": "unocc",
				"energy": 0.07177,
				"method": "rhf"
			}
		],
		"cosmo_sigma_profile": { 
			"-0.025": 0.0,
			"-0.024": 0.0,
			"-0.023": 0.0,
			"-0.022": 0.0,
			"-0.021": 0.0,
			"-0.02": 0.0,
			"-0.019": 0.0,
			"-0.018": 0.0,
			"-0.017": 0.0,
			"-0.016": 0.0,
			"-0.015": 0.912607858694,
			"-0.014": 2.34746844125,
			"-0.013": 3.16038513545,
			"-0.012": 2.71871717948,
			"-0.011": 1.84522531093,
			"-0.01": 1.70233189872,
			"-0.009": 4.18336960039,
			"-0.008": 5.79626714378,
			"-0.007": 5.13046638102,
			"-0.006": 11.859258534,
			"-0.005": 17.5194564333,
			"-0.004": 18.10030934,
			"-0.003": 16.9039129111,
			"-0.002": 11.9977391385,
			"-0.001": 11.5472902732,
			"0.0": 9.78992256308,
			"0.001": 10.9128552286,
			"0.002": 10.4618672313,
			"0.003": 12.2285683221,
			"0.004": 12.3507671827,
			"0.005": 12.8873338079,
			"0.006": 11.1340164487,
			"0.007": 4.51361102958,
			"0.008": 3.96627104491,
			"0.009": 5.17687460337,
			"0.01": 7.29897011862,
			"0.011": 11.1912298823,
			"0.012": 3.427925716,
			"0.013": 0.0,
			"0.014": 0.0,
			"0.015": 0.0,
			"0.016": 0.0,
			"0.017": 0.0,
			"0.018": 0.0,
			"0.019": 0.0,
			"0.02": 0.0,
			"0.021": 0.0,
			"0.022": 0.0,
			"0.023": 0.0,
			"0.024": 0.0,
			"0.025": 0.0
		}
	}
}
