{
	 "smiles": "IC1=CC=C(OCC2=CC=CC=C2)C=C1", 
	 "Tm": 335.15, 
	 "num_atms": 26, 
	 "gaussian": { 
		 "optdone": 1, 
		 "sigma_profile": "no", 
		 "theory": "DFT", 
		 "functional": "B3LYP", 
		 "basiset": "6-31G**", 
		 "properties": { 
			 "R2extent": 4124.5927, 
			 "electric_dipole_moment_norm": 2.96796512951, 
			 "electric_quadrupole_moment_norm": 8.95426584595, 
			 "total_energy": -588.613223865, 
			 "HOMO_LUMO_gap": 0.18586, 
			 "cosmo_polarized_energy": -104297.99, 
			 "cosmo_cavitation_energy": 33.2, 
			 "cosmo_dispersion_energy": -25.22, 
			 "cosmo_repulsion_energy": 1.96, 
			 "cosmo_total_nonelectrostatic_energy": 9.94, 
			 "SMD_solvation_energy": 4.81 
		},
		"coords": [
			{
				"x": 4.20988455,
				"y": -2.202015227,
				"z": -3.3914088567,
				"element": "I" 
			},
			{
				"x": 2.9869799046,
				"y": -0.7768168716,
				"z": -2.4039670711,
				"element": "C" 
			},
			{
				"x": 2.4504687924,
				"y": -1.0712343782,
				"z": -1.1529062964,
				"element": "C" 
			},
			{
				"x": 1.6434119758,
				"y": -0.1358469426,
				"z": -0.4981901774,
				"element": "C" 
			},
			{
				"x": 1.3800697411,
				"y": 1.0991965572,
				"z": -1.1012951093,
				"element": "C" 
			},
			{
				"x": 0.6188436139,
				"y": 2.0935642581,
				"z": -0.5524660329,
				"element": "O" 
			},
			{
				"x": 0.155243879,
				"y": 1.9586132287,
				"z": 0.790645481,
				"element": "C" 
			},
			{
				"x": -1.0469783816,
				"y": 1.0469520737,
				"z": 0.9468621042,
				"element": "C" 
			},
			{
				"x": -1.9956426849,
				"y": 0.9298152724,
				"z": -0.0755689197,
				"element": "C" 
			},
			{
				"x": -3.124722212,
				"y": 0.1294519582,
				"z": 0.0993514757,
				"element": "C" 
			},
			{
				"x": -3.3229230212,
				"y": -0.5556223891,
				"z": 1.3002731696,
				"element": "C" 
			},
			{
				"x": -2.3821779428,
				"y": -0.4406250273,
				"z": 2.3249379683,
				"element": "C" 
			},
			{
				"x": -1.2480450174,
				"y": 0.3534071713,
				"z": 2.1459960295,
				"element": "C" 
			},
			{
				"x": 1.9209909623,
				"y": 1.3842297783,
				"z": -2.3632655263,
				"element": "C" 
			},
			{
				"x": 2.7210693631,
				"y": 0.4525484634,
				"z": -3.0153033469,
				"element": "C" 
			},
			{
				"x": 2.6466381808,
				"y": -2.0268048491,
				"z": -0.6794597316,
				"element": "H" 
			},
			{
				"x": 1.2126459804,
				"y": -0.3939875745,
				"z": 0.461222809,
				"element": "H" 
			},
			{
				"x": 0.9742259752,
				"y": 1.6355016658,
				"z": 1.4468575034,
				"element": "H" 
			},
			{
				"x": -0.1102694017,
				"y": 2.9813871312,
				"z": 1.0796504692,
				"element": "H" 
			},
			{
				"x": -1.8379286877,
				"y": 1.4606130307,
				"z": -1.0092631797,
				"element": "H" 
			},
			{
				"x": -3.8513325606,
				"y": 0.0408093968,
				"z": -0.7033193674,
				"element": "H" 
			},
			{
				"x": -4.2026785899,
				"y": -1.1781747885,
				"z": 1.4348265143,
				"element": "H" 
			},
			{
				"x": -2.525436312,
				"y": -0.9747429177,
				"z": 3.2599367662,
				"element": "H" 
			},
			{
				"x": -0.5139651335,
				"y": 0.4335995385,
				"z": 2.9450662577,
				"element": "H" 
			},
			{
				"x": 1.7072203266,
				"y": 2.3470123057,
				"z": -2.8158018064,
				"element": "H" 
			},
			{
				"x": 3.1357067002,
				"y": 0.6866691355,
				"z": -3.9894111264,
				"element": "H" 
			}
		],
		 "valence_orbital": [ 
			{
				"type": "occ",
				"energy": -0.26311,
				"method": "rhf"
			},
			{
				"type": "occ",
				"energy": -0.26232,
				"method": "rhf"
			},
			{
				"type": "occ",
				"energy": -0.25699,
				"method": "rhf"
			},
			{
				"type": "occ",
				"energy": -0.25076,
				"method": "rhf"
			},
			{
				"type": "occ",
				"energy": -0.2187,
				"method": "rhf"
			},
			{
				"type": "unocc",
				"energy": -0.03284,
				"method": "rhf"
			},
			{
				"type": "unocc",
				"energy": -0.01616,
				"method": "rhf"
			},
			{
				"type": "unocc",
				"energy": -0.01009,
				"method": "rhf"
			},
			{
				"type": "unocc",
				"energy": -0.00671,
				"method": "rhf"
			},
			{
				"type": "unocc",
				"energy": -0.0019,
				"method": "rhf"
			}
		],
		"cosmo_sigma_profile": { 
			"0.0": 0.0,
			"0.0": 0.0,
			"0.0": 0.0,
			"0.0": 0.0,
			"0.0": 0.0,
			"0.0": 0.0,
			"0.0": 0.0,
			"0.0": 0.0,
			"0.0": 0.0,
			"0.0": 0.0,
			"0.0": 0.0,
			"0.0": 0.0,
			"0.0": 0.0,
			"0.0": 0.0,
			"0.0": 0.0,
			"0.0": 0.0,
			"0.0": 0.0,
			"0.0": 0.0,
			"0.0": 0.0,
			"0.0": 0.0,
			"0.0": 0.0,
			"0.0": 0.0,
			"0.0": 0.0,
			"0.0": 0.0,
			"0.0": 0.0,
			"0.0": 0.0,
			"0.0": 0.0,
			"0.0": 0.0,
			"0.0": 0.0,
			"0.0": 0.0,
			"0.0": 0.0,
			"0.0": 0.0,
			"0.0": 0.0,
			"0.0": 0.0,
			"0.0": 0.0,
			"0.0": 0.0,
			"0.0": 0.0,
			"0.0": 0.0,
			"0.0": 0.0,
			"0.0": 0.0,
			"0.0": 0.0,
			"0.0": 0.0,
			"0.0": 0.0,
			"0.0": 0.0,
			"0.0": 0.0,
			"0.0": 0.0,
			"0.0": 0.0,
			"0.0": 0.0,
			"0.0": 0.0,
			"0.0": 0.0,
			"0.0": 0.0
		}
	}
}
