{
	 "smiles": "CC1=C2N=CC(C(O)=O)=C(O)C2=CC(Cl)=C1", 
	 "Tm": 579.15, 
	 "num_atms": 24, 
	 "gaussian": { 
		 "optdone": 1, 
		 "sigma_profile": "yes", 
		 "theory": "DFT", 
		 "functional": "B3LYP", 
		 "basiset": "6-31G**", 
		 "properties": { 
			 "R2extent": 4877.5191, 
			 "electric_dipole_moment_norm": 3.0799990487, 
			 "electric_quadrupole_moment_norm": 7.78055219955, 
			 "total_energy": -1164.64455632, 
			 "HOMO_LUMO_gap": 0.16153, 
			 "cosmo_polarized_energy": -13.67, 
			 "cosmo_cavitation_energy": 30.02, 
			 "cosmo_dispersion_energy": -22.83, 
			 "cosmo_repulsion_energy": 1.74, 
			 "cosmo_total_nonelectrostatic_energy": 8.94, 
			 "SMD_solvation_energy": 5.04 
		},
		"coords": [
			{
				"x": -0.8889112808,
				"y": 0.3068132583,
				"z": 3.6013642307,
				"element": "C" 
			},
			{
				"x": -0.0482034902,
				"y": 0.5285525498,
				"z": 2.3720023498,
				"element": "C" 
			},
			{
				"x": 0.0163369103,
				"y": -0.4800739548,
				"z": 1.3624800504,
				"element": "C" 
			},
			{
				"x": -0.7028772269,
				"y": -1.6318927435,
				"z": 1.5556534692,
				"element": "N" 
			},
			{
				"x": -0.6386685721,
				"y": -2.5514951283,
				"z": 0.6262131059,
				"element": "C" 
			},
			{
				"x": 0.1164134985,
				"y": -2.4620068318,
				"z": -0.575730142,
				"element": "C" 
			},
			{
				"x": 0.1715481349,
				"y": -3.5117962476,
				"z": -1.6063462454,
				"element": "C" 
			},
			{
				"x": -0.525113665,
				"y": -4.6500582565,
				"z": -1.440098477,
				"element": "O" 
			},
			{
				"x": 0.8400750671,
				"y": -3.3898734253,
				"z": -2.6319711895,
				"element": "O" 
			},
			{
				"x": 0.8594779827,
				"y": -1.2860048595,
				"z": -0.787702277,
				"element": "C" 
			},
			{
				"x": 1.6005037442,
				"y": -1.0873298361,
				"z": -1.8684130085,
				"element": "O" 
			},
			{
				"x": 0.8161115182,
				"y": -0.2560378389,
				"z": 0.2048827307,
				"element": "C" 
			},
			{
				"x": 1.5426608373,
				"y": 0.9470176496,
				"z": 0.0452311368,
				"element": "C" 
			},
			{
				"x": 1.4585673253,
				"y": 1.8970791018,
				"z": 1.0358292601,
				"element": "C" 
			},
			{
				"x": 2.3439263731,
				"y": 3.4050912754,
				"z": 0.8788702343,
				"element": "Cl" 
			},
			{
				"x": 0.6718142646,
				"y": 1.6955074756,
				"z": 2.1912903028,
				"element": "C" 
			},
			{
				"x": -0.5595223166,
				"y": -0.5841434042,
				"z": 4.1447266297,
				"element": "H" 
			},
			{
				"x": -1.9356776819,
				"y": 0.1342027038,
				"z": 3.3332017813,
				"element": "H" 
			},
			{
				"x": -0.8350106062,
				"y": 1.167675969,
				"z": 4.2723426216,
				"element": "H" 
			},
			{
				"x": -1.2301128256,
				"y": -3.4484249943,
				"z": 0.829977581,
				"element": "H" 
			},
			{
				"x": -1.0149708581,
				"y": -4.6461461766,
				"z": -0.6062868742,
				"element": "H" 
			},
			{
				"x": 1.4999303413,
				"y": -1.9090705636,
				"z": -2.4307843479,
				"element": "H" 
			},
			{
				"x": 2.1454799926,
				"y": 1.1006842436,
				"z": -0.8408628908,
				"element": "H" 
			},
			{
				"x": 0.6378225334,
				"y": 2.4754300339,
				"z": 2.9449299683,
				"element": "H" 
			}
		],
		 "valence_orbital": [ 
			{
				"type": "occ",
				"energy": -0.30695,
				"method": "rhf"
			},
			{
				"type": "occ",
				"energy": -0.28726,
				"method": "rhf"
			},
			{
				"type": "occ",
				"energy": -0.27482,
				"method": "rhf"
			},
			{
				"type": "occ",
				"energy": -0.26897,
				"method": "rhf"
			},
			{
				"type": "occ",
				"energy": -0.23675,
				"method": "rhf"
			},
			{
				"type": "unocc",
				"energy": -0.07522,
				"method": "rhf"
			},
			{
				"type": "unocc",
				"energy": -0.05612,
				"method": "rhf"
			},
			{
				"type": "unocc",
				"energy": 0.00666,
				"method": "rhf"
			},
			{
				"type": "unocc",
				"energy": 0.01166,
				"method": "rhf"
			},
			{
				"type": "unocc",
				"energy": 0.02373,
				"method": "rhf"
			}
		],
		"cosmo_sigma_profile": { 
			"-0.025": 0.0,
			"-0.024": 0.0,
			"-0.023": 0.0,
			"-0.022": 0.0,
			"-0.021": 0.0137383719465,
			"-0.02": 0.755671317246,
			"-0.019": 1.25451341893,
			"-0.018": 0.875538275965,
			"-0.017": 1.133801915,
			"-0.016": 0.95580222479,
			"-0.015": 0.818203739873,
			"-0.014": 1.10664996948,
			"-0.013": 1.11694320979,
			"-0.012": 1.59042829842,
			"-0.011": 0.817990490247,
			"-0.01": 0.866689123975,
			"-0.009": 1.58249101739,
			"-0.008": 1.99287752418,
			"-0.007": 5.47778499989,
			"-0.006": 6.2246765755,
			"-0.005": 8.85365572693,
			"-0.004": 14.4070014596,
			"-0.003": 14.0887799772,
			"-0.002": 18.6411746229,
			"-0.001": 22.2218248692,
			"0.0": 26.028103971,
			"0.001": 27.2627719339,
			"0.002": 17.7213316025,
			"0.003": 13.1021120349,
			"0.004": 15.5661885582,
			"0.005": 7.05243744847,
			"0.006": 5.96564706964,
			"0.007": 5.84044148204,
			"0.008": 4.77697693713,
			"0.009": 5.20076057408,
			"0.01": 4.5523610837,
			"0.011": 2.94469243641,
			"0.012": 1.78304507326,
			"0.013": 0.794067469138,
			"0.014": 0.216236994157,
			"0.015": 0.0,
			"0.016": 0.0,
			"0.017": 0.0,
			"0.018": 0.0,
			"0.019": 0.0,
			"0.02": 0.0,
			"0.021": 0.0,
			"0.022": 0.0,
			"0.023": 0.0,
			"0.024": 0.0,
			"0.025": 0.0
		}
	}
}
