{
	 "smiles": "CCOC(=O)C1=C(C)NC(=S)NC1C1=CC=CC=C1", 
	 "Tm": 481.15, 
	 "num_atms": 35, 
	 "gaussian": { 
		 "optdone": 1, 
		 "sigma_profile": "yes", 
		 "theory": "DFT", 
		 "functional": "B3LYP", 
		 "basiset": "6-31G**", 
		 "properties": { 
			 "R2extent": 7219.2795, 
			 "electric_dipole_moment_norm": 4.94149835374, 
			 "electric_quadrupole_moment_norm": 27.8986605112, 
			 "total_energy": -1201.30468728, 
			 "HOMO_LUMO_gap": 0.15662, 
			 "cosmo_polarized_energy": -17.81, 
			 "cosmo_cavitation_energy": 39.6, 
			 "cosmo_dispersion_energy": -27.95, 
			 "cosmo_repulsion_energy": 2.14, 
			 "cosmo_total_nonelectrostatic_energy": 13.79, 
			 "SMD_solvation_energy": 5.87 
		},
		"coords": [
			{
				"x": -4.1444429321,
				"y": 1.5186894384,
				"z": -1.5510377209,
				"element": "C" 
			},
			{
				"x": -3.0584761252,
				"y": 1.71609435,
				"z": -0.5104144801,
				"element": "C" 
			},
			{
				"x": -2.5347325451,
				"y": 0.4107409424,
				"z": -0.1730428105,
				"element": "O" 
			},
			{
				"x": -1.5399546965,
				"y": 0.4026516576,
				"z": 0.7486474573,
				"element": "C" 
			},
			{
				"x": -1.1227128055,
				"y": 1.4314885757,
				"z": 1.261363127,
				"element": "O" 
			},
			{
				"x": -1.0298205161,
				"y": -0.9310570639,
				"z": 1.0935566182,
				"element": "C" 
			},
			{
				"x": -1.5215959278,
				"y": -2.1189386572,
				"z": 0.6449859042,
				"element": "C" 
			},
			{
				"x": -2.59299213,
				"y": -2.3409993349,
				"z": -0.3919294484,
				"element": "C" 
			},
			{
				"x": -1.0264777015,
				"y": -3.2922104747,
				"z": 1.1988127468,
				"element": "N" 
			},
			{
				"x": -0.2918576086,
				"y": -3.3681196405,
				"z": 2.3668863029,
				"element": "C" 
			},
			{
				"x": 0.0052502067,
				"y": -4.8435988313,
				"z": 3.1038844448,
				"element": "S" 
			},
			{
				"x": 0.1183371115,
				"y": -2.176905478,
				"z": 2.8438010497,
				"element": "N" 
			},
			{
				"x": 0.1403705464,
				"y": -0.9265039939,
				"z": 2.0735343084,
				"element": "C" 
			},
			{
				"x": 1.4930534475,
				"y": -0.6876643053,
				"z": 1.3899493247,
				"element": "C" 
			},
			{
				"x": 1.9547912887,
				"y": 0.6250804286,
				"z": 1.2187068742,
				"element": "C" 
			},
			{
				"x": 3.1722583344,
				"y": 0.8702489632,
				"z": 0.5831715781,
				"element": "C" 
			},
			{
				"x": 3.9479862606,
				"y": -0.1919906583,
				"z": 0.1151505833,
				"element": "C" 
			},
			{
				"x": 3.497847626,
				"y": -1.501605066,
				"z": 0.288194462,
				"element": "C" 
			},
			{
				"x": 2.2789124415,
				"y": -1.7491711389,
				"z": 0.9219800177,
				"element": "C" 
			},
			{
				"x": -3.7440219474,
				"y": 1.0474260052,
				"z": -2.4535022815,
				"element": "H" 
			},
			{
				"x": -4.5681136497,
				"y": 2.4881187287,
				"z": -1.8310268997,
				"element": "H" 
			},
			{
				"x": -4.9525228899,
				"y": 0.8917834358,
				"z": -1.1627175116,
				"element": "H" 
			},
			{
				"x": -3.4418421987,
				"y": 2.1889049943,
				"z": 0.3990110769,
				"element": "H" 
			},
			{
				"x": -2.2401893478,
				"y": 2.3398052858,
				"z": -0.8830750488,
				"element": "H" 
			},
			{
				"x": -2.4071085407,
				"y": -1.7433497703,
				"z": -1.2834794302,
				"element": "H" 
			},
			{
				"x": -3.5730111297,
				"y": -2.0455279795,
				"z": -0.0066645588,
				"element": "H" 
			},
			{
				"x": -2.6386354127,
				"y": -3.3969065151,
				"z": -0.6739611019,
				"element": "H" 
			},
			{
				"x": -1.3781091015,
				"y": -4.1817049533,
				"z": 0.8749131449,
				"element": "H" 
			},
			{
				"x": 0.6906968112,
				"y": -2.2312811628,
				"z": 3.6751702369,
				"element": "H" 
			},
			{
				"x": -0.0264047164,
				"y": -0.1072143706,
				"z": 2.7777971773,
				"element": "H" 
			},
			{
				"x": 1.3451475028,
				"y": 1.450343761,
				"z": 1.5718966268,
				"element": "H" 
			},
			{
				"x": 3.5173898717,
				"y": 1.8930398036,
				"z": 0.4598054992,
				"element": "H" 
			},
			{
				"x": 4.8985965554,
				"y": -0.0012725039,
				"z": -0.3747442871,
				"element": "H" 
			},
			{
				"x": 4.0979311715,
				"y": -2.335728033,
				"z": -0.0644391441,
				"element": "H" 
			},
			{
				"x": 1.9554527469,
				"y": -2.7756664386,
				"z": 1.0634161621,
				"element": "H" 
			}
		],
		 "valence_orbital": [ 
			{
				"type": "occ",
				"energy": -0.24944,
				"method": "rhf"
			},
			{
				"type": "occ",
				"energy": -0.24699,
				"method": "rhf"
			},
			{
				"type": "occ",
				"energy": -0.24096,
				"method": "rhf"
			},
			{
				"type": "occ",
				"energy": -0.21865,
				"method": "rhf"
			},
			{
				"type": "occ",
				"energy": -0.21354,
				"method": "rhf"
			},
			{
				"type": "unocc",
				"energy": -0.05692,
				"method": "rhf"
			},
			{
				"type": "unocc",
				"energy": -0.00301,
				"method": "rhf"
			},
			{
				"type": "unocc",
				"energy": -0.0016,
				"method": "rhf"
			},
			{
				"type": "unocc",
				"energy": 0.01201,
				"method": "rhf"
			},
			{
				"type": "unocc",
				"energy": 0.05576,
				"method": "rhf"
			}
		],
		"cosmo_sigma_profile": { 
			"-0.025": 0.0,
			"-0.024": 0.0,
			"-0.023": 0.0,
			"-0.022": 0.0,
			"-0.021": 0.0,
			"-0.02": 0.0,
			"-0.019": 0.0,
			"-0.018": 0.0,
			"-0.017": 0.0,
			"-0.016": 0.11925412852,
			"-0.015": 2.02479403292,
			"-0.014": 2.31713205901,
			"-0.013": 1.97972498819,
			"-0.012": 1.87050304354,
			"-0.011": 1.6610059056,
			"-0.01": 1.98478947026,
			"-0.009": 2.34846229607,
			"-0.008": 2.43640352415,
			"-0.007": 3.05165092634,
			"-0.006": 7.27497897431,
			"-0.005": 18.3365401284,
			"-0.004": 28.0607002636,
			"-0.003": 31.9045521785,
			"-0.002": 31.6749860606,
			"-0.001": 30.4169241556,
			"0.0": 23.8125408206,
			"0.001": 17.1892570095,
			"0.002": 16.4115291244,
			"0.003": 15.2933713148,
			"0.004": 13.7836269458,
			"0.005": 14.7650763669,
			"0.006": 10.3203171472,
			"0.007": 4.89150620598,
			"0.008": 5.97291942636,
			"0.009": 5.78452329525,
			"0.01": 8.84705661165,
			"0.011": 7.44886439903,
			"0.012": 3.83099642722,
			"0.013": 0.957473410562,
			"0.014": 0.0,
			"0.015": 0.0,
			"0.016": 0.0,
			"0.017": 0.0,
			"0.018": 0.0,
			"0.019": 0.0,
			"0.02": 0.0,
			"0.021": 0.0,
			"0.022": 0.0,
			"0.023": 0.0,
			"0.024": 0.0,
			"0.025": 0.0
		}
	}
}
