{
	 "smiles": "ClC1=CC(Cl)=C2OC=C(C=O)C(=O)C2=C1", 
	 "Tm": 445.15, 
	 "num_atms": 19, 
	 "gaussian": { 
		 "optdone": 1, 
		 "sigma_profile": "yes", 
		 "theory": "DFT", 
		 "functional": "B3LYP", 
		 "basiset": "6-31G**", 
		 "properties": { 
			 "R2extent": 5819.2116, 
			 "electric_dipole_moment_norm": 4.81435237389, 
			 "electric_quadrupole_moment_norm": 21.134910041, 
			 "total_energy": -1529.49536739, 
			 "HOMO_LUMO_gap": 0.16521, 
			 "cosmo_polarized_energy": -17.25, 
			 "cosmo_cavitation_energy": 28.68, 
			 "cosmo_dispersion_energy": -21.23, 
			 "cosmo_repulsion_energy": 1.64, 
			 "cosmo_total_nonelectrostatic_energy": 9.09, 
			 "SMD_solvation_energy": 6.68 
		},
		"coords": [
			{
				"x": -1.1679234746,
				"y": -4.8034189568,
				"z": -2.8887379588,
				"element": "Cl" 
			},
			{
				"x": -0.8783609362,
				"y": -3.1864736891,
				"z": -2.2847896408,
				"element": "C" 
			},
			{
				"x": -1.9339564124,
				"y": -2.2638813861,
				"z": -2.2996363942,
				"element": "C" 
			},
			{
				"x": -1.7226606063,
				"y": -0.9759000633,
				"z": -1.8242217769,
				"element": "C" 
			},
			{
				"x": -3.0226405058,
				"y": 0.1845261182,
				"z": -1.8346650796,
				"element": "Cl" 
			},
			{
				"x": -0.4572953115,
				"y": -0.6153411625,
				"z": -1.3359791243,
				"element": "C" 
			},
			{
				"x": -0.2923587037,
				"y": 0.6663464893,
				"z": -0.8761149496,
				"element": "O" 
			},
			{
				"x": 0.9087045248,
				"y": 1.0318276556,
				"z": -0.4051515789,
				"element": "C" 
			},
			{
				"x": 2.0105273017,
				"y": 0.2419168174,
				"z": -0.334230635,
				"element": "C" 
			},
			{
				"x": 3.2335602676,
				"y": 0.8655370248,
				"z": 0.2260823973,
				"element": "C" 
			},
			{
				"x": 4.3075673998,
				"y": 0.3262440631,
				"z": 0.3695385747,
				"element": "O" 
			},
			{
				"x": 1.9393491531,
				"y": -1.1584554564,
				"z": -0.8047555349,
				"element": "C" 
			},
			{
				"x": 2.8666817534,
				"y": -1.9521261766,
				"z": -0.7857435159,
				"element": "O" 
			},
			{
				"x": 0.5916837814,
				"y": -1.5417659662,
				"z": -1.324374265,
				"element": "C" 
			},
			{
				"x": 0.3746678876,
				"y": -2.839858811,
				"z": -1.8046719793,
				"element": "C" 
			},
			{
				"x": -2.9088662173,
				"y": -2.5467759721,
				"z": -2.6774518122,
				"element": "H" 
			},
			{
				"x": 0.8973291927,
				"y": 2.0669372239,
				"z": -0.0762481702,
				"element": "H" 
			},
			{
				"x": 3.0831432801,
				"y": 1.9304430731,
				"z": 0.5244134248,
				"element": "H" 
			},
			{
				"x": 1.2020476256,
				"y": -3.5396808253,
				"z": -1.7855619815,
				"element": "H" 
			}
		],
		 "valence_orbital": [ 
			{
				"type": "occ",
				"energy": -0.30022,
				"method": "rhf"
			},
			{
				"type": "occ",
				"energy": -0.28592,
				"method": "rhf"
			},
			{
				"type": "occ",
				"energy": -0.28316,
				"method": "rhf"
			},
			{
				"type": "occ",
				"energy": -0.26283,
				"method": "rhf"
			},
			{
				"type": "occ",
				"energy": -0.25113,
				"method": "rhf"
			},
			{
				"type": "unocc",
				"energy": -0.08592,
				"method": "rhf"
			},
			{
				"type": "unocc",
				"energy": -0.0767,
				"method": "rhf"
			},
			{
				"type": "unocc",
				"energy": -0.03628,
				"method": "rhf"
			},
			{
				"type": "unocc",
				"energy": -0.01296,
				"method": "rhf"
			},
			{
				"type": "unocc",
				"energy": -0.00864,
				"method": "rhf"
			}
		],
		"cosmo_sigma_profile": { 
			"-0.025": 0.0,
			"-0.024": 0.0,
			"-0.023": 0.0,
			"-0.022": 0.0,
			"-0.021": 0.0,
			"-0.02": 0.0,
			"-0.019": 0.0,
			"-0.018": 0.0,
			"-0.017": 0.0,
			"-0.016": 0.0,
			"-0.015": 0.0,
			"-0.014": 0.0,
			"-0.013": 0.0337701435486,
			"-0.012": 3.27322034089,
			"-0.011": 2.92770928568,
			"-0.01": 2.705095498,
			"-0.009": 4.07945916118,
			"-0.008": 4.97391721116,
			"-0.007": 8.82183659351,
			"-0.006": 8.33198714117,
			"-0.005": 11.2759038365,
			"-0.004": 13.8781501595,
			"-0.003": 19.3775020656,
			"-0.002": 19.1333048499,
			"-0.001": 24.2046779645,
			"0.0": 17.5459509714,
			"0.001": 11.9219781406,
			"0.002": 14.9338813238,
			"0.003": 20.0848932124,
			"0.004": 12.3274054731,
			"0.005": 3.28618169722,
			"0.006": 2.41959036651,
			"0.007": 3.1729582634,
			"0.008": 2.90501504455,
			"0.009": 3.17892020453,
			"0.01": 4.44689767105,
			"0.011": 7.09507191303,
			"0.012": 5.49927677455,
			"0.013": 1.79484108523,
			"0.014": 1.53046605752,
			"0.015": 1.13959745846,
			"0.016": 0.819107527073,
			"0.017": 0.0382005083715,
			"0.018": 0.0,
			"0.019": 0.0,
			"0.02": 0.0,
			"0.021": 0.0,
			"0.022": 0.0,
			"0.023": 0.0,
			"0.024": 0.0,
			"0.025": 0.0
		}
	}
}
