{
	 "smiles": "CC(CSC1=CC=C(F)C=C1)C(O)=O", 
	 "Tm": 335.15, 
	 "num_atms": 25, 
	 "gaussian": { 
		 "optdone": 1, 
		 "sigma_profile": "yes", 
		 "theory": "DFT", 
		 "functional": "B3LYP", 
		 "basiset": "6-31G**", 
		 "properties": { 
			 "R2extent": 5305.9241, 
			 "electric_dipole_moment_norm": 1.47550581836, 
			 "electric_quadrupole_moment_norm": 10.3855554401, 
			 "total_energy": -1036.18044838, 
			 "HOMO_LUMO_gap": 0.21134, 
			 "cosmo_polarized_energy": -10.88, 
			 "cosmo_cavitation_energy": 31.61, 
			 "cosmo_dispersion_energy": -22.5, 
			 "cosmo_repulsion_energy": 1.73, 
			 "cosmo_total_nonelectrostatic_energy": 10.84, 
			 "SMD_solvation_energy": 6.7 
		},
		"coords": [
			{
				"x": -1.3651796464,
				"y": -1.1300039845,
				"z": 2.3540832867,
				"element": "C" 
			},
			{
				"x": -0.2300174291,
				"y": -1.6143744865,
				"z": 1.427915434,
				"element": "C" 
			},
			{
				"x": 0.3106353507,
				"y": -0.5213394661,
				"z": 0.4975353694,
				"element": "C" 
			},
			{
				"x": 1.1797250431,
				"y": 0.7831660042,
				"z": 1.4780943483,
				"element": "S" 
			},
			{
				"x": 1.784560667,
				"y": 1.8284805634,
				"z": 0.1515583897,
				"element": "C" 
			},
			{
				"x": 1.0470834322,
				"y": 2.9487970013,
				"z": -0.2569710402,
				"element": "C" 
			},
			{
				"x": 1.5246179018,
				"y": 3.7844949791,
				"z": -1.2662902976,
				"element": "C" 
			},
			{
				"x": 2.7470519983,
				"y": 3.4848827762,
				"z": -1.8575109938,
				"element": "C" 
			},
			{
				"x": 3.2145395332,
				"y": 4.2889905912,
				"z": -2.8331551165,
				"element": "F" 
			},
			{
				"x": 3.5052826525,
				"y": 2.3846271756,
				"z": -1.4713436499,
				"element": "C" 
			},
			{
				"x": 3.0180286558,
				"y": 1.5588736986,
				"z": -0.4589802729,
				"element": "C" 
			},
			{
				"x": -0.7008877858,
				"y": -2.7966470636,
				"z": 0.5922184664,
				"element": "C" 
			},
			{
				"x": -1.0306580848,
				"y": -3.8567882594,
				"z": 1.3697543066,
				"element": "O" 
			},
			{
				"x": -0.788483096,
				"y": -2.8267363473,
				"z": -0.6160142593,
				"element": "O" 
			},
			{
				"x": -2.2151453261,
				"y": -0.7678786994,
				"z": 1.7657415542,
				"element": "H" 
			},
			{
				"x": -1.7111859199,
				"y": -1.9413673294,
				"z": 2.9978555165,
				"element": "H" 
			},
			{
				"x": -1.0183049572,
				"y": -0.3080055819,
				"z": 2.9846576654,
				"element": "H" 
			},
			{
				"x": 0.5872673847,
				"y": -1.9897994113,
				"z": 2.058408739,
				"element": "H" 
			},
			{
				"x": 1.0175616685,
				"y": -0.9483772634,
				"z": -0.2163577772,
				"element": "H" 
			},
			{
				"x": -0.505228952,
				"y": -0.0651480618,
				"z": -0.0695443515,
				"element": "H" 
			},
			{
				"x": 0.0977314103,
				"y": 3.1664405349,
				"z": 0.2214111882,
				"element": "H" 
			},
			{
				"x": 0.9687822947,
				"y": 4.6557819477,
				"z": -1.5953985837,
				"element": "H" 
			},
			{
				"x": 4.4566328901,
				"y": 2.1922343764,
				"z": -1.9554226005,
				"element": "H" 
			},
			{
				"x": 3.5988646637,
				"y": 0.7013173796,
				"z": -0.1349614071,
				"element": "H" 
			},
			{
				"x": -1.3286743491,
				"y": -4.5544210737,
				"z": 0.7620160856,
				"element": "H" 
			}
		],
		 "valence_orbital": [ 
			{
				"type": "occ",
				"energy": -0.32035,
				"method": "rhf"
			},
			{
				"type": "occ",
				"energy": -0.27925,
				"method": "rhf"
			},
			{
				"type": "occ",
				"energy": -0.26759,
				"method": "rhf"
			},
			{
				"type": "occ",
				"energy": -0.24798,
				"method": "rhf"
			},
			{
				"type": "occ",
				"energy": -0.23015,
				"method": "rhf"
			},
			{
				"type": "unocc",
				"energy": -0.01881,
				"method": "rhf"
			},
			{
				"type": "unocc",
				"energy": -0.01759,
				"method": "rhf"
			},
			{
				"type": "unocc",
				"energy": 0.00212,
				"method": "rhf"
			},
			{
				"type": "unocc",
				"energy": 0.04219,
				"method": "rhf"
			},
			{
				"type": "unocc",
				"energy": 0.06584,
				"method": "rhf"
			}
		],
		"cosmo_sigma_profile": { 
			"-0.025": 0.0,
			"-0.024": 0.0,
			"-0.023": 0.0,
			"-0.022": 0.0,
			"-0.021": 0.0,
			"-0.02": 0.0,
			"-0.019": 0.0196303971079,
			"-0.018": 0.76711986548,
			"-0.017": 0.890499797721,
			"-0.016": 0.780913796516,
			"-0.015": 0.797257116389,
			"-0.014": 0.751523689459,
			"-0.013": 0.827438950311,
			"-0.012": 0.682659574068,
			"-0.011": 0.714206500156,
			"-0.01": 0.433389047624,
			"-0.009": 0.480603414677,
			"-0.008": 1.46098912248,
			"-0.007": 6.79950861269,
			"-0.006": 10.2259824089,
			"-0.005": 16.626961613,
			"-0.004": 17.0687745849,
			"-0.003": 18.1132997406,
			"-0.002": 19.1613464478,
			"-0.001": 19.2463522319,
			"0.0": 22.1583159283,
			"0.001": 19.6484503387,
			"0.002": 20.2099127849,
			"0.003": 20.4523957636,
			"0.004": 17.8371857823,
			"0.005": 7.46094621076,
			"0.006": 5.27034214907,
			"0.007": 3.99800667996,
			"0.008": 4.66668569623,
			"0.009": 4.63407552632,
			"0.01": 2.24946628215,
			"0.011": 4.15168239632,
			"0.012": 3.60391433225,
			"0.013": 0.0813132673008,
			"0.014": 0.0,
			"0.015": 0.0,
			"0.016": 0.0,
			"0.017": 0.0,
			"0.018": 0.0,
			"0.019": 0.0,
			"0.02": 0.0,
			"0.021": 0.0,
			"0.022": 0.0,
			"0.023": 0.0,
			"0.024": 0.0,
			"0.025": 0.0
		}
	}
}
