{
	 "smiles": "NNC(=O)CC#N", 
	 "Tm": 387.15, 
	 "num_atms": 12, 
	 "gaussian": { 
		 "optdone": 1, 
		 "sigma_profile": "yes", 
		 "theory": "DFT", 
		 "functional": "B3LYP", 
		 "basiset": "6-31G**", 
		 "properties": { 
			 "R2extent": 762.63, 
			 "electric_dipole_moment_norm": 4.67755588636, 
			 "electric_quadrupole_moment_norm": 15.7386250235, 
			 "total_energy": -356.764696043, 
			 "HOMO_LUMO_gap": 0.26744, 
			 "cosmo_polarized_energy": -17.9, 
			 "cosmo_cavitation_energy": 17.43, 
			 "cosmo_dispersion_energy": -12.26, 
			 "cosmo_repulsion_energy": 1.09, 
			 "cosmo_total_nonelectrostatic_energy": 6.26, 
			 "SMD_solvation_energy": 6.08 
		},
		"coords": [
			{
				"x": 1.567012951,
				"y": -0.4416063952,
				"z": 0.2462810665,
				"element": "N" 
			},
			{
				"x": 0.9933709531,
				"y": 0.7797445178,
				"z": 0.6090155032,
				"element": "N" 
			},
			{
				"x": -0.234157541,
				"y": 1.1753108452,
				"z": 0.1509559003,
				"element": "C" 
			},
			{
				"x": -0.7357746699,
				"y": 2.2357346338,
				"z": 0.4769364699,
				"element": "O" 
			},
			{
				"x": -0.9356465549,
				"y": 0.1944828197,
				"z": -0.8103212198,
				"element": "C" 
			},
			{
				"x": -1.3095867206,
				"y": -1.0601728302,
				"z": -0.1574580987,
				"element": "C" 
			},
			{
				"x": -1.6103237555,
				"y": -2.0441568667,
				"z": 0.379877028,
				"element": "N" 
			},
			{
				"x": 1.5788841703,
				"y": -1.0881313587,
				"z": 1.0314581355,
				"element": "H" 
			},
			{
				"x": 2.5127852002,
				"y": -0.2980650643,
				"z": -0.0948894056,
				"element": "H" 
			},
			{
				"x": 1.4198056681,
				"y": 1.3883850125,
				"z": 1.3011473981,
				"element": "H" 
			},
			{
				"x": -0.2808911962,
				"y": -0.0358724342,
				"z": -1.6563205851,
				"element": "H" 
			},
			{
				"x": -1.8310785046,
				"y": 0.7052471203,
				"z": -1.1714821923,
				"element": "H" 
			}
		],
		 "valence_orbital": [ 
			{
				"type": "occ",
				"energy": -0.33458,
				"method": "rhf"
			},
			{
				"type": "occ",
				"energy": -0.32606,
				"method": "rhf"
			},
			{
				"type": "occ",
				"energy": -0.30255,
				"method": "rhf"
			},
			{
				"type": "occ",
				"energy": -0.27604,
				"method": "rhf"
			},
			{
				"type": "occ",
				"energy": -0.2665,
				"method": "rhf"
			},
			{
				"type": "unocc",
				"energy": 0.00094,
				"method": "rhf"
			},
			{
				"type": "unocc",
				"energy": 0.03965,
				"method": "rhf"
			},
			{
				"type": "unocc",
				"energy": 0.04823,
				"method": "rhf"
			},
			{
				"type": "unocc",
				"energy": 0.05258,
				"method": "rhf"
			},
			{
				"type": "unocc",
				"energy": 0.08732,
				"method": "rhf"
			}
		],
		"cosmo_sigma_profile": { 
			"-0.025": 0.0,
			"-0.024": 0.0,
			"-0.023": 0.0,
			"-0.022": 0.0,
			"-0.021": 0.0,
			"-0.02": 0.0,
			"-0.019": 0.0,
			"-0.018": 0.0,
			"-0.017": 0.0,
			"-0.016": 0.0,
			"-0.015": 0.155160113457,
			"-0.014": 1.3252328621,
			"-0.013": 2.38625839289,
			"-0.012": 4.30848471657,
			"-0.011": 4.37276238487,
			"-0.01": 5.86296049798,
			"-0.009": 7.1853119278,
			"-0.008": 7.24034310765,
			"-0.007": 5.24184705559,
			"-0.006": 6.20494834877,
			"-0.005": 6.7338255364,
			"-0.004": 4.01440937921,
			"-0.003": 5.46936943894,
			"-0.002": 5.8716622249,
			"-0.001": 5.37000506005,
			"0.0": 3.8714397736,
			"0.001": 3.17391336039,
			"0.002": 4.78217439915,
			"0.003": 2.77292927323,
			"0.004": 4.5480387846,
			"0.005": 3.9758470087,
			"0.006": 4.74911506348,
			"0.007": 4.46259572139,
			"0.008": 4.69760470858,
			"0.009": 4.75781083785,
			"0.01": 5.4009833361,
			"0.011": 4.85330354754,
			"0.012": 6.32597274096,
			"0.013": 7.00619856009,
			"0.014": 1.09531556117,
			"0.015": 0.0,
			"0.016": 0.0,
			"0.017": 0.0,
			"0.018": 0.0,
			"0.019": 0.0,
			"0.02": 0.0,
			"0.021": 0.0,
			"0.022": 0.0,
			"0.023": 0.0,
			"0.024": 0.0,
			"0.025": 0.0
		}
	}
}
