{
	 "smiles": "CC1=C(F)C=CC2=C1NC(=O)C2=O", 
	 "Tm": 413.15, 
	 "num_atms": 19, 
	 "gaussian": { 
		 "optdone": 1, 
		 "sigma_profile": "yes", 
		 "theory": "DFT", 
		 "functional": "B3LYP", 
		 "basiset": "6-31G**", 
		 "properties": { 
			 "R2extent": 2670.6469, 
			 "electric_dipole_moment_norm": 5.08334388174, 
			 "electric_quadrupole_moment_norm": 18.2848410439, 
			 "total_energy": -651.615710325, 
			 "HOMO_LUMO_gap": 0.1461, 
			 "cosmo_polarized_energy": -14.74, 
			 "cosmo_cavitation_energy": 24.58, 
			 "cosmo_dispersion_energy": -17.88, 
			 "cosmo_repulsion_energy": 1.38, 
			 "cosmo_total_nonelectrostatic_energy": 8.08, 
			 "SMD_solvation_energy": 6.03 
		},
		"coords": [
			{
				"x": 0.6568111972,
				"y": 2.0726162949,
				"z": -0.8817904178,
				"element": "C" 
			},
			{
				"x": -0.5735453775,
				"y": 1.3353398088,
				"z": -0.4214476507,
				"element": "C" 
			},
			{
				"x": -1.8584686219,
				"y": 1.8944277195,
				"z": -0.4901574341,
				"element": "C" 
			},
			{
				"x": -1.9707488038,
				"y": 3.140641253,
				"z": -0.9911536293,
				"element": "F" 
			},
			{
				"x": -3.0312957214,
				"y": 1.257450941,
				"z": -0.0786219139,
				"element": "C" 
			},
			{
				"x": -2.9481283987,
				"y": -0.0309967507,
				"z": 0.4435522153,
				"element": "C" 
			},
			{
				"x": -1.6957115929,
				"y": -0.6342725796,
				"z": 0.5346563562,
				"element": "C" 
			},
			{
				"x": -0.5367515827,
				"y": 0.0455628422,
				"z": 0.1071037396,
				"element": "C" 
			},
			{
				"x": 0.5950453306,
				"y": -0.7579055123,
				"z": 0.2964156804,
				"element": "N" 
			},
			{
				"x": 0.2716805045,
				"y": -1.9920349341,
				"z": 0.8478508499,
				"element": "C" 
			},
			{
				"x": 1.0351042537,
				"y": -2.8883187318,
				"z": 1.1222688366,
				"element": "O" 
			},
			{
				"x": -1.2881459483,
				"y": -1.9551814095,
				"z": 1.0296463654,
				"element": "C" 
			},
			{
				"x": -1.9449059141,
				"y": -2.8645383863,
				"z": 1.4889455784,
				"element": "O" 
			},
			{
				"x": 1.1666626965,
				"y": 1.5335676317,
				"z": -1.6891484488,
				"element": "H" 
			},
			{
				"x": 1.3749131623,
				"y": 2.201203219,
				"z": -0.0631781993,
				"element": "H" 
			},
			{
				"x": 0.3945399234,
				"y": 3.0628087746,
				"z": -1.2547946933,
				"element": "H" 
			},
			{
				"x": -3.9741372402,
				"y": 1.7826341679,
				"z": -0.1765829415,
				"element": "H" 
			},
			{
				"x": -3.8331962548,
				"y": -0.5639257547,
				"z": 0.7757686199,
				"element": "H" 
			},
			{
				"x": 1.5416783882,
				"y": -0.4935785935,
				"z": 0.0674670871,
				"element": "H" 
			}
		],
		 "valence_orbital": [ 
			{
				"type": "occ",
				"energy": -0.32941,
				"method": "rhf"
			},
			{
				"type": "occ",
				"energy": -0.31197,
				"method": "rhf"
			},
			{
				"type": "occ",
				"energy": -0.26914,
				"method": "rhf"
			},
			{
				"type": "occ",
				"energy": -0.24871,
				"method": "rhf"
			},
			{
				"type": "occ",
				"energy": -0.24315,
				"method": "rhf"
			},
			{
				"type": "unocc",
				"energy": -0.09705,
				"method": "rhf"
			},
			{
				"type": "unocc",
				"energy": -0.02861,
				"method": "rhf"
			},
			{
				"type": "unocc",
				"energy": 0.0091,
				"method": "rhf"
			},
			{
				"type": "unocc",
				"energy": 0.05653,
				"method": "rhf"
			},
			{
				"type": "unocc",
				"energy": 0.08341,
				"method": "rhf"
			}
		],
		"cosmo_sigma_profile": { 
			"-0.025": 0.0,
			"-0.024": 0.0,
			"-0.023": 0.0,
			"-0.022": 0.0,
			"-0.021": 0.0,
			"-0.02": 0.0,
			"-0.019": 0.0,
			"-0.018": 0.0,
			"-0.017": 0.13341522136,
			"-0.016": 0.829335324425,
			"-0.015": 0.913067924953,
			"-0.014": 0.791061717104,
			"-0.013": 1.20605009086,
			"-0.012": 1.09398022848,
			"-0.011": 1.40598972845,
			"-0.01": 1.45676600929,
			"-0.009": 1.37190021141,
			"-0.008": 4.12948717961,
			"-0.007": 7.04810794943,
			"-0.006": 9.23233145395,
			"-0.005": 10.9855669831,
			"-0.004": 11.208684224,
			"-0.003": 10.6171004673,
			"-0.002": 16.5747041745,
			"-0.001": 23.9611620071,
			"0.0": 18.4130824559,
			"0.001": 12.897588362,
			"0.002": 9.94586687532,
			"0.003": 10.2687919115,
			"0.004": 6.16185961818,
			"0.005": 2.30084655611,
			"0.006": 1.8902677638,
			"0.007": 3.59653124364,
			"0.008": 3.24943768273,
			"0.009": 4.74462944979,
			"0.01": 8.03814020085,
			"0.011": 9.38441410965,
			"0.012": 3.7662480661,
			"0.013": 0.159987654014,
			"0.014": 0.0,
			"0.015": 0.0,
			"0.016": 0.0,
			"0.017": 0.0,
			"0.018": 0.0,
			"0.019": 0.0,
			"0.02": 0.0,
			"0.021": 0.0,
			"0.022": 0.0,
			"0.023": 0.0,
			"0.024": 0.0,
			"0.025": 0.0
		}
	}
}
