{
	 "smiles": "CC(C)C1=CN=C(O1)C1=CC=C(C=C1)[N+]([O-])=O", 
	 "Tm": 377.15, 
	 "num_atms": 29, 
	 "gaussian": { 
		 "optdone": 1, 
		 "sigma_profile": "yes", 
		 "theory": "DFT", 
		 "functional": "B3LYP", 
		 "basiset": "6-31G**", 
		 "properties": { 
			 "R2extent": 6659.5259, 
			 "electric_dipole_moment_norm": 6.47997352541, 
			 "electric_quadrupole_moment_norm": 24.2503515523, 
			 "total_energy": -799.592141653, 
			 "HOMO_LUMO_gap": 0.13968, 
			 "cosmo_polarized_energy": -10.26, 
			 "cosmo_cavitation_energy": 34.33, 
			 "cosmo_dispersion_energy": -24.32, 
			 "cosmo_repulsion_energy": 1.89, 
			 "cosmo_total_nonelectrostatic_energy": 11.89, 
			 "SMD_solvation_energy": 7.12 
		},
		"coords": [
			{
				"x": 3.5617968166,
				"y": 0.9999747194,
				"z": 2.872987013,
				"element": "C" 
			},
			{
				"x": 2.9281021882,
				"y": -0.4042707231,
				"z": 2.9399195275,
				"element": "C" 
			},
			{
				"x": 3.9317024262,
				"y": -1.4923316669,
				"z": 2.5077077349,
				"element": "C" 
			},
			{
				"x": 1.6652813384,
				"y": -0.4750096768,
				"z": 2.1428503025,
				"element": "C" 
			},
			{
				"x": 0.3537430298,
				"y": -0.7119594783,
				"z": 2.4322922064,
				"element": "C" 
			},
			{
				"x": -0.4025687281,
				"y": -0.6555207505,
				"z": 1.2771389258,
				"element": "N" 
			},
			{
				"x": 0.455620623,
				"y": -0.3900808683,
				"z": 0.3318837484,
				"element": "C" 
			},
			{
				"x": 1.7395856949,
				"y": -0.2658361342,
				"z": 0.7862613383,
				"element": "O" 
			},
			{
				"x": 0.199515975,
				"y": -0.2201564799,
				"z": -1.0922366111,
				"element": "C" 
			},
			{
				"x": -1.1184244927,
				"y": -0.3467713323,
				"z": -1.5693977941,
				"element": "C" 
			},
			{
				"x": -1.3925919138,
				"y": -0.1902080612,
				"z": -2.9209270342,
				"element": "C" 
			},
			{
				"x": -0.3408222346,
				"y": 0.0940105797,
				"z": -3.793868224,
				"element": "C" 
			},
			{
				"x": 0.9735803393,
				"y": 0.2245693823,
				"z": -3.3470443074,
				"element": "C" 
			},
			{
				"x": 1.2410359904,
				"y": 0.0665214013,
				"z": -1.992514611,
				"element": "C" 
			},
			{
				"x": -0.6261444844,
				"y": 0.2605782962,
				"z": -5.2248285008,
				"element": "N" 
			},
			{
				"x": 0.3208465862,
				"y": 0.5109016593,
				"z": -5.9713659791,
				"element": "O" 
			},
			{
				"x": -1.7951628482,
				"y": 0.1400843313,
				"z": -5.5922006753,
				"element": "O" 
			},
			{
				"x": 4.4588706328,
				"y": 1.0418973181,
				"z": 3.4986023583,
				"element": "H" 
			},
			{
				"x": 3.8523604549,
				"y": 1.2457306611,
				"z": 1.84673452,
				"element": "H" 
			},
			{
				"x": 2.8642911643,
				"y": 1.7673475544,
				"z": 3.2212609158,
				"element": "H" 
			},
			{
				"x": 2.6334089715,
				"y": -0.6002187921,
				"z": 3.9787242032,
				"element": "H" 
			},
			{
				"x": 4.82904007,
				"y": -1.4511785613,
				"z": 3.1329935376,
				"element": "H" 
			},
			{
				"x": 3.4965318862,
				"y": -2.4919755682,
				"z": 2.5971919878,
				"element": "H" 
			},
			{
				"x": 4.2368593763,
				"y": -1.3467322956,
				"z": 1.4667060621,
				"element": "H" 
			},
			{
				"x": -0.0908705638,
				"y": -0.9186022172,
				"z": 3.395225792,
				"element": "H" 
			},
			{
				"x": -1.9116251037,
				"y": -0.5679352583,
				"z": -0.8641780235,
				"element": "H" 
			},
			{
				"x": -2.3977815286,
				"y": -0.2827886211,
				"z": -3.3124801779,
				"element": "H" 
			},
			{
				"x": 1.7575162609,
				"y": 0.4456117432,
				"z": -4.0603604989,
				"element": "H" 
			},
			{
				"x": 2.2563020729,
				"y": 0.164148839,
				"z": -1.6252777366,
				"element": "H" 
			}
		],
		 "valence_orbital": [ 
			{
				"type": "occ",
				"energy": -0.30109,
				"method": "rhf"
			},
			{
				"type": "occ",
				"energy": -0.2985,
				"method": "rhf"
			},
			{
				"type": "occ",
				"energy": -0.28827,
				"method": "rhf"
			},
			{
				"type": "occ",
				"energy": -0.27951,
				"method": "rhf"
			},
			{
				"type": "occ",
				"energy": -0.23449,
				"method": "rhf"
			},
			{
				"type": "unocc",
				"energy": -0.09481,
				"method": "rhf"
			},
			{
				"type": "unocc",
				"energy": -0.03343,
				"method": "rhf"
			},
			{
				"type": "unocc",
				"energy": -0.02729,
				"method": "rhf"
			},
			{
				"type": "unocc",
				"energy": 0.02564,
				"method": "rhf"
			},
			{
				"type": "unocc",
				"energy": 0.06455,
				"method": "rhf"
			}
		],
		"cosmo_sigma_profile": { 
			"-0.025": 0.0,
			"-0.024": 0.0,
			"-0.023": 0.0,
			"-0.022": 0.0,
			"-0.021": 0.0,
			"-0.02": 0.0,
			"-0.019": 0.0,
			"-0.018": 0.0,
			"-0.017": 0.0,
			"-0.016": 0.0,
			"-0.015": 0.0,
			"-0.014": 0.0,
			"-0.013": 0.0,
			"-0.012": 0.0,
			"-0.011": 0.0,
			"-0.01": 0.0,
			"-0.009": 0.0532427682123,
			"-0.008": 2.92842350099,
			"-0.007": 7.5010037517,
			"-0.006": 9.70504055997,
			"-0.005": 12.0190248601,
			"-0.004": 15.3748263191,
			"-0.003": 24.6515767816,
			"-0.002": 31.8410793463,
			"-0.001": 32.6385170667,
			"0.0": 38.8288273756,
			"0.001": 30.6303335935,
			"0.002": 13.2477637139,
			"0.003": 7.70631339717,
			"0.004": 5.06862462822,
			"0.005": 5.08588966381,
			"0.006": 5.01095070749,
			"0.007": 9.12143613106,
			"0.008": 8.68321933117,
			"0.009": 5.47500107805,
			"0.01": 4.67055278387,
			"0.011": 0.889628179705,
			"0.012": 1.35966975262,
			"0.013": 0.592141821998,
			"0.014": 0.674188409039,
			"0.015": 0.0,
			"0.016": 0.0,
			"0.017": 0.0,
			"0.018": 0.0,
			"0.019": 0.0,
			"0.02": 0.0,
			"0.021": 0.0,
			"0.022": 0.0,
			"0.023": 0.0,
			"0.024": 0.0,
			"0.025": 0.0
		}
	}
}
