{
	 "smiles": "ClC1=CC(Cl)=C(I)C(Cl)=C1", 
	 "Tm": 330.15, 
	 "num_atms": 12, 
	 "gaussian": { 
		 "optdone": 1, 
		 "sigma_profile": "no", 
		 "theory": "DFT", 
		 "functional": "B3LYP", 
		 "basiset": "6-31G**", 
		 "properties": { 
			 "R2extent": 3705.1441, 
			 "electric_dipole_moment_norm": 0.571354539669, 
			 "electric_quadrupole_moment_norm": 1.73537920352, 
			 "total_energy": -1621.79325619, 
			 "HOMO_LUMO_gap": 0.18876, 
			 "cosmo_polarized_energy": -82505.59, 
			 "cosmo_cavitation_energy": 24.87, 
			 "cosmo_dispersion_energy": -20.15, 
			 "cosmo_repulsion_energy": 1.59, 
			 "cosmo_total_nonelectrostatic_energy": 6.31, 
			 "SMD_solvation_energy": 2.67 
		},
		"coords": [
			{
				"x": 1.1022676264,
				"y": -0.7941439292,
				"z": 0.9660431374,
				"element": "Cl" 
			},
			{
				"x": -0.285281613,
				"y": 0.1097911515,
				"z": 0.401615696,
				"element": "C" 
			},
			{
				"x": -1.5539672265,
				"y": -0.2318260674,
				"z": 0.8574378172,
				"element": "C" 
			},
			{
				"x": -2.6554522062,
				"y": 0.4942345214,
				"z": 0.4023593091,
				"element": "C" 
			},
			{
				"x": -4.2188203806,
				"y": 0.0130377434,
				"z": 1.0139836868,
				"element": "Cl" 
			},
			{
				"x": -2.5126882633,
				"y": 1.5609282078,
				"z": -0.5043405548,
				"element": "C" 
			},
			{
				"x": -4.180409408,
				"y": 2.6475826602,
				"z": -1.1823637934,
				"element": "I" 
			},
			{
				"x": -1.2114051506,
				"y": 1.872783764,
				"z": -0.9399150776,
				"element": "C" 
			},
			{
				"x": -0.9074443008,
				"y": 3.1742829654,
				"z": -2.063959124,
				"element": "Cl" 
			},
			{
				"x": -0.0993765289,
				"y": 1.1567675043,
				"z": -0.4946617417,
				"element": "C" 
			},
			{
				"x": -1.6936722498,
				"y": -1.0476525679,
				"z": 1.5550854154,
				"element": "H" 
			},
			{
				"x": 0.8901497013,
				"y": 1.4189140464,
				"z": -0.8466847704,
				"element": "H" 
			}
		],
		 "valence_orbital": [ 
			{
				"type": "occ",
				"energy": -0.32538,
				"method": "rhf"
			},
			{
				"type": "occ",
				"energy": -0.30466,
				"method": "rhf"
			},
			{
				"type": "occ",
				"energy": -0.27204,
				"method": "rhf"
			},
			{
				"type": "occ",
				"energy": -0.27068,
				"method": "rhf"
			},
			{
				"type": "occ",
				"energy": -0.25445,
				"method": "rhf"
			},
			{
				"type": "unocc",
				"energy": -0.06569,
				"method": "rhf"
			},
			{
				"type": "unocc",
				"energy": -0.04804,
				"method": "rhf"
			},
			{
				"type": "unocc",
				"energy": -0.04628,
				"method": "rhf"
			},
			{
				"type": "unocc",
				"energy": -0.006,
				"method": "rhf"
			},
			{
				"type": "unocc",
				"energy": 0.02857,
				"method": "rhf"
			}
		],
		"cosmo_sigma_profile": { 
			"0.0": 0.0,
			"0.0": 0.0,
			"0.0": 0.0,
			"0.0": 0.0,
			"0.0": 0.0,
			"0.0": 0.0,
			"0.0": 0.0,
			"0.0": 0.0,
			"0.0": 0.0,
			"0.0": 0.0,
			"0.0": 0.0,
			"0.0": 0.0,
			"0.0": 0.0,
			"0.0": 0.0,
			"0.0": 0.0,
			"0.0": 0.0,
			"0.0": 0.0,
			"0.0": 0.0,
			"0.0": 0.0,
			"0.0": 0.0,
			"0.0": 0.0,
			"0.0": 0.0,
			"0.0": 0.0,
			"0.0": 0.0,
			"0.0": 0.0,
			"0.0": 0.0,
			"0.0": 0.0,
			"0.0": 0.0,
			"0.0": 0.0,
			"0.0": 0.0,
			"0.0": 0.0,
			"0.0": 0.0,
			"0.0": 0.0,
			"0.0": 0.0,
			"0.0": 0.0,
			"0.0": 0.0,
			"0.0": 0.0,
			"0.0": 0.0,
			"0.0": 0.0,
			"0.0": 0.0,
			"0.0": 0.0,
			"0.0": 0.0,
			"0.0": 0.0,
			"0.0": 0.0,
			"0.0": 0.0,
			"0.0": 0.0,
			"0.0": 0.0,
			"0.0": 0.0,
			"0.0": 0.0,
			"0.0": 0.0,
			"0.0": 0.0
		}
	}
}
