{
	 "smiles": "COC1=CC=C(CNC(=O)C2=CNN=C2N)C=C1", 
	 "Tm": 470.15, 
	 "num_atms": 32, 
	 "gaussian": { 
		 "optdone": 1, 
		 "sigma_profile": "yes", 
		 "theory": "DFT", 
		 "functional": "B3LYP", 
		 "basiset": "6-31G**", 
		 "properties": { 
			 "R2extent": 6256.0273, 
			 "electric_dipole_moment_norm": 5.6434099098, 
			 "electric_quadrupole_moment_norm": 11.3417385912, 
			 "total_energy": -835.155044388, 
			 "HOMO_LUMO_gap": 0.18605, 
			 "cosmo_polarized_energy": -21.2, 
			 "cosmo_cavitation_energy": 35.85, 
			 "cosmo_dispersion_energy": -25.99, 
			 "cosmo_repulsion_energy": 2.03, 
			 "cosmo_total_nonelectrostatic_energy": 11.88, 
			 "SMD_solvation_energy": 6.33 
		},
		"coords": [
			{
				"x": -4.4436982259,
				"y": 0.5504120445,
				"z": -2.9790005748,
				"element": "C" 
			},
			{
				"x": -4.084094372,
				"y": 0.6082344751,
				"z": -1.6082931732,
				"element": "O" 
			},
			{
				"x": -2.7846376909,
				"y": 0.881226416,
				"z": -1.2914661345,
				"element": "C" 
			},
			{
				"x": -2.4870372744,
				"y": 0.9353767943,
				"z": 0.077203909,
				"element": "C" 
			},
			{
				"x": -1.1915397204,
				"y": 1.2067815585,
				"z": 0.5036732189,
				"element": "C" 
			},
			{
				"x": -0.1598897032,
				"y": 1.4306156986,
				"z": -0.4174122344,
				"element": "C" 
			},
			{
				"x": 1.2646690353,
				"y": 1.7621541011,
				"z": 0.0163954606,
				"element": "C" 
			},
			{
				"x": 1.5338061445,
				"y": 1.6444008974,
				"z": 1.440388947,
				"element": "N" 
			},
			{
				"x": 2.1959700229,
				"y": 0.6348313353,
				"z": 2.1071879713,
				"element": "C" 
			},
			{
				"x": 2.6406712498,
				"y": 0.8597808091,
				"z": 3.2412823091,
				"element": "O" 
			},
			{
				"x": 2.3500423102,
				"y": -0.6854236135,
				"z": 1.4861638282,
				"element": "C" 
			},
			{
				"x": 1.6856736986,
				"y": -1.3215420995,
				"z": 0.4382979012,
				"element": "C" 
			},
			{
				"x": 2.1754724911,
				"y": -2.5712691538,
				"z": 0.3781526835,
				"element": "N" 
			},
			{
				"x": 3.1311278706,
				"y": -2.8378738985,
				"z": 1.319584017,
				"element": "N" 
			},
			{
				"x": 3.2368617706,
				"y": -1.6966858865,
				"z": 1.9978634711,
				"element": "C" 
			},
			{
				"x": 4.1365234915,
				"y": -1.5291654976,
				"z": 3.0222444829,
				"element": "N" 
			},
			{
				"x": -0.4684854747,
				"y": 1.3687254782,
				"z": -1.7796816544,
				"element": "C" 
			},
			{
				"x": -1.7642205122,
				"y": 1.0984702624,
				"z": -2.226333282,
				"element": "C" 
			},
			{
				"x": -3.9012457423,
				"y": -0.2438827221,
				"z": -3.5084360262,
				"element": "H" 
			},
			{
				"x": -5.51199278,
				"y": 0.3298287954,
				"z": -3.0017426536,
				"element": "H" 
			},
			{
				"x": -4.2625680192,
				"y": 1.5065542328,
				"z": -3.4870949887,
				"element": "H" 
			},
			{
				"x": -3.2879290206,
				"y": 0.7601564635,
				"z": 0.7882366584,
				"element": "H" 
			},
			{
				"x": -0.9693220259,
				"y": 1.2409952833,
				"z": 1.5655943762,
				"element": "H" 
			},
			{
				"x": 1.4944484973,
				"y": 2.7945873514,
				"z": -0.2763226263,
				"element": "H" 
			},
			{
				"x": 1.9748121289,
				"y": 1.1328090548,
				"z": -0.5311431836,
				"element": "H" 
			},
			{
				"x": 1.5228688474,
				"y": 2.4942438213,
				"z": 1.9886988018,
				"element": "H" 
			},
			{
				"x": 0.894299161,
				"y": -0.9867169267,
				"z": -0.2156213278,
				"element": "H" 
			},
			{
				"x": 1.9038258005,
				"y": -3.3068589341,
				"z": -0.2537644055,
				"element": "H" 
			},
			{
				"x": 3.8779427534,
				"y": -0.7722742327,
				"z": 3.6452730636,
				"element": "H" 
			},
			{
				"x": 4.4479428833,
				"y": -2.3853197851,
				"z": 3.4577020234,
				"element": "H" 
			},
			{
				"x": 0.313836362,
				"y": 1.5374487,
				"z": -2.5173830564,
				"element": "H" 
			},
			{
				"x": -1.9629339571,
				"y": 1.0590791773,
				"z": -3.2908478021,
				"element": "H" 
			}
		],
		 "valence_orbital": [ 
			{
				"type": "occ",
				"energy": -0.25361,
				"method": "rhf"
			},
			{
				"type": "occ",
				"energy": -0.24767,
				"method": "rhf"
			},
			{
				"type": "occ",
				"energy": -0.2413,
				"method": "rhf"
			},
			{
				"type": "occ",
				"energy": -0.22139,
				"method": "rhf"
			},
			{
				"type": "occ",
				"energy": -0.19785,
				"method": "rhf"
			},
			{
				"type": "unocc",
				"energy": -0.0118,
				"method": "rhf"
			},
			{
				"type": "unocc",
				"energy": -0.00596,
				"method": "rhf"
			},
			{
				"type": "unocc",
				"energy": 0.00536,
				"method": "rhf"
			},
			{
				"type": "unocc",
				"energy": 0.04463,
				"method": "rhf"
			},
			{
				"type": "unocc",
				"energy": 0.08054,
				"method": "rhf"
			}
		],
		"cosmo_sigma_profile": { 
			"-0.025": 0.0,
			"-0.024": 0.0,
			"-0.023": 0.0,
			"-0.022": 0.0,
			"-0.021": 0.0,
			"-0.02": 0.0,
			"-0.019": 0.0,
			"-0.018": 0.0,
			"-0.017": 0.582385100318,
			"-0.016": 1.88353010537,
			"-0.015": 1.24215107823,
			"-0.014": 1.24926747296,
			"-0.013": 2.22059183938,
			"-0.012": 3.03069083627,
			"-0.011": 3.36682094042,
			"-0.01": 2.72203283284,
			"-0.009": 3.14884403988,
			"-0.008": 4.61290225739,
			"-0.007": 4.90433949435,
			"-0.006": 12.9449562107,
			"-0.005": 24.4767612621,
			"-0.004": 23.9817962095,
			"-0.003": 23.3438242944,
			"-0.002": 16.3833866118,
			"-0.001": 13.3218067314,
			"0.0": 14.5571013905,
			"0.001": 14.3258304904,
			"0.002": 14.0603502369,
			"0.003": 17.9920205212,
			"0.004": 16.8814776837,
			"0.005": 14.4540315059,
			"0.006": 9.02455592752,
			"0.007": 5.01924772779,
			"0.008": 5.43803845598,
			"0.009": 6.09711176144,
			"0.01": 4.60739136434,
			"0.011": 3.44959615651,
			"0.012": 3.71342670263,
			"0.013": 4.70697493483,
			"0.014": 4.06939851915,
			"0.015": 1.64963885428,
			"0.016": 1.05839636819,
			"0.017": 0.114578962454,
			"0.018": 0.0,
			"0.019": 0.0,
			"0.02": 0.0,
			"0.021": 0.0,
			"0.022": 0.0,
			"0.023": 0.0,
			"0.024": 0.0,
			"0.025": 0.0
		}
	}
}
