{
	 "smiles": "O=C(CCCC[C@@H]1SC[C@@H]2NC(=O)N[C@H]12)ON1C(=O)CCC1=O", 
	 "Tm": 485.15, 
	 "num_atms": 42, 
	 "gaussian": { 
		 "optdone": 1, 
		 "sigma_profile": "yes", 
		 "theory": "DFT", 
		 "functional": "B3LYP", 
		 "basiset": "6-31G**", 
		 "properties": { 
			 "R2extent": 11490.4863, 
			 "electric_dipole_moment_norm": 4.40487317525, 
			 "electric_quadrupole_moment_norm": 19.6325438881, 
			 "total_energy": -1483.5145137, 
			 "HOMO_LUMO_gap": 0.1916, 
			 "cosmo_polarized_energy": -28.37, 
			 "cosmo_cavitation_energy": 46.35, 
			 "cosmo_dispersion_energy": -31.97, 
			 "cosmo_repulsion_energy": 2.45, 
			 "cosmo_total_nonelectrostatic_energy": 16.83, 
			 "SMD_solvation_energy": 8.26 
		},
		"coords": [
			{
				"x": -1.8977776347,
				"y": 0.6443082356,
				"z": 1.0247422453,
				"element": "O" 
			},
			{
				"x": -2.3668784229,
				"y": 0.5454692112,
				"z": -0.075364177,
				"element": "C" 
			},
			{
				"x": -2.4678155335,
				"y": -0.6828929045,
				"z": -0.9419810113,
				"element": "C" 
			},
			{
				"x": -1.6557558297,
				"y": -0.5770211061,
				"z": -2.2549984199,
				"element": "C" 
			},
			{
				"x": -0.1914177245,
				"y": -0.1395120748,
				"z": -2.0871457199,
				"element": "C" 
			},
			{
				"x": 0.63419165,
				"y": -1.0285749666,
				"z": -1.1479556492,
				"element": "C" 
			},
			{
				"x": 2.1139661249,
				"y": -0.6259960568,
				"z": -1.0889469455,
				"element": "C" 
			},
			{
				"x": 3.0061627868,
				"y": -0.8581850438,
				"z": -2.7163457656,
				"element": "S" 
			},
			{
				"x": 4.1151753719,
				"y": -2.1542785151,
				"z": -2.0530212788,
				"element": "C" 
			},
			{
				"x": 4.3131521711,
				"y": -1.816575384,
				"z": -0.5622496809,
				"element": "C" 
			},
			{
				"x": 4.6087628144,
				"y": -2.9645291659,
				"z": 0.2812083325,
				"element": "N" 
			},
			{
				"x": 3.4313927162,
				"y": -3.5495603249,
				"z": 0.7418971203,
				"element": "C" 
			},
			{
				"x": 3.3200982173,
				"y": -4.6220810676,
				"z": 1.3052507033,
				"element": "O" 
			},
			{
				"x": 2.4034699113,
				"y": -2.6601879011,
				"z": 0.4292513281,
				"element": "N" 
			},
			{
				"x": 2.9346592737,
				"y": -1.3702005764,
				"z": -0.0029232822,
				"element": "C" 
			},
			{
				"x": -2.9031493823,
				"y": 1.6433173291,
				"z": -0.7659098149,
				"element": "O" 
			},
			{
				"x": -2.7989158668,
				"y": 2.8195213837,
				"z": -0.0591761144,
				"element": "N" 
			},
			{
				"x": -3.8064357523,
				"y": 3.2286188208,
				"z": 0.8248345974,
				"element": "C" 
			},
			{
				"x": -4.8392403079,
				"y": 2.6376245107,
				"z": 1.0214612622,
				"element": "O" 
			},
			{
				"x": -3.3060930187,
				"y": 4.5341631223,
				"z": 1.4335856436,
				"element": "C" 
			},
			{
				"x": -1.8864370354,
				"y": 4.750412894,
				"z": 0.8664261977,
				"element": "C" 
			},
			{
				"x": -1.6165412356,
				"y": 3.5625687207,
				"z": -0.0499172423,
				"element": "C" 
			},
			{
				"x": -0.611255664,
				"y": 3.2854456798,
				"z": -0.6616224486,
				"element": "O" 
			},
			{
				"x": -2.1288736135,
				"y": -1.5189150717,
				"z": -0.3268701719,
				"element": "H" 
			},
			{
				"x": -3.5243168841,
				"y": -0.8476725564,
				"z": -1.1814837451,
				"element": "H" 
			},
			{
				"x": -1.698943903,
				"y": -1.5589568362,
				"z": -2.7414745298,
				"element": "H" 
			},
			{
				"x": -2.1596241987,
				"y": 0.1279459156,
				"z": -2.9239487692,
				"element": "H" 
			},
			{
				"x": 0.2723488793,
				"y": -0.1405426049,
				"z": -3.081006558,
				"element": "H" 
			},
			{
				"x": -0.159413259,
				"y": 0.8987264494,
				"z": -1.7318975637,
				"element": "H" 
			},
			{
				"x": 0.2266422017,
				"y": -0.9502849813,
				"z": -0.1296889777,
				"element": "H" 
			},
			{
				"x": 0.5585752084,
				"y": -2.080507089,
				"z": -1.4463523957,
				"element": "H" 
			},
			{
				"x": 2.1720662495,
				"y": 0.4466342639,
				"z": -0.8800676506,
				"element": "H" 
			},
			{
				"x": 3.6616421913,
				"y": -3.1435608277,
				"z": -2.159803703,
				"element": "H" 
			},
			{
				"x": 5.0538331426,
				"y": -2.1324260089,
				"z": -2.6123838186,
				"element": "H" 
			},
			{
				"x": 5.0595270273,
				"y": -1.0252255268,
				"z": -0.4508666271,
				"element": "H" 
			},
			{
				"x": 5.380100898,
				"y": -3.5852603194,
				"z": 0.0803565083,
				"element": "H" 
			},
			{
				"x": 1.5811197282,
				"y": -2.7124860981,
				"z": 1.013167723,
				"element": "H" 
			},
			{
				"x": 3.0721485796,
				"y": -0.6985654958,
				"z": 0.8568970996,
				"element": "H" 
			},
			{
				"x": -3.3237915276,
				"y": 4.4340568182,
				"z": 2.5218964584,
				"element": "H" 
			},
			{
				"x": -4.003043705,
				"y": 5.3347364214,
				"z": 1.1704782258,
				"element": "H" 
			},
			{
				"x": -1.7884452967,
				"y": 5.6718941764,
				"z": 0.2856866525,
				"element": "H" 
			},
			{
				"x": -1.1128693475,
				"y": 4.7704545511,
				"z": 1.6384619629,
				"element": "H" 
			}
		],
		 "valence_orbital": [ 
			{
				"type": "occ",
				"energy": -0.27283,
				"method": "rhf"
			},
			{
				"type": "occ",
				"energy": -0.26119,
				"method": "rhf"
			},
			{
				"type": "occ",
				"energy": -0.25574,
				"method": "rhf"
			},
			{
				"type": "occ",
				"energy": -0.24941,
				"method": "rhf"
			},
			{
				"type": "occ",
				"energy": -0.22466,
				"method": "rhf"
			},
			{
				"type": "unocc",
				"energy": -0.03306,
				"method": "rhf"
			},
			{
				"type": "unocc",
				"energy": -0.01732,
				"method": "rhf"
			},
			{
				"type": "unocc",
				"energy": 0.01183,
				"method": "rhf"
			},
			{
				"type": "unocc",
				"energy": 0.02058,
				"method": "rhf"
			},
			{
				"type": "unocc",
				"energy": 0.05332,
				"method": "rhf"
			}
		],
		"cosmo_sigma_profile": { 
			"-0.025": 0.0,
			"-0.024": 0.0,
			"-0.023": 0.0,
			"-0.022": 0.0,
			"-0.021": 0.0,
			"-0.02": 0.0,
			"-0.019": 0.0,
			"-0.018": 0.0,
			"-0.017": 0.0,
			"-0.016": 0.0,
			"-0.015": 0.0141856431186,
			"-0.014": 1.09071747064,
			"-0.013": 2.48964867779,
			"-0.012": 1.64242433267,
			"-0.011": 2.70251668842,
			"-0.01": 1.85747161804,
			"-0.009": 3.66338062175,
			"-0.008": 12.6372332497,
			"-0.007": 21.1687152573,
			"-0.006": 24.3557786594,
			"-0.005": 30.2032640199,
			"-0.004": 29.2997741068,
			"-0.003": 30.3112111928,
			"-0.002": 23.0802351833,
			"-0.001": 20.4760698021,
			"0.0": 12.558384083,
			"0.001": 14.4764309229,
			"0.002": 12.9070736327,
			"0.003": 12.8968447955,
			"0.004": 11.8646303995,
			"0.005": 13.7426769156,
			"0.006": 13.825829904,
			"0.007": 8.9358800225,
			"0.008": 9.78618236075,
			"0.009": 10.084043724,
			"0.01": 12.4457268517,
			"0.011": 10.1435469123,
			"0.012": 4.20457750153,
			"0.013": 3.79498522542,
			"0.014": 6.89974874193,
			"0.015": 1.96582380799,
			"0.016": 0.0,
			"0.017": 0.0,
			"0.018": 0.0,
			"0.019": 0.0,
			"0.02": 0.0,
			"0.021": 0.0,
			"0.022": 0.0,
			"0.023": 0.0,
			"0.024": 0.0,
			"0.025": 0.0
		}
	}
}
