{
	 "smiles": "NCCCC1=NC2=C(N1)C=CC=C2", 
	 "Tm": 484.15, 
	 "num_atms": 26, 
	 "gaussian": { 
		 "optdone": 1, 
		 "sigma_profile": "yes", 
		 "theory": "DFT", 
		 "functional": "B3LYP", 
		 "basiset": "6-31G**", 
		 "properties": { 
			 "R2extent": 3086.5888, 
			 "electric_dipole_moment_norm": 2.52856606993, 
			 "electric_quadrupole_moment_norm": 6.84289880533, 
			 "total_energy": -553.169455163, 
			 "HOMO_LUMO_gap": 0.20732, 
			 "cosmo_polarized_energy": -15.3, 
			 "cosmo_cavitation_energy": 28.83, 
			 "cosmo_dispersion_energy": -21.23, 
			 "cosmo_repulsion_energy": 1.72, 
			 "cosmo_total_nonelectrostatic_energy": 9.31, 
			 "SMD_solvation_energy": 1.74 
		},
		"coords": [
			{
				"x": 2.7572985036,
				"y": 1.6329876154,
				"z": -2.3529017263,
				"element": "N" 
			},
			{
				"x": 3.0354896732,
				"y": 1.7624983907,
				"z": -0.9110362152,
				"element": "C" 
			},
			{
				"x": 2.0308660526,
				"y": 2.7007097737,
				"z": -0.2293445056,
				"element": "C" 
			},
			{
				"x": 0.5595440244,
				"y": 2.2994787236,
				"z": -0.4122597128,
				"element": "C" 
			},
			{
				"x": 0.185308108,
				"y": 1.0000911404,
				"z": 0.2402188877,
				"element": "C" 
			},
			{
				"x": 0.8633050394,
				"y": 0.3765077592,
				"z": 1.1750223269,
				"element": "N" 
			},
			{
				"x": 0.1120712079,
				"y": -0.7498749647,
				"z": 1.488407613,
				"element": "C" 
			},
			{
				"x": -1.0641993906,
				"y": -0.7921078104,
				"z": 0.7011376151,
				"element": "C" 
			},
			{
				"x": -0.9856187119,
				"y": 0.3408849564,
				"z": -0.0916161294,
				"element": "N" 
			},
			{
				"x": -2.0037609926,
				"y": -1.8184243384,
				"z": 0.807810242,
				"element": "C" 
			},
			{
				"x": -1.734413374,
				"y": -2.8204187353,
				"z": 1.7385765896,
				"element": "C" 
			},
			{
				"x": -0.5693426573,
				"y": -2.7956090723,
				"z": 2.5302038169,
				"element": "C" 
			},
			{
				"x": 0.3628731295,
				"y": -1.7679224471,
				"z": 2.4161253621,
				"element": "C" 
			},
			{
				"x": 2.0564978803,
				"y": 0.9106952454,
				"z": -2.5020039786,
				"element": "H" 
			},
			{
				"x": 3.5902210008,
				"y": 1.3005375364,
				"z": -2.831631271,
				"element": "H" 
			},
			{
				"x": 4.033825252,
				"y": 2.2012689153,
				"z": -0.8016717262,
				"element": "H" 
			},
			{
				"x": 3.0480379623,
				"y": 0.8016953645,
				"z": -0.3771147807,
				"element": "H" 
			},
			{
				"x": 2.2607518735,
				"y": 2.746467671,
				"z": 0.8402449042,
				"element": "H" 
			},
			{
				"x": 2.1532426969,
				"y": 3.7071278909,
				"z": -0.6448444236,
				"element": "H" 
			},
			{
				"x": 0.3264090639,
				"y": 2.2522790249,
				"z": -1.484231789,
				"element": "H" 
			},
			{
				"x": -0.0823631426,
				"y": 3.0923300526,
				"z": -0.0025471531,
				"element": "H" 
			},
			{
				"x": -1.6619216392,
				"y": 0.6459085411,
				"z": -0.7742107199,
				"element": "H" 
			},
			{
				"x": -2.9031403584,
				"y": -1.8412118681,
				"z": 0.199331756,
				"element": "H" 
			},
			{
				"x": -2.4393667479,
				"y": -3.6382656672,
				"z": 1.855643139,
				"element": "H" 
			},
			{
				"x": -0.3988469942,
				"y": -3.5965805914,
				"z": 3.2435562969,
				"element": "H" 
			},
			{
				"x": 1.2618325406,
				"y": -1.7433531065,
				"z": 3.0237355819,
				"element": "H" 
			}
		],
		 "valence_orbital": [ 
			{
				"type": "occ",
				"energy": -0.29923,
				"method": "rhf"
			},
			{
				"type": "occ",
				"energy": -0.26593,
				"method": "rhf"
			},
			{
				"type": "occ",
				"energy": -0.22942,
				"method": "rhf"
			},
			{
				"type": "occ",
				"energy": -0.2227,
				"method": "rhf"
			},
			{
				"type": "occ",
				"energy": -0.21722,
				"method": "rhf"
			},
			{
				"type": "unocc",
				"energy": -0.0099,
				"method": "rhf"
			},
			{
				"type": "unocc",
				"energy": 0.02607,
				"method": "rhf"
			},
			{
				"type": "unocc",
				"energy": 0.05727,
				"method": "rhf"
			},
			{
				"type": "unocc",
				"energy": 0.07084,
				"method": "rhf"
			},
			{
				"type": "unocc",
				"energy": 0.08678,
				"method": "rhf"
			}
		],
		"cosmo_sigma_profile": { 
			"-0.025": 0.0,
			"-0.024": 0.0,
			"-0.023": 0.0,
			"-0.022": 0.0,
			"-0.021": 0.0,
			"-0.02": 0.0,
			"-0.019": 0.0,
			"-0.018": 0.0,
			"-0.017": 0.0070425435716,
			"-0.016": 0.903547629838,
			"-0.015": 1.7014224246,
			"-0.014": 0.806551453763,
			"-0.013": 1.36115123083,
			"-0.012": 1.23345626354,
			"-0.011": 1.63743740622,
			"-0.01": 1.57663737041,
			"-0.009": 3.55867061098,
			"-0.008": 4.06699264889,
			"-0.007": 5.44908875139,
			"-0.006": 9.16316687395,
			"-0.005": 14.3196149351,
			"-0.004": 14.0303583771,
			"-0.003": 17.5765701226,
			"-0.002": 18.7041948148,
			"-0.001": 18.2664358918,
			"0.0": 16.976741009,
			"0.001": 13.923913154,
			"0.002": 10.7077844045,
			"0.003": 11.5812349267,
			"0.004": 11.1504414611,
			"0.005": 12.2334921953,
			"0.006": 11.6258529564,
			"0.007": 6.18351996342,
			"0.008": 2.45157097894,
			"0.009": 2.50477921989,
			"0.01": 1.8846952863,
			"0.011": 2.26310919839,
			"0.012": 1.57367763108,
			"0.013": 1.28441509211,
			"0.014": 1.23253652679,
			"0.015": 1.01597651699,
			"0.016": 1.7315220064,
			"0.017": 0.97322602534,
			"0.018": 0.53634942925,
			"0.019": 0.349270189867,
			"0.02": 0.370167775468,
			"0.021": 0.011705962297,
			"0.022": 0.0,
			"0.023": 0.0,
			"0.024": 0.0,
			"0.025": 0.0
		}
	}
}
