{
	 "smiles": "COC1=C(NC(=O)CCCl)C=C(C=C1)[N+]([O-])=O", 
	 "Tm": 433.15, 
	 "num_atms": 28, 
	 "gaussian": { 
		 "optdone": 1, 
		 "sigma_profile": "yes", 
		 "theory": "DFT", 
		 "functional": "B3LYP", 
		 "basiset": "6-31G**", 
		 "properties": { 
			 "R2extent": 5389.0307, 
			 "electric_dipole_moment_norm": 5.11944340041, 
			 "electric_quadrupole_moment_norm": 33.2875002363, 
			 "total_energy": -1258.18770792, 
			 "HOMO_LUMO_gap": 0.14698, 
			 "cosmo_polarized_energy": -19.7, 
			 "cosmo_cavitation_energy": 34.53, 
			 "cosmo_dispersion_energy": -24.1, 
			 "cosmo_repulsion_energy": 1.9, 
			 "cosmo_total_nonelectrostatic_energy": 12.33, 
			 "SMD_solvation_energy": 9.13 
		},
		"coords": [
			{
				"x": 2.0562516344,
				"y": 2.8822967974,
				"z": 1.5323861311,
				"element": "C" 
			},
			{
				"x": 1.5002869841,
				"y": 1.6382797596,
				"z": 1.1136010898,
				"element": "O" 
			},
			{
				"x": 1.2856581481,
				"y": 1.4237839483,
				"z": -0.2086806787,
				"element": "C" 
			},
			{
				"x": 0.7508563867,
				"y": 0.1392161662,
				"z": -0.5211769581,
				"element": "C" 
			},
			{
				"x": 0.5315988884,
				"y": -0.7229685114,
				"z": 0.5595069605,
				"element": "N" 
			},
			{
				"x": -0.3104220727,
				"y": -1.8059819496,
				"z": 0.7934432345,
				"element": "C" 
			},
			{
				"x": -0.1907464762,
				"y": -2.4170030104,
				"z": 1.8420663958,
				"element": "O" 
			},
			{
				"x": -1.3864928682,
				"y": -2.1923292931,
				"z": -0.2173187923,
				"element": "C" 
			},
			{
				"x": -2.4284165215,
				"y": -1.1163549973,
				"z": -0.5213863559,
				"element": "C" 
			},
			{
				"x": -3.3213884401,
				"y": -0.5892465052,
				"z": 0.9685245469,
				"element": "Cl" 
			},
			{
				"x": 0.5488738191,
				"y": -0.1838334535,
				"z": -1.8594914837,
				"element": "C" 
			},
			{
				"x": 0.8148985067,
				"y": 0.7661442707,
				"z": -2.8493293979,
				"element": "C" 
			},
			{
				"x": 1.3165634107,
				"y": 2.0260874201,
				"z": -2.5535898423,
				"element": "C" 
			},
			{
				"x": 1.5611915368,
				"y": 2.3472002991,
				"z": -1.2188655709,
				"element": "C" 
			},
			{
				"x": 0.5693127559,
				"y": 0.4030310724,
				"z": -4.247387571,
				"element": "N" 
			},
			{
				"x": 0.8381355559,
				"y": 1.2374450912,
				"z": -5.1117559669,
				"element": "O" 
			},
			{
				"x": 0.1052786349,
				"y": -0.7161810615,
				"z": -4.4758308952,
				"element": "O" 
			},
			{
				"x": 2.1408820711,
				"y": 2.818759089,
				"z": 2.6171578453,
				"element": "H" 
			},
			{
				"x": 1.3988209774,
				"y": 3.7175850975,
				"z": 1.2661318194,
				"element": "H" 
			},
			{
				"x": 3.0488519459,
				"y": 3.0403556914,
				"z": 1.0952965605,
				"element": "H" 
			},
			{
				"x": 1.044946089,
				"y": -0.4796370289,
				"z": 1.3989713129,
				"element": "H" 
			},
			{
				"x": -0.937042397,
				"y": -2.5072566868,
				"z": -1.1663906391,
				"element": "H" 
			},
			{
				"x": -1.8735950197,
				"y": -3.0685944553,
				"z": 0.2138406225,
				"element": "H" 
			},
			{
				"x": -3.1802162028,
				"y": -1.5056247816,
				"z": -1.2087675504,
				"element": "H" 
			},
			{
				"x": -1.9912652007,
				"y": -0.2159241043,
				"z": -0.9505747158,
				"element": "H" 
			},
			{
				"x": 0.205996462,
				"y": -1.159603698,
				"z": -2.1686057659,
				"element": "H" 
			},
			{
				"x": 1.5127228476,
				"y": 2.7293864028,
				"z": -3.3521986924,
				"element": "H" 
			},
			{
				"x": 1.9586585443,
				"y": 3.3236684311,
				"z": -0.9720756428,
				"element": "H" 
			}
		],
		 "valence_orbital": [ 
			{
				"type": "occ",
				"energy": -0.30005,
				"method": "rhf"
			},
			{
				"type": "occ",
				"energy": -0.29371,
				"method": "rhf"
			},
			{
				"type": "occ",
				"energy": -0.27441,
				"method": "rhf"
			},
			{
				"type": "occ",
				"energy": -0.26669,
				"method": "rhf"
			},
			{
				"type": "occ",
				"energy": -0.23794,
				"method": "rhf"
			},
			{
				"type": "unocc",
				"energy": -0.09096,
				"method": "rhf"
			},
			{
				"type": "unocc",
				"energy": -0.0429,
				"method": "rhf"
			},
			{
				"type": "unocc",
				"energy": -0.00351,
				"method": "rhf"
			},
			{
				"type": "unocc",
				"energy": 0.01538,
				"method": "rhf"
			},
			{
				"type": "unocc",
				"energy": 0.02497,
				"method": "rhf"
			}
		],
		"cosmo_sigma_profile": { 
			"-0.025": 0.0,
			"-0.024": 0.0,
			"-0.023": 0.0,
			"-0.022": 0.0,
			"-0.021": 0.0,
			"-0.02": 0.0,
			"-0.019": 0.0,
			"-0.018": 0.0,
			"-0.017": 0.0,
			"-0.016": 0.0,
			"-0.015": 0.0,
			"-0.014": 0.0,
			"-0.013": 0.0,
			"-0.012": 0.129020960588,
			"-0.011": 1.51730801575,
			"-0.01": 1.8001416521,
			"-0.009": 3.19221493267,
			"-0.008": 8.71104188765,
			"-0.007": 15.1004872202,
			"-0.006": 21.1312043,
			"-0.005": 22.5984352888,
			"-0.004": 20.2170564521,
			"-0.003": 15.9586701374,
			"-0.002": 13.4464252773,
			"-0.001": 17.7044079796,
			"0.0": 17.9294560991,
			"0.001": 18.0462836293,
			"0.002": 14.0398630573,
			"0.003": 8.91447134016,
			"0.004": 8.10182044537,
			"0.005": 10.7700695181,
			"0.006": 14.4615846108,
			"0.007": 9.15151265929,
			"0.008": 11.0665239832,
			"0.009": 6.17853507053,
			"0.01": 5.39976323978,
			"0.011": 2.82098873172,
			"0.012": 4.60365249768,
			"0.013": 3.92219747076,
			"0.014": 0.408780590672,
			"0.015": 0.0,
			"0.016": 0.0,
			"0.017": 0.0,
			"0.018": 0.0,
			"0.019": 0.0,
			"0.02": 0.0,
			"0.021": 0.0,
			"0.022": 0.0,
			"0.023": 0.0,
			"0.024": 0.0,
			"0.025": 0.0
		}
	}
}
