{
	 "smiles": "CN(C)C=NC1=C(I)C=C(I)C(CCC(O)=O)=C1I", 
	 "Tm": 441.15, 
	 "num_atms": 32, 
	 "gaussian": { 
		 "optdone": 1, 
		 "sigma_profile": "no", 
		 "theory": "DFT", 
		 "functional": "B3LYP", 
		 "basiset": "6-31G**", 
		 "properties": { 
			 "R2extent": 8618.829, 
			 "electric_dipole_moment_norm": 4.67617001509, 
			 "electric_quadrupole_moment_norm": 18.3668366691, 
			 "total_energy": -759.22513732, 
			 "HOMO_LUMO_gap": 0.15181, 
			 "cosmo_polarized_energy": -216458.88, 
			 "cosmo_cavitation_energy": 45.19, 
			 "cosmo_dispersion_energy": -33.75, 
			 "cosmo_repulsion_energy": 2.58, 
			 "cosmo_total_nonelectrostatic_energy": 14.03, 
			 "SMD_solvation_energy": 5.97 
		},
		"coords": [
			{
				"x": -1.8897546661,
				"y": -3.5716810843,
				"z": 1.9444876956,
				"element": "C" 
			},
			{
				"x": -0.6978696195,
				"y": -2.9631098077,
				"z": 1.3844343483,
				"element": "N" 
			},
			{
				"x": 0.4893193204,
				"y": -3.7974317496,
				"z": 1.2764822015,
				"element": "C" 
			},
			{
				"x": -0.6735846545,
				"y": -1.6565068639,
				"z": 1.0326478825,
				"element": "C" 
			},
			{
				"x": 0.365986122,
				"y": -1.070602318,
				"z": 0.547072151,
				"element": "N" 
			},
			{
				"x": 0.333863861,
				"y": 0.2796302733,
				"z": 0.2379149247,
				"element": "C" 
			},
			{
				"x": 0.342270299,
				"y": 1.2968000421,
				"z": 1.2169100846,
				"element": "C" 
			},
			{
				"x": 0.317123308,
				"y": 0.8226786355,
				"z": 3.2894281544,
				"element": "I" 
			},
			{
				"x": 0.404262428,
				"y": 2.6440345239,
				"z": 0.8763876891,
				"element": "C" 
			},
			{
				"x": 0.4607597948,
				"y": 3.013387389,
				"z": -0.46520319,
				"element": "C" 
			},
			{
				"x": 0.5768673337,
				"y": 5.1099304503,
				"z": -0.8432685287,
				"element": "I" 
			},
			{
				"x": 0.4571901002,
				"y": 2.0650686354,
				"z": -1.5061635841,
				"element": "C" 
			},
			{
				"x": 0.5231993347,
				"y": 2.4793783609,
				"z": -2.9596807444,
				"element": "C" 
			},
			{
				"x": 1.9662280295,
				"y": 2.5763457177,
				"z": -3.4770398119,
				"element": "C" 
			},
			{
				"x": 2.0197431218,
				"y": 2.9821338482,
				"z": -4.9331179936,
				"element": "C" 
			},
			{
				"x": 3.2978398542,
				"y": 3.0884073444,
				"z": -5.3711678796,
				"element": "O" 
			},
			{
				"x": 1.0650937783,
				"y": 3.1923578415,
				"z": -5.6491823901,
				"element": "O" 
			},
			{
				"x": 0.4053855106,
				"y": 0.7156176616,
				"z": -1.1092068051,
				"element": "C" 
			},
			{
				"x": 0.4154538778,
				"y": -0.8362711453,
				"z": -2.5775504275,
				"element": "I" 
			},
			{
				"x": -2.2075964621,
				"y": -4.4317190287,
				"z": 1.3418706473,
				"element": "H" 
			},
			{
				"x": -1.7092020508,
				"y": -3.9207518984,
				"z": 2.9694979307,
				"element": "H" 
			},
			{
				"x": -2.7052461168,
				"y": -2.8455612934,
				"z": 1.966549161,
				"element": "H" 
			},
			{
				"x": 1.2782323906,
				"y": -3.2214054058,
				"z": 0.7949374771,
				"element": "H" 
			},
			{
				"x": 0.2702483091,
				"y": -4.6903385988,
				"z": 0.6793374975,
				"element": "H" 
			},
			{
				"x": 0.8278704326,
				"y": -4.117732963,
				"z": 2.2699959172,
				"element": "H" 
			},
			{
				"x": -1.6309509841,
				"y": -1.1446880497,
				"z": 1.1800441404,
				"element": "H" 
			},
			{
				"x": 0.4139481664,
				"y": 3.3990063042,
				"z": 1.6514690465,
				"element": "H" 
			},
			{
				"x": -0.0295019944,
				"y": 1.769838067,
				"z": -3.5771605579,
				"element": "H" 
			},
			{
				"x": 0.0335430362,
				"y": 3.4464567624,
				"z": -3.0894102386,
				"element": "H" 
			},
			{
				"x": 2.4893431595,
				"y": 1.618639998,
				"z": -3.3740536949,
				"element": "H" 
			},
			{
				"x": 2.548813482,
				"y": 3.3032633897,
				"z": -2.8996316394,
				"element": "H" 
			},
			{
				"x": 3.2409214981,
				"y": 3.3476249612,
				"z": -6.3062294635,
				"element": "H" 
			}
		],
		 "valence_orbital": [ 
			{
				"type": "occ",
				"energy": -0.26459,
				"method": "rhf"
			},
			{
				"type": "occ",
				"energy": -0.26224,
				"method": "rhf"
			},
			{
				"type": "occ",
				"energy": -0.23899,
				"method": "rhf"
			},
			{
				"type": "occ",
				"energy": -0.23438,
				"method": "rhf"
			},
			{
				"type": "occ",
				"energy": -0.2182,
				"method": "rhf"
			},
			{
				"type": "unocc",
				"energy": -0.06639,
				"method": "rhf"
			},
			{
				"type": "unocc",
				"energy": -0.0295,
				"method": "rhf"
			},
			{
				"type": "unocc",
				"energy": -0.02657,
				"method": "rhf"
			},
			{
				"type": "unocc",
				"energy": -0.02357,
				"method": "rhf"
			},
			{
				"type": "unocc",
				"energy": -0.0219,
				"method": "rhf"
			}
		],
		"cosmo_sigma_profile": { 
			"0.0": 0.0,
			"0.0": 0.0,
			"0.0": 0.0,
			"0.0": 0.0,
			"0.0": 0.0,
			"0.0": 0.0,
			"0.0": 0.0,
			"0.0": 0.0,
			"0.0": 0.0,
			"0.0": 0.0,
			"0.0": 0.0,
			"0.0": 0.0,
			"0.0": 0.0,
			"0.0": 0.0,
			"0.0": 0.0,
			"0.0": 0.0,
			"0.0": 0.0,
			"0.0": 0.0,
			"0.0": 0.0,
			"0.0": 0.0,
			"0.0": 0.0,
			"0.0": 0.0,
			"0.0": 0.0,
			"0.0": 0.0,
			"0.0": 0.0,
			"0.0": 0.0,
			"0.0": 0.0,
			"0.0": 0.0,
			"0.0": 0.0,
			"0.0": 0.0,
			"0.0": 0.0,
			"0.0": 0.0,
			"0.0": 0.0,
			"0.0": 0.0,
			"0.0": 0.0,
			"0.0": 0.0,
			"0.0": 0.0,
			"0.0": 0.0,
			"0.0": 0.0,
			"0.0": 0.0,
			"0.0": 0.0,
			"0.0": 0.0,
			"0.0": 0.0,
			"0.0": 0.0,
			"0.0": 0.0,
			"0.0": 0.0,
			"0.0": 0.0,
			"0.0": 0.0,
			"0.0": 0.0,
			"0.0": 0.0,
			"0.0": 0.0
		}
	}
}
