{
	 "smiles": "COC1=CC2=NSN=C2C=C1", 
	 "Tm": 355.65, 
	 "num_atms": 17, 
	 "gaussian": { 
		 "optdone": 1, 
		 "sigma_profile": "yes", 
		 "theory": "DFT", 
		 "functional": "B3LYP", 
		 "basiset": "6-31G**", 
		 "properties": { 
			 "R2extent": 3078.8271, 
			 "electric_dipole_moment_norm": 2.79437476012, 
			 "electric_quadrupole_moment_norm": 4.74185672285, 
			 "total_energy": -853.239235853, 
			 "HOMO_LUMO_gap": 0.15011, 
			 "cosmo_polarized_energy": -7.29, 
			 "cosmo_cavitation_energy": 22.9, 
			 "cosmo_dispersion_energy": -18.07, 
			 "cosmo_repulsion_energy": 1.37, 
			 "cosmo_total_nonelectrostatic_energy": 6.2, 
			 "SMD_solvation_energy": 1.42 
		},
		"coords": [
			{
				"x": 0.595140498,
				"y": 1.864269403,
				"z": 1.0588355765,
				"element": "C" 
			},
			{
				"x": 0.6516716356,
				"y": 1.3885516556,
				"z": -0.2793985715,
				"element": "O" 
			},
			{
				"x": 0.5534609548,
				"y": 0.0491636107,
				"z": -0.4845899783,
				"element": "C" 
			},
			{
				"x": 0.4019519876,
				"y": -0.894869859,
				"z": 0.5052603691,
				"element": "C" 
			},
			{
				"x": 0.315476777,
				"y": -2.2609460807,
				"z": 0.1087371984,
				"element": "C" 
			},
			{
				"x": 0.1677005116,
				"y": -3.3069547764,
				"z": 0.9294613282,
				"element": "N" 
			},
			{
				"x": 0.1242947054,
				"y": -4.6469477132,
				"z": -0.0317762625,
				"element": "S" 
			},
			{
				"x": 0.2911509352,
				"y": -3.9457581782,
				"z": -1.5124320786,
				"element": "N" 
			},
			{
				"x": 0.3859969951,
				"y": -2.6318575335,
				"z": -1.2932340172,
				"element": "C" 
			},
			{
				"x": 0.5436771237,
				"y": -1.616607343,
				"z": -2.2856371617,
				"element": "C" 
			},
			{
				"x": 0.6236262527,
				"y": -0.3172436033,
				"z": -1.8773176079,
				"element": "C" 
			},
			{
				"x": 1.4165903827,
				"y": 1.457529839,
				"z": 1.6615716072,
				"element": "H" 
			},
			{
				"x": 0.6912224979,
				"y": 2.9488600698,
				"z": 0.9979084197,
				"element": "H" 
			},
			{
				"x": -0.3602161989,
				"y": 1.6077501174,
				"z": 1.5331845903,
				"element": "H" 
			},
			{
				"x": 0.3465985899,
				"y": -0.6467173942,
				"z": 1.5566622179,
				"element": "H" 
			},
			{
				"x": 0.5965135892,
				"y": -1.8918534114,
				"z": -3.3330587114,
				"element": "H" 
			},
			{
				"x": 0.7436427621,
				"y": 0.4919311975,
				"z": -2.5901769182,
				"element": "H" 
			}
		],
		 "valence_orbital": [ 
			{
				"type": "occ",
				"energy": -0.31642,
				"method": "rhf"
			},
			{
				"type": "occ",
				"energy": -0.3148,
				"method": "rhf"
			},
			{
				"type": "occ",
				"energy": -0.29392,
				"method": "rhf"
			},
			{
				"type": "occ",
				"energy": -0.25183,
				"method": "rhf"
			},
			{
				"type": "occ",
				"energy": -0.22786,
				"method": "rhf"
			},
			{
				"type": "unocc",
				"energy": -0.07775,
				"method": "rhf"
			},
			{
				"type": "unocc",
				"energy": 0.0093,
				"method": "rhf"
			},
			{
				"type": "unocc",
				"energy": 0.01648,
				"method": "rhf"
			},
			{
				"type": "unocc",
				"energy": 0.02125,
				"method": "rhf"
			},
			{
				"type": "unocc",
				"energy": 0.07667,
				"method": "rhf"
			}
		],
		"cosmo_sigma_profile": { 
			"-0.025": 0.0,
			"-0.024": 0.0,
			"-0.023": 0.0,
			"-0.022": 0.0,
			"-0.021": 0.0,
			"-0.02": 0.0,
			"-0.019": 0.0,
			"-0.018": 0.0,
			"-0.017": 0.0,
			"-0.016": 0.0,
			"-0.015": 0.0,
			"-0.014": 0.0,
			"-0.013": 0.0,
			"-0.012": 0.0,
			"-0.011": 0.0,
			"-0.01": 0.0,
			"-0.009": 0.0,
			"-0.008": 1.03998796354,
			"-0.007": 6.34465382296,
			"-0.006": 11.2942154904,
			"-0.005": 12.8080832362,
			"-0.004": 14.9459603448,
			"-0.003": 15.0502820803,
			"-0.002": 13.9886389371,
			"-0.001": 16.277553326,
			"0.0": 18.2836256884,
			"0.001": 18.9266813266,
			"0.002": 15.0319599868,
			"0.003": 10.2376207415,
			"0.004": 4.8337914228,
			"0.005": 4.92755587989,
			"0.006": 3.02406138749,
			"0.007": 4.27613772014,
			"0.008": 3.16786332742,
			"0.009": 3.35496219217,
			"0.01": 2.47569129582,
			"0.011": 2.12342172061,
			"0.012": 1.7739122509,
			"0.013": 2.14921355002,
			"0.014": 0.491792241193,
			"0.015": 0.0,
			"0.016": 0.0,
			"0.017": 0.0,
			"0.018": 0.0,
			"0.019": 0.0,
			"0.02": 0.0,
			"0.021": 0.0,
			"0.022": 0.0,
			"0.023": 0.0,
			"0.024": 0.0,
			"0.025": 0.0
		}
	}
}
