{
	 "smiles": "CCOC(=O)C1=C(C)N=C(N)S1", 
	 "Tm": 451.15, 
	 "num_atms": 22, 
	 "gaussian": { 
		 "optdone": 1, 
		 "sigma_profile": "yes", 
		 "theory": "DFT", 
		 "functional": "B3LYP", 
		 "basiset": "6-31G**", 
		 "properties": { 
			 "R2extent": 2961.6512, 
			 "electric_dipole_moment_norm": 2.20878699064, 
			 "electric_quadrupole_moment_norm": 21.8895598665, 
			 "total_energy": -930.931339898, 
			 "HOMO_LUMO_gap": 0.17523, 
			 "cosmo_polarized_energy": -13.73, 
			 "cosmo_cavitation_energy": 27.76, 
			 "cosmo_dispersion_energy": -20.62, 
			 "cosmo_repulsion_energy": 1.64, 
			 "cosmo_total_nonelectrostatic_energy": 8.77, 
			 "SMD_solvation_energy": 4.18 
		},
		"coords": [
			{
				"x": -0.8501307695,
				"y": 3.2801236311,
				"z": -1.0694251973,
				"element": "C" 
			},
			{
				"x": -1.8279577684,
				"y": 2.1334596054,
				"z": -0.8596174908,
				"element": "C" 
			},
			{
				"x": -1.1936994528,
				"y": 1.0078441897,
				"z": -0.2081673815,
				"element": "O" 
			},
			{
				"x": -0.5286178624,
				"y": 0.1461276777,
				"z": -1.0202887188,
				"element": "C" 
			},
			{
				"x": -0.4574069649,
				"y": 0.2764760387,
				"z": -2.2323927082,
				"element": "O" 
			},
			{
				"x": 0.0838038523,
				"y": -0.9550723512,
				"z": -0.2868350288,
				"element": "C" 
			},
			{
				"x": 0.1345104663,
				"y": -1.2761792985,
				"z": 1.0561704739,
				"element": "C" 
			},
			{
				"x": -0.490170324,
				"y": -0.5085476265,
				"z": 2.1866922933,
				"element": "C" 
			},
			{
				"x": 0.8336110337,
				"y": -2.4168860662,
				"z": 1.3641914164,
				"element": "N" 
			},
			{
				"x": 1.3159149803,
				"y": -2.9825331795,
				"z": 0.2815168,
				"element": "C" 
			},
			{
				"x": 2.0050564238,
				"y": -4.1621430903,
				"z": 0.3135260923,
				"element": "N" 
			},
			{
				"x": 0.957106458,
				"y": -2.1637148109,
				"z": -1.2271367654,
				"element": "S" 
			},
			{
				"x": -0.0587505505,
				"y": 2.9850532517,
				"z": -1.76239263,
				"element": "H" 
			},
			{
				"x": -0.397205418,
				"y": 3.5854397602,
				"z": -0.1213319304,
				"element": "H" 
			},
			{
				"x": -1.374648777,
				"y": 4.1432041437,
				"z": -1.4932560756,
				"element": "H" 
			},
			{
				"x": -2.2499400775,
				"y": 1.7987272579,
				"z": -1.8100377075,
				"element": "H" 
			},
			{
				"x": -2.6372509306,
				"y": 2.4163324753,
				"z": -0.1818320686,
				"element": "H" 
			},
			{
				"x": -0.2369179486,
				"y": 0.5525427277,
				"z": 2.1364835824,
				"element": "H" 
			},
			{
				"x": -0.1456551053,
				"y": -0.9275062693,
				"z": 3.1334621987,
				"element": "H" 
			},
			{
				"x": -1.5825062148,
				"y": -0.574358837,
				"z": 2.147918926,
				"element": "H" 
			},
			{
				"x": 2.3158204234,
				"y": -4.4400679139,
				"z": 1.2340507253,
				"element": "H" 
			},
			{
				"x": 2.6324345266,
				"y": -4.3777213157,
				"z": -0.4458988057,
				"element": "H" 
			}
		],
		 "valence_orbital": [ 
			{
				"type": "occ",
				"energy": -0.29162,
				"method": "rhf"
			},
			{
				"type": "occ",
				"energy": -0.28831,
				"method": "rhf"
			},
			{
				"type": "occ",
				"energy": -0.27452,
				"method": "rhf"
			},
			{
				"type": "occ",
				"energy": -0.25831,
				"method": "rhf"
			},
			{
				"type": "occ",
				"energy": -0.21409,
				"method": "rhf"
			},
			{
				"type": "unocc",
				"energy": -0.03886,
				"method": "rhf"
			},
			{
				"type": "unocc",
				"energy": 0.01042,
				"method": "rhf"
			},
			{
				"type": "unocc",
				"energy": 0.03562,
				"method": "rhf"
			},
			{
				"type": "unocc",
				"energy": 0.07035,
				"method": "rhf"
			},
			{
				"type": "unocc",
				"energy": 0.09838,
				"method": "rhf"
			}
		],
		"cosmo_sigma_profile": { 
			"-0.025": 0.0,
			"-0.024": 0.0,
			"-0.023": 0.0,
			"-0.022": 0.0,
			"-0.021": 0.0,
			"-0.02": 0.0,
			"-0.019": 0.0,
			"-0.018": 0.0,
			"-0.017": 0.0,
			"-0.016": 0.345736885941,
			"-0.015": 1.86837034182,
			"-0.014": 2.57129273702,
			"-0.013": 2.18031051154,
			"-0.012": 2.89404827588,
			"-0.011": 2.47013327337,
			"-0.01": 1.58736703217,
			"-0.009": 1.50082863939,
			"-0.008": 2.53781503125,
			"-0.007": 1.78863114825,
			"-0.006": 3.06344375198,
			"-0.005": 6.6871235988,
			"-0.004": 14.7629646192,
			"-0.003": 18.1780912916,
			"-0.002": 17.4919362822,
			"-0.001": 21.0924193677,
			"0.0": 24.129939865,
			"0.001": 20.6041161359,
			"0.002": 16.2579588626,
			"0.003": 13.9321297103,
			"0.004": 9.99750539054,
			"0.005": 6.52889407962,
			"0.006": 4.48772947145,
			"0.007": 3.90180743592,
			"0.008": 3.19075715517,
			"0.009": 3.00877515073,
			"0.01": 2.93965644217,
			"0.011": 3.44775364094,
			"0.012": 5.0684356297,
			"0.013": 2.01694509126,
			"0.014": 0.68981058179,
			"0.015": 0.333978030932,
			"0.016": 0.0,
			"0.017": 0.0,
			"0.018": 0.0,
			"0.019": 0.0,
			"0.02": 0.0,
			"0.021": 0.0,
			"0.022": 0.0,
			"0.023": 0.0,
			"0.024": 0.0,
			"0.025": 0.0
		}
	}
}
