{
	 "smiles": "NC1=C(N=CN1C1CC1)C1=CC=CC=C1", 
	 "Tm": 422.15, 
	 "num_atms": 28, 
	 "gaussian": { 
		 "optdone": 1, 
		 "sigma_profile": "yes", 
		 "theory": "DFT", 
		 "functional": "B3LYP", 
		 "basiset": "6-31G**", 
		 "properties": { 
			 "R2extent": 3945.3002, 
			 "electric_dipole_moment_norm": 5.13797030548, 
			 "electric_quadrupole_moment_norm": 13.8332178559, 
			 "total_energy": -629.333362297, 
			 "HOMO_LUMO_gap": 0.18004, 
			 "cosmo_polarized_energy": -15.61, 
			 "cosmo_cavitation_energy": 31.01, 
			 "cosmo_dispersion_energy": -22.7, 
			 "cosmo_repulsion_energy": 1.76, 
			 "cosmo_total_nonelectrostatic_energy": 10.07, 
			 "SMD_solvation_energy": 3.56 
		},
		"coords": [
			{
				"x": 0.8114470971,
				"y": 1.3471546904,
				"z": -1.2475058354,
				"element": "N" 
			},
			{
				"x": -0.2780557549,
				"y": 0.4963725937,
				"z": -1.0427155059,
				"element": "C" 
			},
			{
				"x": -0.6009158924,
				"y": -0.3779584693,
				"z": -0.0142987884,
				"element": "C" 
			},
			{
				"x": -1.8189214708,
				"y": -0.9859929547,
				"z": -0.2983109742,
				"element": "N" 
			},
			{
				"x": -2.2207799042,
				"y": -0.4887309501,
				"z": -1.4345943912,
				"element": "C" 
			},
			{
				"x": -1.3282048618,
				"y": 0.4403888738,
				"z": -1.9421978574,
				"element": "N" 
			},
			{
				"x": -1.4111180763,
				"y": 1.1064843653,
				"z": -3.2103977316,
				"element": "C" 
			},
			{
				"x": -1.3817990929,
				"y": 2.6180550956,
				"z": -3.2451252992,
				"element": "C" 
			},
			{
				"x": -2.6634326268,
				"y": 1.8836911175,
				"z": -3.5330268812,
				"element": "C" 
			},
			{
				"x": 0.1611808299,
				"y": -0.7043524695,
				"z": 1.1933049184,
				"element": "C" 
			},
			{
				"x": 1.1196332229,
				"y": 0.1714592894,
				"z": 1.7389091923,
				"element": "C" 
			},
			{
				"x": 1.8490411648,
				"y": -0.1829708902,
				"z": 2.8749301625,
				"element": "C" 
			},
			{
				"x": 1.6284954189,
				"y": -1.4095834993,
				"z": 3.5014891999,
				"element": "C" 
			},
			{
				"x": 0.6597222744,
				"y": -2.2760505591,
				"z": 2.9849215381,
				"element": "C" 
			},
			{
				"x": -0.0640257235,
				"y": -1.930875031,
				"z": 1.8475931344,
				"element": "C" 
			},
			{
				"x": 1.0299217682,
				"y": 1.4849051699,
				"z": -2.2279859471,
				"element": "H" 
			},
			{
				"x": 1.632656811,
				"y": 1.0230163067,
				"z": -0.7497400432,
				"element": "H" 
			},
			{
				"x": -3.1366734816,
				"y": -0.7292526666,
				"z": -1.9563014805,
				"element": "H" 
			},
			{
				"x": -0.9323031907,
				"y": 0.5761765964,
				"z": -4.0326085558,
				"element": "H" 
			},
			{
				"x": -0.8565469533,
				"y": 3.0920833249,
				"z": -4.0684157365,
				"element": "H" 
			},
			{
				"x": -1.2919638676,
				"y": 3.1283268789,
				"z": -2.2923796189,
				"element": "H" 
			},
			{
				"x": -3.0273238071,
				"y": 1.8450477979,
				"z": -4.5545475928,
				"element": "H" 
			},
			{
				"x": -3.4377906959,
				"y": 1.909097654,
				"z": -2.7736711023,
				"element": "H" 
			},
			{
				"x": 1.2601111231,
				"y": 1.1584553594,
				"z": 1.3075451724,
				"element": "H" 
			},
			{
				"x": 2.5801231259,
				"y": 0.511926545,
				"z": 3.2799037209,
				"element": "H" 
			},
			{
				"x": 2.1951158095,
				"y": -1.6837780858,
				"z": 4.3867288871,
				"element": "H" 
			},
			{
				"x": 0.4704803101,
				"y": -3.2293931291,
				"z": 3.4714304079,
				"element": "H" 
			},
			{
				"x": -0.817273556,
				"y": -2.5992029542,
				"z": 1.4441670078,
				"element": "H" 
			}
		],
		 "valence_orbital": [ 
			{
				"type": "occ",
				"energy": -0.27265,
				"method": "rhf"
			},
			{
				"type": "occ",
				"energy": -0.25652,
				"method": "rhf"
			},
			{
				"type": "occ",
				"energy": -0.23601,
				"method": "rhf"
			},
			{
				"type": "occ",
				"energy": -0.23336,
				"method": "rhf"
			},
			{
				"type": "occ",
				"energy": -0.17725,
				"method": "rhf"
			},
			{
				"type": "unocc",
				"energy": 0.00279,
				"method": "rhf"
			},
			{
				"type": "unocc",
				"energy": 0.01259,
				"method": "rhf"
			},
			{
				"type": "unocc",
				"energy": 0.03689,
				"method": "rhf"
			},
			{
				"type": "unocc",
				"energy": 0.07036,
				"method": "rhf"
			},
			{
				"type": "unocc",
				"energy": 0.09001,
				"method": "rhf"
			}
		],
		"cosmo_sigma_profile": { 
			"-0.025": 0.0,
			"-0.024": 0.0,
			"-0.023": 0.0,
			"-0.022": 0.0,
			"-0.021": 0.0,
			"-0.02": 0.0,
			"-0.019": 0.0,
			"-0.018": 0.0,
			"-0.017": 0.0,
			"-0.016": 0.0,
			"-0.015": 0.0,
			"-0.014": 0.0,
			"-0.013": 0.0824150301703,
			"-0.012": 1.50488556775,
			"-0.011": 2.26057411262,
			"-0.01": 2.91955157222,
			"-0.009": 2.49370403168,
			"-0.008": 3.68277526578,
			"-0.007": 4.67518086238,
			"-0.006": 11.5399101818,
			"-0.005": 21.869936332,
			"-0.004": 20.2787975838,
			"-0.003": 22.8352876386,
			"-0.002": 17.9234810279,
			"-0.001": 17.5190838122,
			"0.0": 13.1506631337,
			"0.001": 11.5439033094,
			"0.002": 13.2214738538,
			"0.003": 11.8385654711,
			"0.004": 12.0076381458,
			"0.005": 15.5386746626,
			"0.006": 14.7254655951,
			"0.007": 8.19661778129,
			"0.008": 3.06386541476,
			"0.009": 2.49274802001,
			"0.01": 2.20259642209,
			"0.011": 2.52361942024,
			"0.012": 1.52980786259,
			"0.013": 1.86154932455,
			"0.014": 0.872883664872,
			"0.015": 0.759891417129,
			"0.016": 1.1754292165,
			"0.017": 0.647411624631,
			"0.018": 0.0234310460097,
			"0.019": 0.0,
			"0.02": 0.0,
			"0.021": 0.0,
			"0.022": 0.0,
			"0.023": 0.0,
			"0.024": 0.0,
			"0.025": 0.0
		}
	}
}
