{
	 "smiles": "NCC1CCC(CC1)C(O)=O", 
	 "Tm": 573.15, 
	 "num_atms": 26, 
	 "gaussian": { 
		 "optdone": 1, 
		 "sigma_profile": "yes", 
		 "theory": "DFT", 
		 "functional": "B3LYP", 
		 "basiset": "6-31G**", 
		 "properties": { 
			 "R2extent": 1939.4571, 
			 "electric_dipole_moment_norm": 1.20551659051, 
			 "electric_quadrupole_moment_norm": 6.84703901479, 
			 "total_energy": -519.118755476, 
			 "HOMO_LUMO_gap": 0.24046, 
			 "cosmo_polarized_energy": -11.13, 
			 "cosmo_cavitation_energy": 26.48, 
			 "cosmo_dispersion_energy": -19.4, 
			 "cosmo_repulsion_energy": 1.59, 
			 "cosmo_total_nonelectrostatic_energy": 8.67, 
			 "SMD_solvation_energy": 3.93 
		},
		"coords": [
			{
				"x": 2.4736322584,
				"y": -0.720935287,
				"z": -1.6693540404,
				"element": "N" 
			},
			{
				"x": 2.7390875596,
				"y": -0.6484357693,
				"z": -0.2269777764,
				"element": "C" 
			},
			{
				"x": 1.5030199795,
				"y": -0.1998637556,
				"z": 0.5723871951,
				"element": "C" 
			},
			{
				"x": 0.3476220273,
				"y": -1.2148699013,
				"z": 0.4792947217,
				"element": "C" 
			},
			{
				"x": -0.8838834699,
				"y": -0.7756614927,
				"z": 1.2878049815,
				"element": "C" 
			},
			{
				"x": -1.3622505199,
				"y": 0.6345623541,
				"z": 0.900494413,
				"element": "C" 
			},
			{
				"x": -0.2007989847,
				"y": 1.6533582288,
				"z": 0.9763996073,
				"element": "C" 
			},
			{
				"x": 1.0197055661,
				"y": 1.2026040582,
				"z": 0.1612665735,
				"element": "C" 
			},
			{
				"x": -2.0492117543,
				"y": 0.632874228,
				"z": -0.4588743792,
				"element": "C" 
			},
			{
				"x": -2.3899699102,
				"y": 1.8844221551,
				"z": -0.8591128553,
				"element": "O" 
			},
			{
				"x": -2.3170064169,
				"y": -0.3435281264,
				"z": -1.1272834183,
				"element": "O" 
			},
			{
				"x": 1.9048116971,
				"y": -1.5364288046,
				"z": -1.8809586995,
				"element": "H" 
			},
			{
				"x": 3.3459413299,
				"y": -0.8451045807,
				"z": -2.1756648169,
				"element": "H" 
			},
			{
				"x": 3.5367665418,
				"y": 0.090093148,
				"z": -0.0777321812,
				"element": "H" 
			},
			{
				"x": 3.1073301858,
				"y": -1.5977322211,
				"z": 0.2037800105,
				"element": "H" 
			},
			{
				"x": 1.8189317473,
				"y": -0.1527412215,
				"z": 1.6273869397,
				"element": "H" 
			},
			{
				"x": 0.0449573227,
				"y": -1.3353522635,
				"z": -0.567401282,
				"element": "H" 
			},
			{
				"x": 0.684871966,
				"y": -2.1986932387,
				"z": 0.8313968313,
				"element": "H" 
			},
			{
				"x": -1.6975979658,
				"y": -1.4940241096,
				"z": 1.1509298845,
				"element": "H" 
			},
			{
				"x": -0.6352370384,
				"y": -0.7654377243,
				"z": 2.3571854787,
				"element": "H" 
			},
			{
				"x": -2.1417755629,
				"y": 0.9601309988,
				"z": 1.6045251647,
				"element": "H" 
			},
			{
				"x": 0.0834010184,
				"y": 1.7530830411,
				"z": 2.0324625476,
				"element": "H" 
			},
			{
				"x": -0.5450402977,
				"y": 2.6373342642,
				"z": 0.6457322646,
				"element": "H" 
			},
			{
				"x": 1.8330423209,
				"y": 1.9282138109,
				"z": 0.2904231167,
				"element": "H" 
			},
			{
				"x": 0.7845743052,
				"y": 1.1940381261,
				"z": -0.9096232777,
				"element": "H" 
			},
			{
				"x": -2.8345239053,
				"y": 1.775994083,
				"z": -1.7165870035,
				"element": "H" 
			}
		],
		 "valence_orbital": [ 
			{
				"type": "occ",
				"energy": -0.30851,
				"method": "rhf"
			},
			{
				"type": "occ",
				"energy": -0.29921,
				"method": "rhf"
			},
			{
				"type": "occ",
				"energy": -0.29175,
				"method": "rhf"
			},
			{
				"type": "occ",
				"energy": -0.26608,
				"method": "rhf"
			},
			{
				"type": "occ",
				"energy": -0.22864,
				"method": "rhf"
			},
			{
				"type": "unocc",
				"energy": 0.01182,
				"method": "rhf"
			},
			{
				"type": "unocc",
				"energy": 0.07816,
				"method": "rhf"
			},
			{
				"type": "unocc",
				"energy": 0.08222,
				"method": "rhf"
			},
			{
				"type": "unocc",
				"energy": 0.09425,
				"method": "rhf"
			},
			{
				"type": "unocc",
				"energy": 0.12196,
				"method": "rhf"
			}
		],
		"cosmo_sigma_profile": { 
			"-0.025": 0.0,
			"-0.024": 0.0,
			"-0.023": 0.0,
			"-0.022": 0.0,
			"-0.021": 0.0,
			"-0.02": 0.0,
			"-0.019": 0.0,
			"-0.018": 0.424987972174,
			"-0.017": 0.783806160821,
			"-0.016": 1.24564191588,
			"-0.015": 0.362951221992,
			"-0.014": 0.90225887797,
			"-0.013": 0.707280449951,
			"-0.012": 0.346732001353,
			"-0.011": 0.648884855993,
			"-0.01": 1.48569935314,
			"-0.009": 2.77688170401,
			"-0.008": 3.06172086377,
			"-0.007": 2.9932892161,
			"-0.006": 5.33007635795,
			"-0.005": 6.56605938633,
			"-0.004": 5.52039362238,
			"-0.003": 13.7765544402,
			"-0.002": 29.220588336,
			"-0.001": 34.1761090605,
			"0.0": 27.5473913658,
			"0.001": 14.0963835304,
			"0.002": 7.13505458288,
			"0.003": 5.3642435325,
			"0.004": 4.575047332,
			"0.005": 3.37236720552,
			"0.006": 3.29034783541,
			"0.007": 4.04952308358,
			"0.008": 4.34367631338,
			"0.009": 3.32707320881,
			"0.01": 3.00661852112,
			"0.011": 3.07224688385,
			"0.012": 5.56794693479,
			"0.013": 1.58934356783,
			"0.014": 0.606340390127,
			"0.015": 0.540166656377,
			"0.016": 0.676622146916,
			"0.017": 0.609838831647,
			"0.018": 0.244465170613,
			"0.019": 0.0,
			"0.02": 0.0,
			"0.021": 0.0,
			"0.022": 0.0,
			"0.023": 0.0,
			"0.024": 0.0,
			"0.025": 0.0
		}
	}
}
