{
	 "smiles": "NC1=NNC2=C1C=CC=C2Cl", 
	 "Tm": 463.15, 
	 "num_atms": 17, 
	 "gaussian": { 
		 "optdone": 1, 
		 "sigma_profile": "yes", 
		 "theory": "DFT", 
		 "functional": "B3LYP", 
		 "basiset": "6-31G**", 
		 "properties": { 
			 "R2extent": 2175.6886, 
			 "electric_dipole_moment_norm": 1.96563282685, 
			 "electric_quadrupole_moment_norm": 7.29870710948, 
			 "total_energy": -894.796071636, 
			 "HOMO_LUMO_gap": 0.16997, 
			 "cosmo_polarized_energy": -11.28, 
			 "cosmo_cavitation_energy": 23.11, 
			 "cosmo_dispersion_energy": -17.57, 
			 "cosmo_repulsion_energy": 1.41, 
			 "cosmo_total_nonelectrostatic_energy": 6.95, 
			 "SMD_solvation_energy": 2.4 
		},
		"coords": [
			{
				"x": -2.7198982868,
				"y": -0.7320762998,
				"z": -1.1861319625,
				"element": "N" 
			},
			{
				"x": -1.797938967,
				"y": -0.7599347086,
				"z": -0.1429849234,
				"element": "C" 
			},
			{
				"x": -2.0699604699,
				"y": -1.3404336573,
				"z": 1.0118867632,
				"element": "N" 
			},
			{
				"x": -0.9840060944,
				"y": -1.0992057015,
				"z": 1.8173733908,
				"element": "N" 
			},
			{
				"x": -0.0166496881,
				"y": -0.3936044229,
				"z": 1.1774241908,
				"element": "C" 
			},
			{
				"x": -0.5037308811,
				"y": -0.1300065215,
				"z": -0.1279598204,
				"element": "C" 
			},
			{
				"x": 0.2702767404,
				"y": 0.6099712179,
				"z": -1.0360033306,
				"element": "C" 
			},
			{
				"x": 1.5174427534,
				"y": 1.0599347481,
				"z": -0.6283067339,
				"element": "C" 
			},
			{
				"x": 2.0065689304,
				"y": 0.7894194003,
				"z": 0.6705774776,
				"element": "C" 
			},
			{
				"x": 1.2467754797,
				"y": 0.0687018439,
				"z": 1.5751105459,
				"element": "C" 
			},
			{
				"x": 1.8233917224,
				"y": -0.2781265029,
				"z": 3.197890097,
				"element": "Cl" 
			},
			{
				"x": -3.5021787532,
				"y": -1.3518285017,
				"z": -1.0105131081,
				"element": "H" 
			},
			{
				"x": -2.3105607662,
				"y": -0.9150038799,
				"z": -2.0943106573,
				"element": "H" 
			},
			{
				"x": -0.9755435696,
				"y": -1.4537526278,
				"z": 2.7588327517,
				"element": "H" 
			},
			{
				"x": -0.1008758719,
				"y": 0.8346333067,
				"z": -2.0314232314,
				"element": "H" 
			},
			{
				"x": 2.1370362542,
				"y": 1.635920048,
				"z": -1.3080702126,
				"element": "H" 
			},
			{
				"x": 2.9849514676,
				"y": 1.150092259,
				"z": 0.9694087631,
				"element": "H" 
			}
		],
		 "valence_orbital": [ 
			{
				"type": "occ",
				"energy": -0.32074,
				"method": "rhf"
			},
			{
				"type": "occ",
				"energy": -0.29465,
				"method": "rhf"
			},
			{
				"type": "occ",
				"energy": -0.25651,
				"method": "rhf"
			},
			{
				"type": "occ",
				"energy": -0.24616,
				"method": "rhf"
			},
			{
				"type": "occ",
				"energy": -0.20122,
				"method": "rhf"
			},
			{
				"type": "unocc",
				"energy": -0.03125,
				"method": "rhf"
			},
			{
				"type": "unocc",
				"energy": 0.01095,
				"method": "rhf"
			},
			{
				"type": "unocc",
				"energy": 0.02695,
				"method": "rhf"
			},
			{
				"type": "unocc",
				"energy": 0.06618,
				"method": "rhf"
			},
			{
				"type": "unocc",
				"energy": 0.08024,
				"method": "rhf"
			}
		],
		"cosmo_sigma_profile": { 
			"-0.025": 0.0,
			"-0.024": 0.0,
			"-0.023": 0.0,
			"-0.022": 0.0,
			"-0.021": 0.0,
			"-0.02": 0.0,
			"-0.019": 0.0,
			"-0.018": 0.0,
			"-0.017": 0.0,
			"-0.016": 0.480208589473,
			"-0.015": 0.873107161102,
			"-0.014": 1.15516441033,
			"-0.013": 1.0365639572,
			"-0.012": 2.85357488963,
			"-0.011": 3.08146727844,
			"-0.01": 4.64706788845,
			"-0.009": 3.93587917637,
			"-0.008": 3.12417632231,
			"-0.007": 5.8958195751,
			"-0.006": 9.00329621767,
			"-0.005": 8.4393531922,
			"-0.004": 7.85707580372,
			"-0.003": 6.95859453529,
			"-0.002": 7.87685814539,
			"-0.001": 8.6539813137,
			"0.0": 10.3080604013,
			"0.001": 13.316172586,
			"0.002": 19.2774981451,
			"0.003": 19.1057898811,
			"0.004": 19.5946062463,
			"0.005": 9.74795881408,
			"0.006": 3.00548258428,
			"0.007": 2.50893675864,
			"0.008": 2.00608796108,
			"0.009": 2.1645535257,
			"0.01": 2.19592185845,
			"0.011": 1.32665508579,
			"0.012": 1.8322630746,
			"0.013": 1.74942765782,
			"0.014": 1.56224507225,
			"0.015": 1.38956900356,
			"0.016": 0.227648320608,
			"0.017": 0.0,
			"0.018": 0.0,
			"0.019": 0.0,
			"0.02": 0.0,
			"0.021": 0.0,
			"0.022": 0.0,
			"0.023": 0.0,
			"0.024": 0.0,
			"0.025": 0.0
		}
	}
}
