{
	 "smiles": "CC(=O)NC1=C(O)C=CC(=C1)S(Cl)(=O)=O", 
	 "Tm": 563.15, 
	 "num_atms": 23, 
	 "gaussian": { 
		 "optdone": 1, 
		 "sigma_profile": "yes", 
		 "theory": "DFT", 
		 "functional": "B3LYP", 
		 "basiset": "6-31G**", 
		 "properties": { 
			 "R2extent": 5511.418, 
			 "electric_dipole_moment_norm": 6.00251081715, 
			 "electric_quadrupole_moment_norm": 24.222924825, 
			 "total_energy": -1523.63955758, 
			 "HOMO_LUMO_gap": 0.16115, 
			 "cosmo_polarized_energy": -22.51, 
			 "cosmo_cavitation_energy": 31.44, 
			 "cosmo_dispersion_energy": -22.93, 
			 "cosmo_repulsion_energy": 1.78, 
			 "cosmo_total_nonelectrostatic_energy": 10.29, 
			 "SMD_solvation_energy": 5.53 
		},
		"coords": [
			{
				"x": -1.1932897072,
				"y": 2.5731102652,
				"z": -1.8961036779,
				"element": "C" 
			},
			{
				"x": 0.0431409964,
				"y": 1.8554546109,
				"z": -2.3978788981,
				"element": "C" 
			},
			{
				"x": 0.6788680628,
				"y": 2.2242909788,
				"z": -3.370668879,
				"element": "O" 
			},
			{
				"x": 0.4417716808,
				"y": 0.7124833264,
				"z": -1.7123225661,
				"element": "N" 
			},
			{
				"x": -0.1280686989,
				"y": 0.1079607703,
				"z": -0.5695859041,
				"element": "C" 
			},
			{
				"x": -0.1467628167,
				"y": 0.7718868989,
				"z": 0.681110607,
				"element": "C" 
			},
			{
				"x": 0.3777739872,
				"y": 2.0195620418,
				"z": 0.7329831198,
				"element": "O" 
			},
			{
				"x": -0.6878175942,
				"y": 0.1424007206,
				"z": 1.8102010674,
				"element": "C" 
			},
			{
				"x": -1.1744096463,
				"y": -1.1570458444,
				"z": 1.7342957457,
				"element": "C" 
			},
			{
				"x": -1.1271065609,
				"y": -1.8130046995,
				"z": 0.5042006037,
				"element": "C" 
			},
			{
				"x": -0.6208975116,
				"y": -1.1955397099,
				"z": -0.6402856393,
				"element": "C" 
			},
			{
				"x": -1.74997103,
				"y": -3.4744806014,
				"z": 0.3845110576,
				"element": "S" 
			},
			{
				"x": 0.0049991993,
				"y": -4.6235341946,
				"z": 0.8004558819,
				"element": "Cl" 
			},
			{
				"x": -2.0975132184,
				"y": -3.7636483456,
				"z": -1.0010591148,
				"element": "O" 
			},
			{
				"x": -2.6654428646,
				"y": -3.7262911939,
				"z": 1.4906116137,
				"element": "O" 
			},
			{
				"x": -0.9404590364,
				"y": 3.1809093443,
				"z": -1.0230226293,
				"element": "H" 
			},
			{
				"x": -1.5467213434,
				"y": 3.2255872231,
				"z": -2.69418144,
				"element": "H" 
			},
			{
				"x": -1.9858990722,
				"y": 1.8773845104,
				"z": -1.6058214389,
				"element": "H" 
			},
			{
				"x": 1.2116858326,
				"y": 0.2347781964,
				"z": -2.1649936854,
				"element": "H" 
			},
			{
				"x": 0.3331262658,
				"y": 2.3563196683,
				"z": 1.6381488109,
				"element": "H" 
			},
			{
				"x": -0.7072869568,
				"y": 0.6719088457,
				"z": 2.7596158815,
				"element": "H" 
			},
			{
				"x": -1.5881418777,
				"y": -1.6511268096,
				"z": 2.6056995353,
				"element": "H" 
			},
			{
				"x": -0.6182780897,
				"y": -1.7172660026,
				"z": -1.5910100517,
				"element": "H" 
			}
		],
		 "valence_orbital": [ 
			{
				"type": "occ",
				"energy": -0.3157,
				"method": "rhf"
			},
			{
				"type": "occ",
				"energy": -0.31202,
				"method": "rhf"
			},
			{
				"type": "occ",
				"energy": -0.2822,
				"method": "rhf"
			},
			{
				"type": "occ",
				"energy": -0.26188,
				"method": "rhf"
			},
			{
				"type": "occ",
				"energy": -0.25385,
				"method": "rhf"
			},
			{
				"type": "unocc",
				"energy": -0.0927,
				"method": "rhf"
			},
			{
				"type": "unocc",
				"energy": -0.05336,
				"method": "rhf"
			},
			{
				"type": "unocc",
				"energy": -0.04338,
				"method": "rhf"
			},
			{
				"type": "unocc",
				"energy": 0.01912,
				"method": "rhf"
			},
			{
				"type": "unocc",
				"energy": 0.03054,
				"method": "rhf"
			}
		],
		"cosmo_sigma_profile": { 
			"-0.025": 0.0,
			"-0.024": 0.0,
			"-0.023": 0.0,
			"-0.022": 0.0,
			"-0.021": 0.0,
			"-0.02": 0.224845044531,
			"-0.019": 1.0296200265,
			"-0.018": 1.51673181217,
			"-0.017": 1.53744821462,
			"-0.016": 0.557630748202,
			"-0.015": 1.56823922482,
			"-0.014": 2.18944151917,
			"-0.013": 2.19712481487,
			"-0.012": 1.44874166359,
			"-0.011": 2.72952259091,
			"-0.01": 1.90197263972,
			"-0.009": 4.25527069968,
			"-0.008": 6.59411314998,
			"-0.007": 6.24717636202,
			"-0.006": 7.05143037573,
			"-0.005": 9.34120664772,
			"-0.004": 12.7403504639,
			"-0.003": 14.2863721596,
			"-0.002": 19.3723135746,
			"-0.001": 23.8577587252,
			"0.0": 21.10865885,
			"0.001": 15.4551273871,
			"0.002": 12.1017589932,
			"0.003": 15.5261617379,
			"0.004": 14.8893846482,
			"0.005": 5.45289414376,
			"0.006": 6.4462789596,
			"0.007": 7.95495014735,
			"0.008": 11.6015105254,
			"0.009": 7.29535567981,
			"0.01": 2.07230201128,
			"0.011": 1.16271574483,
			"0.012": 2.81781387897,
			"0.013": 5.58181678403,
			"0.014": 3.10234736274,
			"0.015": 0.331365380259,
			"0.016": 0.0,
			"0.017": 0.0,
			"0.018": 0.0,
			"0.019": 0.0,
			"0.02": 0.0,
			"0.021": 0.0,
			"0.022": 0.0,
			"0.023": 0.0,
			"0.024": 0.0,
			"0.025": 0.0
		}
	}
}
