{
	 "smiles": "NC1=C(CO)C=CN=C1", 
	 "Tm": 386.15, 
	 "num_atms": 17, 
	 "gaussian": { 
		 "optdone": 1, 
		 "sigma_profile": "yes", 
		 "theory": "DFT", 
		 "functional": "B3LYP", 
		 "basiset": "6-31G**", 
		 "properties": { 
			 "R2extent": 1367.1646, 
			 "electric_dipole_moment_norm": 2.39467272503, 
			 "electric_quadrupole_moment_norm": 10.6779190201, 
			 "total_energy": -418.176065574, 
			 "HOMO_LUMO_gap": 0.18895, 
			 "cosmo_polarized_energy": -12.46, 
			 "cosmo_cavitation_energy": 20.31, 
			 "cosmo_dispersion_energy": -15.39, 
			 "cosmo_repulsion_energy": 1.27, 
			 "cosmo_total_nonelectrostatic_energy": 6.18, 
			 "SMD_solvation_energy": 2.14 
		},
		"coords": [
			{
				"x": -1.1628762573,
				"y": -2.0940565925,
				"z": -0.7582731668,
				"element": "N" 
			},
			{
				"x": -1.1016052467,
				"y": -1.1418426198,
				"z": 0.248865473,
				"element": "C" 
			},
			{
				"x": 0.1401965607,
				"y": -0.6267001594,
				"z": 0.6855718377,
				"element": "C" 
			},
			{
				"x": 1.4245174954,
				"y": -1.0960849192,
				"z": 0.0472657326,
				"element": "C" 
			},
			{
				"x": 1.4260290439,
				"y": -0.9673900052,
				"z": -1.3827995267,
				"element": "O" 
			},
			{
				"x": 0.1298493286,
				"y": 0.2963623676,
				"z": 1.7313667318,
				"element": "C" 
			},
			{
				"x": -1.077595546,
				"y": 0.6719951287,
				"z": 2.3202083905,
				"element": "C" 
			},
			{
				"x": -2.2577954493,
				"y": 0.1833808987,
				"z": 1.9180930986,
				"element": "N" 
			},
			{
				"x": -2.2587953249,
				"y": -0.691093153,
				"z": 0.9126238894,
				"element": "C" 
			},
			{
				"x": -0.4217944312,
				"y": -2.0210950937,
				"z": -1.4458444698,
				"element": "H" 
			},
			{
				"x": -2.078543277,
				"y": -2.2477054905,
				"z": -1.1567100616,
				"element": "H" 
			},
			{
				"x": 2.2810907109,
				"y": -0.5683194946,
				"z": 0.4887887075,
				"element": "H" 
			},
			{
				"x": 1.5662173477,
				"y": -2.1679942951,
				"z": 0.2268701445,
				"element": "H" 
			},
			{
				"x": 1.2669306695,
				"y": -0.0357992004,
				"z": -1.58766742,
				"element": "H" 
			},
			{
				"x": 1.0659988122,
				"y": 0.7176487592,
				"z": 2.0902301923,
				"element": "H" 
			},
			{
				"x": -1.0994024297,
				"y": 1.3889472443,
				"z": 3.1379099731,
				"element": "H" 
			},
			{
				"x": -3.2319220069,
				"y": -1.074253375,
				"z": 0.6017004739,
				"element": "H" 
			}
		],
		 "valence_orbital": [ 
			{
				"type": "occ",
				"energy": -0.32741,
				"method": "rhf"
			},
			{
				"type": "occ",
				"energy": -0.29317,
				"method": "rhf"
			},
			{
				"type": "occ",
				"energy": -0.26937,
				"method": "rhf"
			},
			{
				"type": "occ",
				"energy": -0.24548,
				"method": "rhf"
			},
			{
				"type": "occ",
				"energy": -0.20938,
				"method": "rhf"
			},
			{
				"type": "unocc",
				"energy": -0.02043,
				"method": "rhf"
			},
			{
				"type": "unocc",
				"energy": 0.00806,
				"method": "rhf"
			},
			{
				"type": "unocc",
				"energy": 0.07057,
				"method": "rhf"
			},
			{
				"type": "unocc",
				"energy": 0.0985,
				"method": "rhf"
			},
			{
				"type": "unocc",
				"energy": 0.11087,
				"method": "rhf"
			}
		],
		"cosmo_sigma_profile": { 
			"-0.025": 0.0,
			"-0.024": 0.0,
			"-0.023": 0.0,
			"-0.022": 0.0,
			"-0.021": 0.0,
			"-0.02": 0.0,
			"-0.019": 0.0,
			"-0.018": 0.0,
			"-0.017": 0.0191231004624,
			"-0.016": 0.615247356059,
			"-0.015": 0.873571800957,
			"-0.014": 1.3529566235,
			"-0.013": 0.854501516329,
			"-0.012": 2.14280753282,
			"-0.011": 2.54549370252,
			"-0.01": 2.47915297041,
			"-0.009": 2.12876754642,
			"-0.008": 3.27206244907,
			"-0.007": 4.53308146463,
			"-0.006": 8.31576346313,
			"-0.005": 12.3572701959,
			"-0.004": 10.5231660391,
			"-0.003": 11.6258088398,
			"-0.002": 9.21387553393,
			"-0.001": 8.34359373865,
			"0.0": 7.36044310113,
			"0.001": 6.91801723578,
			"0.002": 7.59972185419,
			"0.003": 11.4691238577,
			"0.004": 11.8926600472,
			"0.005": 5.26938610812,
			"0.006": 4.72814336237,
			"0.007": 2.61741976526,
			"0.008": 3.41961703205,
			"0.009": 3.04778371064,
			"0.01": 2.73834353514,
			"0.011": 2.51370799386,
			"0.012": 2.75908136384,
			"0.013": 2.72125735241,
			"0.014": 1.77471687432,
			"0.015": 0.853092718059,
			"0.016": 0.668828294152,
			"0.017": 0.943622938303,
			"0.018": 0.0894738977311,
			"0.019": 0.0,
			"0.02": 0.0,
			"0.021": 0.0,
			"0.022": 0.0,
			"0.023": 0.0,
			"0.024": 0.0,
			"0.025": 0.0
		}
	}
}
