{
	 "smiles": "OCCCN1C(=O)C2=C(Cl)C(Cl)=C(Cl)C(Cl)=C2[C@]1(O)C1=CC=CO1", 
	 "Tm": 467.5, 
	 "num_atms": 35, 
	 "gaussian": { 
		 "optdone": 1, 
		 "sigma_profile": "yes", 
		 "theory": "DFT", 
		 "functional": "B3LYP", 
		 "basiset": "6-31G**", 
		 "properties": { 
			 "R2extent": 11617.1244, 
			 "electric_dipole_moment_norm": 5.48056688765, 
			 "electric_quadrupole_moment_norm": 10.2335664819, 
			 "total_energy": -2774.59542121, 
			 "HOMO_LUMO_gap": 0.17436, 
			 "cosmo_polarized_energy": -17.24, 
			 "cosmo_cavitation_energy": 45.74, 
			 "cosmo_dispersion_energy": -31.14, 
			 "cosmo_repulsion_energy": 2.38, 
			 "cosmo_total_nonelectrostatic_energy": 16.98, 
			 "SMD_solvation_energy": 7.67 
		},
		"coords": [
			{
				"x": 0.2252436406,
				"y": 5.2473000788,
				"z": -1.0483208129,
				"element": "O" 
			},
			{
				"x": 0.4340221737,
				"y": 4.4351663763,
				"z": -2.2005412977,
				"element": "C" 
			},
			{
				"x": 0.4011139391,
				"y": 2.938003529,
				"z": -1.8886024625,
				"element": "C" 
			},
			{
				"x": 1.4688944742,
				"y": 2.5510084241,
				"z": -0.8579110427,
				"element": "C" 
			},
			{
				"x": 1.4229496311,
				"y": 1.1442147067,
				"z": -0.4688834239,
				"element": "N" 
			},
			{
				"x": 1.8988456342,
				"y": 0.1461390932,
				"z": -1.2905801131,
				"element": "C" 
			},
			{
				"x": 2.2777572614,
				"y": 0.296889983,
				"z": -2.4385559489,
				"element": "O" 
			},
			{
				"x": 1.8423371536,
				"y": -1.1154267714,
				"z": -0.4761903926,
				"element": "C" 
			},
			{
				"x": 2.1782795083,
				"y": -2.4223205085,
				"z": -0.8168031253,
				"element": "C" 
			},
			{
				"x": 2.7273433957,
				"y": -2.8120809667,
				"z": -2.4145386154,
				"element": "Cl" 
			},
			{
				"x": 2.0601401699,
				"y": -3.4219828648,
				"z": 0.1691895046,
				"element": "C" 
			},
			{
				"x": 2.4637479836,
				"y": -5.0659934132,
				"z": -0.2128987444,
				"element": "Cl" 
			},
			{
				"x": 1.6172172851,
				"y": -3.0912823885,
				"z": 1.4667564505,
				"element": "C" 
			},
			{
				"x": 1.4862346936,
				"y": -4.3245278624,
				"z": 2.6796822787,
				"element": "Cl" 
			},
			{
				"x": 1.2808203617,
				"y": -1.7611117249,
				"z": 1.7837626011,
				"element": "C" 
			},
			{
				"x": 0.7463673574,
				"y": -1.3319615929,
				"z": 3.3865636434,
				"element": "Cl" 
			},
			{
				"x": 1.390042821,
				"y": -0.7914446221,
				"z": 0.7990774154,
				"element": "C" 
			},
			{
				"x": 1.125056461,
				"y": 0.7216061061,
				"z": 0.8940496851,
				"element": "C" 
			},
			{
				"x": 2.0294551157,
				"y": 1.3457347239,
				"z": 1.7789927106,
				"element": "O" 
			},
			{
				"x": -0.3098070696,
				"y": 1.0490257926,
				"z": 1.2651019813,
				"element": "C" 
			},
			{
				"x": -1.5142290323,
				"y": 0.8114296136,
				"z": 0.6717031717,
				"element": "C" 
			},
			{
				"x": -2.5114507981,
				"y": 1.3480661116,
				"z": 1.5509027341,
				"element": "C" 
			},
			{
				"x": -1.8432812338,
				"y": 1.8713780546,
				"z": 2.6140315003,
				"element": "C" 
			},
			{
				"x": -0.4972750393,
				"y": 1.6976665368,
				"z": 2.4541223821,
				"element": "O" 
			},
			{
				"x": -0.6712154973,
				"y": 5.0777558734,
				"z": -0.7301589331,
				"element": "H" 
			},
			{
				"x": 1.4206139232,
				"y": 4.7200748434,
				"z": -2.5827196806,
				"element": "H" 
			},
			{
				"x": -0.2968820322,
				"y": 4.6667335277,
				"z": -2.9903464934,
				"element": "H" 
			},
			{
				"x": -0.5917120696,
				"y": 2.6641220377,
				"z": -1.5072111186,
				"element": "H" 
			},
			{
				"x": 0.5624558856,
				"y": 2.3684020337,
				"z": -2.8101698967,
				"element": "H" 
			},
			{
				"x": 1.3591409881,
				"y": 3.1496383135,
				"z": 0.0476962108,
				"element": "H" 
			},
			{
				"x": 2.4642991608,
				"y": 2.7572839647,
				"z": -1.2673748832,
				"element": "H" 
			},
			{
				"x": 1.5673442477,
				"y": 1.536575327,
				"z": 2.6077693246,
				"element": "H" 
			},
			{
				"x": -1.6744460889,
				"y": 0.3141953374,
				"z": -0.2738060992,
				"element": "H" 
			},
			{
				"x": -3.5819636095,
				"y": 1.3417325125,
				"z": 1.4049877203,
				"element": "H" 
			},
			{
				"x": -2.1471607957,
				"y": 2.3797898139,
				"z": 3.5153237696,
				"element": "H" 
			}
		],
		 "valence_orbital": [ 
			{
				"type": "occ",
				"energy": -0.2744,
				"method": "rhf"
			},
			{
				"type": "occ",
				"energy": -0.26707,
				"method": "rhf"
			},
			{
				"type": "occ",
				"energy": -0.26194,
				"method": "rhf"
			},
			{
				"type": "occ",
				"energy": -0.25847,
				"method": "rhf"
			},
			{
				"type": "occ",
				"energy": -0.24328,
				"method": "rhf"
			},
			{
				"type": "unocc",
				"energy": -0.06892,
				"method": "rhf"
			},
			{
				"type": "unocc",
				"energy": -0.05207,
				"method": "rhf"
			},
			{
				"type": "unocc",
				"energy": -0.0352,
				"method": "rhf"
			},
			{
				"type": "unocc",
				"energy": -0.01331,
				"method": "rhf"
			},
			{
				"type": "unocc",
				"energy": 0.01682,
				"method": "rhf"
			}
		],
		"cosmo_sigma_profile": { 
			"-0.025": 0.0,
			"-0.024": 0.0,
			"-0.023": 0.0,
			"-0.022": 0.0,
			"-0.021": 0.0,
			"-0.02": 0.0,
			"-0.019": 0.0,
			"-0.018": 0.0,
			"-0.017": 0.0,
			"-0.016": 0.150971029101,
			"-0.015": 0.80866897634,
			"-0.014": 1.27095912525,
			"-0.013": 1.67940071183,
			"-0.012": 1.27590773216,
			"-0.011": 1.21774798192,
			"-0.01": 1.99767408318,
			"-0.009": 3.29152414708,
			"-0.008": 5.18558519588,
			"-0.007": 7.8389734149,
			"-0.006": 7.37837373653,
			"-0.005": 12.4230311288,
			"-0.004": 24.0433600496,
			"-0.003": 40.3038926624,
			"-0.002": 44.0158388561,
			"-0.001": 31.6787360728,
			"0.0": 25.4621392432,
			"0.001": 28.9970921909,
			"0.002": 37.1947680952,
			"0.003": 38.3283667235,
			"0.004": 15.68314522,
			"0.005": 5.73930464615,
			"0.006": 4.95565060942,
			"0.007": 4.27075973384,
			"0.008": 3.11585038981,
			"0.009": 4.09892457591,
			"0.01": 4.74064299426,
			"0.011": 4.53277696921,
			"0.012": 6.21717928255,
			"0.013": 3.09451964907,
			"0.014": 1.92989808075,
			"0.015": 0.582023423314,
			"0.016": 0.0,
			"0.017": 0.0,
			"0.018": 0.0,
			"0.019": 0.0,
			"0.02": 0.0,
			"0.021": 0.0,
			"0.022": 0.0,
			"0.023": 0.0,
			"0.024": 0.0,
			"0.025": 0.0
		}
	}
}
