{
	 "smiles": "OC(=O)C1=C(C(O)=O)C(C(O)=O)=C(C(O)=O)C(C(O)=O)=C1C(O)=O", 
	 "Tm": 560.15, 
	 "num_atms": 30, 
	 "gaussian": { 
		 "optdone": 1, 
		 "sigma_profile": "yes", 
		 "theory": "DFT", 
		 "functional": "B3LYP", 
		 "basiset": "6-31G**", 
		 "properties": { 
			 "R2extent": 7802.8521, 
			 "electric_dipole_moment_norm": 4.1838984285, 
			 "electric_quadrupole_moment_norm": 31.8068423851, 
			 "total_energy": -1363.61169791, 
			 "HOMO_LUMO_gap": 0.18757, 
			 "cosmo_polarized_energy": -38.64, 
			 "cosmo_cavitation_energy": 37.8, 
			 "cosmo_dispersion_energy": -25.74, 
			 "cosmo_repulsion_energy": 1.97, 
			 "cosmo_total_nonelectrostatic_energy": 14.03, 
			 "SMD_solvation_energy": 12.21 
		},
		"coords": [
			{
				"x": -1.2411357642,
				"y": -2.3693620774,
				"z": -2.8257354381,
				"element": "O" 
			},
			{
				"x": -1.4605102361,
				"y": -1.6797718693,
				"z": -1.6776709046,
				"element": "C" 
			},
			{
				"x": -2.366702726,
				"y": -1.9244607076,
				"z": -0.9208032285,
				"element": "O" 
			},
			{
				"x": -0.4172485451,
				"y": -0.6150252559,
				"z": -1.4504826301,
				"element": "C" 
			},
			{
				"x": -0.2572606931,
				"y": 0.4797620997,
				"z": -2.310740447,
				"element": "C" 
			},
			{
				"x": -1.2313663635,
				"y": 0.814276839,
				"z": -3.4345921544,
				"element": "C" 
			},
			{
				"x": -1.5034770674,
				"y": -0.1245923062,
				"z": -4.3497364174,
				"element": "O" 
			},
			{
				"x": -1.7500800719,
				"y": 1.9031950943,
				"z": -3.4722255229,
				"element": "O" 
			},
			{
				"x": 0.7253993435,
				"y": 1.4442039844,
				"z": -2.0144813213,
				"element": "C" 
			},
			{
				"x": 0.9395664681,
				"y": 2.5762892698,
				"z": -2.9925236683,
				"element": "C" 
			},
			{
				"x": 0.8479014577,
				"y": 3.7797232048,
				"z": -2.4040783204,
				"element": "O" 
			},
			{
				"x": 1.1678351336,
				"y": 2.3947164631,
				"z": -4.1640032278,
				"element": "O" 
			},
			{
				"x": 1.5446957527,
				"y": 1.3023537158,
				"z": -0.8925597153,
				"element": "C" 
			},
			{
				"x": 2.6420327164,
				"y": 2.313833277,
				"z": -0.6642068753,
				"element": "C" 
			},
			{
				"x": 2.5791869132,
				"y": 2.8438492147,
				"z": 0.5711763773,
				"element": "O" 
			},
			{
				"x": 3.4442380282,
				"y": 2.6346267128,
				"z": -1.5075842261,
				"element": "O" 
			},
			{
				"x": 1.3639233204,
				"y": 0.2206409124,
				"z": -0.0056545939,
				"element": "C" 
			},
			{
				"x": 2.4158117622,
				"y": 0.0301137119,
				"z": 1.0791170807,
				"element": "C" 
			},
			{
				"x": 2.0097841056,
				"y": -0.2610505627,
				"z": 2.322821219,
				"element": "O" 
			},
			{
				"x": 3.5877765142,
				"y": 0.13493083,
				"z": 0.8099269668,
				"element": "O" 
			},
			{
				"x": 0.3632062593,
				"y": -0.7228044256,
				"z": -0.2806978572,
				"element": "C" 
			},
			{
				"x": 0.1209309834,
				"y": -1.9290653866,
				"z": 0.5914647995,
				"element": "C" 
			},
			{
				"x": -0.3176139704,
				"y": -1.5806497257,
				"z": 1.8301173373,
				"element": "O" 
			},
			{
				"x": 0.2616052792,
				"y": -3.0726310184,
				"z": 0.2384595299,
				"element": "O" 
			},
			{
				"x": -1.9484735245,
				"y": -3.0346821171,
				"z": -2.9014096499,
				"element": "H" 
			},
			{
				"x": -1.0401409095,
				"y": -0.9566947315,
				"z": -4.1561936887,
				"element": "H" 
			},
			{
				"x": 1.0352626181,
				"y": 4.4419338005,
				"z": -3.0915268304,
				"element": "H" 
			},
			{
				"x": 3.3460457444,
				"y": 3.434738732,
				"z": 0.6635003312,
				"element": "H" 
			},
			{
				"x": 1.0427148208,
				"y": -0.3522457418,
				"z": 2.3743550658,
				"element": "H" 
			},
			{
				"x": -0.4577073494,
				"y": -2.4066519362,
				"z": 2.3271680101,
				"element": "H" 
			}
		],
		 "valence_orbital": [ 
			{
				"type": "occ",
				"energy": -0.31259,
				"method": "rhf"
			},
			{
				"type": "occ",
				"energy": -0.29998,
				"method": "rhf"
			},
			{
				"type": "occ",
				"energy": -0.29614,
				"method": "rhf"
			},
			{
				"type": "occ",
				"energy": -0.2899,
				"method": "rhf"
			},
			{
				"type": "occ",
				"energy": -0.28449,
				"method": "rhf"
			},
			{
				"type": "unocc",
				"energy": -0.09692,
				"method": "rhf"
			},
			{
				"type": "unocc",
				"energy": -0.09289,
				"method": "rhf"
			},
			{
				"type": "unocc",
				"energy": -0.04396,
				"method": "rhf"
			},
			{
				"type": "unocc",
				"energy": -0.03999,
				"method": "rhf"
			},
			{
				"type": "unocc",
				"energy": -0.0125,
				"method": "rhf"
			}
		],
		"cosmo_sigma_profile": { 
			"-0.025": 0.0,
			"-0.024": 0.0,
			"-0.023": 0.0,
			"-0.022": 0.0,
			"-0.021": 0.281475652131,
			"-0.02": 2.97795931831,
			"-0.019": 4.30821255215,
			"-0.018": 4.10087743952,
			"-0.017": 3.31021164842,
			"-0.016": 1.73919100518,
			"-0.015": 3.9281719372,
			"-0.014": 6.52628357647,
			"-0.013": 4.02345979624,
			"-0.012": 4.9983918397,
			"-0.011": 5.11143903298,
			"-0.01": 5.13561771688,
			"-0.009": 6.52862878217,
			"-0.008": 6.34562732354,
			"-0.007": 7.20268654594,
			"-0.006": 8.57963692013,
			"-0.005": 11.6107022672,
			"-0.004": 12.0701945874,
			"-0.003": 10.5980990759,
			"-0.002": 7.16487963877,
			"-0.001": 9.48121981884,
			"0.0": 9.76151274009,
			"0.001": 10.5259269075,
			"0.002": 12.9709045086,
			"0.003": 16.0644391828,
			"0.004": 13.4475976502,
			"0.005": 13.6006400895,
			"0.006": 16.4078151116,
			"0.007": 15.9094253308,
			"0.008": 15.8528249257,
			"0.009": 23.6356091226,
			"0.01": 21.1969114691,
			"0.011": 6.36804495748,
			"0.012": 0.540945183004,
			"0.013": 0.0,
			"0.014": 0.0,
			"0.015": 0.0,
			"0.016": 0.0,
			"0.017": 0.0,
			"0.018": 0.0,
			"0.019": 0.0,
			"0.02": 0.0,
			"0.021": 0.0,
			"0.022": 0.0,
			"0.023": 0.0,
			"0.024": 0.0,
			"0.025": 0.0
		}
	}
}
