{
	 "smiles": "C1=CC=C(N=C1)C1=CC=NC=C1", 
	 "Tm": 334.35, 
	 "num_atms": 20, 
	 "gaussian": { 
		 "optdone": 1, 
		 "sigma_profile": "yes", 
		 "theory": "DFT", 
		 "functional": "B3LYP", 
		 "basiset": "6-31G**", 
		 "properties": { 
			 "R2extent": 2367.1696, 
			 "electric_dipole_moment_norm": 3.98739299418, 
			 "electric_quadrupole_moment_norm": 5.25233242665, 
			 "total_energy": -495.383111083, 
			 "HOMO_LUMO_gap": 0.1913, 
			 "cosmo_polarized_energy": -9.2, 
			 "cosmo_cavitation_energy": 24.19, 
			 "cosmo_dispersion_energy": -18.2, 
			 "cosmo_repulsion_energy": 1.42, 
			 "cosmo_total_nonelectrostatic_energy": 7.41, 
			 "SMD_solvation_energy": 1.78 
		},
		"coords": [
			{
				"x": 3.6256722233,
				"y": -1.8664492872,
				"z": -0.9678823585,
				"element": "C" 
			},
			{
				"x": 3.094586839,
				"y": -0.9043931523,
				"z": -1.8249007737,
				"element": "C" 
			},
			{
				"x": 1.8833350433,
				"y": -0.3018324981,
				"z": -1.4956908657,
				"element": "C" 
			},
			{
				"x": 1.2333989967,
				"y": -0.673991223,
				"z": -0.3077528669,
				"element": "C" 
			},
			{
				"x": 1.742833042,
				"y": -1.6134763337,
				"z": 0.5115111604,
				"element": "N" 
			},
			{
				"x": 2.9027652488,
				"y": -2.1852207801,
				"z": 0.1832757186,
				"element": "C" 
			},
			{
				"x": -0.0608212386,
				"y": -0.0682966274,
				"z": 0.110188084,
				"element": "C" 
			},
			{
				"x": -0.8425743683,
				"y": -0.6850436844,
				"z": 1.0976603361,
				"element": "C" 
			},
			{
				"x": -2.0534316026,
				"y": -0.104960909,
				"z": 1.4670857297,
				"element": "C" 
			},
			{
				"x": -2.5354893056,
				"y": 1.0290160786,
				"z": 0.9389775025,
				"element": "N" 
			},
			{
				"x": -1.7813112208,
				"y": 1.6197238613,
				"z": 0.0043557469,
				"element": "C" 
			},
			{
				"x": -0.5563056033,
				"y": 1.122880781,
				"z": -0.439075509,
				"element": "C" 
			},
			{
				"x": 4.5666877247,
				"y": -2.3619747421,
				"z": -1.1835570511,
				"element": "H" 
			},
			{
				"x": 3.6109511826,
				"y": -0.6302511678,
				"z": -2.7403492375,
				"element": "H" 
			},
			{
				"x": 1.443108116,
				"y": 0.4319551113,
				"z": -2.1612757463,
				"element": "H" 
			},
			{
				"x": 3.2762649261,
				"y": -2.9375564593,
				"z": 0.8761675856,
				"element": "H" 
			},
			{
				"x": -0.4945296409,
				"y": -1.6011214343,
				"z": 1.5597272728,
				"element": "H" 
			},
			{
				"x": -2.6714487935,
				"y": -0.5770596312,
				"z": 2.2290260474,
				"element": "H" 
			},
			{
				"x": -2.1733794392,
				"y": 2.5455387997,
				"z": -0.4137570039,
				"element": "H" 
			},
			{
				"x": 0.0003878703,
				"y": 1.6788132983,
				"z": -1.1861337715,
				"element": "H" 
			}
		],
		 "valence_orbital": [ 
			{
				"type": "occ",
				"energy": -0.29258,
				"method": "rhf"
			},
			{
				"type": "occ",
				"energy": -0.26395,
				"method": "rhf"
			},
			{
				"type": "occ",
				"energy": -0.25815,
				"method": "rhf"
			},
			{
				"type": "occ",
				"energy": -0.25091,
				"method": "rhf"
			},
			{
				"type": "occ",
				"energy": -0.24869,
				"method": "rhf"
			},
			{
				"type": "unocc",
				"energy": -0.05739,
				"method": "rhf"
			},
			{
				"type": "unocc",
				"energy": -0.03047,
				"method": "rhf"
			},
			{
				"type": "unocc",
				"energy": -0.00441,
				"method": "rhf"
			},
			{
				"type": "unocc",
				"energy": 0.01903,
				"method": "rhf"
			},
			{
				"type": "unocc",
				"energy": 0.0862,
				"method": "rhf"
			}
		],
		"cosmo_sigma_profile": { 
			"-0.025": 0.0,
			"-0.024": 0.0,
			"-0.023": 0.0,
			"-0.022": 0.0,
			"-0.021": 0.0,
			"-0.02": 0.0,
			"-0.019": 0.0,
			"-0.018": 0.0,
			"-0.017": 0.0,
			"-0.016": 0.0,
			"-0.015": 0.0,
			"-0.014": 0.0,
			"-0.013": 0.0,
			"-0.012": 0.0,
			"-0.011": 0.0,
			"-0.01": 0.0,
			"-0.009": 0.832425287976,
			"-0.008": 2.77571145723,
			"-0.007": 8.47784647621,
			"-0.006": 14.8904331311,
			"-0.005": 16.8162348488,
			"-0.004": 12.8085399204,
			"-0.003": 9.34605315613,
			"-0.002": 11.2393100193,
			"-0.001": 9.69010668485,
			"0.0": 13.5863780605,
			"0.001": 19.4241588165,
			"0.002": 29.9973516504,
			"0.003": 14.6472677603,
			"0.004": 6.13511708687,
			"0.005": 3.98313777944,
			"0.006": 2.63106081844,
			"0.007": 3.07083877952,
			"0.008": 3.19343646988,
			"0.009": 2.62603786911,
			"0.01": 1.5814201928,
			"0.011": 1.02272717871,
			"0.012": 2.48817103199,
			"0.013": 0.979053100757,
			"0.014": 1.05551116007,
			"0.015": 0.825667250811,
			"0.016": 0.854329305962,
			"0.017": 0.496995305939,
			"0.018": 0.0,
			"0.019": 0.0,
			"0.02": 0.0,
			"0.021": 0.0,
			"0.022": 0.0,
			"0.023": 0.0,
			"0.024": 0.0,
			"0.025": 0.0
		}
	}
}
