{
	 "smiles": "NC1=NC(CC2=C(Cl)C=C(Cl)C=C2)=CS1", 
	 "Tm": 370.15, 
	 "num_atms": 23, 
	 "gaussian": { 
		 "optdone": 1, 
		 "sigma_profile": "yes", 
		 "theory": "DFT", 
		 "functional": "B3LYP", 
		 "basiset": "6-31G**", 
		 "properties": { 
			 "R2extent": 6599.8769, 
			 "electric_dipole_moment_norm": 3.78154199368, 
			 "electric_quadrupole_moment_norm": 6.33265443238, 
			 "total_energy": -1813.96185903, 
			 "HOMO_LUMO_gap": 0.191, 
			 "cosmo_polarized_energy": -11.24, 
			 "cosmo_cavitation_energy": 33.22, 
			 "cosmo_dispersion_energy": -24.26, 
			 "cosmo_repulsion_energy": 1.88, 
			 "cosmo_total_nonelectrostatic_energy": 10.84, 
			 "SMD_solvation_energy": 3.45 
		},
		"coords": [
			{
				"x": -2.0091030289,
				"y": 0.142873313,
				"z": -2.2622790101,
				"element": "N" 
			},
			{
				"x": -1.483644194,
				"y": 0.8351447997,
				"z": -1.1950815566,
				"element": "C" 
			},
			{
				"x": -1.0946064144,
				"y": 0.2761172448,
				"z": -0.0855850177,
				"element": "N" 
			},
			{
				"x": -0.5441589559,
				"y": 1.2133460356,
				"z": 0.7740811334,
				"element": "C" 
			},
			{
				"x": -0.0271945286,
				"y": 0.7437896192,
				"z": 2.1134985119,
				"element": "C" 
			},
			{
				"x": 1.2403565995,
				"y": -0.0836103636,
				"z": 1.9967450436,
				"element": "C" 
			},
			{
				"x": 2.5264689699,
				"y": 0.4430216135,
				"z": 2.1787830614,
				"element": "C" 
			},
			{
				"x": 2.7550959897,
				"y": 2.1453748464,
				"z": 2.5802097378,
				"element": "Cl" 
			},
			{
				"x": 3.678003708,
				"y": -0.3365547647,
				"z": 2.0568110672,
				"element": "C" 
			},
			{
				"x": 3.5404731459,
				"y": -1.6830736295,
				"z": 1.7333321437,
				"element": "C" 
			},
			{
				"x": 4.9806149016,
				"y": -2.6771430326,
				"z": 1.5780659054,
				"element": "Cl" 
			},
			{
				"x": 2.2830228401,
				"y": -2.2499941755,
				"z": 1.5327316242,
				"element": "C" 
			},
			{
				"x": 1.1557590724,
				"y": -1.4446110037,
				"z": 1.6674865165,
				"element": "C" 
			},
			{
				"x": -0.5231977808,
				"y": 2.4970777306,
				"z": 0.3222324166,
				"element": "C" 
			},
			{
				"x": -1.2074228614,
				"y": 2.5803527315,
				"z": -1.2866649918,
				"element": "S" 
			},
			{
				"x": -2.6671641658,
				"y": 0.6348613559,
				"z": -2.8493352091,
				"element": "H" 
			},
			{
				"x": -2.2948601268,
				"y": -0.7971202148,
				"z": -2.0214408256,
				"element": "H" 
			},
			{
				"x": 0.1423318944,
				"y": 1.6060077864,
				"z": 2.7604205951,
				"element": "H" 
			},
			{
				"x": -0.8021434538,
				"y": 0.1275282642,
				"z": 2.5828384686,
				"element": "H" 
			},
			{
				"x": 4.6563961821,
				"y": 0.1012150989,
				"z": 2.2104973639,
				"element": "H" 
			},
			{
				"x": 2.1904969305,
				"y": -3.2995373309,
				"z": 1.277929745,
				"element": "H" 
			},
			{
				"x": 0.1720316074,
				"y": -1.8712226235,
				"z": 1.4990887814,
				"element": "H" 
			},
			{
				"x": -0.1519563312,
				"y": 3.3832566991,
				"z": 0.8150344954,
				"element": "H" 
			}
		],
		 "valence_orbital": [ 
			{
				"type": "occ",
				"energy": -0.27706,
				"method": "rhf"
			},
			{
				"type": "occ",
				"energy": -0.27451,
				"method": "rhf"
			},
			{
				"type": "occ",
				"energy": -0.257,
				"method": "rhf"
			},
			{
				"type": "occ",
				"energy": -0.24298,
				"method": "rhf"
			},
			{
				"type": "occ",
				"energy": -0.21175,
				"method": "rhf"
			},
			{
				"type": "unocc",
				"energy": -0.02075,
				"method": "rhf"
			},
			{
				"type": "unocc",
				"energy": -0.01906,
				"method": "rhf"
			},
			{
				"type": "unocc",
				"energy": -0.00312,
				"method": "rhf"
			},
			{
				"type": "unocc",
				"energy": 0.00985,
				"method": "rhf"
			},
			{
				"type": "unocc",
				"energy": 0.01198,
				"method": "rhf"
			}
		],
		"cosmo_sigma_profile": { 
			"-0.025": 0.0,
			"-0.024": 0.0,
			"-0.023": 0.0,
			"-0.022": 0.0,
			"-0.021": 0.0,
			"-0.02": 0.0,
			"-0.019": 0.0,
			"-0.018": 0.0,
			"-0.017": 0.0,
			"-0.016": 0.0,
			"-0.015": 0.252527836562,
			"-0.014": 1.7852053669,
			"-0.013": 2.63411777502,
			"-0.012": 2.81218995741,
			"-0.011": 2.92962508124,
			"-0.01": 2.16301638954,
			"-0.009": 2.19186393839,
			"-0.008": 4.15212512663,
			"-0.007": 6.45710776355,
			"-0.006": 9.69599246787,
			"-0.005": 10.7334537842,
			"-0.004": 12.3703642514,
			"-0.003": 13.6487509136,
			"-0.002": 15.2243187363,
			"-0.001": 16.7875240581,
			"0.0": 18.2299298491,
			"0.001": 29.8732894553,
			"0.002": 35.0279208405,
			"0.003": 28.3290703034,
			"0.004": 28.4626122112,
			"0.005": 13.7578197835,
			"0.006": 3.276054273,
			"0.007": 2.49141627852,
			"0.008": 2.48128925593,
			"0.009": 2.59771248333,
			"0.01": 1.68886887305,
			"0.011": 1.28967160905,
			"0.012": 1.12028254069,
			"0.013": 0.352081689586,
			"0.014": 0.0,
			"0.015": 0.0,
			"0.016": 0.0,
			"0.017": 0.0,
			"0.018": 0.0,
			"0.019": 0.0,
			"0.02": 0.0,
			"0.021": 0.0,
			"0.022": 0.0,
			"0.023": 0.0,
			"0.024": 0.0,
			"0.025": 0.0
		}
	}
}
