{
	 "smiles": "CC1=NOC(NC(=O)CCl)=N1", 
	 "Tm": 435.15, 
	 "num_atms": 17, 
	 "gaussian": { 
		 "optdone": 1, 
		 "sigma_profile": "yes", 
		 "theory": "DFT", 
		 "functional": "B3LYP", 
		 "basiset": "6-31G**", 
		 "properties": { 
			 "R2extent": 2929.1066, 
			 "electric_dipole_moment_norm": 3.04828293634, 
			 "electric_quadrupole_moment_norm": 14.0649436963, 
			 "total_energy": -969.014672412, 
			 "HOMO_LUMO_gap": 0.22504, 
			 "cosmo_polarized_energy": -14.48, 
			 "cosmo_cavitation_energy": 24.19, 
			 "cosmo_dispersion_energy": -18.08, 
			 "cosmo_repulsion_energy": 1.49, 
			 "cosmo_total_nonelectrostatic_energy": 7.6, 
			 "SMD_solvation_energy": 3.84 
		},
		"coords": [
			{
				"x": -1.8517206484,
				"y": 2.1339594462,
				"z": -1.4814083832,
				"element": "C" 
			},
			{
				"x": -1.4816548149,
				"y": 0.6847047782,
				"z": -1.4332616388,
				"element": "C" 
			},
			{
				"x": -2.2285537627,
				"y": -0.2465997495,
				"z": -1.9712711647,
				"element": "N" 
			},
			{
				"x": -1.5057637668,
				"y": -1.441514423,
				"z": -1.6902384843,
				"element": "O" 
			},
			{
				"x": -0.4157577938,
				"y": -1.0561987953,
				"z": -1.0163510627,
				"element": "C" 
			},
			{
				"x": 0.438578673,
				"y": -2.0553381347,
				"z": -0.6369215027,
				"element": "N" 
			},
			{
				"x": 1.6535359259,
				"y": -1.9964081099,
				"z": 0.0715766729,
				"element": "C" 
			},
			{
				"x": 2.2450807916,
				"y": -3.0271643026,
				"z": 0.2945904279,
				"element": "O" 
			},
			{
				"x": 2.1108672077,
				"y": -0.6054332373,
				"z": 0.4942013564,
				"element": "C" 
			},
			{
				"x": 3.6610712667,
				"y": -0.6598005015,
				"z": 1.3818402164,
				"element": "Cl" 
			},
			{
				"x": -0.3296448186,
				"y": 0.2311455734,
				"z": -0.819434027,
				"element": "N" 
			},
			{
				"x": -1.9357004645,
				"y": 2.4780401727,
				"z": -2.5158518913,
				"element": "H" 
			},
			{
				"x": -2.8154456512,
				"y": 2.3039516154,
				"z": -0.9937074779,
				"element": "H" 
			},
			{
				"x": -1.0867398433,
				"y": 2.7208590196,
				"z": -0.9721565332,
				"element": "H" 
			},
			{
				"x": 0.1737946692,
				"y": -2.998369674,
				"z": -0.897844176,
				"element": "H" 
			},
			{
				"x": 1.3581002073,
				"y": -0.1368511985,
				"z": 1.1298399998,
				"element": "H" 
			},
			{
				"x": 2.2289528228,
				"y": 0.0358175207,
				"z": -0.3805023315,
				"element": "H" 
			}
		],
		 "valence_orbital": [ 
			{
				"type": "occ",
				"energy": -0.31681,
				"method": "rhf"
			},
			{
				"type": "occ",
				"energy": -0.3065,
				"method": "rhf"
			},
			{
				"type": "occ",
				"energy": -0.30469,
				"method": "rhf"
			},
			{
				"type": "occ",
				"energy": -0.29572,
				"method": "rhf"
			},
			{
				"type": "occ",
				"energy": -0.27124,
				"method": "rhf"
			},
			{
				"type": "unocc",
				"energy": -0.0462,
				"method": "rhf"
			},
			{
				"type": "unocc",
				"energy": -0.00091,
				"method": "rhf"
			},
			{
				"type": "unocc",
				"energy": 0.01563,
				"method": "rhf"
			},
			{
				"type": "unocc",
				"energy": 0.04333,
				"method": "rhf"
			},
			{
				"type": "unocc",
				"energy": 0.05958,
				"method": "rhf"
			}
		],
		"cosmo_sigma_profile": { 
			"-0.025": 0.0,
			"-0.024": 0.0,
			"-0.023": 0.0,
			"-0.022": 0.0,
			"-0.021": 0.0,
			"-0.02": 0.0,
			"-0.019": 0.0,
			"-0.018": 0.242957054987,
			"-0.017": 0.897389080269,
			"-0.016": 1.14285651056,
			"-0.015": 0.732916245316,
			"-0.014": 0.637687003832,
			"-0.013": 0.90823759477,
			"-0.012": 0.927779609651,
			"-0.011": 1.36028141628,
			"-0.01": 2.81446236895,
			"-0.009": 4.55283535517,
			"-0.008": 4.38335207755,
			"-0.007": 5.66625164954,
			"-0.006": 9.15558914987,
			"-0.005": 13.255730504,
			"-0.004": 14.9274991965,
			"-0.003": 13.2645949244,
			"-0.002": 15.3685470852,
			"-0.001": 11.5723890707,
			"0.0": 7.9003599503,
			"0.001": 7.14753461241,
			"0.002": 7.81431596396,
			"0.003": 8.34745538453,
			"0.004": 7.83669906078,
			"0.005": 12.1882863868,
			"0.006": 12.5373820975,
			"0.007": 5.48667037143,
			"0.008": 4.30576968679,
			"0.009": 4.24896909455,
			"0.01": 5.08457177547,
			"0.011": 6.254342154,
			"0.012": 3.12349552139,
			"0.013": 1.23579602318,
			"0.014": 0.133277343416,
			"0.015": 0.0,
			"0.016": 0.0,
			"0.017": 0.0,
			"0.018": 0.0,
			"0.019": 0.0,
			"0.02": 0.0,
			"0.021": 0.0,
			"0.022": 0.0,
			"0.023": 0.0,
			"0.024": 0.0,
			"0.025": 0.0
		}
	}
}
