{
	 "smiles": "CC1=CC(=NN1C1=CC(=CC=C1)C#N)C(O)=O", 
	 "Tm": 523.15, 
	 "num_atms": 26, 
	 "gaussian": { 
		 "optdone": 1, 
		 "sigma_profile": "yes", 
		 "theory": "DFT", 
		 "functional": "B3LYP", 
		 "basiset": "6-31G**", 
		 "properties": { 
			 "R2extent": 5198.8543, 
			 "electric_dipole_moment_norm": 4.19328835402, 
			 "electric_quadrupole_moment_norm": 50.5981151204, 
			 "total_energy": -777.384800446, 
			 "HOMO_LUMO_gap": 0.1901, 
			 "cosmo_polarized_energy": -19.32, 
			 "cosmo_cavitation_energy": 32.66, 
			 "cosmo_dispersion_energy": -22.71, 
			 "cosmo_repulsion_energy": 1.76, 
			 "cosmo_total_nonelectrostatic_energy": 11.71, 
			 "SMD_solvation_energy": 7.78 
		},
		"coords": [
			{
				"x": -1.3430534955,
				"y": 1.3315289968,
				"z": 0.8298480725,
				"element": "C" 
			},
			{
				"x": -0.8751497896,
				"y": 0.6840999528,
				"z": -0.4356303282,
				"element": "C" 
			},
			{
				"x": -1.1092310188,
				"y": 1.0484094168,
				"z": -1.7458082738,
				"element": "C" 
			},
			{
				"x": -0.4809711121,
				"y": 0.0567783798,
				"z": -2.5268657405,
				"element": "C" 
			},
			{
				"x": 0.1042176215,
				"y": -0.8697846589,
				"z": -1.7692686271,
				"element": "N" 
			},
			{
				"x": -0.1278106216,
				"y": -0.4800085941,
				"z": -0.4935412916,
				"element": "N" 
			},
			{
				"x": 0.3388702827,
				"y": -1.3074408426,
				"z": 0.565360935,
				"element": "C" 
			},
			{
				"x": 0.897722234,
				"y": -0.7471896105,
				"z": 1.713654462,
				"element": "C" 
			},
			{
				"x": 1.345641892,
				"y": -1.5902334365,
				"z": 2.7433537488,
				"element": "C" 
			},
			{
				"x": 1.256412631,
				"y": -2.9845651899,
				"z": 2.6107155894,
				"element": "C" 
			},
			{
				"x": 0.7169218656,
				"y": -3.5265299382,
				"z": 1.445641135,
				"element": "C" 
			},
			{
				"x": 0.2526860409,
				"y": -2.6986644007,
				"z": 0.4261066173,
				"element": "C" 
			},
			{
				"x": 1.9115904608,
				"y": -1.0143789758,
				"z": 3.9294849398,
				"element": "C" 
			},
			{
				"x": 2.3663610662,
				"y": -0.5465962519,
				"z": 4.8921935451,
				"element": "N" 
			},
			{
				"x": -0.413186559,
				"y": -0.0454938695,
				"z": -4.0083341904,
				"element": "C" 
			},
			{
				"x": 0.2922553735,
				"y": -1.1039140765,
				"z": -4.4648091654,
				"element": "O" 
			},
			{
				"x": -0.9435194468,
				"y": 0.7464248945,
				"z": -4.751601377,
				"element": "O" 
			},
			{
				"x": -1.6606209425,
				"y": 0.5948776979,
				"z": 1.5734841968,
				"element": "H" 
			},
			{
				"x": -2.1949665819,
				"y": 1.9767534481,
				"z": 0.6049948331,
				"element": "H" 
			},
			{
				"x": -0.5707213346,
				"y": 1.9585168059,
				"z": 1.2895222032,
				"element": "H" 
			},
			{
				"x": -1.6646057828,
				"y": 1.9024026576,
				"z": -2.1014123261,
				"element": "H" 
			},
			{
				"x": 1.0120314716,
				"y": 0.3246729461,
				"z": 1.8108753234,
				"element": "H" 
			},
			{
				"x": 1.6105237013,
				"y": -3.6246233551,
				"z": 3.4110588593,
				"element": "H" 
			},
			{
				"x": 0.6480043252,
				"y": -4.6037148558,
				"z": 1.3338764101,
				"element": "H" 
			},
			{
				"x": -0.1732110251,
				"y": -3.1107081375,
				"z": -0.4808221144,
				"element": "H" 
			},
			{
				"x": 0.6348087439,
				"y": -1.5944190029,
				"z": -3.696877436,
				"element": "H" 
			}
		],
		 "valence_orbital": [ 
			{
				"type": "occ",
				"energy": -0.30869,
				"method": "rhf"
			},
			{
				"type": "occ",
				"energy": -0.2891,
				"method": "rhf"
			},
			{
				"type": "occ",
				"energy": -0.27363,
				"method": "rhf"
			},
			{
				"type": "occ",
				"energy": -0.27202,
				"method": "rhf"
			},
			{
				"type": "occ",
				"energy": -0.26423,
				"method": "rhf"
			},
			{
				"type": "unocc",
				"energy": -0.07413,
				"method": "rhf"
			},
			{
				"type": "unocc",
				"energy": -0.05965,
				"method": "rhf"
			},
			{
				"type": "unocc",
				"energy": -0.0291,
				"method": "rhf"
			},
			{
				"type": "unocc",
				"energy": 0.00761,
				"method": "rhf"
			},
			{
				"type": "unocc",
				"energy": 0.02081,
				"method": "rhf"
			}
		],
		"cosmo_sigma_profile": { 
			"-0.025": 0.0,
			"-0.024": 0.0,
			"-0.023": 0.0,
			"-0.022": 0.0,
			"-0.021": 0.0,
			"-0.02": 0.0,
			"-0.019": 0.0,
			"-0.018": 0.0,
			"-0.017": 0.0,
			"-0.016": 0.0,
			"-0.015": 0.164655907265,
			"-0.014": 0.594787172208,
			"-0.013": 0.75351772315,
			"-0.012": 0.396037434906,
			"-0.011": 0.489101191627,
			"-0.01": 1.63589181643,
			"-0.009": 3.77134992211,
			"-0.008": 8.76061311766,
			"-0.007": 12.1173564042,
			"-0.006": 17.1590404602,
			"-0.005": 15.5187356424,
			"-0.004": 15.8732068438,
			"-0.003": 19.6741401125,
			"-0.002": 22.6558993252,
			"-0.001": 19.4065493378,
			"0.0": 20.5493144456,
			"0.001": 18.4952041897,
			"0.002": 15.1231566691,
			"0.003": 8.92227220039,
			"0.004": 4.19379938295,
			"0.005": 6.77493763594,
			"0.006": 6.26681834882,
			"0.007": 4.97364864981,
			"0.008": 6.64562205336,
			"0.009": 6.90400392446,
			"0.01": 8.51831903175,
			"0.011": 7.44767869876,
			"0.012": 7.57899338024,
			"0.013": 2.3138070635,
			"0.014": 0.00930497113882,
			"0.015": 0.0,
			"0.016": 0.0,
			"0.017": 0.0,
			"0.018": 0.0,
			"0.019": 0.0,
			"0.02": 0.0,
			"0.021": 0.0,
			"0.022": 0.0,
			"0.023": 0.0,
			"0.024": 0.0,
			"0.025": 0.0
		}
	}
}
