{
	 "smiles": "CC1=NN(C(=O)C1CC1=C(O)C=CC=C1)C1=CC=CC=C1", 
	 "Tm": 413.15, 
	 "num_atms": 37, 
	 "gaussian": { 
		 "optdone": 1, 
		 "sigma_profile": "yes", 
		 "theory": "DFT", 
		 "functional": "B3LYP", 
		 "basiset": "6-31G**", 
		 "properties": { 
			 "R2extent": 8512.4495, 
			 "electric_dipole_moment_norm": 3.99662755583, 
			 "electric_quadrupole_moment_norm": 13.4747521421, 
			 "total_energy": -917.399317055, 
			 "HOMO_LUMO_gap": 0.16354, 
			 "cosmo_polarized_energy": -13.77, 
			 "cosmo_cavitation_energy": 40.04, 
			 "cosmo_dispersion_energy": -28.81, 
			 "cosmo_repulsion_energy": 2.15, 
			 "cosmo_total_nonelectrostatic_energy": 13.39, 
			 "SMD_solvation_energy": 6.44 
		},
		"coords": [
			{
				"x": -0.5571252354,
				"y": -0.7710988719,
				"z": 3.0674208468,
				"element": "C" 
			},
			{
				"x": 0.2260902419,
				"y": -0.6688118146,
				"z": 1.8007913406,
				"element": "C" 
			},
			{
				"x": 1.4460069594,
				"y": -0.2578014496,
				"z": 1.8010346361,
				"element": "N" 
			},
			{
				"x": 1.9141054041,
				"y": -0.2557121283,
				"z": 0.4730714073,
				"element": "N" 
			},
			{
				"x": 0.9595439858,
				"y": -0.7014144036,
				"z": -0.410168114,
				"element": "C" 
			},
			{
				"x": 1.094282449,
				"y": -0.8939044066,
				"z": -1.6189577266,
				"element": "O" 
			},
			{
				"x": -0.2947071073,
				"y": -0.952691935,
				"z": 0.4152411156,
				"element": "C" 
			},
			{
				"x": -0.9525045727,
				"y": -2.3436498612,
				"z": 0.1378161492,
				"element": "C" 
			},
			{
				"x": -2.1952022484,
				"y": -2.3027711707,
				"z": -0.7272680233,
				"element": "C" 
			},
			{
				"x": -2.127012663,
				"y": -2.2551286882,
				"z": -2.1378339387,
				"element": "C" 
			},
			{
				"x": -0.9665810665,
				"y": -2.2285358844,
				"z": -2.838657423,
				"element": "O" 
			},
			{
				"x": -3.3125499265,
				"y": -2.285671987,
				"z": -2.8893096547,
				"element": "C" 
			},
			{
				"x": -4.5531623059,
				"y": -2.3400490996,
				"z": -2.2640646766,
				"element": "C" 
			},
			{
				"x": -4.6359617407,
				"y": -2.3636577768,
				"z": -0.8692141808,
				"element": "C" 
			},
			{
				"x": -3.4602074278,
				"y": -2.348651462,
				"z": -0.1228702637,
				"element": "C" 
			},
			{
				"x": 3.2627528983,
				"y": 0.1268999615,
				"z": 0.2284619689,
				"element": "C" 
			},
			{
				"x": 3.7803799701,
				"y": 0.1450794363,
				"z": -1.0755566194,
				"element": "C" 
			},
			{
				"x": 5.1055530095,
				"y": 0.5304375439,
				"z": -1.2765980181,
				"element": "C" 
			},
			{
				"x": 5.9190510552,
				"y": 0.8970454095,
				"z": -0.2041902079,
				"element": "C" 
			},
			{
				"x": 5.3928260955,
				"y": 0.8762117231,
				"z": 1.0883383682,
				"element": "C" 
			},
			{
				"x": 4.0719580848,
				"y": 0.4944919448,
				"z": 1.3130412595,
				"element": "C" 
			},
			{
				"x": -1.4503656506,
				"y": -0.1367316032,
				"z": 3.02590283,
				"element": "H" 
			},
			{
				"x": -0.9006724642,
				"y": -1.7977114114,
				"z": 3.2392320747,
				"element": "H" 
			},
			{
				"x": 0.0599433882,
				"y": -0.4614771349,
				"z": 3.9128993245,
				"element": "H" 
			},
			{
				"x": -1.0240366165,
				"y": -0.1702772401,
				"z": 0.1598838698,
				"element": "H" 
			},
			{
				"x": -0.1987291442,
				"y": -2.9985689611,
				"z": -0.3132215202,
				"element": "H" 
			},
			{
				"x": -1.2191719403,
				"y": -2.7940448753,
				"z": 1.0982746121,
				"element": "H" 
			},
			{
				"x": -0.2322860483,
				"y": -1.7925513846,
				"z": -2.3535276833,
				"element": "H" 
			},
			{
				"x": -3.2240853332,
				"y": -2.2597975533,
				"z": -3.9706067778,
				"element": "H" 
			},
			{
				"x": -5.4572887529,
				"y": -2.3598008098,
				"z": -2.8662618389,
				"element": "H" 
			},
			{
				"x": -5.5998267485,
				"y": -2.4061167444,
				"z": -0.3715809046,
				"element": "H" 
			},
			{
				"x": -3.5154236714,
				"y": -2.3918181626,
				"z": 0.96327281,
				"element": "H" 
			},
			{
				"x": 3.1557229917,
				"y": -0.1413879869,
				"z": -1.9096771861,
				"element": "H" 
			},
			{
				"x": 5.500243621,
				"y": 0.5414225465,
				"z": -2.2884308555,
				"element": "H" 
			},
			{
				"x": 6.9492954945,
				"y": 1.1952436006,
				"z": -0.3730684945,
				"element": "H" 
			},
			{
				"x": 6.0120239463,
				"y": 1.1592484799,
				"z": 1.9346998478,
				"element": "H" 
			},
			{
				"x": 3.660221069,
				"y": 0.4782541611,
				"z": 2.3133816468,
				"element": "H" 
			}
		],
		 "valence_orbital": [ 
			{
				"type": "occ",
				"energy": -0.27651,
				"method": "rhf"
			},
			{
				"type": "occ",
				"energy": -0.25357,
				"method": "rhf"
			},
			{
				"type": "occ",
				"energy": -0.24182,
				"method": "rhf"
			},
			{
				"type": "occ",
				"energy": -0.22444,
				"method": "rhf"
			},
			{
				"type": "occ",
				"energy": -0.21054,
				"method": "rhf"
			},
			{
				"type": "unocc",
				"energy": -0.047,
				"method": "rhf"
			},
			{
				"type": "unocc",
				"energy": -0.01902,
				"method": "rhf"
			},
			{
				"type": "unocc",
				"energy": -0.00258,
				"method": "rhf"
			},
			{
				"type": "unocc",
				"energy": 0.00223,
				"method": "rhf"
			},
			{
				"type": "unocc",
				"energy": 0.01757,
				"method": "rhf"
			}
		],
		"cosmo_sigma_profile": { 
			"-0.025": 0.0,
			"-0.024": 0.0,
			"-0.023": 0.0,
			"-0.022": 0.0,
			"-0.021": 0.0,
			"-0.02": 0.0,
			"-0.019": 0.0,
			"-0.018": 0.0,
			"-0.017": 0.0,
			"-0.016": 0.0,
			"-0.015": 0.0,
			"-0.014": 0.0,
			"-0.013": 0.0,
			"-0.012": 0.0,
			"-0.011": 0.0,
			"-0.01": 0.0522605851167,
			"-0.009": 2.2592476125,
			"-0.008": 3.17544144859,
			"-0.007": 6.73120848404,
			"-0.006": 18.3702544822,
			"-0.005": 28.0266755066,
			"-0.004": 28.647024537,
			"-0.003": 27.8402960615,
			"-0.002": 23.4858339174,
			"-0.001": 22.2309501132,
			"0.0": 16.332403891,
			"0.001": 19.557676311,
			"0.002": 19.8672574996,
			"0.003": 20.6444156384,
			"0.004": 21.553455481,
			"0.005": 24.0242215619,
			"0.006": 15.1933253563,
			"0.007": 8.67908917956,
			"0.008": 4.45794738651,
			"0.009": 2.71002946958,
			"0.01": 1.89163954025,
			"0.011": 1.82289827847,
			"0.012": 1.52473205348,
			"0.013": 1.02715318574,
			"0.014": 0.0,
			"0.015": 0.0,
			"0.016": 0.0,
			"0.017": 0.0,
			"0.018": 0.0,
			"0.019": 0.0,
			"0.02": 0.0,
			"0.021": 0.0,
			"0.022": 0.0,
			"0.023": 0.0,
			"0.024": 0.0,
			"0.025": 0.0
		}
	}
}
