{
	 "smiles": "CC(=O)NC1=CC(=CC=C1NC1=CC=C(C)C=C1)[N+]([O-])=O", 
	 "Tm": 449.15, 
	 "num_atms": 36, 
	 "gaussian": { 
		 "optdone": 1, 
		 "sigma_profile": "yes", 
		 "theory": "DFT", 
		 "functional": "B3LYP", 
		 "basiset": "6-31G**", 
		 "properties": { 
			 "R2extent": 9438.7942, 
			 "electric_dipole_moment_norm": 9.20406794032, 
			 "electric_quadrupole_moment_norm": 31.8793383454, 
			 "total_energy": -970.494975713, 
			 "HOMO_LUMO_gap": 0.13632, 
			 "cosmo_polarized_energy": -21.95, 
			 "cosmo_cavitation_energy": 41.09, 
			 "cosmo_dispersion_energy": -29.08, 
			 "cosmo_repulsion_energy": 2.24, 
			 "cosmo_total_nonelectrostatic_energy": 14.24, 
			 "SMD_solvation_energy": 10.04 
		},
		"coords": [
			{
				"x": 1.4166061493,
				"y": -3.1129598346,
				"z": 2.6727875805,
				"element": "C" 
			},
			{
				"x": 1.0764164284,
				"y": -3.2289136172,
				"z": 1.1947511051,
				"element": "C" 
			},
			{
				"x": 0.9127589811,
				"y": -4.3076680669,
				"z": 0.6484700003,
				"element": "O" 
			},
			{
				"x": 0.9602471174,
				"y": -2.0139724108,
				"z": 0.5427629429,
				"element": "N" 
			},
			{
				"x": 0.5386034538,
				"y": -1.7761619196,
				"z": -0.7795566443,
				"element": "C" 
			},
			{
				"x": -0.0898435046,
				"y": -2.740071105,
				"z": -1.5688633757,
				"element": "C" 
			},
			{
				"x": -0.5296360585,
				"y": -2.3794548859,
				"z": -2.8408716862,
				"element": "C" 
			},
			{
				"x": -0.3663176768,
				"y": -1.0947120645,
				"z": -3.3533446889,
				"element": "C" 
			},
			{
				"x": 0.2826871244,
				"y": -0.1456442544,
				"z": -2.5736969684,
				"element": "C" 
			},
			{
				"x": 0.7517437922,
				"y": -0.4679780488,
				"z": -1.2930611972,
				"element": "C" 
			},
			{
				"x": 1.4495796661,
				"y": 0.4460910806,
				"z": -0.4768215924,
				"element": "N" 
			},
			{
				"x": 1.4455403791,
				"y": 1.8494425453,
				"z": -0.6457309343,
				"element": "C" 
			},
			{
				"x": 2.640323945,
				"y": 2.5687719891,
				"z": -0.5173901946,
				"element": "C" 
			},
			{
				"x": 2.6397857924,
				"y": 3.9604196679,
				"z": -0.5999208504,
				"element": "C" 
			},
			{
				"x": 1.4604997983,
				"y": 4.6776725726,
				"z": -0.831189689,
				"element": "C" 
			},
			{
				"x": 1.4669074463,
				"y": 6.1823048382,
				"z": -0.9620365464,
				"element": "C" 
			},
			{
				"x": 0.2711758846,
				"y": 3.9448547468,
				"z": -0.9567951081,
				"element": "C" 
			},
			{
				"x": 0.2517745503,
				"y": 2.5566634633,
				"z": -0.8577439166,
				"element": "C" 
			},
			{
				"x": -1.1988547479,
				"y": -3.3911542146,
				"z": -3.6660603652,
				"element": "N" 
			},
			{
				"x": -1.6035561744,
				"y": -3.0436687357,
				"z": -4.7778918731,
				"element": "O" 
			},
			{
				"x": -1.3195975981,
				"y": -4.5248666042,
				"z": -3.2026124596,
				"element": "O" 
			},
			{
				"x": 0.5105549193,
				"y": -3.2905288061,
				"z": 3.2615411758,
				"element": "H" 
			},
			{
				"x": 2.131698825,
				"y": -3.8980877443,
				"z": 2.9249948662,
				"element": "H" 
			},
			{
				"x": 1.8294637393,
				"y": -2.1405014419,
				"z": 2.9560021608,
				"element": "H" 
			},
			{
				"x": 1.0541975696,
				"y": -1.1752361603,
				"z": 1.1010185526,
				"element": "H" 
			},
			{
				"x": -0.2340474576,
				"y": -3.7445895176,
				"z": -1.2002346325,
				"element": "H" 
			},
			{
				"x": -0.7205530581,
				"y": -0.8656585949,
				"z": -4.3499353168,
				"element": "H" 
			},
			{
				"x": 0.4507576873,
				"y": 0.8518050205,
				"z": -2.96240439,
				"element": "H" 
			},
			{
				"x": 2.3348043342,
				"y": 0.0840688237,
				"z": -0.1404844109,
				"element": "H" 
			},
			{
				"x": 3.5747049296,
				"y": 2.036936778,
				"z": -0.3521273182,
				"element": "H" 
			},
			{
				"x": 3.5797692065,
				"y": 4.4955622711,
				"z": -0.4913329389,
				"element": "H" 
			},
			{
				"x": 0.5803339679,
				"y": 6.6284744845,
				"z": -0.5001054935,
				"element": "H" 
			},
			{
				"x": 1.4726566167,
				"y": 6.4921022013,
				"z": -2.0146973917,
				"element": "H" 
			},
			{
				"x": 2.3499820977,
				"y": 6.6210972647,
				"z": -0.4885971139,
				"element": "H" 
			},
			{
				"x": -0.6654746775,
				"y": 4.4722078904,
				"z": -1.1206064032,
				"element": "H" 
			},
			{
				"x": -0.6881934481,
				"y": 2.0192523894,
				"z": -0.929314884,
				"element": "H" 
			}
		],
		 "valence_orbital": [ 
			{
				"type": "occ",
				"energy": -0.27223,
				"method": "rhf"
			},
			{
				"type": "occ",
				"energy": -0.26483,
				"method": "rhf"
			},
			{
				"type": "occ",
				"energy": -0.26307,
				"method": "rhf"
			},
			{
				"type": "occ",
				"energy": -0.24573,
				"method": "rhf"
			},
			{
				"type": "occ",
				"energy": -0.21332,
				"method": "rhf"
			},
			{
				"type": "unocc",
				"energy": -0.077,
				"method": "rhf"
			},
			{
				"type": "unocc",
				"energy": -0.02975,
				"method": "rhf"
			},
			{
				"type": "unocc",
				"energy": -0.01611,
				"method": "rhf"
			},
			{
				"type": "unocc",
				"energy": -0.01358,
				"method": "rhf"
			},
			{
				"type": "unocc",
				"energy": 0.01251,
				"method": "rhf"
			}
		],
		"cosmo_sigma_profile": { 
			"-0.025": 0.0,
			"-0.024": 0.0,
			"-0.023": 0.0,
			"-0.022": 0.0,
			"-0.021": 0.0,
			"-0.02": 0.0,
			"-0.019": 0.0,
			"-0.018": 0.0,
			"-0.017": 0.0,
			"-0.016": 0.0,
			"-0.015": 0.219597051945,
			"-0.014": 1.25082682164,
			"-0.013": 3.17863701747,
			"-0.012": 3.06299604985,
			"-0.011": 2.60136932901,
			"-0.01": 2.59658036299,
			"-0.009": 2.69798471566,
			"-0.008": 2.65276808947,
			"-0.007": 5.76335609306,
			"-0.006": 11.2257898332,
			"-0.005": 18.7607478429,
			"-0.004": 25.9986640479,
			"-0.003": 27.14351454,
			"-0.002": 27.6456796608,
			"-0.001": 28.2827358723,
			"0.0": 29.0584557755,
			"0.001": 25.7326566869,
			"0.002": 19.4366160166,
			"0.003": 13.7442489528,
			"0.004": 13.0513943113,
			"0.005": 12.0554251478,
			"0.006": 10.4993862192,
			"0.007": 6.01905601762,
			"0.008": 11.8852962245,
			"0.009": 7.38701178266,
			"0.01": 5.39392263157,
			"0.011": 3.54670535832,
			"0.012": 2.89404356158,
			"0.013": 2.70807194408,
			"0.014": 1.10254320816,
			"0.015": 0.0301246052999,
			"0.016": 0.0,
			"0.017": 0.0,
			"0.018": 0.0,
			"0.019": 0.0,
			"0.02": 0.0,
			"0.021": 0.0,
			"0.022": 0.0,
			"0.023": 0.0,
			"0.024": 0.0,
			"0.025": 0.0
		}
	}
}
