{
	 "smiles": "C1CC1N1C=NN=C1C1CC1", 
	 "Tm": 348.15, 
	 "num_atms": 22, 
	 "gaussian": { 
		 "optdone": 1, 
		 "sigma_profile": "yes", 
		 "theory": "DFT", 
		 "functional": "B3LYP", 
		 "basiset": "6-31G**", 
		 "properties": { 
			 "R2extent": 1957.1551, 
			 "electric_dipole_moment_norm": 5.96161393081, 
			 "electric_quadrupole_moment_norm": 13.7658363476, 
			 "total_energy": -475.648922255, 
			 "HOMO_LUMO_gap": 0.25203, 
			 "cosmo_polarized_energy": -15.85, 
			 "cosmo_cavitation_energy": 25.13, 
			 "cosmo_dispersion_energy": -17.99, 
			 "cosmo_repulsion_energy": 1.45, 
			 "cosmo_total_nonelectrostatic_energy": 8.59, 
			 "SMD_solvation_energy": 2.06 
		},
		"coords": [
			{
				"x": -2.4192278745,
				"y": -2.2217537243,
				"z": 0.5086095788,
				"element": "C" 
			},
			{
				"x": -1.1515900196,
				"y": -2.0098882123,
				"z": 1.2945709318,
				"element": "C" 
			},
			{
				"x": -1.1027317971,
				"y": -2.0813042381,
				"z": -0.2127068228,
				"element": "C" 
			},
			{
				"x": -0.8544684051,
				"y": -0.8823656286,
				"z": -0.9674571384,
				"element": "N" 
			},
			{
				"x": -1.6921102352,
				"y": -0.2877743008,
				"z": -1.8836282634,
				"element": "C" 
			},
			{
				"x": -1.1229989397,
				"y": 0.7512110126,
				"z": -2.434929412,
				"element": "N" 
			},
			{
				"x": 0.1436094875,
				"y": 0.8570641698,
				"z": -1.8885393661,
				"element": "N" 
			},
			{
				"x": 0.2951043053,
				"y": -0.121725972,
				"z": -1.022630264,
				"element": "C" 
			},
			{
				"x": 1.5060617334,
				"y": -0.3733199572,
				"z": -0.2175943657,
				"element": "C" 
			},
			{
				"x": 2.8516508127,
				"y": 0.053117102,
				"z": -0.7746948805,
				"element": "C" 
			},
			{
				"x": 2.2559105986,
				"y": 0.8124389057,
				"z": 0.3714280593,
				"element": "C" 
			},
			{
				"x": -2.8841649571,
				"y": -3.2020828605,
				"z": 0.5146690591,
				"element": "H" 
			},
			{
				"x": -3.1141674133,
				"y": -1.3907052561,
				"z": 0.448768375,
				"element": "H" 
			},
			{
				"x": -1.0007740385,
				"y": -1.0361786802,
				"z": 1.7487093044,
				"element": "H" 
			},
			{
				"x": -0.7336551406,
				"y": -2.8426787133,
				"z": 1.8510201641,
				"element": "H" 
			},
			{
				"x": -0.6803551401,
				"y": -2.9791685335,
				"z": -0.6582375768,
				"element": "H" 
			},
			{
				"x": -2.6858023871,
				"y": -0.6563889964,
				"z": -2.0931584555,
				"element": "H" 
			},
			{
				"x": 1.4814174593,
				"y": -1.2818248358,
				"z": 0.3749086851,
				"element": "H" 
			},
			{
				"x": 3.700451612,
				"y": -0.5973041477,
				"z": -0.5862492492,
				"element": "H" 
			},
			{
				"x": 2.8323285757,
				"y": 0.5243450414,
				"z": -1.7515956617,
				"element": "H" 
			},
			{
				"x": 1.8396852346,
				"y": 1.7920460185,
				"z": 0.1610852378,
				"element": "H" 
			},
			{
				"x": 2.6875265288,
				"y": 0.6925418067,
				"z": 1.3607520609,
				"element": "H" 
			}
		],
		 "valence_orbital": [ 
			{
				"type": "occ",
				"energy": -0.30548,
				"method": "rhf"
			},
			{
				"type": "occ",
				"energy": -0.2957,
				"method": "rhf"
			},
			{
				"type": "occ",
				"energy": -0.27643,
				"method": "rhf"
			},
			{
				"type": "occ",
				"energy": -0.23937,
				"method": "rhf"
			},
			{
				"type": "occ",
				"energy": -0.232,
				"method": "rhf"
			},
			{
				"type": "unocc",
				"energy": 0.02003,
				"method": "rhf"
			},
			{
				"type": "unocc",
				"energy": 0.0472,
				"method": "rhf"
			},
			{
				"type": "unocc",
				"energy": 0.08035,
				"method": "rhf"
			},
			{
				"type": "unocc",
				"energy": 0.09105,
				"method": "rhf"
			},
			{
				"type": "unocc",
				"energy": 0.09213,
				"method": "rhf"
			}
		],
		"cosmo_sigma_profile": { 
			"-0.025": 0.0,
			"-0.024": 0.0,
			"-0.023": 0.0,
			"-0.022": 0.0,
			"-0.021": 0.0,
			"-0.02": 0.0,
			"-0.019": 0.0,
			"-0.018": 0.0,
			"-0.017": 0.0,
			"-0.016": 0.0,
			"-0.015": 0.0,
			"-0.014": 0.0,
			"-0.013": 0.0,
			"-0.012": 0.0,
			"-0.011": 0.0,
			"-0.01": 0.534855819397,
			"-0.009": 1.45296828277,
			"-0.008": 1.16195173137,
			"-0.007": 5.07929690079,
			"-0.006": 12.6281311054,
			"-0.005": 20.8170369376,
			"-0.004": 21.2511581794,
			"-0.003": 17.6967162587,
			"-0.002": 17.8931597722,
			"-0.001": 18.2950136228,
			"0.0": 14.0900946875,
			"0.001": 11.1875624025,
			"0.002": 11.0326392595,
			"0.003": 8.45826884641,
			"0.004": 5.96203719722,
			"0.005": 3.00169345353,
			"0.006": 2.26504325684,
			"0.007": 2.26796272758,
			"0.008": 2.65787168978,
			"0.009": 1.08656351712,
			"0.01": 2.07158967986,
			"0.011": 2.29897599189,
			"0.012": 2.20669690846,
			"0.013": 2.62091299746,
			"0.014": 3.85806031571,
			"0.015": 2.64738641287,
			"0.016": 2.38984947502,
			"0.017": 1.99225237423,
			"0.018": 0.313883524095,
			"0.019": 0.0,
			"0.02": 0.0,
			"0.021": 0.0,
			"0.022": 0.0,
			"0.023": 0.0,
			"0.024": 0.0,
			"0.025": 0.0
		}
	}
}
