{
	 "smiles": "CC1=C(Br)C(Br)=C(O)C(Br)=C1Br", 
	 "Tm": 471.15, 
	 "num_atms": 16, 
	 "gaussian": { 
		 "optdone": 1, 
		 "sigma_profile": "yes", 
		 "theory": "DFT", 
		 "functional": "B3LYP", 
		 "basiset": "6-31G**", 
		 "properties": { 
			 "R2extent": 7394.0502, 
			 "electric_dipole_moment_norm": 1.4118461708, 
			 "electric_quadrupole_moment_norm": 7.79502458688, 
			 "total_energy": -10629.9822721, 
			 "HOMO_LUMO_gap": 0.18728, 
			 "cosmo_polarized_energy": -5.76, 
			 "cosmo_cavitation_energy": 28.19, 
			 "cosmo_dispersion_energy": -22.74, 
			 "cosmo_repulsion_energy": 1.78, 
			 "cosmo_total_nonelectrostatic_energy": 7.23, 
			 "SMD_solvation_energy": 1.26 
		},
		"coords": [
			{
				"x": 1.9754199394,
				"y": -1.2736613582,
				"z": 0.3388169378,
				"element": "C" 
			},
			{
				"x": 0.9603755969,
				"y": -0.1690441843,
				"z": 0.4983135952,
				"element": "C" 
			},
			{
				"x": 0.6712613866,
				"y": 0.3526618704,
				"z": 1.7758910723,
				"element": "C" 
			},
			{
				"x": 1.5943089171,
				"y": -0.3745697933,
				"z": 3.2749860354,
				"element": "Br" 
			},
			{
				"x": -0.259464634,
				"y": 1.3742134717,
				"z": 1.9782701151,
				"element": "C" 
			},
			{
				"x": -0.653445763,
				"y": 2.0794785034,
				"z": 3.69063104,
				"element": "Br" 
			},
			{
				"x": -0.9466857393,
				"y": 1.918901865,
				"z": 0.8810275692,
				"element": "C" 
			},
			{
				"x": -1.8382472995,
				"y": 2.9025370747,
				"z": 1.107020406,
				"element": "O" 
			},
			{
				"x": -0.6729975856,
				"y": 1.4137243409,
				"z": -0.3983281932,
				"element": "C" 
			},
			{
				"x": -1.6406301866,
				"y": 2.1970983143,
				"z": -1.8457183617,
				"element": "Br" 
			},
			{
				"x": 0.2625299997,
				"y": 0.3898128314,
				"z": -0.5853349886,
				"element": "C" 
			},
			{
				"x": 0.5788593049,
				"y": -0.2429952457,
				"z": -2.3574444848,
				"element": "Br" 
			},
			{
				"x": 2.0832459196,
				"y": -1.5669264401,
				"z": -0.7029310629,
				"element": "H" 
			},
			{
				"x": 2.9529263017,
				"y": -0.9553516244,
				"z": 0.7141667734,
				"element": "H" 
			},
			{
				"x": 1.6813508336,
				"y": -2.1531988502,
				"z": 0.9198859261,
				"element": "H" 
			},
			{
				"x": -2.2251069915,
				"y": 3.1703192244,
				"z": 0.2561476208,
				"element": "H" 
			}
		],
		 "valence_orbital": [ 
			{
				"type": "occ",
				"energy": -0.2949,
				"method": "rhf"
			},
			{
				"type": "occ",
				"energy": -0.29382,
				"method": "rhf"
			},
			{
				"type": "occ",
				"energy": -0.27548,
				"method": "rhf"
			},
			{
				"type": "occ",
				"energy": -0.2488,
				"method": "rhf"
			},
			{
				"type": "occ",
				"energy": -0.23929,
				"method": "rhf"
			},
			{
				"type": "unocc",
				"energy": -0.05201,
				"method": "rhf"
			},
			{
				"type": "unocc",
				"energy": -0.04301,
				"method": "rhf"
			},
			{
				"type": "unocc",
				"energy": -0.02396,
				"method": "rhf"
			},
			{
				"type": "unocc",
				"energy": -0.01302,
				"method": "rhf"
			},
			{
				"type": "unocc",
				"energy": 0.00854,
				"method": "rhf"
			}
		],
		"cosmo_sigma_profile": { 
			"-0.025": 0.0,
			"-0.024": 0.0,
			"-0.023": 0.0,
			"-0.022": 0.0,
			"-0.021": 0.0,
			"-0.02": 0.0,
			"-0.019": 0.0,
			"-0.018": 0.0,
			"-0.017": 0.0,
			"-0.016": 0.104887333585,
			"-0.015": 0.355721946371,
			"-0.014": 0.56377013768,
			"-0.013": 0.752095195716,
			"-0.012": 0.947448705292,
			"-0.011": 0.683436589099,
			"-0.01": 0.791928265466,
			"-0.009": 1.36924359839,
			"-0.008": 0.9847219808,
			"-0.007": 1.01366859047,
			"-0.006": 3.52229452059,
			"-0.005": 9.58954129637,
			"-0.004": 11.9317126081,
			"-0.003": 14.9387059061,
			"-0.002": 19.8708302143,
			"-0.001": 34.6257654138,
			"0.0": 34.3545330964,
			"0.001": 19.7109728072,
			"0.002": 22.8241034539,
			"0.003": 26.6367369387,
			"0.004": 19.3685650948,
			"0.005": 4.95116041329,
			"0.006": 2.23241205613,
			"0.007": 1.47913267322,
			"0.008": 1.93539520396,
			"0.009": 2.38234618957,
			"0.01": 0.796890162764,
			"0.011": 0.0,
			"0.012": 0.0,
			"0.013": 0.0,
			"0.014": 0.0,
			"0.015": 0.0,
			"0.016": 0.0,
			"0.017": 0.0,
			"0.018": 0.0,
			"0.019": 0.0,
			"0.02": 0.0,
			"0.021": 0.0,
			"0.022": 0.0,
			"0.023": 0.0,
			"0.024": 0.0,
			"0.025": 0.0
		}
	}
}
