{
	 "smiles": "CC(=O)C1=CC2=C(O1)C=C(C)C(C)=C2", 
	 "Tm": 363.15, 
	 "num_atms": 26, 
	 "gaussian": { 
		 "optdone": 1, 
		 "sigma_profile": "yes", 
		 "theory": "DFT", 
		 "functional": "B3LYP", 
		 "basiset": "6-31G**", 
		 "properties": { 
			 "R2extent": 3786.1585, 
			 "electric_dipole_moment_norm": 3.81130599139, 
			 "electric_quadrupole_moment_norm": 9.2241648771, 
			 "total_energy": -614.965489021, 
			 "HOMO_LUMO_gap": 0.16252, 
			 "cosmo_polarized_energy": -8.43, 
			 "cosmo_cavitation_energy": 29.93, 
			 "cosmo_dispersion_energy": -21.71, 
			 "cosmo_repulsion_energy": 1.7, 
			 "cosmo_total_nonelectrostatic_energy": 9.91, 
			 "SMD_solvation_energy": 6.13 
		},
		"coords": [
			{
				"x": -0.4787382381,
				"y": 3.4953682415,
				"z": -1.1899269117,
				"element": "C" 
			},
			{
				"x": -1.4982890394,
				"y": 2.4606330529,
				"z": -0.7587288471,
				"element": "C" 
			},
			{
				"x": -2.6976081012,
				"y": 2.5889305239,
				"z": -0.9638863616,
				"element": "O" 
			},
			{
				"x": -1.0001234188,
				"y": 1.2605511677,
				"z": -0.0663381108,
				"element": "C" 
			},
			{
				"x": -1.6770124072,
				"y": 0.1808832096,
				"z": 0.4277406411,
				"element": "C" 
			},
			{
				"x": -0.6925056578,
				"y": -0.6891441981,
				"z": 1.001039097,
				"element": "C" 
			},
			{
				"x": 0.5411801794,
				"y": -0.0437245826,
				"z": 0.8005814781,
				"element": "C" 
			},
			{
				"x": 0.3622745664,
				"y": 1.1436423882,
				"z": 0.1515163467,
				"element": "O" 
			},
			{
				"x": 1.7549220649,
				"y": -0.5755063315,
				"z": 1.2209744036,
				"element": "C" 
			},
			{
				"x": 1.7347612414,
				"y": -1.8096727679,
				"z": 1.8719141802,
				"element": "C" 
			},
			{
				"x": 3.032225943,
				"y": -2.4211627476,
				"z": 2.3440550179,
				"element": "C" 
			},
			{
				"x": 0.4984619032,
				"y": -2.4922883713,
				"z": 2.0917522973,
				"element": "C" 
			},
			{
				"x": 0.4892050913,
				"y": -3.8284014671,
				"z": 2.7979350134,
				"element": "C" 
			},
			{
				"x": -0.699148972,
				"y": -1.9318309288,
				"z": 1.6580665504,
				"element": "C" 
			},
			{
				"x": 0.0789530973,
				"y": 3.8699745438,
				"z": -0.32482325,
				"element": "H" 
			},
			{
				"x": 0.2561078277,
				"y": 3.051483703,
				"z": -1.8701608212,
				"element": "H" 
			},
			{
				"x": -0.9959831256,
				"y": 4.3178448192,
				"z": -1.6848383916,
				"element": "H" 
			},
			{
				"x": -2.7475452401,
				"y": 0.0473474867,
				"z": 0.3758352116,
				"element": "H" 
			},
			{
				"x": 2.6861377729,
				"y": -0.0461359083,
				"z": 1.0473522618,
				"element": "H" 
			},
			{
				"x": 3.2099410806,
				"y": -3.3998746938,
				"z": 1.8821376871,
				"element": "H" 
			},
			{
				"x": 3.8822655178,
				"y": -1.7786308052,
				"z": 2.1014338635,
				"element": "H" 
			},
			{
				"x": 3.0327876834,
				"y": -2.5814477547,
				"z": 3.4290189793,
				"element": "H" 
			},
			{
				"x": 1.0849694801,
				"y": -4.5768998308,
				"z": 2.2615904136,
				"element": "H" 
			},
			{
				"x": -0.5285608476,
				"y": -4.2166217521,
				"z": 2.8872182088,
				"element": "H" 
			},
			{
				"x": 0.9082902279,
				"y": -3.7577878558,
				"z": 3.8089817852,
				"element": "H" 
			},
			{
				"x": -1.6352686294,
				"y": -2.456329141,
				"z": 1.8285592573,
				"element": "H" 
			}
		],
		 "valence_orbital": [ 
			{
				"type": "occ",
				"energy": -0.33995,
				"method": "rhf"
			},
			{
				"type": "occ",
				"energy": -0.29349,
				"method": "rhf"
			},
			{
				"type": "occ",
				"energy": -0.24959,
				"method": "rhf"
			},
			{
				"type": "occ",
				"energy": -0.23697,
				"method": "rhf"
			},
			{
				"type": "occ",
				"energy": -0.22317,
				"method": "rhf"
			},
			{
				"type": "unocc",
				"energy": -0.06065,
				"method": "rhf"
			},
			{
				"type": "unocc",
				"energy": 0.00422,
				"method": "rhf"
			},
			{
				"type": "unocc",
				"energy": 0.01506,
				"method": "rhf"
			},
			{
				"type": "unocc",
				"energy": 0.08593,
				"method": "rhf"
			},
			{
				"type": "unocc",
				"energy": 0.08786,
				"method": "rhf"
			}
		],
		"cosmo_sigma_profile": { 
			"-0.025": 0.0,
			"-0.024": 0.0,
			"-0.023": 0.0,
			"-0.022": 0.0,
			"-0.021": 0.0,
			"-0.02": 0.0,
			"-0.019": 0.0,
			"-0.018": 0.0,
			"-0.017": 0.0,
			"-0.016": 0.0,
			"-0.015": 0.0,
			"-0.014": 0.0,
			"-0.013": 0.0,
			"-0.012": 0.0,
			"-0.011": 0.0,
			"-0.01": 0.0,
			"-0.009": 0.178007662008,
			"-0.008": 0.966030262285,
			"-0.007": 2.08718416626,
			"-0.006": 9.71267545069,
			"-0.005": 14.7211451915,
			"-0.004": 23.8564507267,
			"-0.003": 21.2667394486,
			"-0.002": 21.4137018358,
			"-0.001": 24.6929846655,
			"0.0": 27.1546724416,
			"0.001": 18.779454902,
			"0.002": 17.7051252023,
			"0.003": 15.3235354011,
			"0.004": 13.6341558984,
			"0.005": 5.87747313874,
			"0.006": 3.0271560657,
			"0.007": 2.15861756196,
			"0.008": 1.57045478767,
			"0.009": 2.22116392492,
			"0.01": 1.32968977521,
			"0.011": 3.37887798509,
			"0.012": 4.57818379368,
			"0.013": 1.84530603308,
			"0.014": 0.198260553191,
			"0.015": 0.0,
			"0.016": 0.0,
			"0.017": 0.0,
			"0.018": 0.0,
			"0.019": 0.0,
			"0.02": 0.0,
			"0.021": 0.0,
			"0.022": 0.0,
			"0.023": 0.0,
			"0.024": 0.0,
			"0.025": 0.0
		}
	}
}
