{
	 "smiles": "C1CC1N1CCNC2=C1C=CC=C2", 
	 "Tm": 332.15, 
	 "num_atms": 27, 
	 "gaussian": { 
		 "optdone": 1, 
		 "sigma_profile": "yes", 
		 "theory": "DFT", 
		 "functional": "B3LYP", 
		 "basiset": "6-31G**", 
		 "properties": { 
			 "R2extent": 2689.927, 
			 "electric_dipole_moment_norm": 2.41283433745, 
			 "electric_quadrupole_moment_norm": 8.21059527684, 
			 "total_energy": -537.071493724, 
			 "HOMO_LUMO_gap": 0.1905, 
			 "cosmo_polarized_energy": -8.17, 
			 "cosmo_cavitation_energy": 27.98, 
			 "cosmo_dispersion_energy": -20.85, 
			 "cosmo_repulsion_energy": 1.64, 
			 "cosmo_total_nonelectrostatic_energy": 8.77, 
			 "SMD_solvation_energy": 2.19 
		},
		"coords": [
			{
				"x": 0.4634191608,
				"y": -1.8822277264,
				"z": -2.0428759551,
				"element": "C" 
			},
			{
				"x": -0.9612432635,
				"y": -2.0050836654,
				"z": -1.5730305067,
				"element": "C" 
			},
			{
				"x": -0.1679354331,
				"y": -0.7536528038,
				"z": -1.2634141357,
				"element": "C" 
			},
			{
				"x": 0.2786844747,
				"y": -0.5072016261,
				"z": 0.0735496297,
				"element": "N" 
			},
			{
				"x": 1.7183530924,
				"y": -0.4160688726,
				"z": 0.3096060127,
				"element": "C" 
			},
			{
				"x": 2.0332479889,
				"y": 0.5466254006,
				"z": 1.451012665,
				"element": "C" 
			},
			{
				"x": 1.2309771085,
				"y": 0.1606433309,
				"z": 2.6050139127,
				"element": "N" 
			},
			{
				"x": -0.1572733912,
				"y": 0.1981996445,
				"z": 2.3680940352,
				"element": "C" 
			},
			{
				"x": -0.6316721401,
				"y": -0.1250097452,
				"z": 1.0677655652,
				"element": "C" 
			},
			{
				"x": -2.0150944718,
				"y": -0.0616325249,
				"z": 0.8337551642,
				"element": "C" 
			},
			{
				"x": -2.9084831686,
				"y": 0.2688569084,
				"z": 1.8556287158,
				"element": "C" 
			},
			{
				"x": -2.4390789308,
				"y": 0.5560657552,
				"z": 3.1345900728,
				"element": "C" 
			},
			{
				"x": -1.0637513072,
				"y": 0.5305838676,
				"z": 3.375571976,
				"element": "C" 
			},
			{
				"x": 0.6540625374,
				"y": -1.7201024426,
				"z": -3.0993336105,
				"element": "H" 
			},
			{
				"x": 1.2109914047,
				"y": -2.4879492448,
				"z": -1.5410298779,
				"element": "H" 
			},
			{
				"x": -1.760964742,
				"y": -1.9352527321,
				"z": -2.3045569041,
				"element": "H" 
			},
			{
				"x": -1.1601034762,
				"y": -2.6737598839,
				"z": -0.7423405778,
				"element": "H" 
			},
			{
				"x": -0.4392099827,
				"y": 0.1348930777,
				"z": -1.8419245616,
				"element": "H" 
			},
			{
				"x": 2.1402428749,
				"y": -1.4017374598,
				"z": 0.5542817233,
				"element": "H" 
			},
			{
				"x": 2.2083591224,
				"y": -0.06509847,
				"z": -0.606049752,
				"element": "H" 
			},
			{
				"x": 1.8320682058,
				"y": 1.5809680853,
				"z": 1.1227860893,
				"element": "H" 
			},
			{
				"x": 3.0946746435,
				"y": 0.4723277523,
				"z": 1.7065370254,
				"element": "H" 
			},
			{
				"x": 1.4889769037,
				"y": 0.651554106,
				"z": 3.4527271657,
				"element": "H" 
			},
			{
				"x": -2.3954193515,
				"y": -0.2814565279,
				"z": -0.1560397126,
				"element": "H" 
			},
			{
				"x": -3.9726283505,
				"y": 0.3001768459,
				"z": 1.640181138,
				"element": "H" 
			},
			{
				"x": -3.1258144347,
				"y": 0.8121929146,
				"z": 3.9355006623,
				"element": "H" 
			},
			{
				"x": -0.6765850736,
				"y": 0.7736460365,
				"z": 4.363294041,
				"element": "H" 
			}
		],
		 "valence_orbital": [ 
			{
				"type": "occ",
				"energy": -0.29286,
				"method": "rhf"
			},
			{
				"type": "occ",
				"energy": -0.27939,
				"method": "rhf"
			},
			{
				"type": "occ",
				"energy": -0.26619,
				"method": "rhf"
			},
			{
				"type": "occ",
				"energy": -0.20415,
				"method": "rhf"
			},
			{
				"type": "occ",
				"energy": -0.16653,
				"method": "rhf"
			},
			{
				"type": "unocc",
				"energy": 0.02397,
				"method": "rhf"
			},
			{
				"type": "unocc",
				"energy": 0.0353,
				"method": "rhf"
			},
			{
				"type": "unocc",
				"energy": 0.08589,
				"method": "rhf"
			},
			{
				"type": "unocc",
				"energy": 0.09638,
				"method": "rhf"
			},
			{
				"type": "unocc",
				"energy": 0.10335,
				"method": "rhf"
			}
		],
		"cosmo_sigma_profile": { 
			"-0.025": 0.0,
			"-0.024": 0.0,
			"-0.023": 0.0,
			"-0.022": 0.0,
			"-0.021": 0.0,
			"-0.02": 0.0,
			"-0.019": 0.0,
			"-0.018": 0.0,
			"-0.017": 0.0,
			"-0.016": 0.0,
			"-0.015": 0.0,
			"-0.014": 0.0,
			"-0.013": 0.0,
			"-0.012": 0.692224921381,
			"-0.011": 1.33301844395,
			"-0.01": 1.09061410585,
			"-0.009": 1.70399181925,
			"-0.008": 1.27657027741,
			"-0.007": 1.54118274943,
			"-0.006": 2.36431081805,
			"-0.005": 8.98038110839,
			"-0.004": 22.5185329901,
			"-0.003": 27.6982617361,
			"-0.002": 28.4781145385,
			"-0.001": 22.8945188757,
			"0.0": 18.1297881732,
			"0.001": 13.4512476609,
			"0.002": 10.4333987522,
			"0.003": 8.72452961625,
			"0.004": 8.29741519854,
			"0.005": 8.91242900577,
			"0.006": 8.54748783918,
			"0.007": 8.2670401299,
			"0.008": 7.55650698302,
			"0.009": 4.35145475177,
			"0.01": 0.674869092136,
			"0.011": 0.31152227524,
			"0.012": 0.717893764923,
			"0.013": 0.653074639111,
			"0.014": 0.381951092033,
			"0.015": 0.0961710156953,
			"0.016": 0.0,
			"0.017": 0.0,
			"0.018": 0.0,
			"0.019": 0.0,
			"0.02": 0.0,
			"0.021": 0.0,
			"0.022": 0.0,
			"0.023": 0.0,
			"0.024": 0.0,
			"0.025": 0.0
		}
	}
}
