{
	 "smiles": "NC1=CC=C(NC(=O)C2=CC=CS2)C=C1", 
	 "Tm": 440.15, 
	 "num_atms": 25, 
	 "gaussian": { 
		 "optdone": 1, 
		 "sigma_profile": "yes", 
		 "theory": "DFT", 
		 "functional": "B3LYP", 
		 "basiset": "6-31G**", 
		 "properties": { 
			 "R2extent": 4965.3937, 
			 "electric_dipole_moment_norm": 5.98297967989, 
			 "electric_quadrupole_moment_norm": 13.6545319817, 
			 "total_energy": -1008.11032184, 
			 "HOMO_LUMO_gap": 0.16717, 
			 "cosmo_polarized_energy": -16.69, 
			 "cosmo_cavitation_energy": 31.1, 
			 "cosmo_dispersion_energy": -22.78, 
			 "cosmo_repulsion_energy": 1.76, 
			 "cosmo_total_nonelectrostatic_energy": 10.08, 
			 "SMD_solvation_energy": 5.83 
		},
		"coords": [
			{
				"x": -3.5623697003,
				"y": 1.673257867,
				"z": -0.4447685604,
				"element": "N" 
			},
			{
				"x": -2.2575056332,
				"y": 1.2018942261,
				"z": -0.5775989097,
				"element": "C" 
			},
			{
				"x": -1.598755217,
				"y": 1.2431861918,
				"z": -1.8191072608,
				"element": "C" 
			},
			{
				"x": -0.3218324829,
				"y": 0.7079950778,
				"z": -1.9626541059,
				"element": "C" 
			},
			{
				"x": 0.3421782886,
				"y": 0.1331377843,
				"z": -0.8731754742,
				"element": "C" 
			},
			{
				"x": 1.6701404398,
				"y": -0.3638001062,
				"z": -1.0337372281,
				"element": "N" 
			},
			{
				"x": 2.1965204182,
				"y": -1.6005121938,
				"z": -0.7201968417,
				"element": "C" 
			},
			{
				"x": 3.4139406955,
				"y": -1.7396267776,
				"z": -0.6092032442,
				"element": "O" 
			},
			{
				"x": 1.292949556,
				"y": -2.7660306412,
				"z": -0.5678929219,
				"element": "C" 
			},
			{
				"x": -0.0243750751,
				"y": -2.9931644859,
				"z": -0.9043945712,
				"element": "C" 
			},
			{
				"x": -0.4441828373,
				"y": -4.3255762562,
				"z": -0.6373560533,
				"element": "C" 
			},
			{
				"x": 0.5582380491,
				"y": -5.0939073792,
				"z": -0.1018434248,
				"element": "C" 
			},
			{
				"x": 2.0333632211,
				"y": -4.2155234315,
				"z": 0.0685783668,
				"element": "S" 
			},
			{
				"x": -0.3025595802,
				"y": 0.1088918203,
				"z": 0.3704469993,
				"element": "C" 
			},
			{
				"x": -1.5868550215,
				"y": 0.6214059936,
				"z": 0.5147389087,
				"element": "C" 
			},
			{
				"x": -3.8468552907,
				"y": 2.3642949915,
				"z": -1.1248317457,
				"element": "H" 
			},
			{
				"x": -3.8399901462,
				"y": 1.9257681811,
				"z": 0.4934236827,
				"element": "H" 
			},
			{
				"x": -2.0984764757,
				"y": 1.6854794286,
				"z": -2.6772550031,
				"element": "H" 
			},
			{
				"x": 0.1712549744,
				"y": 0.7318910474,
				"z": -2.9301383408,
				"element": "H" 
			},
			{
				"x": 2.4091696989,
				"y": 0.3157045171,
				"z": -1.1734102976,
				"element": "H" 
			},
			{
				"x": -0.6687347424,
				"y": -2.2377832426,
				"z": -1.333779928,
				"element": "H" 
			},
			{
				"x": -1.444789959,
				"y": -4.6934560887,
				"z": -0.8342268826,
				"element": "H" 
			},
			{
				"x": 0.5086226445,
				"y": -6.132035613,
				"z": 0.1983526125,
				"element": "H" 
			},
			{
				"x": 0.2090005141,
				"y": -0.3183391616,
				"z": 1.2272040526,
				"element": "H" 
			},
			{
				"x": -2.0760963385,
				"y": 0.5835482508,
				"z": 1.4848261714,
				"element": "H" 
			}
		],
		 "valence_orbital": [ 
			{
				"type": "occ",
				"energy": -0.26034,
				"method": "rhf"
			},
			{
				"type": "occ",
				"energy": -0.25178,
				"method": "rhf"
			},
			{
				"type": "occ",
				"energy": -0.24437,
				"method": "rhf"
			},
			{
				"type": "occ",
				"energy": -0.23311,
				"method": "rhf"
			},
			{
				"type": "occ",
				"energy": -0.20637,
				"method": "rhf"
			},
			{
				"type": "unocc",
				"energy": -0.0392,
				"method": "rhf"
			},
			{
				"type": "unocc",
				"energy": -0.00977,
				"method": "rhf"
			},
			{
				"type": "unocc",
				"energy": 0.00399,
				"method": "rhf"
			},
			{
				"type": "unocc",
				"energy": 0.04137,
				"method": "rhf"
			},
			{
				"type": "unocc",
				"energy": 0.04647,
				"method": "rhf"
			}
		],
		"cosmo_sigma_profile": { 
			"-0.025": 0.0,
			"-0.024": 0.0,
			"-0.023": 0.0,
			"-0.022": 0.0,
			"-0.021": 0.0,
			"-0.02": 0.0,
			"-0.019": 0.0,
			"-0.018": 0.0,
			"-0.017": 0.0,
			"-0.016": 0.0,
			"-0.015": 0.0,
			"-0.014": 0.315018082273,
			"-0.013": 1.46166651739,
			"-0.012": 4.02063077142,
			"-0.011": 3.73322406508,
			"-0.01": 3.49033150709,
			"-0.009": 4.99843011307,
			"-0.008": 5.50856552505,
			"-0.007": 8.33692192718,
			"-0.006": 12.539497996,
			"-0.005": 14.4993655376,
			"-0.004": 15.7995336529,
			"-0.003": 13.4647422049,
			"-0.002": 12.0686359177,
			"-0.001": 12.039589458,
			"0.0": 15.5156209433,
			"0.001": 16.3732970646,
			"0.002": 16.1593497535,
			"0.003": 26.7064518574,
			"0.004": 21.171107189,
			"0.005": 12.3750835737,
			"0.006": 5.46128761412,
			"0.007": 2.56422030272,
			"0.008": 2.54573788281,
			"0.009": 1.99082698159,
			"0.01": 2.16393175526,
			"0.011": 2.84307115994,
			"0.012": 2.70058748161,
			"0.013": 5.35321566025,
			"0.014": 4.0717106567,
			"0.015": 0.217229023785,
			"0.016": 0.0,
			"0.017": 0.0,
			"0.018": 0.0,
			"0.019": 0.0,
			"0.02": 0.0,
			"0.021": 0.0,
			"0.022": 0.0,
			"0.023": 0.0,
			"0.024": 0.0,
			"0.025": 0.0
		}
	}
}
