{
	 "smiles": "COC1=CC2=C(C=C1)C(O)C(=O)N2", 
	 "Tm": 463.15, 
	 "num_atms": 22, 
	 "gaussian": { 
		 "optdone": 1, 
		 "sigma_profile": "yes", 
		 "theory": "DFT", 
		 "functional": "B3LYP", 
		 "basiset": "6-31G**", 
		 "properties": { 
			 "R2extent": 3031.2847, 
			 "electric_dipole_moment_norm": 3.54044581515, 
			 "electric_quadrupole_moment_norm": 6.00018401718, 
			 "total_energy": -628.796442518, 
			 "HOMO_LUMO_gap": 0.20025, 
			 "cosmo_polarized_energy": -14.27, 
			 "cosmo_cavitation_energy": 26.14, 
			 "cosmo_dispersion_energy": -19.61, 
			 "cosmo_repulsion_energy": 1.55, 
			 "cosmo_total_nonelectrostatic_energy": 8.08, 
			 "SMD_solvation_energy": 5.58 
		},
		"coords": [
			{
				"x": 2.4382054549,
				"y": 1.9304663305,
				"z": -1.7178205287,
				"element": "C" 
			},
			{
				"x": 2.2640670532,
				"y": 1.0008982627,
				"z": -0.6591878973,
				"element": "O" 
			},
			{
				"x": 1.000449346,
				"y": 0.5824030076,
				"z": -0.3641722759,
				"element": "C" 
			},
			{
				"x": 0.9199828813,
				"y": -0.3426485865,
				"z": 0.6955556939,
				"element": "C" 
			},
			{
				"x": -0.3333958716,
				"y": -0.8130860188,
				"z": 1.0415358961,
				"element": "C" 
			},
			{
				"x": -1.5059803129,
				"y": -0.3902917784,
				"z": 0.3869746311,
				"element": "C" 
			},
			{
				"x": -1.4093948244,
				"y": 0.5216825893,
				"z": -0.647795882,
				"element": "C" 
			},
			{
				"x": -0.1520284481,
				"y": 1.0111068283,
				"z": -1.0356458409,
				"element": "C" 
			},
			{
				"x": -2.6883540044,
				"y": -1.0550785913,
				"z": 1.0411195495,
				"element": "C" 
			},
			{
				"x": -3.5279860868,
				"y": -1.756504134,
				"z": 0.1455479769,
				"element": "O" 
			},
			{
				"x": -2.0175435668,
				"y": -2.0292398299,
				"z": 2.0389380549,
				"element": "C" 
			},
			{
				"x": -2.5895186833,
				"y": -2.8989018658,
				"z": 2.6695370956,
				"element": "O" 
			},
			{
				"x": -0.6682367999,
				"y": -1.7443843909,
				"z": 2.0422710532,
				"element": "N" 
			},
			{
				"x": 1.9148264817,
				"y": 2.8739893474,
				"z": -1.5176644621,
				"element": "H" 
			},
			{
				"x": 2.0899277707,
				"y": 1.5227643594,
				"z": -2.6752115156,
				"element": "H" 
			},
			{
				"x": 3.5109250148,
				"y": 2.120296441,
				"z": -1.7770331492,
				"element": "H" 
			},
			{
				"x": 1.8294769793,
				"y": -0.6588355931,
				"z": 1.1944559127,
				"element": "H" 
			},
			{
				"x": -2.3008077497,
				"y": 0.8536250281,
				"z": -1.1716315452,
				"element": "H" 
			},
			{
				"x": -0.0864625298,
				"y": 1.7175031007,
				"z": -1.85336853,
				"element": "H" 
			},
			{
				"x": -3.2688912753,
				"y": -0.3253179202,
				"z": 1.6339192193,
				"element": "H" 
			},
			{
				"x": -4.0083819,
				"y": -2.4038907037,
				"z": 0.6854606918,
				"element": "H" 
			},
			{
				"x": -0.0036789292,
				"y": -2.3005558825,
				"z": 2.5614158519,
				"element": "H" 
			}
		],
		 "valence_orbital": [ 
			{
				"type": "occ",
				"energy": -0.30062,
				"method": "rhf"
			},
			{
				"type": "occ",
				"energy": -0.28681,
				"method": "rhf"
			},
			{
				"type": "occ",
				"energy": -0.25631,
				"method": "rhf"
			},
			{
				"type": "occ",
				"energy": -0.23779,
				"method": "rhf"
			},
			{
				"type": "occ",
				"energy": -0.21667,
				"method": "rhf"
			},
			{
				"type": "unocc",
				"energy": -0.01642,
				"method": "rhf"
			},
			{
				"type": "unocc",
				"energy": -0.00642,
				"method": "rhf"
			},
			{
				"type": "unocc",
				"energy": 0.03601,
				"method": "rhf"
			},
			{
				"type": "unocc",
				"energy": 0.08532,
				"method": "rhf"
			},
			{
				"type": "unocc",
				"energy": 0.09199,
				"method": "rhf"
			}
		],
		"cosmo_sigma_profile": { 
			"-0.025": 0.0,
			"-0.024": 0.0,
			"-0.023": 0.0,
			"-0.022": 0.0,
			"-0.021": 0.0,
			"-0.02": 0.0,
			"-0.019": 0.0,
			"-0.018": 0.0,
			"-0.017": 0.0,
			"-0.016": 0.63028124112,
			"-0.015": 1.61382704441,
			"-0.014": 1.86249962654,
			"-0.013": 1.73583483437,
			"-0.012": 1.90149608422,
			"-0.011": 1.97235250138,
			"-0.01": 1.50678584883,
			"-0.009": 1.12313040081,
			"-0.008": 2.72898338243,
			"-0.007": 5.69477648107,
			"-0.006": 13.6812815652,
			"-0.005": 16.312059293,
			"-0.004": 16.3984277936,
			"-0.003": 15.7454014986,
			"-0.002": 13.844310927,
			"-0.001": 9.38538305545,
			"0.0": 9.18831449398,
			"0.001": 10.2123585357,
			"0.002": 9.62763761796,
			"0.003": 11.4349069768,
			"0.004": 14.4816881875,
			"0.005": 9.84157217447,
			"0.006": 6.11902183563,
			"0.007": 3.55978306755,
			"0.008": 3.56635731813,
			"0.009": 3.37720748037,
			"0.01": 4.60854444974,
			"0.011": 4.25722122187,
			"0.012": 7.14268036169,
			"0.013": 3.86426874399,
			"0.014": 0.244872285609,
			"0.015": 0.0,
			"0.016": 0.0,
			"0.017": 0.0,
			"0.018": 0.0,
			"0.019": 0.0,
			"0.02": 0.0,
			"0.021": 0.0,
			"0.022": 0.0,
			"0.023": 0.0,
			"0.024": 0.0,
			"0.025": 0.0
		}
	}
}
