{
	 "smiles": "COC(=O)C1=COC(=O)C=C1", 
	 "Tm": 343.15, 
	 "num_atms": 17, 
	 "gaussian": { 
		 "optdone": 1, 
		 "sigma_profile": "yes", 
		 "theory": "DFT", 
		 "functional": "B3LYP", 
		 "basiset": "6-31G**", 
		 "properties": { 
			 "R2extent": 2381.9697, 
			 "electric_dipole_moment_norm": 4.50668716798, 
			 "electric_quadrupole_moment_norm": 12.3278792296, 
			 "total_energy": -571.244835965, 
			 "HOMO_LUMO_gap": 0.17804, 
			 "cosmo_polarized_energy": -11.67, 
			 "cosmo_cavitation_energy": 22.56, 
			 "cosmo_dispersion_energy": -16.69, 
			 "cosmo_repulsion_energy": 1.34, 
			 "cosmo_total_nonelectrostatic_energy": 7.22, 
			 "SMD_solvation_energy": 7.4 
		},
		"coords": [
			{
				"x": 0.2434644029,
				"y": -2.0467262722,
				"z": -3.0169736742,
				"element": "C" 
			},
			{
				"x": 0.578057863,
				"y": -0.8841903044,
				"z": -2.2391372713,
				"element": "O" 
			},
			{
				"x": 0.5685479176,
				"y": -1.0652688222,
				"z": -0.9002628964,
				"element": "C" 
			},
			{
				"x": 0.3002872764,
				"y": -2.1231971572,
				"z": -0.3642498458,
				"element": "O" 
			},
			{
				"x": 0.9232139352,
				"y": 0.1778365432,
				"z": -0.1769370279,
				"element": "C" 
			},
			{
				"x": 0.9517624151,
				"y": 0.137140375,
				"z": 1.1842048525,
				"element": "C" 
			},
			{
				"x": 1.2560992293,
				"y": 1.1889575557,
				"z": 1.9423414124,
				"element": "O" 
			},
			{
				"x": 1.5828705698,
				"y": 2.4662251791,
				"z": 1.3856386003,
				"element": "C" 
			},
			{
				"x": 1.8422706104,
				"y": 3.3483570405,
				"z": 2.1621128208,
				"element": "O" 
			},
			{
				"x": 1.5542903934,
				"y": 2.5161828218,
				"z": -0.0634759376,
				"element": "C" 
			},
			{
				"x": 1.2403831316,
				"y": 1.4278524608,
				"z": -0.8114722182,
				"element": "C" 
			},
			{
				"x": 0.2985447115,
				"y": -1.7285618571,
				"z": -4.0576329612,
				"element": "H" 
			},
			{
				"x": -0.7632315621,
				"y": -2.3939263854,
				"z": -2.772658734,
				"element": "H" 
			},
			{
				"x": 0.9530195646,
				"y": -2.8544584335,
				"z": -2.8226188305,
				"element": "H" 
			},
			{
				"x": 0.7279307457,
				"y": -0.7583822061,
				"z": 1.7540359758,
				"element": "H" 
			},
			{
				"x": 1.798763613,
				"y": 3.4744506266,
				"z": -0.5055850891,
				"element": "H" 
			},
			{
				"x": 1.2240251826,
				"y": 1.4839088355,
				"z": -1.8944291756,
				"element": "H" 
			}
		],
		 "valence_orbital": [ 
			{
				"type": "occ",
				"energy": -0.33924,
				"method": "rhf"
			},
			{
				"type": "occ",
				"energy": -0.31645,
				"method": "rhf"
			},
			{
				"type": "occ",
				"energy": -0.2927,
				"method": "rhf"
			},
			{
				"type": "occ",
				"energy": -0.28494,
				"method": "rhf"
			},
			{
				"type": "occ",
				"energy": -0.25069,
				"method": "rhf"
			},
			{
				"type": "unocc",
				"energy": -0.07265,
				"method": "rhf"
			},
			{
				"type": "unocc",
				"energy": -0.04538,
				"method": "rhf"
			},
			{
				"type": "unocc",
				"energy": 0.0465,
				"method": "rhf"
			},
			{
				"type": "unocc",
				"energy": 0.08599,
				"method": "rhf"
			},
			{
				"type": "unocc",
				"energy": 0.10487,
				"method": "rhf"
			}
		],
		"cosmo_sigma_profile": { 
			"-0.025": 0.0,
			"-0.024": 0.0,
			"-0.023": 0.0,
			"-0.022": 0.0,
			"-0.021": 0.0,
			"-0.02": 0.0,
			"-0.019": 0.0,
			"-0.018": 0.0,
			"-0.017": 0.0,
			"-0.016": 0.0,
			"-0.015": 0.0,
			"-0.014": 0.0,
			"-0.013": 0.0,
			"-0.012": 0.0,
			"-0.011": 0.247814404473,
			"-0.01": 1.48666997799,
			"-0.009": 2.00405806991,
			"-0.008": 4.36706760387,
			"-0.007": 6.19639260654,
			"-0.006": 11.144706299,
			"-0.005": 12.8862819055,
			"-0.004": 17.0246352276,
			"-0.003": 21.3037507724,
			"-0.002": 16.9901771924,
			"-0.001": 12.4478063181,
			"0.0": 9.63975312484,
			"0.001": 8.88744863839,
			"0.002": 6.42355998284,
			"0.003": 4.41704872745,
			"0.004": 5.53110203062,
			"0.005": 4.82848258291,
			"0.006": 2.68285212298,
			"0.007": 3.93587416696,
			"0.008": 3.75293727474,
			"0.009": 4.09196503984,
			"0.01": 4.4205762207,
			"0.011": 10.0542146029,
			"0.012": 6.27828395277,
			"0.013": 0.219648115365,
			"0.014": 0.0,
			"0.015": 0.0,
			"0.016": 0.0,
			"0.017": 0.0,
			"0.018": 0.0,
			"0.019": 0.0,
			"0.02": 0.0,
			"0.021": 0.0,
			"0.022": 0.0,
			"0.023": 0.0,
			"0.024": 0.0,
			"0.025": 0.0
		}
	}
}
