{
	 "smiles": "CNC(CC(O)=O)C(O)=O", 
	 "Tm": 463.15, 
	 "num_atms": 19, 
	 "gaussian": { 
		 "optdone": 1, 
		 "sigma_profile": "yes", 
		 "theory": "DFT", 
		 "functional": "B3LYP", 
		 "basiset": "6-31G**", 
		 "properties": { 
			 "R2extent": 2231.5037, 
			 "electric_dipole_moment_norm": 3.72888599316, 
			 "electric_quadrupole_moment_norm": 16.7321511656, 
			 "total_energy": -551.612068109, 
			 "HOMO_LUMO_gap": 0.23542, 
			 "cosmo_polarized_energy": -20.85, 
			 "cosmo_cavitation_energy": 23.53, 
			 "cosmo_dispersion_energy": -16.39, 
			 "cosmo_repulsion_energy": 1.37, 
			 "cosmo_total_nonelectrostatic_energy": 8.51, 
			 "SMD_solvation_energy": 4.43 
		},
		"coords": [
			{
				"x": -1.4132570903,
				"y": 0.8719169808,
				"z": -1.676579674,
				"element": "C" 
			},
			{
				"x": -1.8180164588,
				"y": -0.4150152505,
				"z": -1.1062342579,
				"element": "N" 
			},
			{
				"x": -1.0240047768,
				"y": -0.8259538009,
				"z": 0.0377453792,
				"element": "C" 
			},
			{
				"x": -1.6956369734,
				"y": -2.0544256603,
				"z": 0.7083762307,
				"element": "C" 
			},
			{
				"x": -1.0499918938,
				"y": -2.4804436394,
				"z": 2.0218530629,
				"element": "C" 
			},
			{
				"x": -1.2653600828,
				"y": -1.6501839276,
				"z": 3.0790618406,
				"element": "O" 
			},
			{
				"x": -0.3800373643,
				"y": -3.4719121387,
				"z": 2.1568461474,
				"element": "O" 
			},
			{
				"x": 0.4189636265,
				"y": -1.1935003484,
				"z": -0.3389706428,
				"element": "C" 
			},
			{
				"x": 1.2808596004,
				"y": -0.9754034874,
				"z": 0.6740511137,
				"element": "O" 
			},
			{
				"x": 0.7419286881,
				"y": -1.6518565107,
				"z": -1.4124693777,
				"element": "O" 
			},
			{
				"x": -1.5823464674,
				"y": 1.6655138519,
				"z": -0.9403890126,
				"element": "H" 
			},
			{
				"x": -2.0420236764,
				"y": 1.0872955804,
				"z": -2.5447161798,
				"element": "H" 
			},
			{
				"x": -0.3603909997,
				"y": 0.9171186579,
				"z": -1.9974223853,
				"element": "H" 
			},
			{
				"x": -1.7231469724,
				"y": -1.133402796,
				"z": -1.8221144807,
				"element": "H" 
			},
			{
				"x": -0.9846759328,
				"y": 0.0050213134,
				"z": 0.7525652153,
				"element": "H" 
			},
			{
				"x": -2.7505068028,
				"y": -1.7996797139,
				"z": 0.8596162729,
				"element": "H" 
			},
			{
				"x": -1.6472281452,
				"y": -2.9090513351,
				"z": 0.0294350983,
				"element": "H" 
			},
			{
				"x": -1.8447286294,
				"y": -0.9187856814,
				"z": 2.8234451418,
				"element": "H" 
			},
			{
				"x": 2.1481003513,
				"y": -1.316252094,
				"z": 0.3943005081,
				"element": "H" 
			}
		],
		 "valence_orbital": [ 
			{
				"type": "occ",
				"energy": -0.33191,
				"method": "rhf"
			},
			{
				"type": "occ",
				"energy": -0.31767,
				"method": "rhf"
			},
			{
				"type": "occ",
				"energy": -0.29244,
				"method": "rhf"
			},
			{
				"type": "occ",
				"energy": -0.27427,
				"method": "rhf"
			},
			{
				"type": "occ",
				"energy": -0.24498,
				"method": "rhf"
			},
			{
				"type": "unocc",
				"energy": -0.00956,
				"method": "rhf"
			},
			{
				"type": "unocc",
				"energy": 0.00353,
				"method": "rhf"
			},
			{
				"type": "unocc",
				"energy": 0.04654,
				"method": "rhf"
			},
			{
				"type": "unocc",
				"energy": 0.07213,
				"method": "rhf"
			},
			{
				"type": "unocc",
				"energy": 0.08885,
				"method": "rhf"
			}
		],
		"cosmo_sigma_profile": { 
			"-0.025": 0.0,
			"-0.024": 0.0,
			"-0.023": 0.0,
			"-0.022": 0.0,
			"-0.021": 0.0,
			"-0.02": 0.0413183674738,
			"-0.019": 1.33152784318,
			"-0.018": 1.946683086,
			"-0.017": 2.08612677197,
			"-0.016": 1.93834519832,
			"-0.015": 2.32851025556,
			"-0.014": 1.6553399694,
			"-0.013": 1.33114090857,
			"-0.012": 2.06245934723,
			"-0.011": 1.84209971971,
			"-0.01": 2.42876835615,
			"-0.009": 2.87765655873,
			"-0.008": 4.99573791172,
			"-0.007": 5.5646415259,
			"-0.006": 6.38827882588,
			"-0.005": 9.72610981687,
			"-0.004": 11.7898898746,
			"-0.003": 13.0164585192,
			"-0.002": 10.447162628,
			"-0.001": 12.4452126827,
			"0.0": 7.80720917229,
			"0.001": 6.10567155334,
			"0.002": 5.58227527399,
			"0.003": 5.07469427142,
			"0.004": 5.39132753976,
			"0.005": 4.95228925603,
			"0.006": 5.90684118239,
			"0.007": 5.94696334157,
			"0.008": 6.2297294608,
			"0.009": 6.4050913901,
			"0.01": 7.14916800166,
			"0.011": 10.6925232389,
			"0.012": 7.26867052619,
			"0.013": 1.95304858243,
			"0.014": 0.30883908766,
			"0.015": 0.445992933525,
			"0.016": 0.306681544739,
			"0.017": 0.0,
			"0.018": 0.0,
			"0.019": 0.0,
			"0.02": 0.0,
			"0.021": 0.0,
			"0.022": 0.0,
			"0.023": 0.0,
			"0.024": 0.0,
			"0.025": 0.0
		}
	}
}
