{
	 "smiles": "CCCCC1=CC=C(C=C1)S(Cl)(=O)=O", 
	 "Tm": 287.15, 
	 "num_atms": 27, 
	 "gaussian": { 
		 "optdone": 1, 
		 "sigma_profile": "yes", 
		 "theory": "DFT", 
		 "functional": "B3LYP", 
		 "basiset": "6-31G**", 
		 "properties": { 
			 "R2extent": 6668.085, 
			 "electric_dipole_moment_norm": 6.29993667111, 
			 "electric_quadrupole_moment_norm": 24.3509005476, 
			 "total_energy": -1397.67595649, 
			 "HOMO_LUMO_gap": 0.19027, 
			 "cosmo_polarized_energy": -9.14, 
			 "cosmo_cavitation_energy": 33.48, 
			 "cosmo_dispersion_energy": -24.06, 
			 "cosmo_repulsion_energy": 1.88, 
			 "cosmo_total_nonelectrostatic_energy": 11.3, 
			 "SMD_solvation_energy": 4.01 
		},
		"coords": [
			{
				"x": 0.392517089,
				"y": -2.2886722244,
				"z": 2.4404928566,
				"element": "C" 
			},
			{
				"x": 1.296341364,
				"y": -1.4193542907,
				"z": 1.5582021731,
				"element": "C" 
			},
			{
				"x": 1.3120010711,
				"y": 0.0699297432,
				"z": 1.9384606923,
				"element": "C" 
			},
			{
				"x": -0.0212627575,
				"y": 0.8253909999,
				"z": 1.7212629542,
				"element": "C" 
			},
			{
				"x": -0.4346294015,
				"y": 0.9264573811,
				"z": 0.2691943867,
				"element": "C" 
			},
			{
				"x": -1.4644746134,
				"y": 0.1288957672,
				"z": -0.2517921923,
				"element": "C" 
			},
			{
				"x": -1.8348373337,
				"y": 0.2090720556,
				"z": -1.5927806927,
				"element": "C" 
			},
			{
				"x": -1.154378002,
				"y": 1.1049153677,
				"z": -2.4167526199,
				"element": "C" 
			},
			{
				"x": -0.1254255463,
				"y": 1.9176311844,
				"z": -1.9364277487,
				"element": "C" 
			},
			{
				"x": 0.2250657656,
				"y": 1.8177067821,
				"z": -0.593817448,
				"element": "C" 
			},
			{
				"x": -1.6044683986,
				"y": 1.2081403102,
				"z": -4.1382854088,
				"element": "S" 
			},
			{
				"x": -3.1065989214,
				"y": 2.7318934743,
				"z": -4.0975155837,
				"element": "Cl" 
			},
			{
				"x": -0.4923683963,
				"y": 1.7636276188,
				"z": -4.8998843671,
				"element": "O" 
			},
			{
				"x": -2.2875520979,
				"y": -0.0162919932,
				"z": -4.5376112328,
				"element": "O" 
			},
			{
				"x": 0.676397771,
				"y": -2.209868983,
				"z": 3.4963422965,
				"element": "H" 
			},
			{
				"x": -0.6619389144,
				"y": -2.0027096336,
				"z": 2.3617392671,
				"element": "H" 
			},
			{
				"x": 0.4640031352,
				"y": -3.3430659866,
				"z": 2.1554664454,
				"element": "H" 
			},
			{
				"x": 2.3239828486,
				"y": -1.7978179218,
				"z": 1.6220112253,
				"element": "H" 
			},
			{
				"x": 1.0006496756,
				"y": -1.5271998359,
				"z": 0.5069610058,
				"element": "H" 
			},
			{
				"x": 2.0978809679,
				"y": 0.5781267845,
				"z": 1.3654705912,
				"element": "H" 
			},
			{
				"x": 1.5898339506,
				"y": 0.169864838,
				"z": 2.9959486274,
				"element": "H" 
			},
			{
				"x": -0.8198456143,
				"y": 0.3445006289,
				"z": 2.2958956867,
				"element": "H" 
			},
			{
				"x": 0.0873325221,
				"y": 1.8372429283,
				"z": 2.1301906841,
				"element": "H" 
			},
			{
				"x": -1.9868295152,
				"y": -0.5640205416,
				"z": 0.4015186715,
				"element": "H" 
			},
			{
				"x": -2.6264925033,
				"y": -0.4122502033,
				"z": -1.9962249482,
				"element": "H" 
			},
			{
				"x": 0.386323124,
				"y": 2.6026661102,
				"z": -2.6030451392,
				"element": "H" 
			},
			{
				"x": 1.023272731,
				"y": 2.4451896398,
				"z": -0.2066201824,
				"element": "H" 
			}
		],
		 "valence_orbital": [ 
			{
				"type": "occ",
				"energy": -0.3305,
				"method": "rhf"
			},
			{
				"type": "occ",
				"energy": -0.3255,
				"method": "rhf"
			},
			{
				"type": "occ",
				"energy": -0.30882,
				"method": "rhf"
			},
			{
				"type": "occ",
				"energy": -0.28416,
				"method": "rhf"
			},
			{
				"type": "occ",
				"energy": -0.27657,
				"method": "rhf"
			},
			{
				"type": "unocc",
				"energy": -0.0863,
				"method": "rhf"
			},
			{
				"type": "unocc",
				"energy": -0.03994,
				"method": "rhf"
			},
			{
				"type": "unocc",
				"energy": -0.03455,
				"method": "rhf"
			},
			{
				"type": "unocc",
				"energy": 0.05382,
				"method": "rhf"
			},
			{
				"type": "unocc",
				"energy": 0.06431,
				"method": "rhf"
			}
		],
		"cosmo_sigma_profile": { 
			"-0.025": 0.0,
			"-0.024": 0.0,
			"-0.023": 0.0,
			"-0.022": 0.0,
			"-0.021": 0.0,
			"-0.02": 0.0,
			"-0.019": 0.0,
			"-0.018": 0.0,
			"-0.017": 0.0,
			"-0.016": 0.0,
			"-0.015": 0.0,
			"-0.014": 0.0,
			"-0.013": 0.0,
			"-0.012": 0.0,
			"-0.011": 0.0,
			"-0.01": 0.0,
			"-0.009": 0.0842268179244,
			"-0.008": 2.24075475975,
			"-0.007": 5.6360268196,
			"-0.006": 10.797873323,
			"-0.005": 11.9643332004,
			"-0.004": 13.9573163911,
			"-0.003": 18.632733337,
			"-0.002": 25.8563844745,
			"-0.001": 32.7948547511,
			"0.0": 35.5998948105,
			"0.001": 33.2013964463,
			"0.002": 21.9858920753,
			"0.003": 13.2102149282,
			"0.004": 13.7321688081,
			"0.005": 2.74299819561,
			"0.006": 3.34083493664,
			"0.007": 5.41696469888,
			"0.008": 9.81391055782,
			"0.009": 5.89134688529,
			"0.01": 0.230117889933,
			"0.011": 0.0,
			"0.012": 0.0,
			"0.013": 0.0,
			"0.014": 0.0,
			"0.015": 0.0,
			"0.016": 0.0,
			"0.017": 0.0,
			"0.018": 0.0,
			"0.019": 0.0,
			"0.02": 0.0,
			"0.021": 0.0,
			"0.022": 0.0,
			"0.023": 0.0,
			"0.024": 0.0,
			"0.025": 0.0
		}
	}
}
