{
	 "smiles": "[O-][N+](=O)C1=CC(=CC=C1C=CC1=CC=C(C=CC2=C(C=C(C=C2)C#N)[N+]([O-])=O)C=C1)C#N", 
	 "Tm": 623.15, 
	 "num_atms": 46, 
	 "gaussian": { 
		 "optdone": 1, 
		 "sigma_profile": "yes", 
		 "theory": "DFT", 
		 "functional": "B3LYP", 
		 "basiset": "6-31G**", 
		 "properties": { 
			 "R2extent": 31414.64, 
			 "electric_dipole_moment_norm": 6.88893967821, 
			 "electric_quadrupole_moment_norm": 73.1162283112, 
			 "total_energy": -1442.63090214, 
			 "HOMO_LUMO_gap": 0.11024, 
			 "cosmo_polarized_energy": -27.08, 
			 "cosmo_cavitation_energy": 56.84, 
			 "cosmo_dispersion_energy": -38.79, 
			 "cosmo_repulsion_energy": 2.82, 
			 "cosmo_total_nonelectrostatic_energy": 20.86, 
			 "SMD_solvation_energy": 16.36 
		},
		"coords": [
			{
				"x": 0.4714711626,
				"y": 3.112554352,
				"z": 6.5709991324,
				"element": "O" 
			},
			{
				"x": 0.3264260345,
				"y": 3.1001697242,
				"z": 5.3504779891,
				"element": "N" 
			},
			{
				"x": 1.1597039788,
				"y": 2.6573374369,
				"z": 4.5595360679,
				"element": "O" 
			},
			{
				"x": -0.9217851786,
				"y": 3.683646478,
				"z": 4.8149010164,
				"element": "C" 
			},
			{
				"x": -1.5264898024,
				"y": 4.6232532701,
				"z": 5.6466348601,
				"element": "C" 
			},
			{
				"x": -2.7104293542,
				"y": 5.2496959368,
				"z": 5.2501529045,
				"element": "C" 
			},
			{
				"x": -3.2837048539,
				"y": 4.9055978877,
				"z": 4.0120200808,
				"element": "C" 
			},
			{
				"x": -2.6750925639,
				"y": 3.958960231,
				"z": 3.2066135625,
				"element": "C" 
			},
			{
				"x": -1.4762597393,
				"y": 3.2999343235,
				"z": 3.5667873538,
				"element": "C" 
			},
			{
				"x": -0.9043168696,
				"y": 2.2873032341,
				"z": 2.6756189275,
				"element": "C" 
			},
			{
				"x": -1.6406584776,
				"y": 1.539336528,
				"z": 1.8221619038,
				"element": "C" 
			},
			{
				"x": -1.1368648032,
				"y": 0.5279885598,
				"z": 0.8974007874,
				"element": "C" 
			},
			{
				"x": 0.2364058541,
				"y": 0.2442919254,
				"z": 0.723761202,
				"element": "C" 
			},
			{
				"x": 0.6602809092,
				"y": -0.7251559468,
				"z": -0.1679239482,
				"element": "C" 
			},
			{
				"x": -0.264922038,
				"y": -1.4662393417,
				"z": -0.9368796236,
				"element": "C" 
			},
			{
				"x": 0.125055742,
				"y": -2.4992119118,
				"z": -1.8922382551,
				"element": "C" 
			},
			{
				"x": 1.3810797564,
				"y": -2.9409688278,
				"z": -2.1316039154,
				"element": "C" 
			},
			{
				"x": 1.7026614377,
				"y": -3.9728192082,
				"z": -3.1208836409,
				"element": "C" 
			},
			{
				"x": 2.8091123379,
				"y": -4.8565897122,
				"z": -3.0362095945,
				"element": "C" 
			},
			{
				"x": 3.0491268142,
				"y": -5.8498886281,
				"z": -3.9828268274,
				"element": "C" 
			},
			{
				"x": 2.2007316183,
				"y": -5.9867685001,
				"z": -5.0841048629,
				"element": "C" 
			},
			{
				"x": 1.0999820426,
				"y": -5.119324647,
				"z": -5.2102791253,
				"element": "C" 
			},
			{
				"x": 0.8704997364,
				"y": -4.1482220349,
				"z": -4.2513656521,
				"element": "C" 
			},
			{
				"x": 2.4536242718,
				"y": -6.991305367,
				"z": -6.0734243249,
				"element": "C" 
			},
			{
				"x": 2.649378328,
				"y": -7.8038706194,
				"z": -6.88231488,
				"element": "N" 
			},
			{
				"x": 3.782842495,
				"y": -4.8171886667,
				"z": -1.9246110525,
				"element": "N" 
			},
			{
				"x": 4.3875476582,
				"y": -5.857318961,
				"z": -1.6729409227,
				"element": "O" 
			},
			{
				"x": 3.9567217297,
				"y": -3.7545133166,
				"z": -1.3275020663,
				"element": "O" 
			},
			{
				"x": -1.6324404704,
				"y": -1.1812243437,
				"z": -0.7658170906,
				"element": "C" 
			},
			{
				"x": -2.057846886,
				"y": -0.2083100474,
				"z": 0.1291116861,
				"element": "C" 
			},
			{
				"x": -3.3263306217,
				"y": 6.2332766541,
				"z": 6.0898115505,
				"element": "C" 
			},
			{
				"x": -3.8350600147,
				"y": 7.0328971042,
				"z": 6.7641179714,
				"element": "N" 
			},
			{
				"x": -1.0670102635,
				"y": 4.8526167334,
				"z": 6.5991398163,
				"element": "H" 
			},
			{
				"x": -4.1956030412,
				"y": 5.3951250105,
				"z": 3.6873635631,
				"element": "H" 
			},
			{
				"x": -3.1158329907,
				"y": 3.7334715109,
				"z": 2.2425609064,
				"element": "H" 
			},
			{
				"x": 0.1618898045,
				"y": 2.1324792844,
				"z": 2.7516967697,
				"element": "H" 
			},
			{
				"x": -2.7233260444,
				"y": 1.6550818457,
				"z": 1.8159602771,
				"element": "H" 
			},
			{
				"x": 0.9795397703,
				"y": 0.7930412517,
				"z": 1.2928708761,
				"element": "H" 
			},
			{
				"x": 1.7241848776,
				"y": -0.9100891734,
				"z": -0.2736215945,
				"element": "H" 
			},
			{
				"x": -0.707124701,
				"y": -2.9557681216,
				"z": -2.4257567295,
				"element": "H" 
			},
			{
				"x": 2.2107235223,
				"y": -2.5556202796,
				"z": -1.5573767978,
				"element": "H" 
			},
			{
				"x": 3.8957482774,
				"y": -6.5099224742,
				"z": -3.8465359472,
				"element": "H" 
			},
			{
				"x": 0.4420136649,
				"y": -5.2071789716,
				"z": -6.0681592985,
				"element": "H" 
			},
			{
				"x": 0.0363430327,
				"y": -3.4695159853,
				"z": -4.3856232296,
				"element": "H" 
			},
			{
				"x": -2.3669316789,
				"y": -1.7352110672,
				"z": -1.3445040341,
				"element": "H" 
			},
			{
				"x": -3.1207644638,
				"y": -0.0111331288,
				"z": 0.2413042086,
				"element": "H" 
			}
		],
		 "valence_orbital": [ 
			{
				"type": "occ",
				"energy": -0.29762,
				"method": "rhf"
			},
			{
				"type": "occ",
				"energy": -0.2974,
				"method": "rhf"
			},
			{
				"type": "occ",
				"energy": -0.28167,
				"method": "rhf"
			},
			{
				"type": "occ",
				"energy": -0.26953,
				"method": "rhf"
			},
			{
				"type": "occ",
				"energy": -0.23174,
				"method": "rhf"
			},
			{
				"type": "unocc",
				"energy": -0.1215,
				"method": "rhf"
			},
			{
				"type": "unocc",
				"energy": -0.10778,
				"method": "rhf"
			},
			{
				"type": "unocc",
				"energy": -0.09118,
				"method": "rhf"
			},
			{
				"type": "unocc",
				"energy": -0.07944,
				"method": "rhf"
			},
			{
				"type": "unocc",
				"energy": -0.04556,
				"method": "rhf"
			}
		],
		"cosmo_sigma_profile": { 
			"-0.025": 0.0,
			"-0.024": 0.0,
			"-0.023": 0.0,
			"-0.022": 0.0,
			"-0.021": 0.0,
			"-0.02": 0.0,
			"-0.019": 0.0,
			"-0.018": 0.0,
			"-0.017": 0.0,
			"-0.016": 0.0,
			"-0.015": 0.0,
			"-0.014": 0.0,
			"-0.013": 0.0,
			"-0.012": 0.0,
			"-0.011": 0.0,
			"-0.01": 0.595687620202,
			"-0.009": 8.26663316773,
			"-0.008": 19.9917115576,
			"-0.007": 26.9403315922,
			"-0.006": 23.8848001781,
			"-0.005": 25.747266937,
			"-0.004": 21.5052875174,
			"-0.003": 26.442137586,
			"-0.002": 38.9847706737,
			"-0.001": 43.4741270818,
			"0.0": 35.6686993755,
			"0.001": 25.8753119048,
			"0.002": 27.5692770627,
			"0.003": 25.1185913086,
			"0.004": 16.2353058328,
			"0.005": 10.9081835389,
			"0.006": 14.1602580513,
			"0.007": 20.9746669814,
			"0.008": 16.4625176032,
			"0.009": 14.8059446807,
			"0.01": 7.8572405507,
			"0.011": 5.05087468397,
			"0.012": 4.40603036543,
			"0.013": 1.31025198927,
			"0.014": 0.0,
			"0.015": 0.0,
			"0.016": 0.0,
			"0.017": 0.0,
			"0.018": 0.0,
			"0.019": 0.0,
			"0.02": 0.0,
			"0.021": 0.0,
			"0.022": 0.0,
			"0.023": 0.0,
			"0.024": 0.0,
			"0.025": 0.0
		}
	}
}
