{
	 "smiles": "CN1N=C(C)C=C1C", 
	 "Tm": 308.65, 
	 "num_atms": 18, 
	 "gaussian": { 
		 "optdone": 1, 
		 "sigma_profile": "yes", 
		 "theory": "DFT", 
		 "functional": "B3LYP", 
		 "basiset": "6-31G**", 
		 "properties": { 
			 "R2extent": 1446.1104, 
			 "electric_dipole_moment_norm": 2.3293486171, 
			 "electric_quadrupole_moment_norm": 6.83955502354, 
			 "total_energy": -344.160346049, 
			 "HOMO_LUMO_gap": 0.25154, 
			 "cosmo_polarized_energy": -7.29, 
			 "cosmo_cavitation_energy": 21.04, 
			 "cosmo_dispersion_energy": -15.51, 
			 "cosmo_repulsion_energy": 1.3, 
			 "cosmo_total_nonelectrostatic_energy": 6.84, 
			 "SMD_solvation_energy": 3.02 
		},
		"coords": [
			{
				"x": -2.7220070699,
				"y": -0.7183755829,
				"z": -1.5644388557,
				"element": "C" 
			},
			{
				"x": -1.6744933488,
				"y": 0.1379397624,
				"z": -1.0464851326,
				"element": "N" 
			},
			{
				"x": -1.9228596161,
				"y": 1.4600505616,
				"z": -0.8640341893,
				"element": "N" 
			},
			{
				"x": -0.7830188974,
				"y": 1.963930623,
				"z": -0.3860510329,
				"element": "C" 
			},
			{
				"x": -0.6671005289,
				"y": 3.4237606592,
				"z": -0.0554779581,
				"element": "C" 
			},
			{
				"x": 0.2020124214,
				"y": 0.9564683027,
				"z": -0.2617717245,
				"element": "C" 
			},
			{
				"x": -0.4033240603,
				"y": -0.2116575291,
				"z": -0.695840041,
				"element": "C" 
			},
			{
				"x": 0.1132574767,
				"y": -1.6109697107,
				"z": -0.8050784683,
				"element": "C" 
			},
			{
				"x": -3.5965761074,
				"y": -0.0900221269,
				"z": -1.7284744766,
				"element": "H" 
			},
			{
				"x": -2.975929295,
				"y": -1.5111545239,
				"z": -0.852229665,
				"element": "H" 
			},
			{
				"x": -2.4259184762,
				"y": -1.1792961571,
				"z": -2.513175172,
				"element": "H" 
			},
			{
				"x": -0.8506982654,
				"y": 4.0474024945,
				"z": -0.9368020856,
				"element": "H" 
			},
			{
				"x": -1.3946392806,
				"y": 3.7180515227,
				"z": 0.7083650006,
				"element": "H" 
			},
			{
				"x": 0.3325570228,
				"y": 3.6556797616,
				"z": 0.3214760466,
				"element": "H" 
			},
			{
				"x": 1.2166385321,
				"y": 1.0630735722,
				"z": 0.0952672428,
				"element": "H" 
			},
			{
				"x": -0.4630050584,
				"y": -2.3125349378,
				"z": -0.1892803911,
				"element": "H" 
			},
			{
				"x": 1.1517929959,
				"y": -1.6508375332,
				"z": -0.4693915948,
				"element": "H" 
			},
			{
				"x": 0.0822115554,
				"y": -1.9826091581,
				"z": -1.8367775028,
				"element": "H" 
			}
		],
		 "valence_orbital": [ 
			{
				"type": "occ",
				"energy": -0.36442,
				"method": "rhf"
			},
			{
				"type": "occ",
				"energy": -0.3543,
				"method": "rhf"
			},
			{
				"type": "occ",
				"energy": -0.26869,
				"method": "rhf"
			},
			{
				"type": "occ",
				"energy": -0.22656,
				"method": "rhf"
			},
			{
				"type": "occ",
				"energy": -0.22105,
				"method": "rhf"
			},
			{
				"type": "unocc",
				"energy": 0.03049,
				"method": "rhf"
			},
			{
				"type": "unocc",
				"energy": 0.08605,
				"method": "rhf"
			},
			{
				"type": "unocc",
				"energy": 0.08741,
				"method": "rhf"
			},
			{
				"type": "unocc",
				"energy": 0.11938,
				"method": "rhf"
			},
			{
				"type": "unocc",
				"energy": 0.12876,
				"method": "rhf"
			}
		],
		"cosmo_sigma_profile": { 
			"-0.025": 0.0,
			"-0.024": 0.0,
			"-0.023": 0.0,
			"-0.022": 0.0,
			"-0.021": 0.0,
			"-0.02": 0.0,
			"-0.019": 0.0,
			"-0.018": 0.0,
			"-0.017": 0.0,
			"-0.016": 0.0,
			"-0.015": 0.0,
			"-0.014": 0.0,
			"-0.013": 0.0,
			"-0.012": 0.0,
			"-0.011": 0.0,
			"-0.01": 0.0,
			"-0.009": 0.0,
			"-0.008": 0.0,
			"-0.007": 0.0,
			"-0.006": 3.84818598357,
			"-0.005": 15.4950123845,
			"-0.004": 19.6527961558,
			"-0.003": 21.5581627514,
			"-0.002": 19.1523336684,
			"-0.001": 16.0348782709,
			"0.0": 15.6934981235,
			"0.001": 8.75946548006,
			"0.002": 6.49770497735,
			"0.003": 5.1400561986,
			"0.004": 4.71191222253,
			"0.005": 5.72212576647,
			"0.006": 6.50176717044,
			"0.007": 5.35723525043,
			"0.008": 1.54445224999,
			"0.009": 1.53440198042,
			"0.01": 1.37432780992,
			"0.011": 1.70699755595,
			"0.012": 0.710473319028,
			"0.013": 0.937666814534,
			"0.014": 1.50951355449,
			"0.015": 0.809281092468,
			"0.016": 0.689694692445,
			"0.017": 0.657227516234,
			"0.018": 0.0313810995508,
			"0.019": 0.0,
			"0.02": 0.0,
			"0.021": 0.0,
			"0.022": 0.0,
			"0.023": 0.0,
			"0.024": 0.0,
			"0.025": 0.0
		}
	}
}
