{
	 "smiles": "NC1=NN=C(N1)C1=CC(Br)=CC=C1", 
	 "Tm": 493.15, 
	 "num_atms": 20, 
	 "gaussian": { 
		 "optdone": 1, 
		 "sigma_profile": "yes", 
		 "theory": "DFT", 
		 "functional": "B3LYP", 
		 "basiset": "6-31G**", 
		 "properties": { 
			 "R2extent": 5902.5652, 
			 "electric_dipole_moment_norm": 6.45210682568, 
			 "electric_quadrupole_moment_norm": 12.4732062738, 
			 "total_energy": -3099.46642558, 
			 "HOMO_LUMO_gap": 0.17441, 
			 "cosmo_polarized_energy": -23.54, 
			 "cosmo_cavitation_energy": 27.39, 
			 "cosmo_dispersion_energy": -20.89, 
			 "cosmo_repulsion_energy": 1.65, 
			 "cosmo_total_nonelectrostatic_energy": 8.16, 
			 "SMD_solvation_energy": 1.32 
		},
		"coords": [
			{
				"x": -3.148410682,
				"y": 1.741545397,
				"z": 1.7074865185,
				"element": "N" 
			},
			{
				"x": -1.8198778595,
				"y": 1.6688117646,
				"z": 1.3155352454,
				"element": "C" 
			},
			{
				"x": -0.8908939892,
				"y": 2.5727540597,
				"z": 1.536395956,
				"element": "N" 
			},
			{
				"x": 0.2994013987,
				"y": 2.0528623952,
				"z": 1.069692499,
				"element": "N" 
			},
			{
				"x": 0.0635750876,
				"y": 0.8617071998,
				"z": 0.5667466139,
				"element": "C" 
			},
			{
				"x": -1.2842148661,
				"y": 0.5715636937,
				"z": 0.6966093069,
				"element": "N" 
			},
			{
				"x": 1.0569452987,
				"y": -0.0183348613,
				"z": -0.0480547235,
				"element": "C" 
			},
			{
				"x": 2.4129455006,
				"y": 0.3448709125,
				"z": 0.0337565501,
				"element": "C" 
			},
			{
				"x": 3.3739308687,
				"y": -0.4756061889,
				"z": -0.541051865,
				"element": "C" 
			},
			{
				"x": 5.2161418084,
				"y": 0.0226013235,
				"z": -0.4260613979,
				"element": "Br" 
			},
			{
				"x": 3.0319623481,
				"y": -1.6588071513,
				"z": -1.1991028253,
				"element": "C" 
			},
			{
				"x": 1.6856204146,
				"y": -2.0126868789,
				"z": -1.2792495745,
				"element": "C" 
			},
			{
				"x": 0.7027682562,
				"y": -1.2024514786,
				"z": -0.7125441703,
				"element": "C" 
			},
			{
				"x": -3.3249159789,
				"y": 2.6339556879,
				"z": 2.155280852,
				"element": "H" 
			},
			{
				"x": -3.8124629802,
				"y": 1.5865238487,
				"z": 0.956219801,
				"element": "H" 
			},
			{
				"x": -1.7442427132,
				"y": -0.3119357366,
				"z": 0.5424375565,
				"element": "H" 
			},
			{
				"x": 2.6843868283,
				"y": 1.2602523953,
				"z": 0.5449491131,
				"element": "H" 
			},
			{
				"x": 3.800828285,
				"y": -2.2840069955,
				"z": -1.6376328708,
				"element": "H" 
			},
			{
				"x": 1.4023098764,
				"y": -2.9267140917,
				"z": -1.7924665905,
				"element": "H" 
			},
			{
				"x": -0.339596902,
				"y": -1.4933052949,
				"z": -0.8071459946,
				"element": "H" 
			}
		],
		 "valence_orbital": [ 
			{
				"type": "occ",
				"energy": -0.2857,
				"method": "rhf"
			},
			{
				"type": "occ",
				"energy": -0.27845,
				"method": "rhf"
			},
			{
				"type": "occ",
				"energy": -0.25362,
				"method": "rhf"
			},
			{
				"type": "occ",
				"energy": -0.24788,
				"method": "rhf"
			},
			{
				"type": "occ",
				"energy": -0.2171,
				"method": "rhf"
			},
			{
				"type": "unocc",
				"energy": -0.04269,
				"method": "rhf"
			},
			{
				"type": "unocc",
				"energy": -0.01878,
				"method": "rhf"
			},
			{
				"type": "unocc",
				"energy": 0.00772,
				"method": "rhf"
			},
			{
				"type": "unocc",
				"energy": 0.04153,
				"method": "rhf"
			},
			{
				"type": "unocc",
				"energy": 0.04848,
				"method": "rhf"
			}
		],
		"cosmo_sigma_profile": { 
			"-0.025": 0.0,
			"-0.024": 0.0,
			"-0.023": 0.0,
			"-0.022": 0.0,
			"-0.021": 0.0,
			"-0.02": 0.0,
			"-0.019": 0.0,
			"-0.018": 0.278178188726,
			"-0.017": 1.34166981278,
			"-0.016": 1.42049745196,
			"-0.015": 1.81614980201,
			"-0.014": 3.19448720589,
			"-0.013": 4.05568428447,
			"-0.012": 4.79139899925,
			"-0.011": 4.10686356389,
			"-0.01": 3.48161569431,
			"-0.009": 2.36785650342,
			"-0.008": 2.57421355532,
			"-0.007": 6.80300609743,
			"-0.006": 9.29323591018,
			"-0.005": 8.50682994454,
			"-0.004": 8.7019902921,
			"-0.003": 9.38204059758,
			"-0.002": 8.17560813758,
			"-0.001": 11.6957175875,
			"0.0": 15.6111993194,
			"0.001": 16.1190776258,
			"0.002": 23.3691097751,
			"0.003": 20.5880787268,
			"0.004": 16.0063732277,
			"0.005": 8.03340027755,
			"0.006": 2.60094283936,
			"0.007": 3.16866564885,
			"0.008": 2.05346583422,
			"0.009": 1.87864608903,
			"0.01": 2.96029140294,
			"0.011": 2.58409623275,
			"0.012": 2.51586438564,
			"0.013": 3.99273413708,
			"0.014": 3.03867899245,
			"0.015": 3.31167565152,
			"0.016": 2.09451642955,
			"0.017": 1.11330895512,
			"0.018": 0.0608639463602,
			"0.019": 0.0,
			"0.02": 0.0,
			"0.021": 0.0,
			"0.022": 0.0,
			"0.023": 0.0,
			"0.024": 0.0,
			"0.025": 0.0
		}
	}
}
