{
	 "smiles": "[O-][N+](=O)C1=CN=C(NC2CCCC2)C=C1", 
	 "Tm": 388.15, 
	 "num_atms": 28, 
	 "gaussian": { 
		 "optdone": 1, 
		 "sigma_profile": "yes", 
		 "theory": "DFT", 
		 "functional": "B3LYP", 
		 "basiset": "6-31G**", 
		 "properties": { 
			 "R2extent": 6202.8688, 
			 "electric_dipole_moment_norm": 7.61427508368, 
			 "electric_quadrupole_moment_norm": 31.8391726472, 
			 "total_energy": -703.513888728, 
			 "HOMO_LUMO_gap": 0.15389, 
			 "cosmo_polarized_energy": -12.72, 
			 "cosmo_cavitation_energy": 31.09, 
			 "cosmo_dispersion_energy": -22.81, 
			 "cosmo_repulsion_energy": 1.78, 
			 "cosmo_total_nonelectrostatic_energy": 10.06, 
			 "SMD_solvation_energy": 5.14 
		},
		"coords": [
			{
				"x": 4.5550762495,
				"y": 0.7354265912,
				"z": -4.7945523554,
				"element": "O" 
			},
			{
				"x": 4.7323346871,
				"y": 0.20322239,
				"z": -3.6948398957,
				"element": "N" 
			},
			{
				"x": 5.7777627792,
				"y": -0.3568418004,
				"z": -3.3504507931,
				"element": "O" 
			},
			{
				"x": 3.6411656959,
				"y": 0.2373813223,
				"z": -2.742644241,
				"element": "C" 
			},
			{
				"x": 2.4320798892,
				"y": 0.8541016583,
				"z": -3.0771858302,
				"element": "C" 
			},
			{
				"x": 1.4004338753,
				"y": 0.9138951116,
				"z": -2.2452543866,
				"element": "N" 
			},
			{
				"x": 1.5289232449,
				"y": 0.3513679334,
				"z": -1.0182065461,
				"element": "C" 
			},
			{
				"x": 0.4368160931,
				"y": 0.4714477737,
				"z": -0.2196699082,
				"element": "N" 
			},
			{
				"x": 0.2850748979,
				"y": -0.0490473575,
				"z": 1.1358415727,
				"element": "C" 
			},
			{
				"x": -0.0074562897,
				"y": -1.5664803722,
				"z": 1.1612794214,
				"element": "C" 
			},
			{
				"x": -1.4978772622,
				"y": -1.6678336852,
				"z": 0.7772895414,
				"element": "C" 
			},
			{
				"x": -2.1556709127,
				"y": -0.3641423839,
				"z": 1.3172759785,
				"element": "C" 
			},
			{
				"x": -0.9823244491,
				"y": 0.5428848775,
				"z": 1.7823745415,
				"element": "C" 
			},
			{
				"x": 2.7211440848,
				"y": -0.2991783024,
				"z": -0.602302108,
				"element": "C" 
			},
			{
				"x": 3.7846741133,
				"y": -0.3490214769,
				"z": -1.4804047846,
				"element": "C" 
			},
			{
				"x": 2.3142843418,
				"y": 1.3086998756,
				"z": -4.0561629502,
				"element": "H" 
			},
			{
				"x": -0.3344189519,
				"y": 0.961515867,
				"z": -0.6518782646,
				"element": "H" 
			},
			{
				"x": 1.1841573388,
				"y": 0.2077336592,
				"z": 1.7088047702,
				"element": "H" 
			},
			{
				"x": 0.1549135625,
				"y": -1.934521597,
				"z": 2.1820623003,
				"element": "H" 
			},
			{
				"x": 0.6480130888,
				"y": -2.1366999342,
				"z": 0.4969340077,
				"element": "H" 
			},
			{
				"x": -1.5958337464,
				"y": -1.7175857931,
				"z": -0.3117791694,
				"element": "H" 
			},
			{
				"x": -1.9649522424,
				"y": -2.5711536523,
				"z": 1.1791319355,
				"element": "H" 
			},
			{
				"x": -2.838392403,
				"y": -0.5670069897,
				"z": 2.147368892,
				"element": "H" 
			},
			{
				"x": -2.7530008983,
				"y": 0.1225114666,
				"z": 0.5396908318,
				"element": "H" 
			},
			{
				"x": -1.1182948706,
				"y": 1.5997514747,
				"z": 1.531587801,
				"element": "H" 
			},
			{
				"x": -0.8679939412,
				"y": 0.4874274225,
				"z": 2.8693225292,
				"element": "H" 
			},
			{
				"x": 2.7980226829,
				"y": -0.7480079956,
				"z": 0.3801471657,
				"element": "H" 
			},
			{
				"x": 4.7203393425,
				"y": -0.8290460832,
				"z": -1.2197800561,
				"element": "H" 
			}
		],
		 "valence_orbital": [ 
			{
				"type": "occ",
				"energy": -0.29998,
				"method": "rhf"
			},
			{
				"type": "occ",
				"energy": -0.29244,
				"method": "rhf"
			},
			{
				"type": "occ",
				"energy": -0.27751,
				"method": "rhf"
			},
			{
				"type": "occ",
				"energy": -0.27285,
				"method": "rhf"
			},
			{
				"type": "occ",
				"energy": -0.22777,
				"method": "rhf"
			},
			{
				"type": "unocc",
				"energy": -0.07388,
				"method": "rhf"
			},
			{
				"type": "unocc",
				"energy": -0.03446,
				"method": "rhf"
			},
			{
				"type": "unocc",
				"energy": 0.01704,
				"method": "rhf"
			},
			{
				"type": "unocc",
				"energy": 0.05604,
				"method": "rhf"
			},
			{
				"type": "unocc",
				"energy": 0.07132,
				"method": "rhf"
			}
		],
		"cosmo_sigma_profile": { 
			"-0.025": 0.0,
			"-0.024": 0.0,
			"-0.023": 0.0,
			"-0.022": 0.0,
			"-0.021": 0.0,
			"-0.02": 0.0,
			"-0.019": 0.0,
			"-0.018": 0.0,
			"-0.017": 0.0,
			"-0.016": 0.0,
			"-0.015": 0.0,
			"-0.014": 0.0,
			"-0.013": 0.154812220009,
			"-0.012": 0.743470550771,
			"-0.011": 1.37103522036,
			"-0.01": 0.564204760925,
			"-0.009": 0.986548221138,
			"-0.008": 2.37238720084,
			"-0.007": 6.92746107453,
			"-0.006": 7.13450021628,
			"-0.005": 9.09629890622,
			"-0.004": 13.9175531385,
			"-0.003": 26.9672505424,
			"-0.002": 29.6200374126,
			"-0.001": 32.9823887049,
			"0.0": 29.4918692661,
			"0.001": 21.7862182156,
			"0.002": 10.2504993357,
			"0.003": 5.55428378848,
			"0.004": 3.8603360461,
			"0.005": 3.14709299103,
			"0.006": 3.75855369869,
			"0.007": 5.32151606466,
			"0.008": 9.80337245775,
			"0.009": 8.26828859497,
			"0.01": 5.1253970835,
			"0.011": 3.58718048051,
			"0.012": 1.11889120945,
			"0.013": 0.673114740072,
			"0.014": 0.577524147701,
			"0.015": 0.0256733751569,
			"0.016": 0.0,
			"0.017": 0.0,
			"0.018": 0.0,
			"0.019": 0.0,
			"0.02": 0.0,
			"0.021": 0.0,
			"0.022": 0.0,
			"0.023": 0.0,
			"0.024": 0.0,
			"0.025": 0.0
		}
	}
}
