{
	 "smiles": "C[C@]12CCC3C(C1CCC2=O)C1(C[C@H]2CC(=O)CC[C@]32C)OCCO1", 
	 "Tm": 479.15, 
	 "num_atms": 55, 
	 "gaussian": { 
		 "optdone": 1, 
		 "sigma_profile": "yes", 
		 "theory": "DFT", 
		 "functional": "B3LYP", 
		 "basiset": "6-31G**", 
		 "properties": { 
			 "R2extent": 8765.4544, 
			 "electric_dipole_moment_norm": 4.55473187136, 
			 "electric_quadrupole_moment_norm": 28.4382310958, 
			 "total_energy": -1119.2100317, 
			 "HOMO_LUMO_gap": 0.21617, 
			 "cosmo_polarized_energy": -17.21, 
			 "cosmo_cavitation_energy": 47.49, 
			 "cosmo_dispersion_energy": -32.8, 
			 "cosmo_repulsion_energy": 2.4, 
			 "cosmo_total_nonelectrostatic_energy": 17.09, 
			 "SMD_solvation_energy": 7.79 
		},
		"coords": [
			{
				"x": 1.3805686064,
				"y": 2.5923014122,
				"z": 3.5367286527,
				"element": "C" 
			},
			{
				"x": 0.4071741182,
				"y": 2.737435327,
				"z": 2.3507083733,
				"element": "C" 
			},
			{
				"x": -0.9153133553,
				"y": 2.0012982149,
				"z": 2.6734856218,
				"element": "C" 
			},
			{
				"x": -1.7492071878,
				"y": 1.6994295057,
				"z": 1.420663128,
				"element": "C" 
			},
			{
				"x": -0.9992216619,
				"y": 0.830294597,
				"z": 0.3633000766,
				"element": "C" 
			},
			{
				"x": 0.5295517653,
				"y": 0.8593885204,
				"z": 0.622260688,
				"element": "C" 
			},
			{
				"x": 1.0355327535,
				"y": 2.2678779597,
				"z": 0.9955578859,
				"element": "C" 
			},
			{
				"x": 0.7588265894,
				"y": 3.4112052835,
				"z": -0.0228653144,
				"element": "C" 
			},
			{
				"x": 0.7363831687,
				"y": 4.6923346091,
				"z": 0.8226820967,
				"element": "C" 
			},
			{
				"x": 0.1324264074,
				"y": 4.244289279,
				"z": 2.1466985988,
				"element": "C" 
			},
			{
				"x": -0.4752045137,
				"y": 4.9432845,
				"z": 2.9305605773,
				"element": "O" 
			},
			{
				"x": 1.2818132011,
				"y": 0.1773974172,
				"z": -0.5302757302,
				"element": "C" 
			},
			{
				"x": 0.7752560119,
				"y": -1.2612811226,
				"z": -0.712684643,
				"element": "C" 
			},
			{
				"x": -0.7435459754,
				"y": -1.3267540952,
				"z": -0.9289658413,
				"element": "C" 
			},
			{
				"x": -1.2075703479,
				"y": -2.7811494206,
				"z": -1.1394613853,
				"element": "C" 
			},
			{
				"x": -2.7219483692,
				"y": -2.9486798427,
				"z": -1.0608820669,
				"element": "C" 
			},
			{
				"x": -3.2459188764,
				"y": -4.0323639889,
				"z": -0.8851046834,
				"element": "O" 
			},
			{
				"x": -3.5028176876,
				"y": -1.6604491609,
				"z": -1.2332723064,
				"element": "C" 
			},
			{
				"x": -3.0543318281,
				"y": -0.5441704875,
				"z": -0.2495652696,
				"element": "C" 
			},
			{
				"x": -1.557056578,
				"y": -0.6216811411,
				"z": 0.2018754543,
				"element": "C" 
			},
			{
				"x": -1.4847493108,
				"y": -1.4203835485,
				"z": 1.524005233,
				"element": "C" 
			},
			{
				"x": 2.6782016516,
				"y": 0.1895201409,
				"z": -0.2566085703,
				"element": "O" 
			},
			{
				"x": 3.3433568163,
				"y": 0.251874095,
				"z": -1.5127906421,
				"element": "C" 
			},
			{
				"x": 2.3962198409,
				"y": 1.1137953245,
				"z": -2.3562356309,
				"element": "C" 
			},
			{
				"x": 1.1156307506,
				"y": 0.8977466135,
				"z": -1.7653195869,
				"element": "O" 
			},
			{
				"x": 2.3043007961,
				"y": 3.1584424835,
				"z": 3.3735157391,
				"element": "H" 
			},
			{
				"x": 1.6546420496,
				"y": 1.5409613154,
				"z": 3.6797334295,
				"element": "H" 
			},
			{
				"x": 0.9167271005,
				"y": 2.9583006539,
				"z": 4.4578543421,
				"element": "H" 
			},
			{
				"x": -0.6838046985,
				"y": 1.066837979,
				"z": 3.1994196262,
				"element": "H" 
			},
			{
				"x": -1.4885576817,
				"y": 2.6205282229,
				"z": 3.3720524872,
				"element": "H" 
			},
			{
				"x": -2.046125359,
				"y": 2.6510072084,
				"z": 0.9630444834,
				"element": "H" 
			},
			{
				"x": -2.6862382676,
				"y": 1.2193768726,
				"z": 1.719381449,
				"element": "H" 
			},
			{
				"x": -1.152100179,
				"y": 1.2985873327,
				"z": -0.6165703337,
				"element": "H" 
			},
			{
				"x": 0.7456809531,
				"y": 0.2287143511,
				"z": 1.495206438,
				"element": "H" 
			},
			{
				"x": 2.1207027323,
				"y": 2.1961557132,
				"z": 1.1268375449,
				"element": "H" 
			},
			{
				"x": -0.2106809681,
				"y": 3.277855559,
				"z": -0.511991202,
				"element": "H" 
			},
			{
				"x": 1.506273796,
				"y": 3.4421998969,
				"z": -0.8178521148,
				"element": "H" 
			},
			{
				"x": 0.1846132725,
				"y": 5.5333082857,
				"z": 0.3954732479,
				"element": "H" 
			},
			{
				"x": 1.7588296253,
				"y": 5.0416297225,
				"z": 1.0292281807,
				"element": "H" 
			},
			{
				"x": 1.2870347818,
				"y": -1.7156083521,
				"z": -1.5691508165,
				"element": "H" 
			},
			{
				"x": 1.0657311931,
				"y": -1.8380318667,
				"z": 0.1730436076,
				"element": "H" 
			},
			{
				"x": -0.9476508574,
				"y": -0.7655721412,
				"z": -1.8513026746,
				"element": "H" 
			},
			{
				"x": -0.7574857905,
				"y": -3.4669113845,
				"z": -0.4134643422,
				"element": "H" 
			},
			{
				"x": -0.8879295894,
				"y": -3.1388001248,
				"z": -2.1282765234,
				"element": "H" 
			},
			{
				"x": -3.3196293446,
				"y": -1.3230456743,
				"z": -2.2633042955,
				"element": "H" 
			},
			{
				"x": -4.5702478819,
				"y": -1.874418951,
				"z": -1.1439023395,
				"element": "H" 
			},
			{
				"x": -3.6979346296,
				"y": -0.5814385606,
				"z": 0.6351575614,
				"element": "H" 
			},
			{
				"x": -3.2463042649,
				"y": 0.4233547236,
				"z": -0.7258727541,
				"element": "H" 
			},
			{
				"x": -1.989851096,
				"y": -0.8787976226,
				"z": 2.329497183,
				"element": "H" 
			},
			{
				"x": -1.9851548589,
				"y": -2.3898692794,
				"z": 1.4368738706,
				"element": "H" 
			},
			{
				"x": -0.4585467234,
				"y": -1.6141462284,
				"z": 1.8497367963,
				"element": "H" 
			},
			{
				"x": 3.4737403538,
				"y": -0.7501870133,
				"z": -1.9454631008,
				"element": "H" 
			},
			{
				"x": 4.3283060099,
				"y": 0.6994551055,
				"z": -1.359122949,
				"element": "H" 
			},
			{
				"x": 2.6590987071,
				"y": 2.1783048282,
				"z": -2.2959608436,
				"element": "H" 
			},
			{
				"x": 2.3713048301,
				"y": 0.8188469534,
				"z": -3.4107164128,
				"element": "H" 
			}
		],
		 "valence_orbital": [ 
			{
				"type": "occ",
				"energy": -0.28962,
				"method": "rhf"
			},
			{
				"type": "occ",
				"energy": -0.27631,
				"method": "rhf"
			},
			{
				"type": "occ",
				"energy": -0.25781,
				"method": "rhf"
			},
			{
				"type": "occ",
				"energy": -0.23444,
				"method": "rhf"
			},
			{
				"type": "occ",
				"energy": -0.23173,
				"method": "rhf"
			},
			{
				"type": "unocc",
				"energy": -0.01556,
				"method": "rhf"
			},
			{
				"type": "unocc",
				"energy": -0.01227,
				"method": "rhf"
			},
			{
				"type": "unocc",
				"energy": 0.06439,
				"method": "rhf"
			},
			{
				"type": "unocc",
				"energy": 0.07304,
				"method": "rhf"
			},
			{
				"type": "unocc",
				"energy": 0.07594,
				"method": "rhf"
			}
		],
		"cosmo_sigma_profile": { 
			"-0.025": 0.0,
			"-0.024": 0.0,
			"-0.023": 0.0,
			"-0.022": 0.0,
			"-0.021": 0.0,
			"-0.02": 0.0,
			"-0.019": 0.0,
			"-0.018": 0.0,
			"-0.017": 0.0,
			"-0.016": 0.0,
			"-0.015": 0.0,
			"-0.014": 0.0,
			"-0.013": 0.0,
			"-0.012": 0.0,
			"-0.011": 0.0,
			"-0.01": 0.0,
			"-0.009": 0.0,
			"-0.008": 0.0,
			"-0.007": 0.0704972057554,
			"-0.006": 7.5267160299,
			"-0.005": 26.3179908399,
			"-0.004": 42.384905357,
			"-0.003": 55.7483094824,
			"-0.002": 50.2067095985,
			"-0.001": 41.6087485204,
			"0.0": 35.3122098032,
			"0.001": 22.5051090928,
			"0.002": 9.76284245593,
			"0.003": 7.32615221816,
			"0.004": 6.39881405107,
			"0.005": 6.3693744642,
			"0.006": 6.52927873027,
			"0.007": 6.38200083671,
			"0.008": 4.60571598983,
			"0.009": 5.32023584573,
			"0.01": 4.82144199771,
			"0.011": 8.00682384937,
			"0.012": 9.65647337907,
			"0.013": 6.95789943013,
			"0.014": 1.68802441996,
			"0.015": 0.0,
			"0.016": 0.0,
			"0.017": 0.0,
			"0.018": 0.0,
			"0.019": 0.0,
			"0.02": 0.0,
			"0.021": 0.0,
			"0.022": 0.0,
			"0.023": 0.0,
			"0.024": 0.0,
			"0.025": 0.0
		}
	}
}
