{
	 "smiles": "CC(C(O)=O)P(O)(O)=O", 
	 "Tm": 393.15, 
	 "num_atms": 16, 
	 "gaussian": { 
		 "optdone": 1, 
		 "sigma_profile": "yes", 
		 "theory": "DFT", 
		 "functional": "B3LYP", 
		 "basiset": "6-31G**", 
		 "properties": { 
			 "R2extent": 1461.5391, 
			 "electric_dipole_moment_norm": 3.2852353797, 
			 "electric_quadrupole_moment_norm": 13.4199461966, 
			 "total_energy": -836.097503842, 
			 "HOMO_LUMO_gap": 0.26406, 
			 "cosmo_polarized_energy": -20.51, 
			 "cosmo_cavitation_energy": 21.65, 
			 "cosmo_dispersion_energy": -16.1, 
			 "cosmo_repulsion_energy": 1.33, 
			 "cosmo_total_nonelectrostatic_energy": 6.87, 
			 "SMD_solvation_energy": 7.23 
		},
		"coords": [
			{
				"x": 1.5141637742,
				"y": -0.4568875102,
				"z": -0.3809861854,
				"element": "C" 
			},
			{
				"x": 0.2989779587,
				"y": 0.4677739815,
				"z": -0.6240510772,
				"element": "C" 
			},
			{
				"x": 0.7046529626,
				"y": 1.9283688628,
				"z": -0.633257917,
				"element": "C" 
			},
			{
				"x": 1.0097591116,
				"y": 2.3856619373,
				"z": 0.6231756235,
				"element": "O" 
			},
			{
				"x": 0.79505139,
				"y": 2.6358581458,
				"z": -1.6048267156,
				"element": "O" 
			},
			{
				"x": -1.0374658569,
				"y": 0.0788574971,
				"z": 0.5809494179,
				"element": "P" 
			},
			{
				"x": -0.4191939908,
				"y": 0.4244356003,
				"z": 2.0321172955,
				"element": "O" 
			},
			{
				"x": -2.0921619803,
				"y": 1.2735827089,
				"z": 0.2475812131,
				"element": "O" 
			},
			{
				"x": -1.5898961389,
				"y": -1.2912032275,
				"z": 0.4978765853,
				"element": "O" 
			},
			{
				"x": 1.1930310291,
				"y": -1.499941279,
				"z": -0.427800489,
				"element": "H" 
			},
			{
				"x": 2.2757843115,
				"y": -0.289922625,
				"z": -1.147406683,
				"element": "H" 
			},
			{
				"x": 1.9563052739,
				"y": -0.2765637819,
				"z": 0.601494192,
				"element": "H" 
			},
			{
				"x": -0.1225026452,
				"y": 0.2695663235,
				"z": -1.613128048,
				"element": "H" 
			},
			{
				"x": 1.2601939245,
				"y": 3.3198585949,
				"z": 0.5253043013,
				"element": "H" 
			},
			{
				"x": 0.0642877192,
				"y": 1.2689663154,
				"z": 2.0114907371,
				"element": "H" 
			},
			{
				"x": -2.9993868432,
				"y": 0.9850884561,
				"z": 0.4260677495,
				"element": "H" 
			}
		],
		 "valence_orbital": [ 
			{
				"type": "occ",
				"energy": -0.34483,
				"method": "rhf"
			},
			{
				"type": "occ",
				"energy": -0.34228,
				"method": "rhf"
			},
			{
				"type": "occ",
				"energy": -0.31087,
				"method": "rhf"
			},
			{
				"type": "occ",
				"energy": -0.29483,
				"method": "rhf"
			},
			{
				"type": "occ",
				"energy": -0.28489,
				"method": "rhf"
			},
			{
				"type": "unocc",
				"energy": -0.02083,
				"method": "rhf"
			},
			{
				"type": "unocc",
				"energy": 0.03852,
				"method": "rhf"
			},
			{
				"type": "unocc",
				"energy": 0.05493,
				"method": "rhf"
			},
			{
				"type": "unocc",
				"energy": 0.08411,
				"method": "rhf"
			},
			{
				"type": "unocc",
				"energy": 0.10059,
				"method": "rhf"
			}
		],
		"cosmo_sigma_profile": { 
			"-0.025": 0.0,
			"-0.024": 0.0,
			"-0.023": 0.0,
			"-0.022": 0.0,
			"-0.021": 0.0,
			"-0.02": 0.361813916345,
			"-0.019": 1.70762620018,
			"-0.018": 1.7113581282,
			"-0.017": 2.35181298606,
			"-0.016": 1.31158300084,
			"-0.015": 0.866687647934,
			"-0.014": 1.40060465456,
			"-0.013": 1.73006313839,
			"-0.012": 2.99663253159,
			"-0.011": 2.05736168474,
			"-0.01": 2.01539047447,
			"-0.009": 2.72330218765,
			"-0.008": 3.83629082725,
			"-0.007": 4.30179592214,
			"-0.006": 6.28999243937,
			"-0.005": 11.0155818701,
			"-0.004": 11.3870470485,
			"-0.003": 10.5764590572,
			"-0.002": 10.5754301752,
			"-0.001": 9.69124893111,
			"0.0": 6.72490690087,
			"0.001": 5.51157057697,
			"0.002": 5.73562559482,
			"0.003": 5.65716460447,
			"0.004": 3.52548353828,
			"0.005": 4.23928324159,
			"0.006": 3.95622155649,
			"0.007": 4.31440104589,
			"0.008": 6.15336367356,
			"0.009": 5.56556047117,
			"0.01": 6.76522344822,
			"0.011": 6.7017374033,
			"0.012": 2.14426002384,
			"0.013": 2.01887395716,
			"0.014": 7.23516717696,
			"0.015": 2.11406727553,
			"0.016": 0.0,
			"0.017": 0.0,
			"0.018": 0.0,
			"0.019": 0.0,
			"0.02": 0.0,
			"0.021": 0.0,
			"0.022": 0.0,
			"0.023": 0.0,
			"0.024": 0.0,
			"0.025": 0.0
		}
	}
}
