{
	 "smiles": "COC1=C(OC)C=C(C=C2N=C(OC2=O)C2=CC=CC=C2)C=C1", 
	 "Tm": 405.15, 
	 "num_atms": 38, 
	 "gaussian": { 
		 "optdone": 1, 
		 "sigma_profile": "yes", 
		 "theory": "DFT", 
		 "functional": "B3LYP", 
		 "basiset": "6-31G**", 
		 "properties": { 
			 "R2extent": 12908.7487, 
			 "electric_dipole_moment_norm": 1.97203442668, 
			 "electric_quadrupole_moment_norm": 29.0141961617, 
			 "total_energy": -1050.57669275, 
			 "HOMO_LUMO_gap": 0.11922, 
			 "cosmo_polarized_energy": -13.67, 
			 "cosmo_cavitation_energy": 43.41, 
			 "cosmo_dispersion_energy": -31.55, 
			 "cosmo_repulsion_energy": 2.36, 
			 "cosmo_total_nonelectrostatic_energy": 14.22, 
			 "SMD_solvation_energy": 8.39 
		},
		"coords": [
			{
				"x": -2.1727804068,
				"y": -4.8404413276,
				"z": -4.3831631957,
				"element": "C" 
			},
			{
				"x": -2.9882798174,
				"y": -4.2713172211,
				"z": -3.3656038104,
				"element": "O" 
			},
			{
				"x": -2.4643223358,
				"y": -3.28822156,
				"z": -2.589425262,
				"element": "C" 
			},
			{
				"x": -3.3049481129,
				"y": -2.7874344501,
				"z": -1.5645069867,
				"element": "C" 
			},
			{
				"x": -4.5561005576,
				"y": -3.3070407418,
				"z": -1.3449299875,
				"element": "O" 
			},
			{
				"x": -5.5346997927,
				"y": -3.0259611211,
				"z": -2.3494104372,
				"element": "C" 
			},
			{
				"x": -2.8285254441,
				"y": -1.8017546296,
				"z": -0.7179776762,
				"element": "C" 
			},
			{
				"x": -1.5215098284,
				"y": -1.2680922019,
				"z": -0.8394929761,
				"element": "C" 
			},
			{
				"x": -1.1448677378,
				"y": -0.2472518371,
				"z": 0.1134447423,
				"element": "C" 
			},
			{
				"x": -0.0163397332,
				"y": 0.4979577525,
				"z": 0.3148157294,
				"element": "C" 
			},
			{
				"x": 0.0390152139,
				"y": 1.4345825547,
				"z": 1.3570254141,
				"element": "N" 
			},
			{
				"x": 1.2101450987,
				"y": 1.9735528818,
				"z": 1.2956082921,
				"element": "C" 
			},
			{
				"x": 2.0241074787,
				"y": 1.5039145908,
				"z": 0.2836811944,
				"element": "O" 
			},
			{
				"x": 1.2819806958,
				"y": 0.5345874962,
				"z": -0.3972876101,
				"element": "C" 
			},
			{
				"x": 1.7499743983,
				"y": -0.0530936695,
				"z": -1.343891604,
				"element": "O" 
			},
			{
				"x": 1.7559045285,
				"y": 3.0081124084,
				"z": 2.166462204,
				"element": "C" 
			},
			{
				"x": 3.0567038078,
				"y": 3.5011255804,
				"z": 1.9753098941,
				"element": "C" 
			},
			{
				"x": 3.555597388,
				"y": 4.4899601695,
				"z": 2.8210581063,
				"element": "C" 
			},
			{
				"x": 2.7661973085,
				"y": 4.9919698245,
				"z": 3.8578354081,
				"element": "C" 
			},
			{
				"x": 1.4698530463,
				"y": 4.5020346868,
				"z": 4.0499825275,
				"element": "C" 
			},
			{
				"x": 0.9635236501,
				"y": 3.5153944153,
				"z": 3.2110726607,
				"element": "C" 
			},
			{
				"x": -0.7054435188,
				"y": -1.7690870344,
				"z": -1.8747072409,
				"element": "C" 
			},
			{
				"x": -1.173766113,
				"y": -2.7607317715,
				"z": -2.7308354689,
				"element": "C" 
			},
			{
				"x": -1.2698020938,
				"y": -5.2979736421,
				"z": -3.9619935207,
				"element": "H" 
			},
			{
				"x": -2.7818706372,
				"y": -5.611621903,
				"z": -4.8560992003,
				"element": "H" 
			},
			{
				"x": -1.8846103977,
				"y": -4.0938447018,
				"z": -5.1331467522,
				"element": "H" 
			},
			{
				"x": -5.2636744553,
				"y": -3.470582246,
				"z": -3.311495146,
				"element": "H" 
			},
			{
				"x": -6.4679543813,
				"y": -3.467635582,
				"z": -1.9944148748,
				"element": "H" 
			},
			{
				"x": -5.6710107059,
				"y": -1.9434842911,
				"z": -2.4708219251,
				"element": "H" 
			},
			{
				"x": -3.4943775384,
				"y": -1.4507014539,
				"z": 0.0646918172,
				"element": "H" 
			},
			{
				"x": -1.920966964,
				"y": -0.0067016141,
				"z": 0.8382306971,
				"element": "H" 
			},
			{
				"x": 3.6641224265,
				"y": 3.1066562677,
				"z": 1.1683129284,
				"element": "H" 
			},
			{
				"x": 4.5620457806,
				"y": 4.8689364468,
				"z": 2.6704136055,
				"element": "H" 
			},
			{
				"x": 3.1584486659,
				"y": 5.7626204545,
				"z": 4.515131502,
				"element": "H" 
			},
			{
				"x": 0.8552671186,
				"y": 4.8917332172,
				"z": 4.8560998515,
				"element": "H" 
			},
			{
				"x": -0.038978417,
				"y": 3.1233728824,
				"z": 3.3448877682,
				"element": "H" 
			},
			{
				"x": 0.2972867903,
				"y": -1.3822057847,
				"z": -2.0032101386,
				"element": "H" 
			},
			{
				"x": -0.5180444076,
				"y": -3.1293328451,
				"z": -3.5107505291,
				"element": "H" 
			}
		],
		 "valence_orbital": [ 
			{
				"type": "occ",
				"energy": -0.26664,
				"method": "rhf"
			},
			{
				"type": "occ",
				"energy": -0.25927,
				"method": "rhf"
			},
			{
				"type": "occ",
				"energy": -0.25719,
				"method": "rhf"
			},
			{
				"type": "occ",
				"energy": -0.24107,
				"method": "rhf"
			},
			{
				"type": "occ",
				"energy": -0.20365,
				"method": "rhf"
			},
			{
				"type": "unocc",
				"energy": -0.08443,
				"method": "rhf"
			},
			{
				"type": "unocc",
				"energy": -0.03023,
				"method": "rhf"
			},
			{
				"type": "unocc",
				"energy": -0.00763,
				"method": "rhf"
			},
			{
				"type": "unocc",
				"energy": -0.00365,
				"method": "rhf"
			},
			{
				"type": "unocc",
				"energy": 0.01966,
				"method": "rhf"
			}
		],
		"cosmo_sigma_profile": { 
			"-0.025": 0.0,
			"-0.024": 0.0,
			"-0.023": 0.0,
			"-0.022": 0.0,
			"-0.021": 0.0,
			"-0.02": 0.0,
			"-0.019": 0.0,
			"-0.018": 0.0,
			"-0.017": 0.0,
			"-0.016": 0.0,
			"-0.015": 0.0,
			"-0.014": 0.0,
			"-0.013": 0.0,
			"-0.012": 0.0,
			"-0.011": 0.0,
			"-0.01": 0.0,
			"-0.009": 0.277023062963,
			"-0.008": 2.22791220716,
			"-0.007": 8.14166531892,
			"-0.006": 23.1323582885,
			"-0.005": 26.8744001232,
			"-0.004": 30.3341612679,
			"-0.003": 27.7199381161,
			"-0.002": 25.2673331378,
			"-0.001": 22.9115587302,
			"0.0": 25.8502628905,
			"0.001": 29.100367412,
			"0.002": 30.8554669181,
			"0.003": 29.5930651089,
			"0.004": 21.0370547685,
			"0.005": 8.5595389831,
			"0.006": 5.92775294719,
			"0.007": 5.89453033689,
			"0.008": 5.58873706547,
			"0.009": 5.08192805027,
			"0.01": 6.8487183029,
			"0.011": 5.056729357,
			"0.012": 2.4403156073,
			"0.013": 0.0970142951363,
			"0.014": 0.0,
			"0.015": 0.0,
			"0.016": 0.0,
			"0.017": 0.0,
			"0.018": 0.0,
			"0.019": 0.0,
			"0.02": 0.0,
			"0.021": 0.0,
			"0.022": 0.0,
			"0.023": 0.0,
			"0.024": 0.0,
			"0.025": 0.0
		}
	}
}
