{
	 "smiles": "CC(=O)OCC(C(OC(C)=O)C1=CC=CC=C1)[N+]([O-])=O", 
	 "Tm": 343.65, 
	 "num_atms": 35, 
	 "gaussian": { 
		 "optdone": 1, 
		 "sigma_profile": "yes", 
		 "theory": "DFT", 
		 "functional": "B3LYP", 
		 "basiset": "6-31G**", 
		 "properties": { 
			 "R2extent": 5257.2842, 
			 "electric_dipole_moment_norm": 3.11582342568, 
			 "electric_quadrupole_moment_norm": 17.9235004773, 
			 "total_energy": -1010.42722013, 
			 "HOMO_LUMO_gap": 0.18213, 
			 "cosmo_polarized_energy": -17.95, 
			 "cosmo_cavitation_energy": 37.99, 
			 "cosmo_dispersion_energy": -25.38, 
			 "cosmo_repulsion_energy": 1.97, 
			 "cosmo_total_nonelectrostatic_energy": 14.59, 
			 "SMD_solvation_energy": 10.05 
		},
		"coords": [
			{
				"x": -3.9430572493,
				"y": -0.0384397983,
				"z": -1.8592007255,
				"element": "C" 
			},
			{
				"x": -2.730339098,
				"y": -0.9091105191,
				"z": -2.0470863722,
				"element": "C" 
			},
			{
				"x": -2.6025667582,
				"y": -2.0472192132,
				"z": -1.6506369792,
				"element": "O" 
			},
			{
				"x": -1.7582213853,
				"y": -0.2326122407,
				"z": -2.7230246556,
				"element": "O" 
			},
			{
				"x": -0.5477740432,
				"y": -0.9432492847,
				"z": -2.9913359224,
				"element": "C" 
			},
			{
				"x": 0.6399038618,
				"y": -0.5562677229,
				"z": -2.0997573085,
				"element": "C" 
			},
			{
				"x": 0.3534077907,
				"y": -0.6288205114,
				"z": -0.5783787077,
				"element": "C" 
			},
			{
				"x": 1.6047126701,
				"y": -0.7723304242,
				"z": 0.1564791955,
				"element": "O" 
			},
			{
				"x": 2.369728249,
				"y": 0.3210008162,
				"z": 0.4269755787,
				"element": "C" 
			},
			{
				"x": 3.551639721,
				"y": -0.0708078348,
				"z": 1.2796087292,
				"element": "C" 
			},
			{
				"x": 2.1263159992,
				"y": 1.4355773122,
				"z": 0.0300797523,
				"element": "O" 
			},
			{
				"x": -0.6438456973,
				"y": 0.2848739067,
				"z": 0.1241594478,
				"element": "C" 
			},
			{
				"x": -1.4312752078,
				"y": -0.3193303141,
				"z": 1.1173328654,
				"element": "C" 
			},
			{
				"x": -2.3527155638,
				"y": 0.4210583098,
				"z": 1.8576796875,
				"element": "C" 
			},
			{
				"x": -2.5077487012,
				"y": 1.7847091013,
				"z": 1.6056575985,
				"element": "C" 
			},
			{
				"x": -1.734950187,
				"y": 2.3941127483,
				"z": 0.6145338082,
				"element": "C" 
			},
			{
				"x": -0.8045788548,
				"y": 1.656373067,
				"z": -0.1188016651,
				"element": "C" 
			},
			{
				"x": 1.2946462117,
				"y": 0.7147603776,
				"z": -2.6238236673,
				"element": "N" 
			},
			{
				"x": 0.5695188524,
				"y": 1.6535680475,
				"z": -2.9368568038,
				"element": "O" 
			},
			{
				"x": 2.5122084484,
				"y": 0.6776153288,
				"z": -2.7615486192,
				"element": "O" 
			},
			{
				"x": -4.2028782131,
				"y": 0.466040343,
				"z": -2.7928574811,
				"element": "H" 
			},
			{
				"x": -4.7748389462,
				"y": -0.6467666096,
				"z": -1.5053614042,
				"element": "H" 
			},
			{
				"x": -3.71175248,
				"y": 0.7326039365,
				"z": -1.1174170322,
				"element": "H" 
			},
			{
				"x": -0.2952222317,
				"y": -0.7397759295,
				"z": -4.0342952495,
				"element": "H" 
			},
			{
				"x": -0.7268595915,
				"y": -2.0134538326,
				"z": -2.8629096529,
				"element": "H" 
			},
			{
				"x": 1.419795169,
				"y": -1.301313127,
				"z": -2.2728606337,
				"element": "H" 
			},
			{
				"x": -0.0577595812,
				"y": -1.638655386,
				"z": -0.4864431089,
				"element": "H" 
			},
			{
				"x": 4.1647667013,
				"y": -0.8062654648,
				"z": 0.7504581257,
				"element": "H" 
			},
			{
				"x": 4.1448180807,
				"y": 0.8160654171,
				"z": 1.4993533536,
				"element": "H" 
			},
			{
				"x": 3.2089706035,
				"y": -0.5355717431,
				"z": 2.2085421745,
				"element": "H" 
			},
			{
				"x": -1.3261629992,
				"y": -1.3840333621,
				"z": 1.3087276079,
				"element": "H" 
			},
			{
				"x": -2.9499780658,
				"y": -0.0685581988,
				"z": 2.6212295803,
				"element": "H" 
			},
			{
				"x": -3.2249434202,
				"y": 2.3683542619,
				"z": 2.1759671922,
				"element": "H" 
			},
			{
				"x": -1.8473347065,
				"y": 3.4554332122,
				"z": 0.4129947264,
				"element": "H" 
			},
			{
				"x": -0.2074293778,
				"y": 2.1499353309,
				"z": -0.8710834345,
				"element": "H" 
			}
		],
		 "valence_orbital": [ 
			{
				"type": "occ",
				"energy": -0.29176,
				"method": "rhf"
			},
			{
				"type": "occ",
				"energy": -0.28449,
				"method": "rhf"
			},
			{
				"type": "occ",
				"energy": -0.2785,
				"method": "rhf"
			},
			{
				"type": "occ",
				"energy": -0.25621,
				"method": "rhf"
			},
			{
				"type": "occ",
				"energy": -0.25105,
				"method": "rhf"
			},
			{
				"type": "unocc",
				"energy": -0.06892,
				"method": "rhf"
			},
			{
				"type": "unocc",
				"energy": -0.01951,
				"method": "rhf"
			},
			{
				"type": "unocc",
				"energy": -0.00574,
				"method": "rhf"
			},
			{
				"type": "unocc",
				"energy": 0.00148,
				"method": "rhf"
			},
			{
				"type": "unocc",
				"energy": 0.00651,
				"method": "rhf"
			}
		],
		"cosmo_sigma_profile": { 
			"-0.025": 0.0,
			"-0.024": 0.0,
			"-0.023": 0.0,
			"-0.022": 0.0,
			"-0.021": 0.0,
			"-0.02": 0.0,
			"-0.019": 0.0,
			"-0.018": 0.0,
			"-0.017": 0.0,
			"-0.016": 0.0,
			"-0.015": 0.0,
			"-0.014": 0.0,
			"-0.013": 0.0,
			"-0.012": 0.150211645984,
			"-0.011": 2.53954524715,
			"-0.01": 3.92047298694,
			"-0.009": 4.32736752741,
			"-0.008": 5.82385503661,
			"-0.007": 7.8960120126,
			"-0.006": 18.9189651979,
			"-0.005": 21.5845487103,
			"-0.004": 24.9677288634,
			"-0.003": 24.0685074594,
			"-0.002": 26.6992693018,
			"-0.001": 19.4009655828,
			"0.0": 15.3786802271,
			"0.001": 15.2980154459,
			"0.002": 16.0192145785,
			"0.003": 10.5780370407,
			"0.004": 13.1282914755,
			"0.005": 11.8477707627,
			"0.006": 9.59166048328,
			"0.007": 13.11935409,
			"0.008": 11.0374393997,
			"0.009": 8.77081376625,
			"0.01": 6.18392562664,
			"0.011": 4.76530613371,
			"0.012": 3.82786601042,
			"0.013": 0.764175767337,
			"0.014": 0.0,
			"0.015": 0.0,
			"0.016": 0.0,
			"0.017": 0.0,
			"0.018": 0.0,
			"0.019": 0.0,
			"0.02": 0.0,
			"0.021": 0.0,
			"0.022": 0.0,
			"0.023": 0.0,
			"0.024": 0.0,
			"0.025": 0.0
		}
	}
}
