{
	 "smiles": "O=C1CCC(O1)C1=CC=CC=C1", 
	 "Tm": 309.65, 
	 "num_atms": 22, 
	 "gaussian": { 
		 "optdone": 1, 
		 "sigma_profile": "yes", 
		 "theory": "DFT", 
		 "functional": "B3LYP", 
		 "basiset": "6-31G**", 
		 "properties": { 
			 "R2extent": 2630.0063, 
			 "electric_dipole_moment_norm": 4.28248438526, 
			 "electric_quadrupole_moment_norm": 18.9628169218, 
			 "total_energy": -537.550296153, 
			 "HOMO_LUMO_gap": 0.23734, 
			 "cosmo_polarized_energy": -11.09, 
			 "cosmo_cavitation_energy": 25.24, 
			 "cosmo_dispersion_energy": -18.55, 
			 "cosmo_repulsion_energy": 1.49, 
			 "cosmo_total_nonelectrostatic_energy": 8.18, 
			 "SMD_solvation_energy": 4.98 
		},
		"coords": [
			{
				"x": 0.0567572234,
				"y": 1.5333251079,
				"z": 4.2855051068,
				"element": "O" 
			},
			{
				"x": -0.0897552344,
				"y": 1.4765839437,
				"z": 3.0937248401,
				"element": "C" 
			},
			{
				"x": -1.3475690556,
				"y": 1.1477622381,
				"z": 2.2986673695,
				"element": "C" 
			},
			{
				"x": -1.017423656,
				"y": 1.6442140689,
				"z": 0.8902378685,
				"element": "C" 
			},
			{
				"x": 0.5292386731,
				"y": 1.5254967485,
				"z": 0.8512246577,
				"element": "C" 
			},
			{
				"x": 0.9414545383,
				"y": 1.709659711,
				"z": 2.2221445248,
				"element": "O" 
			},
			{
				"x": 1.037601696,
				"y": 0.2039201442,
				"z": 0.296063519,
				"element": "C" 
			},
			{
				"x": 1.7267015675,
				"y": -0.7182590639,
				"z": 1.0895028541,
				"element": "C" 
			},
			{
				"x": 2.1730294651,
				"y": -1.9245213393,
				"z": 0.5427199399,
				"element": "C" 
			},
			{
				"x": 1.9425397546,
				"y": -2.2184636498,
				"z": -0.8006523968,
				"element": "C" 
			},
			{
				"x": 1.264832905,
				"y": -1.2957434557,
				"z": -1.6019503951,
				"element": "C" 
			},
			{
				"x": 0.8178026178,
				"y": -0.0936535027,
				"z": -1.0566894667,
				"element": "C" 
			},
			{
				"x": -2.2196922992,
				"y": 1.6120757901,
				"z": 2.7616417621,
				"element": "H" 
			},
			{
				"x": -1.490237368,
				"y": 0.0613250512,
				"z": 2.3307299395,
				"element": "H" 
			},
			{
				"x": -1.4934492491,
				"y": 1.0691908622,
				"z": 0.0942065033,
				"element": "H" 
			},
			{
				"x": -1.3092139947,
				"y": 2.6932709358,
				"z": 0.7785116906,
				"element": "H" 
			},
			{
				"x": 0.973840365,
				"y": 2.3506615974,
				"z": 0.2854822752,
				"element": "H" 
			},
			{
				"x": 1.9255520482,
				"y": -0.485156683,
				"z": 2.1297253589,
				"element": "H" 
			},
			{
				"x": 2.706160769,
				"y": -2.632224533,
				"z": 1.171193075,
				"element": "H" 
			},
			{
				"x": 2.2920510767,
				"y": -3.1556676755,
				"z": -1.223842733,
				"element": "H" 
			},
			{
				"x": 1.0871299118,
				"y": -1.5113558303,
				"z": -2.6517185363,
				"element": "H" 
			},
			{
				"x": 0.2968482455,
				"y": 0.6213595341,
				"z": -1.6900277571,
				"element": "H" 
			}
		],
		 "valence_orbital": [ 
			{
				"type": "occ",
				"energy": -0.34207,
				"method": "rhf"
			},
			{
				"type": "occ",
				"energy": -0.29723,
				"method": "rhf"
			},
			{
				"type": "occ",
				"energy": -0.26759,
				"method": "rhf"
			},
			{
				"type": "occ",
				"energy": -0.2567,
				"method": "rhf"
			},
			{
				"type": "occ",
				"energy": -0.25099,
				"method": "rhf"
			},
			{
				"type": "unocc",
				"energy": -0.01365,
				"method": "rhf"
			},
			{
				"type": "unocc",
				"energy": -0.00689,
				"method": "rhf"
			},
			{
				"type": "unocc",
				"energy": 0.01178,
				"method": "rhf"
			},
			{
				"type": "unocc",
				"energy": 0.08103,
				"method": "rhf"
			},
			{
				"type": "unocc",
				"energy": 0.09139,
				"method": "rhf"
			}
		],
		"cosmo_sigma_profile": { 
			"-0.025": 0.0,
			"-0.024": 0.0,
			"-0.023": 0.0,
			"-0.022": 0.0,
			"-0.021": 0.0,
			"-0.02": 0.0,
			"-0.019": 0.0,
			"-0.018": 0.0,
			"-0.017": 0.0,
			"-0.016": 0.0,
			"-0.015": 0.0,
			"-0.014": 0.0,
			"-0.013": 0.0,
			"-0.012": 0.0,
			"-0.011": 0.0,
			"-0.01": 0.0,
			"-0.009": 0.0,
			"-0.008": 0.0,
			"-0.007": 3.83333948525,
			"-0.006": 17.0159589162,
			"-0.005": 24.1748792834,
			"-0.004": 22.3876718355,
			"-0.003": 20.2493356628,
			"-0.002": 15.2970999738,
			"-0.001": 10.6385736901,
			"0.0": 8.3355032967,
			"0.001": 8.02648235021,
			"0.002": 9.12569043689,
			"0.003": 9.59526250055,
			"0.004": 9.27565485075,
			"0.005": 11.0674695814,
			"0.006": 8.10229432349,
			"0.007": 0.761230276883,
			"0.008": 2.83408581221,
			"0.009": 3.83934791992,
			"0.01": 3.97049374091,
			"0.011": 4.86637785264,
			"0.012": 5.54315272934,
			"0.013": 1.62330853398,
			"0.014": 0.0,
			"0.015": 0.0,
			"0.016": 0.0,
			"0.017": 0.0,
			"0.018": 0.0,
			"0.019": 0.0,
			"0.02": 0.0,
			"0.021": 0.0,
			"0.022": 0.0,
			"0.023": 0.0,
			"0.024": 0.0,
			"0.025": 0.0
		}
	}
}
