{
	 "smiles": "CC1CCCNC1", 
	 "Tm": 249.15, 
	 "num_atms": 20, 
	 "gaussian": { 
		 "optdone": 1, 
		 "sigma_profile": "yes", 
		 "theory": "DFT", 
		 "functional": "B3LYP", 
		 "basiset": "6-31G**", 
		 "properties": { 
			 "R2extent": 1015.6201, 
			 "electric_dipole_moment_norm": 1.12095557896, 
			 "electric_quadrupole_moment_norm": 4.65470619911, 
			 "total_energy": -291.230708553, 
			 "HOMO_LUMO_gap": 0.2822, 
			 "cosmo_polarized_energy": -3.78, 
			 "cosmo_cavitation_energy": 20.01, 
			 "cosmo_dispersion_energy": -15.32, 
			 "cosmo_repulsion_energy": 1.28, 
			 "cosmo_total_nonelectrostatic_energy": 5.97, 
			 "SMD_solvation_energy": 0.3 
		},
		"coords": [
			{
				"x": 2.4630055684,
				"y": 1.355501912,
				"z": 1.2567690985,
				"element": "C" 
			},
			{
				"x": 1.0878328322,
				"y": 0.6700375102,
				"z": 1.2589808547,
				"element": "C" 
			},
			{
				"x": 0.0953310004,
				"y": 1.3210721584,
				"z": 0.2690826549,
				"element": "C" 
			},
			{
				"x": 0.4259207194,
				"y": 0.98537491,
				"z": -1.1955214534,
				"element": "C" 
			},
			{
				"x": 0.5663690792,
				"y": -0.5354748397,
				"z": -1.3829675372,
				"element": "C" 
			},
			{
				"x": 1.5013310087,
				"y": -1.1704606914,
				"z": -0.4481359974,
				"element": "N" 
			},
			{
				"x": 1.1929737012,
				"y": -0.8424385469,
				"z": 0.9471569919,
				"element": "C" 
			},
			{
				"x": 2.970806871,
				"y": 1.2619447653,
				"z": 0.2904094759,
				"element": "H" 
			},
			{
				"x": 3.1202125391,
				"y": 0.9163694163,
				"z": 2.0158974191,
				"element": "H" 
			},
			{
				"x": 2.3720869956,
				"y": 2.4255358442,
				"z": 1.4730067822,
				"element": "H" 
			},
			{
				"x": 0.6726637799,
				"y": 0.7704717122,
				"z": 2.2720377708,
				"element": "H" 
			},
			{
				"x": 0.0674177652,
				"y": 2.4077040191,
				"z": 0.4180965582,
				"element": "H" 
			},
			{
				"x": -0.9152555064,
				"y": 0.9510472353,
				"z": 0.4930056145,
				"element": "H" 
			},
			{
				"x": 1.362380877,
				"y": 1.4752842044,
				"z": -1.4946464575,
				"element": "H" 
			},
			{
				"x": -0.3547171098,
				"y": 1.3781338218,
				"z": -1.8596282858,
				"element": "H" 
			},
			{
				"x": -0.415786031,
				"y": -1.0084089363,
				"z": -1.2362760981,
				"element": "H" 
			},
			{
				"x": 0.8803745777,
				"y": -0.7754100038,
				"z": -2.4052523651,
				"element": "H" 
			},
			{
				"x": 2.449830502,
				"y": -0.8732418545,
				"z": -0.6667627237,
				"element": "H" 
			},
			{
				"x": 0.233244591,
				"y": -1.3209492182,
				"z": 1.1886186731,
				"element": "H" 
			},
			{
				"x": 1.9489762392,
				"y": -1.3123934183,
				"z": 1.5879290244,
				"element": "H" 
			}
		],
		 "valence_orbital": [ 
			{
				"type": "occ",
				"energy": -0.3387,
				"method": "rhf"
			},
			{
				"type": "occ",
				"energy": -0.33443,
				"method": "rhf"
			},
			{
				"type": "occ",
				"energy": -0.30981,
				"method": "rhf"
			},
			{
				"type": "occ",
				"energy": -0.30375,
				"method": "rhf"
			},
			{
				"type": "occ",
				"energy": -0.20808,
				"method": "rhf"
			},
			{
				"type": "unocc",
				"energy": 0.07412,
				"method": "rhf"
			},
			{
				"type": "unocc",
				"energy": 0.09879,
				"method": "rhf"
			},
			{
				"type": "unocc",
				"energy": 0.12969,
				"method": "rhf"
			},
			{
				"type": "unocc",
				"energy": 0.13281,
				"method": "rhf"
			},
			{
				"type": "unocc",
				"energy": 0.14498,
				"method": "rhf"
			}
		],
		"cosmo_sigma_profile": { 
			"-0.025": 0.0,
			"-0.024": 0.0,
			"-0.023": 0.0,
			"-0.022": 0.0,
			"-0.021": 0.0,
			"-0.02": 0.0,
			"-0.019": 0.0,
			"-0.018": 0.0,
			"-0.017": 0.0,
			"-0.016": 0.0,
			"-0.015": 0.0,
			"-0.014": 0.0,
			"-0.013": 0.0,
			"-0.012": 0.0,
			"-0.011": 0.0,
			"-0.01": 0.0,
			"-0.009": 0.381252853281,
			"-0.008": 1.21059338667,
			"-0.007": 1.43921224787,
			"-0.006": 2.12194868762,
			"-0.005": 2.11458780898,
			"-0.004": 2.21500296156,
			"-0.003": 8.50325851291,
			"-0.002": 28.2940250488,
			"-0.001": 31.148558929,
			"0.0": 29.6841165274,
			"0.001": 22.9697015618,
			"0.002": 9.45083916888,
			"0.003": 1.77570303375,
			"0.004": 1.38972784241,
			"0.005": 1.02794164254,
			"0.006": 1.14902771493,
			"0.007": 0.308025339563,
			"0.008": 0.996265360438,
			"0.009": 0.860005030514,
			"0.01": 0.633942508527,
			"0.011": 0.756571286591,
			"0.012": 0.513332218037,
			"0.013": 0.796047884298,
			"0.014": 0.503747293345,
			"0.015": 0.51710621914,
			"0.016": 0.818452509041,
			"0.017": 0.339674023454,
			"0.018": 0.785906304156,
			"0.019": 0.379703237953,
			"0.02": 0.00546444762658,
			"0.021": 0.0,
			"0.022": 0.0,
			"0.023": 0.0,
			"0.024": 0.0,
			"0.025": 0.0
		}
	}
}
