{
	 "smiles": "COC1=NC(=NC=C1)N1CCC(CC1)C(O)=O", 
	 "Tm": 405.15, 
	 "num_atms": 32, 
	 "gaussian": { 
		 "optdone": 1, 
		 "sigma_profile": "yes", 
		 "theory": "DFT", 
		 "functional": "B3LYP", 
		 "basiset": "6-31G**", 
		 "properties": { 
			 "R2extent": 5689.701, 
			 "electric_dipole_moment_norm": 2.70849581502, 
			 "electric_quadrupole_moment_norm": 9.91017011156, 
			 "total_energy": -818.168075432, 
			 "HOMO_LUMO_gap": 0.19472, 
			 "cosmo_polarized_energy": -13.3, 
			 "cosmo_cavitation_energy": 34.76, 
			 "cosmo_dispersion_energy": -25.13, 
			 "cosmo_repulsion_energy": 1.96, 
			 "cosmo_total_nonelectrostatic_energy": 11.6, 
			 "SMD_solvation_energy": 5.72 
		},
		"coords": [
			{
				"x": 2.0442047037,
				"y": 0.1242158323,
				"z": 3.7081932801,
				"element": "C" 
			},
			{
				"x": 2.9646437888,
				"y": -0.7135609002,
				"z": 3.0029832981,
				"element": "O" 
			},
			{
				"x": 2.6826887132,
				"y": -1.0060632068,
				"z": 1.7192710569,
				"element": "C" 
			},
			{
				"x": 1.5841718055,
				"y": -0.51598214,
				"z": 1.1646046932,
				"element": "N" 
			},
			{
				"x": 1.356740088,
				"y": -0.847959717,
				"z": -0.1296629667,
				"element": "C" 
			},
			{
				"x": 2.157194244,
				"y": -1.6202934086,
				"z": -0.8885306374,
				"element": "N" 
			},
			{
				"x": 3.2550970396,
				"y": -2.0932269658,
				"z": -0.2853080625,
				"element": "C" 
			},
			{
				"x": 3.5915258898,
				"y": -1.8288752425,
				"z": 1.031454644,
				"element": "C" 
			},
			{
				"x": 0.2093141131,
				"y": -0.364477518,
				"z": -0.7055215193,
				"element": "N" 
			},
			{
				"x": -0.6799096977,
				"y": 0.5616381939,
				"z": -0.0149392522,
				"element": "C" 
			},
			{
				"x": -2.1428587827,
				"y": 0.118147323,
				"z": -0.142636582,
				"element": "C" 
			},
			{
				"x": -2.5255481219,
				"y": -0.0874915073,
				"z": -1.6268467205,
				"element": "C" 
			},
			{
				"x": -1.5421388998,
				"y": -1.0521418602,
				"z": -2.3018294167,
				"element": "C" 
			},
			{
				"x": -0.0943078389,
				"y": -0.5821690795,
				"z": -2.1181284307,
				"element": "C" 
			},
			{
				"x": -3.9594832467,
				"y": -0.5633468625,
				"z": -1.7584869329,
				"element": "C" 
			},
			{
				"x": -4.8401551997,
				"y": 0.3780499276,
				"z": -1.3316183852,
				"element": "O" 
			},
			{
				"x": -4.3195795038,
				"y": -1.6418516547,
				"z": -2.177022525,
				"element": "O" 
			},
			{
				"x": 1.0529505304,
				"y": -0.3352040315,
				"z": 3.7598501375,
				"element": "H" 
			},
			{
				"x": 1.9529054101,
				"y": 1.1022259705,
				"z": 3.2272759902,
				"element": "H" 
			},
			{
				"x": 2.4625327156,
				"y": 0.2329148982,
				"z": 4.7096560548,
				"element": "H" 
			},
			{
				"x": 3.8998276677,
				"y": -2.7191724164,
				"z": -0.9007773777,
				"element": "H" 
			},
			{
				"x": 4.4829352702,
				"y": -2.2131584242,
				"z": 1.5088580543,
				"element": "H" 
			},
			{
				"x": -0.5662665836,
				"y": 1.5693580384,
				"z": -0.4489332045,
				"element": "H" 
			},
			{
				"x": -0.3780475977,
				"y": 0.6136670903,
				"z": 1.0295017182,
				"element": "H" 
			},
			{
				"x": -2.2812748322,
				"y": -0.8243922271,
				"z": 0.401329544,
				"element": "H" 
			},
			{
				"x": -2.796251483,
				"y": 0.8664860141,
				"z": 0.3164191861,
				"element": "H" 
			},
			{
				"x": -2.4743181825,
				"y": 0.8950410601,
				"z": -2.1191311891,
				"element": "H" 
			},
			{
				"x": -1.7664351333,
				"y": -1.1382658894,
				"z": -3.3702054138,
				"element": "H" 
			},
			{
				"x": -1.664755715,
				"y": -2.0511773042,
				"z": -1.8705664647,
				"element": "H" 
			},
			{
				"x": 0.0620250695,
				"y": 0.3599852883,
				"z": -2.6698832235,
				"element": "H" 
			},
			{
				"x": 0.6108587006,
				"y": -1.3147466407,
				"z": -2.5060727407,
				"element": "H" 
			},
			{
				"x": -5.7233849313,
				"y": -0.0145726401,
				"z": -1.4345966121,
				"element": "H" 
			}
		],
		 "valence_orbital": [ 
			{
				"type": "occ",
				"energy": -0.30067,
				"method": "rhf"
			},
			{
				"type": "occ",
				"energy": -0.27413,
				"method": "rhf"
			},
			{
				"type": "occ",
				"energy": -0.26159,
				"method": "rhf"
			},
			{
				"type": "occ",
				"energy": -0.24294,
				"method": "rhf"
			},
			{
				"type": "occ",
				"energy": -0.20539,
				"method": "rhf"
			},
			{
				"type": "unocc",
				"energy": -0.01067,
				"method": "rhf"
			},
			{
				"type": "unocc",
				"energy": 0.00649,
				"method": "rhf"
			},
			{
				"type": "unocc",
				"energy": 0.01156,
				"method": "rhf"
			},
			{
				"type": "unocc",
				"energy": 0.07501,
				"method": "rhf"
			},
			{
				"type": "unocc",
				"energy": 0.09502,
				"method": "rhf"
			}
		],
		"cosmo_sigma_profile": { 
			"-0.025": 0.0,
			"-0.024": 0.0,
			"-0.023": 0.0,
			"-0.022": 0.0,
			"-0.021": 0.0,
			"-0.02": 0.0,
			"-0.019": 0.0400004802942,
			"-0.018": 0.772512307855,
			"-0.017": 0.723938917538,
			"-0.016": 0.854865642555,
			"-0.015": 1.02036422192,
			"-0.014": 0.277733530292,
			"-0.013": 0.415220298372,
			"-0.012": 0.873823504309,
			"-0.011": 1.09151960432,
			"-0.01": 0.516072565573,
			"-0.009": 0.411246300946,
			"-0.008": 0.594251493459,
			"-0.007": 2.6192048643,
			"-0.006": 8.4535699017,
			"-0.005": 17.1596197787,
			"-0.004": 28.8282005397,
			"-0.003": 33.6542977719,
			"-0.002": 25.5899300832,
			"-0.001": 20.8185065854,
			"0.0": 16.4124156008,
			"0.001": 18.8978934462,
			"0.002": 16.9235664957,
			"0.003": 14.9849263254,
			"0.004": 12.0480693212,
			"0.005": 9.14753454637,
			"0.006": 7.45189242542,
			"0.007": 6.40314935337,
			"0.008": 5.31681735231,
			"0.009": 5.53598487903,
			"0.01": 4.75973220843,
			"0.011": 4.65564168491,
			"0.012": 5.76485906813,
			"0.013": 0.527282321437,
			"0.014": 0.0,
			"0.015": 0.0,
			"0.016": 0.0,
			"0.017": 0.0,
			"0.018": 0.0,
			"0.019": 0.0,
			"0.02": 0.0,
			"0.021": 0.0,
			"0.022": 0.0,
			"0.023": 0.0,
			"0.024": 0.0,
			"0.025": 0.0
		}
	}
}
