{
	 "smiles": "C1CC2=CC=CC3=C2C1CCC3", 
	 "Tm": 285.95, 
	 "num_atms": 26, 
	 "gaussian": { 
		 "optdone": 1, 
		 "sigma_profile": "yes", 
		 "theory": "DFT", 
		 "functional": "B3LYP", 
		 "basiset": "6-31G**", 
		 "properties": { 
			 "R2extent": 1970.043, 
			 "electric_dipole_moment_norm": 0.640189300129, 
			 "electric_quadrupole_moment_norm": 4.01132791853, 
			 "total_energy": -465.737767487, 
			 "HOMO_LUMO_gap": 0.22953, 
			 "cosmo_polarized_energy": -2.85, 
			 "cosmo_cavitation_energy": 26.14, 
			 "cosmo_dispersion_energy": -19.88, 
			 "cosmo_repulsion_energy": 1.58, 
			 "cosmo_total_nonelectrostatic_energy": 7.84, 
			 "SMD_solvation_energy": 3.14 
		},
		"coords": [
			{
				"x": -0.1764988606,
				"y": -0.7042412517,
				"z": -2.7959159568,
				"element": "C" 
			},
			{
				"x": 0.2968878269,
				"y": 0.7759031243,
				"z": -2.8814786564,
				"element": "C" 
			},
			{
				"x": 0.1449712598,
				"y": 1.2600660889,
				"z": -1.4503491689,
				"element": "C" 
			},
			{
				"x": 0.0426105632,
				"y": 2.5444099019,
				"z": -0.92371482,
				"element": "C" 
			},
			{
				"x": -0.1693217843,
				"y": 2.687056299,
				"z": 0.4555780655,
				"element": "C" 
			},
			{
				"x": -0.3059449407,
				"y": 1.5706680606,
				"z": 1.2850560051,
				"element": "C" 
			},
			{
				"x": -0.2021594706,
				"y": 0.2713466753,
				"z": 0.7632381532,
				"element": "C" 
			},
			{
				"x": 0.0613980503,
				"y": 0.1547844633,
				"z": -0.5980752291,
				"element": "C" 
			},
			{
				"x": 0.204656888,
				"y": -1.1408717232,
				"z": -1.3606799665,
				"element": "C" 
			},
			{
				"x": -0.5760505706,
				"y": -2.2562810348,
				"z": -0.6594207705,
				"element": "C" 
			},
			{
				"x": -0.1548404667,
				"y": -2.2923148733,
				"z": 0.8250826282,
				"element": "C" 
			},
			{
				"x": -0.4706012242,
				"y": -0.9813610874,
				"z": 1.5799586065,
				"element": "C" 
			},
			{
				"x": -1.2674576527,
				"y": -0.7420322191,
				"z": -2.9084251224,
				"element": "H" 
			},
			{
				"x": 0.261102822,
				"y": -1.3388679327,
				"z": -3.5728459129,
				"element": "H" 
			},
			{
				"x": -0.2793737729,
				"y": 1.3671177282,
				"z": -3.6009772424,
				"element": "H" 
			},
			{
				"x": 1.3483680624,
				"y": 0.8252985384,
				"z": -3.2002899487,
				"element": "H" 
			},
			{
				"x": 0.1035198297,
				"y": 3.4226177455,
				"z": -1.5615929297,
				"element": "H" 
			},
			{
				"x": -0.255731303,
				"y": 3.6823025455,
				"z": 0.8835174131,
				"element": "H" 
			},
			{
				"x": -0.5127026158,
				"y": 1.7117898398,
				"z": 2.3438636822,
				"element": "H" 
			},
			{
				"x": 1.2694213067,
				"y": -1.430894357,
				"z": -1.3632344503,
				"element": "H" 
			},
			{
				"x": -0.3908601909,
				"y": -3.2301976194,
				"z": -1.1279847781,
				"element": "H" 
			},
			{
				"x": -1.6543472273,
				"y": -2.0597776306,
				"z": -0.7392774919,
				"element": "H" 
			},
			{
				"x": 0.9254288413,
				"y": -2.4851245163,
				"z": 0.8711247787,
				"element": "H" 
			},
			{
				"x": -0.6390096946,
				"y": -3.1297405457,
				"z": 1.3399238254,
				"element": "H" 
			},
			{
				"x": -1.5320538932,
				"y": -0.9786578975,
				"z": 1.8673228101,
				"element": "H" 
			},
			{
				"x": 0.0895882177,
				"y": -0.9532983219,
				"z": 2.5231964766,
				"element": "H" 
			}
		],
		 "valence_orbital": [ 
			{
				"type": "occ",
				"energy": -0.31649,
				"method": "rhf"
			},
			{
				"type": "occ",
				"energy": -0.30478,
				"method": "rhf"
			},
			{
				"type": "occ",
				"energy": -0.29926,
				"method": "rhf"
			},
			{
				"type": "occ",
				"energy": -0.22796,
				"method": "rhf"
			},
			{
				"type": "occ",
				"energy": -0.2238,
				"method": "rhf"
			},
			{
				"type": "unocc",
				"energy": 0.00573,
				"method": "rhf"
			},
			{
				"type": "unocc",
				"energy": 0.01244,
				"method": "rhf"
			},
			{
				"type": "unocc",
				"energy": 0.09762,
				"method": "rhf"
			},
			{
				"type": "unocc",
				"energy": 0.11126,
				"method": "rhf"
			},
			{
				"type": "unocc",
				"energy": 0.11557,
				"method": "rhf"
			}
		],
		"cosmo_sigma_profile": { 
			"-0.025": 0.0,
			"-0.024": 0.0,
			"-0.023": 0.0,
			"-0.022": 0.0,
			"-0.021": 0.0,
			"-0.02": 0.0,
			"-0.019": 0.0,
			"-0.018": 0.0,
			"-0.017": 0.0,
			"-0.016": 0.0,
			"-0.015": 0.0,
			"-0.014": 0.0,
			"-0.013": 0.0,
			"-0.012": 0.0,
			"-0.011": 0.0,
			"-0.01": 0.0,
			"-0.009": 0.0,
			"-0.008": 0.0,
			"-0.007": 0.0,
			"-0.006": 0.0047495049404,
			"-0.005": 3.00154823357,
			"-0.004": 7.31339455203,
			"-0.003": 20.1275469811,
			"-0.002": 36.2546397814,
			"-0.001": 38.3864555703,
			"0.0": 33.2518474832,
			"0.001": 22.9445581601,
			"0.002": 9.50375912905,
			"0.003": 5.73572814708,
			"0.004": 6.51938319179,
			"0.005": 6.59494510235,
			"0.006": 6.14363533984,
			"0.007": 6.59971788995,
			"0.008": 1.85882833334,
			"0.009": 0.0,
			"0.01": 0.0,
			"0.011": 0.0,
			"0.012": 0.0,
			"0.013": 0.0,
			"0.014": 0.0,
			"0.015": 0.0,
			"0.016": 0.0,
			"0.017": 0.0,
			"0.018": 0.0,
			"0.019": 0.0,
			"0.02": 0.0,
			"0.021": 0.0,
			"0.022": 0.0,
			"0.023": 0.0,
			"0.024": 0.0,
			"0.025": 0.0
		}
	}
}
