{
	 "smiles": "OC(=O)CC1=CC=C(NC(=O)C2CC2)C=C1", 
	 "Tm": 463.15, 
	 "num_atms": 29, 
	 "gaussian": { 
		 "optdone": 1, 
		 "sigma_profile": "yes", 
		 "theory": "DFT", 
		 "functional": "B3LYP", 
		 "basiset": "6-31G**", 
		 "properties": { 
			 "R2extent": 5964.4488, 
			 "electric_dipole_moment_norm": 3.20037860885, 
			 "electric_quadrupole_moment_norm": 21.4364832209, 
			 "total_energy": -745.540301958, 
			 "HOMO_LUMO_gap": 0.20261, 
			 "cosmo_polarized_energy": -16.83, 
			 "cosmo_cavitation_energy": 33.69, 
			 "cosmo_dispersion_energy": -23.82, 
			 "cosmo_repulsion_energy": 1.88, 
			 "cosmo_total_nonelectrostatic_energy": 11.76, 
			 "SMD_solvation_energy": 7.06 
		},
		"coords": [
			{
				"x": 0.8757017564,
				"y": -2.9976024921,
				"z": 4.9574054503,
				"element": "O" 
			},
			{
				"x": 0.8151881615,
				"y": -3.1583194239,
				"z": 3.6156408135,
				"element": "C" 
			},
			{
				"x": -0.0445803654,
				"y": -3.8166374686,
				"z": 3.0716352344,
				"element": "O" 
			},
			{
				"x": 1.9165900415,
				"y": -2.398405407,
				"z": 2.8978361109,
				"element": "C" 
			},
			{
				"x": 1.3999811034,
				"y": -1.0872904666,
				"z": 2.32502002,
				"element": "C" 
			},
			{
				"x": 1.9372792885,
				"y": 0.1371632388,
				"z": 2.7356616545,
				"element": "C" 
			},
			{
				"x": 1.4822218166,
				"y": 1.3373459936,
				"z": 2.1938687363,
				"element": "C" 
			},
			{
				"x": 0.4562290739,
				"y": 1.342292398,
				"z": 1.2391014671,
				"element": "C" 
			},
			{
				"x": -0.011524172,
				"y": 2.5818521567,
				"z": 0.7476162641,
				"element": "N" 
			},
			{
				"x": -0.4245597667,
				"y": 2.9704081686,
				"z": -0.5160745197,
				"element": "C" 
			},
			{
				"x": -0.9341819859,
				"y": 4.0761023274,
				"z": -0.667159901,
				"element": "O" 
			},
			{
				"x": -0.1911210307,
				"y": 2.0395966815,
				"z": -1.6613156099,
				"element": "C" 
			},
			{
				"x": -0.084799652,
				"y": 2.679608222,
				"z": -3.0333982434,
				"element": "C" 
			},
			{
				"x": -1.3165451229,
				"y": 1.912711413,
				"z": -2.6809826282,
				"element": "C" 
			},
			{
				"x": -0.1127975207,
				"y": 0.119111784,
				"z": 0.8513274503,
				"element": "C" 
			},
			{
				"x": 0.3685477502,
				"y": -1.0772661328,
				"z": 1.3767070609,
				"element": "C" 
			},
			{
				"x": 0.1183266844,
				"y": -3.4857714842,
				"z": 5.3235450262,
				"element": "H" 
			},
			{
				"x": 2.2741165249,
				"y": -3.0480367239,
				"z": 2.0922282583,
				"element": "H" 
			},
			{
				"x": 2.7432025486,
				"y": -2.2113048613,
				"z": 3.586279227,
				"element": "H" 
			},
			{
				"x": 2.7314130415,
				"y": 0.1556688271,
				"z": 3.4773343097,
				"element": "H" 
			},
			{
				"x": 1.9272343486,
				"y": 2.2787839833,
				"z": 2.5038938218,
				"element": "H" 
			},
			{
				"x": -0.083612623,
				"y": 3.3420564054,
				"z": 1.4128934925,
				"element": "H" 
			},
			{
				"x": 0.4133588828,
				"y": 1.1602416342,
				"z": -1.4752079418,
				"element": "H" 
			},
			{
				"x": -0.1603885631,
				"y": 3.7611081522,
				"z": -3.0549109797,
				"element": "H" 
			},
			{
				"x": 0.6255758749,
				"y": 2.238913918,
				"z": -3.7256173603,
				"element": "H" 
			},
			{
				"x": -2.2148624547,
				"y": 2.4836225591,
				"z": -2.4701273068,
				"element": "H" 
			},
			{
				"x": -1.4772272359,
				"y": 0.9354374719,
				"z": -3.1255786603,
				"element": "H" 
			},
			{
				"x": -0.944098172,
				"y": 0.1083823707,
				"z": 0.1550343948,
				"element": "H" 
			},
			{
				"x": -0.0854682326,
				"y": -2.0165732451,
				"z": 1.0754443583,
				"element": "H" 
			}
		],
		 "valence_orbital": [ 
			{
				"type": "occ",
				"energy": -0.28685,
				"method": "rhf"
			},
			{
				"type": "occ",
				"energy": -0.27961,
				"method": "rhf"
			},
			{
				"type": "occ",
				"energy": -0.26245,
				"method": "rhf"
			},
			{
				"type": "occ",
				"energy": -0.25282,
				"method": "rhf"
			},
			{
				"type": "occ",
				"energy": -0.22602,
				"method": "rhf"
			},
			{
				"type": "unocc",
				"energy": -0.02341,
				"method": "rhf"
			},
			{
				"type": "unocc",
				"energy": -0.01521,
				"method": "rhf"
			},
			{
				"type": "unocc",
				"energy": 0.00629,
				"method": "rhf"
			},
			{
				"type": "unocc",
				"energy": 0.03103,
				"method": "rhf"
			},
			{
				"type": "unocc",
				"energy": 0.07358,
				"method": "rhf"
			}
		],
		"cosmo_sigma_profile": { 
			"-0.025": 0.0,
			"-0.024": 0.0,
			"-0.023": 0.0,
			"-0.022": 0.0,
			"-0.021": 0.0,
			"-0.02": 0.0,
			"-0.019": 0.0,
			"-0.018": 0.717895445896,
			"-0.017": 0.874223816929,
			"-0.016": 0.960479000187,
			"-0.015": 1.05193544418,
			"-0.014": 1.22812919452,
			"-0.013": 1.69468140197,
			"-0.012": 1.49164925657,
			"-0.011": 2.17687015235,
			"-0.01": 1.78889700156,
			"-0.009": 1.53799429422,
			"-0.008": 1.78969086454,
			"-0.007": 4.9480877009,
			"-0.006": 12.0554870387,
			"-0.005": 20.002036608,
			"-0.004": 21.6555427105,
			"-0.003": 22.2797459238,
			"-0.002": 18.8719764913,
			"-0.001": 18.332694864,
			"0.0": 18.4229991999,
			"0.001": 17.2549787379,
			"0.002": 19.5472948867,
			"0.003": 15.2229350865,
			"0.004": 16.0372188899,
			"0.005": 8.87750172841,
			"0.006": 3.22735164114,
			"0.007": 3.5993565468,
			"0.008": 4.61915005305,
			"0.009": 4.50320315058,
			"0.01": 2.96818787943,
			"0.011": 5.67367229297,
			"0.012": 5.36453503569,
			"0.013": 3.78892181193,
			"0.014": 4.26391184364,
			"0.015": 0.15128351513,
			"0.016": 0.0,
			"0.017": 0.0,
			"0.018": 0.0,
			"0.019": 0.0,
			"0.02": 0.0,
			"0.021": 0.0,
			"0.022": 0.0,
			"0.023": 0.0,
			"0.024": 0.0,
			"0.025": 0.0
		}
	}
}
