{
	 "smiles": "OC(=O)CNC(=O)C1=C(Br)C=CC=C1", 
	 "Tm": 412.15, 
	 "num_atms": 22, 
	 "gaussian": { 
		 "optdone": 1, 
		 "sigma_profile": "yes", 
		 "theory": "DFT", 
		 "functional": "B3LYP", 
		 "basiset": "6-31G**", 
		 "properties": { 
			 "R2extent": 5651.1612, 
			 "electric_dipole_moment_norm": 4.24370856445, 
			 "electric_quadrupole_moment_norm": 22.9460296396, 
			 "total_energy": -3199.61873449, 
			 "HOMO_LUMO_gap": 0.21541, 
			 "cosmo_polarized_energy": -19.13, 
			 "cosmo_cavitation_energy": 28.99, 
			 "cosmo_dispersion_energy": -20.7, 
			 "cosmo_repulsion_energy": 1.64, 
			 "cosmo_total_nonelectrostatic_energy": 9.94, 
			 "SMD_solvation_energy": 5.99 
		},
		"coords": [
			{
				"x": -0.0603389524,
				"y": 3.0940365789,
				"z": 3.4358086107,
				"element": "O" 
			},
			{
				"x": -1.1676605006,
				"y": 2.4061353487,
				"z": 3.1038921491,
				"element": "C" 
			},
			{
				"x": -2.2494969436,
				"y": 2.6550339556,
				"z": 3.573837457,
				"element": "O" 
			},
			{
				"x": -0.9722995784,
				"y": 1.2899609873,
				"z": 2.0669021875,
				"element": "C" 
			},
			{
				"x": 0.3834528975,
				"y": 0.7589188757,
				"z": 2.0369265705,
				"element": "N" 
			},
			{
				"x": 1.1183262949,
				"y": 0.4216587928,
				"z": 0.9147359488,
				"element": "C" 
			},
			{
				"x": 2.0644568162,
				"y": -0.3444440318,
				"z": 0.9851186742,
				"element": "O" 
			},
			{
				"x": 0.7018000468,
				"y": 1.0259290789,
				"z": -0.4064220317,
				"element": "C" 
			},
			{
				"x": 0.9263009234,
				"y": 2.3598904755,
				"z": -0.764793527,
				"element": "C" 
			},
			{
				"x": 1.7541772484,
				"y": 3.5822904236,
				"z": 0.4588051591,
				"element": "Br" 
			},
			{
				"x": 0.5905508143,
				"y": 2.8391828789,
				"z": -2.0307819543,
				"element": "C" 
			},
			{
				"x": 0.0189999865,
				"y": 1.9734867145,
				"z": -2.9624649929,
				"element": "C" 
			},
			{
				"x": -0.2005452311,
				"y": 0.6350281705,
				"z": -2.632806373,
				"element": "C" 
			},
			{
				"x": 0.1482187577,
				"y": 0.1676619009,
				"z": -1.3681120837,
				"element": "C" 
			},
			{
				"x": 0.6856225214,
				"y": 2.7655673649,
				"z": 2.9021374985,
				"element": "H" 
			},
			{
				"x": -1.7169389047,
				"y": 0.5171635321,
				"z": 2.2839180695,
				"element": "H" 
			},
			{
				"x": -1.2107307974,
				"y": 1.7039024066,
				"z": 1.0832094715,
				"element": "H" 
			},
			{
				"x": 0.6746694529,
				"y": 0.2143044843,
				"z": 2.8424204717,
				"element": "H" 
			},
			{
				"x": 0.78162592,
				"y": 3.8762514123,
				"z": -2.2814376486,
				"element": "H" 
			},
			{
				"x": -0.2449821367,
				"y": 2.3476975451,
				"z": -3.9467948803,
				"element": "H" 
			},
			{
				"x": -0.6345453651,
				"y": -0.0441961662,
				"z": -3.3596020446,
				"element": "H" 
			},
			{
				"x": 0.0005367302,
				"y": -0.8766607292,
				"z": -1.1103967322,
				"element": "H" 
			}
		],
		 "valence_orbital": [ 
			{
				"type": "occ",
				"energy": -0.29596,
				"method": "rhf"
			},
			{
				"type": "occ",
				"energy": -0.29454,
				"method": "rhf"
			},
			{
				"type": "occ",
				"energy": -0.2751,
				"method": "rhf"
			},
			{
				"type": "occ",
				"energy": -0.26686,
				"method": "rhf"
			},
			{
				"type": "occ",
				"energy": -0.25989,
				"method": "rhf"
			},
			{
				"type": "unocc",
				"energy": -0.04448,
				"method": "rhf"
			},
			{
				"type": "unocc",
				"energy": -0.03576,
				"method": "rhf"
			},
			{
				"type": "unocc",
				"energy": -0.01712,
				"method": "rhf"
			},
			{
				"type": "unocc",
				"energy": -0.00209,
				"method": "rhf"
			},
			{
				"type": "unocc",
				"energy": 0.00709,
				"method": "rhf"
			}
		],
		"cosmo_sigma_profile": { 
			"-0.025": 0.0,
			"-0.024": 0.0,
			"-0.023": 0.0,
			"-0.022": 0.0,
			"-0.021": 0.0,
			"-0.02": 0.0,
			"-0.019": 0.0,
			"-0.018": 0.0,
			"-0.017": 0.0,
			"-0.016": 0.0809439742393,
			"-0.015": 1.23643628067,
			"-0.014": 1.66955201949,
			"-0.013": 1.59557675975,
			"-0.012": 1.62660465501,
			"-0.011": 1.50504548163,
			"-0.01": 3.14399174531,
			"-0.009": 2.71295581105,
			"-0.008": 6.8993457434,
			"-0.007": 14.1841482394,
			"-0.006": 16.9642970235,
			"-0.005": 17.9580650023,
			"-0.004": 12.3642398185,
			"-0.003": 10.9571832771,
			"-0.002": 10.1067031989,
			"-0.001": 10.3769279909,
			"0.0": 13.5176775514,
			"0.001": 15.2054221515,
			"0.002": 17.6092696701,
			"0.003": 18.615604192,
			"0.004": 7.25371885065,
			"0.005": 3.63211027129,
			"0.006": 3.91050173602,
			"0.007": 3.24456775208,
			"0.008": 3.89012560772,
			"0.009": 5.68001707002,
			"0.01": 6.62069856903,
			"0.011": 7.36160697071,
			"0.012": 10.7331549355,
			"0.013": 3.92318979679,
			"0.014": 0.218938534142,
			"0.015": 0.0,
			"0.016": 0.0,
			"0.017": 0.0,
			"0.018": 0.0,
			"0.019": 0.0,
			"0.02": 0.0,
			"0.021": 0.0,
			"0.022": 0.0,
			"0.023": 0.0,
			"0.024": 0.0,
			"0.025": 0.0
		}
	}
}
