{
	 "smiles": "N#CC1=CN=CC=C1C=CC1=CC=CC=C1", 
	 "Tm": 402.15, 
	 "num_atms": 26, 
	 "gaussian": { 
		 "optdone": 1, 
		 "sigma_profile": "yes", 
		 "theory": "DFT", 
		 "functional": "B3LYP", 
		 "basiset": "6-31G**", 
		 "properties": { 
			 "R2extent": 5404.5856, 
			 "electric_dipole_moment_norm": 4.90124993242, 
			 "electric_quadrupole_moment_norm": 10.3440877452, 
			 "total_energy": -648.98999863, 
			 "HOMO_LUMO_gap": 0.14574, 
			 "cosmo_polarized_energy": -12.18, 
			 "cosmo_cavitation_energy": 32.01, 
			 "cosmo_dispersion_energy": -22.56, 
			 "cosmo_repulsion_energy": 1.71, 
			 "cosmo_total_nonelectrostatic_energy": 11.16, 
			 "SMD_solvation_energy": 5.2 
		},
		"coords": [
			{
				"x": -3.6618280093,
				"y": 0.4164975445,
				"z": -2.4738192496,
				"element": "N" 
			},
			{
				"x": -3.4113360679,
				"y": -0.2407518659,
				"z": -1.5462949891,
				"element": "C" 
			},
			{
				"x": -3.1097238692,
				"y": -1.0537098215,
				"z": -0.4075573098,
				"element": "C" 
			},
			{
				"x": -3.9305642938,
				"y": -2.1615551292,
				"z": -0.1298640918,
				"element": "C" 
			},
			{
				"x": -3.7437027571,
				"y": -2.9836401773,
				"z": 0.8993842895,
				"element": "N" 
			},
			{
				"x": -2.7006471704,
				"y": -2.7121460148,
				"z": 1.7020659689,
				"element": "C" 
			},
			{
				"x": -1.8292301881,
				"y": -1.6462091924,
				"z": 1.5194091175,
				"element": "C" 
			},
			{
				"x": -2.0065935967,
				"y": -0.7638845456,
				"z": 0.4386599277,
				"element": "C" 
			},
			{
				"x": -1.14567229,
				"y": 0.3828405314,
				"z": 0.1630153952,
				"element": "C" 
			},
			{
				"x": -0.0723110682,
				"y": 0.7569539261,
				"z": 0.892048406,
				"element": "C" 
			},
			{
				"x": 0.8076818631,
				"y": 1.8986842157,
				"z": 0.6412239423,
				"element": "C" 
			},
			{
				"x": 1.8830931903,
				"y": 2.1237107222,
				"z": 1.5214917416,
				"element": "C" 
			},
			{
				"x": 2.7555357974,
				"y": 3.1937251539,
				"z": 1.3354207299,
				"element": "C" 
			},
			{
				"x": 2.5704605443,
				"y": 4.0648319992,
				"z": 0.2610926689,
				"element": "C" 
			},
			{
				"x": 1.5068638348,
				"y": 3.8563364982,
				"z": -0.6236217336,
				"element": "C" 
			},
			{
				"x": 0.6356636374,
				"y": 2.7885318771,
				"z": -0.4385316171,
				"element": "C" 
			},
			{
				"x": -4.7731420669,
				"y": -2.375340367,
				"z": -0.7839191755,
				"element": "H" 
			},
			{
				"x": -2.556904449,
				"y": -3.3905936633,
				"z": 2.5406914966,
				"element": "H" 
			},
			{
				"x": -1.0139227097,
				"y": -1.5060709385,
				"z": 2.2202087975,
				"element": "H" 
			},
			{
				"x": -1.4217829618,
				"y": 0.9634593771,
				"z": -0.7124902101,
				"element": "H" 
			},
			{
				"x": 0.1984903982,
				"y": 0.1700473618,
				"z": 1.7680689499,
				"element": "H" 
			},
			{
				"x": 2.0307036644,
				"y": 1.4472885671,
				"z": 2.3597368247,
				"element": "H" 
			},
			{
				"x": 3.5780780039,
				"y": 3.3469804973,
				"z": 2.0277959801,
				"element": "H" 
			},
			{
				"x": 3.2478177627,
				"y": 4.9004158631,
				"z": 0.1117534324,
				"element": "H" 
			},
			{
				"x": 1.3576970144,
				"y": 4.5309712493,
				"z": -1.4615367717,
				"element": "H" 
			},
			{
				"x": -0.1825242129,
				"y": 2.6462263316,
				"z": -1.1372325205,
				"element": "H" 
			}
		],
		 "valence_orbital": [ 
			{
				"type": "occ",
				"energy": -0.29453,
				"method": "rhf"
			},
			{
				"type": "occ",
				"energy": -0.27471,
				"method": "rhf"
			},
			{
				"type": "occ",
				"energy": -0.27219,
				"method": "rhf"
			},
			{
				"type": "occ",
				"energy": -0.26506,
				"method": "rhf"
			},
			{
				"type": "occ",
				"energy": -0.23143,
				"method": "rhf"
			},
			{
				"type": "unocc",
				"energy": -0.08569,
				"method": "rhf"
			},
			{
				"type": "unocc",
				"energy": -0.04981,
				"method": "rhf"
			},
			{
				"type": "unocc",
				"energy": -0.01531,
				"method": "rhf"
			},
			{
				"type": "unocc",
				"energy": -0.0101,
				"method": "rhf"
			},
			{
				"type": "unocc",
				"energy": 0.02733,
				"method": "rhf"
			}
		],
		"cosmo_sigma_profile": { 
			"-0.025": 0.0,
			"-0.024": 0.0,
			"-0.023": 0.0,
			"-0.022": 0.0,
			"-0.021": 0.0,
			"-0.02": 0.0,
			"-0.019": 0.0,
			"-0.018": 0.0,
			"-0.017": 0.0,
			"-0.016": 0.0,
			"-0.015": 0.0,
			"-0.014": 0.0,
			"-0.013": 0.0,
			"-0.012": 0.0,
			"-0.011": 0.0,
			"-0.01": 0.16767800721,
			"-0.009": 2.47093653051,
			"-0.008": 5.89889455805,
			"-0.007": 12.6369362616,
			"-0.006": 16.1558070077,
			"-0.005": 16.385671312,
			"-0.004": 17.0366228726,
			"-0.003": 18.12545535,
			"-0.002": 18.3072595584,
			"-0.001": 20.3397861455,
			"0.0": 21.3405661042,
			"0.001": 20.5727290987,
			"0.002": 16.2157632096,
			"0.003": 17.5145119727,
			"0.004": 14.7633113738,
			"0.005": 10.8848085853,
			"0.006": 3.91791435656,
			"0.007": 4.45925729349,
			"0.008": 2.95451504785,
			"0.009": 4.35714352399,
			"0.01": 4.37768461197,
			"0.011": 3.65226443679,
			"0.012": 2.91237844824,
			"0.013": 2.1729320211,
			"0.014": 0.994615777556,
			"0.015": 0.669339101678,
			"0.016": 0.314024976094,
			"0.017": 0.0,
			"0.018": 0.0,
			"0.019": 0.0,
			"0.02": 0.0,
			"0.021": 0.0,
			"0.022": 0.0,
			"0.023": 0.0,
			"0.024": 0.0,
			"0.025": 0.0
		}
	}
}
