{
	 "smiles": "CC(=O)C1=CC(C(C)=O)=C(N)C(CC=C)=C1O", 
	 "Tm": 373.15, 
	 "num_atms": 32, 
	 "gaussian": { 
		 "optdone": 1, 
		 "sigma_profile": "yes", 
		 "theory": "DFT", 
		 "functional": "B3LYP", 
		 "basiset": "6-31G**", 
		 "properties": { 
			 "R2extent": 4885.7267, 
			 "electric_dipole_moment_norm": 5.35518641132, 
			 "electric_quadrupole_moment_norm": 5.49975486545, 
			 "total_energy": -784.846583862, 
			 "HOMO_LUMO_gap": 0.16494, 
			 "cosmo_polarized_energy": -15.45, 
			 "cosmo_cavitation_energy": 34.75, 
			 "cosmo_dispersion_energy": -24.88, 
			 "cosmo_repulsion_energy": 1.91, 
			 "cosmo_total_nonelectrostatic_energy": 11.78, 
			 "SMD_solvation_energy": 7.47 
		},
		"coords": [
			{
				"x": -2.3173942907,
				"y": 1.5824998503,
				"z": -2.0065425943,
				"element": "C" 
			},
			{
				"x": -2.5082389928,
				"y": 0.3144141909,
				"z": -1.1972164795,
				"element": "C" 
			},
			{
				"x": -3.6169368259,
				"y": -0.2090678478,
				"z": -1.1520964702,
				"element": "O" 
			},
			{
				"x": -1.3700958386,
				"y": -0.312121193,
				"z": -0.4528091768,
				"element": "C" 
			},
			{
				"x": -1.6644693211,
				"y": -1.4653036933,
				"z": 0.2737082136,
				"element": "C" 
			},
			{
				"x": -0.7358152054,
				"y": -2.1614213263,
				"z": 1.0489201687,
				"element": "C" 
			},
			{
				"x": -1.154253153,
				"y": -3.3451341159,
				"z": 1.8246885041,
				"element": "C" 
			},
			{
				"x": -2.6014917105,
				"y": -3.8081892564,
				"z": 1.752381583,
				"element": "C" 
			},
			{
				"x": -0.3729805772,
				"y": -3.9827703671,
				"z": 2.5430354036,
				"element": "O" 
			},
			{
				"x": 0.6210512533,
				"y": -1.6795913832,
				"z": 1.0793733506,
				"element": "C" 
			},
			{
				"x": 1.5486601484,
				"y": -2.3502798748,
				"z": 1.8096091797,
				"element": "N" 
			},
			{
				"x": 0.9651847895,
				"y": -0.5324311619,
				"z": 0.3168222545,
				"element": "C" 
			},
			{
				"x": 2.4046728514,
				"y": -0.0514052192,
				"z": 0.2002116021,
				"element": "C" 
			},
			{
				"x": 2.6638896845,
				"y": 1.283127845,
				"z": 0.8655793146,
				"element": "C" 
			},
			{
				"x": 3.2183170852,
				"y": 2.3388469748,
				"z": 0.2612183451,
				"element": "C" 
			},
			{
				"x": -0.0302717133,
				"y": 0.1503074936,
				"z": -0.3983224302,
				"element": "C" 
			},
			{
				"x": 0.2867600991,
				"y": 1.2759330882,
				"z": -1.0919985706,
				"element": "O" 
			},
			{
				"x": -1.9533236708,
				"y": 2.3995379862,
				"z": -1.3772183425,
				"element": "H" 
			},
			{
				"x": -1.5662501594,
				"y": 1.4410867303,
				"z": -2.7890528282,
				"element": "H" 
			},
			{
				"x": -3.2785903052,
				"y": 1.8462239255,
				"z": -2.4499384436,
				"element": "H" 
			},
			{
				"x": -2.6949169768,
				"y": -1.7961477437,
				"z": 0.2207512429,
				"element": "H" 
			},
			{
				"x": -2.8899205659,
				"y": -4.060182729,
				"z": 0.7268658448,
				"element": "H" 
			},
			{
				"x": -2.7038079499,
				"y": -4.6912613491,
				"z": 2.3835217217,
				"element": "H" 
			},
			{
				"x": -3.2882766678,
				"y": -3.0311286363,
				"z": 2.1029777583,
				"element": "H" 
			},
			{
				"x": 2.4405843155,
				"y": -1.937036855,
				"z": 2.016723228,
				"element": "H" 
			},
			{
				"x": 1.1971436539,
				"y": -3.1300616578,
				"z": 2.3626778611,
				"element": "H" 
			},
			{
				"x": 2.6797687245,
				"y": 0.0205178294,
				"z": -0.8607599967,
				"element": "H" 
			},
			{
				"x": 3.086626264,
				"y": -0.8010439599,
				"z": 0.6161854393,
				"element": "H" 
			},
			{
				"x": 2.3433777562,
				"y": 1.3683142843,
				"z": 1.9038536401,
				"element": "H" 
			},
			{
				"x": 3.3743224335,
				"y": 3.278400532,
				"z": 0.7822028186,
				"element": "H" 
			},
			{
				"x": 3.5561071399,
				"y": 2.2920270676,
				"z": -0.7726361986,
				"element": "H" 
			},
			{
				"x": 1.1027677253,
				"y": 1.6637405716,
				"z": -0.7364159432,
				"element": "H" 
			}
		],
		 "valence_orbital": [ 
			{
				"type": "occ",
				"energy": -0.28827,
				"method": "rhf"
			},
			{
				"type": "occ",
				"energy": -0.25092,
				"method": "rhf"
			},
			{
				"type": "occ",
				"energy": -0.23922,
				"method": "rhf"
			},
			{
				"type": "occ",
				"energy": -0.23506,
				"method": "rhf"
			},
			{
				"type": "occ",
				"energy": -0.21177,
				"method": "rhf"
			},
			{
				"type": "unocc",
				"energy": -0.04683,
				"method": "rhf"
			},
			{
				"type": "unocc",
				"energy": -0.03451,
				"method": "rhf"
			},
			{
				"type": "unocc",
				"energy": -0.01257,
				"method": "rhf"
			},
			{
				"type": "unocc",
				"energy": 0.02466,
				"method": "rhf"
			},
			{
				"type": "unocc",
				"energy": 0.06507,
				"method": "rhf"
			}
		],
		"cosmo_sigma_profile": { 
			"-0.025": 0.0,
			"-0.024": 0.0,
			"-0.023": 0.0,
			"-0.022": 0.0,
			"-0.021": 0.0,
			"-0.02": 0.0,
			"-0.019": 0.0,
			"-0.018": 0.0,
			"-0.017": 0.0,
			"-0.016": 0.0,
			"-0.015": 0.048921603707,
			"-0.014": 0.80512155446,
			"-0.013": 1.33120543732,
			"-0.012": 1.09370862554,
			"-0.011": 1.4672029097,
			"-0.01": 1.39689390093,
			"-0.009": 1.99728865821,
			"-0.008": 3.51158430644,
			"-0.007": 4.09530390461,
			"-0.006": 12.3682201091,
			"-0.005": 19.5187686345,
			"-0.004": 21.5409705338,
			"-0.003": 22.3393773631,
			"-0.002": 24.2396515725,
			"-0.001": 24.0818911044,
			"0.0": 24.5041401633,
			"0.001": 18.0326514602,
			"0.002": 22.208090463,
			"0.003": 17.7220983144,
			"0.004": 10.1788112256,
			"0.005": 6.87898112191,
			"0.006": 5.0617945967,
			"0.007": 5.6792937729,
			"0.008": 3.37642629522,
			"0.009": 2.9514816246,
			"0.01": 3.84831036784,
			"0.011": 3.45840152504,
			"0.012": 5.4955337343,
			"0.013": 4.66152870988,
			"0.014": 1.65376745702,
			"0.015": 0.0397778107406,
			"0.016": 0.0,
			"0.017": 0.0,
			"0.018": 0.0,
			"0.019": 0.0,
			"0.02": 0.0,
			"0.021": 0.0,
			"0.022": 0.0,
			"0.023": 0.0,
			"0.024": 0.0,
			"0.025": 0.0
		}
	}
}
