{
	 "smiles": "COC(=O)C1CC(O)C(C1)NC(=O)OC(C)(C)C", 
	 "Tm": 344.35, 
	 "num_atms": 39, 
	 "gaussian": { 
		 "optdone": 1, 
		 "sigma_profile": "yes", 
		 "theory": "DFT", 
		 "functional": "B3LYP", 
		 "basiset": "6-31G**", 
		 "properties": { 
			 "R2extent": 5486.9079, 
			 "electric_dipole_moment_norm": 3.61240061455, 
			 "electric_quadrupole_moment_norm": 15.4145374219, 
			 "total_energy": -900.846533547, 
			 "HOMO_LUMO_gap": 0.24811, 
			 "cosmo_polarized_energy": -16.59, 
			 "cosmo_cavitation_energy": 39.43, 
			 "cosmo_dispersion_energy": -26.52, 
			 "cosmo_repulsion_energy": 2.06, 
			 "cosmo_total_nonelectrostatic_energy": 14.97, 
			 "SMD_solvation_energy": 7.93 
		},
		"coords": [
			{
				"x": -3.7945319399,
				"y": 1.1912956321,
				"z": -3.5342506498,
				"element": "C" 
			},
			{
				"x": -2.5196697674,
				"y": 0.5422151921,
				"z": -3.6820251131,
				"element": "O" 
			},
			{
				"x": -1.7565566863,
				"y": 0.5058330557,
				"z": -2.5691639212,
				"element": "C" 
			},
			{
				"x": -2.1035504248,
				"y": 0.9883283412,
				"z": -1.508887721,
				"element": "O" 
			},
			{
				"x": -0.4426289974,
				"y": -0.2102530908,
				"z": -2.8054654679,
				"element": "C" 
			},
			{
				"x": -0.3101554998,
				"y": -1.47575855,
				"z": -1.9302061743,
				"element": "C" 
			},
			{
				"x": 1.2018368122,
				"y": -1.7768652993,
				"z": -1.8763317003,
				"element": "C" 
			},
			{
				"x": 1.6123956764,
				"y": -2.465806612,
				"z": -0.7217021752,
				"element": "O" 
			},
			{
				"x": 1.9085152388,
				"y": -0.3751846079,
				"z": -2.1225080613,
				"element": "C" 
			},
			{
				"x": 0.7678030202,
				"y": 0.6409974884,
				"z": -2.3637622443,
				"element": "C" 
			},
			{
				"x": 2.8794025683,
				"y": 0.033399378,
				"z": -1.1142707646,
				"element": "N" 
			},
			{
				"x": 2.6981914635,
				"y": 0.3263893994,
				"z": 0.2084465525,
				"element": "C" 
			},
			{
				"x": 3.5856328756,
				"y": 0.7583619759,
				"z": 0.9242028455,
				"element": "O" 
			},
			{
				"x": 1.4177726846,
				"y": 0.0603592467,
				"z": 0.6032565222,
				"element": "O" 
			},
			{
				"x": 0.9244372932,
				"y": 0.5019550027,
				"z": 1.9297359591,
				"element": "C" 
			},
			{
				"x": 1.0647071558,
				"y": 2.0222287065,
				"z": 2.0506113598,
				"element": "C" 
			},
			{
				"x": 1.6761713461,
				"y": -0.2419882358,
				"z": 3.03735765,
				"element": "C" 
			},
			{
				"x": -0.550414605,
				"y": 0.0941573228,
				"z": 1.8927364259,
				"element": "C" 
			},
			{
				"x": -4.3989352402,
				"y": 0.68384136,
				"z": -2.7783441094,
				"element": "H" 
			},
			{
				"x": -3.662434071,
				"y": 2.2343618451,
				"z": -3.2363027978,
				"element": "H" 
			},
			{
				"x": -4.2716145753,
				"y": 1.1290930602,
				"z": -4.5121285385,
				"element": "H" 
			},
			{
				"x": -0.3713423109,
				"y": -0.4706914225,
				"z": -3.8662812474,
				"element": "H" 
			},
			{
				"x": -0.8946545244,
				"y": -2.3213770632,
				"z": -2.3034364617,
				"element": "H" 
			},
			{
				"x": -0.6612940705,
				"y": -1.2398728564,
				"z": -0.9205732996,
				"element": "H" 
			},
			{
				"x": 1.4722422799,
				"y": -2.4364024967,
				"z": -2.7084285998,
				"element": "H" 
			},
			{
				"x": 1.4139111576,
				"y": -1.8871789817,
				"z": 0.0302507317,
				"element": "H" 
			},
			{
				"x": 2.4979871552,
				"y": -0.4661907216,
				"z": -3.0394586501,
				"element": "H" 
			},
			{
				"x": 1.0395141599,
				"y": 1.4074956343,
				"z": -3.0955597343,
				"element": "H" 
			},
			{
				"x": 0.5139241087,
				"y": 1.13884329,
				"z": -1.4261463104,
				"element": "H" 
			},
			{
				"x": 3.8432603678,
				"y": 0.1300322467,
				"z": -1.3930889364,
				"element": "H" 
			},
			{
				"x": 0.5382116188,
				"y": 2.521148085,
				"z": 1.2309694107,
				"element": "H" 
			},
			{
				"x": 2.1128492498,
				"y": 2.3224174173,
				"z": 2.0397277158,
				"element": "H" 
			},
			{
				"x": 0.6142013815,
				"y": 2.3535080949,
				"z": 2.9916262435,
				"element": "H" 
			},
			{
				"x": 2.7313922181,
				"y": 0.0302897416,
				"z": 3.0443613861,
				"element": "H" 
			},
			{
				"x": 1.2353001507,
				"y": 0.0082163787,
				"z": 4.007907246,
				"element": "H" 
			},
			{
				"x": 1.5898545678,
				"y": -1.3248218585,
				"z": 2.8990957874,
				"element": "H" 
			},
			{
				"x": -1.0421845993,
				"y": 0.4038729281,
				"z": 2.8198338662,
				"element": "H" 
			},
			{
				"x": -1.0668345584,
				"y": 0.5607412536,
				"z": 1.0490279131,
				"element": "H" 
			},
			{
				"x": -0.6515126798,
				"y": -0.9925902806,
				"z": 1.804975063,
				"element": "H" 
			}
		],
		 "valence_orbital": [ 
			{
				"type": "occ",
				"energy": -0.29076,
				"method": "rhf"
			},
			{
				"type": "occ",
				"energy": -0.27787,
				"method": "rhf"
			},
			{
				"type": "occ",
				"energy": -0.26659,
				"method": "rhf"
			},
			{
				"type": "occ",
				"energy": -0.26237,
				"method": "rhf"
			},
			{
				"type": "occ",
				"energy": -0.24384,
				"method": "rhf"
			},
			{
				"type": "unocc",
				"energy": 0.00427,
				"method": "rhf"
			},
			{
				"type": "unocc",
				"energy": 0.04896,
				"method": "rhf"
			},
			{
				"type": "unocc",
				"energy": 0.05729,
				"method": "rhf"
			},
			{
				"type": "unocc",
				"energy": 0.07164,
				"method": "rhf"
			},
			{
				"type": "unocc",
				"energy": 0.09132,
				"method": "rhf"
			}
		],
		"cosmo_sigma_profile": { 
			"-0.025": 0.0,
			"-0.024": 0.0,
			"-0.023": 0.0,
			"-0.022": 0.0,
			"-0.021": 0.0,
			"-0.02": 0.0,
			"-0.019": 0.0,
			"-0.018": 0.0,
			"-0.017": 0.0,
			"-0.016": 0.0,
			"-0.015": 0.037120154904,
			"-0.014": 0.872627801603,
			"-0.013": 1.18332958381,
			"-0.012": 1.28956249081,
			"-0.011": 1.15862975092,
			"-0.01": 0.763093920235,
			"-0.009": 0.641245293979,
			"-0.008": 1.52237447799,
			"-0.007": 3.34607216647,
			"-0.006": 12.9492327571,
			"-0.005": 19.3965953448,
			"-0.004": 36.3382950785,
			"-0.003": 35.1412737362,
			"-0.002": 29.0955278874,
			"-0.001": 26.3513496507,
			"0.0": 30.6760610742,
			"0.001": 20.1529419349,
			"0.002": 12.6155026964,
			"0.003": 9.45930775678,
			"0.004": 8.32137582578,
			"0.005": 8.61809161547,
			"0.006": 5.81601852032,
			"0.007": 4.92243946822,
			"0.008": 5.84648694848,
			"0.009": 5.78548559152,
			"0.01": 3.87783507172,
			"0.011": 4.89154023534,
			"0.012": 4.98095011459,
			"0.013": 5.90393479056,
			"0.014": 3.54567968173,
			"0.015": 0.849209016519,
			"0.016": 0.0,
			"0.017": 0.0,
			"0.018": 0.0,
			"0.019": 0.0,
			"0.02": 0.0,
			"0.021": 0.0,
			"0.022": 0.0,
			"0.023": 0.0,
			"0.024": 0.0,
			"0.025": 0.0
		}
	}
}
