{
	 "smiles": "C1CC2=C3C=CC4=C(C=CC=C4)C3=CC3=C2C1=CC=C3", 
	 "Tm": 447.15, 
	 "num_atms": 34, 
	 "gaussian": { 
		 "optdone": 1, 
		 "sigma_profile": "yes", 
		 "theory": "DFT", 
		 "functional": "B3LYP", 
		 "basiset": "6-31G**", 
		 "properties": { 
			 "R2extent": 5834.99, 
			 "electric_dipole_moment_norm": 0.862543923519, 
			 "electric_quadrupole_moment_norm": 13.0519343635, 
			 "total_energy": -770.605476668, 
			 "HOMO_LUMO_gap": 0.13532, 
			 "cosmo_polarized_energy": -7.19, 
			 "cosmo_cavitation_energy": 35.69, 
			 "cosmo_dispersion_energy": -26.85, 
			 "cosmo_repulsion_energy": 1.96, 
			 "cosmo_total_nonelectrostatic_energy": 10.8, 
			 "SMD_solvation_energy": 4.48 
		},
		"coords": [
			{
				"x": -1.8788873335,
				"y": 1.6163601019,
				"z": 3.0127603554,
				"element": "C" 
			},
			{
				"x": -1.179254004,
				"y": 0.2383344961,
				"z": 2.7400055558,
				"element": "C" 
			},
			{
				"x": -0.7664759396,
				"y": 0.2971722924,
				"z": 1.2790018007,
				"element": "C" 
			},
			{
				"x": -0.1075816878,
				"y": -0.6322004623,
				"z": 0.4716581529,
				"element": "C" 
			},
			{
				"x": 0.3136804977,
				"y": -1.9115387826,
				"z": 0.9772697367,
				"element": "C" 
			},
			{
				"x": 0.9532043851,
				"y": -2.8091680396,
				"z": 0.1864880241,
				"element": "C" 
			},
			{
				"x": 1.2382990834,
				"y": -2.5198776128,
				"z": -1.1948992076,
				"element": "C" 
			},
			{
				"x": 0.8462006799,
				"y": -1.2686991795,
				"z": -1.7554933357,
				"element": "C" 
			},
			{
				"x": 1.1500973759,
				"y": -1.0362290412,
				"z": -3.1154211876,
				"element": "C" 
			},
			{
				"x": 1.8053524399,
				"y": -1.9824422718,
				"z": -3.8869547146,
				"element": "C" 
			},
			{
				"x": 2.1884650277,
				"y": -3.2125876753,
				"z": -3.3275114628,
				"element": "C" 
			},
			{
				"x": 1.9052325991,
				"y": -3.4704064536,
				"z": -1.9987330494,
				"element": "C" 
			},
			{
				"x": 0.1532236028,
				"y": -0.2848835122,
				"z": -0.9145660985,
				"element": "C" 
			},
			{
				"x": -0.2549253809,
				"y": 0.9601195033,
				"z": -1.4116180151,
				"element": "C" 
			},
			{
				"x": -0.9196574813,
				"y": 1.9011797278,
				"z": -0.6018289779,
				"element": "C" 
			},
			{
				"x": -1.1568102265,
				"y": 1.5271037982,
				"z": 0.7446849699,
				"element": "C" 
			},
			{
				"x": -1.8121419753,
				"y": 2.3567073303,
				"z": 1.6881047924,
				"element": "C" 
			},
			{
				"x": -2.2474044977,
				"y": 3.5964637713,
				"z": 1.2883782741,
				"element": "C" 
			},
			{
				"x": -2.0223698194,
				"y": 4.0017890712,
				"z": -0.0638675274,
				"element": "C" 
			},
			{
				"x": -1.3846355843,
				"y": 3.195638374,
				"z": -0.9838481365,
				"element": "C" 
			},
			{
				"x": -1.3700849249,
				"y": 2.1717820143,
				"z": 3.8088266912,
				"element": "H" 
			},
			{
				"x": -2.9145740559,
				"y": 1.4795802183,
				"z": 3.3440398188,
				"element": "H" 
			},
			{
				"x": -0.3147018416,
				"y": 0.0924034484,
				"z": 3.3986584375,
				"element": "H" 
			},
			{
				"x": -1.8591195877,
				"y": -0.5998458471,
				"z": 2.934443861,
				"element": "H" 
			},
			{
				"x": 0.1070307931,
				"y": -2.1472491362,
				"z": 2.0172262067,
				"element": "H" 
			},
			{
				"x": 1.2651830733,
				"y": -3.7717592222,
				"z": 0.5835247811,
				"element": "H" 
			},
			{
				"x": 0.8692384936,
				"y": -0.0979714255,
				"z": -3.5801315771,
				"element": "H" 
			},
			{
				"x": 2.0223529643,
				"y": -1.7685383082,
				"z": -4.9295521297,
				"element": "H" 
			},
			{
				"x": 2.7020061776,
				"y": -3.9533480756,
				"z": -3.9333507884,
				"element": "H" 
			},
			{
				"x": 2.194643827,
				"y": -4.4174108022,
				"z": -1.5498666374,
				"element": "H" 
			},
			{
				"x": -0.0618668961,
				"y": 1.2229879086,
				"z": -2.4459795637,
				"element": "H" 
			},
			{
				"x": -2.7554792749,
				"y": 4.2720675955,
				"z": 1.9713305043,
				"element": "H" 
			},
			{
				"x": -2.3693571118,
				"y": 4.9841044421,
				"z": -0.3733410396,
				"element": "H" 
			},
			{
				"x": -1.2335833972,
				"y": 3.5423617541,
				"z": -2.0028385139,
				"element": "H" 
			}
		],
		 "valence_orbital": [ 
			{
				"type": "occ",
				"energy": -0.27803,
				"method": "rhf"
			},
			{
				"type": "occ",
				"energy": -0.26049,
				"method": "rhf"
			},
			{
				"type": "occ",
				"energy": -0.24076,
				"method": "rhf"
			},
			{
				"type": "occ",
				"energy": -0.21572,
				"method": "rhf"
			},
			{
				"type": "occ",
				"energy": -0.18757,
				"method": "rhf"
			},
			{
				"type": "unocc",
				"energy": -0.05225,
				"method": "rhf"
			},
			{
				"type": "unocc",
				"energy": -0.0317,
				"method": "rhf"
			},
			{
				"type": "unocc",
				"energy": 0.00166,
				"method": "rhf"
			},
			{
				"type": "unocc",
				"energy": 0.01556,
				"method": "rhf"
			},
			{
				"type": "unocc",
				"energy": 0.04315,
				"method": "rhf"
			}
		],
		"cosmo_sigma_profile": { 
			"-0.025": 0.0,
			"-0.024": 0.0,
			"-0.023": 0.0,
			"-0.022": 0.0,
			"-0.021": 0.0,
			"-0.02": 0.0,
			"-0.019": 0.0,
			"-0.018": 0.0,
			"-0.017": 0.0,
			"-0.016": 0.0,
			"-0.015": 0.0,
			"-0.014": 0.0,
			"-0.013": 0.0,
			"-0.012": 0.0,
			"-0.011": 0.0,
			"-0.01": 0.0,
			"-0.009": 0.0189412537817,
			"-0.008": 0.918853711016,
			"-0.007": 1.76450817817,
			"-0.006": 9.39281825443,
			"-0.005": 21.5096301308,
			"-0.004": 30.9313158707,
			"-0.003": 30.0450258677,
			"-0.002": 22.4633580086,
			"-0.001": 20.7707328164,
			"0.0": 17.9323333021,
			"0.001": 14.9366867564,
			"0.002": 15.8195523814,
			"0.003": 25.7959298944,
			"0.004": 40.0656212817,
			"0.005": 26.7306519772,
			"0.006": 7.31352827761,
			"0.007": 0.0230960384767,
			"0.008": 0.0,
			"0.009": 0.0,
			"0.01": 0.0,
			"0.011": 0.0,
			"0.012": 0.0,
			"0.013": 0.0,
			"0.014": 0.0,
			"0.015": 0.0,
			"0.016": 0.0,
			"0.017": 0.0,
			"0.018": 0.0,
			"0.019": 0.0,
			"0.02": 0.0,
			"0.021": 0.0,
			"0.022": 0.0,
			"0.023": 0.0,
			"0.024": 0.0,
			"0.025": 0.0
		}
	}
}
