{
	 "smiles": "OC(=O)C=CC1=CC(F)=CC(F)=C1", 
	 "Tm": 478.15, 
	 "num_atms": 19, 
	 "gaussian": { 
		 "optdone": 1, 
		 "sigma_profile": "yes", 
		 "theory": "DFT", 
		 "functional": "B3LYP", 
		 "basiset": "6-31G**", 
		 "properties": { 
			 "R2extent": 3751.6047, 
			 "electric_dipole_moment_norm": 4.10716471304, 
			 "electric_quadrupole_moment_norm": 13.8876168733, 
			 "total_energy": -696.677745541, 
			 "HOMO_LUMO_gap": 0.17284, 
			 "cosmo_polarized_energy": -15.68, 
			 "cosmo_cavitation_energy": 25.83, 
			 "cosmo_dispersion_energy": -18.43, 
			 "cosmo_repulsion_energy": 1.4, 
			 "cosmo_total_nonelectrostatic_energy": 8.81, 
			 "SMD_solvation_energy": 6.81 
		},
		"coords": [
			{
				"x": 2.7566019707,
				"y": -0.6426086297,
				"z": -2.4371680072,
				"element": "O" 
			},
			{
				"x": 1.7558738108,
				"y": -1.4134660221,
				"z": -1.9267862544,
				"element": "C" 
			},
			{
				"x": 1.6329112288,
				"y": -2.5633579181,
				"z": -2.2780368462,
				"element": "O" 
			},
			{
				"x": 0.8523528668,
				"y": -0.7898212338,
				"z": -0.9230552215,
				"element": "C" 
			},
			{
				"x": 1.1824169117,
				"y": 0.2521063109,
				"z": -0.1390187751,
				"element": "C" 
			},
			{
				"x": 0.363428797,
				"y": 0.8681529808,
				"z": 0.9113644182,
				"element": "C" 
			},
			{
				"x": -0.9610820005,
				"y": 0.4707137092,
				"z": 1.1702277288,
				"element": "C" 
			},
			{
				"x": -1.6699183757,
				"y": 1.1033571693,
				"z": 2.1795853397,
				"element": "C" 
			},
			{
				"x": -2.9361490813,
				"y": 0.7199233746,
				"z": 2.4215575663,
				"element": "F" 
			},
			{
				"x": -1.1297158756,
				"y": 2.1252585305,
				"z": 2.957005359,
				"element": "C" 
			},
			{
				"x": 0.1786689279,
				"y": 2.5005965466,
				"z": 2.680547459,
				"element": "C" 
			},
			{
				"x": 0.7357684117,
				"y": 3.4844318198,
				"z": 3.4091003429,
				"element": "F" 
			},
			{
				"x": 0.9314745888,
				"y": 1.8987274425,
				"z": 1.6798043497,
				"element": "C" 
			},
			{
				"x": 2.6079686299,
				"y": 0.2858398022,
				"z": -2.2107016571,
				"element": "H" 
			},
			{
				"x": -0.0873737186,
				"y": -1.3198148987,
				"z": -0.8066109446,
				"element": "H" 
			},
			{
				"x": 2.1727944813,
				"y": 0.6949809927,
				"z": -0.2467698847,
				"element": "H" 
			},
			{
				"x": -1.4473527056,
				"y": -0.3134315303,
				"z": 0.6029525075,
				"element": "H" 
			},
			{
				"x": -1.7045601424,
				"y": 2.6047948128,
				"z": 3.7394447047,
				"element": "H" 
			},
			{
				"x": 1.9496912743,
				"y": 2.2317167407,
				"z": 1.5104578151,
				"element": "H" 
			}
		],
		 "valence_orbital": [ 
			{
				"type": "occ",
				"energy": -0.32928,
				"method": "rhf"
			},
			{
				"type": "occ",
				"energy": -0.31658,
				"method": "rhf"
			},
			{
				"type": "occ",
				"energy": -0.2786,
				"method": "rhf"
			},
			{
				"type": "occ",
				"energy": -0.26757,
				"method": "rhf"
			},
			{
				"type": "occ",
				"energy": -0.25894,
				"method": "rhf"
			},
			{
				"type": "unocc",
				"energy": -0.0861,
				"method": "rhf"
			},
			{
				"type": "unocc",
				"energy": -0.02,
				"method": "rhf"
			},
			{
				"type": "unocc",
				"energy": 0.00087,
				"method": "rhf"
			},
			{
				"type": "unocc",
				"energy": 0.05299,
				"method": "rhf"
			},
			{
				"type": "unocc",
				"energy": 0.06686,
				"method": "rhf"
			}
		],
		"cosmo_sigma_profile": { 
			"-0.025": 0.0,
			"-0.024": 0.0,
			"-0.023": 0.0,
			"-0.022": 0.0,
			"-0.021": 0.0,
			"-0.02": 0.0,
			"-0.019": 0.296181133382,
			"-0.018": 0.686635902115,
			"-0.017": 0.975366846423,
			"-0.016": 0.873884810344,
			"-0.015": 1.30385689406,
			"-0.014": 0.823315738934,
			"-0.013": 1.07024820594,
			"-0.012": 1.49772176756,
			"-0.011": 0.907805795049,
			"-0.01": 2.90338687035,
			"-0.009": 6.16150886513,
			"-0.008": 7.86523121855,
			"-0.007": 6.06039504219,
			"-0.006": 7.0546468148,
			"-0.005": 6.98513164863,
			"-0.004": 5.1841331354,
			"-0.003": 8.16384035327,
			"-0.002": 10.407929852,
			"-0.001": 14.754696013,
			"0.0": 23.7666766355,
			"0.001": 23.9582242514,
			"0.002": 13.8801911868,
			"0.003": 13.1548427354,
			"0.004": 18.7275166838,
			"0.005": 1.9815573557,
			"0.006": 2.23527868459,
			"0.007": 1.82508277272,
			"0.008": 2.99037127809,
			"0.009": 3.43261052306,
			"0.01": 4.18063179938,
			"0.011": 5.64544864821,
			"0.012": 5.8505910377,
			"0.013": 2.40478080959,
			"0.014": 0.0919220719077,
			"0.015": 0.0,
			"0.016": 0.0,
			"0.017": 0.0,
			"0.018": 0.0,
			"0.019": 0.0,
			"0.02": 0.0,
			"0.021": 0.0,
			"0.022": 0.0,
			"0.023": 0.0,
			"0.024": 0.0,
			"0.025": 0.0
		}
	}
}
