{
	 "smiles": "CCOC1=C(OCC2=C(Cl)C=CC=C2F)C=CC(C=O)=C1", 
	 "Tm": 385.15, 
	 "num_atms": 35, 
	 "gaussian": { 
		 "optdone": 1, 
		 "sigma_profile": "yes", 
		 "theory": "DFT", 
		 "functional": "B3LYP", 
		 "basiset": "6-31G**", 
		 "properties": { 
			 "R2extent": 8264.2228, 
			 "electric_dipole_moment_norm": 5.25756372572, 
			 "electric_quadrupole_moment_norm": 12.7470044814, 
			 "total_energy": -1403.80925506, 
			 "HOMO_LUMO_gap": 0.18357, 
			 "cosmo_polarized_energy": -11.75, 
			 "cosmo_cavitation_energy": 42.85, 
			 "cosmo_dispersion_energy": -28.39, 
			 "cosmo_repulsion_energy": 2.14, 
			 "cosmo_total_nonelectrostatic_energy": 16.6, 
			 "SMD_solvation_energy": 8.57 
		},
		"coords": [
			{
				"x": -2.8748493353,
				"y": 2.1255863983,
				"z": -2.2095413066,
				"element": "C" 
			},
			{
				"x": -1.3708484575,
				"y": 2.0157750487,
				"z": -2.0446395818,
				"element": "C" 
			},
			{
				"x": -1.0688737446,
				"y": 2.1803211249,
				"z": -0.641326458,
				"element": "O" 
			},
			{
				"x": 0.2704666912,
				"y": 2.1990874946,
				"z": -0.3344769006,
				"element": "C" 
			},
			{
				"x": 1.0311323426,
				"y": 1.0078478387,
				"z": -0.334571375,
				"element": "C" 
			},
			{
				"x": 0.4790027123,
				"y": -0.1953483041,
				"z": -0.6945282414,
				"element": "O" 
			},
			{
				"x": -0.5213176885,
				"y": -0.7213199022,
				"z": 0.2096876341,
				"element": "C" 
			},
			{
				"x": -0.6240908834,
				"y": -2.2004706445,
				"z": -0.0428757504,
				"element": "C" 
			},
			{
				"x": -1.6885001916,
				"y": -2.8384323672,
				"z": -0.6944551,
				"element": "C" 
			},
			{
				"x": -3.0653441232,
				"y": -1.9057159183,
				"z": -1.2713122044,
				"element": "Cl" 
			},
			{
				"x": -1.7085540459,
				"y": -4.2182731953,
				"z": -0.9081312434,
				"element": "C" 
			},
			{
				"x": -0.6349563862,
				"y": -4.9928321137,
				"z": -0.4725973763,
				"element": "C" 
			},
			{
				"x": 0.4502967976,
				"y": -4.4013049531,
				"z": 0.1739590706,
				"element": "C" 
			},
			{
				"x": 0.4281671301,
				"y": -3.0283906428,
				"z": 0.3673762179,
				"element": "C" 
			},
			{
				"x": 1.4710222625,
				"y": -2.4492517236,
				"z": 0.9987849797,
				"element": "F" 
			},
			{
				"x": 2.3870834105,
				"y": 1.0399886694,
				"z": 0.0001121057,
				"element": "C" 
			},
			{
				"x": 2.9933304485,
				"y": 2.2465368133,
				"z": 0.3395627239,
				"element": "C" 
			},
			{
				"x": 2.2413378483,
				"y": 3.4283124073,
				"z": 0.3598980382,
				"element": "C" 
			},
			{
				"x": 2.8832052298,
				"y": 4.7067639249,
				"z": 0.7303128929,
				"element": "C" 
			},
			{
				"x": 2.3162512966,
				"y": 5.7828805247,
				"z": 0.7730519305,
				"element": "O" 
			},
			{
				"x": 0.8804022287,
				"y": 3.39666264,
				"z": 0.0177589161,
				"element": "C" 
			},
			{
				"x": -3.1431309424,
				"y": 2.0237528099,
				"z": -3.2657681543,
				"element": "H" 
			},
			{
				"x": -3.2328656442,
				"y": 3.0949273952,
				"z": -1.8512448423,
				"element": "H" 
			},
			{
				"x": -3.3854946564,
				"y": 1.3383571775,
				"z": -1.6478258821,
				"element": "H" 
			},
			{
				"x": -1.0001961391,
				"y": 1.0428778058,
				"z": -2.3880887663,
				"element": "H" 
			},
			{
				"x": -0.8539850989,
				"y": 2.8011938724,
				"z": -2.6123882866,
				"element": "H" 
			},
			{
				"x": -1.4744699593,
				"y": -0.2151473158,
				"z": 0.0549339793,
				"element": "H" 
			},
			{
				"x": -0.1918043529,
				"y": -0.5456111861,
				"z": 1.2394870623,
				"element": "H" 
			},
			{
				"x": -2.5540348218,
				"y": -4.6708527754,
				"z": -1.4124992029,
				"element": "H" 
			},
			{
				"x": -0.6453494905,
				"y": -6.0654349775,
				"z": -0.6384626878,
				"element": "H" 
			},
			{
				"x": 1.2992012543,
				"y": -4.9772989401,
				"z": 0.5240499899,
				"element": "H" 
			},
			{
				"x": 2.9337849842,
				"y": 0.1028400639,
				"z": -0.0036655144,
				"element": "H" 
			},
			{
				"x": 4.0476045155,
				"y": 2.2730984463,
				"z": 0.6037976725,
				"element": "H" 
			},
			{
				"x": 3.9654016217,
				"y": 4.6225487498,
				"z": 0.97820956,
				"element": "H" 
			},
			{
				"x": 0.3032751873,
				"y": 4.3154257542,
				"z": 0.0284161012,
				"element": "H" 
			}
		],
		 "valence_orbital": [ 
			{
				"type": "occ",
				"energy": -0.26927,
				"method": "rhf"
			},
			{
				"type": "occ",
				"energy": -0.25867,
				"method": "rhf"
			},
			{
				"type": "occ",
				"energy": -0.25505,
				"method": "rhf"
			},
			{
				"type": "occ",
				"energy": -0.25014,
				"method": "rhf"
			},
			{
				"type": "occ",
				"energy": -0.24197,
				"method": "rhf"
			},
			{
				"type": "unocc",
				"energy": -0.0584,
				"method": "rhf"
			},
			{
				"type": "unocc",
				"energy": -0.03553,
				"method": "rhf"
			},
			{
				"type": "unocc",
				"energy": -0.02046,
				"method": "rhf"
			},
			{
				"type": "unocc",
				"energy": -0.01009,
				"method": "rhf"
			},
			{
				"type": "unocc",
				"energy": 0.01347,
				"method": "rhf"
			}
		],
		"cosmo_sigma_profile": { 
			"-0.025": 0.0,
			"-0.024": 0.0,
			"-0.023": 0.0,
			"-0.022": 0.0,
			"-0.021": 0.0,
			"-0.02": 0.0,
			"-0.019": 0.0,
			"-0.018": 0.0,
			"-0.017": 0.0,
			"-0.016": 0.0,
			"-0.015": 0.0,
			"-0.014": 0.0,
			"-0.013": 0.0,
			"-0.012": 0.0,
			"-0.011": 0.0,
			"-0.01": 0.0,
			"-0.009": 0.0,
			"-0.008": 3.40763529756,
			"-0.007": 11.8815719792,
			"-0.006": 15.1903672471,
			"-0.005": 18.1623230493,
			"-0.004": 20.6859281402,
			"-0.003": 26.4713742528,
			"-0.002": 28.8515979985,
			"-0.001": 30.9089122509,
			"0.0": 39.2931835415,
			"0.001": 38.6872680805,
			"0.002": 34.8123221479,
			"0.003": 26.579365292,
			"0.004": 16.0874753026,
			"0.005": 5.36271992915,
			"0.006": 4.39966149875,
			"0.007": 3.77924225806,
			"0.008": 3.62169761309,
			"0.009": 3.43283566874,
			"0.01": 3.74652400499,
			"0.011": 4.97239486281,
			"0.012": 3.48265829203,
			"0.013": 0.950009897952,
			"0.014": 0.0184783363321,
			"0.015": 0.0,
			"0.016": 0.0,
			"0.017": 0.0,
			"0.018": 0.0,
			"0.019": 0.0,
			"0.02": 0.0,
			"0.021": 0.0,
			"0.022": 0.0,
			"0.023": 0.0,
			"0.024": 0.0,
			"0.025": 0.0
		}
	}
}
