{
	 "smiles": "OC(=O)C1=CC(F)=C(C=C1)[N+]([O-])=O", 
	 "Tm": 448.15, 
	 "num_atms": 17, 
	 "gaussian": { 
		 "optdone": 1, 
		 "sigma_profile": "yes", 
		 "theory": "DFT", 
		 "functional": "B3LYP", 
		 "basiset": "6-31G**", 
		 "properties": { 
			 "R2extent": 2761.7954, 
			 "electric_dipole_moment_norm": 4.0626152476, 
			 "electric_quadrupole_moment_norm": 11.73754044, 
			 "total_energy": -724.540187414, 
			 "HOMO_LUMO_gap": 0.17464, 
			 "cosmo_polarized_energy": -12.55, 
			 "cosmo_cavitation_energy": 23.8, 
			 "cosmo_dispersion_energy": -17.43, 
			 "cosmo_repulsion_energy": 1.35, 
			 "cosmo_total_nonelectrostatic_energy": 7.72, 
			 "SMD_solvation_energy": 8.17 
		},
		"coords": [
			{
				"x": 0.6502783935,
				"y": -1.5110968173,
				"z": -3.0624621154,
				"element": "O" 
			},
			{
				"x": 0.30052307,
				"y": -0.211455907,
				"z": -2.9344605005,
				"element": "C" 
			},
			{
				"x": 0.1032960336,
				"y": 0.515522996,
				"z": -3.8851178403,
				"element": "O" 
			},
			{
				"x": 0.1862199028,
				"y": 0.2204151802,
				"z": -1.5092161719,
				"element": "C" 
			},
			{
				"x": 0.4262096758,
				"y": -0.6622897891,
				"z": -0.4532683912,
				"element": "C" 
			},
			{
				"x": 0.3018445606,
				"y": -0.2183111127,
				"z": 0.8589082401,
				"element": "C" 
			},
			{
				"x": 0.556502278,
				"y": -1.0864137639,
				"z": 1.8375636296,
				"element": "F" 
			},
			{
				"x": -0.0557479901,
				"y": 1.1126077228,
				"z": 1.1185490106,
				"element": "C" 
			},
			{
				"x": -0.2825118331,
				"y": 1.9941459742,
				"z": 0.0578505856,
				"element": "C" 
			},
			{
				"x": -0.168392544,
				"y": 1.5520650027,
				"z": -1.2522765509,
				"element": "C" 
			},
			{
				"x": -0.2105185046,
				"y": 1.6261724428,
				"z": 2.4886916307,
				"element": "N" 
			},
			{
				"x": -0.2361490268,
				"y": 2.8494001405,
				"z": 2.6237889931,
				"element": "O" 
			},
			{
				"x": -0.3163954738,
				"y": 0.811510948,
				"z": 3.3997800584,
				"element": "O" 
			},
			{
				"x": 0.696753743,
				"y": -1.6890334934,
				"z": -4.0164988973,
				"element": "H" 
			},
			{
				"x": 0.7106214529,
				"y": -1.6918375281,
				"z": -0.6316836034,
				"element": "H" 
			},
			{
				"x": -0.5455230777,
				"y": 3.0175983454,
				"z": 0.2941413577,
				"element": "H" 
			},
			{
				"x": -0.3481106601,
				"y": 2.218399659,
				"z": -2.0876894347,
				"element": "H" 
			}
		],
		 "valence_orbital": [ 
			{
				"type": "occ",
				"energy": -0.3166,
				"method": "rhf"
			},
			{
				"type": "occ",
				"energy": -0.30744,
				"method": "rhf"
			},
			{
				"type": "occ",
				"energy": -0.30287,
				"method": "rhf"
			},
			{
				"type": "occ",
				"energy": -0.29573,
				"method": "rhf"
			},
			{
				"type": "occ",
				"energy": -0.28415,
				"method": "rhf"
			},
			{
				"type": "unocc",
				"energy": -0.10951,
				"method": "rhf"
			},
			{
				"type": "unocc",
				"energy": -0.04924,
				"method": "rhf"
			},
			{
				"type": "unocc",
				"energy": -0.03851,
				"method": "rhf"
			},
			{
				"type": "unocc",
				"energy": 0.03781,
				"method": "rhf"
			},
			{
				"type": "unocc",
				"energy": 0.05179,
				"method": "rhf"
			}
		],
		"cosmo_sigma_profile": { 
			"-0.025": 0.0,
			"-0.024": 0.0,
			"-0.023": 0.0,
			"-0.022": 0.0,
			"-0.021": 0.0,
			"-0.02": 0.0564635641942,
			"-0.019": 0.66435333415,
			"-0.018": 0.943965227288,
			"-0.017": 0.9604819128,
			"-0.016": 0.95215725112,
			"-0.015": 0.586809239794,
			"-0.014": 0.397975379477,
			"-0.013": 0.456337770752,
			"-0.012": 0.803733240776,
			"-0.011": 1.14399857321,
			"-0.01": 0.724021895411,
			"-0.009": 1.89691410617,
			"-0.008": 5.45478773647,
			"-0.007": 7.37891461736,
			"-0.006": 5.9359141159,
			"-0.005": 8.25067969866,
			"-0.004": 11.2903719618,
			"-0.003": 16.7377507719,
			"-0.002": 17.3614074119,
			"-0.001": 17.182281991,
			"0.0": 11.7125054094,
			"0.001": 7.36490453444,
			"0.002": 8.56808818616,
			"0.003": 10.3017900696,
			"0.004": 6.48268874783,
			"0.005": 5.76364939786,
			"0.006": 8.36614573597,
			"0.007": 12.0843356638,
			"0.008": 8.73065825044,
			"0.009": 5.01122924904,
			"0.01": 3.75845237307,
			"0.011": 4.40328912641,
			"0.012": 0.215465992861,
			"0.013": 0.0,
			"0.014": 0.0,
			"0.015": 0.0,
			"0.016": 0.0,
			"0.017": 0.0,
			"0.018": 0.0,
			"0.019": 0.0,
			"0.02": 0.0,
			"0.021": 0.0,
			"0.022": 0.0,
			"0.023": 0.0,
			"0.024": 0.0,
			"0.025": 0.0
		}
	}
}
