{
	 "smiles": "CCNCC(O)C1=CC=C(C)C=C1", 
	 "Tm": 362.15, 
	 "num_atms": 30, 
	 "gaussian": { 
		 "optdone": 1, 
		 "sigma_profile": "yes", 
		 "theory": "DFT", 
		 "functional": "B3LYP", 
		 "basiset": "6-31G**", 
		 "properties": { 
			 "R2extent": 3506.717, 
			 "electric_dipole_moment_norm": 2.3235814834, 
			 "electric_quadrupole_moment_norm": 5.19515420753, 
			 "total_energy": -559.38291346, 
			 "HOMO_LUMO_gap": 0.22195, 
			 "cosmo_polarized_energy": -11.3, 
			 "cosmo_cavitation_energy": 32.23, 
			 "cosmo_dispersion_energy": -22.31, 
			 "cosmo_repulsion_energy": 1.79, 
			 "cosmo_total_nonelectrostatic_energy": 11.71, 
			 "SMD_solvation_energy": 4.38 
		},
		"coords": [
			{
				"x": -1.5821647519,
				"y": -0.7066024946,
				"z": -2.4566560891,
				"element": "C" 
			},
			{
				"x": -2.7762917967,
				"y": -0.5154916949,
				"z": -1.517876626,
				"element": "C" 
			},
			{
				"x": -2.4389892219,
				"y": 0.1824495765,
				"z": -0.2729627974,
				"element": "N" 
			},
			{
				"x": -2.2188517995,
				"y": -0.6175128175,
				"z": 0.9232119322,
				"element": "C" 
			},
			{
				"x": -0.7388307403,
				"y": -0.8819125949,
				"z": 1.2979964009,
				"element": "C" 
			},
			{
				"x": -0.0717339467,
				"y": -1.6787997454,
				"z": 0.3195638212,
				"element": "O" 
			},
			{
				"x": 0.0494655461,
				"y": 0.3930656388,
				"z": 1.5058974302,
				"element": "C" 
			},
			{
				"x": 0.7160171775,
				"y": 1.0242532875,
				"z": 0.4494252196,
				"element": "C" 
			},
			{
				"x": 1.4006019369,
				"y": 2.219770075,
				"z": 0.659031592,
				"element": "C" 
			},
			{
				"x": 1.4400115964,
				"y": 2.8272287224,
				"z": 1.9219778964,
				"element": "C" 
			},
			{
				"x": 2.2100620473,
				"y": 4.1080743656,
				"z": 2.1449027097,
				"element": "C" 
			},
			{
				"x": 0.7682003306,
				"y": 2.1930788525,
				"z": 2.9734985441,
				"element": "C" 
			},
			{
				"x": 0.0891666146,
				"y": 0.9913031805,
				"z": 2.7692508506,
				"element": "C" 
			},
			{
				"x": -0.7830767143,
				"y": -1.2585752553,
				"z": -1.9566834514,
				"element": "H" 
			},
			{
				"x": -1.1780051647,
				"y": 0.2646879901,
				"z": -2.7589306812,
				"element": "H" 
			},
			{
				"x": -1.8829426873,
				"y": -1.2518691829,
				"z": -3.3590606523,
				"element": "H" 
			},
			{
				"x": -3.543641273,
				"y": 0.0707355494,
				"z": -2.0383014553,
				"element": "H" 
			},
			{
				"x": -3.2361741516,
				"y": -1.4972596238,
				"z": -1.3033633832,
				"element": "H" 
			},
			{
				"x": -3.1196836173,
				"y": 0.9041054497,
				"z": -0.081725451,
				"element": "H" 
			},
			{
				"x": -2.6721231332,
				"y": -0.1091791584,
				"z": 1.7830524472,
				"element": "H" 
			},
			{
				"x": -2.7225121768,
				"y": -1.6015200331,
				"z": 0.8471250141,
				"element": "H" 
			},
			{
				"x": -0.7666360801,
				"y": -1.4246124028,
				"z": 2.2592136798,
				"element": "H" 
			},
			{
				"x": -0.6021667454,
				"y": -2.4745641321,
				"z": 0.1806947617,
				"element": "H" 
			},
			{
				"x": 0.6977125289,
				"y": 0.5694869163,
				"z": -0.5336065417,
				"element": "H" 
			},
			{
				"x": 1.9132555283,
				"y": 2.6934534764,
				"z": -0.1754212166,
				"element": "H" 
			},
			{
				"x": 2.1250576445,
				"y": 4.7813954214,
				"z": 1.2857394007,
				"element": "H" 
			},
			{
				"x": 1.8515476797,
				"y": 4.6426893873,
				"z": 3.0297216587,
				"element": "H" 
			},
			{
				"x": 3.2791308561,
				"y": 3.910015457,
				"z": 2.2942961168,
				"element": "H" 
			},
			{
				"x": 0.7840173241,
				"y": 2.6381996013,
				"z": 3.9657099227,
				"element": "H" 
			},
			{
				"x": -0.4141228104,
				"y": 0.5134061882,
				"z": 3.6075789467,
				"element": "H" 
			}
		],
		 "valence_orbital": [ 
			{
				"type": "occ",
				"energy": -0.31708,
				"method": "rhf"
			},
			{
				"type": "occ",
				"energy": -0.26996,
				"method": "rhf"
			},
			{
				"type": "occ",
				"energy": -0.23664,
				"method": "rhf"
			},
			{
				"type": "occ",
				"energy": -0.22301,
				"method": "rhf"
			},
			{
				"type": "occ",
				"energy": -0.21247,
				"method": "rhf"
			},
			{
				"type": "unocc",
				"energy": 0.00948,
				"method": "rhf"
			},
			{
				"type": "unocc",
				"energy": 0.01342,
				"method": "rhf"
			},
			{
				"type": "unocc",
				"energy": 0.06468,
				"method": "rhf"
			},
			{
				"type": "unocc",
				"energy": 0.09234,
				"method": "rhf"
			},
			{
				"type": "unocc",
				"energy": 0.10825,
				"method": "rhf"
			}
		],
		"cosmo_sigma_profile": { 
			"-0.025": 0.0,
			"-0.024": 0.0,
			"-0.023": 0.0,
			"-0.022": 0.0,
			"-0.021": 0.0,
			"-0.02": 0.0,
			"-0.019": 0.0,
			"-0.018": 0.0,
			"-0.017": 0.0,
			"-0.016": 0.0,
			"-0.015": 0.351771555515,
			"-0.014": 0.778520633695,
			"-0.013": 1.11195680983,
			"-0.012": 1.08531194661,
			"-0.011": 0.597130390409,
			"-0.01": 2.09277168491,
			"-0.009": 2.7174712885,
			"-0.008": 2.23869673627,
			"-0.007": 2.55164048148,
			"-0.006": 3.40104628627,
			"-0.005": 8.80567508926,
			"-0.004": 22.1518163567,
			"-0.003": 24.6187906305,
			"-0.002": 26.019733665,
			"-0.001": 25.5492030524,
			"0.0": 28.6691082502,
			"0.001": 21.3995098254,
			"0.002": 16.1747085709,
			"0.003": 11.3444098272,
			"0.004": 9.30605123873,
			"0.005": 7.77860174683,
			"0.006": 9.29739768845,
			"0.007": 8.63928480451,
			"0.008": 3.46915786234,
			"0.009": 1.79150340476,
			"0.01": 2.23192198347,
			"0.011": 2.07502291929,
			"0.012": 1.57677823265,
			"0.013": 1.67447237417,
			"0.014": 1.22661816387,
			"0.015": 0.0955499668166,
			"0.016": 0.0,
			"0.017": 0.0,
			"0.018": 0.0,
			"0.019": 0.0,
			"0.02": 0.0,
			"0.021": 0.0,
			"0.022": 0.0,
			"0.023": 0.0,
			"0.024": 0.0,
			"0.025": 0.0
		}
	}
}
