{
	 "smiles": "BrC1=CC=C(N=C1)C1=CC=CC=C1", 
	 "Tm": 347.15, 
	 "num_atms": 21, 
	 "gaussian": { 
		 "optdone": 1, 
		 "sigma_profile": "yes", 
		 "theory": "DFT", 
		 "functional": "B3LYP", 
		 "basiset": "6-31G**", 
		 "properties": { 
			 "R2extent": 5956.5911, 
			 "electric_dipole_moment_norm": 1.94041712011, 
			 "electric_quadrupole_moment_norm": 5.47798005747, 
			 "total_energy": -3050.1498011, 
			 "HOMO_LUMO_gap": 0.17858, 
			 "cosmo_polarized_energy": -6.67, 
			 "cosmo_cavitation_energy": 27.61, 
			 "cosmo_dispersion_energy": -21.02, 
			 "cosmo_repulsion_energy": 1.64, 
			 "cosmo_total_nonelectrostatic_energy": 8.22, 
			 "SMD_solvation_energy": 2.47 
		},
		"coords": [
			{
				"x": -1.3296420482,
				"y": 0.9183996667,
				"z": -5.1265493768,
				"element": "Br" 
			},
			{
				"x": -0.8609512242,
				"y": 0.4473360421,
				"z": -3.341188594,
				"element": "C" 
			},
			{
				"x": -0.1722100764,
				"y": 1.3390868063,
				"z": -2.5238931467,
				"element": "C" 
			},
			{
				"x": 0.1433414801,
				"y": 0.9372742258,
				"z": -1.2302050638,
				"element": "C" 
			},
			{
				"x": -0.2266638212,
				"y": -0.3455109441,
				"z": -0.7889926363,
				"element": "C" 
			},
			{
				"x": -0.906476452,
				"y": -1.1859348613,
				"z": -1.5940549023,
				"element": "N" 
			},
			{
				"x": -1.2156728916,
				"y": -0.802585701,
				"z": -2.831118197,
				"element": "C" 
			},
			{
				"x": 0.0881379563,
				"y": -0.8384934889,
				"z": 0.5774474148,
				"element": "C" 
			},
			{
				"x": 1.0848381957,
				"y": -0.2450954824,
				"z": 1.3699362924,
				"element": "C" 
			},
			{
				"x": 1.3550480341,
				"y": -0.7225466814,
				"z": 2.651467846,
				"element": "C" 
			},
			{
				"x": 0.63549153,
				"y": -1.8029012078,
				"z": 3.1648627366,
				"element": "C" 
			},
			{
				"x": -0.351530636,
				"y": -2.4071300544,
				"z": 2.3824220878,
				"element": "C" 
			},
			{
				"x": -0.6207582378,
				"y": -1.9330647272,
				"z": 1.1010740156,
				"element": "C" 
			},
			{
				"x": 0.1018092416,
				"y": 2.3238951092,
				"z": -2.8860336074,
				"element": "H" 
			},
			{
				"x": 0.6537711461,
				"y": 1.6270706561,
				"z": -0.5678777281,
				"element": "H" 
			},
			{
				"x": -1.7643878133,
				"y": -1.5115496063,
				"z": -3.4465461224,
				"element": "H" 
			},
			{
				"x": 1.6751863746,
				"y": 0.5786973958,
				"z": 0.9810907307,
				"element": "H" 
			},
			{
				"x": 2.1342081987,
				"y": -0.2542314413,
				"z": 3.246005655,
				"element": "H" 
			},
			{
				"x": 0.8458046647,
				"y": -2.173886751,
				"z": 4.1638459254,
				"element": "H" 
			},
			{
				"x": -0.9142996604,
				"y": -3.2504296669,
				"z": 2.7726083063,
				"element": "H" 
			},
			{
				"x": -1.3809439608,
				"y": -2.398899288,
				"z": 0.4844983642,
				"element": "H" 
			}
		],
		 "valence_orbital": [ 
			{
				"type": "occ",
				"energy": -0.29363,
				"method": "rhf"
			},
			{
				"type": "occ",
				"energy": -0.2752,
				"method": "rhf"
			},
			{
				"type": "occ",
				"energy": -0.26411,
				"method": "rhf"
			},
			{
				"type": "occ",
				"energy": -0.25308,
				"method": "rhf"
			},
			{
				"type": "occ",
				"energy": -0.22949,
				"method": "rhf"
			},
			{
				"type": "unocc",
				"energy": -0.05091,
				"method": "rhf"
			},
			{
				"type": "unocc",
				"energy": -0.03334,
				"method": "rhf"
			},
			{
				"type": "unocc",
				"energy": -0.00242,
				"method": "rhf"
			},
			{
				"type": "unocc",
				"energy": 0.00327,
				"method": "rhf"
			},
			{
				"type": "unocc",
				"energy": 0.02336,
				"method": "rhf"
			}
		],
		"cosmo_sigma_profile": { 
			"-0.025": 0.0,
			"-0.024": 0.0,
			"-0.023": 0.0,
			"-0.022": 0.0,
			"-0.021": 0.0,
			"-0.02": 0.0,
			"-0.019": 0.0,
			"-0.018": 0.0,
			"-0.017": 0.0,
			"-0.016": 0.0,
			"-0.015": 0.0,
			"-0.014": 0.0,
			"-0.013": 0.0,
			"-0.012": 0.0,
			"-0.011": 0.0,
			"-0.01": 0.0,
			"-0.009": 0.527444048343,
			"-0.008": 4.03951746439,
			"-0.007": 6.96445125618,
			"-0.006": 10.7846341557,
			"-0.005": 13.581920689,
			"-0.004": 16.200804744,
			"-0.003": 14.4803666226,
			"-0.002": 12.5510256418,
			"-0.001": 14.7245760826,
			"0.0": 20.3756104619,
			"0.001": 27.9724799033,
			"0.002": 18.001106937,
			"0.003": 18.3903834319,
			"0.004": 23.2339774808,
			"0.005": 13.7471457682,
			"0.006": 3.64655671633,
			"0.007": 1.93161160975,
			"0.008": 1.37459822178,
			"0.009": 0.857891082749,
			"0.01": 0.979630363443,
			"0.011": 1.0053638539,
			"0.012": 0.68844060279,
			"0.013": 0.0597166805424,
			"0.014": 0.0,
			"0.015": 0.0,
			"0.016": 0.0,
			"0.017": 0.0,
			"0.018": 0.0,
			"0.019": 0.0,
			"0.02": 0.0,
			"0.021": 0.0,
			"0.022": 0.0,
			"0.023": 0.0,
			"0.024": 0.0,
			"0.025": 0.0
		}
	}
}
