{
	 "smiles": "COC1=CC=C2CC(C(O)=O)C2=C1", 
	 "Tm": 366.15, 
	 "num_atms": 23, 
	 "gaussian": { 
		 "optdone": 1, 
		 "sigma_profile": "yes", 
		 "theory": "DFT", 
		 "functional": "B3LYP", 
		 "basiset": "6-31G**", 
		 "properties": { 
			 "R2extent": 2753.2404, 
			 "electric_dipole_moment_norm": 4.32227678545, 
			 "electric_quadrupole_moment_norm": 17.2974088658, 
			 "total_energy": -612.717164757, 
			 "HOMO_LUMO_gap": 0.20177, 
			 "cosmo_polarized_energy": -16.59, 
			 "cosmo_cavitation_energy": 27.24, 
			 "cosmo_dispersion_energy": -19.74, 
			 "cosmo_repulsion_energy": 1.58, 
			 "cosmo_total_nonelectrostatic_energy": 9.09, 
			 "SMD_solvation_energy": 6.14 
		},
		"coords": [
			{
				"x": 0.829021518,
				"y": -4.1639635259,
				"z": 0.1689751096,
				"element": "C" 
			},
			{
				"x": 0.2987860237,
				"y": -3.3940431005,
				"z": 1.2346224213,
				"element": "O" 
			},
			{
				"x": 0.1594570998,
				"y": -2.0465948511,
				"z": 1.0555800933,
				"element": "C" 
			},
			{
				"x": -0.3974068061,
				"y": -1.3608416698,
				"z": 2.1553300358,
				"element": "C" 
			},
			{
				"x": -0.6124941412,
				"y": 0.0193706498,
				"z": 2.135299525,
				"element": "C" 
			},
			{
				"x": -0.2487896636,
				"y": 0.6873579565,
				"z": 0.97068347,
				"element": "C" 
			},
			{
				"x": -0.1972594809,
				"y": 2.0400761332,
				"z": 0.27440216,
				"element": "C" 
			},
			{
				"x": 0.4582964514,
				"y": 1.282899457,
				"z": -0.9397620537,
				"element": "C" 
			},
			{
				"x": -0.3200066114,
				"y": 1.3146737243,
				"z": -2.2474383122,
				"element": "C" 
			},
			{
				"x": 0.22302292,
				"y": 0.5637102764,
				"z": -3.2470467839,
				"element": "O" 
			},
			{
				"x": -1.3440462479,
				"y": 1.9202824677,
				"z": -2.4349983098,
				"element": "O" 
			},
			{
				"x": 0.3083605238,
				"y": 0.0052994729,
				"z": -0.1027010667,
				"element": "C" 
			},
			{
				"x": 0.5334615348,
				"y": -1.3659258433,
				"z": -0.1185805929,
				"element": "C" 
			},
			{
				"x": 1.8539798823,
				"y": -3.8595981613,
				"z": -0.081745716,
				"element": "H" 
			},
			{
				"x": 0.2045114115,
				"y": -4.0953360484,
				"z": -0.7313897827,
				"element": "H" 
			},
			{
				"x": 0.8396078172,
				"y": -5.1972901545,
				"z": 0.5189960963,
				"element": "H" 
			},
			{
				"x": -0.6597470993,
				"y": -1.9534535445,
				"z": 3.0258499626,
				"element": "H" 
			},
			{
				"x": -1.0468584021,
				"y": 0.5187455967,
				"z": 2.9966006715,
				"element": "H" 
			},
			{
				"x": 0.4450406543,
				"y": 2.8001278404,
				"z": 0.7311545983,
				"element": "H" 
			},
			{
				"x": -1.1609810935,
				"y": 2.4867753447,
				"z": 0.0171404685,
				"element": "H" 
			},
			{
				"x": 1.5002643513,
				"y": 1.5741036082,
				"z": -1.1333869167,
				"element": "H" 
			},
			{
				"x": 1.0431845812,
				"y": 0.1507364449,
				"z": -2.941668853,
				"element": "H" 
			},
			{
				"x": 0.9586947765,
				"y": -1.8865120734,
				"z": -0.9691162246,
				"element": "H" 
			}
		],
		 "valence_orbital": [ 
			{
				"type": "occ",
				"energy": -0.32017,
				"method": "rhf"
			},
			{
				"type": "occ",
				"energy": -0.31517,
				"method": "rhf"
			},
			{
				"type": "occ",
				"energy": -0.27687,
				"method": "rhf"
			},
			{
				"type": "occ",
				"energy": -0.2547,
				"method": "rhf"
			},
			{
				"type": "occ",
				"energy": -0.21834,
				"method": "rhf"
			},
			{
				"type": "unocc",
				"energy": -0.01657,
				"method": "rhf"
			},
			{
				"type": "unocc",
				"energy": 0.0041,
				"method": "rhf"
			},
			{
				"type": "unocc",
				"energy": 0.01644,
				"method": "rhf"
			},
			{
				"type": "unocc",
				"energy": 0.04702,
				"method": "rhf"
			},
			{
				"type": "unocc",
				"energy": 0.09143,
				"method": "rhf"
			}
		],
		"cosmo_sigma_profile": { 
			"-0.025": 0.0,
			"-0.024": 0.0,
			"-0.023": 0.0,
			"-0.022": 0.0,
			"-0.021": 0.0,
			"-0.02": 0.0,
			"-0.019": 0.12308678405,
			"-0.018": 0.911170069846,
			"-0.017": 0.744151975014,
			"-0.016": 1.13069073638,
			"-0.015": 1.4998057836,
			"-0.014": 0.973408090872,
			"-0.013": 1.12585636046,
			"-0.012": 1.21655247637,
			"-0.011": 1.90663402291,
			"-0.01": 0.912983507362,
			"-0.009": 1.60621529844,
			"-0.008": 2.64986122939,
			"-0.007": 3.94363693685,
			"-0.006": 10.6155064944,
			"-0.005": 16.693760117,
			"-0.004": 17.7008904527,
			"-0.003": 18.5525113643,
			"-0.002": 13.517994427,
			"-0.001": 13.9616493338,
			"0.0": 13.5013405586,
			"0.001": 9.80253836681,
			"0.002": 10.0183280498,
			"0.003": 10.460453993,
			"0.004": 12.763507962,
			"0.005": 12.6220558174,
			"0.006": 6.60539868263,
			"0.007": 3.25931423198,
			"0.008": 4.01645054116,
			"0.009": 5.02943040411,
			"0.01": 6.87488747177,
			"0.011": 6.40379459768,
			"0.012": 4.34158190605,
			"0.013": 0.991967744318,
			"0.014": 0.0,
			"0.015": 0.0,
			"0.016": 0.0,
			"0.017": 0.0,
			"0.018": 0.0,
			"0.019": 0.0,
			"0.02": 0.0,
			"0.021": 0.0,
			"0.022": 0.0,
			"0.023": 0.0,
			"0.024": 0.0,
			"0.025": 0.0
		}
	}
}
