{
	 "smiles": "ClCC(=O)NCC(=O)C1=CC=CC=C1", 
	 "Tm": 398.15, 
	 "num_atms": 24, 
	 "gaussian": { 
		 "optdone": 1, 
		 "sigma_profile": "yes", 
		 "theory": "DFT", 
		 "functional": "B3LYP", 
		 "basiset": "6-31G**", 
		 "properties": { 
			 "R2extent": 4413.6855, 
			 "electric_dipole_moment_norm": 4.17205814437, 
			 "electric_quadrupole_moment_norm": 12.3910349261, 
			 "total_energy": -1052.48434144, 
			 "HOMO_LUMO_gap": 0.18267, 
			 "cosmo_polarized_energy": -16.82, 
			 "cosmo_cavitation_energy": 30.56, 
			 "cosmo_dispersion_energy": -21.5, 
			 "cosmo_repulsion_energy": 1.71, 
			 "cosmo_total_nonelectrostatic_energy": 10.77, 
			 "SMD_solvation_energy": 6.01 
		},
		"coords": [
			{
				"x": -3.759697533,
				"y": 2.1753674597,
				"z": 0.8338522848,
				"element": "Cl" 
			},
			{
				"x": -3.3977895944,
				"y": 0.5718839255,
				"z": 0.0639925911,
				"element": "C" 
			},
			{
				"x": -2.168478175,
				"y": 0.6245052761,
				"z": -0.8447890313,
				"element": "C" 
			},
			{
				"x": -2.2965757635,
				"y": 0.5089788456,
				"z": -2.0543331905,
				"element": "O" 
			},
			{
				"x": -0.9376551254,
				"y": 0.7548003723,
				"z": -0.2572831333,
				"element": "N" 
			},
			{
				"x": -0.6140234428,
				"y": 1.0508781483,
				"z": 1.1325895024,
				"element": "C" 
			},
			{
				"x": 0.7621634733,
				"y": 0.4852176669,
				"z": 1.5274325519,
				"element": "C" 
			},
			{
				"x": 1.6395157014,
				"y": 1.2703748619,
				"z": 1.8516959188,
				"element": "O" 
			},
			{
				"x": 1.0011093905,
				"y": -0.9895463123,
				"z": 1.5250925291,
				"element": "C" 
			},
			{
				"x": -0.0001178006,
				"y": -1.9306541244,
				"z": 1.2368771935,
				"element": "C" 
			},
			{
				"x": 0.2827943868,
				"y": -3.2950090812,
				"z": 1.2811300511,
				"element": "C" 
			},
			{
				"x": 1.5675482484,
				"y": -3.7323497845,
				"z": 1.6096653524,
				"element": "C" 
			},
			{
				"x": 2.5718671659,
				"y": -2.8024883222,
				"z": 1.8966624302,
				"element": "C" 
			},
			{
				"x": 2.2902461612,
				"y": -1.4410972354,
				"z": 1.8559306853,
				"element": "C" 
			},
			{
				"x": -3.2986400574,
				"y": -0.1546084194,
				"z": 0.873662575,
				"element": "H" 
			},
			{
				"x": -4.2483143595,
				"y": 0.3173156791,
				"z": -0.5638948234,
				"element": "H" 
			},
			{
				"x": -0.1973875812,
				"y": 0.8716974808,
				"z": -0.9391405206,
				"element": "H" 
			},
			{
				"x": -1.3818263958,
				"y": 0.6240095119,
				"z": 1.7841975745,
				"element": "H" 
			},
			{
				"x": -0.5720175455,
				"y": 2.1276844138,
				"z": 1.3251016669,
				"element": "H" 
			},
			{
				"x": -0.9972627706,
				"y": -1.6037854076,
				"z": 0.965820966,
				"element": "H" 
			},
			{
				"x": -0.4972019479,
				"y": -4.0160950826,
				"z": 1.0560941387,
				"element": "H" 
			},
			{
				"x": 1.786416597,
				"y": -4.7958364655,
				"z": 1.6411429817,
				"element": "H" 
			},
			{
				"x": 3.5709768817,
				"y": -3.1423563671,
				"z": 2.152685254,
				"element": "H" 
			},
			{
				"x": 3.0506500865,
				"y": -0.7007870397,
				"z": 2.0804144517,
				"element": "H" 
			}
		],
		 "valence_orbital": [ 
			{
				"type": "occ",
				"energy": -0.28089,
				"method": "rhf"
			},
			{
				"type": "occ",
				"energy": -0.27297,
				"method": "rhf"
			},
			{
				"type": "occ",
				"energy": -0.26983,
				"method": "rhf"
			},
			{
				"type": "occ",
				"energy": -0.26688,
				"method": "rhf"
			},
			{
				"type": "occ",
				"energy": -0.25669,
				"method": "rhf"
			},
			{
				"type": "unocc",
				"energy": -0.07402,
				"method": "rhf"
			},
			{
				"type": "unocc",
				"energy": -0.02805,
				"method": "rhf"
			},
			{
				"type": "unocc",
				"energy": -0.01986,
				"method": "rhf"
			},
			{
				"type": "unocc",
				"energy": 0.01974,
				"method": "rhf"
			},
			{
				"type": "unocc",
				"energy": 0.04116,
				"method": "rhf"
			}
		],
		"cosmo_sigma_profile": { 
			"-0.025": 0.0,
			"-0.024": 0.0,
			"-0.023": 0.0,
			"-0.022": 0.0,
			"-0.021": 0.0,
			"-0.02": 0.0,
			"-0.019": 0.0,
			"-0.018": 0.0,
			"-0.017": 0.0,
			"-0.016": 0.0,
			"-0.015": 0.441279027053,
			"-0.014": 1.36740567756,
			"-0.013": 0.944032620325,
			"-0.012": 2.03928341335,
			"-0.011": 2.51068438986,
			"-0.01": 3.00273376144,
			"-0.009": 4.71967982067,
			"-0.008": 7.1463876661,
			"-0.007": 7.85359444657,
			"-0.006": 14.7878361067,
			"-0.005": 17.2875511021,
			"-0.004": 16.2308145786,
			"-0.003": 11.4691638025,
			"-0.002": 11.6701881724,
			"-0.001": 13.3634120382,
			"0.0": 15.2402486685,
			"0.001": 15.2239695377,
			"0.002": 17.3987775038,
			"0.003": 18.9684734217,
			"0.004": 18.8220480035,
			"0.005": 10.1365715612,
			"0.006": 4.8925474369,
			"0.007": 2.94558528779,
			"0.008": 2.4269313267,
			"0.009": 2.85384943318,
			"0.01": 3.93056039089,
			"0.011": 5.78204450636,
			"0.012": 6.25953442882,
			"0.013": 5.01852101272,
			"0.014": 0.949363555872,
			"0.015": 0.0,
			"0.016": 0.0,
			"0.017": 0.0,
			"0.018": 0.0,
			"0.019": 0.0,
			"0.02": 0.0,
			"0.021": 0.0,
			"0.022": 0.0,
			"0.023": 0.0,
			"0.024": 0.0,
			"0.025": 0.0
		}
	}
}
