{
	 "smiles": "CC1=C(CO)C=CC(=C1)C#N", 
	 "Tm": 340.15, 
	 "num_atms": 20, 
	 "gaussian": { 
		 "optdone": 1, 
		 "sigma_profile": "yes", 
		 "theory": "DFT", 
		 "functional": "B3LYP", 
		 "basiset": "6-31G**", 
		 "properties": { 
			 "R2extent": 2286.7239, 
			 "electric_dipole_moment_norm": 3.96517343379, 
			 "electric_quadrupole_moment_norm": 21.8405751229, 
			 "total_energy": -478.338000399, 
			 "HOMO_LUMO_gap": 0.20334, 
			 "cosmo_polarized_energy": -12.3, 
			 "cosmo_cavitation_energy": 24.66, 
			 "cosmo_dispersion_energy": -17.39, 
			 "cosmo_repulsion_energy": 1.4, 
			 "cosmo_total_nonelectrostatic_energy": 8.67, 
			 "SMD_solvation_energy": 5.77 
		},
		"coords": [
			{
				"x": 0.4551806172,
				"y": -0.8842089646,
				"z": -2.9280862527,
				"element": "C" 
			},
			{
				"x": -0.2108766254,
				"y": -0.3258570607,
				"z": -1.6925920371,
				"element": "C" 
			},
			{
				"x": -1.1821289967,
				"y": -1.0702370577,
				"z": -0.9827287228,
				"element": "C" 
			},
			{
				"x": -1.5544594656,
				"y": -2.4756740673,
				"z": -1.4112874576,
				"element": "C" 
			},
			{
				"x": -0.4750146103,
				"y": -3.4024670104,
				"z": -1.3010763597,
				"element": "O" 
			},
			{
				"x": -1.790533975,
				"y": -0.5123308916,
				"z": 0.1473903203,
				"element": "C" 
			},
			{
				"x": -1.4652228392,
				"y": 0.7647813387,
				"z": 0.5962275456,
				"element": "C" 
			},
			{
				"x": -0.5004045679,
				"y": 1.5034622429,
				"z": -0.1015874041,
				"element": "C" 
			},
			{
				"x": 0.1166697994,
				"y": 0.951841253,
				"z": -1.2378327879,
				"element": "C" 
			},
			{
				"x": -0.1404529685,
				"y": 2.8198567402,
				"z": 0.3399119261,
				"element": "C" 
			},
			{
				"x": 0.1518219116,
				"y": 3.887434168,
				"z": 0.6981586039,
				"element": "N" 
			},
			{
				"x": -0.2587024607,
				"y": -0.9609883459,
				"z": -3.7580831003,
				"element": "H" 
			},
			{
				"x": 0.839140839,
				"y": -1.8901253163,
				"z": -2.7431728937,
				"element": "H" 
			},
			{
				"x": 1.2753947086,
				"y": -0.2417780291,
				"z": -3.2575313326,
				"element": "H" 
			},
			{
				"x": -2.4274010661,
				"y": -2.814259628,
				"z": -0.8339771623,
				"element": "H" 
			},
			{
				"x": -1.8399999828,
				"y": -2.494173513,
				"z": -2.4683115224,
				"element": "H" 
			},
			{
				"x": -0.1613547664,
				"y": -3.3761701747,
				"z": -0.3872426036,
				"element": "H" 
			},
			{
				"x": -2.5371324937,
				"y": -1.0906064207,
				"z": 0.6860326882,
				"element": "H" 
			},
			{
				"x": -1.9439400672,
				"y": 1.1869871679,
				"z": 1.4730942051,
				"element": "H" 
			},
			{
				"x": 0.8604170096,
				"y": 1.5373135694,
				"z": -1.7696056523,
				"element": "H" 
			}
		],
		 "valence_orbital": [ 
			{
				"type": "occ",
				"energy": -0.33864,
				"method": "rhf"
			},
			{
				"type": "occ",
				"energy": -0.3287,
				"method": "rhf"
			},
			{
				"type": "occ",
				"energy": -0.28786,
				"method": "rhf"
			},
			{
				"type": "occ",
				"energy": -0.27013,
				"method": "rhf"
			},
			{
				"type": "occ",
				"energy": -0.25869,
				"method": "rhf"
			},
			{
				"type": "unocc",
				"energy": -0.05535,
				"method": "rhf"
			},
			{
				"type": "unocc",
				"energy": -0.02233,
				"method": "rhf"
			},
			{
				"type": "unocc",
				"energy": 0.03774,
				"method": "rhf"
			},
			{
				"type": "unocc",
				"energy": 0.05959,
				"method": "rhf"
			},
			{
				"type": "unocc",
				"energy": 0.08131,
				"method": "rhf"
			}
		],
		"cosmo_sigma_profile": { 
			"-0.025": 0.0,
			"-0.024": 0.0,
			"-0.023": 0.0,
			"-0.022": 0.0,
			"-0.021": 0.0,
			"-0.02": 0.0,
			"-0.019": 0.0,
			"-0.018": 0.0,
			"-0.017": 0.0,
			"-0.016": 0.312070855014,
			"-0.015": 0.772765675546,
			"-0.014": 1.04705696256,
			"-0.013": 1.06446677742,
			"-0.012": 0.76458118163,
			"-0.011": 0.674202137438,
			"-0.01": 0.93441472348,
			"-0.009": 0.812500867796,
			"-0.008": 1.9257858247,
			"-0.007": 7.55424966676,
			"-0.006": 10.989798413,
			"-0.005": 15.3227285182,
			"-0.004": 13.8721679952,
			"-0.003": 12.983597197,
			"-0.002": 13.6799293485,
			"-0.001": 17.2320703926,
			"0.0": 18.2393971801,
			"0.001": 12.7537777615,
			"0.002": 14.065438887,
			"0.003": 11.3192760721,
			"0.004": 3.69924163825,
			"0.005": 3.24523847106,
			"0.006": 3.8772829301,
			"0.007": 4.25886117495,
			"0.008": 4.29754205431,
			"0.009": 4.70466057922,
			"0.01": 4.11403548114,
			"0.011": 3.60292228075,
			"0.012": 4.13949829325,
			"0.013": 3.01847003263,
			"0.014": 1.34618271176,
			"0.015": 0.0551183740546,
			"0.016": 0.0,
			"0.017": 0.0,
			"0.018": 0.0,
			"0.019": 0.0,
			"0.02": 0.0,
			"0.021": 0.0,
			"0.022": 0.0,
			"0.023": 0.0,
			"0.024": 0.0,
			"0.025": 0.0
		}
	}
}
