{
	 "smiles": "COC(=O)C1=CC(=C(F)C=C1)S(Cl)(=O)=O", 
	 "Tm": 322.15, 
	 "num_atms": 21, 
	 "gaussian": { 
		 "optdone": 1, 
		 "sigma_profile": "yes", 
		 "theory": "DFT", 
		 "functional": "B3LYP", 
		 "basiset": "6-31G**", 
		 "properties": { 
			 "R2extent": 5414.1747, 
			 "electric_dipole_moment_norm": 4.16937086141, 
			 "electric_quadrupole_moment_norm": 20.1367482045, 
			 "total_energy": -1567.51041595, 
			 "HOMO_LUMO_gap": 0.19379, 
			 "cosmo_polarized_energy": -11.21, 
			 "cosmo_cavitation_energy": 30.31, 
			 "cosmo_dispersion_energy": -22.32, 
			 "cosmo_repulsion_energy": 1.69, 
			 "cosmo_total_nonelectrostatic_energy": 9.69, 
			 "SMD_solvation_energy": 6.01 
		},
		"coords": [
			{
				"x": 1.0126879887,
				"y": -1.8615757163,
				"z": 3.2602636,
				"element": "C" 
			},
			{
				"x": 0.7963357508,
				"y": -1.399561781,
				"z": 1.914494565,
				"element": "O" 
			},
			{
				"x": 0.9454867915,
				"y": -0.0745940939,
				"z": 1.7268124885,
				"element": "C" 
			},
			{
				"x": 1.2412338323,
				"y": 0.7068291962,
				"z": 2.6084437122,
				"element": "O" 
			},
			{
				"x": 0.7060176077,
				"y": 0.3257564057,
				"z": 0.3081608122,
				"element": "C" 
			},
			{
				"x": 0.369665401,
				"y": -0.603010046,
				"z": -0.6812657893,
				"element": "C" 
			},
			{
				"x": 0.1554651115,
				"y": -0.1624276714,
				"z": -1.9864657087,
				"element": "C" 
			},
			{
				"x": 0.2830168478,
				"y": 1.1947358198,
				"z": -2.304173277,
				"element": "C" 
			},
			{
				"x": 0.0974612297,
				"y": 1.6071184668,
				"z": -3.5587803489,
				"element": "F" 
			},
			{
				"x": 0.6195304238,
				"y": 2.122310693,
				"z": -1.3245035738,
				"element": "C" 
			},
			{
				"x": 0.8275213467,
				"y": 1.6831947178,
				"z": -0.0210719033,
				"element": "C" 
			},
			{
				"x": -0.3395075179,
				"y": -1.3607224117,
				"z": -3.2184585287,
				"element": "S" 
			},
			{
				"x": 1.3835945369,
				"y": -1.4109594213,
				"z": -4.4566237588,
				"element": "Cl" 
			},
			{
				"x": -1.4237867683,
				"y": -0.8269987473,
				"z": -4.0281978633,
				"element": "O" 
			},
			{
				"x": -0.423660428,
				"y": -2.6647265,
				"z": -2.573613618,
				"element": "O" 
			},
			{
				"x": 0.852602913,
				"y": -2.9385771378,
				"z": 3.2283451388,
				"element": "H" 
			},
			{
				"x": 2.0306532362,
				"y": -1.6313799653,
				"z": 3.5830542084,
				"element": "H" 
			},
			{
				"x": 0.3064138012,
				"y": -1.3858227871,
				"z": 3.9445630317,
				"element": "H" 
			},
			{
				"x": 0.2714287812,
				"y": -1.6555065909,
				"z": -0.4466781728,
				"element": "H" 
			},
			{
				"x": 0.7125687617,
				"y": 3.1665488462,
				"z": -1.6010530719,
				"element": "H" 
			},
			{
				"x": 1.0904703525,
				"y": 2.3823687245,
				"z": 0.7652480576,
				"element": "H" 
			}
		],
		 "valence_orbital": [ 
			{
				"type": "occ",
				"energy": -0.32266,
				"method": "rhf"
			},
			{
				"type": "occ",
				"energy": -0.31875,
				"method": "rhf"
			},
			{
				"type": "occ",
				"energy": -0.3045,
				"method": "rhf"
			},
			{
				"type": "occ",
				"energy": -0.29697,
				"method": "rhf"
			},
			{
				"type": "occ",
				"energy": -0.28845,
				"method": "rhf"
			},
			{
				"type": "unocc",
				"energy": -0.09466,
				"method": "rhf"
			},
			{
				"type": "unocc",
				"energy": -0.07299,
				"method": "rhf"
			},
			{
				"type": "unocc",
				"energy": -0.05694,
				"method": "rhf"
			},
			{
				"type": "unocc",
				"energy": 0.01675,
				"method": "rhf"
			},
			{
				"type": "unocc",
				"energy": 0.03965,
				"method": "rhf"
			}
		],
		"cosmo_sigma_profile": { 
			"-0.025": 0.0,
			"-0.024": 0.0,
			"-0.023": 0.0,
			"-0.022": 0.0,
			"-0.021": 0.0,
			"-0.02": 0.0,
			"-0.019": 0.0,
			"-0.018": 0.0,
			"-0.017": 0.0,
			"-0.016": 0.0,
			"-0.015": 0.0,
			"-0.014": 0.0,
			"-0.013": 0.0,
			"-0.012": 0.0,
			"-0.011": 0.0,
			"-0.01": 0.79672167377,
			"-0.009": 2.44548358901,
			"-0.008": 3.69119931924,
			"-0.007": 6.50015365296,
			"-0.006": 9.60702798286,
			"-0.005": 14.7702347544,
			"-0.004": 21.3167160923,
			"-0.003": 26.1131528142,
			"-0.002": 23.9663551284,
			"-0.001": 19.5929304021,
			"0.0": 13.3802979209,
			"0.001": 14.5979426199,
			"0.002": 22.5789773868,
			"0.003": 17.686508127,
			"0.004": 8.00502215139,
			"0.005": 5.16037606472,
			"0.006": 4.32295449073,
			"0.007": 11.3052035698,
			"0.008": 10.0644684359,
			"0.009": 2.98225862662,
			"0.01": 2.07206459359,
			"0.011": 4.40651773651,
			"0.012": 1.19491920695,
			"0.013": 0.0,
			"0.014": 0.0,
			"0.015": 0.0,
			"0.016": 0.0,
			"0.017": 0.0,
			"0.018": 0.0,
			"0.019": 0.0,
			"0.02": 0.0,
			"0.021": 0.0,
			"0.022": 0.0,
			"0.023": 0.0,
			"0.024": 0.0,
			"0.025": 0.0
		}
	}
}
