{
	 "smiles": "ClC(Cl)(Cl)SN1C(=O)C2CC=CCC2C1=O", 
	 "Tm": 451.15, 
	 "num_atms": 24, 
	 "gaussian": { 
		 "optdone": 1, 
		 "sigma_profile": "yes", 
		 "theory": "DFT", 
		 "functional": "B3LYP", 
		 "basiset": "6-31G**", 
		 "properties": { 
			 "R2extent": 7237.8665, 
			 "electric_dipole_moment_norm": 3.68138395308, 
			 "electric_quadrupole_moment_norm": 9.8649948074, 
			 "total_energy": -2331.70419804, 
			 "HOMO_LUMO_gap": 0.19515, 
			 "cosmo_polarized_energy": -12.36, 
			 "cosmo_cavitation_energy": 34.02, 
			 "cosmo_dispersion_energy": -24.17, 
			 "cosmo_repulsion_energy": 1.84, 
			 "cosmo_total_nonelectrostatic_energy": 11.7, 
			 "SMD_solvation_energy": 5.13 
		},
		"coords": [
			{
				"x": 0.6707527685,
				"y": -2.0633170272,
				"z": -3.3265111426,
				"element": "Cl" 
			},
			{
				"x": 2.089381829,
				"y": -2.7055243157,
				"z": -2.4357043221,
				"element": "C" 
			},
			{
				"x": 2.6980906839,
				"y": -4.1979887284,
				"z": -3.2428042433,
				"element": "Cl" 
			},
			{
				"x": 3.3748734852,
				"y": -1.4478602576,
				"z": -2.4334387063,
				"element": "Cl" 
			},
			{
				"x": 1.6740187347,
				"y": -3.3151197148,
				"z": -0.7412593879,
				"element": "S" 
			},
			{
				"x": 1.1002330953,
				"y": -1.9085423416,
				"z": 0.038912838,
				"element": "N" 
			},
			{
				"x": -0.2835256565,
				"y": -1.5774005616,
				"z": 0.1490738656,
				"element": "C" 
			},
			{
				"x": -1.1788274185,
				"y": -2.1224376666,
				"z": -0.4440714298,
				"element": "O" 
			},
			{
				"x": -0.3801305209,
				"y": -0.4783552124,
				"z": 1.207035584,
				"element": "C" 
			},
			{
				"x": -1.5668957085,
				"y": 0.4838873594,
				"z": 1.0344914976,
				"element": "C" 
			},
			{
				"x": -1.196875221,
				"y": 1.828510905,
				"z": 0.4712655193,
				"element": "C" 
			},
			{
				"x": 0.0392174265,
				"y": 2.1915668517,
				"z": 0.1242701462,
				"element": "C" 
			},
			{
				"x": 1.2374627948,
				"y": 1.2852510657,
				"z": 0.2196971378,
				"element": "C" 
			},
			{
				"x": 1.0397200295,
				"y": 0.1280948492,
				"z": 1.2354245461,
				"element": "C" 
			},
			{
				"x": 1.9293048267,
				"y": -1.0334460428,
				"z": 0.8123669943,
				"element": "C" 
			},
			{
				"x": 3.1035317564,
				"y": -1.197548875,
				"z": 1.0199777088,
				"element": "O" 
			},
			{
				"x": -0.5207303151,
				"y": -1.0394098139,
				"z": 2.1417199715,
				"element": "H" 
			},
			{
				"x": -2.3142896417,
				"y": -0.0029959267,
				"z": 0.3944413416,
				"element": "H" 
			},
			{
				"x": -2.0636977237,
				"y": 0.6298737589,
				"z": 2.0023913234,
				"element": "H" 
			},
			{
				"x": -2.0149161168,
				"y": 2.5363956874,
				"z": 0.3543816504,
				"element": "H" 
			},
			{
				"x": 0.2133739125,
				"y": 3.1842662782,
				"z": -0.2850556337,
				"element": "H" 
			},
			{
				"x": 1.4560681295,
				"y": 0.8762329686,
				"z": -0.7776723208,
				"element": "H" 
			},
			{
				"x": 2.1320039125,
				"y": 1.8489535381,
				"z": 0.5045533596,
				"element": "H" 
			},
			{
				"x": 1.3266549376,
				"y": 0.4650132223,
				"z": 2.2338137021,
				"element": "H" 
			}
		],
		 "valence_orbital": [ 
			{
				"type": "occ",
				"energy": -0.30318,
				"method": "rhf"
			},
			{
				"type": "occ",
				"energy": -0.29526,
				"method": "rhf"
			},
			{
				"type": "occ",
				"energy": -0.28355,
				"method": "rhf"
			},
			{
				"type": "occ",
				"energy": -0.26864,
				"method": "rhf"
			},
			{
				"type": "occ",
				"energy": -0.25922,
				"method": "rhf"
			},
			{
				"type": "unocc",
				"energy": -0.06407,
				"method": "rhf"
			},
			{
				"type": "unocc",
				"energy": -0.03648,
				"method": "rhf"
			},
			{
				"type": "unocc",
				"energy": -0.03104,
				"method": "rhf"
			},
			{
				"type": "unocc",
				"energy": -0.01516,
				"method": "rhf"
			},
			{
				"type": "unocc",
				"energy": -0.00519,
				"method": "rhf"
			}
		],
		"cosmo_sigma_profile": { 
			"-0.025": 0.0,
			"-0.024": 0.0,
			"-0.023": 0.0,
			"-0.022": 0.0,
			"-0.021": 0.0,
			"-0.02": 0.0,
			"-0.019": 0.0,
			"-0.018": 0.0,
			"-0.017": 0.0,
			"-0.016": 0.0,
			"-0.015": 0.0,
			"-0.014": 0.0,
			"-0.013": 0.0,
			"-0.012": 0.0,
			"-0.011": 0.400821259091,
			"-0.01": 1.38854749123,
			"-0.009": 2.40865422318,
			"-0.008": 4.77109359015,
			"-0.007": 8.33003129528,
			"-0.006": 7.6109705519,
			"-0.005": 16.9080620189,
			"-0.004": 21.9444651881,
			"-0.003": 24.6879421347,
			"-0.002": 26.4943995525,
			"-0.001": 24.0244698726,
			"0.0": 21.838256183,
			"0.001": 24.2475611075,
			"0.002": 29.5317250267,
			"0.003": 13.9114863612,
			"0.004": 7.13514035929,
			"0.005": 5.98914029515,
			"0.006": 6.55536302645,
			"0.007": 4.15575782293,
			"0.008": 5.30493933435,
			"0.009": 5.53552182709,
			"0.01": 8.07540929506,
			"0.011": 6.95614348311,
			"0.012": 0.556436371569,
			"0.013": 0.0,
			"0.014": 0.0,
			"0.015": 0.0,
			"0.016": 0.0,
			"0.017": 0.0,
			"0.018": 0.0,
			"0.019": 0.0,
			"0.02": 0.0,
			"0.021": 0.0,
			"0.022": 0.0,
			"0.023": 0.0,
			"0.024": 0.0,
			"0.025": 0.0
		}
	}
}
