{
	 "smiles": "CCC1=NN(CCCN2CCN(CC2)C2=CC=CC(Cl)=C2)C(=O)N1CCOC1=CC=CC=C1", 
	 "Tm": 356.65, 
	 "num_atms": 65, 
	 "gaussian": { 
		 "optdone": 1, 
		 "sigma_profile": "yes", 
		 "theory": "DFT", 
		 "functional": "B3LYP", 
		 "basiset": "6-31G**", 
		 "properties": { 
			 "R2extent": 26376.1693, 
			 "electric_dipole_moment_norm": 3.22834325622, 
			 "electric_quadrupole_moment_norm": 31.9507348451, 
			 "total_energy": -1856.34359165, 
			 "HOMO_LUMO_gap": 0.18902, 
			 "cosmo_polarized_energy": -19.91, 
			 "cosmo_cavitation_energy": 67.44, 
			 "cosmo_dispersion_energy": -45.65, 
			 "cosmo_repulsion_energy": 3.47, 
			 "cosmo_total_nonelectrostatic_energy": 25.27, 
			 "SMD_solvation_energy": 6.11 
		},
		"coords": [
			{
				"x": 5.2864281918,
				"y": -0.0942987467,
				"z": -3.5451757344,
				"element": "C" 
			},
			{
				"x": 3.7623512389,
				"y": -0.2410037993,
				"z": -3.3760150147,
				"element": "C" 
			},
			{
				"x": 3.3606882391,
				"y": -0.8609736779,
				"z": -2.074572654,
				"element": "C" 
			},
			{
				"x": 3.0297159951,
				"y": -2.1155876351,
				"z": -1.943602556,
				"element": "N" 
			},
			{
				"x": 2.7861466095,
				"y": -2.2857224027,
				"z": -0.594627158,
				"element": "N" 
			},
			{
				"x": 2.3601227687,
				"y": -3.5671264169,
				"z": -0.0590179388,
				"element": "C" 
			},
			{
				"x": 0.9336503862,
				"y": -3.9577394518,
				"z": -0.4659836249,
				"element": "C" 
			},
			{
				"x": -0.136341311,
				"y": -3.025927994,
				"z": 0.1151176387,
				"element": "C" 
			},
			{
				"x": -1.5016907344,
				"y": -3.4954611495,
				"z": -0.1333890898,
				"element": "N" 
			},
			{
				"x": -2.4686424494,
				"y": -2.8310729387,
				"z": 0.7457205419,
				"element": "C" 
			},
			{
				"x": -3.864759985,
				"y": -3.4229227524,
				"z": 0.5203892847,
				"element": "C" 
			},
			{
				"x": -4.2954209355,
				"y": -3.3116325783,
				"z": -0.8701323885,
				"element": "N" 
			},
			{
				"x": -3.3112798558,
				"y": -3.9347140264,
				"z": -1.7571893498,
				"element": "C" 
			},
			{
				"x": -1.9075312466,
				"y": -3.3532341115,
				"z": -1.5340253798,
				"element": "C" 
			},
			{
				"x": -5.0828719946,
				"y": -2.2400338799,
				"z": -1.3075018637,
				"element": "C" 
			},
			{
				"x": -5.4150458334,
				"y": -1.1485767305,
				"z": -0.4766764716,
				"element": "C" 
			},
			{
				"x": -6.2521445607,
				"y": -0.1321868398,
				"z": -0.932959845,
				"element": "C" 
			},
			{
				"x": -6.7784050756,
				"y": -0.1402582141,
				"z": -2.2235939254,
				"element": "C" 
			},
			{
				"x": -6.4443683367,
				"y": -1.2188963808,
				"z": -3.0413214404,
				"element": "C" 
			},
			{
				"x": -7.0993098646,
				"y": -1.2875161394,
				"z": -4.6781935566,
				"element": "Cl" 
			},
			{
				"x": -5.6279103591,
				"y": -2.2565511028,
				"z": -2.6115756782,
				"element": "C" 
			},
			{
				"x": 2.9519751429,
				"y": -1.1275578376,
				"z": 0.1252131496,
				"element": "C" 
			},
			{
				"x": 2.7953429212,
				"y": -0.9198506098,
				"z": 1.3267383351,
				"element": "O" 
			},
			{
				"x": 3.3433002182,
				"y": -0.20650643,
				"z": -0.8548240033,
				"element": "N" 
			},
			{
				"x": 3.5880599792,
				"y": 1.1895561395,
				"z": -0.5267226834,
				"element": "C" 
			},
			{
				"x": 2.2731206621,
				"y": 1.9458279678,
				"z": -0.272865972,
				"element": "C" 
			},
			{
				"x": 2.5225840176,
				"y": 3.2731101796,
				"z": 0.1617606294,
				"element": "O" 
			},
			{
				"x": 2.783187017,
				"y": 3.5071509524,
				"z": 1.4931726732,
				"element": "C" 
			},
			{
				"x": 2.8834840101,
				"y": 2.5151287126,
				"z": 2.4767175473,
				"element": "C" 
			},
			{
				"x": 3.1437520974,
				"y": 2.8955775575,
				"z": 3.7979068329,
				"element": "C" 
			},
			{
				"x": 3.3061678025,
				"y": 4.2349591853,
				"z": 4.1459805882,
				"element": "C" 
			},
			{
				"x": 3.2077564279,
				"y": 5.2144732285,
				"z": 3.1525044769,
				"element": "C" 
			},
			{
				"x": 2.9478957046,
				"y": 4.8568600962,
				"z": 1.8335098488,
				"element": "C" 
			},
			{
				"x": 5.7232439115,
				"y": 0.5515523509,
				"z": -2.7770961067,
				"element": "H" 
			},
			{
				"x": 5.7743346821,
				"y": -1.0707764968,
				"z": -3.4794002542,
				"element": "H" 
			},
			{
				"x": 5.5198998221,
				"y": 0.3411083669,
				"z": -4.5212809907,
				"element": "H" 
			},
			{
				"x": 3.3648390992,
				"y": -0.8866094104,
				"z": -4.1639162611,
				"element": "H" 
			},
			{
				"x": 3.2759926409,
				"y": 0.7358068983,
				"z": -3.4879083409,
				"element": "H" 
			},
			{
				"x": 3.0684169092,
				"y": -4.3288222413,
				"z": -0.4002947305,
				"element": "H" 
			},
			{
				"x": 2.4508837346,
				"y": -3.4766259977,
				"z": 1.0274935071,
				"element": "H" 
			},
			{
				"x": 0.8868359603,
				"y": -3.981232888,
				"z": -1.5599114968,
				"element": "H" 
			},
			{
				"x": 0.7401873767,
				"y": -4.9774497525,
				"z": -0.1130818769,
				"element": "H" 
			},
			{
				"x": 0.0134373139,
				"y": -1.9965600259,
				"z": -0.2633302171,
				"element": "H" 
			},
			{
				"x": 0.0006283492,
				"y": -2.9750998063,
				"z": 1.2018985307,
				"element": "H" 
			},
			{
				"x": -2.4967855091,
				"y": -1.7366298306,
				"z": 0.5762862723,
				"element": "H" 
			},
			{
				"x": -2.1650126601,
				"y": -2.994914224,
				"z": 1.7863006405,
				"element": "H" 
			},
			{
				"x": -3.825734834,
				"y": -4.4919218666,
				"z": 0.7682232694,
				"element": "H" 
			},
			{
				"x": -4.6021517137,
				"y": -2.964348795,
				"z": 1.1808692512,
				"element": "H" 
			},
			{
				"x": -3.2884426052,
				"y": -5.0126897778,
				"z": -1.5519939789,
				"element": "H" 
			},
			{
				"x": -3.5976199727,
				"y": -3.799544096,
				"z": -2.7998640737,
				"element": "H" 
			},
			{
				"x": -1.9018234267,
				"y": -2.2915556959,
				"z": -1.8535461827,
				"element": "H" 
			},
			{
				"x": -1.1994451516,
				"y": -3.8905133722,
				"z": -2.1724804014,
				"element": "H" 
			},
			{
				"x": -5.0044546396,
				"y": -1.0729853387,
				"z": 0.5224461754,
				"element": "H" 
			},
			{
				"x": -6.4840459648,
				"y": 0.6960147611,
				"z": -0.2690852035,
				"element": "H" 
			},
			{
				"x": -7.4195851642,
				"y": 0.6545291222,
				"z": -2.584793851,
				"element": "H" 
			},
			{
				"x": -5.4477492053,
				"y": -3.0910206877,
				"z": -3.2772202872,
				"element": "H" 
			},
			{
				"x": 4.1426294678,
				"y": 1.6602797342,
				"z": -1.3405145141,
				"element": "H" 
			},
			{
				"x": 4.2099754542,
				"y": 1.2212199773,
				"z": 0.3714973084,
				"element": "H" 
			},
			{
				"x": 1.6583815505,
				"y": 1.3948116096,
				"z": 0.4463574013,
				"element": "H" 
			},
			{
				"x": 1.7089779674,
				"y": 2.0390443201,
				"z": -1.2060345363,
				"element": "H" 
			},
			{
				"x": 2.7768498097,
				"y": 1.4611872644,
				"z": 2.2408285639,
				"element": "H" 
			},
			{
				"x": 3.2222670846,
				"y": 2.1224597264,
				"z": 4.5571566287,
				"element": "H" 
			},
			{
				"x": 3.5089476794,
				"y": 4.5148209204,
				"z": 5.175151967,
				"element": "H" 
			},
			{
				"x": 3.3313158296,
				"y": 6.263756873,
				"z": 3.4058777506,
				"element": "H" 
			},
			{
				"x": 2.8631993166,
				"y": 5.602716205,
				"z": 1.0497008188,
				"element": "H" 
			}
		],
		 "valence_orbital": [ 
			{
				"type": "occ",
				"energy": -0.24032,
				"method": "rhf"
			},
			{
				"type": "occ",
				"energy": -0.2266,
				"method": "rhf"
			},
			{
				"type": "occ",
				"energy": -0.22082,
				"method": "rhf"
			},
			{
				"type": "occ",
				"energy": -0.21424,
				"method": "rhf"
			},
			{
				"type": "occ",
				"energy": -0.19394,
				"method": "rhf"
			},
			{
				"type": "unocc",
				"energy": -0.00492,
				"method": "rhf"
			},
			{
				"type": "unocc",
				"energy": 0.00311,
				"method": "rhf"
			},
			{
				"type": "unocc",
				"energy": 0.00778,
				"method": "rhf"
			},
			{
				"type": "unocc",
				"energy": 0.01079,
				"method": "rhf"
			},
			{
				"type": "unocc",
				"energy": 0.0172,
				"method": "rhf"
			}
		],
		"cosmo_sigma_profile": { 
			"-0.025": 0.0,
			"-0.024": 0.0,
			"-0.023": 0.0,
			"-0.022": 0.0,
			"-0.021": 0.0,
			"-0.02": 0.0,
			"-0.019": 0.0,
			"-0.018": 0.0,
			"-0.017": 0.0,
			"-0.016": 0.0,
			"-0.015": 0.0,
			"-0.014": 0.0,
			"-0.013": 0.0,
			"-0.012": 0.0,
			"-0.011": 0.0,
			"-0.01": 0.0,
			"-0.009": 0.0,
			"-0.008": 2.1660969231,
			"-0.007": 8.74764199994,
			"-0.006": 19.8302205097,
			"-0.005": 34.4478906771,
			"-0.004": 52.5210050831,
			"-0.003": 60.7042946276,
			"-0.002": 59.2210168309,
			"-0.001": 55.9069351726,
			"0.0": 35.5298379559,
			"0.001": 27.3176760564,
			"0.002": 26.1727600196,
			"0.003": 30.2026191585,
			"0.004": 32.3806531009,
			"0.005": 36.3219622299,
			"0.006": 20.1493829153,
			"0.007": 6.05390855616,
			"0.008": 4.47747433298,
			"0.009": 3.65567846567,
			"0.01": 4.63976197204,
			"0.011": 3.36487758851,
			"0.012": 2.76473023828,
			"0.013": 3.03429677521,
			"0.014": 3.78590450977,
			"0.015": 0.50929220578,
			"0.016": 0.0,
			"0.017": 0.0,
			"0.018": 0.0,
			"0.019": 0.0,
			"0.02": 0.0,
			"0.021": 0.0,
			"0.022": 0.0,
			"0.023": 0.0,
			"0.024": 0.0,
			"0.025": 0.0
		}
	}
}
