{
	 "smiles": "OC(=O)C1=CN=C(F)C=C1", 
	 "Tm": 419.15, 
	 "num_atms": 14, 
	 "gaussian": { 
		 "optdone": 1, 
		 "sigma_profile": "yes", 
		 "theory": "DFT", 
		 "functional": "B3LYP", 
		 "basiset": "6-31G**", 
		 "properties": { 
			 "R2extent": 1609.9362, 
			 "electric_dipole_moment_norm": 1.87318385109, 
			 "electric_quadrupole_moment_norm": 15.3034792913, 
			 "total_energy": -536.086311954, 
			 "HOMO_LUMO_gap": 0.2157, 
			 "cosmo_polarized_energy": -14.49, 
			 "cosmo_cavitation_energy": 19.7, 
			 "cosmo_dispersion_energy": -14.62, 
			 "cosmo_repulsion_energy": 1.15, 
			 "cosmo_total_nonelectrostatic_energy": 6.24, 
			 "SMD_solvation_energy": 3.67 
		},
		"coords": [
			{
				"x": -2.5414931143,
				"y": 0.149195832,
				"z": 1.6664247287,
				"element": "O" 
			},
			{
				"x": -1.5569510673,
				"y": 0.8437308202,
				"z": 1.0403359405,
				"element": "C" 
			},
			{
				"x": -1.4023347407,
				"y": 2.0195410366,
				"z": 1.2709761005,
				"element": "O" 
			},
			{
				"x": -0.6995578503,
				"y": 0.0905202464,
				"z": 0.0712077411,
				"element": "C" 
			},
			{
				"x": -1.0602531976,
				"y": -1.1272143474,
				"z": -0.5120492875,
				"element": "C" 
			},
			{
				"x": -0.2959281701,
				"y": -1.7869725173,
				"z": -1.3916932024,
				"element": "N" 
			},
			{
				"x": 0.8530265954,
				"y": -1.2297514594,
				"z": -1.7109116775,
				"element": "C" 
			},
			{
				"x": 1.6132742027,
				"y": -1.9034697041,
				"z": -2.5793817196,
				"element": "F" 
			},
			{
				"x": 1.3290095319,
				"y": -0.0075084331,
				"z": -1.2254075277,
				"element": "C" 
			},
			{
				"x": 0.5233250504,
				"y": 0.6625852606,
				"z": -0.3201723142,
				"element": "C" 
			},
			{
				"x": -2.4453521552,
				"y": -0.8009945755,
				"z": 1.5144053772,
				"element": "H" 
			},
			{
				"x": -2.0198277471,
				"y": -1.5966364797,
				"z": -0.2966867612,
				"element": "H" 
			},
			{
				"x": 2.2847413583,
				"y": 0.3796657078,
				"z": -1.5581545352,
				"element": "H" 
			},
			{
				"x": 0.8096213039,
				"y": 1.6218086127,
				"z": 0.0975071373,
				"element": "H" 
			}
		],
		 "valence_orbital": [ 
			{
				"type": "occ",
				"energy": -0.33281,
				"method": "rhf"
			},
			{
				"type": "occ",
				"energy": -0.3173,
				"method": "rhf"
			},
			{
				"type": "occ",
				"energy": -0.30734,
				"method": "rhf"
			},
			{
				"type": "occ",
				"energy": -0.2874,
				"method": "rhf"
			},
			{
				"type": "occ",
				"energy": -0.28099,
				"method": "rhf"
			},
			{
				"type": "unocc",
				"energy": -0.06529,
				"method": "rhf"
			},
			{
				"type": "unocc",
				"energy": -0.05617,
				"method": "rhf"
			},
			{
				"type": "unocc",
				"energy": 0.03332,
				"method": "rhf"
			},
			{
				"type": "unocc",
				"energy": 0.04969,
				"method": "rhf"
			},
			{
				"type": "unocc",
				"energy": 0.09278,
				"method": "rhf"
			}
		],
		"cosmo_sigma_profile": { 
			"-0.025": 0.0,
			"-0.024": 0.0,
			"-0.023": 0.0,
			"-0.022": 0.0,
			"-0.021": 0.0,
			"-0.02": 0.203214717895,
			"-0.019": 1.04764199641,
			"-0.018": 0.800237298927,
			"-0.017": 1.3110940233,
			"-0.016": 0.944311649191,
			"-0.015": 0.962239733277,
			"-0.014": 1.11767857332,
			"-0.013": 1.32824542041,
			"-0.012": 1.16380610445,
			"-0.011": 1.5131740029,
			"-0.01": 0.9166096581,
			"-0.009": 3.60615168163,
			"-0.008": 4.69363250421,
			"-0.007": 6.14588911737,
			"-0.006": 5.11883673979,
			"-0.005": 5.52369896728,
			"-0.004": 6.29243853086,
			"-0.003": 10.8149993313,
			"-0.002": 13.3168473306,
			"-0.001": 12.8144909327,
			"0.0": 10.0728952965,
			"0.001": 6.16305198048,
			"0.002": 6.61235954919,
			"0.003": 11.0630204427,
			"0.004": 6.5668553997,
			"0.005": 4.49417455427,
			"0.006": 3.22934704773,
			"0.007": 4.11779392529,
			"0.008": 4.60213098589,
			"0.009": 4.16809259382,
			"0.01": 6.42821991826,
			"0.011": 6.07556776311,
			"0.012": 4.22427364335,
			"0.013": 1.3675628166,
			"0.014": 0.338112029198,
			"0.015": 0.0,
			"0.016": 0.0,
			"0.017": 0.0,
			"0.018": 0.0,
			"0.019": 0.0,
			"0.02": 0.0,
			"0.021": 0.0,
			"0.022": 0.0,
			"0.023": 0.0,
			"0.024": 0.0,
			"0.025": 0.0
		}
	}
}
