{
	 "smiles": "CCC1=CC=C(C)C=C1C", 
	 "Tm": 210.15, 
	 "num_atms": 24, 
	 "gaussian": { 
		 "optdone": 1, 
		 "sigma_profile": "yes", 
		 "theory": "DFT", 
		 "functional": "B3LYP", 
		 "basiset": "6-31G**", 
		 "properties": { 
			 "R2extent": 2231.5458, 
			 "electric_dipole_moment_norm": 0.415944960301, 
			 "electric_quadrupole_moment_norm": 3.46230944313, 
			 "total_energy": -389.525506221, 
			 "HOMO_LUMO_gap": 0.23246, 
			 "cosmo_polarized_energy": -3.18, 
			 "cosmo_cavitation_energy": 25.73, 
			 "cosmo_dispersion_energy": -18.86, 
			 "cosmo_repulsion_energy": 1.53, 
			 "cosmo_total_nonelectrostatic_energy": 8.4, 
			 "SMD_solvation_energy": 4.37 
		},
		"coords": [
			{
				"x": 2.0358000292,
				"y": -0.597769904,
				"z": -0.6766167461,
				"element": "C" 
			},
			{
				"x": 0.7848593294,
				"y": 0.2846169798,
				"z": -0.6873012386,
				"element": "C" 
			},
			{
				"x": -0.2567962728,
				"y": -0.0028338121,
				"z": 0.3809588275,
				"element": "C" 
			},
			{
				"x": -0.0888548055,
				"y": -1.0152928454,
				"z": 1.3292178564,
				"element": "C" 
			},
			{
				"x": -1.052861255,
				"y": -1.2696418116,
				"z": 2.308115516,
				"element": "C" 
			},
			{
				"x": -2.2243916341,
				"y": -0.5143966231,
				"z": 2.3686102144,
				"element": "C" 
			},
			{
				"x": -3.2877030453,
				"y": -0.7838804024,
				"z": 3.4076731759,
				"element": "C" 
			},
			{
				"x": -2.3917891042,
				"y": 0.5027671662,
				"z": 1.4184766925,
				"element": "C" 
			},
			{
				"x": -1.4399456466,
				"y": 0.7722582003,
				"z": 0.4326761595,
				"element": "C" 
			},
			{
				"x": -1.6846254313,
				"y": 1.8851468807,
				"z": -0.5598955629,
				"element": "C" 
			},
			{
				"x": 1.7873851445,
				"y": -1.6544511704,
				"z": -0.8207006492,
				"element": "H" 
			},
			{
				"x": 2.5866843294,
				"y": -0.5083044633,
				"z": 0.2654874188,
				"element": "H" 
			},
			{
				"x": 2.7126095928,
				"y": -0.3038391187,
				"z": -1.484757744,
				"element": "H" 
			},
			{
				"x": 0.3085418017,
				"y": 0.2088368379,
				"z": -1.6753345014,
				"element": "H" 
			},
			{
				"x": 1.0946640917,
				"y": 1.3363825909,
				"z": -0.6058294014,
				"element": "H" 
			},
			{
				"x": 0.8101475453,
				"y": -1.622850329,
				"z": 1.3143145761,
				"element": "H" 
			},
			{
				"x": -0.8859624102,
				"y": -2.0651562725,
				"z": 3.0305165195,
				"element": "H" 
			},
			{
				"x": -3.6063098614,
				"y": 0.1387908706,
				"z": 3.9053325635,
				"element": "H" 
			},
			{
				"x": -2.9276890239,
				"y": -1.4727805857,
				"z": 4.1772191843,
				"element": "H" 
			},
			{
				"x": -4.1830643306,
				"y": -1.2306815427,
				"z": 2.9578664278,
				"element": "H" 
			},
			{
				"x": -3.2964356971,
				"y": 1.1078940365,
				"z": 1.4483914364,
				"element": "H" 
			},
			{
				"x": -0.9023931289,
				"y": 2.652903141,
				"z": -0.5134986667,
				"element": "H" 
			},
			{
				"x": -2.6429443241,
				"y": 2.3759478247,
				"z": -0.3706418111,
				"element": "H" 
			},
			{
				"x": -1.6983258929,
				"y": 1.5151343523,
				"z": -1.5925802472,
				"element": "H" 
			}
		],
		 "valence_orbital": [ 
			{
				"type": "occ",
				"energy": -0.32639,
				"method": "rhf"
			},
			{
				"type": "occ",
				"energy": -0.31995,
				"method": "rhf"
			},
			{
				"type": "occ",
				"energy": -0.31801,
				"method": "rhf"
			},
			{
				"type": "occ",
				"energy": -0.2331,
				"method": "rhf"
			},
			{
				"type": "occ",
				"energy": -0.22064,
				"method": "rhf"
			},
			{
				"type": "unocc",
				"energy": 0.01182,
				"method": "rhf"
			},
			{
				"type": "unocc",
				"energy": 0.01189,
				"method": "rhf"
			},
			{
				"type": "unocc",
				"energy": 0.09561,
				"method": "rhf"
			},
			{
				"type": "unocc",
				"energy": 0.10946,
				"method": "rhf"
			},
			{
				"type": "unocc",
				"energy": 0.11432,
				"method": "rhf"
			}
		],
		"cosmo_sigma_profile": { 
			"-0.025": 0.0,
			"-0.024": 0.0,
			"-0.023": 0.0,
			"-0.022": 0.0,
			"-0.021": 0.0,
			"-0.02": 0.0,
			"-0.019": 0.0,
			"-0.018": 0.0,
			"-0.017": 0.0,
			"-0.016": 0.0,
			"-0.015": 0.0,
			"-0.014": 0.0,
			"-0.013": 0.0,
			"-0.012": 0.0,
			"-0.011": 0.0,
			"-0.01": 0.0,
			"-0.009": 0.0,
			"-0.008": 0.0,
			"-0.007": 0.0,
			"-0.006": 0.0,
			"-0.005": 0.977225330577,
			"-0.004": 14.0005862376,
			"-0.003": 28.9662464726,
			"-0.002": 27.6416299931,
			"-0.001": 28.151012073,
			"0.0": 31.8544554246,
			"0.001": 22.3159637225,
			"0.002": 11.7255373178,
			"0.003": 7.10358144763,
			"0.004": 5.8780981677,
			"0.005": 7.91328214708,
			"0.006": 5.9992011612,
			"0.007": 6.98701463466,
			"0.008": 1.77596897603,
			"0.009": 0.0,
			"0.01": 0.0,
			"0.011": 0.0,
			"0.012": 0.0,
			"0.013": 0.0,
			"0.014": 0.0,
			"0.015": 0.0,
			"0.016": 0.0,
			"0.017": 0.0,
			"0.018": 0.0,
			"0.019": 0.0,
			"0.02": 0.0,
			"0.021": 0.0,
			"0.022": 0.0,
			"0.023": 0.0,
			"0.024": 0.0,
			"0.025": 0.0
		}
	}
}
