{
	 "smiles": "NC(=O)C1=C(N)N=C(NCC2=CC=CC=C2)S1", 
	 "Tm": 470.15, 
	 "num_atms": 29, 
	 "gaussian": { 
		 "optdone": 1, 
		 "sigma_profile": "yes", 
		 "theory": "DFT", 
		 "functional": "B3LYP", 
		 "basiset": "6-31G**", 
		 "properties": { 
			 "R2extent": 7575.7717, 
			 "electric_dipole_moment_norm": 5.12081517339, 
			 "electric_quadrupole_moment_norm": 18.0554739423, 
			 "total_energy": -1118.8502223, 
			 "HOMO_LUMO_gap": 0.16412, 
			 "cosmo_polarized_energy": -18.46, 
			 "cosmo_cavitation_energy": 35.01, 
			 "cosmo_dispersion_energy": -26.39, 
			 "cosmo_repulsion_energy": 2.02, 
			 "cosmo_total_nonelectrostatic_energy": 10.64, 
			 "SMD_solvation_energy": 3.93 
		},
		"coords": [
			{
				"x": -0.6654564808,
				"y": -2.5790698324,
				"z": 5.2841941474,
				"element": "N" 
			},
			{
				"x": 0.2527731282,
				"y": -1.547279472,
				"z": 5.1972381131,
				"element": "C" 
			},
			{
				"x": 0.8315053462,
				"y": -1.1385685888,
				"z": 6.2188721385,
				"element": "O" 
			},
			{
				"x": 0.5330778386,
				"y": -0.9938790453,
				"z": 3.8918640478,
				"element": "C" 
			},
			{
				"x": 1.3769000172,
				"y": 0.0937323211,
				"z": 3.6583309309,
				"element": "C" 
			},
			{
				"x": 2.1334936008,
				"y": 0.6875236204,
				"z": 4.6119231915,
				"element": "N" 
			},
			{
				"x": 1.444230428,
				"y": 0.5577476492,
				"z": 2.3675031814,
				"element": "N" 
			},
			{
				"x": 0.6752744342,
				"y": -0.1534476395,
				"z": 1.5812503463,
				"element": "C" 
			},
			{
				"x": 0.5325450569,
				"y": 0.1142753725,
				"z": 0.2563505525,
				"element": "N" 
			},
			{
				"x": -0.1085570819,
				"y": -0.7877571939,
				"z": -0.6925257309,
				"element": "C" 
			},
			{
				"x": -0.3630467364,
				"y": -0.0990339764,
				"z": -2.0170706287,
				"element": "C" 
			},
			{
				"x": 0.0773305675,
				"y": -0.6761088423,
				"z": -3.2126421361,
				"element": "C" 
			},
			{
				"x": -0.1759712158,
				"y": -0.0546388128,
				"z": -4.4375792074,
				"element": "C" 
			},
			{
				"x": -0.8672823193,
				"y": 1.1562771339,
				"z": -4.4765236842,
				"element": "C" 
			},
			{
				"x": -1.3063894518,
				"y": 1.7422944573,
				"z": -3.2862283167,
				"element": "C" 
			},
			{
				"x": -1.0579189538,
				"y": 1.1179481405,
				"z": -2.0647277676,
				"element": "C" 
			},
			{
				"x": -0.1814116272,
				"y": -1.4963708257,
				"z": 2.3470038441,
				"element": "S" 
			},
			{
				"x": -0.948191145,
				"y": -2.7944880849,
				"z": 6.2299858533,
				"element": "H" 
			},
			{
				"x": -1.3868687451,
				"y": -2.6624319034,
				"z": 4.5825271077,
				"element": "H" 
			},
			{
				"x": 2.504210612,
				"y": 1.6030538764,
				"z": 4.4161853943,
				"element": "H" 
			},
			{
				"x": 1.9519278844,
				"y": 0.3783667826,
				"z": 5.5620345484,
				"element": "H" 
			},
			{
				"x": 1.2143577922,
				"y": 0.7675498181,
				"z": -0.1077255716,
				"element": "H" 
			},
			{
				"x": 0.4900955864,
				"y": -1.6968392474,
				"z": -0.8516984693,
				"element": "H" 
			},
			{
				"x": -1.0619637158,
				"y": -1.1095445887,
				"z": -0.2517021954,
				"element": "H" 
			},
			{
				"x": 0.6222587025,
				"y": -1.6164633943,
				"z": -3.1855127192,
				"element": "H" 
			},
			{
				"x": 0.1722948632,
				"y": -0.5142834922,
				"z": -5.3579755259,
				"element": "H" 
			},
			{
				"x": -1.0621296365,
				"y": 1.6428838271,
				"z": -5.4277771118,
				"element": "H" 
			},
			{
				"x": -1.8455267911,
				"y": 2.6849757363,
				"z": -3.3103212626,
				"element": "H" 
			},
			{
				"x": -1.398761958,
				"y": 1.5743762048,
				"z": -1.1394530699,
				"element": "H" 
			}
		],
		 "valence_orbital": [ 
			{
				"type": "occ",
				"energy": -0.26042,
				"method": "rhf"
			},
			{
				"type": "occ",
				"energy": -0.25783,
				"method": "rhf"
			},
			{
				"type": "occ",
				"energy": -0.2423,
				"method": "rhf"
			},
			{
				"type": "occ",
				"energy": -0.23987,
				"method": "rhf"
			},
			{
				"type": "occ",
				"energy": -0.18545,
				"method": "rhf"
			},
			{
				"type": "unocc",
				"energy": -0.02133,
				"method": "rhf"
			},
			{
				"type": "unocc",
				"energy": -0.01585,
				"method": "rhf"
			},
			{
				"type": "unocc",
				"energy": -0.01207,
				"method": "rhf"
			},
			{
				"type": "unocc",
				"energy": 0.01083,
				"method": "rhf"
			},
			{
				"type": "unocc",
				"energy": 0.04804,
				"method": "rhf"
			}
		],
		"cosmo_sigma_profile": { 
			"-0.025": 0.0,
			"-0.024": 0.0,
			"-0.023": 0.0,
			"-0.022": 0.0,
			"-0.021": 0.0,
			"-0.02": 0.0,
			"-0.019": 0.0,
			"-0.018": 0.0,
			"-0.017": 0.0,
			"-0.016": 0.0,
			"-0.015": 0.0099565026308,
			"-0.014": 1.02949789432,
			"-0.013": 3.35036975514,
			"-0.012": 3.99437483225,
			"-0.011": 3.7418433826,
			"-0.01": 4.26320339647,
			"-0.009": 4.69340041532,
			"-0.008": 3.94872580705,
			"-0.007": 4.99540907539,
			"-0.006": 14.3071283136,
			"-0.005": 21.0741828736,
			"-0.004": 20.9363300749,
			"-0.003": 18.6691135421,
			"-0.002": 14.3530965698,
			"-0.001": 12.9046882099,
			"0.0": 14.1855766148,
			"0.001": 16.5264949959,
			"0.002": 18.1796169306,
			"0.003": 20.0129059855,
			"0.004": 20.4825803558,
			"0.005": 18.3343361778,
			"0.006": 9.90933545958,
			"0.007": 5.87053214739,
			"0.008": 3.59530720476,
			"0.009": 3.25820600053,
			"0.01": 4.2589894413,
			"0.011": 2.97598414942,
			"0.012": 2.50805418489,
			"0.013": 2.7923340185,
			"0.014": 3.41789075788,
			"0.015": 1.90921162219,
			"0.016": 0.100559198141,
			"0.017": 0.0,
			"0.018": 0.0,
			"0.019": 0.0,
			"0.02": 0.0,
			"0.021": 0.0,
			"0.022": 0.0,
			"0.023": 0.0,
			"0.024": 0.0,
			"0.025": 0.0
		}
	}
}
