{
	 "smiles": "ClC1=CC(Cl)=NC(CC2=CC=CC=C2)=N1", 
	 "Tm": 329.65, 
	 "num_atms": 23, 
	 "gaussian": { 
		 "optdone": 1, 
		 "sigma_profile": "yes", 
		 "theory": "DFT", 
		 "functional": "B3LYP", 
		 "basiset": "6-31G**", 
		 "properties": { 
			 "R2extent": 5025.8182, 
			 "electric_dipole_moment_norm": 0.26174604104, 
			 "electric_quadrupole_moment_norm": 6.11934062052, 
			 "total_energy": -1453.8844207, 
			 "HOMO_LUMO_gap": 0.18699, 
			 "cosmo_polarized_energy": -7.42, 
			 "cosmo_cavitation_energy": 31.99, 
			 "cosmo_dispersion_energy": -22.91, 
			 "cosmo_repulsion_energy": 1.84, 
			 "cosmo_total_nonelectrostatic_energy": 10.91, 
			 "SMD_solvation_energy": 2.02 
		},
		"coords": [
			{
				"x": 3.5766706315,
				"y": -2.2444514839,
				"z": -1.6817407067,
				"element": "Cl" 
			},
			{
				"x": 2.5755703701,
				"y": -1.1966043773,
				"z": -0.6983977144,
				"element": "C" 
			},
			{
				"x": 2.9763510458,
				"y": -0.9144034321,
				"z": 0.6062646003,
				"element": "C" 
			},
			{
				"x": 2.1094221405,
				"y": -0.0675417966,
				"z": 1.2945003252,
				"element": "C" 
			},
			{
				"x": 2.4945581688,
				"y": 0.3763302812,
				"z": 2.9442727107,
				"element": "Cl" 
			},
			{
				"x": 1.0005525909,
				"y": 0.4346956505,
				"z": 0.7781198153,
				"element": "N" 
			},
			{
				"x": 0.7212358231,
				"y": 0.0861123516,
				"z": -0.4880685499,
				"element": "C" 
			},
			{
				"x": -0.5648147877,
				"y": 0.6097616777,
				"z": -1.085501551,
				"element": "C" 
			},
			{
				"x": -1.7241800668,
				"y": -0.3401963756,
				"z": -0.8171712935,
				"element": "C" 
			},
			{
				"x": -2.0152627918,
				"y": -1.3768197884,
				"z": -1.7126535578,
				"element": "C" 
			},
			{
				"x": -3.0641698349,
				"y": -2.2609466588,
				"z": -1.4564963089,
				"element": "C" 
			},
			{
				"x": -3.8323310983,
				"y": -2.1209019352,
				"z": -0.2990423365,
				"element": "C" 
			},
			{
				"x": -3.5447421771,
				"y": -1.0932558121,
				"z": 0.6013002205,
				"element": "C" 
			},
			{
				"x": -2.4956434255,
				"y": -0.2096030717,
				"z": 0.3442919987,
				"element": "C" 
			},
			{
				"x": 1.4760605969,
				"y": -0.7170719474,
				"z": -1.2548224345,
				"element": "N" 
			},
			{
				"x": 3.8805208443,
				"y": -1.3135454894,
				"z": 1.0438814836,
				"element": "H" 
			},
			{
				"x": -0.7721990417,
				"y": 1.5884445959,
				"z": -0.6456649128,
				"element": "H" 
			},
			{
				"x": -0.4181319869,
				"y": 0.7281088986,
				"z": -2.1619540467,
				"element": "H" 
			},
			{
				"x": -1.4155117745,
				"y": -1.4908193974,
				"z": -2.6116350438,
				"element": "H" 
			},
			{
				"x": -3.2821465862,
				"y": -3.0574834356,
				"z": -2.1623367379,
				"element": "H" 
			},
			{
				"x": -4.6509101094,
				"y": -2.8068813312,
				"z": -0.1009586344,
				"element": "H" 
			},
			{
				"x": -4.1382956739,
				"y": -0.9771966974,
				"z": 1.5037525734,
				"element": "H" 
			},
			{
				"x": -2.2704028571,
				"y": 0.5863695746,
				"z": 1.0489601009,
				"element": "H" 
			}
		],
		 "valence_orbital": [ 
			{
				"type": "occ",
				"energy": -0.30619,
				"method": "rhf"
			},
			{
				"type": "occ",
				"energy": -0.28714,
				"method": "rhf"
			},
			{
				"type": "occ",
				"energy": -0.28299,
				"method": "rhf"
			},
			{
				"type": "occ",
				"energy": -0.25101,
				"method": "rhf"
			},
			{
				"type": "occ",
				"energy": -0.24599,
				"method": "rhf"
			},
			{
				"type": "unocc",
				"energy": -0.059,
				"method": "rhf"
			},
			{
				"type": "unocc",
				"energy": -0.05412,
				"method": "rhf"
			},
			{
				"type": "unocc",
				"energy": -0.00338,
				"method": "rhf"
			},
			{
				"type": "unocc",
				"energy": -0.00231,
				"method": "rhf"
			},
			{
				"type": "unocc",
				"energy": 0.00293,
				"method": "rhf"
			}
		],
		"cosmo_sigma_profile": { 
			"-0.025": 0.0,
			"-0.024": 0.0,
			"-0.023": 0.0,
			"-0.022": 0.0,
			"-0.021": 0.0,
			"-0.02": 0.0,
			"-0.019": 0.0,
			"-0.018": 0.0,
			"-0.017": 0.0,
			"-0.016": 0.0,
			"-0.015": 0.0,
			"-0.014": 0.0,
			"-0.013": 0.0,
			"-0.012": 0.0,
			"-0.011": 0.0470127693675,
			"-0.01": 1.43413385453,
			"-0.009": 1.30948497591,
			"-0.008": 1.9108604761,
			"-0.007": 1.4462189399,
			"-0.006": 8.10731970498,
			"-0.005": 18.0498007879,
			"-0.004": 22.2050305257,
			"-0.003": 29.4662736364,
			"-0.002": 23.0481534825,
			"-0.001": 18.5408682783,
			"0.0": 15.9558263872,
			"0.001": 18.2883496777,
			"0.002": 22.1802257495,
			"0.003": 30.2530882151,
			"0.004": 17.1615125422,
			"0.005": 13.0640533102,
			"0.006": 9.36475356908,
			"0.007": 3.13561508671,
			"0.008": 1.77194941141,
			"0.009": 2.06891289961,
			"0.01": 1.16737126979,
			"0.011": 1.18825105692,
			"0.012": 0.810854197022,
			"0.013": 0.0,
			"0.014": 0.0,
			"0.015": 0.0,
			"0.016": 0.0,
			"0.017": 0.0,
			"0.018": 0.0,
			"0.019": 0.0,
			"0.02": 0.0,
			"0.021": 0.0,
			"0.022": 0.0,
			"0.023": 0.0,
			"0.024": 0.0,
			"0.025": 0.0
		}
	}
}
