{
	 "smiles": "COC1=CC(=C(C=C1)S(Cl)(=O)=O)[N+]([O-])=O", 
	 "Tm": 350.15, 
	 "num_atms": 21, 
	 "gaussian": { 
		 "optdone": 1, 
		 "sigma_profile": "yes", 
		 "theory": "DFT", 
		 "functional": "B3LYP", 
		 "basiset": "6-31G**", 
		 "properties": { 
			 "R2extent": 6756.9872, 
			 "electric_dipole_moment_norm": 9.17571530999, 
			 "electric_quadrupole_moment_norm": 18.215411011, 
			 "total_energy": -1559.40543781, 
			 "HOMO_LUMO_gap": 0.16653, 
			 "cosmo_polarized_energy": -16.45, 
			 "cosmo_cavitation_energy": 29.63, 
			 "cosmo_dispersion_energy": -22.1, 
			 "cosmo_repulsion_energy": 1.67, 
			 "cosmo_total_nonelectrostatic_energy": 9.2, 
			 "SMD_solvation_energy": 6.92 
		},
		"coords": [
			{
				"x": 2.3374248085,
				"y": -0.0995651404,
				"z": -2.1441333466,
				"element": "C" 
			},
			{
				"x": 1.4201684347,
				"y": 0.9612241632,
				"z": -1.8810386917,
				"element": "O" 
			},
			{
				"x": 0.9315261644,
				"y": 1.1016543045,
				"z": -0.6322430403,
				"element": "C" 
			},
			{
				"x": 0.0243552267,
				"y": 2.158938473,
				"z": -0.4525878029,
				"element": "C" 
			},
			{
				"x": -0.5418895411,
				"y": 2.3811428268,
				"z": 0.7887948014,
				"element": "C" 
			},
			{
				"x": -0.1962582641,
				"y": 1.5939124129,
				"z": 1.9037916101,
				"element": "C" 
			},
			{
				"x": 0.694409681,
				"y": 0.5412856559,
				"z": 1.7092126831,
				"element": "C" 
			},
			{
				"x": 1.2510657596,
				"y": 0.2817840926,
				"z": 0.4567547451,
				"element": "C" 
			},
			{
				"x": -0.8595408407,
				"y": 1.9319176476,
				"z": 3.5563604931,
				"element": "S" 
			},
			{
				"x": 0.7430618814,
				"y": 1.1868083499,
				"z": 4.789512741,
				"element": "Cl" 
			},
			{
				"x": -0.860468718,
				"y": 3.3648902237,
				"z": 3.7963928469,
				"element": "O" 
			},
			{
				"x": -1.9915411862,
				"y": 1.0642307423,
				"z": 3.8365154004,
				"element": "O" 
			},
			{
				"x": -1.5937012987,
				"y": 3.4179038793,
				"z": 0.8420431599,
				"element": "N" 
			},
			{
				"x": -1.4763260322,
				"y": 4.3791541264,
				"z": 0.090254932,
				"element": "O" 
			},
			{
				"x": -2.5359362578,
				"y": 3.2061452336,
				"z": 1.598898652,
				"element": "O" 
			},
			{
				"x": 2.5909594103,
				"y": -0.0147879839,
				"z": -3.2005661057,
				"element": "H" 
			},
			{
				"x": 3.2471304364,
				"y": 0.0031785587,
				"z": -1.5413875565,
				"element": "H" 
			},
			{
				"x": 1.8787752288,
				"y": -1.0772805844,
				"z": -1.9564551796,
				"element": "H" 
			},
			{
				"x": -0.248870673,
				"y": 2.7893382623,
				"z": -1.2892974154,
				"element": "H" 
			},
			{
				"x": 0.9820145956,
				"y": -0.078179089,
				"z": 2.5491582282,
				"element": "H" 
			},
			{
				"x": 1.9370411844,
				"y": -0.549096155,
				"z": 0.3518188455,
				"element": "H" 
			}
		],
		 "valence_orbital": [ 
			{
				"type": "occ",
				"energy": -0.32579,
				"method": "rhf"
			},
			{
				"type": "occ",
				"energy": -0.32082,
				"method": "rhf"
			},
			{
				"type": "occ",
				"energy": -0.31445,
				"method": "rhf"
			},
			{
				"type": "occ",
				"energy": -0.30071,
				"method": "rhf"
			},
			{
				"type": "occ",
				"energy": -0.2743,
				"method": "rhf"
			},
			{
				"type": "unocc",
				"energy": -0.10777,
				"method": "rhf"
			},
			{
				"type": "unocc",
				"energy": -0.09256,
				"method": "rhf"
			},
			{
				"type": "unocc",
				"energy": -0.05675,
				"method": "rhf"
			},
			{
				"type": "unocc",
				"energy": -0.03377,
				"method": "rhf"
			},
			{
				"type": "unocc",
				"energy": 0.02464,
				"method": "rhf"
			}
		],
		"cosmo_sigma_profile": { 
			"-0.025": 0.0,
			"-0.024": 0.0,
			"-0.023": 0.0,
			"-0.022": 0.0,
			"-0.021": 0.0,
			"-0.02": 0.0,
			"-0.019": 0.0,
			"-0.018": 0.0,
			"-0.017": 0.0,
			"-0.016": 0.0,
			"-0.015": 0.0,
			"-0.014": 0.0,
			"-0.013": 0.0,
			"-0.012": 0.0,
			"-0.011": 0.0,
			"-0.01": 0.638820220103,
			"-0.009": 5.86913629047,
			"-0.008": 7.9756765214,
			"-0.007": 11.9097490353,
			"-0.006": 14.3830205174,
			"-0.005": 12.8105132674,
			"-0.004": 15.566166567,
			"-0.003": 14.7746997791,
			"-0.002": 19.1706912721,
			"-0.001": 18.0476011422,
			"0.0": 13.9613731764,
			"0.001": 10.3657126571,
			"0.002": 10.7634512592,
			"0.003": 14.5706568332,
			"0.004": 11.6191054392,
			"0.005": 8.23526241735,
			"0.006": 14.8786005249,
			"0.007": 18.2938188763,
			"0.008": 14.7464956284,
			"0.009": 1.90153102248,
			"0.01": 0.0,
			"0.011": 0.0,
			"0.012": 0.0,
			"0.013": 0.0,
			"0.014": 0.0,
			"0.015": 0.0,
			"0.016": 0.0,
			"0.017": 0.0,
			"0.018": 0.0,
			"0.019": 0.0,
			"0.02": 0.0,
			"0.021": 0.0,
			"0.022": 0.0,
			"0.023": 0.0,
			"0.024": 0.0,
			"0.025": 0.0
		}
	}
}
