{
	 "smiles": "CC(OC1=C(F)C=C(C=CC(O)=O)C=C1)C1=CC=CC=C1", 
	 "Tm": 442.15, 
	 "num_atms": 36, 
	 "gaussian": { 
		 "optdone": 1, 
		 "sigma_profile": "yes", 
		 "theory": "DFT", 
		 "functional": "B3LYP", 
		 "basiset": "6-31G**", 
		 "properties": { 
			 "R2extent": 8312.8733, 
			 "electric_dipole_moment_norm": 3.06973089374, 
			 "electric_quadrupole_moment_norm": 6.71417715212, 
			 "total_energy": -982.342936384, 
			 "HOMO_LUMO_gap": 0.15928, 
			 "cosmo_polarized_energy": -12.69, 
			 "cosmo_cavitation_energy": 40.53, 
			 "cosmo_dispersion_energy": -28.14, 
			 "cosmo_repulsion_energy": 2.12, 
			 "cosmo_total_nonelectrostatic_energy": 14.52, 
			 "SMD_solvation_energy": 8.45 
		},
		"coords": [
			{
				"x": 2.9938105168,
				"y": -0.9600652181,
				"z": 1.0829998707,
				"element": "C" 
			},
			{
				"x": 2.1629273217,
				"y": -0.4605834949,
				"z": 2.2595879342,
				"element": "C" 
			},
			{
				"x": 0.762299997,
				"y": -0.8643560261,
				"z": 2.1384225178,
				"element": "O" 
			},
			{
				"x": 0.0570266112,
				"y": -0.4782811198,
				"z": 1.0310234815,
				"element": "C" 
			},
			{
				"x": -0.1195166992,
				"y": -1.381590296,
				"z": -0.029415675,
				"element": "C" 
			},
			{
				"x": 0.4964984951,
				"y": -2.5796906307,
				"z": 0.0419801412,
				"element": "F" 
			},
			{
				"x": -0.8927916826,
				"y": -1.0924684111,
				"z": -1.1386038517,
				"element": "C" 
			},
			{
				"x": -1.5405670268,
				"y": 0.1571033555,
				"z": -1.2259548428,
				"element": "C" 
			},
			{
				"x": -2.3878359929,
				"y": 0.6009799164,
				"z": -2.3321210235,
				"element": "C" 
			},
			{
				"x": -2.7997671201,
				"y": 0.0820022886,
				"z": -3.5150509527,
				"element": "C" 
			},
			{
				"x": -2.5115971127,
				"y": -1.2128890109,
				"z": -4.1500793801,
				"element": "C" 
			},
			{
				"x": -3.1530514609,
				"y": -1.2938908535,
				"z": -5.3480411822,
				"element": "O" 
			},
			{
				"x": -1.8197326144,
				"y": -2.1352195911,
				"z": -3.750316902,
				"element": "O" 
			},
			{
				"x": -1.3723693136,
				"y": 1.0676131715,
				"z": -0.1601627414,
				"element": "C" 
			},
			{
				"x": -0.591542754,
				"y": 0.7585998543,
				"z": 0.9480925365,
				"element": "C" 
			},
			{
				"x": 2.2760708985,
				"y": 1.0261400734,
				"z": 2.5721051579,
				"element": "C" 
			},
			{
				"x": 2.8908658663,
				"y": 1.9459470158,
				"z": 1.7160191973,
				"element": "C" 
			},
			{
				"x": 2.9563667855,
				"y": 3.3012441481,
				"z": 2.0532690972,
				"element": "C" 
			},
			{
				"x": 2.4043993143,
				"y": 3.7546070117,
				"z": 3.2502084941,
				"element": "C" 
			},
			{
				"x": 1.7871245142,
				"y": 2.8447095398,
				"z": 4.1142215102,
				"element": "C" 
			},
			{
				"x": 1.7273690811,
				"y": 1.4946944392,
				"z": 3.7766292632,
				"element": "C" 
			},
			{
				"x": 2.8432520662,
				"y": -2.0336676284,
				"z": 0.9597593322,
				"element": "H" 
			},
			{
				"x": 4.0560044171,
				"y": -0.7690569391,
				"z": 1.2631365669,
				"element": "H" 
			},
			{
				"x": 2.712931529,
				"y": -0.4702266633,
				"z": 0.14605059,
				"element": "H" 
			},
			{
				"x": 2.4652147801,
				"y": -1.0130361434,
				"z": 3.1551571094,
				"element": "H" 
			},
			{
				"x": -0.9933921769,
				"y": -1.8246148258,
				"z": -1.9292799713,
				"element": "H" 
			},
			{
				"x": -2.7826595366,
				"y": 1.6009776861,
				"z": -2.1527028937,
				"element": "H" 
			},
			{
				"x": -3.4523529258,
				"y": 0.7077232985,
				"z": -4.1156848127,
				"element": "H" 
			},
			{
				"x": -2.9223346904,
				"y": -2.1653455632,
				"z": -5.709580487,
				"element": "H" 
			},
			{
				"x": -1.869777132,
				"y": 2.0325511312,
				"z": -0.2030735681,
				"element": "H" 
			},
			{
				"x": -0.4822799302,
				"y": 1.460336668,
				"z": 1.7665533042,
				"element": "H" 
			},
			{
				"x": 3.3278860832,
				"y": 1.6130519752,
				"z": 0.7804207987,
				"element": "H" 
			},
			{
				"x": 3.4392902337,
				"y": 4.0005142661,
				"z": 1.3765339842,
				"element": "H" 
			},
			{
				"x": 2.4565287626,
				"y": 4.8074729398,
				"z": 3.5122920471,
				"element": "H" 
			},
			{
				"x": 1.3584865335,
				"y": 3.1879235656,
				"z": 5.0516250009,
				"element": "H" 
			},
			{
				"x": 1.242314362,
				"y": 0.7887900706,
				"z": 4.4459803488,
				"element": "H" 
			}
		],
		 "valence_orbital": [ 
			{
				"type": "occ",
				"energy": -0.27096,
				"method": "rhf"
			},
			{
				"type": "occ",
				"energy": -0.25719,
				"method": "rhf"
			},
			{
				"type": "occ",
				"energy": -0.25196,
				"method": "rhf"
			},
			{
				"type": "occ",
				"energy": -0.24737,
				"method": "rhf"
			},
			{
				"type": "occ",
				"energy": -0.22825,
				"method": "rhf"
			},
			{
				"type": "unocc",
				"energy": -0.06897,
				"method": "rhf"
			},
			{
				"type": "unocc",
				"energy": -0.0165,
				"method": "rhf"
			},
			{
				"type": "unocc",
				"energy": -0.00696,
				"method": "rhf"
			},
			{
				"type": "unocc",
				"energy": 0.00121,
				"method": "rhf"
			},
			{
				"type": "unocc",
				"energy": 0.01806,
				"method": "rhf"
			}
		],
		"cosmo_sigma_profile": { 
			"-0.025": 0.0,
			"-0.024": 0.0,
			"-0.023": 0.0,
			"-0.022": 0.0,
			"-0.021": 0.0,
			"-0.02": 0.0,
			"-0.019": 0.0,
			"-0.018": 0.513780280833,
			"-0.017": 0.852086081527,
			"-0.016": 0.763731618146,
			"-0.015": 0.83052203641,
			"-0.014": 1.26249125127,
			"-0.013": 0.0931811838103,
			"-0.012": 0.323674711571,
			"-0.011": 0.708684678512,
			"-0.01": 1.19429796651,
			"-0.009": 0.515882775455,
			"-0.008": 2.78918382846,
			"-0.007": 5.66386578595,
			"-0.006": 12.6447067043,
			"-0.005": 22.8417393597,
			"-0.004": 23.5808849755,
			"-0.003": 24.136236925,
			"-0.002": 21.679658489,
			"-0.001": 22.1143279821,
			"0.0": 25.919754096,
			"0.001": 30.0222071639,
			"0.002": 32.1198668922,
			"0.003": 28.1556290993,
			"0.004": 21.6592655297,
			"0.005": 14.8279044683,
			"0.006": 6.68476226658,
			"0.007": 4.63235935513,
			"0.008": 3.71582531054,
			"0.009": 4.99865076152,
			"0.01": 4.05400989621,
			"0.011": 2.90271722705,
			"0.012": 1.42061305298,
			"0.013": 0.0247626494252,
			"0.014": 0.0,
			"0.015": 0.0,
			"0.016": 0.0,
			"0.017": 0.0,
			"0.018": 0.0,
			"0.019": 0.0,
			"0.02": 0.0,
			"0.021": 0.0,
			"0.022": 0.0,
			"0.023": 0.0,
			"0.024": 0.0,
			"0.025": 0.0
		}
	}
}
