{
	 "smiles": "CC(=O)C(F)(F)F", 
	 "Tm": 195.15, 
	 "num_atms": 10, 
	 "gaussian": { 
		 "optdone": 1, 
		 "sigma_profile": "yes", 
		 "theory": "DFT", 
		 "functional": "B3LYP", 
		 "basiset": "6-31G**", 
		 "properties": { 
			 "R2extent": 1017.0889, 
			 "electric_dipole_moment_norm": 2.44036877131, 
			 "electric_quadrupole_moment_norm": 3.81869499568, 
			 "total_energy": -490.862343504, 
			 "HOMO_LUMO_gap": 0.22625, 
			 "cosmo_polarized_energy": -5.16, 
			 "cosmo_cavitation_energy": 15.83, 
			 "cosmo_dispersion_energy": -11.1, 
			 "cosmo_repulsion_energy": 0.91, 
			 "cosmo_total_nonelectrostatic_energy": 5.63, 
			 "SMD_solvation_energy": 5.09 
		},
		"coords": [
			{
				"x": -0.0023066801,
				"y": -0.5153885491,
				"z": 1.1433160248,
				"element": "C" 
			},
			{
				"x": -0.0189555147,
				"y": -1.1002427085,
				"z": -0.2454017552,
				"element": "C" 
			},
			{
				"x": -0.9166273286,
				"y": -1.7536593245,
				"z": -0.7203756955,
				"element": "O" 
			},
			{
				"x": 1.245308678,
				"y": -0.8081997822,
				"z": -1.0957396902,
				"element": "C" 
			},
			{
				"x": 1.1685702998,
				"y": -1.3504917228,
				"z": -2.3093652457,
				"element": "F" 
			},
			{
				"x": 1.4104903978,
				"y": 0.5271385084,
				"z": -1.2266489153,
				"element": "F" 
			},
			{
				"x": 2.340135473,
				"y": -1.2962825828,
				"z": -0.4706674924,
				"element": "F" 
			},
			{
				"x": 0.110354436,
				"y": 0.5725326283,
				"z": 1.0882078091,
				"element": "H" 
			},
			{
				"x": 0.8601762207,
				"y": -0.8987401009,
				"z": 1.6986913259,
				"element": "H" 
			},
			{
				"x": -0.9271459819,
				"y": -0.772466366,
				"z": 1.6595836344,
				"element": "H" 
			}
		],
		 "valence_orbital": [ 
			{
				"type": "occ",
				"energy": -0.42905,
				"method": "rhf"
			},
			{
				"type": "occ",
				"energy": -0.41306,
				"method": "rhf"
			},
			{
				"type": "occ",
				"energy": -0.40028,
				"method": "rhf"
			},
			{
				"type": "occ",
				"energy": -0.38779,
				"method": "rhf"
			},
			{
				"type": "occ",
				"energy": -0.28194,
				"method": "rhf"
			},
			{
				"type": "unocc",
				"energy": -0.05569,
				"method": "rhf"
			},
			{
				"type": "unocc",
				"energy": 0.10078,
				"method": "rhf"
			},
			{
				"type": "unocc",
				"energy": 0.11429,
				"method": "rhf"
			},
			{
				"type": "unocc",
				"energy": 0.13342,
				"method": "rhf"
			},
			{
				"type": "unocc",
				"energy": 0.17025,
				"method": "rhf"
			}
		],
		"cosmo_sigma_profile": { 
			"-0.025": 0.0,
			"-0.024": 0.0,
			"-0.023": 0.0,
			"-0.022": 0.0,
			"-0.021": 0.0,
			"-0.02": 0.0,
			"-0.019": 0.0,
			"-0.018": 0.0,
			"-0.017": 0.0,
			"-0.016": 0.0,
			"-0.015": 0.0,
			"-0.014": 0.0,
			"-0.013": 0.0,
			"-0.012": 0.0,
			"-0.011": 0.0,
			"-0.01": 0.0,
			"-0.009": 0.0,
			"-0.008": 0.584731391445,
			"-0.007": 6.15535879287,
			"-0.006": 8.48214585846,
			"-0.005": 8.52404616946,
			"-0.004": 9.42495975602,
			"-0.003": 9.19187498197,
			"-0.002": 7.39243360136,
			"-0.001": 6.65261100723,
			"0.0": 5.93219440866,
			"0.001": 12.0695341766,
			"0.002": 27.2543114734,
			"0.003": 5.56098504739,
			"0.004": 2.31286771755,
			"0.005": 2.23390068971,
			"0.006": 1.80454395261,
			"0.007": 2.1693941254,
			"0.008": 2.55188661381,
			"0.009": 4.17127203136,
			"0.01": 3.30659760252,
			"0.011": 0.568058033125,
			"0.012": 0.0,
			"0.013": 0.0,
			"0.014": 0.0,
			"0.015": 0.0,
			"0.016": 0.0,
			"0.017": 0.0,
			"0.018": 0.0,
			"0.019": 0.0,
			"0.02": 0.0,
			"0.021": 0.0,
			"0.022": 0.0,
			"0.023": 0.0,
			"0.024": 0.0,
			"0.025": 0.0
		}
	}
}
