{
	 "smiles": "NC(=O)CNC(=O)C1=CC(N)=CC=C1", 
	 "Tm": 444.15, 
	 "num_atms": 25, 
	 "gaussian": { 
		 "optdone": 1, 
		 "sigma_profile": "yes", 
		 "theory": "DFT", 
		 "functional": "B3LYP", 
		 "basiset": "6-31G**", 
		 "properties": { 
			 "R2extent": 4330.5521, 
			 "electric_dipole_moment_norm": 5.30970600128, 
			 "electric_quadrupole_moment_norm": 19.0608762658, 
			 "total_energy": -664.329993678, 
			 "HOMO_LUMO_gap": 0.17604, 
			 "cosmo_polarized_energy": -21.76, 
			 "cosmo_cavitation_energy": 29.36, 
			 "cosmo_dispersion_energy": -21.61, 
			 "cosmo_repulsion_energy": 1.73, 
			 "cosmo_total_nonelectrostatic_energy": 9.49, 
			 "SMD_solvation_energy": 5.62 
		},
		"coords": [
			{
				"x": 0.3674477617,
				"y": 3.4519296634,
				"z": 2.8892085924,
				"element": "N" 
			},
			{
				"x": -0.5519926483,
				"y": 2.647070491,
				"z": 3.4834119691,
				"element": "C" 
			},
			{
				"x": -1.4167554818,
				"y": 3.0351332967,
				"z": 4.2567520214,
				"element": "O" 
			},
			{
				"x": -0.4040413302,
				"y": 1.1568214816,
				"z": 3.1130219053,
				"element": "C" 
			},
			{
				"x": -0.7318687928,
				"y": 0.8687375482,
				"z": 1.7201891867,
				"element": "N" 
			},
			{
				"x": 0.1711192815,
				"y": 1.0431667097,
				"z": 0.714229324,
				"element": "C" 
			},
			{
				"x": 1.2976655261,
				"y": 1.5041090127,
				"z": 0.9332366489,
				"element": "O" 
			},
			{
				"x": -0.2601901405,
				"y": 0.6331368151,
				"z": -0.6625689255,
				"element": "C" 
			},
			{
				"x": -1.6052081415,
				"y": 0.6007851341,
				"z": -1.0509255241,
				"element": "C" 
			},
			{
				"x": -1.9683677952,
				"y": 0.2121082944,
				"z": -2.3509398829,
				"element": "C" 
			},
			{
				"x": -3.3004493691,
				"y": 0.250705875,
				"z": -2.7588010901,
				"element": "N" 
			},
			{
				"x": -0.9512067499,
				"y": -0.15172173,
				"z": -3.2515873431,
				"element": "C" 
			},
			{
				"x": 0.3853821287,
				"y": -0.1061264443,
				"z": -2.863219659,
				"element": "C" 
			},
			{
				"x": 0.7437434687,
				"y": 0.2915982622,
				"z": -1.5764641125,
				"element": "C" 
			},
			{
				"x": 0.2867056707,
				"y": 4.4480207749,
				"z": 3.0268744603,
				"element": "H" 
			},
			{
				"x": 1.0025606185,
				"y": 3.0716926405,
				"z": 2.1946933989,
				"element": "H" 
			},
			{
				"x": -1.0847362711,
				"y": 0.5992628759,
				"z": 3.756098046,
				"element": "H" 
			},
			{
				"x": 0.6254688755,
				"y": 0.8325682801,
				"z": 3.2997271143,
				"element": "H" 
			},
			{
				"x": -1.6091346562,
				"y": 0.4157117919,
				"z": 1.5202814992,
				"element": "H" 
			},
			{
				"x": -2.386547516,
				"y": 0.9292111769,
				"z": -0.369461298,
				"element": "H" 
			},
			{
				"x": -3.5292989394,
				"y": -0.3260778366,
				"z": -3.555967793,
				"element": "H" 
			},
			{
				"x": -3.988626691,
				"y": 0.1766788745,
				"z": -2.0229752688,
				"element": "H" 
			},
			{
				"x": -1.2162726827,
				"y": -0.4545534088,
				"z": -4.2615997079,
				"element": "H" 
			},
			{
				"x": 1.1554705397,
				"y": -0.3851797758,
				"z": -3.5766800649,
				"element": "H" 
			},
			{
				"x": 1.7794333346,
				"y": 0.3431101967,
				"z": -1.2623334968,
				"element": "H" 
			}
		],
		 "valence_orbital": [ 
			{
				"type": "occ",
				"energy": -0.26901,
				"method": "rhf"
			},
			{
				"type": "occ",
				"energy": -0.25864,
				"method": "rhf"
			},
			{
				"type": "occ",
				"energy": -0.25491,
				"method": "rhf"
			},
			{
				"type": "occ",
				"energy": -0.23231,
				"method": "rhf"
			},
			{
				"type": "occ",
				"energy": -0.21507,
				"method": "rhf"
			},
			{
				"type": "unocc",
				"energy": -0.03903,
				"method": "rhf"
			},
			{
				"type": "unocc",
				"energy": 0.0008,
				"method": "rhf"
			},
			{
				"type": "unocc",
				"energy": 0.03129,
				"method": "rhf"
			},
			{
				"type": "unocc",
				"energy": 0.05237,
				"method": "rhf"
			},
			{
				"type": "unocc",
				"energy": 0.06964,
				"method": "rhf"
			}
		],
		"cosmo_sigma_profile": { 
			"-0.025": 0.0,
			"-0.024": 0.0,
			"-0.023": 0.0,
			"-0.022": 0.0,
			"-0.021": 0.0,
			"-0.02": 0.0,
			"-0.019": 0.0,
			"-0.018": 0.0,
			"-0.017": 0.0,
			"-0.016": 0.0105923412333,
			"-0.015": 0.793350642902,
			"-0.014": 1.69138139187,
			"-0.013": 3.64263641212,
			"-0.012": 4.91139663124,
			"-0.011": 4.71749886911,
			"-0.01": 6.0948010772,
			"-0.009": 6.73585619641,
			"-0.008": 7.14545935417,
			"-0.007": 6.2026440888,
			"-0.006": 10.5425015454,
			"-0.005": 11.6712159545,
			"-0.004": 13.6198871924,
			"-0.003": 11.5280622788,
			"-0.002": 10.1214128478,
			"-0.001": 12.4990056509,
			"0.0": 13.5622711082,
			"0.001": 12.5928240183,
			"0.002": 11.2342744684,
			"0.003": 10.3290739104,
			"0.004": 12.2051259741,
			"0.005": 16.1075666273,
			"0.006": 8.20037877754,
			"0.007": 2.71962177928,
			"0.008": 3.39977797339,
			"0.009": 3.68751644737,
			"0.01": 3.59872499052,
			"0.011": 4.00545342743,
			"0.012": 4.46120772402,
			"0.013": 7.08495218742,
			"0.014": 6.1653226302,
			"0.015": 1.29296806532,
			"0.016": 0.0,
			"0.017": 0.0,
			"0.018": 0.0,
			"0.019": 0.0,
			"0.02": 0.0,
			"0.021": 0.0,
			"0.022": 0.0,
			"0.023": 0.0,
			"0.024": 0.0,
			"0.025": 0.0
		}
	}
}
