{
	 "smiles": "CCCCCCCCCCCC(C)C", 
	 "Tm": 248.15, 
	 "num_atms": 44, 
	 "gaussian": { 
		 "optdone": 1, 
		 "sigma_profile": "yes", 
		 "theory": "DFT", 
		 "functional": "B3LYP", 
		 "basiset": "6-31G**", 
		 "properties": { 
			 "R2extent": 6681.994, 
			 "electric_dipole_moment_norm": 0.107679060174, 
			 "electric_quadrupole_moment_norm": 0.599093732232, 
			 "total_energy": -551.615569914, 
			 "HOMO_LUMO_gap": 0.36861, 
			 "cosmo_polarized_energy": -0.97, 
			 "cosmo_cavitation_energy": 42.24, 
			 "cosmo_dispersion_energy": -28.79, 
			 "cosmo_repulsion_energy": 2.35, 
			 "cosmo_total_nonelectrostatic_energy": 15.8, 
			 "SMD_solvation_energy": 5.91 
		},
		"coords": [
			{
				"x": 5.070092602,
				"y": 2.2538524954,
				"z": 2.0029626142,
				"element": "C" 
			},
			{
				"x": 4.3299944695,
				"y": 0.9447105021,
				"z": 1.7038196244,
				"element": "C" 
			},
			{
				"x": 4.5973123584,
				"y": 0.3699825977,
				"z": 0.3015710604,
				"element": "C" 
			},
			{
				"x": 4.1595484489,
				"y": 1.2559527973,
				"z": -0.8801790268,
				"element": "C" 
			},
			{
				"x": 2.659592078,
				"y": 1.5952903303,
				"z": -0.9441774922,
				"element": "C" 
			},
			{
				"x": 1.7415883363,
				"y": 0.3762045297,
				"z": -1.1236843938,
				"element": "C" 
			},
			{
				"x": 0.2613310733,
				"y": 0.7182915096,
				"z": -1.3659051042,
				"element": "C" 
			},
			{
				"x": -0.4382284995,
				"y": 1.4031116071,
				"z": -0.179642161,
				"element": "C" 
			},
			{
				"x": -1.9446201091,
				"y": 1.6834704846,
				"z": -0.3855991569,
				"element": "C" 
			},
			{
				"x": -2.910512984,
				"y": 0.5943653836,
				"z": 0.1176505419,
				"element": "C" 
			},
			{
				"x": -2.8283199878,
				"y": -0.7588749436,
				"z": -0.6037950556,
				"element": "C" 
			},
			{
				"x": -3.9410163885,
				"y": -1.759791051,
				"z": -0.2300640771,
				"element": "C" 
			},
			{
				"x": -3.8762173215,
				"y": -2.9996450855,
				"z": -1.1344865717,
				"element": "C" 
			},
			{
				"x": -3.8911645224,
				"y": -2.1704555566,
				"z": 1.2497771524,
				"element": "C" 
			},
			{
				"x": 6.1522828715,
				"y": 2.1337992855,
				"z": 1.8737994748,
				"element": "H" 
			},
			{
				"x": 4.8934107571,
				"y": 2.5803715311,
				"z": 3.0332006106,
				"element": "H" 
			},
			{
				"x": 4.7480419604,
				"y": 3.0660447773,
				"z": 1.3429320141,
				"element": "H" 
			},
			{
				"x": 3.2518750524,
				"y": 1.0949889218,
				"z": 1.8457604072,
				"element": "H" 
			},
			{
				"x": 4.6247605112,
				"y": 0.1914088388,
				"z": 2.4457623617,
				"element": "H" 
			},
			{
				"x": 4.1075936516,
				"y": -0.6089521911,
				"z": 0.2233248155,
				"element": "H" 
			},
			{
				"x": 5.6738411279,
				"y": 0.1730457567,
				"z": 0.2026633089,
				"element": "H" 
			},
			{
				"x": 4.7311612244,
				"y": 2.1926218756,
				"z": -0.8624048049,
				"element": "H" 
			},
			{
				"x": 4.4462420769,
				"y": 0.7507869496,
				"z": -1.8128723665,
				"element": "H" 
			},
			{
				"x": 2.4973674689,
				"y": 2.282876726,
				"z": -1.7860792539,
				"element": "H" 
			},
			{
				"x": 2.3703359058,
				"y": 2.1529301106,
				"z": -0.044810371,
				"element": "H" 
			},
			{
				"x": 2.1087545518,
				"y": -0.215059653,
				"z": -1.9743071789,
				"element": "H" 
			},
			{
				"x": 1.8154660417,
				"y": -0.2804989998,
				"z": -0.2461521185,
				"element": "H" 
			},
			{
				"x": 0.1811989186,
				"y": 1.3704383261,
				"z": -2.2478332726,
				"element": "H" 
			},
			{
				"x": -0.2718320008,
				"y": -0.2033812412,
				"z": -1.6253536379,
				"element": "H" 
			},
			{
				"x": -0.3009819912,
				"y": 0.7946880377,
				"z": 0.7265042315,
				"element": "H" 
			},
			{
				"x": 0.0696486606,
				"y": 2.353726183,
				"z": 0.0220251799,
				"element": "H" 
			},
			{
				"x": -2.1359291961,
				"y": 1.8787711794,
				"z": -1.4504919656,
				"element": "H" 
			},
			{
				"x": -2.2032359404,
				"y": 2.6130089285,
				"z": 0.1369000511,
				"element": "H" 
			},
			{
				"x": -2.741518458,
				"y": 0.4523363083,
				"z": 1.1932159698,
				"element": "H" 
			},
			{
				"x": -3.9366020137,
				"y": 0.9773684752,
				"z": 0.0219375799,
				"element": "H" 
			},
			{
				"x": -1.8554800854,
				"y": -1.23100425,
				"z": -0.4079539386,
				"element": "H" 
			},
			{
				"x": -2.8694428553,
				"y": -0.583515375,
				"z": -1.6882101288,
				"element": "H" 
			},
			{
				"x": -4.9070346324,
				"y": -1.2632467127,
				"z": -0.4096787129,
				"element": "H" 
			},
			{
				"x": -4.6868036833,
				"y": -3.701027509,
				"z": -0.9080784753,
				"element": "H" 
			},
			{
				"x": -2.9282415781,
				"y": -3.5347420052,
				"z": -0.9978309972,
				"element": "H" 
			},
			{
				"x": -3.9537372806,
				"y": -2.727694901,
				"z": -2.1929920163,
				"element": "H" 
			},
			{
				"x": -4.6834905777,
				"y": -2.8900513238,
				"z": 1.4835160777,
				"element": "H" 
			},
			{
				"x": -2.9315407755,
				"y": -2.6457841202,
				"z": 1.4895053188,
				"element": "H" 
			},
			{
				"x": -4.0156892657,
				"y": -1.31471953,
				"z": 1.9201538833,
				"element": "H" 
			}
		],
		 "valence_orbital": [ 
			{
				"type": "occ",
				"energy": -0.30928,
				"method": "rhf"
			},
			{
				"type": "occ",
				"energy": -0.30642,
				"method": "rhf"
			},
			{
				"type": "occ",
				"energy": -0.30144,
				"method": "rhf"
			},
			{
				"type": "occ",
				"energy": -0.29431,
				"method": "rhf"
			},
			{
				"type": "occ",
				"energy": -0.29037,
				"method": "rhf"
			},
			{
				"type": "unocc",
				"energy": 0.07824,
				"method": "rhf"
			},
			{
				"type": "unocc",
				"energy": 0.08741,
				"method": "rhf"
			},
			{
				"type": "unocc",
				"energy": 0.10114,
				"method": "rhf"
			},
			{
				"type": "unocc",
				"energy": 0.10511,
				"method": "rhf"
			},
			{
				"type": "unocc",
				"energy": 0.1122,
				"method": "rhf"
			}
		],
		"cosmo_sigma_profile": { 
			"-0.025": 0.0,
			"-0.024": 0.0,
			"-0.023": 0.0,
			"-0.022": 0.0,
			"-0.021": 0.0,
			"-0.02": 0.0,
			"-0.019": 0.0,
			"-0.018": 0.0,
			"-0.017": 0.0,
			"-0.016": 0.0,
			"-0.015": 0.0,
			"-0.014": 0.0,
			"-0.013": 0.0,
			"-0.012": 0.0,
			"-0.011": 0.0,
			"-0.01": 0.0,
			"-0.009": 0.0,
			"-0.008": 0.0,
			"-0.007": 0.0,
			"-0.006": 0.0,
			"-0.005": 0.0,
			"-0.004": 0.0,
			"-0.003": 2.66488448322,
			"-0.002": 35.5307816844,
			"-0.001": 78.3577656617,
			"0.0": 88.6578008044,
			"0.001": 76.7192624584,
			"0.002": 38.3582268723,
			"0.003": 1.69788321962,
			"0.004": 0.0,
			"0.005": 0.0,
			"0.006": 0.0,
			"0.007": 0.0,
			"0.008": 0.0,
			"0.009": 0.0,
			"0.01": 0.0,
			"0.011": 0.0,
			"0.012": 0.0,
			"0.013": 0.0,
			"0.014": 0.0,
			"0.015": 0.0,
			"0.016": 0.0,
			"0.017": 0.0,
			"0.018": 0.0,
			"0.019": 0.0,
			"0.02": 0.0,
			"0.021": 0.0,
			"0.022": 0.0,
			"0.023": 0.0,
			"0.024": 0.0,
			"0.025": 0.0
		}
	}
}
