{
	 "smiles": "COC1=CC=C(CN2N=NN=C2S)C=C1", 
	 "Tm": 424.15, 
	 "num_atms": 25, 
	 "gaussian": { 
		 "optdone": 1, 
		 "sigma_profile": "yes", 
		 "theory": "DFT", 
		 "functional": "B3LYP", 
		 "basiset": "6-31G**", 
		 "properties": { 
			 "R2extent": 4775.131, 
			 "electric_dipole_moment_norm": 6.57860955066, 
			 "electric_quadrupole_moment_norm": 19.5486412858, 
			 "total_energy": -1041.32737521, 
			 "HOMO_LUMO_gap": 0.21203, 
			 "cosmo_polarized_energy": -16.39, 
			 "cosmo_cavitation_energy": 31.62, 
			 "cosmo_dispersion_energy": -22.82, 
			 "cosmo_repulsion_energy": 1.74, 
			 "cosmo_total_nonelectrostatic_energy": 10.55, 
			 "SMD_solvation_energy": 3.74 
		},
		"coords": [
			{
				"x": 2.2584136414,
				"y": 3.2090125103,
				"z": 2.171666467,
				"element": "C" 
			},
			{
				"x": 2.6254505833,
				"y": 2.0944375908,
				"z": 1.3722479248,
				"element": "O" 
			},
			{
				"x": 1.6423411432,
				"y": 1.26140956,
				"z": 0.9332223508,
				"element": "C" 
			},
			{
				"x": 0.2811567793,
				"y": 1.4150470042,
				"z": 1.2164422669,
				"element": "C" 
			},
			{
				"x": -0.635937722,
				"y": 0.4920519119,
				"z": 0.7036208492,
				"element": "C" 
			},
			{
				"x": -0.2214280769,
				"y": -0.5841730955,
				"z": -0.0801829767,
				"element": "C" 
			},
			{
				"x": -1.2205746724,
				"y": -1.5912557769,
				"z": -0.6071169918,
				"element": "C" 
			},
			{
				"x": -1.2291378575,
				"y": -1.6946033297,
				"z": -2.0692092606,
				"element": "N" 
			},
			{
				"x": -0.6389877875,
				"y": -2.7438935999,
				"z": -2.7045842037,
				"element": "N" 
			},
			{
				"x": -0.8003536015,
				"y": -2.5472258608,
				"z": -3.9696198503,
				"element": "N" 
			},
			{
				"x": -1.4737765715,
				"y": -1.390620623,
				"z": -4.2113017484,
				"element": "N" 
			},
			{
				"x": -1.7276365069,
				"y": -0.8741881006,
				"z": -3.0197476673,
				"element": "C" 
			},
			{
				"x": -2.5788793567,
				"y": 0.6270836096,
				"z": -2.6825266631,
				"element": "S" 
			},
			{
				"x": 1.1493634743,
				"y": -0.7273632039,
				"z": -0.3552135487,
				"element": "C" 
			},
			{
				"x": 2.0702985402,
				"y": 0.1818451942,
				"z": 0.140693798,
				"element": "C" 
			},
			{
				"x": 1.7770007008,
				"y": 2.8948874876,
				"z": 3.1065893613,
				"element": "H" 
			},
			{
				"x": 3.187478723,
				"y": 3.7310858139,
				"z": 2.4043114407,
				"element": "H" 
			},
			{
				"x": 1.5871301824,
				"y": 3.8893541458,
				"z": 1.632364974,
				"element": "H" 
			},
			{
				"x": -0.0757276404,
				"y": 2.2393244521,
				"z": 1.8219007653,
				"element": "H" 
			},
			{
				"x": -1.6921038186,
				"y": 0.621007573,
				"z": 0.9280156571,
				"element": "H" 
			},
			{
				"x": -0.9976866513,
				"y": -2.6037051093,
				"z": -0.2602158182,
				"element": "H" 
			},
			{
				"x": -2.2342710005,
				"y": -1.3388221403,
				"z": -0.2809061003,
				"element": "H" 
			},
			{
				"x": -3.014851993,
				"y": 0.7505141259,
				"z": -3.9508975332,
				"element": "H" 
			},
			{
				"x": 1.4903157905,
				"y": -1.556580066,
				"z": -0.9694703385,
				"element": "H" 
			},
			{
				"x": 3.1304036984,
				"y": 0.0818699265,
				"z": -0.0671831545,
				"element": "H" 
			}
		],
		 "valence_orbital": [ 
			{
				"type": "occ",
				"energy": -0.29422,
				"method": "rhf"
			},
			{
				"type": "occ",
				"energy": -0.28212,
				"method": "rhf"
			},
			{
				"type": "occ",
				"energy": -0.26482,
				"method": "rhf"
			},
			{
				"type": "occ",
				"energy": -0.2564,
				"method": "rhf"
			},
			{
				"type": "occ",
				"energy": -0.23161,
				"method": "rhf"
			},
			{
				"type": "unocc",
				"energy": -0.01958,
				"method": "rhf"
			},
			{
				"type": "unocc",
				"energy": -0.01648,
				"method": "rhf"
			},
			{
				"type": "unocc",
				"energy": -0.00497,
				"method": "rhf"
			},
			{
				"type": "unocc",
				"energy": 0.00243,
				"method": "rhf"
			},
			{
				"type": "unocc",
				"energy": 0.02379,
				"method": "rhf"
			}
		],
		"cosmo_sigma_profile": { 
			"-0.025": 0.0,
			"-0.024": 0.0,
			"-0.023": 0.0,
			"-0.022": 0.0,
			"-0.021": 0.0,
			"-0.02": 0.0,
			"-0.019": 0.0,
			"-0.018": 0.0,
			"-0.017": 0.0,
			"-0.016": 0.0,
			"-0.015": 0.0,
			"-0.014": 0.0743406556142,
			"-0.013": 1.33659437512,
			"-0.012": 1.75795928635,
			"-0.011": 0.934427828914,
			"-0.01": 1.40082655063,
			"-0.009": 1.43000629174,
			"-0.008": 5.91890570554,
			"-0.007": 9.00425186588,
			"-0.006": 16.5559965285,
			"-0.005": 20.9886835413,
			"-0.004": 23.161653097,
			"-0.003": 20.4107131062,
			"-0.002": 14.7280156008,
			"-0.001": 12.6554786932,
			"0.0": 14.598874275,
			"0.001": 12.7107527672,
			"0.002": 12.6523569046,
			"0.003": 15.4655017392,
			"0.004": 16.8582264655,
			"0.005": 13.1151993627,
			"0.006": 5.7897639677,
			"0.007": 3.97556634491,
			"0.008": 5.01070469648,
			"0.009": 7.19328345471,
			"0.01": 6.37958524123,
			"0.011": 4.12348702312,
			"0.012": 3.10711780667,
			"0.013": 2.26805736268,
			"0.014": 1.42409009511,
			"0.015": 0.201939828615,
			"0.016": 0.0,
			"0.017": 0.0,
			"0.018": 0.0,
			"0.019": 0.0,
			"0.02": 0.0,
			"0.021": 0.0,
			"0.022": 0.0,
			"0.023": 0.0,
			"0.024": 0.0,
			"0.025": 0.0
		}
	}
}
