{
	 "smiles": "ClC1=CC2=C(C=C1)N=C(S2)N1CCCNCC1", 
	 "Tm": 377.15, 
	 "num_atms": 31, 
	 "gaussian": { 
		 "optdone": 1, 
		 "sigma_profile": "yes", 
		 "theory": "DFT", 
		 "functional": "B3LYP", 
		 "basiset": "6-31G**", 
		 "properties": { 
			 "R2extent": 7491.5616, 
			 "electric_dipole_moment_norm": 4.06663742421, 
			 "electric_quadrupole_moment_norm": 15.3097602973, 
			 "total_energy": -1488.35219423, 
			 "HOMO_LUMO_gap": 0.18569, 
			 "cosmo_polarized_energy": -10.6, 
			 "cosmo_cavitation_energy": 35.68, 
			 "cosmo_dispersion_energy": -27.11, 
			 "cosmo_repulsion_energy": 2.05, 
			 "cosmo_total_nonelectrostatic_energy": 10.62, 
			 "SMD_solvation_energy": 0.73 
		},
		"coords": [
			{
				"x": 4.0926723545,
				"y": 5.2395077769,
				"z": 0.6625391909,
				"element": "Cl" 
			},
			{
				"x": 2.9528726718,
				"y": 3.9917901281,
				"z": 0.1657568421,
				"element": "C" 
			},
			{
				"x": 2.1410710691,
				"y": 3.3981585533,
				"z": 1.1311808628,
				"element": "C" 
			},
			{
				"x": 1.2501004044,
				"y": 2.4184365331,
				"z": 0.7007523884,
				"element": "C" 
			},
			{
				"x": 1.1572066965,
				"y": 2.0217361709,
				"z": -0.6561873096,
				"element": "C" 
			},
			{
				"x": 1.9923836156,
				"y": 2.641884886,
				"z": -1.5959872804,
				"element": "C" 
			},
			{
				"x": 2.8870898221,
				"y": 3.6251392847,
				"z": -1.1842289085,
				"element": "C" 
			},
			{
				"x": 0.2367837927,
				"y": 1.031594354,
				"z": -0.9372860748,
				"element": "N" 
			},
			{
				"x": -0.3867277954,
				"y": 0.6454015581,
				"z": 0.1409887787,
				"element": "C" 
			},
			{
				"x": 0.099494357,
				"y": 1.4923950777,
				"z": 1.658099222,
				"element": "S" 
			},
			{
				"x": -1.3527362358,
				"y": -0.3111933773,
				"z": 0.1740502803,
				"element": "N" 
			},
			{
				"x": -1.7765896651,
				"y": -0.9093122751,
				"z": -1.0992595862,
				"element": "C" 
			},
			{
				"x": -1.1119621798,
				"y": -2.2677776036,
				"z": -1.3678844812,
				"element": "C" 
			},
			{
				"x": -1.6556347505,
				"y": -3.4160655089,
				"z": -0.5000123228,
				"element": "C" 
			},
			{
				"x": -1.6751517789,
				"y": -3.2194476152,
				"z": 0.9489570674,
				"element": "N" 
			},
			{
				"x": -2.535737424,
				"y": -2.1523953143,
				"z": 1.4357645541,
				"element": "C" 
			},
			{
				"x": -1.9610517962,
				"y": -0.721010539,
				"z": 1.4387769094,
				"element": "C" 
			},
			{
				"x": 2.2096814456,
				"y": 3.6979770675,
				"z": 2.1704656901,
				"element": "H" 
			},
			{
				"x": 1.9315651072,
				"y": 2.3457792067,
				"z": -2.6378673937,
				"element": "H" 
			},
			{
				"x": 3.5373038949,
				"y": 4.1120555632,
				"z": -1.9022706417,
				"element": "H" 
			},
			{
				"x": -1.5058502618,
				"y": -0.2009722818,
				"z": -1.8824665257,
				"element": "H" 
			},
			{
				"x": -2.8696075405,
				"y": -1.0015757733,
				"z": -1.0959462069,
				"element": "H" 
			},
			{
				"x": -1.2610385564,
				"y": -2.5290695616,
				"z": -2.4246237915,
				"element": "H" 
			},
			{
				"x": -0.0309201764,
				"y": -2.1517920896,
				"z": -1.2237627557,
				"element": "H" 
			},
			{
				"x": -2.6887852446,
				"y": -3.6325700948,
				"z": -0.8059252248,
				"element": "H" 
			},
			{
				"x": -1.0809186338,
				"y": -4.3269886505,
				"z": -0.7046818107,
				"element": "H" 
			},
			{
				"x": -0.7339456207,
				"y": -3.1345729705,
				"z": 1.3229924885,
				"element": "H" 
			},
			{
				"x": -3.465112393,
				"y": -2.1867045282,
				"z": 0.8564107322,
				"element": "H" 
			},
			{
				"x": -2.8239416273,
				"y": -2.3605916552,
				"z": 2.4752599492,
				"element": "H" 
			},
			{
				"x": -1.1871933037,
				"y": -0.6702141806,
				"z": 2.2150609796,
				"element": "H" 
			},
			{
				"x": -2.7586202478,
				"y": -0.0227021409,
				"z": 1.7398343787,
				"element": "H" 
			}
		],
		 "valence_orbital": [ 
			{
				"type": "occ",
				"energy": -0.27437,
				"method": "rhf"
			},
			{
				"type": "occ",
				"energy": -0.26752,
				"method": "rhf"
			},
			{
				"type": "occ",
				"energy": -0.23627,
				"method": "rhf"
			},
			{
				"type": "occ",
				"energy": -0.2272,
				"method": "rhf"
			},
			{
				"type": "occ",
				"energy": -0.2009,
				"method": "rhf"
			},
			{
				"type": "unocc",
				"energy": -0.01521,
				"method": "rhf"
			},
			{
				"type": "unocc",
				"energy": -0.00651,
				"method": "rhf"
			},
			{
				"type": "unocc",
				"energy": 0.00313,
				"method": "rhf"
			},
			{
				"type": "unocc",
				"energy": 0.03726,
				"method": "rhf"
			},
			{
				"type": "unocc",
				"energy": 0.04395,
				"method": "rhf"
			}
		],
		"cosmo_sigma_profile": { 
			"-0.025": 0.0,
			"-0.024": 0.0,
			"-0.023": 0.0,
			"-0.022": 0.0,
			"-0.021": 0.0,
			"-0.02": 0.0,
			"-0.019": 0.0,
			"-0.018": 0.0,
			"-0.017": 0.0,
			"-0.016": 0.0,
			"-0.015": 0.0,
			"-0.014": 0.0,
			"-0.013": 0.0,
			"-0.012": 0.0,
			"-0.011": 0.0182282231871,
			"-0.01": 0.793447615325,
			"-0.009": 1.74413748081,
			"-0.008": 3.47395879478,
			"-0.007": 5.09882720133,
			"-0.006": 10.6199200394,
			"-0.005": 17.3158715637,
			"-0.004": 23.8253382948,
			"-0.003": 30.6172713704,
			"-0.002": 24.821344574,
			"-0.001": 21.4223084072,
			"0.0": 20.6490331487,
			"0.001": 19.9743257995,
			"0.002": 22.5869041616,
			"0.003": 24.8124004594,
			"0.004": 24.131125561,
			"0.005": 15.7674439363,
			"0.006": 4.07251675323,
			"0.007": 2.56203308939,
			"0.008": 2.27854031374,
			"0.009": 1.62052100061,
			"0.01": 1.22366633518,
			"0.011": 2.24938612361,
			"0.012": 1.66002756861,
			"0.013": 1.09568338934,
			"0.014": 0.354578646606,
			"0.015": 0.352163826438,
			"0.016": 0.431710320096,
			"0.017": 0.83472597426,
			"0.018": 0.0316780915005,
			"0.019": 0.0,
			"0.02": 0.0,
			"0.021": 0.0,
			"0.022": 0.0,
			"0.023": 0.0,
			"0.024": 0.0,
			"0.025": 0.0
		}
	}
}
