{
	 "smiles": "CNC1=C2C=CC=CC2=CC=C1", 
	 "Tm": 447.15, 
	 "num_atms": 23, 
	 "gaussian": { 
		 "optdone": 1, 
		 "sigma_profile": "yes", 
		 "theory": "DFT", 
		 "functional": "B3LYP", 
		 "basiset": "6-31G**", 
		 "properties": { 
			 "R2extent": 2140.4406, 
			 "electric_dipole_moment_norm": 1.72347570334, 
			 "electric_quadrupole_moment_norm": 9.59057131666, 
			 "total_energy": -480.560704635, 
			 "HOMO_LUMO_gap": 0.15859, 
			 "cosmo_polarized_energy": -7.42, 
			 "cosmo_cavitation_energy": 25.53, 
			 "cosmo_dispersion_energy": -19.28, 
			 "cosmo_repulsion_energy": 1.5, 
			 "cosmo_total_nonelectrostatic_energy": 7.75, 
			 "SMD_solvation_energy": 3.42 
		},
		"coords": [
			{
				"x": -1.7462557175,
				"y": -0.3617080064,
				"z": -3.0716796881,
				"element": "C" 
			},
			{
				"x": -1.2240628017,
				"y": -0.6894990877,
				"z": -1.7587040782,
				"element": "N" 
			},
			{
				"x": -0.0673811921,
				"y": -0.0796026305,
				"z": -1.2763787991,
				"element": "C" 
			},
			{
				"x": 0.3339812518,
				"y": -0.3294171049,
				"z": 0.0874348124,
				"element": "C" 
			},
			{
				"x": -0.3824960128,
				"y": -1.2022019696,
				"z": 0.9485235116,
				"element": "C" 
			},
			{
				"x": 0.0079409658,
				"y": -1.3998763621,
				"z": 2.2564731494,
				"element": "C" 
			},
			{
				"x": 1.1454472626,
				"y": -0.7347854811,
				"z": 2.766608775,
				"element": "C" 
			},
			{
				"x": 1.8783885758,
				"y": 0.0961034486,
				"z": 1.9490224442,
				"element": "C" 
			},
			{
				"x": 1.5081656414,
				"y": 0.31725385,
				"z": 0.5951544229,
				"element": "C" 
			},
			{
				"x": 2.2822710999,
				"y": 1.1506364141,
				"z": -0.2579521786,
				"element": "C" 
			},
			{
				"x": 1.8996014572,
				"y": 1.3331744513,
				"z": -1.5647251309,
				"element": "C" 
			},
			{
				"x": 0.7264753338,
				"y": 0.7327757633,
				"z": -2.0752630035,
				"element": "C" 
			},
			{
				"x": -2.6786166287,
				"y": -0.9102973879,
				"z": -3.2248469492,
				"element": "H" 
			},
			{
				"x": -1.0433269533,
				"y": -0.6777582175,
				"z": -3.8497471892,
				"element": "H" 
			},
			{
				"x": -1.9462017565,
				"y": 0.7128683139,
				"z": -3.2128018994,
				"element": "H" 
			},
			{
				"x": -1.9419493494,
				"y": -0.8077554537,
				"z": -1.0588299851,
				"element": "H" 
			},
			{
				"x": -1.2331694749,
				"y": -1.7589409086,
				"z": 0.5676389409,
				"element": "H" 
			},
			{
				"x": -0.5535752411,
				"y": -2.0777775811,
				"z": 2.8928209158,
				"element": "H" 
			},
			{
				"x": 1.4465363107,
				"y": -0.8913045009,
				"z": 3.7985462439,
				"element": "H" 
			},
			{
				"x": 2.7650838466,
				"y": 0.597185315,
				"z": 2.3293123068,
				"element": "H" 
			},
			{
				"x": 3.174532636,
				"y": 1.628049358,
				"z": 0.1366240834,
				"element": "H" 
			},
			{
				"x": 2.4911979513,
				"y": 1.9641666057,
				"z": -2.2225037957,
				"element": "H" 
			},
			{
				"x": 0.4435127951,
				"y": 0.928411172,
				"z": -3.1029269091,
				"element": "H" 
			}
		],
		 "valence_orbital": [ 
			{
				"type": "occ",
				"energy": -0.3236,
				"method": "rhf"
			},
			{
				"type": "occ",
				"energy": -0.29565,
				"method": "rhf"
			},
			{
				"type": "occ",
				"energy": -0.24327,
				"method": "rhf"
			},
			{
				"type": "occ",
				"energy": -0.23501,
				"method": "rhf"
			},
			{
				"type": "occ",
				"energy": -0.18414,
				"method": "rhf"
			},
			{
				"type": "unocc",
				"energy": -0.02555,
				"method": "rhf"
			},
			{
				"type": "unocc",
				"energy": -0.00051,
				"method": "rhf"
			},
			{
				"type": "unocc",
				"energy": 0.04928,
				"method": "rhf"
			},
			{
				"type": "unocc",
				"energy": 0.08182,
				"method": "rhf"
			},
			{
				"type": "unocc",
				"energy": 0.10315,
				"method": "rhf"
			}
		],
		"cosmo_sigma_profile": { 
			"-0.025": 0.0,
			"-0.024": 0.0,
			"-0.023": 0.0,
			"-0.022": 0.0,
			"-0.021": 0.0,
			"-0.02": 0.0,
			"-0.019": 0.0,
			"-0.018": 0.0,
			"-0.017": 0.0,
			"-0.016": 0.0,
			"-0.015": 0.0,
			"-0.014": 0.0,
			"-0.013": 0.189452035309,
			"-0.012": 1.15292173327,
			"-0.011": 1.19281209682,
			"-0.01": 1.43378032169,
			"-0.009": 1.22614374593,
			"-0.008": 1.42373022225,
			"-0.007": 2.07536689874,
			"-0.006": 4.37020230636,
			"-0.005": 15.7706409256,
			"-0.004": 19.8597225866,
			"-0.003": 20.3954426872,
			"-0.002": 19.019592562,
			"-0.001": 17.2900666849,
			"0.0": 9.62605918422,
			"0.001": 9.07074830937,
			"0.002": 10.1477695642,
			"0.003": 10.0112753201,
			"0.004": 13.677534758,
			"0.005": 22.3409822061,
			"0.006": 15.784378606,
			"0.007": 4.34234352999,
			"0.008": 0.981783992632,
			"0.009": 0.722987260376,
			"0.01": 0.598565942788,
			"0.011": 0.404049087522,
			"0.012": 0.284173549004,
			"0.013": 0.0,
			"0.014": 0.0,
			"0.015": 0.0,
			"0.016": 0.0,
			"0.017": 0.0,
			"0.018": 0.0,
			"0.019": 0.0,
			"0.02": 0.0,
			"0.021": 0.0,
			"0.022": 0.0,
			"0.023": 0.0,
			"0.024": 0.0,
			"0.025": 0.0
		}
	}
}
