{
	 "smiles": "CC(C)(C)OC(=O)N1CCC2=C(C1)C=C(C#N)C(=O)N2", 
	 "Tm": 513.15, 
	 "num_atms": 37, 
	 "gaussian": { 
		 "optdone": 1, 
		 "sigma_profile": "yes", 
		 "theory": "DFT", 
		 "functional": "B3LYP", 
		 "basiset": "6-31G**", 
		 "properties": { 
			 "R2extent": 9261.6489, 
			 "electric_dipole_moment_norm": 9.75840527187, 
			 "electric_quadrupole_moment_norm": 42.5982085259, 
			 "total_energy": -933.694029419, 
			 "HOMO_LUMO_gap": 0.1556, 
			 "cosmo_polarized_energy": -26.56, 
			 "cosmo_cavitation_energy": 40.5, 
			 "cosmo_dispersion_energy": -27.86, 
			 "cosmo_repulsion_energy": 2.14, 
			 "cosmo_total_nonelectrostatic_energy": 14.78, 
			 "SMD_solvation_energy": 9.05 
		},
		"coords": [
			{
				"x": -3.9311242602,
				"y": 2.4500057944,
				"z": 2.8581314887,
				"element": "C" 
			},
			{
				"x": -3.2301531587,
				"y": 1.2117307606,
				"z": 3.4223971128,
				"element": "C" 
			},
			{
				"x": -2.4941006716,
				"y": 1.5482979388,
				"z": 4.7229122137,
				"element": "C" 
			},
			{
				"x": -4.2207134126,
				"y": 0.0559591238,
				"z": 3.5939775131,
				"element": "C" 
			},
			{
				"x": -2.256655496,
				"y": 0.8872952602,
				"z": 2.3609963205,
				"element": "O" 
			},
			{
				"x": -1.4130452957,
				"y": -0.1613131105,
				"z": 2.4913143133,
				"element": "C" 
			},
			{
				"x": -1.3775699958,
				"y": -0.9384123386,
				"z": 3.4335876828,
				"element": "O" 
			},
			{
				"x": -0.5697797552,
				"y": -0.2553912863,
				"z": 1.4063037534,
				"element": "N" 
			},
			{
				"x": -0.592636783,
				"y": 0.6269827766,
				"z": 0.2489313553,
				"element": "C" 
			},
			{
				"x": -1.0354343244,
				"y": -0.1549174007,
				"z": -0.9967951481,
				"element": "C" 
			},
			{
				"x": -0.2763356809,
				"y": -1.4521905042,
				"z": -1.0971506717,
				"element": "C" 
			},
			{
				"x": 0.3740847441,
				"y": -2.0184310283,
				"z": -0.0253466415,
				"element": "C" 
			},
			{
				"x": 0.3701277774,
				"y": -1.3652638823,
				"z": 1.3433985188,
				"element": "C" 
			},
			{
				"x": 1.0671349325,
				"y": -3.2381417435,
				"z": -0.2389074489,
				"element": "C" 
			},
			{
				"x": 1.0931776953,
				"y": -3.8681958003,
				"z": -1.4641087286,
				"element": "C" 
			},
			{
				"x": 1.7953163744,
				"y": -5.0973849116,
				"z": -1.6469521037,
				"element": "C" 
			},
			{
				"x": 2.3778020411,
				"y": -6.097653386,
				"z": -1.7650344651,
				"element": "N" 
			},
			{
				"x": 0.3988689399,
				"y": -3.2955729939,
				"z": -2.6200317402,
				"element": "C" 
			},
			{
				"x": 0.3448410736,
				"y": -3.7529080766,
				"z": -3.751691862,
				"element": "O" 
			},
			{
				"x": -0.2479949925,
				"y": -2.081818029,
				"z": -2.308891206,
				"element": "N" 
			},
			{
				"x": -3.2149286725,
				"y": 3.2608184741,
				"z": 2.6952904213,
				"element": "H" 
			},
			{
				"x": -4.6944967048,
				"y": 2.7997546242,
				"z": 3.5591137242,
				"element": "H" 
			},
			{
				"x": -4.4175317186,
				"y": 2.2199928963,
				"z": 1.9055329068,
				"element": "H" 
			},
			{
				"x": -3.2137146466,
				"y": 1.9007431474,
				"z": 5.468778852,
				"element": "H" 
			},
			{
				"x": -1.765111319,
				"y": 2.3468342908,
				"z": 4.5520072776,
				"element": "H" 
			},
			{
				"x": -1.9770053962,
				"y": 0.6740385498,
				"z": 5.1184043961,
				"element": "H" 
			},
			{
				"x": -3.7210660579,
				"y": -0.8345462346,
				"z": 3.9752506987,
				"element": "H" 
			},
			{
				"x": -5.006651955,
				"y": 0.3496184141,
				"z": 4.2971804916,
				"element": "H" 
			},
			{
				"x": -4.6954703328,
				"y": -0.1838104584,
				"z": 2.6371340093,
				"element": "H" 
			},
			{
				"x": -1.2644237281,
				"y": 1.4588724714,
				"z": 0.4450386285,
				"element": "H" 
			},
			{
				"x": 0.4158589982,
				"y": 1.0324698384,
				"z": 0.088687142,
				"element": "H" 
			},
			{
				"x": -0.8740887173,
				"y": 0.4463681617,
				"z": -1.9006428437,
				"element": "H" 
			},
			{
				"x": -2.1118290571,
				"y": -0.3639459557,
				"z": -0.936338222,
				"element": "H" 
			},
			{
				"x": 1.3860158166,
				"y": -1.0159483836,
				"z": 1.5900094699,
				"element": "H" 
			},
			{
				"x": 0.0827767724,
				"y": -2.0801060812,
				"z": 2.1172156543,
				"element": "H" 
			},
			{
				"x": 1.5936037137,
				"y": -3.697347048,
				"z": 0.594274774,
				"element": "H" 
			},
			{
				"x": -0.726246747,
				"y": -1.6681838694,
				"z": -3.1014776376,
				"element": "H" 
			}
		],
		 "valence_orbital": [ 
			{
				"type": "occ",
				"energy": -0.30195,
				"method": "rhf"
			},
			{
				"type": "occ",
				"energy": -0.277,
				"method": "rhf"
			},
			{
				"type": "occ",
				"energy": -0.26946,
				"method": "rhf"
			},
			{
				"type": "occ",
				"energy": -0.25856,
				"method": "rhf"
			},
			{
				"type": "occ",
				"energy": -0.23141,
				"method": "rhf"
			},
			{
				"type": "unocc",
				"energy": -0.07581,
				"method": "rhf"
			},
			{
				"type": "unocc",
				"energy": -0.0077,
				"method": "rhf"
			},
			{
				"type": "unocc",
				"energy": 0.0372,
				"method": "rhf"
			},
			{
				"type": "unocc",
				"energy": 0.0378,
				"method": "rhf"
			},
			{
				"type": "unocc",
				"energy": 0.05354,
				"method": "rhf"
			}
		],
		"cosmo_sigma_profile": { 
			"-0.025": 0.0,
			"-0.024": 0.0,
			"-0.023": 0.0,
			"-0.022": 0.0,
			"-0.021": 0.0,
			"-0.02": 0.0,
			"-0.019": 0.0,
			"-0.018": 0.0,
			"-0.017": 0.275455572537,
			"-0.016": 0.954468561912,
			"-0.015": 1.3996303498,
			"-0.014": 1.48086614873,
			"-0.013": 1.01371335599,
			"-0.012": 0.938738675793,
			"-0.011": 1.08586201934,
			"-0.01": 1.39311274473,
			"-0.009": 4.58695185465,
			"-0.008": 4.50601953439,
			"-0.007": 6.46874061304,
			"-0.006": 15.4371170393,
			"-0.005": 18.3849963174,
			"-0.004": 26.181114103,
			"-0.003": 28.9733082857,
			"-0.002": 30.5932780182,
			"-0.001": 31.403628011,
			"0.0": 34.281447923,
			"0.001": 22.9137782556,
			"0.002": 8.56771208355,
			"0.003": 7.70084876369,
			"0.004": 7.48438166745,
			"0.005": 5.89087866367,
			"0.006": 5.96909154228,
			"0.007": 7.18880472379,
			"0.008": 5.58247553965,
			"0.009": 6.14270645489,
			"0.01": 6.79093963646,
			"0.011": 6.2982389457,
			"0.012": 6.93717257443,
			"0.013": 11.1272459701,
			"0.014": 2.12452207416,
			"0.015": 0.0,
			"0.016": 0.0,
			"0.017": 0.0,
			"0.018": 0.0,
			"0.019": 0.0,
			"0.02": 0.0,
			"0.021": 0.0,
			"0.022": 0.0,
			"0.023": 0.0,
			"0.024": 0.0,
			"0.025": 0.0
		}
	}
}
