{
	 "smiles": "CN1N=CC2=C1N=CN(N)C2=N", 
	 "Tm": 458.15, 
	 "num_atms": 20, 
	 "gaussian": { 
		 "optdone": 1, 
		 "sigma_profile": "yes", 
		 "theory": "DFT", 
		 "functional": "B3LYP", 
		 "basiset": "6-31G**", 
		 "properties": { 
			 "R2extent": 2113.9139, 
			 "electric_dipole_moment_norm": 0.75938997228, 
			 "electric_quadrupole_moment_norm": 3.77128580991, 
			 "total_energy": -561.920677841, 
			 "HOMO_LUMO_gap": 0.1892, 
			 "cosmo_polarized_energy": -12.3, 
			 "cosmo_cavitation_energy": 24.15, 
			 "cosmo_dispersion_energy": -18.14, 
			 "cosmo_repulsion_energy": 1.43, 
			 "cosmo_total_nonelectrostatic_energy": 7.43, 
			 "SMD_solvation_energy": 2.17 
		},
		"coords": [
			{
				"x": -1.2347285754,
				"y": 0.2563842471,
				"z": -3.894286366,
				"element": "C" 
			},
			{
				"x": -0.4118154617,
				"y": 0.0400385987,
				"z": -2.7203273401,
				"element": "N" 
			},
			{
				"x": 0.8644718844,
				"y": -0.4185376608,
				"z": -2.8404257076,
				"element": "N" 
			},
			{
				"x": 1.3341979722,
				"y": -0.5073460422,
				"z": -1.6000649085,
				"element": "C" 
			},
			{
				"x": 0.3636033078,
				"y": -0.1056227269,
				"z": -0.6514287945,
				"element": "C" 
			},
			{
				"x": -0.7521054437,
				"y": 0.2405396228,
				"z": -1.4226364138,
				"element": "C" 
			},
			{
				"x": -1.9624743782,
				"y": 0.695881026,
				"z": -0.9768249452,
				"element": "N" 
			},
			{
				"x": -2.0109187685,
				"y": 0.7933217586,
				"z": 0.3198562377,
				"element": "C" 
			},
			{
				"x": -0.9959552745,
				"y": 0.4882498643,
				"z": 1.1847285121,
				"element": "N" 
			},
			{
				"x": -1.2650471189,
				"y": 0.6686841392,
				"z": 2.5596566681,
				"element": "N" 
			},
			{
				"x": 0.2894208394,
				"y": 0.0106347867,
				"z": 0.7871138602,
				"element": "C" 
			},
			{
				"x": 1.1322291419,
				"y": -0.227743882,
				"z": 1.7278931605,
				"element": "N" 
			},
			{
				"x": -2.2037404914,
				"y": 0.6273105556,
				"z": -3.5592059222,
				"element": "H" 
			},
			{
				"x": -1.364628106,
				"y": -0.6818417826,
				"z": -4.4398448375,
				"element": "H" 
			},
			{
				"x": -0.7628993571,
				"y": 0.9904462879,
				"z": -4.5523921717,
				"element": "H" 
			},
			{
				"x": 2.3460160679,
				"y": -0.8546258193,
				"z": -1.4376801822,
				"element": "H" 
			},
			{
				"x": -2.9108427621,
				"y": 1.1419745447,
				"z": 0.8167224824,
				"element": "H" 
			},
			{
				"x": -1.0625175524,
				"y": -0.227569269,
				"z": 3.0061437922,
				"element": "H" 
			},
			{
				"x": -0.5294565837,
				"y": 1.2838226061,
				"z": 2.9120511047,
				"element": "H" 
			},
			{
				"x": 2.01049066,
				"y": -0.5623008549,
				"z": 1.3335517713,
				"element": "H" 
			}
		],
		 "valence_orbital": [ 
			{
				"type": "occ",
				"energy": -0.28803,
				"method": "rhf"
			},
			{
				"type": "occ",
				"energy": -0.28264,
				"method": "rhf"
			},
			{
				"type": "occ",
				"energy": -0.27308,
				"method": "rhf"
			},
			{
				"type": "occ",
				"energy": -0.25327,
				"method": "rhf"
			},
			{
				"type": "occ",
				"energy": -0.21684,
				"method": "rhf"
			},
			{
				"type": "unocc",
				"energy": -0.02764,
				"method": "rhf"
			},
			{
				"type": "unocc",
				"energy": -0.00218,
				"method": "rhf"
			},
			{
				"type": "unocc",
				"energy": 0.04198,
				"method": "rhf"
			},
			{
				"type": "unocc",
				"energy": 0.08009,
				"method": "rhf"
			},
			{
				"type": "unocc",
				"energy": 0.10598,
				"method": "rhf"
			}
		],
		"cosmo_sigma_profile": { 
			"-0.025": 0.0,
			"-0.024": 0.0,
			"-0.023": 0.0,
			"-0.022": 0.0,
			"-0.021": 0.0,
			"-0.02": 0.0,
			"-0.019": 0.0,
			"-0.018": 0.0,
			"-0.017": 0.0,
			"-0.016": 0.0,
			"-0.015": 0.0,
			"-0.014": 0.0,
			"-0.013": 0.0,
			"-0.012": 0.602816825361,
			"-0.011": 2.80118549809,
			"-0.01": 4.11987033437,
			"-0.009": 4.58828857389,
			"-0.008": 6.62223478917,
			"-0.007": 6.33287475005,
			"-0.006": 11.4125517209,
			"-0.005": 11.0293219084,
			"-0.004": 11.389616577,
			"-0.003": 19.3717115938,
			"-0.002": 12.307400818,
			"-0.001": 10.2404403567,
			"0.0": 11.299183352,
			"0.001": 12.6530767637,
			"0.002": 10.5155719451,
			"0.003": 8.60090423603,
			"0.004": 6.52760759053,
			"0.005": 5.28918048257,
			"0.006": 5.70129330981,
			"0.007": 3.92150948468,
			"0.008": 4.24655707994,
			"0.009": 3.23603712562,
			"0.01": 4.60263027175,
			"0.011": 4.00730427281,
			"0.012": 3.7069859474,
			"0.013": 3.0417622641,
			"0.014": 2.55129543186,
			"0.015": 1.44944391569,
			"0.016": 0.574432087596,
			"0.017": 0.0,
			"0.018": 0.0,
			"0.019": 0.0,
			"0.02": 0.0,
			"0.021": 0.0,
			"0.022": 0.0,
			"0.023": 0.0,
			"0.024": 0.0,
			"0.025": 0.0
		}
	}
}
