{
	 "smiles": "OC(=O)COC1=C(F)C=C(Br)C=C1", 
	 "Tm": 380.15, 
	 "num_atms": 19, 
	 "gaussian": { 
		 "optdone": 1, 
		 "sigma_profile": "yes", 
		 "theory": "DFT", 
		 "functional": "B3LYP", 
		 "basiset": "6-31G**", 
		 "properties": { 
			 "R2extent": 6301.7639, 
			 "electric_dipole_moment_norm": 2.62939103406, 
			 "electric_quadrupole_moment_norm": 7.77512730635, 
			 "total_energy": -3205.36692619, 
			 "HOMO_LUMO_gap": 0.20852, 
			 "cosmo_polarized_energy": -11.44, 
			 "cosmo_cavitation_energy": 26.8, 
			 "cosmo_dispersion_energy": -19.93, 
			 "cosmo_repulsion_energy": 1.58, 
			 "cosmo_total_nonelectrostatic_energy": 8.45, 
			 "SMD_solvation_energy": 5.24 
		},
		"coords": [
			{
				"x": -0.8088868354,
				"y": -1.9599073041,
				"z": 2.2915495659,
				"element": "O" 
			},
			{
				"x": -0.6342184566,
				"y": -1.2300717216,
				"z": 1.1673381828,
				"element": "C" 
			},
			{
				"x": -1.5328220985,
				"y": -0.7212648131,
				"z": 0.5438672946,
				"element": "O" 
			},
			{
				"x": 0.8448629418,
				"y": -1.1689003264,
				"z": 0.8126916671,
				"element": "C" 
			},
			{
				"x": 1.0921229166,
				"y": -0.428782817,
				"z": -0.3660445905,
				"element": "O" 
			},
			{
				"x": 0.9217799782,
				"y": 0.9255222466,
				"z": -0.4227538114,
				"element": "C" 
			},
			{
				"x": 0.6207048054,
				"y": 1.7878775159,
				"z": 0.6391739171,
				"element": "C" 
			},
			{
				"x": 0.4342368044,
				"y": 1.2993385439,
				"z": 1.8928296601,
				"element": "F" 
			},
			{
				"x": 0.4959643419,
				"y": 3.1599348049,
				"z": 0.4627028698,
				"element": "C" 
			},
			{
				"x": 0.6840097112,
				"y": 3.6989607043,
				"z": -0.8059858209,
				"element": "C" 
			},
			{
				"x": 0.5224557925,
				"y": 5.5840308502,
				"z": -1.059041347,
				"element": "Br" 
			},
			{
				"x": 0.9882710568,
				"y": 2.8739690298,
				"z": -1.8877771604,
				"element": "C" 
			},
			{
				"x": 1.1023921684,
				"y": 1.5020017672,
				"z": -1.6862642702,
				"element": "C" 
			},
			{
				"x": -1.7644658013,
				"y": -1.9706314593,
				"z": 2.4694803566,
				"element": "H" 
			},
			{
				"x": 1.4076034984,
				"y": -0.797893382,
				"z": 1.6735181936,
				"element": "H" 
			},
			{
				"x": 1.1898425411,
				"y": -2.1844059502,
				"z": 0.5967865646,
				"element": "H" 
			},
			{
				"x": 0.2566014351,
				"y": 3.7777557436,
				"z": 1.3195053764,
				"element": "H" 
			},
			{
				"x": 1.1324643426,
				"y": 3.2950102549,
				"z": -2.8755727648,
				"element": "H" 
			},
			{
				"x": 1.3334808573,
				"y": 0.8374563124,
				"z": -2.5119038833,
				"element": "H" 
			}
		],
		 "valence_orbital": [ 
			{
				"type": "occ",
				"energy": -0.29942,
				"method": "rhf"
			},
			{
				"type": "occ",
				"energy": -0.28857,
				"method": "rhf"
			},
			{
				"type": "occ",
				"energy": -0.28712,
				"method": "rhf"
			},
			{
				"type": "occ",
				"energy": -0.26268,
				"method": "rhf"
			},
			{
				"type": "occ",
				"energy": -0.22548,
				"method": "rhf"
			},
			{
				"type": "unocc",
				"energy": -0.01696,
				"method": "rhf"
			},
			{
				"type": "unocc",
				"energy": -0.00762,
				"method": "rhf"
			},
			{
				"type": "unocc",
				"energy": 0.00074,
				"method": "rhf"
			},
			{
				"type": "unocc",
				"energy": 0.00345,
				"method": "rhf"
			},
			{
				"type": "unocc",
				"energy": 0.06364,
				"method": "rhf"
			}
		],
		"cosmo_sigma_profile": { 
			"-0.025": 0.0,
			"-0.024": 0.0,
			"-0.023": 0.0,
			"-0.022": 0.0,
			"-0.021": 0.0,
			"-0.02": 0.0,
			"-0.019": 0.602486705008,
			"-0.018": 0.713987029497,
			"-0.017": 1.04956380457,
			"-0.016": 0.823299661846,
			"-0.015": 0.741230031471,
			"-0.014": 0.344394029107,
			"-0.013": 0.775460517591,
			"-0.012": 1.28799109446,
			"-0.011": 0.740431738451,
			"-0.01": 0.431681615593,
			"-0.009": 2.94560270473,
			"-0.008": 6.86381401281,
			"-0.007": 9.34007917657,
			"-0.006": 9.93217637632,
			"-0.005": 9.61594938025,
			"-0.004": 9.44533143735,
			"-0.003": 9.77477254942,
			"-0.002": 10.8044872873,
			"-0.001": 12.0441434884,
			"0.0": 13.8774978774,
			"0.001": 19.0051071737,
			"0.002": 23.9550754331,
			"0.003": 21.49557909,
			"0.004": 17.0735589894,
			"0.005": 8.79877181564,
			"0.006": 4.14567536234,
			"0.007": 4.12596003953,
			"0.008": 5.65927527946,
			"0.009": 3.02035308587,
			"0.01": 2.53830977461,
			"0.011": 5.11708311539,
			"0.012": 0.806203617865,
			"0.013": 0.0,
			"0.014": 0.0,
			"0.015": 0.0,
			"0.016": 0.0,
			"0.017": 0.0,
			"0.018": 0.0,
			"0.019": 0.0,
			"0.02": 0.0,
			"0.021": 0.0,
			"0.022": 0.0,
			"0.023": 0.0,
			"0.024": 0.0,
			"0.025": 0.0
		}
	}
}
