{
	 "smiles": "CC1=CC(=CN=C1)[N+]([O-])=O", 
	 "Tm": 369.15, 
	 "num_atms": 16, 
	 "gaussian": { 
		 "optdone": 1, 
		 "sigma_profile": "yes", 
		 "theory": "DFT", 
		 "functional": "B3LYP", 
		 "basiset": "6-31G**", 
		 "properties": { 
			 "R2extent": 1519.5357, 
			 "electric_dipole_moment_norm": 4.32934137485, 
			 "electric_quadrupole_moment_norm": 6.90204666458, 
			 "total_energy": -492.100794418, 
			 "HOMO_LUMO_gap": 0.17866, 
			 "cosmo_polarized_energy": -9.01, 
			 "cosmo_cavitation_energy": 21.02, 
			 "cosmo_dispersion_energy": -15.53, 
			 "cosmo_repulsion_energy": 1.25, 
			 "cosmo_total_nonelectrostatic_energy": 6.75, 
			 "SMD_solvation_energy": 4.7 
		},
		"coords": [
			{
				"x": 2.1169677667,
				"y": -0.2943330143,
				"z": -2.2191703228,
				"element": "C" 
			},
			{
				"x": 0.9319586105,
				"y": -0.5859610377,
				"z": -1.3337463018,
				"element": "C" 
			},
			{
				"x": 0.3722365937,
				"y": 0.3935121434,
				"z": -0.5097879394,
				"element": "C" 
			},
			{
				"x": -0.7195319549,
				"y": 0.0459500046,
				"z": 0.2770482111,
				"element": "C" 
			},
			{
				"x": -1.2414398679,
				"y": -1.2479640033,
				"z": 0.2435587443,
				"element": "C" 
			},
			{
				"x": -0.7145863042,
				"y": -2.1910618254,
				"z": -0.5395981977,
				"element": "N" 
			},
			{
				"x": 0.3372811722,
				"y": -1.8564172337,
				"z": -1.2978164145,
				"element": "C" 
			},
			{
				"x": -1.3300782747,
				"y": 1.0547178666,
				"z": 1.1540807518,
				"element": "N" 
			},
			{
				"x": -2.2940584718,
				"y": 0.7065743182,
				"z": 1.8334520209,
				"element": "O" 
			},
			{
				"x": -0.8376491666,
				"y": 2.1823114558,
				"z": 1.1520429891,
				"element": "O" 
			},
			{
				"x": 1.889193072,
				"y": 0.5016543478,
				"z": -2.9363223439,
				"element": "H" 
			},
			{
				"x": 2.9796851268,
				"y": 0.0355169659,
				"z": -1.6304069474,
				"element": "H" 
			},
			{
				"x": 2.4153710079,
				"y": -1.1806727756,
				"z": -2.784849404,
				"element": "H" 
			},
			{
				"x": 0.7609619506,
				"y": 1.4049112914,
				"z": -0.4674298416,
				"element": "H" 
			},
			{
				"x": -2.0938492746,
				"y": -1.5111776867,
				"z": 0.8609309832,
				"element": "H" 
			},
			{
				"x": 0.7400380141,
				"y": -2.6518608171,
				"z": -1.9235859873,
				"element": "H" 
			}
		],
		 "valence_orbital": [ 
			{
				"type": "occ",
				"energy": -0.3186,
				"method": "rhf"
			},
			{
				"type": "occ",
				"energy": -0.31194,
				"method": "rhf"
			},
			{
				"type": "occ",
				"energy": -0.29961,
				"method": "rhf"
			},
			{
				"type": "occ",
				"energy": -0.28329,
				"method": "rhf"
			},
			{
				"type": "occ",
				"energy": -0.27654,
				"method": "rhf"
			},
			{
				"type": "unocc",
				"energy": -0.09788,
				"method": "rhf"
			},
			{
				"type": "unocc",
				"energy": -0.04815,
				"method": "rhf"
			},
			{
				"type": "unocc",
				"energy": -0.009,
				"method": "rhf"
			},
			{
				"type": "unocc",
				"energy": 0.08423,
				"method": "rhf"
			},
			{
				"type": "unocc",
				"energy": 0.10369,
				"method": "rhf"
			}
		],
		"cosmo_sigma_profile": { 
			"-0.025": 0.0,
			"-0.024": 0.0,
			"-0.023": 0.0,
			"-0.022": 0.0,
			"-0.021": 0.0,
			"-0.02": 0.0,
			"-0.019": 0.0,
			"-0.018": 0.0,
			"-0.017": 0.0,
			"-0.016": 0.0,
			"-0.015": 0.0,
			"-0.014": 0.0,
			"-0.013": 0.0,
			"-0.012": 0.0,
			"-0.011": 0.0,
			"-0.01": 0.0,
			"-0.009": 0.0575600838363,
			"-0.008": 2.54690122497,
			"-0.007": 7.31691930775,
			"-0.006": 8.35302146474,
			"-0.005": 14.5181061041,
			"-0.004": 12.735187862,
			"-0.003": 14.8381926386,
			"-0.002": 19.4376881764,
			"-0.001": 21.9304090165,
			"0.0": 10.334403707,
			"0.001": 5.45608170419,
			"0.002": 4.22111018509,
			"0.003": 3.93297971726,
			"0.004": 3.66952538889,
			"0.005": 4.17662633667,
			"0.006": 5.64353501965,
			"0.007": 11.4279494674,
			"0.008": 6.54310990014,
			"0.009": 4.8721593403,
			"0.01": 1.68287016682,
			"0.011": 1.29288655739,
			"0.012": 1.0551731698,
			"0.013": 0.736309033017,
			"0.014": 0.852655440836,
			"0.015": 0.746832198064,
			"0.016": 0.109176210593,
			"0.017": 0.0,
			"0.018": 0.0,
			"0.019": 0.0,
			"0.02": 0.0,
			"0.021": 0.0,
			"0.022": 0.0,
			"0.023": 0.0,
			"0.024": 0.0,
			"0.025": 0.0
		}
	}
}
