{
	 "smiles": "CCOC(=O)C(C)OC1=CC=C(OC2=CN=C3C=C(Cl)C=CC3=N2)C=C1", 
	 "Tm": 365.15, 
	 "num_atms": 43, 
	 "gaussian": { 
		 "optdone": 1, 
		 "sigma_profile": "yes", 
		 "theory": "DFT", 
		 "functional": "B3LYP", 
		 "basiset": "6-31G**", 
		 "properties": { 
			 "R2extent": 15905.4882, 
			 "electric_dipole_moment_norm": 3.19477808149, 
			 "electric_quadrupole_moment_norm": 12.6346512002, 
			 "total_energy": -1604.85748394, 
			 "HOMO_LUMO_gap": 0.1458, 
			 "cosmo_polarized_energy": -14.25, 
			 "cosmo_cavitation_energy": 50.27, 
			 "cosmo_dispersion_energy": -34.73, 
			 "cosmo_repulsion_energy": 2.68, 
			 "cosmo_total_nonelectrostatic_energy": 18.22, 
			 "SMD_solvation_energy": 6.89 
		},
		"coords": [
			{
				"x": -0.8654288069,
				"y": 5.5106715049,
				"z": 2.419445629,
				"element": "C" 
			},
			{
				"x": -0.5587453748,
				"y": 4.1077739398,
				"z": 1.9191509334,
				"element": "C" 
			},
			{
				"x": 0.1578610805,
				"y": 4.1450495018,
				"z": 0.6579178461,
				"element": "O" 
			},
			{
				"x": -0.5849014819,
				"y": 4.2258592836,
				"z": -0.4556382166,
				"element": "C" 
			},
			{
				"x": -1.7963784836,
				"y": 4.2985224432,
				"z": -0.4805429495,
				"element": "O" 
			},
			{
				"x": 0.3018732867,
				"y": 4.2775124903,
				"z": -1.7125535169,
				"element": "C" 
			},
			{
				"x": -0.4925130958,
				"y": 4.1223842775,
				"z": -3.0069709284,
				"element": "C" 
			},
			{
				"x": 1.4444481444,
				"y": 3.4254892186,
				"z": -1.6347415526,
				"element": "O" 
			},
			{
				"x": 1.3214544461,
				"y": 2.0673409939,
				"z": -1.4988066179,
				"element": "C" 
			},
			{
				"x": 0.1261124523,
				"y": 1.3693065298,
				"z": -1.2792517574,
				"element": "C" 
			},
			{
				"x": 0.1465392301,
				"y": -0.0206371272,
				"z": -1.1439737764,
				"element": "C" 
			},
			{
				"x": 1.352432873,
				"y": -0.7073646031,
				"z": -1.221538852,
				"element": "C" 
			},
			{
				"x": 1.4032046165,
				"y": -2.1058428259,
				"z": -1.1892567834,
				"element": "O" 
			},
			{
				"x": 1.0466178842,
				"y": -2.7838434398,
				"z": -0.0703902095,
				"element": "C" 
			},
			{
				"x": 1.1086730065,
				"y": -4.2130285091,
				"z": -0.1926315552,
				"element": "C" 
			},
			{
				"x": 0.8049108845,
				"y": -5.0028990338,
				"z": 0.8030154937,
				"element": "N" 
			},
			{
				"x": 0.4214512496,
				"y": -4.403108105,
				"z": 1.9754956088,
				"element": "C" 
			},
			{
				"x": 0.0822190088,
				"y": -5.2134493872,
				"z": 3.0842511002,
				"element": "C" 
			},
			{
				"x": -0.3028185406,
				"y": -4.6097605135,
				"z": 4.2610045175,
				"element": "C" 
			},
			{
				"x": -0.7281977902,
				"y": -5.5960439582,
				"z": 5.6510499896,
				"element": "Cl" 
			},
			{
				"x": -0.3665982749,
				"y": -3.2023537546,
				"z": 4.3857977231,
				"element": "C" 
			},
			{
				"x": -0.0387649237,
				"y": -2.403137942,
				"z": 3.3113386721,
				"element": "C" 
			},
			{
				"x": 0.3619689044,
				"y": -2.9820675057,
				"z": 2.0835600181,
				"element": "C" 
			},
			{
				"x": 0.6850648852,
				"y": -2.1768442118,
				"z": 1.0257170538,
				"element": "N" 
			},
			{
				"x": 2.5462513937,
				"y": -0.0229615105,
				"z": -1.4400630914,
				"element": "C" 
			},
			{
				"x": 2.5290678416,
				"y": 1.3600270796,
				"z": -1.5807944627,
				"element": "C" 
			},
			{
				"x": -1.5551575213,
				"y": 6.0196298777,
				"z": 1.7416594665,
				"element": "H" 
			},
			{
				"x": 0.0503827469,
				"y": 6.10250631,
				"z": 2.506573247,
				"element": "H" 
			},
			{
				"x": -1.3342090551,
				"y": 5.456336312,
				"z": 3.4075673834,
				"element": "H" 
			},
			{
				"x": -1.4736615771,
				"y": 3.5260123985,
				"z": 1.7849222184,
				"element": "H" 
			},
			{
				"x": 0.1154610699,
				"y": 3.5767840211,
				"z": 2.5944293127,
				"element": "H" 
			},
			{
				"x": 0.7506472158,
				"y": 5.2787236434,
				"z": -1.6986898381,
				"element": "H" 
			},
			{
				"x": 0.1754600301,
				"y": 4.275547974,
				"z": -3.8581628972,
				"element": "H" 
			},
			{
				"x": -0.9499327406,
				"y": 3.1357784566,
				"z": -3.096858174,
				"element": "H" 
			},
			{
				"x": -1.2904021367,
				"y": 4.8672060205,
				"z": -3.0398256909,
				"element": "H" 
			},
			{
				"x": -0.8253329915,
				"y": 1.8819205701,
				"z": -1.2130231102,
				"element": "H" 
			},
			{
				"x": -0.7775607654,
				"y": -0.5624147122,
				"z": -0.9773107578,
				"element": "H" 
			},
			{
				"x": 1.4171828896,
				"y": -4.6532349199,
				"z": -1.1385265373,
				"element": "H" 
			},
			{
				"x": 0.1344246074,
				"y": -6.2907789498,
				"z": 2.9798126631,
				"element": "H" 
			},
			{
				"x": -0.6738472152,
				"y": -2.7658027821,
				"z": 5.3296480361,
				"element": "H" 
			},
			{
				"x": -0.0782407962,
				"y": -1.3211602241,
				"z": 3.3803007449,
				"element": "H" 
			},
			{
				"x": 3.4758839929,
				"y": -0.5784476869,
				"z": -1.5054744264,
				"element": "H" 
			},
			{
				"x": 3.444197831,
				"y": 1.9162988555,
				"z": -1.7527319556,
				"element": "H" 
			}
		],
		 "valence_orbital": [ 
			{
				"type": "occ",
				"energy": -0.26333,
				"method": "rhf"
			},
			{
				"type": "occ",
				"energy": -0.26041,
				"method": "rhf"
			},
			{
				"type": "occ",
				"energy": -0.25785,
				"method": "rhf"
			},
			{
				"type": "occ",
				"energy": -0.23971,
				"method": "rhf"
			},
			{
				"type": "occ",
				"energy": -0.21892,
				"method": "rhf"
			},
			{
				"type": "unocc",
				"energy": -0.07312,
				"method": "rhf"
			},
			{
				"type": "unocc",
				"energy": -0.02732,
				"method": "rhf"
			},
			{
				"type": "unocc",
				"energy": -0.01339,
				"method": "rhf"
			},
			{
				"type": "unocc",
				"energy": -0.00369,
				"method": "rhf"
			},
			{
				"type": "unocc",
				"energy": -0.0008,
				"method": "rhf"
			}
		],
		"cosmo_sigma_profile": { 
			"-0.025": 0.0,
			"-0.024": 0.0,
			"-0.023": 0.0,
			"-0.022": 0.0,
			"-0.021": 0.0,
			"-0.02": 0.0,
			"-0.019": 0.0,
			"-0.018": 0.0,
			"-0.017": 0.0,
			"-0.016": 0.0,
			"-0.015": 0.0,
			"-0.014": 0.0,
			"-0.013": 0.0,
			"-0.012": 0.0,
			"-0.011": 0.0,
			"-0.01": 0.0,
			"-0.009": 1.09650294672,
			"-0.008": 6.62377140987,
			"-0.007": 11.7862805301,
			"-0.006": 16.8667595891,
			"-0.005": 24.1854287854,
			"-0.004": 34.6889872994,
			"-0.003": 33.4432095829,
			"-0.002": 32.7112269851,
			"-0.001": 34.7715000285,
			"0.0": 36.0750715584,
			"0.001": 35.0389922713,
			"0.002": 29.0993963983,
			"0.003": 26.2090137293,
			"0.004": 27.276821311,
			"0.005": 13.2236037247,
			"0.006": 6.47254190294,
			"0.007": 7.54994725999,
			"0.008": 6.63965985839,
			"0.009": 4.65960535278,
			"0.01": 5.74757314043,
			"0.011": 5.2791361739,
			"0.012": 3.29755829196,
			"0.013": 0.778895856804,
			"0.014": 0.517575367606,
			"0.015": 0.0106128311312,
			"0.016": 0.0,
			"0.017": 0.0,
			"0.018": 0.0,
			"0.019": 0.0,
			"0.02": 0.0,
			"0.021": 0.0,
			"0.022": 0.0,
			"0.023": 0.0,
			"0.024": 0.0,
			"0.025": 0.0
		}
	}
}
