{
	 "smiles": "N1C2=CC=CC=C2N=C1C1=CSC=N1", 
	 "Tm": 573.15, 
	 "num_atms": 21, 
	 "gaussian": { 
		 "optdone": 1, 
		 "sigma_profile": "yes", 
		 "theory": "DFT", 
		 "functional": "B3LYP", 
		 "basiset": "6-31G**", 
		 "properties": { 
			 "R2extent": 5019.9131, 
			 "electric_dipole_moment_norm": 2.61488118468, 
			 "electric_quadrupole_moment_norm": 14.1828671488, 
			 "total_energy": -947.73341445, 
			 "HOMO_LUMO_gap": 0.16261, 
			 "cosmo_polarized_energy": -11.49, 
			 "cosmo_cavitation_energy": 27.46, 
			 "cosmo_dispersion_energy": -21.41, 
			 "cosmo_repulsion_energy": 1.6, 
			 "cosmo_total_nonelectrostatic_energy": 7.66, 
			 "SMD_solvation_energy": 1.46 
		},
		"coords": [
			{
				"x": 0.6011614795,
				"y": -0.5226383433,
				"z": 0.4120539741,
				"element": "N" 
			},
			{
				"x": 0.6897044666,
				"y": 0.7691651291,
				"z": -0.0658698685,
				"element": "C" 
			},
			{
				"x": 0.6659503327,
				"y": 1.3126758268,
				"z": -1.3521948279,
				"element": "C" 
			},
			{
				"x": 0.7841228629,
				"y": 2.6965941339,
				"z": -1.4496659647,
				"element": "C" 
			},
			{
				"x": 0.9210537296,
				"y": 3.5086619088,
				"z": -0.304359009,
				"element": "C" 
			},
			{
				"x": 0.9440781763,
				"y": 2.9621151383,
				"z": 0.9739057453,
				"element": "C" 
			},
			{
				"x": 0.8267893523,
				"y": 1.5706211641,
				"z": 1.0989976398,
				"element": "C" 
			},
			{
				"x": 0.8199908652,
				"y": 0.7797446183,
				"z": 2.2353059298,
				"element": "N" 
			},
			{
				"x": 0.6848514555,
				"y": -0.4500428727,
				"z": 1.7854498818,
				"element": "C" 
			},
			{
				"x": 0.6218702772,
				"y": -1.6618189476,
				"z": 2.5908254064,
				"element": "C" 
			},
			{
				"x": 0.6934237698,
				"y": -1.7186274377,
				"z": 3.9592330832,
				"element": "C" 
			},
			{
				"x": 0.5767907033,
				"y": -3.3592228722,
				"z": 4.4844809377,
				"element": "S" 
			},
			{
				"x": 0.4388565556,
				"y": -3.8504799474,
				"z": 2.8132940979,
				"element": "C" 
			},
			{
				"x": 0.4772096297,
				"y": -2.8801707167,
				"z": 1.9500757505,
				"element": "N" 
			},
			{
				"x": 0.4952152275,
				"y": -1.3853925341,
				"z": -0.1003200965,
				"element": "H" 
			},
			{
				"x": 0.5607012553,
				"y": 0.6908208967,
				"z": -2.2360458539,
				"element": "H" 
			},
			{
				"x": 0.7705119753,
				"y": 3.1616200115,
				"z": -2.4309922763,
				"element": "H" 
			},
			{
				"x": 1.0101282997,
				"y": 4.5838520429,
				"z": -0.4286030568,
				"element": "H" 
			},
			{
				"x": 1.0491797781,
				"y": 3.5821990471,
				"z": 1.8582662284,
				"element": "H" 
			},
			{
				"x": 0.805517475,
				"y": -0.893178553,
				"z": 4.645939253,
				"element": "H" 
			},
			{
				"x": 0.3307923329,
				"y": -4.8957976928,
				"z": 2.5500230257,
				"element": "H" 
			}
		],
		 "valence_orbital": [ 
			{
				"type": "occ",
				"energy": -0.29551,
				"method": "rhf"
			},
			{
				"type": "occ",
				"energy": -0.27145,
				"method": "rhf"
			},
			{
				"type": "occ",
				"energy": -0.27117,
				"method": "rhf"
			},
			{
				"type": "occ",
				"energy": -0.22355,
				"method": "rhf"
			},
			{
				"type": "occ",
				"energy": -0.21092,
				"method": "rhf"
			},
			{
				"type": "unocc",
				"energy": -0.04831,
				"method": "rhf"
			},
			{
				"type": "unocc",
				"energy": -0.01992,
				"method": "rhf"
			},
			{
				"type": "unocc",
				"energy": 0.00771,
				"method": "rhf"
			},
			{
				"type": "unocc",
				"energy": 0.02188,
				"method": "rhf"
			},
			{
				"type": "unocc",
				"energy": 0.03293,
				"method": "rhf"
			}
		],
		"cosmo_sigma_profile": { 
			"-0.025": 0.0,
			"-0.024": 0.0,
			"-0.023": 0.0,
			"-0.022": 0.0,
			"-0.021": 0.0,
			"-0.02": 0.0,
			"-0.019": 0.0,
			"-0.018": 0.0,
			"-0.017": 0.0,
			"-0.016": 0.198582744259,
			"-0.015": 0.725741979918,
			"-0.014": 0.816250775359,
			"-0.013": 1.19962525333,
			"-0.012": 0.580305027449,
			"-0.011": 1.52165935803,
			"-0.01": 3.78756462259,
			"-0.009": 4.42417994135,
			"-0.008": 4.66573425768,
			"-0.007": 4.49110554761,
			"-0.006": 8.97362498705,
			"-0.005": 11.4441628877,
			"-0.004": 11.6758921608,
			"-0.003": 13.5645187662,
			"-0.002": 11.4021104894,
			"-0.001": 15.245407753,
			"0.0": 21.5132305419,
			"0.001": 23.4715778176,
			"0.002": 19.6612196195,
			"0.003": 12.4175574438,
			"0.004": 12.4616593108,
			"0.005": 13.0521890598,
			"0.006": 10.1539248486,
			"0.007": 4.08711210208,
			"0.008": 2.5155071151,
			"0.009": 2.26502544152,
			"0.01": 2.43592985258,
			"0.011": 0.616135580857,
			"0.012": 1.39561344011,
			"0.013": 1.17992282014,
			"0.014": 0.926462475105,
			"0.015": 0.873417904604,
			"0.016": 0.590935967559,
			"0.017": 0.131965010582,
			"0.018": 0.0,
			"0.019": 0.0,
			"0.02": 0.0,
			"0.021": 0.0,
			"0.022": 0.0,
			"0.023": 0.0,
			"0.024": 0.0,
			"0.025": 0.0
		}
	}
}
