{
	 "smiles": "CCOC1=CC=C(C=C1)C1=NN=C2SCNN12", 
	 "Tm": 392.15, 
	 "num_atms": 29, 
	 "gaussian": { 
		 "optdone": 1, 
		 "sigma_profile": "yes", 
		 "theory": "DFT", 
		 "functional": "B3LYP", 
		 "basiset": "6-31G**", 
		 "properties": { 
			 "R2extent": 6955.7268, 
			 "electric_dipole_moment_norm": 5.34139488149, 
			 "electric_quadrupole_moment_norm": 31.2365852516, 
			 "total_energy": -1118.74286057, 
			 "HOMO_LUMO_gap": 0.17701, 
			 "cosmo_polarized_energy": -21.16, 
			 "cosmo_cavitation_energy": 34.21, 
			 "cosmo_dispersion_energy": -25.96, 
			 "cosmo_repulsion_energy": 1.95, 
			 "cosmo_total_nonelectrostatic_energy": 10.2, 
			 "SMD_solvation_energy": 3.32 
		},
		"coords": [
			{
				"x": -0.8563663384,
				"y": 3.04309312,
				"z": -4.4269568402,
				"element": "C" 
			},
			{
				"x": -1.362461203,
				"y": 1.6048479862,
				"z": -4.4608365271,
				"element": "C" 
			},
			{
				"x": -0.5585993233,
				"y": 0.7217307023,
				"z": -3.6715716813,
				"element": "O" 
			},
			{
				"x": -0.7383469605,
				"y": 0.6553443006,
				"z": -2.3229230957,
				"element": "C" 
			},
			{
				"x": 0.1177729117,
				"y": -0.2252846769,
				"z": -1.6437389022,
				"element": "C" 
			},
			{
				"x": 0.0181985016,
				"y": -0.3884715171,
				"z": -0.2691045068,
				"element": "C" 
			},
			{
				"x": -0.9419351069,
				"y": 0.3272494273,
				"z": 0.4690953468,
				"element": "C" 
			},
			{
				"x": -1.7946054476,
				"y": 1.2052849192,
				"z": -0.2172032246,
				"element": "C" 
			},
			{
				"x": -1.6997136352,
				"y": 1.3737942941,
				"z": -1.5952252533,
				"element": "C" 
			},
			{
				"x": -1.0985111277,
				"y": 0.190302344,
				"z": 1.9164064553,
				"element": "C" 
			},
			{
				"x": -2.0679536925,
				"y": 0.7325762886,
				"z": 2.6368158315,
				"element": "N" 
			},
			{
				"x": -1.9093650792,
				"y": 0.3806926932,
				"z": 3.9720832334,
				"element": "N" 
			},
			{
				"x": -0.8323926447,
				"y": -0.3531743147,
				"z": 4.0257889677,
				"element": "C" 
			},
			{
				"x": 0.0967524953,
				"y": -1.1998837758,
				"z": 5.2650892041,
				"element": "S" 
			},
			{
				"x": 0.9066204123,
				"y": -2.1252015218,
				"z": 3.8304751151,
				"element": "C" 
			},
			{
				"x": 0.9282902649,
				"y": -1.2328667881,
				"z": 2.6763724501,
				"element": "N" 
			},
			{
				"x": -0.2838861532,
				"y": -0.5160002012,
				"z": 2.7769378485,
				"element": "N" 
			},
			{
				"x": -1.45755217,
				"y": 3.6671266005,
				"z": -5.0966697135,
				"element": "H" 
			},
			{
				"x": 0.1849528238,
				"y": 3.0856738147,
				"z": -4.7586062721,
				"element": "H" 
			},
			{
				"x": -0.9119424998,
				"y": 3.4693709433,
				"z": -3.4217292678,
				"element": "H" 
			},
			{
				"x": -1.2909063292,
				"y": 1.2014606242,
				"z": -5.4747592158,
				"element": "H" 
			},
			{
				"x": -2.4138199289,
				"y": 1.5374489384,
				"z": -4.1549187826,
				"element": "H" 
			},
			{
				"x": 0.8517763818,
				"y": -0.7776169464,
				"z": -2.2211741369,
				"element": "H" 
			},
			{
				"x": 0.6813844941,
				"y": -1.083439999,
				"z": 0.2346424664,
				"element": "H" 
			},
			{
				"x": -2.537136119,
				"y": 1.7569279169,
				"z": 0.3491494299,
				"element": "H" 
			},
			{
				"x": -2.3730640636,
				"y": 2.0657145286,
				"z": -2.0864511983,
				"element": "H" 
			},
			{
				"x": 1.9182186968,
				"y": -2.4272248373,
				"z": 4.100004124,
				"element": "H" 
			},
			{
				"x": 0.2895114085,
				"y": -2.9967651824,
				"z": 3.6062682375,
				"element": "H" 
			},
			{
				"x": 1.6839794319,
				"y": -0.5519096814,
				"z": 2.7888399076,
				"element": "H" 
			}
		],
		 "valence_orbital": [ 
			{
				"type": "occ",
				"energy": -0.27481,
				"method": "rhf"
			},
			{
				"type": "occ",
				"energy": -0.25644,
				"method": "rhf"
			},
			{
				"type": "occ",
				"energy": -0.25055,
				"method": "rhf"
			},
			{
				"type": "occ",
				"energy": -0.24545,
				"method": "rhf"
			},
			{
				"type": "occ",
				"energy": -0.20424,
				"method": "rhf"
			},
			{
				"type": "unocc",
				"energy": -0.02723,
				"method": "rhf"
			},
			{
				"type": "unocc",
				"energy": -0.01148,
				"method": "rhf"
			},
			{
				"type": "unocc",
				"energy": -0.00665,
				"method": "rhf"
			},
			{
				"type": "unocc",
				"energy": 0.03245,
				"method": "rhf"
			},
			{
				"type": "unocc",
				"energy": 0.04582,
				"method": "rhf"
			}
		],
		"cosmo_sigma_profile": { 
			"-0.025": 0.0,
			"-0.024": 0.0,
			"-0.023": 0.0,
			"-0.022": 0.0,
			"-0.021": 0.0,
			"-0.02": 0.0,
			"-0.019": 0.0,
			"-0.018": 0.0,
			"-0.017": 0.0,
			"-0.016": 0.0,
			"-0.015": 1.50789866303,
			"-0.014": 2.00328115945,
			"-0.013": 1.63485915555,
			"-0.012": 2.10610341761,
			"-0.011": 1.54704874314,
			"-0.01": 3.53494315191,
			"-0.009": 3.88856420896,
			"-0.008": 5.91936659519,
			"-0.007": 6.74535818404,
			"-0.006": 11.8678156017,
			"-0.005": 15.8891904295,
			"-0.004": 19.55173244,
			"-0.003": 20.5193933784,
			"-0.002": 18.8684948182,
			"-0.001": 18.9340249862,
			"0.0": 19.4035001315,
			"0.001": 17.1218740158,
			"0.002": 17.2283744575,
			"0.003": 19.5209363488,
			"0.004": 19.9654699947,
			"0.005": 9.93784316556,
			"0.006": 7.74880296215,
			"0.007": 3.71321545153,
			"0.008": 2.77898736438,
			"0.009": 3.35460896182,
			"0.01": 3.93162463991,
			"0.011": 2.29117737033,
			"0.012": 2.59877370258,
			"0.013": 3.36645812873,
			"0.014": 3.31715451923,
			"0.015": 2.7758743631,
			"0.016": 1.72171700066,
			"0.017": 0.206932526728,
			"0.018": 0.0,
			"0.019": 0.0,
			"0.02": 0.0,
			"0.021": 0.0,
			"0.022": 0.0,
			"0.023": 0.0,
			"0.024": 0.0,
			"0.025": 0.0
		}
	}
}
