{
	 "smiles": "CC1=CC=C(CO)C=C1", 
	 "Tm": 333.35, 
	 "num_atms": 19, 
	 "gaussian": { 
		 "optdone": 1, 
		 "sigma_profile": "yes", 
		 "theory": "DFT", 
		 "functional": "B3LYP", 
		 "basiset": "6-31G**", 
		 "properties": { 
			 "R2extent": 2427.9649, 
			 "electric_dipole_moment_norm": 2.47699358295, 
			 "electric_quadrupole_moment_norm": 10.8253668649, 
			 "total_energy": -386.096475579, 
			 "HOMO_LUMO_gap": 0.23196, 
			 "cosmo_polarized_energy": -6.87, 
			 "cosmo_cavitation_energy": 22.23, 
			 "cosmo_dispersion_energy": -16.32, 
			 "cosmo_repulsion_energy": 1.35, 
			 "cosmo_total_nonelectrostatic_energy": 7.27, 
			 "SMD_solvation_energy": 3.9 
		},
		"coords": [
			{
				"x": 1.2064699423,
				"y": 0.9322769257,
				"z": -1.3122352773,
				"element": "C" 
			},
			{
				"x": -0.1844034913,
				"y": 0.3556567165,
				"z": -1.1890516139,
				"element": "C" 
			},
			{
				"x": -0.618062853,
				"y": -0.6706974533,
				"z": -2.0392237325,
				"element": "C" 
			},
			{
				"x": -1.8926457647,
				"y": -1.2206778736,
				"z": -1.909983929,
				"element": "C" 
			},
			{
				"x": -2.7798376223,
				"y": -0.7575862217,
				"z": -0.928884755,
				"element": "C" 
			},
			{
				"x": -4.1361171904,
				"y": -1.3951854726,
				"z": -0.747565898,
				"element": "C" 
			},
			{
				"x": -4.1135441669,
				"y": -2.5042855108,
				"z": 0.1586170954,
				"element": "O" 
			},
			{
				"x": -2.3476974841,
				"y": 0.2684525131,
				"z": -0.0776403259,
				"element": "C" 
			},
			{
				"x": -1.0727686396,
				"y": 0.8173077076,
				"z": -0.2082597475,
				"element": "C" 
			},
			{
				"x": 1.9202995535,
				"y": 0.3810996714,
				"z": -0.6870802249,
				"element": "H" 
			},
			{
				"x": 1.5713208718,
				"y": 0.8814670917,
				"z": -2.3425011371,
				"element": "H" 
			},
			{
				"x": 1.2361291279,
				"y": 1.9783021216,
				"z": -0.9927095885,
				"element": "H" 
			},
			{
				"x": 0.0488758372,
				"y": -1.0391748347,
				"z": -2.8150532286,
				"element": "H" 
			},
			{
				"x": -2.2090327527,
				"y": -2.0124166627,
				"z": -2.5849971308,
				"element": "H" 
			},
			{
				"x": -4.5154542655,
				"y": -1.7471227252,
				"z": -1.7167239926,
				"element": "H" 
			},
			{
				"x": -4.8500988959,
				"y": -0.6516185317,
				"z": -0.367621006,
				"element": "H" 
			},
			{
				"x": -3.2051421995,
				"y": -2.6063201917,
				"z": 0.4666682935,
				"element": "H" 
			},
			{
				"x": -3.0216793856,
				"y": 0.6469137456,
				"z": 0.6872842871,
				"element": "H" 
			},
			{
				"x": -0.7637106211,
				"y": 1.6200089848,
				"z": 0.4570619117,
				"element": "H" 
			}
		],
		 "valence_orbital": [ 
			{
				"type": "occ",
				"energy": -0.33894,
				"method": "rhf"
			},
			{
				"type": "occ",
				"energy": -0.31794,
				"method": "rhf"
			},
			{
				"type": "occ",
				"energy": -0.26088,
				"method": "rhf"
			},
			{
				"type": "occ",
				"energy": -0.25132,
				"method": "rhf"
			},
			{
				"type": "occ",
				"energy": -0.24166,
				"method": "rhf"
			},
			{
				"type": "unocc",
				"energy": -0.0097,
				"method": "rhf"
			},
			{
				"type": "unocc",
				"energy": -0.00541,
				"method": "rhf"
			},
			{
				"type": "unocc",
				"energy": 0.09411,
				"method": "rhf"
			},
			{
				"type": "unocc",
				"energy": 0.10753,
				"method": "rhf"
			},
			{
				"type": "unocc",
				"energy": 0.11288,
				"method": "rhf"
			}
		],
		"cosmo_sigma_profile": { 
			"-0.025": 0.0,
			"-0.024": 0.0,
			"-0.023": 0.0,
			"-0.022": 0.0,
			"-0.021": 0.0,
			"-0.02": 0.0,
			"-0.019": 0.0,
			"-0.018": 0.0,
			"-0.017": 0.0,
			"-0.016": 0.0,
			"-0.015": 0.0206834767929,
			"-0.014": 0.613777490082,
			"-0.013": 0.648761375125,
			"-0.012": 0.724296120048,
			"-0.011": 0.660959732813,
			"-0.01": 0.820872147979,
			"-0.009": 0.306742212816,
			"-0.008": 0.68774558589,
			"-0.007": 0.618296892082,
			"-0.006": 2.22412071786,
			"-0.005": 10.7104379835,
			"-0.004": 20.7198148469,
			"-0.003": 21.4190183234,
			"-0.002": 17.0586743121,
			"-0.001": 17.0296276319,
			"0.0": 17.1329663172,
			"0.001": 11.3713524887,
			"0.002": 7.47433609865,
			"0.003": 7.5036253481,
			"0.004": 8.91868232949,
			"0.005": 8.79216574568,
			"0.006": 7.32461113677,
			"0.007": 0.741922668475,
			"0.008": 0.810955199882,
			"0.009": 1.68305281075,
			"0.01": 0.653889154768,
			"0.011": 1.15890665491,
			"0.012": 2.07274869703,
			"0.013": 1.37085924945,
			"0.014": 2.24359795609,
			"0.015": 1.58830255188,
			"0.016": 0.0,
			"0.017": 0.0,
			"0.018": 0.0,
			"0.019": 0.0,
			"0.02": 0.0,
			"0.021": 0.0,
			"0.022": 0.0,
			"0.023": 0.0,
			"0.024": 0.0,
			"0.025": 0.0
		}
	}
}
