{
	 "smiles": "CC1=C(SC(NC(=O)C2=CC(F)=CC=C2)=C1)C(O)=O", 
	 "Tm": 485.15, 
	 "num_atms": 29, 
	 "gaussian": { 
		 "optdone": 1, 
		 "sigma_profile": "yes", 
		 "theory": "DFT", 
		 "functional": "B3LYP", 
		 "basiset": "6-31G**", 
		 "properties": { 
			 "R2extent": 6899.2305, 
			 "electric_dipole_moment_norm": 3.56472267365, 
			 "electric_quadrupole_moment_norm": 13.3513900905, 
			 "total_energy": -1279.87311594, 
			 "HOMO_LUMO_gap": 0.16411, 
			 "cosmo_polarized_energy": -16.92, 
			 "cosmo_cavitation_energy": 36.76, 
			 "cosmo_dispersion_energy": -25.74, 
			 "cosmo_repulsion_energy": 1.94, 
			 "cosmo_total_nonelectrostatic_energy": 12.96, 
			 "SMD_solvation_energy": 8.21 
		},
		"coords": [
			{
				"x": -1.0950259278,
				"y": 2.4095480824,
				"z": 0.8913744935,
				"element": "C" 
			},
			{
				"x": -0.5289395514,
				"y": 1.5961073142,
				"z": -0.2428855043,
				"element": "C" 
			},
			{
				"x": -0.8200807858,
				"y": 1.7611894448,
				"z": -1.5883310813,
				"element": "C" 
			},
			{
				"x": 0.0400195152,
				"y": 0.6174597158,
				"z": -2.5957540881,
				"element": "S" 
			},
			{
				"x": 0.8283818383,
				"y": -0.0582317311,
				"z": -1.1962962502,
				"element": "C" 
			},
			{
				"x": 1.744731132,
				"y": -1.1017315653,
				"z": -1.3616774006,
				"element": "N" 
			},
			{
				"x": 2.030722036,
				"y": -2.1625481134,
				"z": -0.5013441515,
				"element": "C" 
			},
			{
				"x": 3.1350276193,
				"y": -2.6844002105,
				"z": -0.5452298281,
				"element": "O" 
			},
			{
				"x": 0.9537801479,
				"y": -2.6754566336,
				"z": 0.4063598892,
				"element": "C" 
			},
			{
				"x": 1.3704357272,
				"y": -3.2686136742,
				"z": 1.6051416954,
				"element": "C" 
			},
			{
				"x": 0.4153630756,
				"y": -3.8223432532,
				"z": 2.4450884838,
				"element": "C" 
			},
			{
				"x": 0.8116406653,
				"y": -4.3764178864,
				"z": 3.6084307324,
				"element": "F" 
			},
			{
				"x": -0.9381228001,
				"y": -3.8326503693,
				"z": 2.1221855603,
				"element": "C" 
			},
			{
				"x": -1.3393575142,
				"y": -3.2643091113,
				"z": 0.9121617693,
				"element": "C" 
			},
			{
				"x": -0.404349351,
				"y": -2.6813694784,
				"z": 0.0567174328,
				"element": "C" 
			},
			{
				"x": 0.4220309816,
				"y": 0.5573155947,
				"z": -0.0347961421,
				"element": "C" 
			},
			{
				"x": -1.6840816326,
				"y": 2.7117030545,
				"z": -2.2844345934,
				"element": "C" 
			},
			{
				"x": -2.3347002181,
				"y": 3.5634775491,
				"z": -1.4484408849,
				"element": "O" 
			},
			{
				"x": -1.8279643739,
				"y": 2.7542460177,
				"z": -3.4937347793,
				"element": "O" 
			},
			{
				"x": -0.8737717815,
				"y": 3.4731825683,
				"z": 0.7676539395,
				"element": "H" 
			},
			{
				"x": -2.1841530642,
				"y": 2.3209407991,
				"z": 0.9379553413,
				"element": "H" 
			},
			{
				"x": -0.6783575854,
				"y": 2.0750644804,
				"z": 1.8445171076,
				"element": "H" 
			},
			{
				"x": 2.5055818642,
				"y": -0.946939201,
				"z": -2.0148222726,
				"element": "H" 
			},
			{
				"x": 2.4221198245,
				"y": -3.3034818279,
				"z": 1.8642047718,
				"element": "H" 
			},
			{
				"x": -1.6481245966,
				"y": -4.284868808,
				"z": 2.8061658763,
				"element": "H" 
			},
			{
				"x": -2.388921954,
				"y": -3.2790827741,
				"z": 0.6352761669,
				"element": "H" 
			},
			{
				"x": -0.7280031833,
				"y": -2.2523294169,
				"z": -0.8845102483,
				"element": "H" 
			},
			{
				"x": 0.8018657223,
				"y": 0.2847942073,
				"z": 0.9425306795,
				"element": "H" 
			},
			{
				"x": -2.8687458295,
				"y": 4.1321452263,
				"z": -2.0278067147,
				"element": "H" 
			}
		],
		 "valence_orbital": [ 
			{
				"type": "occ",
				"energy": -0.28129,
				"method": "rhf"
			},
			{
				"type": "occ",
				"energy": -0.26747,
				"method": "rhf"
			},
			{
				"type": "occ",
				"energy": -0.2645,
				"method": "rhf"
			},
			{
				"type": "occ",
				"energy": -0.25741,
				"method": "rhf"
			},
			{
				"type": "occ",
				"energy": -0.23236,
				"method": "rhf"
			},
			{
				"type": "unocc",
				"energy": -0.06825,
				"method": "rhf"
			},
			{
				"type": "unocc",
				"energy": -0.04685,
				"method": "rhf"
			},
			{
				"type": "unocc",
				"energy": -0.0146,
				"method": "rhf"
			},
			{
				"type": "unocc",
				"energy": 0.0083,
				"method": "rhf"
			},
			{
				"type": "unocc",
				"energy": 0.01949,
				"method": "rhf"
			}
		],
		"cosmo_sigma_profile": { 
			"-0.025": 0.0,
			"-0.024": 0.0,
			"-0.023": 0.0,
			"-0.022": 0.0,
			"-0.021": 0.0,
			"-0.02": 0.0,
			"-0.019": 0.015400191992,
			"-0.018": 0.596338496104,
			"-0.017": 1.12604260139,
			"-0.016": 1.3309286127,
			"-0.015": 1.6170368519,
			"-0.014": 1.24832534918,
			"-0.013": 1.30324617247,
			"-0.012": 1.79184362639,
			"-0.011": 2.96057218765,
			"-0.01": 1.88844688105,
			"-0.009": 1.03187025044,
			"-0.008": 2.89894086022,
			"-0.007": 8.37890128807,
			"-0.006": 12.7586448238,
			"-0.005": 15.3498094372,
			"-0.004": 15.1586996717,
			"-0.003": 17.5614154834,
			"-0.002": 19.1093972952,
			"-0.001": 25.4330269187,
			"0.0": 27.8940588737,
			"0.001": 26.8274881667,
			"0.002": 28.5188154586,
			"0.003": 22.3146167292,
			"0.004": 15.7027937477,
			"0.005": 7.50120800003,
			"0.006": 4.71683695953,
			"0.007": 3.83386417508,
			"0.008": 2.56080376077,
			"0.009": 3.04244270657,
			"0.01": 3.86240545706,
			"0.011": 5.36554429662,
			"0.012": 10.464542788,
			"0.013": 1.98209889173,
			"0.014": 0.0,
			"0.015": 0.0,
			"0.016": 0.0,
			"0.017": 0.0,
			"0.018": 0.0,
			"0.019": 0.0,
			"0.02": 0.0,
			"0.021": 0.0,
			"0.022": 0.0,
			"0.023": 0.0,
			"0.024": 0.0,
			"0.025": 0.0
		}
	}
}
