{
	 "smiles": "COC(=O)C1=CC=CC(C)=C1S(=O)(=O)NC(=O)NC1=NC(=NC(OCC(F)(F)F)=N1)N(C)C", 
	 "Tm": 433.15, 
	 "num_atms": 52, 
	 "gaussian": { 
		 "optdone": 1, 
		 "sigma_profile": "yes", 
		 "theory": "DFT", 
		 "functional": "B3LYP", 
		 "basiset": "6-31G**", 
		 "properties": { 
			 "R2extent": 21285.5145, 
			 "electric_dipole_moment_norm": 4.72968570097, 
			 "electric_quadrupole_moment_norm": 29.5713935076, 
			 "total_energy": -2136.80401044, 
			 "HOMO_LUMO_gap": 0.1698, 
			 "cosmo_polarized_energy": -25.95, 
			 "cosmo_cavitation_energy": 60.06, 
			 "cosmo_dispersion_energy": -40.17, 
			 "cosmo_repulsion_energy": 2.94, 
			 "cosmo_total_nonelectrostatic_energy": 22.83, 
			 "SMD_solvation_energy": 11.16 
		},
		"coords": [
			{
				"x": 0.8437315402,
				"y": -4.3419895576,
				"z": -5.5710137103,
				"element": "C" 
			},
			{
				"x": -0.2020393371,
				"y": -3.5809993228,
				"z": -4.9392737929,
				"element": "O" 
			},
			{
				"x": -1.093079864,
				"y": -4.3027707599,
				"z": -4.2386070566,
				"element": "C" 
			},
			{
				"x": -1.171864282,
				"y": -5.5103049856,
				"z": -4.2469907316,
				"element": "O" 
			},
			{
				"x": -2.0929781854,
				"y": -3.4018273011,
				"z": -3.5572412671,
				"element": "C" 
			},
			{
				"x": -3.4169354865,
				"y": -3.55836724,
				"z": -3.9757073461,
				"element": "C" 
			},
			{
				"x": -4.4074908748,
				"y": -2.7036891732,
				"z": -3.5024501934,
				"element": "C" 
			},
			{
				"x": -4.0768407158,
				"y": -1.6833376592,
				"z": -2.6164697139,
				"element": "C" 
			},
			{
				"x": -2.7697370644,
				"y": -1.5098903769,
				"z": -2.139551149,
				"element": "C" 
			},
			{
				"x": -2.5085564522,
				"y": -0.3839539787,
				"z": -1.1662877673,
				"element": "C" 
			},
			{
				"x": -1.7869561116,
				"y": -2.411070253,
				"z": -2.6034370261,
				"element": "C" 
			},
			{
				"x": -0.1042971396,
				"y": -2.3522380297,
				"z": -1.940257202,
				"element": "S" 
			},
			{
				"x": 0.5215446967,
				"y": -1.0581765049,
				"z": -2.2514877172,
				"element": "O" 
			},
			{
				"x": 0.5638339602,
				"y": -3.6088490508,
				"z": -2.2693034193,
				"element": "O" 
			},
			{
				"x": -0.3650603513,
				"y": -2.3776955167,
				"z": -0.2605332077,
				"element": "N" 
			},
			{
				"x": 0.1120422074,
				"y": -1.5703071933,
				"z": 0.8177511091,
				"element": "C" 
			},
			{
				"x": -0.0932213859,
				"y": -1.960624509,
				"z": 1.9458803043,
				"element": "O" 
			},
			{
				"x": 0.7478193351,
				"y": -0.4128266407,
				"z": 0.4281085559,
				"element": "N" 
			},
			{
				"x": 1.2420917732,
				"y": 0.5987042079,
				"z": 1.245673507,
				"element": "C" 
			},
			{
				"x": 1.9267149323,
				"y": 1.5319181181,
				"z": 0.5872807576,
				"element": "N" 
			},
			{
				"x": 2.4108913706,
				"y": 2.5259982041,
				"z": 1.3687837411,
				"element": "C" 
			},
			{
				"x": 2.2351696605,
				"y": 2.5957014208,
				"z": 2.7081141102,
				"element": "N" 
			},
			{
				"x": 1.5244185508,
				"y": 1.5995978962,
				"z": 3.211210239,
				"element": "C" 
			},
			{
				"x": 1.361591238,
				"y": 1.6622341891,
				"z": 4.549436018,
				"element": "O" 
			},
			{
				"x": 0.5361062325,
				"y": 0.6854770635,
				"z": 5.1790051392,
				"element": "C" 
			},
			{
				"x": -0.8274318563,
				"y": 1.2867772664,
				"z": 5.4755413835,
				"element": "C" 
			},
			{
				"x": -0.7434032496,
				"y": 2.3410325042,
				"z": 6.3095047419,
				"element": "F" 
			},
			{
				"x": -1.6081822675,
				"y": 0.3553022082,
				"z": 6.0648396414,
				"element": "F" 
			},
			{
				"x": -1.4436436678,
				"y": 1.7035897562,
				"z": 4.3533041552,
				"element": "F" 
			},
			{
				"x": 0.9901641111,
				"y": 0.568846801,
				"z": 2.5542710534,
				"element": "N" 
			},
			{
				"x": 3.1206258764,
				"y": 3.5159901212,
				"z": 0.7707229737,
				"element": "N" 
			},
			{
				"x": 3.3706960098,
				"y": 3.5308624246,
				"z": -0.6623531421,
				"element": "C" 
			},
			{
				"x": 3.677617216,
				"y": 4.6266329086,
				"z": 1.5288408231,
				"element": "C" 
			},
			{
				"x": 0.4205639669,
				"y": -5.1102347617,
				"z": -6.2217116709,
				"element": "H" 
			},
			{
				"x": 1.4671555556,
				"y": -4.8125486683,
				"z": -4.8072215784,
				"element": "H" 
			},
			{
				"x": 1.4226083345,
				"y": -3.6207651149,
				"z": -6.1468081703,
				"element": "H" 
			},
			{
				"x": -3.6488165753,
				"y": -4.3450926546,
				"z": -4.6854382737,
				"element": "H" 
			},
			{
				"x": -5.4337843112,
				"y": -2.8226095961,
				"z": -3.8360418307,
				"element": "H" 
			},
			{
				"x": -4.8464880635,
				"y": -0.9994675115,
				"z": -2.2705590115,
				"element": "H" 
			},
			{
				"x": -2.5012226503,
				"y": -0.7444557213,
				"z": -0.1327355626,
				"element": "H" 
			},
			{
				"x": -3.301423183,
				"y": 0.3630864158,
				"z": -1.2501995104,
				"element": "H" 
			},
			{
				"x": -1.5554580898,
				"y": 0.1123009776,
				"z": -1.3553569236,
				"element": "H" 
			},
			{
				"x": -0.6363994102,
				"y": -3.296110697,
				"z": 0.077794817,
				"element": "H" 
			},
			{
				"x": 0.9422011324,
				"y": -0.2903502128,
				"z": -0.5641148153,
				"element": "H" 
			},
			{
				"x": 1.0124412016,
				"y": 0.424422603,
				"z": 6.1261740434,
				"element": "H" 
			},
			{
				"x": 0.4073546038,
				"y": -0.1967216989,
				"z": 4.5505847843,
				"element": "H" 
			},
			{
				"x": 2.943553749,
				"y": 4.4364132412,
				"z": -1.1115884348,
				"element": "H" 
			},
			{
				"x": 4.45067092,
				"y": 3.5309414529,
				"z": -0.8562933495,
				"element": "H" 
			},
			{
				"x": 2.9214247114,
				"y": 2.6537253286,
				"z": -1.1211926861,
				"element": "H" 
			},
			{
				"x": 4.7685989702,
				"y": 4.6519305229,
				"z": 1.4141677082,
				"element": "H" 
			},
			{
				"x": 3.4258660981,
				"y": 4.5109035655,
				"z": 2.5802014598,
				"element": "H" 
			},
			{
				"x": 3.272812621,
				"y": 5.5765854927,
				"z": 1.157735194,
				"element": "H" 
			}
		],
		 "valence_orbital": [ 
			{
				"type": "occ",
				"energy": -0.27208,
				"method": "rhf"
			},
			{
				"type": "occ",
				"energy": -0.26832,
				"method": "rhf"
			},
			{
				"type": "occ",
				"energy": -0.26722,
				"method": "rhf"
			},
			{
				"type": "occ",
				"energy": -0.26088,
				"method": "rhf"
			},
			{
				"type": "occ",
				"energy": -0.23451,
				"method": "rhf"
			},
			{
				"type": "unocc",
				"energy": -0.06471,
				"method": "rhf"
			},
			{
				"type": "unocc",
				"energy": -0.04001,
				"method": "rhf"
			},
			{
				"type": "unocc",
				"energy": -0.02888,
				"method": "rhf"
			},
			{
				"type": "unocc",
				"energy": -0.00487,
				"method": "rhf"
			},
			{
				"type": "unocc",
				"energy": 0.01603,
				"method": "rhf"
			}
		],
		"cosmo_sigma_profile": { 
			"-0.025": 0.0,
			"-0.024": 0.0,
			"-0.023": 0.0,
			"-0.022": 0.0,
			"-0.021": 0.0,
			"-0.02": 0.0,
			"-0.019": 0.0,
			"-0.018": 0.0575211376446,
			"-0.017": 0.707501138477,
			"-0.016": 0.746177466256,
			"-0.015": 0.916528374801,
			"-0.014": 1.3049474825,
			"-0.013": 0.609486930761,
			"-0.012": 0.920640679912,
			"-0.011": 0.824233108124,
			"-0.01": 1.48633968898,
			"-0.009": 2.98188131139,
			"-0.008": 6.99969787287,
			"-0.007": 13.2895759593,
			"-0.006": 21.4007617946,
			"-0.005": 35.3354972903,
			"-0.004": 37.1391071413,
			"-0.003": 41.0202659835,
			"-0.002": 45.0531274803,
			"-0.001": 32.6029086693,
			"0.0": 29.6467646883,
			"0.001": 32.049826861,
			"0.002": 39.9381313371,
			"0.003": 34.6764186816,
			"0.004": 13.7156518406,
			"0.005": 12.4588795276,
			"0.006": 11.9927615593,
			"0.007": 11.5607518908,
			"0.008": 11.0959817991,
			"0.009": 10.8462054852,
			"0.01": 10.9126846347,
			"0.011": 12.2764390163,
			"0.012": 4.54409841543,
			"0.013": 0.0704879096242,
			"0.014": 0.0,
			"0.015": 0.0,
			"0.016": 0.0,
			"0.017": 0.0,
			"0.018": 0.0,
			"0.019": 0.0,
			"0.02": 0.0,
			"0.021": 0.0,
			"0.022": 0.0,
			"0.023": 0.0,
			"0.024": 0.0,
			"0.025": 0.0
		}
	}
}
