{
	 "smiles": "NC1=CC(NC(=O)C2=CN=CC=C2)=CC=C1", 
	 "Tm": 429.15, 
	 "num_atms": 27, 
	 "gaussian": { 
		 "optdone": 1, 
		 "sigma_profile": "yes", 
		 "theory": "DFT", 
		 "functional": "B3LYP", 
		 "basiset": "6-31G**", 
		 "properties": { 
			 "R2extent": 4084.5505, 
			 "electric_dipole_moment_norm": 6.45788214587, 
			 "electric_quadrupole_moment_norm": 10.9209159849, 
			 "total_energy": -703.392481963, 
			 "HOMO_LUMO_gap": 0.16439, 
			 "cosmo_polarized_energy": -18.13, 
			 "cosmo_cavitation_energy": 31.64, 
			 "cosmo_dispersion_energy": -22.51, 
			 "cosmo_repulsion_energy": 1.76, 
			 "cosmo_total_nonelectrostatic_energy": 10.89, 
			 "SMD_solvation_energy": 4.54 
		},
		"coords": [
			{
				"x": -2.087842543,
				"y": -1.1177362742,
				"z": -3.9851625738,
				"element": "N" 
			},
			{
				"x": -1.7693988726,
				"y": -0.9846227644,
				"z": -2.6353250175,
				"element": "C" 
			},
			{
				"x": -1.5551886123,
				"y": 0.2847304765,
				"z": -2.0752105392,
				"element": "C" 
			},
			{
				"x": -1.3033318528,
				"y": 0.430242955,
				"z": -0.7067772292,
				"element": "C" 
			},
			{
				"x": -1.1497394862,
				"y": 1.7489908393,
				"z": -0.2002737052,
				"element": "N" 
			},
			{
				"x": -0.3957371936,
				"y": 2.2309745669,
				"z": 0.8543998028,
				"element": "C" 
			},
			{
				"x": -0.7002458371,
				"y": 3.2912305393,
				"z": 1.3899119991,
				"element": "O" 
			},
			{
				"x": 0.8368233181,
				"y": 1.4885057274,
				"z": 1.2754727965,
				"element": "C" 
			},
			{
				"x": 1.2503807292,
				"y": 1.6167863651,
				"z": 2.6100034615,
				"element": "C" 
			},
			{
				"x": 2.3630101252,
				"y": 1.0657381583,
				"z": 3.1037714674,
				"element": "N" 
			},
			{
				"x": 3.1334843907,
				"y": 0.3753221536,
				"z": 2.2523249277,
				"element": "C" 
			},
			{
				"x": 2.8329957984,
				"y": 0.2067068673,
				"z": 0.8996181912,
				"element": "C" 
			},
			{
				"x": 1.6599020319,
				"y": 0.7683828866,
				"z": 0.4020580042,
				"element": "C" 
			},
			{
				"x": -1.2572260486,
				"y": -0.6952074679,
				"z": 0.126109139,
				"element": "C" 
			},
			{
				"x": -1.4429035191,
				"y": -1.9568525416,
				"z": -0.4396775992,
				"element": "C" 
			},
			{
				"x": -1.6987912504,
				"y": -2.1131736139,
				"z": -1.7986139518,
				"element": "C" 
			},
			{
				"x": -1.7969998577,
				"y": -0.3560164274,
				"z": -4.5817394441,
				"element": "H" 
			},
			{
				"x": -1.8875273378,
				"y": -2.0204274587,
				"z": -4.3922030748,
				"element": "H" 
			},
			{
				"x": -1.5826805232,
				"y": 1.1684637087,
				"z": -2.7079662392,
				"element": "H" 
			},
			{
				"x": -1.8572123901,
				"y": 2.4197197074,
				"z": -0.477315864,
				"element": "H" 
			},
			{
				"x": 0.6402686123,
				"y": 2.198454687,
				"z": 3.2964366965,
				"element": "H" 
			},
			{
				"x": 4.0395270133,
				"y": -0.0591993766,
				"z": 2.6716141996,
				"element": "H" 
			},
			{
				"x": 3.5043430217,
				"y": -0.3502724052,
				"z": 0.2537102762,
				"element": "H" 
			},
			{
				"x": 1.3955091401,
				"y": 0.6598814895,
				"z": -0.6442780927,
				"element": "H" 
			},
			{
				"x": -1.0938454578,
				"y": -0.5835704559,
				"z": 1.1911082693,
				"element": "H" 
			},
			{
				"x": -1.4045070898,
				"y": -2.835559576,
				"z": 0.1978240921,
				"element": "H" 
			},
			{
				"x": -1.8580663088,
				"y": -3.1034927659,
				"z": -2.2167199923,
				"element": "H" 
			}
		],
		 "valence_orbital": [ 
			{
				"type": "occ",
				"energy": -0.27222,
				"method": "rhf"
			},
			{
				"type": "occ",
				"energy": -0.25801,
				"method": "rhf"
			},
			{
				"type": "occ",
				"energy": -0.24788,
				"method": "rhf"
			},
			{
				"type": "occ",
				"energy": -0.23566,
				"method": "rhf"
			},
			{
				"type": "occ",
				"energy": -0.21104,
				"method": "rhf"
			},
			{
				"type": "unocc",
				"energy": -0.04665,
				"method": "rhf"
			},
			{
				"type": "unocc",
				"energy": -0.02503,
				"method": "rhf"
			},
			{
				"type": "unocc",
				"energy": -0.00472,
				"method": "rhf"
			},
			{
				"type": "unocc",
				"energy": 0.00559,
				"method": "rhf"
			},
			{
				"type": "unocc",
				"energy": 0.05052,
				"method": "rhf"
			}
		],
		"cosmo_sigma_profile": { 
			"-0.025": 0.0,
			"-0.024": 0.0,
			"-0.023": 0.0,
			"-0.022": 0.0,
			"-0.021": 0.0,
			"-0.02": 0.0,
			"-0.019": 0.0,
			"-0.018": 0.0,
			"-0.017": 0.0,
			"-0.016": 0.0,
			"-0.015": 0.00784134617536,
			"-0.014": 0.900091924429,
			"-0.013": 1.46905856762,
			"-0.012": 3.2476695557,
			"-0.011": 4.19227359735,
			"-0.01": 3.65059156278,
			"-0.009": 4.07002504647,
			"-0.008": 4.7934316677,
			"-0.007": 9.39279038394,
			"-0.006": 15.8754508822,
			"-0.005": 15.8301177094,
			"-0.004": 14.9556897466,
			"-0.003": 15.1719721503,
			"-0.002": 14.3520810579,
			"-0.001": 13.8526922887,
			"0.0": 15.3643891688,
			"0.001": 20.3341364694,
			"0.002": 17.3028027594,
			"0.003": 12.7119918989,
			"0.004": 10.6716913286,
			"0.005": 10.8743026455,
			"0.006": 10.2269348554,
			"0.007": 4.83173078621,
			"0.008": 2.74485399737,
			"0.009": 3.51173772845,
			"0.01": 3.49528812004,
			"0.011": 3.44472636524,
			"0.012": 5.05267308117,
			"0.013": 6.39363627957,
			"0.014": 2.23227158478,
			"0.015": 1.05775940026,
			"0.016": 0.65475552077,
			"0.017": 0.0232546767698,
			"0.018": 0.0,
			"0.019": 0.0,
			"0.02": 0.0,
			"0.021": 0.0,
			"0.022": 0.0,
			"0.023": 0.0,
			"0.024": 0.0,
			"0.025": 0.0
		}
	}
}
