{
	 "smiles": "CN1N(C(=O)C(NC(=O)C2=CC(N)=CC=C2)=C1C)C1=CC=CC=C1", 
	 "Tm": 281.15, 
	 "num_atms": 42, 
	 "gaussian": { 
		 "optdone": 1, 
		 "sigma_profile": "yes", 
		 "theory": "DFT", 
		 "functional": "B3LYP", 
		 "basiset": "6-31G**", 
		 "properties": { 
			 "R2extent": 8610.2853, 
			 "electric_dipole_moment_norm": 8.18363654252, 
			 "electric_quadrupole_moment_norm": 23.9589309693, 
			 "total_energy": -1066.2075416, 
			 "HOMO_LUMO_gap": 0.16733, 
			 "cosmo_polarized_energy": -29.47, 
			 "cosmo_cavitation_energy": 45.95, 
			 "cosmo_dispersion_energy": -30.47, 
			 "cosmo_repulsion_energy": 2.34, 
			 "cosmo_total_nonelectrostatic_energy": 17.83, 
			 "SMD_solvation_energy": 8.73 
		},
		"coords": [
			{
				"x": 1.6056467592,
				"y": 2.2148990165,
				"z": 0.347439121,
				"element": "C" 
			},
			{
				"x": 0.2931810933,
				"y": 1.633690362,
				"z": 0.6637198205,
				"element": "N" 
			},
			{
				"x": 0.3313319708,
				"y": 0.2279307182,
				"z": 0.8516201958,
				"element": "N" 
			},
			{
				"x": -0.7970019047,
				"y": -0.3709092859,
				"z": 0.2408983698,
				"element": "C" 
			},
			{
				"x": -1.1185239112,
				"y": -1.5448330587,
				"z": 0.3366565164,
				"element": "O" 
			},
			{
				"x": -1.4519924712,
				"y": 0.7340499804,
				"z": -0.4645866972,
				"element": "C" 
			},
			{
				"x": -2.6774773805,
				"y": 0.6186870465,
				"z": -1.151477471,
				"element": "N" 
			},
			{
				"x": -3.0428698241,
				"y": -0.4343659998,
				"z": -1.995295358,
				"element": "C" 
			},
			{
				"x": -4.2212649299,
				"y": -0.7516134669,
				"z": -2.0764747827,
				"element": "O" 
			},
			{
				"x": -1.9897771026,
				"y": -1.0882544483,
				"z": -2.8354852288,
				"element": "C" 
			},
			{
				"x": -0.8775562537,
				"y": -0.3945971843,
				"z": -3.3232080904,
				"element": "C" 
			},
			{
				"x": 0.0480122571,
				"y": -1.0286475495,
				"z": -4.1673710573,
				"element": "C" 
			},
			{
				"x": 1.1220589681,
				"y": -0.3123479153,
				"z": -4.7098053843,
				"element": "N" 
			},
			{
				"x": -0.1610045125,
				"y": -2.3750347404,
				"z": -4.5070000276,
				"element": "C" 
			},
			{
				"x": -1.2767254927,
				"y": -3.0586412019,
				"z": -4.0260387886,
				"element": "C" 
			},
			{
				"x": -2.2006153856,
				"y": -2.4240612456,
				"z": -3.2005553019,
				"element": "C" 
			},
			{
				"x": -0.7637445971,
				"y": 1.8802663656,
				"z": -0.217150994,
				"element": "C" 
			},
			{
				"x": -1.0283289835,
				"y": 3.2536444869,
				"z": -0.7407219705,
				"element": "C" 
			},
			{
				"x": 0.9674512145,
				"y": -0.2916497285,
				"z": 2.0107095536,
				"element": "C" 
			},
			{
				"x": 1.209870712,
				"y": 0.5176096586,
				"z": 3.1288797613,
				"element": "C" 
			},
			{
				"x": 1.8539027575,
				"y": -0.0192186683,
				"z": 4.2438644309,
				"element": "C" 
			},
			{
				"x": 2.2381654116,
				"y": -1.3604087554,
				"z": 4.262063324,
				"element": "C" 
			},
			{
				"x": 1.9752936482,
				"y": -2.1651342021,
				"z": 3.1509847805,
				"element": "C" 
			},
			{
				"x": 1.3524345851,
				"y": -1.6396486375,
				"z": 2.0206500625,
				"element": "C" 
			},
			{
				"x": 2.3058824497,
				"y": 1.9610051464,
				"z": 1.143586932,
				"element": "H" 
			},
			{
				"x": 1.5049156347,
				"y": 3.3007263637,
				"z": 0.3110019571,
				"element": "H" 
			},
			{
				"x": 1.9990240154,
				"y": 1.845825554,
				"z": -0.6091109298,
				"element": "H" 
			},
			{
				"x": -3.4991130807,
				"y": 0.9442787356,
				"z": -0.651179961,
				"element": "H" 
			},
			{
				"x": -0.7355916171,
				"y": 0.6517751489,
				"z": -3.0721602449,
				"element": "H" 
			},
			{
				"x": 1.4301816049,
				"y": 0.4738665263,
				"z": -4.1540460934,
				"element": "H" 
			},
			{
				"x": 1.9028396313,
				"y": -0.8830253413,
				"z": -5.0049009583,
				"element": "H" 
			},
			{
				"x": 0.5495901313,
				"y": -2.878885568,
				"z": -5.1581026468,
				"element": "H" 
			},
			{
				"x": -1.4228823443,
				"y": -4.0990069177,
				"z": -4.3023190456,
				"element": "H" 
			},
			{
				"x": -3.0792244367,
				"y": -2.9382309955,
				"z": -2.8298994617,
				"element": "H" 
			},
			{
				"x": -1.9295176364,
				"y": 3.2330151904,
				"z": -1.3563121229,
				"element": "H" 
			},
			{
				"x": -1.1747842771,
				"y": 3.9721731467,
				"z": 0.0730834538,
				"element": "H" 
			},
			{
				"x": -0.2034675852,
				"y": 3.6214542755,
				"z": -1.3619176366,
				"element": "H" 
			},
			{
				"x": 0.8754804085,
				"y": 1.5491750774,
				"z": 3.1265813642,
				"element": "H" 
			},
			{
				"x": 2.0408625677,
				"y": 0.6143270186,
				"z": 5.1062491118,
				"element": "H" 
			},
			{
				"x": 2.7333238002,
				"y": -1.7759739393,
				"z": 5.1344221906,
				"element": "H" 
			},
			{
				"x": 2.2640123574,
				"y": -3.2121329507,
				"z": 3.1572464475,
				"element": "H" 
			},
			{
				"x": 1.1411017483,
				"y": -2.259778017,
				"z": 1.1592628599,
				"element": "H" 
			}
		],
		 "valence_orbital": [ 
			{
				"type": "occ",
				"energy": -0.24829,
				"method": "rhf"
			},
			{
				"type": "occ",
				"energy": -0.23905,
				"method": "rhf"
			},
			{
				"type": "occ",
				"energy": -0.22676,
				"method": "rhf"
			},
			{
				"type": "occ",
				"energy": -0.21397,
				"method": "rhf"
			},
			{
				"type": "occ",
				"energy": -0.20074,
				"method": "rhf"
			},
			{
				"type": "unocc",
				"energy": -0.03341,
				"method": "rhf"
			},
			{
				"type": "unocc",
				"energy": -0.0219,
				"method": "rhf"
			},
			{
				"type": "unocc",
				"energy": -0.00552,
				"method": "rhf"
			},
			{
				"type": "unocc",
				"energy": 0.00387,
				"method": "rhf"
			},
			{
				"type": "unocc",
				"energy": 0.01904,
				"method": "rhf"
			}
		],
		"cosmo_sigma_profile": { 
			"-0.025": 0.0,
			"-0.024": 0.0,
			"-0.023": 0.0,
			"-0.022": 0.0,
			"-0.021": 0.0,
			"-0.02": 0.0,
			"-0.019": 0.0,
			"-0.018": 0.0,
			"-0.017": 0.0,
			"-0.016": 0.0,
			"-0.015": 0.0,
			"-0.014": 0.439324086945,
			"-0.013": 1.37001454417,
			"-0.012": 3.05827635693,
			"-0.011": 4.20635458417,
			"-0.01": 4.33344609874,
			"-0.009": 3.50811144485,
			"-0.008": 4.31088757149,
			"-0.007": 6.73636398931,
			"-0.006": 20.399027642,
			"-0.005": 31.9554910326,
			"-0.004": 34.5771370742,
			"-0.003": 31.5674029068,
			"-0.002": 28.0140838029,
			"-0.001": 21.3877979264,
			"0.0": 16.9119469984,
			"0.001": 15.5764387361,
			"0.002": 20.578167135,
			"0.003": 17.3164807385,
			"0.004": 18.872748879,
			"0.005": 22.9066835898,
			"0.006": 12.1021671673,
			"0.007": 5.40650128498,
			"0.008": 5.00894176177,
			"0.009": 4.94060918455,
			"0.01": 4.65135195138,
			"0.011": 5.63850212023,
			"0.012": 5.9073779798,
			"0.013": 9.78018224828,
			"0.014": 3.89435210645,
			"0.015": 0.136257560929,
			"0.016": 0.0,
			"0.017": 0.0,
			"0.018": 0.0,
			"0.019": 0.0,
			"0.02": 0.0,
			"0.021": 0.0,
			"0.022": 0.0,
			"0.023": 0.0,
			"0.024": 0.0,
			"0.025": 0.0
		}
	}
}
