{
	 "smiles": "ClCC(=O)NC1=C(Cl)C=CC=C1", 
	 "Tm": 344.65, 
	 "num_atms": 19, 
	 "gaussian": { 
		 "optdone": 1, 
		 "sigma_profile": "yes", 
		 "theory": "DFT", 
		 "functional": "B3LYP", 
		 "basiset": "6-31G**", 
		 "properties": { 
			 "R2extent": 5048.446, 
			 "electric_dipole_moment_norm": 2.67489597742, 
			 "electric_quadrupole_moment_norm": 8.2007203897, 
			 "total_energy": -1359.44079099, 
			 "HOMO_LUMO_gap": 0.22208, 
			 "cosmo_polarized_energy": -12.42, 
			 "cosmo_cavitation_energy": 27.03, 
			 "cosmo_dispersion_energy": -19.68, 
			 "cosmo_repulsion_energy": 1.6, 
			 "cosmo_total_nonelectrostatic_energy": 8.95, 
			 "SMD_solvation_energy": 4.82 
		},
		"coords": [
			{
				"x": 2.1836936596,
				"y": 2.2718150267,
				"z": -4.6715289319,
				"element": "Cl" 
			},
			{
				"x": 2.5676985877,
				"y": 0.5216908546,
				"z": -4.3621772774,
				"element": "C" 
			},
			{
				"x": 2.0669377678,
				"y": -0.0742777964,
				"z": -3.0432697274,
				"element": "C" 
			},
			{
				"x": 2.1570457608,
				"y": -1.2807500015,
				"z": -2.8987368311,
				"element": "O" 
			},
			{
				"x": 1.5859461342,
				"y": 0.7967302742,
				"z": -2.1075240696,
				"element": "N" 
			},
			{
				"x": 1.083089408,
				"y": 0.3878209543,
				"z": -0.8423885723,
				"element": "C" 
			},
			{
				"x": 1.9189557566,
				"y": -0.135805749,
				"z": 0.1571446275,
				"element": "C" 
			},
			{
				"x": 3.6428686632,
				"y": -0.2832006722,
				"z": -0.1027332168,
				"element": "Cl" 
			},
			{
				"x": 1.3941802466,
				"y": -0.5172686354,
				"z": 1.3927280297,
				"element": "C" 
			},
			{
				"x": 0.0342373774,
				"y": -0.3547644228,
				"z": 1.6517638456,
				"element": "C" 
			},
			{
				"x": -0.804196489,
				"y": 0.1866541707,
				"z": 0.676548519,
				"element": "C" 
			},
			{
				"x": -0.2791326971,
				"y": 0.5460880408,
				"z": -0.5624172733,
				"element": "C" 
			},
			{
				"x": 3.6539413911,
				"y": 0.4255612333,
				"z": -4.3936243952,
				"element": "H" 
			},
			{
				"x": 2.1355730796,
				"y": -0.0542416012,
				"z": -5.1793429517,
				"element": "H" 
			},
			{
				"x": 1.4658582766,
				"y": 1.762892848,
				"z": -2.382196889,
				"element": "H" 
			},
			{
				"x": 2.0586598289,
				"y": -0.9261049351,
				"z": 2.1456783798,
				"element": "H" 
			},
			{
				"x": -0.3648950621,
				"y": -0.6487270479,
				"z": 2.6176258312,
				"element": "H" 
			},
			{
				"x": -1.8635286273,
				"y": 0.3175694277,
				"z": 0.8732550097,
				"element": "H" 
			},
			{
				"x": -0.9224330627,
				"y": 0.9463180312,
				"z": -1.3404041068,
				"element": "H" 
			}
		],
		 "valence_orbital": [ 
			{
				"type": "occ",
				"energy": -0.31355,
				"method": "rhf"
			},
			{
				"type": "occ",
				"energy": -0.29041,
				"method": "rhf"
			},
			{
				"type": "occ",
				"energy": -0.2645,
				"method": "rhf"
			},
			{
				"type": "occ",
				"energy": -0.25977,
				"method": "rhf"
			},
			{
				"type": "occ",
				"energy": -0.24909,
				"method": "rhf"
			},
			{
				"type": "unocc",
				"energy": -0.02701,
				"method": "rhf"
			},
			{
				"type": "unocc",
				"energy": -0.02033,
				"method": "rhf"
			},
			{
				"type": "unocc",
				"energy": 0.00786,
				"method": "rhf"
			},
			{
				"type": "unocc",
				"energy": 0.01927,
				"method": "rhf"
			},
			{
				"type": "unocc",
				"energy": 0.02769,
				"method": "rhf"
			}
		],
		"cosmo_sigma_profile": { 
			"-0.025": 0.0,
			"-0.024": 0.0,
			"-0.023": 0.0,
			"-0.022": 0.0,
			"-0.021": 0.0,
			"-0.02": 0.0,
			"-0.019": 0.0,
			"-0.018": 0.0,
			"-0.017": 0.0,
			"-0.016": 0.0,
			"-0.015": 0.0,
			"-0.014": 0.26533139994,
			"-0.013": 0.593457353553,
			"-0.012": 0.721123475899,
			"-0.011": 1.01952991447,
			"-0.01": 1.51600834862,
			"-0.009": 4.32683662801,
			"-0.008": 5.51829591584,
			"-0.007": 11.7979816701,
			"-0.006": 13.1969952832,
			"-0.005": 14.6570442769,
			"-0.004": 11.6952471726,
			"-0.003": 10.4008708163,
			"-0.002": 10.9921369381,
			"-0.001": 12.6695565278,
			"0.0": 12.6159373238,
			"0.001": 16.3406479624,
			"0.002": 18.1692903085,
			"0.003": 21.0928801407,
			"0.004": 17.974439542,
			"0.005": 11.8230093256,
			"0.006": 3.83911147836,
			"0.007": 2.16548636097,
			"0.008": 1.60455556012,
			"0.009": 2.41672909476,
			"0.01": 2.29703246441,
			"0.011": 2.45887671402,
			"0.012": 3.95050595535,
			"0.013": 4.36474862932,
			"0.014": 0.19420832427,
			"0.015": 0.0,
			"0.016": 0.0,
			"0.017": 0.0,
			"0.018": 0.0,
			"0.019": 0.0,
			"0.02": 0.0,
			"0.021": 0.0,
			"0.022": 0.0,
			"0.023": 0.0,
			"0.024": 0.0,
			"0.025": 0.0
		}
	}
}
