{
	 "smiles": "CC1=NN=NN1C1=CC(NC(=O)CCl)=C(F)C=C1", 
	 "Tm": 453.15, 
	 "num_atms": 27, 
	 "gaussian": { 
		 "optdone": 1, 
		 "sigma_profile": "yes", 
		 "theory": "DFT", 
		 "functional": "B3LYP", 
		 "basiset": "6-31G**", 
		 "properties": { 
			 "R2extent": 8025.7526, 
			 "electric_dipole_moment_norm": 1.7162040846, 
			 "electric_quadrupole_moment_norm": 44.3858054693, 
			 "total_energy": -1295.44852221, 
			 "HOMO_LUMO_gap": 0.20389, 
			 "cosmo_polarized_energy": -26.05, 
			 "cosmo_cavitation_energy": 34.73, 
			 "cosmo_dispersion_energy": -24.51, 
			 "cosmo_repulsion_energy": 1.9, 
			 "cosmo_total_nonelectrostatic_energy": 12.12, 
			 "SMD_solvation_energy": 5.03 
		},
		"coords": [
			{
				"x": -0.8880291224,
				"y": 3.3787655229,
				"z": -1.9032037136,
				"element": "C" 
			},
			{
				"x": 0.4560927009,
				"y": 3.4881663341,
				"z": -1.267455906,
				"element": "C" 
			},
			{
				"x": 1.4342996279,
				"y": 4.2686030846,
				"z": -1.6878385922,
				"element": "N" 
			},
			{
				"x": 2.4660385724,
				"y": 4.0991798253,
				"z": -0.8187686601,
				"element": "N" 
			},
			{
				"x": 2.1653316146,
				"y": 3.2595456956,
				"z": 0.1089941604,
				"element": "N" 
			},
			{
				"x": 0.8882037738,
				"y": 2.8424218133,
				"z": -0.1476351788,
				"element": "N" 
			},
			{
				"x": 0.2433044114,
				"y": 1.9359491448,
				"z": 0.7379427446,
				"element": "C" 
			},
			{
				"x": -0.5665165736,
				"y": 0.9146364532,
				"z": 0.2396286953,
				"element": "C" 
			},
			{
				"x": -1.1987730659,
				"y": 0.0188631893,
				"z": 1.1123469836,
				"element": "C" 
			},
			{
				"x": -1.9695020533,
				"y": -1.0489176844,
				"z": 0.598987721,
				"element": "N" 
			},
			{
				"x": -3.2907596172,
				"y": -1.4003240157,
				"z": 0.8436564493,
				"element": "C" 
			},
			{
				"x": -3.7796568654,
				"y": -2.3665359256,
				"z": 0.2959070155,
				"element": "O" 
			},
			{
				"x": -4.0466102152,
				"y": -0.4944212441,
				"z": 1.8191182014,
				"element": "C" 
			},
			{
				"x": -5.8199267178,
				"y": -0.6240160299,
				"z": 1.6161361492,
				"element": "Cl" 
			},
			{
				"x": -0.964795884,
				"y": 0.1695193367,
				"z": 2.4852690959,
				"element": "C" 
			},
			{
				"x": -1.5278612148,
				"y": -0.7035385393,
				"z": 3.3431520767,
				"element": "F" 
			},
			{
				"x": -0.1673782027,
				"y": 1.1887312889,
				"z": 2.9906611166,
				"element": "C" 
			},
			{
				"x": 0.4436598761,
				"y": 2.0807816374,
				"z": 2.1155555106,
				"element": "C" 
			},
			{
				"x": -0.9662529077,
				"y": 2.4870558408,
				"z": -2.5344035994,
				"element": "H" 
			},
			{
				"x": -1.6858339209,
				"y": 3.3374954508,
				"z": -1.1564965047,
				"element": "H" 
			},
			{
				"x": -1.0362205077,
				"y": 4.2524813535,
				"z": -2.5392637797,
				"element": "H" 
			},
			{
				"x": -0.7078204516,
				"y": 0.7880882659,
				"z": -0.8274607611,
				"element": "H" 
			},
			{
				"x": -1.5413313782,
				"y": -1.6421301012,
				"z": -0.1020163844,
				"element": "H" 
			},
			{
				"x": -3.8046337436,
				"y": -0.7838493275,
				"z": 2.8423703689,
				"element": "H" 
			},
			{
				"x": -3.7695157789,
				"y": 0.5521603357,
				"z": 1.6819270764,
				"element": "H" 
			},
			{
				"x": -0.022670797,
				"y": 1.260745142,
				"z": 4.0627622556,
				"element": "H" 
			},
			{
				"x": 1.0797584407,
				"y": 2.8766431528,
				"z": 2.483027459,
				"element": "H" 
			}
		],
		 "valence_orbital": [ 
			{
				"type": "occ",
				"energy": -0.30342,
				"method": "rhf"
			},
			{
				"type": "occ",
				"energy": -0.29517,
				"method": "rhf"
			},
			{
				"type": "occ",
				"energy": -0.28483,
				"method": "rhf"
			},
			{
				"type": "occ",
				"energy": -0.28072,
				"method": "rhf"
			},
			{
				"type": "occ",
				"energy": -0.26546,
				"method": "rhf"
			},
			{
				"type": "unocc",
				"energy": -0.06157,
				"method": "rhf"
			},
			{
				"type": "unocc",
				"energy": -0.06086,
				"method": "rhf"
			},
			{
				"type": "unocc",
				"energy": -0.01205,
				"method": "rhf"
			},
			{
				"type": "unocc",
				"energy": -0.00527,
				"method": "rhf"
			},
			{
				"type": "unocc",
				"energy": 0.01435,
				"method": "rhf"
			}
		],
		"cosmo_sigma_profile": { 
			"-0.025": 0.0,
			"-0.024": 0.0,
			"-0.023": 0.0,
			"-0.022": 0.0,
			"-0.021": 0.0,
			"-0.02": 0.0,
			"-0.019": 0.0,
			"-0.018": 0.0,
			"-0.017": 0.0,
			"-0.016": 0.209170288444,
			"-0.015": 1.0479673123,
			"-0.014": 1.55952358475,
			"-0.013": 0.759701168817,
			"-0.012": 1.18640686928,
			"-0.011": 1.96169724951,
			"-0.01": 3.04131405255,
			"-0.009": 6.49261328518,
			"-0.008": 10.8473650913,
			"-0.007": 14.564344646,
			"-0.006": 17.2565948132,
			"-0.005": 16.3952554936,
			"-0.004": 18.5915004223,
			"-0.003": 18.4710746366,
			"-0.002": 18.3128822952,
			"-0.001": 17.3169131345,
			"0.0": 15.8855497282,
			"0.001": 16.1216866267,
			"0.002": 10.7075471156,
			"0.003": 11.572598446,
			"0.004": 8.44865391283,
			"0.005": 11.5365742318,
			"0.006": 9.00531887722,
			"0.007": 5.67476886133,
			"0.008": 6.86812868134,
			"0.009": 6.53516926041,
			"0.01": 6.71045039237,
			"0.011": 7.03786450935,
			"0.012": 8.23209216864,
			"0.013": 5.6911086921,
			"0.014": 2.09826505728,
			"0.015": 0.742308300459,
			"0.016": 0.0750332408314,
			"0.017": 0.0,
			"0.018": 0.0,
			"0.019": 0.0,
			"0.02": 0.0,
			"0.021": 0.0,
			"0.022": 0.0,
			"0.023": 0.0,
			"0.024": 0.0,
			"0.025": 0.0
		}
	}
}
