{
	 "smiles": "O=C1CS(=O)CCN1", 
	 "Tm": 393.15, 
	 "num_atms": 15, 
	 "gaussian": { 
		 "optdone": 1, 
		 "sigma_profile": "yes", 
		 "theory": "DFT", 
		 "functional": "B3LYP", 
		 "basiset": "6-31G**", 
		 "properties": { 
			 "R2extent": 1459.9386, 
			 "electric_dipole_moment_norm": 4.53732404067, 
			 "electric_quadrupole_moment_norm": 13.8479498616, 
			 "total_energy": -759.989780468, 
			 "HOMO_LUMO_gap": 0.23445, 
			 "cosmo_polarized_energy": -19.2, 
			 "cosmo_cavitation_energy": 19.23, 
			 "cosmo_dispersion_energy": -15.36, 
			 "cosmo_repulsion_energy": 1.23, 
			 "cosmo_total_nonelectrostatic_energy": 5.1, 
			 "SMD_solvation_energy": 2.53 
		},
		"coords": [
			{
				"x": -3.0951021506,
				"y": -1.308086182,
				"z": -1.2968147643,
				"element": "O" 
			},
			{
				"x": -2.1533546074,
				"y": -0.7077450033,
				"z": -0.8008929649,
				"element": "C" 
			},
			{
				"x": -1.9414105883,
				"y": -0.7577978023,
				"z": 0.7142786681,
				"element": "C" 
			},
			{
				"x": -0.9729859693,
				"y": 0.5995640153,
				"z": 1.5062404253,
				"element": "S" 
			},
			{
				"x": -1.7091344701,
				"y": 1.8981286592,
				"z": 1.2602057661,
				"element": "O" 
			},
			{
				"x": 0.3689378419,
				"y": 0.5271567394,
				"z": 0.2338740746,
				"element": "C" 
			},
			{
				"x": -0.2143811388,
				"y": 0.9005486995,
				"z": -1.1190577186,
				"element": "C" 
			},
			{
				"x": -1.2153985794,
				"y": -0.0686956424,
				"z": -1.5641770129,
				"element": "N" 
			},
			{
				"x": -1.4449938594,
				"y": -1.7006436078,
				"z": 0.9737326395,
				"element": "H" 
			},
			{
				"x": -2.9247754465,
				"y": -0.7543227357,
				"z": 1.1881155053,
				"element": "H" 
			},
			{
				"x": 0.8063002539,
				"y": -0.4761410525,
				"z": 0.2479699801,
				"element": "H" 
			},
			{
				"x": 1.1221332388,
				"y": 1.2563825087,
				"z": 0.5419420856,
				"element": "H" 
			},
			{
				"x": -0.6486724209,
				"y": 1.9058492256,
				"z": -1.0394010707,
				"element": "H" 
			},
			{
				"x": 0.5852925918,
				"y": 0.9312391375,
				"z": -1.8659822807,
				"element": "H" 
			},
			{
				"x": -1.4690546956,
				"y": -0.0506369593,
				"z": -2.5443333326,
				"element": "H" 
			}
		],
		 "valence_orbital": [ 
			{
				"type": "occ",
				"energy": -0.36419,
				"method": "rhf"
			},
			{
				"type": "occ",
				"energy": -0.27561,
				"method": "rhf"
			},
			{
				"type": "occ",
				"energy": -0.26829,
				"method": "rhf"
			},
			{
				"type": "occ",
				"energy": -0.26054,
				"method": "rhf"
			},
			{
				"type": "occ",
				"energy": -0.23246,
				"method": "rhf"
			},
			{
				"type": "unocc",
				"energy": 0.00199,
				"method": "rhf"
			},
			{
				"type": "unocc",
				"energy": 0.02859,
				"method": "rhf"
			},
			{
				"type": "unocc",
				"energy": 0.03768,
				"method": "rhf"
			},
			{
				"type": "unocc",
				"energy": 0.07059,
				"method": "rhf"
			},
			{
				"type": "unocc",
				"energy": 0.08365,
				"method": "rhf"
			}
		],
		"cosmo_sigma_profile": { 
			"-0.025": 0.0,
			"-0.024": 0.0,
			"-0.023": 0.0,
			"-0.022": 0.0,
			"-0.021": 0.0,
			"-0.02": 0.0,
			"-0.019": 0.0,
			"-0.018": 0.0,
			"-0.017": 0.0,
			"-0.016": 0.0,
			"-0.015": 0.0721623404726,
			"-0.014": 0.912314507573,
			"-0.013": 1.24755512732,
			"-0.012": 1.27425461248,
			"-0.011": 1.56331671445,
			"-0.01": 2.86774228518,
			"-0.009": 4.96297256808,
			"-0.008": 8.82876850561,
			"-0.007": 11.8973519216,
			"-0.006": 11.9879609217,
			"-0.005": 11.799069553,
			"-0.004": 12.8253070758,
			"-0.003": 7.7972333581,
			"-0.002": 4.2039586089,
			"-0.001": 4.19335295395,
			"0.0": 5.70784927424,
			"0.001": 6.21144358897,
			"0.002": 4.98906487487,
			"0.003": 4.66158653623,
			"0.004": 3.14785551637,
			"0.005": 2.99331911525,
			"0.006": 2.44154826357,
			"0.007": 2.03988194885,
			"0.008": 1.95619464099,
			"0.009": 2.53558137065,
			"0.01": 3.04951377795,
			"0.011": 2.2909667679,
			"0.012": 3.54799869276,
			"0.013": 8.30805839227,
			"0.014": 7.67305008515,
			"0.015": 3.76455103654,
			"0.016": 0.706139109303,
			"0.017": 0.0,
			"0.018": 0.0,
			"0.019": 0.0,
			"0.02": 0.0,
			"0.021": 0.0,
			"0.022": 0.0,
			"0.023": 0.0,
			"0.024": 0.0,
			"0.025": 0.0
		}
	}
}
