{
	 "smiles": "OC(=O)C1=CC(NC(=O)C2CC2)=CC=C1", 
	 "Tm": 538.15, 
	 "num_atms": 26, 
	 "gaussian": { 
		 "optdone": 1, 
		 "sigma_profile": "yes", 
		 "theory": "DFT", 
		 "functional": "B3LYP", 
		 "basiset": "6-31G**", 
		 "properties": { 
			 "R2extent": 3980.8784, 
			 "electric_dipole_moment_norm": 1.2312185265, 
			 "electric_quadrupole_moment_norm": 22.6656643719, 
			 "total_energy": -706.229373874, 
			 "HOMO_LUMO_gap": 0.17797, 
			 "cosmo_polarized_energy": -15.85, 
			 "cosmo_cavitation_energy": 30.79, 
			 "cosmo_dispersion_energy": -21.77, 
			 "cosmo_repulsion_energy": 1.71, 
			 "cosmo_total_nonelectrostatic_energy": 10.73, 
			 "SMD_solvation_energy": 6.78 
		},
		"coords": [
			{
				"x": -2.6158110404,
				"y": 1.866864101,
				"z": 1.7021236737,
				"element": "O" 
			},
			{
				"x": -1.880407683,
				"y": 2.9340597232,
				"z": 1.3007357477,
				"element": "C" 
			},
			{
				"x": -2.2235779105,
				"y": 4.0766999258,
				"z": 1.5294008082,
				"element": "O" 
			},
			{
				"x": -0.6432657713,
				"y": 2.5495041837,
				"z": 0.567126962,
				"element": "C" 
			},
			{
				"x": -0.2961627785,
				"y": 1.2076768544,
				"z": 0.3673818052,
				"element": "C" 
			},
			{
				"x": 0.8698661398,
				"y": 0.8852011855,
				"z": -0.3385208881,
				"element": "C" 
			},
			{
				"x": 1.2740332554,
				"y": -0.4505747035,
				"z": -0.5513103449,
				"element": "N" 
			},
			{
				"x": 0.5476333128,
				"y": -1.5953207413,
				"z": -0.8447451667,
				"element": "C" 
			},
			{
				"x": 1.1147791287,
				"y": -2.6822018749,
				"z": -0.8275220355,
				"element": "O" 
			},
			{
				"x": -0.8917887613,
				"y": -1.4528132436,
				"z": -1.2157468956,
				"element": "C" 
			},
			{
				"x": -1.4792149079,
				"y": -2.5657358453,
				"z": -2.0644268455,
				"element": "C" 
			},
			{
				"x": -1.8564348293,
				"y": -2.4736739949,
				"z": -0.622972711,
				"element": "C" 
			},
			{
				"x": 1.698844256,
				"y": 1.9208547164,
				"z": -0.7993936542,
				"element": "C" 
			},
			{
				"x": 1.3620630897,
				"y": 3.2539521161,
				"z": -0.5709255362,
				"element": "C" 
			},
			{
				"x": 0.1859522669,
				"y": 3.5769936805,
				"z": 0.1014895164,
				"element": "C" 
			},
			{
				"x": -3.383691014,
				"y": 2.236167314,
				"z": 2.1683099283,
				"element": "H" 
			},
			{
				"x": -0.9220294262,
				"y": 0.4249474009,
				"z": 0.776381941,
				"element": "H" 
			},
			{
				"x": 2.2626200933,
				"y": -0.6511267272,
				"z": -0.4605674618,
				"element": "H" 
			},
			{
				"x": -1.2693303815,
				"y": -0.4511088515,
				"z": -1.381341558,
				"element": "H" 
			},
			{
				"x": -2.2073170953,
				"y": -2.2754845567,
				"z": -2.8151157882,
				"element": "H" 
			},
			{
				"x": -0.7901967207,
				"y": -3.3526520456,
				"z": -2.3504491606,
				"element": "H" 
			},
			{
				"x": -1.4209263367,
				"y": -3.2018546154,
				"z": 0.053362996,
				"element": "H" 
			},
			{
				"x": -2.8478615164,
				"y": -2.1216647624,
				"z": -0.3557136077,
				"element": "H" 
			},
			{
				"x": 2.6047266777,
				"y": 1.6705485322,
				"z": -1.3447370101,
				"element": "H" 
			},
			{
				"x": 2.0161576787,
				"y": 4.0414805613,
				"z": -0.9324661564,
				"element": "H" 
			},
			{
				"x": -0.1038597262,
				"y": 4.6060616673,
				"z": 0.2808414422,
				"element": "H" 
			}
		],
		 "valence_orbital": [ 
			{
				"type": "occ",
				"energy": -0.29039,
				"method": "rhf"
			},
			{
				"type": "occ",
				"energy": -0.2834,
				"method": "rhf"
			},
			{
				"type": "occ",
				"energy": -0.27262,
				"method": "rhf"
			},
			{
				"type": "occ",
				"energy": -0.25745,
				"method": "rhf"
			},
			{
				"type": "occ",
				"energy": -0.23559,
				"method": "rhf"
			},
			{
				"type": "unocc",
				"energy": -0.05762,
				"method": "rhf"
			},
			{
				"type": "unocc",
				"energy": -0.02312,
				"method": "rhf"
			},
			{
				"type": "unocc",
				"energy": 0.01962,
				"method": "rhf"
			},
			{
				"type": "unocc",
				"energy": 0.05118,
				"method": "rhf"
			},
			{
				"type": "unocc",
				"energy": 0.07097,
				"method": "rhf"
			}
		],
		"cosmo_sigma_profile": { 
			"-0.025": 0.0,
			"-0.024": 0.0,
			"-0.023": 0.0,
			"-0.022": 0.0,
			"-0.021": 0.0,
			"-0.02": 0.0,
			"-0.019": 0.0507418896412,
			"-0.018": 0.721243191283,
			"-0.017": 1.20248521575,
			"-0.016": 0.408875437706,
			"-0.015": 1.17113838579,
			"-0.014": 1.59156197166,
			"-0.013": 2.22906156452,
			"-0.012": 0.851664115324,
			"-0.011": 1.92728253141,
			"-0.01": 2.19924443471,
			"-0.009": 1.53201499318,
			"-0.008": 2.80206150275,
			"-0.007": 4.73448787439,
			"-0.006": 9.86215716764,
			"-0.005": 16.0877372322,
			"-0.004": 15.174503415,
			"-0.003": 18.30575115,
			"-0.002": 16.007938559,
			"-0.001": 20.258132306,
			"0.0": 19.3624850054,
			"0.001": 21.948285443,
			"0.002": 20.6000518178,
			"0.003": 17.1735490627,
			"0.004": 7.0825840389,
			"0.005": 5.08626062898,
			"0.006": 4.49836765767,
			"0.007": 4.24459361337,
			"0.008": 3.33357283565,
			"0.009": 2.91288946556,
			"0.01": 2.59374873466,
			"0.011": 6.5277327383,
			"0.012": 5.06318050904,
			"0.013": 4.31793730283,
			"0.014": 3.13633067057,
			"0.015": 0.0503072515531,
			"0.016": 0.0,
			"0.017": 0.0,
			"0.018": 0.0,
			"0.019": 0.0,
			"0.02": 0.0,
			"0.021": 0.0,
			"0.022": 0.0,
			"0.023": 0.0,
			"0.024": 0.0,
			"0.025": 0.0
		}
	}
}
