{
	 "smiles": "COC(=O)C1=CC=C(CS(N)(=O)=O)C=C1", 
	 "Tm": 412.15, 
	 "num_atms": 26, 
	 "gaussian": { 
		 "optdone": 1, 
		 "sigma_profile": "yes", 
		 "theory": "DFT", 
		 "functional": "B3LYP", 
		 "basiset": "6-31G**", 
		 "properties": { 
			 "R2extent": 5777.1991, 
			 "electric_dipole_moment_norm": 6.24682992085, 
			 "electric_quadrupole_moment_norm": 17.6295697335, 
			 "total_energy": -1103.37014203, 
			 "HOMO_LUMO_gap": 0.20291, 
			 "cosmo_polarized_energy": -23.51, 
			 "cosmo_cavitation_energy": 32.16, 
			 "cosmo_dispersion_energy": -23.43, 
			 "cosmo_repulsion_energy": 1.79, 
			 "cosmo_total_nonelectrostatic_energy": 10.52, 
			 "SMD_solvation_energy": 6.53 
		},
		"coords": [
			{
				"x": 1.2542699197,
				"y": 4.6509622284,
				"z": 3.7208836333,
				"element": "C" 
			},
			{
				"x": 0.9308402372,
				"y": 3.6157266247,
				"z": 2.7785509068,
				"element": "O" 
			},
			{
				"x": 0.020874702,
				"y": 2.7120406783,
				"z": 3.2069062186,
				"element": "C" 
			},
			{
				"x": -0.4945750785,
				"y": 2.7556448682,
				"z": 4.306446863,
				"element": "O" 
			},
			{
				"x": -0.2702370311,
				"y": 1.6678690867,
				"z": 2.181987406,
				"element": "C" 
			},
			{
				"x": 0.340083464,
				"y": 1.6603391396,
				"z": 0.9214323018,
				"element": "C" 
			},
			{
				"x": 0.0247472749,
				"y": 0.6600426532,
				"z": 0.004541937,
				"element": "C" 
			},
			{
				"x": -0.9042452806,
				"y": -0.3414007866,
				"z": 0.3237846714,
				"element": "C" 
			},
			{
				"x": -1.2260825899,
				"y": -1.4208654972,
				"z": -0.6711674535,
				"element": "C" 
			},
			{
				"x": -0.4776387233,
				"y": -3.0526721242,
				"z": -0.2695074306,
				"element": "S" 
			},
			{
				"x": 1.1674399033,
				"y": -2.8004415654,
				"z": -0.0845020937,
				"element": "N" 
			},
			{
				"x": -0.9861105635,
				"y": -3.4502294057,
				"z": 1.0423584461,
				"element": "O" 
			},
			{
				"x": -0.6355116346,
				"y": -3.8856989269,
				"z": -1.4607370883,
				"element": "O" 
			},
			{
				"x": -1.5087540018,
				"y": -0.3288725792,
				"z": 1.5910756883,
				"element": "C" 
			},
			{
				"x": -1.1947158419,
				"y": 0.6666135384,
				"z": 2.5098204992,
				"element": "C" 
			},
			{
				"x": 0.3626911926,
				"y": 5.2277473311,
				"z": 3.9788511265,
				"element": "H" 
			},
			{
				"x": 1.9892904552,
				"y": 5.2828004591,
				"z": 3.222635954,
				"element": "H" 
			},
			{
				"x": 1.6720174419,
				"y": 4.2216737291,
				"z": 4.6348695662,
				"element": "H" 
			},
			{
				"x": 1.0520957543,
				"y": 2.4361692001,
				"z": 0.6651353241,
				"element": "H" 
			},
			{
				"x": 0.492908856,
				"y": 0.6655627652,
				"z": -0.9766969491,
				"element": "H" 
			},
			{
				"x": -2.2966214202,
				"y": -1.6415441666,
				"z": -0.717162693,
				"element": "H" 
			},
			{
				"x": -0.8816735566,
				"y": -1.1761643972,
				"z": -1.6787836412,
				"element": "H" 
			},
			{
				"x": 1.4015737212,
				"y": -2.1832786137,
				"z": 0.6860181809,
				"element": "H" 
			},
			{
				"x": 1.643322207,
				"y": -2.5794864929,
				"z": -0.9523777231,
				"element": "H" 
			},
			{
				"x": -2.2126911768,
				"y": -1.1112568354,
				"z": 1.8550674478,
				"element": "H" 
			},
			{
				"x": -1.6564982308,
				"y": 0.6882190888,
				"z": 3.4909689013,
				"element": "H" 
			}
		],
		 "valence_orbital": [ 
			{
				"type": "occ",
				"energy": -0.31069,
				"method": "rhf"
			},
			{
				"type": "occ",
				"energy": -0.30457,
				"method": "rhf"
			},
			{
				"type": "occ",
				"energy": -0.28336,
				"method": "rhf"
			},
			{
				"type": "occ",
				"energy": -0.27431,
				"method": "rhf"
			},
			{
				"type": "occ",
				"energy": -0.2667,
				"method": "rhf"
			},
			{
				"type": "unocc",
				"energy": -0.06379,
				"method": "rhf"
			},
			{
				"type": "unocc",
				"energy": -0.02521,
				"method": "rhf"
			},
			{
				"type": "unocc",
				"energy": 0.03126,
				"method": "rhf"
			},
			{
				"type": "unocc",
				"energy": 0.04571,
				"method": "rhf"
			},
			{
				"type": "unocc",
				"energy": 0.07643,
				"method": "rhf"
			}
		],
		"cosmo_sigma_profile": { 
			"-0.025": 0.0,
			"-0.024": 0.0,
			"-0.023": 0.0,
			"-0.022": 0.0,
			"-0.021": 0.0,
			"-0.02": 0.0,
			"-0.019": 0.0,
			"-0.018": 0.0,
			"-0.017": 0.0,
			"-0.016": 0.144770261834,
			"-0.015": 1.4543625656,
			"-0.014": 2.87221427155,
			"-0.013": 1.94490082359,
			"-0.012": 2.40828894564,
			"-0.011": 2.77707674308,
			"-0.01": 2.64576986251,
			"-0.009": 5.90007498368,
			"-0.008": 6.92604748485,
			"-0.007": 8.39224836749,
			"-0.006": 16.6064396754,
			"-0.005": 17.8226046915,
			"-0.004": 16.9884373188,
			"-0.003": 17.3742078985,
			"-0.002": 13.2575834616,
			"-0.001": 12.1769940382,
			"0.0": 12.3831149838,
			"0.001": 15.5506641239,
			"0.002": 13.9322465141,
			"0.003": 13.8542432331,
			"0.004": 6.75821747279,
			"0.005": 6.62580971149,
			"0.006": 5.83593129885,
			"0.007": 5.61141711994,
			"0.008": 5.70842343406,
			"0.009": 6.32013920161,
			"0.01": 7.57927085929,
			"0.011": 14.7292606505,
			"0.012": 10.7719112442,
			"0.013": 0.124675930419,
			"0.014": 0.0,
			"0.015": 0.0,
			"0.016": 0.0,
			"0.017": 0.0,
			"0.018": 0.0,
			"0.019": 0.0,
			"0.02": 0.0,
			"0.021": 0.0,
			"0.022": 0.0,
			"0.023": 0.0,
			"0.024": 0.0,
			"0.025": 0.0
		}
	}
}
