{
	 "smiles": "CCNC1=CC(Cl)=C(C=C1)C#N", 
	 "Tm": 343.15, 
	 "num_atms": 21, 
	 "gaussian": { 
		 "optdone": 1, 
		 "sigma_profile": "yes", 
		 "theory": "DFT", 
		 "functional": "B3LYP", 
		 "basiset": "6-31G**", 
		 "properties": { 
			 "R2extent": 4013.3417, 
			 "electric_dipole_moment_norm": 8.1925357204, 
			 "electric_quadrupole_moment_norm": 29.1323695603, 
			 "total_energy": -918.06694613, 
			 "HOMO_LUMO_gap": 0.18204, 
			 "cosmo_polarized_energy": -14.54, 
			 "cosmo_cavitation_energy": 27.51, 
			 "cosmo_dispersion_energy": -19.52, 
			 "cosmo_repulsion_energy": 1.58, 
			 "cosmo_total_nonelectrostatic_energy": 9.57, 
			 "SMD_solvation_energy": 5.11 
		},
		"coords": [
			{
				"x": 0.6046027179,
				"y": -1.0418860025,
				"z": 2.2066787063,
				"element": "C" 
			},
			{
				"x": 1.434193992,
				"y": -0.7320784073,
				"z": 0.9537145177,
				"element": "C" 
			},
			{
				"x": 0.9048594275,
				"y": 0.3447804594,
				"z": 0.1277100667,
				"element": "N" 
			},
			{
				"x": -0.1918996329,
				"y": 0.2454471953,
				"z": -0.6942739443,
				"element": "C" 
			},
			{
				"x": -0.7843758267,
				"y": -0.9951039849,
				"z": -1.0125882509,
				"element": "C" 
			},
			{
				"x": -1.8633304875,
				"y": -1.0516469383,
				"z": -1.8846001737,
				"element": "C" 
			},
			{
				"x": -2.5562872607,
				"y": -2.6177846054,
				"z": -2.2445640186,
				"element": "Cl" 
			},
			{
				"x": -2.4074654582,
				"y": 0.1062536029,
				"z": -2.4705033841,
				"element": "C" 
			},
			{
				"x": -1.8106599552,
				"y": 1.3410452739,
				"z": -2.1398017288,
				"element": "C" 
			},
			{
				"x": -0.7351215363,
				"y": 1.4150487794,
				"z": -1.2771168905,
				"element": "C" 
			},
			{
				"x": -3.5193863909,
				"y": 0.0680110041,
				"z": -3.363767111,
				"element": "C" 
			},
			{
				"x": -4.4243949731,
				"y": 0.0802746751,
				"z": -4.0959864991,
				"element": "N" 
			},
			{
				"x": 0.5462233014,
				"y": -0.1666701598,
				"z": 2.8617737148,
				"element": "H" 
			},
			{
				"x": 1.0600535703,
				"y": -1.8605789925,
				"z": 2.7735285803,
				"element": "H" 
			},
			{
				"x": -0.41608482,
				"y": -1.3352279313,
				"z": 1.9447747341,
				"element": "H" 
			},
			{
				"x": 2.4508504517,
				"y": -0.4437990059,
				"z": 1.2400270803,
				"element": "H" 
			},
			{
				"x": 1.5406018848,
				"y": -1.6284864951,
				"z": 0.3331211655,
				"element": "H" 
			},
			{
				"x": 1.1472778396,
				"y": 1.2816431092,
				"z": 0.414371325,
				"element": "H" 
			},
			{
				"x": -0.4112632459,
				"y": -1.9173789264,
				"z": -0.5874429584,
				"element": "H" 
			},
			{
				"x": -2.2154796771,
				"y": 2.2465125602,
				"z": -2.5794508229,
				"element": "H" 
			},
			{
				"x": -0.2943139205,
				"y": 2.38082479,
				"z": -1.0459041082,
				"element": "H" 
			}
		],
		 "valence_orbital": [ 
			{
				"type": "occ",
				"energy": -0.32437,
				"method": "rhf"
			},
			{
				"type": "occ",
				"energy": -0.31435,
				"method": "rhf"
			},
			{
				"type": "occ",
				"energy": -0.29816,
				"method": "rhf"
			},
			{
				"type": "occ",
				"energy": -0.26276,
				"method": "rhf"
			},
			{
				"type": "occ",
				"energy": -0.2186,
				"method": "rhf"
			},
			{
				"type": "unocc",
				"energy": -0.03656,
				"method": "rhf"
			},
			{
				"type": "unocc",
				"energy": -0.02464,
				"method": "rhf"
			},
			{
				"type": "unocc",
				"energy": 0.02239,
				"method": "rhf"
			},
			{
				"type": "unocc",
				"energy": 0.04452,
				"method": "rhf"
			},
			{
				"type": "unocc",
				"energy": 0.05804,
				"method": "rhf"
			}
		],
		"cosmo_sigma_profile": { 
			"-0.025": 0.0,
			"-0.024": 0.0,
			"-0.023": 0.0,
			"-0.022": 0.0,
			"-0.021": 0.0,
			"-0.02": 0.0,
			"-0.019": 0.0,
			"-0.018": 0.0,
			"-0.017": 0.0,
			"-0.016": 0.0,
			"-0.015": 0.0,
			"-0.014": 0.9261771188,
			"-0.013": 1.50114856807,
			"-0.012": 1.71491454721,
			"-0.011": 1.47813034201,
			"-0.01": 1.44159469261,
			"-0.009": 1.82767106759,
			"-0.008": 4.4945953505,
			"-0.007": 6.79172773617,
			"-0.006": 8.49475784567,
			"-0.005": 9.39369989906,
			"-0.004": 11.9477870864,
			"-0.003": 16.6305720837,
			"-0.002": 16.9376916603,
			"-0.001": 15.8835940521,
			"0.0": 21.1268727138,
			"0.001": 22.5072729118,
			"0.002": 20.3351061299,
			"0.003": 16.0814916761,
			"0.004": 12.2045711058,
			"0.005": 4.64203763051,
			"0.006": 3.79113747383,
			"0.007": 2.75768060567,
			"0.008": 3.18772648706,
			"0.009": 3.66711028598,
			"0.01": 3.59493402887,
			"0.011": 3.03451461186,
			"0.012": 2.90520084443,
			"0.013": 2.13394347179,
			"0.014": 0.677111281372,
			"0.015": 0.0,
			"0.016": 0.0,
			"0.017": 0.0,
			"0.018": 0.0,
			"0.019": 0.0,
			"0.02": 0.0,
			"0.021": 0.0,
			"0.022": 0.0,
			"0.023": 0.0,
			"0.024": 0.0,
			"0.025": 0.0
		}
	}
}
