{
	 "smiles": "CC1=CC(NC(=S)NN)=C(C)C=C1", 
	 "Tm": 436.15, 
	 "num_atms": 26, 
	 "gaussian": { 
		 "optdone": 1, 
		 "sigma_profile": "yes", 
		 "theory": "DFT", 
		 "functional": "B3LYP", 
		 "basiset": "6-31G**", 
		 "properties": { 
			 "R2extent": 3842.6706, 
			 "electric_dipole_moment_norm": 3.63831029738, 
			 "electric_quadrupole_moment_norm": 9.79980387916, 
			 "total_energy": -913.225755442, 
			 "HOMO_LUMO_gap": 0.1831, 
			 "cosmo_polarized_energy": -17.57, 
			 "cosmo_cavitation_energy": 30.78, 
			 "cosmo_dispersion_energy": -22.45, 
			 "cosmo_repulsion_energy": 1.76, 
			 "cosmo_total_nonelectrostatic_energy": 10.09, 
			 "SMD_solvation_energy": 4.93 
		},
		"coords": [
			{
				"x": 2.3621916419,
				"y": -0.4337500748,
				"z": -2.7956792913,
				"element": "C" 
			},
			{
				"x": 1.4505090677,
				"y": -0.562386047,
				"z": -1.5980560127,
				"element": "C" 
			},
			{
				"x": 0.907556454,
				"y": 0.5784293929,
				"z": -0.998793592,
				"element": "C" 
			},
			{
				"x": 0.0289958576,
				"y": 0.4741347014,
				"z": 0.0831960015,
				"element": "C" 
			},
			{
				"x": -0.4905680185,
				"y": 1.6276076126,
				"z": 0.7272898653,
				"element": "N" 
			},
			{
				"x": -0.9515375996,
				"y": 2.8042028782,
				"z": 0.191099782,
				"element": "C" 
			},
			{
				"x": -1.1634810385,
				"y": 3.1487562085,
				"z": -1.4340573571,
				"element": "S" 
			},
			{
				"x": -1.2733101599,
				"y": 3.7116061369,
				"z": 1.1767882692,
				"element": "N" 
			},
			{
				"x": -1.6923612362,
				"y": 5.0252079568,
				"z": 0.904946674,
				"element": "N" 
			},
			{
				"x": -0.3111272607,
				"y": -0.7866607622,
				"z": 0.616158138,
				"element": "C" 
			},
			{
				"x": -1.2543326139,
				"y": -0.9214624269,
				"z": 1.7883598869,
				"element": "C" 
			},
			{
				"x": 0.255548465,
				"y": -1.9164866336,
				"z": 0.0198077465,
				"element": "C" 
			},
			{
				"x": 1.11706559,
				"y": -1.8147257852,
				"z": -1.070883203,
				"element": "C" 
			},
			{
				"x": 1.7829848494,
				"y": -0.3266641441,
				"z": -3.7211092403,
				"element": "H" 
			},
			{
				"x": 3.0068964242,
				"y": 0.4470597624,
				"z": -2.7162837214,
				"element": "H" 
			},
			{
				"x": 3.0015567536,
				"y": -1.3143027536,
				"z": -2.9079102663,
				"element": "H" 
			},
			{
				"x": 1.1595570423,
				"y": 1.5605035525,
				"z": -1.3792545066,
				"element": "H" 
			},
			{
				"x": -0.7044682427,
				"y": 1.4968200724,
				"z": 1.7076801655,
				"element": "H" 
			},
			{
				"x": -0.7912462606,
				"y": 3.6342692979,
				"z": 2.063329593,
				"element": "H" 
			},
			{
				"x": -1.1844747469,
				"y": 5.3405698798,
				"z": 0.0746774714,
				"element": "H" 
			},
			{
				"x": -2.6684276423,
				"y": 4.9777602433,
				"z": 0.6144801658,
				"element": "H" 
			},
			{
				"x": -0.8346137703,
				"y": -0.5080361329,
				"z": 2.7174478509,
				"element": "H" 
			},
			{
				"x": -1.473710511,
				"y": -1.9734254927,
				"z": 1.9861977277,
				"element": "H" 
			},
			{
				"x": -2.2072531548,
				"y": -0.411094647,
				"z": 1.6056963301,
				"element": "H" 
			},
			{
				"x": 0.0080785453,
				"y": -2.8972704881,
				"z": 0.4180900698,
				"element": "H" 
			},
			{
				"x": 1.5333715648,
				"y": -2.7154623073,
				"z": -1.5142185469,
				"element": "H" 
			}
		],
		 "valence_orbital": [ 
			{
				"type": "occ",
				"energy": -0.28175,
				"method": "rhf"
			},
			{
				"type": "occ",
				"energy": -0.24152,
				"method": "rhf"
			},
			{
				"type": "occ",
				"energy": -0.23295,
				"method": "rhf"
			},
			{
				"type": "occ",
				"energy": -0.21452,
				"method": "rhf"
			},
			{
				"type": "occ",
				"energy": -0.2077,
				"method": "rhf"
			},
			{
				"type": "unocc",
				"energy": -0.0246,
				"method": "rhf"
			},
			{
				"type": "unocc",
				"energy": 0.00196,
				"method": "rhf"
			},
			{
				"type": "unocc",
				"energy": 0.01923,
				"method": "rhf"
			},
			{
				"type": "unocc",
				"energy": 0.0528,
				"method": "rhf"
			},
			{
				"type": "unocc",
				"energy": 0.09287,
				"method": "rhf"
			}
		],
		"cosmo_sigma_profile": { 
			"-0.025": 0.0,
			"-0.024": 0.0,
			"-0.023": 0.0,
			"-0.022": 0.0,
			"-0.021": 0.0,
			"-0.02": 0.0,
			"-0.019": 0.0,
			"-0.018": 0.0580417718305,
			"-0.017": 0.96558867325,
			"-0.016": 1.31153274176,
			"-0.015": 2.07217306721,
			"-0.014": 1.81496237612,
			"-0.013": 1.29668828843,
			"-0.012": 1.95950870841,
			"-0.011": 3.4541376207,
			"-0.01": 2.64826388275,
			"-0.009": 2.71355965121,
			"-0.008": 4.25336720335,
			"-0.007": 3.33165877873,
			"-0.006": 4.9119238904,
			"-0.005": 11.0971307599,
			"-0.004": 19.19548532,
			"-0.003": 20.132266122,
			"-0.002": 18.3340942803,
			"-0.001": 18.5571250141,
			"0.0": 22.8466704864,
			"0.001": 14.3125134579,
			"0.002": 11.2758667475,
			"0.003": 11.7632313974,
			"0.004": 10.8851597799,
			"0.005": 10.9880476767,
			"0.006": 11.3714005875,
			"0.007": 6.25577461906,
			"0.008": 6.0334836914,
			"0.009": 7.77340172597,
			"0.01": 6.00649613368,
			"0.011": 3.21483540332,
			"0.012": 1.59768749274,
			"0.013": 0.935104957491,
			"0.014": 0.558747061878,
			"0.015": 0.761799733432,
			"0.016": 0.390242313398,
			"0.017": 0.0566909429399,
			"0.018": 0.0,
			"0.019": 0.0,
			"0.02": 0.0,
			"0.021": 0.0,
			"0.022": 0.0,
			"0.023": 0.0,
			"0.024": 0.0,
			"0.025": 0.0
		}
	}
}
