{
	 "smiles": "CN1N=C(C)C(C(O)=O)=C1C", 
	 "Tm": 491.15, 
	 "num_atms": 21, 
	 "gaussian": { 
		 "optdone": 1, 
		 "sigma_profile": "yes", 
		 "theory": "DFT", 
		 "functional": "B3LYP", 
		 "basiset": "6-31G**", 
		 "properties": { 
			 "R2extent": 2077.5965, 
			 "electric_dipole_moment_norm": 1.81643957235, 
			 "electric_quadrupole_moment_norm": 11.5877646425, 
			 "total_energy": -532.739687592, 
			 "HOMO_LUMO_gap": 0.22665, 
			 "cosmo_polarized_energy": -11.95, 
			 "cosmo_cavitation_energy": 24.79, 
			 "cosmo_dispersion_energy": -18.03, 
			 "cosmo_repulsion_energy": 1.46, 
			 "cosmo_total_nonelectrostatic_energy": 8.22, 
			 "SMD_solvation_energy": 4.66 
		},
		"coords": [
			{
				"x": -1.4015541865,
				"y": -0.2977886388,
				"z": -2.9875048652,
				"element": "C" 
			},
			{
				"x": -1.0727754534,
				"y": 0.2965538783,
				"z": -1.7029700815,
				"element": "N" 
			},
			{
				"x": -0.6970596059,
				"y": 1.6109079147,
				"z": -1.6705224347,
				"element": "N" 
			},
			{
				"x": -0.4608618924,
				"y": 1.8814509429,
				"z": -0.3927002248,
				"element": "C" 
			},
			{
				"x": -0.0221467778,
				"y": 3.2546257976,
				"z": 0.0117561983,
				"element": "C" 
			},
			{
				"x": -0.6871733003,
				"y": 0.7249570392,
				"z": 0.4129498826,
				"element": "C" 
			},
			{
				"x": -0.5631409918,
				"y": 0.5284173821,
				"z": 1.8502337398,
				"element": "C" 
			},
			{
				"x": -0.1637367096,
				"y": 1.6487032912,
				"z": 2.5136287666,
				"element": "O" 
			},
			{
				"x": -0.7839631355,
				"y": -0.5158601478,
				"z": 2.4437570777,
				"element": "O" 
			},
			{
				"x": -1.0823448967,
				"y": -0.2782298689,
				"z": -0.4791303827,
				"element": "C" 
			},
			{
				"x": -1.4537930921,
				"y": -1.7035240114,
				"z": -0.2267534297,
				"element": "C" 
			},
			{
				"x": -2.4372396448,
				"y": -0.6501589159,
				"z": -3.0068469631,
				"element": "H" 
			},
			{
				"x": -1.2736062574,
				"y": 0.4835366251,
				"z": -3.735140897,
				"element": "H" 
			},
			{
				"x": -0.7335940448,
				"y": -1.1327358133,
				"z": -3.2196028286,
				"element": "H" 
			},
			{
				"x": -0.7260953362,
				"y": 3.7029911919,
				"z": 0.7193137307,
				"element": "H" 
			},
			{
				"x": 0.9517480141,
				"y": 3.2287126567,
				"z": 0.509821346,
				"element": "H" 
			},
			{
				"x": 0.046308914,
				"y": 3.88842728,
				"z": -0.8748603851,
				"element": "H" 
			},
			{
				"x": -0.1202929145,
				"y": 1.3887760075,
				"z": 3.4486147527,
				"element": "H" 
			},
			{
				"x": -0.6285272901,
				"y": -2.2340699751,
				"z": 0.2563337361,
				"element": "H" 
			},
			{
				"x": -1.7162671585,
				"y": -2.2239363063,
				"z": -1.1506423848,
				"element": "H" 
			},
			{
				"x": -2.2988842397,
				"y": -1.7618563298,
				"z": 0.464865647,
				"element": "H" 
			}
		],
		 "valence_orbital": [ 
			{
				"type": "occ",
				"energy": -0.30773,
				"method": "rhf"
			},
			{
				"type": "occ",
				"energy": -0.29259,
				"method": "rhf"
			},
			{
				"type": "occ",
				"energy": -0.26218,
				"method": "rhf"
			},
			{
				"type": "occ",
				"energy": -0.2444,
				"method": "rhf"
			},
			{
				"type": "occ",
				"energy": -0.24127,
				"method": "rhf"
			},
			{
				"type": "unocc",
				"energy": -0.01462,
				"method": "rhf"
			},
			{
				"type": "unocc",
				"energy": 0.02815,
				"method": "rhf"
			},
			{
				"type": "unocc",
				"energy": 0.08756,
				"method": "rhf"
			},
			{
				"type": "unocc",
				"energy": 0.08896,
				"method": "rhf"
			},
			{
				"type": "unocc",
				"energy": 0.11111,
				"method": "rhf"
			}
		],
		"cosmo_sigma_profile": { 
			"-0.025": 0.0,
			"-0.024": 0.0,
			"-0.023": 0.0,
			"-0.022": 0.0,
			"-0.021": 0.0,
			"-0.02": 0.0,
			"-0.019": 0.0,
			"-0.018": 0.320762817275,
			"-0.017": 0.897691017485,
			"-0.016": 0.893956654834,
			"-0.015": 0.505476200247,
			"-0.014": 0.395950022564,
			"-0.013": 1.07866141407,
			"-0.012": 0.835290250466,
			"-0.011": 0.278653855296,
			"-0.01": 0.935060834565,
			"-0.009": 0.422955228946,
			"-0.008": 0.391869966481,
			"-0.007": 2.82128953562,
			"-0.006": 11.9268236741,
			"-0.005": 12.9437104187,
			"-0.004": 17.0937953517,
			"-0.003": 17.720280557,
			"-0.002": 16.4263777941,
			"-0.001": 17.0985688014,
			"0.0": 16.3922024084,
			"0.001": 12.8202038376,
			"0.002": 9.47527327894,
			"0.003": 9.14823989476,
			"0.004": 6.02925069572,
			"0.005": 6.13868294629,
			"0.006": 6.35412730712,
			"0.007": 5.98254084177,
			"0.008": 2.41622381276,
			"0.009": 1.95457935946,
			"0.01": 2.61189479132,
			"0.011": 3.41147221455,
			"0.012": 4.72557488375,
			"0.013": 3.42860771986,
			"0.014": 0.770225557002,
			"0.015": 0.731262208764,
			"0.016": 0.147007882244,
			"0.017": 0.0,
			"0.018": 0.0,
			"0.019": 0.0,
			"0.02": 0.0,
			"0.021": 0.0,
			"0.022": 0.0,
			"0.023": 0.0,
			"0.024": 0.0,
			"0.025": 0.0
		}
	}
}
