{
	 "smiles": "COC1=CC=C2N=C3C=C(Cl)C=CC3=C(Cl)C2=C1", 
	 "Tm": 437.15, 
	 "num_atms": 27, 
	 "gaussian": { 
		 "optdone": 1, 
		 "sigma_profile": "yes", 
		 "theory": "DFT", 
		 "functional": "B3LYP", 
		 "basiset": "6-31G**", 
		 "properties": { 
			 "R2extent": 7835.0107, 
			 "electric_dipole_moment_norm": 3.68132212527, 
			 "electric_quadrupole_moment_norm": 16.3288211139, 
			 "total_energy": -1589.27432791, 
			 "HOMO_LUMO_gap": 0.12196, 
			 "cosmo_polarized_energy": -8.28, 
			 "cosmo_cavitation_energy": 34.59, 
			 "cosmo_dispersion_energy": -26.11, 
			 "cosmo_repulsion_energy": 1.97, 
			 "cosmo_total_nonelectrostatic_energy": 10.45, 
			 "SMD_solvation_energy": 4.17 
		},
		"coords": [
			{
				"x": -0.8326976791,
				"y": -3.5395967258,
				"z": -3.5001714918,
				"element": "C" 
			},
			{
				"x": -0.5064275141,
				"y": -2.157665147,
				"z": -3.451011719,
				"element": "O" 
			},
			{
				"x": -0.4848036546,
				"y": -1.5225390353,
				"z": -2.2468216417,
				"element": "C" 
			},
			{
				"x": -0.7759097076,
				"y": -2.1767951756,
				"z": -1.0099106714,
				"element": "C" 
			},
			{
				"x": -0.7348999056,
				"y": -1.4739763799,
				"z": 0.1643031271,
				"element": "C" 
			},
			{
				"x": -0.4051412231,
				"y": -0.0851588929,
				"z": 0.1931357519,
				"element": "C" 
			},
			{
				"x": -0.3861918027,
				"y": 0.5330512007,
				"z": 1.3827172859,
				"element": "N" 
			},
			{
				"x": -0.0777663381,
				"y": 1.8359760049,
				"z": 1.418327594,
				"element": "C" 
			},
			{
				"x": -0.0625171329,
				"y": 2.4791055244,
				"z": 2.69607961,
				"element": "C" 
			},
			{
				"x": 0.2456521808,
				"y": 3.8069721779,
				"z": 2.7886255875,
				"element": "C" 
			},
			{
				"x": 0.2663262474,
				"y": 4.6030170568,
				"z": 4.3533274195,
				"element": "Cl" 
			},
			{
				"x": 0.5571628772,
				"y": 4.5837112695,
				"z": 1.6355548333,
				"element": "C" 
			},
			{
				"x": 0.5513702115,
				"y": 3.9984078763,
				"z": 0.3984248983,
				"element": "C" 
			},
			{
				"x": 0.2369153324,
				"y": 2.6138067968,
				"z": 0.2382856154,
				"element": "C" 
			},
			{
				"x": 0.2083816511,
				"y": 1.9381328205,
				"z": -0.9896908811,
				"element": "C" 
			},
			{
				"x": 0.5788233941,
				"y": 2.8139581494,
				"z": -2.4662715471,
				"element": "Cl" 
			},
			{
				"x": -0.1115147754,
				"y": 0.5695646958,
				"z": -1.0650608286,
				"element": "C" 
			},
			{
				"x": -0.1613065231,
				"y": -0.1825718691,
				"z": -2.2670797527,
				"element": "C" 
			},
			{
				"x": -0.1146311601,
				"y": -4.1482811394,
				"z": -2.9365282194,
				"element": "H" 
			},
			{
				"x": -0.785044853,
				"y": -3.8179109421,
				"z": -4.5538068289,
				"element": "H" 
			},
			{
				"x": -1.8452632127,
				"y": -3.7329672224,
				"z": -3.1244968684,
				"element": "H" 
			},
			{
				"x": -1.0300478758,
				"y": -3.2299416159,
				"z": -0.9945330499,
				"element": "H" 
			},
			{
				"x": -0.9519344796,
				"y": -1.9486847128,
				"z": 1.1151788472,
				"element": "H" 
			},
			{
				"x": -0.3009338361,
				"y": 1.8787303832,
				"z": 3.5656212761,
				"element": "H" 
			},
			{
				"x": 0.7964111728,
				"y": 5.6346966389,
				"z": 1.7518207143,
				"element": "H" 
			},
			{
				"x": 0.7881547458,
				"y": 4.5885211568,
				"z": -0.4789362299,
				"element": "H" 
			},
			{
				"x": 0.0547338604,
				"y": 0.2878371063,
				"z": -3.2179828308,
				"element": "H" 
			}
		],
		 "valence_orbital": [ 
			{
				"type": "occ",
				"energy": -0.29112,
				"method": "rhf"
			},
			{
				"type": "occ",
				"energy": -0.26584,
				"method": "rhf"
			},
			{
				"type": "occ",
				"energy": -0.26165,
				"method": "rhf"
			},
			{
				"type": "occ",
				"energy": -0.24657,
				"method": "rhf"
			},
			{
				"type": "occ",
				"energy": -0.20874,
				"method": "rhf"
			},
			{
				"type": "unocc",
				"energy": -0.08678,
				"method": "rhf"
			},
			{
				"type": "unocc",
				"energy": -0.02749,
				"method": "rhf"
			},
			{
				"type": "unocc",
				"energy": -0.00858,
				"method": "rhf"
			},
			{
				"type": "unocc",
				"energy": 0.02315,
				"method": "rhf"
			},
			{
				"type": "unocc",
				"energy": 0.02567,
				"method": "rhf"
			}
		],
		"cosmo_sigma_profile": { 
			"-0.025": 0.0,
			"-0.024": 0.0,
			"-0.023": 0.0,
			"-0.022": 0.0,
			"-0.021": 0.0,
			"-0.02": 0.0,
			"-0.019": 0.0,
			"-0.018": 0.0,
			"-0.017": 0.0,
			"-0.016": 0.0,
			"-0.015": 0.0,
			"-0.014": 0.0,
			"-0.013": 0.0,
			"-0.012": 0.0,
			"-0.011": 0.0,
			"-0.01": 0.0,
			"-0.009": 0.0,
			"-0.008": 1.81168714537,
			"-0.007": 8.67248821996,
			"-0.006": 15.2540640417,
			"-0.005": 17.0861282949,
			"-0.004": 15.7454725479,
			"-0.003": 16.6149384211,
			"-0.002": 14.6568100706,
			"-0.001": 22.0541079978,
			"0.0": 36.5090302351,
			"0.001": 37.5722087456,
			"0.002": 33.3481516936,
			"0.003": 25.4300849061,
			"0.004": 16.8980529074,
			"0.005": 5.90952566324,
			"0.006": 3.266515974,
			"0.007": 3.30709629827,
			"0.008": 2.07998242047,
			"0.009": 2.31305276269,
			"0.01": 1.62662965075,
			"0.011": 0.845249307686,
			"0.012": 0.875516818193,
			"0.013": 0.676471986874,
			"0.014": 0.639855984411,
			"0.015": 0.061998901221,
			"0.016": 0.0,
			"0.017": 0.0,
			"0.018": 0.0,
			"0.019": 0.0,
			"0.02": 0.0,
			"0.021": 0.0,
			"0.022": 0.0,
			"0.023": 0.0,
			"0.024": 0.0,
			"0.025": 0.0
		}
	}
}
