{
	 "smiles": "CCOC(=O)C1CSCCN1", 
	 "Tm": 393.15, 
	 "num_atms": 24, 
	 "gaussian": { 
		 "optdone": 1, 
		 "sigma_profile": "yes", 
		 "theory": "DFT", 
		 "functional": "B3LYP", 
		 "basiset": "6-31G**", 
		 "properties": { 
			 "R2extent": 2572.4522, 
			 "electric_dipole_moment_norm": 3.05841494242, 
			 "electric_quadrupole_moment_norm": 10.1813339755, 
			 "total_energy": -877.967262511, 
			 "HOMO_LUMO_gap": 0.22485, 
			 "cosmo_polarized_energy": -10.61, 
			 "cosmo_cavitation_energy": 27.21, 
			 "cosmo_dispersion_energy": -20.04, 
			 "cosmo_repulsion_energy": 1.59, 
			 "cosmo_total_nonelectrostatic_energy": 8.76, 
			 "SMD_solvation_energy": 2.5 
		},
		"coords": [
			{
				"x": -2.5674289571,
				"y": 2.9693053584,
				"z": 1.8451058809,
				"element": "C" 
			},
			{
				"x": -1.3487933458,
				"y": 2.3073380967,
				"z": 2.4580345822,
				"element": "C" 
			},
			{
				"x": -0.9081109364,
				"y": 1.2697097438,
				"z": 1.5465871565,
				"element": "O" 
			},
			{
				"x": 0.1718586739,
				"y": 0.5639865172,
				"z": 1.94254801,
				"element": "C" 
			},
			{
				"x": 0.7485013704,
				"y": 0.7452043133,
				"z": 2.9926136323,
				"element": "O" 
			},
			{
				"x": 0.572151418,
				"y": -0.541031198,
				"z": 0.9490585436,
				"element": "C" 
			},
			{
				"x": 2.0339967112,
				"y": -0.3208059347,
				"z": 0.5356637563,
				"element": "C" 
			},
			{
				"x": 2.2850456726,
				"y": 1.2372530591,
				"z": -0.4130560814,
				"element": "S" 
			},
			{
				"x": 0.77365421,
				"y": 1.1846119385,
				"z": -1.4798925958,
				"element": "C" 
			},
			{
				"x": 0.1622598817,
				"y": -0.2212050208,
				"z": -1.4976807506,
				"element": "C" 
			},
			{
				"x": -0.3104457145,
				"y": -0.7233248,
				"z": -0.2060001397,
				"element": "N" 
			},
			{
				"x": -2.9304615931,
				"y": 3.7608078975,
				"z": 2.5079774266,
				"element": "H" 
			},
			{
				"x": -3.3761773768,
				"y": 2.2470534371,
				"z": 1.6996641825,
				"element": "H" 
			},
			{
				"x": -2.3256727,
				"y": 3.4180678198,
				"z": 0.877208727,
				"element": "H" 
			},
			{
				"x": -1.5693828712,
				"y": 1.849152157,
				"z": 3.4269048359,
				"element": "H" 
			},
			{
				"x": -0.5243829601,
				"y": 3.0110674383,
				"z": 2.6050178524,
				"element": "H" 
			},
			{
				"x": 0.5534759847,
				"y": -1.4565101109,
				"z": 1.5620292652,
				"element": "H" 
			},
			{
				"x": 2.646137139,
				"y": -0.2244804746,
				"z": 1.4336587103,
				"element": "H" 
			},
			{
				"x": 2.3898477901,
				"y": -1.1796141454,
				"z": -0.0387318587,
				"element": "H" 
			},
			{
				"x": 1.0770143818,
				"y": 1.4894223932,
				"z": -2.4858977256,
				"element": "H" 
			},
			{
				"x": 0.0475224968,
				"y": 1.9084336553,
				"z": -1.0990322305,
				"element": "H" 
			},
			{
				"x": -0.6959263798,
				"y": -0.231339789,
				"z": -2.1787551044,
				"element": "H" 
			},
			{
				"x": 0.8933072767,
				"y": -0.9228643088,
				"z": -1.9175729281,
				"element": "H" 
			},
			{
				"x": -1.2176901721,
				"y": -0.3237380428,
				"z": 0.0046468533,
				"element": "H" 
			}
		],
		 "valence_orbital": [ 
			{
				"type": "occ",
				"energy": -0.30537,
				"method": "rhf"
			},
			{
				"type": "occ",
				"energy": -0.30365,
				"method": "rhf"
			},
			{
				"type": "occ",
				"energy": -0.28168,
				"method": "rhf"
			},
			{
				"type": "occ",
				"energy": -0.22185,
				"method": "rhf"
			},
			{
				"type": "occ",
				"energy": -0.2187,
				"method": "rhf"
			},
			{
				"type": "unocc",
				"energy": 0.00615,
				"method": "rhf"
			},
			{
				"type": "unocc",
				"energy": 0.04164,
				"method": "rhf"
			},
			{
				"type": "unocc",
				"energy": 0.06446,
				"method": "rhf"
			},
			{
				"type": "unocc",
				"energy": 0.07963,
				"method": "rhf"
			},
			{
				"type": "unocc",
				"energy": 0.09603,
				"method": "rhf"
			}
		],
		"cosmo_sigma_profile": { 
			"-0.025": 0.0,
			"-0.024": 0.0,
			"-0.023": 0.0,
			"-0.022": 0.0,
			"-0.021": 0.0,
			"-0.02": 0.0,
			"-0.019": 0.0,
			"-0.018": 0.0,
			"-0.017": 0.0,
			"-0.016": 0.0,
			"-0.015": 0.0,
			"-0.014": 0.0,
			"-0.013": 0.0,
			"-0.012": 0.0,
			"-0.011": 0.0,
			"-0.01": 0.0,
			"-0.009": 0.457044812692,
			"-0.008": 0.821267160112,
			"-0.007": 1.186031724,
			"-0.006": 8.46224454632,
			"-0.005": 20.6513377356,
			"-0.004": 28.130595709,
			"-0.003": 27.968917352,
			"-0.002": 23.1485698954,
			"-0.001": 17.8371652771,
			"0.0": 13.6308402313,
			"0.001": 9.35795178026,
			"0.002": 7.8956429268,
			"0.003": 7.08630550115,
			"0.004": 5.62063874154,
			"0.005": 5.42287994294,
			"0.006": 5.83330774203,
			"0.007": 5.61352249532,
			"0.008": 4.26581714788,
			"0.009": 4.00824420836,
			"0.01": 4.63529656672,
			"0.011": 3.68091333702,
			"0.012": 5.32434091858,
			"0.013": 1.07749458174,
			"0.014": 0.664104499952,
			"0.015": 0.593274169928,
			"0.016": 0.388158937681,
			"0.017": 0.260923204586,
			"0.018": 0.0,
			"0.019": 0.0,
			"0.02": 0.0,
			"0.021": 0.0,
			"0.022": 0.0,
			"0.023": 0.0,
			"0.024": 0.0,
			"0.025": 0.0
		}
	}
}
