{
	 "smiles": "CC1=NC(C)=C2C(=O)N3C4=C(C=CC=C4)C=CC3=C(C#N)C2=C1", 
	 "Tm": 516.15, 
	 "num_atms": 36, 
	 "gaussian": { 
		 "optdone": 1, 
		 "sigma_profile": "yes", 
		 "theory": "DFT", 
		 "functional": "B3LYP", 
		 "basiset": "6-31G**", 
		 "properties": { 
			 "R2extent": 7677.1012, 
			 "electric_dipole_moment_norm": 4.31733141767, 
			 "electric_quadrupole_moment_norm": 20.7508685748, 
			 "total_energy": -971.356502955, 
			 "HOMO_LUMO_gap": 0.12821, 
			 "cosmo_polarized_energy": -13.82, 
			 "cosmo_cavitation_energy": 39.88, 
			 "cosmo_dispersion_energy": -28.8, 
			 "cosmo_repulsion_energy": 2.1, 
			 "cosmo_total_nonelectrostatic_energy": 13.18, 
			 "SMD_solvation_energy": 6.46 
		},
		"coords": [
			{
				"x": 4.7674029189,
				"y": -1.3647130849,
				"z": -2.8505788635,
				"element": "C" 
			},
			{
				"x": 3.7098665304,
				"y": -0.6238452521,
				"z": -2.0767412883,
				"element": "C" 
			},
			{
				"x": 4.0555727495,
				"y": 0.6141913278,
				"z": -1.6495656478,
				"element": "N" 
			},
			{
				"x": 3.182199925,
				"y": 1.3527555123,
				"z": -0.9689253178,
				"element": "C" 
			},
			{
				"x": 3.6899115281,
				"y": 2.7097455813,
				"z": -0.5526540338,
				"element": "C" 
			},
			{
				"x": 1.8750346435,
				"y": 0.8654084928,
				"z": -0.6550192973,
				"element": "C" 
			},
			{
				"x": 0.9130807885,
				"y": 1.6948300627,
				"z": 0.0670915532,
				"element": "C" 
			},
			{
				"x": 1.0702032759,
				"y": 2.8870819381,
				"z": 0.2833381889,
				"element": "O" 
			},
			{
				"x": -0.2840251477,
				"y": 1.027470044,
				"z": 0.5579222924,
				"element": "N" 
			},
			{
				"x": -1.1159686062,
				"y": 1.6765557819,
				"z": 1.5275317523,
				"element": "C" 
			},
			{
				"x": -2.4197821285,
				"y": 1.1648763693,
				"z": 1.7612336624,
				"element": "C" 
			},
			{
				"x": -3.2629734773,
				"y": 1.7848119322,
				"z": 2.7036030179,
				"element": "C" 
			},
			{
				"x": -2.8312136065,
				"y": 2.8731010669,
				"z": 3.4402446615,
				"element": "C" 
			},
			{
				"x": -1.5275735222,
				"y": 3.3425604575,
				"z": 3.2449015352,
				"element": "C" 
			},
			{
				"x": -0.6784903356,
				"y": 2.7634589995,
				"z": 2.3083106494,
				"element": "C" 
			},
			{
				"x": -2.8462324284,
				"y": -0.0219146324,
				"z": 1.0771490763,
				"element": "C" 
			},
			{
				"x": -1.9933937821,
				"y": -0.692894055,
				"z": 0.2736722849,
				"element": "C" 
			},
			{
				"x": -0.6687313325,
				"y": -0.2012148012,
				"z": 0.0121054153,
				"element": "C" 
			},
			{
				"x": 0.2062487681,
				"y": -0.9206257039,
				"z": -0.7975680042,
				"element": "C" 
			},
			{
				"x": -0.2101794314,
				"y": -2.1698450146,
				"z": -1.3393659215,
				"element": "C" 
			},
			{
				"x": -0.5285981401,
				"y": -3.1966135397,
				"z": -1.790382227,
				"element": "N" 
			},
			{
				"x": 1.5233195989,
				"y": -0.4308497636,
				"z": -1.0932409081,
				"element": "C" 
			},
			{
				"x": 2.4672469826,
				"y": -1.1779012047,
				"z": -1.8213104888,
				"element": "C" 
			},
			{
				"x": 5.0587032616,
				"y": -0.7877964501,
				"z": -3.7345180924,
				"element": "H" 
			},
			{
				"x": 5.6679222016,
				"y": -1.4820829414,
				"z": -2.23868013,
				"element": "H" 
			},
			{
				"x": 4.4242446636,
				"y": -2.3518033097,
				"z": -3.168966618,
				"element": "H" 
			},
			{
				"x": 3.572104884,
				"y": 2.8762676084,
				"z": 0.5214802115,
				"element": "H" 
			},
			{
				"x": 4.7432264201,
				"y": 2.7743035579,
				"z": -0.8284821404,
				"element": "H" 
			},
			{
				"x": 3.128378732,
				"y": 3.5097121672,
				"z": -1.0428876341,
				"element": "H" 
			},
			{
				"x": -4.2572639412,
				"y": 1.3729846831,
				"z": 2.8518202532,
				"element": "H" 
			},
			{
				"x": -3.486166258,
				"y": 3.3445176024,
				"z": 4.1659390012,
				"element": "H" 
			},
			{
				"x": -1.1587749294,
				"y": 4.1792491653,
				"z": 3.8304099955,
				"element": "H" 
			},
			{
				"x": 0.3108281693,
				"y": 3.1661674959,
				"z": 2.1766343015,
				"element": "H" 
			},
			{
				"x": -3.8522308198,
				"y": -0.3926670444,
				"z": 1.2494554055,
				"element": "H" 
			},
			{
				"x": -2.2791943351,
				"y": -1.6180423591,
				"z": -0.2113201127,
				"element": "H" 
			},
			{
				"x": 2.2167961804,
				"y": -2.1719406898,
				"z": -2.1752365325,
				"element": "H" 
			}
		],
		 "valence_orbital": [ 
			{
				"type": "occ",
				"energy": -0.27752,
				"method": "rhf"
			},
			{
				"type": "occ",
				"energy": -0.26086,
				"method": "rhf"
			},
			{
				"type": "occ",
				"energy": -0.25673,
				"method": "rhf"
			},
			{
				"type": "occ",
				"energy": -0.25547,
				"method": "rhf"
			},
			{
				"type": "occ",
				"energy": -0.21436,
				"method": "rhf"
			},
			{
				"type": "unocc",
				"energy": -0.08615,
				"method": "rhf"
			},
			{
				"type": "unocc",
				"energy": -0.06207,
				"method": "rhf"
			},
			{
				"type": "unocc",
				"energy": -0.03168,
				"method": "rhf"
			},
			{
				"type": "unocc",
				"energy": -0.01639,
				"method": "rhf"
			},
			{
				"type": "unocc",
				"energy": -0.00792,
				"method": "rhf"
			}
		],
		"cosmo_sigma_profile": { 
			"-0.025": 0.0,
			"-0.024": 0.0,
			"-0.023": 0.0,
			"-0.022": 0.0,
			"-0.021": 0.0,
			"-0.02": 0.0,
			"-0.019": 0.0,
			"-0.018": 0.0,
			"-0.017": 0.0,
			"-0.016": 0.0,
			"-0.015": 0.0,
			"-0.014": 0.0,
			"-0.013": 0.0,
			"-0.012": 0.0,
			"-0.011": 0.0,
			"-0.01": 0.0,
			"-0.009": 1.05759829215,
			"-0.008": 4.69036044557,
			"-0.007": 8.47415226116,
			"-0.006": 12.6082218551,
			"-0.005": 18.5649702412,
			"-0.004": 25.2803145552,
			"-0.003": 27.3271968979,
			"-0.002": 31.3415490791,
			"-0.001": 35.0789739692,
			"0.0": 40.3246300153,
			"0.001": 27.1729529335,
			"0.002": 18.9848295034,
			"0.003": 16.409708448,
			"0.004": 8.78944751607,
			"0.005": 5.57760397571,
			"0.006": 5.24786291585,
			"0.007": 5.17963064033,
			"0.008": 4.88054197265,
			"0.009": 5.69045993987,
			"0.01": 6.15116577868,
			"0.011": 5.14197322044,
			"0.012": 3.50190031651,
			"0.013": 2.80103977209,
			"0.014": 1.15914174998,
			"0.015": 0.45989997794,
			"0.016": 0.0413855239928,
			"0.017": 0.0,
			"0.018": 0.0,
			"0.019": 0.0,
			"0.02": 0.0,
			"0.021": 0.0,
			"0.022": 0.0,
			"0.023": 0.0,
			"0.024": 0.0,
			"0.025": 0.0
		}
	}
}
