{
	 "smiles": "BrC1=CC=CC2=C1C(=O)C1=C(C=CC=C1)C2=O", 
	 "Tm": 459.15, 
	 "num_atms": 24, 
	 "gaussian": { 
		 "optdone": 1, 
		 "sigma_profile": "yes", 
		 "theory": "DFT", 
		 "functional": "B3LYP", 
		 "basiset": "6-31G**", 
		 "properties": { 
			 "R2extent": 5272.3379, 
			 "electric_dipole_moment_norm": 1.25381029267, 
			 "electric_quadrupole_moment_norm": 22.99753176, 
			 "total_energy": -3259.56750383, 
			 "HOMO_LUMO_gap": 0.14121, 
			 "cosmo_polarized_energy": -10.24, 
			 "cosmo_cavitation_energy": 30.64, 
			 "cosmo_dispersion_energy": -23.29, 
			 "cosmo_repulsion_energy": 1.73, 
			 "cosmo_total_nonelectrostatic_energy": 9.08, 
			 "SMD_solvation_energy": 4.67 
		},
		"coords": [
			{
				"x": -0.5988326435,
				"y": -3.1378209628,
				"z": -2.1766634536,
				"element": "Br" 
			},
			{
				"x": 0.2738258048,
				"y": -1.4438026295,
				"z": -2.0890769686,
				"element": "C" 
			},
			{
				"x": 0.9979571079,
				"y": -1.1041499335,
				"z": -3.2356753529,
				"element": "C" 
			},
			{
				"x": 1.6845800738,
				"y": 0.1043703028,
				"z": -3.3088570946,
				"element": "C" 
			},
			{
				"x": 1.6502892893,
				"y": 0.9825064735,
				"z": -2.2316365438,
				"element": "C" 
			},
			{
				"x": 0.9301719852,
				"y": 0.6529172905,
				"z": -1.0820856704,
				"element": "C" 
			},
			{
				"x": 0.2211551435,
				"y": -0.5727723767,
				"z": -0.9811417807,
				"element": "C" 
			},
			{
				"x": -0.5374537868,
				"y": -0.8788941844,
				"z": 0.2766573074,
				"element": "C" 
			},
			{
				"x": -1.1675231413,
				"y": -1.9164688525,
				"z": 0.4279884447,
				"element": "O" 
			},
			{
				"x": -0.5099205352,
				"y": 0.1330423494,
				"z": 1.3783828949,
				"element": "C" 
			},
			{
				"x": 0.1959432295,
				"y": 1.3422850424,
				"z": 1.26542403,
				"element": "C" 
			},
			{
				"x": 0.1930216542,
				"y": 2.2599436223,
				"z": 2.3235748833,
				"element": "C" 
			},
			{
				"x": -0.510291581,
				"y": 1.9739499483,
				"z": 3.4894950717,
				"element": "C" 
			},
			{
				"x": -1.214918804,
				"y": 0.7689720263,
				"z": 3.6047019317,
				"element": "C" 
			},
			{
				"x": -1.215207443,
				"y": -0.1464411212,
				"z": 2.5558976562,
				"element": "C" 
			},
			{
				"x": 0.9489463629,
				"y": 1.6587486296,
				"z": 0.0288643399,
				"element": "C" 
			},
			{
				"x": 1.5719050941,
				"y": 2.7086951256,
				"z": -0.0893031618,
				"element": "O" 
			},
			{
				"x": 1.0155780398,
				"y": -1.7988222916,
				"z": -4.0675494606,
				"element": "H" 
			},
			{
				"x": 2.2423832435,
				"y": 0.353376417,
				"z": -4.2064406702,
				"element": "H" 
			},
			{
				"x": 2.1718118068,
				"y": 1.932780167,
				"z": -2.2501043543,
				"element": "H" 
			},
			{
				"x": 0.7479133606,
				"y": 3.1844098378,
				"z": 2.2047046997,
				"element": "H" 
			},
			{
				"x": -0.512630923,
				"y": 2.6854146105,
				"z": 4.3099774234,
				"element": "H" 
			},
			{
				"x": -1.7636109955,
				"y": 0.5467598162,
				"z": 4.5152462312,
				"element": "H" 
			},
			{
				"x": -1.7534923426,
				"y": -1.0854993072,
				"z": 2.6225195972,
				"element": "H" 
			}
		],
		 "valence_orbital": [ 
			{
				"type": "occ",
				"energy": -0.27286,
				"method": "rhf"
			},
			{
				"type": "occ",
				"energy": -0.27051,
				"method": "rhf"
			},
			{
				"type": "occ",
				"energy": -0.2703,
				"method": "rhf"
			},
			{
				"type": "occ",
				"energy": -0.25441,
				"method": "rhf"
			},
			{
				"type": "occ",
				"energy": -0.24863,
				"method": "rhf"
			},
			{
				"type": "unocc",
				"energy": -0.10742,
				"method": "rhf"
			},
			{
				"type": "unocc",
				"energy": -0.06416,
				"method": "rhf"
			},
			{
				"type": "unocc",
				"energy": -0.03028,
				"method": "rhf"
			},
			{
				"type": "unocc",
				"energy": -0.01953,
				"method": "rhf"
			},
			{
				"type": "unocc",
				"energy": 0.00262,
				"method": "rhf"
			}
		],
		"cosmo_sigma_profile": { 
			"-0.025": 0.0,
			"-0.024": 0.0,
			"-0.023": 0.0,
			"-0.022": 0.0,
			"-0.021": 0.0,
			"-0.02": 0.0,
			"-0.019": 0.0,
			"-0.018": 0.0,
			"-0.017": 0.0,
			"-0.016": 0.0,
			"-0.015": 0.0,
			"-0.014": 0.0,
			"-0.013": 0.0,
			"-0.012": 0.0,
			"-0.011": 0.0,
			"-0.01": 0.0,
			"-0.009": 0.0151998632885,
			"-0.008": 3.37986739809,
			"-0.007": 10.6868906031,
			"-0.006": 16.3806382321,
			"-0.005": 15.9729209194,
			"-0.004": 14.8806133721,
			"-0.003": 14.1244860909,
			"-0.002": 17.0914687107,
			"-0.001": 20.1247363453,
			"0.0": 29.8286202243,
			"0.001": 29.8621779561,
			"0.002": 22.9061572572,
			"0.003": 10.8184761174,
			"0.004": 11.8593166771,
			"0.005": 4.08344081343,
			"0.006": 3.87143530766,
			"0.007": 4.2095467151,
			"0.008": 3.73146632708,
			"0.009": 4.17755377169,
			"0.01": 5.37927113497,
			"0.011": 7.10179878438,
			"0.012": 0.973939080776,
			"0.013": 0.0,
			"0.014": 0.0,
			"0.015": 0.0,
			"0.016": 0.0,
			"0.017": 0.0,
			"0.018": 0.0,
			"0.019": 0.0,
			"0.02": 0.0,
			"0.021": 0.0,
			"0.022": 0.0,
			"0.023": 0.0,
			"0.024": 0.0,
			"0.025": 0.0
		}
	}
}
