{
	 "smiles": "BrC(C(=O)C1=CC2=CC=CC=C2C=C1)C1=CC=CC=C1", 
	 "Tm": 377.15, 
	 "num_atms": 33, 
	 "gaussian": { 
		 "optdone": 1, 
		 "sigma_profile": "yes", 
		 "theory": "DFT", 
		 "functional": "B3LYP", 
		 "basiset": "6-31G**", 
		 "properties": { 
			 "R2extent": 8088.6382, 
			 "electric_dipole_moment_norm": 3.17075451904, 
			 "electric_quadrupole_moment_norm": 12.1236373927, 
			 "total_energy": -3340.38867019, 
			 "HOMO_LUMO_gap": 0.15034, 
			 "cosmo_polarized_energy": -9.26, 
			 "cosmo_cavitation_energy": 38.8, 
			 "cosmo_dispersion_energy": -27.71, 
			 "cosmo_repulsion_energy": 2.1, 
			 "cosmo_total_nonelectrostatic_energy": 13.19, 
			 "SMD_solvation_energy": 5.52 
		},
		"coords": [
			{
				"x": 0.0818824765,
				"y": -2.627536519,
				"z": -2.4748982091,
				"element": "Br" 
			},
			{
				"x": 0.8482023557,
				"y": -1.9344755516,
				"z": -0.7718606506,
				"element": "C" 
			},
			{
				"x": 1.2952735238,
				"y": -0.4730511132,
				"z": -0.9862177113,
				"element": "C" 
			},
			{
				"x": 2.4914351725,
				"y": -0.2467691292,
				"z": -0.8735347061,
				"element": "O" 
			},
			{
				"x": 0.3190175739,
				"y": 0.6184428773,
				"z": -1.2752642987,
				"element": "C" 
			},
			{
				"x": 0.841864012,
				"y": 1.8792854004,
				"z": -1.5178957179,
				"element": "C" 
			},
			{
				"x": 0.0059480569,
				"y": 2.9864087306,
				"z": -1.7929413189,
				"element": "C" 
			},
			{
				"x": 0.5311771264,
				"y": 4.2835819057,
				"z": -2.0485978794,
				"element": "C" 
			},
			{
				"x": -0.3086877693,
				"y": 5.3413449046,
				"z": -2.3112158191,
				"element": "C" 
			},
			{
				"x": -1.7131482063,
				"y": 5.149600045,
				"z": -2.3299994107,
				"element": "C" 
			},
			{
				"x": -2.2531087937,
				"y": 3.90601049,
				"z": -2.0863915508,
				"element": "C" 
			},
			{
				"x": -1.4147757069,
				"y": 2.793543665,
				"z": -1.8122769418,
				"element": "C" 
			},
			{
				"x": -1.9289900512,
				"y": 1.4933001704,
				"z": -1.5553220038,
				"element": "C" 
			},
			{
				"x": -1.0934277551,
				"y": 0.4337148541,
				"z": -1.2976556021,
				"element": "C" 
			},
			{
				"x": -0.0174890574,
				"y": -2.1549544115,
				"z": 0.4582237321,
				"element": "C" 
			},
			{
				"x": -1.1772767176,
				"y": -2.9354115265,
				"z": 0.4768365662,
				"element": "C" 
			},
			{
				"x": -1.883701372,
				"y": -3.1235741695,
				"z": 1.6670981402,
				"element": "C" 
			},
			{
				"x": -1.4403621561,
				"y": -2.5383476785,
				"z": 2.8523517679,
				"element": "C" 
			},
			{
				"x": -0.2788192023,
				"y": -1.7632988863,
				"z": 2.8430539789,
				"element": "C" 
			},
			{
				"x": 0.4284616904,
				"y": -1.5736948452,
				"z": 1.6573425477,
				"element": "C" 
			},
			{
				"x": 1.7762796682,
				"y": -2.4987746211,
				"z": -0.6836313889,
				"element": "H" 
			},
			{
				"x": 1.9197636161,
				"y": 2.0065566611,
				"z": -1.494282651,
				"element": "H" 
			},
			{
				"x": 1.6088151213,
				"y": 4.4229766492,
				"z": -2.0328150416,
				"element": "H" 
			},
			{
				"x": 0.1006595658,
				"y": 6.3282106304,
				"z": -2.5056514496,
				"element": "H" 
			},
			{
				"x": -2.3651981519,
				"y": 5.9928536474,
				"z": -2.5389097113,
				"element": "H" 
			},
			{
				"x": -3.3300438268,
				"y": 3.7603770717,
				"z": -2.1014541242,
				"element": "H" 
			},
			{
				"x": -3.0055956539,
				"y": 1.3455755479,
				"z": -1.5667781196,
				"element": "H" 
			},
			{
				"x": -1.5156647156,
				"y": -0.5441463746,
				"z": -1.1058836793,
				"element": "H" 
			},
			{
				"x": -1.5273019941,
				"y": -3.3966577443,
				"z": -0.4397234969,
				"element": "H" 
			},
			{
				"x": -2.783232547,
				"y": -3.7324406367,
				"z": 1.6625420737,
				"element": "H" 
			},
			{
				"x": -1.9923899755,
				"y": -2.6854903735,
				"z": 3.7759424642,
				"element": "H" 
			},
			{
				"x": 0.0800101881,
				"y": -1.304584402,
				"z": 3.7598265807,
				"element": "H" 
			},
			{
				"x": 1.3357235051,
				"y": -0.9759752682,
				"z": 1.6632836314,
				"element": "H" 
			}
		],
		 "valence_orbital": [ 
			{
				"type": "occ",
				"energy": -0.26561,
				"method": "rhf"
			},
			{
				"type": "occ",
				"energy": -0.25868,
				"method": "rhf"
			},
			{
				"type": "occ",
				"energy": -0.25065,
				"method": "rhf"
			},
			{
				"type": "occ",
				"energy": -0.24681,
				"method": "rhf"
			},
			{
				"type": "occ",
				"energy": -0.224,
				"method": "rhf"
			},
			{
				"type": "unocc",
				"energy": -0.07366,
				"method": "rhf"
			},
			{
				"type": "unocc",
				"energy": -0.03759,
				"method": "rhf"
			},
			{
				"type": "unocc",
				"energy": -0.01721,
				"method": "rhf"
			},
			{
				"type": "unocc",
				"energy": -0.01369,
				"method": "rhf"
			},
			{
				"type": "unocc",
				"energy": -0.00846,
				"method": "rhf"
			}
		],
		"cosmo_sigma_profile": { 
			"-0.025": 0.0,
			"-0.024": 0.0,
			"-0.023": 0.0,
			"-0.022": 0.0,
			"-0.021": 0.0,
			"-0.02": 0.0,
			"-0.019": 0.0,
			"-0.018": 0.0,
			"-0.017": 0.0,
			"-0.016": 0.0,
			"-0.015": 0.0,
			"-0.014": 0.0,
			"-0.013": 0.0,
			"-0.012": 0.0,
			"-0.011": 0.0,
			"-0.01": 0.0,
			"-0.009": 0.100272868577,
			"-0.008": 1.42613432179,
			"-0.007": 5.00172188253,
			"-0.006": 20.943646905,
			"-0.005": 24.0788225692,
			"-0.004": 26.5341323501,
			"-0.003": 21.1461194829,
			"-0.002": 20.910748404,
			"-0.001": 20.1600984657,
			"0.0": 20.7797448569,
			"0.001": 24.9202224008,
			"0.002": 32.1291078325,
			"0.003": 37.4686264321,
			"0.004": 31.3401505962,
			"0.005": 14.7345652981,
			"0.006": 1.14218475827,
			"0.007": 1.29376869003,
			"0.008": 1.83104102592,
			"0.009": 1.65443609337,
			"0.01": 2.68134490873,
			"0.011": 3.75878517275,
			"0.012": 0.725941961567,
			"0.013": 0.0,
			"0.014": 0.0,
			"0.015": 0.0,
			"0.016": 0.0,
			"0.017": 0.0,
			"0.018": 0.0,
			"0.019": 0.0,
			"0.02": 0.0,
			"0.021": 0.0,
			"0.022": 0.0,
			"0.023": 0.0,
			"0.024": 0.0,
			"0.025": 0.0
		}
	}
}
