{
	 "smiles": "CN1N=C(Br)C2=C1N=CN=C2Cl", 
	 "Tm": 389.15, 
	 "num_atms": 16, 
	 "gaussian": { 
		 "optdone": 1, 
		 "sigma_profile": "yes", 
		 "theory": "DFT", 
		 "functional": "B3LYP", 
		 "basiset": "6-31G**", 
		 "properties": { 
			 "R2extent": 3212.9707, 
			 "electric_dipole_moment_norm": 2.81470622623, 
			 "electric_quadrupole_moment_norm": 7.37791933542, 
			 "total_energy": -3481.62668469, 
			 "HOMO_LUMO_gap": 0.177, 
			 "cosmo_polarized_energy": -7.68, 
			 "cosmo_cavitation_energy": 24.98, 
			 "cosmo_dispersion_energy": -19.25, 
			 "cosmo_repulsion_energy": 1.53, 
			 "cosmo_total_nonelectrostatic_energy": 7.26, 
			 "SMD_solvation_energy": -0.61 
		},
		"coords": [
			{
				"x": -2.6201423201,
				"y": -1.9059683013,
				"z": 1.1813855029,
				"element": "C" 
			},
			{
				"x": -1.4853560452,
				"y": -1.3182532937,
				"z": 0.4931216908,
				"element": "N" 
			},
			{
				"x": -0.7776661561,
				"y": -2.0402796351,
				"z": -0.4224352013,
				"element": "N" 
			},
			{
				"x": 0.1766746414,
				"y": -1.2515594986,
				"z": -0.8695485733,
				"element": "C" 
			},
			{
				"x": 1.3861719243,
				"y": -1.8798955933,
				"z": -2.1632347357,
				"element": "Br" 
			},
			{
				"x": 0.1266610773,
				"y": 0.0344158093,
				"z": -0.252946349,
				"element": "C" 
			},
			{
				"x": -0.9816838823,
				"y": -0.0653886966,
				"z": 0.6310404438,
				"element": "C" 
			},
			{
				"x": -1.4295283373,
				"y": 0.9038426637,
				"z": 1.4395249488,
				"element": "N" 
			},
			{
				"x": -0.7205621254,
				"y": 2.0214217059,
				"z": 1.3449813579,
				"element": "C" 
			},
			{
				"x": 0.3512643652,
				"y": 2.2565152031,
				"z": 0.5520803409,
				"element": "N" 
			},
			{
				"x": 0.7657467145,
				"y": 1.2826603247,
				"z": -0.2304780742,
				"element": "C" 
			},
			{
				"x": 2.1485357474,
				"y": 1.6037410303,
				"z": -1.2456465755,
				"element": "Cl" 
			},
			{
				"x": -3.3831877082,
				"y": -2.2037787877,
				"z": 0.4582150789,
				"element": "H" 
			},
			{
				"x": -2.2998344717,
				"y": -2.7818171437,
				"z": 1.7507652402,
				"element": "H" 
			},
			{
				"x": -3.0223900756,
				"y": -1.1502917287,
				"z": 1.8564870573,
				"element": "H" 
			},
			{
				"x": -1.0281033481,
				"y": 2.8523359417,
				"z": 1.9743878475,
				"element": "H" 
			}
		],
		 "valence_orbital": [ 
			{
				"type": "occ",
				"energy": -0.3086,
				"method": "rhf"
			},
			{
				"type": "occ",
				"energy": -0.29716,
				"method": "rhf"
			},
			{
				"type": "occ",
				"energy": -0.28887,
				"method": "rhf"
			},
			{
				"type": "occ",
				"energy": -0.2843,
				"method": "rhf"
			},
			{
				"type": "occ",
				"energy": -0.25174,
				"method": "rhf"
			},
			{
				"type": "unocc",
				"energy": -0.07474,
				"method": "rhf"
			},
			{
				"type": "unocc",
				"energy": -0.02744,
				"method": "rhf"
			},
			{
				"type": "unocc",
				"energy": -0.00031,
				"method": "rhf"
			},
			{
				"type": "unocc",
				"energy": 0.01526,
				"method": "rhf"
			},
			{
				"type": "unocc",
				"energy": 0.02692,
				"method": "rhf"
			}
		],
		"cosmo_sigma_profile": { 
			"-0.025": 0.0,
			"-0.024": 0.0,
			"-0.023": 0.0,
			"-0.022": 0.0,
			"-0.021": 0.0,
			"-0.02": 0.0,
			"-0.019": 0.0,
			"-0.018": 0.0,
			"-0.017": 0.0,
			"-0.016": 0.0,
			"-0.015": 0.0,
			"-0.014": 0.0,
			"-0.013": 0.0,
			"-0.012": 0.0,
			"-0.011": 0.0,
			"-0.01": 0.0,
			"-0.009": 1.08069796642,
			"-0.008": 2.1290551942,
			"-0.007": 6.21888405605,
			"-0.006": 9.2812486874,
			"-0.005": 11.2361398876,
			"-0.004": 20.6934086412,
			"-0.003": 23.3696083113,
			"-0.002": 16.2159390694,
			"-0.001": 13.4147896626,
			"0.0": 12.4286613941,
			"0.001": 12.6225213775,
			"0.002": 16.4310552484,
			"0.003": 24.3300783173,
			"0.004": 10.8771066494,
			"0.005": 5.40065959021,
			"0.006": 3.70045052507,
			"0.007": 4.12133248682,
			"0.008": 3.07897040579,
			"0.009": 2.61226116348,
			"0.01": 3.12302231428,
			"0.011": 2.68554895653,
			"0.012": 1.70034000549,
			"0.013": 0.839287960659,
			"0.014": 0.0768028896787,
			"0.015": 0.0,
			"0.016": 0.0,
			"0.017": 0.0,
			"0.018": 0.0,
			"0.019": 0.0,
			"0.02": 0.0,
			"0.021": 0.0,
			"0.022": 0.0,
			"0.023": 0.0,
			"0.024": 0.0,
			"0.025": 0.0
		}
	}
}
