{
	 "smiles": "FC1=CC(Br)=C(Br)C=C1F", 
	 "Tm": 306.15, 
	 "num_atms": 12, 
	 "gaussian": { 
		 "optdone": 1, 
		 "sigma_profile": "yes", 
		 "theory": "DFT", 
		 "functional": "B3LYP", 
		 "basiset": "6-31G**", 
		 "properties": { 
			 "R2extent": 4816.4836, 
			 "electric_dipole_moment_norm": 0.0353645302528, 
			 "electric_quadrupole_moment_norm": 5.55713831032, 
			 "total_energy": -5572.30301414, 
			 "HOMO_LUMO_gap": 0.21123, 
			 "cosmo_polarized_energy": -3.54, 
			 "cosmo_cavitation_energy": 22.31, 
			 "cosmo_dispersion_energy": -17.06, 
			 "cosmo_repulsion_energy": 1.33, 
			 "cosmo_total_nonelectrostatic_energy": 6.58, 
			 "SMD_solvation_energy": 2.74 
		},
		"coords": [
			{
				"x": -0.170445909,
				"y": -1.7714658057,
				"z": -1.3274606176,
				"element": "F" 
			},
			{
				"x": 0.3420632358,
				"y": -0.9825982383,
				"z": -0.3733013209,
				"element": "C" 
			},
			{
				"x": 1.2687332308,
				"y": -0.0041532128,
				"z": -0.6963111421,
				"element": "C" 
			},
			{
				"x": 1.7973458923,
				"y": 0.8136997423,
				"z": 0.3067060514,
				"element": "C" 
			},
			{
				"x": 3.0621956632,
				"y": 2.1351756015,
				"z": -0.2005713613,
				"element": "Br" 
			},
			{
				"x": 1.3880642689,
				"y": 0.6406727375,
				"z": 1.6342950732,
				"element": "C" 
			},
			{
				"x": 2.0600877658,
				"y": 1.7113364977,
				"z": 3.0504673286,
				"element": "Br" 
			},
			{
				"x": 0.4527429336,
				"y": -0.3490798666,
				"z": 1.9503944733,
				"element": "C" 
			},
			{
				"x": -0.0657222202,
				"y": -1.1549403168,
				"z": 0.9493060652,
				"element": "C" 
			},
			{
				"x": -0.962714972,
				"y": -2.1062726693,
				"z": 1.2421571328,
				"element": "F" 
			},
			{
				"x": 1.5739472874,
				"y": 0.1156756512,
				"z": -1.7285093275,
				"element": "H" 
			},
			{
				"x": 0.1248028235,
				"y": -0.4969501206,
				"z": 2.9719276448,
				"element": "H" 
			}
		],
		 "valence_orbital": [ 
			{
				"type": "occ",
				"energy": -0.31935,
				"method": "rhf"
			},
			{
				"type": "occ",
				"energy": -0.31675,
				"method": "rhf"
			},
			{
				"type": "occ",
				"energy": -0.28827,
				"method": "rhf"
			},
			{
				"type": "occ",
				"energy": -0.27095,
				"method": "rhf"
			},
			{
				"type": "occ",
				"energy": -0.2499,
				"method": "rhf"
			},
			{
				"type": "unocc",
				"energy": -0.03867,
				"method": "rhf"
			},
			{
				"type": "unocc",
				"energy": -0.03434,
				"method": "rhf"
			},
			{
				"type": "unocc",
				"energy": -0.03021,
				"method": "rhf"
			},
			{
				"type": "unocc",
				"energy": 0.02457,
				"method": "rhf"
			},
			{
				"type": "unocc",
				"energy": 0.07369,
				"method": "rhf"
			}
		],
		"cosmo_sigma_profile": { 
			"-0.025": 0.0,
			"-0.024": 0.0,
			"-0.023": 0.0,
			"-0.022": 0.0,
			"-0.021": 0.0,
			"-0.02": 0.0,
			"-0.019": 0.0,
			"-0.018": 0.0,
			"-0.017": 0.0,
			"-0.016": 0.0,
			"-0.015": 0.0,
			"-0.014": 0.0,
			"-0.013": 0.0,
			"-0.012": 0.0,
			"-0.011": 0.0,
			"-0.01": 0.701186300301,
			"-0.009": 2.89181664742,
			"-0.008": 2.33017667344,
			"-0.007": 3.55706326778,
			"-0.006": 3.56938494076,
			"-0.005": 6.14684896175,
			"-0.004": 6.66346547958,
			"-0.003": 10.6328704746,
			"-0.002": 16.8152313196,
			"-0.001": 20.5971350529,
			"0.0": 24.6590078307,
			"0.001": 14.5623989447,
			"0.002": 18.0130352829,
			"0.003": 37.1504512912,
			"0.004": 15.525470825,
			"0.005": 3.14762736804,
			"0.006": 0.0680347504043,
			"0.007": 0.0,
			"0.008": 0.0,
			"0.009": 0.0,
			"0.01": 0.0,
			"0.011": 0.0,
			"0.012": 0.0,
			"0.013": 0.0,
			"0.014": 0.0,
			"0.015": 0.0,
			"0.016": 0.0,
			"0.017": 0.0,
			"0.018": 0.0,
			"0.019": 0.0,
			"0.02": 0.0,
			"0.021": 0.0,
			"0.022": 0.0,
			"0.023": 0.0,
			"0.024": 0.0,
			"0.025": 0.0
		}
	}
}
