{
	 "smiles": "CC1=CC=C2C=C(Cl)C(Cl)=CC2=N1", 
	 "Tm": 395.15, 
	 "num_atms": 20, 
	 "gaussian": { 
		 "optdone": 1, 
		 "sigma_profile": "yes", 
		 "theory": "DFT", 
		 "functional": "B3LYP", 
		 "basiset": "6-31G**", 
		 "properties": { 
			 "R2extent": 7336.1474, 
			 "electric_dipole_moment_norm": 3.83636678382, 
			 "electric_quadrupole_moment_norm": 15.1424015618, 
			 "total_energy": -1360.4321763, 
			 "HOMO_LUMO_gap": 0.17679, 
			 "cosmo_polarized_energy": -7.13, 
			 "cosmo_cavitation_energy": 27.7, 
			 "cosmo_dispersion_energy": -20.88, 
			 "cosmo_repulsion_energy": 1.64, 
			 "cosmo_total_nonelectrostatic_energy": 8.46, 
			 "SMD_solvation_energy": 2.64 
		},
		"coords": [
			{
				"x": -1.6125929709,
				"y": -0.5541918064,
				"z": 1.2085376683,
				"element": "C" 
			},
			{
				"x": -0.2905422908,
				"y": 0.1625549071,
				"z": 1.3155236666,
				"element": "C" 
			},
			{
				"x": -0.1903149987,
				"y": 1.3605016618,
				"z": 2.0872523375,
				"element": "C" 
			},
			{
				"x": 1.0138251784,
				"y": 2.0091821714,
				"z": 2.1818273513,
				"element": "C" 
			},
			{
				"x": 2.1431810184,
				"y": 1.4746103217,
				"z": 1.5073302785,
				"element": "C" 
			},
			{
				"x": 3.4269493986,
				"y": 2.0685430712,
				"z": 1.5428811237,
				"element": "C" 
			},
			{
				"x": 4.4841410195,
				"y": 1.5003347508,
				"z": 0.8662611368,
				"element": "C" 
			},
			{
				"x": 6.0511498873,
				"y": 2.2692032272,
				"z": 0.9389073144,
				"element": "Cl" 
			},
			{
				"x": 4.2909079645,
				"y": 0.3021819069,
				"z": 0.1207196698,
				"element": "C" 
			},
			{
				"x": 5.6187152358,
				"y": -0.4332825222,
				"z": -0.7435408096,
				"element": "Cl" 
			},
			{
				"x": 3.0494367455,
				"y": -0.2923504352,
				"z": 0.0728447295,
				"element": "C" 
			},
			{
				"x": 1.947421634,
				"y": 0.2740397807,
				"z": 0.7608169462,
				"element": "C" 
			},
			{
				"x": 0.7412007506,
				"y": -0.3592691602,
				"z": 0.6770781885,
				"element": "N" 
			},
			{
				"x": -1.9767451749,
				"y": -0.8573277618,
				"z": 2.1971729019,
				"element": "H" 
			},
			{
				"x": -2.3781827596,
				"y": 0.096254027,
				"z": 0.7695708031,
				"element": "H" 
			},
			{
				"x": -1.5018150696,
				"y": -1.4417768922,
				"z": 0.5845124576,
				"element": "H" 
			},
			{
				"x": -1.0714142028,
				"y": 1.7453741289,
				"z": 2.5920014781,
				"element": "H" 
			},
			{
				"x": 1.116623271,
				"y": 2.922199239,
				"z": 2.7626000822,
				"element": "H" 
			},
			{
				"x": 3.5837331799,
				"y": 2.9814315157,
				"z": 2.1082972748,
				"element": "H" 
			},
			{
				"x": 2.8904221838,
				"y": -1.2038121315,
				"z": -0.4909945992,
				"element": "H" 
			}
		],
		 "valence_orbital": [ 
			{
				"type": "occ",
				"energy": -0.30986,
				"method": "rhf"
			},
			{
				"type": "occ",
				"energy": -0.30945,
				"method": "rhf"
			},
			{
				"type": "occ",
				"energy": -0.26393,
				"method": "rhf"
			},
			{
				"type": "occ",
				"energy": -0.24881,
				"method": "rhf"
			},
			{
				"type": "occ",
				"energy": -0.24175,
				"method": "rhf"
			},
			{
				"type": "unocc",
				"energy": -0.06496,
				"method": "rhf"
			},
			{
				"type": "unocc",
				"energy": -0.03212,
				"method": "rhf"
			},
			{
				"type": "unocc",
				"energy": 0.00202,
				"method": "rhf"
			},
			{
				"type": "unocc",
				"energy": 0.00499,
				"method": "rhf"
			},
			{
				"type": "unocc",
				"energy": 0.06028,
				"method": "rhf"
			}
		],
		"cosmo_sigma_profile": { 
			"-0.025": 0.0,
			"-0.024": 0.0,
			"-0.023": 0.0,
			"-0.022": 0.0,
			"-0.021": 0.0,
			"-0.02": 0.0,
			"-0.019": 0.0,
			"-0.018": 0.0,
			"-0.017": 0.0,
			"-0.016": 0.0,
			"-0.015": 0.0,
			"-0.014": 0.0,
			"-0.013": 0.0,
			"-0.012": 0.0,
			"-0.011": 0.0,
			"-0.01": 0.0,
			"-0.009": 0.741588371386,
			"-0.008": 4.33037307381,
			"-0.007": 6.93816543526,
			"-0.006": 7.25141960165,
			"-0.005": 11.1364429812,
			"-0.004": 12.5814890772,
			"-0.003": 13.7418625188,
			"-0.002": 14.3249114198,
			"-0.001": 17.7869401987,
			"0.0": 32.8195046685,
			"0.001": 32.8271718978,
			"0.002": 20.9581470042,
			"0.003": 16.5694186411,
			"0.004": 18.283119346,
			"0.005": 6.38181247282,
			"0.006": 2.29288581369,
			"0.007": 1.0120493356,
			"0.008": 1.60519443005,
			"0.009": 1.03262574394,
			"0.01": 1.10386275706,
			"0.011": 0.574411865535,
			"0.012": 0.90128661372,
			"0.013": 0.731406394049,
			"0.014": 0.767152437735,
			"0.015": 0.337948321472,
			"0.016": 0.0,
			"0.017": 0.0,
			"0.018": 0.0,
			"0.019": 0.0,
			"0.02": 0.0,
			"0.021": 0.0,
			"0.022": 0.0,
			"0.023": 0.0,
			"0.024": 0.0,
			"0.025": 0.0
		}
	}
}
