{
	 "smiles": "COC1=CC(Cl)=C(OC)C=C1[N+]([O-])=O", 
	 "Tm": 417.15, 
	 "num_atms": 22, 
	 "gaussian": { 
		 "optdone": 1, 
		 "sigma_profile": "yes", 
		 "theory": "DFT", 
		 "functional": "B3LYP", 
		 "basiset": "6-31G**", 
		 "properties": { 
			 "R2extent": 3646.549, 
			 "electric_dipole_moment_norm": 4.36541742563, 
			 "electric_quadrupole_moment_norm": 21.7139424357, 
			 "total_energy": -1125.36791454, 
			 "HOMO_LUMO_gap": 0.16016, 
			 "cosmo_polarized_energy": -12.72, 
			 "cosmo_cavitation_energy": 28.96, 
			 "cosmo_dispersion_energy": -20.88, 
			 "cosmo_repulsion_energy": 1.66, 
			 "cosmo_total_nonelectrostatic_energy": 9.74, 
			 "SMD_solvation_energy": 8.63 
		},
		"coords": [
			{
				"x": -0.8707709092,
				"y": 0.6902747054,
				"z": 4.1097487446,
				"element": "C" 
			},
			{
				"x": -0.277239555,
				"y": -0.2827136777,
				"z": 3.2558933688,
				"element": "O" 
			},
			{
				"x": -0.4905840726,
				"y": -0.204018456,
				"z": 1.9288689338,
				"element": "C" 
			},
			{
				"x": -1.2848222082,
				"y": 0.7892331979,
				"z": 1.3355215808,
				"element": "C" 
			},
			{
				"x": -1.4485425373,
				"y": 0.8453992588,
				"z": -0.0469102235,
				"element": "C" 
			},
			{
				"x": -2.4611968624,
				"y": 2.0945798059,
				"z": -0.7276799329,
				"element": "Cl" 
			},
			{
				"x": -0.8246973475,
				"y": -0.0809678542,
				"z": -0.8965009391,
				"element": "C" 
			},
			{
				"x": -1.0314525902,
				"y": -0.0655247088,
				"z": -2.2480792411,
				"element": "O" 
			},
			{
				"x": -0.050292828,
				"y": 0.6554365157,
				"z": -3.002692088,
				"element": "C" 
			},
			{
				"x": -0.0287472223,
				"y": -1.0617740371,
				"z": -0.3125474342,
				"element": "C" 
			},
			{
				"x": 0.13487956,
				"y": -1.139117264,
				"z": 1.068644173,
				"element": "C" 
			},
			{
				"x": 0.9719502008,
				"y": -2.2360803007,
				"z": 1.5705565113,
				"element": "N" 
			},
			{
				"x": 1.7687475387,
				"y": -2.7380758652,
				"z": 0.7725625579,
				"element": "O" 
			},
			{
				"x": 0.82324395,
				"y": -2.6038345834,
				"z": 2.7319576944,
				"element": "O" 
			},
			{
				"x": -1.965333124,
				"y": 0.6546458164,
				"z": 4.0574852867,
				"element": "H" 
			},
			{
				"x": -0.5485868731,
				"y": 0.4259887483,
				"z": 5.1168296165,
				"element": "H" 
			},
			{
				"x": -0.5239154157,
				"y": 1.7023321952,
				"z": 3.8687565754,
				"element": "H" 
			},
			{
				"x": -1.7827779413,
				"y": 1.5302828931,
				"z": 1.9452678629,
				"element": "H" 
			},
			{
				"x": -0.038611329,
				"y": 1.7164003269,
				"z": -2.7269267691,
				"element": "H" 
			},
			{
				"x": 0.9508165646,
				"y": 0.2311056286,
				"z": -2.8573453923,
				"element": "H" 
			},
			{
				"x": -0.3383190908,
				"y": 0.5562152364,
				"z": -4.0503700137,
				"element": "H" 
			},
			{
				"x": 0.4678520923,
				"y": -1.7946875815,
				"z": -0.9359408722,
				"element": "H" 
			}
		],
		 "valence_orbital": [ 
			{
				"type": "occ",
				"energy": -0.30093,
				"method": "rhf"
			},
			{
				"type": "occ",
				"energy": -0.29318,
				"method": "rhf"
			},
			{
				"type": "occ",
				"energy": -0.28456,
				"method": "rhf"
			},
			{
				"type": "occ",
				"energy": -0.27221,
				"method": "rhf"
			},
			{
				"type": "occ",
				"energy": -0.24451,
				"method": "rhf"
			},
			{
				"type": "unocc",
				"energy": -0.08435,
				"method": "rhf"
			},
			{
				"type": "unocc",
				"energy": -0.02288,
				"method": "rhf"
			},
			{
				"type": "unocc",
				"energy": -0.00678,
				"method": "rhf"
			},
			{
				"type": "unocc",
				"energy": 0.01302,
				"method": "rhf"
			},
			{
				"type": "unocc",
				"energy": 0.07949,
				"method": "rhf"
			}
		],
		"cosmo_sigma_profile": { 
			"-0.025": 0.0,
			"-0.024": 0.0,
			"-0.023": 0.0,
			"-0.022": 0.0,
			"-0.021": 0.0,
			"-0.02": 0.0,
			"-0.019": 0.0,
			"-0.018": 0.0,
			"-0.017": 0.0,
			"-0.016": 0.0,
			"-0.015": 0.0,
			"-0.014": 0.0,
			"-0.013": 0.0,
			"-0.012": 0.0,
			"-0.011": 0.0,
			"-0.01": 0.0,
			"-0.009": 1.38794002205,
			"-0.008": 3.30074625947,
			"-0.007": 8.74394390612,
			"-0.006": 14.6361965425,
			"-0.005": 18.8077241832,
			"-0.004": 21.3616270858,
			"-0.003": 20.7478298591,
			"-0.002": 14.9831795443,
			"-0.001": 19.9950936811,
			"0.0": 19.4755926762,
			"0.001": 12.0659808796,
			"0.002": 10.0204849898,
			"0.003": 11.476295545,
			"0.004": 8.82977793414,
			"0.005": 6.07613073751,
			"0.006": 4.80548369138,
			"0.007": 7.21439841362,
			"0.008": 11.5425696571,
			"0.009": 8.12034117111,
			"0.01": 6.17174264947,
			"0.011": 2.94246161389,
			"0.012": 0.713014311022,
			"0.013": 0.0210638154987,
			"0.014": 0.0,
			"0.015": 0.0,
			"0.016": 0.0,
			"0.017": 0.0,
			"0.018": 0.0,
			"0.019": 0.0,
			"0.02": 0.0,
			"0.021": 0.0,
			"0.022": 0.0,
			"0.023": 0.0,
			"0.024": 0.0,
			"0.025": 0.0
		}
	}
}
