{
	 "smiles": "CC1=CC=C(O1)C(C1=CC=C(C)O1)C1=CC(Cl)=CC=C1O", 
	 "Tm": 358.15, 
	 "num_atms": 36, 
	 "gaussian": { 
		 "optdone": 1, 
		 "sigma_profile": "yes", 
		 "theory": "DFT", 
		 "functional": "B3LYP", 
		 "basiset": "6-31G**", 
		 "properties": { 
			 "R2extent": 7002.5816, 
			 "electric_dipole_moment_norm": 2.42750643459, 
			 "electric_quadrupole_moment_norm": 15.1945476487, 
			 "total_energy": -1342.68029887, 
			 "HOMO_LUMO_gap": 0.18963, 
			 "cosmo_polarized_energy": -13.45, 
			 "cosmo_cavitation_energy": 42.72, 
			 "cosmo_dispersion_energy": -28.75, 
			 "cosmo_repulsion_energy": 2.29, 
			 "cosmo_total_nonelectrostatic_energy": 16.26, 
			 "SMD_solvation_energy": 8.13 
		},
		"coords": [
			{
				"x": 2.8138465432,
				"y": 4.0547194239,
				"z": -2.03122273,
				"element": "C" 
			},
			{
				"x": 2.6736023593,
				"y": 2.9398040346,
				"z": -1.0551560948,
				"element": "C" 
			},
			{
				"x": 3.0005600252,
				"y": 2.7885797895,
				"z": 0.2593176701,
				"element": "C" 
			},
			{
				"x": 2.6037187543,
				"y": 1.4609346888,
				"z": 0.6349196586,
				"element": "C" 
			},
			{
				"x": 2.0628935264,
				"y": 0.8902422691,
				"z": -0.4784551493,
				"element": "C" 
			},
			{
				"x": 2.0992558759,
				"y": 1.7844666229,
				"z": -1.5186677859,
				"element": "O" 
			},
			{
				"x": 1.4564223816,
				"y": -0.4478571275,
				"z": -0.7990333104,
				"element": "C" 
			},
			{
				"x": 1.8321297405,
				"y": -1.5047826209,
				"z": 0.1995335373,
				"element": "C" 
			},
			{
				"x": 2.508942719,
				"y": -2.6814915686,
				"z": 0.090964669,
				"element": "C" 
			},
			{
				"x": 2.5098152035,
				"y": -3.2746159213,
				"z": 1.3975758055,
				"element": "C" 
			},
			{
				"x": 1.83013796,
				"y": -2.4221769346,
				"z": 2.2159403809,
				"element": "C" 
			},
			{
				"x": 1.4760757044,
				"y": -2.4421477273,
				"z": 3.6614451761,
				"element": "C" 
			},
			{
				"x": 1.4079924841,
				"y": -1.3348575605,
				"z": 1.4934220455,
				"element": "O" 
			},
			{
				"x": -0.0657031014,
				"y": -0.3825332649,
				"z": -0.9905018109,
				"element": "C" 
			},
			{
				"x": -0.8665250321,
				"y": 0.4449432731,
				"z": -0.2027470876,
				"element": "C" 
			},
			{
				"x": -2.2494593396,
				"y": 0.463440647,
				"z": -0.3750268827,
				"element": "C" 
			},
			{
				"x": -3.2355246665,
				"y": 1.5188360401,
				"z": 0.6338052043,
				"element": "Cl" 
			},
			{
				"x": -2.8624719793,
				"y": -0.3368079095,
				"z": -1.334837829,
				"element": "C" 
			},
			{
				"x": -2.0698893207,
				"y": -1.1676290927,
				"z": -2.1257362453,
				"element": "C" 
			},
			{
				"x": -0.6833251712,
				"y": -1.1976658932,
				"z": -1.9553283089,
				"element": "C" 
			},
			{
				"x": 0.1244993629,
				"y": -2.006269371,
				"z": -2.7092079314,
				"element": "O" 
			},
			{
				"x": 3.2816854291,
				"y": 4.9146707555,
				"z": -1.5462341436,
				"element": "H" 
			},
			{
				"x": 1.8401626015,
				"y": 4.3703484141,
				"z": -2.4237509306,
				"element": "H" 
			},
			{
				"x": 3.4340369511,
				"y": 3.7649716941,
				"z": -2.8876203791,
				"element": "H" 
			},
			{
				"x": 3.4692108396,
				"y": 3.5322498595,
				"z": 0.8883272978,
				"element": "H" 
			},
			{
				"x": 2.7046544268,
				"y": 0.9916824997,
				"z": 1.6015895622,
				"element": "H" 
			},
			{
				"x": 1.8814454617,
				"y": -0.7790919232,
				"z": -1.7521685639,
				"element": "H" 
			},
			{
				"x": 2.948212918,
				"y": -3.0798757274,
				"z": -0.8122920219,
				"element": "H" 
			},
			{
				"x": 2.9562573583,
				"y": -4.2148435755,
				"z": 1.6891321351,
				"element": "H" 
			},
			{
				"x": 1.855729144,
				"y": -3.3569821972,
				"z": 4.122486339,
				"element": "H" 
			},
			{
				"x": 0.3905376456,
				"y": -2.4077934829,
				"z": 3.8097024674,
				"element": "H" 
			},
			{
				"x": 1.9064233126,
				"y": -1.5865962766,
				"z": 4.1952774707,
				"element": "H" 
			},
			{
				"x": -0.4015106294,
				"y": 1.0810985482,
				"z": 0.5420671334,
				"element": "H" 
			},
			{
				"x": -3.9383635265,
				"y": -0.3126095702,
				"z": -1.4660790461,
				"element": "H" 
			},
			{
				"x": -2.5360255168,
				"y": -1.7977478826,
				"z": -2.8803732022,
				"element": "H" 
			},
			{
				"x": -0.416050445,
				"y": -2.4892129325,
				"z": -3.3470670991,
				"element": "H" 
			}
		],
		 "valence_orbital": [ 
			{
				"type": "occ",
				"energy": -0.26635,
				"method": "rhf"
			},
			{
				"type": "occ",
				"energy": -0.25633,
				"method": "rhf"
			},
			{
				"type": "occ",
				"energy": -0.22035,
				"method": "rhf"
			},
			{
				"type": "occ",
				"energy": -0.21008,
				"method": "rhf"
			},
			{
				"type": "occ",
				"energy": -0.20272,
				"method": "rhf"
			},
			{
				"type": "unocc",
				"energy": -0.01309,
				"method": "rhf"
			},
			{
				"type": "unocc",
				"energy": 0.00463,
				"method": "rhf"
			},
			{
				"type": "unocc",
				"energy": 0.01673,
				"method": "rhf"
			},
			{
				"type": "unocc",
				"energy": 0.02964,
				"method": "rhf"
			},
			{
				"type": "unocc",
				"energy": 0.03851,
				"method": "rhf"
			}
		],
		"cosmo_sigma_profile": { 
			"-0.025": 0.0,
			"-0.024": 0.0,
			"-0.023": 0.0,
			"-0.022": 0.0,
			"-0.021": 0.0,
			"-0.02": 0.0,
			"-0.019": 0.0335942544976,
			"-0.018": 1.11983205735,
			"-0.017": 1.15652751557,
			"-0.016": 1.07161143622,
			"-0.015": 1.37839198019,
			"-0.014": 0.619166485696,
			"-0.013": 0.454477775532,
			"-0.012": 0.710320891349,
			"-0.011": 1.47392409216,
			"-0.01": 1.47149053018,
			"-0.009": 1.15371434412,
			"-0.008": 1.59845741333,
			"-0.007": 4.67092181789,
			"-0.006": 9.85579890695,
			"-0.005": 22.0883535812,
			"-0.004": 23.7918045443,
			"-0.003": 23.6831302982,
			"-0.002": 24.8952545787,
			"-0.001": 30.7505741344,
			"0.0": 24.6327199442,
			"0.001": 22.663859776,
			"0.002": 26.8800927203,
			"0.003": 32.5600342482,
			"0.004": 31.0455091718,
			"0.005": 26.5328100791,
			"0.006": 16.5336271239,
			"0.007": 6.33792732636,
			"0.008": 3.35747235112,
			"0.009": 0.472287814115,
			"0.01": 0.0,
			"0.011": 0.0,
			"0.012": 0.0,
			"0.013": 0.0,
			"0.014": 0.0,
			"0.015": 0.0,
			"0.016": 0.0,
			"0.017": 0.0,
			"0.018": 0.0,
			"0.019": 0.0,
			"0.02": 0.0,
			"0.021": 0.0,
			"0.022": 0.0,
			"0.023": 0.0,
			"0.024": 0.0,
			"0.025": 0.0
		}
	}
}
