{
	 "smiles": "ClC1=CC=CS1", 
	 "Tm": 201.15, 
	 "num_atms": 9, 
	 "gaussian": { 
		 "optdone": 1, 
		 "sigma_profile": "yes", 
		 "theory": "DFT", 
		 "functional": "B3LYP", 
		 "basiset": "6-31G**", 
		 "properties": { 
			 "R2extent": 1296.424, 
			 "electric_dipole_moment_norm": 1.78227691171, 
			 "electric_quadrupole_moment_norm": 6.131106781, 
			 "total_energy": -1012.58779081, 
			 "HOMO_LUMO_gap": 0.21071, 
			 "cosmo_polarized_energy": -3.23, 
			 "cosmo_cavitation_energy": 16.35, 
			 "cosmo_dispersion_energy": -13.17, 
			 "cosmo_repulsion_energy": 1.07, 
			 "cosmo_total_nonelectrostatic_energy": 4.26, 
			 "SMD_solvation_energy": 2.69 
		},
		"coords": [
			{
				"x": 0.3830924864,
				"y": 0.9129705259,
				"z": -0.8465409299,
				"element": "Cl" 
			},
			{
				"x": 0.8485764945,
				"y": -0.6237972445,
				"z": -0.1962501292,
				"element": "C" 
			},
			{
				"x": 0.1712137349,
				"y": -1.3616272681,
				"z": 0.7334549288,
				"element": "C" 
			},
			{
				"x": 0.8482971092,
				"y": -2.5827430055,
				"z": 1.0396285592,
				"element": "C" 
			},
			{
				"x": 2.0125900731,
				"y": -2.7424877009,
				"z": 0.3423875862,
				"element": "C" 
			},
			{
				"x": 2.3207050678,
				"y": -1.3991678357,
				"z": -0.7163683675,
				"element": "S" 
			},
			{
				"x": -0.765184855,
				"y": -1.0458571771,
				"z": 1.1761267631,
				"element": "H" 
			},
			{
				"x": 0.4768278284,
				"y": -3.3096228707,
				"z": 1.7527758976,
				"element": "H" 
			},
			{
				"x": 2.7132820606,
				"y": -3.5648674234,
				"z": 0.3808856917,
				"element": "H" 
			}
		],
		 "valence_orbital": [ 
			{
				"type": "occ",
				"energy": -0.35806,
				"method": "rhf"
			},
			{
				"type": "occ",
				"energy": -0.34018,
				"method": "rhf"
			},
			{
				"type": "occ",
				"energy": -0.32048,
				"method": "rhf"
			},
			{
				"type": "occ",
				"energy": -0.26253,
				"method": "rhf"
			},
			{
				"type": "occ",
				"energy": -0.23343,
				"method": "rhf"
			},
			{
				"type": "unocc",
				"energy": -0.02272,
				"method": "rhf"
			},
			{
				"type": "unocc",
				"energy": 0.01239,
				"method": "rhf"
			},
			{
				"type": "unocc",
				"energy": 0.02692,
				"method": "rhf"
			},
			{
				"type": "unocc",
				"energy": 0.05709,
				"method": "rhf"
			},
			{
				"type": "unocc",
				"energy": 0.09386,
				"method": "rhf"
			}
		],
		"cosmo_sigma_profile": { 
			"-0.025": 0.0,
			"-0.024": 0.0,
			"-0.023": 0.0,
			"-0.022": 0.0,
			"-0.021": 0.0,
			"-0.02": 0.0,
			"-0.019": 0.0,
			"-0.018": 0.0,
			"-0.017": 0.0,
			"-0.016": 0.0,
			"-0.015": 0.0,
			"-0.014": 0.0,
			"-0.013": 0.0,
			"-0.012": 0.0,
			"-0.011": 0.0,
			"-0.01": 0.0,
			"-0.009": 1.24839791142,
			"-0.008": 3.25475767873,
			"-0.007": 5.79016582007,
			"-0.006": 5.38857068335,
			"-0.005": 5.73564245703,
			"-0.004": 6.04308117948,
			"-0.003": 6.79671415251,
			"-0.002": 7.42819476804,
			"-0.001": 8.8150900827,
			"0.0": 10.8692962517,
			"0.001": 14.6454790879,
			"0.002": 16.3264867987,
			"0.003": 22.4614131257,
			"0.004": 18.2027075751,
			"0.005": 3.36832144106,
			"0.006": 0.128007221595,
			"0.007": 0.0,
			"0.008": 0.0,
			"0.009": 0.0,
			"0.01": 0.0,
			"0.011": 0.0,
			"0.012": 0.0,
			"0.013": 0.0,
			"0.014": 0.0,
			"0.015": 0.0,
			"0.016": 0.0,
			"0.017": 0.0,
			"0.018": 0.0,
			"0.019": 0.0,
			"0.02": 0.0,
			"0.021": 0.0,
			"0.022": 0.0,
			"0.023": 0.0,
			"0.024": 0.0,
			"0.025": 0.0
		}
	}
}
