{
	 "smiles": "C(CC1=CCC2=C1C=CC=C2)C1=CCC2=CC=CC=C12", 
	 "Tm": 396.15, 
	 "num_atms": 38, 
	 "gaussian": { 
		 "optdone": 1, 
		 "sigma_profile": "yes", 
		 "theory": "DFT", 
		 "functional": "B3LYP", 
		 "basiset": "6-31G**", 
		 "properties": { 
			 "R2extent": 8503.111, 
			 "electric_dipole_moment_norm": 0.0, 
			 "electric_quadrupole_moment_norm": 13.7737463963, 
			 "total_energy": -772.973183846, 
			 "HOMO_LUMO_gap": 0.18923, 
			 "cosmo_polarized_energy": -7.14, 
			 "cosmo_cavitation_energy": 40.69, 
			 "cosmo_dispersion_energy": -28.6, 
			 "cosmo_repulsion_energy": 2.18, 
			 "cosmo_total_nonelectrostatic_energy": 14.28, 
			 "SMD_solvation_energy": 5.47 
		},
		"coords": [
			{
				"x": -0.540224781,
				"y": 1.2174929766,
				"z": 0.6452982036,
				"element": "C" 
			},
			{
				"x": 0.1798283837,
				"y": -0.0852916415,
				"z": 1.0894694914,
				"element": "C" 
			},
			{
				"x": 0.892143588,
				"y": 0.0590747223,
				"z": 2.4044915726,
				"element": "C" 
			},
			{
				"x": 2.2223373672,
				"y": 0.1875040852,
				"z": 2.6022617953,
				"element": "C" 
			},
			{
				"x": 2.5540751176,
				"y": 0.3425742588,
				"z": 4.0663425914,
				"element": "C" 
			},
			{
				"x": 1.1928437049,
				"y": 0.2797898855,
				"z": 4.7207367638,
				"element": "C" 
			},
			{
				"x": 0.2161335656,
				"y": 0.1101486652,
				"z": 3.7162325871,
				"element": "C" 
			},
			{
				"x": -1.1346846223,
				"y": 0.0058735337,
				"z": 4.056801513,
				"element": "C" 
			},
			{
				"x": -1.4971503886,
				"y": 0.0793172569,
				"z": 5.405409428,
				"element": "C" 
			},
			{
				"x": -0.5275380178,
				"y": 0.2526364428,
				"z": 6.3979426905,
				"element": "C" 
			},
			{
				"x": 0.8284766207,
				"y": 0.3521979952,
				"z": 6.0589179673,
				"element": "C" 
			},
			{
				"x": -1.2525411244,
				"y": 1.0731273467,
				"z": -0.6697229202,
				"element": "C" 
			},
			{
				"x": -2.5827354383,
				"y": 0.9447014303,
				"z": -0.8674917797,
				"element": "C" 
			},
			{
				"x": -2.9144754246,
				"y": 0.7896246916,
				"z": -2.3315712264,
				"element": "C" 
			},
			{
				"x": -1.5532442168,
				"y": 0.8524058914,
				"z": -2.9859673415,
				"element": "C" 
			},
			{
				"x": -1.1888793131,
				"y": 0.7799938789,
				"z": -4.3241494335,
				"element": "C" 
			},
			{
				"x": 0.1671346794,
				"y": 0.8795504618,
				"z": -4.6631759603,
				"element": "C" 
			},
			{
				"x": 1.1367495128,
				"y": 1.0528684419,
				"z": -3.670644461,
				"element": "C" 
			},
			{
				"x": 0.7742856219,
				"y": 1.1263162483,
				"z": -2.3220365204,
				"element": "C" 
			},
			{
				"x": -0.5765329851,
				"y": 1.0220462604,
				"z": -1.9814650809,
				"element": "C" 
			},
			{
				"x": 0.2057914832,
				"y": 2.0200145609,
				"z": 0.5807044765,
				"element": "H" 
			},
			{
				"x": -1.2537923717,
				"y": 1.5187163758,
				"z": 1.4193021537,
				"element": "H" 
			},
			{
				"x": -0.5661880069,
				"y": -0.8878126764,
				"z": 1.1540635878,
				"element": "H" 
			},
			{
				"x": 0.8933964159,
				"y": -0.3865133758,
				"z": 0.3154656282,
				"element": "H" 
			},
			{
				"x": 2.9758964206,
				"y": 0.1796567914,
				"z": 1.8216992097,
				"element": "H" 
			},
			{
				"x": 3.0714684529,
				"y": 1.2904983941,
				"z": 4.2735393083,
				"element": "H" 
			},
			{
				"x": 3.2231003686,
				"y": -0.4525655191,
				"z": 4.4256818685,
				"element": "H" 
			},
			{
				"x": -1.8951015669,
				"y": -0.1340942814,
				"z": 3.2932521044,
				"element": "H" 
			},
			{
				"x": -2.5439090486,
				"y": 0.0001096608,
				"z": 5.6857080749,
				"element": "H" 
			},
			{
				"x": -0.8278341261,
				"y": 0.307900531,
				"z": 7.4404351864,
				"element": "H" 
			},
			{
				"x": 1.578487678,
				"y": 0.4821654064,
				"z": 6.8353695564,
				"element": "H" 
			},
			{
				"x": -3.3362939205,
				"y": 0.9525540338,
				"z": -0.0869285934,
				"element": "H" 
			},
			{
				"x": -3.583507564,
				"y": 1.5847552696,
				"z": -2.6909172801,
				"element": "H" 
			},
			{
				"x": -3.4318618674,
				"y": -0.1583056984,
				"z": -2.5387577871,
				"element": "H" 
			},
			{
				"x": -1.938893397,
				"y": 0.6500279838,
				"z": -5.1005983142,
				"element": "H" 
			},
			{
				"x": 0.4674292803,
				"y": 0.8242837277,
				"z": -5.7056689139,
				"element": "H" 
			},
			{
				"x": 2.1835080925,
				"y": 1.1320726782,
				"z": -3.950944041,
				"element": "H" 
			},
			{
				"x": 1.5347018272,
				"y": 1.2662833055,
				"z": -1.5584861054,
				"element": "H" 
			}
		],
		 "valence_orbital": [ 
			{
				"type": "occ",
				"energy": -0.27353,
				"method": "rhf"
			},
			{
				"type": "occ",
				"energy": -0.23968,
				"method": "rhf"
			},
			{
				"type": "occ",
				"energy": -0.23937,
				"method": "rhf"
			},
			{
				"type": "occ",
				"energy": -0.21231,
				"method": "rhf"
			},
			{
				"type": "occ",
				"energy": -0.20802,
				"method": "rhf"
			},
			{
				"type": "unocc",
				"energy": -0.01879,
				"method": "rhf"
			},
			{
				"type": "unocc",
				"energy": -0.01474,
				"method": "rhf"
			},
			{
				"type": "unocc",
				"energy": 0.00384,
				"method": "rhf"
			},
			{
				"type": "unocc",
				"energy": 0.00399,
				"method": "rhf"
			},
			{
				"type": "unocc",
				"energy": 0.05004,
				"method": "rhf"
			}
		],
		"cosmo_sigma_profile": { 
			"-0.025": 0.0,
			"-0.024": 0.0,
			"-0.023": 0.0,
			"-0.022": 0.0,
			"-0.021": 0.0,
			"-0.02": 0.0,
			"-0.019": 0.0,
			"-0.018": 0.0,
			"-0.017": 0.0,
			"-0.016": 0.0,
			"-0.015": 0.0,
			"-0.014": 0.0,
			"-0.013": 0.0,
			"-0.012": 0.0,
			"-0.011": 0.0,
			"-0.01": 0.0,
			"-0.009": 0.0,
			"-0.008": 0.0,
			"-0.007": 0.0,
			"-0.006": 2.27353212719,
			"-0.005": 22.3488847377,
			"-0.004": 32.5389055546,
			"-0.003": 42.1816519451,
			"-0.002": 36.8381695518,
			"-0.001": 31.9940833891,
			"0.0": 25.1471985291,
			"0.001": 20.1190045283,
			"0.002": 18.8503535728,
			"0.003": 21.4449478383,
			"0.004": 21.5687681491,
			"0.005": 20.9423769863,
			"0.006": 17.0204212978,
			"0.007": 10.1545759172,
			"0.008": 0.0150185076649,
			"0.009": 0.0,
			"0.01": 0.0,
			"0.011": 0.0,
			"0.012": 0.0,
			"0.013": 0.0,
			"0.014": 0.0,
			"0.015": 0.0,
			"0.016": 0.0,
			"0.017": 0.0,
			"0.018": 0.0,
			"0.019": 0.0,
			"0.02": 0.0,
			"0.021": 0.0,
			"0.022": 0.0,
			"0.023": 0.0,
			"0.024": 0.0,
			"0.025": 0.0
		}
	}
}
