{
	 "smiles": "CCOC1=NC(=NS1)C(Cl)(Cl)Cl", 
	 "Tm": 295.15, 
	 "num_atms": 17, 
	 "gaussian": { 
		 "optdone": 1, 
		 "sigma_profile": "yes", 
		 "theory": "DFT", 
		 "functional": "B3LYP", 
		 "basiset": "6-31G**", 
		 "properties": { 
			 "R2extent": 7118.666, 
			 "electric_dipole_moment_norm": 4.5032297865, 
			 "electric_quadrupole_moment_norm": 8.93036913403, 
			 "total_energy": -2157.00015575, 
			 "HOMO_LUMO_gap": 0.21606, 
			 "cosmo_polarized_energy": -6.9, 
			 "cosmo_cavitation_energy": 28.82, 
			 "cosmo_dispersion_energy": -21.6, 
			 "cosmo_repulsion_energy": 1.74, 
			 "cosmo_total_nonelectrostatic_energy": 8.95, 
			 "SMD_solvation_energy": 2.07 
		},
		"coords": [
			{
				"x": -0.6806955681,
				"y": -0.7678804287,
				"z": -3.0335279875,
				"element": "C" 
			},
			{
				"x": -0.8237885019,
				"y": -0.9098321124,
				"z": -1.5327568315,
				"element": "C" 
			},
			{
				"x": 0.0791321321,
				"y": -1.9770785325,
				"z": -1.1133529999,
				"element": "O" 
			},
			{
				"x": 0.1004592674,
				"y": -2.2558035196,
				"z": 0.1759568715,
				"element": "C" 
			},
			{
				"x": -0.5984157865,
				"y": -1.6799299895,
				"z": 1.1150601354,
				"element": "N" 
			},
			{
				"x": -0.2697024597,
				"y": -2.2742253044,
				"z": 2.3060619672,
				"element": "C" 
			},
			{
				"x": 0.6070694378,
				"y": -3.2413392048,
				"z": 2.3650943668,
				"element": "N" 
			},
			{
				"x": 1.1513689714,
				"y": -3.5235537477,
				"z": 0.7955585037,
				"element": "S" 
			},
			{
				"x": -0.9603028805,
				"y": -1.7709892397,
				"z": 3.5643589402,
				"element": "C" 
			},
			{
				"x": -0.4169548812,
				"y": -2.6507374623,
				"z": 5.0178726488,
				"element": "Cl" 
			},
			{
				"x": -0.598225704,
				"y": -0.0109224369,
				"z": 3.7645815419,
				"element": "Cl" 
			},
			{
				"x": -2.7458776121,
				"y": -1.9813335918,
				"z": 3.3745322655,
				"element": "Cl" 
			},
			{
				"x": -0.9515951685,
				"y": -1.6966401377,
				"z": -3.5429314541,
				"element": "H" 
			},
			{
				"x": -1.3449238639,
				"y": 0.026092607,
				"z": -3.3878977823,
				"element": "H" 
			},
			{
				"x": 0.3451895695,
				"y": -0.5063507559,
				"z": -3.306716349,
				"element": "H" 
			},
			{
				"x": -0.5457705366,
				"y": 0.0019805886,
				"z": -0.9963708937,
				"element": "H" 
			},
			{
				"x": -1.8388664152,
				"y": -1.1846567317,
				"z": -1.2319229431,
				"element": "H" 
			}
		],
		 "valence_orbital": [ 
			{
				"type": "occ",
				"energy": -0.32296,
				"method": "rhf"
			},
			{
				"type": "occ",
				"energy": -0.30638,
				"method": "rhf"
			},
			{
				"type": "occ",
				"energy": -0.30224,
				"method": "rhf"
			},
			{
				"type": "occ",
				"energy": -0.29572,
				"method": "rhf"
			},
			{
				"type": "occ",
				"energy": -0.26929,
				"method": "rhf"
			},
			{
				"type": "unocc",
				"energy": -0.05323,
				"method": "rhf"
			},
			{
				"type": "unocc",
				"energy": -0.04244,
				"method": "rhf"
			},
			{
				"type": "unocc",
				"energy": -0.01839,
				"method": "rhf"
			},
			{
				"type": "unocc",
				"energy": -0.01113,
				"method": "rhf"
			},
			{
				"type": "unocc",
				"energy": 0.00702,
				"method": "rhf"
			}
		],
		"cosmo_sigma_profile": { 
			"-0.025": 0.0,
			"-0.024": 0.0,
			"-0.023": 0.0,
			"-0.022": 0.0,
			"-0.021": 0.0,
			"-0.02": 0.0,
			"-0.019": 0.0,
			"-0.018": 0.0,
			"-0.017": 0.0,
			"-0.016": 0.0,
			"-0.015": 0.0,
			"-0.014": 0.0,
			"-0.013": 0.0,
			"-0.012": 0.0,
			"-0.011": 0.0,
			"-0.01": 0.0,
			"-0.009": 0.0,
			"-0.008": 0.0,
			"-0.007": 0.824593062521,
			"-0.006": 6.05178701414,
			"-0.005": 14.2785048405,
			"-0.004": 22.469196097,
			"-0.003": 24.0506590597,
			"-0.002": 22.0912665163,
			"-0.001": 24.9846655747,
			"0.0": 20.2747691483,
			"0.001": 20.8850828031,
			"0.002": 24.7876483249,
			"0.003": 28.7894994002,
			"0.004": 7.9081305495,
			"0.005": 6.06390855392,
			"0.006": 3.56228838813,
			"0.007": 3.5392056971,
			"0.008": 2.64581134548,
			"0.009": 2.65348034509,
			"0.01": 1.71935764762,
			"0.011": 1.17488400318,
			"0.012": 0.585674826603,
			"0.013": 0.0,
			"0.014": 0.0,
			"0.015": 0.0,
			"0.016": 0.0,
			"0.017": 0.0,
			"0.018": 0.0,
			"0.019": 0.0,
			"0.02": 0.0,
			"0.021": 0.0,
			"0.022": 0.0,
			"0.023": 0.0,
			"0.024": 0.0,
			"0.025": 0.0
		}
	}
}
