{
	 "smiles": "ClCC(=O)NCC1(CCCC1)C1=CC=CC=C1", 
	 "Tm": 348.15, 
	 "num_atms": 35, 
	 "gaussian": { 
		 "optdone": 1, 
		 "sigma_profile": "yes", 
		 "theory": "DFT", 
		 "functional": "B3LYP", 
		 "basiset": "6-31G**", 
		 "properties": { 
			 "R2extent": 6427.1244, 
			 "electric_dipole_moment_norm": 1.78067368712, 
			 "electric_quadrupole_moment_norm": 4.49956971721, 
			 "total_energy": -1134.53485469, 
			 "HOMO_LUMO_gap": 0.23837, 
			 "cosmo_polarized_energy": -10.42, 
			 "cosmo_cavitation_energy": 37.28, 
			 "cosmo_dispersion_energy": -25.75, 
			 "cosmo_repulsion_energy": 2.02, 
			 "cosmo_total_nonelectrostatic_energy": 13.54, 
			 "SMD_solvation_energy": 5.49 
		},
		"coords": [
			{
				"x": 0.3265735207,
				"y": 3.0789388089,
				"z": 4.468740845,
				"element": "Cl" 
			},
			{
				"x": 1.4773953166,
				"y": 1.6724879476,
				"z": 4.4724649553,
				"element": "C" 
			},
			{
				"x": 1.5375729128,
				"y": 0.8190395748,
				"z": 3.2025709237,
				"element": "C" 
			},
			{
				"x": 2.2879638929,
				"y": -0.1518272618,
				"z": 3.2297159936,
				"element": "O" 
			},
			{
				"x": 0.7844438384,
				"y": 1.1934914558,
				"z": 2.1436442008,
				"element": "N" 
			},
			{
				"x": 0.7814245535,
				"y": 0.4522630628,
				"z": 0.8922882124,
				"element": "C" 
			},
			{
				"x": -0.5545558377,
				"y": -0.2923330638,
				"z": 0.5892110902,
				"element": "C" 
			},
			{
				"x": -0.3295515178,
				"y": -1.1779594318,
				"z": -0.6695324332,
				"element": "C" 
			},
			{
				"x": 0.3665357845,
				"y": -2.4699146551,
				"z": -0.1678820953,
				"element": "C" 
			},
			{
				"x": 0.1270091201,
				"y": -2.5198718181,
				"z": 1.3682267468,
				"element": "C" 
			},
			{
				"x": -0.8453826156,
				"y": -1.3629984323,
				"z": 1.66994045,
				"element": "C" 
			},
			{
				"x": -1.6651388067,
				"y": 0.7426465967,
				"z": 0.4164900981,
				"element": "C" 
			},
			{
				"x": -2.5208361114,
				"y": 1.0880804359,
				"z": 1.4743939331,
				"element": "C" 
			},
			{
				"x": -3.5043253138,
				"y": 2.0683787041,
				"z": 1.3195111957,
				"element": "C" 
			},
			{
				"x": -3.6534428,
				"y": 2.7290312252,
				"z": 0.1006706124,
				"element": "C" 
			},
			{
				"x": -2.8078373872,
				"y": 2.4020926782,
				"z": -0.9611188282,
				"element": "C" 
			},
			{
				"x": -1.8258477302,
				"y": 1.4244951834,
				"z": -0.8018003607,
				"element": "C" 
			},
			{
				"x": 1.1945171069,
				"y": 1.0280112389,
				"z": 5.3045875385,
				"element": "H" 
			},
			{
				"x": 2.4731142246,
				"y": 2.0741866505,
				"z": 4.6621251829,
				"element": "H" 
			},
			{
				"x": 0.1696401776,
				"y": 1.9899336018,
				"z": 2.2428984722,
				"element": "H" 
			},
			{
				"x": 0.9900370237,
				"y": 1.1462249671,
				"z": 0.0696083951,
				"element": "H" 
			},
			{
				"x": 1.6103328731,
				"y": -0.2551793907,
				"z": 0.95470958,
				"element": "H" 
			},
			{
				"x": -1.304571694,
				"y": -1.4135917003,
				"z": -1.1092042159,
				"element": "H" 
			},
			{
				"x": 0.2527745195,
				"y": -0.6683504601,
				"z": -1.4452034179,
				"element": "H" 
			},
			{
				"x": -0.0443410638,
				"y": -3.3489867769,
				"z": -0.6734497394,
				"element": "H" 
			},
			{
				"x": 1.4374065537,
				"y": -2.4570240884,
				"z": -0.3942802049,
				"element": "H" 
			},
			{
				"x": 1.0640563235,
				"y": -2.367788721,
				"z": 1.9117457034,
				"element": "H" 
			},
			{
				"x": -0.2779265122,
				"y": -3.4820445583,
				"z": 1.6956438103,
				"element": "H" 
			},
			{
				"x": -1.8843360855,
				"y": -1.6956604094,
				"z": 1.5587135506,
				"element": "H" 
			},
			{
				"x": -0.7341263413,
				"y": -0.9838331997,
				"z": 2.6899774149,
				"element": "H" 
			},
			{
				"x": -2.4265491491,
				"y": 0.5840679802,
				"z": 2.4306605485,
				"element": "H" 
			},
			{
				"x": -4.1542244218,
				"y": 2.3123019313,
				"z": 2.1553157088,
				"element": "H" 
			},
			{
				"x": -4.4191884592,
				"y": 3.4895273168,
				"z": -0.021751438,
				"element": "H" 
			},
			{
				"x": -2.9129544806,
				"y": 2.9076701239,
				"z": -1.917145316,
				"element": "H" 
			},
			{
				"x": -1.1788614142,
				"y": 1.1859944838,
				"z": -1.6409871131,
				"element": "H" 
			}
		],
		 "valence_orbital": [ 
			{
				"type": "occ",
				"energy": -0.30879,
				"method": "rhf"
			},
			{
				"type": "occ",
				"energy": -0.25945,
				"method": "rhf"
			},
			{
				"type": "occ",
				"energy": -0.25917,
				"method": "rhf"
			},
			{
				"type": "occ",
				"energy": -0.25176,
				"method": "rhf"
			},
			{
				"type": "occ",
				"energy": -0.24357,
				"method": "rhf"
			},
			{
				"type": "unocc",
				"energy": -0.0052,
				"method": "rhf"
			},
			{
				"type": "unocc",
				"energy": -0.00365,
				"method": "rhf"
			},
			{
				"type": "unocc",
				"energy": 0.01448,
				"method": "rhf"
			},
			{
				"type": "unocc",
				"energy": 0.01999,
				"method": "rhf"
			},
			{
				"type": "unocc",
				"energy": 0.07928,
				"method": "rhf"
			}
		],
		"cosmo_sigma_profile": { 
			"-0.025": 0.0,
			"-0.024": 0.0,
			"-0.023": 0.0,
			"-0.022": 0.0,
			"-0.021": 0.0,
			"-0.02": 0.0,
			"-0.019": 0.0,
			"-0.018": 0.0,
			"-0.017": 0.0,
			"-0.016": 0.0,
			"-0.015": 0.0,
			"-0.014": 0.0,
			"-0.013": 0.0,
			"-0.012": 0.0,
			"-0.011": 0.0,
			"-0.01": 0.330407523027,
			"-0.009": 2.96950960535,
			"-0.008": 4.71502425075,
			"-0.007": 4.23501385162,
			"-0.006": 5.82181126461,
			"-0.005": 16.3658020815,
			"-0.004": 22.5372424468,
			"-0.003": 29.6123866172,
			"-0.002": 32.8736826839,
			"-0.001": 31.4136521911,
			"0.0": 27.7526675778,
			"0.001": 27.2386266124,
			"0.002": 17.680705338,
			"0.003": 12.7441330917,
			"0.004": 13.5591036756,
			"0.005": 15.450987722,
			"0.006": 12.5806649492,
			"0.007": 3.2972592544,
			"0.008": 1.4975897152,
			"0.009": 1.47791717734,
			"0.01": 0.895640256364,
			"0.011": 2.10921956323,
			"0.012": 1.92384005477,
			"0.013": 3.7005237758,
			"0.014": 2.09650066448,
			"0.015": 0.0552086967884,
			"0.016": 0.0,
			"0.017": 0.0,
			"0.018": 0.0,
			"0.019": 0.0,
			"0.02": 0.0,
			"0.021": 0.0,
			"0.022": 0.0,
			"0.023": 0.0,
			"0.024": 0.0,
			"0.025": 0.0
		}
	}
}
