{
	 "smiles": "CCNC(=O)NC(C)(C)C(O)=O", 
	 "Tm": 424.15, 
	 "num_atms": 26, 
	 "gaussian": { 
		 "optdone": 1, 
		 "sigma_profile": "yes", 
		 "theory": "DFT", 
		 "functional": "B3LYP", 
		 "basiset": "6-31G**", 
		 "properties": { 
			 "R2extent": 2827.3235, 
			 "electric_dipole_moment_norm": 1.2495733792, 
			 "electric_quadrupole_moment_norm": 21.966664956, 
			 "total_energy": -610.405050668, 
			 "HOMO_LUMO_gap": 0.25637, 
			 "cosmo_polarized_energy": -16.66, 
			 "cosmo_cavitation_energy": 28.4, 
			 "cosmo_dispersion_energy": -19.75, 
			 "cosmo_repulsion_energy": 1.6, 
			 "cosmo_total_nonelectrostatic_energy": 10.25, 
			 "SMD_solvation_energy": 6.47 
		},
		"coords": [
			{
				"x": -2.8193991131,
				"y": -0.1353693855,
				"z": 0.3588061632,
				"element": "C" 
			},
			{
				"x": -1.4663756257,
				"y": 0.2557983125,
				"z": 0.9584678172,
				"element": "C" 
			},
			{
				"x": -0.3244558079,
				"y": -0.1234604903,
				"z": 0.1257738156,
				"element": "N" 
			},
			{
				"x": 0.0379735154,
				"y": 0.6636137986,
				"z": -0.9355818424,
				"element": "C" 
			},
			{
				"x": -0.4907495831,
				"y": 1.7331765184,
				"z": -1.2067042687,
				"element": "O" 
			},
			{
				"x": 1.07212511,
				"y": 0.1429352182,
				"z": -1.7611174248,
				"element": "N" 
			},
			{
				"x": 2.3398219383,
				"y": -0.439022662,
				"z": -1.242161531,
				"element": "C" 
			},
			{
				"x": 3.3433000296,
				"y": -0.438139513,
				"z": -2.4148548415,
				"element": "C" 
			},
			{
				"x": 2.924925031,
				"y": 0.31533176,
				"z": -0.039708938,
				"element": "C" 
			},
			{
				"x": 2.1052999321,
				"y": -1.9257335983,
				"z": -0.8769369798,
				"element": "C" 
			},
			{
				"x": 1.0207980798,
				"y": -2.4779537914,
				"z": -1.4700980716,
				"element": "O" 
			},
			{
				"x": 2.8345176133,
				"y": -2.5603450145,
				"z": -0.1559916362,
				"element": "O" 
			},
			{
				"x": -2.9644647379,
				"y": 0.3641622582,
				"z": -0.602682405,
				"element": "H" 
			},
			{
				"x": -3.6333838182,
				"y": 0.1635318528,
				"z": 1.0276429304,
				"element": "H" 
			},
			{
				"x": -2.8898974048,
				"y": -1.2178972349,
				"z": 0.2059005449,
				"element": "H" 
			},
			{
				"x": -1.3263920766,
				"y": -0.2111673128,
				"z": 1.9388639745,
				"element": "H" 
			},
			{
				"x": -1.415322826,
				"y": 1.3381804208,
				"z": 1.0935483439,
				"element": "H" 
			},
			{
				"x": -0.0935797134,
				"y": -1.1071023699,
				"z": 0.0857504273,
				"element": "H" 
			},
			{
				"x": 1.2385195017,
				"y": 0.8368997722,
				"z": -2.4826815164,
				"element": "H" 
			},
			{
				"x": 2.9357173189,
				"y": -0.9603052893,
				"z": -3.2861051192,
				"element": "H" 
			},
			{
				"x": 4.2669201479,
				"y": -0.9358828973,
				"z": -2.1123323713,
				"element": "H" 
			},
			{
				"x": 3.5828908649,
				"y": 0.5910500881,
				"z": -2.7030525262,
				"element": "H" 
			},
			{
				"x": 3.1882391597,
				"y": 1.3361185474,
				"z": -0.3325863528,
				"element": "H" 
			},
			{
				"x": 3.8200041493,
				"y": -0.1983845296,
				"z": 0.3154734344,
				"element": "H" 
			},
			{
				"x": 2.2092212058,
				"y": 0.3620148813,
				"z": 0.7836332435,
				"element": "H" 
			},
			{
				"x": 0.6232471093,
				"y": -1.7642493395,
				"z": -2.0139648701,
				"element": "H" 
			}
		],
		 "valence_orbital": [ 
			{
				"type": "occ",
				"energy": -0.32252,
				"method": "rhf"
			},
			{
				"type": "occ",
				"energy": -0.29686,
				"method": "rhf"
			},
			{
				"type": "occ",
				"energy": -0.27887,
				"method": "rhf"
			},
			{
				"type": "occ",
				"energy": -0.26268,
				"method": "rhf"
			},
			{
				"type": "occ",
				"energy": -0.25744,
				"method": "rhf"
			},
			{
				"type": "unocc",
				"energy": -0.00107,
				"method": "rhf"
			},
			{
				"type": "unocc",
				"energy": 0.02839,
				"method": "rhf"
			},
			{
				"type": "unocc",
				"energy": 0.06179,
				"method": "rhf"
			},
			{
				"type": "unocc",
				"energy": 0.08811,
				"method": "rhf"
			},
			{
				"type": "unocc",
				"energy": 0.10994,
				"method": "rhf"
			}
		],
		"cosmo_sigma_profile": { 
			"-0.025": 0.0,
			"-0.024": 0.0,
			"-0.023": 0.0,
			"-0.022": 0.0,
			"-0.021": 0.0,
			"-0.02": 0.0,
			"-0.019": 0.0,
			"-0.018": 0.0,
			"-0.017": 0.0,
			"-0.016": 0.0,
			"-0.015": 0.0,
			"-0.014": 0.0,
			"-0.013": 0.982751519561,
			"-0.012": 2.02399413454,
			"-0.011": 2.94331040129,
			"-0.01": 3.59686867707,
			"-0.009": 3.96046984447,
			"-0.008": 3.88776327788,
			"-0.007": 4.22201366618,
			"-0.006": 6.98467318721,
			"-0.005": 12.6819872171,
			"-0.004": 17.1084264639,
			"-0.003": 22.7329952084,
			"-0.002": 23.146368847,
			"-0.001": 25.1899979229,
			"0.0": 19.0046652946,
			"0.001": 12.4425017828,
			"0.002": 4.85303043774,
			"0.003": 4.40855255934,
			"0.004": 3.80774015902,
			"0.005": 3.12367218249,
			"0.006": 4.3594198314,
			"0.007": 3.94928491848,
			"0.008": 3.83035109729,
			"0.009": 5.10299780634,
			"0.01": 5.6351582315,
			"0.011": 6.71489160497,
			"0.012": 5.51271651328,
			"0.013": 4.95716274091,
			"0.014": 4.04487818711,
			"0.015": 0.0511655213501,
			"0.016": 0.0,
			"0.017": 0.0,
			"0.018": 0.0,
			"0.019": 0.0,
			"0.02": 0.0,
			"0.021": 0.0,
			"0.022": 0.0,
			"0.023": 0.0,
			"0.024": 0.0,
			"0.025": 0.0
		}
	}
}
