{
	 "smiles": "COC(=O)C1[C@]2(C)OC(C=C2)C1(OC)OC", 
	 "Tm": 334.15, 
	 "num_atms": 32, 
	 "gaussian": { 
		 "optdone": 1, 
		 "sigma_profile": "yes", 
		 "theory": "DFT", 
		 "functional": "B3LYP", 
		 "basiset": "6-31G**", 
		 "properties": { 
			 "R2extent": 3943.8071, 
			 "electric_dipole_moment_norm": 1.5320497022, 
			 "electric_quadrupole_moment_norm": 7.74956476778, 
			 "total_energy": -804.856842828, 
			 "HOMO_LUMO_gap": 0.23532, 
			 "cosmo_polarized_energy": -11.35, 
			 "cosmo_cavitation_energy": 32.84, 
			 "cosmo_dispersion_energy": -22.83, 
			 "cosmo_repulsion_energy": 1.79, 
			 "cosmo_total_nonelectrostatic_energy": 11.8, 
			 "SMD_solvation_energy": 8.06 
		},
		"coords": [
			{
				"x": -2.2287442537,
				"y": -0.3220740255,
				"z": -0.6519474517,
				"element": "C" 
			},
			{
				"x": -0.7954436354,
				"y": -0.3451142041,
				"z": -0.7599797765,
				"element": "O" 
			},
			{
				"x": -0.1444953123,
				"y": -0.846698738,
				"z": 0.3142623445,
				"element": "C" 
			},
			{
				"x": -0.7278919321,
				"y": -1.281873618,
				"z": 1.2858314574,
				"element": "O" 
			},
			{
				"x": 1.3580507601,
				"y": -0.8632616674,
				"z": 0.1516019255,
				"element": "C" 
			},
			{
				"x": 1.9855015554,
				"y": -0.426822772,
				"z": -1.2238116144,
				"element": "C" 
			},
			{
				"x": 1.9060770062,
				"y": -1.4306441828,
				"z": -2.3520970639,
				"element": "C" 
			},
			{
				"x": 3.3560682717,
				"y": -0.2315780505,
				"z": -0.793969736,
				"element": "O" 
			},
			{
				"x": 3.093974817,
				"y": 0.816614516,
				"z": 0.1489341066,
				"element": "C" 
			},
			{
				"x": 2.2444845558,
				"y": 1.7812870177,
				"z": -0.6586986938,
				"element": "C" 
			},
			{
				"x": 1.5597222483,
				"y": 1.0165130373,
				"z": -1.5099591321,
				"element": "C" 
			},
			{
				"x": 2.1503578029,
				"y": 0.0808038575,
				"z": 1.1679819848,
				"element": "C" 
			},
			{
				"x": 1.3643526688,
				"y": 1.0404855685,
				"z": 1.8104242341,
				"element": "O" 
			},
			{
				"x": 0.8533895673,
				"y": 0.733123946,
				"z": 3.1148509295,
				"element": "C" 
			},
			{
				"x": 2.8451072903,
				"y": -0.6259644489,
				"z": 2.1665168598,
				"element": "O" 
			},
			{
				"x": 3.8677656914,
				"y": -1.5426552633,
				"z": 1.8091374837,
				"element": "C" 
			},
			{
				"x": -2.5879554555,
				"y": 0.0997447947,
				"z": -1.5906163159,
				"element": "H" 
			},
			{
				"x": -2.6202651405,
				"y": -1.332032896,
				"z": -0.5081214231,
				"element": "H" 
			},
			{
				"x": -2.5381968689,
				"y": 0.2989249095,
				"z": 0.1919610743,
				"element": "H" 
			},
			{
				"x": 1.6555868674,
				"y": -1.8970262467,
				"z": 0.3517537981,
				"element": "H" 
			},
			{
				"x": 2.468727973,
				"y": -1.0696722219,
				"z": -3.2176871762,
				"element": "H" 
			},
			{
				"x": 0.8646194365,
				"y": -1.5823500705,
				"z": -2.6481704,
				"element": "H" 
			},
			{
				"x": 2.3263529008,
				"y": -2.3926684936,
				"z": -2.0432396683,
				"element": "H" 
			},
			{
				"x": 4.0119898939,
				"y": 1.1918777863,
				"z": 0.6019343196,
				"element": "H" 
			},
			{
				"x": 2.1607050827,
				"y": 2.8452001416,
				"z": -0.4817298317,
				"element": "H" 
			},
			{
				"x": 0.7850674317,
				"y": 1.3031880238,
				"z": -2.2077036847,
				"element": "H" 
			},
			{
				"x": 0.1540699055,
				"y": 1.5412227244,
				"z": 3.3417454222,
				"element": "H" 
			},
			{
				"x": 0.3248237328,
				"y": -0.2219773952,
				"z": 3.1297906884,
				"element": "H" 
			},
			{
				"x": 1.6542095657,
				"y": 0.7239719814,
				"z": 3.8593562221,
				"element": "H" 
			},
			{
				"x": 3.4972809986,
				"y": -2.3639898357,
				"z": 1.183194003,
				"element": "H" 
			},
			{
				"x": 4.6986881605,
				"y": -1.0621335736,
				"z": 1.2819872009,
				"element": "H" 
			},
			{
				"x": 4.2303184142,
				"y": -1.9569206011,
				"z": 2.752767914,
				"element": "H" 
			}
		],
		 "valence_orbital": [ 
			{
				"type": "occ",
				"energy": -0.28854,
				"method": "rhf"
			},
			{
				"type": "occ",
				"energy": -0.26881,
				"method": "rhf"
			},
			{
				"type": "occ",
				"energy": -0.26671,
				"method": "rhf"
			},
			{
				"type": "occ",
				"energy": -0.24846,
				"method": "rhf"
			},
			{
				"type": "occ",
				"energy": -0.22751,
				"method": "rhf"
			},
			{
				"type": "unocc",
				"energy": 0.00781,
				"method": "rhf"
			},
			{
				"type": "unocc",
				"energy": 0.01181,
				"method": "rhf"
			},
			{
				"type": "unocc",
				"energy": 0.08264,
				"method": "rhf"
			},
			{
				"type": "unocc",
				"energy": 0.10298,
				"method": "rhf"
			},
			{
				"type": "unocc",
				"energy": 0.11008,
				"method": "rhf"
			}
		],
		"cosmo_sigma_profile": { 
			"-0.025": 0.0,
			"-0.024": 0.0,
			"-0.023": 0.0,
			"-0.022": 0.0,
			"-0.021": 0.0,
			"-0.02": 0.0,
			"-0.019": 0.0,
			"-0.018": 0.0,
			"-0.017": 0.0,
			"-0.016": 0.0,
			"-0.015": 0.0,
			"-0.014": 0.0,
			"-0.013": 0.0,
			"-0.012": 0.0,
			"-0.011": 0.0,
			"-0.01": 0.0,
			"-0.009": 0.0,
			"-0.008": 0.0307362016164,
			"-0.007": 4.93256341094,
			"-0.006": 11.8415108343,
			"-0.005": 19.9661521176,
			"-0.004": 28.704942445,
			"-0.003": 30.4411846435,
			"-0.002": 30.8715172481,
			"-0.001": 22.7000054903,
			"0.0": 16.3493480465,
			"0.001": 11.6772441081,
			"0.002": 10.726074517,
			"0.003": 9.78630967082,
			"0.004": 8.9442771988,
			"0.005": 8.07626531989,
			"0.006": 9.36814681726,
			"0.007": 7.18890104988,
			"0.008": 6.10128752848,
			"0.009": 5.43998508772,
			"0.01": 4.56695122725,
			"0.011": 4.42909108991,
			"0.012": 4.10594459635,
			"0.013": 1.08895983068,
			"0.014": 0.0,
			"0.015": 0.0,
			"0.016": 0.0,
			"0.017": 0.0,
			"0.018": 0.0,
			"0.019": 0.0,
			"0.02": 0.0,
			"0.021": 0.0,
			"0.022": 0.0,
			"0.023": 0.0,
			"0.024": 0.0,
			"0.025": 0.0
		}
	}
}
