{
	 "smiles": "BrC1=C2NC(=O)C(=O)C2=C(Br)C=C1", 
	 "Tm": 545.15, 
	 "num_atms": 16, 
	 "gaussian": { 
		 "optdone": 1, 
		 "sigma_profile": "yes", 
		 "theory": "DFT", 
		 "functional": "B3LYP", 
		 "basiset": "6-31G**", 
		 "properties": { 
			 "R2extent": 4697.841, 
			 "electric_dipole_moment_norm": 5.24490327175, 
			 "electric_quadrupole_moment_norm": 14.3161561039, 
			 "total_energy": -5654.66099342, 
			 "HOMO_LUMO_gap": 0.13885, 
			 "cosmo_polarized_energy": -13.91, 
			 "cosmo_cavitation_energy": 26.24, 
			 "cosmo_dispersion_energy": -20.12, 
			 "cosmo_repulsion_energy": 1.58, 
			 "cosmo_total_nonelectrostatic_energy": 7.7, 
			 "SMD_solvation_energy": 3.54 
		},
		"coords": [
			{
				"x": -2.0033590685,
				"y": 2.0619181171,
				"z": -1.8254375675,
				"element": "Br" 
			},
			{
				"x": -0.9645137069,
				"y": 0.6991732715,
				"z": -0.9972336221,
				"element": "C" 
			},
			{
				"x": -0.5322743479,
				"y": 0.8498413844,
				"z": 0.3132289675,
				"element": "C" 
			},
			{
				"x": -0.7553240721,
				"y": 1.9174706854,
				"z": 1.1787529772,
				"element": "N" 
			},
			{
				"x": -0.1655119006,
				"y": 1.7154800283,
				"z": 2.4187002608,
				"element": "C" 
			},
			{
				"x": -0.1862872928,
				"y": 2.4605768644,
				"z": 3.3691185431,
				"element": "O" 
			},
			{
				"x": 0.529326224,
				"y": 0.3136712232,
				"z": 2.3128461493,
				"element": "C" 
			},
			{
				"x": 1.1510885799,
				"y": -0.204755256,
				"z": 3.2100587991,
				"element": "O" 
			},
			{
				"x": 0.2400400665,
				"y": -0.1557631504,
				"z": 0.9392751215,
				"element": "C" 
			},
			{
				"x": 0.5737727722,
				"y": -1.3119536429,
				"z": 0.2387083794,
				"element": "C" 
			},
			{
				"x": 1.60602117,
				"y": -2.679313825,
				"z": 1.0440844989,
				"element": "Br" 
			},
			{
				"x": 0.1403365428,
				"y": -1.4681061171,
				"z": -1.0820829371,
				"element": "C" 
			},
			{
				"x": -0.6210253395,
				"y": -0.4677957835,
				"z": -1.6872159086,
				"element": "C" 
			},
			{
				"x": -1.2850527149,
				"y": 2.7412124298,
				"z": 0.9300673065,
				"element": "H" 
			},
			{
				"x": 0.3958998315,
				"y": -2.3647176472,
				"z": -1.6335622829,
				"element": "H" 
			},
			{
				"x": -0.9547367439,
				"y": -0.5935385817,
				"z": -2.7114086852,
				"element": "H" 
			}
		],
		 "valence_orbital": [ 
			{
				"type": "occ",
				"energy": -0.31143,
				"method": "rhf"
			},
			{
				"type": "occ",
				"energy": -0.30169,
				"method": "rhf"
			},
			{
				"type": "occ",
				"energy": -0.27363,
				"method": "rhf"
			},
			{
				"type": "occ",
				"energy": -0.25828,
				"method": "rhf"
			},
			{
				"type": "occ",
				"energy": -0.25064,
				"method": "rhf"
			},
			{
				"type": "unocc",
				"energy": -0.11179,
				"method": "rhf"
			},
			{
				"type": "unocc",
				"energy": -0.04328,
				"method": "rhf"
			},
			{
				"type": "unocc",
				"energy": -0.02226,
				"method": "rhf"
			},
			{
				"type": "unocc",
				"energy": -0.01262,
				"method": "rhf"
			},
			{
				"type": "unocc",
				"energy": -0.00693,
				"method": "rhf"
			}
		],
		"cosmo_sigma_profile": { 
			"-0.025": 0.0,
			"-0.024": 0.0,
			"-0.023": 0.0,
			"-0.022": 0.0,
			"-0.021": 0.0,
			"-0.02": 0.0,
			"-0.019": 0.0,
			"-0.018": 0.0,
			"-0.017": 0.108172759734,
			"-0.016": 0.780122095108,
			"-0.015": 0.550543782749,
			"-0.014": 0.970040178017,
			"-0.013": 0.867179343122,
			"-0.012": 0.727456190994,
			"-0.011": 0.686907462017,
			"-0.01": 1.32569925828,
			"-0.009": 3.56935483706,
			"-0.008": 7.0689524772,
			"-0.007": 8.23695823155,
			"-0.006": 6.99891845032,
			"-0.005": 9.48311419386,
			"-0.004": 11.2607882622,
			"-0.003": 14.8619631621,
			"-0.002": 17.1119491467,
			"-0.001": 20.6288097462,
			"0.0": 20.9310271332,
			"0.001": 15.6687819308,
			"0.002": 14.2433801964,
			"0.003": 17.559589202,
			"0.004": 8.10550572267,
			"0.005": 2.67566004264,
			"0.006": 3.18753840083,
			"0.007": 3.9051522775,
			"0.008": 4.81761308988,
			"0.009": 6.7171365325,
			"0.01": 9.25862931779,
			"0.011": 5.81673649757,
			"0.012": 0.932999056835,
			"0.013": 0.0,
			"0.014": 0.0,
			"0.015": 0.0,
			"0.016": 0.0,
			"0.017": 0.0,
			"0.018": 0.0,
			"0.019": 0.0,
			"0.02": 0.0,
			"0.021": 0.0,
			"0.022": 0.0,
			"0.023": 0.0,
			"0.024": 0.0,
			"0.025": 0.0
		}
	}
}
