{
	 "smiles": "FC1=CC=C(C=C1)N1C(=O)C=CC1=O", 
	 "Tm": 434.15, 
	 "num_atms": 20, 
	 "gaussian": { 
		 "optdone": 1, 
		 "sigma_profile": "yes", 
		 "theory": "DFT", 
		 "functional": "B3LYP", 
		 "basiset": "6-31G**", 
		 "properties": { 
			 "R2extent": 3267.7949, 
			 "electric_dipole_moment_norm": 3.0634780528, 
			 "electric_quadrupole_moment_norm": 5.38794534493, 
			 "total_energy": -689.70677008, 
			 "HOMO_LUMO_gap": 0.12295, 
			 "cosmo_polarized_energy": -8.63, 
			 "cosmo_cavitation_energy": 25.51, 
			 "cosmo_dispersion_energy": -18.88, 
			 "cosmo_repulsion_energy": 1.41, 
			 "cosmo_total_nonelectrostatic_energy": 8.05, 
			 "SMD_solvation_energy": 6.45 
		},
		"coords": [
			{
				"x": -3.9157627422,
				"y": 3.4943761942,
				"z": 1.262222278,
				"element": "F" 
			},
			{
				"x": -2.9608080826,
				"y": 2.5857109376,
				"z": 0.9734697675,
				"element": "C" 
			},
			{
				"x": -2.3343214536,
				"y": 2.6250792743,
				"z": -0.2640998131,
				"element": "C" 
			},
			{
				"x": -1.3477612431,
				"y": 1.6880475812,
				"z": -0.5651757694,
				"element": "C" 
			},
			{
				"x": -0.9884188063,
				"y": 0.7090116833,
				"z": 0.3771066345,
				"element": "C" 
			},
			{
				"x": -1.6367017195,
				"y": 0.6886999483,
				"z": 1.6240455901,
				"element": "C" 
			},
			{
				"x": -2.6225220918,
				"y": 1.6283513447,
				"z": 1.9193307686,
				"element": "C" 
			},
			{
				"x": 0.0295059627,
				"y": -0.2594544441,
				"z": 0.0693083411,
				"element": "N" 
			},
			{
				"x": 0.4794865147,
				"y": -1.2954028541,
				"z": 0.9280021835,
				"element": "C" 
			},
			{
				"x": 0.0940938768,
				"y": -1.5440121641,
				"z": 2.0513887991,
				"element": "O" 
			},
			{
				"x": 1.5402481513,
				"y": -2.0489488916,
				"z": 0.1888201892,
				"element": "C" 
			},
			{
				"x": 1.7012721448,
				"y": -1.4977799339,
				"z": -1.0126626037,
				"element": "C" 
			},
			{
				"x": 0.7574171606,
				"y": -0.3441185245,
				"z": -1.1455849144,
				"element": "C" 
			},
			{
				"x": 0.6534015476,
				"y": 0.3701618812,
				"z": -2.1209393629,
				"element": "O" 
			},
			{
				"x": -2.6162673744,
				"y": 3.3831432151,
				"z": -0.9866768378,
				"element": "H" 
			},
			{
				"x": -0.8611387105,
				"y": 1.7194593255,
				"z": -1.5276717079,
				"element": "H" 
			},
			{
				"x": -1.3743646712,
				"y": -0.055337578,
				"z": 2.360096819,
				"element": "H" 
			},
			{
				"x": -3.1266137084,
				"y": 1.618196481,
				"z": 2.8795732364,
				"element": "H" 
			},
			{
				"x": 2.0410122271,
				"y": -2.8943587364,
				"z": 0.64125779,
				"element": "H" 
			},
			{
				"x": 2.3707430182,
				"y": -1.7657247396,
				"z": -1.8190113877,
				"element": "H" 
			}
		],
		 "valence_orbital": [ 
			{
				"type": "occ",
				"energy": -0.31814,
				"method": "rhf"
			},
			{
				"type": "occ",
				"energy": -0.304,
				"method": "rhf"
			},
			{
				"type": "occ",
				"energy": -0.27964,
				"method": "rhf"
			},
			{
				"type": "occ",
				"energy": -0.2616,
				"method": "rhf"
			},
			{
				"type": "occ",
				"energy": -0.23031,
				"method": "rhf"
			},
			{
				"type": "unocc",
				"energy": -0.10736,
				"method": "rhf"
			},
			{
				"type": "unocc",
				"energy": -0.01197,
				"method": "rhf"
			},
			{
				"type": "unocc",
				"energy": -0.01176,
				"method": "rhf"
			},
			{
				"type": "unocc",
				"energy": 0.055,
				"method": "rhf"
			},
			{
				"type": "unocc",
				"energy": 0.06041,
				"method": "rhf"
			}
		],
		"cosmo_sigma_profile": { 
			"-0.025": 0.0,
			"-0.024": 0.0,
			"-0.023": 0.0,
			"-0.022": 0.0,
			"-0.021": 0.0,
			"-0.02": 0.0,
			"-0.019": 0.0,
			"-0.018": 0.0,
			"-0.017": 0.0,
			"-0.016": 0.0,
			"-0.015": 0.0,
			"-0.014": 0.0,
			"-0.013": 0.0,
			"-0.012": 0.0,
			"-0.011": 0.0412205988452,
			"-0.01": 2.7256684088,
			"-0.009": 3.74322827096,
			"-0.008": 3.56120863807,
			"-0.007": 7.85456819512,
			"-0.006": 10.5953080785,
			"-0.005": 12.2318768957,
			"-0.004": 12.8221533747,
			"-0.003": 13.8370311569,
			"-0.002": 13.6327777993,
			"-0.001": 12.6886711723,
			"0.0": 14.5079373893,
			"0.001": 18.186066728,
			"0.002": 15.6076303169,
			"0.003": 19.1319263499,
			"0.004": 17.2644497407,
			"0.005": 5.6320024978,
			"0.006": 3.30838583797,
			"0.007": 4.0828900485,
			"0.008": 3.05917410771,
			"0.009": 4.9898722666,
			"0.01": 5.12606387125,
			"0.011": 2.55706478031,
			"0.012": 0.0569639179853,
			"0.013": 0.0,
			"0.014": 0.0,
			"0.015": 0.0,
			"0.016": 0.0,
			"0.017": 0.0,
			"0.018": 0.0,
			"0.019": 0.0,
			"0.02": 0.0,
			"0.021": 0.0,
			"0.022": 0.0,
			"0.023": 0.0,
			"0.024": 0.0,
			"0.025": 0.0
		}
	}
}
