{
	 "smiles": "CS(=O)(=O)C1=CC=C(C=C1)C1=CSC(N)=N1", 
	 "Tm": 534.15, 
	 "num_atms": 26, 
	 "gaussian": { 
		 "optdone": 1, 
		 "sigma_profile": "yes", 
		 "theory": "DFT", 
		 "functional": "B3LYP", 
		 "basiset": "6-31G**", 
		 "properties": { 
			 "R2extent": 7110.0225, 
			 "electric_dipole_moment_norm": 7.59917677778, 
			 "electric_quadrupole_moment_norm": 16.3524247725, 
			 "total_energy": -1443.35516052, 
			 "HOMO_LUMO_gap": 0.16072, 
			 "cosmo_polarized_energy": -21.74, 
			 "cosmo_cavitation_energy": 33.64, 
			 "cosmo_dispersion_energy": -25.65, 
			 "cosmo_repulsion_energy": 1.89, 
			 "cosmo_total_nonelectrostatic_energy": 9.88, 
			 "SMD_solvation_energy": 4.09 
		},
		"coords": [
			{
				"x": -4.8079593177,
				"y": -0.972584112,
				"z": 0.7785852232,
				"element": "C" 
			},
			{
				"x": -4.3537656117,
				"y": 0.629051208,
				"z": 0.0680526929,
				"element": "S" 
			},
			{
				"x": -4.9723171879,
				"y": 1.6698865451,
				"z": 0.9049306049,
				"element": "O" 
			},
			{
				"x": -4.6186374643,
				"y": 0.5566478736,
				"z": -1.3776282709,
				"element": "O" 
			},
			{
				"x": -2.5748904892,
				"y": 0.7093172121,
				"z": 0.3060255723,
				"element": "C" 
			},
			{
				"x": -1.7235692404,
				"y": 0.2026050858,
				"z": -0.6771525787,
				"element": "C" 
			},
			{
				"x": -0.3465603724,
				"y": 0.2574836116,
				"z": -0.4814358679,
				"element": "C" 
			},
			{
				"x": 0.1934862077,
				"y": 0.8206218376,
				"z": 0.6884337867,
				"element": "C" 
			},
			{
				"x": -0.6865783207,
				"y": 1.3359623983,
				"z": 1.6576987162,
				"element": "C" 
			},
			{
				"x": -2.0634053433,
				"y": 1.2849578245,
				"z": 1.4720929591,
				"element": "C" 
			},
			{
				"x": 1.6570616889,
				"y": 0.8642668714,
				"z": 0.8634990001,
				"element": "C" 
			},
			{
				"x": 2.330197092,
				"y": 1.411969184,
				"z": 1.9226890891,
				"element": "C" 
			},
			{
				"x": 4.0509295493,
				"y": 1.2477494017,
				"z": 1.7063967553,
				"element": "S" 
			},
			{
				"x": 3.7210234938,
				"y": 0.4173914048,
				"z": 0.1763913803,
				"element": "C" 
			},
			{
				"x": 4.745740213,
				"y": 0.0123098771,
				"z": -0.6438705391,
				"element": "N" 
			},
			{
				"x": 2.4613062893,
				"y": 0.2986994517,
				"z": -0.116868477,
				"element": "N" 
			},
			{
				"x": -4.5431420274,
				"y": -0.9845680304,
				"z": 1.8367162383,
				"element": "H" 
			},
			{
				"x": -5.8890623017,
				"y": -1.0656823908,
				"z": 0.6558059948,
				"element": "H" 
			},
			{
				"x": -4.2938372472,
				"y": -1.7659693221,
				"z": 0.2344449737,
				"element": "H" 
			},
			{
				"x": -2.140055233,
				"y": -0.2090309684,
				"z": -1.5906111317,
				"element": "H" 
			},
			{
				"x": 0.3327911893,
				"y": -0.1268066221,
				"z": -1.2329941399,
				"element": "H" 
			},
			{
				"x": -0.296654484,
				"y": 1.7873076196,
				"z": 2.5643192238,
				"element": "H" 
			},
			{
				"x": -2.7417050509,
				"y": 1.7026877557,
				"z": 2.208506974,
				"element": "H" 
			},
			{
				"x": 1.9413585069,
				"y": 1.8969095636,
				"z": 2.804987256,
				"element": "H" 
			},
			{
				"x": 4.444500734,
				"y": -0.6031020783,
				"z": -1.3878521438,
				"element": "H" 
			},
			{
				"x": 5.6129447279,
				"y": -0.2596812022,
				"z": -0.2043632917,
				"element": "H" 
			}
		],
		 "valence_orbital": [ 
			{
				"type": "occ",
				"energy": -0.28626,
				"method": "rhf"
			},
			{
				"type": "occ",
				"energy": -0.28045,
				"method": "rhf"
			},
			{
				"type": "occ",
				"energy": -0.26891,
				"method": "rhf"
			},
			{
				"type": "occ",
				"energy": -0.26371,
				"method": "rhf"
			},
			{
				"type": "occ",
				"energy": -0.21583,
				"method": "rhf"
			},
			{
				"type": "unocc",
				"energy": -0.05511,
				"method": "rhf"
			},
			{
				"type": "unocc",
				"energy": -0.01852,
				"method": "rhf"
			},
			{
				"type": "unocc",
				"energy": -0.00395,
				"method": "rhf"
			},
			{
				"type": "unocc",
				"energy": 0.00161,
				"method": "rhf"
			},
			{
				"type": "unocc",
				"energy": 0.05285,
				"method": "rhf"
			}
		],
		"cosmo_sigma_profile": { 
			"-0.025": 0.0,
			"-0.024": 0.0,
			"-0.023": 0.0,
			"-0.022": 0.0,
			"-0.021": 0.0,
			"-0.02": 0.0,
			"-0.019": 0.0,
			"-0.018": 0.0,
			"-0.017": 0.0,
			"-0.016": 0.0,
			"-0.015": 0.480135601438,
			"-0.014": 2.51964769254,
			"-0.013": 2.17951053735,
			"-0.012": 2.93998952908,
			"-0.011": 2.9240622443,
			"-0.01": 3.9846014933,
			"-0.009": 5.16791363211,
			"-0.008": 10.6283121659,
			"-0.007": 11.6459376075,
			"-0.006": 15.2412586638,
			"-0.005": 15.6199838137,
			"-0.004": 14.1642936463,
			"-0.003": 13.651930725,
			"-0.002": 10.2297066328,
			"-0.001": 11.1974167284,
			"0.0": 11.5309275897,
			"0.001": 18.1370318753,
			"0.002": 27.6485825556,
			"0.003": 27.3548575254,
			"0.004": 11.1987967989,
			"0.005": 6.01686648835,
			"0.006": 5.1472659201,
			"0.007": 4.71885902067,
			"0.008": 5.12229048387,
			"0.009": 5.09247506316,
			"0.01": 5.83305728113,
			"0.011": 10.1701241715,
			"0.012": 9.41202483073,
			"0.013": 1.62382272805,
			"0.014": 0.0,
			"0.015": 0.0,
			"0.016": 0.0,
			"0.017": 0.0,
			"0.018": 0.0,
			"0.019": 0.0,
			"0.02": 0.0,
			"0.021": 0.0,
			"0.022": 0.0,
			"0.023": 0.0,
			"0.024": 0.0,
			"0.025": 0.0
		}
	}
}
