{
	 "smiles": "COC1=CC=C(O)C(=C1)C(O)=O", 
	 "Tm": 416.15, 
	 "num_atms": 20, 
	 "gaussian": { 
		 "optdone": 1, 
		 "sigma_profile": "yes", 
		 "theory": "DFT", 
		 "functional": "B3LYP", 
		 "basiset": "6-31G**", 
		 "properties": { 
			 "R2extent": 2517.853, 
			 "electric_dipole_moment_norm": 1.5547994726, 
			 "electric_quadrupole_moment_norm": 15.6851934779, 
			 "total_energy": -610.572405187, 
			 "HOMO_LUMO_gap": 0.15752, 
			 "cosmo_polarized_energy": -12.28, 
			 "cosmo_cavitation_energy": 24.34, 
			 "cosmo_dispersion_energy": -18.47, 
			 "cosmo_repulsion_energy": 1.46, 
			 "cosmo_total_nonelectrostatic_energy": 7.33, 
			 "SMD_solvation_energy": 6.4 
		},
		"coords": [
			{
				"x": -2.8650881998,
				"y": 1.7316487361,
				"z": 2.0499986105,
				"element": "C" 
			},
			{
				"x": -2.1737698579,
				"y": 0.6365409056,
				"z": 1.4751129604,
				"element": "O" 
			},
			{
				"x": -0.8671153937,
				"y": 0.8185161417,
				"z": 1.1112591445,
				"element": "C" 
			},
			{
				"x": -0.1516155297,
				"y": 2.0174806996,
				"z": 1.2643344091,
				"element": "C" 
			},
			{
				"x": 1.17671268,
				"y": 2.096249182,
				"z": 0.8605857101,
				"element": "C" 
			},
			{
				"x": 1.8360332451,
				"y": 0.9978217705,
				"z": 0.2957257704,
				"element": "C" 
			},
			{
				"x": 3.1290850911,
				"y": 1.1853179293,
				"z": -0.0617591841,
				"element": "O" 
			},
			{
				"x": 1.1162046359,
				"y": -0.2141642332,
				"z": 0.1398297395,
				"element": "C" 
			},
			{
				"x": -0.224947195,
				"y": -0.2806208638,
				"z": 0.5516627675,
				"element": "C" 
			},
			{
				"x": 1.6764979539,
				"y": -1.453647994,
				"z": -0.4382730517,
				"element": "C" 
			},
			{
				"x": 2.9918422246,
				"y": -1.3323436513,
				"z": -0.8240050631,
				"element": "O" 
			},
			{
				"x": 1.0913464341,
				"y": -2.5050938873,
				"z": -0.5862798579,
				"element": "O" 
			},
			{
				"x": -2.9246145939,
				"y": 2.5845883333,
				"z": 1.3605226261,
				"element": "H" 
			},
			{
				"x": -3.8739298165,
				"y": 1.3740352975,
				"z": 2.2617861428,
				"element": "H" 
			},
			{
				"x": -2.3980993388,
				"y": 2.0628486204,
				"z": 2.9873620678,
				"element": "H" 
			},
			{
				"x": -0.6201348383,
				"y": 2.8940477486,
				"z": 1.6965380249,
				"element": "H" 
			},
			{
				"x": 1.7356391255,
				"y": 3.0188352056,
				"z": 0.9756937725,
				"element": "H" 
			},
			{
				"x": 3.474817666,
				"y": 0.3586872372,
				"z": -0.4382206802,
				"element": "H" 
			},
			{
				"x": -0.7637105597,
				"y": -1.2127599232,
				"z": 0.4270306552,
				"element": "H" 
			},
			{
				"x": 3.2515462672,
				"y": -2.1959872546,
				"z": -1.1846045643,
				"element": "H" 
			}
		],
		 "valence_orbital": [ 
			{
				"type": "occ",
				"energy": -0.32997,
				"method": "rhf"
			},
			{
				"type": "occ",
				"energy": -0.29837,
				"method": "rhf"
			},
			{
				"type": "occ",
				"energy": -0.28756,
				"method": "rhf"
			},
			{
				"type": "occ",
				"energy": -0.26307,
				"method": "rhf"
			},
			{
				"type": "occ",
				"energy": -0.20667,
				"method": "rhf"
			},
			{
				"type": "unocc",
				"energy": -0.04915,
				"method": "rhf"
			},
			{
				"type": "unocc",
				"energy": 0.01117,
				"method": "rhf"
			},
			{
				"type": "unocc",
				"energy": 0.05977,
				"method": "rhf"
			},
			{
				"type": "unocc",
				"energy": 0.06439,
				"method": "rhf"
			},
			{
				"type": "unocc",
				"energy": 0.09177,
				"method": "rhf"
			}
		],
		"cosmo_sigma_profile": { 
			"-0.025": 0.0,
			"-0.024": 0.0,
			"-0.023": 0.0,
			"-0.022": 0.0,
			"-0.021": 0.0,
			"-0.02": 0.0,
			"-0.019": 0.586723504543,
			"-0.018": 0.753794158488,
			"-0.017": 1.2435168969,
			"-0.016": 0.318878356127,
			"-0.015": 1.29546080496,
			"-0.014": 0.551441620736,
			"-0.013": 0.3736033174,
			"-0.012": 0.762416656664,
			"-0.011": 0.866817693081,
			"-0.01": 0.892869637122,
			"-0.009": 0.659259483735,
			"-0.008": 1.78499042442,
			"-0.007": 5.07518594649,
			"-0.006": 9.51483365482,
			"-0.005": 14.8791093688,
			"-0.004": 15.5627336872,
			"-0.003": 17.1159115273,
			"-0.002": 11.4340056742,
			"-0.001": 10.6139525074,
			"0.0": 9.54900163657,
			"0.001": 10.9112302707,
			"0.002": 15.7275673646,
			"0.003": 18.5969047112,
			"0.004": 8.24370734231,
			"0.005": 5.19272610247,
			"0.006": 4.89965648272,
			"0.007": 3.97258408626,
			"0.008": 3.05633781695,
			"0.009": 4.55802520921,
			"0.01": 5.84161309184,
			"0.011": 7.21974222829,
			"0.012": 1.95191705246,
			"0.013": 0.0,
			"0.014": 0.0,
			"0.015": 0.0,
			"0.016": 0.0,
			"0.017": 0.0,
			"0.018": 0.0,
			"0.019": 0.0,
			"0.02": 0.0,
			"0.021": 0.0,
			"0.022": 0.0,
			"0.023": 0.0,
			"0.024": 0.0,
			"0.025": 0.0
		}
	}
}
