{
	 "smiles": "CN1N=C(CCl)C=C1C1=CC=CC=C1", 
	 "Tm": 333.15, 
	 "num_atms": 25, 
	 "gaussian": { 
		 "optdone": 1, 
		 "sigma_profile": "yes", 
		 "theory": "DFT", 
		 "functional": "B3LYP", 
		 "basiset": "6-31G**", 
		 "properties": { 
			 "R2extent": 6599.0981, 
			 "electric_dipole_moment_norm": 4.39981797123, 
			 "electric_quadrupole_moment_norm": 17.8907896491, 
			 "total_energy": -995.487082659, 
			 "HOMO_LUMO_gap": 0.19977, 
			 "cosmo_polarized_energy": -10.05, 
			 "cosmo_cavitation_energy": 30.74, 
			 "cosmo_dispersion_energy": -22.22, 
			 "cosmo_repulsion_energy": 1.77, 
			 "cosmo_total_nonelectrostatic_energy": 10.3, 
			 "SMD_solvation_energy": 3.74 
		},
		"coords": [
			{
				"x": -2.1095282854,
				"y": -1.3086208238,
				"z": -0.6237142795,
				"element": "C" 
			},
			{
				"x": -1.9378000286,
				"y": -1.6980390101,
				"z": 0.7663721354,
				"element": "N" 
			},
			{
				"x": -2.9379442183,
				"y": -2.3716846252,
				"z": 1.3680715864,
				"element": "N" 
			},
			{
				"x": -2.5326772516,
				"y": -2.5523212513,
				"z": 2.6286692999,
				"element": "C" 
			},
			{
				"x": -3.4063267346,
				"y": -3.2901473746,
				"z": 3.5780776549,
				"element": "C" 
			},
			{
				"x": -4.1917621667,
				"y": -2.1895479003,
				"z": 4.824552053,
				"element": "Cl" 
			},
			{
				"x": -1.2612108938,
				"y": -1.9810420658,
				"z": 2.8429836942,
				"element": "C" 
			},
			{
				"x": -0.8937627308,
				"y": -1.4352117292,
				"z": 1.6208351349,
				"element": "C" 
			},
			{
				"x": 0.3356619699,
				"y": -0.7126537164,
				"z": 1.2551735391,
				"element": "C" 
			},
			{
				"x": 1.0310499685,
				"y": -0.9717268441,
				"z": 0.0613239343,
				"element": "C" 
			},
			{
				"x": 2.2080994811,
				"y": -0.2864658335,
				"z": -0.2388292563,
				"element": "C" 
			},
			{
				"x": 2.7174247888,
				"y": 0.6606865279,
				"z": 0.6509957829,
				"element": "C" 
			},
			{
				"x": 2.0416595583,
				"y": 0.9183952568,
				"z": 1.8458969793,
				"element": "C" 
			},
			{
				"x": 0.8609982489,
				"y": 0.2413829803,
				"z": 2.1444674124,
				"element": "C" 
			},
			{
				"x": -1.7546213793,
				"y": -2.0892128976,
				"z": -1.3051362719,
				"element": "H" 
			},
			{
				"x": -1.5611375582,
				"y": -0.386210569,
				"z": -0.8185536661,
				"element": "H" 
			},
			{
				"x": -3.1743432391,
				"y": -1.148769397,
				"z": -0.793911068,
				"element": "H" 
			},
			{
				"x": -2.8548616967,
				"y": -4.0262572742,
				"z": 4.1631749038,
				"element": "H" 
			},
			{
				"x": -4.2228379522,
				"y": -3.7724728414,
				"z": 3.0428878593,
				"element": "H" 
			},
			{
				"x": -0.6776088048,
				"y": -1.9762528851,
				"z": 3.7514892463,
				"element": "H" 
			},
			{
				"x": 0.6657312679,
				"y": -1.7319514603,
				"z": -0.6219888294,
				"element": "H" 
			},
			{
				"x": 2.7337594342,
				"y": -0.502520516,
				"z": -1.1645012079,
				"element": "H" 
			},
			{
				"x": 3.6351584591,
				"y": 1.1919528787,
				"z": 0.4166277074,
				"element": "H" 
			},
			{
				"x": 2.430112307,
				"y": 1.6545898475,
				"z": 2.5436606714,
				"element": "H" 
			},
			{
				"x": 0.3260674566,
				"y": 0.4570015238,
				"z": 3.0642749844,
				"element": "H" 
			}
		],
		 "valence_orbital": [ 
			{
				"type": "occ",
				"energy": -0.28453,
				"method": "rhf"
			},
			{
				"type": "occ",
				"energy": -0.27831,
				"method": "rhf"
			},
			{
				"type": "occ",
				"energy": -0.26215,
				"method": "rhf"
			},
			{
				"type": "occ",
				"energy": -0.24618,
				"method": "rhf"
			},
			{
				"type": "occ",
				"energy": -0.23001,
				"method": "rhf"
			},
			{
				"type": "unocc",
				"energy": -0.03024,
				"method": "rhf"
			},
			{
				"type": "unocc",
				"energy": -0.01326,
				"method": "rhf"
			},
			{
				"type": "unocc",
				"energy": 0.00085,
				"method": "rhf"
			},
			{
				"type": "unocc",
				"energy": 0.04388,
				"method": "rhf"
			},
			{
				"type": "unocc",
				"energy": 0.07629,
				"method": "rhf"
			}
		],
		"cosmo_sigma_profile": { 
			"-0.025": 0.0,
			"-0.024": 0.0,
			"-0.023": 0.0,
			"-0.022": 0.0,
			"-0.021": 0.0,
			"-0.02": 0.0,
			"-0.019": 0.0,
			"-0.018": 0.0,
			"-0.017": 0.0,
			"-0.016": 0.0,
			"-0.015": 0.0,
			"-0.014": 0.0,
			"-0.013": 0.0,
			"-0.012": 0.0,
			"-0.011": 0.0,
			"-0.01": 0.0,
			"-0.009": 0.0,
			"-0.008": 1.17504606761,
			"-0.007": 6.8752755738,
			"-0.006": 20.0660761784,
			"-0.005": 20.3851921566,
			"-0.004": 26.4216070994,
			"-0.003": 21.2420576026,
			"-0.002": 14.7639766205,
			"-0.001": 12.054381644,
			"0.0": 11.3031225019,
			"0.001": 14.0068045117,
			"0.002": 15.4629754843,
			"0.003": 16.8454578144,
			"0.004": 19.3134475819,
			"0.005": 18.8990536836,
			"0.006": 10.9497738002,
			"0.007": 10.3818301429,
			"0.008": 0.960011243914,
			"0.009": 1.58595818591,
			"0.01": 1.25541264676,
			"0.011": 0.817644167425,
			"0.012": 0.875575865008,
			"0.013": 0.917386378406,
			"0.014": 0.621376789263,
			"0.015": 0.58500285944,
			"0.016": 0.0,
			"0.017": 0.0,
			"0.018": 0.0,
			"0.019": 0.0,
			"0.02": 0.0,
			"0.021": 0.0,
			"0.022": 0.0,
			"0.023": 0.0,
			"0.024": 0.0,
			"0.025": 0.0
		}
	}
}
