{
	 "smiles": "COC(=O)C1=C(C=CS1)S(=O)(=O)NC(=O)NC1=NC(OC)=NC(C)=N1", 
	 "Tm": 449.15, 
	 "num_atms": 38, 
	 "gaussian": { 
		 "optdone": 1, 
		 "sigma_profile": "yes", 
		 "theory": "DFT", 
		 "functional": "B3LYP", 
		 "basiset": "6-31G**", 
		 "properties": { 
			 "R2extent": 11557.4086, 
			 "electric_dipole_moment_norm": 4.44151304175, 
			 "electric_quadrupole_moment_norm": 37.0511643441, 
			 "total_energy": -1986.52847572, 
			 "HOMO_LUMO_gap": 0.18707, 
			 "cosmo_polarized_energy": -27.51, 
			 "cosmo_cavitation_energy": 46.33, 
			 "cosmo_dispersion_energy": -32.24, 
			 "cosmo_repulsion_energy": 2.38, 
			 "cosmo_total_nonelectrostatic_energy": 16.47, 
			 "SMD_solvation_energy": 7.95 
		},
		"coords": [
			{
				"x": 2.7326138048,
				"y": -1.057264449,
				"z": 4.8996815083,
				"element": "C" 
			},
			{
				"x": 1.5239608371,
				"y": -0.6252870509,
				"z": 4.2491401592,
				"element": "O" 
			},
			{
				"x": 1.6780914937,
				"y": 0.3771586049,
				"z": 3.3565375855,
				"element": "C" 
			},
			{
				"x": 2.7385679222,
				"y": 0.8979641334,
				"z": 3.0884972927,
				"element": "O" 
			},
			{
				"x": 0.3845520749,
				"y": 0.7542618316,
				"z": 2.7523730838,
				"element": "C" 
			},
			{
				"x": 0.1340159242,
				"y": 1.7219930918,
				"z": 1.7966260352,
				"element": "C" 
			},
			{
				"x": -1.2444999064,
				"y": 1.8413244638,
				"z": 1.4622668991,
				"element": "C" 
			},
			{
				"x": -2.0220788976,
				"y": 0.964512975,
				"z": 2.1704850543,
				"element": "C" 
			},
			{
				"x": -1.0957870507,
				"y": -0.0211282547,
				"z": 3.2390767829,
				"element": "S" 
			},
			{
				"x": 1.3950501549,
				"y": 2.8367656064,
				"z": 1.1519632442,
				"element": "S" 
			},
			{
				"x": 1.760235538,
				"y": 3.7366741004,
				"z": 2.2426537478,
				"element": "O" 
			},
			{
				"x": 2.3835929811,
				"y": 2.1417582907,
				"z": 0.3430678229,
				"element": "O" 
			},
			{
				"x": 0.4374354551,
				"y": 3.82848928,
				"z": 0.0974743598,
				"element": "N" 
			},
			{
				"x": 0.7613946163,
				"y": 4.21538255,
				"z": -1.215490809,
				"element": "C" 
			},
			{
				"x": 0.6675960203,
				"y": 5.3871926068,
				"z": -1.5366710788,
				"element": "O" 
			},
			{
				"x": 1.1860438096,
				"y": 3.2757098456,
				"z": -2.1438883499,
				"element": "N" 
			},
			{
				"x": 0.984677393,
				"y": 1.9173425833,
				"z": -2.3130738878,
				"element": "C" 
			},
			{
				"x": 1.6009279244,
				"y": 1.4292748296,
				"z": -3.4034911501,
				"element": "N" 
			},
			{
				"x": 1.3978659065,
				"y": 0.1283109704,
				"z": -3.5969034038,
				"element": "C" 
			},
			{
				"x": 1.9609467369,
				"y": -0.4736180585,
				"z": -4.6431612067,
				"element": "O" 
			},
			{
				"x": 2.7819136511,
				"y": 0.323706928,
				"z": -5.508494367,
				"element": "C" 
			},
			{
				"x": 0.6568513754,
				"y": -0.6803086763,
				"z": -2.8242167404,
				"element": "N" 
			},
			{
				"x": 0.0902469827,
				"y": -0.0755434153,
				"z": -1.7807648879,
				"element": "C" 
			},
			{
				"x": -0.7454954023,
				"y": -0.9226840582,
				"z": -0.8659800516,
				"element": "C" 
			},
			{
				"x": 0.2107880635,
				"y": 1.232713496,
				"z": -1.4751502115,
				"element": "N" 
			},
			{
				"x": 2.4302699106,
				"y": -1.8559687784,
				"z": 5.5759580702,
				"element": "H" 
			},
			{
				"x": 3.4509656291,
				"y": -1.4249810883,
				"z": 4.1632702152,
				"element": "H" 
			},
			{
				"x": 3.1828457963,
				"y": -0.2304928704,
				"z": 5.4539728964,
				"element": "H" 
			},
			{
				"x": -1.6166792799,
				"y": 2.5292414817,
				"z": 0.7175246243,
				"element": "H" 
			},
			{
				"x": -3.0947797459,
				"y": 0.8393157207,
				"z": 2.1095824614,
				"element": "H" 
			},
			{
				"x": 0.1993536598,
				"y": 4.6765965001,
				"z": 0.6084919355,
				"element": "H" 
			},
			{
				"x": 1.5998202751,
				"y": 3.7188774283,
				"z": -2.9545208214,
				"element": "H" 
			},
			{
				"x": 2.2008228093,
				"y": 1.1290791025,
				"z": -5.9651304005,
				"element": "H" 
			},
			{
				"x": 3.1426232928,
				"y": -0.3651050017,
				"z": -6.2722908978,
				"element": "H" 
			},
			{
				"x": 3.6202356773,
				"y": 0.7586712384,
				"z": -4.9586649672,
				"element": "H" 
			},
			{
				"x": -0.2328658001,
				"y": -1.0413713053,
				"z": 0.0948493387,
				"element": "H" 
			},
			{
				"x": -1.7020929487,
				"y": -0.4354658884,
				"z": -0.6621378462,
				"element": "H" 
			},
			{
				"x": -0.9060266844,
				"y": -1.9058987639,
				"z": -1.3081620394,
				"element": "H" 
			}
		],
		 "valence_orbital": [ 
			{
				"type": "occ",
				"energy": -0.28358,
				"method": "rhf"
			},
			{
				"type": "occ",
				"energy": -0.276,
				"method": "rhf"
			},
			{
				"type": "occ",
				"energy": -0.27182,
				"method": "rhf"
			},
			{
				"type": "occ",
				"energy": -0.26865,
				"method": "rhf"
			},
			{
				"type": "occ",
				"energy": -0.26724,
				"method": "rhf"
			},
			{
				"type": "unocc",
				"energy": -0.08017,
				"method": "rhf"
			},
			{
				"type": "unocc",
				"energy": -0.04218,
				"method": "rhf"
			},
			{
				"type": "unocc",
				"energy": -0.03133,
				"method": "rhf"
			},
			{
				"type": "unocc",
				"energy": -0.00724,
				"method": "rhf"
			},
			{
				"type": "unocc",
				"energy": 0.00683,
				"method": "rhf"
			}
		],
		"cosmo_sigma_profile": { 
			"-0.025": 0.0,
			"-0.024": 0.0,
			"-0.023": 0.0,
			"-0.022": 0.0,
			"-0.021": 0.0,
			"-0.02": 0.0,
			"-0.019": 0.0,
			"-0.018": 0.0,
			"-0.017": 0.0,
			"-0.016": 0.415985679645,
			"-0.015": 1.77105694377,
			"-0.014": 1.51688097034,
			"-0.013": 0.898425457343,
			"-0.012": 1.5339430152,
			"-0.011": 2.23148941819,
			"-0.01": 4.58664190383,
			"-0.009": 4.47121783258,
			"-0.008": 4.49997086354,
			"-0.007": 9.73106189686,
			"-0.006": 18.732702204,
			"-0.005": 25.6437344873,
			"-0.004": 36.0124659572,
			"-0.003": 35.7682347006,
			"-0.002": 29.3750052512,
			"-0.001": 27.1796272232,
			"0.0": 23.8588636373,
			"0.001": 21.109894524,
			"0.002": 14.5422120204,
			"0.003": 11.6679436222,
			"0.004": 10.8942387254,
			"0.005": 10.9699666193,
			"0.006": 8.60271189785,
			"0.007": 8.29054400661,
			"0.008": 8.25618997355,
			"0.009": 11.6403079031,
			"0.01": 13.819134837,
			"0.011": 16.351064952,
			"0.012": 5.44091246204,
			"0.013": 0.995766634408,
			"0.014": 1.06361077537,
			"0.015": 0.327607439636,
			"0.016": 0.0,
			"0.017": 0.0,
			"0.018": 0.0,
			"0.019": 0.0,
			"0.02": 0.0,
			"0.021": 0.0,
			"0.022": 0.0,
			"0.023": 0.0,
			"0.024": 0.0,
			"0.025": 0.0
		}
	}
}
