{
	 "smiles": "CN1CC(=O)NC2=C1C=CC(=C2)C(O)=O", 
	 "Tm": 596.15, 
	 "num_atms": 25, 
	 "gaussian": { 
		 "optdone": 1, 
		 "sigma_profile": "yes", 
		 "theory": "DFT", 
		 "functional": "B3LYP", 
		 "basiset": "6-31G**", 
		 "properties": { 
			 "R2extent": 4068.7416, 
			 "electric_dipole_moment_norm": 6.30495254542, 
			 "electric_quadrupole_moment_norm": 13.4713090136, 
			 "total_energy": -722.290745308, 
			 "HOMO_LUMO_gap": 0.16877, 
			 "cosmo_polarized_energy": -22.59, 
			 "cosmo_cavitation_energy": 28.85, 
			 "cosmo_dispersion_energy": -21.53, 
			 "cosmo_repulsion_energy": 1.65, 
			 "cosmo_total_nonelectrostatic_energy": 8.98, 
			 "SMD_solvation_energy": 5.65 
		},
		"coords": [
			{
				"x": 1.432054159,
				"y": 2.0445481081,
				"z": 1.4216826563,
				"element": "C" 
			},
			{
				"x": 0.1834085396,
				"y": 1.9119471559,
				"z": 0.6913527147,
				"element": "N" 
			},
			{
				"x": -0.9569765646,
				"y": 2.6232322545,
				"z": 1.2618114684,
				"element": "C" 
			},
			{
				"x": -2.1300313435,
				"y": 2.7391010226,
				"z": 0.295600828,
				"element": "C" 
			},
			{
				"x": -2.9489670938,
				"y": 3.6391104415,
				"z": 0.3672312279,
				"element": "O" 
			},
			{
				"x": -2.2099128981,
				"y": 1.7251251809,
				"z": -0.623570359,
				"element": "N" 
			},
			{
				"x": -1.3141011067,
				"y": 0.6481720858,
				"z": -0.7098420135,
				"element": "C" 
			},
			{
				"x": -0.0771007435,
				"y": 0.7472164678,
				"z": -0.0178366653,
				"element": "C" 
			},
			{
				"x": 0.8315069161,
				"y": -0.316079075,
				"z": -0.1404396473,
				"element": "C" 
			},
			{
				"x": 0.529371051,
				"y": -1.4303070886,
				"z": -0.9219154432,
				"element": "C" 
			},
			{
				"x": -0.6951961579,
				"y": -1.5262045656,
				"z": -1.5914715089,
				"element": "C" 
			},
			{
				"x": -1.6071274593,
				"y": -0.4651689069,
				"z": -1.4807084055,
				"element": "C" 
			},
			{
				"x": -1.0883422421,
				"y": -2.6788548267,
				"z": -2.4540158941,
				"element": "C" 
			},
			{
				"x": -0.3791517127,
				"y": -3.8321152712,
				"z": -2.3036467911,
				"element": "O" 
			},
			{
				"x": -1.9907217346,
				"y": -2.63169348,
				"z": -3.2593506995,
				"element": "O" 
			},
			{
				"x": 1.493842667,
				"y": 1.3775429226,
				"z": 2.2966679048,
				"element": "H" 
			},
			{
				"x": 2.2793746542,
				"y": 1.8346771725,
				"z": 0.7635275027,
				"element": "H" 
			},
			{
				"x": 1.5268221139,
				"y": 3.0757168549,
				"z": 1.7700657712,
				"element": "H" 
			},
			{
				"x": -0.6579261831,
				"y": 3.6419706484,
				"z": 1.5175783821,
				"element": "H" 
			},
			{
				"x": -1.328394136,
				"y": 2.1486022782,
				"z": 2.1889966518,
				"element": "H" 
			},
			{
				"x": -3.0199320101,
				"y": 1.7445550629,
				"z": -1.2305314636,
				"element": "H" 
			},
			{
				"x": 1.7859811678,
				"y": -0.272899594,
				"z": 0.3693564403,
				"element": "H" 
			},
			{
				"x": 1.2857664546,
				"y": -2.2048979389,
				"z": -1.0199727142,
				"element": "H" 
			},
			{
				"x": -2.5461652978,
				"y": -0.5330934993,
				"z": -2.021143532,
				"element": "H" 
			},
			{
				"x": 0.1831189606,
				"y": -3.7760034105,
				"z": -1.519126411,
				"element": "H" 
			}
		],
		 "valence_orbital": [ 
			{
				"type": "occ",
				"energy": -0.30435,
				"method": "rhf"
			},
			{
				"type": "occ",
				"energy": -0.27075,
				"method": "rhf"
			},
			{
				"type": "occ",
				"energy": -0.26941,
				"method": "rhf"
			},
			{
				"type": "occ",
				"energy": -0.24822,
				"method": "rhf"
			},
			{
				"type": "occ",
				"energy": -0.21345,
				"method": "rhf"
			},
			{
				"type": "unocc",
				"energy": -0.04468,
				"method": "rhf"
			},
			{
				"type": "unocc",
				"energy": -0.02567,
				"method": "rhf"
			},
			{
				"type": "unocc",
				"energy": 0.0144,
				"method": "rhf"
			},
			{
				"type": "unocc",
				"energy": 0.05673,
				"method": "rhf"
			},
			{
				"type": "unocc",
				"energy": 0.06377,
				"method": "rhf"
			}
		],
		"cosmo_sigma_profile": { 
			"-0.025": 0.0,
			"-0.024": 0.0,
			"-0.023": 0.0,
			"-0.022": 0.0,
			"-0.021": 0.0,
			"-0.02": 0.0,
			"-0.019": 0.0368906721928,
			"-0.018": 0.5962730434,
			"-0.017": 0.808602713562,
			"-0.016": 1.44990825753,
			"-0.015": 1.80898369454,
			"-0.014": 2.02381399633,
			"-0.013": 2.41916438367,
			"-0.012": 1.98713311271,
			"-0.011": 2.69679101475,
			"-0.01": 2.0957330469,
			"-0.009": 1.9776598994,
			"-0.008": 3.87363282508,
			"-0.007": 9.38121971135,
			"-0.006": 15.319740936,
			"-0.005": 13.5350166585,
			"-0.004": 18.751919304,
			"-0.003": 14.835986007,
			"-0.002": 14.3105870997,
			"-0.001": 11.1287591834,
			"0.0": 11.3972615512,
			"0.001": 11.2494789248,
			"0.002": 10.8979739134,
			"0.003": 14.0358429023,
			"0.004": 10.5607341689,
			"0.005": 4.57036385566,
			"0.006": 4.27717925198,
			"0.007": 4.08302305338,
			"0.008": 2.76160070482,
			"0.009": 4.46729856856,
			"0.01": 5.62878362227,
			"0.011": 6.27866922489,
			"0.012": 10.135798001,
			"0.013": 8.15047974428,
			"0.014": 1.9791003805,
			"0.015": 0.0,
			"0.016": 0.0,
			"0.017": 0.0,
			"0.018": 0.0,
			"0.019": 0.0,
			"0.02": 0.0,
			"0.021": 0.0,
			"0.022": 0.0,
			"0.023": 0.0,
			"0.024": 0.0,
			"0.025": 0.0
		}
	}
}
