{
	 "smiles": "FC(F)(F)COC(=O)C(F)(F)F", 
	 "Tm": 208.15, 
	 "num_atms": 14, 
	 "gaussian": { 
		 "optdone": 1, 
		 "sigma_profile": "yes", 
		 "theory": "DFT", 
		 "functional": "B3LYP", 
		 "basiset": "6-31G**", 
		 "properties": { 
			 "R2extent": 2737.2253, 
			 "electric_dipole_moment_norm": 2.13201105532, 
			 "electric_quadrupole_moment_norm": 7.08416354695, 
			 "total_energy": -903.115699054, 
			 "HOMO_LUMO_gap": 0.27538, 
			 "cosmo_polarized_energy": -6.04, 
			 "cosmo_cavitation_energy": 22.6, 
			 "cosmo_dispersion_energy": -15.1, 
			 "cosmo_repulsion_energy": 1.12, 
			 "cosmo_total_nonelectrostatic_energy": 8.62, 
			 "SMD_solvation_energy": 7.6 
		},
		"coords": [
			{
				"x": -0.2462910911,
				"y": 3.5105398473,
				"z": 0.3499588159,
				"element": "F" 
			},
			{
				"x": 0.111558359,
				"y": 2.4167208653,
				"z": 1.0431724021,
				"element": "C" 
			},
			{
				"x": -0.9621859425,
				"y": 1.6126427441,
				"z": 1.1343313012,
				"element": "F" 
			},
			{
				"x": 0.4650147004,
				"y": 2.8017174983,
				"z": 2.2856951708,
				"element": "F" 
			},
			{
				"x": 1.2852463019,
				"y": 1.6988097014,
				"z": 0.3953323734,
				"element": "C" 
			},
			{
				"x": 0.9099968282,
				"y": 1.2629485749,
				"z": -0.9163026851,
				"element": "O" 
			},
			{
				"x": 0.6116205994,
				"y": -0.0425297567,
				"z": -1.0569316606,
				"element": "C" 
			},
			{
				"x": 0.6700336462,
				"y": -0.8940971102,
				"z": -0.2119649752,
				"element": "O" 
			},
			{
				"x": 0.194057439,
				"y": -0.3072685403,
				"z": -2.5197339975,
				"element": "C" 
			},
			{
				"x": -0.8672190967,
				"y": 0.4474398676,
				"z": -2.8455197876,
				"element": "F" 
			},
			{
				"x": 1.205904476,
				"y": -0.0018327435,
				"z": -3.3501416916,
				"element": "F" 
			},
			{
				"x": -0.1221987451,
				"y": -1.5923605774,
				"z": -2.6788490754,
				"element": "F" 
			},
			{
				"x": 1.5747863796,
				"y": 0.849707086,
				"z": 1.015845886,
				"element": "H" 
			},
			{
				"x": 2.1143761456,
				"y": 2.3976625432,
				"z": 0.2792079237,
				"element": "H" 
			}
		],
		 "valence_orbital": [ 
			{
				"type": "occ",
				"energy": -0.41704,
				"method": "rhf"
			},
			{
				"type": "occ",
				"energy": -0.40713,
				"method": "rhf"
			},
			{
				"type": "occ",
				"energy": -0.39642,
				"method": "rhf"
			},
			{
				"type": "occ",
				"energy": -0.3464,
				"method": "rhf"
			},
			{
				"type": "occ",
				"energy": -0.32114,
				"method": "rhf"
			},
			{
				"type": "unocc",
				"energy": -0.04576,
				"method": "rhf"
			},
			{
				"type": "unocc",
				"energy": 0.06067,
				"method": "rhf"
			},
			{
				"type": "unocc",
				"energy": 0.09664,
				"method": "rhf"
			},
			{
				"type": "unocc",
				"energy": 0.10637,
				"method": "rhf"
			},
			{
				"type": "unocc",
				"energy": 0.14753,
				"method": "rhf"
			}
		],
		"cosmo_sigma_profile": { 
			"-0.025": 0.0,
			"-0.024": 0.0,
			"-0.023": 0.0,
			"-0.022": 0.0,
			"-0.021": 0.0,
			"-0.02": 0.0,
			"-0.019": 0.0,
			"-0.018": 0.0,
			"-0.017": 0.0,
			"-0.016": 0.0,
			"-0.015": 0.0,
			"-0.014": 0.0,
			"-0.013": 0.0,
			"-0.012": 0.0,
			"-0.011": 1.07799994623,
			"-0.01": 3.60773806839,
			"-0.009": 3.46121824991,
			"-0.008": 4.86454476216,
			"-0.007": 7.01706410546,
			"-0.006": 4.50582994528,
			"-0.005": 4.08556453587,
			"-0.004": 5.18343319954,
			"-0.003": 5.3472977965,
			"-0.002": 7.36250899457,
			"-0.001": 9.41414780126,
			"0.0": 13.6824392849,
			"0.001": 34.2979464519,
			"0.002": 50.8429403839,
			"0.003": 11.2434164348,
			"0.004": 3.13787944357,
			"0.005": 1.33937618976,
			"0.006": 2.38479102491,
			"0.007": 2.15279228234,
			"0.008": 3.20512881289,
			"0.009": 2.996668409,
			"0.01": 0.261954573847,
			"0.011": 0.0,
			"0.012": 0.0,
			"0.013": 0.0,
			"0.014": 0.0,
			"0.015": 0.0,
			"0.016": 0.0,
			"0.017": 0.0,
			"0.018": 0.0,
			"0.019": 0.0,
			"0.02": 0.0,
			"0.021": 0.0,
			"0.022": 0.0,
			"0.023": 0.0,
			"0.024": 0.0,
			"0.025": 0.0
		}
	}
}
