{
	 "smiles": "CC1=C(C)C(NN=C2C(=O)N(N=C2C(F)(F)F)C2=CC=CC=C2)=CC=C1", 
	 "Tm": 409.15, 
	 "num_atms": 41, 
	 "gaussian": { 
		 "optdone": 1, 
		 "sigma_profile": "yes", 
		 "theory": "DFT", 
		 "functional": "B3LYP", 
		 "basiset": "6-31G**", 
		 "properties": { 
			 "R2extent": 13296.7337, 
			 "electric_dipole_moment_norm": 4.34036279359, 
			 "electric_quadrupole_moment_norm": 15.1734676034, 
			 "total_energy": -1288.67890586, 
			 "HOMO_LUMO_gap": 0.11828, 
			 "cosmo_polarized_energy": -9.59, 
			 "cosmo_cavitation_energy": 47.15, 
			 "cosmo_dispersion_energy": -32.82, 
			 "cosmo_repulsion_energy": 2.38, 
			 "cosmo_total_nonelectrostatic_energy": 16.71, 
			 "SMD_solvation_energy": 8.17 
		},
		"coords": [
			{
				"x": 0.3173426607,
				"y": 2.6317505624,
				"z": 4.7979282433,
				"element": "C" 
			},
			{
				"x": 1.1339968408,
				"y": 1.7888280046,
				"z": 3.8425465249,
				"element": "C" 
			},
			{
				"x": 0.6020662998,
				"y": 1.3435035857,
				"z": 2.6150256766,
				"element": "C" 
			},
			{
				"x": -0.8086212215,
				"y": 1.6792791008,
				"z": 2.181205369,
				"element": "C" 
			},
			{
				"x": 1.4261112012,
				"y": 0.5609689934,
				"z": 1.7778984725,
				"element": "C" 
			},
			{
				"x": 0.8864626459,
				"y": 0.1207606249,
				"z": 0.5542562575,
				"element": "N" 
			},
			{
				"x": 1.5752725261,
				"y": -0.6079751982,
				"z": -0.2821586873,
				"element": "N" 
			},
			{
				"x": 0.9756123433,
				"y": -0.9670081793,
				"z": -1.399461002,
				"element": "C" 
			},
			{
				"x": -0.3902606818,
				"y": -0.6407072712,
				"z": -1.8186962547,
				"element": "C" 
			},
			{
				"x": -1.2244878008,
				"y": 0.0337455524,
				"z": -1.1925036191,
				"element": "O" 
			},
			{
				"x": -0.5174564291,
				"y": -1.2572307031,
				"z": -3.0588593356,
				"element": "N" 
			},
			{
				"x": 0.6419901237,
				"y": -1.9241671469,
				"z": -3.4271488887,
				"element": "N" 
			},
			{
				"x": 1.510542442,
				"y": -1.7602121195,
				"z": -2.4709432815,
				"element": "C" 
			},
			{
				"x": 2.8824761897,
				"y": -2.3607713301,
				"z": -2.5560921556,
				"element": "C" 
			},
			{
				"x": 3.8283432238,
				"y": -1.3990170035,
				"z": -2.4906006859,
				"element": "F" 
			},
			{
				"x": 3.0599248732,
				"y": -3.0443022533,
				"z": -3.6951065505,
				"element": "F" 
			},
			{
				"x": 3.0991114165,
				"y": -3.2021794472,
				"z": -1.5221413857,
				"element": "F" 
			},
			{
				"x": -1.6341756127,
				"y": -1.2813054275,
				"z": -3.9405341586,
				"element": "C" 
			},
			{
				"x": -1.5308448979,
				"y": -1.9771638454,
				"z": -5.1526991424,
				"element": "C" 
			},
			{
				"x": -2.618858546,
				"y": -2.0062959738,
				"z": -6.0219221919,
				"element": "C" 
			},
			{
				"x": -3.8083241954,
				"y": -1.3507490602,
				"z": -5.6982915948,
				"element": "C" 
			},
			{
				"x": -3.8996989762,
				"y": -0.6612560965,
				"z": -4.4890924577,
				"element": "C" 
			},
			{
				"x": -2.8229297354,
				"y": -0.6186246086,
				"z": -3.6033475772,
				"element": "C" 
			},
			{
				"x": 2.7380148227,
				"y": 0.2214544108,
				"z": 2.1307345739,
				"element": "C" 
			},
			{
				"x": 3.2418940077,
				"y": 0.6700540596,
				"z": 3.3432213818,
				"element": "C" 
			},
			{
				"x": 2.4467938914,
				"y": 1.4452746974,
				"z": 4.1885718506,
				"element": "C" 
			},
			{
				"x": 0.9010416159,
				"y": 2.8752957105,
				"z": 5.6890006914,
				"element": "H" 
			},
			{
				"x": 0.0010856719,
				"y": 3.5774733065,
				"z": 4.3433017211,
				"element": "H" 
			},
			{
				"x": -0.5893537648,
				"y": 2.1135032171,
				"z": 5.1302104547,
				"element": "H" 
			},
			{
				"x": -1.4139443367,
				"y": 0.7773551755,
				"z": 2.0258416652,
				"element": "H" 
			},
			{
				"x": -1.3252006215,
				"y": 2.2873807561,
				"z": 2.9227001485,
				"element": "H" 
			},
			{
				"x": -0.8236277428,
				"y": 2.2396244126,
				"z": 1.2379123396,
				"element": "H" 
			},
			{
				"x": -0.0749233198,
				"y": 0.3647301276,
				"z": 0.2853776482,
				"element": "H" 
			},
			{
				"x": -0.6064851284,
				"y": -2.4835566554,
				"z": -5.3985443754,
				"element": "H" 
			},
			{
				"x": -2.5315325491,
				"y": -2.5475629902,
				"z": -6.9595539733,
				"element": "H" 
			},
			{
				"x": -4.6527316603,
				"y": -1.3774142063,
				"z": -6.3803324644,
				"element": "H" 
			},
			{
				"x": -4.8186262642,
				"y": -0.1464733566,
				"z": -4.2236800716,
				"element": "H" 
			},
			{
				"x": -2.8953190598,
				"y": -0.0837734773,
				"z": -2.6664911097,
				"element": "H" 
			},
			{
				"x": 3.3313677241,
				"y": -0.3815078108,
				"z": 1.4544044683,
				"element": "H" 
			},
			{
				"x": 4.2571249043,
				"y": 0.4159077872,
				"z": 3.6321888918,
				"element": "H" 
			},
			{
				"x": 2.8496271194,
				"y": 1.7920640754,
				"z": 5.1359745846,
				"element": "H" 
			}
		],
		 "valence_orbital": [ 
			{
				"type": "occ",
				"energy": -0.26532,
				"method": "rhf"
			},
			{
				"type": "occ",
				"energy": -0.25239,
				"method": "rhf"
			},
			{
				"type": "occ",
				"energy": -0.25145,
				"method": "rhf"
			},
			{
				"type": "occ",
				"energy": -0.22819,
				"method": "rhf"
			},
			{
				"type": "occ",
				"energy": -0.21964,
				"method": "rhf"
			},
			{
				"type": "unocc",
				"energy": -0.10136,
				"method": "rhf"
			},
			{
				"type": "unocc",
				"energy": -0.02289,
				"method": "rhf"
			},
			{
				"type": "unocc",
				"energy": -0.01414,
				"method": "rhf"
			},
			{
				"type": "unocc",
				"energy": -0.00173,
				"method": "rhf"
			},
			{
				"type": "unocc",
				"energy": 0.00517,
				"method": "rhf"
			}
		],
		"cosmo_sigma_profile": { 
			"-0.025": 0.0,
			"-0.024": 0.0,
			"-0.023": 0.0,
			"-0.022": 0.0,
			"-0.021": 0.0,
			"-0.02": 0.0,
			"-0.019": 0.0,
			"-0.018": 0.0,
			"-0.017": 0.0,
			"-0.016": 0.0,
			"-0.015": 0.0,
			"-0.014": 0.0,
			"-0.013": 0.0,
			"-0.012": 0.0,
			"-0.011": 0.0,
			"-0.01": 0.0,
			"-0.009": 0.119586611903,
			"-0.008": 0.974632848547,
			"-0.007": 2.40231213759,
			"-0.006": 12.7373010019,
			"-0.005": 23.5466771902,
			"-0.004": 35.3476889992,
			"-0.003": 30.7815852402,
			"-0.002": 30.8519587777,
			"-0.001": 34.7919429379,
			"0.0": 31.595676643,
			"0.001": 29.9166471861,
			"0.002": 46.2463206643,
			"0.003": 39.3722877457,
			"0.004": 25.9672155982,
			"0.005": 19.7967673009,
			"0.006": 4.61288089058,
			"0.007": 2.81018737464,
			"0.008": 2.5066592226,
			"0.009": 2.22863580752,
			"0.01": 2.17242398921,
			"0.011": 0.0441649611717,
			"0.012": 0.0,
			"0.013": 0.0,
			"0.014": 0.0,
			"0.015": 0.0,
			"0.016": 0.0,
			"0.017": 0.0,
			"0.018": 0.0,
			"0.019": 0.0,
			"0.02": 0.0,
			"0.021": 0.0,
			"0.022": 0.0,
			"0.023": 0.0,
			"0.024": 0.0,
			"0.025": 0.0
		}
	}
}
