{
	 "smiles": "OC(=O)CCNS(=O)(=O)C=CC1=CC=CC=C1", 
	 "Tm": 394.15, 
	 "num_atms": 30, 
	 "gaussian": { 
		 "optdone": 1, 
		 "sigma_profile": "yes", 
		 "theory": "DFT", 
		 "functional": "B3LYP", 
		 "basiset": "6-31G**", 
		 "properties": { 
			 "R2extent": 6002.6347, 
			 "electric_dipole_moment_norm": 7.14986192174, 
			 "electric_quadrupole_moment_norm": 17.1631025802, 
			 "total_energy": -1180.76006141, 
			 "HOMO_LUMO_gap": 0.17937, 
			 "cosmo_polarized_energy": -21.81, 
			 "cosmo_cavitation_energy": 34.87, 
			 "cosmo_dispersion_energy": -25.18, 
			 "cosmo_repulsion_energy": 1.91, 
			 "cosmo_total_nonelectrostatic_energy": 11.6, 
			 "SMD_solvation_energy": 5.99 
		},
		"coords": [
			{
				"x": 0.7621967556,
				"y": 3.2102419984,
				"z": -0.0301707236,
				"element": "O" 
			},
			{
				"x": 0.4993658906,
				"y": 3.1655896782,
				"z": 1.2912263393,
				"element": "C" 
			},
			{
				"x": 0.3956583883,
				"y": 4.1784214359,
				"z": 1.944183001,
				"element": "O" 
			},
			{
				"x": 0.2833695807,
				"y": 1.774828217,
				"z": 1.8837214009,
				"element": "C" 
			},
			{
				"x": -1.2105862033,
				"y": 1.3759450193,
				"z": 1.8698814523,
				"element": "C" 
			},
			{
				"x": -1.9486929934,
				"y": 1.5175192616,
				"z": 0.6009999263,
				"element": "N" 
			},
			{
				"x": -1.4754360613,
				"y": 0.7051936028,
				"z": -0.7918826377,
				"element": "S" 
			},
			{
				"x": -2.2198900588,
				"y": 1.3440348021,
				"z": -1.8823324808,
				"element": "O" 
			},
			{
				"x": 0.0026270528,
				"y": 0.6358001062,
				"z": -0.8952994243,
				"element": "O" 
			},
			{
				"x": -2.0926277843,
				"y": -0.921124025,
				"z": -0.4285791543,
				"element": "C" 
			},
			{
				"x": -1.7586121035,
				"y": -2.0740334015,
				"z": -1.0349371945,
				"element": "C" 
			},
			{
				"x": -0.8710456591,
				"y": -2.3718165265,
				"z": -2.1628039865,
				"element": "C" 
			},
			{
				"x": -0.2924400891,
				"y": -3.6541994594,
				"z": -2.2190844433,
				"element": "C" 
			},
			{
				"x": 0.5609225667,
				"y": -4.007294278,
				"z": -3.2603620206,
				"element": "C" 
			},
			{
				"x": 0.8269985377,
				"y": -3.0920107252,
				"z": -4.2812977029,
				"element": "C" 
			},
			{
				"x": 0.2314049642,
				"y": -1.8285569115,
				"z": -4.2555942106,
				"element": "C" 
			},
			{
				"x": -0.6114795787,
				"y": -1.4662076387,
				"z": -3.2082267983,
				"element": "C" 
			},
			{
				"x": 0.7347878442,
				"y": 2.3132688525,
				"z": -0.4230202785,
				"element": "H" 
			},
			{
				"x": 0.605792025,
				"y": 1.8102173648,
				"z": 2.9275829401,
				"element": "H" 
			},
			{
				"x": 0.8776479322,
				"y": 1.0250404071,
				"z": 1.3580681122,
				"element": "H" 
			},
			{
				"x": -1.7563311525,
				"y": 1.9981016706,
				"z": 2.5846886367,
				"element": "H" 
			},
			{
				"x": -1.309403631,
				"y": 0.3384708196,
				"z": 2.2046743791,
				"element": "H" 
			},
			{
				"x": -2.1767044158,
				"y": 2.4734403633,
				"z": 0.3367123447,
				"element": "H" 
			},
			{
				"x": -2.8360190507,
				"y": -0.8950720594,
				"z": 0.3600346506,
				"element": "H" 
			},
			{
				"x": -2.2360004076,
				"y": -2.9534629085,
				"z": -0.601063344,
				"element": "H" 
			},
			{
				"x": -0.5062550013,
				"y": -4.369834378,
				"z": -1.4292601847,
				"element": "H" 
			},
			{
				"x": 1.0096593633,
				"y": -4.9958604512,
				"z": -3.2810500082,
				"element": "H" 
			},
			{
				"x": 1.4843442443,
				"y": -3.3670292794,
				"z": -5.1009344417,
				"element": "H" 
			},
			{
				"x": 0.417800175,
				"y": -1.1227309263,
				"z": -5.0592194725,
				"element": "H" 
			},
			{
				"x": -1.0942511301,
				"y": -0.4959806307,
				"z": -3.2242546763,
				"element": "H" 
			}
		],
		 "valence_orbital": [ 
			{
				"type": "occ",
				"energy": -0.30192,
				"method": "rhf"
			},
			{
				"type": "occ",
				"energy": -0.2859,
				"method": "rhf"
			},
			{
				"type": "occ",
				"energy": -0.26625,
				"method": "rhf"
			},
			{
				"type": "occ",
				"energy": -0.25924,
				"method": "rhf"
			},
			{
				"type": "occ",
				"energy": -0.25326,
				"method": "rhf"
			},
			{
				"type": "unocc",
				"energy": -0.07389,
				"method": "rhf"
			},
			{
				"type": "unocc",
				"energy": -0.01696,
				"method": "rhf"
			},
			{
				"type": "unocc",
				"energy": 0.00985,
				"method": "rhf"
			},
			{
				"type": "unocc",
				"energy": 0.01512,
				"method": "rhf"
			},
			{
				"type": "unocc",
				"energy": 0.03985,
				"method": "rhf"
			}
		],
		"cosmo_sigma_profile": { 
			"-0.025": 0.0,
			"-0.024": 0.0,
			"-0.023": 0.0,
			"-0.022": 0.0,
			"-0.021": 0.0,
			"-0.02": 0.0,
			"-0.019": 0.0,
			"-0.018": 0.0,
			"-0.017": 0.0,
			"-0.016": 0.190204161944,
			"-0.015": 0.684101433317,
			"-0.014": 0.898674257746,
			"-0.013": 1.06274846933,
			"-0.012": 1.00372789503,
			"-0.011": 1.58193835066,
			"-0.01": 1.13930497983,
			"-0.009": 4.34561166993,
			"-0.008": 8.33157099532,
			"-0.007": 13.7876511678,
			"-0.006": 23.0586602337,
			"-0.005": 22.0549778886,
			"-0.004": 22.4357015345,
			"-0.003": 17.3589491886,
			"-0.002": 12.8357908319,
			"-0.001": 12.2376270503,
			"0.0": 13.0828290002,
			"0.001": 12.7550645064,
			"0.002": 15.7917201678,
			"0.003": 14.3296811136,
			"0.004": 15.7436403865,
			"0.005": 8.91092651461,
			"0.006": 5.43434135972,
			"0.007": 6.00614309349,
			"0.008": 5.85897816047,
			"0.009": 6.91104649496,
			"0.01": 10.7612889957,
			"0.011": 8.66898673114,
			"0.012": 6.06566913871,
			"0.013": 3.6288939078,
			"0.014": 0.509654709338,
			"0.015": 0.0,
			"0.016": 0.0,
			"0.017": 0.0,
			"0.018": 0.0,
			"0.019": 0.0,
			"0.02": 0.0,
			"0.021": 0.0,
			"0.022": 0.0,
			"0.023": 0.0,
			"0.024": 0.0,
			"0.025": 0.0
		}
	}
}
