{
	 "smiles": "OC(=O)CC1=CC=C(C=C1)S(=O)(=O)CC(F)F", 
	 "Tm": 409.15, 
	 "num_atms": 27, 
	 "gaussian": { 
		 "optdone": 1, 
		 "sigma_profile": "yes", 
		 "theory": "DFT", 
		 "functional": "B3LYP", 
		 "basiset": "6-31G**", 
		 "properties": { 
			 "R2extent": 6016.7497, 
			 "electric_dipole_moment_norm": 6.10715848001, 
			 "electric_quadrupole_moment_norm": 17.6660815282, 
			 "total_energy": -1285.78643014, 
			 "HOMO_LUMO_gap": 0.20598, 
			 "cosmo_polarized_energy": -26.07, 
			 "cosmo_cavitation_energy": 33.43, 
			 "cosmo_dispersion_energy": -23.74, 
			 "cosmo_repulsion_energy": 1.78, 
			 "cosmo_total_nonelectrostatic_energy": 11.47, 
			 "SMD_solvation_energy": 6.76 
		},
		"coords": [
			{
				"x": 1.6540885729,
				"y": -2.2917092426,
				"z": 2.6173140629,
				"element": "O" 
			},
			{
				"x": 0.6229730723,
				"y": -3.035264901,
				"z": 2.157354791,
				"element": "C" 
			},
			{
				"x": 0.2931831444,
				"y": -4.0510529251,
				"z": 2.7138495444,
				"element": "O" 
			},
			{
				"x": -0.0649612716,
				"y": -2.5487020095,
				"z": 0.8670183057,
				"element": "C" 
			},
			{
				"x": 0.0593705214,
				"y": -1.0730935551,
				"z": 0.5668902652,
				"element": "C" 
			},
			{
				"x": -0.860914197,
				"y": -0.1573955023,
				"z": 1.1007596485,
				"element": "C" 
			},
			{
				"x": -0.7340701906,
				"y": 1.2080607604,
				"z": 0.8553182934,
				"element": "C" 
			},
			{
				"x": 0.3260548643,
				"y": 1.6592911307,
				"z": 0.0672363617,
				"element": "C" 
			},
			{
				"x": 1.2632015901,
				"y": 0.7755295759,
				"z": -0.4679879754,
				"element": "C" 
			},
			{
				"x": 1.1208686921,
				"y": -0.5883210623,
				"z": -0.2159735549,
				"element": "C" 
			},
			{
				"x": 0.5174502836,
				"y": 3.425586984,
				"z": -0.2113839331,
				"element": "S" 
			},
			{
				"x": 1.947751722,
				"y": 3.7059411058,
				"z": -0.379368597,
				"element": "O" 
			},
			{
				"x": -0.2883506904,
				"y": 4.1280170556,
				"z": 0.7984241017,
				"element": "O" 
			},
			{
				"x": -0.3189211528,
				"y": 3.7964706018,
				"z": -1.8065026295,
				"element": "C" 
			},
			{
				"x": 0.0449650752,
				"y": 2.9452011255,
				"z": -3.0103863291,
				"element": "C" 
			},
			{
				"x": 1.3950657509,
				"y": 2.8109977934,
				"z": -3.1368060869,
				"element": "F" 
			},
			{
				"x": -0.4897221367,
				"y": 1.6932807235,
				"z": -2.880304873,
				"element": "F" 
			},
			{
				"x": 1.7558458865,
				"y": -1.4890743434,
				"z": 2.0818823138,
				"element": "H" 
			},
			{
				"x": -1.11057295,
				"y": -2.8535621739,
				"z": 0.9499806218,
				"element": "H" 
			},
			{
				"x": 0.3699992931,
				"y": -3.1399253976,
				"z": 0.0520598313,
				"element": "H" 
			},
			{
				"x": -1.680171402,
				"y": -0.5182457715,
				"z": 1.7164456256,
				"element": "H" 
			},
			{
				"x": -1.4304457899,
				"y": 1.9220853533,
				"z": 1.281586011,
				"element": "H" 
			},
			{
				"x": 2.081267306,
				"y": 1.150870022,
				"z": -1.0722762022,
				"element": "H" 
			},
			{
				"x": 1.8357185038,
				"y": -1.2868510176,
				"z": -0.6437627621,
				"element": "H" 
			},
			{
				"x": -0.0451969078,
				"y": 4.8401249868,
				"z": -1.9856513178,
				"element": "H" 
			},
			{
				"x": -1.3936190335,
				"y": 3.7354186483,
				"z": -1.6240274961,
				"element": "H" 
			},
			{
				"x": -0.3446585562,
				"y": 3.3842220351,
				"z": -3.9374880211,
				"element": "H" 
			}
		],
		 "valence_orbital": [ 
			{
				"type": "occ",
				"energy": -0.31121,
				"method": "rhf"
			},
			{
				"type": "occ",
				"energy": -0.30527,
				"method": "rhf"
			},
			{
				"type": "occ",
				"energy": -0.29744,
				"method": "rhf"
			},
			{
				"type": "occ",
				"energy": -0.28977,
				"method": "rhf"
			},
			{
				"type": "occ",
				"energy": -0.26797,
				"method": "rhf"
			},
			{
				"type": "unocc",
				"energy": -0.06199,
				"method": "rhf"
			},
			{
				"type": "unocc",
				"energy": -0.04397,
				"method": "rhf"
			},
			{
				"type": "unocc",
				"energy": 0.00615,
				"method": "rhf"
			},
			{
				"type": "unocc",
				"energy": 0.03409,
				"method": "rhf"
			},
			{
				"type": "unocc",
				"energy": 0.05234,
				"method": "rhf"
			}
		],
		"cosmo_sigma_profile": { 
			"-0.025": 0.0,
			"-0.024": 0.0,
			"-0.023": 0.0,
			"-0.022": 0.0,
			"-0.021": 0.0,
			"-0.02": 0.0,
			"-0.019": 0.0,
			"-0.018": 0.0,
			"-0.017": 0.0,
			"-0.016": 0.0,
			"-0.015": 0.146256044974,
			"-0.014": 0.763062768668,
			"-0.013": 0.941220799206,
			"-0.012": 0.732920141578,
			"-0.011": 4.25409676036,
			"-0.01": 11.4415956479,
			"-0.009": 9.61857344628,
			"-0.008": 13.9256273423,
			"-0.007": 17.6867135057,
			"-0.006": 15.5450872052,
			"-0.005": 12.432624316,
			"-0.004": 11.5892985026,
			"-0.003": 11.1424850988,
			"-0.002": 9.10685012441,
			"-0.001": 9.85843119698,
			"0.0": 11.8503492213,
			"0.001": 13.3235845786,
			"0.002": 13.1811153809,
			"0.003": 13.1412189073,
			"0.004": 18.6230924059,
			"0.005": 5.71265616826,
			"0.006": 5.1235384266,
			"0.007": 5.45318771705,
			"0.008": 5.69381613457,
			"0.009": 7.31396674192,
			"0.01": 12.4668913212,
			"0.011": 14.019845589,
			"0.012": 9.32572674518,
			"0.013": 1.84396313963,
			"0.014": 0.0163337596675,
			"0.015": 0.0,
			"0.016": 0.0,
			"0.017": 0.0,
			"0.018": 0.0,
			"0.019": 0.0,
			"0.02": 0.0,
			"0.021": 0.0,
			"0.022": 0.0,
			"0.023": 0.0,
			"0.024": 0.0,
			"0.025": 0.0
		}
	}
}
