{
	 "smiles": "CCCN(CC)C(=O)C1=CC=C(C=C1)C(O)=O", 
	 "Tm": 395.15, 
	 "num_atms": 34, 
	 "gaussian": { 
		 "optdone": 1, 
		 "sigma_profile": "yes", 
		 "theory": "DFT", 
		 "functional": "B3LYP", 
		 "basiset": "6-31G**", 
		 "properties": { 
			 "R2extent": 6161.8352, 
			 "electric_dipole_moment_norm": 6.68456456847, 
			 "electric_quadrupole_moment_norm": 24.1741765775, 
			 "total_energy": -786.081460706, 
			 "HOMO_LUMO_gap": 0.18333, 
			 "cosmo_polarized_energy": -20.29, 
			 "cosmo_cavitation_energy": 36.61, 
			 "cosmo_dispersion_energy": -25.41, 
			 "cosmo_repulsion_energy": 1.98, 
			 "cosmo_total_nonelectrostatic_energy": 13.18, 
			 "SMD_solvation_energy": 7.65 
		},
		"coords": [
			{
				"x": -2.5923303628,
				"y": 3.1212273613,
				"z": 0.0985808457,
				"element": "C" 
			},
			{
				"x": -1.5297275497,
				"y": 3.285197239,
				"z": 1.1893206204,
				"element": "C" 
			},
			{
				"x": -0.1572491224,
				"y": 2.6835455519,
				"z": 0.8437861097,
				"element": "C" 
			},
			{
				"x": -0.1563988288,
				"y": 1.2236058453,
				"z": 0.6392789763,
				"element": "N" 
			},
			{
				"x": 0.3706378537,
				"y": 0.4041131483,
				"z": 1.7386303441,
				"element": "C" 
			},
			{
				"x": -0.545965339,
				"y": 0.3220859858,
				"z": 2.9615835847,
				"element": "C" 
			},
			{
				"x": -0.2320823577,
				"y": 0.7823354808,
				"z": -0.6653266145,
				"element": "C" 
			},
			{
				"x": -0.2829305649,
				"y": 1.5550137501,
				"z": -1.6203543867,
				"element": "O" 
			},
			{
				"x": -0.3037642345,
				"y": -0.7014306703,
				"z": -0.9375524845,
				"element": "C" 
			},
			{
				"x": -1.1758468034,
				"y": -1.558611332,
				"z": -0.2540128858,
				"element": "C" 
			},
			{
				"x": -1.2792455133,
				"y": -2.8992406791,
				"z": -0.6220632313,
				"element": "C" 
			},
			{
				"x": -0.5067098809,
				"y": -3.4073146721,
				"z": -1.6752610697,
				"element": "C" 
			},
			{
				"x": 0.3390005737,
				"y": -2.5399043778,
				"z": -2.3819021121,
				"element": "C" 
			},
			{
				"x": 0.4327226033,
				"y": -1.201431333,
				"z": -2.0219227814,
				"element": "C" 
			},
			{
				"x": -0.5698447621,
				"y": -4.8378946122,
				"z": -2.1228179291,
				"element": "C" 
			},
			{
				"x": -1.0584969148,
				"y": -5.7392470082,
				"z": -1.2284456836,
				"element": "O" 
			},
			{
				"x": -0.2102618246,
				"y": -5.2065292567,
				"z": -3.2156955194,
				"element": "O" 
			},
			{
				"x": -2.2557421484,
				"y": 3.5438171589,
				"z": -0.8522416464,
				"element": "H" 
			},
			{
				"x": -2.8226041137,
				"y": 2.0661421944,
				"z": -0.0774431934,
				"element": "H" 
			},
			{
				"x": -3.5226559341,
				"y": 3.6203603663,
				"z": 0.3888952945,
				"element": "H" 
			},
			{
				"x": -1.8962967948,
				"y": 2.8543980634,
				"z": 2.1292425508,
				"element": "H" 
			},
			{
				"x": -1.3674546167,
				"y": 4.3535364151,
				"z": 1.3857415113,
				"element": "H" 
			},
			{
				"x": 0.2217942006,
				"y": 3.1417150956,
				"z": -0.0733945817,
				"element": "H" 
			},
			{
				"x": 0.5511032291,
				"y": 2.9020028119,
				"z": 1.65096059,
				"element": "H" 
			},
			{
				"x": 1.3412731007,
				"y": 0.8223007813,
				"z": 2.0423008166,
				"element": "H" 
			},
			{
				"x": 0.5712044709,
				"y": -0.5974165315,
				"z": 1.357941915,
				"element": "H" 
			},
			{
				"x": -0.0922398256,
				"y": -0.3218008372,
				"z": 3.7223318161,
				"element": "H" 
			},
			{
				"x": -0.7076956986,
				"y": 1.3048504451,
				"z": 3.4133051519,
				"element": "H" 
			},
			{
				"x": -1.5243804991,
				"y": -0.0929930073,
				"z": 2.7003246241,
				"element": "H" 
			},
			{
				"x": -1.7958741889,
				"y": -1.17253914,
				"z": 0.5486802038,
				"element": "H" 
			},
			{
				"x": -2.0018028289,
				"y": -3.5274888342,
				"z": -0.1062631371,
				"element": "H" 
			},
			{
				"x": 0.906004543,
				"y": -2.9384623145,
				"z": -3.2161659644,
				"element": "H" 
			},
			{
				"x": 1.0656157319,
				"y": -0.520698637,
				"z": -2.5811446864,
				"element": "H" 
			},
			{
				"x": -1.1508555993,
				"y": -5.3298444514,
				"z": -0.3572970475,
				"element": "H" 
			}
		],
		 "valence_orbital": [ 
			{
				"type": "occ",
				"energy": -0.2832,
				"method": "rhf"
			},
			{
				"type": "occ",
				"energy": -0.27806,
				"method": "rhf"
			},
			{
				"type": "occ",
				"energy": -0.2703,
				"method": "rhf"
			},
			{
				"type": "occ",
				"energy": -0.25158,
				"method": "rhf"
			},
			{
				"type": "occ",
				"energy": -0.24775,
				"method": "rhf"
			},
			{
				"type": "unocc",
				"energy": -0.06442,
				"method": "rhf"
			},
			{
				"type": "unocc",
				"energy": -0.02758,
				"method": "rhf"
			},
			{
				"type": "unocc",
				"energy": 0.01279,
				"method": "rhf"
			},
			{
				"type": "unocc",
				"energy": 0.05477,
				"method": "rhf"
			},
			{
				"type": "unocc",
				"energy": 0.05636,
				"method": "rhf"
			}
		],
		"cosmo_sigma_profile": { 
			"-0.025": 0.0,
			"-0.024": 0.0,
			"-0.023": 0.0,
			"-0.022": 0.0,
			"-0.021": 0.0,
			"-0.02": 0.0,
			"-0.019": 0.395747377909,
			"-0.018": 0.662253643593,
			"-0.017": 1.04108303917,
			"-0.016": 1.19487410904,
			"-0.015": 0.592245845805,
			"-0.014": 0.841704890614,
			"-0.013": 1.35842220289,
			"-0.012": 1.21510593828,
			"-0.011": 1.45255013475,
			"-0.01": 0.769531941756,
			"-0.009": 1.36104816766,
			"-0.008": 2.50974610306,
			"-0.007": 3.70712060377,
			"-0.006": 8.81817840772,
			"-0.005": 12.964226688,
			"-0.004": 21.6266374991,
			"-0.003": 30.7683534187,
			"-0.002": 33.8227435179,
			"-0.001": 29.0440171792,
			"0.0": 29.1194671341,
			"0.001": 24.0606039906,
			"0.002": 18.4894061722,
			"0.003": 8.17260071028,
			"0.004": 4.4111339839,
			"0.005": 4.44225517456,
			"0.006": 4.67821041024,
			"0.007": 3.52300488164,
			"0.008": 5.54195484596,
			"0.009": 5.44311570617,
			"0.01": 6.17227138693,
			"0.011": 6.90089048859,
			"0.012": 6.05945356595,
			"0.013": 4.44505107903,
			"0.014": 2.59843219266,
			"0.015": 0.291635321341,
			"0.016": 0.0,
			"0.017": 0.0,
			"0.018": 0.0,
			"0.019": 0.0,
			"0.02": 0.0,
			"0.021": 0.0,
			"0.022": 0.0,
			"0.023": 0.0,
			"0.024": 0.0,
			"0.025": 0.0
		}
	}
}
