{
	 "smiles": "CN1C=C(C=N1)S(Cl)(=O)=O", 
	 "Tm": 322.15, 
	 "num_atms": 15, 
	 "gaussian": { 
		 "optdone": 1, 
		 "sigma_profile": "yes", 
		 "theory": "DFT", 
		 "functional": "B3LYP", 
		 "basiset": "6-31G**", 
		 "properties": { 
			 "R2extent": 3112.9687, 
			 "electric_dipole_moment_norm": 6.12971759056, 
			 "electric_quadrupole_moment_norm": 13.2127347442, 
			 "total_energy": -1273.6720021, 
			 "HOMO_LUMO_gap": 0.20406, 
			 "cosmo_polarized_energy": -12.95, 
			 "cosmo_cavitation_energy": 23.31, 
			 "cosmo_dispersion_energy": -17.59, 
			 "cosmo_repulsion_energy": 1.39, 
			 "cosmo_total_nonelectrostatic_energy": 7.11, 
			 "SMD_solvation_energy": 2.47 
		},
		"coords": [
			{
				"x": -1.9718078055,
				"y": -0.033195659,
				"z": 0.9667463745,
				"element": "C" 
			},
			{
				"x": -0.6633149127,
				"y": -0.019891174,
				"z": 0.3304787142,
				"element": "N" 
			},
			{
				"x": 0.313105005,
				"y": -0.9433926445,
				"z": 0.4216683134,
				"element": "C" 
			},
			{
				"x": 1.3666945576,
				"y": -0.4497870333,
				"z": -0.3358221607,
				"element": "C" 
			},
			{
				"x": 0.9188737705,
				"y": 0.7884218356,
				"z": -0.8530839144,
				"element": "C" 
			},
			{
				"x": -0.3142535366,
				"y": 1.044617946,
				"z": -0.4388353955,
				"element": "N" 
			},
			{
				"x": 2.9087637292,
				"y": -1.2262890536,
				"z": -0.5671528462,
				"element": "S" 
			},
			{
				"x": 2.5889181395,
				"y": -2.3435710777,
				"z": -2.3618109098,
				"element": "Cl" 
			},
			{
				"x": 3.9063672452,
				"y": -0.2193877796,
				"z": -0.9017637997,
				"element": "O" 
			},
			{
				"x": 3.1053635152,
				"y": -2.2163343923,
				"z": 0.4848185096,
				"element": "O" 
			},
			{
				"x": -2.7455487341,
				"y": 0.0877793138,
				"z": 0.2061998417,
				"element": "H" 
			},
			{
				"x": -2.0438739578,
				"y": 0.7850325449,
				"z": 1.6869663657,
				"element": "H" 
			},
			{
				"x": -2.1062138593,
				"y": -0.9863714587,
				"z": 1.4792009861,
				"element": "H" 
			},
			{
				"x": 0.2199111693,
				"y": -1.8522506218,
				"z": 0.9965016106,
				"element": "H" 
			},
			{
				"x": 1.4504156747,
				"y": 1.4813192541,
				"z": -1.4893116896,
				"element": "H" 
			}
		],
		 "valence_orbital": [ 
			{
				"type": "occ",
				"energy": -0.33424,
				"method": "rhf"
			},
			{
				"type": "occ",
				"energy": -0.31707,
				"method": "rhf"
			},
			{
				"type": "occ",
				"energy": -0.30997,
				"method": "rhf"
			},
			{
				"type": "occ",
				"energy": -0.29474,
				"method": "rhf"
			},
			{
				"type": "occ",
				"energy": -0.28693,
				"method": "rhf"
			},
			{
				"type": "unocc",
				"energy": -0.08287,
				"method": "rhf"
			},
			{
				"type": "unocc",
				"energy": -0.02329,
				"method": "rhf"
			},
			{
				"type": "unocc",
				"energy": 0.00286,
				"method": "rhf"
			},
			{
				"type": "unocc",
				"energy": 0.06364,
				"method": "rhf"
			},
			{
				"type": "unocc",
				"energy": 0.07365,
				"method": "rhf"
			}
		],
		"cosmo_sigma_profile": { 
			"-0.025": 0.0,
			"-0.024": 0.0,
			"-0.023": 0.0,
			"-0.022": 0.0,
			"-0.021": 0.0,
			"-0.02": 0.0,
			"-0.019": 0.0,
			"-0.018": 0.0,
			"-0.017": 0.0,
			"-0.016": 0.0,
			"-0.015": 0.0,
			"-0.014": 0.0,
			"-0.013": 0.0,
			"-0.012": 1.63287973762,
			"-0.011": 2.73173553014,
			"-0.01": 2.30085175414,
			"-0.009": 4.3303217059,
			"-0.008": 4.77647470319,
			"-0.007": 8.38143720294,
			"-0.006": 10.6576760434,
			"-0.005": 10.9681309083,
			"-0.004": 13.9901842824,
			"-0.003": 8.81290905655,
			"-0.002": 9.83824937796,
			"-0.001": 11.6586331772,
			"0.0": 11.8375848827,
			"0.001": 9.18799862059,
			"0.002": 11.1770070866,
			"0.003": 14.1081639327,
			"0.004": 13.9808398925,
			"0.005": 4.94437016167,
			"0.006": 3.88418804908,
			"0.007": 7.52057235604,
			"0.008": 11.1711674152,
			"0.009": 7.4737104145,
			"0.01": 1.12387397278,
			"0.011": 0.880361543455,
			"0.012": 1.16600265417,
			"0.013": 0.863438392989,
			"0.014": 0.354990331323,
			"0.015": 0.0,
			"0.016": 0.0,
			"0.017": 0.0,
			"0.018": 0.0,
			"0.019": 0.0,
			"0.02": 0.0,
			"0.021": 0.0,
			"0.022": 0.0,
			"0.023": 0.0,
			"0.024": 0.0,
			"0.025": 0.0
		}
	}
}
