{
	 "smiles": "OC1=C(C=O)C=CC=C1Br", 
	 "Tm": 326.15, 
	 "num_atms": 15, 
	 "gaussian": { 
		 "optdone": 1, 
		 "sigma_profile": "yes", 
		 "theory": "DFT", 
		 "functional": "B3LYP", 
		 "basiset": "6-31G**", 
		 "properties": { 
			 "R2extent": 4982.0315, 
			 "electric_dipole_moment_norm": 3.67064323655, 
			 "electric_quadrupole_moment_norm": 11.482425728, 
			 "total_energy": -2991.60717158, 
			 "HOMO_LUMO_gap": 0.15678, 
			 "cosmo_polarized_energy": -8.49, 
			 "cosmo_cavitation_energy": 21.64, 
			 "cosmo_dispersion_energy": -16.78, 
			 "cosmo_repulsion_energy": 1.34, 
			 "cosmo_total_nonelectrostatic_energy": 6.2, 
			 "SMD_solvation_energy": 3.91 
		},
		"coords": [
			{
				"x": 3.8538381794,
				"y": -0.077357593,
				"z": -0.0634439345,
				"element": "O" 
			},
			{
				"x": 2.735768492,
				"y": -0.0919185613,
				"z": 0.6608996914,
				"element": "C" 
			},
			{
				"x": 1.8463935762,
				"y": -1.2026234793,
				"z": 0.6431061515,
				"element": "C" 
			},
			{
				"x": 2.1633496969,
				"y": -2.3545625621,
				"z": -0.1873030175,
				"element": "C" 
			},
			{
				"x": 3.1695989126,
				"y": -2.445453835,
				"z": -0.895951225,
				"element": "O" 
			},
			{
				"x": 0.6732012781,
				"y": -1.1877946271,
				"z": 1.4196564845,
				"element": "C" 
			},
			{
				"x": 0.366754942,
				"y": -0.0940538365,
				"z": 2.2115719558,
				"element": "C" 
			},
			{
				"x": 1.2406020612,
				"y": 1.0040750417,
				"z": 2.2327348153,
				"element": "C" 
			},
			{
				"x": 2.4036729466,
				"y": 1.0094815935,
				"z": 1.473804268,
				"element": "C" 
			},
			{
				"x": 3.5668830986,
				"y": 2.5127475912,
				"z": 1.5248708243,
				"element": "Br" 
			},
			{
				"x": 3.8911568189,
				"y": -0.9393218241,
				"z": -0.5533479623,
				"element": "H" 
			},
			{
				"x": 1.435606618,
				"y": -3.188182015,
				"z": -0.1603846399,
				"element": "H" 
			},
			{
				"x": 0.0130729987,
				"y": -2.0509334397,
				"z": 1.3854756241,
				"element": "H" 
			},
			{
				"x": -0.5358407176,
				"y": -0.075915165,
				"z": 2.8125801818,
				"element": "H" 
			},
			{
				"x": 1.0144410984,
				"y": 1.8682127116,
				"z": 2.8480307825,
				"element": "H" 
			}
		],
		 "valence_orbital": [ 
			{
				"type": "occ",
				"energy": -0.32164,
				"method": "rhf"
			},
			{
				"type": "occ",
				"energy": -0.28798,
				"method": "rhf"
			},
			{
				"type": "occ",
				"energy": -0.28162,
				"method": "rhf"
			},
			{
				"type": "occ",
				"energy": -0.26703,
				"method": "rhf"
			},
			{
				"type": "occ",
				"energy": -0.23768,
				"method": "rhf"
			},
			{
				"type": "unocc",
				"energy": -0.0809,
				"method": "rhf"
			},
			{
				"type": "unocc",
				"energy": -0.01607,
				"method": "rhf"
			},
			{
				"type": "unocc",
				"energy": 0.00373,
				"method": "rhf"
			},
			{
				"type": "unocc",
				"energy": 0.02155,
				"method": "rhf"
			},
			{
				"type": "unocc",
				"energy": 0.08894,
				"method": "rhf"
			}
		],
		"cosmo_sigma_profile": { 
			"-0.025": 0.0,
			"-0.024": 0.0,
			"-0.023": 0.0,
			"-0.022": 0.0,
			"-0.021": 0.0,
			"-0.02": 0.0,
			"-0.019": 0.0,
			"-0.018": 0.0,
			"-0.017": 0.0,
			"-0.016": 0.0,
			"-0.015": 0.0,
			"-0.014": 0.0,
			"-0.013": 0.0,
			"-0.012": 0.0,
			"-0.011": 0.0,
			"-0.01": 0.171875925836,
			"-0.009": 1.9772386822,
			"-0.008": 6.46540896394,
			"-0.007": 9.27845733668,
			"-0.006": 9.15749072638,
			"-0.005": 9.30578770329,
			"-0.004": 11.6528314848,
			"-0.003": 10.3189147598,
			"-0.002": 10.2276213095,
			"-0.001": 11.2390275733,
			"0.0": 13.8841593541,
			"0.001": 17.2264371002,
			"0.002": 14.811989635,
			"0.003": 12.2518889553,
			"0.004": 11.3829540299,
			"0.005": 6.92773391964,
			"0.006": 3.69587937289,
			"0.007": 3.51426389325,
			"0.008": 3.20125586723,
			"0.009": 3.64622669496,
			"0.01": 4.3969511593,
			"0.011": 1.97509793752,
			"0.012": 0.928077939913,
			"0.013": 0.0,
			"0.014": 0.0,
			"0.015": 0.0,
			"0.016": 0.0,
			"0.017": 0.0,
			"0.018": 0.0,
			"0.019": 0.0,
			"0.02": 0.0,
			"0.021": 0.0,
			"0.022": 0.0,
			"0.023": 0.0,
			"0.024": 0.0,
			"0.025": 0.0
		}
	}
}
