{
	 "smiles": "CNC(=O)CC1=CC=CC=C1", 
	 "Tm": 330.15, 
	 "num_atms": 22, 
	 "gaussian": { 
		 "optdone": 1, 
		 "sigma_profile": "yes", 
		 "theory": "DFT", 
		 "functional": "B3LYP", 
		 "basiset": "6-31G**", 
		 "properties": { 
			 "R2extent": 2597.3899, 
			 "electric_dipole_moment_norm": 3.79141736426, 
			 "electric_quadrupole_moment_norm": 13.568054523, 
			 "total_energy": -479.583081786, 
			 "HOMO_LUMO_gap": 0.21996, 
			 "cosmo_polarized_energy": -10.95, 
			 "cosmo_cavitation_energy": 25.59, 
			 "cosmo_dispersion_energy": -18.38, 
			 "cosmo_repulsion_energy": 1.51, 
			 "cosmo_total_nonelectrostatic_energy": 8.72, 
			 "SMD_solvation_energy": 4.76 
		},
		"coords": [
			{
				"x": -4.2328918913,
				"y": -0.8921281654,
				"z": 0.3289073946,
				"element": "C" 
			},
			{
				"x": -2.8194426797,
				"y": -1.0051562467,
				"z": 0.0222664253,
				"element": "N" 
			},
			{
				"x": -2.0772329862,
				"y": -2.0854383482,
				"z": 0.3950644795,
				"element": "C" 
			},
			{
				"x": -2.5316881629,
				"y": -3.0415873334,
				"z": 1.011458705,
				"element": "O" 
			},
			{
				"x": -0.5871630038,
				"y": -2.0596314286,
				"z": -0.0020339653,
				"element": "C" 
			},
			{
				"x": -0.0823922395,
				"y": -0.859179047,
				"z": -0.7687195274,
				"element": "C" 
			},
			{
				"x": 0.4144510505,
				"y": 0.2677401985,
				"z": -0.0956699197,
				"element": "C" 
			},
			{
				"x": 0.8609551506,
				"y": 1.3859794141,
				"z": -0.8014249156,
				"element": "C" 
			},
			{
				"x": 0.8168441477,
				"y": 1.3974581914,
				"z": -2.1970031259,
				"element": "C" 
			},
			{
				"x": 0.3239801751,
				"y": 0.2840199103,
				"z": -2.8804466477,
				"element": "C" 
			},
			{
				"x": -0.1217477144,
				"y": -0.8324018009,
				"z": -2.1713719611,
				"element": "C" 
			},
			{
				"x": -4.833530616,
				"y": -0.8148632241,
				"z": -0.584647294,
				"element": "H" 
			},
			{
				"x": -4.521487534,
				"y": -1.7936645086,
				"z": 0.8705113654,
				"element": "H" 
			},
			{
				"x": -4.4357755809,
				"y": -0.0166281229,
				"z": 0.9563906814,
				"element": "H" 
			},
			{
				"x": -2.3611740697,
				"y": -0.2618066664,
				"z": -0.4830873462,
				"element": "H" 
			},
			{
				"x": -0.0331616,
				"y": -2.1812062975,
				"z": 0.9348413298,
				"element": "H" 
			},
			{
				"x": -0.4211925255,
				"y": -2.9803938483,
				"z": -0.5711995091,
				"element": "H" 
			},
			{
				"x": 0.4565089608,
				"y": 0.2629569471,
				"z": 0.9909017342,
				"element": "H" 
			},
			{
				"x": 1.2476293739,
				"y": 2.2457028746,
				"z": -0.2614584669,
				"element": "H" 
			},
			{
				"x": 1.167511524,
				"y": 2.2654967886,
				"z": -2.7476256295,
				"element": "H" 
			},
			{
				"x": 0.2906615824,
				"y": 0.2820056085,
				"z": -3.9663053607,
				"element": "H" 
			},
			{
				"x": -0.4996613612,
				"y": -1.6982748951,
				"z": -2.709748446,
				"element": "H" 
			}
		],
		 "valence_orbital": [ 
			{
				"type": "occ",
				"energy": -0.33856,
				"method": "rhf"
			},
			{
				"type": "occ",
				"energy": -0.26395,
				"method": "rhf"
			},
			{
				"type": "occ",
				"energy": -0.26012,
				"method": "rhf"
			},
			{
				"type": "occ",
				"energy": -0.24455,
				"method": "rhf"
			},
			{
				"type": "occ",
				"energy": -0.23255,
				"method": "rhf"
			},
			{
				"type": "unocc",
				"energy": -0.01259,
				"method": "rhf"
			},
			{
				"type": "unocc",
				"energy": -0.01113,
				"method": "rhf"
			},
			{
				"type": "unocc",
				"energy": 0.04027,
				"method": "rhf"
			},
			{
				"type": "unocc",
				"energy": 0.08493,
				"method": "rhf"
			},
			{
				"type": "unocc",
				"energy": 0.10294,
				"method": "rhf"
			}
		],
		"cosmo_sigma_profile": { 
			"-0.025": 0.0,
			"-0.024": 0.0,
			"-0.023": 0.0,
			"-0.022": 0.0,
			"-0.021": 0.0,
			"-0.02": 0.0,
			"-0.019": 0.0,
			"-0.018": 0.0,
			"-0.017": 0.0,
			"-0.016": 0.0,
			"-0.015": 0.0,
			"-0.014": 0.0,
			"-0.013": 0.0,
			"-0.012": 0.292702307503,
			"-0.011": 0.807318751897,
			"-0.01": 0.472562798309,
			"-0.009": 0.726336699863,
			"-0.008": 0.750749197571,
			"-0.007": 1.02162341768,
			"-0.006": 10.406814327,
			"-0.005": 20.0487230899,
			"-0.004": 22.2571789397,
			"-0.003": 21.804300602,
			"-0.002": 19.2369459457,
			"-0.001": 17.4619251668,
			"0.0": 12.0539042717,
			"0.001": 11.9133217669,
			"0.002": 10.0610709627,
			"0.003": 11.346695644,
			"0.004": 9.26330204312,
			"0.005": 8.71359684725,
			"0.006": 4.78904908574,
			"0.007": 1.34784028133,
			"0.008": 1.42361087834,
			"0.009": 1.90256726878,
			"0.01": 1.01890560336,
			"0.011": 1.36978761257,
			"0.012": 1.64417884359,
			"0.013": 1.93856926224,
			"0.014": 5.63982213746,
			"0.015": 2.88674364464,
			"0.016": 0.243460993361,
			"0.017": 0.0,
			"0.018": 0.0,
			"0.019": 0.0,
			"0.02": 0.0,
			"0.021": 0.0,
			"0.022": 0.0,
			"0.023": 0.0,
			"0.024": 0.0,
			"0.025": 0.0
		}
	}
}
