{
	 "smiles": "NC1=NC(=CS1)C1=C(OC(F)F)C=C(OC(F)F)C=C1", 
	 "Tm": 360.15, 
	 "num_atms": 28, 
	 "gaussian": { 
		 "optdone": 1, 
		 "sigma_profile": "yes", 
		 "theory": "DFT", 
		 "functional": "B3LYP", 
		 "basiset": "6-31G**", 
		 "properties": { 
			 "R2extent": 8213.3919, 
			 "electric_dipole_moment_norm": 4.18890933418, 
			 "electric_quadrupole_moment_norm": 14.6776293311, 
			 "total_energy": -1481.4722698, 
			 "HOMO_LUMO_gap": 0.17876, 
			 "cosmo_polarized_energy": -14.2, 
			 "cosmo_cavitation_energy": 36.84, 
			 "cosmo_dispersion_energy": -25.96, 
			 "cosmo_repulsion_energy": 1.88, 
			 "cosmo_total_nonelectrostatic_energy": 12.76, 
			 "SMD_solvation_energy": 7.76 
		},
		"coords": [
			{
				"x": -1.666571765,
				"y": -0.2193019952,
				"z": -4.7722965148,
				"element": "N" 
			},
			{
				"x": -0.7568716249,
				"y": -0.5530172232,
				"z": -3.7968758785,
				"element": "C" 
			},
			{
				"x": -0.982670576,
				"y": -0.4316303505,
				"z": -2.5214463354,
				"element": "N" 
			},
			{
				"x": 0.1372484099,
				"y": -0.7770930013,
				"z": -1.7781661923,
				"element": "C" 
			},
			{
				"x": 1.228089657,
				"y": -1.165208538,
				"z": -2.5054270676,
				"element": "C" 
			},
			{
				"x": 0.8751215665,
				"y": -1.0951925383,
				"z": -4.2128476522,
				"element": "S" 
			},
			{
				"x": 0.1036270099,
				"y": -0.697887553,
				"z": -0.3039594823,
				"element": "C" 
			},
			{
				"x": -1.0148739794,
				"y": -1.0912245339,
				"z": 0.4507521497,
				"element": "C" 
			},
			{
				"x": -2.1112032212,
				"y": -1.6707370714,
				"z": -0.1767455238,
				"element": "O" 
			},
			{
				"x": -3.1706240635,
				"y": -0.831340811,
				"z": -0.4401248265,
				"element": "C" 
			},
			{
				"x": -3.8550622392,
				"y": -0.5582199545,
				"z": 0.7134611276,
				"element": "F" 
			},
			{
				"x": -4.0030570924,
				"y": -1.5061130213,
				"z": -1.2542777011,
				"element": "F" 
			},
			{
				"x": -1.0323245438,
				"y": -1.0154793162,
				"z": 1.8440673887,
				"element": "C" 
			},
			{
				"x": 0.09169997,
				"y": -0.5281423207,
				"z": 2.5105546415,
				"element": "C" 
			},
			{
				"x": 0.1713716193,
				"y": -0.4170439516,
				"z": 3.8867912213,
				"element": "O" 
			},
			{
				"x": -0.9957540728,
				"y": -0.2562865787,
				"z": 4.5964785568,
				"element": "C" 
			},
			{
				"x": -1.6308467934,
				"y": -1.4518559052,
				"z": 4.758315878,
				"element": "F" 
			},
			{
				"x": -0.6461794419,
				"y": 0.1870162614,
				"z": 5.8156319618,
				"element": "F" 
			},
			{
				"x": 1.227681103,
				"y": -0.1422321326,
				"z": 1.7958047058,
				"element": "C" 
			},
			{
				"x": 1.2218332741,
				"y": -0.2299192535,
				"z": 0.4097293143,
				"element": "C" 
			},
			{
				"x": -2.6119108249,
				"y": -0.1399674383,
				"z": -4.4200698831,
				"element": "H" 
			},
			{
				"x": -1.5987775168,
				"y": -0.7151192933,
				"z": -5.6495187116,
				"element": "H" 
			},
			{
				"x": 2.1831880276,
				"y": -1.5238285964,
				"z": -2.152086244,
				"element": "H" 
			},
			{
				"x": -2.8630262006,
				"y": 0.1087542989,
				"z": -0.9028621134,
				"element": "H" 
			},
			{
				"x": -1.9019006247,
				"y": -1.3795255375,
				"z": 2.3743940306,
				"element": "H" 
			},
			{
				"x": -1.6915708032,
				"y": 0.4434221264,
				"z": 4.1182523887,
				"element": "H" 
			},
			{
				"x": 2.0889362619,
				"y": 0.2360026555,
				"z": 2.3351300467,
				"element": "H" 
			},
			{
				"x": 2.0920284845,
				"y": 0.1012715737,
				"z": -0.1478592851,
				"element": "H" 
			}
		],
		 "valence_orbital": [ 
			{
				"type": "occ",
				"energy": -0.28862,
				"method": "rhf"
			},
			{
				"type": "occ",
				"energy": -0.28431,
				"method": "rhf"
			},
			{
				"type": "occ",
				"energy": -0.26519,
				"method": "rhf"
			},
			{
				"type": "occ",
				"energy": -0.25156,
				"method": "rhf"
			},
			{
				"type": "occ",
				"energy": -0.21404,
				"method": "rhf"
			},
			{
				"type": "unocc",
				"energy": -0.03528,
				"method": "rhf"
			},
			{
				"type": "unocc",
				"energy": -0.02077,
				"method": "rhf"
			},
			{
				"type": "unocc",
				"energy": -0.0049,
				"method": "rhf"
			},
			{
				"type": "unocc",
				"energy": 0.00839,
				"method": "rhf"
			},
			{
				"type": "unocc",
				"energy": 0.06146,
				"method": "rhf"
			}
		],
		"cosmo_sigma_profile": { 
			"-0.025": 0.0,
			"-0.024": 0.0,
			"-0.023": 0.0,
			"-0.022": 0.0,
			"-0.021": 0.0,
			"-0.02": 0.0,
			"-0.019": 0.0,
			"-0.018": 0.0,
			"-0.017": 0.0,
			"-0.016": 0.0,
			"-0.015": 0.493820723187,
			"-0.014": 2.0380093518,
			"-0.013": 2.94113995228,
			"-0.012": 1.9733738589,
			"-0.011": 3.70490521218,
			"-0.01": 5.2060078131,
			"-0.009": 4.8032634598,
			"-0.008": 7.69614433443,
			"-0.007": 9.9881544365,
			"-0.006": 11.0320824261,
			"-0.005": 11.0575078893,
			"-0.004": 10.5020922239,
			"-0.003": 9.89140032899,
			"-0.002": 10.976318266,
			"-0.001": 12.5916181355,
			"0.0": 16.9852897209,
			"0.001": 25.9300849498,
			"0.002": 35.5504830619,
			"0.003": 46.3326324045,
			"0.004": 37.8386800449,
			"0.005": 9.45863439293,
			"0.006": 6.6589186161,
			"0.007": 5.18876781513,
			"0.008": 4.34849498589,
			"0.009": 3.1896014373,
			"0.01": 0.820648772793,
			"0.011": 0.425621610226,
			"0.012": 0.177263192512,
			"0.013": 0.0,
			"0.014": 0.0,
			"0.015": 0.0,
			"0.016": 0.0,
			"0.017": 0.0,
			"0.018": 0.0,
			"0.019": 0.0,
			"0.02": 0.0,
			"0.021": 0.0,
			"0.022": 0.0,
			"0.023": 0.0,
			"0.024": 0.0,
			"0.025": 0.0
		}
	}
}
