{
	 "smiles": "OC(=O)C1=C(NC(=O)OCC2=CC=CC=C2)C=CC(O)=C1", 
	 "Tm": 450.15, 
	 "num_atms": 34, 
	 "gaussian": { 
		 "optdone": 1, 
		 "sigma_profile": "yes", 
		 "theory": "DFT", 
		 "functional": "B3LYP", 
		 "basiset": "6-31G**", 
		 "properties": { 
			 "R2extent": 9045.8598, 
			 "electric_dipole_moment_norm": 2.20283572924, 
			 "electric_quadrupole_moment_norm": 8.32867206102, 
			 "total_energy": -1010.34300392, 
			 "HOMO_LUMO_gap": 0.15633, 
			 "cosmo_polarized_energy": -17.43, 
			 "cosmo_cavitation_energy": 39.39, 
			 "cosmo_dispersion_energy": -28.66, 
			 "cosmo_repulsion_energy": 2.19, 
			 "cosmo_total_nonelectrostatic_energy": 12.92, 
			 "SMD_solvation_energy": 8.84 
		},
		"coords": [
			{
				"x": -1.4205339501,
				"y": 0.6818858242,
				"z": 3.1239218802,
				"element": "O" 
			},
			{
				"x": -0.2621435235,
				"y": 1.03848322,
				"z": 3.756951871,
				"element": "C" 
			},
			{
				"x": -0.2869355733,
				"y": 1.3732168085,
				"z": 4.9250735235,
				"element": "O" 
			},
			{
				"x": 0.960968158,
				"y": 0.9785154614,
				"z": 2.9165782629,
				"element": "C" 
			},
			{
				"x": 1.0380299485,
				"y": 0.5899286867,
				"z": 1.5523849238,
				"element": "C" 
			},
			{
				"x": -0.1130559709,
				"y": 0.2078735912,
				"z": 0.8482270659,
				"element": "N" 
			},
			{
				"x": -0.2170607662,
				"y": -0.1986167331,
				"z": -0.4583297839,
				"element": "C" 
			},
			{
				"x": 0.6817254424,
				"y": -0.313310316,
				"z": -1.2743784599,
				"element": "O" 
			},
			{
				"x": -1.5282484522,
				"y": -0.4547295599,
				"z": -0.713074398,
				"element": "O" 
			},
			{
				"x": -1.8404040294,
				"y": -0.9412865947,
				"z": -2.0452661526,
				"element": "C" 
			},
			{
				"x": -1.8569728636,
				"y": -2.4491354514,
				"z": -2.1047322902,
				"element": "C" 
			},
			{
				"x": -3.0577723157,
				"y": -3.1510123842,
				"z": -1.9440769739,
				"element": "C" 
			},
			{
				"x": -3.078051594,
				"y": -4.5457173959,
				"z": -1.9890723693,
				"element": "C" 
			},
			{
				"x": -1.8922616053,
				"y": -5.2531244309,
				"z": -2.1942738737,
				"element": "C" 
			},
			{
				"x": -0.6892129397,
				"y": -4.5613523578,
				"z": -2.3548592988,
				"element": "C" 
			},
			{
				"x": -0.6703893697,
				"y": -3.1673345198,
				"z": -2.3118226977,
				"element": "C" 
			},
			{
				"x": 2.3031940128,
				"y": 0.6007801876,
				"z": 0.9311392283,
				"element": "C" 
			},
			{
				"x": 3.443020464,
				"y": 0.9773178513,
				"z": 1.6236137471,
				"element": "C" 
			},
			{
				"x": 3.369177402,
				"y": 1.3604241738,
				"z": 2.9690235815,
				"element": "C" 
			},
			{
				"x": 4.5308715812,
				"y": 1.7202676129,
				"z": 3.5927824327,
				"element": "O" 
			},
			{
				"x": 2.1342116269,
				"y": 1.3568498214,
				"z": 3.5980279959,
				"element": "C" 
			},
			{
				"x": -2.1231879182,
				"y": 0.766988374,
				"z": 3.7893163066,
				"element": "H" 
			},
			{
				"x": -0.9840540364,
				"y": 0.2286770071,
				"z": 1.3624304284,
				"element": "H" 
			},
			{
				"x": -2.8303537974,
				"y": -0.5311504686,
				"z": -2.2563914258,
				"element": "H" 
			},
			{
				"x": -1.1133673585,
				"y": -0.5229819148,
				"z": -2.7436121181,
				"element": "H" 
			},
			{
				"x": -3.982516891,
				"y": -2.6010146341,
				"z": -1.7860239713,
				"element": "H" 
			},
			{
				"x": -4.0169022338,
				"y": -5.0782897831,
				"z": -1.8665281856,
				"element": "H" 
			},
			{
				"x": -1.9056253088,
				"y": -6.3387573634,
				"z": -2.2318485154,
				"element": "H" 
			},
			{
				"x": 0.235041926,
				"y": -5.1085462906,
				"z": -2.5175627088,
				"element": "H" 
			},
			{
				"x": 0.2624203045,
				"y": -2.624289001,
				"z": -2.4289755349,
				"element": "H" 
			},
			{
				"x": 2.3697620897,
				"y": 0.3066657041,
				"z": -0.1063825866,
				"element": "H" 
			},
			{
				"x": 4.408925597,
				"y": 0.9796214249,
				"z": 1.128817532,
				"element": "H" 
			},
			{
				"x": 4.3372941981,
				"y": 1.9589717326,
				"z": 4.5086354147,
				"element": "H" 
			},
			{
				"x": 2.0315077465,
				"y": 1.6463817173,
				"z": 4.63948715,
				"element": "H" 
			}
		],
		 "valence_orbital": [ 
			{
				"type": "occ",
				"energy": -0.2798,
				"method": "rhf"
			},
			{
				"type": "occ",
				"energy": -0.26338,
				"method": "rhf"
			},
			{
				"type": "occ",
				"energy": -0.25202,
				"method": "rhf"
			},
			{
				"type": "occ",
				"energy": -0.24998,
				"method": "rhf"
			},
			{
				"type": "occ",
				"energy": -0.21008,
				"method": "rhf"
			},
			{
				"type": "unocc",
				"energy": -0.05375,
				"method": "rhf"
			},
			{
				"type": "unocc",
				"energy": -0.01197,
				"method": "rhf"
			},
			{
				"type": "unocc",
				"energy": -0.00311,
				"method": "rhf"
			},
			{
				"type": "unocc",
				"energy": -0.00164,
				"method": "rhf"
			},
			{
				"type": "unocc",
				"energy": 0.05413,
				"method": "rhf"
			}
		],
		"cosmo_sigma_profile": { 
			"-0.025": 0.0,
			"-0.024": 0.0,
			"-0.023": 0.0,
			"-0.022": 0.0,
			"-0.021": 0.0,
			"-0.02": 0.0,
			"-0.019": 0.404270882429,
			"-0.018": 1.53578765915,
			"-0.017": 2.27316593129,
			"-0.016": 1.94196750973,
			"-0.015": 1.7568445177,
			"-0.014": 1.49425828488,
			"-0.013": 1.52502458361,
			"-0.012": 1.71748433387,
			"-0.011": 1.90689487456,
			"-0.01": 1.8244704345,
			"-0.009": 1.50559365398,
			"-0.008": 1.80549381692,
			"-0.007": 4.06743437517,
			"-0.006": 12.6284608546,
			"-0.005": 16.8013903064,
			"-0.004": 21.5199458916,
			"-0.003": 23.8013557362,
			"-0.002": 21.4864102953,
			"-0.001": 22.4561322446,
			"0.0": 21.2893945936,
			"0.001": 21.9703124512,
			"0.002": 28.2276234239,
			"0.003": 26.3953661439,
			"0.004": 17.179764192,
			"0.005": 17.4068601616,
			"0.006": 9.07092154523,
			"0.007": 5.58540234014,
			"0.008": 3.99905280693,
			"0.009": 5.05277768361,
			"0.01": 5.63250110643,
			"0.011": 8.20408610852,
			"0.012": 2.94693688431,
			"0.013": 0.0,
			"0.014": 0.0,
			"0.015": 0.0,
			"0.016": 0.0,
			"0.017": 0.0,
			"0.018": 0.0,
			"0.019": 0.0,
			"0.02": 0.0,
			"0.021": 0.0,
			"0.022": 0.0,
			"0.023": 0.0,
			"0.024": 0.0,
			"0.025": 0.0
		}
	}
}
