{
	 "smiles": "OC(=O)C1CCCN(C1)S(=O)(=O)C1=CC=C(Br)S1", 
	 "Tm": 431.15, 
	 "num_atms": 30, 
	 "gaussian": { 
		 "optdone": 1, 
		 "sigma_profile": "yes", 
		 "theory": "DFT", 
		 "functional": "B3LYP", 
		 "basiset": "6-31G**", 
		 "properties": { 
			 "R2extent": 11471.9323, 
			 "electric_dipole_moment_norm": 6.57096922759, 
			 "electric_quadrupole_moment_norm": 19.8174089058, 
			 "total_energy": -4111.62386679, 
			 "HOMO_LUMO_gap": 0.18482, 
			 "cosmo_polarized_energy": -23.55, 
			 "cosmo_cavitation_energy": 38.35, 
			 "cosmo_dispersion_energy": -27.79, 
			 "cosmo_repulsion_energy": 2.08, 
			 "cosmo_total_nonelectrostatic_energy": 12.65, 
			 "SMD_solvation_energy": 4.19 
		},
		"coords": [
			{
				"x": 2.0920244047,
				"y": 1.4135570295,
				"z": 2.1822849075,
				"element": "O" 
			},
			{
				"x": 0.7698634129,
				"y": 1.0970931256,
				"z": 2.183010726,
				"element": "C" 
			},
			{
				"x": 0.0784204326,
				"y": 1.4104173585,
				"z": 3.1210470139,
				"element": "O" 
			},
			{
				"x": 0.2873561112,
				"y": 0.2857969656,
				"z": 0.9788589787,
				"element": "C" 
			},
			{
				"x": 0.6242853472,
				"y": -1.2214510675,
				"z": 1.2003736991,
				"element": "C" 
			},
			{
				"x": -0.5229004932,
				"y": -1.9036093211,
				"z": 1.9513996064,
				"element": "C" 
			},
			{
				"x": -1.8067742068,
				"y": -1.9207668801,
				"z": 1.095152081,
				"element": "C" 
			},
			{
				"x": -1.7898755238,
				"y": -0.7500649689,
				"z": 0.1798838288,
				"element": "N" 
			},
			{
				"x": -1.2332619329,
				"y": 0.4753602041,
				"z": 0.7770392457,
				"element": "C" 
			},
			{
				"x": -3.1777653468,
				"y": -0.5571638391,
				"z": -0.7596212148,
				"element": "S" 
			},
			{
				"x": -4.0772541941,
				"y": 0.4557466254,
				"z": -0.1934206589,
				"element": "O" 
			},
			{
				"x": -3.6474634338,
				"y": -1.9121757969,
				"z": -1.0514424261,
				"element": "O" 
			},
			{
				"x": -2.5265533987,
				"y": 0.1582098264,
				"z": -2.2502036545,
				"element": "C" 
			},
			{
				"x": -1.8063858406,
				"y": -0.4877928318,
				"z": -3.2224084753,
				"element": "C" 
			},
			{
				"x": -1.4873847541,
				"y": 0.3569829069,
				"z": -4.3209389925,
				"element": "C" 
			},
			{
				"x": -1.9847376095,
				"y": 1.6239026093,
				"z": -4.150146715,
				"element": "C" 
			},
			{
				"x": -1.8065583876,
				"y": 3.0674732689,
				"z": -5.3461990732,
				"element": "Br" 
			},
			{
				"x": -2.8587829523,
				"y": 1.8193539685,
				"z": -2.663089982,
				"element": "S" 
			},
			{
				"x": 2.5073378093,
				"y": 1.1221584359,
				"z": 1.358192444,
				"element": "H" 
			},
			{
				"x": 0.8190889897,
				"y": 0.6337460674,
				"z": 0.0839675201,
				"element": "H" 
			},
			{
				"x": 0.765285852,
				"y": -1.6983321607,
				"z": 0.225128163,
				"element": "H" 
			},
			{
				"x": 1.5665120782,
				"y": -1.3249517405,
				"z": 1.7492815105,
				"element": "H" 
			},
			{
				"x": -0.2590854703,
				"y": -2.9322720281,
				"z": 2.2154408345,
				"element": "H" 
			},
			{
				"x": -0.6999542552,
				"y": -1.3708910942,
				"z": 2.8918451383,
				"element": "H" 
			},
			{
				"x": -2.6924115938,
				"y": -1.9157418332,
				"z": 1.7442662521,
				"element": "H" 
			},
			{
				"x": -1.853059859,
				"y": -2.817434238,
				"z": 0.4748628606,
				"element": "H" 
			},
			{
				"x": -1.7075179598,
				"y": 0.7095702695,
				"z": 1.7366342148,
				"element": "H" 
			},
			{
				"x": -1.4211058229,
				"y": 1.3183180244,
				"z": 0.1093216209,
				"element": "H" 
			},
			{
				"x": -1.5280428702,
				"y": -1.5326313004,
				"z": -3.1532309332,
				"element": "H" 
			},
			{
				"x": -0.9277985323,
				"y": 0.0477924144,
				"z": -5.1945885204,
				"element": "H" 
			}
		],
		 "valence_orbital": [ 
			{
				"type": "occ",
				"energy": -0.30802,
				"method": "rhf"
			},
			{
				"type": "occ",
				"energy": -0.28503,
				"method": "rhf"
			},
			{
				"type": "occ",
				"energy": -0.2835,
				"method": "rhf"
			},
			{
				"type": "occ",
				"energy": -0.26592,
				"method": "rhf"
			},
			{
				"type": "occ",
				"energy": -0.24627,
				"method": "rhf"
			},
			{
				"type": "unocc",
				"energy": -0.06145,
				"method": "rhf"
			},
			{
				"type": "unocc",
				"energy": -0.02349,
				"method": "rhf"
			},
			{
				"type": "unocc",
				"energy": -0.00609,
				"method": "rhf"
			},
			{
				"type": "unocc",
				"energy": -0.00078,
				"method": "rhf"
			},
			{
				"type": "unocc",
				"energy": 0.02017,
				"method": "rhf"
			}
		],
		"cosmo_sigma_profile": { 
			"-0.025": 0.0,
			"-0.024": 0.0,
			"-0.023": 0.0,
			"-0.022": 0.0,
			"-0.021": 0.0,
			"-0.02": 0.0,
			"-0.019": 0.624875926862,
			"-0.018": 1.13838623304,
			"-0.017": 1.18211859449,
			"-0.016": 1.15485401502,
			"-0.015": 0.874795603254,
			"-0.014": 1.14399880196,
			"-0.013": 0.819844603531,
			"-0.012": 1.03732864318,
			"-0.011": 1.50653197272,
			"-0.01": 1.62989485006,
			"-0.009": 3.71280047834,
			"-0.008": 4.69145619118,
			"-0.007": 8.48815828856,
			"-0.006": 10.2159300409,
			"-0.005": 17.9840530171,
			"-0.004": 25.7646002578,
			"-0.003": 25.4841519627,
			"-0.002": 25.1650122816,
			"-0.001": 24.0397003754,
			"0.0": 24.3908627795,
			"0.001": 24.9426928531,
			"0.002": 20.3380531402,
			"0.003": 15.0663681312,
			"0.004": 6.95053526214,
			"0.005": 5.18044073206,
			"0.006": 5.11647397122,
			"0.007": 5.10696894131,
			"0.008": 6.67459567332,
			"0.009": 7.16801476471,
			"0.01": 13.1055362691,
			"0.011": 12.5569213192,
			"0.012": 4.78752622501,
			"0.013": 1.23118986519,
			"0.014": 0.0,
			"0.015": 0.0,
			"0.016": 0.0,
			"0.017": 0.0,
			"0.018": 0.0,
			"0.019": 0.0,
			"0.02": 0.0,
			"0.021": 0.0,
			"0.022": 0.0,
			"0.023": 0.0,
			"0.024": 0.0,
			"0.025": 0.0
		}
	}
}
