{
	 "smiles": "O=C(CC(=O)NC1=CC=CC=C1)NC1=CC=CC=C1", 
	 "Tm": 494.15, 
	 "num_atms": 33, 
	 "gaussian": { 
		 "optdone": 1, 
		 "sigma_profile": "yes", 
		 "theory": "DFT", 
		 "functional": "B3LYP", 
		 "basiset": "6-31G**", 
		 "properties": { 
			 "R2extent": 5831.6357, 
			 "electric_dipole_moment_norm": 6.67725617151, 
			 "electric_quadrupole_moment_norm": 12.2619188947, 
			 "total_energy": -840.012668711, 
			 "HOMO_LUMO_gap": 0.18407, 
			 "cosmo_polarized_energy": -20.47, 
			 "cosmo_cavitation_energy": 37.61, 
			 "cosmo_dispersion_energy": -25.66, 
			 "cosmo_repulsion_energy": 1.97, 
			 "cosmo_total_nonelectrostatic_energy": 13.92, 
			 "SMD_solvation_energy": 7.26 
		},
		"coords": [
			{
				"x": 2.1533514641,
				"y": -1.9003701174,
				"z": 0.4760240015,
				"element": "O" 
			},
			{
				"x": 1.5658983156,
				"y": -0.8321369063,
				"z": 0.4603206716,
				"element": "C" 
			},
			{
				"x": 2.2320024345,
				"y": 0.4523596757,
				"z": -0.0694229632,
				"element": "C" 
			},
			{
				"x": 1.6216421161,
				"y": 0.8868181223,
				"z": -1.402058511,
				"element": "C" 
			},
			{
				"x": 1.9267843498,
				"y": 0.3418169238,
				"z": -2.4489184743,
				"element": "O" 
			},
			{
				"x": 0.6533762305,
				"y": 1.8801280942,
				"z": -1.3959270458,
				"element": "N" 
			},
			{
				"x": 0.1254087519,
				"y": 2.6534947639,
				"z": -0.3272718251,
				"element": "C" 
			},
			{
				"x": 0.949170166,
				"y": 3.4701293071,
				"z": 0.4614552119,
				"element": "C" 
			},
			{
				"x": 0.3992417685,
				"y": 4.2264682444,
				"z": 1.4965752059,
				"element": "C" 
			},
			{
				"x": -0.976725983,
				"y": 4.2066466005,
				"z": 1.7339399955,
				"element": "C" 
			},
			{
				"x": -1.8042409598,
				"y": 3.419725146,
				"z": 0.9305653502,
				"element": "C" 
			},
			{
				"x": -1.2579985536,
				"y": 2.6387035345,
				"z": -0.0893722994,
				"element": "C" 
			},
			{
				"x": 0.2794196776,
				"y": -0.6372297385,
				"z": 0.9109840527,
				"element": "N" 
			},
			{
				"x": -0.6159936996,
				"y": -1.5788199377,
				"z": 1.4650781177,
				"element": "C" 
			},
			{
				"x": -0.3257983418,
				"y": -2.9474362228,
				"z": 1.5763519998,
				"element": "C" 
			},
			{
				"x": -1.2772400018,
				"y": -3.8029441576,
				"z": 2.1327829716,
				"element": "C" 
			},
			{
				"x": -2.5098593658,
				"y": -3.3254895143,
				"z": 2.5799219407,
				"element": "C" 
			},
			{
				"x": -2.7928813904,
				"y": -1.9628878504,
				"z": 2.4671492406,
				"element": "C" 
			},
			{
				"x": -1.8551809996,
				"y": -1.0946224915,
				"z": 1.9152163596,
				"element": "C" 
			},
			{
				"x": 2.1785343458,
				"y": 1.2325201117,
				"z": 0.6926905248,
				"element": "H" 
			},
			{
				"x": 3.2739373972,
				"y": 0.198681492,
				"z": -0.2594120103,
				"element": "H" 
			},
			{
				"x": 0.1996585967,
				"y": 1.9644241867,
				"z": -2.2982618345,
				"element": "H" 
			},
			{
				"x": 2.011278358,
				"y": 3.5245572923,
				"z": 0.2451559103,
				"element": "H" 
			},
			{
				"x": 1.0476365603,
				"y": 4.8502784693,
				"z": 2.1045459834,
				"element": "H" 
			},
			{
				"x": -1.4014134801,
				"y": 4.8061830789,
				"z": 2.5330322664,
				"element": "H" 
			},
			{
				"x": -2.876876104,
				"y": 3.4059198995,
				"z": 1.0998564671,
				"element": "H" 
			},
			{
				"x": -1.8966660807,
				"y": 2.0150625177,
				"z": -0.7089409883,
				"element": "H" 
			},
			{
				"x": -0.0732428457,
				"y": 0.310140351,
				"z": 0.8720606576,
				"element": "H" 
			},
			{
				"x": 0.6295338657,
				"y": -3.3172064681,
				"z": 1.2327101856,
				"element": "H" 
			},
			{
				"x": -1.0443068502,
				"y": -4.8609083153,
				"z": 2.2149194131,
				"element": "H" 
			},
			{
				"x": -3.2397343221,
				"y": -4.0041112736,
				"z": 3.0106258088,
				"element": "H" 
			},
			{
				"x": -3.7461168231,
				"y": -1.5708319376,
				"z": 2.8103252686,
				"element": "H" 
			},
			{
				"x": -2.0789985971,
				"y": -0.0332628802,
				"z": 1.8318983471,
				"element": "H" 
			}
		],
		 "valence_orbital": [ 
			{
				"type": "occ",
				"energy": -0.26589,
				"method": "rhf"
			},
			{
				"type": "occ",
				"energy": -0.25279,
				"method": "rhf"
			},
			{
				"type": "occ",
				"energy": -0.2492,
				"method": "rhf"
			},
			{
				"type": "occ",
				"energy": -0.24893,
				"method": "rhf"
			},
			{
				"type": "occ",
				"energy": -0.2189,
				"method": "rhf"
			},
			{
				"type": "unocc",
				"energy": -0.03483,
				"method": "rhf"
			},
			{
				"type": "unocc",
				"energy": -0.03229,
				"method": "rhf"
			},
			{
				"type": "unocc",
				"energy": -0.01529,
				"method": "rhf"
			},
			{
				"type": "unocc",
				"energy": 0.00053,
				"method": "rhf"
			},
			{
				"type": "unocc",
				"energy": 0.01482,
				"method": "rhf"
			}
		],
		"cosmo_sigma_profile": { 
			"-0.025": 0.0,
			"-0.024": 0.0,
			"-0.023": 0.0,
			"-0.022": 0.0,
			"-0.021": 0.0,
			"-0.02": 0.0,
			"-0.019": 0.0,
			"-0.018": 0.0,
			"-0.017": 0.0,
			"-0.016": 0.0,
			"-0.015": 0.143685984768,
			"-0.014": 0.98444232453,
			"-0.013": 1.26802082703,
			"-0.012": 0.621227156809,
			"-0.011": 0.839249439112,
			"-0.01": 1.84122800853,
			"-0.009": 2.6063539421,
			"-0.008": 3.69473684019,
			"-0.007": 9.98153181451,
			"-0.006": 21.5719714269,
			"-0.005": 25.4089122575,
			"-0.004": 27.7360816864,
			"-0.003": 22.8143567114,
			"-0.002": 16.9956474865,
			"-0.001": 16.5999256131,
			"0.0": 15.1009673165,
			"0.001": 17.2910755167,
			"0.002": 20.6076062332,
			"0.003": 17.4950933672,
			"0.004": 20.7214522899,
			"0.005": 14.6946498557,
			"0.006": 10.1256443329,
			"0.007": 3.31985703162,
			"0.008": 2.63536957235,
			"0.009": 2.1949144959,
			"0.01": 4.01298406267,
			"0.011": 4.05120172501,
			"0.012": 6.08291356189,
			"0.013": 7.73638328761,
			"0.014": 1.7386689096,
			"0.015": 0.0122742699271,
			"0.016": 0.0,
			"0.017": 0.0,
			"0.018": 0.0,
			"0.019": 0.0,
			"0.02": 0.0,
			"0.021": 0.0,
			"0.022": 0.0,
			"0.023": 0.0,
			"0.024": 0.0,
			"0.0": 0.0
		}
	}
}
