{
	 "smiles": "CC(=O)NCC1=CC=C(S1)C(O)=O", 
	 "Tm": 460.15, 
	 "num_atms": 22, 
	 "gaussian": { 
		 "optdone": 1, 
		 "sigma_profile": "yes", 
		 "theory": "DFT", 
		 "functional": "B3LYP", 
		 "basiset": "6-31G**", 
		 "properties": { 
			 "R2extent": 4837.0813, 
			 "electric_dipole_moment_norm": 1.98661150958, 
			 "electric_quadrupole_moment_norm": 20.5533302788, 
			 "total_energy": -988.909093993, 
			 "HOMO_LUMO_gap": 0.18474, 
			 "cosmo_polarized_energy": -17.68, 
			 "cosmo_cavitation_energy": 28.84, 
			 "cosmo_dispersion_energy": -21.1, 
			 "cosmo_repulsion_energy": 1.66, 
			 "cosmo_total_nonelectrostatic_energy": 9.4, 
			 "SMD_solvation_energy": 6.02 
		},
		"coords": [
			{
				"x": 3.0899163003,
				"y": 1.0719616685,
				"z": -2.1774181984,
				"element": "C" 
			},
			{
				"x": 2.4640182445,
				"y": 1.6494440176,
				"z": -0.9186457919,
				"element": "C" 
			},
			{
				"x": 2.8354178465,
				"y": 1.3256570638,
				"z": 0.203575789,
				"element": "O" 
			},
			{
				"x": 1.4626208054,
				"y": 2.5640076794,
				"z": -1.1223774282,
				"element": "N" 
			},
			{
				"x": 0.7039195384,
				"y": 3.1019228035,
				"z": 0.0034041688,
				"element": "C" 
			},
			{
				"x": -0.4562514411,
				"y": 2.2335425862,
				"z": 0.4257203222,
				"element": "C" 
			},
			{
				"x": -0.4003876792,
				"y": 1.0887630294,
				"z": 1.1895622775,
				"element": "C" 
			},
			{
				"x": -1.6689871845,
				"y": 0.4794884224,
				"z": 1.3637092786,
				"element": "C" 
			},
			{
				"x": -2.683583489,
				"y": 1.1622562061,
				"z": 0.7289630249,
				"element": "C" 
			},
			{
				"x": -2.0799618902,
				"y": 2.5743607063,
				"z": -0.0927833562,
				"element": "S" 
			},
			{
				"x": -4.1162744233,
				"y": 0.8650062686,
				"z": 0.67908634,
				"element": "C" 
			},
			{
				"x": -4.4341808765,
				"y": -0.2590998911,
				"z": 1.3710578725,
				"element": "O" 
			},
			{
				"x": -4.947691554,
				"y": 1.5312556045,
				"z": 0.0908073504,
				"element": "O" 
			},
			{
				"x": 2.7881314438,
				"y": 1.5857342247,
				"z": -3.0942223805,
				"element": "H" 
			},
			{
				"x": 2.8140953171,
				"y": 0.0158451233,
				"z": -2.2567016621,
				"element": "H" 
			},
			{
				"x": 4.1767065737,
				"y": 1.1194997816,
				"z": -2.0791366022,
				"element": "H" 
			},
			{
				"x": 1.0871083841,
				"y": 2.6797988253,
				"z": -2.052041428,
				"element": "H" 
			},
			{
				"x": 1.4046158752,
				"y": 3.184213805,
				"z": 0.8373611042,
				"element": "H" 
			},
			{
				"x": 0.3637897019,
				"y": 4.1084176087,
				"z": -0.2568103294,
				"element": "H" 
			},
			{
				"x": 0.5316424313,
				"y": 0.7088769364,
				"z": 1.5914432519,
				"element": "H" 
			},
			{
				"x": -1.8458145334,
				"y": -0.4241640193,
				"z": 1.9344361564,
				"element": "H" 
			},
			{
				"x": -5.3949493913,
				"y": -0.3626884507,
				"z": 1.2737102403,
				"element": "H" 
			}
		],
		 "valence_orbital": [ 
			{
				"type": "occ",
				"energy": -0.27933,
				"method": "rhf"
			},
			{
				"type": "occ",
				"energy": -0.2706,
				"method": "rhf"
			},
			{
				"type": "occ",
				"energy": -0.2627,
				"method": "rhf"
			},
			{
				"type": "occ",
				"energy": -0.25435,
				"method": "rhf"
			},
			{
				"type": "occ",
				"energy": -0.24187,
				"method": "rhf"
			},
			{
				"type": "unocc",
				"energy": -0.05713,
				"method": "rhf"
			},
			{
				"type": "unocc",
				"energy": 0.01386,
				"method": "rhf"
			},
			{
				"type": "unocc",
				"energy": 0.021,
				"method": "rhf"
			},
			{
				"type": "unocc",
				"energy": 0.03164,
				"method": "rhf"
			},
			{
				"type": "unocc",
				"energy": 0.07094,
				"method": "rhf"
			}
		],
		"cosmo_sigma_profile": { 
			"-0.025": 0.0,
			"-0.024": 0.0,
			"-0.023": 0.0,
			"-0.022": 0.0,
			"-0.021": 0.0,
			"-0.02": 0.0,
			"-0.019": 0.174216964222,
			"-0.018": 0.634247156465,
			"-0.017": 0.923301664587,
			"-0.016": 0.780484810149,
			"-0.015": 1.38942024563,
			"-0.014": 1.76172018069,
			"-0.013": 1.91528611025,
			"-0.012": 2.24205186766,
			"-0.011": 2.62747162968,
			"-0.01": 1.89681880417,
			"-0.009": 2.15354709118,
			"-0.008": 4.31759998138,
			"-0.007": 7.08264744277,
			"-0.006": 9.46189430209,
			"-0.005": 12.7180308492,
			"-0.004": 12.8424607357,
			"-0.003": 15.4212780947,
			"-0.002": 16.5728463047,
			"-0.001": 14.4589476465,
			"0.0": 14.5327775952,
			"0.001": 16.1568654183,
			"0.002": 22.654430424,
			"0.003": 17.7946821182,
			"0.004": 6.64706399291,
			"0.005": 6.62609327046,
			"0.006": 3.22363429717,
			"0.007": 4.91113311305,
			"0.008": 4.22211840653,
			"0.009": 3.07401143295,
			"0.01": 3.42196063594,
			"0.011": 5.35659174663,
			"0.012": 5.66716829354,
			"0.013": 2.85395168244,
			"0.014": 3.18314739067,
			"0.015": 1.37419831906,
			"0.016": 0.089363451278,
			"0.017": 0.0,
			"0.018": 0.0,
			"0.019": 0.0,
			"0.02": 0.0,
			"0.021": 0.0,
			"0.022": 0.0,
			"0.023": 0.0,
			"0.024": 0.0,
			"0.025": 0.0
		}
	}
}
