{
	 "smiles": "NC1=CC=C(C=C1)N=NC1=CC=CC=C1", 
	 "Tm": 400.15, 
	 "num_atms": 26, 
	 "gaussian": { 
		 "optdone": 1, 
		 "sigma_profile": "yes", 
		 "theory": "DFT", 
		 "functional": "B3LYP", 
		 "basiset": "6-31G**", 
		 "properties": { 
			 "R2extent": 5839.8215, 
			 "electric_dipole_moment_norm": 3.17347393561, 
			 "electric_quadrupole_moment_norm": 31.3374773565, 
			 "total_energy": -628.125403734, 
			 "HOMO_LUMO_gap": 0.13018, 
			 "cosmo_polarized_energy": -12.73, 
			 "cosmo_cavitation_energy": 30.99, 
			 "cosmo_dispersion_energy": -22.89, 
			 "cosmo_repulsion_energy": 1.79, 
			 "cosmo_total_nonelectrostatic_energy": 9.89, 
			 "SMD_solvation_energy": 3.99 
		},
		"coords": [
			{
				"x": 1.8514242587,
				"y": 5.8276502163,
				"z": -2.4109234853,
				"element": "N" 
			},
			{
				"x": 1.3716953668,
				"y": 4.577611643,
				"z": -2.0535077644,
				"element": "C" 
			},
			{
				"x": 1.1645291315,
				"y": 3.5829109082,
				"z": -3.0361474497,
				"element": "C" 
			},
			{
				"x": 0.7329884173,
				"y": 2.3171610775,
				"z": -2.6832617866,
				"element": "C" 
			},
			{
				"x": 0.4919019573,
				"y": 1.9959761176,
				"z": -1.3327673942,
				"element": "C" 
			},
			{
				"x": 0.6990890379,
				"y": 2.9831491048,
				"z": -0.3568499551,
				"element": "C" 
			},
			{
				"x": 1.1311267343,
				"y": 4.2550004493,
				"z": -0.7044722766,
				"element": "C" 
			},
			{
				"x": 0.0498191929,
				"y": 0.745913391,
				"z": -0.8639380345,
				"element": "N" 
			},
			{
				"x": -0.1337823865,
				"y": -0.1312197385,
				"z": -1.7559530721,
				"element": "N" 
			},
			{
				"x": -0.578720105,
				"y": -1.3856872127,
				"z": -1.2687028761,
				"element": "C" 
			},
			{
				"x": -0.8125385626,
				"y": -1.6850358645,
				"z": 0.0853737728,
				"element": "C" 
			},
			{
				"x": -1.2490728841,
				"y": -2.9549345479,
				"z": 0.4452175863,
				"element": "C" 
			},
			{
				"x": -1.457662865,
				"y": -3.9381582285,
				"z": -0.5306436311,
				"element": "C" 
			},
			{
				"x": -1.2261758216,
				"y": -3.6433344815,
				"z": -1.8754688481,
				"element": "C" 
			},
			{
				"x": -0.7883816057,
				"y": -2.3719005928,
				"z": -2.2427746469,
				"element": "C" 
			},
			{
				"x": 1.7134387459,
				"y": 6.1071091088,
				"z": -3.3711892163,
				"element": "H" 
			},
			{
				"x": 1.6991840784,
				"y": 6.5762172324,
				"z": -1.7508354323,
				"element": "H" 
			},
			{
				"x": 1.352269358,
				"y": 3.8223611997,
				"z": -4.0803023696,
				"element": "H" 
			},
			{
				"x": 0.5705032794,
				"y": 1.5528377387,
				"z": -3.4347933316,
				"element": "H" 
			},
			{
				"x": 0.5084087317,
				"y": 2.7241410456,
				"z": 0.6800180727,
				"element": "H" 
			},
			{
				"x": 1.2894116792,
				"y": 5.0078806419,
				"z": 0.0634256688,
				"element": "H" 
			},
			{
				"x": -0.6453619712,
				"y": -0.9112078095,
				"z": 0.8257349578,
				"element": "H" 
			},
			{
				"x": -1.4295444983,
				"y": -3.1859006892,
				"z": 1.4916285665,
				"element": "H" 
			},
			{
				"x": -1.798750057,
				"y": -4.9278214059,
				"z": -0.2403169823,
				"element": "H" 
			},
			{
				"x": -1.3862696158,
				"y": -4.4020970917,
				"z": -2.6360767789,
				"element": "H" 
			},
			{
				"x": -0.6000295968,
				"y": -2.1139222121,
				"z": -3.2802732932,
				"element": "H" 
			}
		],
		 "valence_orbital": [ 
			{
				"type": "occ",
				"energy": -0.25381,
				"method": "rhf"
			},
			{
				"type": "occ",
				"energy": -0.24777,
				"method": "rhf"
			},
			{
				"type": "occ",
				"energy": -0.24553,
				"method": "rhf"
			},
			{
				"type": "occ",
				"energy": -0.21313,
				"method": "rhf"
			},
			{
				"type": "occ",
				"energy": -0.19699,
				"method": "rhf"
			},
			{
				"type": "unocc",
				"energy": -0.06681,
				"method": "rhf"
			},
			{
				"type": "unocc",
				"energy": -0.00073,
				"method": "rhf"
			},
			{
				"type": "unocc",
				"energy": 0.00516,
				"method": "rhf"
			},
			{
				"type": "unocc",
				"energy": 0.02243,
				"method": "rhf"
			},
			{
				"type": "unocc",
				"energy": 0.05746,
				"method": "rhf"
			}
		],
		"cosmo_sigma_profile": { 
			"-0.025": 0.0,
			"-0.024": 0.0,
			"-0.023": 0.0,
			"-0.022": 0.0,
			"-0.021": 0.0,
			"-0.02": 0.0,
			"-0.019": 0.0,
			"-0.018": 0.0,
			"-0.017": 0.0,
			"-0.016": 0.0,
			"-0.015": 0.0,
			"-0.014": 0.242248496046,
			"-0.013": 2.36986816253,
			"-0.012": 3.39677296844,
			"-0.011": 2.47903137449,
			"-0.01": 3.35508290526,
			"-0.009": 3.28711735648,
			"-0.008": 3.07381447693,
			"-0.007": 3.740578549,
			"-0.006": 10.8967895744,
			"-0.005": 15.3680620381,
			"-0.004": 17.1341851373,
			"-0.003": 16.1154809882,
			"-0.002": 12.4712462845,
			"-0.001": 11.3195324672,
			"0.0": 10.2637938724,
			"0.001": 13.7403949702,
			"0.002": 17.0507040531,
			"0.003": 30.131106429,
			"0.004": 31.6640374931,
			"0.005": 22.3102163283,
			"0.006": 5.98980095368,
			"0.007": 3.28326029366,
			"0.008": 3.49423115219,
			"0.009": 2.81437623161,
			"0.01": 1.11234701605,
			"0.011": 0.539783157328,
			"0.012": 0.569572967781,
			"0.013": 0.0357664286224,
			"0.014": 0.0,
			"0.015": 0.0,
			"0.016": 0.0,
			"0.017": 0.0,
			"0.018": 0.0,
			"0.019": 0.0,
			"0.02": 0.0,
			"0.021": 0.0,
			"0.022": 0.0,
			"0.023": 0.0,
			"0.024": 0.0,
			"0.025": 0.0
		}
	}
}
