{
	 "smiles": "COC(=O)NC1=CC=C(CO)C=C1", 
	 "Tm": 353.15, 
	 "num_atms": 24, 
	 "gaussian": { 
		 "optdone": 1, 
		 "sigma_profile": "yes", 
		 "theory": "DFT", 
		 "functional": "B3LYP", 
		 "basiset": "6-31G**", 
		 "properties": { 
			 "R2extent": 3745.022, 
			 "electric_dipole_moment_norm": 1.7561768789, 
			 "electric_quadrupole_moment_norm": 13.7581311016, 
			 "total_energy": -630.018730481, 
			 "HOMO_LUMO_gap": 0.20781, 
			 "cosmo_polarized_energy": -13.67, 
			 "cosmo_cavitation_energy": 28.3, 
			 "cosmo_dispersion_energy": -20.82, 
			 "cosmo_repulsion_energy": 1.66, 
			 "cosmo_total_nonelectrostatic_energy": 9.14, 
			 "SMD_solvation_energy": 6.67 
		},
		"coords": [
			{
				"x": 2.3684822949,
				"y": 2.9772801224,
				"z": 0.2377688956,
				"element": "C" 
			},
			{
				"x": 1.3730716224,
				"y": 1.9470687578,
				"z": 0.3525945826,
				"element": "O" 
			},
			{
				"x": 1.3243499601,
				"y": 1.3517746472,
				"z": 1.5649091462,
				"element": "C" 
			},
			{
				"x": 2.0508335558,
				"y": 1.6389392931,
				"z": 2.4988759842,
				"element": "O" 
			},
			{
				"x": 0.3624984415,
				"y": 0.3711446317,
				"z": 1.6563079402,
				"element": "N" 
			},
			{
				"x": -0.6010841585,
				"y": -0.1432752248,
				"z": 0.7645037913,
				"element": "C" 
			},
			{
				"x": -1.4683087489,
				"y": -1.1245481988,
				"z": 1.2770982093,
				"element": "C" 
			},
			{
				"x": -2.4495584954,
				"y": -1.6979017266,
				"z": 0.4777974285,
				"element": "C" 
			},
			{
				"x": -2.598528111,
				"y": -1.3159953509,
				"z": -0.861438264,
				"element": "C" 
			},
			{
				"x": -3.6897477261,
				"y": -1.922514471,
				"z": -1.7200625247,
				"element": "C" 
			},
			{
				"x": -3.9615575223,
				"y": -3.2846792024,
				"z": -1.4149232007,
				"element": "O" 
			},
			{
				"x": -1.7263822649,
				"y": -0.3479797622,
				"z": -1.3662591716,
				"element": "C" 
			},
			{
				"x": -0.7390996737,
				"y": 0.2422128099,
				"z": -0.5769815775,
				"element": "C" 
			},
			{
				"x": 2.1807725702,
				"y": 3.7762549268,
				"z": 0.9585686616,
				"element": "H" 
			},
			{
				"x": 3.3667889155,
				"y": 2.5696415597,
				"z": 0.4121792658,
				"element": "H" 
			},
			{
				"x": 2.2801214582,
				"y": 3.3524177466,
				"z": -0.7818107103,
				"element": "H" 
			},
			{
				"x": 0.3597623979,
				"y": -0.0318638669,
				"z": 2.5827002523,
				"element": "H" 
			},
			{
				"x": -1.3694353403,
				"y": -1.4361616017,
				"z": 2.3146769099,
				"element": "H" 
			},
			{
				"x": -3.1080322674,
				"y": -2.4578299757,
				"z": 0.8873349588,
				"element": "H" 
			},
			{
				"x": -3.4387834452,
				"y": -1.7874460902,
				"z": -2.7843795594,
				"element": "H" 
			},
			{
				"x": -4.6406860544,
				"y": -1.4019133563,
				"z": -1.5528170388,
				"element": "H" 
			},
			{
				"x": -3.1313580271,
				"y": -3.7711291762,
				"z": -1.5081780067,
				"element": "H" 
			},
			{
				"x": -1.8111202246,
				"y": -0.0418938843,
				"z": -2.4067852907,
				"element": "H" 
			},
			{
				"x": -0.078699157,
				"y": 0.9851973926,
				"z": -0.9989806818,
				"element": "H" 
			}
		],
		 "valence_orbital": [ 
			{
				"type": "occ",
				"energy": -0.30187,
				"method": "rhf"
			},
			{
				"type": "occ",
				"energy": -0.28064,
				"method": "rhf"
			},
			{
				"type": "occ",
				"energy": -0.27406,
				"method": "rhf"
			},
			{
				"type": "occ",
				"energy": -0.255,
				"method": "rhf"
			},
			{
				"type": "occ",
				"energy": -0.21668,
				"method": "rhf"
			},
			{
				"type": "unocc",
				"energy": -0.00887,
				"method": "rhf"
			},
			{
				"type": "unocc",
				"energy": -0.0063,
				"method": "rhf"
			},
			{
				"type": "unocc",
				"energy": 0.05819,
				"method": "rhf"
			},
			{
				"type": "unocc",
				"energy": 0.07835,
				"method": "rhf"
			},
			{
				"type": "unocc",
				"energy": 0.08846,
				"method": "rhf"
			}
		],
		"cosmo_sigma_profile": { 
			"-0.025": 0.0,
			"-0.024": 0.0,
			"-0.023": 0.0,
			"-0.022": 0.0,
			"-0.021": 0.0,
			"-0.02": 0.0,
			"-0.019": 0.0,
			"-0.018": 0.0,
			"-0.017": 0.0,
			"-0.016": 0.0703457795848,
			"-0.015": 1.10134056521,
			"-0.014": 2.82332055538,
			"-0.013": 1.3508065461,
			"-0.012": 1.35214321034,
			"-0.011": 2.10796502232,
			"-0.01": 2.06993904568,
			"-0.009": 2.50285770032,
			"-0.008": 1.64196649157,
			"-0.007": 3.26955918925,
			"-0.006": 8.18415954244,
			"-0.005": 16.193908255,
			"-0.004": 20.4480082509,
			"-0.003": 21.7440202689,
			"-0.002": 15.0009865887,
			"-0.001": 14.8824922762,
			"0.0": 13.5047465218,
			"0.001": 13.0784602978,
			"0.002": 14.1882600608,
			"0.003": 12.2496942145,
			"0.004": 11.9775475396,
			"0.005": 12.1245449976,
			"0.006": 6.34200571864,
			"0.007": 2.2493809316,
			"0.008": 2.05950184132,
			"0.009": 1.93958622224,
			"0.01": 2.71384945883,
			"0.011": 2.96780614268,
			"0.012": 4.58022604509,
			"0.013": 6.94748177382,
			"0.014": 2.20675044174,
			"0.015": 0.265271845293,
			"0.016": 0.0,
			"0.017": 0.0,
			"0.018": 0.0,
			"0.019": 0.0,
			"0.02": 0.0,
			"0.021": 0.0,
			"0.022": 0.0,
			"0.023": 0.0,
			"0.024": 0.0,
			"0.025": 0.0
		}
	}
}
