{
	 "smiles": "ClCC(=O)NC1=CC(Cl)=C(Cl)C=C1", 
	 "Tm": 377.15, 
	 "num_atms": 19, 
	 "gaussian": { 
		 "optdone": 1, 
		 "sigma_profile": "yes", 
		 "theory": "DFT", 
		 "functional": "B3LYP", 
		 "basiset": "6-31G**", 
		 "properties": { 
			 "R2extent": 5425.0275, 
			 "electric_dipole_moment_norm": 2.47959230722, 
			 "electric_quadrupole_moment_norm": 6.57710164738, 
			 "total_energy": -1819.03586334, 
			 "HOMO_LUMO_gap": 0.19819, 
			 "cosmo_polarized_energy": -10.72, 
			 "cosmo_cavitation_energy": 29.02, 
			 "cosmo_dispersion_energy": -21.87, 
			 "cosmo_repulsion_energy": 1.74, 
			 "cosmo_total_nonelectrostatic_energy": 8.9, 
			 "SMD_solvation_energy": 4.66 
		},
		"coords": [
			{
				"x": 2.6457599591,
				"y": 2.1315991286,
				"z": 2.563424262,
				"element": "Cl" 
			},
			{
				"x": 1.3652367569,
				"y": 2.8655167952,
				"z": 1.5068239756,
				"element": "C" 
			},
			{
				"x": 0.5487029319,
				"y": 1.909752616,
				"z": 0.6293070053,
				"element": "C" 
			},
			{
				"x": -0.3102771355,
				"y": 2.4130677178,
				"z": -0.0802907783,
				"element": "O" 
			},
			{
				"x": 0.8479513061,
				"y": 0.5823066913,
				"z": 0.7138246807,
				"element": "N" 
			},
			{
				"x": 0.2504325052,
				"y": -0.489270662,
				"z": 0.0194124633,
				"element": "C" 
			},
			{
				"x": 0.7411497052,
				"y": -1.7737190322,
				"z": 0.2866602011,
				"element": "C" 
			},
			{
				"x": 0.2051388071,
				"y": -2.8863305139,
				"z": -0.3576927925,
				"element": "C" 
			},
			{
				"x": 0.8614196239,
				"y": -4.460061768,
				"z": 0.0197927327,
				"element": "Cl" 
			},
			{
				"x": -0.8346043661,
				"y": -2.7272886309,
				"z": -1.282837293,
				"element": "C" 
			},
			{
				"x": -1.5394395931,
				"y": -4.0898549753,
				"z": -2.1158975879,
				"element": "Cl" 
			},
			{
				"x": -1.3178806368,
				"y": -1.4436437354,
				"z": -1.5434413448,
				"element": "C" 
			},
			{
				"x": -0.790663846,
				"y": -0.3248078949,
				"z": -0.906366382,
				"element": "C" 
			},
			{
				"x": 0.6746046259,
				"y": 3.3986395876,
				"z": 2.1606033707,
				"element": "H" 
			},
			{
				"x": 1.8595533584,
				"y": 3.5855016452,
				"z": 0.8542512609,
				"element": "H" 
			},
			{
				"x": 1.5921042615,
				"y": 0.3392772759,
				"z": 1.3556997601,
				"element": "H" 
			},
			{
				"x": 1.5461802251,
				"y": -1.9202141414,
				"z": 0.9997851309,
				"element": "H" 
			},
			{
				"x": -2.1228027267,
				"y": -1.3241637753,
				"z": -2.2601941319,
				"element": "H" 
			},
			{
				"x": -1.1727657622,
				"y": 0.6636936716,
				"z": -1.1161645331,
				"element": "H" 
			}
		],
		 "valence_orbital": [ 
			{
				"type": "occ",
				"energy": -0.31338,
				"method": "rhf"
			},
			{
				"type": "occ",
				"energy": -0.30767,
				"method": "rhf"
			},
			{
				"type": "occ",
				"energy": -0.27934,
				"method": "rhf"
			},
			{
				"type": "occ",
				"energy": -0.26595,
				"method": "rhf"
			},
			{
				"type": "occ",
				"energy": -0.23819,
				"method": "rhf"
			},
			{
				"type": "unocc",
				"energy": -0.04,
				"method": "rhf"
			},
			{
				"type": "unocc",
				"energy": -0.02965,
				"method": "rhf"
			},
			{
				"type": "unocc",
				"energy": -0.00366,
				"method": "rhf"
			},
			{
				"type": "unocc",
				"energy": 0.00038,
				"method": "rhf"
			},
			{
				"type": "unocc",
				"energy": 0.01867,
				"method": "rhf"
			}
		],
		"cosmo_sigma_profile": { 
			"-0.025": 0.0,
			"-0.024": 0.0,
			"-0.023": 0.0,
			"-0.022": 0.0,
			"-0.021": 0.0,
			"-0.02": 0.0,
			"-0.019": 0.0,
			"-0.018": 0.0,
			"-0.017": 0.0,
			"-0.016": 0.0,
			"-0.015": 0.0932037855493,
			"-0.014": 1.03187246944,
			"-0.013": 1.28141117326,
			"-0.012": 1.18362657557,
			"-0.011": 1.22722287217,
			"-0.01": 1.52499759899,
			"-0.009": 6.53158938929,
			"-0.008": 6.52381282844,
			"-0.007": 8.56318295475,
			"-0.006": 8.67884533342,
			"-0.005": 9.36494817435,
			"-0.004": 8.81708683555,
			"-0.003": 8.66551411487,
			"-0.002": 12.3837296885,
			"-0.001": 15.4644221044,
			"0.0": 21.2155944043,
			"0.001": 30.5296474752,
			"0.002": 25.0435477098,
			"0.003": 20.2000391056,
			"0.004": 23.1090259199,
			"0.005": 13.3368084018,
			"0.006": 2.64686954211,
			"0.007": 1.49223684054,
			"0.008": 1.37330499371,
			"0.009": 1.50753224162,
			"0.01": 1.90337545483,
			"0.011": 2.73026014617,
			"0.012": 2.68263552971,
			"0.013": 0.784183726203,
			"0.014": 0.0,
			"0.015": 0.0,
			"0.016": 0.0,
			"0.017": 0.0,
			"0.018": 0.0,
			"0.019": 0.0,
			"0.02": 0.0,
			"0.021": 0.0,
			"0.022": 0.0,
			"0.023": 0.0,
			"0.024": 0.0,
			"0.025": 0.0
		}
	}
}
