{
	 "smiles": "CC1=CC(NC(=O)C=CC(O)=O)=NO1", 
	 "Tm": 441.15, 
	 "num_atms": 22, 
	 "gaussian": { 
		 "optdone": 1, 
		 "sigma_profile": "yes", 
		 "theory": "DFT", 
		 "functional": "B3LYP", 
		 "basiset": "6-31G**", 
		 "properties": { 
			 "R2extent": 5013.3373, 
			 "electric_dipole_moment_norm": 2.30511977129, 
			 "electric_quadrupole_moment_norm": 24.8330655168, 
			 "total_energy": -720.033009787, 
			 "HOMO_LUMO_gap": 0.13996, 
			 "cosmo_polarized_energy": -16.17, 
			 "cosmo_cavitation_energy": 28.09, 
			 "cosmo_dispersion_energy": -20.59, 
			 "cosmo_repulsion_energy": 1.62, 
			 "cosmo_total_nonelectrostatic_energy": 9.12, 
			 "SMD_solvation_energy": 6.78 
		},
		"coords": [
			{
				"x": -2.1372852918,
				"y": -1.7570605815,
				"z": -1.647234219,
				"element": "C" 
			},
			{
				"x": -1.5621544472,
				"y": -0.8491691015,
				"z": -0.6161389409,
				"element": "C" 
			},
			{
				"x": -0.3769821703,
				"y": -0.1856270752,
				"z": -0.5117107916,
				"element": "C" 
			},
			{
				"x": -0.495236049,
				"y": 0.499398016,
				"z": 0.7347457412,
				"element": "C" 
			},
			{
				"x": 0.4069267684,
				"y": 1.3409483696,
				"z": 1.3770314291,
				"element": "N" 
			},
			{
				"x": 1.6382628652,
				"y": 1.6725006996,
				"z": 0.8877626603,
				"element": "C" 
			},
			{
				"x": 2.0920764524,
				"y": 1.2641285356,
				"z": -0.1796516148,
				"element": "O" 
			},
			{
				"x": 2.5113119559,
				"y": 2.59628675,
				"z": 1.6922769797,
				"element": "C" 
			},
			{
				"x": 2.4108512808,
				"y": 3.2478969978,
				"z": 2.8667767648,
				"element": "C" 
			},
			{
				"x": 1.2982993937,
				"y": 3.2664094383,
				"z": 3.8403135788,
				"element": "C" 
			},
			{
				"x": 1.6028652937,
				"y": 4.0502578913,
				"z": 4.8933534212,
				"element": "O" 
			},
			{
				"x": 0.2269488332,
				"y": 2.682046894,
				"z": 3.7703557681,
				"element": "O" 
			},
			{
				"x": -1.6508403158,
				"y": 0.269065663,
				"z": 1.3304552139,
				"element": "N" 
			},
			{
				"x": -2.3309452308,
				"y": -0.5925676533,
				"z": 0.465877919,
				"element": "O" 
			},
			{
				"x": -2.3639774479,
				"y": -2.7397805505,
				"z": -1.2204334057,
				"element": "H" 
			},
			{
				"x": -1.4295289727,
				"y": -1.8881810979,
				"z": -2.4679257678,
				"element": "H" 
			},
			{
				"x": -3.0697935654,
				"y": -1.3491091909,
				"z": -2.0513289077,
				"element": "H" 
			},
			{
				"x": 0.4586851569,
				"y": -0.1660369937,
				"z": -1.1883420375,
				"element": "H" 
			},
			{
				"x": 0.1142085525,
				"y": 1.7315147791,
				"z": 2.2779394502,
				"element": "H" 
			},
			{
				"x": 3.4400137387,
				"y": 2.7404879857,
				"z": 1.1464592762,
				"element": "H" 
			},
			{
				"x": 3.2562369856,
				"y": 3.858010419,
				"z": 3.1704989956,
				"element": "H" 
			},
			{
				"x": 0.8376562141,
				"y": 4.0209798055,
				"z": 5.4925184871,
				"element": "H" 
			}
		],
		 "valence_orbital": [ 
			{
				"type": "occ",
				"energy": -0.3048,
				"method": "rhf"
			},
			{
				"type": "occ",
				"energy": -0.29723,
				"method": "rhf"
			},
			{
				"type": "occ",
				"energy": -0.26932,
				"method": "rhf"
			},
			{
				"type": "occ",
				"energy": -0.25362,
				"method": "rhf"
			},
			{
				"type": "occ",
				"energy": -0.23646,
				"method": "rhf"
			},
			{
				"type": "unocc",
				"energy": -0.0965,
				"method": "rhf"
			},
			{
				"type": "unocc",
				"energy": -0.00377,
				"method": "rhf"
			},
			{
				"type": "unocc",
				"energy": 0.02081,
				"method": "rhf"
			},
			{
				"type": "unocc",
				"energy": 0.06221,
				"method": "rhf"
			},
			{
				"type": "unocc",
				"energy": 0.07791,
				"method": "rhf"
			}
		],
		"cosmo_sigma_profile": { 
			"-0.025": 0.0,
			"-0.024": 0.0,
			"-0.023": 0.0,
			"-0.022": 0.0,
			"-0.021": 0.0,
			"-0.02": 0.0,
			"-0.019": 0.781180587127,
			"-0.018": 0.941478979109,
			"-0.017": 1.04261171207,
			"-0.016": 1.05804539763,
			"-0.015": 0.455062264892,
			"-0.014": 0.586080256997,
			"-0.013": 0.476865395647,
			"-0.012": 1.09952763944,
			"-0.011": 0.817018870294,
			"-0.01": 0.468898424236,
			"-0.009": 2.05167120601,
			"-0.008": 5.4119386971,
			"-0.007": 4.75101768538,
			"-0.006": 10.997674538,
			"-0.005": 13.4540221698,
			"-0.004": 17.1290542976,
			"-0.003": 19.7327670201,
			"-0.002": 21.158037916,
			"-0.001": 17.6434838979,
			"0.0": 14.2515083163,
			"0.001": 13.8991562022,
			"0.002": 11.3586592621,
			"0.003": 7.50736195819,
			"0.004": 5.8394470517,
			"0.005": 8.21110028546,
			"0.006": 5.06798356894,
			"0.007": 7.02994667235,
			"0.008": 8.7721475625,
			"0.009": 6.58631173571,
			"0.01": 4.61917126484,
			"0.011": 3.91084142525,
			"0.012": 4.10209978402,
			"0.013": 2.98184352528,
			"0.014": 0.938333755568,
			"0.015": 0.140009269267,
			"0.016": 0.0,
			"0.017": 0.0,
			"0.018": 0.0,
			"0.019": 0.0,
			"0.02": 0.0,
			"0.021": 0.0,
			"0.022": 0.0,
			"0.023": 0.0,
			"0.024": 0.0,
			"0.025": 0.0
		}
	}
}
