{
	 "smiles": "OC(=O)C1=CNN=C1C1=CC=CC=C1", 
	 "Tm": 560.15, 
	 "num_atms": 22, 
	 "gaussian": { 
		 "optdone": 1, 
		 "sigma_profile": "yes", 
		 "theory": "DFT", 
		 "functional": "B3LYP", 
		 "basiset": "6-31G**", 
		 "properties": { 
			 "R2extent": 3306.937, 
			 "electric_dipole_moment_norm": 5.28935944515, 
			 "electric_quadrupole_moment_norm": 33.623750524, 
			 "total_energy": -645.822883356, 
			 "HOMO_LUMO_gap": 0.19301, 
			 "cosmo_polarized_energy": -22.43, 
			 "cosmo_cavitation_energy": 26.72, 
			 "cosmo_dispersion_energy": -19.92, 
			 "cosmo_repulsion_energy": 1.56, 
			 "cosmo_total_nonelectrostatic_energy": 8.37, 
			 "SMD_solvation_energy": 4.93 
		},
		"coords": [
			{
				"x": -2.8441109498,
				"y": 1.8288340005,
				"z": 3.0647909363,
				"element": "O" 
			},
			{
				"x": -1.7457740537,
				"y": 1.0748018797,
				"z": 2.7529222521,
				"element": "C" 
			},
			{
				"x": -1.521815406,
				"y": 0.0645775087,
				"z": 3.3755440273,
				"element": "O" 
			},
			{
				"x": -0.898861617,
				"y": 1.6270997451,
				"z": 1.6703975141,
				"element": "C" 
			},
			{
				"x": -0.7600967635,
				"y": 2.9855189859,
				"z": 1.4092783098,
				"element": "C" 
			},
			{
				"x": 0.1722824498,
				"y": 3.0957379562,
				"z": 0.44287345,
				"element": "N" 
			},
			{
				"x": 0.6571527564,
				"y": 1.9060711954,
				"z": 0.0346358974,
				"element": "N" 
			},
			{
				"x": 0.0311782452,
				"y": 0.9872309829,
				"z": 0.777830382,
				"element": "C" 
			},
			{
				"x": 0.3539551721,
				"y": -0.4380059343,
				"z": 0.554265151,
				"element": "C" 
			},
			{
				"x": -0.5189471346,
				"y": -1.4757547924,
				"z": 0.9142914965,
				"element": "C" 
			},
			{
				"x": -0.1838765864,
				"y": -2.8034941528,
				"z": 0.6501950592,
				"element": "C" 
			},
			{
				"x": 1.0225170852,
				"y": -3.1184712517,
				"z": 0.0244045385,
				"element": "C" 
			},
			{
				"x": 1.8975558337,
				"y": -2.0918280772,
				"z": -0.3387378283,
				"element": "C" 
			},
			{
				"x": 1.5675453763,
				"y": -0.7650791447,
				"z": -0.0774589449,
				"element": "C" 
			},
			{
				"x": -3.0079725617,
				"y": 2.4716002624,
				"z": 2.3609447004,
				"element": "H" 
			},
			{
				"x": -1.2083873311,
				"y": 3.8525108128,
				"z": 1.8741025968,
				"element": "H" 
			},
			{
				"x": 0.5289921652,
				"y": 3.9388151219,
				"z": 0.0194600264,
				"element": "H" 
			},
			{
				"x": -1.4534203383,
				"y": -1.2540056116,
				"z": 1.412141081,
				"element": "H" 
			},
			{
				"x": -0.8715115858,
				"y": -3.5935103496,
				"z": 0.937846576,
				"element": "H" 
			},
			{
				"x": 1.2809878353,
				"y": -4.1543945156,
				"z": -0.1759270612,
				"element": "H" 
			},
			{
				"x": 2.8414576974,
				"y": -2.3250596264,
				"z": -0.8233627663,
				"element": "H" 
			},
			{
				"x": 2.2446497114,
				"y": 0.0338050045,
				"z": -0.3587373942,
				"element": "H" 
			}
		],
		 "valence_orbital": [ 
			{
				"type": "occ",
				"energy": -0.29808,
				"method": "rhf"
			},
			{
				"type": "occ",
				"energy": -0.27977,
				"method": "rhf"
			},
			{
				"type": "occ",
				"energy": -0.26798,
				"method": "rhf"
			},
			{
				"type": "occ",
				"energy": -0.24303,
				"method": "rhf"
			},
			{
				"type": "occ",
				"energy": -0.22763,
				"method": "rhf"
			},
			{
				"type": "unocc",
				"energy": -0.03462,
				"method": "rhf"
			},
			{
				"type": "unocc",
				"energy": -0.02359,
				"method": "rhf"
			},
			{
				"type": "unocc",
				"energy": 0.00773,
				"method": "rhf"
			},
			{
				"type": "unocc",
				"energy": 0.03441,
				"method": "rhf"
			},
			{
				"type": "unocc",
				"energy": 0.0591,
				"method": "rhf"
			}
		],
		"cosmo_sigma_profile": { 
			"-0.025": 0.0,
			"-0.024": 0.0,
			"-0.023": 0.0,
			"-0.022": 0.0,
			"-0.021": 0.0,
			"-0.02": 0.0,
			"-0.019": 0.103583080893,
			"-0.018": 2.01504217602,
			"-0.017": 2.89952077214,
			"-0.016": 2.6275759596,
			"-0.015": 1.99220415971,
			"-0.014": 1.98543942836,
			"-0.013": 1.79772340555,
			"-0.012": 3.83947387836,
			"-0.011": 4.04921738656,
			"-0.01": 2.50149731712,
			"-0.009": 2.35412663463,
			"-0.008": 2.6170641846,
			"-0.007": 3.15980333886,
			"-0.006": 5.40743764659,
			"-0.005": 10.865473929,
			"-0.004": 12.4871658277,
			"-0.003": 13.8666248723,
			"-0.002": 10.2383130166,
			"-0.001": 9.93788766824,
			"0.0": 10.5096617779,
			"0.001": 12.9320485952,
			"0.002": 13.1779855947,
			"0.003": 12.0865701588,
			"0.004": 12.6473972854,
			"0.005": 16.0094986119,
			"0.006": 8.45570975129,
			"0.007": 5.57464268312,
			"0.008": 3.92137947492,
			"0.009": 4.15895885051,
			"0.01": 5.8165306821,
			"0.011": 6.40250421811,
			"0.012": 5.78938711839,
			"0.013": 2.39147350666,
			"0.014": 0.18519153227,
			"0.015": 0.0,
			"0.016": 0.0,
			"0.017": 0.0,
			"0.018": 0.0,
			"0.019": 0.0,
			"0.02": 0.0,
			"0.021": 0.0,
			"0.022": 0.0,
			"0.023": 0.0,
			"0.024": 0.0,
			"0.025": 0.0
		}
	}
}
