{
	 "smiles": "OC(=O)CC1=C(Cl)C(Cl)=CC=C1", 
	 "Tm": 407.15, 
	 "num_atms": 18, 
	 "gaussian": { 
		 "optdone": 1, 
		 "sigma_profile": "yes", 
		 "theory": "DFT", 
		 "functional": "B3LYP", 
		 "basiset": "6-31G**", 
		 "properties": { 
			 "R2extent": 3038.8131, 
			 "electric_dipole_moment_norm": 3.37738471898, 
			 "electric_quadrupole_moment_norm": 7.96327765057, 
			 "total_energy": -1379.31174329, 
			 "HOMO_LUMO_gap": 0.22491, 
			 "cosmo_polarized_energy": -11.57, 
			 "cosmo_cavitation_energy": 26.17, 
			 "cosmo_dispersion_energy": -19.02, 
			 "cosmo_repulsion_energy": 1.53, 
			 "cosmo_total_nonelectrostatic_energy": 8.69, 
			 "SMD_solvation_energy": 5.14 
		},
		"coords": [
			{
				"x": 2.3306331474,
				"y": 1.9458438576,
				"z": 2.0241001436,
				"element": "O" 
			},
			{
				"x": 1.0889204396,
				"y": 2.4792285121,
				"z": 2.0108758186,
				"element": "C" 
			},
			{
				"x": 0.8770098365,
				"y": 3.6633374593,
				"z": 2.1332344609,
				"element": "O" 
			},
			{
				"x": -0.0046778108,
				"y": 1.4232349731,
				"z": 1.8901664015,
				"element": "C" 
			},
			{
				"x": 0.3795693347,
				"y": 0.1271197676,
				"z": 1.2161437333,
				"element": "C" 
			},
			{
				"x": 0.5938555394,
				"y": 0.0553491673,
				"z": -0.1720846215,
				"element": "C" 
			},
			{
				"x": 0.4378143938,
				"y": 1.5066182307,
				"z": -1.1365281241,
				"element": "Cl" 
			},
			{
				"x": 0.9329290461,
				"y": -1.1627577099,
				"z": -0.7769902259,
				"element": "C" 
			},
			{
				"x": 1.2012717517,
				"y": -1.2782063836,
				"z": -2.5002901478,
				"element": "Cl" 
			},
			{
				"x": 1.0626684928,
				"y": -2.3186181649,
				"z": -0.0051079947,
				"element": "C" 
			},
			{
				"x": 0.8532108845,
				"y": -2.2555862653,
				"z": 1.36902971,
				"element": "C" 
			},
			{
				"x": 0.5147813606,
				"y": -1.0442128661,
				"z": 1.9681713761,
				"element": "C" 
			},
			{
				"x": 2.9433781646,
				"y": 2.6942898973,
				"z": 2.1225542583,
				"element": "H" 
			},
			{
				"x": -0.8419025251,
				"y": 1.9109965896,
				"z": 1.3852386752,
				"element": "H" 
			},
			{
				"x": -0.3345758049,
				"y": 1.2114615895,
				"z": 2.9139664963,
				"element": "H" 
			},
			{
				"x": 1.325177937,
				"y": -3.2514338198,
				"z": -0.4910795995,
				"element": "H" 
			},
			{
				"x": 0.9529203411,
				"y": -3.1532905468,
				"z": 1.9708165632,
				"element": "H" 
			},
			{
				"x": 0.3510154709,
				"y": -0.9987742878,
				"z": 3.0407830763,
				"element": "H" 
			}
		],
		 "valence_orbital": [ 
			{
				"type": "occ",
				"energy": -0.32245,
				"method": "rhf"
			},
			{
				"type": "occ",
				"energy": -0.31086,
				"method": "rhf"
			},
			{
				"type": "occ",
				"energy": -0.28614,
				"method": "rhf"
			},
			{
				"type": "occ",
				"energy": -0.25792,
				"method": "rhf"
			},
			{
				"type": "occ",
				"energy": -0.25378,
				"method": "rhf"
			},
			{
				"type": "unocc",
				"energy": -0.02887,
				"method": "rhf"
			},
			{
				"type": "unocc",
				"energy": -0.02682,
				"method": "rhf"
			},
			{
				"type": "unocc",
				"energy": -0.00329,
				"method": "rhf"
			},
			{
				"type": "unocc",
				"energy": 0.00861,
				"method": "rhf"
			},
			{
				"type": "unocc",
				"energy": 0.06016,
				"method": "rhf"
			}
		],
		"cosmo_sigma_profile": { 
			"-0.025": 0.0,
			"-0.024": 0.0,
			"-0.023": 0.0,
			"-0.022": 0.0,
			"-0.021": 0.0,
			"-0.02": 0.0,
			"-0.019": 0.162825768692,
			"-0.018": 0.927770788111,
			"-0.017": 0.962668969566,
			"-0.016": 0.892915139981,
			"-0.015": 0.637211214014,
			"-0.014": 0.71653610891,
			"-0.013": 0.117359780725,
			"-0.012": 0.942682169502,
			"-0.011": 1.19552400086,
			"-0.01": 0.441196526712,
			"-0.009": 1.48324243131,
			"-0.008": 6.37036315155,
			"-0.007": 9.59727646381,
			"-0.006": 10.3762719347,
			"-0.005": 9.61801962866,
			"-0.004": 8.69081445677,
			"-0.003": 11.645155039,
			"-0.002": 9.85382070048,
			"-0.001": 12.0188701246,
			"0.0": 16.7685710693,
			"0.001": 20.179668016,
			"0.002": 22.3444126463,
			"0.003": 19.3528139361,
			"0.004": 16.9648625218,
			"0.005": 8.39068305305,
			"0.006": 3.65767802548,
			"0.007": 2.52440885628,
			"0.008": 2.92016373006,
			"0.009": 2.61848580312,
			"0.01": 2.13320286649,
			"0.011": 4.17433464964,
			"0.012": 4.18940899293,
			"0.013": 0.494828203616,
			"0.014": 0.0,
			"0.015": 0.0,
			"0.016": 0.0,
			"0.017": 0.0,
			"0.018": 0.0,
			"0.019": 0.0,
			"0.02": 0.0,
			"0.021": 0.0,
			"0.022": 0.0,
			"0.023": 0.0,
			"0.024": 0.0,
			"0.025": 0.0
		}
	}
}
