{
	 "smiles": "CC(O)COC(C)(C)C", 
	 "Tm": 217.15, 
	 "num_atms": 25, 
	 "gaussian": { 
		 "optdone": 1, 
		 "sigma_profile": "yes", 
		 "theory": "DFT", 
		 "functional": "B3LYP", 
		 "basiset": "6-31G**", 
		 "properties": { 
			 "R2extent": 1881.435, 
			 "electric_dipole_moment_norm": 2.57496304245, 
			 "electric_quadrupole_moment_norm": 9.11518125601, 
			 "total_energy": -426.838619166, 
			 "HOMO_LUMO_gap": 0.32301, 
			 "cosmo_polarized_energy": -6.52, 
			 "cosmo_cavitation_energy": 25.96, 
			 "cosmo_dispersion_energy": -18.04, 
			 "cosmo_repulsion_energy": 1.49, 
			 "cosmo_total_nonelectrostatic_energy": 9.42, 
			 "SMD_solvation_energy": 4.66 
		},
		"coords": [
			{
				"x": 1.5899680512,
				"y": -0.5593783372,
				"z": -3.5182936207,
				"element": "C" 
			},
			{
				"x": 1.579596579,
				"y": -1.5437752403,
				"z": -2.3447695731,
				"element": "C" 
			},
			{
				"x": 0.5781083847,
				"y": -2.5406563728,
				"z": -2.5111999328,
				"element": "O" 
			},
			{
				"x": 1.3849295457,
				"y": -0.8481672061,
				"z": -0.9927701108,
				"element": "C" 
			},
			{
				"x": 0.0664214908,
				"y": -0.313985521,
				"z": -1.0082479883,
				"element": "O" 
			},
			{
				"x": -0.4900470313,
				"y": 0.2174364224,
				"z": 0.2150169913,
				"element": "C" 
			},
			{
				"x": 0.3903046529,
				"y": 1.3497921019,
				"z": 0.7651797886,
				"element": "C" 
			},
			{
				"x": -1.8519803111,
				"y": 0.7669700154,
				"z": -0.2227516948,
				"element": "C" 
			},
			{
				"x": -0.6760315097,
				"y": -0.8965363555,
				"z": 1.2576810266,
				"element": "C" 
			},
			{
				"x": 0.6665117302,
				"y": 0.0271094055,
				"z": -3.5314837893,
				"element": "H" 
			},
			{
				"x": 2.4348844855,
				"y": 0.1352854754,
				"z": -3.4467048967,
				"element": "H" 
			},
			{
				"x": 1.6698709723,
				"y": -1.107487442,
				"z": -4.4607797041,
				"element": "H" 
			},
			{
				"x": 2.5371207782,
				"y": -2.0789965283,
				"z": -2.3117108867,
				"element": "H" 
			},
			{
				"x": -0.2515064051,
				"y": -2.101564478,
				"z": -2.2697577575,
				"element": "H" 
			},
			{
				"x": 1.5042587591,
				"y": -1.5890033136,
				"z": -0.1910924549,
				"element": "H" 
			},
			{
				"x": 2.1384530095,
				"y": -0.0594312493,
				"z": -0.8525855961,
				"element": "H" 
			},
			{
				"x": 0.5658727376,
				"y": 2.1052051929,
				"z": -0.0070579927,
				"element": "H" 
			},
			{
				"x": -0.101408634,
				"y": 1.834896971,
				"z": 1.6142486808,
				"element": "H" 
			},
			{
				"x": 1.359488642,
				"y": 0.9804150012,
				"z": 1.1141495122,
				"element": "H" 
			},
			{
				"x": -2.4658839485,
				"y": -0.0332752572,
				"z": -0.6469683705,
				"element": "H" 
			},
			{
				"x": -2.387778775,
				"y": 1.2019334343,
				"z": 0.6262354998,
				"element": "H" 
			},
			{
				"x": -1.7217784995,
				"y": 1.5386872038,
				"z": -0.986931575,
				"element": "H" 
			},
			{
				"x": -1.2503428848,
				"y": -1.7243643738,
				"z": 0.8306572969,
				"element": "H" 
			},
			{
				"x": -1.2184184263,
				"y": -0.5147791961,
				"z": 2.1284823288,
				"element": "H" 
			},
			{
				"x": 0.2800866067,
				"y": -1.2902303526,
				"z": 1.6149548191,
				"element": "H" 
			}
		],
		 "valence_orbital": [ 
			{
				"type": "occ",
				"energy": -0.34307,
				"method": "rhf"
			},
			{
				"type": "occ",
				"energy": -0.3097,
				"method": "rhf"
			},
			{
				"type": "occ",
				"energy": -0.30575,
				"method": "rhf"
			},
			{
				"type": "occ",
				"energy": -0.25798,
				"method": "rhf"
			},
			{
				"type": "occ",
				"energy": -0.25302,
				"method": "rhf"
			},
			{
				"type": "unocc",
				"energy": 0.06999,
				"method": "rhf"
			},
			{
				"type": "unocc",
				"energy": 0.10181,
				"method": "rhf"
			},
			{
				"type": "unocc",
				"energy": 0.10977,
				"method": "rhf"
			},
			{
				"type": "unocc",
				"energy": 0.11835,
				"method": "rhf"
			},
			{
				"type": "unocc",
				"energy": 0.12944,
				"method": "rhf"
			}
		],
		"cosmo_sigma_profile": { 
			"-0.025": 0.0,
			"-0.024": 0.0,
			"-0.023": 0.0,
			"-0.022": 0.0,
			"-0.021": 0.0,
			"-0.02": 0.0,
			"-0.019": 0.0,
			"-0.018": 0.0,
			"-0.017": 0.0,
			"-0.016": 0.0,
			"-0.015": 0.0,
			"-0.014": 0.0,
			"-0.013": 0.0,
			"-0.012": 0.0,
			"-0.011": 0.170684082141,
			"-0.01": 0.699844109963,
			"-0.009": 0.425380275793,
			"-0.008": 0.384541099159,
			"-0.007": 0.411094005383,
			"-0.006": 0.929916248667,
			"-0.005": 1.52581059082,
			"-0.004": 13.4358995983,
			"-0.003": 34.9033866941,
			"-0.002": 27.1558315988,
			"-0.001": 27.2007458506,
			"0.0": 26.2191443283,
			"0.001": 27.9141808936,
			"0.002": 9.99850912577,
			"0.003": 2.88183720017,
			"0.004": 3.81572770489,
			"0.005": 2.63870791871,
			"0.006": 3.0195326954,
			"0.007": 2.16297277442,
			"0.008": 2.34883756669,
			"0.009": 2.11353657677,
			"0.01": 1.06423207243,
			"0.011": 0.994105976561,
			"0.012": 1.76550685711,
			"0.013": 1.03571560876,
			"0.014": 2.08376453514,
			"0.015": 2.12260518705,
			"0.016": 0.0425202664357,
			"0.017": 0.0,
			"0.018": 0.0,
			"0.019": 0.0,
			"0.02": 0.0,
			"0.021": 0.0,
			"0.022": 0.0,
			"0.023": 0.0,
			"0.024": 0.0,
			"0.025": 0.0
		}
	}
}
