{
	 "smiles": "COC(C(O)=O)C1=CC=CC=C1", 
	 "Tm": 343.15, 
	 "num_atms": 22, 
	 "gaussian": { 
		 "optdone": 1, 
		 "sigma_profile": "yes", 
		 "theory": "DFT", 
		 "functional": "B3LYP", 
		 "basiset": "6-31G**", 
		 "properties": { 
			 "R2extent": 2263.4664, 
			 "electric_dipole_moment_norm": 1.80291524205, 
			 "electric_quadrupole_moment_norm": 5.78176593179, 
			 "total_energy": -574.648495713, 
			 "HOMO_LUMO_gap": 0.22809, 
			 "cosmo_polarized_energy": -11.69, 
			 "cosmo_cavitation_energy": 26.35, 
			 "cosmo_dispersion_energy": -18.53, 
			 "cosmo_repulsion_energy": 1.51, 
			 "cosmo_total_nonelectrostatic_energy": 9.34, 
			 "SMD_solvation_energy": 6.4 
		},
		"coords": [
			{
				"x": -2.10189951,
				"y": 2.5832493305,
				"z": 1.4835444971,
				"element": "C" 
			},
			{
				"x": -1.997962114,
				"y": 1.1682932571,
				"z": 1.4553825545,
				"element": "O" 
			},
			{
				"x": -0.6753781519,
				"y": 0.7098079383,
				"z": 1.2591870612,
				"element": "C" 
			},
			{
				"x": -0.6176406945,
				"y": -0.7764523623,
				"z": 1.6160318606,
				"element": "C" 
			},
			{
				"x": -1.7252591136,
				"y": -1.448447238,
				"z": 1.2486612987,
				"element": "O" 
			},
			{
				"x": 0.3443018407,
				"y": -1.3017823953,
				"z": 2.1307225365,
				"element": "O" 
			},
			{
				"x": -0.1711287219,
				"y": 0.8968065618,
				"z": -0.1707813425,
				"element": "C" 
			},
			{
				"x": -1.0546501549,
				"y": 0.7523266215,
				"z": -1.247284787,
				"element": "C" 
			},
			{
				"x": -0.5933489457,
				"y": 0.8962154727,
				"z": -2.5556710448,
				"element": "C" 
			},
			{
				"x": 0.7541948275,
				"y": 1.1735173155,
				"z": -2.7992056538,
				"element": "C" 
			},
			{
				"x": 1.639320143,
				"y": 1.3101598511,
				"z": -1.7282743159,
				"element": "C" 
			},
			{
				"x": 1.1770901896,
				"y": 1.1745587284,
				"z": -0.4181702884,
				"element": "C" 
			},
			{
				"x": -3.1531000653,
				"y": 2.8158748456,
				"z": 1.6659888004,
				"element": "H" 
			},
			{
				"x": -1.4944893759,
				"y": 3.0133213677,
				"z": 2.2942516223,
				"element": "H" 
			},
			{
				"x": -1.792067062,
				"y": 3.0381355203,
				"z": 0.5335345457,
				"element": "H" 
			},
			{
				"x": 0.0196386713,
				"y": 1.2039187895,
				"z": 1.9537085664,
				"element": "H" 
			},
			{
				"x": -1.5627188719,
				"y": -2.3777533162,
				"z": 1.484280787,
				"element": "H" 
			},
			{
				"x": -2.0985540298,
				"y": 0.533934057,
				"z": -1.0459263052,
				"element": "H" 
			},
			{
				"x": -1.2851206043,
				"y": 0.7885089095,
				"z": -3.3864144282,
				"element": "H" 
			},
			{
				"x": 1.1120942365,
				"y": 1.2839432259,
				"z": -3.8188575307,
				"element": "H" 
			},
			{
				"x": 2.6877576398,
				"y": 1.5274092262,
				"z": -1.9113402417,
				"element": "H" 
			},
			{
				"x": 1.8661198673,
				"y": 1.2809542931,
				"z": 0.4158318079,
				"element": "H" 
			}
		],
		 "valence_orbital": [ 
			{
				"type": "occ",
				"energy": -0.31636,
				"method": "rhf"
			},
			{
				"type": "occ",
				"energy": -0.28504,
				"method": "rhf"
			},
			{
				"type": "occ",
				"energy": -0.26222,
				"method": "rhf"
			},
			{
				"type": "occ",
				"energy": -0.25379,
				"method": "rhf"
			},
			{
				"type": "occ",
				"energy": -0.2482,
				"method": "rhf"
			},
			{
				"type": "unocc",
				"energy": -0.02011,
				"method": "rhf"
			},
			{
				"type": "unocc",
				"energy": -0.00543,
				"method": "rhf"
			},
			{
				"type": "unocc",
				"energy": 0.02387,
				"method": "rhf"
			},
			{
				"type": "unocc",
				"energy": 0.07464,
				"method": "rhf"
			},
			{
				"type": "unocc",
				"energy": 0.09603,
				"method": "rhf"
			}
		],
		"cosmo_sigma_profile": { 
			"-0.025": 0.0,
			"-0.024": 0.0,
			"-0.023": 0.0,
			"-0.022": 0.0,
			"-0.021": 0.0,
			"-0.02": 0.0,
			"-0.019": 0.313762229794,
			"-0.018": 0.804139869022,
			"-0.017": 1.16888495178,
			"-0.016": 0.546617495151,
			"-0.015": 0.833887397344,
			"-0.014": 0.693429905133,
			"-0.013": 0.675008259369,
			"-0.012": 0.77764061397,
			"-0.011": 1.05706981788,
			"-0.01": 0.416023256162,
			"-0.009": 0.318887010402,
			"-0.008": 0.817775508432,
			"-0.007": 2.60356530304,
			"-0.006": 11.8633074269,
			"-0.005": 15.7206618183,
			"-0.004": 19.1656360128,
			"-0.003": 19.3810677795,
			"-0.002": 17.9932825976,
			"-0.001": 12.7336398089,
			"0.0": 11.5078672773,
			"0.001": 9.83788445076,
			"0.002": 12.2831481346,
			"0.003": 12.5251789422,
			"0.004": 12.0623127602,
			"0.005": 12.101153694,
			"0.006": 5.3344544557,
			"0.007": 3.12882202427,
			"0.008": 3.88433771515,
			"0.009": 2.4232818141,
			"0.01": 3.46959826025,
			"0.011": 6.06410396487,
			"0.012": 4.38207222573,
			"0.013": 1.5684621738,
			"0.014": 0.322486762573,
			"0.015": 0.0,
			"0.016": 0.0,
			"0.017": 0.0,
			"0.018": 0.0,
			"0.019": 0.0,
			"0.02": 0.0,
			"0.021": 0.0,
			"0.022": 0.0,
			"0.023": 0.0,
			"0.024": 0.0,
			"0.025": 0.0
		}
	}
}
