{
	 "smiles": "N#CC1(C#N)C2O[C@@H]([C@@H](C3=C2CCCC3)C1(C#N)C#N)C1=CC=CC=C1", 
	 "Tm": 441.15, 
	 "num_atms": 42, 
	 "gaussian": { 
		 "optdone": 1, 
		 "sigma_profile": "yes", 
		 "theory": "DFT", 
		 "functional": "B3LYP", 
		 "basiset": "6-31G**", 
		 "properties": { 
			 "R2extent": 7494.4589, 
			 "electric_dipole_moment_norm": 7.36908500969, 
			 "electric_quadrupole_moment_norm": 14.6903430549, 
			 "total_energy": -1103.96749324, 
			 "HOMO_LUMO_gap": 0.20728, 
			 "cosmo_polarized_energy": -21.53, 
			 "cosmo_cavitation_energy": 45.65, 
			 "cosmo_dispersion_energy": -28.55, 
			 "cosmo_repulsion_energy": 2.14, 
			 "cosmo_total_nonelectrostatic_energy": 19.24, 
			 "SMD_solvation_energy": 10.7 
		},
		"coords": [
			{
				"x": 0.4777408795,
				"y": -3.744065481,
				"z": 1.7064662644,
				"element": "N" 
			},
			{
				"x": 0.3557438546,
				"y": -2.9377609122,
				"z": 0.8809837986,
				"element": "C" 
			},
			{
				"x": 0.0990242646,
				"y": -1.9140638623,
				"z": -0.1432976839,
				"element": "C" 
			},
			{
				"x": -0.1533979194,
				"y": -2.6022422234,
				"z": -1.4189779787,
				"element": "C" 
			},
			{
				"x": -0.4111484487,
				"y": -3.1674467259,
				"z": -2.3985071096,
				"element": "N" 
			},
			{
				"x": -1.1965446648,
				"y": -1.0787356024,
				"z": 0.2690886577,
				"element": "C" 
			},
			{
				"x": -1.4553927287,
				"y": -0.1829485115,
				"z": -0.8021396607,
				"element": "O" 
			},
			{
				"x": -0.5312727004,
				"y": 0.9136400516,
				"z": -0.8787248699,
				"element": "C" 
			},
			{
				"x": 0.6651018082,
				"y": 0.6006409146,
				"z": 0.0668370111,
				"element": "C" 
			},
			{
				"x": 0.0926443603,
				"y": 0.5204464736,
				"z": 1.4675979467,
				"element": "C" 
			},
			{
				"x": -0.9017243856,
				"y": -0.3764895627,
				"z": 1.5729204403,
				"element": "C" 
			},
			{
				"x": -1.6363313303,
				"y": -0.6824666376,
				"z": 2.8508305761,
				"element": "C" 
			},
			{
				"x": -0.8894962262,
				"y": -0.1000271447,
				"z": 4.0637511849,
				"element": "C" 
			},
			{
				"x": -0.4030179953,
				"y": 1.332099322,
				"z": 3.791077014,
				"element": "C" 
			},
			{
				"x": 0.577478479,
				"y": 1.3769173089,
				"z": 2.6052859137,
				"element": "C" 
			},
			{
				"x": 1.2981328401,
				"y": -0.8220232361,
				"z": -0.2534982234,
				"element": "C" 
			},
			{
				"x": 2.3430599994,
				"y": -1.0673193296,
				"z": 0.759323296,
				"element": "C" 
			},
			{
				"x": 3.1792339253,
				"y": -1.1942348778,
				"z": 1.5535331213,
				"element": "N" 
			},
			{
				"x": 1.9792218913,
				"y": -0.8737418221,
				"z": -1.5603684585,
				"element": "C" 
			},
			{
				"x": 2.5903361252,
				"y": -0.917374234,
				"z": -2.5452942821,
				"element": "N" 
			},
			{
				"x": -0.1940889126,
				"y": 1.2315198329,
				"z": -2.3246044621,
				"element": "C" 
			},
			{
				"x": -0.6422761149,
				"y": 0.4413253857,
				"z": -3.3869545569,
				"element": "C" 
			},
			{
				"x": -0.3211179864,
				"y": 0.7876484669,
				"z": -4.7011333827,
				"element": "C" 
			},
			{
				"x": 0.441039854,
				"y": 1.9245711638,
				"z": -4.9660819461,
				"element": "C" 
			},
			{
				"x": 0.8760327297,
				"y": 2.727699057,
				"z": -3.9087790681,
				"element": "C" 
			},
			{
				"x": 0.5535292825,
				"y": 2.3863006176,
				"z": -2.5975798151,
				"element": "C" 
			},
			{
				"x": -2.0471014438,
				"y": -1.7605359392,
				"z": 0.3202528764,
				"element": "H" 
			},
			{
				"x": -1.0180240107,
				"y": 1.7989067952,
				"z": -0.4437505572,
				"element": "H" 
			},
			{
				"x": 1.4481306169,
				"y": 1.3539934864,
				"z": -0.0353007363,
				"element": "H" 
			},
			{
				"x": -1.7535765239,
				"y": -1.7677844044,
				"z": 2.9625610246,
				"element": "H" 
			},
			{
				"x": -2.6558701892,
				"y": -0.2729094027,
				"z": 2.7908263028,
				"element": "H" 
			},
			{
				"x": -0.0263720641,
				"y": -0.7383583031,
				"z": 4.2900425011,
				"element": "H" 
			},
			{
				"x": -1.5389285909,
				"y": -0.1212833684,
				"z": 4.9448638912,
				"element": "H" 
			},
			{
				"x": 0.0764413969,
				"y": 1.7486808129,
				"z": 4.6827833116,
				"element": "H" 
			},
			{
				"x": -1.267129712,
				"y": 1.9717930675,
				"z": 3.5686873304,
				"element": "H" 
			},
			{
				"x": 0.7194583762,
				"y": 2.4105346277,
				"z": 2.2620476194,
				"element": "H" 
			},
			{
				"x": 1.5729229868,
				"y": 1.0252088831,
				"z": 2.913382481,
				"element": "H" 
			},
			{
				"x": -1.2347676623,
				"y": -0.4426090478,
				"z": -3.1860142533,
				"element": "H" 
			},
			{
				"x": -0.6672290653,
				"y": 0.1610234032,
				"z": -5.5176093146,
				"element": "H" 
			},
			{
				"x": 0.6923279162,
				"y": 2.1880443891,
				"z": -5.9891537105,
				"element": "H" 
			},
			{
				"x": 1.4622130655,
				"y": 3.6204868144,
				"z": -4.1056570874,
				"element": "H" 
			},
			{
				"x": 0.883394023,
				"y": 3.0275397551,
				"z": -1.7825154062,
				"element": "H" 
			}
		],
		 "valence_orbital": [ 
			{
				"type": "occ",
				"energy": -0.33193,
				"method": "rhf"
			},
			{
				"type": "occ",
				"energy": -0.29661,
				"method": "rhf"
			},
			{
				"type": "occ",
				"energy": -0.27668,
				"method": "rhf"
			},
			{
				"type": "occ",
				"energy": -0.25885,
				"method": "rhf"
			},
			{
				"type": "occ",
				"energy": -0.25378,
				"method": "rhf"
			},
			{
				"type": "unocc",
				"energy": -0.0465,
				"method": "rhf"
			},
			{
				"type": "unocc",
				"energy": -0.04536,
				"method": "rhf"
			},
			{
				"type": "unocc",
				"energy": -0.03026,
				"method": "rhf"
			},
			{
				"type": "unocc",
				"energy": -0.01816,
				"method": "rhf"
			},
			{
				"type": "unocc",
				"energy": -0.01614,
				"method": "rhf"
			}
		],
		"cosmo_sigma_profile": { 
			"-0.025": 0.0,
			"-0.024": 0.0,
			"-0.023": 0.0,
			"-0.022": 0.0,
			"-0.021": 0.0,
			"-0.02": 0.0,
			"-0.019": 0.0,
			"-0.018": 0.0,
			"-0.017": 0.0,
			"-0.016": 0.0627251826417,
			"-0.015": 0.310859913025,
			"-0.014": 0.332121588298,
			"-0.013": 0.447978894475,
			"-0.012": 1.33323575577,
			"-0.011": 2.98128878737,
			"-0.01": 4.30185847181,
			"-0.009": 7.2055327142,
			"-0.008": 7.26527872332,
			"-0.007": 8.46868052788,
			"-0.006": 12.9605388082,
			"-0.005": 17.4457065635,
			"-0.004": 24.5683636516,
			"-0.003": 34.8282294764,
			"-0.002": 37.3445346662,
			"-0.001": 32.4614097805,
			"0.0": 22.5609756137,
			"0.001": 15.5245876373,
			"0.002": 18.0723463161,
			"0.003": 15.9554315272,
			"0.004": 19.6480473312,
			"0.005": 19.5216924122,
			"0.006": 15.2611130314,
			"0.007": 11.7978806256,
			"0.008": 10.8546035272,
			"0.009": 10.4879891332,
			"0.01": 9.03535314947,
			"0.011": 3.81567963234,
			"0.012": 0.0,
			"0.013": 0.0,
			"0.014": 0.0,
			"0.015": 0.0,
			"0.016": 0.0,
			"0.017": 0.0,
			"0.018": 0.0,
			"0.019": 0.0,
			"0.02": 0.0,
			"0.021": 0.0,
			"0.022": 0.0,
			"0.023": 0.0,
			"0.024": 0.0,
			"0.025": 0.0
		}
	}
}
