{
	 "smiles": "NC(=O)C(Cl)C1=C(F)C=C(Br)C=C1", 
	 "Tm": 375.15, 
	 "num_atms": 19, 
	 "gaussian": { 
		 "optdone": 1, 
		 "sigma_profile": "yes", 
		 "theory": "DFT", 
		 "functional": "B3LYP", 
		 "basiset": "6-31G**", 
		 "properties": { 
			 "R2extent": 6244.0206, 
			 "electric_dipole_moment_norm": 2.66803889777, 
			 "electric_quadrupole_moment_norm": 13.2852813075, 
			 "total_energy": -3569.88974569, 
			 "HOMO_LUMO_gap": 0.20225, 
			 "cosmo_polarized_energy": -12.29, 
			 "cosmo_cavitation_energy": 28.37, 
			 "cosmo_dispersion_energy": -20.64, 
			 "cosmo_repulsion_energy": 1.65, 
			 "cosmo_total_nonelectrostatic_energy": 9.38, 
			 "SMD_solvation_energy": 4.61 
		},
		"coords": [
			{
				"x": -0.204976471,
				"y": -2.2768581018,
				"z": -1.8260775797,
				"element": "N" 
			},
			{
				"x": -0.3208907513,
				"y": -2.5195150404,
				"z": -0.4944921497,
				"element": "C" 
			},
			{
				"x": -1.3658735554,
				"y": -2.8095534352,
				"z": 0.0641266181,
				"element": "O" 
			},
			{
				"x": 0.9363193884,
				"y": -2.3427666993,
				"z": 0.377285996,
				"element": "C" 
			},
			{
				"x": 2.5182931101,
				"y": -2.4898988542,
				"z": -0.5819141667,
				"element": "Cl" 
			},
			{
				"x": 0.9183656241,
				"y": -1.0536264771,
				"z": 1.1506786321,
				"element": "C" 
			},
			{
				"x": 1.3169985599,
				"y": -1.0398977859,
				"z": 2.4897579296,
				"element": "C" 
			},
			{
				"x": 1.7053255782,
				"y": -2.1941054138,
				"z": 3.0662572008,
				"element": "F" 
			},
			{
				"x": 1.3309761325,
				"y": 0.1150674378,
				"z": 3.2618432676,
				"element": "C" 
			},
			{
				"x": 0.9317461006,
				"y": 1.3060495154,
				"z": 2.6609029559,
				"element": "C" 
			},
			{
				"x": 0.9387527021,
				"y": 2.9114093211,
				"z": 3.6881482773,
				"element": "Br" 
			},
			{
				"x": 0.5268465461,
				"y": 1.3451512641,
				"z": 1.3257641307,
				"element": "C" 
			},
			{
				"x": 0.5251828525,
				"y": 0.1660855982,
				"z": 0.5850396756,
				"element": "C" 
			},
			{
				"x": -1.0153540708,
				"y": -2.4646969184,
				"z": -2.397854047,
				"element": "H" 
			},
			{
				"x": 0.7021783175,
				"y": -2.2174586621,
				"z": -2.2631486315,
				"element": "H" 
			},
			{
				"x": 0.9606735939,
				"y": -3.1871154376,
				"z": 1.0625542975,
				"element": "H" 
			},
			{
				"x": 1.6453399179,
				"y": 0.0695068172,
				"z": 4.296868689,
				"element": "H" 
			},
			{
				"x": 0.2170818191,
				"y": 2.2807358345,
				"z": 0.8762107562,
				"element": "H" 
			},
			{
				"x": 0.2092146057,
				"y": 0.1891870376,
				"z": -0.4533518518,
				"element": "H" 
			}
		],
		 "valence_orbital": [ 
			{
				"type": "occ",
				"energy": -0.29889,
				"method": "rhf"
			},
			{
				"type": "occ",
				"energy": -0.28611,
				"method": "rhf"
			},
			{
				"type": "occ",
				"energy": -0.27221,
				"method": "rhf"
			},
			{
				"type": "occ",
				"energy": -0.26682,
				"method": "rhf"
			},
			{
				"type": "occ",
				"energy": -0.25433,
				"method": "rhf"
			},
			{
				"type": "unocc",
				"energy": -0.05208,
				"method": "rhf"
			},
			{
				"type": "unocc",
				"energy": -0.02436,
				"method": "rhf"
			},
			{
				"type": "unocc",
				"energy": -0.00681,
				"method": "rhf"
			},
			{
				"type": "unocc",
				"energy": 0.00893,
				"method": "rhf"
			},
			{
				"type": "unocc",
				"energy": 0.02162,
				"method": "rhf"
			}
		],
		"cosmo_sigma_profile": { 
			"-0.025": 0.0,
			"-0.024": 0.0,
			"-0.023": 0.0,
			"-0.022": 0.0,
			"-0.021": 0.0,
			"-0.02": 0.0,
			"-0.019": 0.0,
			"-0.018": 0.0,
			"-0.017": 0.0,
			"-0.016": 0.0,
			"-0.015": 0.570956364116,
			"-0.014": 1.62773539793,
			"-0.013": 1.63123110363,
			"-0.012": 1.97878851232,
			"-0.011": 2.53210619361,
			"-0.01": 2.06600912694,
			"-0.009": 2.72260358082,
			"-0.008": 4.8765762694,
			"-0.007": 8.47433606741,
			"-0.006": 7.60476478551,
			"-0.005": 10.6486120867,
			"-0.004": 9.50952330314,
			"-0.003": 10.804137786,
			"-0.002": 11.7198876593,
			"-0.001": 16.9519721129,
			"0.0": 24.0227905643,
			"0.001": 25.0390050131,
			"0.002": 21.0329279325,
			"0.003": 22.496585124,
			"0.004": 18.639006875,
			"0.005": 8.20747204813,
			"0.006": 3.10497774901,
			"0.007": 0.805773116333,
			"0.008": 1.0928889314,
			"0.009": 1.91918226596,
			"0.01": 1.13979053292,
			"0.011": 1.6161926167,
			"0.012": 4.39217562905,
			"0.013": 4.79250754522,
			"0.014": 0.697628831569,
			"0.015": 0.0,
			"0.016": 0.0,
			"0.017": 0.0,
			"0.018": 0.0,
			"0.019": 0.0,
			"0.02": 0.0,
			"0.021": 0.0,
			"0.022": 0.0,
			"0.023": 0.0,
			"0.024": 0.0,
			"0.025": 0.0
		}
	}
}
