{
	 "smiles": "CCC(C)(C)C1=CC=C(C=C1)C(O)=O", 
	 "Tm": 377.15, 
	 "num_atms": 30, 
	 "gaussian": { 
		 "optdone": 1, 
		 "sigma_profile": "yes", 
		 "theory": "DFT", 
		 "functional": "B3LYP", 
		 "basiset": "6-31G**", 
		 "properties": { 
			 "R2extent": 3716.2143, 
			 "electric_dipole_moment_norm": 5.30363018696, 
			 "electric_quadrupole_moment_norm": 19.9544195714, 
			 "total_energy": -617.393831148, 
			 "HOMO_LUMO_gap": 0.20848, 
			 "cosmo_polarized_energy": -13.48, 
			 "cosmo_cavitation_energy": 31.64, 
			 "cosmo_dispersion_energy": -22.34, 
			 "cosmo_repulsion_energy": 1.74, 
			 "cosmo_total_nonelectrostatic_energy": 11.05, 
			 "SMD_solvation_energy": 6.66 
		},
		"coords": [
			{
				"x": -1.8590578588,
				"y": 1.3369338978,
				"z": 2.2654946516,
				"element": "C" 
			},
			{
				"x": -0.4853367732,
				"y": 0.8052629783,
				"z": 2.6885020765,
				"element": "C" 
			},
			{
				"x": 0.6303244032,
				"y": 0.844248573,
				"z": 1.6008045085,
				"element": "C" 
			},
			{
				"x": 0.9216897703,
				"y": 2.3075213795,
				"z": 1.214741617,
				"element": "C" 
			},
			{
				"x": 1.9246370358,
				"y": 0.2529856997,
				"z": 2.2126477659,
				"element": "C" 
			},
			{
				"x": 0.2217087175,
				"y": -0.0113804421,
				"z": 0.389188799,
				"element": "C" 
			},
			{
				"x": 0.1329698595,
				"y": 0.5047508617,
				"z": -0.9112355949,
				"element": "C" 
			},
			{
				"x": -0.2208071768,
				"y": -0.3038537015,
				"z": -1.9924156354,
				"element": "C" 
			},
			{
				"x": -0.5025782259,
				"y": -1.6615962684,
				"z": -1.8071817073,
				"element": "C" 
			},
			{
				"x": -0.441493065,
				"y": -2.1850590112,
				"z": -0.5081510825,
				"element": "C" 
			},
			{
				"x": -0.0776256845,
				"y": -1.3769434517,
				"z": 0.5608606026,
				"element": "C" 
			},
			{
				"x": -0.9036551174,
				"y": -2.582418165,
				"z": -2.9175123912,
				"element": "C" 
			},
			{
				"x": -0.5859372499,
				"y": -2.1920211792,
				"z": -4.1826941177,
				"element": "O" 
			},
			{
				"x": -1.4805106483,
				"y": -3.6297411506,
				"z": -2.7385694697,
				"element": "O" 
			},
			{
				"x": -2.2551770587,
				"y": 0.7865249023,
				"z": 1.4064110924,
				"element": "H" 
			},
			{
				"x": -2.5761960962,
				"y": 1.2324114224,
				"z": 3.085956595,
				"element": "H" 
			},
			{
				"x": -1.8249465414,
				"y": 2.3975176184,
				"z": 1.9972924355,
				"element": "H" 
			},
			{
				"x": -0.12284453,
				"y": 1.3780172597,
				"z": 3.5523487428,
				"element": "H" 
			},
			{
				"x": -0.5973106309,
				"y": -0.2268335712,
				"z": 3.041790675,
				"element": "H" 
			},
			{
				"x": 1.7606833527,
				"y": 2.3782575829,
				"z": 0.5147108478,
				"element": "H" 
			},
			{
				"x": 0.0597709849,
				"y": 2.8031878552,
				"z": 0.7594568194,
				"element": "H" 
			},
			{
				"x": 1.1934275073,
				"y": 2.875660894,
				"z": 2.1102700807,
				"element": "H" 
			},
			{
				"x": 2.7402144992,
				"y": 0.254065673,
				"z": 1.4822239156,
				"element": "H" 
			},
			{
				"x": 2.2419043611,
				"y": 0.8480053783,
				"z": 3.0761891961,
				"element": "H" 
			},
			{
				"x": 1.7817955377,
				"y": -0.7769134456,
				"z": 2.5528126071,
				"element": "H" 
			},
			{
				"x": 0.3337603822,
				"y": 1.5531062563,
				"z": -1.0970536793,
				"element": "H" 
			},
			{
				"x": -0.3121379755,
				"y": 0.1565020742,
				"z": -2.9739937341,
				"element": "H" 
			},
			{
				"x": -0.6817189285,
				"y": -3.2327429875,
				"z": -0.3615238251,
				"element": "H" 
			},
			{
				"x": -0.0285601639,
				"y": -1.8187892149,
				"z": 1.5512311643,
				"element": "H" 
			},
			{
				"x": 0.0072073133,
				"y": -1.4287677176,
				"z": -4.1547029556,
				"element": "H" 
			}
		],
		 "valence_orbital": [ 
			{
				"type": "occ",
				"energy": -0.31983,
				"method": "rhf"
			},
			{
				"type": "occ",
				"energy": -0.31139,
				"method": "rhf"
			},
			{
				"type": "occ",
				"energy": -0.27151,
				"method": "rhf"
			},
			{
				"type": "occ",
				"energy": -0.26576,
				"method": "rhf"
			},
			{
				"type": "occ",
				"energy": -0.25556,
				"method": "rhf"
			},
			{
				"type": "unocc",
				"energy": -0.04708,
				"method": "rhf"
			},
			{
				"type": "unocc",
				"energy": -0.01821,
				"method": "rhf"
			},
			{
				"type": "unocc",
				"energy": 0.05015,
				"method": "rhf"
			},
			{
				"type": "unocc",
				"energy": 0.06385,
				"method": "rhf"
			},
			{
				"type": "unocc",
				"energy": 0.0743,
				"method": "rhf"
			}
		],
		"cosmo_sigma_profile": { 
			"-0.025": 0.0,
			"-0.024": 0.0,
			"-0.023": 0.0,
			"-0.022": 0.0,
			"-0.021": 0.0,
			"-0.02": 0.0,
			"-0.019": 0.0514774421388,
			"-0.018": 0.697426376609,
			"-0.017": 0.976024582753,
			"-0.016": 1.12955886779,
			"-0.015": 0.716338528644,
			"-0.014": 0.851332795467,
			"-0.013": 1.05533944262,
			"-0.012": 0.894371717136,
			"-0.011": 1.33077815865,
			"-0.01": 1.22566548471,
			"-0.009": 0.695196686555,
			"-0.008": 2.16417544214,
			"-0.007": 2.13506441158,
			"-0.006": 5.32612410642,
			"-0.005": 9.17808669166,
			"-0.004": 10.561839348,
			"-0.003": 23.1301516056,
			"-0.002": 29.1249017551,
			"-0.001": 26.9417583063,
			"0.0": 27.7362503922,
			"0.001": 33.6118010823,
			"0.002": 16.4516162009,
			"0.003": 10.8645083916,
			"0.004": 10.5798510513,
			"0.005": 2.67787444685,
			"0.006": 2.08364570544,
			"0.007": 2.49543827078,
			"0.008": 2.90588650438,
			"0.009": 2.84944697688,
			"0.01": 4.40202111388,
			"0.011": 5.46935825744,
			"0.012": 5.38299653272,
			"0.013": 2.12012026135,
			"0.014": 0.185991309139,
			"0.015": 0.0,
			"0.016": 0.0,
			"0.017": 0.0,
			"0.018": 0.0,
			"0.019": 0.0,
			"0.02": 0.0,
			"0.021": 0.0,
			"0.022": 0.0,
			"0.023": 0.0,
			"0.024": 0.0,
			"0.025": 0.0
		}
	}
}
