{
	 "smiles": "OC1=C(C=C2C=CC=CC2=C1)C(=O)N1CCOCC1", 
	 "Tm": 490.15, 
	 "num_atms": 34, 
	 "gaussian": { 
		 "optdone": 1, 
		 "sigma_profile": "yes", 
		 "theory": "DFT", 
		 "functional": "B3LYP", 
		 "basiset": "6-31G**", 
		 "properties": { 
			 "R2extent": 6273.4879, 
			 "electric_dipole_moment_norm": 3.31507970643, 
			 "electric_quadrupole_moment_norm": 8.37779057688, 
			 "total_energy": -861.06724201, 
			 "HOMO_LUMO_gap": 0.14744, 
			 "cosmo_polarized_energy": -13.61, 
			 "cosmo_cavitation_energy": 35.76, 
			 "cosmo_dispersion_energy": -26.64, 
			 "cosmo_repulsion_energy": 2.01, 
			 "cosmo_total_nonelectrostatic_energy": 11.12, 
			 "SMD_solvation_energy": 5.35 
		},
		"coords": [
			{
				"x": -2.4086471917,
				"y": -0.4371822427,
				"z": -0.5733963211,
				"element": "O" 
			},
			{
				"x": -1.3097798623,
				"y": -0.5169740341,
				"z": 0.1996867969,
				"element": "C" 
			},
			{
				"x": -0.2280295759,
				"y": 0.428675577,
				"z": 0.0720990231,
				"element": "C" 
			},
			{
				"x": 0.8275508067,
				"y": 0.3607968693,
				"z": 0.9685011551,
				"element": "C" 
			},
			{
				"x": 0.9172509042,
				"y": -0.6502879836,
				"z": 1.952151121,
				"element": "C" 
			},
			{
				"x": 2.0031351654,
				"y": -0.7228090331,
				"z": 2.8681129344,
				"element": "C" 
			},
			{
				"x": 2.0711300252,
				"y": -1.7316394869,
				"z": 3.7999797399,
				"element": "C" 
			},
			{
				"x": 1.0478962198,
				"y": -2.7135943815,
				"z": 3.8567363461,
				"element": "C" 
			},
			{
				"x": -0.0192247745,
				"y": -2.6685943969,
				"z": 2.9897077511,
				"element": "C" 
			},
			{
				"x": -0.1223648407,
				"y": -1.6376666507,
				"z": 2.0130240881,
				"element": "C" 
			},
			{
				"x": -1.2203708574,
				"y": -1.5375830169,
				"z": 1.1298766338,
				"element": "C" 
			},
			{
				"x": -0.3564574466,
				"y": 1.489951123,
				"z": -0.9672173115,
				"element": "C" 
			},
			{
				"x": -1.4887958988,
				"y": 1.8600405998,
				"z": -1.3407104997,
				"element": "O" 
			},
			{
				"x": 0.7486872737,
				"y": 2.0785157329,
				"z": -1.5183750174,
				"element": "N" 
			},
			{
				"x": 0.496331896,
				"y": 3.1752252558,
				"z": -2.4698225453,
				"element": "C" 
			},
			{
				"x": 1.8026043375,
				"y": 3.8953064684,
				"z": -2.77796934,
				"element": "C" 
			},
			{
				"x": 2.7901968861,
				"y": 3.0427536475,
				"z": -3.3555028375,
				"element": "O" 
			},
			{
				"x": 2.6819215014,
				"y": 1.6783002645,
				"z": -2.9683831673,
				"element": "C" 
			},
			{
				"x": 2.1027032673,
				"y": 1.5044835428,
				"z": -1.5650236925,
				"element": "C" 
			},
			{
				"x": -2.379690576,
				"y": 0.4515625203,
				"z": -1.0045516713,
				"element": "H" 
			},
			{
				"x": 1.6083191775,
				"y": 1.1139649935,
				"z": 0.9412931633,
				"element": "H" 
			},
			{
				"x": 2.7824107804,
				"y": 0.0338811551,
				"z": 2.8161846485,
				"element": "H" 
			},
			{
				"x": 2.9046171502,
				"y": -1.7816502579,
				"z": 4.4940834614,
				"element": "H" 
			},
			{
				"x": 1.1104527659,
				"y": -3.507090068,
				"z": 4.5961510649,
				"element": "H" 
			},
			{
				"x": -0.8026615542,
				"y": -3.4198996176,
				"z": 3.0404446566,
				"element": "H" 
			},
			{
				"x": -2.0390363175,
				"y": -2.2476744812,
				"z": 1.1917254863,
				"element": "H" 
			},
			{
				"x": 0.0414473347,
				"y": 2.7864615087,
				"z": -3.3899013046,
				"element": "H" 
			},
			{
				"x": -0.2261094713,
				"y": 3.8656761134,
				"z": -2.0279794498,
				"element": "H" 
			},
			{
				"x": 1.6164424144,
				"y": 4.6996611322,
				"z": -3.496498882,
				"element": "H" 
			},
			{
				"x": 2.1941453955,
				"y": 4.3555677688,
				"z": -1.8574116961,
				"element": "H" 
			},
			{
				"x": 3.6914765583,
				"y": 1.2554436539,
				"z": -3.0015029011,
				"element": "H" 
			},
			{
				"x": 2.061359792,
				"y": 1.1219966373,
				"z": -3.6879056965,
				"element": "H" 
			},
			{
				"x": 2.0602589036,
				"y": 0.4428327096,
				"z": -1.3159093481,
				"element": "H" 
			},
			{
				"x": 2.7644298111,
				"y": 1.9942483772,
				"z": -0.838296389,
				"element": "H" 
			}
		],
		 "valence_orbital": [ 
			{
				"type": "occ",
				"energy": -0.27354,
				"method": "rhf"
			},
			{
				"type": "occ",
				"energy": -0.26278,
				"method": "rhf"
			},
			{
				"type": "occ",
				"energy": -0.25509,
				"method": "rhf"
			},
			{
				"type": "occ",
				"energy": -0.23687,
				"method": "rhf"
			},
			{
				"type": "occ",
				"energy": -0.2045,
				"method": "rhf"
			},
			{
				"type": "unocc",
				"energy": -0.05706,
				"method": "rhf"
			},
			{
				"type": "unocc",
				"energy": -0.01549,
				"method": "rhf"
			},
			{
				"type": "unocc",
				"energy": 0.02021,
				"method": "rhf"
			},
			{
				"type": "unocc",
				"energy": 0.0387,
				"method": "rhf"
			},
			{
				"type": "unocc",
				"energy": 0.07025,
				"method": "rhf"
			}
		],
		"cosmo_sigma_profile": { 
			"-0.025": 0.0,
			"-0.024": 0.0,
			"-0.023": 0.0,
			"-0.022": 0.0,
			"-0.021": 0.0,
			"-0.02": 0.0,
			"-0.019": 0.0,
			"-0.018": 0.0,
			"-0.017": 0.0,
			"-0.016": 0.0,
			"-0.015": 0.0,
			"-0.014": 0.0,
			"-0.013": 0.0,
			"-0.012": 0.0,
			"-0.011": 0.0,
			"-0.01": 0.0,
			"-0.009": 0.0,
			"-0.008": 0.77034147929,
			"-0.007": 4.17218862377,
			"-0.006": 19.2260367217,
			"-0.005": 36.177639764,
			"-0.004": 33.118009038,
			"-0.003": 23.2541714434,
			"-0.002": 17.6199315711,
			"-0.001": 14.9139347375,
			"0.0": 15.4889397538,
			"0.001": 13.9693796315,
			"0.002": 14.5945178128,
			"0.003": 20.9303018892,
			"0.004": 21.7293137112,
			"0.005": 14.3089952902,
			"0.006": 4.70490623309,
			"0.007": 4.3826789211,
			"0.008": 3.61509625518,
			"0.009": 3.55754712116,
			"0.01": 4.12706754169,
			"0.011": 4.91219096239,
			"0.012": 5.36550191809,
			"0.013": 2.49983618807,
			"0.014": 0.289152076698,
			"0.015": 0.0,
			"0.016": 0.0,
			"0.017": 0.0,
			"0.018": 0.0,
			"0.019": 0.0,
			"0.02": 0.0,
			"0.021": 0.0,
			"0.022": 0.0,
			"0.023": 0.0,
			"0.024": 0.0,
			"0.025": 0.0
		}
	}
}
