{
	 "smiles": "COC1=CC=C2C(CC2=C1)C#N", 
	 "Tm": 325.15, 
	 "num_atms": 21, 
	 "gaussian": { 
		 "optdone": 1, 
		 "sigma_profile": "yes", 
		 "theory": "DFT", 
		 "functional": "B3LYP", 
		 "basiset": "6-31G**", 
		 "properties": { 
			 "R2extent": 2545.5024, 
			 "electric_dipole_moment_norm": 5.04062425301, 
			 "electric_quadrupole_moment_norm": 17.7440640176, 
			 "total_energy": -516.394029837, 
			 "HOMO_LUMO_gap": 0.20879, 
			 "cosmo_polarized_energy": -11.2, 
			 "cosmo_cavitation_energy": 25.87, 
			 "cosmo_dispersion_energy": -18.49, 
			 "cosmo_repulsion_energy": 1.5, 
			 "cosmo_total_nonelectrostatic_energy": 8.87, 
			 "SMD_solvation_energy": 6.26 
		},
		"coords": [
			{
				"x": 2.4542577099,
				"y": -3.702503622,
				"z": 0.1843927434,
				"element": "C" 
			},
			{
				"x": 2.6265220082,
				"y": -2.4561187659,
				"z": -0.4709893486,
				"element": "O" 
			},
			{
				"x": 1.6222738167,
				"y": -1.5357750898,
				"z": -0.3908908413,
				"element": "C" 
			},
			{
				"x": 1.8767743811,
				"y": -0.3305560882,
				"z": -1.0824942461,
				"element": "C" 
			},
			{
				"x": 0.9557636878,
				"y": 0.7174718252,
				"z": -1.1018193328,
				"element": "C" 
			},
			{
				"x": -0.2251318836,
				"y": 0.5010142194,
				"z": -0.4004978817,
				"element": "C" 
			},
			{
				"x": -1.5526274359,
				"y": 1.1387706134,
				"z": 0.0160582362,
				"element": "C" 
			},
			{
				"x": -1.8537311909,
				"y": -0.243908987,
				"z": 0.7508353408,
				"element": "C" 
			},
			{
				"x": -0.4800618537,
				"y": -0.6846513785,
				"z": 0.2724405167,
				"element": "C" 
			},
			{
				"x": 0.4210525683,
				"y": -1.7421238373,
				"z": 0.313019298,
				"element": "C" 
			},
			{
				"x": -2.4834418178,
				"y": 1.5164579675,
				"z": -1.0452879883,
				"element": "C" 
			},
			{
				"x": -3.2210066354,
				"y": 1.8090866167,
				"z": -1.8935747269,
				"element": "N" 
			},
			{
				"x": 1.5898296191,
				"y": -4.2517705423,
				"z": -0.2104627087,
				"element": "H" 
			},
			{
				"x": 2.3350579166,
				"y": -3.5774477342,
				"z": 1.2684742562,
				"element": "H" 
			},
			{
				"x": 3.3623796316,
				"y": -4.2741699758,
				"z": -0.0123441977,
				"element": "H" 
			},
			{
				"x": 2.8246366187,
				"y": -0.2498200197,
				"z": -1.6044459717,
				"element": "H" 
			},
			{
				"x": 1.1708546809,
				"y": 1.6339777097,
				"z": -1.6427572629,
				"element": "H" 
			},
			{
				"x": -1.4564608742,
				"y": 1.9783928159,
				"z": 0.7145708843,
				"element": "H" 
			},
			{
				"x": -2.7033153009,
				"y": -0.7897372214,
				"z": 0.3307014634,
				"element": "H" 
			},
			{
				"x": -1.9911271318,
				"y": -0.1463199695,
				"z": 1.8323421802,
				"element": "H" 
			},
			{
				"x": 0.2163014854,
				"y": -2.6648685361,
				"z": 0.8425295876,
				"element": "H" 
			}
		],
		 "valence_orbital": [ 
			{
				"type": "occ",
				"energy": -0.3254,
				"method": "rhf"
			},
			{
				"type": "occ",
				"energy": -0.31267,
				"method": "rhf"
			},
			{
				"type": "occ",
				"energy": -0.3106,
				"method": "rhf"
			},
			{
				"type": "occ",
				"energy": -0.26031,
				"method": "rhf"
			},
			{
				"type": "occ",
				"energy": -0.22539,
				"method": "rhf"
			},
			{
				"type": "unocc",
				"energy": -0.0166,
				"method": "rhf"
			},
			{
				"type": "unocc",
				"energy": 0.00053,
				"method": "rhf"
			},
			{
				"type": "unocc",
				"energy": 0.02897,
				"method": "rhf"
			},
			{
				"type": "unocc",
				"energy": 0.04353,
				"method": "rhf"
			},
			{
				"type": "unocc",
				"energy": 0.0893,
				"method": "rhf"
			}
		],
		"cosmo_sigma_profile": { 
			"-0.025": 0.0,
			"-0.024": 0.0,
			"-0.023": 0.0,
			"-0.022": 0.0,
			"-0.021": 0.0,
			"-0.02": 0.0,
			"-0.019": 0.0,
			"-0.018": 0.0,
			"-0.017": 0.0,
			"-0.016": 0.0,
			"-0.015": 0.0,
			"-0.014": 0.0,
			"-0.013": 0.0,
			"-0.012": 0.0,
			"-0.011": 0.0,
			"-0.01": 0.0,
			"-0.009": 0.340761245017,
			"-0.008": 2.80658061048,
			"-0.007": 5.00078645264,
			"-0.006": 15.4619470008,
			"-0.005": 21.1562527589,
			"-0.004": 21.5763409253,
			"-0.003": 21.9313602754,
			"-0.002": 15.0092249223,
			"-0.001": 10.1488232484,
			"0.0": 9.25808712618,
			"0.001": 9.77586159381,
			"0.002": 8.57696676868,
			"0.003": 10.8316549995,
			"0.004": 15.1862421152,
			"0.005": 9.19898281866,
			"0.006": 5.13127438371,
			"0.007": 3.41574443436,
			"0.008": 4.27107221804,
			"0.009": 5.33170398834,
			"0.01": 4.77820065555,
			"0.011": 3.16727570995,
			"0.012": 2.56754378046,
			"0.013": 2.06926206615,
			"0.014": 0.409336213192,
			"0.015": 0.0,
			"0.016": 0.0,
			"0.017": 0.0,
			"0.018": 0.0,
			"0.019": 0.0,
			"0.02": 0.0,
			"0.021": 0.0,
			"0.022": 0.0,
			"0.023": 0.0,
			"0.024": 0.0,
			"0.025": 0.0
		}
	}
}
