{
	 "smiles": "NC(=O)C1=C(Cl)C2=C(S1)C=C(Cl)C=C2", 
	 "Tm": 543.15, 
	 "num_atms": 19, 
	 "gaussian": { 
		 "optdone": 1, 
		 "sigma_profile": "yes", 
		 "theory": "DFT", 
		 "functional": "B3LYP", 
		 "basiset": "6-31G**", 
		 "properties": { 
			 "R2extent": 5092.8996, 
			 "electric_dipole_moment_norm": 3.4101618334, 
			 "electric_quadrupole_moment_norm": 7.94340641161, 
			 "total_energy": -1794.5361398, 
			 "HOMO_LUMO_gap": 0.16502, 
			 "cosmo_polarized_energy": -11.97, 
			 "cosmo_cavitation_energy": 28.69, 
			 "cosmo_dispersion_energy": -22.24, 
			 "cosmo_repulsion_energy": 1.69, 
			 "cosmo_total_nonelectrostatic_energy": 8.14, 
			 "SMD_solvation_energy": 4.51 
		},
		"coords": [
			{
				"x": -0.1269223869,
				"y": 2.9335604885,
				"z": -1.0666752149,
				"element": "N" 
			},
			{
				"x": -0.606629643,
				"y": 2.1423193969,
				"z": -0.0716520681,
				"element": "C" 
			},
			{
				"x": -1.2316053643,
				"y": 2.5870976467,
				"z": 0.8876939312,
				"element": "O" 
			},
			{
				"x": -0.3580834016,
				"y": 0.6724950226,
				"z": -0.158320974,
				"element": "C" 
			},
			{
				"x": 0.2766866062,
				"y": -0.1534059258,
				"z": -1.0475260961,
				"element": "C" 
			},
			{
				"x": 1.07379963,
				"y": 0.3611575943,
				"z": -2.5180575542,
				"element": "Cl" 
			},
			{
				"x": 0.2541364206,
				"y": -1.5461901166,
				"z": -0.6915506964,
				"element": "C" 
			},
			{
				"x": -0.4384046626,
				"y": -1.7378462462,
				"z": 0.5279146482,
				"element": "C" 
			},
			{
				"x": -1.0317875506,
				"y": -0.2325356791,
				"z": 1.1919010311,
				"element": "S" 
			},
			{
				"x": -0.5941848311,
				"y": -3.0133637612,
				"z": 1.0832435111,
				"element": "C" 
			},
			{
				"x": -0.0449952434,
				"y": -4.085912401,
				"z": 0.3954115562,
				"element": "C" 
			},
			{
				"x": -0.21696803,
				"y": -5.7026707075,
				"z": 1.0558713346,
				"element": "Cl" 
			},
			{
				"x": 0.6484830326,
				"y": -3.9220095331,
				"z": -0.8193159648,
				"element": "C" 
			},
			{
				"x": 0.7981113409,
				"y": -2.6568202829,
				"z": -1.3618375651,
				"element": "C" 
			},
			{
				"x": -0.3071943974,
				"y": 3.9224768321,
				"z": -0.986264437,
				"element": "H" 
			},
			{
				"x": 0.3862821616,
				"y": 2.5771732892,
				"z": -1.8563644593,
				"element": "H" 
			},
			{
				"x": -1.1237402987,
				"y": -3.1654046899,
				"z": 2.0169280226,
				"element": "H" 
			},
			{
				"x": 1.0595457121,
				"y": -4.7915387041,
				"z": -1.318968624,
				"element": "H" 
			},
			{
				"x": 1.3307709055,
				"y": -2.5208822225,
				"z": -2.297230381,
				"element": "H" 
			}
		],
		 "valence_orbital": [ 
			{
				"type": "occ",
				"energy": -0.29368,
				"method": "rhf"
			},
			{
				"type": "occ",
				"energy": -0.27837,
				"method": "rhf"
			},
			{
				"type": "occ",
				"energy": -0.26947,
				"method": "rhf"
			},
			{
				"type": "occ",
				"energy": -0.25367,
				"method": "rhf"
			},
			{
				"type": "occ",
				"energy": -0.2364,
				"method": "rhf"
			},
			{
				"type": "unocc",
				"energy": -0.07138,
				"method": "rhf"
			},
			{
				"type": "unocc",
				"energy": -0.02671,
				"method": "rhf"
			},
			{
				"type": "unocc",
				"energy": -0.01202,
				"method": "rhf"
			},
			{
				"type": "unocc",
				"energy": 0.00203,
				"method": "rhf"
			},
			{
				"type": "unocc",
				"energy": 0.01485,
				"method": "rhf"
			}
		],
		"cosmo_sigma_profile": { 
			"-0.025": 0.0,
			"-0.024": 0.0,
			"-0.023": 0.0,
			"-0.022": 0.0,
			"-0.021": 0.0,
			"-0.02": 0.0,
			"-0.019": 0.0,
			"-0.018": 0.0,
			"-0.017": 0.0,
			"-0.016": 0.0,
			"-0.015": 0.503623501373,
			"-0.014": 1.27686613223,
			"-0.013": 0.766058758966,
			"-0.012": 1.72047973822,
			"-0.011": 2.40100815213,
			"-0.01": 2.44865523799,
			"-0.009": 3.35421377897,
			"-0.008": 4.64998601914,
			"-0.007": 7.00695073443,
			"-0.006": 6.78839747297,
			"-0.005": 7.77235998661,
			"-0.004": 9.36433131671,
			"-0.003": 11.9682073156,
			"-0.002": 13.5645337657,
			"-0.001": 22.7610869658,
			"0.0": 28.3050395001,
			"0.001": 30.1065942194,
			"0.002": 25.8804165057,
			"0.003": 18.7391599859,
			"0.004": 15.4206955699,
			"0.005": 3.78493590417,
			"0.006": 1.73732188223,
			"0.007": 1.95394210314,
			"0.008": 1.48086151383,
			"0.009": 1.38940171314,
			"0.01": 1.3780425737,
			"0.011": 2.14856037057,
			"0.012": 2.83225977371,
			"0.013": 5.17897134644,
			"0.014": 1.18253893924,
			"0.015": 0.0,
			"0.016": 0.0,
			"0.017": 0.0,
			"0.018": 0.0,
			"0.019": 0.0,
			"0.02": 0.0,
			"0.021": 0.0,
			"0.022": 0.0,
			"0.023": 0.0,
			"0.024": 0.0,
			"0.025": 0.0
		}
	}
}
