{
	 "smiles": "CC(=O)C1=NC(=CS1)C1=CC=CC=C1", 
	 "Tm": 351.15, 
	 "num_atms": 23, 
	 "gaussian": { 
		 "optdone": 1, 
		 "sigma_profile": "yes", 
		 "theory": "DFT", 
		 "functional": "B3LYP", 
		 "basiset": "6-31G**", 
		 "properties": { 
			 "R2extent": 4190.9794, 
			 "electric_dipole_moment_norm": 2.85311231114, 
			 "electric_quadrupole_moment_norm": 12.9145289945, 
			 "total_energy": -952.75871479, 
			 "HOMO_LUMO_gap": 0.14956, 
			 "cosmo_polarized_energy": -9.11, 
			 "cosmo_cavitation_energy": 29.41, 
			 "cosmo_dispersion_energy": -21.85, 
			 "cosmo_repulsion_energy": 1.66, 
			 "cosmo_total_nonelectrostatic_energy": 9.21, 
			 "SMD_solvation_energy": 4.69 
		},
		"coords": [
			{
				"x": -3.7429225475,
				"y": -0.3222215318,
				"z": -1.0916295285,
				"element": "C" 
			},
			{
				"x": -3.0196761876,
				"y": 0.5830582053,
				"z": -2.062134425,
				"element": "C" 
			},
			{
				"x": -3.5853798711,
				"y": 1.2182058107,
				"z": -2.9378502255,
				"element": "O" 
			},
			{
				"x": -1.5431333973,
				"y": 0.6826867963,
				"z": -1.9146464407,
				"element": "C" 
			},
			{
				"x": -0.8240112708,
				"y": 0.0570465954,
				"z": -1.0234894282,
				"element": "N" 
			},
			{
				"x": 0.515203679,
				"y": 0.354245937,
				"z": -1.1415422089,
				"element": "C" 
			},
			{
				"x": 0.7965992496,
				"y": 1.239354482,
				"z": -2.1657120384,
				"element": "C" 
			},
			{
				"x": -0.6298533215,
				"y": 1.7131735133,
				"z": -3.0010907713,
				"element": "S" 
			},
			{
				"x": 1.4839047161,
				"y": -0.2641846016,
				"z": -0.2137956231,
				"element": "C" 
			},
			{
				"x": 2.8612870821,
				"y": -0.0019313272,
				"z": -0.301147023,
				"element": "C" 
			},
			{
				"x": 3.7562204399,
				"y": -0.5963377213,
				"z": 0.5852389424,
				"element": "C" 
			},
			{
				"x": 3.2935323164,
				"y": -1.4648632253,
				"z": 1.5765789594,
				"element": "C" 
			},
			{
				"x": 1.9267957912,
				"y": -1.732616723,
				"z": 1.6718946737,
				"element": "C" 
			},
			{
				"x": 1.0292101205,
				"y": -1.1392083796,
				"z": 0.7864230793,
				"element": "C" 
			},
			{
				"x": -3.5649535889,
				"y": 0.0067537309,
				"z": -0.0629546398,
				"element": "H" 
			},
			{
				"x": -4.8101371626,
				"y": -0.3047215337,
				"z": -1.3145644441,
				"element": "H" 
			},
			{
				"x": -3.355995857,
				"y": -1.3433546565,
				"z": -1.1653909185,
				"element": "H" 
			},
			{
				"x": 1.7587862247,
				"y": 1.6298398145,
				"z": -2.4637018006,
				"element": "H" 
			},
			{
				"x": 3.2426920775,
				"y": 0.6692600541,
				"z": -1.0648011634,
				"element": "H" 
			},
			{
				"x": 4.8175338431,
				"y": -0.3809111,
				"z": 0.5012371518,
				"element": "H" 
			},
			{
				"x": 3.9924121422,
				"y": -1.9277856181,
				"z": 2.2670735411,
				"element": "H" 
			},
			{
				"x": 1.5564675596,
				"y": -2.406662324,
				"z": 2.4390987991,
				"element": "H" 
			},
			{
				"x": -0.0329820374,
				"y": -1.3441261974,
				"z": 0.856505532,
				"element": "H" 
			}
		],
		 "valence_orbital": [ 
			{
				"type": "occ",
				"energy": -0.29545,
				"method": "rhf"
			},
			{
				"type": "occ",
				"energy": -0.28612,
				"method": "rhf"
			},
			{
				"type": "occ",
				"energy": -0.26109,
				"method": "rhf"
			},
			{
				"type": "occ",
				"energy": -0.25572,
				"method": "rhf"
			},
			{
				"type": "occ",
				"energy": -0.22741,
				"method": "rhf"
			},
			{
				"type": "unocc",
				"energy": -0.07785,
				"method": "rhf"
			},
			{
				"type": "unocc",
				"energy": -0.03557,
				"method": "rhf"
			},
			{
				"type": "unocc",
				"energy": -0.00489,
				"method": "rhf"
			},
			{
				"type": "unocc",
				"energy": 0.01847,
				"method": "rhf"
			},
			{
				"type": "unocc",
				"energy": 0.0394,
				"method": "rhf"
			}
		],
		"cosmo_sigma_profile": { 
			"-0.025": 0.0,
			"-0.024": 0.0,
			"-0.023": 0.0,
			"-0.022": 0.0,
			"-0.021": 0.0,
			"-0.02": 0.0,
			"-0.019": 0.0,
			"-0.018": 0.0,
			"-0.017": 0.0,
			"-0.016": 0.0,
			"-0.015": 0.0,
			"-0.014": 0.0,
			"-0.013": 0.0,
			"-0.012": 0.0,
			"-0.011": 0.180597183949,
			"-0.01": 2.17933471854,
			"-0.009": 2.78468696586,
			"-0.008": 2.44465863261,
			"-0.007": 2.86780196643,
			"-0.006": 11.0908736944,
			"-0.005": 16.5442919558,
			"-0.004": 17.9212669387,
			"-0.003": 17.3636362665,
			"-0.002": 19.8692019565,
			"-0.001": 20.059864412,
			"0.0": 17.7467369291,
			"0.001": 23.4617558504,
			"0.002": 19.5556776488,
			"0.003": 13.5794946146,
			"0.004": 14.1586515824,
			"0.005": 14.5198173821,
			"0.006": 5.71687431447,
			"0.007": 3.25448794283,
			"0.008": 2.56720302813,
			"0.009": 1.89973615833,
			"0.01": 2.95654114707,
			"0.011": 3.98897226838,
			"0.012": 1.59774426361,
			"0.013": 0.24398939551,
			"0.014": 0.0,
			"0.015": 0.0,
			"0.016": 0.0,
			"0.017": 0.0,
			"0.018": 0.0,
			"0.019": 0.0,
			"0.02": 0.0,
			"0.021": 0.0,
			"0.022": 0.0,
			"0.023": 0.0,
			"0.024": 0.0,
			"0.025": 0.0
		}
	}
}
