{
	 "smiles": "CN1NC(=C2C1=NC=CC2=O)[N+]([O-])=O", 
	 "Tm": 496.15, 
	 "num_atms": 20, 
	 "gaussian": { 
		 "optdone": 1, 
		 "sigma_profile": "yes", 
		 "theory": "DFT", 
		 "functional": "B3LYP", 
		 "basiset": "6-31G**", 
		 "properties": { 
			 "R2extent": 2722.019, 
			 "electric_dipole_moment_norm": 7.47389829942, 
			 "electric_quadrupole_moment_norm": 8.69926959233, 
			 "total_energy": -714.864235273, 
			 "HOMO_LUMO_gap": 0.08681, 
			 "cosmo_polarized_energy": -26.56, 
			 "cosmo_cavitation_energy": 25.56, 
			 "cosmo_dispersion_energy": -19.0, 
			 "cosmo_repulsion_energy": 1.48, 
			 "cosmo_total_nonelectrostatic_energy": 8.05, 
			 "SMD_solvation_energy": 5.85 
		},
		"coords": [
			{
				"x": -1.0172706824,
				"y": -2.8791279734,
				"z": 0.497398974,
				"element": "C" 
			},
			{
				"x": -0.5203045513,
				"y": -1.5691734782,
				"z": 0.1145506039,
				"element": "N" 
			},
			{
				"x": -0.513739393,
				"y": -0.5208948439,
				"z": 1.0096038798,
				"element": "N" 
			},
			{
				"x": -0.3390283734,
				"y": 0.6300138457,
				"z": 0.3014346524,
				"element": "C" 
			},
			{
				"x": -0.3803588384,
				"y": 0.3958573908,
				"z": -1.0524662038,
				"element": "C" 
			},
			{
				"x": -0.540435107,
				"y": -1.0425483875,
				"z": -1.1637829075,
				"element": "C" 
			},
			{
				"x": -0.7005832488,
				"y": -1.7591527769,
				"z": -2.2438902208,
				"element": "N" 
			},
			{
				"x": -0.6665495224,
				"y": -1.0014996647,
				"z": -3.3928627226,
				"element": "C" 
			},
			{
				"x": -0.4893464823,
				"y": 0.3558187514,
				"z": -3.4727588366,
				"element": "C" 
			},
			{
				"x": -0.318282668,
				"y": 1.2047840958,
				"z": -2.3028943709,
				"element": "C" 
			},
			{
				"x": -0.1373510243,
				"y": 2.4219527268,
				"z": -2.3238876485,
				"element": "O" 
			},
			{
				"x": -0.1219131636,
				"y": 1.8253885383,
				"z": 1.103906897,
				"element": "N" 
			},
			{
				"x": -0.2238882805,
				"y": 2.9112761181,
				"z": 0.5652098421,
				"element": "O" 
			},
			{
				"x": 0.1512348749,
				"y": 1.611520486,
				"z": 2.2940854691,
				"element": "O" 
			},
			{
				"x": -0.9699747338,
				"y": -3.4914136289,
				"z": -0.4035626715,
				"element": "H" 
			},
			{
				"x": -0.382993399,
				"y": -3.3154812482,
				"z": 1.2739167382,
				"element": "H" 
			},
			{
				"x": -2.0529218584,
				"y": -2.8222922003,
				"z": 0.8488496005,
				"element": "H" 
			},
			{
				"x": -0.0936233271,
				"y": -0.6340723958,
				"z": 1.926842235,
				"element": "H" 
			},
			{
				"x": -0.7940163133,
				"y": -1.5756854617,
				"z": -4.3081147679,
				"element": "H" 
			},
			{
				"x": -0.4757539079,
				"y": 0.8485301068,
				"z": -4.438478542,
				"element": "H" 
			}
		],
		 "valence_orbital": [ 
			{
				"type": "occ",
				"energy": -0.3101,
				"method": "rhf"
			},
			{
				"type": "occ",
				"energy": -0.2899,
				"method": "rhf"
			},
			{
				"type": "occ",
				"energy": -0.28166,
				"method": "rhf"
			},
			{
				"type": "occ",
				"energy": -0.23313,
				"method": "rhf"
			},
			{
				"type": "occ",
				"energy": -0.21364,
				"method": "rhf"
			},
			{
				"type": "unocc",
				"energy": -0.12683,
				"method": "rhf"
			},
			{
				"type": "unocc",
				"energy": -0.0496,
				"method": "rhf"
			},
			{
				"type": "unocc",
				"energy": 0.01267,
				"method": "rhf"
			},
			{
				"type": "unocc",
				"energy": 0.02409,
				"method": "rhf"
			},
			{
				"type": "unocc",
				"energy": 0.0488,
				"method": "rhf"
			}
		],
		"cosmo_sigma_profile": { 
			"-0.025": 0.0,
			"-0.024": 0.0,
			"-0.023": 0.0,
			"-0.022": 0.0,
			"-0.021": 0.0,
			"-0.02": 0.0565372452686,
			"-0.019": 1.06509021274,
			"-0.018": 1.45369292528,
			"-0.017": 0.87667578052,
			"-0.016": 0.765267778416,
			"-0.015": 1.34975653838,
			"-0.014": 1.05995824721,
			"-0.013": 0.917613518228,
			"-0.012": 1.2064276579,
			"-0.011": 1.39535844464,
			"-0.01": 3.04797163176,
			"-0.009": 4.06674344433,
			"-0.008": 6.98264904044,
			"-0.007": 10.3839348698,
			"-0.006": 13.7997754655,
			"-0.005": 14.5840392443,
			"-0.004": 13.8513406273,
			"-0.003": 9.91683885789,
			"-0.002": 9.98421741368,
			"-0.001": 8.38616946524,
			"0.0": 7.39358939643,
			"0.001": 7.21201685537,
			"0.002": 8.91201569126,
			"0.003": 10.1288450551,
			"0.004": 9.09225584689,
			"0.005": 7.96774405437,
			"0.006": 9.12936637365,
			"0.007": 8.4616700789,
			"0.008": 5.72218779413,
			"0.009": 4.32743770033,
			"0.01": 2.46084365425,
			"0.011": 2.77888972358,
			"0.012": 2.22018804987,
			"0.013": 4.55243058517,
			"0.014": 6.24446874103,
			"0.015": 3.380040639,
			"0.016": 0.443820920875,
			"0.017": 0.0,
			"0.018": 0.0,
			"0.019": 0.0,
			"0.02": 0.0,
			"0.021": 0.0,
			"0.022": 0.0,
			"0.023": 0.0,
			"0.024": 0.0,
			"0.025": 0.0
		}
	}
}
