{
	 "smiles": "CC1(C)CCC(=O)C23C1CC(OC2=O)C12C(O)C(CC(=O)C31)C(=C)C2=O", 
	 "Tm": 523.15, 
	 "num_atms": 48, 
	 "gaussian": { 
		 "optdone": 1, 
		 "sigma_profile": "yes", 
		 "theory": "DFT", 
		 "functional": "B3LYP", 
		 "basiset": "6-31G**", 
		 "properties": { 
			 "R2extent": 7652.7938, 
			 "electric_dipole_moment_norm": 10.6352521277, 
			 "electric_quadrupole_moment_norm": 31.1798102894, 
			 "total_energy": -1226.66501996, 
			 "HOMO_LUMO_gap": 0.14925, 
			 "cosmo_polarized_energy": -36.85, 
			 "cosmo_cavitation_energy": 43.83, 
			 "cosmo_dispersion_energy": -30.03, 
			 "cosmo_repulsion_energy": 2.17, 
			 "cosmo_total_nonelectrostatic_energy": 15.98, 
			 "SMD_solvation_energy": 9.62 
		},
		"coords": [
			{
				"x": 0.2675942032,
				"y": 1.8054561833,
				"z": 2.350664682,
				"element": "C" 
			},
			{
				"x": 1.6836946352,
				"y": 1.3453081623,
				"z": 1.9430891816,
				"element": "C" 
			},
			{
				"x": 2.624675137,
				"y": 1.6658783277,
				"z": 3.1269421345,
				"element": "C" 
			},
			{
				"x": 2.1139078623,
				"y": 2.180933069,
				"z": 0.7071477805,
				"element": "C" 
			},
			{
				"x": 3.3172958012,
				"y": 1.6037492873,
				"z": -0.0417787031,
				"element": "C" 
			},
			{
				"x": 2.9942533085,
				"y": 0.2561799471,
				"z": -0.6627793405,
				"element": "C" 
			},
			{
				"x": 3.508023366,
				"y": -0.1333498265,
				"z": -1.6839602264,
				"element": "O" 
			},
			{
				"x": 1.9808657073,
				"y": -0.6162500256,
				"z": 0.1176437867,
				"element": "C" 
			},
			{
				"x": 1.8201121236,
				"y": -0.2072544887,
				"z": 1.6416275889,
				"element": "C" 
			},
			{
				"x": 0.7059573588,
				"y": -1.1281522124,
				"z": 2.2413133677,
				"element": "C" 
			},
			{
				"x": 0.4807503242,
				"y": -2.327021409,
				"z": 1.3010197256,
				"element": "C" 
			},
			{
				"x": 1.7730809371,
				"y": -2.8772486189,
				"z": 0.9877708638,
				"element": "O" 
			},
			{
				"x": 2.5724553345,
				"y": -2.0469780054,
				"z": 0.2581929222,
				"element": "C" 
			},
			{
				"x": 3.6720393565,
				"y": -2.4032986906,
				"z": -0.0671203215,
				"element": "O" 
			},
			{
				"x": -0.198622489,
				"y": -1.9173261052,
				"z": -0.0236425445,
				"element": "C" 
			},
			{
				"x": -1.7232423031,
				"y": -1.6501235867,
				"z": -0.0246870308,
				"element": "C" 
			},
			{
				"x": -2.0527188834,
				"y": -0.4832726679,
				"z": 0.7117606006,
				"element": "O" 
			},
			{
				"x": -2.0206605671,
				"y": -1.5609483722,
				"z": -1.5479911326,
				"element": "C" 
			},
			{
				"x": -1.3727120475,
				"y": -0.2924624966,
				"z": -2.151279435,
				"element": "C" 
			},
			{
				"x": 0.1323564087,
				"y": -0.1304661121,
				"z": -1.8579267374,
				"element": "C" 
			},
			{
				"x": 0.8494604738,
				"y": 0.4837733157,
				"z": -2.6161526807,
				"element": "O" 
			},
			{
				"x": 0.521339564,
				"y": -0.5999354162,
				"z": -0.4554510478,
				"element": "C" 
			},
			{
				"x": -1.3047045758,
				"y": -2.7884493832,
				"z": -2.0490095155,
				"element": "C" 
			},
			{
				"x": -1.5877635542,
				"y": -3.5938938271,
				"z": -3.0753274236,
				"element": "C" 
			},
			{
				"x": -0.1294878583,
				"y": -3.013866356,
				"z": -1.1417508751,
				"element": "C" 
			},
			{
				"x": 0.6823217292,
				"y": -3.903108826,
				"z": -1.2666803798,
				"element": "O" 
			},
			{
				"x": -0.4994591981,
				"y": 1.5462873553,
				"z": 1.6148781924,
				"element": "H" 
			},
			{
				"x": -0.0382727772,
				"y": 1.38514613,
				"z": 3.3139719429,
				"element": "H" 
			},
			{
				"x": 0.2630132568,
				"y": 2.8958945904,
				"z": 2.4586016321,
				"element": "H" 
			},
			{
				"x": 2.5303166423,
				"y": 2.7157858006,
				"z": 3.4255297353,
				"element": "H" 
			},
			{
				"x": 3.6746034585,
				"y": 1.4817331311,
				"z": 2.8760283988,
				"element": "H" 
			},
			{
				"x": 2.3817019983,
				"y": 1.0485590655,
				"z": 3.9991318743,
				"element": "H" 
			},
			{
				"x": 2.3291882576,
				"y": 3.2051834331,
				"z": 1.0337501549,
				"element": "H" 
			},
			{
				"x": 1.2746402688,
				"y": 2.2624026855,
				"z": 0.0038761749,
				"element": "H" 
			},
			{
				"x": 4.1675711392,
				"y": 1.4609531265,
				"z": 0.6406477785,
				"element": "H" 
			},
			{
				"x": 3.6644985647,
				"y": 2.2637313275,
				"z": -0.8411453596,
				"element": "H" 
			},
			{
				"x": 2.7627441651,
				"y": -0.5066788546,
				"z": 2.111362767,
				"element": "H" 
			},
			{
				"x": 1.0126845232,
				"y": -1.5034404769,
				"z": 3.2218761675,
				"element": "H" 
			},
			{
				"x": -0.2420542945,
				"y": -0.6057837744,
				"z": 2.3724759721,
				"element": "H" 
			},
			{
				"x": -0.0696446603,
				"y": -3.1341428409,
				"z": 1.7913859022,
				"element": "H" 
			},
			{
				"x": -2.2451933987,
				"y": -2.5242804477,
				"z": 0.3949692781,
				"element": "H" 
			},
			{
				"x": -3.0142401775,
				"y": -0.3927290479,
				"z": 0.726711908,
				"element": "H" 
			},
			{
				"x": -3.0951138478,
				"y": -1.572303938,
				"z": -1.7619505607,
				"element": "H" 
			},
			{
				"x": -1.5062599453,
				"y": -0.2593751186,
				"z": -3.2351076515,
				"element": "H" 
			},
			{
				"x": -1.8583017936,
				"y": 0.5983882017,
				"z": -1.7306059382,
				"element": "H" 
			},
			{
				"x": 0.0022845557,
				"y": 0.1738485707,
				"z": 0.1239214124,
				"element": "H" 
			},
			{
				"x": -0.9379742665,
				"y": -4.4378365005,
				"z": -3.2882196684,
				"element": "H" 
			},
			{
				"x": -2.4506038237,
				"y": -3.4393142846,
				"z": -3.7166253528,
				"element": "H" 
			}
		],
		 "valence_orbital": [ 
			{
				"type": "occ",
				"energy": -0.28322,
				"method": "rhf"
			},
			{
				"type": "occ",
				"energy": -0.25836,
				"method": "rhf"
			},
			{
				"type": "occ",
				"energy": -0.25546,
				"method": "rhf"
			},
			{
				"type": "occ",
				"energy": -0.24596,
				"method": "rhf"
			},
			{
				"type": "occ",
				"energy": -0.2267,
				"method": "rhf"
			},
			{
				"type": "unocc",
				"energy": -0.07745,
				"method": "rhf"
			},
			{
				"type": "unocc",
				"energy": -0.0254,
				"method": "rhf"
			},
			{
				"type": "unocc",
				"energy": -0.00923,
				"method": "rhf"
			},
			{
				"type": "unocc",
				"energy": 0.01776,
				"method": "rhf"
			},
			{
				"type": "unocc",
				"energy": 0.0372,
				"method": "rhf"
			}
		],
		"cosmo_sigma_profile": { 
			"-0.025": 0.0,
			"-0.024": 0.0,
			"-0.023": 0.0,
			"-0.022": 0.0,
			"-0.021": 0.0,
			"-0.02": 0.0,
			"-0.019": 0.0,
			"-0.018": 0.0753104994586,
			"-0.017": 0.964297468113,
			"-0.016": 1.08037617243,
			"-0.015": 0.528602294432,
			"-0.014": 1.48725073442,
			"-0.013": 1.11039925838,
			"-0.012": 1.24792529112,
			"-0.011": 0.652255746798,
			"-0.01": 0.993456815155,
			"-0.009": 2.94176714714,
			"-0.008": 6.78746825485,
			"-0.007": 13.3137503841,
			"-0.006": 20.8925250766,
			"-0.005": 25.9963571715,
			"-0.004": 25.9625094194,
			"-0.003": 37.4620928572,
			"-0.002": 33.1091625011,
			"-0.001": 26.0020743884,
			"0.0": 20.7472192992,
			"0.001": 19.9970518261,
			"0.002": 9.31290483599,
			"0.003": 7.48525121053,
			"0.004": 7.00518959253,
			"0.005": 5.13709275467,
			"0.006": 4.98931801101,
			"0.007": 4.86221257473,
			"0.008": 5.57390667382,
			"0.009": 6.66693464507,
			"0.01": 9.00225183464,
			"0.011": 15.7994954676,
			"0.012": 15.5797354527,
			"0.013": 6.94852805098,
			"0.014": 2.04641647885,
			"0.015": 0.254276355937,
			"0.016": 0.0,
			"0.017": 0.0,
			"0.018": 0.0,
			"0.019": 0.0,
			"0.02": 0.0,
			"0.021": 0.0,
			"0.022": 0.0,
			"0.023": 0.0,
			"0.024": 0.0,
			"0.025": 0.0
		}
	}
}
