{
	 "smiles": "NC1=C(C=C(Br)C(F)=C1)C(O)=O", 
	 "Tm": 463.15, 
	 "num_atms": 17, 
	 "gaussian": { 
		 "optdone": 1, 
		 "sigma_profile": "yes", 
		 "theory": "DFT", 
		 "functional": "B3LYP", 
		 "basiset": "6-31G**", 
		 "properties": { 
			 "R2extent": 7103.3387, 
			 "electric_dipole_moment_norm": 1.79239885628, 
			 "electric_quadrupole_moment_norm": 14.1522313516, 
			 "total_energy": -3146.21048773, 
			 "HOMO_LUMO_gap": 0.16513, 
			 "cosmo_polarized_energy": -14.31, 
			 "cosmo_cavitation_energy": 24.3, 
			 "cosmo_dispersion_energy": -18.67, 
			 "cosmo_repulsion_energy": 1.46, 
			 "cosmo_total_nonelectrostatic_energy": 7.09, 
			 "SMD_solvation_energy": 4.48 
		},
		"coords": [
			{
				"x": 1.01523524,
				"y": 1.4156969489,
				"z": 0.5335711483,
				"element": "N" 
			},
			{
				"x": 0.2086356207,
				"y": 1.5183463548,
				"z": -0.5560725634,
				"element": "C" 
			},
			{
				"x": -0.339026147,
				"y": 2.7725834477,
				"z": -0.9722444765,
				"element": "C" 
			},
			{
				"x": -1.1830927813,
				"y": 2.8084228054,
				"z": -2.0965996455,
				"element": "C" 
			},
			{
				"x": -1.4687808344,
				"y": 1.6778723507,
				"z": -2.8424761924,
				"element": "C" 
			},
			{
				"x": -2.6218949172,
				"y": 1.7459118731,
				"z": -4.349173876,
				"element": "Br" 
			},
			{
				"x": -0.8926046864,
				"y": 0.4640403513,
				"z": -2.4451894904,
				"element": "C" 
			},
			{
				"x": -1.1432859702,
				"y": -0.6465002937,
				"z": -3.1489670787,
				"element": "F" 
			},
			{
				"x": -0.0781931991,
				"y": 0.3755200046,
				"z": -1.3352311874,
				"element": "C" 
			},
			{
				"x": -0.046671502,
				"y": 4.0012512563,
				"z": -0.1937284041,
				"element": "C" 
			},
			{
				"x": -0.3099522826,
				"y": 5.1971443733,
				"z": -0.7789566022,
				"element": "O" 
			},
			{
				"x": 0.4143014797,
				"y": 4.0012946472,
				"z": 0.9354831343,
				"element": "O" 
			},
			{
				"x": 1.0444061096,
				"y": 2.2115340165,
				"z": 1.1604718848,
				"element": "H" 
			},
			{
				"x": 1.2673505398,
				"y": 0.502228876,
				"z": 0.8729775375,
				"element": "H" 
			},
			{
				"x": -1.6716766846,
				"y": 3.7336209569,
				"z": -2.3852537094,
				"element": "H" 
			},
			{
				"x": 0.3320947765,
				"y": -0.5925998857,
				"z": -1.0675872864,
				"element": "H" 
			},
			{
				"x": -0.4761447615,
				"y": 5.0846319165,
				"z": -1.7244231924,
				"element": "H" 
			}
		],
		 "valence_orbital": [ 
			{
				"type": "occ",
				"energy": -0.29923,
				"method": "rhf"
			},
			{
				"type": "occ",
				"energy": -0.29727,
				"method": "rhf"
			},
			{
				"type": "occ",
				"energy": -0.28596,
				"method": "rhf"
			},
			{
				"type": "occ",
				"energy": -0.27308,
				"method": "rhf"
			},
			{
				"type": "occ",
				"energy": -0.22173,
				"method": "rhf"
			},
			{
				"type": "unocc",
				"energy": -0.0566,
				"method": "rhf"
			},
			{
				"type": "unocc",
				"energy": -0.01802,
				"method": "rhf"
			},
			{
				"type": "unocc",
				"energy": -0.00726,
				"method": "rhf"
			},
			{
				"type": "unocc",
				"energy": 0.04112,
				"method": "rhf"
			},
			{
				"type": "unocc",
				"energy": 0.06253,
				"method": "rhf"
			}
		],
		"cosmo_sigma_profile": { 
			"-0.025": 0.0,
			"-0.024": 0.0,
			"-0.023": 0.0,
			"-0.022": 0.0,
			"-0.021": 0.0,
			"-0.02": 0.101092770937,
			"-0.019": 0.747112839866,
			"-0.018": 0.979697766884,
			"-0.017": 1.19364887569,
			"-0.016": 0.631621319232,
			"-0.015": 0.878282907431,
			"-0.014": 2.08120267922,
			"-0.013": 3.15370884759,
			"-0.012": 2.56104544203,
			"-0.011": 1.75356024008,
			"-0.01": 3.47917664074,
			"-0.009": 4.26097525282,
			"-0.008": 4.46365961449,
			"-0.007": 3.67547239314,
			"-0.006": 4.26971536017,
			"-0.005": 5.24989904505,
			"-0.004": 5.23826773819,
			"-0.003": 7.28123213714,
			"-0.002": 8.06178501146,
			"-0.001": 11.9920502592,
			"0.0": 16.8231129503,
			"0.001": 24.1396072027,
			"0.002": 18.1161372343,
			"0.003": 17.2326386799,
			"0.004": 17.988523686,
			"0.005": 7.7022382091,
			"0.006": 3.27438324466,
			"0.007": 2.60639938332,
			"0.008": 3.12617184422,
			"0.009": 3.46876452341,
			"0.01": 4.07885882739,
			"0.011": 4.00393057669,
			"0.012": 2.32568908221,
			"0.013": 1.46673807454,
			"0.014": 0.0825296918387,
			"0.015": 0.0,
			"0.016": 0.0,
			"0.017": 0.0,
			"0.018": 0.0,
			"0.019": 0.0,
			"0.02": 0.0,
			"0.021": 0.0,
			"0.022": 0.0,
			"0.023": 0.0,
			"0.024": 0.0,
			"0.025": 0.0
		}
	}
}
