{
	 "smiles": "CCCCC1CCCC1", 
	 "Tm": 165.15, 
	 "num_atms": 27, 
	 "gaussian": { 
		 "optdone": 1, 
		 "sigma_profile": "yes", 
		 "theory": "DFT", 
		 "functional": "B3LYP", 
		 "basiset": "6-31G**", 
		 "properties": { 
			 "R2extent": 1758.1109, 
			 "electric_dipole_moment_norm": 0.0815233708822, 
			 "electric_quadrupole_moment_norm": 0.536383211892, 
			 "total_energy": -353.826972604, 
			 "HOMO_LUMO_gap": 0.37365, 
			 "cosmo_polarized_energy": -0.64, 
			 "cosmo_cavitation_energy": 26.36, 
			 "cosmo_dispersion_energy": -19.26, 
			 "cosmo_repulsion_energy": 1.6, 
			 "cosmo_total_nonelectrostatic_energy": 8.71, 
			 "SMD_solvation_energy": 3.53 
		},
		"coords": [
			{
				"x": 2.9627047642,
				"y": 0.3698530452,
				"z": -1.6763604772,
				"element": "C" 
			},
			{
				"x": 1.7791568031,
				"y": -0.5430627443,
				"z": -2.0180481812,
				"element": "C" 
			},
			{
				"x": 1.3298308674,
				"y": -1.4576522519,
				"z": -0.8639606726,
				"element": "C" 
			},
			{
				"x": 0.7566892013,
				"y": -0.7807236138,
				"z": 0.3965767327,
				"element": "C" 
			},
			{
				"x": -0.651368504,
				"y": -0.1746467696,
				"z": 0.2735557264,
				"element": "C" 
			},
			{
				"x": -1.292300294,
				"y": 0.1486637521,
				"z": 1.6401768956,
				"element": "C" 
			},
			{
				"x": -2.4605748485,
				"y": 1.0778669969,
				"z": 1.2877574773,
				"element": "C" 
			},
			{
				"x": -1.8734405954,
				"y": 2.003799833,
				"z": 0.1998044355,
				"element": "C" 
			},
			{
				"x": -0.7674839279,
				"y": 1.1666345617,
				"z": -0.5102571314,
				"element": "C" 
			},
			{
				"x": 3.826821683,
				"y": -0.2147372533,
				"z": -1.3389059478,
				"element": "H" 
			},
			{
				"x": 3.2765320307,
				"y": 0.9517815403,
				"z": -2.5493826015,
				"element": "H" 
			},
			{
				"x": 2.7168141133,
				"y": 1.0811576228,
				"z": -0.8810554311,
				"element": "H" 
			},
			{
				"x": 0.9375874132,
				"y": 0.0640965106,
				"z": -2.3704593965,
				"element": "H" 
			},
			{
				"x": 2.0615274468,
				"y": -1.1820225848,
				"z": -2.8650635591,
				"element": "H" 
			},
			{
				"x": 0.5823670699,
				"y": -2.1671592841,
				"z": -1.2454423059,
				"element": "H" 
			},
			{
				"x": 2.1926415394,
				"y": -2.0676590913,
				"z": -0.5615320337,
				"element": "H" 
			},
			{
				"x": 0.7210906763,
				"y": -1.5436502307,
				"z": 1.1863133048,
				"element": "H" 
			},
			{
				"x": 1.448719337,
				"y": -0.009918734,
				"z": 0.7637181596,
				"element": "H" 
			},
			{
				"x": -1.296576731,
				"y": -0.9169346115,
				"z": -0.220746703,
				"element": "H" 
			},
			{
				"x": -0.5661827495,
				"y": 0.681352946,
				"z": 2.2712369282,
				"element": "H" 
			},
			{
				"x": -1.597470027,
				"y": -0.7512890889,
				"z": 2.1855141986,
				"element": "H" 
			},
			{
				"x": -2.8550411525,
				"y": 1.6287064109,
				"z": 2.1478167796,
				"element": "H" 
			},
			{
				"x": -3.287883583,
				"y": 0.4858709636,
				"z": 0.8757074853,
				"element": "H" 
			},
			{
				"x": -2.6381126782,
				"y": 2.3643808044,
				"z": -0.4953140886,
				"element": "H" 
			},
			{
				"x": -1.431249791,
				"y": 2.891300278,
				"z": 0.6663161767,
				"element": "H" 
			},
			{
				"x": 0.1878378032,
				"y": 1.7030684026,
				"z": -0.4900533679,
				"element": "H" 
			},
			{
				"x": -1.0063358668,
				"y": 0.9952225901,
				"z": -1.5642124028,
				"element": "H" 
			}
		],
		 "valence_orbital": [ 
			{
				"type": "occ",
				"energy": -0.31946,
				"method": "rhf"
			},
			{
				"type": "occ",
				"energy": -0.31425,
				"method": "rhf"
			},
			{
				"type": "occ",
				"energy": -0.30297,
				"method": "rhf"
			},
			{
				"type": "occ",
				"energy": -0.29928,
				"method": "rhf"
			},
			{
				"type": "occ",
				"energy": -0.29448,
				"method": "rhf"
			},
			{
				"type": "unocc",
				"energy": 0.07917,
				"method": "rhf"
			},
			{
				"type": "unocc",
				"energy": 0.09231,
				"method": "rhf"
			},
			{
				"type": "unocc",
				"energy": 0.09934,
				"method": "rhf"
			},
			{
				"type": "unocc",
				"energy": 0.12662,
				"method": "rhf"
			},
			{
				"type": "unocc",
				"energy": 0.13251,
				"method": "rhf"
			}
		],
		"cosmo_sigma_profile": { 
			"-0.025": 0.0,
			"-0.024": 0.0,
			"-0.023": 0.0,
			"-0.022": 0.0,
			"-0.021": 0.0,
			"-0.02": 0.0,
			"-0.019": 0.0,
			"-0.018": 0.0,
			"-0.017": 0.0,
			"-0.016": 0.0,
			"-0.015": 0.0,
			"-0.014": 0.0,
			"-0.013": 0.0,
			"-0.012": 0.0,
			"-0.011": 0.0,
			"-0.01": 0.0,
			"-0.009": 0.0,
			"-0.008": 0.0,
			"-0.007": 0.0,
			"-0.006": 0.0,
			"-0.005": 0.0,
			"-0.004": 0.0,
			"-0.003": 1.92127733092,
			"-0.002": 26.9260059429,
			"-0.001": 43.2815214427,
			"0.0": 56.4348878198,
			"0.001": 44.3972812805,
			"0.002": 27.1102671148,
			"0.003": 1.49298804236,
			"0.004": 0.0,
			"0.005": 0.0,
			"0.006": 0.0,
			"0.007": 0.0,
			"0.008": 0.0,
			"0.009": 0.0,
			"0.01": 0.0,
			"0.011": 0.0,
			"0.012": 0.0,
			"0.013": 0.0,
			"0.014": 0.0,
			"0.015": 0.0,
			"0.016": 0.0,
			"0.017": 0.0,
			"0.018": 0.0,
			"0.019": 0.0,
			"0.02": 0.0,
			"0.021": 0.0,
			"0.022": 0.0,
			"0.023": 0.0,
			"0.024": 0.0,
			"0.025": 0.0
		}
	}
}
