{
	 "smiles": "NC1=C(CN2CCC(CO)CC2)C=CC=C1", 
	 "Tm": 353.15, 
	 "num_atms": 36, 
	 "gaussian": { 
		 "optdone": 1, 
		 "sigma_profile": "yes", 
		 "theory": "DFT", 
		 "functional": "B3LYP", 
		 "basiset": "6-31G**", 
		 "properties": { 
			 "R2extent": 4085.1854, 
			 "electric_dipole_moment_norm": 2.20095635804, 
			 "electric_quadrupole_moment_norm": 9.5812456925, 
			 "total_energy": -692.146538335, 
			 "HOMO_LUMO_gap": 0.188, 
			 "cosmo_polarized_energy": -13.53, 
			 "cosmo_cavitation_energy": 34.57, 
			 "cosmo_dispersion_energy": -24.92, 
			 "cosmo_repulsion_energy": 1.94, 
			 "cosmo_total_nonelectrostatic_energy": 11.58, 
			 "SMD_solvation_energy": 3.18 
		},
		"coords": [
			{
				"x": 0.1205454863,
				"y": -2.1969672903,
				"z": -1.9441404958,
				"element": "N" 
			},
			{
				"x": 0.9647321035,
				"y": -1.103418591,
				"z": -2.1903859573,
				"element": "C" 
			},
			{
				"x": 1.7810355071,
				"y": -0.5543183662,
				"z": -1.1730995373,
				"element": "C" 
			},
			{
				"x": 1.8419470715,
				"y": -1.1310634189,
				"z": 0.2435419501,
				"element": "C" 
			},
			{
				"x": 0.9296535981,
				"y": -0.6546555998,
				"z": 1.2822037071,
				"element": "N" 
			},
			{
				"x": -0.472786243,
				"y": -1.0605850336,
				"z": 1.2379292737,
				"element": "C" 
			},
			{
				"x": -1.4031513952,
				"y": -0.0907089755,
				"z": 0.4819394699,
				"element": "C" 
			},
			{
				"x": -1.2607839996,
				"y": 1.3649453458,
				"z": 0.9762265671,
				"element": "C" 
			},
			{
				"x": -1.9644416967,
				"y": 1.5858290995,
				"z": 2.319649886,
				"element": "C" 
			},
			{
				"x": -1.901834673,
				"y": 2.975028485,
				"z": 2.6319372959,
				"element": "O" 
			},
			{
				"x": 0.230405442,
				"y": 1.7654257126,
				"z": 1.0138865418,
				"element": "C" 
			},
			{
				"x": 1.0928744023,
				"y": 0.7220579068,
				"z": 1.7496931863,
				"element": "C" 
			},
			{
				"x": 2.584880078,
				"y": 0.5464466391,
				"z": -1.4956710812,
				"element": "C" 
			},
			{
				"x": 2.5739048648,
				"y": 1.138310346,
				"z": -2.7580978273,
				"element": "C" 
			},
			{
				"x": 1.7442621817,
				"y": 0.6029762731,
				"z": -3.7443871695,
				"element": "C" 
			},
			{
				"x": 0.9568793361,
				"y": -0.5095051409,
				"z": -3.4646501921,
				"element": "C" 
			},
			{
				"x": 0.4446754318,
				"y": -2.8394883711,
				"z": -1.2345662451,
				"element": "H" 
			},
			{
				"x": -0.1633929944,
				"y": -2.691261563,
				"z": -2.7797447303,
				"element": "H" 
			},
			{
				"x": 2.8577985424,
				"y": -0.9518051578,
				"z": 0.6181376329,
				"element": "H" 
			},
			{
				"x": 1.7361154536,
				"y": -2.2247927013,
				"z": 0.2082908603,
				"element": "H" 
			},
			{
				"x": -0.822577533,
				"y": -1.1592258678,
				"z": 2.278028739,
				"element": "H" 
			},
			{
				"x": -0.5396549158,
				"y": -2.0593250205,
				"z": 0.7951834134,
				"element": "H" 
			},
			{
				"x": -1.1645100122,
				"y": -0.1321693835,
				"z": -0.5849615289,
				"element": "H" 
			},
			{
				"x": -2.4430268975,
				"y": -0.4305414642,
				"z": 0.5854619081,
				"element": "H" 
			},
			{
				"x": -1.7724430372,
				"y": 2.0259107739,
				"z": 0.2643605082,
				"element": "H" 
			},
			{
				"x": -1.4956391871,
				"y": 0.9854438159,
				"z": 3.1148625961,
				"element": "H" 
			},
			{
				"x": -3.010675958,
				"y": 1.2479713054,
				"z": 2.234058987,
				"element": "H" 
			},
			{
				"x": -2.2827938677,
				"y": 3.102950944,
				"z": 3.5089528554,
				"element": "H" 
			},
			{
				"x": 0.3327440788,
				"y": 2.741066431,
				"z": 1.5009424436,
				"element": "H" 
			},
			{
				"x": 0.5914493837,
				"y": 1.871439814,
				"z": -0.0143021429,
				"element": "H" 
			},
			{
				"x": 2.1529194569,
				"y": 0.991255158,
				"z": 1.6816444634,
				"element": "H" 
			},
			{
				"x": 0.8415677172,
				"y": 0.7403904171,
				"z": 2.8219821883,
				"element": "H" 
			},
			{
				"x": 3.2407154045,
				"y": 0.9469576785,
				"z": -0.7253414335,
				"element": "H" 
			},
			{
				"x": 3.2059330611,
				"y": 1.9951738368,
				"z": -2.9696034377,
				"element": "H" 
			},
			{
				"x": 1.7182948097,
				"y": 1.0407240187,
				"z": -4.7384656116,
				"element": "H" 
			},
			{
				"x": 0.3229789992,
				"y": -0.9347720559,
				"z": -4.239997083,
				"element": "H" 
			}
		],
		 "valence_orbital": [ 
			{
				"type": "occ",
				"energy": -0.29583,
				"method": "rhf"
			},
			{
				"type": "occ",
				"energy": -0.25741,
				"method": "rhf"
			},
			{
				"type": "occ",
				"energy": -0.23839,
				"method": "rhf"
			},
			{
				"type": "occ",
				"energy": -0.20159,
				"method": "rhf"
			},
			{
				"type": "occ",
				"energy": -0.1842,
				"method": "rhf"
			},
			{
				"type": "unocc",
				"energy": 0.0038,
				"method": "rhf"
			},
			{
				"type": "unocc",
				"energy": 0.01918,
				"method": "rhf"
			},
			{
				"type": "unocc",
				"energy": 0.06591,
				"method": "rhf"
			},
			{
				"type": "unocc",
				"energy": 0.08053,
				"method": "rhf"
			},
			{
				"type": "unocc",
				"energy": 0.09598,
				"method": "rhf"
			}
		],
		"cosmo_sigma_profile": { 
			"-0.025": 0.0,
			"-0.024": 0.0,
			"-0.023": 0.0,
			"-0.022": 0.0,
			"-0.021": 0.0,
			"-0.02": 0.0,
			"-0.019": 0.0,
			"-0.018": 0.0,
			"-0.017": 0.0,
			"-0.016": 0.21294002827,
			"-0.015": 0.838677676886,
			"-0.014": 1.20430617289,
			"-0.013": 0.765821506478,
			"-0.012": 1.96770314051,
			"-0.011": 4.39257143438,
			"-0.01": 3.39980493099,
			"-0.009": 3.69422065806,
			"-0.008": 3.63957568635,
			"-0.007": 4.18646239246,
			"-0.006": 5.02805239497,
			"-0.005": 7.47300529576,
			"-0.004": 15.9969204099,
			"-0.003": 22.9287870366,
			"-0.002": 29.3321877479,
			"-0.001": 26.9689742927,
			"0.0": 26.1434353438,
			"0.001": 20.6657878116,
			"0.002": 16.3781395321,
			"0.003": 10.9145872681,
			"0.004": 12.5768345855,
			"0.005": 10.4836254869,
			"0.006": 9.96781378993,
			"0.007": 8.81060456787,
			"0.008": 4.91565338457,
			"0.009": 2.90988419829,
			"0.01": 2.77557642886,
			"0.011": 2.73147477669,
			"0.012": 2.4578123368,
			"0.013": 1.777387238,
			"0.014": 1.52319208263,
			"0.015": 1.07508610618,
			"0.016": 0.111743340067,
			"0.017": 0.0,
			"0.018": 0.0,
			"0.019": 0.0,
			"0.02": 0.0,
			"0.021": 0.0,
			"0.022": 0.0,
			"0.023": 0.0,
			"0.024": 0.0,
			"0.025": 0.0
		}
	}
}
