{
	 "smiles": "O=CC1=CC=C(C=C1)N1CCOCC1", 
	 "Tm": 339.15, 
	 "num_atms": 27, 
	 "gaussian": { 
		 "optdone": 1, 
		 "sigma_profile": "yes", 
		 "theory": "DFT", 
		 "functional": "B3LYP", 
		 "basiset": "6-31G**", 
		 "properties": { 
			 "R2extent": 4415.0242, 
			 "electric_dipole_moment_norm": 4.25829560857, 
			 "electric_quadrupole_moment_norm": 25.8335711863, 
			 "total_energy": -632.179260249, 
			 "HOMO_LUMO_gap": 0.16286, 
			 "cosmo_polarized_energy": -12.71, 
			 "cosmo_cavitation_energy": 29.31, 
			 "cosmo_dispersion_energy": -21.86, 
			 "cosmo_repulsion_energy": 1.7, 
			 "cosmo_total_nonelectrostatic_energy": 9.15, 
			 "SMD_solvation_energy": 4.66 
		},
		"coords": [
			{
				"x": -2.9875382654,
				"y": -4.8503345081,
				"z": 1.0018546358,
				"element": "O" 
			},
			{
				"x": -3.0288411608,
				"y": -3.6438898479,
				"z": 0.8284698257,
				"element": "C" 
			},
			{
				"x": -1.863647876,
				"y": -2.7907162467,
				"z": 0.5539171207,
				"element": "C" 
			},
			{
				"x": -0.5714890968,
				"y": -3.3387232911,
				"z": 0.4665145407,
				"element": "C" 
			},
			{
				"x": 0.5242026899,
				"y": -2.5372519825,
				"z": 0.2071230748,
				"element": "C" 
			},
			{
				"x": 0.3814880435,
				"y": -1.1379558184,
				"z": 0.0224075161,
				"element": "C" 
			},
			{
				"x": -0.9191238595,
				"y": -0.5937953755,
				"z": 0.1163769764,
				"element": "C" 
			},
			{
				"x": -2.0139746608,
				"y": -1.4114494311,
				"z": 0.3716900076,
				"element": "C" 
			},
			{
				"x": 1.4932787424,
				"y": -0.347128817,
				"z": -0.2836283697,
				"element": "N" 
			},
			{
				"x": 1.3014122209,
				"y": 1.072500875,
				"z": -0.5779435002,
				"element": "C" 
			},
			{
				"x": 2.5263246321,
				"y": 1.6278689415,
				"z": -1.3064730039,
				"element": "C" 
			},
			{
				"x": 3.721484819,
				"y": 1.4095552802,
				"z": -0.574951277,
				"element": "O" 
			},
			{
				"x": 3.9245858794,
				"y": 0.0198991623,
				"z": -0.3704230703,
				"element": "C" 
			},
			{
				"x": 2.7660688087,
				"y": -0.6002360373,
				"z": 0.4061470127,
				"element": "C" 
			},
			{
				"x": -3.9989558741,
				"y": -3.0972907109,
				"z": 0.8706905812,
				"element": "H" 
			},
			{
				"x": -0.4565844475,
				"y": -4.4105043357,
				"z": 0.596269348,
				"element": "H" 
			},
			{
				"x": 1.5002943169,
				"y": -2.9990584342,
				"z": 0.1123878244,
				"element": "H" 
			},
			{
				"x": -1.077178686,
				"y": 0.4723405865,
				"z": 0.0135253699,
				"element": "H" 
			},
			{
				"x": -3.0045314264,
				"y": -0.9672213175,
				"z": 0.4456091572,
				"element": "H" 
			},
			{
				"x": 1.1236979732,
				"y": 1.6562317133,
				"z": 0.34182089,
				"element": "H" 
			},
			{
				"x": 0.4317276476,
				"y": 1.1918879371,
				"z": -1.2294440137,
				"element": "H" 
			},
			{
				"x": 2.5993146151,
				"y": 1.1606520861,
				"z": -2.3021903463,
				"element": "H" 
			},
			{
				"x": 2.4263136194,
				"y": 2.7094587311,
				"z": -1.4345366735,
				"element": "H" 
			},
			{
				"x": 4.8550717326,
				"y": -0.0841487501,
				"z": 0.1949165799,
				"element": "H" 
			},
			{
				"x": 4.0389623299,
				"y": -0.4954789945,
				"z": -1.3381601202,
				"element": "H" 
			},
			{
				"x": 2.9365886469,
				"y": -1.6725231634,
				"z": 0.5047297741,
				"element": "H" 
			},
			{
				"x": 2.740548636,
				"y": -0.1699882514,
				"z": 1.4215001396,
				"element": "H" 
			}
		],
		 "valence_orbital": [ 
			{
				"type": "occ",
				"energy": -0.29644,
				"method": "rhf"
			},
			{
				"type": "occ",
				"energy": -0.26684,
				"method": "rhf"
			},
			{
				"type": "occ",
				"energy": -0.26127,
				"method": "rhf"
			},
			{
				"type": "occ",
				"energy": -0.24218,
				"method": "rhf"
			},
			{
				"type": "occ",
				"energy": -0.21135,
				"method": "rhf"
			},
			{
				"type": "unocc",
				"energy": -0.04849,
				"method": "rhf"
			},
			{
				"type": "unocc",
				"energy": -0.00983,
				"method": "rhf"
			},
			{
				"type": "unocc",
				"energy": 0.04974,
				"method": "rhf"
			},
			{
				"type": "unocc",
				"energy": 0.07919,
				"method": "rhf"
			},
			{
				"type": "unocc",
				"energy": 0.09537,
				"method": "rhf"
			}
		],
		"cosmo_sigma_profile": { 
			"-0.025": 0.0,
			"-0.024": 0.0,
			"-0.023": 0.0,
			"-0.022": 0.0,
			"-0.021": 0.0,
			"-0.02": 0.0,
			"-0.019": 0.0,
			"-0.018": 0.0,
			"-0.017": 0.0,
			"-0.016": 0.0,
			"-0.015": 0.0,
			"-0.014": 0.0,
			"-0.013": 0.0,
			"-0.012": 0.0,
			"-0.011": 0.0,
			"-0.01": 0.0,
			"-0.009": 0.19149432613,
			"-0.008": 1.68794022501,
			"-0.007": 4.49758917929,
			"-0.006": 14.9898031878,
			"-0.005": 21.203776543,
			"-0.004": 31.164150802,
			"-0.003": 25.6788329253,
			"-0.002": 19.1364940761,
			"-0.001": 12.693398278,
			"0.0": 9.29430818641,
			"0.001": 10.9530261929,
			"0.002": 12.304944501,
			"0.003": 11.9501583686,
			"0.004": 15.9475632773,
			"0.005": 8.08101326961,
			"0.006": 4.40130639604,
			"0.007": 2.50327600721,
			"0.008": 3.77810421311,
			"0.009": 2.81317909087,
			"0.01": 2.81542742044,
			"0.011": 4.29709589068,
			"0.012": 6.01374930402,
			"0.013": 4.34495273012,
			"0.014": 1.00174091502,
			"0.015": 0.0,
			"0.016": 0.0,
			"0.017": 0.0,
			"0.018": 0.0,
			"0.019": 0.0,
			"0.02": 0.0,
			"0.021": 0.0,
			"0.022": 0.0,
			"0.023": 0.0,
			"0.024": 0.0,
			"0.025": 0.0
		}
	}
}
