{
	 "smiles": "COC1=C2C=NNC2=CC=C1[N+]([O-])=O", 
	 "Tm": 493.15, 
	 "num_atms": 21, 
	 "gaussian": { 
		 "optdone": 1, 
		 "sigma_profile": "yes", 
		 "theory": "DFT", 
		 "functional": "B3LYP", 
		 "basiset": "6-31G**", 
		 "properties": { 
			 "R2extent": 2803.0002, 
			 "electric_dipole_moment_norm": 4.48247780586, 
			 "electric_quadrupole_moment_norm": 19.206541293, 
			 "total_energy": -698.855286648, 
			 "HOMO_LUMO_gap": 0.16244, 
			 "cosmo_polarized_energy": -15.0, 
			 "cosmo_cavitation_energy": 26.0, 
			 "cosmo_dispersion_energy": -19.19, 
			 "cosmo_repulsion_energy": 1.49, 
			 "cosmo_total_nonelectrostatic_energy": 8.3, 
			 "SMD_solvation_energy": 6.32 
		},
		"coords": [
			{
				"x": -2.9680243282,
				"y": -0.0026119774,
				"z": -1.2021613401,
				"element": "C" 
			},
			{
				"x": -1.7944459311,
				"y": 0.637819517,
				"z": -1.731560696,
				"element": "O" 
			},
			{
				"x": -0.6644047188,
				"y": 0.5326687006,
				"z": -0.9855862568,
				"element": "C" 
			},
			{
				"x": -0.3582161452,
				"y": 1.572199367,
				"z": -0.0847863608,
				"element": "C" 
			},
			{
				"x": -1.014603459,
				"y": 2.7807637064,
				"z": 0.3052933903,
				"element": "C" 
			},
			{
				"x": -0.3111636402,
				"y": 3.4390386477,
				"z": 1.2061803503,
				"element": "N" 
			},
			{
				"x": 0.8077891404,
				"y": 2.6899997562,
				"z": 1.4229507021,
				"element": "N" 
			},
			{
				"x": 0.8409182062,
				"y": 1.5562183783,
				"z": 0.6686889866,
				"element": "C" 
			},
			{
				"x": 1.787041434,
				"y": 0.5219000543,
				"z": 0.546758523,
				"element": "C" 
			},
			{
				"x": 1.4942841671,
				"y": -0.4796982388,
				"z": -0.353839913,
				"element": "C" 
			},
			{
				"x": 0.289690373,
				"y": -0.4907498382,
				"z": -1.1022656903,
				"element": "C" 
			},
			{
				"x": 0.1166287352,
				"y": -1.6077567562,
				"z": -2.0315105004,
				"element": "N" 
			},
			{
				"x": 1.1282397859,
				"y": -2.2328018478,
				"z": -2.3595462512,
				"element": "O" 
			},
			{
				"x": -1.016868573,
				"y": -1.8731196293,
				"z": -2.433535243,
				"element": "O" 
			},
			{
				"x": -3.2122392913,
				"y": 0.3991164332,
				"z": -0.2115197574,
				"element": "H" 
			},
			{
				"x": -2.8251948508,
				"y": -1.0838518862,
				"z": -1.1530825953,
				"element": "H" 
			},
			{
				"x": -3.7724048763,
				"y": 0.2311841465,
				"z": -1.9005271969,
				"element": "H" 
			},
			{
				"x": -1.9562146861,
				"y": 3.1771027286,
				"z": -0.046862407,
				"element": "H" 
			},
			{
				"x": 1.497998607,
				"y": 3.0266216571,
				"z": 2.075477044,
				"element": "H" 
			},
			{
				"x": 2.7072700168,
				"y": 0.5092418238,
				"z": 1.1203757033,
				"element": "H" 
			},
			{
				"x": 2.1843200345,
				"y": -1.2971847425,
				"z": -0.5195404914,
				"element": "H" 
			}
		],
		 "valence_orbital": [ 
			{
				"type": "occ",
				"energy": -0.30206,
				"method": "rhf"
			},
			{
				"type": "occ",
				"energy": -0.28629,
				"method": "rhf"
			},
			{
				"type": "occ",
				"energy": -0.28276,
				"method": "rhf"
			},
			{
				"type": "occ",
				"energy": -0.26653,
				"method": "rhf"
			},
			{
				"type": "occ",
				"energy": -0.24278,
				"method": "rhf"
			},
			{
				"type": "unocc",
				"energy": -0.08034,
				"method": "rhf"
			},
			{
				"type": "unocc",
				"energy": -0.04674,
				"method": "rhf"
			},
			{
				"type": "unocc",
				"energy": 0.01254,
				"method": "rhf"
			},
			{
				"type": "unocc",
				"energy": 0.03738,
				"method": "rhf"
			},
			{
				"type": "unocc",
				"energy": 0.06702,
				"method": "rhf"
			}
		],
		"cosmo_sigma_profile": { 
			"-0.025": 0.0,
			"-0.024": 0.0,
			"-0.023": 0.0,
			"-0.022": 0.0,
			"-0.021": 0.0,
			"-0.02": 0.0,
			"-0.019": 0.0,
			"-0.018": 0.122342725366,
			"-0.017": 1.41795221445,
			"-0.016": 1.68145705609,
			"-0.015": 0.852879310074,
			"-0.014": 1.22656465756,
			"-0.013": 1.39162868545,
			"-0.012": 1.17062342516,
			"-0.011": 1.15641438263,
			"-0.01": 1.0647588784,
			"-0.009": 1.65475505021,
			"-0.008": 5.05911105587,
			"-0.007": 4.91896004723,
			"-0.006": 8.29657451649,
			"-0.005": 11.2929218811,
			"-0.004": 15.9816855292,
			"-0.003": 18.7206479472,
			"-0.002": 11.7971025157,
			"-0.001": 11.428274837,
			"0.0": 18.6715741617,
			"0.001": 16.2841580637,
			"0.002": 12.1709022923,
			"0.003": 7.74822723011,
			"0.004": 5.44782450476,
			"0.005": 5.44908300984,
			"0.006": 6.3840027522,
			"0.007": 6.34798432731,
			"0.008": 10.7461066371,
			"0.009": 7.67236894334,
			"0.01": 7.02293970314,
			"0.011": 2.21902433467,
			"0.012": 1.03296608553,
			"0.013": 1.22270174954,
			"0.014": 0.835545148493,
			"0.015": 0.248194595036,
			"0.016": 0.0,
			"0.017": 0.0,
			"0.018": 0.0,
			"0.019": 0.0,
			"0.02": 0.0,
			"0.021": 0.0,
			"0.022": 0.0,
			"0.023": 0.0,
			"0.024": 0.0,
			"0.025": 0.0
		}
	}
}
