{
	 "smiles": "OC(=O)C1CN(C(=O)C1)C1=NC=CS1", 
	 "Tm": 458.15, 
	 "num_atms": 22, 
	 "gaussian": { 
		 "optdone": 1, 
		 "sigma_profile": "yes", 
		 "theory": "DFT", 
		 "functional": "B3LYP", 
		 "basiset": "6-31G**", 
		 "properties": { 
			 "R2extent": 4438.5858, 
			 "electric_dipole_moment_norm": 1.0152841228, 
			 "electric_quadrupole_moment_norm": 13.7912844753, 
			 "total_energy": -1043.0534637, 
			 "HOMO_LUMO_gap": 0.19108, 
			 "cosmo_polarized_energy": -17.0, 
			 "cosmo_cavitation_energy": 27.89, 
			 "cosmo_dispersion_energy": -20.96, 
			 "cosmo_repulsion_energy": 1.62, 
			 "cosmo_total_nonelectrostatic_energy": 8.55, 
			 "SMD_solvation_energy": 5.18 
		},
		"coords": [
			{
				"x": -0.8258677985,
				"y": 1.1529815767,
				"z": -0.8226117987,
				"element": "O" 
			},
			{
				"x": -1.330604569,
				"y": 1.7256919943,
				"z": 0.2964773823,
				"element": "C" 
			},
			{
				"x": -2.2754048084,
				"y": 2.4810782463,
				"z": 0.2816870152,
				"element": "O" 
			},
			{
				"x": -0.5664185201,
				"y": 1.3035012414,
				"z": 1.538768621,
				"element": "C" 
			},
			{
				"x": 0.9253984925,
				"y": 1.7406180401,
				"z": 1.4698341413,
				"element": "C" 
			},
			{
				"x": 1.6350608493,
				"y": 0.5178908319,
				"z": 1.0934470937,
				"element": "N" 
			},
			{
				"x": 0.8759304252,
				"y": -0.6338851455,
				"z": 1.1895168252,
				"element": "C" 
			},
			{
				"x": 1.2803900448,
				"y": -1.7557861071,
				"z": 0.9401739655,
				"element": "O" 
			},
			{
				"x": -0.5046099138,
				"y": -0.2348534608,
				"z": 1.6918743557,
				"element": "C" 
			},
			{
				"x": 2.9707510204,
				"y": 0.5560538385,
				"z": 0.7283404137,
				"element": "C" 
			},
			{
				"x": 3.6384115368,
				"y": 1.6776234712,
				"z": 0.6966610381,
				"element": "N" 
			},
			{
				"x": 4.9371734407,
				"y": 1.4432541329,
				"z": 0.3001220413,
				"element": "C" 
			},
			{
				"x": 5.2579738903,
				"y": 0.147776226,
				"z": 0.0319568169,
				"element": "C" 
			},
			{
				"x": 3.8749488605,
				"y": -0.8853621498,
				"z": 0.2785237759,
				"element": "S" 
			},
			{
				"x": -1.3602823604,
				"y": 1.475462381,
				"z": -1.5678899083,
				"element": "H" 
			},
			{
				"x": -1.0700591613,
				"y": 1.7840446846,
				"z": 2.3776356422,
				"element": "H" 
			},
			{
				"x": 1.1185551102,
				"y": 2.5246015972,
				"z": 0.7348193059,
				"element": "H" 
			},
			{
				"x": 1.2819605736,
				"y": 2.1018864118,
				"z": 2.4405469511,
				"element": "H" 
			},
			{
				"x": -1.2749940492,
				"y": -0.7732885611,
				"z": 1.1368818772,
				"element": "H" 
			},
			{
				"x": -0.5880693066,
				"y": -0.533205603,
				"z": 2.7429014878,
				"element": "H" 
			},
			{
				"x": 5.6183815964,
				"y": 2.2827034346,
				"z": 0.2253494173,
				"element": "H" 
			},
			{
				"x": 6.2053746468,
				"y": -0.2612870813,
				"z": -0.2888164605,
				"element": "H" 
			}
		],
		 "valence_orbital": [ 
			{
				"type": "occ",
				"energy": -0.28877,
				"method": "rhf"
			},
			{
				"type": "occ",
				"energy": -0.28164,
				"method": "rhf"
			},
			{
				"type": "occ",
				"energy": -0.27722,
				"method": "rhf"
			},
			{
				"type": "occ",
				"energy": -0.26971,
				"method": "rhf"
			},
			{
				"type": "occ",
				"energy": -0.22254,
				"method": "rhf"
			},
			{
				"type": "unocc",
				"energy": -0.03146,
				"method": "rhf"
			},
			{
				"type": "unocc",
				"energy": -0.00847,
				"method": "rhf"
			},
			{
				"type": "unocc",
				"energy": 0.02524,
				"method": "rhf"
			},
			{
				"type": "unocc",
				"energy": 0.03146,
				"method": "rhf"
			},
			{
				"type": "unocc",
				"energy": 0.05626,
				"method": "rhf"
			}
		],
		"cosmo_sigma_profile": { 
			"-0.025": 0.0,
			"-0.024": 0.0,
			"-0.023": 0.0,
			"-0.022": 0.0,
			"-0.021": 0.0,
			"-0.02": 0.0,
			"-0.019": 0.17076216105,
			"-0.018": 1.06168806829,
			"-0.017": 0.768416727414,
			"-0.016": 1.11818099625,
			"-0.015": 0.756252677127,
			"-0.014": 0.99097829464,
			"-0.013": 0.378341605923,
			"-0.012": 0.239583597153,
			"-0.011": 1.10157105396,
			"-0.01": 0.646417980515,
			"-0.009": 1.81918484807,
			"-0.008": 8.21594978113,
			"-0.007": 19.4503618949,
			"-0.006": 16.8812418287,
			"-0.005": 12.0432081617,
			"-0.004": 13.5279664596,
			"-0.003": 10.064569356,
			"-0.002": 8.80862408699,
			"-0.001": 9.82019163171,
			"0.0": 11.5069053846,
			"0.001": 11.1133080275,
			"0.002": 13.0735702106,
			"0.003": 14.6661263417,
			"0.004": 13.3351845326,
			"0.005": 7.7689467201,
			"0.006": 7.00813830829,
			"0.007": 4.41869468775,
			"0.008": 4.55417378591,
			"0.009": 4.83701306673,
			"0.01": 5.96400508153,
			"0.011": 8.95986297121,
			"0.012": 7.01913541505,
			"0.013": 1.87962567368,
			"0.014": 0.139746165526,
			"0.015": 0.0,
			"0.016": 0.0,
			"0.017": 0.0,
			"0.018": 0.0,
			"0.019": 0.0,
			"0.02": 0.0,
			"0.021": 0.0,
			"0.022": 0.0,
			"0.023": 0.0,
			"0.024": 0.0,
			"0.025": 0.0
		}
	}
}
