{
	 "smiles": "OCC(F)(F)C(F)(F)C(F)(F)C(F)(F)C(F)(F)C(F)(F)C(F)(F)C(F)(F)C(F)(F)C(F)F", 
	 "Tm": 369.15, 
	 "num_atms": 36, 
	 "gaussian": { 
		 "optdone": 1, 
		 "sigma_profile": "yes", 
		 "theory": "DFT", 
		 "functional": "B3LYP", 
		 "basiset": "6-31G**", 
		 "properties": { 
			 "R2extent": 13302.6221, 
			 "electric_dipole_moment_norm": 3.35895842189, 
			 "electric_quadrupole_moment_norm": 20.196415809, 
			 "total_energy": -2493.49974339, 
			 "HOMO_LUMO_gap": 0.30054, 
			 "cosmo_polarized_energy": -10.22, 
			 "cosmo_cavitation_energy": 45.1, 
			 "cosmo_dispersion_energy": -29.17, 
			 "cosmo_repulsion_energy": 1.85, 
			 "cosmo_total_nonelectrostatic_energy": 17.77, 
			 "SMD_solvation_energy": 13.63 
		},
		"coords": [
			{
				"x": 3.6005734966,
				"y": -2.0977126091,
				"z": -0.8088236614,
				"element": "O" 
			},
			{
				"x": 3.1230178155,
				"y": -3.3497051545,
				"z": -1.2423465151,
				"element": "C" 
			},
			{
				"x": 2.0376309496,
				"y": -3.1189356366,
				"z": -2.2848871958,
				"element": "C" 
			},
			{
				"x": 1.5899532151,
				"y": -4.3384205162,
				"z": -2.6985467451,
				"element": "F" 
			},
			{
				"x": 2.5606158208,
				"y": -2.476976488,
				"z": -3.3628208869,
				"element": "F" 
			},
			{
				"x": 0.793578243,
				"y": -2.278449866,
				"z": -1.8658348514,
				"element": "C" 
			},
			{
				"x": 1.1576783546,
				"y": -0.9839132389,
				"z": -1.7473020291,
				"element": "F" 
			},
			{
				"x": -0.1197707748,
				"y": -2.3835943901,
				"z": -2.8634131742,
				"element": "F" 
			},
			{
				"x": 0.1223201148,
				"y": -2.7242752517,
				"z": -0.5392210913,
				"element": "C" 
			},
			{
				"x": 0.9201704649,
				"y": -2.3620196671,
				"z": 0.4989546766,
				"element": "F" 
			},
			{
				"x": 0.0267604055,
				"y": -4.0791103052,
				"z": -0.5454463116,
				"element": "F" 
			},
			{
				"x": -1.3159919866,
				"y": -2.2090567466,
				"z": -0.2336638718,
				"element": "C" 
			},
			{
				"x": -1.6782443894,
				"y": -2.7748232639,
				"z": 0.9424969254,
				"element": "F" 
			},
			{
				"x": -2.1438711525,
				"y": -2.6644424755,
				"z": -1.1991420248,
				"element": "F" 
			},
			{
				"x": -1.5811023668,
				"y": -0.6747679914,
				"z": -0.125834571,
				"element": "C" 
			},
			{
				"x": -1.3523653088,
				"y": -0.1185693536,
				"z": -1.3339610762,
				"element": "F" 
			},
			{
				"x": -2.8997596913,
				"y": -0.5586798838,
				"z": 0.1704975414,
				"element": "F" 
			},
			{
				"x": -0.7786312293,
				"y": 0.1194400112,
				"z": 0.9495087191,
				"element": "C" 
			},
			{
				"x": -0.7288932327,
				"y": -0.612488972,
				"z": 2.0946376418,
				"element": "F" 
			},
			{
				"x": 0.4745651668,
				"y": 0.3155885357,
				"z": 0.496082108,
				"element": "F" 
			},
			{
				"x": -1.4225912859,
				"y": 1.4941338718,
				"z": 1.3004555186,
				"element": "C" 
			},
			{
				"x": -1.8415480553,
				"y": 2.0810802807,
				"z": 0.1577863844,
				"element": "F" 
			},
			{
				"x": -2.4973225515,
				"y": 1.2649094923,
				"z": 2.0999544687,
				"element": "F" 
			},
			{
				"x": -0.5170758877,
				"y": 2.5348052574,
				"z": 2.0261585232,
				"element": "C" 
			},
			{
				"x": 0.4859298731,
				"y": 2.8821344626,
				"z": 1.1894756276,
				"element": "F" 
			},
			{
				"x": -1.2998139881,
				"y": 3.6180815451,
				"z": 2.2383379252,
				"element": "F" 
			},
			{
				"x": 0.118759151,
				"y": 2.1271120575,
				"z": 3.380983605,
				"element": "C" 
			},
			{
				"x": 0.7649036965,
				"y": 3.2214049785,
				"z": 3.8441764714,
				"element": "F" 
			},
			{
				"x": 1.0353086328,
				"y": 1.1514228636,
				"z": 3.1386819816,
				"element": "F" 
			},
			{
				"x": -0.8371908342,
				"y": 1.6152095925,
				"z": 4.4744002953,
				"element": "C" 
			},
			{
				"x": -0.1027947035,
				"y": 1.4358219175,
				"z": 5.5992109916,
				"element": "F" 
			},
			{
				"x": -1.7855634058,
				"y": 2.5543024662,
				"z": 4.709835048,
				"element": "F" 
			},
			{
				"x": 4.1887720584,
				"y": -2.238468557,
				"z": -0.0576708637,
				"element": "H" 
			},
			{
				"x": 2.6928826565,
				"y": -3.9527777204,
				"z": -0.4329716615,
				"element": "H" 
			},
			{
				"x": 3.8931826635,
				"y": -3.9521771793,
				"z": -1.7468509296,
				"element": "H" 
			},
			{
				"x": -1.3090719345,
				"y": 0.6711179344,
				"z": 4.1934030073,
				"element": "H" 
			}
		],
		 "valence_orbital": [ 
			{
				"type": "occ",
				"energy": -0.36839,
				"method": "rhf"
			},
			{
				"type": "occ",
				"energy": -0.35737,
				"method": "rhf"
			},
			{
				"type": "occ",
				"energy": -0.34623,
				"method": "rhf"
			},
			{
				"type": "occ",
				"energy": -0.33918,
				"method": "rhf"
			},
			{
				"type": "occ",
				"energy": -0.30114,
				"method": "rhf"
			},
			{
				"type": "unocc",
				"energy": -0.0006,
				"method": "rhf"
			},
			{
				"type": "unocc",
				"energy": 0.00871,
				"method": "rhf"
			},
			{
				"type": "unocc",
				"energy": 0.02549,
				"method": "rhf"
			},
			{
				"type": "unocc",
				"energy": 0.0329,
				"method": "rhf"
			},
			{
				"type": "unocc",
				"energy": 0.04336,
				"method": "rhf"
			}
		],
		"cosmo_sigma_profile": { 
			"-0.025": 0.0,
			"-0.024": 0.0,
			"-0.023": 0.0,
			"-0.022": 0.0,
			"-0.021": 0.0,
			"-0.02": 0.0,
			"-0.019": 0.0,
			"-0.018": 0.205179801407,
			"-0.017": 1.30491501979,
			"-0.016": 1.09301363226,
			"-0.015": 0.889317204744,
			"-0.014": 1.14335561206,
			"-0.013": 0.846949445838,
			"-0.012": 1.07618777214,
			"-0.011": 1.83040702875,
			"-0.01": 1.8918516262,
			"-0.009": 3.00423947855,
			"-0.008": 3.27184875211,
			"-0.007": 7.77166201803,
			"-0.006": 7.0616671898,
			"-0.005": 7.5109347073,
			"-0.004": 5.93777681504,
			"-0.003": 7.32082775812,
			"-0.002": 11.3189666118,
			"-0.001": 23.2120908345,
			"0.0": 63.7563424519,
			"0.001": 112.455718909,
			"0.002": 52.1778219359,
			"0.003": 28.5351114044,
			"0.004": 3.82576062088,
			"0.005": 2.21517642587,
			"0.006": 1.67069730888,
			"0.007": 2.36770357787,
			"0.008": 2.17204368006,
			"0.009": 1.40484623504,
			"0.01": 1.55165290981,
			"0.011": 1.20493512171,
			"0.012": 0.424063492452,
			"0.013": 0.0,
			"0.014": 0.0,
			"0.015": 0.0,
			"0.016": 0.0,
			"0.017": 0.0,
			"0.018": 0.0,
			"0.019": 0.0,
			"0.02": 0.0,
			"0.021": 0.0,
			"0.022": 0.0,
			"0.023": 0.0,
			"0.024": 0.0,
			"0.025": 0.0
		}
	}
}
