{
	 "smiles": "CC1=C(Cl)C(C)=C(Br)C(O)=C1Br", 
	 "Tm": 432.15, 
	 "num_atms": 19, 
	 "gaussian": { 
		 "optdone": 1, 
		 "sigma_profile": "yes", 
		 "theory": "DFT", 
		 "functional": "B3LYP", 
		 "basiset": "6-31G**", 
		 "properties": { 
			 "R2extent": 6542.7396, 
			 "electric_dipole_moment_norm": 1.49593511223, 
			 "electric_quadrupole_moment_norm": 7.70638088924, 
			 "total_energy": -5987.30002812, 
			 "HOMO_LUMO_gap": 0.19668, 
			 "cosmo_polarized_energy": -5.5, 
			 "cosmo_cavitation_energy": 27.77, 
			 "cosmo_dispersion_energy": -21.78, 
			 "cosmo_repulsion_energy": 1.71, 
			 "cosmo_total_nonelectrostatic_energy": 7.7, 
			 "SMD_solvation_energy": 2.96 
		},
		"coords": [
			{
				"x": 2.6246893987,
				"y": 0.3899154689,
				"z": 2.3464484007,
				"element": "C" 
			},
			{
				"x": 1.8260098481,
				"y": 0.810131952,
				"z": 1.1400019707,
				"element": "C" 
			},
			{
				"x": 0.8763500779,
				"y": -0.0604244916,
				"z": 0.5772197082,
				"element": "C" 
			},
			{
				"x": 0.6574211732,
				"y": -1.6435648678,
				"z": 1.3267289837,
				"element": "Cl" 
			},
			{
				"x": 0.0890489399,
				"y": 0.2464155472,
				"z": -0.5435021593,
				"element": "C" 
			},
			{
				"x": -0.9069434248,
				"y": -0.7471093914,
				"z": -1.082579789,
				"element": "C" 
			},
			{
				"x": 0.2936365389,
				"y": 1.511065239,
				"z": -1.1073035904,
				"element": "C" 
			},
			{
				"x": -0.7045774158,
				"y": 2.0900766865,
				"z": -2.6489388927,
				"element": "Br" 
			},
			{
				"x": 1.2235543864,
				"y": 2.4312275577,
				"z": -0.599415016,
				"element": "C" 
			},
			{
				"x": 1.425280267,
				"y": 3.6510470732,
				"z": -1.1381481287,
				"element": "O" 
			},
			{
				"x": 1.9782802143,
				"y": 2.0594618532,
				"z": 0.5242719404,
				"element": "C" 
			},
			{
				"x": 3.2289737453,
				"y": 3.3471226599,
				"z": 1.1755775418,
				"element": "Br" 
			},
			{
				"x": 3.3132479482,
				"y": 1.1725176793,
				"z": 2.6581344571,
				"element": "H" 
			},
			{
				"x": 3.1985815929,
				"y": -0.5167344927,
				"z": 2.1302233059,
				"element": "H" 
			},
			{
				"x": 1.9601722208,
				"y": 0.1534059858,
				"z": 3.1834688666,
				"element": "H" 
			},
			{
				"x": -1.6438793715,
				"y": -1.0070587287,
				"z": -0.3162702476,
				"element": "H" 
			},
			{
				"x": -1.4341551695,
				"y": -0.355813424,
				"z": -1.950847481,
				"element": "H" 
			},
			{
				"x": -0.4056414489,
				"y": -1.6766347511,
				"z": -1.3699309416,
				"element": "H" 
			},
			{
				"x": 0.8320504787,
				"y": 3.7536524448,
				"z": -1.9008389289,
				"element": "H" 
			}
		],
		 "valence_orbital": [ 
			{
				"type": "occ",
				"energy": -0.3141,
				"method": "rhf"
			},
			{
				"type": "occ",
				"energy": -0.29695,
				"method": "rhf"
			},
			{
				"type": "occ",
				"energy": -0.2846,
				"method": "rhf"
			},
			{
				"type": "occ",
				"energy": -0.2472,
				"method": "rhf"
			},
			{
				"type": "occ",
				"energy": -0.2302,
				"method": "rhf"
			},
			{
				"type": "unocc",
				"energy": -0.03352,
				"method": "rhf"
			},
			{
				"type": "unocc",
				"energy": -0.02733,
				"method": "rhf"
			},
			{
				"type": "unocc",
				"energy": -0.01636,
				"method": "rhf"
			},
			{
				"type": "unocc",
				"energy": 0.01851,
				"method": "rhf"
			},
			{
				"type": "unocc",
				"energy": 0.04307,
				"method": "rhf"
			}
		],
		"cosmo_sigma_profile": { 
			"-0.025": 0.0,
			"-0.024": 0.0,
			"-0.023": 0.0,
			"-0.022": 0.0,
			"-0.021": 0.0,
			"-0.02": 0.0,
			"-0.019": 0.0,
			"-0.018": 0.0,
			"-0.017": 0.0,
			"-0.016": 0.0,
			"-0.015": 0.129266620762,
			"-0.014": 0.387825901112,
			"-0.013": 0.804853152897,
			"-0.012": 0.542475998151,
			"-0.011": 0.887962612923,
			"-0.01": 1.0017608236,
			"-0.009": 1.07613002508,
			"-0.008": 0.484967224528,
			"-0.007": 1.30312485994,
			"-0.006": 2.16223356979,
			"-0.005": 8.20476874811,
			"-0.004": 11.5393526488,
			"-0.003": 18.1606091776,
			"-0.002": 21.6570528049,
			"-0.001": 32.878043661,
			"0.0": 28.8920245393,
			"0.001": 30.6640553238,
			"0.002": 20.3591692393,
			"0.003": 18.4543059032,
			"0.004": 13.7645549896,
			"0.005": 6.40422630621,
			"0.006": 2.2960234169,
			"0.007": 2.02712988478,
			"0.008": 1.40889909548,
			"0.009": 2.24235230843,
			"0.01": 2.0754846719,
			"0.011": 0.256956422882,
			"0.012": 0.0,
			"0.013": 0.0,
			"0.014": 0.0,
			"0.015": 0.0,
			"0.016": 0.0,
			"0.017": 0.0,
			"0.018": 0.0,
			"0.019": 0.0,
			"0.02": 0.0,
			"0.021": 0.0,
			"0.022": 0.0,
			"0.023": 0.0,
			"0.024": 0.0,
			"0.025": 0.0
		}
	}
}
