{
	 "smiles": "OC(=O)[C@H](OC(=O)C1=CC=CC=C1)[C@@H](OC(=O)C1=CC=CC=C1)C(O)=O", 
	 "Tm": 428.15, 
	 "num_atms": 40, 
	 "gaussian": { 
		 "optdone": 1, 
		 "sigma_profile": "yes", 
		 "theory": "DFT", 
		 "functional": "B3LYP", 
		 "basiset": "6-31G**", 
		 "properties": { 
			 "R2extent": 12056.3919, 
			 "electric_dipole_moment_norm": 2.10150124673, 
			 "electric_quadrupole_moment_norm": 23.8205918726, 
			 "total_energy": -1296.18125012, 
			 "HOMO_LUMO_gap": 0.20816, 
			 "cosmo_polarized_energy": -24.26, 
			 "cosmo_cavitation_energy": 47.04, 
			 "cosmo_dispersion_energy": -31.85, 
			 "cosmo_repulsion_energy": 2.43, 
			 "cosmo_total_nonelectrostatic_energy": 17.61, 
			 "SMD_solvation_energy": 11.29 
		},
		"coords": [
			{
				"x": -2.5363347775,
				"y": -0.5836467364,
				"z": 0.5548691407,
				"element": "O" 
			},
			{
				"x": -1.6040667411,
				"y": -0.7262186524,
				"z": -0.3988194913,
				"element": "C" 
			},
			{
				"x": -1.8491487497,
				"y": -0.9710172166,
				"z": -1.5584617817,
				"element": "O" 
			},
			{
				"x": -0.1745963672,
				"y": -0.645407969,
				"z": 0.1346690622,
				"element": "C" 
			},
			{
				"x": -0.124798648,
				"y": -0.2610363087,
				"z": 1.5063039829,
				"element": "O" 
			},
			{
				"x": -0.123060701,
				"y": -1.2671103814,
				"z": 2.4309301515,
				"element": "C" 
			},
			{
				"x": -0.0703390451,
				"y": -2.4412985608,
				"z": 2.1292964387,
				"element": "O" 
			},
			{
				"x": -0.1772461145,
				"y": -0.7395573043,
				"z": 3.8182401219,
				"element": "C" 
			},
			{
				"x": -0.3680766418,
				"y": 0.62308806,
				"z": 4.090208754,
				"element": "C" 
			},
			{
				"x": -0.4171475676,
				"y": 1.0624219364,
				"z": 5.4119751528,
				"element": "C" 
			},
			{
				"x": -0.2751768298,
				"y": 0.1501111387,
				"z": 6.4607034259,
				"element": "C" 
			},
			{
				"x": -0.0882127427,
				"y": -1.2085143737,
				"z": 6.190105474,
				"element": "C" 
			},
			{
				"x": -0.041924547,
				"y": -1.6543958619,
				"z": 4.8720329483,
				"element": "C" 
			},
			{
				"x": 0.7374474425,
				"y": 0.3431393256,
				"z": -0.6156754166,
				"element": "C" 
			},
			{
				"x": 1.0982253703,
				"y": -0.1761513342,
				"z": -1.8979174755,
				"element": "O" 
			},
			{
				"x": 0.4652524586,
				"y": 0.2740155425,
				"z": -3.0225055975,
				"element": "C" 
			},
			{
				"x": -0.3156285402,
				"y": 1.2001650916,
				"z": -3.0200201834,
				"element": "O" 
			},
			{
				"x": 0.8834155987,
				"y": -0.480911248,
				"z": -4.2322458802,
				"element": "C" 
			},
			{
				"x": 0.331976402,
				"y": -0.0903253004,
				"z": -5.4608415796,
				"element": "C" 
			},
			{
				"x": 0.6864871102,
				"y": -0.7607291544,
				"z": -6.6282226797,
				"element": "C" 
			},
			{
				"x": 1.5924881883,
				"y": -1.8236459444,
				"z": -6.575243914,
				"element": "C" 
			},
			{
				"x": 2.1426233152,
				"y": -2.2159882192,
				"z": -5.3525120707,
				"element": "C" 
			},
			{
				"x": 1.7907834542,
				"y": -1.548561526,
				"z": -4.180760858,
				"element": "C" 
			},
			{
				"x": 0.1934746165,
				"y": 1.7795874561,
				"z": -0.600401398,
				"element": "C" 
			},
			{
				"x": 1.1331192215,
				"y": 2.6494353126,
				"z": -1.0202738068,
				"element": "O" 
			},
			{
				"x": -0.8754220191,
				"y": 2.10143656,
				"z": -0.1382428361,
				"element": "O" 
			},
			{
				"x": -3.3944444084,
				"y": -0.6859636276,
				"z": 0.1094542453,
				"element": "H" 
			},
			{
				"x": 0.2493146546,
				"y": -1.6480119947,
				"z": 0.0202916137,
				"element": "H" 
			},
			{
				"x": -0.4872021182,
				"y": 1.3203446879,
				"z": 3.2688570799,
				"element": "H" 
			},
			{
				"x": -0.5690162543,
				"y": 2.1164078996,
				"z": 5.6247018866,
				"element": "H" 
			},
			{
				"x": -0.3131325764,
				"y": 0.4973609033,
				"z": 7.4893952115,
				"element": "H" 
			},
			{
				"x": 0.0193229608,
				"y": -1.9168572378,
				"z": 7.006117287,
				"element": "H" 
			},
			{
				"x": 0.0975669721,
				"y": -2.7039146018,
				"z": 4.6357943784,
				"element": "H" 
			},
			{
				"x": 1.6779091998,
				"y": 0.3691213432,
				"z": -0.0561630128,
				"element": "H" 
			},
			{
				"x": -0.3711159874,
				"y": 0.7353338859,
				"z": -5.4758911472,
				"element": "H" 
			},
			{
				"x": 0.2572529338,
				"y": -0.4574541196,
				"z": -7.5784462457,
				"element": "H" 
			},
			{
				"x": 1.8684904642,
				"y": -2.3470125184,
				"z": -7.4863268652,
				"element": "H" 
			},
			{
				"x": 2.8448108588,
				"y": -3.0433381153,
				"z": -5.3120676503,
				"element": "H" 
			},
			{
				"x": 2.2117483873,
				"y": -1.8493925312,
				"z": -3.2287182623,
				"element": "H" 
			},
			{
				"x": 0.7211817677,
				"y": 3.5292916946,
				"z": -1.0029882029,
				"element": "H" 
			}
		],
		 "valence_orbital": [ 
			{
				"type": "occ",
				"energy": -0.27398,
				"method": "rhf"
			},
			{
				"type": "occ",
				"energy": -0.26264,
				"method": "rhf"
			},
			{
				"type": "occ",
				"energy": -0.26132,
				"method": "rhf"
			},
			{
				"type": "occ",
				"energy": -0.26105,
				"method": "rhf"
			},
			{
				"type": "occ",
				"energy": -0.2595,
				"method": "rhf"
			},
			{
				"type": "unocc",
				"energy": -0.05134,
				"method": "rhf"
			},
			{
				"type": "unocc",
				"energy": -0.04935,
				"method": "rhf"
			},
			{
				"type": "unocc",
				"energy": -0.01039,
				"method": "rhf"
			},
			{
				"type": "unocc",
				"energy": -0.00876,
				"method": "rhf"
			},
			{
				"type": "unocc",
				"energy": -0.00564,
				"method": "rhf"
			}
		],
		"cosmo_sigma_profile": { 
			"-0.025": 0.0,
			"-0.024": 0.0,
			"-0.023": 0.0,
			"-0.022": 0.0,
			"-0.021": 0.0,
			"-0.02": 0.0524088278709,
			"-0.019": 1.55221171971,
			"-0.018": 1.57207198903,
			"-0.017": 2.46757387488,
			"-0.016": 1.44712407267,
			"-0.015": 0.956798124177,
			"-0.014": 0.562310546105,
			"-0.013": 1.88765529285,
			"-0.012": 2.48494379232,
			"-0.011": 1.31445991513,
			"-0.01": 2.60094778704,
			"-0.009": 4.10459347847,
			"-0.008": 4.60750342961,
			"-0.007": 9.27646434131,
			"-0.006": 22.3839463465,
			"-0.005": 27.0302435175,
			"-0.004": 22.5722667599,
			"-0.003": 20.0891414617,
			"-0.002": 19.6938310041,
			"-0.001": 19.8911606655,
			"0.0": 23.5593548663,
			"0.001": 29.9120578082,
			"0.002": 29.389713711,
			"0.003": 33.9021192946,
			"0.004": 24.2394069247,
			"0.005": 8.15710048898,
			"0.006": 7.09779418539,
			"0.007": 9.03510995198,
			"0.008": 9.30208289254,
			"0.009": 9.56146335608,
			"0.01": 13.4414554187,
			"0.011": 11.5103778782,
			"0.012": 0.547517095824,
			"0.013": 0.0,
			"0.014": 0.0,
			"0.015": 0.0,
			"0.016": 0.0,
			"0.017": 0.0,
			"0.018": 0.0,
			"0.019": 0.0,
			"0.02": 0.0,
			"0.021": 0.0,
			"0.022": 0.0,
			"0.023": 0.0,
			"0.024": 0.0,
			"0.025": 0.0
		}
	}
}
