{
	 "smiles": "COC1=CC=CC(C=CC2=C(C=C(C(C=CC3=CC=CC(OC)=C3O)=C2)[N+]([O-])=O)[N+]([O-])=O)=C1O", 
	 "Tm": 527.15, 
	 "num_atms": 54, 
	 "gaussian": { 
		 "optdone": 1, 
		 "sigma_profile": "yes", 
		 "theory": "DFT", 
		 "functional": "B3LYP", 
		 "basiset": "6-31G**", 
		 "properties": { 
			 "R2extent": 24924.8295, 
			 "electric_dipole_moment_norm": 11.8747316445, 
			 "electric_quadrupole_moment_norm": 58.5760554562, 
			 "total_energy": -1637.64768068, 
			 "HOMO_LUMO_gap": 0.1126, 
			 "cosmo_polarized_energy": -23.4, 
			 "cosmo_cavitation_energy": 60.57, 
			 "cosmo_dispersion_energy": -42.63, 
			 "cosmo_repulsion_energy": 3.16, 
			 "cosmo_total_nonelectrostatic_energy": 21.1, 
			 "SMD_solvation_energy": 16.21 
		},
		"coords": [
			{
				"x": -6.1187128769,
				"y": 4.4328888853,
				"z": -1.8497116433,
				"element": "C" 
			},
			{
				"x": -5.108727775,
				"y": 3.4653671994,
				"z": -1.6020614257,
				"element": "O" 
			},
			{
				"x": -5.3590157228,
				"y": 2.4907586964,
				"z": -0.665447312,
				"element": "C" 
			},
			{
				"x": -6.515405084,
				"y": 2.3565344349,
				"z": 0.0912741236,
				"element": "C" 
			},
			{
				"x": -6.6110130269,
				"y": 1.298092665,
				"z": 1.009867137,
				"element": "C" 
			},
			{
				"x": -5.5692083009,
				"y": 0.3992295285,
				"z": 1.1623479843,
				"element": "C" 
			},
			{
				"x": -4.3824958994,
				"y": 0.5149050633,
				"z": 0.4025972682,
				"element": "C" 
			},
			{
				"x": -3.2511494077,
				"y": -0.4013292177,
				"z": 0.5180029505,
				"element": "C" 
			},
			{
				"x": -3.1776081495,
				"y": -1.475692537,
				"z": 1.3365753469,
				"element": "C" 
			},
			{
				"x": -2.0024772691,
				"y": -2.348178805,
				"z": 1.4228082434,
				"element": "C" 
			},
			{
				"x": -2.0365408837,
				"y": -3.7348012293,
				"z": 1.738238389,
				"element": "C" 
			},
			{
				"x": -0.8745009075,
				"y": -4.4965915873,
				"z": 1.7638183362,
				"element": "C" 
			},
			{
				"x": 0.3596916729,
				"y": -3.9130845978,
				"z": 1.5193226223,
				"element": "C" 
			},
			{
				"x": 0.4790732358,
				"y": -2.5336001788,
				"z": 1.2072129679,
				"element": "C" 
			},
			{
				"x": 1.7418718517,
				"y": -1.8629159603,
				"z": 0.8830005701,
				"element": "C" 
			},
			{
				"x": 1.9622797151,
				"y": -0.5522145965,
				"z": 1.1369401958,
				"element": "C" 
			},
			{
				"x": 3.1452748675,
				"y": 0.2507858456,
				"z": 0.8422992581,
				"element": "C" 
			},
			{
				"x": 3.1848161648,
				"y": 1.5802601874,
				"z": 1.3256394002,
				"element": "C" 
			},
			{
				"x": 4.2685942843,
				"y": 2.4120701588,
				"z": 1.0982471854,
				"element": "C" 
			},
			{
				"x": 5.3721000497,
				"y": 1.9488098514,
				"z": 0.3672964617,
				"element": "C" 
			},
			{
				"x": 5.3571087794,
				"y": 0.6492563503,
				"z": -0.1246366198,
				"element": "C" 
			},
			{
				"x": 6.3541811743,
				"y": 0.0519338889,
				"z": -0.8588605562,
				"element": "O" 
			},
			{
				"x": 7.5305856413,
				"y": 0.7992976925,
				"z": -1.131392728,
				"element": "C" 
			},
			{
				"x": 4.2548229297,
				"y": -0.2017813958,
				"z": 0.1030954621,
				"element": "C" 
			},
			{
				"x": 4.2885798678,
				"y": -1.4590109307,
				"z": -0.4089589955,
				"element": "O" 
			},
			{
				"x": -0.727273708,
				"y": -1.8170550358,
				"z": 1.1600387819,
				"element": "C" 
			},
			{
				"x": 1.5235129026,
				"y": -4.8010406212,
				"z": 1.6559487277,
				"element": "N" 
			},
			{
				"x": 1.3189568996,
				"y": -6.0154104631,
				"z": 1.6242474315,
				"element": "O" 
			},
			{
				"x": 2.6338135995,
				"y": -4.290535715,
				"z": 1.811865164,
				"element": "O" 
			},
			{
				"x": -3.2752004543,
				"y": -4.475561846,
				"z": 2.0226516576,
				"element": "N" 
			},
			{
				"x": -4.2954094914,
				"y": -3.8443034488,
				"z": 2.3092634406,
				"element": "O" 
			},
			{
				"x": -3.2259019402,
				"y": -5.7049212347,
				"z": 1.9729736204,
				"element": "O" 
			},
			{
				"x": -4.2945801844,
				"y": 1.5773381932,
				"z": -0.5149550868,
				"element": "C" 
			},
			{
				"x": -3.1741419316,
				"y": 1.7372778422,
				"z": -1.2706071386,
				"element": "O" 
			},
			{
				"x": -5.7227558929,
				"y": 5.0967291926,
				"z": -2.6193219997,
				"element": "H" 
			},
			{
				"x": -7.039971717,
				"y": 3.9619663137,
				"z": -2.2139507643,
				"element": "H" 
			},
			{
				"x": -6.3420646841,
				"y": 5.0149319522,
				"z": -0.9471496871,
				"element": "H" 
			},
			{
				"x": -7.3368546976,
				"y": 3.0544974836,
				"z": -0.0210498896,
				"element": "H" 
			},
			{
				"x": -7.5137886115,
				"y": 1.1887163051,
				"z": 1.6020635415,
				"element": "H" 
			},
			{
				"x": -5.6662597205,
				"y": -0.4124130276,
				"z": 1.8747735599,
				"element": "H" 
			},
			{
				"x": -2.4241439187,
				"y": -0.1813686568,
				"z": -0.1506770518,
				"element": "H" 
			},
			{
				"x": -4.0214966485,
				"y": -1.7553631507,
				"z": 1.9490022577,
				"element": "H" 
			},
			{
				"x": -0.9320490715,
				"y": -5.5533277132,
				"z": 1.9821597457,
				"element": "H" 
			},
			{
				"x": 2.5266139227,
				"y": -2.462708094,
				"z": 0.4487588676,
				"element": "H" 
			},
			{
				"x": 1.1898568496,
				"y": 0.0032066447,
				"z": 1.6673516402,
				"element": "H" 
			},
			{
				"x": 2.3347151006,
				"y": 1.9448952369,
				"z": 1.8950412513,
				"element": "H" 
			},
			{
				"x": 4.2703206615,
				"y": 3.4259937666,
				"z": 1.4849449743,
				"element": "H" 
			},
			{
				"x": 6.2210277892,
				"y": 2.5988278819,
				"z": 0.1904373586,
				"element": "H" 
			},
			{
				"x": 8.1831772599,
				"y": 0.1408170158,
				"z": -1.7060379584,
				"element": "H" 
			},
			{
				"x": 7.3051967149,
				"y": 1.6947059728,
				"z": -1.7236657252,
				"element": "H" 
			},
			{
				"x": 8.0372481828,
				"y": 1.0957362553,
				"z": -0.2048068982,
				"element": "H" 
			},
			{
				"x": 5.1447947652,
				"y": -1.5623253566,
				"z": -0.854625092,
				"element": "H" 
			},
			{
				"x": -0.6708005418,
				"y": -0.7684200469,
				"z": 0.8971947121,
				"element": "H" 
			},
			{
				"x": -3.321766365,
				"y": 2.5128249421,
				"z": -1.8343840632,
				"element": "H" 
			}
		],
		 "valence_orbital": [ 
			{
				"type": "occ",
				"energy": -0.27353,
				"method": "rhf"
			},
			{
				"type": "occ",
				"energy": -0.2256,
				"method": "rhf"
			},
			{
				"type": "occ",
				"energy": -0.22403,
				"method": "rhf"
			},
			{
				"type": "occ",
				"energy": -0.21456,
				"method": "rhf"
			},
			{
				"type": "occ",
				"energy": -0.21145,
				"method": "rhf"
			},
			{
				"type": "unocc",
				"energy": -0.09885,
				"method": "rhf"
			},
			{
				"type": "unocc",
				"energy": -0.08039,
				"method": "rhf"
			},
			{
				"type": "unocc",
				"energy": -0.05053,
				"method": "rhf"
			},
			{
				"type": "unocc",
				"energy": -0.03206,
				"method": "rhf"
			},
			{
				"type": "unocc",
				"energy": -0.00152,
				"method": "rhf"
			}
		],
		"cosmo_sigma_profile": { 
			"-0.025": 0.0,
			"-0.024": 0.0,
			"-0.023": 0.0,
			"-0.022": 0.0,
			"-0.021": 0.0,
			"-0.02": 0.0,
			"-0.019": 0.0,
			"-0.018": 0.0,
			"-0.017": 0.0,
			"-0.016": 0.0,
			"-0.015": 0.0435887745351,
			"-0.014": 1.32137881636,
			"-0.013": 1.13083319569,
			"-0.012": 0.501797480646,
			"-0.011": 1.74031738491,
			"-0.01": 1.64669502915,
			"-0.009": 1.0504758311,
			"-0.008": 3.56368153995,
			"-0.007": 13.4926634082,
			"-0.006": 32.3703690523,
			"-0.005": 40.8681778614,
			"-0.004": 38.5119106879,
			"-0.003": 32.6670585419,
			"-0.002": 32.846179066,
			"-0.001": 32.7672311311,
			"0.0": 29.6402923487,
			"0.001": 29.4474417975,
			"0.002": 35.1034890014,
			"0.003": 36.8403157854,
			"0.004": 31.8624989855,
			"0.005": 24.807650082,
			"0.006": 14.0556650827,
			"0.007": 17.0734738766,
			"0.008": 16.4158433191,
			"0.009": 10.6793200138,
			"0.01": 5.30601453025,
			"0.011": 0.201132364704,
			"0.012": 0.0,
			"0.013": 0.0,
			"0.014": 0.0,
			"0.015": 0.0,
			"0.016": 0.0,
			"0.017": 0.0,
			"0.018": 0.0,
			"0.019": 0.0,
			"0.02": 0.0,
			"0.021": 0.0,
			"0.022": 0.0,
			"0.023": 0.0,
			"0.024": 0.0,
			"0.025": 0.0
		}
	}
}
