{
	 "smiles": "[O-][N+](=O)C1=CC=C(OC(=O)CBr)C=C1", 
	 "Tm": 359.15, 
	 "num_atms": 20, 
	 "gaussian": { 
		 "optdone": 1, 
		 "sigma_profile": "yes", 
		 "theory": "DFT", 
		 "functional": "B3LYP", 
		 "basiset": "6-31G**", 
		 "properties": { 
			 "R2extent": 6825.258, 
			 "electric_dipole_moment_norm": 4.68499535966, 
			 "electric_quadrupole_moment_norm": 18.4320798192, 
			 "total_energy": -3235.41713947, 
			 "HOMO_LUMO_gap": 0.17969, 
			 "cosmo_polarized_energy": -11.53, 
			 "cosmo_cavitation_energy": 28.72, 
			 "cosmo_dispersion_energy": -21.18, 
			 "cosmo_repulsion_energy": 1.68, 
			 "cosmo_total_nonelectrostatic_energy": 9.22, 
			 "SMD_solvation_energy": 7.25 
		},
		"coords": [
			{
				"x": 3.4912010786,
				"y": 2.33652092,
				"z": -1.2080772994,
				"element": "O" 
			},
			{
				"x": 3.0759949475,
				"y": 2.2910325825,
				"z": -0.0505883804,
				"element": "N" 
			},
			{
				"x": 3.3005364401,
				"y": 3.1416939404,
				"z": 0.8103304584,
				"element": "O" 
			},
			{
				"x": 2.2521181927,
				"y": 1.1368726344,
				"z": 0.3334765714,
				"element": "C" 
			},
			{
				"x": 1.9782532022,
				"y": 0.1537384629,
				"z": -0.6130049942,
				"element": "C" 
			},
			{
				"x": 1.1996161014,
				"y": -0.9478586134,
				"z": -0.2626185961,
				"element": "C" 
			},
			{
				"x": 0.7096398043,
				"y": -1.031912369,
				"z": 1.0461646982,
				"element": "C" 
			},
			{
				"x": -0.071025298,
				"y": -2.0609207223,
				"z": 1.555432588,
				"element": "O" 
			},
			{
				"x": -0.5500540439,
				"y": -3.1160329673,
				"z": 0.842238127,
				"element": "C" 
			},
			{
				"x": -0.3261305441,
				"y": -3.355245779,
				"z": -0.3185044428,
				"element": "O" 
			},
			{
				"x": -1.4068763112,
				"y": -3.9859935141,
				"z": 1.7353994399,
				"element": "C" 
			},
			{
				"x": -3.1273502319,
				"y": -3.0992970238,
				"z": 2.1143193598,
				"element": "Br" 
			},
			{
				"x": 0.9894517624,
				"y": -0.0377946621,
				"z": 1.9924910582,
				"element": "C" 
			},
			{
				"x": 1.7657708968,
				"y": 1.0562099262,
				"z": 1.6385056003,
				"element": "C" 
			},
			{
				"x": 2.3761173988,
				"y": 0.2567540953,
				"z": -1.6147596785,
				"element": "H" 
			},
			{
				"x": 0.9781283993,
				"y": -1.7185234022,
				"z": -0.9844173407,
				"element": "H" 
			},
			{
				"x": -0.9343380327,
				"y": -4.1619409406,
				"z": 2.7004338076,
				"element": "H" 
			},
			{
				"x": -1.6343767426,
				"y": -4.9153109951,
				"z": 1.2207551472,
				"element": "H" 
			},
			{
				"x": 0.5875454489,
				"y": -0.1406750772,
				"z": 2.9941738564,
				"element": "H" 
			},
			{
				"x": 1.9987775316,
				"y": 1.8412835045,
				"z": 2.3464500198,
				"element": "H" 
			}
		],
		 "valence_orbital": [ 
			{
				"type": "occ",
				"energy": -0.29836,
				"method": "rhf"
			},
			{
				"type": "occ",
				"energy": -0.29367,
				"method": "rhf"
			},
			{
				"type": "occ",
				"energy": -0.29294,
				"method": "rhf"
			},
			{
				"type": "occ",
				"energy": -0.28806,
				"method": "rhf"
			},
			{
				"type": "occ",
				"energy": -0.27454,
				"method": "rhf"
			},
			{
				"type": "unocc",
				"energy": -0.09485,
				"method": "rhf"
			},
			{
				"type": "unocc",
				"energy": -0.06362,
				"method": "rhf"
			},
			{
				"type": "unocc",
				"energy": -0.03673,
				"method": "rhf"
			},
			{
				"type": "unocc",
				"energy": -0.00459,
				"method": "rhf"
			},
			{
				"type": "unocc",
				"energy": 0.02268,
				"method": "rhf"
			}
		],
		"cosmo_sigma_profile": { 
			"-0.025": 0.0,
			"-0.024": 0.0,
			"-0.023": 0.0,
			"-0.022": 0.0,
			"-0.021": 0.0,
			"-0.02": 0.0,
			"-0.019": 0.0,
			"-0.018": 0.0,
			"-0.017": 0.0,
			"-0.016": 0.0,
			"-0.015": 0.0,
			"-0.014": 0.0,
			"-0.013": 0.0,
			"-0.012": 0.0,
			"-0.011": 0.00429951184661,
			"-0.01": 2.23754165832,
			"-0.009": 4.99745105305,
			"-0.008": 7.55705851,
			"-0.007": 11.425773447,
			"-0.006": 12.0935706252,
			"-0.005": 10.3825585541,
			"-0.004": 12.4767046161,
			"-0.003": 11.7927022664,
			"-0.002": 15.9143246643,
			"-0.001": 20.9759692863,
			"0.0": 23.9733599458,
			"0.001": 18.0142335847,
			"0.002": 11.8918207777,
			"0.003": 9.62824212205,
			"0.004": 12.1141685138,
			"0.005": 12.4012829909,
			"0.006": 6.57255140396,
			"0.007": 8.65639608472,
			"0.008": 9.80792038304,
			"0.009": 6.7182747673,
			"0.01": 4.54156177466,
			"0.011": 0.383348286891,
			"0.012": 0.0,
			"0.013": 0.0,
			"0.014": 0.0,
			"0.015": 0.0,
			"0.016": 0.0,
			"0.017": 0.0,
			"0.018": 0.0,
			"0.019": 0.0,
			"0.02": 0.0,
			"0.021": 0.0,
			"0.022": 0.0,
			"0.023": 0.0,
			"0.024": 0.0,
			"0.025": 0.0
		}
	}
}
