{
	 "smiles": "CN(C)C(=O)C1OC(C)(C)OC1C(=O)N(C)C", 
	 "Tm": 362.65, 
	 "num_atms": 37, 
	 "gaussian": { 
		 "optdone": 1, 
		 "sigma_profile": "yes", 
		 "theory": "DFT", 
		 "functional": "B3LYP", 
		 "basiset": "6-31G**", 
		 "properties": { 
			 "R2extent": 4363.6326, 
			 "electric_dipole_moment_norm": 2.86273538246, 
			 "electric_quadrupole_moment_norm": 14.6914156207, 
			 "total_energy": -841.629094193, 
			 "HOMO_LUMO_gap": 0.2374, 
			 "cosmo_polarized_energy": -14.59, 
			 "cosmo_cavitation_energy": 37.42, 
			 "cosmo_dispersion_energy": -25.46, 
			 "cosmo_repulsion_energy": 2.0, 
			 "cosmo_total_nonelectrostatic_energy": 13.96, 
			 "SMD_solvation_energy": 7.02 
		},
		"coords": [
			{
				"x": -1.390184089,
				"y": 1.8699409097,
				"z": 3.8971964487,
				"element": "C" 
			},
			{
				"x": -1.020302562,
				"y": 0.767473335,
				"z": 3.0145291062,
				"element": "N" 
			},
			{
				"x": 0.3437516685,
				"y": 0.2807683989,
				"z": 3.1940191647,
				"element": "C" 
			},
			{
				"x": -1.775318444,
				"y": 0.6107217333,
				"z": 1.8916552771,
				"element": "C" 
			},
			{
				"x": -2.7794551035,
				"y": 1.2896725653,
				"z": 1.6615712221,
				"element": "O" 
			},
			{
				"x": -1.5701680592,
				"y": -0.5072967634,
				"z": 0.8588018364,
				"element": "C" 
			},
			{
				"x": -0.4647075606,
				"y": -1.3972634426,
				"z": 0.9560809069,
				"element": "O" 
			},
			{
				"x": -0.1672854688,
				"y": -1.9009940697,
				"z": -0.3514948843,
				"element": "C" 
			},
			{
				"x": -0.6674978976,
				"y": -3.3354162092,
				"z": -0.496048989,
				"element": "C" 
			},
			{
				"x": 1.3316483961,
				"y": -1.753477639,
				"z": -0.5915661342,
				"element": "C" 
			},
			{
				"x": -0.9127472667,
				"y": -1.0845395817,
				"z": -1.2781532709,
				"element": "O" 
			},
			{
				"x": -1.4513369036,
				"y": 0.0355429589,
				"z": -0.5741287157,
				"element": "C" 
			},
			{
				"x": -0.5100270377,
				"y": 1.2532269818,
				"z": -0.6981372135,
				"element": "C" 
			},
			{
				"x": 0.1909905892,
				"y": 1.6086914765,
				"z": 0.2502106479,
				"element": "O" 
			},
			{
				"x": -0.4858127431,
				"y": 1.8892855803,
				"z": -1.9072518444,
				"element": "N" 
			},
			{
				"x": -1.2181635819,
				"y": 1.4646254599,
				"z": -3.0931066615,
				"element": "C" 
			},
			{
				"x": 0.3419963985,
				"y": 3.0779587406,
				"z": -2.0634907564,
				"element": "C" 
			},
			{
				"x": -2.4491629744,
				"y": 2.0883921875,
				"z": 3.7732336796,
				"element": "H" 
			},
			{
				"x": -1.1819903965,
				"y": 1.5847216666,
				"z": 4.9333567612,
				"element": "H" 
			},
			{
				"x": -0.8145423068,
				"y": 2.7750080232,
				"z": 3.6600137193,
				"element": "H" 
			},
			{
				"x": 0.5187196144,
				"y": -0.6021729671,
				"z": 2.5897850462,
				"element": "H" 
			},
			{
				"x": 1.0660075893,
				"y": 1.054432954,
				"z": 2.9042428728,
				"element": "H" 
			},
			{
				"x": 0.4942480604,
				"y": 0.0344489545,
				"z": 4.2508058023,
				"element": "H" 
			},
			{
				"x": -2.5069786,
				"y": -1.0811118696,
				"z": 0.9137592784,
				"element": "H" 
			},
			{
				"x": -1.7374440695,
				"y": -3.3829963955,
				"z": -0.2781129113,
				"element": "H" 
			},
			{
				"x": -0.5043406892,
				"y": -3.693221345,
				"z": -1.5166548676,
				"element": "H" 
			},
			{
				"x": -0.1354623268,
				"y": -3.9930355634,
				"z": 0.1967027624,
				"element": "H" 
			},
			{
				"x": 1.8897916414,
				"y": -2.3723905615,
				"z": 0.1171202015,
				"element": "H" 
			},
			{
				"x": 1.5844914134,
				"y": -2.0712335916,
				"z": -1.6069463247,
				"element": "H" 
			},
			{
				"x": 1.6250374695,
				"y": -0.7111176801,
				"z": -0.4519209399,
				"element": "H" 
			},
			{
				"x": -2.4378205173,
				"y": 0.2632222327,
				"z": -0.9821296212,
				"element": "H" 
			},
			{
				"x": -1.54879335,
				"y": 0.432065141,
				"z": -3.0051455697,
				"element": "H" 
			},
			{
				"x": -2.0830344762,
				"y": 2.1135783231,
				"z": -3.2860055788,
				"element": "H" 
			},
			{
				"x": -0.5535133537,
				"y": 1.5211667247,
				"z": -3.9627689813,
				"element": "H" 
			},
			{
				"x": 0.7850845885,
				"y": 3.3203031393,
				"z": -1.0992864385,
				"element": "H" 
			},
			{
				"x": 1.1388933287,
				"y": 2.9018703248,
				"z": -2.7971244837,
				"element": "H" 
			},
			{
				"x": -0.2680709793,
				"y": 3.920249868,
				"z": -2.4115105472,
				"element": "H" 
			}
		],
		 "valence_orbital": [ 
			{
				"type": "occ",
				"energy": -0.26315,
				"method": "rhf"
			},
			{
				"type": "occ",
				"energy": -0.24216,
				"method": "rhf"
			},
			{
				"type": "occ",
				"energy": -0.23975,
				"method": "rhf"
			},
			{
				"type": "occ",
				"energy": -0.23718,
				"method": "rhf"
			},
			{
				"type": "occ",
				"energy": -0.22457,
				"method": "rhf"
			},
			{
				"type": "unocc",
				"energy": 0.01283,
				"method": "rhf"
			},
			{
				"type": "unocc",
				"energy": 0.03699,
				"method": "rhf"
			},
			{
				"type": "unocc",
				"energy": 0.08353,
				"method": "rhf"
			},
			{
				"type": "unocc",
				"energy": 0.09552,
				"method": "rhf"
			},
			{
				"type": "unocc",
				"energy": 0.10498,
				"method": "rhf"
			}
		],
		"cosmo_sigma_profile": { 
			"-0.025": 0.0,
			"-0.024": 0.0,
			"-0.023": 0.0,
			"-0.022": 0.0,
			"-0.021": 0.0,
			"-0.02": 0.0,
			"-0.019": 0.0,
			"-0.018": 0.0,
			"-0.017": 0.0,
			"-0.016": 0.0,
			"-0.015": 0.0,
			"-0.014": 0.0,
			"-0.013": 0.0,
			"-0.012": 0.0,
			"-0.011": 0.0,
			"-0.01": 0.0,
			"-0.009": 0.0,
			"-0.008": 0.163864212924,
			"-0.007": 2.33914145556,
			"-0.006": 6.62480120461,
			"-0.005": 23.4579374227,
			"-0.004": 34.6464853507,
			"-0.003": 36.3558864124,
			"-0.002": 39.3042168097,
			"-0.001": 33.6976295079,
			"0.0": 24.0433681151,
			"0.001": 13.3663979138,
			"0.002": 11.2686903876,
			"0.003": 8.48747253472,
			"0.004": 8.08449377906,
			"0.005": 7.46654762034,
			"0.006": 6.03259359714,
			"0.007": 5.43522574412,
			"0.008": 6.82833281702,
			"0.009": 5.55353123658,
			"0.01": 4.47100617758,
			"0.011": 2.29697926189,
			"0.012": 3.9076793536,
			"0.013": 2.77412118685,
			"0.014": 4.7919688318,
			"0.015": 0.344564358296,
			"0.016": 0.0,
			"0.017": 0.0,
			"0.018": 0.0,
			"0.019": 0.0,
			"0.02": 0.0,
			"0.021": 0.0,
			"0.022": 0.0,
			"0.023": 0.0,
			"0.024": 0.0,
			"0.025": 0.0
		}
	}
}
