{
	 "smiles": "CC1=NN=NN1C1=CC(N)=C(F)C=C1", 
	 "Tm": 430.15, 
	 "num_atms": 22, 
	 "gaussian": { 
		 "optdone": 1, 
		 "sigma_profile": "yes", 
		 "theory": "DFT", 
		 "functional": "B3LYP", 
		 "basiset": "6-31G**", 
		 "properties": { 
			 "R2extent": 3255.0649, 
			 "electric_dipole_moment_norm": 6.32387135464, 
			 "electric_quadrupole_moment_norm": 17.7412424819, 
			 "total_energy": -683.216837232, 
			 "HOMO_LUMO_gap": 0.19027, 
			 "cosmo_polarized_energy": -18.16, 
			 "cosmo_cavitation_energy": 27.28, 
			 "cosmo_dispersion_energy": -19.7, 
			 "cosmo_repulsion_energy": 1.52, 
			 "cosmo_total_nonelectrostatic_energy": 9.1, 
			 "SMD_solvation_energy": 3.33 
		},
		"coords": [
			{
				"x": -2.448135122,
				"y": -0.9938709001,
				"z": -0.5226621245,
				"element": "C" 
			},
			{
				"x": -1.9280389446,
				"y": 0.2326679856,
				"z": -1.1921340463,
				"element": "C" 
			},
			{
				"x": -2.4145235738,
				"y": 0.7630891761,
				"z": -2.2999245018,
				"element": "N" 
			},
			{
				"x": -1.6827578628,
				"y": 1.8823849402,
				"z": -2.5437618876,
				"element": "N" 
			},
			{
				"x": -0.7798819615,
				"y": 2.0588850009,
				"z": -1.6411608468,
				"element": "N" 
			},
			{
				"x": -0.904261692,
				"y": 1.0199758086,
				"z": -0.7635777214,
				"element": "N" 
			},
			{
				"x": -0.0751606237,
				"y": 0.9426511483,
				"z": 0.3935492591,
				"element": "C" 
			},
			{
				"x": 0.510550924,
				"y": -0.2775844856,
				"z": 0.7424060694,
				"element": "C" 
			},
			{
				"x": 1.322510915,
				"y": -0.370497141,
				"z": 1.8813154838,
				"element": "C" 
			},
			{
				"x": 1.8831651358,
				"y": -1.5625566023,
				"z": 2.3149096409,
				"element": "N" 
			},
			{
				"x": 1.5266749135,
				"y": 0.8071641638,
				"z": 2.6193447379,
				"element": "C" 
			},
			{
				"x": 2.3317995334,
				"y": 0.7195939493,
				"z": 3.7076065942,
				"element": "F" 
			},
			{
				"x": 0.9644861266,
				"y": 2.0208700628,
				"z": 2.2690596443,
				"element": "C" 
			},
			{
				"x": 0.1424741056,
				"y": 2.0995544773,
				"z": 1.143688411,
				"element": "C" 
			},
			{
				"x": -2.4641196118,
				"y": -0.8808919778,
				"z": 0.5646582287,
				"element": "H" 
			},
			{
				"x": -3.4613480541,
				"y": -1.1778150072,
				"z": -0.8829525394,
				"element": "H" 
			},
			{
				"x": -1.840772255,
				"y": -1.8734930061,
				"z": -0.7612220453,
				"element": "H" 
			},
			{
				"x": 0.3559631506,
				"y": -1.1552285779,
				"z": 0.1239575104,
				"element": "H" 
			},
			{
				"x": 2.0524752893,
				"y": -2.2581855437,
				"z": 1.6028930293,
				"element": "H" 
			},
			{
				"x": 2.6520569879,
				"y": -1.4556231942,
				"z": 2.961355172,
				"element": "H" 
			},
			{
				"x": 1.1710057217,
				"y": 2.892637577,
				"z": 2.8800791062,
				"element": "H" 
			},
			{
				"x": -0.3140631022,
				"y": 3.0340721463,
				"z": 0.8432728258,
				"element": "H" 
			}
		],
		 "valence_orbital": [ 
			{
				"type": "occ",
				"energy": -0.28831,
				"method": "rhf"
			},
			{
				"type": "occ",
				"energy": -0.28696,
				"method": "rhf"
			},
			{
				"type": "occ",
				"energy": -0.2791,
				"method": "rhf"
			},
			{
				"type": "occ",
				"energy": -0.26078,
				"method": "rhf"
			},
			{
				"type": "occ",
				"energy": -0.22655,
				"method": "rhf"
			},
			{
				"type": "unocc",
				"energy": -0.03628,
				"method": "rhf"
			},
			{
				"type": "unocc",
				"energy": -0.01826,
				"method": "rhf"
			},
			{
				"type": "unocc",
				"energy": 0.00944,
				"method": "rhf"
			},
			{
				"type": "unocc",
				"energy": 0.03041,
				"method": "rhf"
			},
			{
				"type": "unocc",
				"energy": 0.06232,
				"method": "rhf"
			}
		],
		"cosmo_sigma_profile": { 
			"-0.025": 0.0,
			"-0.024": 0.0,
			"-0.023": 0.0,
			"-0.022": 0.0,
			"-0.021": 0.0,
			"-0.02": 0.0,
			"-0.019": 0.0,
			"-0.018": 0.0,
			"-0.017": 0.0,
			"-0.016": 0.0,
			"-0.015": 0.0,
			"-0.014": 0.31270192356,
			"-0.013": 1.82282563909,
			"-0.012": 2.71352149602,
			"-0.011": 2.43413945695,
			"-0.01": 2.78259104631,
			"-0.009": 5.07352592941,
			"-0.008": 5.7215565414,
			"-0.007": 9.50767040645,
			"-0.006": 11.9067442066,
			"-0.005": 13.4849704804,
			"-0.004": 13.5845501753,
			"-0.003": 16.7336322832,
			"-0.002": 11.9893681432,
			"-0.001": 9.54964898103,
			"0.0": 10.3682045189,
			"0.001": 14.1856390979,
			"0.002": 16.1045826842,
			"0.003": 13.9120233376,
			"0.004": 11.8097894619,
			"0.005": 5.28601097771,
			"0.006": 3.83710986182,
			"0.007": 4.44797888585,
			"0.008": 4.44937500054,
			"0.009": 6.05663011484,
			"0.01": 5.61805738566,
			"0.011": 5.42139173527,
			"0.012": 3.50068086483,
			"0.013": 2.97135707214,
			"0.014": 1.97271945868,
			"0.015": 0.896022859342,
			"0.016": 0.15776994204,
			"0.017": 0.0,
			"0.018": 0.0,
			"0.019": 0.0,
			"0.02": 0.0,
			"0.021": 0.0,
			"0.022": 0.0,
			"0.023": 0.0,
			"0.024": 0.0,
			"0.025": 0.0
		}
	}
}
