{
	 "smiles": "CC1=CC(C=O)=CC(C)=C1O", 
	 "Tm": 387.15, 
	 "num_atms": 21, 
	 "gaussian": { 
		 "optdone": 1, 
		 "sigma_profile": "yes", 
		 "theory": "DFT", 
		 "functional": "B3LYP", 
		 "basiset": "6-31G**", 
		 "properties": { 
			 "R2extent": 2557.3328, 
			 "electric_dipole_moment_norm": 3.89249880154, 
			 "electric_quadrupole_moment_norm": 18.0749662708, 
			 "total_energy": -499.438219048, 
			 "HOMO_LUMO_gap": 0.18019, 
			 "cosmo_polarized_energy": -11.71, 
			 "cosmo_cavitation_energy": 24.76, 
			 "cosmo_dispersion_energy": -18.03, 
			 "cosmo_repulsion_energy": 1.44, 
			 "cosmo_total_nonelectrostatic_energy": 8.17, 
			 "SMD_solvation_energy": 5.6 
		},
		"coords": [
			{
				"x": -0.2861281094,
				"y": 1.9301481389,
				"z": 2.8017028692,
				"element": "C" 
			},
			{
				"x": 0.3543482452,
				"y": 0.8785634566,
				"z": 1.9264029135,
				"element": "C" 
			},
			{
				"x": 0.7263205172,
				"y": -0.3641193236,
				"z": 2.4276023814,
				"element": "C" 
			},
			{
				"x": 1.3196469289,
				"y": -1.3295372862,
				"z": 1.6024159214,
				"element": "C" 
			},
			{
				"x": 1.7075698497,
				"y": -2.6406093429,
				"z": 2.149645754,
				"element": "C" 
			},
			{
				"x": 1.5553570997,
				"y": -2.9880299641,
				"z": 3.3079386009,
				"element": "O" 
			},
			{
				"x": 1.5408594689,
				"y": -1.035664285,
				"z": 0.249774149,
				"element": "C" 
			},
			{
				"x": 1.1852151729,
				"y": 0.1945871318,
				"z": -0.2967400827,
				"element": "C" 
			},
			{
				"x": 1.4129051052,
				"y": 0.5333162327,
				"z": -1.7473403242,
				"element": "C" 
			},
			{
				"x": 0.5915552666,
				"y": 1.1414245803,
				"z": 0.5598473643,
				"element": "C" 
			},
			{
				"x": 0.2555433571,
				"y": 2.3358908228,
				"z": -0.0076212739,
				"element": "O" 
			},
			{
				"x": -1.2892322716,
				"y": 2.2069694428,
				"z": 2.4489003578,
				"element": "H" 
			},
			{
				"x": -0.3966119967,
				"y": 1.5651420025,
				"z": 3.8250459284,
				"element": "H" 
			},
			{
				"x": 0.3143570899,
				"y": 2.8490036297,
				"z": 2.8510633351,
				"element": "H" 
			},
			{
				"x": 0.5632195656,
				"y": -0.6109216706,
				"z": 3.4728344614,
				"element": "H" 
			},
			{
				"x": 2.1688726567,
				"y": -3.3303786758,
				"z": 1.4060839675,
				"element": "H" 
			},
			{
				"x": 2.0016614445,
				"y": -1.7865433301,
				"z": -0.3894982372,
				"element": "H" 
			},
			{
				"x": 1.8796659634,
				"y": -0.3030463562,
				"z": -2.2736630308,
				"element": "H" 
			},
			{
				"x": 0.470998388,
				"y": 0.7763461215,
				"z": -2.251230796,
				"element": "H" 
			},
			{
				"x": 2.0583744077,
				"y": 1.412075347,
				"z": -1.8536398082,
				"element": "H" 
			},
			{
				"x": -0.1418981497,
				"y": 2.9120833278,
				"z": 0.6575755494,
				"element": "H" 
			}
		],
		 "valence_orbital": [ 
			{
				"type": "occ",
				"energy": -0.34175,
				"method": "rhf"
			},
			{
				"type": "occ",
				"energy": -0.32966,
				"method": "rhf"
			},
			{
				"type": "occ",
				"energy": -0.25188,
				"method": "rhf"
			},
			{
				"type": "occ",
				"energy": -0.24406,
				"method": "rhf"
			},
			{
				"type": "occ",
				"energy": -0.22856,
				"method": "rhf"
			},
			{
				"type": "unocc",
				"energy": -0.04837,
				"method": "rhf"
			},
			{
				"type": "unocc",
				"energy": -0.00603,
				"method": "rhf"
			},
			{
				"type": "unocc",
				"energy": 0.04921,
				"method": "rhf"
			},
			{
				"type": "unocc",
				"energy": 0.05365,
				"method": "rhf"
			},
			{
				"type": "unocc",
				"energy": 0.10952,
				"method": "rhf"
			}
		],
		"cosmo_sigma_profile": { 
			"-0.025": 0.0,
			"-0.024": 0.0,
			"-0.023": 0.0,
			"-0.022": 0.0,
			"-0.021": 0.0,
			"-0.02": 0.0,
			"-0.019": 0.0,
			"-0.018": 0.0,
			"-0.017": 0.135758153855,
			"-0.016": 0.771736667323,
			"-0.015": 0.771791402137,
			"-0.014": 1.10124310819,
			"-0.013": 0.64816721813,
			"-0.012": 1.06559185323,
			"-0.011": 1.63272223893,
			"-0.01": 1.31516614699,
			"-0.009": 0.931542326982,
			"-0.008": 1.47529574316,
			"-0.007": 3.05104414852,
			"-0.006": 8.68779965467,
			"-0.005": 14.3195933554,
			"-0.004": 13.5186469635,
			"-0.003": 13.9289385727,
			"-0.002": 14.9964592912,
			"-0.001": 18.321126301,
			"0.0": 17.681004872,
			"0.001": 12.7628448157,
			"0.002": 13.292879567,
			"0.003": 13.1715643694,
			"0.004": 11.8563856071,
			"0.005": 3.97134073448,
			"0.006": 3.35087609811,
			"0.007": 2.86298167871,
			"0.008": 3.410171755,
			"0.009": 3.53596210231,
			"0.01": 2.98695342209,
			"0.011": 3.00544912315,
			"0.012": 4.79569139694,
			"0.013": 2.2155506738,
			"0.014": 0.440051743187,
			"0.015": 0.0,
			"0.016": 0.0,
			"0.017": 0.0,
			"0.018": 0.0,
			"0.019": 0.0,
			"0.02": 0.0,
			"0.021": 0.0,
			"0.022": 0.0,
			"0.023": 0.0,
			"0.024": 0.0,
			"0.025": 0.0
		}
	}
}
