{
	 "smiles": "IC1=CC=C(OC2CCOCC2)C=C1", 
	 "Tm": 362.15, 
	 "num_atms": 27, 
	 "gaussian": { 
		 "optdone": 1, 
		 "sigma_profile": "no", 
		 "theory": "DFT", 
		 "functional": "B3LYP", 
		 "basiset": "6-31G**", 
		 "properties": { 
			 "R2extent": 4685.1016, 
			 "electric_dipole_moment_norm": 1.93460029205, 
			 "electric_quadrupole_moment_norm": 17.2453622012, 
			 "total_energy": -588.825237022, 
			 "HOMO_LUMO_gap": 0.18488, 
			 "cosmo_polarized_energy": -106990.86, 
			 "cosmo_cavitation_energy": 32.1, 
			 "cosmo_dispersion_energy": -25.06, 
			 "cosmo_repulsion_energy": 1.95, 
			 "cosmo_total_nonelectrostatic_energy": 9.0, 
			 "SMD_solvation_energy": 4.24 
		},
		"coords": [
			{
				"x": -6.440473619,
				"y": -2.3310496789,
				"z": -0.9763917951,
				"element": "I" 
			},
			{
				"x": -4.3741140124,
				"y": -2.1433932335,
				"z": -0.5362427177,
				"element": "C" 
			},
			{
				"x": -3.9521543892,
				"y": -1.2604872732,
				"z": 0.4541861122,
				"element": "C" 
			},
			{
				"x": -2.5906125157,
				"y": -1.131249236,
				"z": 0.7462914304,
				"element": "C" 
			},
			{
				"x": -1.6478775588,
				"y": -1.8934359797,
				"z": 0.0442931656,
				"element": "C" 
			},
			{
				"x": -0.3008046151,
				"y": -1.870783304,
				"z": 0.2524017241,
				"element": "O" 
			},
			{
				"x": 0.2759592024,
				"y": -0.9823898269,
				"z": 1.2300491694,
				"element": "C" 
			},
			{
				"x": 0.3958907168,
				"y": 0.445374009,
				"z": 0.6723526979,
				"element": "C" 
			},
			{
				"x": 1.4334694207,
				"y": 0.5040558541,
				"z": -0.4539267659,
				"element": "C" 
			},
			{
				"x": 2.6964082853,
				"y": 0.0083853042,
				"z": -0.0284056088,
				"element": "O" 
			},
			{
				"x": 2.6202512382,
				"y": -1.3573361378,
				"z": 0.3622684068,
				"element": "C" 
			},
			{
				"x": 1.6660210351,
				"y": -1.5450198823,
				"z": 1.5458738122,
				"element": "C" 
			},
			{
				"x": -2.0864612606,
				"y": -2.7780570812,
				"z": -0.9536857822,
				"element": "C" 
			},
			{
				"x": -3.4394743166,
				"y": -2.9057744428,
				"z": -1.2447389638,
				"element": "C" 
			},
			{
				"x": -4.6715791913,
				"y": -0.6648801051,
				"z": 1.0051476117,
				"element": "H" 
			},
			{
				"x": -2.289405435,
				"y": -0.4338150398,
				"z": 1.5183717681,
				"element": "H" 
			},
			{
				"x": -0.3418390497,
				"y": -0.9996400559,
				"z": 2.1363897599,
				"element": "H" 
			},
			{
				"x": -0.5737920422,
				"y": 0.8030318454,
				"z": 0.309838429,
				"element": "H" 
			},
			{
				"x": 0.7095844577,
				"y": 1.1092183578,
				"z": 1.4870325528,
				"element": "H" 
			},
			{
				"x": 1.5999849024,
				"y": 1.5367897508,
				"z": -0.7733013895,
				"element": "H" 
			},
			{
				"x": 1.0736071987,
				"y": -0.0685059564,
				"z": -1.3236311058,
				"element": "H" 
			},
			{
				"x": 2.2922545323,
				"y": -1.9787219519,
				"z": -0.4856884918,
				"element": "H" 
			},
			{
				"x": 3.6370816893,
				"y": -1.657303282,
				"z": 0.6313884607,
				"element": "H" 
			},
			{
				"x": 2.0641999219,
				"y": -1.010242456,
				"z": 2.4158423033,
				"element": "H" 
			},
			{
				"x": 1.5833461432,
				"y": -2.6047634985,
				"z": 1.8097353822,
				"element": "H" 
			},
			{
				"x": -1.3456625482,
				"y": -3.3626312038,
				"z": -1.489348205,
				"element": "H" 
			},
			{
				"x": -3.7608081902,
				"y": -3.5951754956,
				"z": -2.0175019608,
				"element": "H" 
			}
		],
		 "valence_orbital": [ 
			{
				"type": "occ",
				"energy": -0.27444,
				"method": "rhf"
			},
			{
				"type": "occ",
				"energy": -0.26533,
				"method": "rhf"
			},
			{
				"type": "occ",
				"energy": -0.26489,
				"method": "rhf"
			},
			{
				"type": "occ",
				"energy": -0.25156,
				"method": "rhf"
			},
			{
				"type": "occ",
				"energy": -0.2199,
				"method": "rhf"
			},
			{
				"type": "unocc",
				"energy": -0.03502,
				"method": "rhf"
			},
			{
				"type": "unocc",
				"energy": -0.01608,
				"method": "rhf"
			},
			{
				"type": "unocc",
				"energy": -0.00499,
				"method": "rhf"
			},
			{
				"type": "unocc",
				"energy": 0.04426,
				"method": "rhf"
			},
			{
				"type": "unocc",
				"energy": 0.05287,
				"method": "rhf"
			}
		],
		"cosmo_sigma_profile": { 
			"0.0": 0.0,
			"0.0": 0.0,
			"0.0": 0.0,
			"0.0": 0.0,
			"0.0": 0.0,
			"0.0": 0.0,
			"0.0": 0.0,
			"0.0": 0.0,
			"0.0": 0.0,
			"0.0": 0.0,
			"0.0": 0.0,
			"0.0": 0.0,
			"0.0": 0.0,
			"0.0": 0.0,
			"0.0": 0.0,
			"0.0": 0.0,
			"0.0": 0.0,
			"0.0": 0.0,
			"0.0": 0.0,
			"0.0": 0.0,
			"0.0": 0.0,
			"0.0": 0.0,
			"0.0": 0.0,
			"0.0": 0.0,
			"0.0": 0.0,
			"0.0": 0.0,
			"0.0": 0.0,
			"0.0": 0.0,
			"0.0": 0.0,
			"0.0": 0.0,
			"0.0": 0.0,
			"0.0": 0.0,
			"0.0": 0.0,
			"0.0": 0.0,
			"0.0": 0.0,
			"0.0": 0.0,
			"0.0": 0.0,
			"0.0": 0.0,
			"0.0": 0.0,
			"0.0": 0.0,
			"0.0": 0.0,
			"0.0": 0.0,
			"0.0": 0.0,
			"0.0": 0.0,
			"0.0": 0.0,
			"0.0": 0.0,
			"0.0": 0.0,
			"0.0": 0.0,
			"0.0": 0.0,
			"0.0": 0.0,
			"0.0": 0.0
		}
	}
}
