{
	 "smiles": "CCCCCCCCCCCCCCCCCC(C)=C", 
	 "Tm": 293.15, 
	 "num_atms": 60, 
	 "gaussian": { 
		 "optdone": 1, 
		 "sigma_profile": "yes", 
		 "theory": "DFT", 
		 "functional": "B3LYP", 
		 "basiset": "6-31G**", 
		 "properties": { 
			 "R2extent": 10631.0895, 
			 "electric_dipole_moment_norm": 0.479335654839, 
			 "electric_quadrupole_moment_norm": 3.42034891349, 
			 "total_energy": -786.272451628, 
			 "HOMO_LUMO_gap": 0.26762, 
			 "cosmo_polarized_energy": -2.36, 
			 "cosmo_cavitation_energy": 57.99, 
			 "cosmo_dispersion_energy": -35.83, 
			 "cosmo_repulsion_energy": 2.91, 
			 "cosmo_total_nonelectrostatic_energy": 25.07, 
			 "SMD_solvation_energy": 8.26 
		},
		"coords": [
			{
				"x": 0.5513853333,
				"y": -2.8596077888,
				"z": 2.345063132,
				"element": "C" 
			},
			{
				"x": -0.928664904,
				"y": -2.6629297064,
				"z": 2.6892624767,
				"element": "C" 
			},
			{
				"x": -1.8722593122,
				"y": -3.1551261991,
				"z": 1.5824805916,
				"element": "C" 
			},
			{
				"x": -3.3690439654,
				"y": -2.9752740607,
				"z": 1.9012600708,
				"element": "C" 
			},
			{
				"x": -3.9003093338,
				"y": -1.5229209258,
				"z": 1.8770633563,
				"element": "C" 
			},
			{
				"x": -4.4978347906,
				"y": -1.0551766709,
				"z": 0.5375122499,
				"element": "C" 
			},
			{
				"x": -3.5244835346,
				"y": -0.9822415635,
				"z": -0.6480239448,
				"element": "C" 
			},
			{
				"x": -4.1736724429,
				"y": -0.3840512707,
				"z": -1.904444969,
				"element": "C" 
			},
			{
				"x": -3.3216442911,
				"y": -0.3993281791,
				"z": -3.1866432928,
				"element": "C" 
			},
			{
				"x": -2.030362828,
				"y": 0.4486289499,
				"z": -3.1570051582,
				"element": "C" 
			},
			{
				"x": -0.7662768467,
				"y": -0.293620698,
				"z": -2.6958791538,
				"element": "C" 
			},
			{
				"x": 0.4899067692,
				"y": 0.5875565605,
				"z": -2.7020876467,
				"element": "C" 
			},
			{
				"x": 1.7551158295,
				"y": -0.1591561188,
				"z": -2.2571245331,
				"element": "C" 
			},
			{
				"x": 3.0527172498,
				"y": 0.6638516693,
				"z": -2.3448521087,
				"element": "C" 
			},
			{
				"x": 3.12344353,
				"y": 1.9129265009,
				"z": -1.4483467619,
				"element": "C" 
			},
			{
				"x": 3.0677262443,
				"y": 1.6221877846,
				"z": 0.0577540238,
				"element": "C" 
			},
			{
				"x": 3.2328139202,
				"y": 2.8949490759,
				"z": 0.9130053034,
				"element": "C" 
			},
			{
				"x": 3.1487671086,
				"y": 2.6573404026,
				"z": 2.4065849412,
				"element": "C" 
			},
			{
				"x": 4.268383654,
				"y": 1.8617949623,
				"z": 3.0338897312,
				"element": "C" 
			},
			{
				"x": 2.1332341495,
				"y": 3.1344489907,
				"z": 3.1343106223,
				"element": "C" 
			},
			{
				"x": 1.2017801553,
				"y": -2.5102916195,
				"z": 3.1537662878,
				"element": "H" 
			},
			{
				"x": 0.82376057,
				"y": -2.3070930614,
				"z": 1.4381724567,
				"element": "H" 
			},
			{
				"x": 0.7802362251,
				"y": -3.9167016357,
				"z": 2.1665598595,
				"element": "H" 
			},
			{
				"x": -1.1126274138,
				"y": -1.6003784691,
				"z": 2.8939042131,
				"element": "H" 
			},
			{
				"x": -1.1625016763,
				"y": -3.1951707109,
				"z": 3.621751323,
				"element": "H" 
			},
			{
				"x": -1.6208118632,
				"y": -2.6462086639,
				"z": 0.6434450091,
				"element": "H" 
			},
			{
				"x": -1.6755536058,
				"y": -4.2221484939,
				"z": 1.4082623984,
				"element": "H" 
			},
			{
				"x": -3.553830014,
				"y": -3.4076768293,
				"z": 2.8938250663,
				"element": "H" 
			},
			{
				"x": -3.9626303578,
				"y": -3.5798200421,
				"z": 1.2020179484,
				"element": "H" 
			},
			{
				"x": -3.1058717361,
				"y": -0.828253541,
				"z": 2.181501025,
				"element": "H" 
			},
			{
				"x": -4.6842466643,
				"y": -1.4226606642,
				"z": 2.638071032,
				"element": "H" 
			},
			{
				"x": -4.9398893667,
				"y": -0.0599607566,
				"z": 0.6869422546,
				"element": "H" 
			},
			{
				"x": -5.3347594881,
				"y": -1.7171785283,
				"z": 0.2712713157,
				"element": "H" 
			},
			{
				"x": -3.1459456291,
				"y": -1.985452729,
				"z": -0.8836543436,
				"element": "H" 
			},
			{
				"x": -2.6518954409,
				"y": -0.3830889353,
				"z": -0.356621935,
				"element": "H" 
			},
			{
				"x": -5.1057190419,
				"y": -0.9301718566,
				"z": -2.1074580404,
				"element": "H" 
			},
			{
				"x": -4.475335918,
				"y": 0.6517292181,
				"z": -1.6910694869,
				"element": "H" 
			},
			{
				"x": -3.0685316816,
				"y": -1.4375035215,
				"z": -3.4451735358,
				"element": "H" 
			},
			{
				"x": -3.9583338631,
				"y": -0.0379215909,
				"z": -4.0039758032,
				"element": "H" 
			},
			{
				"x": -2.1896255866,
				"y": 1.3332839385,
				"z": -2.5235180812,
				"element": "H" 
			},
			{
				"x": -1.8396345308,
				"y": 0.8388649732,
				"z": -4.1657201181,
				"element": "H" 
			},
			{
				"x": -0.6036359896,
				"y": -1.1598333638,
				"z": -3.3532800529,
				"element": "H" 
			},
			{
				"x": -0.9118903859,
				"y": -0.7044625651,
				"z": -1.6892483619,
				"element": "H" 
			},
			{
				"x": 0.6450475588,
				"y": 0.992417451,
				"z": -3.7130147754,
				"element": "H" 
			},
			{
				"x": 0.3191485487,
				"y": 1.4562661407,
				"z": -2.0520114216,
				"element": "H" 
			},
			{
				"x": 1.6153913677,
				"y": -0.5300866845,
				"z": -1.2326465209,
				"element": "H" 
			},
			{
				"x": 1.8739188444,
				"y": -1.054574996,
				"z": -2.8823838786,
				"element": "H" 
			},
			{
				"x": 3.9006917977,
				"y": 0.0089033331,
				"z": -2.1015293489,
				"element": "H" 
			},
			{
				"x": 3.2011866969,
				"y": 0.97410691,
				"z": -3.3883154958,
				"element": "H" 
			},
			{
				"x": 4.0594939398,
				"y": 2.4436660946,
				"z": -1.6702936538,
				"element": "H" 
			},
			{
				"x": 2.3172459185,
				"y": 2.61016637,
				"z": -1.7128175216,
				"element": "H" 
			},
			{
				"x": 2.1140613888,
				"y": 1.1470850156,
				"z": 0.318964208,
				"element": "H" 
			},
			{
				"x": 3.8524574679,
				"y": 0.896948019,
				"z": 0.3113043889,
				"element": "H" 
			},
			{
				"x": 4.2046650796,
				"y": 3.3525478235,
				"z": 0.6730441978,
				"element": "H" 
			},
			{
				"x": 2.4660846238,
				"y": 3.6219275348,
				"z": 0.6190902163,
				"element": "H" 
			},
			{
				"x": 5.2406827608,
				"y": 2.3327809956,
				"z": 2.8380804172,
				"element": "H" 
			},
			{
				"x": 4.1434551364,
				"y": 1.7757163019,
				"z": 4.1165763582,
				"element": "H" 
			},
			{
				"x": 4.3250890685,
				"y": 0.8475974682,
				"z": 2.6200412678,
				"element": "H" 
			},
			{
				"x": 2.0676251415,
				"y": 2.9643381688,
				"z": 4.2057390125,
				"element": "H" 
			},
			{
				"x": 1.3317064244,
				"y": 3.713841787,
				"z": 2.6836231893,
				"element": "H" 
			}
		],
		 "valence_orbital": [ 
			{
				"type": "occ",
				"energy": -0.30464,
				"method": "rhf"
			},
			{
				"type": "occ",
				"energy": -0.30006,
				"method": "rhf"
			},
			{
				"type": "occ",
				"energy": -0.29351,
				"method": "rhf"
			},
			{
				"type": "occ",
				"energy": -0.29074,
				"method": "rhf"
			},
			{
				"type": "occ",
				"energy": -0.23819,
				"method": "rhf"
			},
			{
				"type": "unocc",
				"energy": 0.02943,
				"method": "rhf"
			},
			{
				"type": "unocc",
				"energy": 0.06892,
				"method": "rhf"
			},
			{
				"type": "unocc",
				"energy": 0.08819,
				"method": "rhf"
			},
			{
				"type": "unocc",
				"energy": 0.09198,
				"method": "rhf"
			},
			{
				"type": "unocc",
				"energy": 0.09723,
				"method": "rhf"
			}
		],
		"cosmo_sigma_profile": { 
			"-0.025": 0.0,
			"-0.024": 0.0,
			"-0.023": 0.0,
			"-0.022": 0.0,
			"-0.021": 0.0,
			"-0.02": 0.0,
			"-0.019": 0.0,
			"-0.018": 0.0,
			"-0.017": 0.0,
			"-0.016": 0.0,
			"-0.015": 0.0,
			"-0.014": 0.0,
			"-0.013": 0.0,
			"-0.012": 0.0,
			"-0.011": 0.0,
			"-0.01": 0.0,
			"-0.009": 0.0,
			"-0.008": 0.0,
			"-0.007": 0.0,
			"-0.006": 0.0,
			"-0.005": 0.011768438401,
			"-0.004": 3.25799082274,
			"-0.003": 15.4103535058,
			"-0.002": 52.9478053843,
			"-0.001": 105.92041807,
			"0.0": 114.871959256,
			"0.001": 89.0513413385,
			"0.002": 41.9413990642,
			"0.003": 5.3214001606,
			"0.004": 4.31124620656,
			"0.005": 3.43223066382,
			"0.006": 3.10222631483,
			"0.007": 2.79621590125,
			"0.008": 1.0877765579,
			"0.009": 0.0,
			"0.01": 0.0,
			"0.011": 0.0,
			"0.012": 0.0,
			"0.013": 0.0,
			"0.014": 0.0,
			"0.015": 0.0,
			"0.016": 0.0,
			"0.017": 0.0,
			"0.018": 0.0,
			"0.019": 0.0,
			"0.02": 0.0,
			"0.021": 0.0,
			"0.022": 0.0,
			"0.023": 0.0,
			"0.024": 0.0,
			"0.025": 0.0
		}
	}
}
