{
	 "smiles": "COC1=CC=C(C=C1)P(C1=CC=CC=C1)C1=CC=C(OC)C=C1", 
	 "Tm": 362.15, 
	 "num_atms": 42, 
	 "gaussian": { 
		 "optdone": 1, 
		 "sigma_profile": "yes", 
		 "theory": "DFT", 
		 "functional": "B3LYP", 
		 "basiset": "6-31G**", 
		 "properties": { 
			 "R2extent": 10812.155, 
			 "electric_dipole_moment_norm": 3.77855172652, 
			 "electric_quadrupole_moment_norm": 14.5601964815, 
			 "total_energy": -1265.35313375, 
			 "HOMO_LUMO_gap": 0.18564, 
			 "cosmo_polarized_energy": -11.98, 
			 "cosmo_cavitation_energy": 46.99, 
			 "cosmo_dispersion_energy": -32.87, 
			 "cosmo_repulsion_energy": 2.61, 
			 "cosmo_total_nonelectrostatic_energy": 16.73, 
			 "SMD_solvation_energy": 9.5 
		},
		"coords": [
			{
				"x": -3.3244768769,
				"y": -0.5926294815,
				"z": 6.5536917911,
				"element": "C" 
			},
			{
				"x": -4.0078998891,
				"y": -0.6800806381,
				"z": 5.3135938143,
				"element": "O" 
			},
			{
				"x": -3.322062061,
				"y": -0.375541446,
				"z": 4.1744806281,
				"element": "C" 
			},
			{
				"x": -4.053841506,
				"y": -0.4664178031,
				"z": 2.9802636174,
				"element": "C" 
			},
			{
				"x": -3.4466103194,
				"y": -0.1661484905,
				"z": 1.7689851043,
				"element": "C" 
			},
			{
				"x": -2.0924017588,
				"y": 0.2157660486,
				"z": 1.7008230104,
				"element": "C" 
			},
			{
				"x": -1.3794970879,
				"y": 0.3038046597,
				"z": 2.9027980087,
				"element": "C" 
			},
			{
				"x": -1.9787017818,
				"y": 0.0156037559,
				"z": 4.1328741119,
				"element": "C" 
			},
			{
				"x": -1.3996706681,
				"y": 0.6001219049,
				"z": 0.0300449342,
				"element": "P" 
			},
			{
				"x": 0.1021591249,
				"y": 1.6031601302,
				"z": 0.4545100895,
				"element": "C" 
			},
			{
				"x": 1.4004929587,
				"y": 1.0828766376,
				"z": 0.5643098634,
				"element": "C" 
			},
			{
				"x": 2.4806748507,
				"y": 1.919300453,
				"z": 0.8573112343,
				"element": "C" 
			},
			{
				"x": 2.2803114435,
				"y": 3.2869114432,
				"z": 1.0490049162,
				"element": "C" 
			},
			{
				"x": 0.9929604264,
				"y": 3.8183539999,
				"z": 0.9390950177,
				"element": "C" 
			},
			{
				"x": -0.0829035153,
				"y": 2.9849502019,
				"z": 0.6353581101,
				"element": "C" 
			},
			{
				"x": -0.6776258059,
				"y": -1.0177437717,
				"z": -0.4993955805,
				"element": "C" 
			},
			{
				"x": -0.4130216202,
				"y": -1.1898923614,
				"z": -1.8724090098,
				"element": "C" 
			},
			{
				"x": 0.1165523899,
				"y": -2.3745017097,
				"z": -2.3645938937,
				"element": "C" 
			},
			{
				"x": 0.3823482782,
				"y": -3.4409733488,
				"z": -1.4916892175,
				"element": "C" 
			},
			{
				"x": 0.8915719807,
				"y": -4.5664411768,
				"z": -2.0701076568,
				"element": "O" 
			},
			{
				"x": 1.1695934118,
				"y": -5.6824881156,
				"z": -1.2396297529,
				"element": "C" 
			},
			{
				"x": 0.1128673705,
				"y": -3.2984484786,
				"z": -0.1254991969,
				"element": "C" 
			},
			{
				"x": -0.4095711817,
				"y": -2.0938136218,
				"z": 0.3550212357,
				"element": "C" 
			},
			{
				"x": -4.0511340103,
				"y": -0.8704640312,
				"z": 7.3187607317,
				"element": "H" 
			},
			{
				"x": -2.4730863435,
				"y": -1.2841624305,
				"z": 6.5975416259,
				"element": "H" 
			},
			{
				"x": -2.9672676717,
				"y": 0.4267371098,
				"z": 6.7488755045,
				"element": "H" 
			},
			{
				"x": -5.0967525491,
				"y": -0.762077006,
				"z": 3.0325498937,
				"element": "H" 
			},
			{
				"x": -4.0328586677,
				"y": -0.2236969359,
				"z": 0.855263529,
				"element": "H" 
			},
			{
				"x": -0.3376232856,
				"y": 0.6089629258,
				"z": 2.8900040999,
				"element": "H" 
			},
			{
				"x": -1.3930820975,
				"y": 0.100910554,
				"z": 5.0409020298,
				"element": "H" 
			},
			{
				"x": 1.5687147885,
				"y": 0.0207650795,
				"z": 0.41661662,
				"element": "H" 
			},
			{
				"x": 3.4800325139,
				"y": 1.499498565,
				"z": 0.9360805896,
				"element": "H" 
			},
			{
				"x": 3.1215520462,
				"y": 3.9360370809,
				"z": 1.2754572923,
				"element": "H" 
			},
			{
				"x": 0.828851161,
				"y": 4.8833188675,
				"z": 1.0791522236,
				"element": "H" 
			},
			{
				"x": -1.07864054,
				"y": 3.4096963322,
				"z": 0.5327308985,
				"element": "H" 
			},
			{
				"x": -0.630851296,
				"y": -0.380691483,
				"z": -2.5650891799,
				"element": "H" 
			},
			{
				"x": 0.3227332546,
				"y": -2.5061650173,
				"z": -3.4219248966,
				"element": "H" 
			},
			{
				"x": 1.9235590328,
				"y": -5.44390274,
				"z": -0.4783163261,
				"element": "H" 
			},
			{
				"x": 0.2641900649,
				"y": -6.0533510412,
				"z": -0.7421116379,
				"element": "H" 
			},
			{
				"x": 1.5599494118,
				"y": -6.4592522379,
				"z": -1.8990324456,
				"element": "H" 
			},
			{
				"x": 0.3014584266,
				"y": -4.1091981319,
				"z": 0.5686709866,
				"element": "H" 
			},
			{
				"x": -0.6153924018,
				"y": -2.0018942509,
				"z": 1.4170272816,
				"element": "H" 
			}
		],
		 "valence_orbital": [ 
			{
				"type": "occ",
				"energy": -0.24857,
				"method": "rhf"
			},
			{
				"type": "occ",
				"energy": -0.24584,
				"method": "rhf"
			},
			{
				"type": "occ",
				"energy": -0.23383,
				"method": "rhf"
			},
			{
				"type": "occ",
				"energy": -0.22191,
				"method": "rhf"
			},
			{
				"type": "occ",
				"energy": -0.19844,
				"method": "rhf"
			},
			{
				"type": "unocc",
				"energy": -0.0128,
				"method": "rhf"
			},
			{
				"type": "unocc",
				"energy": -0.00805,
				"method": "rhf"
			},
			{
				"type": "unocc",
				"energy": -0.00578,
				"method": "rhf"
			},
			{
				"type": "unocc",
				"energy": 0.00487,
				"method": "rhf"
			},
			{
				"type": "unocc",
				"energy": 0.00692,
				"method": "rhf"
			}
		],
		"cosmo_sigma_profile": { 
			"-0.025": 0.0,
			"-0.024": 0.0,
			"-0.023": 0.0,
			"-0.022": 0.0,
			"-0.021": 0.0,
			"-0.02": 0.0,
			"-0.019": 0.0,
			"-0.018": 0.0,
			"-0.017": 0.0,
			"-0.016": 0.0,
			"-0.015": 0.0,
			"-0.014": 0.0,
			"-0.013": 0.0,
			"-0.012": 0.0,
			"-0.011": 0.0,
			"-0.01": 0.0,
			"-0.009": 0.0,
			"-0.008": 0.0,
			"-0.007": 0.964637332589,
			"-0.006": 18.8220096031,
			"-0.005": 36.9441126359,
			"-0.004": 39.1836420531,
			"-0.003": 39.4397688246,
			"-0.002": 25.3397225917,
			"-0.001": 24.741358386,
			"0.0": 23.8187715561,
			"0.001": 22.0663168656,
			"0.002": 25.4126182134,
			"0.003": 31.4540162412,
			"0.004": 33.4937651327,
			"0.005": 26.7589285298,
			"0.006": 9.70684733534,
			"0.007": 4.14066469024,
			"0.008": 3.64215353733,
			"0.009": 3.25842317781,
			"0.01": 3.2290767616,
			"0.011": 1.3293626471,
			"0.012": 0.912864596851,
			"0.013": 0.418738851947,
			"0.014": 0.460004871763,
			"0.015": 0.0553844832556,
			"0.016": 0.0,
			"0.017": 0.0,
			"0.018": 0.0,
			"0.019": 0.0,
			"0.02": 0.0,
			"0.021": 0.0,
			"0.022": 0.0,
			"0.023": 0.0,
			"0.024": 0.0,
			"0.025": 0.0
		}
	}
}
