{
	 "smiles": "CC(C)C(C)(C)Cl", 
	 "Tm": 263.15, 
	 "num_atms": 20, 
	 "gaussian": { 
		 "optdone": 1, 
		 "sigma_profile": "yes", 
		 "theory": "DFT", 
		 "functional": "B3LYP", 
		 "basiset": "6-31G**", 
		 "properties": { 
			 "R2extent": 1257.4294, 
			 "electric_dipole_moment_norm": 2.43922292749, 
			 "electric_quadrupole_moment_norm": 1.59566604589, 
			 "total_energy": -696.692267764, 
			 "HOMO_LUMO_gap": 0.30092, 
			 "cosmo_polarized_energy": -4.02, 
			 "cosmo_cavitation_energy": 22.08, 
			 "cosmo_dispersion_energy": -16.06, 
			 "cosmo_repulsion_energy": 1.32, 
			 "cosmo_total_nonelectrostatic_energy": 7.34, 
			 "SMD_solvation_energy": 3.76 
		},
		"coords": [
			{
				"x": -2.8260880892,
				"y": 0.7521093134,
				"z": -0.1369969479,
				"element": "C" 
			},
			{
				"x": -1.6191667366,
				"y": 0.3564074782,
				"z": -1.0019480303,
				"element": "C" 
			},
			{
				"x": -2.1077909694,
				"y": -0.3410240531,
				"z": -2.2875780356,
				"element": "C" 
			},
			{
				"x": -0.5520477294,
				"y": -0.4869153916,
				"z": -0.2468751126,
				"element": "C" 
			},
			{
				"x": 0.64665174,
				"y": -0.8360552813,
				"z": -1.1325888756,
				"element": "C" 
			},
			{
				"x": -1.1088686865,
				"y": -1.735332369,
				"z": 0.4389161827,
				"element": "C" 
			},
			{
				"x": 0.1381092539,
				"y": 0.6010431744,
				"z": 1.1142563713,
				"element": "Cl" 
			},
			{
				"x": -3.4557512949,
				"y": 1.4620284954,
				"z": -0.682948688,
				"element": "H" 
			},
			{
				"x": -3.4502617583,
				"y": -0.114962041,
				"z": 0.1053424124,
				"element": "H" 
			},
			{
				"x": -2.5168846943,
				"y": 1.2250176164,
				"z": 0.797667132,
				"element": "H" 
			},
			{
				"x": -1.1057127753,
				"y": 1.2783752109,
				"z": -1.3033860341,
				"element": "H" 
			},
			{
				"x": -2.5972798588,
				"y": -1.2970949238,
				"z": -2.0712543042,
				"element": "H" 
			},
			{
				"x": -2.8463581063,
				"y": 0.2938879114,
				"z": -2.7872567518,
				"element": "H" 
			},
			{
				"x": -1.3001206471,
				"y": -0.5250060259,
				"z": -3.0005666816,
				"element": "H" 
			},
			{
				"x": 0.3540000816,
				"y": -1.5677789689,
				"z": -1.8925905136,
				"element": "H" 
			},
			{
				"x": 1.4489142031,
				"y": -1.274578063,
				"z": -0.5346631609,
				"element": "H" 
			},
			{
				"x": 1.0387960454,
				"y": 0.0512512989,
				"z": -1.6374496592,
				"element": "H" 
			},
			{
				"x": -1.5403621917,
				"y": -2.4088431769,
				"z": -0.3103083696,
				"element": "H" 
			},
			{
				"x": -1.8828955392,
				"y": -1.4882856344,
				"z": 1.1676041024,
				"element": "H" 
			},
			{
				"x": -0.3115822472,
				"y": -2.2737445702,
				"z": 0.9573249642,
				"element": "H" 
			}
		],
		 "valence_orbital": [ 
			{
				"type": "occ",
				"energy": -0.33455,
				"method": "rhf"
			},
			{
				"type": "occ",
				"energy": -0.32944,
				"method": "rhf"
			},
			{
				"type": "occ",
				"energy": -0.32759,
				"method": "rhf"
			},
			{
				"type": "occ",
				"energy": -0.28367,
				"method": "rhf"
			},
			{
				"type": "occ",
				"energy": -0.28212,
				"method": "rhf"
			},
			{
				"type": "unocc",
				"energy": 0.0188,
				"method": "rhf"
			},
			{
				"type": "unocc",
				"energy": 0.07602,
				"method": "rhf"
			},
			{
				"type": "unocc",
				"energy": 0.11928,
				"method": "rhf"
			},
			{
				"type": "unocc",
				"energy": 0.12555,
				"method": "rhf"
			},
			{
				"type": "unocc",
				"energy": 0.13569,
				"method": "rhf"
			}
		],
		"cosmo_sigma_profile": { 
			"-0.025": 0.0,
			"-0.024": 0.0,
			"-0.023": 0.0,
			"-0.022": 0.0,
			"-0.021": 0.0,
			"-0.02": 0.0,
			"-0.019": 0.0,
			"-0.018": 0.0,
			"-0.017": 0.0,
			"-0.016": 0.0,
			"-0.015": 0.0,
			"-0.014": 0.0,
			"-0.013": 0.0,
			"-0.012": 0.0,
			"-0.011": 0.0,
			"-0.01": 0.0,
			"-0.009": 0.0,
			"-0.008": 0.0,
			"-0.007": 0.0,
			"-0.006": 0.0,
			"-0.005": 1.16577470058,
			"-0.004": 13.2582977658,
			"-0.003": 25.0857894193,
			"-0.002": 26.3665461429,
			"-0.001": 23.5869708532,
			"0.0": 24.2141491415,
			"0.001": 18.3847562613,
			"0.002": 8.74940727921,
			"0.003": 4.37826575142,
			"0.004": 5.18267046565,
			"0.005": 5.45725285375,
			"0.006": 5.44634688722,
			"0.007": 7.87319595348,
			"0.008": 3.15485879965,
			"0.009": 0.0,
			"0.01": 0.0,
			"0.011": 0.0,
			"0.012": 0.0,
			"0.013": 0.0,
			"0.014": 0.0,
			"0.015": 0.0,
			"0.016": 0.0,
			"0.017": 0.0,
			"0.018": 0.0,
			"0.019": 0.0,
			"0.02": 0.0,
			"0.021": 0.0,
			"0.022": 0.0,
			"0.023": 0.0,
			"0.024": 0.0,
			"0.025": 0.0
		}
	}
}
