{
	 "smiles": "CC(=O)OCC(=O)C12N=C(C)OC1CC1C3CCC4=CC(=O)C=CC4(C)C3C(O)CC21C", 
	 "Tm": 529.15, 
	 "num_atms": 63, 
	 "gaussian": { 
		 "optdone": 1, 
		 "sigma_profile": "yes", 
		 "theory": "DFT", 
		 "functional": "B3LYP", 
		 "basiset": "6-31G**", 
		 "properties": { 
			 "R2extent": 16293.0924, 
			 "electric_dipole_moment_norm": 4.03948037252, 
			 "electric_quadrupole_moment_norm": 50.1039476998, 
			 "total_energy": -1477.39991255, 
			 "HOMO_LUMO_gap": 0.17702, 
			 "cosmo_polarized_energy": -34.06, 
			 "cosmo_cavitation_energy": 58.51, 
			 "cosmo_dispersion_energy": -39.16, 
			 "cosmo_repulsion_energy": 2.91, 
			 "cosmo_total_nonelectrostatic_energy": 22.26, 
			 "SMD_solvation_energy": 9.89 
		},
		"coords": [
			{
				"x": -6.120296543,
				"y": -3.5542554293,
				"z": -2.092587727,
				"element": "C" 
			},
			{
				"x": -5.5816362496,
				"y": -2.6821468484,
				"z": -0.9893456505,
				"element": "C" 
			},
			{
				"x": -6.0054307175,
				"y": -2.6197719169,
				"z": 0.1411936468,
				"element": "O" 
			},
			{
				"x": -4.5254125222,
				"y": -1.9429377451,
				"z": -1.4385467052,
				"element": "O" 
			},
			{
				"x": -3.8040463308,
				"y": -1.2295821765,
				"z": -0.4441016936,
				"element": "C" 
			},
			{
				"x": -2.6932441967,
				"y": -2.1178817436,
				"z": 0.139212952,
				"element": "C" 
			},
			{
				"x": -2.745527848,
				"y": -3.3178196912,
				"z": -0.0058364707,
				"element": "O" 
			},
			{
				"x": -1.5316786527,
				"y": -1.4346914558,
				"z": 0.8956853318,
				"element": "C" 
			},
			{
				"x": -1.1143918788,
				"y": -2.3370569279,
				"z": 1.9764044872,
				"element": "N" 
			},
			{
				"x": -1.3025593172,
				"y": -1.7196049094,
				"z": 3.0760233308,
				"element": "C" 
			},
			{
				"x": -1.0433458951,
				"y": -2.2509059134,
				"z": 4.4457165953,
				"element": "C" 
			},
			{
				"x": -1.7910447603,
				"y": -0.4403808996,
				"z": 3.034956992,
				"element": "O" 
			},
			{
				"x": -1.92416859,
				"y": -0.1072502947,
				"z": 1.6361860516,
				"element": "C" 
			},
			{
				"x": -0.9419925567,
				"y": 0.975552666,
				"z": 1.1771337247,
				"element": "C" 
			},
			{
				"x": -0.49921076,
				"y": 0.5175940237,
				"z": -0.2324643049,
				"element": "C" 
			},
			{
				"x": 0.7285789417,
				"y": 1.2525407493,
				"z": -0.8362092809,
				"element": "C" 
			},
			{
				"x": 0.4404808365,
				"y": 2.7784509022,
				"z": -0.9666336694,
				"element": "C" 
			},
			{
				"x": 1.6573544224,
				"y": 3.6647257852,
				"z": -0.6197384671,
				"element": "C" 
			},
			{
				"x": 2.888159275,
				"y": 3.0248845473,
				"z": -1.1901617054,
				"element": "C" 
			},
			{
				"x": 3.5132959,
				"y": 3.509449339,
				"z": -2.2788240573,
				"element": "C" 
			},
			{
				"x": 4.6115687859,
				"y": 2.7976877953,
				"z": -2.958057974,
				"element": "C" 
			},
			{
				"x": 5.1910301262,
				"y": 3.2693515022,
				"z": -3.9348659574,
				"element": "O" 
			},
			{
				"x": 4.9519378318,
				"y": 1.4753244671,
				"z": -2.4004445736,
				"element": "C" 
			},
			{
				"x": 4.3350668225,
				"y": 0.9790258442,
				"z": -1.3179530442,
				"element": "C" 
			},
			{
				"x": 3.3157321586,
				"y": 1.7407108074,
				"z": -0.4995970811,
				"element": "C" 
			},
			{
				"x": 4.0833602752,
				"y": 2.1325769539,
				"z": 0.8082893745,
				"element": "C" 
			},
			{
				"x": 2.0257467014,
				"y": 0.9120431852,
				"z": -0.056499287,
				"element": "C" 
			},
			{
				"x": 2.230351771,
				"y": -0.6150107433,
				"z": -0.0495938401,
				"element": "C" 
			},
			{
				"x": 2.4970888935,
				"y": -1.0330397298,
				"z": -1.390509096,
				"element": "O" 
			},
			{
				"x": 1.0228650585,
				"y": -1.3474191488,
				"z": 0.5596321889,
				"element": "C" 
			},
			{
				"x": -0.3430134236,
				"y": -1.0302149923,
				"z": -0.1065939178,
				"element": "C" 
			},
			{
				"x": -0.4572250433,
				"y": -1.7432067054,
				"z": -1.467254115,
				"element": "C" 
			},
			{
				"x": -6.2074081407,
				"y": -2.9915467623,
				"z": -3.0252716414,
				"element": "H" 
			},
			{
				"x": -7.0872196321,
				"y": -3.9602124947,
				"z": -1.7969796638,
				"element": "H" 
			},
			{
				"x": -5.4173335032,
				"y": -4.3755340005,
				"z": -2.2649524352,
				"element": "H" 
			},
			{
				"x": -3.3961994369,
				"y": -0.3361947294,
				"z": -0.9250889959,
				"element": "H" 
			},
			{
				"x": -4.4812035519,
				"y": -0.9266982311,
				"z": 0.3628136914,
				"element": "H" 
			},
			{
				"x": -1.9693814837,
				"y": -2.2486921709,
				"z": 5.0293031541,
				"element": "H" 
			},
			{
				"x": -0.324074082,
				"y": -1.6151611734,
				"z": 4.97185008,
				"element": "H" 
			},
			{
				"x": -0.6580204735,
				"y": -3.2676855693,
				"z": 4.3770518115,
				"element": "H" 
			},
			{
				"x": -2.960801414,
				"y": 0.2030830651,
				"z": 1.487784997,
				"element": "H" 
			},
			{
				"x": -0.1011860288,
				"y": 0.99800245,
				"z": 1.8773309528,
				"element": "H" 
			},
			{
				"x": -1.3954840842,
				"y": 1.9695285865,
				"z": 1.1890373301,
				"element": "H" 
			},
			{
				"x": -1.3391218985,
				"y": 0.7136762535,
				"z": -0.9165015255,
				"element": "H" 
			},
			{
				"x": 0.8730692421,
				"y": 0.8585647414,
				"z": -1.8477334224,
				"element": "H" 
			},
			{
				"x": -0.4005843983,
				"y": 3.0756284045,
				"z": -0.3329054389,
				"element": "H" 
			},
			{
				"x": 0.1377381869,
				"y": 2.9897334999,
				"z": -1.9975657187,
				"element": "H" 
			},
			{
				"x": 1.518082688,
				"y": 4.6749263711,
				"z": -1.0157995499,
				"element": "H" 
			},
			{
				"x": 1.7420139011,
				"y": 3.7559451081,
				"z": 0.4709182827,
				"element": "H" 
			},
			{
				"x": 3.201235813,
				"y": 4.4463017963,
				"z": -2.7345061902,
				"element": "H" 
			},
			{
				"x": 5.7367919799,
				"y": 0.9253934978,
				"z": -2.9116468823,
				"element": "H" 
			},
			{
				"x": 4.6470614676,
				"y": 0.0178112594,
				"z": -0.9241777501,
				"element": "H" 
			},
			{
				"x": 4.9878103642,
				"y": 2.6969452808,
				"z": 0.5689744769,
				"element": "H" 
			},
			{
				"x": 4.3765014245,
				"y": 1.2322500564,
				"z": 1.3590884304,
				"element": "H" 
			},
			{
				"x": 3.4566508602,
				"y": 2.7412862111,
				"z": 1.4675450861,
				"element": "H" 
			},
			{
				"x": 1.8586510897,
				"y": 1.1812011595,
				"z": 0.9936466104,
				"element": "H" 
			},
			{
				"x": 3.1034717335,
				"y": -0.8462223299,
				"z": 0.5844221683,
				"element": "H" 
			},
			{
				"x": 2.599132611,
				"y": -1.9938385169,
				"z": -1.3902694084,
				"element": "H" 
			},
			{
				"x": 1.1978324166,
				"y": -2.4293651713,
				"z": 0.5334360688,
				"element": "H" 
			},
			{
				"x": 0.9964436547,
				"y": -1.0930654386,
				"z": 1.6232601492,
				"element": "H" 
			},
			{
				"x": 0.3643512959,
				"y": -1.4509438083,
				"z": -2.1209273433,
				"element": "H" 
			},
			{
				"x": -1.3955373762,
				"y": -1.5030826091,
				"z": -1.9783873295,
				"element": "H" 
			},
			{
				"x": -0.4278757397,
				"y": -2.8291760325,
				"z": -1.3366660517,
				"element": "H" 
			}
		],
		 "valence_orbital": [ 
			{
				"type": "occ",
				"energy": -0.27171,
				"method": "rhf"
			},
			{
				"type": "occ",
				"energy": -0.25799,
				"method": "rhf"
			},
			{
				"type": "occ",
				"energy": -0.2507,
				"method": "rhf"
			},
			{
				"type": "occ",
				"energy": -0.24256,
				"method": "rhf"
			},
			{
				"type": "occ",
				"energy": -0.22726,
				"method": "rhf"
			},
			{
				"type": "unocc",
				"energy": -0.05024,
				"method": "rhf"
			},
			{
				"type": "unocc",
				"energy": -0.02889,
				"method": "rhf"
			},
			{
				"type": "unocc",
				"energy": 0.00721,
				"method": "rhf"
			},
			{
				"type": "unocc",
				"energy": 0.00867,
				"method": "rhf"
			},
			{
				"type": "unocc",
				"energy": 0.0143,
				"method": "rhf"
			}
		],
		"cosmo_sigma_profile": { 
			"-0.025": 0.0,
			"-0.024": 0.0,
			"-0.023": 0.0,
			"-0.022": 0.0,
			"-0.021": 0.0,
			"-0.02": 0.0,
			"-0.019": 0.0,
			"-0.018": 0.0,
			"-0.017": 0.0,
			"-0.016": 0.0518453757577,
			"-0.015": 0.72556272684,
			"-0.014": 0.694623035293,
			"-0.013": 1.19636975295,
			"-0.012": 0.754242492958,
			"-0.011": 1.13820550925,
			"-0.01": 2.75077436378,
			"-0.009": 4.22661298122,
			"-0.008": 6.31024583187,
			"-0.007": 8.54831167397,
			"-0.006": 21.9845949698,
			"-0.005": 36.7307458442,
			"-0.004": 45.4612559464,
			"-0.003": 45.3813386828,
			"-0.002": 49.436685078,
			"-0.001": 43.0945865115,
			"0.0": 31.4668935422,
			"0.001": 20.5181216633,
			"0.002": 18.3238422156,
			"0.003": 15.710488172,
			"0.004": 11.4315678008,
			"0.005": 9.02985456264,
			"0.006": 9.77125542003,
			"0.007": 9.99349507542,
			"0.008": 9.52551439893,
			"0.009": 8.14917458288,
			"0.01": 8.73099231815,
			"0.011": 9.97711025538,
			"0.012": 6.69331843164,
			"0.013": 6.84056691661,
			"0.014": 5.59531797208,
			"0.015": 3.85992262839,
			"0.016": 0.767475847312,
			"0.017": 1.18759018466,
			"0.018": 0.36165756556,
			"0.019": 0.0,
			"0.02": 0.0,
			"0.021": 0.0,
			"0.022": 0.0,
			"0.023": 0.0,
			"0.024": 0.0,
			"0.025": 0.0
		}
	}
}
