{
	 "smiles": "COC1=CC(C)C2CC3OC(O)CC4C(C)=C(OC)C(=O)C(C34C)C2(C)C1=O", 
	 "Tm": 500.15, 
	 "num_atms": 58, 
	 "gaussian": { 
		 "optdone": 1, 
		 "sigma_profile": "yes", 
		 "theory": "DFT", 
		 "functional": "B3LYP", 
		 "basiset": "6-31G**", 
		 "properties": { 
			 "R2extent": 9930.1979, 
			 "electric_dipole_moment_norm": 2.98333924655, 
			 "electric_quadrupole_moment_norm": 14.9965994739, 
			 "total_energy": -1307.68358819, 
			 "HOMO_LUMO_gap": 0.15399, 
			 "cosmo_polarized_energy": -18.12, 
			 "cosmo_cavitation_energy": 51.99, 
			 "cosmo_dispersion_energy": -34.9, 
			 "cosmo_repulsion_energy": 2.58, 
			 "cosmo_total_nonelectrostatic_energy": 19.67, 
			 "SMD_solvation_energy": 10.58 
		},
		"coords": [
			{
				"x": 2.2966427299,
				"y": -4.245408128,
				"z": -0.642504503,
				"element": "C" 
			},
			{
				"x": 2.9632517482,
				"y": -3.2107148066,
				"z": -1.3742571435,
				"element": "O" 
			},
			{
				"x": 2.7167317476,
				"y": -1.9191954062,
				"z": -0.9875557496,
				"element": "C" 
			},
			{
				"x": 3.7418934284,
				"y": -1.1418643632,
				"z": -0.5945829255,
				"element": "C" 
			},
			{
				"x": 3.6266721085,
				"y": 0.3047017715,
				"z": -0.2101089037,
				"element": "C" 
			},
			{
				"x": 4.4604983386,
				"y": 1.2194494843,
				"z": -1.1377780189,
				"element": "C" 
			},
			{
				"x": 2.1499553458,
				"y": 0.7374749162,
				"z": 0.0107250596,
				"element": "C" 
			},
			{
				"x": 1.7272803602,
				"y": 0.3766481834,
				"z": 1.4526235347,
				"element": "C" 
			},
			{
				"x": 0.3610347578,
				"y": 0.9589485335,
				"z": 1.7365858965,
				"element": "C" 
			},
			{
				"x": 0.0244847904,
				"y": 0.7591328091,
				"z": 3.1200902416,
				"element": "O" 
			},
			{
				"x": -1.1564863661,
				"y": 1.431702899,
				"z": 3.5385062741,
				"element": "C" 
			},
			{
				"x": -0.9576703412,
				"y": 2.8307935441,
				"z": 3.5788271789,
				"element": "O" 
			},
			{
				"x": -2.3725905602,
				"y": 1.1808293926,
				"z": 2.6301515149,
				"element": "C" 
			},
			{
				"x": -1.961780216,
				"y": 1.3551503018,
				"z": 1.1606490144,
				"element": "C" 
			},
			{
				"x": -3.050142441,
				"y": 1.3269526748,
				"z": 0.0989069794,
				"element": "C" 
			},
			{
				"x": -4.5094716749,
				"y": 1.3175049456,
				"z": 0.4498535784,
				"element": "C" 
			},
			{
				"x": -2.5974549135,
				"y": 1.518802136,
				"z": -1.1585676952,
				"element": "C" 
			},
			{
				"x": -3.455109307,
				"y": 1.7979860263,
				"z": -2.1865699904,
				"element": "O" 
			},
			{
				"x": -3.0850238341,
				"y": 1.3685646261,
				"z": -3.4979071873,
				"element": "C" 
			},
			{
				"x": -1.1063038545,
				"y": 1.59509616,
				"z": -1.3778249605,
				"element": "C" 
			},
			{
				"x": -0.6157027483,
				"y": 2.4593730384,
				"z": -2.0876480592,
				"element": "O" 
			},
			{
				"x": -0.3680760217,
				"y": 0.4398436126,
				"z": -0.6850110065,
				"element": "C" 
			},
			{
				"x": -0.7630155134,
				"y": 0.3953508735,
				"z": 0.8433746375,
				"element": "C" 
			},
			{
				"x": -1.1018346427,
				"y": -1.0653902386,
				"z": 1.2190204977,
				"element": "C" 
			},
			{
				"x": 1.1434376563,
				"y": 0.157491578,
				"z": -1.0303041175,
				"element": "C" 
			},
			{
				"x": 1.4718589845,
				"y": 0.6282668283,
				"z": -2.481094425,
				"element": "C" 
			},
			{
				"x": 1.3354409957,
				"y": -1.3807303941,
				"z": -1.1586192839,
				"element": "C" 
			},
			{
				"x": 0.4253563316,
				"y": -2.1148140121,
				"z": -1.5222805556,
				"element": "O" 
			},
			{
				"x": 2.6883824241,
				"y": -5.1864964835,
				"z": -1.0337868201,
				"element": "H" 
			},
			{
				"x": 2.532356922,
				"y": -4.1788329915,
				"z": 0.4282721501,
				"element": "H" 
			},
			{
				"x": 1.2156542593,
				"y": -4.2045761476,
				"z": -0.7892681532,
				"element": "H" 
			},
			{
				"x": 4.729414077,
				"y": -1.5989550547,
				"z": -0.5585732084,
				"element": "H" 
			},
			{
				"x": 4.11489089,
				"y": 0.3885438172,
				"z": 0.7726869866,
				"element": "H" 
			},
			{
				"x": 5.5087351033,
				"y": 0.9020924019,
				"z": -1.1386103846,
				"element": "H" 
			},
			{
				"x": 4.4252620755,
				"y": 2.2530185558,
				"z": -0.7780489577,
				"element": "H" 
			},
			{
				"x": 4.1098785449,
				"y": 1.209051506,
				"z": -2.1706692907,
				"element": "H" 
			},
			{
				"x": 2.1063249604,
				"y": 1.8316531351,
				"z": -0.0785817819,
				"element": "H" 
			},
			{
				"x": 1.7345770692,
				"y": -0.7089626006,
				"z": 1.6050708126,
				"element": "H" 
			},
			{
				"x": 2.4439055962,
				"y": 0.8005622998,
				"z": 2.1652789291,
				"element": "H" 
			},
			{
				"x": 0.4285423235,
				"y": 2.0417977918,
				"z": 1.554357924,
				"element": "H" 
			},
			{
				"x": -1.3368476737,
				"y": 1.0365036119,
				"z": 4.5475509355,
				"element": "H" 
			},
			{
				"x": -0.159693088,
				"y": 2.9855903063,
				"z": 4.1030616184,
				"element": "H" 
			},
			{
				"x": -2.7735082702,
				"y": 0.1835185582,
				"z": 2.8308073635,
				"element": "H" 
			},
			{
				"x": -3.1440214751,
				"y": 1.9049003984,
				"z": 2.9078007058,
				"element": "H" 
			},
			{
				"x": -1.5502979725,
				"y": 2.3722185862,
				"z": 1.1221543726,
				"element": "H" 
			},
			{
				"x": -4.75455658,
				"y": 0.4696503923,
				"z": 1.1006400335,
				"element": "H" 
			},
			{
				"x": -4.7980173573,
				"y": 2.2265016932,
				"z": 0.9945430674,
				"element": "H" 
			},
			{
				"x": -5.1220217783,
				"y": 1.2583284645,
				"z": -0.4510976904,
				"element": "H" 
			},
			{
				"x": -3.9413528728,
				"y": 1.5914388519,
				"z": -4.1370812886,
				"element": "H" 
			},
			{
				"x": -2.8922018035,
				"y": 0.2879289444,
				"z": -3.5238261922,
				"element": "H" 
			},
			{
				"x": -2.2064630287,
				"y": 1.9082333244,
				"z": -3.8613084815,
				"element": "H" 
			},
			{
				"x": -0.8790997844,
				"y": -0.4244383859,
				"z": -1.1295327683,
				"element": "H" 
			},
			{
				"x": -1.1709128589,
				"y": -1.2057488226,
				"z": 2.2980578814,
				"element": "H" 
			},
			{
				"x": -0.3498880674,
				"y": -1.7603036256,
				"z": 0.844367132,
				"element": "H" 
			},
			{
				"x": -2.0544802694,
				"y": -1.3542977808,
				"z": 0.762455884,
				"element": "H" 
			},
			{
				"x": 0.678350928,
				"y": 0.3163016034,
				"z": -3.1645605903,
				"element": "H" 
			},
			{
				"x": 1.5526309875,
				"y": 1.7126968749,
				"z": -2.5340288805,
				"element": "H" 
			},
			{
				"x": 2.3995798308,
				"y": 0.1731337893,
				"z": -2.8336311907,
				"element": "H" 
			}
		],
		 "valence_orbital": [ 
			{
				"type": "occ",
				"energy": -0.26306,
				"method": "rhf"
			},
			{
				"type": "occ",
				"energy": -0.25131,
				"method": "rhf"
			},
			{
				"type": "occ",
				"energy": -0.24272,
				"method": "rhf"
			},
			{
				"type": "occ",
				"energy": -0.23409,
				"method": "rhf"
			},
			{
				"type": "occ",
				"energy": -0.21025,
				"method": "rhf"
			},
			{
				"type": "unocc",
				"energy": -0.05626,
				"method": "rhf"
			},
			{
				"type": "unocc",
				"energy": -0.03875,
				"method": "rhf"
			},
			{
				"type": "unocc",
				"energy": 0.0493,
				"method": "rhf"
			},
			{
				"type": "unocc",
				"energy": 0.06166,
				"method": "rhf"
			},
			{
				"type": "unocc",
				"energy": 0.07506,
				"method": "rhf"
			}
		],
		"cosmo_sigma_profile": { 
			"-0.025": 0.0,
			"-0.024": 0.0,
			"-0.023": 0.0,
			"-0.022": 0.0,
			"-0.021": 0.0,
			"-0.02": 0.0,
			"-0.019": 0.0,
			"-0.018": 0.0,
			"-0.017": 0.0,
			"-0.016": 0.294191992299,
			"-0.015": 1.0829164047,
			"-0.014": 1.01957896862,
			"-0.013": 0.474470193146,
			"-0.012": 0.680463808615,
			"-0.011": 0.425181489286,
			"-0.01": 0.603884831275,
			"-0.009": 1.24122738452,
			"-0.008": 0.713135380529,
			"-0.007": 1.57587820374,
			"-0.006": 6.81660287883,
			"-0.005": 20.7020861014,
			"-0.004": 45.8461872447,
			"-0.003": 57.5389744886,
			"-0.002": 53.677218835,
			"-0.001": 42.8666852001,
			"0.0": 32.9277849512,
			"0.001": 26.5325427621,
			"0.002": 14.0542957799,
			"0.003": 12.824461297,
			"0.004": 9.65288866484,
			"0.005": 9.99606104068,
			"0.006": 9.14077851096,
			"0.007": 8.81436296043,
			"0.008": 8.44591593024,
			"0.009": 8.21742246407,
			"0.01": 8.40628079009,
			"0.011": 10.5804253574,
			"0.012": 6.31858602202,
			"0.013": 1.86843584892,
			"0.014": 0.109262420867,
			"0.015": 0.0,
			"0.016": 0.0,
			"0.017": 0.0,
			"0.018": 0.0,
			"0.019": 0.0,
			"0.02": 0.0,
			"0.021": 0.0,
			"0.022": 0.0,
			"0.023": 0.0,
			"0.024": 0.0,
			"0.025": 0.0
		}
	}
}
