{
	 "smiles": "OC(=O)C1CCCN1C(=O)NC1=CC=C(F)C=C1", 
	 "Tm": 437.15, 
	 "num_atms": 31, 
	 "gaussian": { 
		 "optdone": 1, 
		 "sigma_profile": "yes", 
		 "theory": "DFT", 
		 "functional": "B3LYP", 
		 "basiset": "6-31G**", 
		 "properties": { 
			 "R2extent": 5386.2491, 
			 "electric_dipole_moment_norm": 3.23277619702, 
			 "electric_quadrupole_moment_norm": 18.2119422429, 
			 "total_energy": -900.152149834, 
			 "HOMO_LUMO_gap": 0.1982, 
			 "cosmo_polarized_energy": -18.14, 
			 "cosmo_cavitation_energy": 34.83, 
			 "cosmo_dispersion_energy": -23.83, 
			 "cosmo_repulsion_energy": 1.84, 
			 "cosmo_total_nonelectrostatic_energy": 12.83, 
			 "SMD_solvation_energy": 7.64 
		},
		"coords": [
			{
				"x": 2.9667056218,
				"y": -0.6183531285,
				"z": -2.911062213,
				"element": "O" 
			},
			{
				"x": 2.6534858827,
				"y": -1.2700298891,
				"z": -1.7664419614,
				"element": "C" 
			},
			{
				"x": 3.481072633,
				"y": -1.7759165537,
				"z": -1.0439901778,
				"element": "O" 
			},
			{
				"x": 1.1371131647,
				"y": -1.3189793377,
				"z": -1.5711114201,
				"element": "C" 
			},
			{
				"x": 0.538542785,
				"y": -2.5270159152,
				"z": -2.3298203159,
				"element": "C" 
			},
			{
				"x": 0.7153571255,
				"y": -3.6819154482,
				"z": -1.3314288597,
				"element": "C" 
			},
			{
				"x": 0.4609066133,
				"y": -3.0271615546,
				"z": 0.0348240499,
				"element": "C" 
			},
			{
				"x": 0.7708882899,
				"y": -1.5977796061,
				"z": -0.18391156,
				"element": "N" 
			},
			{
				"x": 1.2009584523,
				"y": -0.8555199104,
				"z": 0.8946224117,
				"element": "C" 
			},
			{
				"x": 1.3287853554,
				"y": -1.3222072569,
				"z": 2.0185667973,
				"element": "O" 
			},
			{
				"x": 1.5332073755,
				"y": 0.4881590098,
				"z": 0.6323509024,
				"element": "N" 
			},
			{
				"x": 0.7497876276,
				"y": 1.4611492477,
				"z": -0.0377421506,
				"element": "C" 
			},
			{
				"x": 1.3348772636,
				"y": 2.7114961846,
				"z": -0.2965357203,
				"element": "C" 
			},
			{
				"x": 0.6103298507,
				"y": 3.72558229,
				"z": -0.9172124288,
				"element": "C" 
			},
			{
				"x": -0.7026984233,
				"y": 3.4773505889,
				"z": -1.3016420898,
				"element": "C" 
			},
			{
				"x": -1.4063094344,
				"y": 4.4530142248,
				"z": -1.9164760864,
				"element": "F" 
			},
			{
				"x": -1.3057021659,
				"y": 2.2488960661,
				"z": -1.0662549256,
				"element": "C" 
			},
			{
				"x": -0.5825295555,
				"y": 1.2441166718,
				"z": -0.4220335199,
				"element": "C" 
			},
			{
				"x": 3.9341421292,
				"y": -0.6631560566,
				"z": -2.995952274,
				"element": "H" 
			},
			{
				"x": 0.7149251529,
				"y": -0.3781390239,
				"z": -1.9309440731,
				"element": "H" 
			},
			{
				"x": 1.0255222422,
				"y": -2.6930039002,
				"z": -3.2938782321,
				"element": "H" 
			},
			{
				"x": -0.5225106277,
				"y": -2.3310021559,
				"z": -2.5173475176,
				"element": "H" 
			},
			{
				"x": 0.0376892224,
				"y": -4.5170054437,
				"z": -1.5263537938,
				"element": "H" 
			},
			{
				"x": 1.7408324538,
				"y": -4.06052353,
				"z": -1.3771203945,
				"element": "H" 
			},
			{
				"x": 1.093509481,
				"y": -3.4234982045,
				"z": 0.8307597976,
				"element": "H" 
			},
			{
				"x": -0.583995192,
				"y": -3.1330111102,
				"z": 0.3513651188,
				"element": "H" 
			},
			{
				"x": 2.0496515559,
				"y": 0.8520631741,
				"z": 1.4239896123,
				"element": "H" 
			},
			{
				"x": 2.3683439193,
				"y": 2.883780056,
				"z": -0.0098276288,
				"element": "H" 
			},
			{
				"x": 1.0541745556,
				"y": 4.695163828,
				"z": -1.1154027044,
				"element": "H" 
			},
			{
				"x": -2.3355112814,
				"y": 2.0911003995,
				"z": -1.3682783896,
				"element": "H" 
			},
			{
				"x": -1.056452073,
				"y": 0.2923462841,
				"z": -0.209310253,
				"element": "H" 
			}
		],
		 "valence_orbital": [ 
			{
				"type": "occ",
				"energy": -0.28428,
				"method": "rhf"
			},
			{
				"type": "occ",
				"energy": -0.26659,
				"method": "rhf"
			},
			{
				"type": "occ",
				"energy": -0.26183,
				"method": "rhf"
			},
			{
				"type": "occ",
				"energy": -0.2447,
				"method": "rhf"
			},
			{
				"type": "occ",
				"energy": -0.21773,
				"method": "rhf"
			},
			{
				"type": "unocc",
				"energy": -0.01953,
				"method": "rhf"
			},
			{
				"type": "unocc",
				"energy": -0.00565,
				"method": "rhf"
			},
			{
				"type": "unocc",
				"energy": 0.00066,
				"method": "rhf"
			},
			{
				"type": "unocc",
				"energy": 0.04188,
				"method": "rhf"
			},
			{
				"type": "unocc",
				"energy": 0.06784,
				"method": "rhf"
			}
		],
		"cosmo_sigma_profile": { 
			"-0.025": 0.0,
			"-0.024": 0.0,
			"-0.023": 0.0,
			"-0.022": 0.0,
			"-0.021": 0.0,
			"-0.02": 0.0,
			"-0.019": 0.243934517917,
			"-0.018": 0.876430627604,
			"-0.017": 0.827107552612,
			"-0.016": 1.04553699309,
			"-0.015": 0.726029433435,
			"-0.014": 1.20130110451,
			"-0.013": 1.22083427144,
			"-0.012": 1.7485006271,
			"-0.011": 2.49717823562,
			"-0.01": 1.57024022339,
			"-0.009": 1.3533302451,
			"-0.008": 2.44559090268,
			"-0.007": 6.85702389015,
			"-0.006": 8.87631272917,
			"-0.005": 16.3688649785,
			"-0.004": 25.0829636156,
			"-0.003": 26.7000988292,
			"-0.002": 23.143384272,
			"-0.001": 19.7775147415,
			"0.0": 15.1356219929,
			"0.001": 16.0195920199,
			"0.002": 17.120274869,
			"0.003": 15.9787421872,
			"0.004": 18.4194203929,
			"0.005": 10.3646555081,
			"0.006": 4.27844153062,
			"0.007": 4.88113664671,
			"0.008": 4.73404754704,
			"0.009": 4.42321759756,
			"0.01": 3.23525837959,
			"0.011": 5.99173098561,
			"0.012": 4.29815066915,
			"0.013": 4.60449731932,
			"0.014": 3.3782165837,
			"0.015": 0.0446359490636,
			"0.016": 0.0,
			"0.017": 0.0,
			"0.018": 0.0,
			"0.019": 0.0,
			"0.02": 0.0,
			"0.021": 0.0,
			"0.022": 0.0,
			"0.023": 0.0,
			"0.024": 0.0,
			"0.025": 0.0
		}
	}
}
