{
	 "smiles": "FC(F)(F)C1=CC=CC(NC(=O)NC2=NN=C(O2)C2=CC=C(Cl)C=C2)=C1", 
	 "Tm": 510.15, 
	 "num_atms": 36, 
	 "gaussian": { 
		 "optdone": 1, 
		 "sigma_profile": "yes", 
		 "theory": "DFT", 
		 "functional": "B3LYP", 
		 "basiset": "6-31G**", 
		 "properties": { 
			 "R2extent": 17576.7525, 
			 "electric_dipole_moment_norm": 5.50748548886, 
			 "electric_quadrupole_moment_norm": 23.0301576447, 
			 "total_energy": -1744.90014819, 
			 "HOMO_LUMO_gap": 0.17323, 
			 "cosmo_polarized_energy": -20.87, 
			 "cosmo_cavitation_energy": 46.69, 
			 "cosmo_dispersion_energy": -32.63, 
			 "cosmo_repulsion_energy": 2.38, 
			 "cosmo_total_nonelectrostatic_energy": 16.44, 
			 "SMD_solvation_energy": 7.99 
		},
		"coords": [
			{
				"x": 3.8753327376,
				"y": 4.3480273174,
				"z": -2.6596719562,
				"element": "F" 
			},
			{
				"x": 4.1687107131,
				"y": 3.2953326637,
				"z": -1.8638501947,
				"element": "C" 
			},
			{
				"x": 5.5068299263,
				"y": 3.1250786574,
				"z": -1.910336505,
				"element": "F" 
			},
			{
				"x": 3.5959502151,
				"y": 2.2064825628,
				"z": -2.4199360998,
				"element": "F" 
			},
			{
				"x": 3.686262117,
				"y": 3.5224716161,
				"z": -0.453162262,
				"element": "C" 
			},
			{
				"x": 4.4988816696,
				"y": 4.2034085054,
				"z": 0.4545300741,
				"element": "C" 
			},
			{
				"x": 4.0104479201,
				"y": 4.4758730567,
				"z": 1.7326210019,
				"element": "C" 
			},
			{
				"x": 2.7377163639,
				"y": 4.0541169295,
				"z": 2.1076658734,
				"element": "C" 
			},
			{
				"x": 1.9218803418,
				"y": 3.3657419648,
				"z": 1.1961210381,
				"element": "C" 
			},
			{
				"x": 0.6206068395,
				"y": 2.9878847413,
				"z": 1.5974382943,
				"element": "N" 
			},
			{
				"x": -0.0952267682,
				"y": 1.8159464966,
				"z": 1.3957575467,
				"element": "C" 
			},
			{
				"x": -1.2463181593,
				"y": 1.7001845431,
				"z": 1.7707302018,
				"element": "O" 
			},
			{
				"x": 0.6186766983,
				"y": 0.8026684549,
				"z": 0.7491314107,
				"element": "N" 
			},
			{
				"x": 0.1410088649,
				"y": -0.4617494991,
				"z": 0.4915819824,
				"element": "C" 
			},
			{
				"x": 0.880264548,
				"y": -1.5083218759,
				"z": 0.2693893093,
				"element": "N" 
			},
			{
				"x": -0.0145379944,
				"y": -2.5361303845,
				"z": -0.0225454752,
				"element": "N" 
			},
			{
				"x": -1.2090664826,
				"y": -2.0334368735,
				"z": 0.0539529294,
				"element": "C" 
			},
			{
				"x": -1.1815890335,
				"y": -0.6925743648,
				"z": 0.3747036454,
				"element": "O" 
			},
			{
				"x": -2.4980786969,
				"y": -2.6821689935,
				"z": -0.1350857357,
				"element": "C" 
			},
			{
				"x": -2.5389454493,
				"y": -4.0367311831,
				"z": -0.50463151,
				"element": "C" 
			},
			{
				"x": -3.7587636285,
				"y": -4.6768980997,
				"z": -0.6905877696,
				"element": "C" 
			},
			{
				"x": -4.9425527418,
				"y": -3.9585083338,
				"z": -0.505525261,
				"element": "C" 
			},
			{
				"x": -6.4839332066,
				"y": -4.7642164213,
				"z": -0.7401955799,
				"element": "Cl" 
			},
			{
				"x": -4.9215608776,
				"y": -2.6133223828,
				"z": -0.1371083353,
				"element": "C" 
			},
			{
				"x": -3.6969913553,
				"y": -1.9764446519,
				"z": 0.0477218839,
				"element": "C" 
			},
			{
				"x": 2.3976314098,
				"y": 3.1177058068,
				"z": -0.0989397332,
				"element": "C" 
			},
			{
				"x": 5.4973440882,
				"y": 4.5104446564,
				"z": 0.1650898305,
				"element": "H" 
			},
			{
				"x": 4.6320312716,
				"y": 5.0049377981,
				"z": 2.4481065632,
				"element": "H" 
			},
			{
				"x": 2.37028417,
				"y": 4.2449395209,
				"z": 3.1119035863,
				"element": "H" 
			},
			{
				"x": 0.1239376035,
				"y": 3.6121668995,
				"z": 2.2183248455,
				"element": "H" 
			},
			{
				"x": 1.6266330641,
				"y": 0.8674304587,
				"z": 0.6821239576,
				"element": "H" 
			},
			{
				"x": -1.6081530097,
				"y": -4.5761225138,
				"z": -0.6431116048,
				"element": "H" 
			},
			{
				"x": -3.7965859712,
				"y": -5.7220147526,
				"z": -0.9763759438,
				"element": "H" 
			},
			{
				"x": -5.8510360215,
				"y": -2.0734707681,
				"z": 0.004052794,
				"element": "H" 
			},
			{
				"x": -3.6693321044,
				"y": -0.9318871102,
				"z": 0.3389637957,
				"element": "H" 
			},
			{
				"x": 1.7656409385,
				"y": 2.6310555585,
				"z": -0.8324465981,
				"element": "H" 
			}
		],
		 "valence_orbital": [ 
			{
				"type": "occ",
				"energy": -0.28232,
				"method": "rhf"
			},
			{
				"type": "occ",
				"energy": -0.27812,
				"method": "rhf"
			},
			{
				"type": "occ",
				"energy": -0.27211,
				"method": "rhf"
			},
			{
				"type": "occ",
				"energy": -0.25746,
				"method": "rhf"
			},
			{
				"type": "occ",
				"energy": -0.22882,
				"method": "rhf"
			},
			{
				"type": "unocc",
				"energy": -0.05559,
				"method": "rhf"
			},
			{
				"type": "unocc",
				"energy": -0.05052,
				"method": "rhf"
			},
			{
				"type": "unocc",
				"energy": -0.0416,
				"method": "rhf"
			},
			{
				"type": "unocc",
				"energy": -0.02097,
				"method": "rhf"
			},
			{
				"type": "unocc",
				"energy": 0.00439,
				"method": "rhf"
			}
		],
		"cosmo_sigma_profile": { 
			"-0.025": 0.0,
			"-0.024": 0.0,
			"-0.023": 0.0,
			"-0.022": 0.0,
			"-0.021": 0.0,
			"-0.02": 0.0,
			"-0.019": 0.0,
			"-0.018": 0.0,
			"-0.017": 0.0,
			"-0.016": 0.171136120249,
			"-0.015": 1.39846902719,
			"-0.014": 2.23515910779,
			"-0.013": 1.88796541995,
			"-0.012": 1.87102998595,
			"-0.011": 2.34679451877,
			"-0.01": 2.74402856078,
			"-0.009": 2.33290231087,
			"-0.008": 6.48801389847,
			"-0.007": 15.5933204917,
			"-0.006": 18.89511831,
			"-0.005": 18.4211127104,
			"-0.004": 18.7707219983,
			"-0.003": 21.9290326845,
			"-0.002": 23.728527518,
			"-0.001": 23.5011107939,
			"0.0": 29.2368965062,
			"0.001": 37.1829929344,
			"0.002": 49.7682009361,
			"0.003": 41.9252476249,
			"0.004": 15.783593171,
			"0.005": 4.60299462282,
			"0.006": 2.92816503949,
			"0.007": 2.05065793753,
			"0.008": 3.67674032754,
			"0.009": 3.79954321567,
			"0.01": 4.64841863018,
			"0.011": 6.41993551192,
			"0.012": 8.11560070542,
			"0.013": 4.56458252392,
			"0.014": 1.68216385218,
			"0.015": 0.466971779747,
			"0.016": 0.0,
			"0.017": 0.0,
			"0.018": 0.0,
			"0.019": 0.0,
			"0.02": 0.0,
			"0.021": 0.0,
			"0.022": 0.0,
			"0.023": 0.0,
			"0.024": 0.0,
			"0.025": 0.0
		}
	}
}
