{
	 "smiles": "NC(CC1=C2N=CC=CC2=CC=C1)=N/O", 
	 "Tm": 446.15, 
	 "num_atms": 26, 
	 "gaussian": { 
		 "optdone": 1, 
		 "sigma_profile": "yes", 
		 "theory": "DFT", 
		 "functional": "B3LYP", 
		 "basiset": "6-31G**", 
		 "properties": { 
			 "R2extent": 3367.9018, 
			 "electric_dipole_moment_norm": 3.95337201892, 
			 "electric_quadrupole_moment_norm": 8.01676178142, 
			 "total_energy": -665.242450879, 
			 "HOMO_LUMO_gap": 0.13031, 
			 "cosmo_polarized_energy": -13.13, 
			 "cosmo_cavitation_energy": 29.68, 
			 "cosmo_dispersion_energy": -21.78, 
			 "cosmo_repulsion_energy": 1.7, 
			 "cosmo_total_nonelectrostatic_energy": 9.6, 
			 "SMD_solvation_energy": 4.19 
		},
		"coords": [
			{
				"x": 2.4852464468,
				"y": 1.0978609555,
				"z": -1.2749748742,
				"element": "N" 
			},
			{
				"x": 1.3874558229,
				"y": 1.8783227179,
				"z": -1.0373880533,
				"element": "C" 
			},
			{
				"x": 0.6752221861,
				"y": 1.701583927,
				"z": 0.2878385703,
				"element": "C" 
			},
			{
				"x": -0.2729796768,
				"y": 0.5151583073,
				"z": 0.3292012925,
				"element": "C" 
			},
			{
				"x": 0.2049892001,
				"y": -0.8151458337,
				"z": 0.5579610818,
				"element": "C" 
			},
			{
				"x": 1.5510549627,
				"y": -1.0220986006,
				"z": 0.6881610313,
				"element": "N" 
			},
			{
				"x": 1.9840942546,
				"y": -2.2459873871,
				"z": 0.9242945207,
				"element": "C" 
			},
			{
				"x": 1.139218037,
				"y": -3.3741388235,
				"z": 1.0475799452,
				"element": "C" 
			},
			{
				"x": -0.2158119761,
				"y": -3.1944544684,
				"z": 0.901629948,
				"element": "C" 
			},
			{
				"x": -0.7308017387,
				"y": -1.8977521434,
				"z": 0.6476749808,
				"element": "C" 
			},
			{
				"x": -2.116490421,
				"y": -1.6454981625,
				"z": 0.4783964293,
				"element": "C" 
			},
			{
				"x": -2.5546675081,
				"y": -0.3650708589,
				"z": 0.2352991144,
				"element": "C" 
			},
			{
				"x": -1.6323858268,
				"y": 0.7056388638,
				"z": 0.1677333433,
				"element": "C" 
			},
			{
				"x": 0.9173264893,
				"y": 2.7814277082,
				"z": -1.8323009147,
				"element": "N" 
			},
			{
				"x": 1.6923120634,
				"y": 2.7850627429,
				"z": -3.0406244638,
				"element": "O" 
			},
			{
				"x": 2.796136595,
				"y": 1.0618861216,
				"z": -2.2345157803,
				"element": "H" 
			},
			{
				"x": 2.5603554487,
				"y": 0.2607726069,
				"z": -0.7087453806,
				"element": "H" 
			},
			{
				"x": 1.4272053654,
				"y": 1.5997536286,
				"z": 1.0769860775,
				"element": "H" 
			},
			{
				"x": 0.1061658084,
				"y": 2.6151299978,
				"z": 0.4706256229,
				"element": "H" 
			},
			{
				"x": 3.0622831727,
				"y": -2.3663434499,
				"z": 1.0221686246,
				"element": "H" 
			},
			{
				"x": 1.5657066697,
				"y": -4.3522466786,
				"z": 1.2447868101,
				"element": "H" 
			},
			{
				"x": -0.9040770794,
				"y": -4.0327146637,
				"z": 0.9766907927,
				"element": "H" 
			},
			{
				"x": -2.8163772411,
				"y": -2.4744414748,
				"z": 0.5427710596,
				"element": "H" 
			},
			{
				"x": -3.6136725538,
				"y": -0.1649455513,
				"z": 0.1016829404,
				"element": "H" 
			},
			{
				"x": -2.0020944138,
				"y": 1.7108055927,
				"z": -0.0146438786,
				"element": "H" 
			},
			{
				"x": 1.2487859127,
				"y": 3.472234926,
				"z": -3.55108884,
				"element": "H" 
			}
		],
		 "valence_orbital": [ 
			{
				"type": "occ",
				"energy": -0.26731,
				"method": "rhf"
			},
			{
				"type": "occ",
				"energy": -0.25807,
				"method": "rhf"
			},
			{
				"type": "occ",
				"energy": -0.25413,
				"method": "rhf"
			},
			{
				"type": "occ",
				"energy": -0.2345,
				"method": "rhf"
			},
			{
				"type": "occ",
				"energy": -0.19167,
				"method": "rhf"
			},
			{
				"type": "unocc",
				"energy": -0.06136,
				"method": "rhf"
			},
			{
				"type": "unocc",
				"energy": -0.02308,
				"method": "rhf"
			},
			{
				"type": "unocc",
				"energy": 0.01145,
				"method": "rhf"
			},
			{
				"type": "unocc",
				"energy": 0.05874,
				"method": "rhf"
			},
			{
				"type": "unocc",
				"energy": 0.08315,
				"method": "rhf"
			}
		],
		"cosmo_sigma_profile": { 
			"-0.025": 0.0,
			"-0.024": 0.0,
			"-0.023": 0.0,
			"-0.022": 0.0,
			"-0.021": 0.0,
			"-0.02": 0.0,
			"-0.019": 0.0,
			"-0.018": 0.0,
			"-0.017": 0.0286388108619,
			"-0.016": 0.705522099249,
			"-0.015": 0.901551879892,
			"-0.014": 1.29283672474,
			"-0.013": 0.22226801859,
			"-0.012": 0.49208392309,
			"-0.011": 1.50951097088,
			"-0.01": 0.896543664492,
			"-0.009": 2.07351123177,
			"-0.008": 2.00976973594,
			"-0.007": 10.091529044,
			"-0.006": 15.7921284478,
			"-0.005": 16.410094382,
			"-0.004": 16.1295453018,
			"-0.003": 12.82873326,
			"-0.002": 14.2850778473,
			"-0.001": 14.0191188741,
			"0.0": 13.8077454151,
			"0.001": 21.7408907819,
			"0.002": 23.9178510803,
			"0.003": 15.7226036622,
			"0.004": 12.8310972909,
			"0.005": 5.09712922636,
			"0.006": 5.019222004,
			"0.007": 4.97355313898,
			"0.008": 4.67413344708,
			"0.009": 5.29878386228,
			"0.01": 5.37305600033,
			"0.011": 3.05577388981,
			"0.012": 2.44196868992,
			"0.013": 0.735314607555,
			"0.014": 0.900073046214,
			"0.015": 1.0080821093,
			"0.016": 0.390456417459,
			"0.017": 0.00049760684313,
			"0.018": 0.0,
			"0.019": 0.0,
			"0.02": 0.0,
			"0.021": 0.0,
			"0.022": 0.0,
			"0.023": 0.0,
			"0.024": 0.0,
			"0.025": 0.0
		}
	}
}
