{
	 "smiles": "N#CC1=CC=CC=C1N1C=CC=C1", 
	 "Tm": 324.15, 
	 "num_atms": 21, 
	 "gaussian": { 
		 "optdone": 1, 
		 "sigma_profile": "yes", 
		 "theory": "DFT", 
		 "functional": "B3LYP", 
		 "basiset": "6-31G**", 
		 "properties": { 
			 "R2extent": 2736.2919, 
			 "electric_dipole_moment_norm": 4.71388319541, 
			 "electric_quadrupole_moment_norm": 13.0745417151, 
			 "total_energy": -533.458826283, 
			 "HOMO_LUMO_gap": 0.15818, 
			 "cosmo_polarized_energy": -10.8, 
			 "cosmo_cavitation_energy": 26.12, 
			 "cosmo_dispersion_energy": -18.47, 
			 "cosmo_repulsion_energy": 1.44, 
			 "cosmo_total_nonelectrostatic_energy": 9.08, 
			 "SMD_solvation_energy": 6.28 
		},
		"coords": [
			{
				"x": -1.9152254758,
				"y": -1.9197981817,
				"z": -2.3133132441,
				"element": "N" 
			},
			{
				"x": -0.8011904362,
				"y": -1.7312621578,
				"z": -2.0355396397,
				"element": "C" 
			},
			{
				"x": 0.5907357525,
				"y": -1.5240871074,
				"z": -1.7649616478,
				"element": "C" 
			},
			{
				"x": 1.5123237955,
				"y": -1.8674148483,
				"z": -2.7717246288,
				"element": "C" 
			},
			{
				"x": 2.8717652068,
				"y": -1.6355990122,
				"z": -2.6020821571,
				"element": "C" 
			},
			{
				"x": 3.3262900629,
				"y": -1.0621109798,
				"z": -1.4119288163,
				"element": "C" 
			},
			{
				"x": 2.4299653425,
				"y": -0.7380928892,
				"z": -0.3975725962,
				"element": "C" 
			},
			{
				"x": 1.0548846742,
				"y": -0.9594743592,
				"z": -0.5531426188,
				"element": "C" 
			},
			{
				"x": 0.1782194837,
				"y": -0.6028652632,
				"z": 0.4922982294,
				"element": "N" 
			},
			{
				"x": -0.8936082376,
				"y": -1.3456842444,
				"z": 0.9729455492,
				"element": "C" 
			},
			{
				"x": -1.4298338608,
				"y": -0.6792636402,
				"z": 2.0453222959,
				"element": "C" 
			},
			{
				"x": -0.6710811278,
				"y": 0.5155735678,
				"z": 2.2353261345,
				"element": "C" 
			},
			{
				"x": 0.3124278654,
				"y": 0.5359279392,
				"z": 1.2794504256,
				"element": "C" 
			},
			{
				"x": 1.1361686596,
				"y": -2.3029153408,
				"z": -3.6912711358,
				"element": "H" 
			},
			{
				"x": 3.5699410922,
				"y": -1.8995438116,
				"z": -3.3894999937,
				"element": "H" 
			},
			{
				"x": 4.3867453403,
				"y": -0.8828389042,
				"z": -1.2628848224,
				"element": "H" 
			},
			{
				"x": 2.7885716726,
				"y": -0.3320204904,
				"z": 0.5416328264,
				"element": "H" 
			},
			{
				"x": -1.1587107057,
				"y": -2.2893134455,
				"z": 0.5243620602,
				"element": "H" 
			},
			{
				"x": -2.272939361,
				"y": -1.0132883469,
				"z": 2.6332495289,
				"element": "H" 
			},
			{
				"x": -0.8404233253,
				"y": 1.2801958356,
				"z": 2.9803713923,
				"element": "H" 
			},
			{
				"x": 1.062573582,
				"y": 1.2759756801,
				"z": 1.0471628582,
				"element": "H" 
			}
		],
		 "valence_orbital": [ 
			{
				"type": "occ",
				"energy": -0.3328,
				"method": "rhf"
			},
			{
				"type": "occ",
				"energy": -0.29237,
				"method": "rhf"
			},
			{
				"type": "occ",
				"energy": -0.27403,
				"method": "rhf"
			},
			{
				"type": "occ",
				"energy": -0.2339,
				"method": "rhf"
			},
			{
				"type": "occ",
				"energy": -0.21707,
				"method": "rhf"
			},
			{
				"type": "unocc",
				"energy": -0.05889,
				"method": "rhf"
			},
			{
				"type": "unocc",
				"energy": -0.0334,
				"method": "rhf"
			},
			{
				"type": "unocc",
				"energy": 0.02999,
				"method": "rhf"
			},
			{
				"type": "unocc",
				"energy": 0.03745,
				"method": "rhf"
			},
			{
				"type": "unocc",
				"energy": 0.07033,
				"method": "rhf"
			}
		],
		"cosmo_sigma_profile": { 
			"-0.025": 0.0,
			"-0.024": 0.0,
			"-0.023": 0.0,
			"-0.022": 0.0,
			"-0.021": 0.0,
			"-0.02": 0.0,
			"-0.019": 0.0,
			"-0.018": 0.0,
			"-0.017": 0.0,
			"-0.016": 0.0,
			"-0.015": 0.0,
			"-0.014": 0.0,
			"-0.013": 0.0,
			"-0.012": 0.0,
			"-0.011": 0.0,
			"-0.01": 0.0,
			"-0.009": 0.0679300801134,
			"-0.008": 4.76475348333,
			"-0.007": 13.2602771601,
			"-0.006": 15.3145054396,
			"-0.005": 14.5409656736,
			"-0.004": 12.2084578887,
			"-0.003": 13.1053973867,
			"-0.002": 14.7128718103,
			"-0.001": 16.7412174578,
			"0.0": 15.5699370805,
			"0.001": 16.229439317,
			"0.002": 15.8451138252,
			"0.003": 9.99798769856,
			"0.004": 6.82743967724,
			"0.005": 8.11083407648,
			"0.006": 8.78592446709,
			"0.007": 8.4676500954,
			"0.008": 4.69760936893,
			"0.009": 3.09143812848,
			"0.01": 2.88650036353,
			"0.011": 2.78390045957,
			"0.012": 2.38545167673,
			"0.013": 1.26694824227,
			"0.014": 0.00253801783123,
			"0.015": 0.0,
			"0.016": 0.0,
			"0.017": 0.0,
			"0.018": 0.0,
			"0.019": 0.0,
			"0.02": 0.0,
			"0.021": 0.0,
			"0.022": 0.0,
			"0.023": 0.0,
			"0.024": 0.0,
			"0.025": 0.0
		}
	}
}
