{
	 "smiles": "CC(C)C(Br)C(=O)NC(C)C1=CC=CC=C1", 
	 "Tm": 347.15, 
	 "num_atms": 34, 
	 "gaussian": { 
		 "optdone": 1, 
		 "sigma_profile": "yes", 
		 "theory": "DFT", 
		 "functional": "B3LYP", 
		 "basiset": "6-31G**", 
		 "properties": { 
			 "R2extent": 5663.2274, 
			 "electric_dipole_moment_norm": 1.67161409422, 
			 "electric_quadrupole_moment_norm": 7.73075580134, 
			 "total_energy": -3207.6478923, 
			 "HOMO_LUMO_gap": 0.22616, 
			 "cosmo_polarized_energy": -9.51, 
			 "cosmo_cavitation_energy": 37.42, 
			 "cosmo_dispersion_energy": -25.56, 
			 "cosmo_repulsion_energy": 2.02, 
			 "cosmo_total_nonelectrostatic_energy": 13.89, 
			 "SMD_solvation_energy": 5.22 
		},
		"coords": [
			{
				"x": 3.121201185,
				"y": 1.3708968944,
				"z": -0.5282923147,
				"element": "C" 
			},
			{
				"x": 2.835718476,
				"y": 0.4744639321,
				"z": 0.6905955592,
				"element": "C" 
			},
			{
				"x": 1.872039248,
				"y": 1.1510109455,
				"z": 1.6744603819,
				"element": "C" 
			},
			{
				"x": 2.3566380304,
				"y": -0.9273079947,
				"z": 0.2393246154,
				"element": "C" 
			},
			{
				"x": 2.5878956396,
				"y": -2.2366297709,
				"z": 1.7535344034,
				"element": "Br" 
			},
			{
				"x": 0.9433338716,
				"y": -0.9334300714,
				"z": -0.3678142075,
				"element": "C" 
			},
			{
				"x": 0.8338445768,
				"y": -0.4573328919,
				"z": -1.4987186307,
				"element": "O" 
			},
			{
				"x": -0.073710928,
				"y": -1.4110446883,
				"z": 0.380441681,
				"element": "N" 
			},
			{
				"x": -1.5012304341,
				"y": -1.4681965003,
				"z": -0.0019183611,
				"element": "C" 
			},
			{
				"x": -1.7102056601,
				"y": -2.0913109397,
				"z": -1.3912409973,
				"element": "C" 
			},
			{
				"x": -2.212835046,
				"y": -0.128517003,
				"z": 0.1705983221,
				"element": "C" 
			},
			{
				"x": -1.895259525,
				"y": 0.9847848165,
				"z": -0.6240051938,
				"element": "C" 
			},
			{
				"x": -2.5740848397,
				"y": 2.1909761309,
				"z": -0.4495251204,
				"element": "C" 
			},
			{
				"x": -3.5827346509,
				"y": 2.3046906712,
				"z": 0.5107681251,
				"element": "C" 
			},
			{
				"x": -3.9078927931,
				"y": 1.2026523205,
				"z": 1.3010595667,
				"element": "C" 
			},
			{
				"x": -3.2240893585,
				"y": -0.0031592994,
				"z": 1.1305084274,
				"element": "C" 
			},
			{
				"x": 2.2137352537,
				"y": 1.5638167274,
				"z": -1.1036941277,
				"element": "H" 
			},
			{
				"x": 3.850598565,
				"y": 0.9090081423,
				"z": -1.2017114436,
				"element": "H" 
			},
			{
				"x": 3.5336971292,
				"y": 2.3267922073,
				"z": -0.1886969508,
				"element": "H" 
			},
			{
				"x": 3.7882313541,
				"y": 0.3041841696,
				"z": 1.2059334589,
				"element": "H" 
			},
			{
				"x": 0.9100930586,
				"y": 1.3774132181,
				"z": 1.2025497784,
				"element": "H" 
			},
			{
				"x": 1.6865586505,
				"y": 0.5217299547,
				"z": 2.5499141686,
				"element": "H" 
			},
			{
				"x": 2.2991955348,
				"y": 2.0952225042,
				"z": 2.026035572,
				"element": "H" 
			},
			{
				"x": 3.0241312282,
				"y": -1.3225888362,
				"z": -0.5255284229,
				"element": "H" 
			},
			{
				"x": 0.1705506905,
				"y": -1.7630553697,
				"z": 1.2957081265,
				"element": "H" 
			},
			{
				"x": -1.9395979522,
				"y": -2.15482971,
				"z": 0.7304581701,
				"element": "H" 
			},
			{
				"x": -1.2378682911,
				"y": -3.0775591606,
				"z": -1.4378513236,
				"element": "H" 
			},
			{
				"x": -1.2829250535,
				"y": -1.4676621811,
				"z": -2.1758999142,
				"element": "H" 
			},
			{
				"x": -2.7822120358,
				"y": -2.2097457514,
				"z": -1.5738415747,
				"element": "H" 
			},
			{
				"x": -1.1098127951,
				"y": 0.9004845393,
				"z": -1.3674840893,
				"element": "H" 
			},
			{
				"x": -2.3165348348,
				"y": 3.0453093377,
				"z": -1.0695450726,
				"element": "H" 
			},
			{
				"x": -4.1105937358,
				"y": 3.2452407413,
				"z": 0.6404589306,
				"element": "H" 
			},
			{
				"x": -4.6904394331,
				"y": 1.2788282348,
				"z": 2.050833855,
				"element": "H" 
			},
			{
				"x": -3.4825351251,
				"y": -0.858235319,
				"z": 1.7515846026,
				"element": "H" 
			}
		],
		 "valence_orbital": [ 
			{
				"type": "occ",
				"energy": -0.28235,
				"method": "rhf"
			},
			{
				"type": "occ",
				"energy": -0.26269,
				"method": "rhf"
			},
			{
				"type": "occ",
				"energy": -0.2509,
				"method": "rhf"
			},
			{
				"type": "occ",
				"energy": -0.24929,
				"method": "rhf"
			},
			{
				"type": "occ",
				"energy": -0.24356,
				"method": "rhf"
			},
			{
				"type": "unocc",
				"energy": -0.0174,
				"method": "rhf"
			},
			{
				"type": "unocc",
				"energy": -0.00486,
				"method": "rhf"
			},
			{
				"type": "unocc",
				"energy": -0.00076,
				"method": "rhf"
			},
			{
				"type": "unocc",
				"energy": 0.02161,
				"method": "rhf"
			},
			{
				"type": "unocc",
				"energy": 0.07517,
				"method": "rhf"
			}
		],
		"cosmo_sigma_profile": { 
			"-0.025": 0.0,
			"-0.024": 0.0,
			"-0.023": 0.0,
			"-0.022": 0.0,
			"-0.021": 0.0,
			"-0.02": 0.0,
			"-0.019": 0.0,
			"-0.018": 0.0,
			"-0.017": 0.0,
			"-0.016": 0.0,
			"-0.015": 0.0,
			"-0.014": 0.0,
			"-0.013": 0.204867741959,
			"-0.012": 0.840968534779,
			"-0.011": 0.779537598756,
			"-0.01": 0.844609377656,
			"-0.009": 1.05943021913,
			"-0.008": 1.99673980121,
			"-0.007": 4.09831645782,
			"-0.006": 8.96305116309,
			"-0.005": 14.1233747713,
			"-0.004": 18.8767500991,
			"-0.003": 29.0241944786,
			"-0.002": 26.7761056828,
			"-0.001": 30.2201866227,
			"0.0": 34.3597949097,
			"0.001": 35.278521477,
			"0.002": 18.8407188899,
			"0.003": 15.4320907383,
			"0.004": 15.3684980616,
			"0.005": 16.8055091159,
			"0.006": 11.1322886248,
			"0.007": 2.59088765049,
			"0.008": 1.25380154914,
			"0.009": 1.37298048932,
			"0.01": 0.70253249108,
			"0.011": 1.97036807189,
			"0.012": 1.346272694,
			"0.013": 2.02967399294,
			"0.014": 0.780307980101,
			"0.015": 0.0,
			"0.016": 0.0,
			"0.017": 0.0,
			"0.018": 0.0,
			"0.019": 0.0,
			"0.02": 0.0,
			"0.021": 0.0,
			"0.022": 0.0,
			"0.023": 0.0,
			"0.024": 0.0,
			"0.025": 0.0
		}
	}
}
