{
	 "smiles": "BrC1=CC2=CC=CC=C2C2=C1C=CC=C2", 
	 "Tm": 337.35, 
	 "num_atms": 24, 
	 "gaussian": { 
		 "optdone": 1, 
		 "sigma_profile": "yes", 
		 "theory": "DFT", 
		 "functional": "B3LYP", 
		 "basiset": "6-31G**", 
		 "properties": { 
			 "R2extent": 6035.6886, 
			 "electric_dipole_moment_norm": 1.894587496, 
			 "electric_quadrupole_moment_norm": 11.1787951171, 
			 "total_energy": -3110.3432802, 
			 "HOMO_LUMO_gap": 0.16849, 
			 "cosmo_polarized_energy": -5.74, 
			 "cosmo_cavitation_energy": 29.26, 
			 "cosmo_dispersion_energy": -22.47, 
			 "cosmo_repulsion_energy": 1.69, 
			 "cosmo_total_nonelectrostatic_energy": 8.48, 
			 "SMD_solvation_energy": 3.33 
		},
		"coords": [
			{
				"x": 1.0611209293,
				"y": -2.7530094188,
				"z": -3.8597035289,
				"element": "Br" 
			},
			{
				"x": 0.8143571697,
				"y": -1.2518798219,
				"z": -2.6910053971,
				"element": "C" 
			},
			{
				"x": 1.2103295004,
				"y": -0.0320522005,
				"z": -3.1380543872,
				"element": "C" 
			},
			{
				"x": 1.0580804034,
				"y": 1.1359725971,
				"z": -2.3226797844,
				"element": "C" 
			},
			{
				"x": 1.4750392783,
				"y": 2.4001854911,
				"z": -2.8016316835,
				"element": "C" 
			},
			{
				"x": 1.3335892332,
				"y": 3.533313735,
				"z": -2.0259548116,
				"element": "C" 
			},
			{
				"x": 0.7669829569,
				"y": 3.4291371449,
				"z": -0.7416589968,
				"element": "C" 
			},
			{
				"x": 0.3531108484,
				"y": 2.2020527376,
				"z": -0.2552026358,
				"element": "C" 
			},
			{
				"x": 0.4838794672,
				"y": 1.021775081,
				"z": -1.024226387,
				"element": "C" 
			},
			{
				"x": 0.0620046811,
				"y": -0.2911150808,
				"z": -0.5525368388,
				"element": "C" 
			},
			{
				"x": 0.2262862618,
				"y": -1.4418573751,
				"z": -1.3891649095,
				"element": "C" 
			},
			{
				"x": -0.1884787057,
				"y": -2.7075687963,
				"z": -0.9155165498,
				"element": "C" 
			},
			{
				"x": -0.7485081287,
				"y": -2.8537063318,
				"z": 0.3380751013,
				"element": "C" 
			},
			{
				"x": -0.9132658828,
				"y": -1.7296802172,
				"z": 1.1653472619,
				"element": "C" 
			},
			{
				"x": -0.5155980018,
				"y": -0.4816341762,
				"z": 0.7247028341,
				"element": "C" 
			},
			{
				"x": 1.6493432678,
				"y": 0.0734501447,
				"z": -4.1241717123,
				"element": "H" 
			},
			{
				"x": 1.9104042053,
				"y": 2.463084472,
				"z": -3.7954399372,
				"element": "H" 
			},
			{
				"x": 1.656744495,
				"y": 4.4991233279,
				"z": -2.4027422584,
				"element": "H" 
			},
			{
				"x": 0.6530746224,
				"y": 4.3170644305,
				"z": -0.1267682945,
				"element": "H" 
			},
			{
				"x": -0.0789122114,
				"y": 2.1580032023,
				"z": 0.7379292453,
				"element": "H" 
			},
			{
				"x": -0.0589269784,
				"y": -3.5705317128,
				"z": -1.5577651799,
				"element": "H" 
			},
			{
				"x": -1.059974993,
				"y": -3.8355706934,
				"z": 0.6815330987,
				"element": "H" 
			},
			{
				"x": -1.3531353838,
				"y": -1.8386633077,
				"z": 2.152303325,
				"element": "H" 
			},
			{
				"x": -0.6536470347,
				"y": 0.3689067684,
				"z": 1.3820324265,
				"element": "H" 
			}
		],
		 "valence_orbital": [ 
			{
				"type": "occ",
				"energy": -0.28544,
				"method": "rhf"
			},
			{
				"type": "occ",
				"energy": -0.28272,
				"method": "rhf"
			},
			{
				"type": "occ",
				"energy": -0.26377,
				"method": "rhf"
			},
			{
				"type": "occ",
				"energy": -0.22983,
				"method": "rhf"
			},
			{
				"type": "occ",
				"energy": -0.21656,
				"method": "rhf"
			},
			{
				"type": "unocc",
				"energy": -0.04807,
				"method": "rhf"
			},
			{
				"type": "unocc",
				"energy": -0.03905,
				"method": "rhf"
			},
			{
				"type": "unocc",
				"energy": -1e-05,
				"method": "rhf"
			},
			{
				"type": "unocc",
				"energy": 0.00885,
				"method": "rhf"
			},
			{
				"type": "unocc",
				"energy": 0.03001,
				"method": "rhf"
			}
		],
		"cosmo_sigma_profile": { 
			"-0.025": 0.0,
			"-0.024": 0.0,
			"-0.023": 0.0,
			"-0.022": 0.0,
			"-0.021": 0.0,
			"-0.02": 0.0,
			"-0.019": 0.0,
			"-0.018": 0.0,
			"-0.017": 0.0,
			"-0.016": 0.0,
			"-0.015": 0.0,
			"-0.014": 0.0,
			"-0.013": 0.0,
			"-0.012": 0.0,
			"-0.011": 0.0,
			"-0.01": 0.0,
			"-0.009": 0.396441392393,
			"-0.008": 1.82358314275,
			"-0.007": 5.58648023015,
			"-0.006": 13.3574072668,
			"-0.005": 15.9155176204,
			"-0.004": 18.6435515478,
			"-0.003": 14.6433302661,
			"-0.002": 12.2234363141,
			"-0.001": 14.3368498838,
			"0.0": 12.946163179,
			"0.001": 22.5237137582,
			"0.002": 30.6650447041,
			"0.003": 32.0837090604,
			"0.004": 30.152881166,
			"0.005": 14.2261844548,
			"0.006": 0.0,
			"0.007": 0.0,
			"0.008": 0.0,
			"0.009": 0.0,
			"0.01": 0.0,
			"0.011": 0.0,
			"0.012": 0.0,
			"0.013": 0.0,
			"0.014": 0.0,
			"0.015": 0.0,
			"0.016": 0.0,
			"0.017": 0.0,
			"0.018": 0.0,
			"0.019": 0.0,
			"0.02": 0.0,
			"0.021": 0.0,
			"0.022": 0.0,
			"0.023": 0.0,
			"0.024": 0.0,
			"0.025": 0.0
		}
	}
}
