{
	 "smiles": "OC(=O)C1=C2N=CC=CC2=CC(F)=C1", 
	 "Tm": 433.15, 
	 "num_atms": 20, 
	 "gaussian": { 
		 "optdone": 1, 
		 "sigma_profile": "yes", 
		 "theory": "DFT", 
		 "functional": "B3LYP", 
		 "basiset": "6-31G**", 
		 "properties": { 
			 "R2extent": 2864.653, 
			 "electric_dipole_moment_norm": 7.36549297875, 
			 "electric_quadrupole_moment_norm": 11.1093140783, 
			 "total_energy": -689.739127208, 
			 "HOMO_LUMO_gap": 0.16752, 
			 "cosmo_polarized_energy": -13.69, 
			 "cosmo_cavitation_energy": 25.07, 
			 "cosmo_dispersion_energy": -18.81, 
			 "cosmo_repulsion_energy": 1.41, 
			 "cosmo_total_nonelectrostatic_energy": 7.67, 
			 "SMD_solvation_energy": 5.43 
		},
		"coords": [
			{
				"x": -2.9828048993,
				"y": -1.0312013453,
				"z": -0.8010377381,
				"element": "O" 
			},
			{
				"x": -2.1564326022,
				"y": -2.0272617262,
				"z": -0.4811098335,
				"element": "C" 
			},
			{
				"x": -2.5016814507,
				"y": -3.1904584172,
				"z": -0.5081851021,
				"element": "O" 
			},
			{
				"x": -0.74211396,
				"y": -1.6470180981,
				"z": -0.0755553743,
				"element": "C" 
			},
			{
				"x": -0.2521600175,
				"y": -0.3025619701,
				"z": -0.0168720253,
				"element": "C" 
			},
			{
				"x": -1.0893589083,
				"y": 0.7260987219,
				"z": -0.341333768,
				"element": "N" 
			},
			{
				"x": -0.6445826442,
				"y": 1.9669643335,
				"z": -0.2894204849,
				"element": "C" 
			},
			{
				"x": 0.6752834167,
				"y": 2.3003697261,
				"z": 0.0903405706,
				"element": "C" 
			},
			{
				"x": 1.5428895494,
				"y": 1.2862991581,
				"z": 0.4230574991,
				"element": "C" 
			},
			{
				"x": 1.1026362631,
				"y": -0.0614967932,
				"z": 0.3797252153,
				"element": "C" 
			},
			{
				"x": 1.9441361887,
				"y": -1.1526923668,
				"z": 0.7096899195,
				"element": "C" 
			},
			{
				"x": 1.432887512,
				"y": -2.4243639121,
				"z": 0.6396424801,
				"element": "C" 
			},
			{
				"x": 2.218129364,
				"y": -3.4711055498,
				"z": 0.9494522422,
				"element": "F" 
			},
			{
				"x": 0.1061819927,
				"y": -2.6853648367,
				"z": 0.2529587429,
				"element": "C" 
			},
			{
				"x": -2.4961358635,
				"y": -0.1658784595,
				"z": -0.7111559218,
				"element": "H" 
			},
			{
				"x": -1.3528396276,
				"y": 2.7475600101,
				"z": -0.5578676095,
				"element": "H" 
			},
			{
				"x": 0.9838232152,
				"y": 3.3399296649,
				"z": 0.1143275296,
				"element": "H" 
			},
			{
				"x": 2.5657940006,
				"y": 1.5012564382,
				"z": 0.7203037871,
				"element": "H" 
			},
			{
				"x": 2.9735036992,
				"y": -0.9918186035,
				"z": 1.0125221315,
				"element": "H" 
			},
			{
				"x": -0.2640552283,
				"y": -3.7034559743,
				"z": 0.2087177397,
				"element": "H" 
			}
		],
		 "valence_orbital": [ 
			{
				"type": "occ",
				"energy": -0.29716,
				"method": "rhf"
			},
			{
				"type": "occ",
				"energy": -0.29244,
				"method": "rhf"
			},
			{
				"type": "occ",
				"energy": -0.27483,
				"method": "rhf"
			},
			{
				"type": "occ",
				"energy": -0.26318,
				"method": "rhf"
			},
			{
				"type": "occ",
				"energy": -0.2581,
				"method": "rhf"
			},
			{
				"type": "unocc",
				"energy": -0.09058,
				"method": "rhf"
			},
			{
				"type": "unocc",
				"energy": -0.0417,
				"method": "rhf"
			},
			{
				"type": "unocc",
				"energy": -0.03093,
				"method": "rhf"
			},
			{
				"type": "unocc",
				"energy": 0.04942,
				"method": "rhf"
			},
			{
				"type": "unocc",
				"energy": 0.07092,
				"method": "rhf"
			}
		],
		"cosmo_sigma_profile": { 
			"-0.025": 0.0,
			"-0.024": 0.0,
			"-0.023": 0.0,
			"-0.022": 0.0,
			"-0.021": 0.0,
			"-0.02": 0.0,
			"-0.019": 0.0,
			"-0.018": 0.0,
			"-0.017": 0.0,
			"-0.016": 0.0,
			"-0.015": 0.0,
			"-0.014": 0.0,
			"-0.013": 0.0,
			"-0.012": 0.0,
			"-0.011": 0.0,
			"-0.01": 0.128575239069,
			"-0.009": 3.45296894549,
			"-0.008": 8.55934297866,
			"-0.007": 9.80612763644,
			"-0.006": 8.96832593821,
			"-0.005": 7.62464535708,
			"-0.004": 10.2136171623,
			"-0.003": 10.5547530375,
			"-0.002": 15.9964809146,
			"-0.001": 28.7522957596,
			"0.0": 28.2175195156,
			"0.001": 13.9055333306,
			"0.002": 8.08866730893,
			"0.003": 9.26681146956,
			"0.004": 9.14940088448,
			"0.005": 2.84148158049,
			"0.006": 1.46865960165,
			"0.007": 2.26460290535,
			"0.008": 2.42926253212,
			"0.009": 3.25122494514,
			"0.01": 2.96158215248,
			"0.011": 5.4099551336,
			"0.012": 6.29356973582,
			"0.013": 2.73975660538,
			"0.014": 0.792968208857,
			"0.015": 0.0,
			"0.016": 0.0,
			"0.017": 0.0,
			"0.018": 0.0,
			"0.019": 0.0,
			"0.02": 0.0,
			"0.021": 0.0,
			"0.022": 0.0,
			"0.023": 0.0,
			"0.024": 0.0,
			"0.025": 0.0
		}
	}
}
