{
	 "smiles": "OC(=O)C1=CN=C(C=C1)C#C", 
	 "Tm": 403.15, 
	 "num_atms": 16, 
	 "gaussian": { 
		 "optdone": 1, 
		 "sigma_profile": "yes", 
		 "theory": "DFT", 
		 "functional": "B3LYP", 
		 "basiset": "6-31G**", 
		 "properties": { 
			 "R2extent": 3602.6975, 
			 "electric_dipole_moment_norm": 5.1817039379, 
			 "electric_quadrupole_moment_norm": 14.2851024025, 
			 "total_energy": -512.987505709, 
			 "HOMO_LUMO_gap": 0.1802, 
			 "cosmo_polarized_energy": -17.93, 
			 "cosmo_cavitation_energy": 22.59, 
			 "cosmo_dispersion_energy": -16.01, 
			 "cosmo_repulsion_energy": 1.26, 
			 "cosmo_total_nonelectrostatic_energy": 7.84, 
			 "SMD_solvation_energy": 5.0 
		},
		"coords": [
			{
				"x": -2.0469321285,
				"y": 2.4099650328,
				"z": -0.8363263904,
				"element": "O" 
			},
			{
				"x": -2.6009090178,
				"y": 1.4899549287,
				"z": -0.0015854963,
				"element": "C" 
			},
			{
				"x": -3.7209489585,
				"y": 1.0852633047,
				"z": -0.2021004326,
				"element": "O" 
			},
			{
				"x": -1.7574744459,
				"y": 1.0234256269,
				"z": 1.1436984073,
				"element": "C" 
			},
			{
				"x": -2.4022976287,
				"y": 0.4289145898,
				"z": 2.2414739336,
				"element": "C" 
			},
			{
				"x": -1.7722646293,
				"y": -0.0322122302,
				"z": 3.3186837209,
				"element": "N" 
			},
			{
				"x": -0.4250767323,
				"y": 0.0626500561,
				"z": 3.3454491357,
				"element": "C" 
			},
			{
				"x": 0.3183252952,
				"y": 0.6192643333,
				"z": 2.2892383425,
				"element": "C" 
			},
			{
				"x": -0.3606946447,
				"y": 1.1047225333,
				"z": 1.1788002798,
				"element": "C" 
			},
			{
				"x": 0.2485345882,
				"y": -0.43772905,
				"z": 4.5064603374,
				"element": "C" 
			},
			{
				"x": 0.8447911047,
				"y": -0.8508592371,
				"z": 5.4737285886,
				"element": "C" 
			},
			{
				"x": -1.2299022151,
				"y": 2.7644315506,
				"z": -0.4596237818,
				"element": "H" 
			},
			{
				"x": -3.4851506639,
				"y": 0.3361411543,
				"z": 2.2254802071,
				"element": "H" 
			},
			{
				"x": 1.4001564066,
				"y": 0.6555739208,
				"z": 2.3496690685,
				"element": "H" 
			},
			{
				"x": 0.2047770477,
				"y": 1.5081639005,
				"z": 0.34202039,
				"element": "H" 
			},
			{
				"x": 1.3540666224,
				"y": -1.2205704144,
				"z": 6.3339336897,
				"element": "H" 
			}
		],
		 "valence_orbital": [ 
			{
				"type": "occ",
				"energy": -0.31182,
				"method": "rhf"
			},
			{
				"type": "occ",
				"energy": -0.29444,
				"method": "rhf"
			},
			{
				"type": "occ",
				"energy": -0.29041,
				"method": "rhf"
			},
			{
				"type": "occ",
				"energy": -0.2743,
				"method": "rhf"
			},
			{
				"type": "occ",
				"energy": -0.26162,
				"method": "rhf"
			},
			{
				"type": "unocc",
				"energy": -0.08142,
				"method": "rhf"
			},
			{
				"type": "unocc",
				"energy": -0.04661,
				"method": "rhf"
			},
			{
				"type": "unocc",
				"energy": 0.01055,
				"method": "rhf"
			},
			{
				"type": "unocc",
				"energy": 0.03254,
				"method": "rhf"
			},
			{
				"type": "unocc",
				"energy": 0.05055,
				"method": "rhf"
			}
		],
		"cosmo_sigma_profile": { 
			"-0.025": 0.0,
			"-0.024": 0.0,
			"-0.023": 0.0,
			"-0.022": 0.0,
			"-0.021": 0.0,
			"-0.02": 0.224399910559,
			"-0.019": 0.69389441305,
			"-0.018": 1.30265018953,
			"-0.017": 1.128842179,
			"-0.016": 0.810703279212,
			"-0.015": 1.30864732195,
			"-0.014": 1.1185031772,
			"-0.013": 1.79161193824,
			"-0.012": 2.3962873823,
			"-0.011": 2.79048671905,
			"-0.01": 2.18114011634,
			"-0.009": 4.86633345881,
			"-0.008": 4.96851763792,
			"-0.007": 6.13750535116,
			"-0.006": 5.91653739454,
			"-0.005": 7.0060774034,
			"-0.004": 7.62650803054,
			"-0.003": 6.94142811699,
			"-0.002": 10.6009887071,
			"-0.001": 17.9462400317,
			"0.0": 13.841941733,
			"0.001": 7.86414765663,
			"0.002": 7.67041127538,
			"0.003": 7.60699374941,
			"0.004": 10.7480440017,
			"0.005": 9.92913668932,
			"0.006": 5.60989609262,
			"0.007": 3.72779116785,
			"0.008": 4.74308042149,
			"0.009": 5.03326307943,
			"0.01": 6.29900596684,
			"0.011": 6.11333177079,
			"0.012": 4.17684361765,
			"0.013": 1.45691717558,
			"0.014": 0.663071955914,
			"0.015": 0.451807280784,
			"0.016": 0.0,
			"0.017": 0.0,
			"0.018": 0.0,
			"0.019": 0.0,
			"0.02": 0.0,
			"0.021": 0.0,
			"0.022": 0.0,
			"0.023": 0.0,
			"0.024": 0.0,
			"0.025": 0.0
		}
	}
}
