{
	 "smiles": "CC1=NC2=C(N=NC3=C(Cl)C=C(Cl)C=C3)C(N)=NN2C(=C1)C(F)(F)F", 
	 "Tm": 483.15, 
	 "num_atms": 34, 
	 "gaussian": { 
		 "optdone": 1, 
		 "sigma_profile": "yes", 
		 "theory": "DFT", 
		 "functional": "B3LYP", 
		 "basiset": "6-31G**", 
		 "properties": { 
			 "R2extent": 10369.4481, 
			 "electric_dipole_moment_norm": 3.39244833269, 
			 "electric_quadrupole_moment_norm": 14.8814145252, 
			 "total_energy": -2087.24901738, 
			 "HOMO_LUMO_gap": 0.13191, 
			 "cosmo_polarized_energy": -16.0, 
			 "cosmo_cavitation_energy": 44.43, 
			 "cosmo_dispersion_energy": -29.55, 
			 "cosmo_repulsion_energy": 2.2, 
			 "cosmo_total_nonelectrostatic_energy": 17.07, 
			 "SMD_solvation_energy": 5.14 
		},
		"coords": [
			{
				"x": -0.5470898215,
				"y": 0.4763997516,
				"z": 2.2191477789,
				"element": "C" 
			},
			{
				"x": 0.140122525,
				"y": 0.8371773156,
				"z": 0.9307610179,
				"element": "C" 
			},
			{
				"x": -0.364290825,
				"y": 0.3468425144,
				"z": -0.1965964977,
				"element": "N" 
			},
			{
				"x": 0.2342475326,
				"y": 0.6473114416,
				"z": -1.3545121436,
				"element": "C" 
			},
			{
				"x": -0.0358763285,
				"y": 0.3440455311,
				"z": -2.7122878223,
				"element": "C" 
			},
			{
				"x": -1.0013131348,
				"y": -0.2929782177,
				"z": -3.4694053296,
				"element": "N" 
			},
			{
				"x": -1.880029966,
				"y": -1.1164688489,
				"z": -3.101261916,
				"element": "N" 
			},
			{
				"x": -1.9659697845,
				"y": -1.6667621351,
				"z": -1.7907257433,
				"element": "C" 
			},
			{
				"x": -1.040767129,
				"y": -2.5830048301,
				"z": -1.2659751926,
				"element": "C" 
			},
			{
				"x": 0.4225425242,
				"y": -2.9861908153,
				"z": -2.1464947601,
				"element": "Cl" 
			},
			{
				"x": -1.2670465457,
				"y": -3.2221093411,
				"z": -0.0468403719,
				"element": "C" 
			},
			{
				"x": -2.4337653332,
				"y": -2.9405925656,
				"z": 0.6578423778,
				"element": "C" 
			},
			{
				"x": -2.7160340557,
				"y": -3.7350865323,
				"z": 2.2008609758,
				"element": "Cl" 
			},
			{
				"x": -3.3879670424,
				"y": -2.0569705266,
				"z": 0.150151703,
				"element": "C" 
			},
			{
				"x": -3.1537665946,
				"y": -1.4491473226,
				"z": -1.0768985535,
				"element": "C" 
			},
			{
				"x": 0.9726051897,
				"y": 1.0628986222,
				"z": -3.4401871421,
				"element": "C" 
			},
			{
				"x": 1.1033197958,
				"y": 1.0350799453,
				"z": -4.7866796525,
				"element": "N" 
			},
			{
				"x": 1.8192093459,
				"y": 1.741277917,
				"z": -2.6583643238,
				"element": "N" 
			},
			{
				"x": 1.3600949513,
				"y": 1.491601506,
				"z": -1.400077587,
				"element": "N" 
			},
			{
				"x": 1.8852595531,
				"y": 1.9987045812,
				"z": -0.259201692,
				"element": "C" 
			},
			{
				"x": 1.2860594616,
				"y": 1.6748713607,
				"z": 0.9355152982,
				"element": "C" 
			},
			{
				"x": 3.0982263708,
				"y": 2.9010251748,
				"z": -0.3605585232,
				"element": "C" 
			},
			{
				"x": 2.830065465,
				"y": 4.0043100317,
				"z": -1.076093859,
				"element": "F" 
			},
			{
				"x": 3.4771463966,
				"y": 3.2931646365,
				"z": 0.8739799957,
				"element": "F" 
			},
			{
				"x": 4.1362695412,
				"y": 2.2687499264,
				"z": -0.9269250055,
				"element": "F" 
			},
			{
				"x": -0.8959184183,
				"y": 1.3747177966,
				"z": 2.7413041058,
				"element": "H" 
			},
			{
				"x": 0.1404805417,
				"y": -0.0437251504,
				"z": 2.89569928,
				"element": "H" 
			},
			{
				"x": -1.3992863393,
				"y": -0.1718095905,
				"z": 2.0142751988,
				"element": "H" 
			},
			{
				"x": -0.5418896418,
				"y": -3.9280926435,
				"z": 0.3392681654,
				"element": "H" 
			},
			{
				"x": -4.3023839577,
				"y": -1.8643733797,
				"z": 0.6997923928,
				"element": "H" 
			},
			{
				"x": -3.8910827681,
				"y": -0.7793561086,
				"z": -1.5075567213,
				"element": "H" 
			},
			{
				"x": 1.6672353154,
				"y": 1.7458905254,
				"z": -5.2253818116,
				"element": "H" 
			},
			{
				"x": 0.3121504331,
				"y": 0.6614905532,
				"z": -5.2919130301,
				"element": "H" 
			},
			{
				"x": 1.6914427435,
				"y": 2.0688088765,
				"z": 1.8575393887,
				"element": "H" 
			}
		],
		 "valence_orbital": [ 
			{
				"type": "occ",
				"energy": -0.26017,
				"method": "rhf"
			},
			{
				"type": "occ",
				"energy": -0.25061,
				"method": "rhf"
			},
			{
				"type": "occ",
				"energy": -0.24588,
				"method": "rhf"
			},
			{
				"type": "occ",
				"energy": -0.23211,
				"method": "rhf"
			},
			{
				"type": "occ",
				"energy": -0.21246,
				"method": "rhf"
			},
			{
				"type": "unocc",
				"energy": -0.08055,
				"method": "rhf"
			},
			{
				"type": "unocc",
				"energy": -0.06881,
				"method": "rhf"
			},
			{
				"type": "unocc",
				"energy": -0.02187,
				"method": "rhf"
			},
			{
				"type": "unocc",
				"energy": -0.01738,
				"method": "rhf"
			},
			{
				"type": "unocc",
				"energy": -0.00254,
				"method": "rhf"
			}
		],
		"cosmo_sigma_profile": { 
			"-0.025": 0.0,
			"-0.024": 0.0,
			"-0.023": 0.0,
			"-0.022": 0.0,
			"-0.021": 0.0,
			"-0.02": 0.0,
			"-0.019": 0.0,
			"-0.018": 0.0,
			"-0.017": 0.0,
			"-0.016": 0.0,
			"-0.015": 0.297119614995,
			"-0.014": 1.19049067574,
			"-0.013": 1.7551191202,
			"-0.012": 1.74543545059,
			"-0.011": 1.9987585027,
			"-0.01": 2.30859377378,
			"-0.009": 3.00183685798,
			"-0.008": 5.43509208303,
			"-0.007": 9.02870392982,
			"-0.006": 16.3756184608,
			"-0.005": 17.4558772797,
			"-0.004": 20.4060794042,
			"-0.003": 19.0602589564,
			"-0.002": 24.6337469434,
			"-0.001": 30.9546612194,
			"0.0": 25.9068921346,
			"0.001": 39.0369871867,
			"0.002": 46.5359157957,
			"0.003": 26.0119781368,
			"0.004": 25.2511347231,
			"0.005": 12.2615113572,
			"0.006": 5.75055692121,
			"0.007": 5.94902934164,
			"0.008": 4.97394394347,
			"0.009": 3.97467645079,
			"0.01": 3.42079736238,
			"0.011": 2.82423941097,
			"0.012": 1.49211959274,
			"0.013": 1.48777282404,
			"0.014": 0.92383934302,
			"0.015": 0.344201903039,
			"0.016": 0.0,
			"0.017": 0.0,
			"0.018": 0.0,
			"0.019": 0.0,
			"0.02": 0.0,
			"0.021": 0.0,
			"0.022": 0.0,
			"0.023": 0.0,
			"0.024": 0.0,
			"0.025": 0.0
		}
	}
}
