{
	 "smiles": "CCCCCCCCCCCCCCC(C)C", 
	 "Tm": 277.15, 
	 "num_atms": 53, 
	 "gaussian": { 
		 "optdone": 1, 
		 "sigma_profile": "yes", 
		 "theory": "DFT", 
		 "functional": "B3LYP", 
		 "basiset": "6-31G**", 
		 "properties": { 
			 "R2extent": 9664.8884, 
			 "electric_dipole_moment_norm": 0.12723344686, 
			 "electric_quadrupole_moment_norm": 0.915965769011, 
			 "total_energy": -669.559953614, 
			 "HOMO_LUMO_gap": 0.36755, 
			 "cosmo_polarized_energy": -1.16, 
			 "cosmo_cavitation_energy": 50.12, 
			 "cosmo_dispersion_energy": -33.4, 
			 "cosmo_repulsion_energy": 2.74, 
			 "cosmo_total_nonelectrostatic_energy": 19.45, 
			 "SMD_solvation_energy": 6.78 
		},
		"coords": [
			{
				"x": 2.3701249761,
				"y": 4.5290604786,
				"z": -2.8480171699,
				"element": "C" 
			},
			{
				"x": 1.9628953348,
				"y": 3.2270979536,
				"z": -2.1474232846,
				"element": "C" 
			},
			{
				"x": 0.5440537195,
				"y": 3.2361412153,
				"z": -1.5523362373,
				"element": "C" 
			},
			{
				"x": 0.3514179684,
				"y": 4.2126242623,
				"z": -0.3827541054,
				"element": "C" 
			},
			{
				"x": -1.0767310141,
				"y": 4.2450835188,
				"z": 0.1922456743,
				"element": "C" 
			},
			{
				"x": -1.5839836262,
				"y": 2.936040506,
				"z": 0.8241730716,
				"element": "C" 
			},
			{
				"x": -0.781115414,
				"y": 2.4735834954,
				"z": 2.0496401428,
				"element": "C" 
			},
			{
				"x": -1.3851638231,
				"y": 1.2701445018,
				"z": 2.7945765025,
				"element": "C" 
			},
			{
				"x": -1.381249171,
				"y": -0.0419122347,
				"z": 1.9952318,
				"element": "C" 
			},
			{
				"x": -2.0043573725,
				"y": -1.2396551943,
				"z": 2.7348818678,
				"element": "C" 
			},
			{
				"x": -1.2911007719,
				"y": -1.6867530767,
				"z": 4.0244591099,
				"element": "C" 
			},
			{
				"x": 0.1730451756,
				"y": -2.1539072856,
				"z": 3.904239427,
				"element": "C" 
			},
			{
				"x": 0.4150354889,
				"y": -3.4566334173,
				"z": 3.109215232,
				"element": "C" 
			},
			{
				"x": 0.645573271,
				"y": -3.2789263292,
				"z": 1.5993706692,
				"element": "C" 
			},
			{
				"x": 1.0401069999,
				"y": -4.5669160228,
				"z": 0.8483268261,
				"element": "C" 
			},
			{
				"x": -0.0780050199,
				"y": -5.6209738373,
				"z": 0.859441194,
				"element": "C" 
			},
			{
				"x": 1.458053484,
				"y": -4.2430671889,
				"z": -0.5939940334,
				"element": "C" 
			},
			{
				"x": 2.3967434407,
				"y": 5.3768465078,
				"z": -2.1559027505,
				"element": "H" 
			},
			{
				"x": 1.6676818712,
				"y": 4.7800806375,
				"z": -3.6515950558,
				"element": "H" 
			},
			{
				"x": 3.3661880923,
				"y": 4.4407347278,
				"z": -3.2944925632,
				"element": "H" 
			},
			{
				"x": 2.6856908686,
				"y": 2.998991764,
				"z": -1.3517212564,
				"element": "H" 
			},
			{
				"x": 2.0357713482,
				"y": 2.400898289,
				"z": -2.8663495352,
				"element": "H" 
			},
			{
				"x": -0.1789446481,
				"y": 3.4756904168,
				"z": -2.3461651798,
				"element": "H" 
			},
			{
				"x": 0.3023765299,
				"y": 2.2185127591,
				"z": -1.2204879514,
				"element": "H" 
			},
			{
				"x": 1.0693363949,
				"y": 3.9678429691,
				"z": 0.4119969151,
				"element": "H" 
			},
			{
				"x": 0.605169157,
				"y": 5.228343798,
				"z": -0.7106215121,
				"element": "H" 
			},
			{
				"x": -1.1310200947,
				"y": 5.0416239,
				"z": 0.9472058927,
				"element": "H" 
			},
			{
				"x": -1.7698062375,
				"y": 4.5400816774,
				"z": -0.6077320462,
				"element": "H" 
			},
			{
				"x": -2.6302356433,
				"y": 3.0838720353,
				"z": 1.1263873732,
				"element": "H" 
			},
			{
				"x": -1.6026951004,
				"y": 2.1436713204,
				"z": 0.0662123969,
				"element": "H" 
			},
			{
				"x": 0.2474965295,
				"y": 2.2275967677,
				"z": 1.7526595611,
				"element": "H" 
			},
			{
				"x": -0.6988307813,
				"y": 3.3156196034,
				"z": 2.751104088,
				"element": "H" 
			},
			{
				"x": -0.8278817232,
				"y": 1.1282271779,
				"z": 3.7289992356,
				"element": "H" 
			},
			{
				"x": -2.4172304285,
				"y": 1.5090015093,
				"z": 3.0910474037,
				"element": "H" 
			},
			{
				"x": -1.9345712243,
				"y": 0.1012005415,
				"z": 1.0587500314,
				"element": "H" 
			},
			{
				"x": -0.3502385535,
				"y": -0.2788765843,
				"z": 1.6995265798,
				"element": "H" 
			},
			{
				"x": -2.0711854912,
				"y": -2.0880931244,
				"z": 2.0428997133,
				"element": "H" 
			},
			{
				"x": -3.0428506236,
				"y": -0.9879745556,
				"z": 2.9921748714,
				"element": "H" 
			},
			{
				"x": -1.3278257731,
				"y": -0.8678799955,
				"z": 4.7544885444,
				"element": "H" 
			},
			{
				"x": -1.8754330745,
				"y": -2.5032695056,
				"z": 4.4709362953,
				"element": "H" 
			},
			{
				"x": 0.7953888706,
				"y": -1.3504245193,
				"z": 3.4872489414,
				"element": "H" 
			},
			{
				"x": 0.5404885708,
				"y": -2.3056053168,
				"z": 4.927156409,
				"element": "H" 
			},
			{
				"x": -0.4228980102,
				"y": -4.143086097,
				"z": 3.2887499348,
				"element": "H" 
			},
			{
				"x": 1.3023387585,
				"y": -3.9556418117,
				"z": 3.5226997377,
				"element": "H" 
			},
			{
				"x": -0.2460156809,
				"y": -2.8535894599,
				"z": 1.120349897,
				"element": "H" 
			},
			{
				"x": 1.4455576425,
				"y": -2.5381185413,
				"z": 1.4590791232,
				"element": "H" 
			},
			{
				"x": 1.9136908547,
				"y": -4.9966704816,
				"z": 1.3624767512,
				"element": "H" 
			},
			{
				"x": 0.2257116552,
				"y": -6.5204463251,
				"z": 0.312654391,
				"element": "H" 
			},
			{
				"x": -0.9841485607,
				"y": -5.2317215415,
				"z": 0.3781868841,
				"element": "H" 
			},
			{
				"x": -0.3459762747,
				"y": -5.928310913,
				"z": 1.8748107833,
				"element": "H" 
			},
			{
				"x": 2.2858586456,
				"y": -3.5258092579,
				"z": -0.6196732588,
				"element": "H" 
			},
			{
				"x": 1.7784250915,
				"y": -5.1443493267,
				"z": -1.1281335748,
				"element": "H" 
			},
			{
				"x": 0.6225733966,
				"y": -3.8059003897,
				"z": -1.154803757,
				"element": "H" 
			}
		],
		 "valence_orbital": [ 
			{
				"type": "occ",
				"energy": -0.30267,
				"method": "rhf"
			},
			{
				"type": "occ",
				"energy": -0.30109,
				"method": "rhf"
			},
			{
				"type": "occ",
				"energy": -0.29944,
				"method": "rhf"
			},
			{
				"type": "occ",
				"energy": -0.29716,
				"method": "rhf"
			},
			{
				"type": "occ",
				"energy": -0.2892,
				"method": "rhf"
			},
			{
				"type": "unocc",
				"energy": 0.07835,
				"method": "rhf"
			},
			{
				"type": "unocc",
				"energy": 0.08359,
				"method": "rhf"
			},
			{
				"type": "unocc",
				"energy": 0.09159,
				"method": "rhf"
			},
			{
				"type": "unocc",
				"energy": 0.10495,
				"method": "rhf"
			},
			{
				"type": "unocc",
				"energy": 0.10606,
				"method": "rhf"
			}
		],
		"cosmo_sigma_profile": { 
			"-0.025": 0.0,
			"-0.024": 0.0,
			"-0.023": 0.0,
			"-0.022": 0.0,
			"-0.021": 0.0,
			"-0.02": 0.0,
			"-0.019": 0.0,
			"-0.018": 0.0,
			"-0.017": 0.0,
			"-0.016": 0.0,
			"-0.015": 0.0,
			"-0.014": 0.0,
			"-0.013": 0.0,
			"-0.012": 0.0,
			"-0.011": 0.0,
			"-0.01": 0.0,
			"-0.009": 0.0,
			"-0.008": 0.0,
			"-0.007": 0.0,
			"-0.006": 0.0,
			"-0.005": 0.0,
			"-0.004": 0.0,
			"-0.003": 3.17769013516,
			"-0.002": 43.2708890689,
			"-0.001": 92.7425116603,
			"0.0": 102.236699989,
			"0.001": 93.5846477608,
			"0.002": 45.2528952336,
			"0.003": 1.66466388749,
			"0.004": 0.0,
			"0.005": 0.0,
			"0.006": 0.0,
			"0.007": 0.0,
			"0.008": 0.0,
			"0.009": 0.0,
			"0.01": 0.0,
			"0.011": 0.0,
			"0.012": 0.0,
			"0.013": 0.0,
			"0.014": 0.0,
			"0.015": 0.0,
			"0.016": 0.0,
			"0.017": 0.0,
			"0.018": 0.0,
			"0.019": 0.0,
			"0.02": 0.0,
			"0.021": 0.0,
			"0.022": 0.0,
			"0.023": 0.0,
			"0.024": 0.0,
			"0.025": 0.0
		}
	}
}
