{
	 "smiles": "NC1=C(C=NO1)C1=NC=CC=C1", 
	 "Tm": 407.15, 
	 "num_atms": 19, 
	 "gaussian": { 
		 "optdone": 1, 
		 "sigma_profile": "yes", 
		 "theory": "DFT", 
		 "functional": "B3LYP", 
		 "basiset": "6-31G**", 
		 "properties": { 
			 "R2extent": 2255.3075, 
			 "electric_dipole_moment_norm": 4.92111485235, 
			 "electric_quadrupole_moment_norm": 13.1534986289, 
			 "total_energy": -548.495546439, 
			 "HOMO_LUMO_gap": 0.18124, 
			 "cosmo_polarized_energy": -15.18, 
			 "cosmo_cavitation_energy": 23.72, 
			 "cosmo_dispersion_energy": -17.82, 
			 "cosmo_repulsion_energy": 1.41, 
			 "cosmo_total_nonelectrostatic_energy": 7.3, 
			 "SMD_solvation_energy": 3.04 
		},
		"coords": [
			{
				"x": -2.2992456295,
				"y": 2.2673230245,
				"z": -0.9821981567,
				"element": "N" 
			},
			{
				"x": -1.7943130736,
				"y": 1.8887277647,
				"z": 0.2380369091,
				"element": "C" 
			},
			{
				"x": -0.8633460587,
				"y": 0.9437070589,
				"z": 0.6258717247,
				"element": "C" 
			},
			{
				"x": -0.8373514731,
				"y": 1.1109723939,
				"z": 2.0429497554,
				"element": "C" 
			},
			{
				"x": -1.6280795195,
				"y": 2.055292417,
				"z": 2.4798722247,
				"element": "N" 
			},
			{
				"x": -2.2590132627,
				"y": 2.5579402503,
				"z": 1.302516324,
				"element": "O" 
			},
			{
				"x": -0.0826422257,
				"y": -0.0086939832,
				"z": -0.1591477054,
				"element": "C" 
			},
			{
				"x": 0.4833277311,
				"y": -1.018638566,
				"z": 0.5363151593,
				"element": "N" 
			},
			{
				"x": 1.2022961842,
				"y": -1.9215111603,
				"z": -0.1337917969,
				"element": "C" 
			},
			{
				"x": 1.401551745,
				"y": -1.893462413,
				"z": -1.5154767061,
				"element": "C" 
			},
			{
				"x": 0.83534125,
				"y": -0.8393307665,
				"z": -2.23158749,
				"element": "C" 
			},
			{
				"x": 0.090805184,
				"y": 0.1193189269,
				"z": -1.5510941149,
				"element": "C" 
			},
			{
				"x": -3.1328383661,
				"y": 2.8380490828,
				"z": -0.9189781755,
				"element": "H" 
			},
			{
				"x": -2.3806719786,
				"y": 1.519370982,
				"z": -1.6579760263,
				"element": "H" 
			},
			{
				"x": -0.2338049001,
				"y": 0.5515502081,
				"z": 2.7454599504,
				"element": "H" 
			},
			{
				"x": 1.6441116186,
				"y": -2.7154106246,
				"z": 0.4668921851,
				"element": "H" 
			},
			{
				"x": 1.9892677547,
				"y": -2.662922816,
				"z": -2.0050874387,
				"element": "H" 
			},
			{
				"x": 0.9817212295,
				"y": -0.7559168138,
				"z": -3.3049463123,
				"element": "H" 
			},
			{
				"x": -0.3102162093,
				"y": 0.9781350342,
				"z": -2.0793303097,
				"element": "H" 
			}
		],
		 "valence_orbital": [ 
			{
				"type": "occ",
				"energy": -0.30045,
				"method": "rhf"
			},
			{
				"type": "occ",
				"energy": -0.28748,
				"method": "rhf"
			},
			{
				"type": "occ",
				"energy": -0.26808,
				"method": "rhf"
			},
			{
				"type": "occ",
				"energy": -0.25725,
				"method": "rhf"
			},
			{
				"type": "occ",
				"energy": -0.21311,
				"method": "rhf"
			},
			{
				"type": "unocc",
				"energy": -0.03187,
				"method": "rhf"
			},
			{
				"type": "unocc",
				"energy": -0.02171,
				"method": "rhf"
			},
			{
				"type": "unocc",
				"energy": 0.00917,
				"method": "rhf"
			},
			{
				"type": "unocc",
				"energy": 0.05626,
				"method": "rhf"
			},
			{
				"type": "unocc",
				"energy": 0.08832,
				"method": "rhf"
			}
		],
		"cosmo_sigma_profile": { 
			"-0.025": 0.0,
			"-0.024": 0.0,
			"-0.023": 0.0,
			"-0.022": 0.0,
			"-0.021": 0.0,
			"-0.02": 0.0,
			"-0.019": 0.0,
			"-0.018": 0.0,
			"-0.017": 0.0,
			"-0.016": 0.000408060316849,
			"-0.015": 0.861601278425,
			"-0.014": 2.69412204598,
			"-0.013": 2.38867400233,
			"-0.012": 2.9966642565,
			"-0.011": 3.0167934047,
			"-0.01": 1.99141126666,
			"-0.009": 2.73608356195,
			"-0.008": 3.53261381572,
			"-0.007": 6.1695225277,
			"-0.006": 10.0104107428,
			"-0.005": 12.5049302114,
			"-0.004": 8.53271223017,
			"-0.003": 8.14724853629,
			"-0.002": 8.19443961679,
			"-0.001": 8.82762591538,
			"0.0": 11.6109302189,
			"0.001": 13.0812350872,
			"0.002": 19.1299688004,
			"0.003": 16.9122562984,
			"0.004": 8.38394388836,
			"0.005": 5.63224674837,
			"0.006": 4.01759141872,
			"0.007": 5.18453012315,
			"0.008": 7.34866062703,
			"0.009": 4.4453589478,
			"0.01": 3.13546240095,
			"0.011": 2.5273822016,
			"0.012": 2.58831541502,
			"0.013": 2.22511886776,
			"0.014": 1.69230014668,
			"0.015": 0.346717626479,
			"0.016": 0.0,
			"0.017": 0.0,
			"0.018": 0.0,
			"0.019": 0.0,
			"0.02": 0.0,
			"0.021": 0.0,
			"0.022": 0.0,
			"0.023": 0.0,
			"0.024": 0.0,
			"0.025": 0.0
		}
	}
}
