{
	 "smiles": "CC1=C(C=CC(=N1)C(F)(F)F)C(O)=O", 
	 "Tm": 413.15, 
	 "num_atms": 20, 
	 "gaussian": { 
		 "optdone": 1, 
		 "sigma_profile": "yes", 
		 "theory": "DFT", 
		 "functional": "B3LYP", 
		 "basiset": "6-31G**", 
		 "properties": { 
			 "R2extent": 3424.2727, 
			 "electric_dipole_moment_norm": 3.60485447556, 
			 "electric_quadrupole_moment_norm": 7.0731935404, 
			 "total_energy": -813.210560916, 
			 "HOMO_LUMO_gap": 0.20086, 
			 "cosmo_polarized_energy": -10.03, 
			 "cosmo_cavitation_energy": 26.38, 
			 "cosmo_dispersion_energy": -18.92, 
			 "cosmo_repulsion_energy": 1.43, 
			 "cosmo_total_nonelectrostatic_energy": 8.89, 
			 "SMD_solvation_energy": 5.86 
		},
		"coords": [
			{
				"x": -1.3744220476,
				"y": -0.002884273,
				"z": 1.4024316256,
				"element": "C" 
			},
			{
				"x": -0.4484675828,
				"y": -0.1009578863,
				"z": 0.2195210971,
				"element": "C" 
			},
			{
				"x": -0.116657043,
				"y": -1.3194276492,
				"z": -0.4303799817,
				"element": "C" 
			},
			{
				"x": 0.7574497777,
				"y": -1.2823813995,
				"z": -1.5225539135,
				"element": "C" 
			},
			{
				"x": 1.2821383487,
				"y": -0.0674144242,
				"z": -1.9500985786,
				"element": "C" 
			},
			{
				"x": 0.8970381628,
				"y": 1.070327883,
				"z": -1.2481575003,
				"element": "C" 
			},
			{
				"x": 0.0657992645,
				"y": 1.061896329,
				"z": -0.2046226368,
				"element": "N" 
			},
			{
				"x": 1.4128523079,
				"y": 2.4452172622,
				"z": -1.6330477587,
				"element": "C" 
			},
			{
				"x": 0.4024968294,
				"y": 3.2701269223,
				"z": -1.9616387349,
				"element": "F" 
			},
			{
				"x": 2.246822421,
				"y": 2.3757147157,
				"z": -2.6959866509,
				"element": "F" 
			},
			{
				"x": 2.0918692844,
				"y": 3.0118720747,
				"z": -0.6194017123,
				"element": "F" 
			},
			{
				"x": -0.6766654135,
				"y": -2.6219240837,
				"z": 0.0255187678,
				"element": "C" 
			},
			{
				"x": -0.2384369076,
				"y": -3.6649690804,
				"z": -0.7251811116,
				"element": "O" 
			},
			{
				"x": -1.4407668282,
				"y": -2.7844524211,
				"z": 0.9558422465,
				"element": "O" 
			},
			{
				"x": -2.3666000326,
				"y": -0.3957396671,
				"z": 1.1641213351,
				"element": "H" 
			},
			{
				"x": -1.4489278316,
				"y": 1.0449448622,
				"z": 1.6950026298,
				"element": "H" 
			},
			{
				"x": -1.0102591275,
				"y": -0.6003162742,
				"z": 2.242701484,
				"element": "H" 
			},
			{
				"x": 1.0186853803,
				"y": -2.2047481326,
				"z": -2.0273491454,
				"element": "H" 
			},
			{
				"x": 1.960664169,
				"y": -0.0034963271,
				"z": -2.7912909012,
				"element": "H" 
			},
			{
				"x": -0.6584131311,
				"y": -4.4551884308,
				"z": -0.3476305601,
				"element": "H" 
			}
		],
		 "valence_orbital": [ 
			{
				"type": "occ",
				"energy": -0.33538,
				"method": "rhf"
			},
			{
				"type": "occ",
				"energy": -0.30928,
				"method": "rhf"
			},
			{
				"type": "occ",
				"energy": -0.29179,
				"method": "rhf"
			},
			{
				"type": "occ",
				"energy": -0.28135,
				"method": "rhf"
			},
			{
				"type": "occ",
				"energy": -0.27825,
				"method": "rhf"
			},
			{
				"type": "unocc",
				"energy": -0.07739,
				"method": "rhf"
			},
			{
				"type": "unocc",
				"energy": -0.03979,
				"method": "rhf"
			},
			{
				"type": "unocc",
				"energy": 0.02546,
				"method": "rhf"
			},
			{
				"type": "unocc",
				"energy": 0.06607,
				"method": "rhf"
			},
			{
				"type": "unocc",
				"energy": 0.10436,
				"method": "rhf"
			}
		],
		"cosmo_sigma_profile": { 
			"-0.025": 0.0,
			"-0.024": 0.0,
			"-0.023": 0.0,
			"-0.022": 0.0,
			"-0.021": 0.0,
			"-0.02": 0.0,
			"-0.019": 0.359838376452,
			"-0.018": 0.691779301639,
			"-0.017": 0.829911887914,
			"-0.016": 0.941433618955,
			"-0.015": 1.21738794117,
			"-0.014": 0.320563254453,
			"-0.013": 0.617033253089,
			"-0.012": 0.49592438351,
			"-0.011": 1.07789451856,
			"-0.01": 0.391964758337,
			"-0.009": 0.574705258749,
			"-0.008": 3.59987927513,
			"-0.007": 4.83597198596,
			"-0.006": 3.1647653818,
			"-0.005": 5.31970515768,
			"-0.004": 13.6684978357,
			"-0.003": 16.6944702297,
			"-0.002": 20.4788735772,
			"-0.001": 22.8713245003,
			"0.0": 17.7916692184,
			"0.001": 11.7631855615,
			"0.002": 25.8259293996,
			"0.003": 22.7219875134,
			"0.004": 6.8085013727,
			"0.005": 5.30763830944,
			"0.006": 5.12740287916,
			"0.007": 3.4768370658,
			"0.008": 3.19942611483,
			"0.009": 2.45454660263,
			"0.01": 2.91535576945,
			"0.011": 4.51916120948,
			"0.012": 1.33046567022,
			"0.013": 0.0,
			"0.014": 0.0,
			"0.015": 0.0,
			"0.016": 0.0,
			"0.017": 0.0,
			"0.018": 0.0,
			"0.019": 0.0,
			"0.02": 0.0,
			"0.021": 0.0,
			"0.022": 0.0,
			"0.023": 0.0,
			"0.024": 0.0,
			"0.025": 0.0
		}
	}
}
