{
	 "smiles": "C1CNC2=C(N1)C=CN=C2", 
	 "Tm": 409.15, 
	 "num_atms": 19, 
	 "gaussian": { 
		 "optdone": 1, 
		 "sigma_profile": "yes", 
		 "theory": "DFT", 
		 "functional": "B3LYP", 
		 "basiset": "6-31G**", 
		 "properties": { 
			 "R2extent": 1541.0638, 
			 "electric_dipole_moment_norm": 4.56261720507, 
			 "electric_quadrupole_moment_norm": 11.2616645905, 
			 "total_energy": -436.417078832, 
			 "HOMO_LUMO_gap": 0.19334, 
			 "cosmo_polarized_energy": -13.26, 
			 "cosmo_cavitation_energy": 21.43, 
			 "cosmo_dispersion_energy": -16.72, 
			 "cosmo_repulsion_energy": 1.34, 
			 "cosmo_total_nonelectrostatic_energy": 6.05, 
			 "SMD_solvation_energy": 0.0 
		},
		"coords": [
			{
				"x": 1.8783808599,
				"y": -0.7137665045,
				"z": 0.8982886976,
				"element": "C" 
			},
			{
				"x": 0.8630084002,
				"y": -1.847996993,
				"z": 0.7389215453,
				"element": "C" 
			},
			{
				"x": -0.407846287,
				"y": -1.27101034,
				"z": 0.3192875404,
				"element": "N" 
			},
			{
				"x": -0.3724577035,
				"y": -0.383596673,
				"z": -0.7671642648,
				"element": "C" 
			},
			{
				"x": 0.8323089606,
				"y": 0.2919883782,
				"z": -1.0780409643,
				"element": "C" 
			},
			{
				"x": 1.9902769982,
				"y": -0.0094184773,
				"z": -0.3716033353,
				"element": "N" 
			},
			{
				"x": 0.8029425183,
				"y": 1.2139596092,
				"z": -2.1295745459,
				"element": "C" 
			},
			{
				"x": -0.38739452,
				"y": 1.4238029611,
				"z": -2.8243792932,
				"element": "C" 
			},
			{
				"x": -1.5306195652,
				"y": 0.7876952723,
				"z": -2.5465977256,
				"element": "N" 
			},
			{
				"x": -1.4999239941,
				"y": -0.0935225401,
				"z": -1.538670704,
				"element": "C" 
			},
			{
				"x": 2.8578483452,
				"y": -1.1271036818,
				"z": 1.1604362611,
				"element": "H" 
			},
			{
				"x": 1.5535295309,
				"y": -0.0565017452,
				"z": 1.7195270235,
				"element": "H" 
			},
			{
				"x": 0.7226371271,
				"y": -2.3537965177,
				"z": 1.6994439247,
				"element": "H" 
			},
			{
				"x": 1.2608547772,
				"y": -2.5827428613,
				"z": 0.0202260545,
				"element": "H" 
			},
			{
				"x": -1.1754305116,
				"y": -1.9293725427,
				"z": 0.2829391476,
				"element": "H" 
			},
			{
				"x": 2.7294170886,
				"y": 0.6760680598,
				"z": -0.4368600584,
				"element": "H" 
			},
			{
				"x": 1.7047076605,
				"y": 1.7552049647,
				"z": -2.4050427639,
				"element": "H" 
			},
			{
				"x": -0.4168771445,
				"y": 2.1399379749,
				"z": -3.6436107731,
				"element": "H" 
			},
			{
				"x": -2.436362541,
				"y": -0.6069283435,
				"z": -1.3140257663,
				"element": "H" 
			}
		],
		 "valence_orbital": [ 
			{
				"type": "occ",
				"energy": -0.31642,
				"method": "rhf"
			},
			{
				"type": "occ",
				"energy": -0.29492,
				"method": "rhf"
			},
			{
				"type": "occ",
				"energy": -0.2345,
				"method": "rhf"
			},
			{
				"type": "occ",
				"energy": -0.2238,
				"method": "rhf"
			},
			{
				"type": "occ",
				"energy": -0.18553,
				"method": "rhf"
			},
			{
				"type": "unocc",
				"energy": 0.00781,
				"method": "rhf"
			},
			{
				"type": "unocc",
				"energy": 0.01928,
				"method": "rhf"
			},
			{
				"type": "unocc",
				"energy": 0.07226,
				"method": "rhf"
			},
			{
				"type": "unocc",
				"energy": 0.09587,
				"method": "rhf"
			},
			{
				"type": "unocc",
				"energy": 0.11283,
				"method": "rhf"
			}
		],
		"cosmo_sigma_profile": { 
			"-0.025": 0.0,
			"-0.024": 0.0,
			"-0.023": 0.0,
			"-0.022": 0.0,
			"-0.021": 0.0,
			"-0.02": 0.0,
			"-0.019": 0.0,
			"-0.018": 0.0,
			"-0.017": 0.0,
			"-0.016": 0.0,
			"-0.015": 0.0,
			"-0.014": 0.0,
			"-0.013": 1.14060887275,
			"-0.012": 2.68925069249,
			"-0.011": 2.84513852539,
			"-0.01": 2.8107167176,
			"-0.009": 3.05449123987,
			"-0.008": 3.15556651571,
			"-0.007": 3.05988942351,
			"-0.006": 5.56084687475,
			"-0.005": 12.1839935816,
			"-0.004": 14.9640992365,
			"-0.003": 18.5324788165,
			"-0.002": 14.2763566613,
			"-0.001": 7.8494653888,
			"0.0": 6.42869221697,
			"0.001": 6.27458196276,
			"0.002": 6.88340892489,
			"0.003": 6.86067174175,
			"0.004": 9.83697406211,
			"0.005": 11.6970921938,
			"0.006": 5.98935653603,
			"0.007": 5.01114056391,
			"0.008": 2.88607569175,
			"0.009": 2.17720343245,
			"0.01": 3.08299923817,
			"0.011": 2.18541173254,
			"0.012": 1.05987824997,
			"0.013": 1.56221171578,
			"0.014": 1.39158305023,
			"0.015": 1.03881506861,
			"0.016": 0.699658882915,
			"0.017": 1.17568542121,
			"0.018": 0.785600042418,
			"0.019": 0.174695474961,
			"0.02": 0.0,
			"0.021": 0.0,
			"0.022": 0.0,
			"0.023": 0.0,
			"0.024": 0.0,
			"0.025": 0.0
		}
	}
}
