{
	 "smiles": "CC(OC1=CC=C(OC2=CN=C3C=C(Cl)C=CC3=N2)C=C1)C(=O)OCCON=C(C)C", 
	 "Tm": 339.45, 
	 "num_atms": 53, 
	 "gaussian": { 
		 "optdone": 1, 
		 "sigma_profile": "yes", 
		 "theory": "DFT", 
		 "functional": "B3LYP", 
		 "basiset": "6-31G**", 
		 "properties": { 
			 "R2extent": 23560.2971, 
			 "electric_dipole_moment_norm": 2.74786040766, 
			 "electric_quadrupole_moment_norm": 26.8221915937, 
			 "total_energy": -1852.10646966, 
			 "HOMO_LUMO_gap": 0.15677, 
			 "cosmo_polarized_energy": -18.69, 
			 "cosmo_cavitation_energy": 61.07, 
			 "cosmo_dispersion_energy": -40.51, 
			 "cosmo_repulsion_energy": 3.08, 
			 "cosmo_total_nonelectrostatic_energy": 23.64, 
			 "SMD_solvation_energy": 8.07 
		},
		"coords": [
			{
				"x": -0.9100023879,
				"y": -3.8994983631,
				"z": 1.4852522136,
				"element": "C" 
			},
			{
				"x": -1.497196018,
				"y": -2.652897379,
				"z": 2.1381506393,
				"element": "C" 
			},
			{
				"x": -0.5184240684,
				"y": -1.6874101169,
				"z": 2.5475548423,
				"element": "O" 
			},
			{
				"x": 0.3151783273,
				"y": -1.1464645701,
				"z": 1.5826088396,
				"element": "C" 
			},
			{
				"x": -0.0530301025,
				"y": 0.0179568332,
				"z": 0.9014315986,
				"element": "C" 
			},
			{
				"x": 0.8309896569,
				"y": 0.5877335356,
				"z": -0.0165494903,
				"element": "C" 
			},
			{
				"x": 2.0742680319,
				"y": 0.0023412849,
				"z": -0.2343163297,
				"element": "C" 
			},
			{
				"x": 2.9601026013,
				"y": 0.6670730361,
				"z": -1.0884269625,
				"element": "O" 
			},
			{
				"x": 3.39638549,
				"y": 0.0696912042,
				"z": -2.2263192283,
				"element": "C" 
			},
			{
				"x": 4.3519213841,
				"y": 0.8338599258,
				"z": -2.9762824335,
				"element": "C" 
			},
			{
				"x": 4.8524908541,
				"y": 0.3950464329,
				"z": -4.1010119548,
				"element": "N" 
			},
			{
				"x": 4.4227573293,
				"y": -0.8332686636,
				"z": -4.5339878689,
				"element": "C" 
			},
			{
				"x": 4.9338021135,
				"y": -1.3534615224,
				"z": -5.7462307724,
				"element": "C" 
			},
			{
				"x": 4.5006042922,
				"y": -2.5870509982,
				"z": -6.1796793859,
				"element": "C" 
			},
			{
				"x": 5.1212018515,
				"y": -3.252611414,
				"z": -7.6820219671,
				"element": "Cl" 
			},
			{
				"x": 3.5592685769,
				"y": -3.3435167499,
				"z": -5.4430359857,
				"element": "C" 
			},
			{
				"x": 3.0552475589,
				"y": -2.846844975,
				"z": -4.2599328469,
				"element": "C" 
			},
			{
				"x": 3.4737904874,
				"y": -1.5835832351,
				"z": -3.7780205659,
				"element": "C" 
			},
			{
				"x": 2.965034036,
				"y": -1.1015324845,
				"z": -2.6031622118,
				"element": "N" 
			},
			{
				"x": 2.4620504579,
				"y": -1.1423312924,
				"z": 0.4595484993,
				"element": "C" 
			},
			{
				"x": 1.5760939819,
				"y": -1.7155785649,
				"z": 1.3689186536,
				"element": "C" 
			},
			{
				"x": -2.6159060897,
				"y": -2.0481275724,
				"z": 1.2704550426,
				"element": "C" 
			},
			{
				"x": -3.117515669,
				"y": -2.6042261288,
				"z": 0.3174365451,
				"element": "O" 
			},
			{
				"x": -3.0203480737,
				"y": -0.8533610572,
				"z": 1.7405644144,
				"element": "O" 
			},
			{
				"x": -4.0973032746,
				"y": -0.2259253935,
				"z": 1.0132979538,
				"element": "C" 
			},
			{
				"x": -4.3461047804,
				"y": 1.1336565133,
				"z": 1.6230517673,
				"element": "C" 
			},
			{
				"x": -3.2594465213,
				"y": 1.9866051165,
				"z": 1.2733031564,
				"element": "O" 
			},
			{
				"x": -3.4180682171,
				"y": 3.2102185735,
				"z": 1.9593216805,
				"element": "N" 
			},
			{
				"x": -2.5383140344,
				"y": 4.0744401851,
				"z": 1.6062402819,
				"element": "C" 
			},
			{
				"x": -2.6020961138,
				"y": 5.4043155435,
				"z": 2.3058815298,
				"element": "C" 
			},
			{
				"x": -1.464845036,
				"y": 3.8393281432,
				"z": 0.5767013624,
				"element": "C" 
			},
			{
				"x": -0.4294281241,
				"y": -3.6635402175,
				"z": 0.5331533995,
				"element": "H" 
			},
			{
				"x": -0.1750569049,
				"y": -4.3549647228,
				"z": 2.1539194167,
				"element": "H" 
			},
			{
				"x": -1.7057080576,
				"y": -4.6205127418,
				"z": 1.2867760147,
				"element": "H" 
			},
			{
				"x": -1.9773758786,
				"y": -2.9303450024,
				"z": 3.0847457678,
				"element": "H" 
			},
			{
				"x": -1.0135831061,
				"y": 0.4774049336,
				"z": 1.1046889876,
				"element": "H" 
			},
			{
				"x": 0.5679988984,
				"y": 1.49039571,
				"z": -0.5579581019,
				"element": "H" 
			},
			{
				"x": 4.6700690518,
				"y": 1.8045422893,
				"z": -2.6018174,
				"element": "H" 
			},
			{
				"x": 5.6539464257,
				"y": -0.7670053034,
				"z": -6.3045389637,
				"element": "H" 
			},
			{
				"x": 3.2427038595,
				"y": -4.3100064217,
				"z": -5.8191626483,
				"element": "H" 
			},
			{
				"x": 2.3312968232,
				"y": -3.4057302132,
				"z": -3.6763955905,
				"element": "H" 
			},
			{
				"x": 3.4413539276,
				"y": -1.5756455992,
				"z": 0.2907176412,
				"element": "H" 
			},
			{
				"x": 1.859335783,
				"y": -2.5980647132,
				"z": 1.9322701824,
				"element": "H" 
			},
			{
				"x": -3.828043461,
				"y": -0.1478158395,
				"z": -0.043759069,
				"element": "H" 
			},
			{
				"x": -4.995377397,
				"y": -0.8476286834,
				"z": 1.0896004978,
				"element": "H" 
			},
			{
				"x": -5.2882474345,
				"y": 1.5378314376,
				"z": 1.2277130905,
				"element": "H" 
			},
			{
				"x": -4.4326185615,
				"y": 1.0602936217,
				"z": 2.7129262634,
				"element": "H" 
			},
			{
				"x": -3.4130549713,
				"y": 5.4155742955,
				"z": 3.0362169591,
				"element": "H" 
			},
			{
				"x": -1.6564009158,
				"y": 5.6134920177,
				"z": 2.8209871859,
				"element": "H" 
			},
			{
				"x": -2.758842526,
				"y": 6.2141731874,
				"z": 1.5830534536,
				"element": "H" 
			},
			{
				"x": -1.086610085,
				"y": 4.7867162427,
				"z": 0.1843460308,
				"element": "H" 
			},
			{
				"x": -1.8446241945,
				"y": 3.2266137284,
				"z": -0.2440295131,
				"element": "H" 
			},
			{
				"x": -0.6218197957,
				"y": 3.2990461475,
				"z": 1.0247053789,
				"element": "H" 
			}
		],
		 "valence_orbital": [ 
			{
				"type": "occ",
				"energy": -0.26111,
				"method": "rhf"
			},
			{
				"type": "occ",
				"energy": -0.25761,
				"method": "rhf"
			},
			{
				"type": "occ",
				"energy": -0.24479,
				"method": "rhf"
			},
			{
				"type": "occ",
				"energy": -0.24395,
				"method": "rhf"
			},
			{
				"type": "occ",
				"energy": -0.23085,
				"method": "rhf"
			},
			{
				"type": "unocc",
				"energy": -0.07408,
				"method": "rhf"
			},
			{
				"type": "unocc",
				"energy": -0.02834,
				"method": "rhf"
			},
			{
				"type": "unocc",
				"energy": -0.01521,
				"method": "rhf"
			},
			{
				"type": "unocc",
				"energy": -0.00473,
				"method": "rhf"
			},
			{
				"type": "unocc",
				"energy": -0.00114,
				"method": "rhf"
			}
		],
		"cosmo_sigma_profile": { 
			"-0.025": 0.0,
			"-0.024": 0.0,
			"-0.023": 0.0,
			"-0.022": 0.0,
			"-0.021": 0.0,
			"-0.02": 0.0,
			"-0.019": 0.0,
			"-0.018": 0.0,
			"-0.017": 0.0,
			"-0.016": 0.0,
			"-0.015": 0.0,
			"-0.014": 0.0,
			"-0.013": 0.0,
			"-0.012": 0.0,
			"-0.011": 0.0,
			"-0.01": 0.0,
			"-0.009": 0.634014212387,
			"-0.008": 6.38351475824,
			"-0.007": 13.5219502666,
			"-0.006": 21.7993380691,
			"-0.005": 32.4303459288,
			"-0.004": 41.8132612472,
			"-0.003": 45.5187017004,
			"-0.002": 41.7399143876,
			"-0.001": 41.7965788224,
			"0.0": 43.0101901598,
			"0.001": 38.8847397294,
			"0.002": 33.7806687438,
			"0.003": 30.0714534271,
			"0.004": 25.652175505,
			"0.005": 15.4011312477,
			"0.006": 10.8535500329,
			"0.007": 9.74916261467,
			"0.008": 7.44012127356,
			"0.009": 5.64309154661,
			"0.01": 7.53552042284,
			"0.011": 8.76603636923,
			"0.012": 4.39593408323,
			"0.013": 1.06029339626,
			"0.014": 0.776070088153,
			"0.015": 0.0,
			"0.016": 0.0,
			"0.017": 0.0,
			"0.018": 0.0,
			"0.019": 0.0,
			"0.02": 0.0,
			"0.021": 0.0,
			"0.022": 0.0,
			"0.023": 0.0,
			"0.024": 0.0,
			"0.025": 0.0
		}
	}
}
