{
	 "smiles": "FC(Cl)CCl", 
	 "Tm": 213.15, 
	 "num_atms": 8, 
	 "gaussian": { 
		 "optdone": 1, 
		 "sigma_profile": "yes", 
		 "theory": "DFT", 
		 "functional": "B3LYP", 
		 "basiset": "6-31G**", 
		 "properties": { 
			 "R2extent": 1321.6776, 
			 "electric_dipole_moment_norm": 1.32717428396, 
			 "electric_quadrupole_moment_norm": 5.53142746676, 
			 "total_energy": -1098.2404964, 
			 "HOMO_LUMO_gap": 0.29879, 
			 "cosmo_polarized_energy": -5.45, 
			 "cosmo_cavitation_energy": 15.59, 
			 "cosmo_dispersion_energy": -11.87, 
			 "cosmo_repulsion_energy": 1.05, 
			 "cosmo_total_nonelectrostatic_energy": 4.78, 
			 "SMD_solvation_energy": 2.54 
		},
		"coords": [
			{
				"x": 0.6272957589,
				"y": -0.0209264147,
				"z": -3.0529705384,
				"element": "F" 
			},
			{
				"x": 0.1248213408,
				"y": 0.4982021373,
				"z": -1.9025004289,
				"element": "C" 
			},
			{
				"x": -1.6502578176,
				"y": 0.8090272519,
				"z": -2.1250753789,
				"element": "Cl" 
			},
			{
				"x": 0.2933974285,
				"y": -0.4820394445,
				"z": -0.7572676406,
				"element": "C" 
			},
			{
				"x": 2.046181403,
				"y": -0.7334340406,
				"z": -0.4019308027,
				"element": "Cl" 
			},
			{
				"x": 0.5882998355,
				"y": 1.467003924,
				"z": -1.7076537645,
				"element": "H" 
			},
			{
				"x": -0.1370676177,
				"y": -1.4464933571,
				"z": -1.0272787826,
				"element": "H" 
			},
			{
				"x": -0.1766703315,
				"y": -0.0990400563,
				"z": 0.1474773366,
				"element": "H" 
			}
		],
		 "valence_orbital": [ 
			{
				"type": "occ",
				"energy": -0.3791,
				"method": "rhf"
			},
			{
				"type": "occ",
				"energy": -0.33372,
				"method": "rhf"
			},
			{
				"type": "occ",
				"energy": -0.32754,
				"method": "rhf"
			},
			{
				"type": "occ",
				"energy": -0.31488,
				"method": "rhf"
			},
			{
				"type": "occ",
				"energy": -0.31414,
				"method": "rhf"
			},
			{
				"type": "unocc",
				"energy": -0.01535,
				"method": "rhf"
			},
			{
				"type": "unocc",
				"energy": 0.02422,
				"method": "rhf"
			},
			{
				"type": "unocc",
				"energy": 0.0888,
				"method": "rhf"
			},
			{
				"type": "unocc",
				"energy": 0.10885,
				"method": "rhf"
			},
			{
				"type": "unocc",
				"energy": 0.12589,
				"method": "rhf"
			}
		],
		"cosmo_sigma_profile": { 
			"-0.025": 0.0,
			"-0.024": 0.0,
			"-0.023": 0.0,
			"-0.022": 0.0,
			"-0.021": 0.0,
			"-0.02": 0.0,
			"-0.019": 0.0,
			"-0.018": 0.0,
			"-0.017": 0.0,
			"-0.016": 0.0,
			"-0.015": 0.0,
			"-0.014": 0.0,
			"-0.013": 0.0,
			"-0.012": 0.0,
			"-0.011": 0.461118193062,
			"-0.01": 3.64636789547,
			"-0.009": 6.2049828891,
			"-0.008": 5.03701100191,
			"-0.007": 5.12168312945,
			"-0.006": 4.66483019153,
			"-0.005": 4.37494341557,
			"-0.004": 3.77938751657,
			"-0.003": 3.47226684631,
			"-0.002": 4.56818441525,
			"-0.001": 6.34438046922,
			"0.0": 6.23422373019,
			"0.001": 8.20939681421,
			"0.002": 8.80339208629,
			"0.003": 14.5577788732,
			"0.004": 24.742092067,
			"0.005": 14.8426653917,
			"0.006": 3.27750241491,
			"0.007": 0.0,
			"0.008": 0.0,
			"0.009": 0.0,
			"0.01": 0.0,
			"0.011": 0.0,
			"0.012": 0.0,
			"0.013": 0.0,
			"0.014": 0.0,
			"0.015": 0.0,
			"0.016": 0.0,
			"0.017": 0.0,
			"0.018": 0.0,
			"0.019": 0.0,
			"0.02": 0.0,
			"0.021": 0.0,
			"0.022": 0.0,
			"0.023": 0.0,
			"0.024": 0.0,
			"0.025": 0.0
		}
	}
}
