{
	 "smiles": "CC(C)(C)OC(=O)N1CCC(=CC1)C1=CC=C(O)C=C1", 
	 "Tm": 408.15, 
	 "num_atms": 41, 
	 "gaussian": { 
		 "optdone": 1, 
		 "sigma_profile": "yes", 
		 "theory": "DFT", 
		 "functional": "B3LYP", 
		 "basiset": "6-31G**", 
		 "properties": { 
			 "R2extent": 9668.2267, 
			 "electric_dipole_moment_norm": 1.51984257408, 
			 "electric_quadrupole_moment_norm": 22.3810840562, 
			 "total_energy": -902.806711294, 
			 "HOMO_LUMO_gap": 0.19406, 
			 "cosmo_polarized_energy": -14.04, 
			 "cosmo_cavitation_energy": 42.38, 
			 "cosmo_dispersion_energy": -30.02, 
			 "cosmo_repulsion_energy": 2.31, 
			 "cosmo_total_nonelectrostatic_energy": 14.68, 
			 "SMD_solvation_energy": 7.62 
		},
		"coords": [
			{
				"x": 3.452558271,
				"y": 2.2863900818,
				"z": 2.821859992,
				"element": "C" 
			},
			{
				"x": 2.1869022015,
				"y": 2.9124731573,
				"z": 2.2291132379,
				"element": "C" 
			},
			{
				"x": 1.1044807073,
				"y": 3.0652873837,
				"z": 3.3033998063,
				"element": "C" 
			},
			{
				"x": 2.512618909,
				"y": 4.2418630641,
				"z": 1.5393068463,
				"element": "C" 
			},
			{
				"x": 1.7745585708,
				"y": 1.9130585347,
				"z": 1.2330743132,
				"element": "O" 
			},
			{
				"x": 0.6646778265,
				"y": 2.1044618738,
				"z": 0.4752910017,
				"element": "C" 
			},
			{
				"x": -0.0729856274,
				"y": 3.0800572266,
				"z": 0.5350257778,
				"element": "O" 
			},
			{
				"x": 0.454391554,
				"y": 1.0536018245,
				"z": -0.3773931106,
				"element": "N" 
			},
			{
				"x": 1.3382941839,
				"y": -0.0958532961,
				"z": -0.5371119001,
				"element": "C" 
			},
			{
				"x": 0.5546055226,
				"y": -1.3999636464,
				"z": -0.357589266,
				"element": "C" 
			},
			{
				"x": -0.7278743602,
				"y": -1.4007757683,
				"z": -1.1685654815,
				"element": "C" 
			},
			{
				"x": -1.2398497529,
				"y": -0.2355069479,
				"z": -1.6021446671,
				"element": "C" 
			},
			{
				"x": -0.6777540471,
				"y": 1.1239480637,
				"z": -1.2928497179,
				"element": "C" 
			},
			{
				"x": -1.4057900094,
				"y": -2.6949264379,
				"z": -1.4383544869,
				"element": "C" 
			},
			{
				"x": -2.8077341552,
				"y": -2.7909984631,
				"z": -1.4145644703,
				"element": "C" 
			},
			{
				"x": -3.4636252006,
				"y": -3.9887313614,
				"z": -1.6884760643,
				"element": "C" 
			},
			{
				"x": -2.7245906228,
				"y": -5.1378225151,
				"z": -1.9877410762,
				"element": "C" 
			},
			{
				"x": -3.3053094569,
				"y": -6.3440921592,
				"z": -2.2591690761,
				"element": "O" 
			},
			{
				"x": -1.3274235392,
				"y": -5.0719134749,
				"z": -2.0056791594,
				"element": "C" 
			},
			{
				"x": -0.6863853682,
				"y": -3.8689786765,
				"z": -1.730122815,
				"element": "C" 
			},
			{
				"x": 4.2097120625,
				"y": 2.1371463192,
				"z": 2.0463495758,
				"element": "H" 
			},
			{
				"x": 3.8708131506,
				"y": 2.9410304644,
				"z": 3.5922613574,
				"element": "H" 
			},
			{
				"x": 3.2277831436,
				"y": 1.3169511925,
				"z": 3.2764077392,
				"element": "H" 
			},
			{
				"x": 1.4679545578,
				"y": 3.7218303634,
				"z": 4.1008244311,
				"element": "H" 
			},
			{
				"x": 0.8696023207,
				"y": 2.0919192717,
				"z": 3.7460497958,
				"element": "H" 
			},
			{
				"x": 0.1944756299,
				"y": 3.4910462849,
				"z": 2.8807808058,
				"element": "H" 
			},
			{
				"x": 2.928313163,
				"y": 4.9431224909,
				"z": 2.2703562329,
				"element": "H" 
			},
			{
				"x": 3.2595867157,
				"y": 4.0883309173,
				"z": 0.7537962477,
				"element": "H" 
			},
			{
				"x": 1.6181549993,
				"y": 4.6801382821,
				"z": 1.0967737475,
				"element": "H" 
			},
			{
				"x": 1.7799706893,
				"y": -0.07279459,
				"z": -1.5447575249,
				"element": "H" 
			},
			{
				"x": 2.1475384442,
				"y": -0.0197237364,
				"z": 0.1854819452,
				"element": "H" 
			},
			{
				"x": 0.317462056,
				"y": -1.551252479,
				"z": 0.7045201939,
				"element": "H" 
			},
			{
				"x": 1.1976771683,
				"y": -2.2393993386,
				"z": -0.6459989813,
				"element": "H" 
			},
			{
				"x": -2.1269413448,
				"y": -0.2346720472,
				"z": -2.2314834305,
				"element": "H" 
			},
			{
				"x": -1.4383815653,
				"y": 1.7613550194,
				"z": -0.8320090612,
				"element": "H" 
			},
			{
				"x": -0.3887034456,
				"y": 1.6304276466,
				"z": -2.2308031169,
				"element": "H" 
			},
			{
				"x": -3.3940130356,
				"y": -1.9154323219,
				"z": -1.1532509138,
				"element": "H" 
			},
			{
				"x": -4.5504805339,
				"y": -4.0337619586,
				"z": -1.6528325859,
				"element": "H" 
			},
			{
				"x": -4.2656894073,
				"y": -6.2492090153,
				"z": -2.2170566232,
				"element": "H" 
			},
			{
				"x": -0.7632413364,
				"y": -5.9685818945,
				"z": -2.2403830378,
				"element": "H" 
			},
			{
				"x": 0.3983409611,
				"y": -3.8437493341,
				"z": -1.7673364806,
				"element": "H" 
			}
		],
		 "valence_orbital": [ 
			{
				"type": "occ",
				"energy": -0.25987,
				"method": "rhf"
			},
			{
				"type": "occ",
				"energy": -0.25451,
				"method": "rhf"
			},
			{
				"type": "occ",
				"energy": -0.25302,
				"method": "rhf"
			},
			{
				"type": "occ",
				"energy": -0.23207,
				"method": "rhf"
			},
			{
				"type": "occ",
				"energy": -0.20651,
				"method": "rhf"
			},
			{
				"type": "unocc",
				"energy": -0.01245,
				"method": "rhf"
			},
			{
				"type": "unocc",
				"energy": -0.00411,
				"method": "rhf"
			},
			{
				"type": "unocc",
				"energy": 0.05115,
				"method": "rhf"
			},
			{
				"type": "unocc",
				"energy": 0.05871,
				"method": "rhf"
			},
			{
				"type": "unocc",
				"energy": 0.06889,
				"method": "rhf"
			}
		],
		"cosmo_sigma_profile": { 
			"-0.025": 0.0,
			"-0.024": 0.0,
			"-0.023": 0.0,
			"-0.022": 0.0,
			"-0.021": 0.0,
			"-0.02": 0.0,
			"-0.019": 0.0,
			"-0.018": 0.253723384885,
			"-0.017": 1.50193993574,
			"-0.016": 0.390459000098,
			"-0.015": 1.2816382226,
			"-0.014": 1.3586293954,
			"-0.013": 0.954383737887,
			"-0.012": 0.684098108593,
			"-0.011": 0.596463113834,
			"-0.01": 1.24375781272,
			"-0.009": 1.30152875126,
			"-0.008": 1.12503175661,
			"-0.007": 1.98774070713,
			"-0.006": 5.71218858114,
			"-0.005": 9.97790785989,
			"-0.004": 32.5266140846,
			"-0.003": 38.8739654535,
			"-0.002": 31.6894823741,
			"-0.001": 30.3785808916,
			"0.0": 36.2562296199,
			"0.001": 31.5413562797,
			"0.002": 17.7290748198,
			"0.003": 16.6734742961,
			"0.004": 16.8497600292,
			"0.005": 17.964029102,
			"0.006": 11.3282028835,
			"0.007": 3.36657315838,
			"0.008": 3.19908722194,
			"0.009": 2.32907410965,
			"0.01": 2.85766056599,
			"0.011": 3.8929185823,
			"0.012": 2.50121812717,
			"0.013": 2.49534569238,
			"0.014": 1.87249682242,
			"0.015": 0.0,
			"0.016": 0.0,
			"0.017": 0.0,
			"0.018": 0.0,
			"0.019": 0.0,
			"0.02": 0.0,
			"0.021": 0.0,
			"0.022": 0.0,
			"0.023": 0.0,
			"0.024": 0.0,
			"0.025": 0.0
		}
	}
}
