{
	 "smiles": "CC(N(=O)=O)(N(=O)=O)N(=O)=O", 
	 "Tm": 330.15, 
	 "num_atms": 14, 
	 "gaussian": { 
		 "optdone": 1, 
		 "sigma_profile": "yes", 
		 "theory": "DFT", 
		 "functional": "B3LYP", 
		 "basiset": "6-31G**", 
		 "properties": { 
			 "R2extent": 2919.5318, 
			 "electric_dipole_moment_norm": 3.48305820365, 
			 "electric_quadrupole_moment_norm": 6.43877980832, 
			 "total_energy": -693.274374871, 
			 "HOMO_LUMO_gap": 0.21754, 
			 "cosmo_polarized_energy": -9.65, 
			 "cosmo_cavitation_energy": 20.87, 
			 "cosmo_dispersion_energy": -14.28, 
			 "cosmo_repulsion_energy": 1.15, 
			 "cosmo_total_nonelectrostatic_energy": 7.75, 
			 "SMD_solvation_energy": 10.13 
		},
		"coords": [
			{
				"x": -0.4093767195,
				"y": 1.8448901508,
				"z": -0.0860211847,
				"element": "C" 
			},
			{
				"x": 0.9437035588,
				"y": 1.7684706351,
				"z": 0.5666217674,
				"element": "C" 
			},
			{
				"x": 0.84826385,
				"y": 1.4643723213,
				"z": 2.0724737715,
				"element": "N" 
			},
			{
				"x": 1.635713166,
				"y": 0.6551196333,
				"z": 2.5268954053,
				"element": "O" 
			},
			{
				"x": -0.0176829366,
				"y": 2.0860033265,
				"z": 2.6657243438,
				"element": "O" 
			},
			{
				"x": 1.8260744178,
				"y": 0.6671273025,
				"z": -0.047959233,
				"element": "N" 
			},
			{
				"x": 1.2528739835,
				"y": -0.3888405737,
				"z": -0.2591888279,
				"element": "O" 
			},
			{
				"x": 2.9939406998,
				"y": 0.9412080014,
				"z": -0.2539379876,
				"element": "O" 
			},
			{
				"x": 1.7300336718,
				"y": 3.0850636003,
				"z": 0.434170964,
				"element": "N" 
			},
			{
				"x": 1.676509706,
				"y": 3.6037706969,
				"z": -0.6687017075,
				"element": "O" 
			},
			{
				"x": 2.3293521588,
				"y": 3.4758423971,
				"z": 1.4188380199,
				"element": "O" 
			},
			{
				"x": -1.0118872444,
				"y": 2.5927248398,
				"z": 0.4306055946,
				"element": "H" 
			},
			{
				"x": -0.8919396087,
				"y": 0.8692190337,
				"z": -0.0198366858,
				"element": "H" 
			},
			{
				"x": -0.2844787031,
				"y": 2.1269286351,
				"z": -1.13198424,
				"element": "H" 
			}
		],
		 "valence_orbital": [ 
			{
				"type": "occ",
				"energy": -0.35317,
				"method": "rhf"
			},
			{
				"type": "occ",
				"energy": -0.35315,
				"method": "rhf"
			},
			{
				"type": "occ",
				"energy": -0.34521,
				"method": "rhf"
			},
			{
				"type": "occ",
				"energy": -0.33976,
				"method": "rhf"
			},
			{
				"type": "occ",
				"energy": -0.33976,
				"method": "rhf"
			},
			{
				"type": "unocc",
				"energy": -0.12222,
				"method": "rhf"
			},
			{
				"type": "unocc",
				"energy": -0.12221,
				"method": "rhf"
			},
			{
				"type": "unocc",
				"energy": -0.11348,
				"method": "rhf"
			},
			{
				"type": "unocc",
				"energy": 0.0505,
				"method": "rhf"
			},
			{
				"type": "unocc",
				"energy": 0.05053,
				"method": "rhf"
			}
		],
		"cosmo_sigma_profile": { 
			"-0.025": 0.0,
			"-0.024": 0.0,
			"-0.023": 0.0,
			"-0.022": 0.0,
			"-0.021": 0.0,
			"-0.02": 0.0,
			"-0.019": 0.0,
			"-0.018": 0.0,
			"-0.017": 0.0,
			"-0.016": 0.0,
			"-0.015": 0.0,
			"-0.014": 0.0729289348097,
			"-0.013": 0.777984463904,
			"-0.012": 2.18452980115,
			"-0.011": 1.84012464601,
			"-0.01": 2.4025270902,
			"-0.009": 5.17734242405,
			"-0.008": 5.40427954805,
			"-0.007": 6.78518483177,
			"-0.006": 6.20163054127,
			"-0.005": 7.99910482872,
			"-0.004": 6.06194320098,
			"-0.003": 5.15282059806,
			"-0.002": 6.72671953998,
			"-0.001": 8.05078921384,
			"0.0": 9.41477511572,
			"0.001": 10.1397486554,
			"0.002": 11.0913764809,
			"0.003": 13.5470915955,
			"0.004": 23.147435451,
			"0.005": 19.7703707797,
			"0.006": 10.7960928209,
			"0.007": 3.87664603309,
			"0.008": 0.0,
			"0.009": 0.0,
			"0.01": 0.0,
			"0.011": 0.0,
			"0.012": 0.0,
			"0.013": 0.0,
			"0.014": 0.0,
			"0.015": 0.0,
			"0.016": 0.0,
			"0.017": 0.0,
			"0.018": 0.0,
			"0.019": 0.0,
			"0.02": 0.0,
			"0.021": 0.0,
			"0.022": 0.0,
			"0.023": 0.0,
			"0.024": 0.0,
			"0.025": 0.0
		}
	}
}
