{
	 "smiles": "ClC1=CC2=C(OC(=C2)C(=O)CBr)C=C1", 
	 "Tm": 442.15, 
	 "num_atms": 20, 
	 "gaussian": { 
		 "optdone": 1, 
		 "sigma_profile": "yes", 
		 "theory": "DFT", 
		 "functional": "B3LYP", 
		 "basiset": "6-31G**", 
		 "properties": { 
			 "R2extent": 6477.6355, 
			 "electric_dipole_moment_norm": 2.17874249282, 
			 "electric_quadrupole_moment_norm": 11.3838429078, 
			 "total_energy": -3566.71055067, 
			 "HOMO_LUMO_gap": 0.15792, 
			 "cosmo_polarized_energy": -9.38, 
			 "cosmo_cavitation_energy": 29.7, 
			 "cosmo_dispersion_energy": -21.94, 
			 "cosmo_repulsion_energy": 1.74, 
			 "cosmo_total_nonelectrostatic_energy": 9.5, 
			 "SMD_solvation_energy": 4.46 
		},
		"coords": [
			{
				"x": 3.1895531293,
				"y": -1.1083544304,
				"z": 2.9194982324,
				"element": "Cl" 
			},
			{
				"x": 2.0618562885,
				"y": -0.6801369604,
				"z": 1.6401217175,
				"element": "C" 
			},
			{
				"x": 0.7169811332,
				"y": -0.9816249608,
				"z": 1.7963428085,
				"element": "C" 
			},
			{
				"x": -0.1510703691,
				"y": -0.6223097938,
				"z": 0.7503027477,
				"element": "C" 
			},
			{
				"x": 0.3716180388,
				"y": 0.0178830569,
				"z": -0.3929933095,
				"element": "C" 
			},
			{
				"x": -0.6221015256,
				"y": 0.2837874453,
				"z": -1.2868092307,
				"element": "O" 
			},
			{
				"x": -1.7875723076,
				"y": -0.1904827812,
				"z": -0.7179493305,
				"element": "C" 
			},
			{
				"x": -1.5591755032,
				"y": -0.7419882475,
				"z": 0.5113259059,
				"element": "C" 
			},
			{
				"x": -3.0467262031,
				"y": -0.0298442912,
				"z": -1.4577013461,
				"element": "C" 
			},
			{
				"x": -4.1100088514,
				"y": -0.3643568473,
				"z": -0.9596592722,
				"element": "O" 
			},
			{
				"x": -2.9851798702,
				"y": 0.5768073744,
				"z": -2.8499264636,
				"element": "C" 
			},
			{
				"x": -2.3573044884,
				"y": -0.7909614287,
				"z": -4.1347467905,
				"element": "Br" 
			},
			{
				"x": 1.7200240577,
				"y": 0.3208799993,
				"z": -0.5517946643,
				"element": "C" 
			},
			{
				"x": 2.5682131378,
				"y": -0.0399882366,
				"z": 0.4898271231,
				"element": "C" 
			},
			{
				"x": 0.3567166323,
				"y": -1.4749476027,
				"z": 2.6916072745,
				"element": "H" 
			},
			{
				"x": -2.3161896125,
				"y": -1.1759632609,
				"z": 1.1475508357,
				"element": "H" 
			},
			{
				"x": -3.9859179574,
				"y": 0.8632967916,
				"z": -3.1635941633,
				"element": "H" 
			},
			{
				"x": -2.2790137712,
				"y": 1.4022401879,
				"z": -2.9250759022,
				"element": "H" 
			},
			{
				"x": 2.0904512617,
				"y": 0.8115769174,
				"z": -1.4445676919,
				"element": "H" 
			},
			{
				"x": 3.6300467804,
				"y": 0.1677870689,
				"z": 0.4253415193,
				"element": "H" 
			}
		],
		 "valence_orbital": [ 
			{
				"type": "occ",
				"energy": -0.29821,
				"method": "rhf"
			},
			{
				"type": "occ",
				"energy": -0.28499,
				"method": "rhf"
			},
			{
				"type": "occ",
				"energy": -0.26943,
				"method": "rhf"
			},
			{
				"type": "occ",
				"energy": -0.25233,
				"method": "rhf"
			},
			{
				"type": "occ",
				"energy": -0.24916,
				"method": "rhf"
			},
			{
				"type": "unocc",
				"energy": -0.09124,
				"method": "rhf"
			},
			{
				"type": "unocc",
				"energy": -0.0308,
				"method": "rhf"
			},
			{
				"type": "unocc",
				"energy": -0.01503,
				"method": "rhf"
			},
			{
				"type": "unocc",
				"energy": 0.00884,
				"method": "rhf"
			},
			{
				"type": "unocc",
				"energy": 0.01975,
				"method": "rhf"
			}
		],
		"cosmo_sigma_profile": { 
			"-0.025": 0.0,
			"-0.024": 0.0,
			"-0.023": 0.0,
			"-0.022": 0.0,
			"-0.021": 0.0,
			"-0.02": 0.0,
			"-0.019": 0.0,
			"-0.018": 0.0,
			"-0.017": 0.0,
			"-0.016": 0.0,
			"-0.015": 0.0,
			"-0.014": 0.0,
			"-0.013": 0.0,
			"-0.012": 0.0,
			"-0.011": 0.0,
			"-0.01": 0.0773935390955,
			"-0.009": 4.11157370161,
			"-0.008": 10.5596420149,
			"-0.007": 11.3678772687,
			"-0.006": 12.6803225008,
			"-0.005": 9.6847572839,
			"-0.004": 9.78882644356,
			"-0.003": 9.22964252424,
			"-0.002": 13.377096697,
			"-0.001": 18.1712808982,
			"0.0": 23.5850706245,
			"0.001": 29.8868785592,
			"0.002": 23.1347887761,
			"0.003": 15.863449733,
			"0.004": 19.960196225,
			"0.005": 16.5819277642,
			"0.006": 3.48525892358,
			"0.007": 1.37921741508,
			"0.008": 1.85341325319,
			"0.009": 2.00742444069,
			"0.01": 3.52406913313,
			"0.011": 3.91026742604,
			"0.012": 0.736626485226,
			"0.013": 0.0,
			"0.014": 0.0,
			"0.015": 0.0,
			"0.016": 0.0,
			"0.017": 0.0,
			"0.018": 0.0,
			"0.019": 0.0,
			"0.02": 0.0,
			"0.021": 0.0,
			"0.022": 0.0,
			"0.023": 0.0,
			"0.024": 0.0,
			"0.025": 0.0
		}
	}
}
