{
	 "smiles": "[O-][N+](=O)C1=C(Cl)C(C=O)=C(Cl)C=C1", 
	 "Tm": 439.15, 
	 "num_atms": 16, 
	 "gaussian": { 
		 "optdone": 1, 
		 "sigma_profile": "yes", 
		 "theory": "DFT", 
		 "functional": "B3LYP", 
		 "basiset": "6-31G**", 
		 "properties": { 
			 "R2extent": 3884.0916, 
			 "electric_dipole_moment_norm": 4.45101260501, 
			 "electric_quadrupole_moment_norm": 7.03489744133, 
			 "total_energy": -1469.21772252, 
			 "HOMO_LUMO_gap": 0.1648, 
			 "cosmo_polarized_energy": -11.75, 
			 "cosmo_cavitation_energy": 25.31, 
			 "cosmo_dispersion_energy": -18.78, 
			 "cosmo_repulsion_energy": 1.47, 
			 "cosmo_total_nonelectrostatic_energy": 7.99, 
			 "SMD_solvation_energy": 7.26 
		},
		"coords": [
			{
				"x": -1.6895470753,
				"y": -0.2804717098,
				"z": -2.1500351092,
				"element": "O" 
			},
			{
				"x": -0.5673864825,
				"y": 0.1115803418,
				"z": -1.8575963496,
				"element": "N" 
			},
			{
				"x": 0.0885632635,
				"y": 0.9442631115,
				"z": -2.4823289511,
				"element": "O" 
			},
			{
				"x": 0.0500202652,
				"y": -0.4036259625,
				"z": -0.6184645734,
				"element": "C" 
			},
			{
				"x": -0.0078158215,
				"y": -1.751989974,
				"z": -0.2363827228,
				"element": "C" 
			},
			{
				"x": -0.7455175261,
				"y": -2.913893319,
				"z": -1.2872172539,
				"element": "Cl" 
			},
			{
				"x": 0.5804364041,
				"y": -2.1510217081,
				"z": 0.9910331698,
				"element": "C" 
			},
			{
				"x": 0.5550603297,
				"y": -3.5655662318,
				"z": 1.4964918095,
				"element": "C" 
			},
			{
				"x": 0.2463682376,
				"y": -4.5439126102,
				"z": 0.8529859013,
				"element": "O" 
			},
			{
				"x": 1.1989216399,
				"y": -1.1535927534,
				"z": 1.7750447447,
				"element": "C" 
			},
			{
				"x": 1.954738882,
				"y": -1.5358173789,
				"z": 3.3139195843,
				"element": "Cl" 
			},
			{
				"x": 1.2744255861,
				"y": 0.1770596379,
				"z": 1.3708893096,
				"element": "C" 
			},
			{
				"x": 0.706591799,
				"y": 0.5449905997,
				"z": 0.1615558443,
				"element": "C" 
			},
			{
				"x": 0.8530583486,
				"y": -3.6578155338,
				"z": 2.55483135,
				"element": "H" 
			},
			{
				"x": 1.7752073243,
				"y": 0.9068782092,
				"z": 1.9952737214,
				"element": "H" 
			},
			{
				"x": 0.7586748256,
				"y": 1.5666352813,
				"z": -0.1954004749,
				"element": "H" 
			}
		],
		 "valence_orbital": [ 
			{
				"type": "occ",
				"energy": -0.32316,
				"method": "rhf"
			},
			{
				"type": "occ",
				"energy": -0.31443,
				"method": "rhf"
			},
			{
				"type": "occ",
				"energy": -0.29539,
				"method": "rhf"
			},
			{
				"type": "occ",
				"energy": -0.28396,
				"method": "rhf"
			},
			{
				"type": "occ",
				"energy": -0.26967,
				"method": "rhf"
			},
			{
				"type": "unocc",
				"energy": -0.10487,
				"method": "rhf"
			},
			{
				"type": "unocc",
				"energy": -0.097,
				"method": "rhf"
			},
			{
				"type": "unocc",
				"energy": -0.04492,
				"method": "rhf"
			},
			{
				"type": "unocc",
				"energy": -0.0195,
				"method": "rhf"
			},
			{
				"type": "unocc",
				"energy": 0.00097,
				"method": "rhf"
			}
		],
		"cosmo_sigma_profile": { 
			"-0.025": 0.0,
			"-0.024": 0.0,
			"-0.023": 0.0,
			"-0.022": 0.0,
			"-0.021": 0.0,
			"-0.02": 0.0,
			"-0.019": 0.0,
			"-0.018": 0.0,
			"-0.017": 0.0,
			"-0.016": 0.0,
			"-0.015": 0.0,
			"-0.014": 0.0,
			"-0.013": 0.0,
			"-0.012": 0.0,
			"-0.011": 0.0876631610958,
			"-0.01": 2.53979410253,
			"-0.009": 5.52662902414,
			"-0.008": 5.06588836172,
			"-0.007": 6.40758680985,
			"-0.006": 9.22498547954,
			"-0.005": 10.4439878596,
			"-0.004": 15.2214731032,
			"-0.003": 21.0545728316,
			"-0.002": 17.6230940659,
			"-0.001": 14.9098914419,
			"0.0": 11.3773244064,
			"0.001": 11.765212672,
			"0.002": 14.5290228113,
			"0.003": 10.5586414162,
			"0.004": 5.53046116225,
			"0.005": 6.2027440051,
			"0.006": 9.35909574704,
			"0.007": 12.4323465725,
			"0.008": 7.25985880168,
			"0.009": 5.51925073289,
			"0.01": 4.15737182129,
			"0.011": 2.03103061706,
			"0.012": 0.284245221181,
			"0.013": 0.0,
			"0.014": 0.0,
			"0.015": 0.0,
			"0.016": 0.0,
			"0.017": 0.0,
			"0.018": 0.0,
			"0.019": 0.0,
			"0.02": 0.0,
			"0.021": 0.0,
			"0.022": 0.0,
			"0.023": 0.0,
			"0.024": 0.0,
			"0.025": 0.0
		}
	}
}
