{
	 "smiles": "CC(NC(=O)C(F)(F)C(F)(F)C(F)(F)C(F)(F)C(F)(F)C(F)(F)C(F)(F)C(F)(F)F)C1=CC=CC=C1", 
	 "Tm": 373.15, 
	 "num_atms": 46, 
	 "gaussian": { 
		 "optdone": 1, 
		 "sigma_profile": "yes", 
		 "theory": "DFT", 
		 "functional": "B3LYP", 
		 "basiset": "6-31G**", 
		 "properties": { 
			 "R2extent": 22450.4388, 
			 "electric_dipole_moment_norm": 4.1204248446, 
			 "electric_quadrupole_moment_norm": 16.5965186702, 
			 "total_energy": -2481.04174192, 
			 "HOMO_LUMO_gap": 0.22992, 
			 "cosmo_polarized_energy": -10.51, 
			 "cosmo_cavitation_energy": 54.97, 
			 "cosmo_dispersion_energy": -35.63, 
			 "cosmo_repulsion_energy": 2.35, 
			 "cosmo_total_nonelectrostatic_energy": 21.7, 
			 "SMD_solvation_energy": 14.54 
		},
		"coords": [
			{
				"x": -3.6958414353,
				"y": -2.1275815924,
				"z": 3.513530521,
				"element": "C" 
			},
			{
				"x": -3.4207959933,
				"y": -2.1817255802,
				"z": 2.0064091884,
				"element": "C" 
			},
			{
				"x": -2.0919884126,
				"y": -1.6306406463,
				"z": 1.7019909075,
				"element": "N" 
			},
			{
				"x": -1.9128923163,
				"y": -0.3400843597,
				"z": 1.3476626463,
				"element": "C" 
			},
			{
				"x": -2.7746632643,
				"y": 0.5211109417,
				"z": 1.2835499675,
				"element": "O" 
			},
			{
				"x": -0.4526635795,
				"y": 0.0156914501,
				"z": 0.9593969848,
				"element": "C" 
			},
			{
				"x": -0.0851369254,
				"y": 1.1434798857,
				"z": 1.6053831744,
				"element": "F" 
			},
			{
				"x": 0.4104413852,
				"y": -0.9880150792,
				"z": 1.3177292504,
				"element": "F" 
			},
			{
				"x": -0.3173999225,
				"y": 0.2360466459,
				"z": -0.5688193145,
				"element": "C" 
			},
			{
				"x": -0.9432072138,
				"y": -0.8144337557,
				"z": -1.1774008713,
				"element": "F" 
			},
			{
				"x": -0.9545589934,
				"y": 1.3683894566,
				"z": -0.9181595539,
				"element": "F" 
			},
			{
				"x": 1.1172738676,
				"y": 0.2552987408,
				"z": -1.185243138,
				"element": "C" 
			},
			{
				"x": 1.6178887324,
				"y": -0.9985392143,
				"z": -1.0839346142,
				"element": "F" 
			},
			{
				"x": 0.9626207767,
				"y": 0.5558500444,
				"z": -2.4965655017,
				"element": "F" 
			},
			{
				"x": 2.2307575941,
				"y": 1.1924367982,
				"z": -0.6166709776,
				"element": "C" 
			},
			{
				"x": 2.443366119,
				"y": 0.8740682582,
				"z": 0.6799542069,
				"element": "F" 
			},
			{
				"x": 3.3431438565,
				"y": 0.8872454981,
				"z": -1.3292129319,
				"element": "F" 
			},
			{
				"x": 2.0015118142,
				"y": 2.7216723183,
				"z": -0.7347944802,
				"element": "C" 
			},
			{
				"x": 1.8718779605,
				"y": 3.0459240272,
				"z": -2.0422999046,
				"element": "F" 
			},
			{
				"x": 0.8526610187,
				"y": 3.0290677602,
				"z": -0.0901146067,
				"element": "F" 
			},
			{
				"x": 3.0805518687,
				"y": 3.6598716564,
				"z": -0.1060836935,
				"element": "C" 
			},
			{
				"x": 3.125828869,
				"y": 3.4063376282,
				"z": 1.2216063554,
				"element": "F" 
			},
			{
				"x": 2.6169247357,
				"y": 4.9175460947,
				"z": -0.2964010945,
				"element": "F" 
			},
			{
				"x": 4.555532283,
				"y": 3.6369223245,
				"z": -0.6026395541,
				"element": "C" 
			},
			{
				"x": 5.1225075477,
				"y": 2.4607666442,
				"z": -0.2542553057,
				"element": "F" 
			},
			{
				"x": 5.1789600366,
				"y": 4.6339516953,
				"z": 0.0697535986,
				"element": "F" 
			},
			{
				"x": 4.8204562777,
				"y": 3.8808578896,
				"z": -2.1097286299,
				"element": "C" 
			},
			{
				"x": 4.1767264636,
				"y": 4.9770909006,
				"z": -2.5276430488,
				"element": "F" 
			},
			{
				"x": 6.1353653323,
				"y": 4.0541010433,
				"z": -2.2882136451,
				"element": "F" 
			},
			{
				"x": 4.4244728497,
				"y": 2.8332028533,
				"z": -2.8414527071,
				"element": "F" 
			},
			{
				"x": -3.5472808994,
				"y": -3.5592254744,
				"z": 1.3585805778,
				"element": "C" 
			},
			{
				"x": -3.2000389968,
				"y": -3.7095403836,
				"z": 0.0058558575,
				"element": "C" 
			},
			{
				"x": -3.3226008702,
				"y": -4.9426678702,
				"z": -0.6308433104,
				"element": "C" 
			},
			{
				"x": -3.7964730258,
				"y": -6.0523124065,
				"z": 0.0738568399,
				"element": "C" 
			},
			{
				"x": -4.1433436738,
				"y": -5.9151131516,
				"z": 1.416760471,
				"element": "C" 
			},
			{
				"x": -4.0188338127,
				"y": -4.677761203,
				"z": 2.0548701783,
				"element": "C" 
			},
			{
				"x": -3.5734139609,
				"y": -1.1004136918,
				"z": 3.8651369298,
				"element": "H" 
			},
			{
				"x": -4.720477683,
				"y": -2.4396508375,
				"z": 3.7354476694,
				"element": "H" 
			},
			{
				"x": -3.008185492,
				"y": -2.7704597934,
				"z": 4.0726282245,
				"element": "H" 
			},
			{
				"x": -4.1220652692,
				"y": -1.4974677126,
				"z": 1.5148822506,
				"element": "H" 
			},
			{
				"x": -1.2901024224,
				"y": -2.2441475666,
				"z": 1.7311117672,
				"element": "H" 
			},
			{
				"x": -2.8215435067,
				"y": -2.8532266383,
				"z": -0.5456487404,
				"element": "H" 
			},
			{
				"x": -3.0492196282,
				"y": -5.0373691662,
				"z": -1.6778472892,
				"element": "H" 
			},
			{
				"x": -3.8927228539,
				"y": -7.0143163715,
				"z": -0.420955622,
				"element": "H" 
			},
			{
				"x": -4.5105749359,
				"y": -6.7713344191,
				"z": 1.9753455853,
				"element": "H" 
			},
			{
				"x": -4.2944443016,
				"y": -4.5949036414,
				"z": 3.1005853826,
				"element": "H" 
			}
		],
		 "valence_orbital": [ 
			{
				"type": "occ",
				"energy": -0.34689,
				"method": "rhf"
			},
			{
				"type": "occ",
				"energy": -0.28321,
				"method": "rhf"
			},
			{
				"type": "occ",
				"energy": -0.27836,
				"method": "rhf"
			},
			{
				"type": "occ",
				"energy": -0.26046,
				"method": "rhf"
			},
			{
				"type": "occ",
				"energy": -0.25165,
				"method": "rhf"
			},
			{
				"type": "unocc",
				"energy": -0.02173,
				"method": "rhf"
			},
			{
				"type": "unocc",
				"energy": -0.01512,
				"method": "rhf"
			},
			{
				"type": "unocc",
				"energy": -0.00882,
				"method": "rhf"
			},
			{
				"type": "unocc",
				"energy": 0.01053,
				"method": "rhf"
			},
			{
				"type": "unocc",
				"energy": 0.01941,
				"method": "rhf"
			}
		],
		"cosmo_sigma_profile": { 
			"-0.025": 0.0,
			"-0.024": 0.0,
			"-0.023": 0.0,
			"-0.022": 0.0,
			"-0.021": 0.0,
			"-0.02": 0.0,
			"-0.019": 0.0,
			"-0.018": 0.0,
			"-0.017": 0.0,
			"-0.016": 0.0,
			"-0.015": 0.0144092792523,
			"-0.014": 0.696599356756,
			"-0.013": 0.805567131824,
			"-0.012": 0.190888757608,
			"-0.011": 1.22360956336,
			"-0.01": 1.09652495458,
			"-0.009": 1.15234300109,
			"-0.008": 1.87684060366,
			"-0.007": 1.2981154264,
			"-0.006": 6.78115214299,
			"-0.005": 15.4374976868,
			"-0.004": 25.1841559883,
			"-0.003": 26.8674355348,
			"-0.002": 28.2910232184,
			"-0.001": 46.4275739419,
			"0.0": 83.8735041947,
			"0.001": 119.812477058,
			"0.002": 25.959882381,
			"0.003": 10.1596028679,
			"0.004": 9.94128532774,
			"0.005": 10.826097125,
			"0.006": 7.53513385685,
			"0.007": 1.76554389056,
			"0.008": 1.25133919432,
			"0.009": 1.97398649104,
			"0.01": 2.01029414578,
			"0.011": 3.07397300618,
			"0.012": 4.07309412001,
			"0.013": 0.161778475397,
			"0.014": 0.0,
			"0.015": 0.0,
			"0.016": 0.0,
			"0.017": 0.0,
			"0.018": 0.0,
			"0.019": 0.0,
			"0.02": 0.0,
			"0.021": 0.0,
			"0.022": 0.0,
			"0.023": 0.0,
			"0.024": 0.0,
			"0.025": 0.0
		}
	}
}
