{
	 "smiles": "CCNC1=CC=C(C=C1)C(O)=O", 
	 "Tm": 449.15, 
	 "num_atms": 23, 
	 "gaussian": { 
		 "optdone": 1, 
		 "sigma_profile": "yes", 
		 "theory": "DFT", 
		 "functional": "B3LYP", 
		 "basiset": "6-31G**", 
		 "properties": { 
			 "R2extent": 3268.7708, 
			 "electric_dipole_moment_norm": 4.39542172834, 
			 "electric_quadrupole_moment_norm": 9.51042345167, 
			 "total_energy": -554.81452203, 
			 "HOMO_LUMO_gap": 0.17708, 
			 "cosmo_polarized_energy": -13.26, 
			 "cosmo_cavitation_energy": 26.78, 
			 "cosmo_dispersion_energy": -19.68, 
			 "cosmo_repulsion_energy": 1.58, 
			 "cosmo_total_nonelectrostatic_energy": 8.68, 
			 "SMD_solvation_energy": 5.12 
		},
		"coords": [
			{
				"x": -2.7843589884,
				"y": -0.2847148969,
				"z": -2.2292917046,
				"element": "C" 
			},
			{
				"x": -1.4702859594,
				"y": 0.5066099036,
				"z": -2.2819096191,
				"element": "C" 
			},
			{
				"x": -0.3480157265,
				"y": -0.1333086425,
				"z": -1.6113267392,
				"element": "N" 
			},
			{
				"x": -0.2029602712,
				"y": -0.2330859093,
				"z": -0.2433974995,
				"element": "C" 
			},
			{
				"x": -0.9757476869,
				"y": 0.5272843145,
				"z": 0.6619778372,
				"element": "C" 
			},
			{
				"x": -0.7590362529,
				"y": 0.4271004535,
				"z": 2.0301937646,
				"element": "C" 
			},
			{
				"x": 0.2215157618,
				"y": -0.4317437781,
				"z": 2.5475301055,
				"element": "C" 
			},
			{
				"x": 0.9884436211,
				"y": -1.1935708974,
				"z": 1.6490109739,
				"element": "C" 
			},
			{
				"x": 0.7831949106,
				"y": -1.0997992495,
				"z": 0.2851575229,
				"element": "C" 
			},
			{
				"x": 0.481522573,
				"y": -0.5735871572,
				"z": 3.9912961245,
				"element": "C" 
			},
			{
				"x": -0.3216523285,
				"y": 0.2110497395,
				"z": 4.7634583911,
				"element": "O" 
			},
			{
				"x": 1.3191891971,
				"y": -1.3055563044,
				"z": 4.4887668241,
				"element": "O" 
			},
			{
				"x": -3.1005035475,
				"y": -0.4555067851,
				"z": -1.1962106395,
				"element": "H" 
			},
			{
				"x": -3.5820860411,
				"y": 0.2594503953,
				"z": -2.7462400133,
				"element": "H" 
			},
			{
				"x": -2.6712411389,
				"y": -1.2607399269,
				"z": -2.7126453399,
				"element": "H" 
			},
			{
				"x": -1.1725362678,
				"y": 0.666333169,
				"z": -3.3237326132,
				"element": "H" 
			},
			{
				"x": -1.6100608275,
				"y": 1.5051006423,
				"z": -1.8535512236,
				"element": "H" 
			},
			{
				"x": 0.1279095378,
				"y": -0.8467926408,
				"z": -2.1441427074,
				"element": "H" 
			},
			{
				"x": -1.7447840275,
				"y": 1.1978349575,
				"z": 0.2959067291,
				"element": "H" 
			},
			{
				"x": -1.360602039,
				"y": 1.0189425178,
				"z": 2.7113480291,
				"element": "H" 
			},
			{
				"x": 1.7455553118,
				"y": -1.8589452344,
				"z": 2.0507326171,
				"element": "H" 
			},
			{
				"x": 1.3877279673,
				"y": -1.6926942584,
				"z": -0.3974249743,
				"element": "H" 
			},
			{
				"x": -0.0526877773,
				"y": 0.027039588,
				"z": 5.6778941546,
				"element": "H" 
			}
		],
		 "valence_orbital": [ 
			{
				"type": "occ",
				"energy": -0.30789,
				"method": "rhf"
			},
			{
				"type": "occ",
				"energy": -0.29464,
				"method": "rhf"
			},
			{
				"type": "occ",
				"energy": -0.26049,
				"method": "rhf"
			},
			{
				"type": "occ",
				"energy": -0.25274,
				"method": "rhf"
			},
			{
				"type": "occ",
				"energy": -0.20309,
				"method": "rhf"
			},
			{
				"type": "unocc",
				"energy": -0.02601,
				"method": "rhf"
			},
			{
				"type": "unocc",
				"energy": -0.00049,
				"method": "rhf"
			},
			{
				"type": "unocc",
				"energy": 0.06883,
				"method": "rhf"
			},
			{
				"type": "unocc",
				"energy": 0.07938,
				"method": "rhf"
			},
			{
				"type": "unocc",
				"energy": 0.08995,
				"method": "rhf"
			}
		],
		"cosmo_sigma_profile": { 
			"-0.025": 0.0,
			"-0.024": 0.0,
			"-0.023": 0.0,
			"-0.022": 0.0,
			"-0.021": 0.0,
			"-0.02": 0.0,
			"-0.019": 0.0,
			"-0.018": 0.210124821689,
			"-0.017": 0.822787588159,
			"-0.016": 1.02329261904,
			"-0.015": 0.567816572387,
			"-0.014": 0.751929281225,
			"-0.013": 1.66769954203,
			"-0.012": 2.28475009715,
			"-0.011": 1.92408289275,
			"-0.01": 2.6037988013,
			"-0.009": 1.62864103116,
			"-0.008": 3.07400879521,
			"-0.007": 2.76975939537,
			"-0.006": 6.16915856853,
			"-0.005": 11.514296216,
			"-0.004": 13.1191018943,
			"-0.003": 16.8570178726,
			"-0.002": 17.1648172834,
			"-0.001": 15.788694304,
			"0.0": 15.6526518359,
			"0.001": 15.882613726,
			"0.002": 13.4689434653,
			"0.003": 12.1472193238,
			"0.004": 12.8176412886,
			"0.005": 14.8562685124,
			"0.006": 5.2060603706,
			"0.007": 4.13470473955,
			"0.008": 3.92381342186,
			"0.009": 2.12405440987,
			"0.01": 0.93242984502,
			"0.011": 2.75635079554,
			"0.012": 4.29810460096,
			"0.013": 3.57103961278,
			"0.014": 0.0172965284668,
			"0.015": 0.0,
			"0.016": 0.0,
			"0.017": 0.0,
			"0.018": 0.0,
			"0.019": 0.0,
			"0.02": 0.0,
			"0.021": 0.0,
			"0.022": 0.0,
			"0.023": 0.0,
			"0.024": 0.0,
			"0.025": 0.0
		}
	}
}
