{
	 "smiles": "ClS(=O)(=O)C1=CC2=CC=CC=C2C=C1", 
	 "Tm": 351.65, 
	 "num_atms": 21, 
	 "gaussian": { 
		 "optdone": 1, 
		 "sigma_profile": "yes", 
		 "theory": "DFT", 
		 "functional": "B3LYP", 
		 "basiset": "6-31G**", 
		 "properties": { 
			 "R2extent": 4318.2416, 
			 "electric_dipole_moment_norm": 6.32603848076, 
			 "electric_quadrupole_moment_norm": 12.3579368731, 
			 "total_energy": -1394.05384229, 
			 "HOMO_LUMO_gap": 0.1565, 
			 "cosmo_polarized_energy": -9.71, 
			 "cosmo_cavitation_energy": 28.75, 
			 "cosmo_dispersion_energy": -21.68, 
			 "cosmo_repulsion_energy": 1.64, 
			 "cosmo_total_nonelectrostatic_energy": 8.71, 
			 "SMD_solvation_energy": 3.3 
		},
		"coords": [
			{
				"x": 1.5247276061,
				"y": -3.8732100688,
				"z": 1.3366749082,
				"element": "Cl" 
			},
			{
				"x": -0.0835809256,
				"y": -3.2153217982,
				"z": 0.0890735901,
				"element": "S" 
			},
			{
				"x": -1.3110293015,
				"y": -3.5696493873,
				"z": 0.7913790352,
				"element": "O" 
			},
			{
				"x": 0.2198875412,
				"y": -3.7125103623,
				"z": -1.247346151,
				"element": "O" 
			},
			{
				"x": 0.1430985553,
				"y": -1.4463197125,
				"z": 0.1280979523,
				"element": "C" 
			},
			{
				"x": -0.6086788878,
				"y": -0.7080681335,
				"z": 1.0135175868,
				"element": "C" 
			},
			{
				"x": -0.4544001501,
				"y": 0.701491819,
				"z": 1.0460778338,
				"element": "C" 
			},
			{
				"x": -1.207173286,
				"y": 1.5152066276,
				"z": 1.9353432475,
				"element": "C" 
			},
			{
				"x": -1.0344763684,
				"y": 2.8804472714,
				"z": 1.948619321,
				"element": "C" 
			},
			{
				"x": -0.1037413661,
				"y": 3.4916154352,
				"z": 1.0725110321,
				"element": "C" 
			},
			{
				"x": 0.6390039246,
				"y": 2.7299988227,
				"z": 0.197719833,
				"element": "C" 
			},
			{
				"x": 0.4874355177,
				"y": 1.3191319291,
				"z": 0.157539263,
				"element": "C" 
			},
			{
				"x": 1.2366376285,
				"y": 0.5036221512,
				"z": -0.7363309114,
				"element": "C" 
			},
			{
				"x": 1.0761232832,
				"y": -0.8605987993,
				"z": -0.7619495757,
				"element": "C" 
			},
			{
				"x": -1.3164653938,
				"y": -1.1967986206,
				"z": 1.6747383166,
				"element": "H" 
			},
			{
				"x": -1.9194018598,
				"y": 1.0406673981,
				"z": 2.6045118965,
				"element": "H" 
			},
			{
				"x": -1.6122084902,
				"y": 3.4956180811,
				"z": 2.6316420471,
				"element": "H" 
			},
			{
				"x": 0.0217718284,
				"y": 4.5700574516,
				"z": 1.0936188257,
				"element": "H" 
			},
			{
				"x": 1.3515692132,
				"y": 3.2002199341,
				"z": -0.4742809465,
				"element": "H" 
			},
			{
				"x": 1.9425843218,
				"y": 0.9783690687,
				"z": -1.4118295133,
				"element": "H" 
			},
			{
				"x": 1.6346166092,
				"y": -1.4851691074,
				"z": -1.4494275908,
				"element": "H" 
			}
		],
		 "valence_orbital": [ 
			{
				"type": "occ",
				"energy": -0.32574,
				"method": "rhf"
			},
			{
				"type": "occ",
				"energy": -0.31355,
				"method": "rhf"
			},
			{
				"type": "occ",
				"energy": -0.30969,
				"method": "rhf"
			},
			{
				"type": "occ",
				"energy": -0.27458,
				"method": "rhf"
			},
			{
				"type": "occ",
				"energy": -0.24659,
				"method": "rhf"
			},
			{
				"type": "unocc",
				"energy": -0.09009,
				"method": "rhf"
			},
			{
				"type": "unocc",
				"energy": -0.06428,
				"method": "rhf"
			},
			{
				"type": "unocc",
				"energy": -0.04103,
				"method": "rhf"
			},
			{
				"type": "unocc",
				"energy": 0.00174,
				"method": "rhf"
			},
			{
				"type": "unocc",
				"energy": 0.04235,
				"method": "rhf"
			}
		],
		"cosmo_sigma_profile": { 
			"-0.025": 0.0,
			"-0.024": 0.0,
			"-0.023": 0.0,
			"-0.022": 0.0,
			"-0.021": 0.0,
			"-0.02": 0.0,
			"-0.019": 0.0,
			"-0.018": 0.0,
			"-0.017": 0.0,
			"-0.016": 0.0,
			"-0.015": 0.0,
			"-0.014": 0.0,
			"-0.013": 0.0,
			"-0.012": 0.0,
			"-0.011": 0.0,
			"-0.01": 0.0,
			"-0.009": 0.991101717331,
			"-0.008": 4.37000179569,
			"-0.007": 11.8907064097,
			"-0.006": 14.8395188627,
			"-0.005": 15.0616956124,
			"-0.004": 12.6517526087,
			"-0.003": 11.3662903401,
			"-0.002": 11.8372561099,
			"-0.001": 14.729136307,
			"0.0": 19.368130356,
			"0.001": 26.4715038087,
			"0.002": 22.9689260772,
			"0.003": 24.5449728399,
			"0.004": 15.9934009951,
			"0.005": 2.8933042983,
			"0.006": 3.71197407113,
			"0.007": 5.14193536015,
			"0.008": 10.1639165969,
			"0.009": 5.28169219458,
			"0.01": 0.0738383194865,
			"0.011": 0.0,
			"0.012": 0.0,
			"0.013": 0.0,
			"0.014": 0.0,
			"0.015": 0.0,
			"0.016": 0.0,
			"0.017": 0.0,
			"0.018": 0.0,
			"0.019": 0.0,
			"0.02": 0.0,
			"0.021": 0.0,
			"0.022": 0.0,
			"0.023": 0.0,
			"0.024": 0.0,
			"0.025": 0.0
		}
	}
}
