{
	 "smiles": "CC1=C(OCC2=CC=CC=C2)C=CC(Br)=C1", 
	 "Tm": 330.15, 
	 "num_atms": 29, 
	 "gaussian": { 
		 "optdone": 1, 
		 "sigma_profile": "yes", 
		 "theory": "DFT", 
		 "functional": "B3LYP", 
		 "basiset": "6-31G**", 
		 "properties": { 
			 "R2extent": 9583.2673, 
			 "electric_dipole_moment_norm": 3.4799148639, 
			 "electric_quadrupole_moment_norm": 9.77704741525, 
			 "total_energy": -3187.95281734, 
			 "HOMO_LUMO_gap": 0.1975, 
			 "cosmo_polarized_energy": -7.97, 
			 "cosmo_cavitation_energy": 35.45, 
			 "cosmo_dispersion_energy": -25.55, 
			 "cosmo_repulsion_energy": 2.01, 
			 "cosmo_total_nonelectrostatic_energy": 11.9, 
			 "SMD_solvation_energy": 4.89 
		},
		"coords": [
			{
				"x": 0.6818269505,
				"y": 1.3403627125,
				"z": -2.9072805476,
				"element": "C" 
			},
			{
				"x": -0.0333604799,
				"y": 0.0155368581,
				"z": -2.8444123852,
				"element": "C" 
			},
			{
				"x": -0.0113914559,
				"y": -0.7415213767,
				"z": -1.6515689803,
				"element": "C" 
			},
			{
				"x": 0.6868357993,
				"y": -0.1765997614,
				"z": -0.6216712916,
				"element": "O" 
			},
			{
				"x": 0.7582054312,
				"y": -0.8800005067,
				"z": 0.6249094107,
				"element": "C" 
			},
			{
				"x": 1.5739918796,
				"y": -0.054318012,
				"z": 1.5853003949,
				"element": "C" 
			},
			{
				"x": 2.9630996294,
				"y": -0.2126062088,
				"z": 1.6550721926,
				"element": "C" 
			},
			{
				"x": 3.7230278135,
				"y": 0.5678030066,
				"z": 2.5267092904,
				"element": "C" 
			},
			{
				"x": 3.0984761524,
				"y": 1.5172846899,
				"z": 3.3381235296,
				"element": "C" 
			},
			{
				"x": 1.713474378,
				"y": 1.6835412149,
				"z": 3.2741193097,
				"element": "C" 
			},
			{
				"x": 0.9569710569,
				"y": 0.901260217,
				"z": 2.4011875952,
				"element": "C" 
			},
			{
				"x": -0.6702215629,
				"y": -1.972132983,
				"z": -1.5783901994,
				"element": "C" 
			},
			{
				"x": -1.3602073951,
				"y": -2.4678381453,
				"z": -2.6895076311,
				"element": "C" 
			},
			{
				"x": -1.3823375173,
				"y": -1.7251102406,
				"z": -3.8613309742,
				"element": "C" 
			},
			{
				"x": -2.3222595836,
				"y": -2.3898002077,
				"z": -5.3911377056,
				"element": "Br" 
			},
			{
				"x": -0.7260311291,
				"y": -0.4948590935,
				"z": -3.9407721606,
				"element": "C" 
			},
			{
				"x": 1.7503921274,
				"y": 1.2225966732,
				"z": -2.6973505526,
				"element": "H" 
			},
			{
				"x": 0.569997358,
				"y": 1.7985466367,
				"z": -3.8930862751,
				"element": "H" 
			},
			{
				"x": 0.2934774711,
				"y": 2.034885755,
				"z": -2.1545589377,
				"element": "H" 
			},
			{
				"x": 1.222182665,
				"y": -1.8630266497,
				"z": 0.4672901622,
				"element": "H" 
			},
			{
				"x": -0.2555619272,
				"y": -1.0407461328,
				"z": 1.0158778062,
				"element": "H" 
			},
			{
				"x": 3.4497907019,
				"y": -0.9512938538,
				"z": 1.0231548224,
				"element": "H" 
			},
			{
				"x": 4.7998531519,
				"y": 0.4337783015,
				"z": 2.5746091182,
				"element": "H" 
			},
			{
				"x": 3.6884502052,
				"y": 2.123213832,
				"z": 4.0198283336,
				"element": "H" 
			},
			{
				"x": 1.2232683956,
				"y": 2.419541058,
				"z": 3.9048400553,
				"element": "H" 
			},
			{
				"x": -0.1211854899,
				"y": 1.0314038163,
				"z": 2.3512828451,
				"element": "H" 
			},
			{
				"x": -0.6580111476,
				"y": -2.5583565834,
				"z": -0.6675242409,
				"element": "H" 
			},
			{
				"x": -1.8709361604,
				"y": -3.4222051382,
				"z": -2.6321346179,
				"element": "H" 
			},
			{
				"x": -0.7541173181,
				"y": 0.0720601218,
				"z": -4.8652783664,
				"element": "H" 
			}
		],
		 "valence_orbital": [ 
			{
				"type": "occ",
				"energy": -0.27867,
				"method": "rhf"
			},
			{
				"type": "occ",
				"energy": -0.25741,
				"method": "rhf"
			},
			{
				"type": "occ",
				"energy": -0.25659,
				"method": "rhf"
			},
			{
				"type": "occ",
				"energy": -0.25126,
				"method": "rhf"
			},
			{
				"type": "occ",
				"energy": -0.2134,
				"method": "rhf"
			},
			{
				"type": "unocc",
				"energy": -0.0159,
				"method": "rhf"
			},
			{
				"type": "unocc",
				"energy": -0.00889,
				"method": "rhf"
			},
			{
				"type": "unocc",
				"energy": -0.00595,
				"method": "rhf"
			},
			{
				"type": "unocc",
				"energy": 0.00554,
				"method": "rhf"
			},
			{
				"type": "unocc",
				"energy": 0.01554,
				"method": "rhf"
			}
		],
		"cosmo_sigma_profile": { 
			"-0.025": 0.0,
			"-0.024": 0.0,
			"-0.023": 0.0,
			"-0.022": 0.0,
			"-0.021": 0.0,
			"-0.02": 0.0,
			"-0.019": 0.0,
			"-0.018": 0.0,
			"-0.017": 0.0,
			"-0.016": 0.0,
			"-0.015": 0.0,
			"-0.014": 0.0,
			"-0.013": 0.0,
			"-0.012": 0.0,
			"-0.011": 0.0,
			"-0.01": 0.0,
			"-0.009": 0.0,
			"-0.008": 0.0175727468553,
			"-0.007": 3.40625824862,
			"-0.006": 18.3119523767,
			"-0.005": 24.5563979342,
			"-0.004": 24.5594296876,
			"-0.003": 20.8284979987,
			"-0.002": 19.130789233,
			"-0.001": 18.8460247315,
			"0.0": 22.1579828316,
			"0.001": 18.5163595805,
			"0.002": 21.2808028017,
			"0.003": 26.0849517076,
			"0.004": 29.2225290009,
			"0.005": 25.2954487405,
			"0.006": 8.60939312129,
			"0.007": 2.50309748497,
			"0.008": 1.65916950233,
			"0.009": 0.986674834339,
			"0.01": 0.0,
			"0.011": 0.0,
			"0.012": 0.0,
			"0.013": 0.0,
			"0.014": 0.0,
			"0.015": 0.0,
			"0.016": 0.0,
			"0.017": 0.0,
			"0.018": 0.0,
			"0.019": 0.0,
			"0.02": 0.0,
			"0.021": 0.0,
			"0.022": 0.0,
			"0.023": 0.0,
			"0.024": 0.0,
			"0.025": 0.0
		}
	}
}
