{
	 "smiles": "[O-][N+](=O)C1=C(F)C=C(CBr)C=C1", 
	 "Tm": 320.15, 
	 "num_atms": 17, 
	 "gaussian": { 
		 "optdone": 1, 
		 "sigma_profile": "yes", 
		 "theory": "DFT", 
		 "functional": "B3LYP", 
		 "basiset": "6-31G**", 
		 "properties": { 
			 "R2extent": 4455.6499, 
			 "electric_dipole_moment_norm": 4.5176807302, 
			 "electric_quadrupole_moment_norm": 15.9587161633, 
			 "total_energy": -3146.0884868, 
			 "HOMO_LUMO_gap": 0.1772, 
			 "cosmo_polarized_energy": -11.5, 
			 "cosmo_cavitation_energy": 25.21, 
			 "cosmo_dispersion_energy": -18.56, 
			 "cosmo_repulsion_energy": 1.47, 
			 "cosmo_total_nonelectrostatic_energy": 8.12, 
			 "SMD_solvation_energy": 5.78 
		},
		"coords": [
			{
				"x": -3.3802433231,
				"y": 2.5094981096,
				"z": -2.0796019313,
				"element": "O" 
			},
			{
				"x": -3.4751889149,
				"y": 1.6128581704,
				"z": -1.2470281342,
				"element": "N" 
			},
			{
				"x": -4.5285687119,
				"y": 1.0665125144,
				"z": -0.9163928241,
				"element": "O" 
			},
			{
				"x": -2.2470404193,
				"y": 1.1421771,
				"z": -0.5919986741,
				"element": "C" 
			},
			{
				"x": -0.999157936,
				"y": 1.7462712594,
				"z": -0.8064971871,
				"element": "C" 
			},
			{
				"x": -0.8437472249,
				"y": 2.7980179716,
				"z": -1.6095602511,
				"element": "F" 
			},
			{
				"x": 0.1324975525,
				"y": 1.2522384134,
				"z": -0.1660491344,
				"element": "C" 
			},
			{
				"x": 0.0420428898,
				"y": 0.152722357,
				"z": 0.6917507372,
				"element": "C" 
			},
			{
				"x": 1.2677578683,
				"y": -0.3794986905,
				"z": 1.3656495684,
				"element": "C" 
			},
			{
				"x": 1.551288569,
				"y": 0.4750036528,
				"z": 3.1467199931,
				"element": "Br" 
			},
			{
				"x": -1.2094957612,
				"y": -0.4461872053,
				"z": 0.9057994856,
				"element": "C" 
			},
			{
				"x": -2.3402615489,
				"y": 0.0459949529,
				"z": 0.2705714547,
				"element": "C" 
			},
			{
				"x": 1.0790333011,
				"y": 1.7496084724,
				"z": -0.3502227949,
				"element": "H" 
			},
			{
				"x": 2.1775870553,
				"y": -0.1698329864,
				"z": 0.8066096986,
				"element": "H" 
			},
			{
				"x": 1.1954512404,
				"y": -1.4447746884,
				"z": 1.576581567,
				"element": "H" 
			},
			{
				"x": -1.2950529405,
				"y": -1.296594633,
				"z": 1.5747138854,
				"element": "H" 
			},
			{
				"x": -3.3162016959,
				"y": -0.3986147702,
				"z": 0.4192545412,
				"element": "H" 
			}
		],
		 "valence_orbital": [ 
			{
				"type": "occ",
				"energy": -0.30038,
				"method": "rhf"
			},
			{
				"type": "occ",
				"energy": -0.29537,
				"method": "rhf"
			},
			{
				"type": "occ",
				"energy": -0.29152,
				"method": "rhf"
			},
			{
				"type": "occ",
				"energy": -0.28484,
				"method": "rhf"
			},
			{
				"type": "occ",
				"energy": -0.27883,
				"method": "rhf"
			},
			{
				"type": "unocc",
				"energy": -0.10163,
				"method": "rhf"
			},
			{
				"type": "unocc",
				"energy": -0.0412,
				"method": "rhf"
			},
			{
				"type": "unocc",
				"energy": -0.037,
				"method": "rhf"
			},
			{
				"type": "unocc",
				"energy": 0.01366,
				"method": "rhf"
			},
			{
				"type": "unocc",
				"energy": 0.05393,
				"method": "rhf"
			}
		],
		"cosmo_sigma_profile": { 
			"-0.025": 0.0,
			"-0.024": 0.0,
			"-0.023": 0.0,
			"-0.022": 0.0,
			"-0.021": 0.0,
			"-0.02": 0.0,
			"-0.019": 0.0,
			"-0.018": 0.0,
			"-0.017": 0.0,
			"-0.016": 0.0,
			"-0.015": 0.0,
			"-0.014": 0.0,
			"-0.013": 0.0,
			"-0.012": 0.0,
			"-0.011": 0.0,
			"-0.01": 0.425213148038,
			"-0.009": 6.28849287351,
			"-0.008": 9.65564009552,
			"-0.007": 10.2672064118,
			"-0.006": 10.2310417833,
			"-0.005": 10.3181226261,
			"-0.004": 9.26968804631,
			"-0.003": 11.7297561751,
			"-0.002": 14.7456752558,
			"-0.001": 15.0924605264,
			"0.0": 13.0157774994,
			"0.001": 12.7162028649,
			"0.002": 10.7094214208,
			"0.003": 13.4293989262,
			"0.004": 9.31427828452,
			"0.005": 12.6218888484,
			"0.006": 11.934672439,
			"0.007": 8.98364456722,
			"0.008": 8.91136033142,
			"0.009": 4.43838886969,
			"0.01": 1.83258660121,
			"0.011": 0.00817323631308,
			"0.012": 0.0,
			"0.013": 0.0,
			"0.014": 0.0,
			"0.015": 0.0,
			"0.016": 0.0,
			"0.017": 0.0,
			"0.018": 0.0,
			"0.019": 0.0,
			"0.02": 0.0,
			"0.021": 0.0,
			"0.022": 0.0,
			"0.023": 0.0,
			"0.024": 0.0,
			"0.025": 0.0
		}
	}
}
