{
	 "smiles": "NC1=CC(Cl)=C(SC2=CC=CC=C2)C=C1", 
	 "Tm": 329.15, 
	 "num_atms": 25, 
	 "gaussian": { 
		 "optdone": 1, 
		 "sigma_profile": "yes", 
		 "theory": "DFT", 
		 "functional": "B3LYP", 
		 "basiset": "6-31G**", 
		 "properties": { 
			 "R2extent": 4722.0411, 
			 "electric_dipole_moment_norm": 4.46182673128, 
			 "electric_quadrupole_moment_norm": 12.2821957988, 
			 "total_energy": -1376.433852, 
			 "HOMO_LUMO_gap": 0.18689, 
			 "cosmo_polarized_energy": -12.8, 
			 "cosmo_cavitation_energy": 32.46, 
			 "cosmo_dispersion_energy": -23.56, 
			 "cosmo_repulsion_energy": 1.82, 
			 "cosmo_total_nonelectrostatic_energy": 10.72, 
			 "SMD_solvation_energy": 4.74 
		},
		"coords": [
			{
				"x": 2.8280169351,
				"y": -2.6553470843,
				"z": -0.0775585189,
				"element": "N" 
			},
			{
				"x": 1.6769831868,
				"y": -1.8824525858,
				"z": -0.1124425597,
				"element": "C" 
			},
			{
				"x": 1.7142276032,
				"y": -0.5727076344,
				"z": -0.6223662618,
				"element": "C" 
			},
			{
				"x": 0.5498009021,
				"y": 0.1826289999,
				"z": -0.7133609637,
				"element": "C" 
			},
			{
				"x": 0.6924976228,
				"y": 1.8016901071,
				"z": -1.3695452762,
				"element": "Cl" 
			},
			{
				"x": -0.6946023173,
				"y": -0.3216221161,
				"z": -0.2882024327,
				"element": "C" 
			},
			{
				"x": -2.2373822597,
				"y": 0.5529798676,
				"z": -0.4659686764,
				"element": "S" 
			},
			{
				"x": -2.2201021424,
				"y": 1.7610675456,
				"z": 0.8629592382,
				"element": "C" 
			},
			{
				"x": -3.1017290443,
				"y": 2.844157445,
				"z": 0.7416174185,
				"element": "C" 
			},
			{
				"x": -3.1860321452,
				"y": 3.7935796949,
				"z": 1.7592452073,
				"element": "C" 
			},
			{
				"x": -2.3841402808,
				"y": 3.683221057,
				"z": 2.8971520058,
				"element": "C" 
			},
			{
				"x": -1.5010946761,
				"y": 2.6083911832,
				"z": 3.0111165489,
				"element": "C" 
			},
			{
				"x": -1.4205180156,
				"y": 1.6442443465,
				"z": 2.0051562346,
				"element": "C" 
			},
			{
				"x": -0.709045002,
				"y": -1.6309884526,
				"z": 0.2207272117,
				"element": "C" 
			},
			{
				"x": 0.4408819081,
				"y": -2.4040154106,
				"z": 0.3087571161,
				"element": "C" 
			},
			{
				"x": 3.7060694066,
				"y": -2.1571724022,
				"z": -0.0890873876,
				"element": "H" 
			},
			{
				"x": 2.8235243138,
				"y": -3.4356719482,
				"z": 0.5629926803,
				"element": "H" 
			},
			{
				"x": 2.6529089763,
				"y": -0.1457714182,
				"z": -0.960044787,
				"element": "H" 
			},
			{
				"x": -3.7135522458,
				"y": 2.9462050451,
				"z": -0.1503156818,
				"element": "H" 
			},
			{
				"x": -3.8730386043,
				"y": 4.6287568694,
				"z": 1.6545462264,
				"element": "H" 
			},
			{
				"x": -2.4447825904,
				"y": 4.4285685395,
				"z": 3.684520744,
				"element": "H" 
			},
			{
				"x": -0.8717196729,
				"y": 2.5120832743,
				"z": 3.8917419445,
				"element": "H" 
			},
			{
				"x": -0.7374457288,
				"y": 0.8075841338,
				"z": 2.106528619,
				"element": "H" 
			},
			{
				"x": -1.6571696118,
				"y": -2.0414973261,
				"z": 0.5527622107,
				"element": "H" 
			},
			{
				"x": 0.3869434826,
				"y": -3.4151117303,
				"z": 0.7028691396,
				"element": "H" 
			}
		],
		 "valence_orbital": [ 
			{
				"type": "occ",
				"energy": -0.27577,
				"method": "rhf"
			},
			{
				"type": "occ",
				"energy": -0.25093,
				"method": "rhf"
			},
			{
				"type": "occ",
				"energy": -0.24595,
				"method": "rhf"
			},
			{
				"type": "occ",
				"energy": -0.22185,
				"method": "rhf"
			},
			{
				"type": "occ",
				"energy": -0.20365,
				"method": "rhf"
			},
			{
				"type": "unocc",
				"energy": -0.01676,
				"method": "rhf"
			},
			{
				"type": "unocc",
				"energy": -0.01362,
				"method": "rhf"
			},
			{
				"type": "unocc",
				"energy": 0.00178,
				"method": "rhf"
			},
			{
				"type": "unocc",
				"energy": 0.00477,
				"method": "rhf"
			},
			{
				"type": "unocc",
				"energy": 0.02657,
				"method": "rhf"
			}
		],
		"cosmo_sigma_profile": { 
			"-0.025": 0.0,
			"-0.024": 0.0,
			"-0.023": 0.0,
			"-0.022": 0.0,
			"-0.021": 0.0,
			"-0.02": 0.0,
			"-0.019": 0.0,
			"-0.018": 0.0,
			"-0.017": 0.0,
			"-0.016": 0.0,
			"-0.015": 0.0,
			"-0.014": 0.135592449711,
			"-0.013": 2.40144375984,
			"-0.012": 3.26500728178,
			"-0.011": 3.47949420292,
			"-0.01": 3.17519614166,
			"-0.009": 3.06972540326,
			"-0.008": 3.57733926011,
			"-0.007": 4.38201628301,
			"-0.006": 11.3963777792,
			"-0.005": 15.9749599607,
			"-0.004": 15.805437877,
			"-0.003": 13.7692068276,
			"-0.002": 13.5455860389,
			"-0.001": 15.5924230886,
			"0.0": 16.8707395765,
			"0.001": 18.0410894825,
			"0.002": 21.8390518498,
			"0.003": 24.6190061865,
			"0.004": 27.1885172168,
			"0.005": 22.4189735301,
			"0.006": 12.4454777066,
			"0.007": 4.07844568639,
			"0.008": 3.19511813411,
			"0.009": 1.39522023107,
			"0.01": 0.526161387801,
			"0.011": 0.677744844431,
			"0.012": 0.670939875913,
			"0.013": 0.200972936498,
			"0.014": 0.0,
			"0.015": 0.0,
			"0.016": 0.0,
			"0.017": 0.0,
			"0.018": 0.0,
			"0.019": 0.0,
			"0.02": 0.0,
			"0.021": 0.0,
			"0.022": 0.0,
			"0.023": 0.0,
			"0.024": 0.0,
			"0.025": 0.0
		}
	}
}
