{
	 "smiles": "ON=C1C2=CC=CC=C2C2=CC=CC=C12", 
	 "Tm": 468.15, 
	 "num_atms": 24, 
	 "gaussian": { 
		 "optdone": 1, 
		 "sigma_profile": "yes", 
		 "theory": "DFT", 
		 "functional": "B3LYP", 
		 "basiset": "6-31G**", 
		 "properties": { 
			 "R2extent": 3282.7367, 
			 "electric_dipole_moment_norm": 0.275556110439, 
			 "electric_quadrupole_moment_norm": 11.8924448454, 
			 "total_energy": -630.740007188, 
			 "HOMO_LUMO_gap": 0.15466, 
			 "cosmo_polarized_energy": -8.9, 
			 "cosmo_cavitation_energy": 28.18, 
			 "cosmo_dispersion_energy": -20.99, 
			 "cosmo_repulsion_energy": 1.6, 
			 "cosmo_total_nonelectrostatic_energy": 8.79, 
			 "SMD_solvation_energy": 4.23 
		},
		"coords": [
			{
				"x": 3.0450413987,
				"y": -1.9637290517,
				"z": 0.9637661525,
				"element": "O" 
			},
			{
				"x": 1.6775517058,
				"y": -1.7359246371,
				"z": 1.1190907657,
				"element": "N" 
			},
			{
				"x": 1.2856848271,
				"y": -0.6579376976,
				"z": 0.5324222867,
				"element": "C" 
			},
			{
				"x": 1.9967265338,
				"y": 0.3683086936,
				"z": -0.261797106,
				"element": "C" 
			},
			{
				"x": 3.3358420632,
				"y": 0.4934511264,
				"z": -0.6309061689,
				"element": "C" 
			},
			{
				"x": 3.7187289025,
				"y": 1.5973217098,
				"z": -1.4021990184,
				"element": "C" 
			},
			{
				"x": 2.7805990241,
				"y": 2.5558375665,
				"z": -1.7957041012,
				"element": "C" 
			},
			{
				"x": 1.4355012809,
				"y": 2.4350848563,
				"z": -1.4279861882,
				"element": "C" 
			},
			{
				"x": 1.0446868697,
				"y": 1.3414171851,
				"z": -0.6613369246,
				"element": "C" 
			},
			{
				"x": -0.2774493496,
				"y": 0.9588430159,
				"z": -0.1354059758,
				"element": "C" 
			},
			{
				"x": -1.526276229,
				"y": 1.5671378885,
				"z": -0.2429790226,
				"element": "C" 
			},
			{
				"x": -2.6253326201,
				"y": 0.9599657868,
				"z": 0.3744272807,
				"element": "C" 
			},
			{
				"x": -2.4788274556,
				"y": -0.2355848735,
				"z": 1.087682428,
				"element": "C" 
			},
			{
				"x": -1.2274518585,
				"y": -0.8507115856,
				"z": 1.1989578649,
				"element": "C" 
			},
			{
				"x": -0.1353573697,
				"y": -0.2467800408,
				"z": 0.585112753,
				"element": "C" 
			},
			{
				"x": 3.1741390314,
				"y": -2.7889079495,
				"z": 1.4499952367,
				"element": "H" 
			},
			{
				"x": 4.0606918835,
				"y": -0.2495616318,
				"z": -0.3253357572,
				"element": "H" 
			},
			{
				"x": 4.7578593885,
				"y": 1.7088164649,
				"z": -1.6975945997,
				"element": "H" 
			},
			{
				"x": 3.0983772308,
				"y": 3.4050488677,
				"z": -2.3941192874,
				"element": "H" 
			},
			{
				"x": 0.7130535008,
				"y": 3.1847968781,
				"z": -1.7381850522,
				"element": "H" 
			},
			{
				"x": -1.6509039583,
				"y": 2.4949946368,
				"z": -0.7942038963,
				"element": "H" 
			},
			{
				"x": -3.6052418509,
				"y": 1.4227126891,
				"z": 0.2990815091,
				"element": "H" 
			},
			{
				"x": -3.3455917047,
				"y": -0.6895201765,
				"z": 1.5590681404,
				"element": "H" 
			},
			{
				"x": -1.1035512443,
				"y": -1.7776797216,
				"z": 1.749748681,
				"element": "H" 
			}
		],
		 "valence_orbital": [ 
			{
				"type": "occ",
				"energy": -0.27941,
				"method": "rhf"
			},
			{
				"type": "occ",
				"energy": -0.27598,
				"method": "rhf"
			},
			{
				"type": "occ",
				"energy": -0.25154,
				"method": "rhf"
			},
			{
				"type": "occ",
				"energy": -0.22706,
				"method": "rhf"
			},
			{
				"type": "occ",
				"energy": -0.21789,
				"method": "rhf"
			},
			{
				"type": "unocc",
				"energy": -0.06323,
				"method": "rhf"
			},
			{
				"type": "unocc",
				"energy": -0.02775,
				"method": "rhf"
			},
			{
				"type": "unocc",
				"energy": 0.00587,
				"method": "rhf"
			},
			{
				"type": "unocc",
				"energy": 0.03974,
				"method": "rhf"
			},
			{
				"type": "unocc",
				"energy": 0.06799,
				"method": "rhf"
			}
		],
		"cosmo_sigma_profile": { 
			"-0.025": 0.0,
			"-0.024": 0.0,
			"-0.023": 0.0,
			"-0.022": 0.0,
			"-0.021": 0.0,
			"-0.02": 0.0,
			"-0.019": 0.00529386708859,
			"-0.018": 0.607115393014,
			"-0.017": 1.17961063057,
			"-0.016": 0.943334804282,
			"-0.015": 0.637984603733,
			"-0.014": 0.839184886808,
			"-0.013": 0.770643859798,
			"-0.012": 0.290662638971,
			"-0.011": 0.549587340461,
			"-0.01": 0.912324783673,
			"-0.009": 0.866659166995,
			"-0.008": 0.770398683274,
			"-0.007": 1.71503834547,
			"-0.006": 13.8972823693,
			"-0.005": 14.9194495246,
			"-0.004": 18.8621417726,
			"-0.003": 13.2019986082,
			"-0.002": 11.4506503729,
			"-0.001": 9.62073952127,
			"0.0": 13.5769625318,
			"0.001": 16.6870221888,
			"0.002": 20.7946076016,
			"0.003": 26.4214282502,
			"0.004": 27.3486078042,
			"0.005": 18.3945592138,
			"0.006": 3.64942416157,
			"0.007": 3.024174367,
			"0.008": 1.8773688751,
			"0.009": 1.44402298853,
			"0.01": 0.945578797217,
			"0.011": 0.631265435907,
			"0.012": 0.0696903902589,
			"0.013": 0.0,
			"0.014": 0.0,
			"0.015": 0.0,
			"0.016": 0.0,
			"0.017": 0.0,
			"0.018": 0.0,
			"0.019": 0.0,
			"0.02": 0.0,
			"0.021": 0.0,
			"0.022": 0.0,
			"0.023": 0.0,
			"0.024": 0.0,
			"0.025": 0.0
		}
	}
}
