{
	 "smiles": "CC1=C(SC2=NN=C(S)N12)C(O)=O", 
	 "Tm": 549.15, 
	 "num_atms": 18, 
	 "gaussian": { 
		 "optdone": 1, 
		 "sigma_profile": "yes", 
		 "theory": "DFT", 
		 "functional": "B3LYP", 
		 "basiset": "6-31G**", 
		 "properties": { 
			 "R2extent": 3806.2725, 
			 "electric_dipole_moment_norm": 1.27432449949, 
			 "electric_quadrupole_moment_norm": 21.8857368055, 
			 "total_energy": -1342.68042563, 
			 "HOMO_LUMO_gap": 0.15794, 
			 "cosmo_polarized_energy": -19.18, 
			 "cosmo_cavitation_energy": 25.88, 
			 "cosmo_dispersion_energy": -20.48, 
			 "cosmo_repulsion_energy": 1.5, 
			 "cosmo_total_nonelectrostatic_energy": 6.89, 
			 "SMD_solvation_energy": 3.11 
		},
		"coords": [
			{
				"x": -0.0703989822,
				"y": -0.4690159023,
				"z": 1.3841836567,
				"element": "C" 
			},
			{
				"x": 1.0396578502,
				"y": -0.3047516563,
				"z": 0.3978041456,
				"element": "C" 
			},
			{
				"x": 2.2025180027,
				"y": -1.0148089132,
				"z": 0.2750347865,
				"element": "C" 
			},
			{
				"x": 3.2344785402,
				"y": -0.4432811833,
				"z": -1.074261334,
				"element": "S" 
			},
			{
				"x": 2.0405751639,
				"y": 0.7731217594,
				"z": -1.4509490055,
				"element": "C" 
			},
			{
				"x": 1.8999685089,
				"y": 1.7241167628,
				"z": -2.3288144463,
				"element": "N" 
			},
			{
				"x": 0.675266099,
				"y": 2.3197802078,
				"z": -2.0424708927,
				"element": "N" 
			},
			{
				"x": 0.1328301836,
				"y": 1.709388767,
				"z": -1.0135867242,
				"element": "C" 
			},
			{
				"x": -1.4236397206,
				"y": 2.1149329785,
				"z": -0.2869866338,
				"element": "S" 
			},
			{
				"x": 0.9656402313,
				"y": 0.692883143,
				"z": -0.577362912,
				"element": "N" 
			},
			{
				"x": 2.6183129806,
				"y": -2.1491353598,
				"z": 1.1400630914,
				"element": "C" 
			},
			{
				"x": 3.8106315178,
				"y": -2.7340119026,
				"z": 0.8694609943,
				"element": "O" 
			},
			{
				"x": 1.952030443,
				"y": -2.5663878696,
				"z": 2.0608461098,
				"element": "O" 
			},
			{
				"x": 0.1598199491,
				"y": -1.2884883607,
				"z": 2.0605842013,
				"element": "H" 
			},
			{
				"x": -0.2055676888,
				"y": 0.4522298916,
				"z": 1.9618394116,
				"element": "H" 
			},
			{
				"x": -1.0123447036,
				"y": -0.6794624704,
				"z": 0.8654295089,
				"element": "H" 
			},
			{
				"x": -1.6297854407,
				"y": 3.1146170165,
				"z": -1.1658135114,
				"element": "H" 
			},
			{
				"x": 4.2727070656,
				"y": -2.3346269085,
				"z": 0.1187995538,
				"element": "H" 
			}
		],
		 "valence_orbital": [ 
			{
				"type": "occ",
				"energy": -0.31628,
				"method": "rhf"
			},
			{
				"type": "occ",
				"energy": -0.29846,
				"method": "rhf"
			},
			{
				"type": "occ",
				"energy": -0.28209,
				"method": "rhf"
			},
			{
				"type": "occ",
				"energy": -0.27623,
				"method": "rhf"
			},
			{
				"type": "occ",
				"energy": -0.23619,
				"method": "rhf"
			},
			{
				"type": "unocc",
				"energy": -0.07825,
				"method": "rhf"
			},
			{
				"type": "unocc",
				"energy": -0.03837,
				"method": "rhf"
			},
			{
				"type": "unocc",
				"energy": -0.01032,
				"method": "rhf"
			},
			{
				"type": "unocc",
				"energy": 0.00554,
				"method": "rhf"
			},
			{
				"type": "unocc",
				"energy": 0.02024,
				"method": "rhf"
			}
		],
		"cosmo_sigma_profile": { 
			"-0.025": 0.0,
			"-0.024": 0.0,
			"-0.023": 0.0,
			"-0.022": 0.0,
			"-0.021": 0.0,
			"-0.02": 0.0763281990913,
			"-0.019": 0.628461110135,
			"-0.018": 0.546813765166,
			"-0.017": 0.950729039353,
			"-0.016": 0.677149468333,
			"-0.015": 1.18423530474,
			"-0.014": 0.810589817215,
			"-0.013": 1.88932805991,
			"-0.012": 2.64266171812,
			"-0.011": 2.40606324515,
			"-0.01": 2.14959504216,
			"-0.009": 3.17190653538,
			"-0.008": 3.90605146404,
			"-0.007": 7.11320650109,
			"-0.006": 9.38182953208,
			"-0.005": 11.7150320258,
			"-0.004": 15.0012629851,
			"-0.003": 17.8875833118,
			"-0.002": 18.8412513907,
			"-0.001": 12.9399617535,
			"0.0": 12.6583339084,
			"0.001": 10.9288001986,
			"0.002": 10.0740364269,
			"0.003": 6.89562847997,
			"0.004": 6.39081106193,
			"0.005": 5.65992002741,
			"0.006": 5.5778973122,
			"0.007": 3.69821141269,
			"0.008": 5.78994732403,
			"0.009": 6.04086733159,
			"0.01": 7.02015847652,
			"0.011": 5.95726551754,
			"0.012": 5.05349930455,
			"0.013": 3.55782144281,
			"0.014": 2.12976212083,
			"0.015": 1.72213498915,
			"0.016": 0.161550016009,
			"0.017": 0.0,
			"0.018": 0.0,
			"0.019": 0.0,
			"0.02": 0.0,
			"0.021": 0.0,
			"0.022": 0.0,
			"0.023": 0.0,
			"0.024": 0.0,
			"0.025": 0.0
		}
	}
}
