{
	 "smiles": "ClS(=O)(=O)C1=C(N=C(S1)C1=CC=CC=C1)C1=CC=CC=C1", 
	 "Tm": 447.15, 
	 "num_atms": 31, 
	 "gaussian": { 
		 "optdone": 1, 
		 "sigma_profile": "yes", 
		 "theory": "DFT", 
		 "functional": "B3LYP", 
		 "basiset": "6-31G**", 
		 "properties": { 
			 "R2extent": 9147.2949, 
			 "electric_dipole_moment_norm": 5.7193159626, 
			 "electric_quadrupole_moment_norm": 21.5295390099, 
			 "total_energy": -2039.3144216, 
			 "HOMO_LUMO_gap": 0.13882, 
			 "cosmo_polarized_energy": -10.12, 
			 "cosmo_cavitation_energy": 40.39, 
			 "cosmo_dispersion_energy": -29.71, 
			 "cosmo_repulsion_energy": 2.17, 
			 "cosmo_total_nonelectrostatic_energy": 12.86, 
			 "SMD_solvation_energy": 4.25 
		},
		"coords": [
			{
				"x": 1.7704599515,
				"y": 3.6867802774,
				"z": -1.6968719791,
				"element": "Cl" 
			},
			{
				"x": 2.3845403039,
				"y": 3.0157128132,
				"z": 0.2276427673,
				"element": "S" 
			},
			{
				"x": 3.8162024238,
				"y": 2.750272456,
				"z": 0.1372691076,
				"element": "O" 
			},
			{
				"x": 1.8600401722,
				"y": 3.9926547091,
				"z": 1.1745382012,
				"element": "O" 
			},
			{
				"x": 1.5791543317,
				"y": 1.4550149305,
				"z": 0.3680761059,
				"element": "C" 
			},
			{
				"x": 0.2393424556,
				"y": 1.0740957978,
				"z": 0.3478883498,
				"element": "C" 
			},
			{
				"x": 0.0756258716,
				"y": -0.2883999411,
				"z": 0.3524909968,
				"element": "N" 
			},
			{
				"x": 1.2076751297,
				"y": -0.9515582502,
				"z": 0.3714074587,
				"element": "C" 
			},
			{
				"x": 2.6343831342,
				"y": 0.0614851245,
				"z": 0.3790799856,
				"element": "S" 
			},
			{
				"x": 1.2835924063,
				"y": -2.4168224834,
				"z": 0.4125861435,
				"element": "C" 
			},
			{
				"x": 2.5028085993,
				"y": -3.1005854548,
				"z": 0.2731616559,
				"element": "C" 
			},
			{
				"x": 2.538270997,
				"y": -4.4916360129,
				"z": 0.3167038628,
				"element": "C" 
			},
			{
				"x": 1.358249029,
				"y": -5.2175532005,
				"z": 0.4963377118,
				"element": "C" 
			},
			{
				"x": 0.1410842914,
				"y": -4.5446495595,
				"z": 0.6325403089,
				"element": "C" 
			},
			{
				"x": 0.0996798037,
				"y": -3.1542192428,
				"z": 0.5923531236,
				"element": "C" 
			},
			{
				"x": -0.986856644,
				"y": 1.8948877917,
				"z": 0.2690916561,
				"element": "C" 
			},
			{
				"x": -1.1104187768,
				"y": 3.1572831039,
				"z": 0.8720922861,
				"element": "C" 
			},
			{
				"x": -2.3066081284,
				"y": 3.866883354,
				"z": 0.7717234793,
				"element": "C" 
			},
			{
				"x": -3.3899183996,
				"y": 3.3339825637,
				"z": 0.072729215,
				"element": "C" 
			},
			{
				"x": -3.2784166108,
				"y": 2.0739402562,
				"z": -0.5209977007,
				"element": "C" 
			},
			{
				"x": -2.0916408898,
				"y": 1.3556693211,
				"z": -0.4175002937,
				"element": "C" 
			},
			{
				"x": 3.426985724,
				"y": -2.5494521346,
				"z": 0.1208850599,
				"element": "H" 
			},
			{
				"x": 3.4862058804,
				"y": -5.0091515133,
				"z": 0.2063539191,
				"element": "H" 
			},
			{
				"x": 1.3876755609,
				"y": -6.3025859903,
				"z": 0.529421042,
				"element": "H" 
			},
			{
				"x": -0.7779675974,
				"y": -5.1054808106,
				"z": 0.7736505729,
				"element": "H" 
			},
			{
				"x": -0.8366301105,
				"y": -2.6188317035,
				"z": 0.7014850943,
				"element": "H" 
			},
			{
				"x": -0.2861278724,
				"y": 3.5772855317,
				"z": 1.432659629,
				"element": "H" 
			},
			{
				"x": -2.3898980435,
				"y": 4.8389370378,
				"z": 1.2483744752,
				"element": "H" 
			},
			{
				"x": -4.3178622288,
				"y": 3.8932043155,
				"z": -0.0047078488,
				"element": "H" 
			},
			{
				"x": -4.1181602533,
				"y": 1.6497358865,
				"z": -1.0635331268,
				"element": "H" 
			},
			{
				"x": -2.002170511,
				"y": 0.3736010267,
				"z": -0.867531259,
				"element": "H" 
			}
		],
		 "valence_orbital": [ 
			{
				"type": "occ",
				"energy": -0.29362,
				"method": "rhf"
			},
			{
				"type": "occ",
				"energy": -0.27378,
				"method": "rhf"
			},
			{
				"type": "occ",
				"energy": -0.26309,
				"method": "rhf"
			},
			{
				"type": "occ",
				"energy": -0.25879,
				"method": "rhf"
			},
			{
				"type": "occ",
				"energy": -0.24062,
				"method": "rhf"
			},
			{
				"type": "unocc",
				"energy": -0.1018,
				"method": "rhf"
			},
			{
				"type": "unocc",
				"energy": -0.06955,
				"method": "rhf"
			},
			{
				"type": "unocc",
				"energy": -0.04236,
				"method": "rhf"
			},
			{
				"type": "unocc",
				"energy": -0.02242,
				"method": "rhf"
			},
			{
				"type": "unocc",
				"energy": -0.01329,
				"method": "rhf"
			}
		],
		"cosmo_sigma_profile": { 
			"-0.025": 0.0,
			"-0.024": 0.0,
			"-0.023": 0.0,
			"-0.022": 0.0,
			"-0.021": 0.0,
			"-0.02": 0.0,
			"-0.019": 0.0,
			"-0.018": 0.0,
			"-0.017": 0.0,
			"-0.016": 0.0,
			"-0.015": 0.0,
			"-0.014": 0.0,
			"-0.013": 0.0,
			"-0.012": 0.0,
			"-0.011": 0.0,
			"-0.01": 0.0,
			"-0.009": 0.135417685108,
			"-0.008": 1.53364697918,
			"-0.007": 6.60653077279,
			"-0.006": 18.3736751613,
			"-0.005": 22.3247985504,
			"-0.004": 23.3089802558,
			"-0.003": 23.3904831013,
			"-0.002": 27.2636028554,
			"-0.001": 23.6966454725,
			"0.0": 27.8480005592,
			"0.001": 27.844946329,
			"0.002": 31.1090181681,
			"0.003": 40.0643085568,
			"0.004": 27.0173867148,
			"0.005": 7.89867272187,
			"0.006": 4.84381896772,
			"0.007": 7.34579790295,
			"0.008": 8.39007740264,
			"0.009": 2.10405992419,
			"0.01": 0.0,
			"0.011": 0.0,
			"0.012": 0.0,
			"0.013": 0.0,
			"0.014": 0.0,
			"0.015": 0.0,
			"0.016": 0.0,
			"0.017": 0.0,
			"0.018": 0.0,
			"0.019": 0.0,
			"0.02": 0.0,
			"0.021": 0.0,
			"0.022": 0.0,
			"0.023": 0.0,
			"0.024": 0.0,
			"0.025": 0.0
		}
	}
}
