{
	 "smiles": "OC1=C2OC(=O)C=CC2=CC2=C1OC=C2", 
	 "Tm": 525.15, 
	 "num_atms": 21, 
	 "gaussian": { 
		 "optdone": 1, 
		 "sigma_profile": "yes", 
		 "theory": "DFT", 
		 "functional": "B3LYP", 
		 "basiset": "6-31G**", 
		 "properties": { 
			 "R2extent": 3258.9897, 
			 "electric_dipole_moment_norm": 6.66742853955, 
			 "electric_quadrupole_moment_norm": 22.9392457736, 
			 "total_energy": -723.655397582, 
			 "HOMO_LUMO_gap": 0.15454, 
			 "cosmo_polarized_energy": -16.47, 
			 "cosmo_cavitation_energy": 26.29, 
			 "cosmo_dispersion_energy": -19.92, 
			 "cosmo_repulsion_energy": 1.52, 
			 "cosmo_total_nonelectrostatic_energy": 7.88, 
			 "SMD_solvation_energy": 6.68 
		},
		"coords": [
			{
				"x": 0.7472291129,
				"y": -1.1784211979,
				"z": 2.7975675716,
				"element": "O" 
			},
			{
				"x": 0.389954562,
				"y": -0.5525543428,
				"z": 1.6486594583,
				"element": "C" 
			},
			{
				"x": 0.3896091849,
				"y": -1.2449392328,
				"z": 0.4289765094,
				"element": "C" 
			},
			{
				"x": 0.762816261,
				"y": -2.5569316617,
				"z": 0.4724073303,
				"element": "O" 
			},
			{
				"x": 0.8088397689,
				"y": -3.3677882609,
				"z": -0.6600212541,
				"element": "C" 
			},
			{
				"x": 1.1529385977,
				"y": -4.5177361272,
				"z": -0.5209722781,
				"element": "O" 
			},
			{
				"x": 0.4311540106,
				"y": -2.7294355375,
				"z": -1.9180707793,
				"element": "C" 
			},
			{
				"x": 0.0601932167,
				"y": -1.4316016395,
				"z": -1.9724299341,
				"element": "C" 
			},
			{
				"x": 0.0194548916,
				"y": -0.6106110516,
				"z": -0.7858090866,
				"element": "C" 
			},
			{
				"x": -0.3619037687,
				"y": 0.7409424165,
				"z": -0.8104601688,
				"element": "C" 
			},
			{
				"x": -0.368397418,
				"y": 1.4477074736,
				"z": 0.3917095503,
				"element": "C" 
			},
			{
				"x": 0.0053439972,
				"y": 0.7822109201,
				"z": 1.5746948573,
				"element": "C" 
			},
			{
				"x": -0.0584105658,
				"y": 1.6231616035,
				"z": 2.6527307994,
				"element": "O" 
			},
			{
				"x": -0.4777652619,
				"y": 2.8393611321,
				"z": 2.1512080263,
				"element": "C" 
			},
			{
				"x": -0.6785804619,
				"y": 2.7977739718,
				"z": 0.8132789469,
				"element": "C" 
			},
			{
				"x": 0.6853131273,
				"y": -0.5432671002,
				"z": 3.5247432728,
				"element": "H" 
			},
			{
				"x": 0.4691335206,
				"y": -3.3639425564,
				"z": -2.7952989194,
				"element": "H" 
			},
			{
				"x": -0.2171218837,
				"y": -0.9775188784,
				"z": -2.9207606705,
				"element": "H" 
			},
			{
				"x": -0.6412022671,
				"y": 1.2068241885,
				"z": -1.7498966035,
				"element": "H" 
			},
			{
				"x": -0.5804868176,
				"y": 3.6241179379,
				"z": 2.8848444328,
				"element": "H" 
			},
			{
				"x": -1.0065118066,
				"y": 3.6186479427,
				"z": 0.192098939,
				"element": "H" 
			}
		],
		 "valence_orbital": [ 
			{
				"type": "occ",
				"energy": -0.31389,
				"method": "rhf"
			},
			{
				"type": "occ",
				"energy": -0.28071,
				"method": "rhf"
			},
			{
				"type": "occ",
				"energy": -0.26854,
				"method": "rhf"
			},
			{
				"type": "occ",
				"energy": -0.23368,
				"method": "rhf"
			},
			{
				"type": "occ",
				"energy": -0.21748,
				"method": "rhf"
			},
			{
				"type": "unocc",
				"energy": -0.06294,
				"method": "rhf"
			},
			{
				"type": "unocc",
				"energy": -0.02525,
				"method": "rhf"
			},
			{
				"type": "unocc",
				"energy": 0.0127,
				"method": "rhf"
			},
			{
				"type": "unocc",
				"energy": 0.04166,
				"method": "rhf"
			},
			{
				"type": "unocc",
				"energy": 0.0514,
				"method": "rhf"
			}
		],
		"cosmo_sigma_profile": { 
			"-0.025": 0.0,
			"-0.024": 0.0,
			"-0.023": 0.0,
			"-0.022": 0.0,
			"-0.021": 0.0,
			"-0.02": 0.0,
			"-0.019": 0.0,
			"-0.018": 0.160825738907,
			"-0.017": 0.710815872646,
			"-0.016": 0.893318864184,
			"-0.015": 0.758605944454,
			"-0.014": 0.254709523809,
			"-0.013": 0.63153092272,
			"-0.012": 0.827974212289,
			"-0.011": 1.10616501004,
			"-0.01": 2.4786731697,
			"-0.009": 3.31622512878,
			"-0.008": 8.5867586625,
			"-0.007": 10.8806247074,
			"-0.006": 10.3552529954,
			"-0.005": 9.88798217275,
			"-0.004": 9.45169027557,
			"-0.003": 9.20320214916,
			"-0.002": 11.3148433801,
			"-0.001": 12.6787974447,
			"0.0": 23.5106276169,
			"0.001": 21.0630215075,
			"0.002": 14.6698572452,
			"0.003": 14.3306903342,
			"0.004": 6.93672877352,
			"0.005": 3.64827829015,
			"0.006": 3.8110057801,
			"0.007": 3.37795340735,
			"0.008": 2.93437015398,
			"0.009": 3.71203155388,
			"0.01": 5.83314024327,
			"0.011": 5.94687131497,
			"0.012": 6.39004575642,
			"0.013": 2.95894147379,
			"0.014": 0.109421806523,
			"0.015": 0.0,
			"0.016": 0.0,
			"0.017": 0.0,
			"0.018": 0.0,
			"0.019": 0.0,
			"0.02": 0.0,
			"0.021": 0.0,
			"0.022": 0.0,
			"0.023": 0.0,
			"0.024": 0.0,
			"0.025": 0.0
		}
	}
}
