{
	 "smiles": "CN1C=CC=CC1=O", 
	 "Tm": 304.15, 
	 "num_atms": 15, 
	 "gaussian": { 
		 "optdone": 1, 
		 "sigma_profile": "yes", 
		 "theory": "DFT", 
		 "functional": "B3LYP", 
		 "basiset": "6-31G**", 
		 "properties": { 
			 "R2extent": 1134.0285, 
			 "electric_dipole_moment_norm": 3.92374923383, 
			 "electric_quadrupole_moment_norm": 11.1175265392, 
			 "total_energy": -362.832755705, 
			 "HOMO_LUMO_gap": 0.17378, 
			 "cosmo_polarized_energy": -10.9, 
			 "cosmo_cavitation_energy": 18.49, 
			 "cosmo_dispersion_energy": -13.98, 
			 "cosmo_repulsion_energy": 1.15, 
			 "cosmo_total_nonelectrostatic_energy": 5.66, 
			 "SMD_solvation_energy": 4.4 
		},
		"coords": [
			{
				"x": 0.576317213,
				"y": 2.9079093157,
				"z": -0.0361375556,
				"element": "C" 
			},
			{
				"x": 0.8090440659,
				"y": 1.4782132977,
				"z": 0.1821133309,
				"element": "N" 
			},
			{
				"x": 0.8906967715,
				"y": 0.996670623,
				"z": 1.4585045846,
				"element": "C" 
			},
			{
				"x": 1.1055896186,
				"y": -0.3241946116,
				"z": 1.7244789927,
				"element": "C" 
			},
			{
				"x": 1.2466004918,
				"y": -1.2149964665,
				"z": 0.6226845192,
				"element": "C" 
			},
			{
				"x": 1.168105917,
				"y": -0.7533825927,
				"z": -0.6592350028,
				"element": "C" 
			},
			{
				"x": 0.9410850557,
				"y": 0.6458926315,
				"z": -0.9679516445,
				"element": "C" 
			},
			{
				"x": 0.8593722012,
				"y": 1.1213590803,
				"z": -2.0995873766,
				"element": "O" 
			},
			{
				"x": -0.3759472441,
				"y": 3.211631476,
				"z": 0.4087877301,
				"element": "H" 
			},
			{
				"x": 1.3859833011,
				"y": 3.4976769972,
				"z": 0.4038918641,
				"element": "H" 
			},
			{
				"x": 0.5474155892,
				"y": 3.06758651,
				"z": -1.1125457674,
				"element": "H" 
			},
			{
				"x": 0.7728836867,
				"y": 1.7366871496,
				"z": 2.243758069,
				"element": "H" 
			},
			{
				"x": 1.1644253479,
				"y": -0.6695647599,
				"z": 2.7490605278,
				"element": "H" 
			},
			{
				"x": 1.4182441383,
				"y": -2.2723131358,
				"z": 0.8074773325,
				"element": "H" 
			},
			{
				"x": 1.2715838463,
				"y": -1.4090755144,
				"z": -1.5159996041,
				"element": "H" 
			}
		],
		 "valence_orbital": [ 
			{
				"type": "occ",
				"energy": -0.36859,
				"method": "rhf"
			},
			{
				"type": "occ",
				"energy": -0.33488,
				"method": "rhf"
			},
			{
				"type": "occ",
				"energy": -0.29232,
				"method": "rhf"
			},
			{
				"type": "occ",
				"energy": -0.24506,
				"method": "rhf"
			},
			{
				"type": "occ",
				"energy": -0.21186,
				"method": "rhf"
			},
			{
				"type": "unocc",
				"energy": -0.03808,
				"method": "rhf"
			},
			{
				"type": "unocc",
				"energy": 0.01889,
				"method": "rhf"
			},
			{
				"type": "unocc",
				"energy": 0.08484,
				"method": "rhf"
			},
			{
				"type": "unocc",
				"energy": 0.10907,
				"method": "rhf"
			},
			{
				"type": "unocc",
				"energy": 0.13022,
				"method": "rhf"
			}
		],
		"cosmo_sigma_profile": { 
			"-0.025": 0.0,
			"-0.024": 0.0,
			"-0.023": 0.0,
			"-0.022": 0.0,
			"-0.021": 0.0,
			"-0.02": 0.0,
			"-0.019": 0.0,
			"-0.018": 0.0,
			"-0.017": 0.0,
			"-0.016": 0.0,
			"-0.015": 0.0,
			"-0.014": 0.0,
			"-0.013": 0.0,
			"-0.012": 0.0,
			"-0.011": 0.0,
			"-0.01": 0.0,
			"-0.009": 1.11574492296,
			"-0.008": 2.61489200878,
			"-0.007": 6.45578276551,
			"-0.006": 13.8499144769,
			"-0.005": 12.817695205,
			"-0.004": 12.1220515999,
			"-0.003": 11.624622371,
			"-0.002": 11.439190574,
			"-0.001": 7.77895978422,
			"0.0": 10.5979338107,
			"0.001": 7.90913821119,
			"0.002": 9.98863624724,
			"0.003": 9.19381021932,
			"0.004": 7.63652631642,
			"0.005": 1.92264784399,
			"0.006": 1.31542249187,
			"0.007": 1.74126278625,
			"0.008": 0.797235055505,
			"0.009": 1.84555192814,
			"0.01": 1.28217662192,
			"0.011": 1.37762382683,
			"0.012": 1.48889603231,
			"0.013": 1.8797350791,
			"0.014": 4.93835756201,
			"0.015": 3.13227776413,
			"0.016": 0.749402036898,
			"0.017": 0.0,
			"0.018": 0.0,
			"0.019": 0.0,
			"0.02": 0.0,
			"0.021": 0.0,
			"0.022": 0.0,
			"0.023": 0.0,
			"0.024": 0.0,
			"0.025": 0.0
		}
	}
}
