{
	 "smiles": "CC1=CC=C(NC2=NC(C)(C)CS2)C=C1", 
	 "Tm": 438.15, 
	 "num_atms": 31, 
	 "gaussian": { 
		 "optdone": 1, 
		 "sigma_profile": "yes", 
		 "theory": "DFT", 
		 "functional": "B3LYP", 
		 "basiset": "6-31G**", 
		 "properties": { 
			 "R2extent": 5284.1223, 
			 "electric_dipole_moment_norm": 0.496857293395, 
			 "electric_quadrupole_moment_norm": 10.9878996815, 
			 "total_energy": -974.632404975, 
			 "HOMO_LUMO_gap": 0.19984, 
			 "cosmo_polarized_energy": -9.47, 
			 "cosmo_cavitation_energy": 34.58, 
			 "cosmo_dispersion_energy": -25.3, 
			 "cosmo_repulsion_energy": 1.94, 
			 "cosmo_total_nonelectrostatic_energy": 11.21, 
			 "SMD_solvation_energy": 4.14 
		},
		"coords": [
			{
				"x": -0.0293933473,
				"y": 1.4823975811,
				"z": -4.4980728083,
				"element": "C" 
			},
			{
				"x": 0.0243884908,
				"y": 1.1596097672,
				"z": -3.0233188423,
				"element": "C" 
			},
			{
				"x": 0.4534741809,
				"y": 2.1110465867,
				"z": -2.0877494735,
				"element": "C" 
			},
			{
				"x": 0.5309812148,
				"y": 1.8082183531,
				"z": -0.7329131882,
				"element": "C" 
			},
			{
				"x": 0.178318165,
				"y": 0.5317437121,
				"z": -0.2654828806,
				"element": "C" 
			},
			{
				"x": 0.2748557535,
				"y": 0.3019343103,
				"z": 1.1217261092,
				"element": "N" 
			},
			{
				"x": -0.0133789788,
				"y": -0.8299073379,
				"z": 1.8364046699,
				"element": "C" 
			},
			{
				"x": -0.3541454764,
				"y": -1.9694363447,
				"z": 1.3751328924,
				"element": "N" 
			},
			{
				"x": -0.6995786585,
				"y": -2.9400184685,
				"z": 2.421015332,
				"element": "C" 
			},
			{
				"x": -2.2333232523,
				"y": -2.9846248046,
				"z": 2.5560883971,
				"element": "C" 
			},
			{
				"x": -0.1557401684,
				"y": -4.3207883509,
				"z": 2.0282250872,
				"element": "C" 
			},
			{
				"x": -0.040000406,
				"y": -2.4706064996,
				"z": 3.7607616277,
				"element": "C" 
			},
			{
				"x": 0.0906238698,
				"y": -0.6479773214,
				"z": 3.6440190207,
				"element": "S" 
			},
			{
				"x": -0.2541885658,
				"y": -0.4334038186,
				"z": -1.1853468955,
				"element": "C" 
			},
			{
				"x": -0.3265341034,
				"y": -0.1056387785,
				"z": -2.5394057625,
				"element": "C" 
			},
			{
				"x": 0.9466844245,
				"y": 1.3348007798,
				"z": -4.9780705184,
				"element": "H" 
			},
			{
				"x": -0.3188656839,
				"y": 2.5240567104,
				"z": -4.6709309068,
				"element": "H" 
			},
			{
				"x": -0.7473482133,
				"y": 0.8431558515,
				"z": -5.0207225263,
				"element": "H" 
			},
			{
				"x": 0.7294653469,
				"y": 3.1081534266,
				"z": -2.4224969953,
				"element": "H" 
			},
			{
				"x": 0.8611508697,
				"y": 2.568864209,
				"z": -0.0281936689,
				"element": "H" 
			},
			{
				"x": 0.643731329,
				"y": 1.071915924,
				"z": 1.6592608347,
				"element": "H" 
			},
			{
				"x": -2.6201028514,
				"y": -2.0194206615,
				"z": 2.8970307592,
				"element": "H" 
			},
			{
				"x": -2.5418315078,
				"y": -3.755779149,
				"z": 3.2707009184,
				"element": "H" 
			},
			{
				"x": -2.6855397153,
				"y": -3.2094750618,
				"z": 1.5862611883,
				"element": "H" 
			},
			{
				"x": -0.621856308,
				"y": -4.6601698051,
				"z": 1.0987371276,
				"element": "H" 
			},
			{
				"x": 0.9258618139,
				"y": -4.2779177661,
				"z": 1.8692450947,
				"element": "H" 
			},
			{
				"x": -0.3656995798,
				"y": -5.0605284152,
				"z": 2.8084479533,
				"element": "H" 
			},
			{
				"x": 0.9632199698,
				"y": -2.8890755813,
				"z": 3.8787129658,
				"element": "H" 
			},
			{
				"x": -0.6414896809,
				"y": -2.7369280725,
				"z": 4.6323736989,
				"element": "H" 
			},
			{
				"x": -0.5241231285,
				"y": -1.4186186626,
				"z": -0.8307046111,
				"element": "H" 
			},
			{
				"x": -0.6674158026,
				"y": -0.8655823122,
				"z": -3.2388345993,
				"element": "H" 
			}
		],
		 "valence_orbital": [ 
			{
				"type": "occ",
				"energy": -0.27982,
				"method": "rhf"
			},
			{
				"type": "occ",
				"energy": -0.25604,
				"method": "rhf"
			},
			{
				"type": "occ",
				"energy": -0.2446,
				"method": "rhf"
			},
			{
				"type": "occ",
				"energy": -0.22723,
				"method": "rhf"
			},
			{
				"type": "occ",
				"energy": -0.20191,
				"method": "rhf"
			},
			{
				"type": "unocc",
				"energy": -0.00207,
				"method": "rhf"
			},
			{
				"type": "unocc",
				"energy": 0.00426,
				"method": "rhf"
			},
			{
				"type": "unocc",
				"energy": 0.00461,
				"method": "rhf"
			},
			{
				"type": "unocc",
				"energy": 0.05296,
				"method": "rhf"
			},
			{
				"type": "unocc",
				"energy": 0.07625,
				"method": "rhf"
			}
		],
		"cosmo_sigma_profile": { 
			"-0.025": 0.0,
			"-0.024": 0.0,
			"-0.023": 0.0,
			"-0.022": 0.0,
			"-0.021": 0.0,
			"-0.02": 0.0,
			"-0.019": 0.0,
			"-0.018": 0.0,
			"-0.017": 0.0,
			"-0.016": 0.0412608878116,
			"-0.015": 1.06839854962,
			"-0.014": 0.780603782327,
			"-0.013": 1.03103361499,
			"-0.012": 1.43033073688,
			"-0.011": 1.34577793449,
			"-0.01": 1.26351859112,
			"-0.009": 1.01333689249,
			"-0.008": 1.21766834419,
			"-0.007": 1.8374813379,
			"-0.006": 4.14587569709,
			"-0.005": 9.92734651865,
			"-0.004": 21.6272087062,
			"-0.003": 29.6213855025,
			"-0.002": 27.1852805171,
			"-0.001": 25.4370520425,
			"0.0": 28.4270331619,
			"0.001": 25.1831629155,
			"0.002": 16.6661103108,
			"0.003": 16.4779477544,
			"0.004": 15.4605080635,
			"0.005": 13.890007762,
			"0.006": 14.2019173468,
			"0.007": 7.09980548454,
			"0.008": 4.6269137956,
			"0.009": 1.86239323719,
			"0.01": 1.07065373733,
			"0.011": 0.58546330399,
			"0.012": 0.0338291615229,
			"0.013": 0.0,
			"0.014": 0.0,
			"0.015": 0.0,
			"0.016": 0.0,
			"0.017": 0.0,
			"0.018": 0.0,
			"0.019": 0.0,
			"0.02": 0.0,
			"0.021": 0.0,
			"0.022": 0.0,
			"0.023": 0.0,
			"0.024": 0.0,
			"0.025": 0.0
		}
	}
}
