{
	 "smiles": "CCNC1=NC(OC)=NC(NC(C)(C)C)=N1", 
	 "Tm": 397.15, 
	 "num_atms": 35, 
	 "gaussian": { 
		 "optdone": 1, 
		 "sigma_profile": "yes", 
		 "theory": "DFT", 
		 "functional": "B3LYP", 
		 "basiset": "6-31G**", 
		 "properties": { 
			 "R2extent": 5355.5867, 
			 "electric_dipole_moment_norm": 2.09622754967, 
			 "electric_quadrupole_moment_norm": 10.6910304059, 
			 "total_energy": -741.554988255, 
			 "HOMO_LUMO_gap": 0.23687, 
			 "cosmo_polarized_energy": -11.91, 
			 "cosmo_cavitation_energy": 37.04, 
			 "cosmo_dispersion_energy": -26.05, 
			 "cosmo_repulsion_energy": 2.08, 
			 "cosmo_total_nonelectrostatic_energy": 13.07, 
			 "SMD_solvation_energy": 4.3 
		},
		"coords": [
			{
				"x": -2.9759680512,
				"y": -0.4832453992,
				"z": -3.127528594,
				"element": "C" 
			},
			{
				"x": -1.5074189995,
				"y": -0.6626756023,
				"z": -3.5282292661,
				"element": "C" 
			},
			{
				"x": -0.6323733262,
				"y": -0.9891975653,
				"z": -2.4128164569,
				"element": "N" 
			},
			{
				"x": -0.0626650019,
				"y": -0.0779447239,
				"z": -1.5816366964,
				"element": "C" 
			},
			{
				"x": -0.2025367286,
				"y": 1.2315328689,
				"z": -1.8939422626,
				"element": "N" 
			},
			{
				"x": 0.4125863583,
				"y": 2.0459232427,
				"z": -1.0386755316,
				"element": "C" 
			},
			{
				"x": 0.3474200853,
				"y": 3.3702532212,
				"z": -1.2492869969,
				"element": "O" 
			},
			{
				"x": -0.3812597416,
				"y": 3.8215314,
				"z": -2.3935015463,
				"element": "C" 
			},
			{
				"x": 1.1106546877,
				"y": 1.7090714024,
				"z": 0.0454494822,
				"element": "N" 
			},
			{
				"x": 1.1727640933,
				"y": 0.3790678704,
				"z": 0.2541022338,
				"element": "C" 
			},
			{
				"x": 1.8528384694,
				"y": -0.0914559205,
				"z": 1.3286312539,
				"element": "N" 
			},
			{
				"x": 2.5853180398,
				"y": 0.6616771314,
				"z": 2.3681437997,
				"element": "C" 
			},
			{
				"x": 3.7395174905,
				"y": 1.4673753557,
				"z": 1.740971059,
				"element": "C" 
			},
			{
				"x": 1.6287642504,
				"y": 1.594269823,
				"z": 3.1361448809,
				"element": "C" 
			},
			{
				"x": 3.1548326594,
				"y": -0.3979198254,
				"z": 3.3265248368,
				"element": "C" 
			},
			{
				"x": 0.6040324889,
				"y": -0.5645786455,
				"z": -0.52694643,
				"element": "N" 
			},
			{
				"x": -3.3755222954,
				"y": -1.391963664,
				"z": -2.664694137,
				"element": "H" 
			},
			{
				"x": -3.5883238418,
				"y": -0.2529346528,
				"z": -4.0063035978,
				"element": "H" 
			},
			{
				"x": -3.0760342526,
				"y": 0.3387011983,
				"z": -2.4132135009,
				"element": "H" 
			},
			{
				"x": -1.1300670204,
				"y": 0.2552756231,
				"z": -3.9836707353,
				"element": "H" 
			},
			{
				"x": -1.4103132689,
				"y": -1.4633518686,
				"z": -4.2699825659,
				"element": "H" 
			},
			{
				"x": -0.5756494521,
				"y": -1.942773285,
				"z": -2.087188862,
				"element": "H" 
			},
			{
				"x": -1.4297377753,
				"y": 3.5153728125,
				"z": -2.3411694871,
				"element": "H" 
			},
			{
				"x": 0.0511419651,
				"y": 3.4290906778,
				"z": -3.3180700228,
				"element": "H" 
			},
			{
				"x": -0.3037592877,
				"y": 4.9095595533,
				"z": -2.3720245592,
				"element": "H" 
			},
			{
				"x": 1.843122932,
				"y": -1.0987442339,
				"z": 1.393302208,
				"element": "H" 
			},
			{
				"x": 3.351255151,
				"y": 2.2041273687,
				"z": 1.0359971856,
				"element": "H" 
			},
			{
				"x": 4.4281691407,
				"y": 0.8017175144,
				"z": 1.2101299014,
				"element": "H" 
			},
			{
				"x": 4.3014446452,
				"y": 1.9898019826,
				"z": 2.5226990587,
				"element": "H" 
			},
			{
				"x": 1.1950045195,
				"y": 2.3346144623,
				"z": 2.4621899618,
				"element": "H" 
			},
			{
				"x": 0.8179259623,
				"y": 1.018804087,
				"z": 3.5949849786,
				"element": "H" 
			},
			{
				"x": 2.1714387753,
				"y": 2.1166851279,
				"z": 3.9313657335,
				"element": "H" 
			},
			{
				"x": 3.715463234,
				"y": 0.0848062119,
				"z": 4.1314516441,
				"element": "H" 
			},
			{
				"x": 2.3528305257,
				"y": -0.9897086413,
				"z": 3.7823128144,
				"element": "H" 
			},
			{
				"x": 3.8358035693,
				"y": -1.0785649077,
				"z": 2.8028802159,
				"element": "H" 
			}
		],
		 "valence_orbital": [ 
			{
				"type": "occ",
				"energy": -0.26392,
				"method": "rhf"
			},
			{
				"type": "occ",
				"energy": -0.25447,
				"method": "rhf"
			},
			{
				"type": "occ",
				"energy": -0.24801,
				"method": "rhf"
			},
			{
				"type": "occ",
				"energy": -0.22464,
				"method": "rhf"
			},
			{
				"type": "occ",
				"energy": -0.223,
				"method": "rhf"
			},
			{
				"type": "unocc",
				"energy": 0.01387,
				"method": "rhf"
			},
			{
				"type": "unocc",
				"energy": 0.02037,
				"method": "rhf"
			},
			{
				"type": "unocc",
				"energy": 0.08491,
				"method": "rhf"
			},
			{
				"type": "unocc",
				"energy": 0.09192,
				"method": "rhf"
			},
			{
				"type": "unocc",
				"energy": 0.10966,
				"method": "rhf"
			}
		],
		"cosmo_sigma_profile": { 
			"-0.025": 0.0,
			"-0.024": 0.0,
			"-0.023": 0.0,
			"-0.022": 0.0,
			"-0.021": 0.0,
			"-0.02": 0.0,
			"-0.019": 0.0,
			"-0.018": 0.0,
			"-0.017": 0.0,
			"-0.016": 0.0,
			"-0.015": 0.0,
			"-0.014": 0.124400632032,
			"-0.013": 0.941105789893,
			"-0.012": 1.58057150247,
			"-0.011": 1.57637676068,
			"-0.01": 1.26015488921,
			"-0.009": 2.09890601289,
			"-0.008": 1.88166946979,
			"-0.007": 2.34569728122,
			"-0.006": 4.26267197326,
			"-0.005": 9.35454677059,
			"-0.004": 18.7900908021,
			"-0.003": 35.2391436619,
			"-0.002": 31.6056052357,
			"-0.001": 30.1768935231,
			"0.0": 31.4599122062,
			"0.001": 34.2200610785,
			"0.002": 20.6924147975,
			"0.003": 12.8623460906,
			"0.004": 10.2352571536,
			"0.005": 7.51061653534,
			"0.006": 6.66717427176,
			"0.007": 5.52976969095,
			"0.008": 4.95919351146,
			"0.009": 2.56525803673,
			"0.01": 3.2135846744,
			"0.011": 2.52394536279,
			"0.012": 2.91623554133,
			"0.013": 2.14241071329,
			"0.014": 0.532411873856,
			"0.015": 0.0,
			"0.016": 0.0,
			"0.017": 0.0,
			"0.018": 0.0,
			"0.019": 0.0,
			"0.02": 0.0,
			"0.021": 0.0,
			"0.022": 0.0,
			"0.023": 0.0,
			"0.024": 0.0,
			"0.025": 0.0
		}
	}
}
