{
	 "smiles": "O=C1NC2=C(C=CC=C2)N1C1=CCNCC1", 
	 "Tm": 471.15, 
	 "num_atms": 29, 
	 "gaussian": { 
		 "optdone": 1, 
		 "sigma_profile": "yes", 
		 "theory": "DFT", 
		 "functional": "B3LYP", 
		 "basiset": "6-31G**", 
		 "properties": { 
			 "R2extent": 4153.0454, 
			 "electric_dipole_moment_norm": 2.9374814859, 
			 "electric_quadrupole_moment_norm": 10.1737410931, 
			 "total_energy": -704.598444471, 
			 "HOMO_LUMO_gap": 0.19619, 
			 "cosmo_polarized_energy": -15.24, 
			 "cosmo_cavitation_energy": 31.4, 
			 "cosmo_dispersion_energy": -23.17, 
			 "cosmo_repulsion_energy": 1.8, 
			 "cosmo_total_nonelectrostatic_energy": 10.03, 
			 "SMD_solvation_energy": 2.9 
		},
		"coords": [
			{
				"x": 0.444701023,
				"y": 2.914262745,
				"z": -1.8919825781,
				"element": "O" 
			},
			{
				"x": 1.0976691469,
				"y": 1.9263301263,
				"z": -1.6115425118,
				"element": "C" 
			},
			{
				"x": 2.2858802422,
				"y": 1.5101985071,
				"z": -2.2046141172,
				"element": "N" 
			},
			{
				"x": 2.7646966196,
				"y": 0.3431341951,
				"z": -1.6254554079,
				"element": "C" 
			},
			{
				"x": 1.8387489324,
				"y": -0.015201537,
				"z": -0.622757112,
				"element": "C" 
			},
			{
				"x": 2.0604813788,
				"y": -1.1325718195,
				"z": 0.1756873625,
				"element": "C" 
			},
			{
				"x": 3.2085520879,
				"y": -1.8975313044,
				"z": -0.0692593867,
				"element": "C" 
			},
			{
				"x": 4.1138738143,
				"y": -1.5466371373,
				"z": -1.0744652474,
				"element": "C" 
			},
			{
				"x": 3.9051974825,
				"y": -0.4106080927,
				"z": -1.8669629121,
				"element": "C" 
			},
			{
				"x": 0.8242054443,
				"y": 0.9509486403,
				"z": -0.62570262,
				"element": "N" 
			},
			{
				"x": -0.3788774862,
				"y": 0.9363155375,
				"z": 0.142011457,
				"element": "C" 
			},
			{
				"x": -0.7916701344,
				"y": 2.0414833929,
				"z": 0.7733461021,
				"element": "C" 
			},
			{
				"x": -2.1119756277,
				"y": 2.1104589019,
				"z": 1.502946735,
				"element": "C" 
			},
			{
				"x": -2.8005056383,
				"y": 0.8283344334,
				"z": 1.6701854458,
				"element": "N" 
			},
			{
				"x": -2.675483985,
				"y": -0.0091696055,
				"z": 0.476599269,
				"element": "C" 
			},
			{
				"x": -1.2152719126,
				"y": -0.3277199032,
				"z": 0.1004330899,
				"element": "C" 
			},
			{
				"x": 2.718211759,
				"y": 2.0486773232,
				"z": -2.9376194507,
				"element": "H" 
			},
			{
				"x": 1.37617941,
				"y": -1.4015259043,
				"z": 0.9715072238,
				"element": "H" 
			},
			{
				"x": 3.3969832586,
				"y": -2.775943024,
				"z": 0.5401653678,
				"element": "H" 
			},
			{
				"x": 4.9958119883,
				"y": -2.1568099923,
				"z": -1.2423152908,
				"element": "H" 
			},
			{
				"x": 4.6124359151,
				"y": -0.1261511154,
				"z": -2.6399113593,
				"element": "H" 
			},
			{
				"x": -0.2001531344,
				"y": 2.9499798805,
				"z": 0.7134578514,
				"element": "H" 
			},
			{
				"x": -2.7753741616,
				"y": 2.8020680194,
				"z": 0.9597949117,
				"element": "H" 
			},
			{
				"x": -1.9693151389,
				"y": 2.5588755849,
				"z": 2.4939672514,
				"element": "H" 
			},
			{
				"x": -2.3899613908,
				"y": 0.3355170691,
				"z": 2.4604303392,
				"element": "H" 
			},
			{
				"x": -3.154193185,
				"y": 0.5230350172,
				"z": -0.3547632688,
				"element": "H" 
			},
			{
				"x": -3.2391238942,
				"y": -0.9352465972,
				"z": 0.6323512161,
				"element": "H" 
			},
			{
				"x": -1.1640153033,
				"y": -0.7656123971,
				"z": -0.904311049,
				"element": "H" 
			},
			{
				"x": -0.8203075104,
				"y": -1.090990944,
				"z": 0.785078689,
				"element": "H" 
			}
		],
		 "valence_orbital": [ 
			{
				"type": "occ",
				"energy": -0.26667,
				"method": "rhf"
			},
			{
				"type": "occ",
				"energy": -0.25506,
				"method": "rhf"
			},
			{
				"type": "occ",
				"energy": -0.23089,
				"method": "rhf"
			},
			{
				"type": "occ",
				"energy": -0.22317,
				"method": "rhf"
			},
			{
				"type": "occ",
				"energy": -0.2028,
				"method": "rhf"
			},
			{
				"type": "unocc",
				"energy": -0.00661,
				"method": "rhf"
			},
			{
				"type": "unocc",
				"energy": 0.00372,
				"method": "rhf"
			},
			{
				"type": "unocc",
				"energy": 0.02187,
				"method": "rhf"
			},
			{
				"type": "unocc",
				"energy": 0.07011,
				"method": "rhf"
			},
			{
				"type": "unocc",
				"energy": 0.07819,
				"method": "rhf"
			}
		],
		"cosmo_sigma_profile": { 
			"-0.025": 0.0,
			"-0.024": 0.0,
			"-0.023": 0.0,
			"-0.022": 0.0,
			"-0.021": 0.0,
			"-0.02": 0.0,
			"-0.019": 0.0,
			"-0.018": 0.0,
			"-0.017": 0.0,
			"-0.016": 0.972970420812,
			"-0.015": 1.54231061744,
			"-0.014": 1.22358482907,
			"-0.013": 0.819096519795,
			"-0.012": 0.727991865004,
			"-0.011": 1.48105233669,
			"-0.01": 1.94736971628,
			"-0.009": 2.43370556128,
			"-0.008": 2.76916049822,
			"-0.007": 4.98915242082,
			"-0.006": 7.91668130757,
			"-0.005": 14.3537185143,
			"-0.004": 22.7826926217,
			"-0.003": 26.3238123381,
			"-0.002": 24.0970603844,
			"-0.001": 21.5349117221,
			"0.0": 15.3012973299,
			"0.001": 14.0364010227,
			"0.002": 14.2638778515,
			"0.003": 10.2771087392,
			"0.004": 12.2744490135,
			"0.005": 11.120365536,
			"0.006": 8.37993865989,
			"0.007": 2.56454696644,
			"0.008": 1.23443798946,
			"0.009": 2.21628880514,
			"0.01": 3.22285984714,
			"0.011": 2.38086008969,
			"0.012": 2.05026711095,
			"0.013": 5.18740217107,
			"0.014": 5.58279298235,
			"0.015": 0.890321923389,
			"0.016": 0.679954013122,
			"0.017": 0.521994927317,
			"0.018": 0.463399225625,
			"0.019": 0.0776606400722,
			"0.02": 0.0,
			"0.021": 0.0,
			"0.022": 0.0,
			"0.023": 0.0,
			"0.024": 0.0,
			"0.025": 0.0
		}
	}
}
