{
	 "smiles": "CCCC1=C(C=NN1C1=CC=C(Cl)C=C1)C(O)=O", 
	 "Tm": 391.15, 
	 "num_atms": 31, 
	 "gaussian": { 
		 "optdone": 1, 
		 "sigma_profile": "yes", 
		 "theory": "DFT", 
		 "functional": "B3LYP", 
		 "basiset": "6-31G**", 
		 "properties": { 
			 "R2extent": 6588.1533, 
			 "electric_dipole_moment_norm": 3.22545082275, 
			 "electric_quadrupole_moment_norm": 14.9863674211, 
			 "total_energy": -1223.37118563, 
			 "HOMO_LUMO_gap": 0.20348, 
			 "cosmo_polarized_energy": -13.45, 
			 "cosmo_cavitation_energy": 36.87, 
			 "cosmo_dispersion_energy": -25.49, 
			 "cosmo_repulsion_energy": 1.99, 
			 "cosmo_total_nonelectrostatic_energy": 13.38, 
			 "SMD_solvation_energy": 6.3 
		},
		"coords": [
			{
				"x": -1.1439250241,
				"y": -2.7471589242,
				"z": 0.2597780202,
				"element": "C" 
			},
			{
				"x": -0.5279627138,
				"y": -1.6783938665,
				"z": 1.1670577733,
				"element": "C" 
			},
			{
				"x": 0.9838368666,
				"y": -1.4388413211,
				"z": 0.9309537934,
				"element": "C" 
			},
			{
				"x": 1.309784279,
				"y": -0.9288711188,
				"z": -0.4443541822,
				"element": "C" 
			},
			{
				"x": 1.7803585534,
				"y": -1.5913730983,
				"z": -1.5826808479,
				"element": "C" 
			},
			{
				"x": 1.7727500678,
				"y": -0.6161099196,
				"z": -2.6133806694,
				"element": "C" 
			},
			{
				"x": 1.3429266276,
				"y": 0.5547210376,
				"z": -2.1839198697,
				"element": "N" 
			},
			{
				"x": 1.072073504,
				"y": 0.3559395233,
				"z": -0.8534648978,
				"element": "N" 
			},
			{
				"x": 0.5787898788,
				"y": 1.4642975866,
				"z": -0.102883519,
				"element": "C" 
			},
			{
				"x": -0.5345426039,
				"y": 2.1615336285,
				"z": -0.5812319966,
				"element": "C" 
			},
			{
				"x": -1.0221152798,
				"y": 3.2616291666,
				"z": 0.1197243153,
				"element": "C" 
			},
			{
				"x": -0.3915986475,
				"y": 3.6534209479,
				"z": 1.3016294031,
				"element": "C" 
			},
			{
				"x": -1.0109768121,
				"y": 5.0313266598,
				"z": 2.1949117429,
				"element": "Cl" 
			},
			{
				"x": 0.7287234929,
				"y": 2.9744796033,
				"z": 1.7793163777,
				"element": "C" 
			},
			{
				"x": 1.221162776,
				"y": 1.8827665223,
				"z": 1.0652574885,
				"element": "C" 
			},
			{
				"x": 2.2132128198,
				"y": -2.9727287286,
				"z": -1.7963035973,
				"element": "C" 
			},
			{
				"x": 2.1526623914,
				"y": -3.7588933577,
				"z": -0.6842832916,
				"element": "O" 
			},
			{
				"x": 2.6015498964,
				"y": -3.4115857349,
				"z": -2.8623596303,
				"element": "O" 
			},
			{
				"x": -1.0889079081,
				"y": -2.4595199464,
				"z": -0.7949332587,
				"element": "H" 
			},
			{
				"x": -2.1986073557,
				"y": -2.9040727018,
				"z": 0.5072446308,
				"element": "H" 
			},
			{
				"x": -0.6236122704,
				"y": -3.7043189105,
				"z": 0.3669607139,
				"element": "H" 
			},
			{
				"x": -0.6512193085,
				"y": -1.9718536614,
				"z": 2.2166826321,
				"element": "H" 
			},
			{
				"x": -1.0686512102,
				"y": -0.7316144064,
				"z": 1.0484276852,
				"element": "H" 
			},
			{
				"x": 1.5258194154,
				"y": -2.3750913982,
				"z": 1.0730218139,
				"element": "H" 
			},
			{
				"x": 1.348413109,
				"y": -0.7380771799,
				"z": 1.6873798302,
				"element": "H" 
			},
			{
				"x": 2.0741912903,
				"y": -0.7528397217,
				"z": -3.6425041051,
				"element": "H" 
			},
			{
				"x": -1.0025961894,
				"y": 1.8419363022,
				"z": -1.5052483003,
				"element": "H" 
			},
			{
				"x": -1.8851085019,
				"y": 3.8080551146,
				"z": -0.2434699711,
				"element": "H" 
			},
			{
				"x": 1.220927441,
				"y": 3.3062397089,
				"z": 2.6864196518,
				"element": "H" 
			},
			{
				"x": 2.1187536786,
				"y": 1.3768530081,
				"z": 1.4032137346,
				"element": "H" 
			},
			{
				"x": 2.4692877373,
				"y": -4.6314548136,
				"z": -0.9718614701,
				"element": "H" 
			}
		],
		 "valence_orbital": [ 
			{
				"type": "occ",
				"energy": -0.28232,
				"method": "rhf"
			},
			{
				"type": "occ",
				"energy": -0.27956,
				"method": "rhf"
			},
			{
				"type": "occ",
				"energy": -0.27571,
				"method": "rhf"
			},
			{
				"type": "occ",
				"energy": -0.25468,
				"method": "rhf"
			},
			{
				"type": "occ",
				"energy": -0.24615,
				"method": "rhf"
			},
			{
				"type": "unocc",
				"energy": -0.04267,
				"method": "rhf"
			},
			{
				"type": "unocc",
				"energy": -0.03062,
				"method": "rhf"
			},
			{
				"type": "unocc",
				"energy": -0.01741,
				"method": "rhf"
			},
			{
				"type": "unocc",
				"energy": 0.01408,
				"method": "rhf"
			},
			{
				"type": "unocc",
				"energy": 0.02005,
				"method": "rhf"
			}
		],
		"cosmo_sigma_profile": { 
			"-0.025": 0.0,
			"-0.024": 0.0,
			"-0.023": 0.0,
			"-0.022": 0.0,
			"-0.021": 0.0,
			"-0.02": 0.0,
			"-0.019": 0.0,
			"-0.018": 0.503018769777,
			"-0.017": 0.74298661934,
			"-0.016": 1.16034734374,
			"-0.015": 0.739188057885,
			"-0.014": 0.327876348293,
			"-0.013": 0.787949424361,
			"-0.012": 0.908768006197,
			"-0.011": 0.62282070411,
			"-0.01": 0.842711860449,
			"-0.009": 0.688608865491,
			"-0.008": 7.01353026898,
			"-0.007": 10.3597987062,
			"-0.006": 10.7433933539,
			"-0.005": 9.27513899598,
			"-0.004": 8.19462510418,
			"-0.003": 17.7416403069,
			"-0.002": 30.1367370049,
			"-0.001": 34.8052023085,
			"0.0": 29.6793625766,
			"0.001": 32.8184337112,
			"0.002": 28.5550446171,
			"0.003": 16.3332722644,
			"0.004": 16.8084517581,
			"0.005": 8.14856443572,
			"0.006": 3.87657767669,
			"0.007": 2.38678840518,
			"0.008": 2.76097149467,
			"0.009": 2.93145074925,
			"0.01": 3.06868046965,
			"0.011": 3.58164248743,
			"0.012": 6.66900198774,
			"0.013": 1.49868236743,
			"0.014": 0.980946515911,
			"0.015": 0.137241679708,
			"0.016": 0.0,
			"0.017": 0.0,
			"0.018": 0.0,
			"0.019": 0.0,
			"0.02": 0.0,
			"0.021": 0.0,
			"0.022": 0.0,
			"0.023": 0.0,
			"0.024": 0.0,
			"0.025": 0.0
		}
	}
}
