{
	 "smiles": "O=CC1=CN=C(S1)C1=NC=CC=C1", 
	 "Tm": 423.15, 
	 "num_atms": 19, 
	 "gaussian": { 
		 "optdone": 1, 
		 "sigma_profile": "yes", 
		 "theory": "DFT", 
		 "functional": "B3LYP", 
		 "basiset": "6-31G**", 
		 "properties": { 
			 "R2extent": 3816.1629, 
			 "electric_dipole_moment_norm": 4.70402907091, 
			 "electric_quadrupole_moment_norm": 16.5863980849, 
			 "total_energy": -929.47114544, 
			 "HOMO_LUMO_gap": 0.154, 
			 "cosmo_polarized_energy": -11.37, 
			 "cosmo_cavitation_energy": 26.24, 
			 "cosmo_dispersion_energy": -19.82, 
			 "cosmo_repulsion_energy": 1.5, 
			 "cosmo_total_nonelectrostatic_energy": 7.93, 
			 "SMD_solvation_energy": 3.0 
		},
		"coords": [
			{
				"x": 1.1011503955,
				"y": -3.1354192059,
				"z": -1.7127798026,
				"element": "O" 
			},
			{
				"x": -0.0530274487,
				"y": -2.950548869,
				"z": -1.3696520315,
				"element": "C" 
			},
			{
				"x": -0.6392984374,
				"y": -1.6458900057,
				"z": -1.0831321464,
				"element": "C" 
			},
			{
				"x": -1.936244168,
				"y": -1.3816876244,
				"z": -0.6921868467,
				"element": "C" 
			},
			{
				"x": -2.2472379815,
				"y": -0.074458009,
				"z": -0.483130305,
				"element": "N" 
			},
			{
				"x": -1.1971559552,
				"y": 0.6879266812,
				"z": -0.7091656895,
				"element": "C" 
			},
			{
				"x": 0.2557055903,
				"y": -0.1554918064,
				"z": -1.1979727304,
				"element": "S" 
			},
			{
				"x": -1.1985662351,
				"y": 2.1496402618,
				"z": -0.5731763687,
				"element": "C" 
			},
			{
				"x": -0.0371112674,
				"y": 2.7693297846,
				"z": -0.8443541481,
				"element": "N" 
			},
			{
				"x": 0.0009478176,
				"y": 4.0977123514,
				"z": -0.7318852704,
				"element": "C" 
			},
			{
				"x": -1.1002408798,
				"y": 4.8690564255,
				"z": -0.3486974753,
				"element": "C" 
			},
			{
				"x": -2.3016227276,
				"y": 4.2172328285,
				"z": -0.069171502,
				"element": "C" 
			},
			{
				"x": -2.3597984514,
				"y": 2.8311540427,
				"z": -0.181311576,
				"element": "C" 
			},
			{
				"x": -0.7639277191,
				"y": -3.7962244197,
				"z": -1.2471491208,
				"element": "H" 
			},
			{
				"x": -2.6969352914,
				"y": -2.1422919707,
				"z": -0.5477140491,
				"element": "H" 
			},
			{
				"x": 0.9545068767,
				"y": 4.5706354254,
				"z": -0.9578499858,
				"element": "H" 
			},
			{
				"x": -1.0126191833,
				"y": 5.947989696,
				"z": -0.2733946532,
				"element": "H" 
			},
			{
				"x": -3.1801432467,
				"y": 4.7803931261,
				"z": 0.2317129492,
				"element": "H" 
			},
			{
				"x": -3.2640816875,
				"y": 2.2696412878,
				"z": 0.0225107521,
				"element": "H" 
			}
		],
		 "valence_orbital": [ 
			{
				"type": "occ",
				"energy": -0.29737,
				"method": "rhf"
			},
			{
				"type": "occ",
				"energy": -0.28971,
				"method": "rhf"
			},
			{
				"type": "occ",
				"energy": -0.27601,
				"method": "rhf"
			},
			{
				"type": "occ",
				"energy": -0.25833,
				"method": "rhf"
			},
			{
				"type": "occ",
				"energy": -0.24473,
				"method": "rhf"
			},
			{
				"type": "unocc",
				"energy": -0.09073,
				"method": "rhf"
			},
			{
				"type": "unocc",
				"energy": -0.03589,
				"method": "rhf"
			},
			{
				"type": "unocc",
				"energy": -0.03334,
				"method": "rhf"
			},
			{
				"type": "unocc",
				"energy": 0.02501,
				"method": "rhf"
			},
			{
				"type": "unocc",
				"energy": 0.03013,
				"method": "rhf"
			}
		],
		"cosmo_sigma_profile": { 
			"-0.025": 0.0,
			"-0.024": 0.0,
			"-0.023": 0.0,
			"-0.022": 0.0,
			"-0.021": 0.0,
			"-0.02": 0.0,
			"-0.019": 0.0,
			"-0.018": 0.0,
			"-0.017": 0.0,
			"-0.016": 0.0,
			"-0.015": 0.0,
			"-0.014": 0.0,
			"-0.013": 0.0,
			"-0.012": 0.0,
			"-0.011": 0.0,
			"-0.01": 0.512583242222,
			"-0.009": 3.90970044691,
			"-0.008": 6.18310263147,
			"-0.007": 12.3150201796,
			"-0.006": 13.0992681841,
			"-0.005": 11.0260891716,
			"-0.004": 8.70695487867,
			"-0.003": 9.38850872034,
			"-0.002": 13.2135245798,
			"-0.001": 18.5240724951,
			"0.0": 24.8441462159,
			"0.001": 26.4395389413,
			"0.002": 16.4375994874,
			"0.003": 7.65154913459,
			"0.004": 5.22450886425,
			"0.005": 4.92841613597,
			"0.006": 4.874741249,
			"0.007": 4.44926629868,
			"0.008": 3.86400048647,
			"0.009": 4.19959951861,
			"0.01": 5.20700040258,
			"0.011": 6.56235977145,
			"0.012": 2.62929796883,
			"0.013": 0.452836721146,
			"0.014": 0.0,
			"0.015": 0.0,
			"0.016": 0.0,
			"0.017": 0.0,
			"0.018": 0.0,
			"0.019": 0.0,
			"0.02": 0.0,
			"0.021": 0.0,
			"0.022": 0.0,
			"0.023": 0.0,
			"0.024": 0.0,
			"0.025": 0.0
		}
	}
}
