{
	 "smiles": "CC1=CC(Cl)=CC(C)=C1C=O", 
	 "Tm": 313.15, 
	 "num_atms": 20, 
	 "gaussian": { 
		 "optdone": 1, 
		 "sigma_profile": "yes", 
		 "theory": "DFT", 
		 "functional": "B3LYP", 
		 "basiset": "6-31G**", 
		 "properties": { 
			 "R2extent": 2535.5247, 
			 "electric_dipole_moment_norm": 1.76888572271, 
			 "electric_quadrupole_moment_norm": 12.9090433414, 
			 "total_energy": -883.800648276, 
			 "HOMO_LUMO_gap": 0.18134, 
			 "cosmo_polarized_energy": -6.92, 
			 "cosmo_cavitation_energy": 25.2, 
			 "cosmo_dispersion_energy": -18.57, 
			 "cosmo_repulsion_energy": 1.47, 
			 "cosmo_total_nonelectrostatic_energy": 8.1, 
			 "SMD_solvation_energy": 5.01 
		},
		"coords": [
			{
				"x": -3.0133774732,
				"y": 1.3290793093,
				"z": -0.5299821573,
				"element": "C" 
			},
			{
				"x": -1.5764424932,
				"y": 0.8724749917,
				"z": -0.6024138748,
				"element": "C" 
			},
			{
				"x": -0.5724441562,
				"y": 1.8347170653,
				"z": -0.4593360509,
				"element": "C" 
			},
			{
				"x": 0.7669890933,
				"y": 1.4644380869,
				"z": -0.5185632763,
				"element": "C" 
			},
			{
				"x": 2.0071957162,
				"y": 2.6908140735,
				"z": -0.3361773866,
				"element": "Cl" 
			},
			{
				"x": 1.1447327368,
				"y": 0.1396407401,
				"z": -0.7197742061,
				"element": "C" 
			},
			{
				"x": 0.1681866388,
				"y": -0.8467209165,
				"z": -0.8665188862,
				"element": "C" 
			},
			{
				"x": 0.6333280516,
				"y": -2.2739783741,
				"z": -1.0833282812,
				"element": "C" 
			},
			{
				"x": -1.2033162774,
				"y": -0.4832017102,
				"z": -0.8082626157,
				"element": "C" 
			},
			{
				"x": -2.2253106426,
				"y": -1.5414254213,
				"z": -0.9657675538,
				"element": "C" 
			},
			{
				"x": -3.4349476683,
				"y": -1.3804284457,
				"z": -0.9387979994,
				"element": "O" 
			},
			{
				"x": -3.5535532123,
				"y": 0.8243615847,
				"z": 0.2753576491,
				"element": "H" 
			},
			{
				"x": -3.0573170131,
				"y": 2.4091452235,
				"z": -0.3662454178,
				"element": "H" 
			},
			{
				"x": -3.557399324,
				"y": 1.0852342573,
				"z": -1.446330067,
				"element": "H" 
			},
			{
				"x": -0.8369576714,
				"y": 2.8746398274,
				"z": -0.3014658923,
				"element": "H" 
			},
			{
				"x": 2.1967299256,
				"y": -0.1205998513,
				"z": -0.761664491,
				"element": "H" 
			},
			{
				"x": 0.2859200855,
				"y": -2.9459668306,
				"z": -0.2917604151,
				"element": "H" 
			},
			{
				"x": 0.2811521106,
				"y": -2.6826151057,
				"z": -2.0361287093,
				"element": "H" 
			},
			{
				"x": 1.7250434584,
				"y": -2.3156746641,
				"z": -1.0926018924,
				"element": "H" 
			},
			{
				"x": -1.8207118851,
				"y": -2.5607338402,
				"z": -1.1207384757,
				"element": "H" 
			}
		],
		 "valence_orbital": [ 
			{
				"type": "occ",
				"energy": -0.32785,
				"method": "rhf"
			},
			{
				"type": "occ",
				"energy": -0.32031,
				"method": "rhf"
			},
			{
				"type": "occ",
				"energy": -0.26082,
				"method": "rhf"
			},
			{
				"type": "occ",
				"energy": -0.25449,
				"method": "rhf"
			},
			{
				"type": "occ",
				"energy": -0.25109,
				"method": "rhf"
			},
			{
				"type": "unocc",
				"energy": -0.06975,
				"method": "rhf"
			},
			{
				"type": "unocc",
				"energy": -0.01748,
				"method": "rhf"
			},
			{
				"type": "unocc",
				"energy": 0.02272,
				"method": "rhf"
			},
			{
				"type": "unocc",
				"energy": 0.03088,
				"method": "rhf"
			},
			{
				"type": "unocc",
				"energy": 0.09286,
				"method": "rhf"
			}
		],
		"cosmo_sigma_profile": { 
			"-0.025": 0.0,
			"-0.024": 0.0,
			"-0.023": 0.0,
			"-0.022": 0.0,
			"-0.021": 0.0,
			"-0.02": 0.0,
			"-0.019": 0.0,
			"-0.018": 0.0,
			"-0.017": 0.0,
			"-0.016": 0.0,
			"-0.015": 0.0,
			"-0.014": 0.0,
			"-0.013": 0.0,
			"-0.012": 0.0,
			"-0.011": 0.0,
			"-0.01": 0.0,
			"-0.009": 0.0,
			"-0.008": 0.233424448414,
			"-0.007": 3.94932325916,
			"-0.006": 11.8774466062,
			"-0.005": 13.1477155831,
			"-0.004": 12.6851128029,
			"-0.003": 15.306178783,
			"-0.002": 17.7617474752,
			"-0.001": 21.1321179871,
			"0.0": 23.1027056681,
			"0.001": 19.2746956144,
			"0.002": 20.3942882287,
			"0.003": 11.976768962,
			"0.004": 12.3335237027,
			"0.005": 4.39181671538,
			"0.006": 1.03618205579,
			"0.007": 1.77599456433,
			"0.008": 1.95006721727,
			"0.009": 2.0173056826,
			"0.01": 1.56781133591,
			"0.011": 2.57195232014,
			"0.012": 2.83404338797,
			"0.013": 1.34430094747,
			"0.014": 0.146864974191,
			"0.015": 0.0,
			"0.016": 0.0,
			"0.017": 0.0,
			"0.018": 0.0,
			"0.019": 0.0,
			"0.02": 0.0,
			"0.021": 0.0,
			"0.022": 0.0,
			"0.023": 0.0,
			"0.024": 0.0,
			"0.025": 0.0
		}
	}
}
