{
	 "smiles": "CC1=C(C)C2=C(S1)N=CN(CCC(O)=O)C2=O", 
	 "Tm": 468.15, 
	 "num_atms": 29, 
	 "gaussian": { 
		 "optdone": 1, 
		 "sigma_profile": "yes", 
		 "theory": "DFT", 
		 "functional": "B3LYP", 
		 "basiset": "6-31G**", 
		 "properties": { 
			 "R2extent": 4960.0339, 
			 "electric_dipole_moment_norm": 1.49803466916, 
			 "electric_quadrupole_moment_norm": 28.3883658152, 
			 "total_energy": -1159.80458378, 
			 "HOMO_LUMO_gap": 0.16847, 
			 "cosmo_polarized_energy": -18.61, 
			 "cosmo_cavitation_energy": 34.24, 
			 "cosmo_dispersion_energy": -24.55, 
			 "cosmo_repulsion_energy": 1.85, 
			 "cosmo_total_nonelectrostatic_energy": 11.54, 
			 "SMD_solvation_energy": 5.38 
		},
		"coords": [
			{
				"x": -3.8552158744,
				"y": -0.2446175961,
				"z": 1.451449141,
				"element": "C" 
			},
			{
				"x": -2.4549944924,
				"y": -0.4612607875,
				"z": 0.957524659,
				"element": "C" 
			},
			{
				"x": -1.9055081596,
				"y": -0.1712825292,
				"z": -0.2665679849,
				"element": "C" 
			},
			{
				"x": -2.6283597628,
				"y": 0.4546311869,
				"z": -1.4292472192,
				"element": "C" 
			},
			{
				"x": -0.513472753,
				"y": -0.5469284823,
				"z": -0.3236715233,
				"element": "C" 
			},
			{
				"x": -0.0376088507,
				"y": -1.1133418368,
				"z": 0.8543865103,
				"element": "C" 
			},
			{
				"x": -1.2901899292,
				"y": -1.1953562734,
				"z": 2.0609926587,
				"element": "S" 
			},
			{
				"x": 1.2268662849,
				"y": -1.5644301993,
				"z": 1.0836610364,
				"element": "N" 
			},
			{
				"x": 2.0346518524,
				"y": -1.4292906143,
				"z": 0.0751500065,
				"element": "C" 
			},
			{
				"x": 1.7084264316,
				"y": -0.8881149241,
				"z": -1.1401261948,
				"element": "N" 
			},
			{
				"x": 2.7273635743,
				"y": -0.7927513987,
				"z": -2.1928248897,
				"element": "C" 
			},
			{
				"x": 3.5933954956,
				"y": 0.4815937945,
				"z": -2.114889625,
				"element": "C" 
			},
			{
				"x": 2.8348696253,
				"y": 1.7462177998,
				"z": -2.4701833045,
				"element": "C" 
			},
			{
				"x": 2.1943156369,
				"y": 2.26361279,
				"z": -1.3953559218,
				"element": "O" 
			},
			{
				"x": 2.7987080478,
				"y": 2.2485564862,
				"z": -3.5692330628,
				"element": "O" 
			},
			{
				"x": 0.4025849906,
				"y": -0.3910659023,
				"z": -1.4344285014,
				"element": "C" 
			},
			{
				"x": 0.1649948344,
				"y": 0.096547208,
				"z": -2.5360141423,
				"element": "O" 
			},
			{
				"x": -4.4703394201,
				"y": 0.2259275803,
				"z": 0.682050765,
				"element": "H" 
			},
			{
				"x": -3.8752531196,
				"y": 0.4034922557,
				"z": 2.3352230615,
				"element": "H" 
			},
			{
				"x": -4.3358966605,
				"y": -1.189998372,
				"z": 1.7287524289,
				"element": "H" 
			},
			{
				"x": -2.6057319252,
				"y": -0.2041736721,
				"z": -2.3023713527,
				"element": "H" 
			},
			{
				"x": -3.6705969803,
				"y": 0.6736751999,
				"z": -1.18881709,
				"element": "H" 
			},
			{
				"x": -2.140180461,
				"y": 1.383633756,
				"z": -1.7374547422,
				"element": "H" 
			},
			{
				"x": 3.0622671885,
				"y": -1.7726625583,
				"z": 0.1728953271,
				"element": "H" 
			},
			{
				"x": 2.2032151233,
				"y": -0.8308044088,
				"z": -3.1484927678,
				"element": "H" 
			},
			{
				"x": 3.3769831178,
				"y": -1.6684255267,
				"z": -2.1110699679,
				"element": "H" 
			},
			{
				"x": 4.4056561078,
				"y": 0.3819852723,
				"z": -2.8392268897,
				"element": "H" 
			},
			{
				"x": 4.0229100395,
				"y": 0.5773794714,
				"z": -1.1127601972,
				"element": "H" 
			},
			{
				"x": 1.6809400382,
				"y": 3.0205522809,
				"z": -1.7249502174,
				"element": "H" 
			}
		],
		 "valence_orbital": [ 
			{
				"type": "occ",
				"energy": -0.2841,
				"method": "rhf"
			},
			{
				"type": "occ",
				"energy": -0.27353,
				"method": "rhf"
			},
			{
				"type": "occ",
				"energy": -0.2646,
				"method": "rhf"
			},
			{
				"type": "occ",
				"energy": -0.25309,
				"method": "rhf"
			},
			{
				"type": "occ",
				"energy": -0.21467,
				"method": "rhf"
			},
			{
				"type": "unocc",
				"energy": -0.0462,
				"method": "rhf"
			},
			{
				"type": "unocc",
				"energy": -0.00847,
				"method": "rhf"
			},
			{
				"type": "unocc",
				"energy": 0.00429,
				"method": "rhf"
			},
			{
				"type": "unocc",
				"energy": 0.02054,
				"method": "rhf"
			},
			{
				"type": "unocc",
				"energy": 0.02756,
				"method": "rhf"
			}
		],
		"cosmo_sigma_profile": { 
			"-0.025": 0.0,
			"-0.024": 0.0,
			"-0.023": 0.0,
			"-0.022": 0.0,
			"-0.021": 0.0,
			"-0.02": 0.0,
			"-0.019": 0.0,
			"-0.018": 0.676103292902,
			"-0.017": 0.79956504888,
			"-0.016": 0.91396903765,
			"-0.015": 0.57548667244,
			"-0.014": 1.20596538672,
			"-0.013": 0.917034332982,
			"-0.012": 0.210784137649,
			"-0.011": 1.07718183806,
			"-0.01": 4.27018603062,
			"-0.009": 3.59346818182,
			"-0.008": 4.3434709057,
			"-0.007": 8.63493856865,
			"-0.006": 11.7652046056,
			"-0.005": 15.4629951003,
			"-0.004": 21.1145445844,
			"-0.003": 20.6328874687,
			"-0.002": 18.9265633505,
			"-0.001": 20.7330168241,
			"0.0": 20.0541878983,
			"0.001": 19.5842925257,
			"0.002": 20.4715257571,
			"0.003": 15.7767228999,
			"0.004": 11.232247826,
			"0.005": 6.93180588845,
			"0.006": 5.36968428079,
			"0.007": 4.98150039561,
			"0.008": 4.45136308234,
			"0.009": 4.90614930246,
			"0.01": 5.46894605636,
			"0.011": 6.507784101,
			"0.012": 7.34315368415,
			"0.013": 3.97255410419,
			"0.014": 0.85580074308,
			"0.015": 0.0565462469196,
			"0.016": 0.0,
			"0.017": 0.0,
			"0.018": 0.0,
			"0.019": 0.0,
			"0.02": 0.0,
			"0.021": 0.0,
			"0.022": 0.0,
			"0.023": 0.0,
			"0.024": 0.0,
			"0.025": 0.0
		}
	}
}
