{
	 "smiles": "CN1N=NC2=C1C=CC(CO)=C2", 
	 "Tm": 368.15, 
	 "num_atms": 21, 
	 "gaussian": { 
		 "optdone": 1, 
		 "sigma_profile": "yes", 
		 "theory": "DFT", 
		 "functional": "B3LYP", 
		 "basiset": "6-31G**", 
		 "properties": { 
			 "R2extent": 2460.0178, 
			 "electric_dipole_moment_norm": 3.27409254603, 
			 "electric_quadrupole_moment_norm": 16.89488378, 
			 "total_energy": -549.710203301, 
			 "HOMO_LUMO_gap": 0.19228, 
			 "cosmo_polarized_energy": -14.57, 
			 "cosmo_cavitation_energy": 25.12, 
			 "cosmo_dispersion_energy": -18.59, 
			 "cosmo_repulsion_energy": 1.48, 
			 "cosmo_total_nonelectrostatic_energy": 8.01, 
			 "SMD_solvation_energy": 2.65 
		},
		"coords": [
			{
				"x": -2.9702226844,
				"y": -1.5634901375,
				"z": -2.1420378699,
				"element": "C" 
			},
			{
				"x": -2.377143585,
				"y": -0.4287511945,
				"z": -1.4660353617,
				"element": "N" 
			},
			{
				"x": -2.8028972327,
				"y": 0.839918905,
				"z": -1.7488115545,
				"element": "N" 
			},
			{
				"x": -2.1370735299,
				"y": 1.6853158947,
				"z": -1.0324749338,
				"element": "N" 
			},
			{
				"x": -1.2454446254,
				"y": 0.9836847219,
				"z": -0.2478263571,
				"element": "C" 
			},
			{
				"x": -1.391658724,
				"y": -0.3906614435,
				"z": -0.5219617029,
				"element": "C" 
			},
			{
				"x": -0.6085334685,
				"y": -1.3641292237,
				"z": 0.1195441007,
				"element": "C" 
			},
			{
				"x": 0.3145973129,
				"y": -0.9031111116,
				"z": 1.0436798546,
				"element": "C" 
			},
			{
				"x": 0.4758157619,
				"y": 0.479271056,
				"z": 1.3391998023,
				"element": "C" 
			},
			{
				"x": 1.4914802259,
				"y": 0.8891220047,
				"z": 2.3887434928,
				"element": "C" 
			},
			{
				"x": 2.707247239,
				"y": 0.1539089381,
				"z": 2.317026764,
				"element": "O" 
			},
			{
				"x": -0.2990406377,
				"y": 1.4299549063,
				"z": 0.6888222116,
				"element": "C" 
			},
			{
				"x": -3.7241327389,
				"y": -1.1738398572,
				"z": -2.8262550238,
				"element": "H" 
			},
			{
				"x": -3.4454032502,
				"y": -2.2389397916,
				"z": -1.4236862633,
				"element": "H" 
			},
			{
				"x": -2.2144012089,
				"y": -2.1153131318,
				"z": -2.7097343427,
				"element": "H" 
			},
			{
				"x": -0.7144476617,
				"y": -2.4231982168,
				"z": -0.0927442123,
				"element": "H" 
			},
			{
				"x": 0.9562697224,
				"y": -1.608638865,
				"z": 1.5623891535,
				"element": "H" 
			},
			{
				"x": 1.6677953777,
				"y": 1.9740026808,
				"z": 2.3266787607,
				"element": "H" 
			},
			{
				"x": 1.0999297576,
				"y": 0.6875653169,
				"z": 3.3929382618,
				"element": "H" 
			},
			{
				"x": 3.0736047817,
				"y": 0.2863083975,
				"z": 1.4323173609,
				"element": "H" 
			},
			{
				"x": -0.1852408322,
				"y": 2.4912201511,
				"z": 0.8897278591,
				"element": "H" 
			}
		],
		 "valence_orbital": [ 
			{
				"type": "occ",
				"energy": -0.31081,
				"method": "rhf"
			},
			{
				"type": "occ",
				"energy": -0.28048,
				"method": "rhf"
			},
			{
				"type": "occ",
				"energy": -0.26642,
				"method": "rhf"
			},
			{
				"type": "occ",
				"energy": -0.24881,
				"method": "rhf"
			},
			{
				"type": "occ",
				"energy": -0.23543,
				"method": "rhf"
			},
			{
				"type": "unocc",
				"energy": -0.04315,
				"method": "rhf"
			},
			{
				"type": "unocc",
				"energy": 0.00196,
				"method": "rhf"
			},
			{
				"type": "unocc",
				"energy": 0.0351,
				"method": "rhf"
			},
			{
				"type": "unocc",
				"energy": 0.0855,
				"method": "rhf"
			},
			{
				"type": "unocc",
				"energy": 0.08776,
				"method": "rhf"
			}
		],
		"cosmo_sigma_profile": { 
			"-0.025": 0.0,
			"-0.024": 0.0,
			"-0.023": 0.0,
			"-0.022": 0.0,
			"-0.021": 0.0,
			"-0.02": 0.0,
			"-0.019": 0.0,
			"-0.018": 0.0,
			"-0.017": 0.0,
			"-0.016": 0.24976592483,
			"-0.015": 0.868715187221,
			"-0.014": 0.987278467061,
			"-0.013": 0.786109129953,
			"-0.012": 0.85753196546,
			"-0.011": 0.824408181507,
			"-0.01": 0.813691626982,
			"-0.009": 0.892016934604,
			"-0.008": 0.99291833817,
			"-0.007": 8.73548559947,
			"-0.006": 17.1079068393,
			"-0.005": 17.7799137029,
			"-0.004": 18.2878389607,
			"-0.003": 15.0770269767,
			"-0.002": 11.0580917814,
			"-0.001": 11.1615306644,
			"0.0": 11.1445308291,
			"0.001": 9.73576960401,
			"0.002": 11.942981588,
			"0.003": 13.86917161,
			"0.004": 8.65562326686,
			"0.005": 3.45322456745,
			"0.006": 3.18815411836,
			"0.007": 3.16311684101,
			"0.008": 3.09057796929,
			"0.009": 3.63142321764,
			"0.01": 4.41036965269,
			"0.011": 5.10208545105,
			"0.012": 3.37992734222,
			"0.013": 3.77099591577,
			"0.014": 3.11126874548,
			"0.015": 1.31416888471,
			"0.016": 0.490984512674,
			"0.017": 0.0,
			"0.018": 0.0,
			"0.019": 0.0,
			"0.02": 0.0,
			"0.021": 0.0,
			"0.022": 0.0,
			"0.023": 0.0,
			"0.024": 0.0,
			"0.025": 0.0
		}
	}
}
