{
	 "smiles": "ClC1=CC=C(C=C1)C1=CSC(=N1)N1N=C(CC1C1=CC=C2OCOC2=C1)C1=CN=CC=N1", 
	 "Tm": 460.15, 
	 "num_atms": 48, 
	 "gaussian": { 
		 "optdone": 1, 
		 "sigma_profile": "yes", 
		 "theory": "DFT", 
		 "functional": "B3LYP", 
		 "basiset": "6-31G**", 
		 "properties": { 
			 "R2extent": 20354.0067, 
			 "electric_dipole_moment_norm": 2.82758197229, 
			 "electric_quadrupole_moment_norm": 19.4697893104, 
			 "total_energy": -2168.60498342, 
			 "HOMO_LUMO_gap": 0.1205, 
			 "cosmo_polarized_energy": -21.28, 
			 "cosmo_cavitation_energy": 57.48, 
			 "cosmo_dispersion_energy": -39.82, 
			 "cosmo_repulsion_energy": 2.93, 
			 "cosmo_total_nonelectrostatic_energy": 20.6, 
			 "SMD_solvation_energy": 5.06 
		},
		"coords": [
			{
				"x": -2.1622102545,
				"y": 6.3580988632,
				"z": 4.1542439722,
				"element": "Cl" 
			},
			{
				"x": -1.2643116466,
				"y": 5.2780374888,
				"z": 3.0948189931,
				"element": "C" 
			},
			{
				"x": -0.0558885997,
				"y": 5.7049156271,
				"z": 2.5433744483,
				"element": "C" 
			},
			{
				"x": 0.6511889325,
				"y": 4.8451824628,
				"z": 1.7078644688,
				"element": "C" 
			},
			{
				"x": 0.1676238923,
				"y": 3.5609295436,
				"z": 1.4068884832,
				"element": "C" 
			},
			{
				"x": -1.0491316455,
				"y": 3.1574866206,
				"z": 1.9809508935,
				"element": "C" 
			},
			{
				"x": -1.7659968436,
				"y": 4.0069665622,
				"z": 2.8205056105,
				"element": "C" 
			},
			{
				"x": 0.8967027821,
				"y": 2.6410438718,
				"z": 0.5143422772,
				"element": "C" 
			},
			{
				"x": 1.9756821422,
				"y": 2.9494153281,
				"z": -0.2716930831,
				"element": "C" 
			},
			{
				"x": 2.515253565,
				"y": 1.557922146,
				"z": -1.1730817466,
				"element": "S" 
			},
			{
				"x": 1.2093369324,
				"y": 0.6537720139,
				"z": -0.408372991,
				"element": "C" 
			},
			{
				"x": 0.4692785599,
				"y": 1.3237173361,
				"z": 0.4266888412,
				"element": "N" 
			},
			{
				"x": 1.007611801,
				"y": -0.6726270865,
				"z": -0.6871187639,
				"element": "N" 
			},
			{
				"x": 1.8928780502,
				"y": -1.3551985993,
				"z": -1.4560128841,
				"element": "N" 
			},
			{
				"x": 1.6130763421,
				"y": -2.6192744567,
				"z": -1.4061119105,
				"element": "C" 
			},
			{
				"x": 0.4350224002,
				"y": -2.9310029206,
				"z": -0.4980317528,
				"element": "C" 
			},
			{
				"x": -0.0299670287,
				"y": -1.5164461101,
				"z": -0.0406105795,
				"element": "C" 
			},
			{
				"x": -1.4408738026,
				"y": -1.1518380258,
				"z": -0.4680127351,
				"element": "C" 
			},
			{
				"x": -1.7476327042,
				"y": -0.9585099502,
				"z": -1.8185583317,
				"element": "C" 
			},
			{
				"x": -3.0537749377,
				"y": -0.6623658746,
				"z": -2.2451327235,
				"element": "C" 
			},
			{
				"x": -4.025450238,
				"y": -0.5746461087,
				"z": -1.2674081984,
				"element": "C" 
			},
			{
				"x": -5.3669767169,
				"y": -0.3195988795,
				"z": -1.4131181925,
				"element": "O" 
			},
			{
				"x": -5.8859709761,
				"y": -0.1996384377,
				"z": -0.0830496234,
				"element": "C" 
			},
			{
				"x": -4.8714938389,
				"y": -0.6390079403,
				"z": 0.8292991068,
				"element": "O" 
			},
			{
				"x": -3.7277062098,
				"y": -0.7668663718,
				"z": 0.0796257522,
				"element": "C" 
			},
			{
				"x": -2.4492172807,
				"y": -1.0552327166,
				"z": 0.5129159491,
				"element": "C" 
			},
			{
				"x": 2.3813632335,
				"y": -3.6169396197,
				"z": -2.1503139449,
				"element": "C" 
			},
			{
				"x": 2.0691646022,
				"y": -4.9860089614,
				"z": -2.0464926491,
				"element": "C" 
			},
			{
				"x": 2.7474527763,
				"y": -5.9308036904,
				"z": -2.7019449569,
				"element": "N" 
			},
			{
				"x": 3.7528395576,
				"y": -5.5079202697,
				"z": -3.4743790652,
				"element": "C" 
			},
			{
				"x": 4.070264403,
				"y": -4.1487689658,
				"z": -3.5854771948,
				"element": "C" 
			},
			{
				"x": 3.3977551177,
				"y": -3.2033507062,
				"z": -2.935224493,
				"element": "N" 
			},
			{
				"x": 0.327083466,
				"y": 6.693470406,
				"z": 2.771401609,
				"element": "H" 
			},
			{
				"x": 1.5984878719,
				"y": 5.18096075,
				"z": 1.2975287319,
				"element": "H" 
			},
			{
				"x": -1.4278824232,
				"y": 2.1670867065,
				"z": 1.7556554732,
				"element": "H" 
			},
			{
				"x": -2.7058795685,
				"y": 3.6877498921,
				"z": 3.2575509931,
				"element": "H" 
			},
			{
				"x": 2.4768284313,
				"y": 3.8978659498,
				"z": -0.3943626632,
				"element": "H" 
			},
			{
				"x": 0.739752676,
				"y": -3.5572806,
				"z": 0.3478653302,
				"element": "H" 
			},
			{
				"x": -0.3657058233,
				"y": -3.4588508075,
				"z": -1.0246912596,
				"element": "H" 
			},
			{
				"x": 0.0559609695,
				"y": -1.3941681516,
				"z": 1.0430218134,
				"element": "H" 
			},
			{
				"x": -0.9555813643,
				"y": -1.0190286919,
				"z": -2.5590352226,
				"element": "H" 
			},
			{
				"x": -3.2901215205,
				"y": -0.5063536314,
				"z": -3.2914748252,
				"element": "H" 
			},
			{
				"x": -6.7704607894,
				"y": -0.8353298176,
				"z": 0.022022835,
				"element": "H" 
			},
			{
				"x": -6.1327302462,
				"y": 0.8517930381,
				"z": 0.1214044677,
				"element": "H" 
			},
			{
				"x": -2.2314807689,
				"y": -1.1930955755,
				"z": 1.5666923329,
				"element": "H" 
			},
			{
				"x": 1.2500697545,
				"y": -5.3273730728,
				"z": -1.4173980659,
				"element": "H" 
			},
			{
				"x": 4.3173737113,
				"y": -6.2629803362,
				"z": -4.0168811962,
				"element": "H" 
			},
			{
				"x": 4.8915932571,
				"y": -3.8205082309,
				"z": -4.2201733297,
				"element": "H" 
			}
		],
		 "valence_orbital": [ 
			{
				"type": "occ",
				"energy": -0.2542,
				"method": "rhf"
			},
			{
				"type": "occ",
				"energy": -0.2533,
				"method": "rhf"
			},
			{
				"type": "occ",
				"energy": -0.23136,
				"method": "rhf"
			},
			{
				"type": "occ",
				"energy": -0.21347,
				"method": "rhf"
			},
			{
				"type": "occ",
				"energy": -0.19545,
				"method": "rhf"
			},
			{
				"type": "unocc",
				"energy": -0.07495,
				"method": "rhf"
			},
			{
				"type": "unocc",
				"energy": -0.04536,
				"method": "rhf"
			},
			{
				"type": "unocc",
				"energy": -0.03252,
				"method": "rhf"
			},
			{
				"type": "unocc",
				"energy": -0.00965,
				"method": "rhf"
			},
			{
				"type": "unocc",
				"energy": -0.00795,
				"method": "rhf"
			}
		],
		"cosmo_sigma_profile": { 
			"-0.025": 0.0,
			"-0.024": 0.0,
			"-0.023": 0.0,
			"-0.022": 0.0,
			"-0.021": 0.0,
			"-0.02": 0.0,
			"-0.019": 0.0,
			"-0.018": 0.0,
			"-0.017": 0.0,
			"-0.016": 0.0,
			"-0.015": 0.0,
			"-0.014": 0.0,
			"-0.013": 0.0,
			"-0.012": 0.0,
			"-0.011": 0.0,
			"-0.01": 0.271086309494,
			"-0.009": 2.18670662214,
			"-0.008": 13.4005687229,
			"-0.007": 33.3035366995,
			"-0.006": 28.5865388447,
			"-0.005": 28.364205894,
			"-0.004": 24.6710572984,
			"-0.003": 21.7831853518,
			"-0.002": 28.3262129597,
			"-0.001": 30.917599439,
			"0.0": 31.636454867,
			"0.001": 30.7386409989,
			"0.002": 41.7582561775,
			"0.003": 48.6899257005,
			"0.004": 37.3708835055,
			"0.005": 17.6683207232,
			"0.006": 10.6217635802,
			"0.007": 8.38028211668,
			"0.008": 6.96025075947,
			"0.009": 7.17543768386,
			"0.01": 4.4175636391,
			"0.011": 1.87330361094,
			"0.012": 2.26612057099,
			"0.013": 1.70414197888,
			"0.014": 2.12810944793,
			"0.015": 1.38311871777,
			"0.016": 1.02214899761,
			"0.017": 0.162897454259,
			"0.018": 0.0,
			"0.019": 0.0,
			"0.02": 0.0,
			"0.021": 0.0,
			"0.022": 0.0,
			"0.023": 0.0,
			"0.024": 0.0,
			"0.025": 0.0
		}
	}
}
