{
	 "smiles": "FC1=CC2=C(C=CC=N2)C(F)=C1", 
	 "Tm": 350.15, 
	 "num_atms": 17, 
	 "gaussian": { 
		 "optdone": 1, 
		 "sigma_profile": "yes", 
		 "theory": "DFT", 
		 "functional": "B3LYP", 
		 "basiset": "6-31G**", 
		 "properties": { 
			 "R2extent": 2145.7678, 
			 "electric_dipole_moment_norm": 1.96226406735, 
			 "electric_quadrupole_moment_norm": 6.01223629858, 
			 "total_energy": -600.393856082, 
			 "HOMO_LUMO_gap": 0.1752, 
			 "cosmo_polarized_energy": -5.67, 
			 "cosmo_cavitation_energy": 22.38, 
			 "cosmo_dispersion_energy": -16.59, 
			 "cosmo_repulsion_energy": 1.24, 
			 "cosmo_total_nonelectrostatic_energy": 7.03, 
			 "SMD_solvation_energy": 3.24 
		},
		"coords": [
			{
				"x": 1.243838519,
				"y": -3.2406322833,
				"z": 1.6908307867,
				"element": "F" 
			},
			{
				"x": 0.698571046,
				"y": -2.0596977374,
				"z": 1.3438847304,
				"element": "C" 
			},
			{
				"x": -0.6631050497,
				"y": -1.9468098526,
				"z": 1.2254899657,
				"element": "C" 
			},
			{
				"x": -1.2167546162,
				"y": -0.692212361,
				"z": 0.8585643368,
				"element": "C" 
			},
			{
				"x": -0.3508169235,
				"y": 0.4245457781,
				"z": 0.6203474176,
				"element": "C" 
			},
			{
				"x": -0.9290949455,
				"y": 1.6637022992,
				"z": 0.2559218925,
				"element": "C" 
			},
			{
				"x": -2.2971846979,
				"y": 1.7454057053,
				"z": 0.1454117664,
				"element": "C" 
			},
			{
				"x": -3.071113132,
				"y": 0.5852594349,
				"z": 0.4010639193,
				"element": "C" 
			},
			{
				"x": -2.5722179885,
				"y": -0.5866192974,
				"z": 0.742561956,
				"element": "N" 
			},
			{
				"x": 1.043980509,
				"y": 0.2230190217,
				"z": 0.7642829547,
				"element": "C" 
			},
			{
				"x": 1.8575499201,
				"y": 1.275147448,
				"z": 0.5397386968,
				"element": "F" 
			},
			{
				"x": 1.5860776785,
				"y": -0.984804558,
				"z": 1.1181457725,
				"element": "C" 
			},
			{
				"x": -1.319040641,
				"y": -2.7894388523,
				"z": 1.4050638466,
				"element": "H" 
			},
			{
				"x": -0.2883240622,
				"y": 2.5195565558,
				"z": 0.0718607236,
				"element": "H" 
			},
			{
				"x": -2.7876595277,
				"y": 2.6728729935,
				"z": -0.1311014825,
				"element": "H" 
			},
			{
				"x": -4.1561589069,
				"y": 0.6381219959,
				"z": 0.3165677024,
				"element": "H" 
			},
			{
				"x": 2.6558528185,
				"y": -1.1166162903,
				"z": 1.2225650146,
				"element": "H" 
			}
		],
		 "valence_orbital": [ 
			{
				"type": "occ",
				"energy": -0.33742,
				"method": "rhf"
			},
			{
				"type": "occ",
				"energy": -0.31247,
				"method": "rhf"
			},
			{
				"type": "occ",
				"energy": -0.26431,
				"method": "rhf"
			},
			{
				"type": "occ",
				"energy": -0.26165,
				"method": "rhf"
			},
			{
				"type": "occ",
				"energy": -0.23675,
				"method": "rhf"
			},
			{
				"type": "unocc",
				"energy": -0.06155,
				"method": "rhf"
			},
			{
				"type": "unocc",
				"energy": -0.02616,
				"method": "rhf"
			},
			{
				"type": "unocc",
				"energy": 0.01513,
				"method": "rhf"
			},
			{
				"type": "unocc",
				"energy": 0.08283,
				"method": "rhf"
			},
			{
				"type": "unocc",
				"energy": 0.08449,
				"method": "rhf"
			}
		],
		"cosmo_sigma_profile": { 
			"-0.025": 0.0,
			"-0.024": 0.0,
			"-0.023": 0.0,
			"-0.022": 0.0,
			"-0.021": 0.0,
			"-0.02": 0.0,
			"-0.019": 0.0,
			"-0.018": 0.0,
			"-0.017": 0.0,
			"-0.016": 0.0,
			"-0.015": 0.0,
			"-0.014": 0.0,
			"-0.013": 0.0,
			"-0.012": 0.0,
			"-0.011": 0.0,
			"-0.01": 0.0446063084203,
			"-0.009": 1.27592714766,
			"-0.008": 2.49795924855,
			"-0.007": 7.7919790174,
			"-0.006": 9.42085768296,
			"-0.005": 8.89581797854,
			"-0.004": 7.78222759998,
			"-0.003": 7.20608073854,
			"-0.002": 9.7921271516,
			"-0.001": 17.8994584147,
			"0.0": 26.4598342698,
			"0.001": 23.1173168177,
			"0.002": 16.4488953434,
			"0.003": 16.4973224018,
			"0.004": 13.9541531112,
			"0.005": 1.97677930621,
			"0.006": 1.29062649227,
			"0.007": 1.30227887359,
			"0.008": 1.22673560094,
			"0.009": 1.13750710584,
			"0.01": 0.94102923995,
			"0.011": 1.3088576538,
			"0.012": 0.460106816639,
			"0.013": 0.545596109068,
			"0.014": 1.03958910949,
			"0.015": 0.768344962415,
			"0.016": 0.359587742476,
			"0.017": 0.0,
			"0.018": 0.0,
			"0.019": 0.0,
			"0.02": 0.0,
			"0.021": 0.0,
			"0.022": 0.0,
			"0.023": 0.0,
			"0.024": 0.0,
			"0.025": 0.0
		}
	}
}
