{
	 "smiles": "OCCN1C=NC2=C(SC=C2)C1=O", 
	 "Tm": 453.15, 
	 "num_atms": 21, 
	 "gaussian": { 
		 "optdone": 1, 
		 "sigma_profile": "yes", 
		 "theory": "DFT", 
		 "functional": "B3LYP", 
		 "basiset": "6-31G**", 
		 "properties": { 
			 "R2extent": 3467.2251, 
			 "electric_dipole_moment_norm": 1.95927896431, 
			 "electric_quadrupole_moment_norm": 13.414280346, 
			 "total_energy": -967.806603825, 
			 "HOMO_LUMO_gap": 0.18154, 
			 "cosmo_polarized_energy": -15.3, 
			 "cosmo_cavitation_energy": 26.82, 
			 "cosmo_dispersion_energy": -20.41, 
			 "cosmo_repulsion_energy": 1.56, 
			 "cosmo_total_nonelectrostatic_energy": 7.98, 
			 "SMD_solvation_energy": 3.57 
		},
		"coords": [
			{
				"x": 0.2832257398,
				"y": 4.6555952369,
				"z": 2.7442567499,
				"element": "O" 
			},
			{
				"x": 0.7887997798,
				"y": 3.6034288324,
				"z": 1.9371648563,
				"element": "C" 
			},
			{
				"x": -0.402581334,
				"y": 2.693905494,
				"z": 1.6343709853,
				"element": "C" 
			},
			{
				"x": -0.009598383,
				"y": 1.4887407322,
				"z": 0.8946269884,
				"element": "N" 
			},
			{
				"x": 0.1521852436,
				"y": 0.2918350091,
				"z": 1.5495905635,
				"element": "C" 
			},
			{
				"x": 0.4991078103,
				"y": -0.8363732919,
				"z": 1.0118709345,
				"element": "N" 
			},
			{
				"x": 0.7177010441,
				"y": -0.7978179311,
				"z": -0.3470380651,
				"element": "C" 
			},
			{
				"x": 0.5758687925,
				"y": 0.368126752,
				"z": -1.0985056351,
				"element": "C" 
			},
			{
				"x": 0.9155376853,
				"y": 0.1109927174,
				"z": -2.7807429466,
				"element": "S" 
			},
			{
				"x": 1.2465112388,
				"y": -1.5700800565,
				"z": -2.4667337602,
				"element": "C" 
			},
			{
				"x": 1.1071952298,
				"y": -1.9153362594,
				"z": -1.1535450011,
				"element": "C" 
			},
			{
				"x": 0.2007440702,
				"y": 1.6251718065,
				"z": -0.5076635332,
				"element": "C" 
			},
			{
				"x": 0.0630402146,
				"y": 2.7073791402,
				"z": -1.0680628595,
				"element": "O" 
			},
			{
				"x": 0.9401188061,
				"y": 5.361096697,
				"z": 2.7705646281,
				"element": "H" 
			},
			{
				"x": 1.2066693218,
				"y": 3.9676380205,
				"z": 0.990331822,
				"element": "H" 
			},
			{
				"x": 1.5690291626,
				"y": 3.0261988925,
				"z": 2.46019591,
				"element": "H" 
			},
			{
				"x": -0.8766322554,
				"y": 2.3883084006,
				"z": 2.5705871749,
				"element": "H" 
			},
			{
				"x": -1.129623414,
				"y": 3.2412907305,
				"z": 1.0326168564,
				"element": "H" 
			},
			{
				"x": -0.0420418651,
				"y": 0.3285715939,
				"z": 2.6194700843,
				"element": "H" 
			},
			{
				"x": 1.528674124,
				"y": -2.2128069066,
				"z": -3.2898664667,
				"element": "H" 
			},
			{
				"x": 1.2673689883,
				"y": -2.9093656101,
				"z": -0.754989286,
				"element": "H" 
			}
		],
		 "valence_orbital": [ 
			{
				"type": "occ",
				"energy": -0.28269,
				"method": "rhf"
			},
			{
				"type": "occ",
				"energy": -0.28001,
				"method": "rhf"
			},
			{
				"type": "occ",
				"energy": -0.26703,
				"method": "rhf"
			},
			{
				"type": "occ",
				"energy": -0.25499,
				"method": "rhf"
			},
			{
				"type": "occ",
				"energy": -0.23225,
				"method": "rhf"
			},
			{
				"type": "unocc",
				"energy": -0.05071,
				"method": "rhf"
			},
			{
				"type": "unocc",
				"energy": -0.01654,
				"method": "rhf"
			},
			{
				"type": "unocc",
				"energy": 0.02315,
				"method": "rhf"
			},
			{
				"type": "unocc",
				"energy": 0.037,
				"method": "rhf"
			},
			{
				"type": "unocc",
				"energy": 0.06408,
				"method": "rhf"
			}
		],
		"cosmo_sigma_profile": { 
			"-0.025": 0.0,
			"-0.024": 0.0,
			"-0.023": 0.0,
			"-0.022": 0.0,
			"-0.021": 0.0,
			"-0.02": 0.0,
			"-0.019": 0.0,
			"-0.018": 0.0,
			"-0.017": 0.0051883472064,
			"-0.016": 1.18350318823,
			"-0.015": 0.716781140917,
			"-0.014": 1.13047903159,
			"-0.013": 1.20792531161,
			"-0.012": 0.766651721213,
			"-0.011": 0.897383619519,
			"-0.01": 4.04850627783,
			"-0.009": 5.68388435878,
			"-0.008": 6.52615692475,
			"-0.007": 7.65896289937,
			"-0.006": 8.04507150568,
			"-0.005": 10.3472551481,
			"-0.004": 16.2414679801,
			"-0.003": 18.6763501302,
			"-0.002": 10.9850329947,
			"-0.001": 9.42164581457,
			"0.0": 11.0392220287,
			"0.001": 21.4461550707,
			"0.002": 17.5636132041,
			"0.003": 13.6325872894,
			"0.004": 7.1990979442,
			"0.005": 5.12263779278,
			"0.006": 4.05748069193,
			"0.007": 3.92210747065,
			"0.008": 2.67143271727,
			"0.009": 3.45919878327,
			"0.01": 4.18605291001,
			"0.011": 4.26825929936,
			"0.012": 4.91638682088,
			"0.013": 6.84163723558,
			"0.014": 1.74507828877,
			"0.015": 0.659741022895,
			"0.016": 0.00109437316248,
			"0.017": 0.0,
			"0.018": 0.0,
			"0.019": 0.0,
			"0.02": 0.0,
			"0.021": 0.0,
			"0.022": 0.0,
			"0.023": 0.0,
			"0.024": 0.0,
			"0.025": 0.0
		}
	}
}
