{
	 "smiles": "OC(CN1CCOCC1)CS(O)(=O)=O", 
	 "Tm": 547.15, 
	 "num_atms": 29, 
	 "gaussian": { 
		 "optdone": 1, 
		 "sigma_profile": "yes", 
		 "theory": "DFT", 
		 "functional": "B3LYP", 
		 "basiset": "6-31G**", 
		 "properties": { 
			 "R2extent": 4419.7107, 
			 "electric_dipole_moment_norm": 2.61971901547, 
			 "electric_quadrupole_moment_norm": 17.4866544608, 
			 "total_energy": -1104.75277369, 
			 "HOMO_LUMO_gap": 0.25677, 
			 "cosmo_polarized_energy": -17.84, 
			 "cosmo_cavitation_energy": 31.67, 
			 "cosmo_dispersion_energy": -23.51, 
			 "cosmo_repulsion_energy": 1.82, 
			 "cosmo_total_nonelectrostatic_energy": 9.99, 
			 "SMD_solvation_energy": 3.02 
		},
		"coords": [
			{
				"x": -0.885208943,
				"y": -1.3244525018,
				"z": 1.8076147132,
				"element": "O" 
			},
			{
				"x": -0.2321756277,
				"y": -0.8212460502,
				"z": 0.6622374342,
				"element": "C" 
			},
			{
				"x": -0.3046419841,
				"y": 0.7098371016,
				"z": 0.7655679205,
				"element": "C" 
			},
			{
				"x": 0.3144084549,
				"y": 1.3913565172,
				"z": -0.3678770905,
				"element": "N" 
			},
			{
				"x": -0.5371499442,
				"y": 1.4063672016,
				"z": -1.5640308247,
				"element": "C" 
			},
			{
				"x": 0.2052180174,
				"y": 2.0702101212,
				"z": -2.7221561181,
				"element": "C" 
			},
			{
				"x": 0.611589971,
				"y": 3.389229624,
				"z": -2.3892108174,
				"element": "O" 
			},
			{
				"x": 1.4432210297,
				"y": 3.3842163064,
				"z": -1.2376130675,
				"element": "C" 
			},
			{
				"x": 0.7292226792,
				"y": 2.7602718685,
				"z": -0.0407348886,
				"element": "C" 
			},
			{
				"x": 1.2398521778,
				"y": -1.2647269668,
				"z": 0.5942676287,
				"element": "C" 
			},
			{
				"x": 1.4174643312,
				"y": -3.0136497403,
				"z": 0.2146661031,
				"element": "S" 
			},
			{
				"x": 0.9145266366,
				"y": -3.0148838211,
				"z": -1.3544768172,
				"element": "O" 
			},
			{
				"x": 2.8223359,
				"y": -3.4170966539,
				"z": 0.2128122831,
				"element": "O" 
			},
			{
				"x": 0.429105506,
				"y": -3.7571664384,
				"z": 1.0004866637,
				"element": "O" 
			},
			{
				"x": -0.8284004162,
				"y": -2.2929012212,
				"z": 1.7729947223,
				"element": "H" 
			},
			{
				"x": -0.7381653112,
				"y": -1.1510205621,
				"z": -0.2579388766,
				"element": "H" 
			},
			{
				"x": 0.2203055871,
				"y": 1.0029228934,
				"z": 1.681802585,
				"element": "H" 
			},
			{
				"x": -1.3644938359,
				"y": 0.9843087014,
				"z": 0.9061489514,
				"element": "H" 
			},
			{
				"x": -0.7973168177,
				"y": 0.380600877,
				"z": -1.8455586346,
				"element": "H" 
			},
			{
				"x": -1.4810482995,
				"y": 1.9524296994,
				"z": -1.3760209439,
				"element": "H" 
			},
			{
				"x": -0.4461215605,
				"y": 2.1538335217,
				"z": -3.5968654581,
				"element": "H" 
			},
			{
				"x": 1.081479147,
				"y": 1.4580892555,
				"z": -2.992807802,
				"element": "H" 
			},
			{
				"x": 2.3716066125,
				"y": 2.8251222815,
				"z": -1.4404799718,
				"element": "H" 
			},
			{
				"x": 1.7003924507,
				"y": 4.4271861783,
				"z": -1.0315052772,
				"element": "H" 
			},
			{
				"x": 1.4093861284,
				"y": 2.7315566079,
				"z": 0.818416053,
				"element": "H" 
			},
			{
				"x": -0.1342783078,
				"y": 3.395125442,
				"z": 0.2336798204,
				"element": "H" 
			},
			{
				"x": 1.7169464314,
				"y": -1.1408871637,
				"z": 1.5715832063,
				"element": "H" 
			},
			{
				"x": 1.7912740714,
				"y": -0.7042499139,
				"z": -0.163289122,
				"element": "H" 
			},
			{
				"x": 1.5886659158,
				"y": -3.5037831652,
				"z": -1.856412375,
				"element": "H" 
			}
		],
		 "valence_orbital": [ 
			{
				"type": "occ",
				"energy": -0.31567,
				"method": "rhf"
			},
			{
				"type": "occ",
				"energy": -0.31122,
				"method": "rhf"
			},
			{
				"type": "occ",
				"energy": -0.28055,
				"method": "rhf"
			},
			{
				"type": "occ",
				"energy": -0.26184,
				"method": "rhf"
			},
			{
				"type": "occ",
				"energy": -0.23347,
				"method": "rhf"
			},
			{
				"type": "unocc",
				"energy": 0.0233,
				"method": "rhf"
			},
			{
				"type": "unocc",
				"energy": 0.05591,
				"method": "rhf"
			},
			{
				"type": "unocc",
				"energy": 0.06954,
				"method": "rhf"
			},
			{
				"type": "unocc",
				"energy": 0.07526,
				"method": "rhf"
			},
			{
				"type": "unocc",
				"energy": 0.08658,
				"method": "rhf"
			}
		],
		"cosmo_sigma_profile": { 
			"-0.025": 0.0,
			"-0.024": 0.0,
			"-0.023": 0.0,
			"-0.022": 0.0,
			"-0.021": 0.0,
			"-0.02": 0.582124666061,
			"-0.019": 0.737934912243,
			"-0.018": 1.43795715878,
			"-0.017": 0.618228037253,
			"-0.016": 0.531664118036,
			"-0.015": 0.454188640921,
			"-0.014": 0.842862365357,
			"-0.013": 0.951310496884,
			"-0.012": 0.942376712145,
			"-0.011": 0.611830462731,
			"-0.01": 1.54288080474,
			"-0.009": 2.91909122064,
			"-0.008": 4.07700904751,
			"-0.007": 4.83535787578,
			"-0.006": 8.31561194784,
			"-0.005": 17.3234665455,
			"-0.004": 20.5385985882,
			"-0.003": 29.4764128032,
			"-0.002": 31.1375443305,
			"-0.001": 17.8200762925,
			"0.0": 10.071537341,
			"0.001": 8.3047673767,
			"0.002": 5.74379398901,
			"0.003": 7.36877645462,
			"0.004": 7.25978432602,
			"0.005": 6.0765113829,
			"0.006": 6.52285215307,
			"0.007": 7.90602914678,
			"0.008": 7.61132495745,
			"0.009": 8.62227459919,
			"0.01": 11.41086011,
			"0.011": 5.79909533721,
			"0.012": 2.5104587081,
			"0.013": 4.14843096995,
			"0.014": 1.12305564507,
			"0.015": 0.0,
			"0.016": 0.0,
			"0.017": 0.0,
			"0.018": 0.0,
			"0.019": 0.0,
			"0.02": 0.0,
			"0.021": 0.0,
			"0.022": 0.0,
			"0.023": 0.0,
			"0.024": 0.0,
			"0.025": 0.0
		}
	}
}
