{
	 "smiles": "CC(=O)C1=CC=C(C=C1)C1=CC=CC=C1", 
	 "Tm": 394.15, 
	 "num_atms": 27, 
	 "gaussian": { 
		 "optdone": 1, 
		 "sigma_profile": "yes", 
		 "theory": "DFT", 
		 "functional": "B3LYP", 
		 "basiset": "6-31G**", 
		 "properties": { 
			 "R2extent": 5043.3836, 
			 "electric_dipole_moment_norm": 3.30101974244, 
			 "electric_quadrupole_moment_norm": 17.9953590675, 
			 "total_energy": -615.959510259, 
			 "HOMO_LUMO_gap": 0.17128, 
			 "cosmo_polarized_energy": -9.61, 
			 "cosmo_cavitation_energy": 31.02, 
			 "cosmo_dispersion_energy": -22.56, 
			 "cosmo_repulsion_energy": 1.73, 
			 "cosmo_total_nonelectrostatic_energy": 10.19, 
			 "SMD_solvation_energy": 5.75 
		},
		"coords": [
			{
				"x": -2.7161989396,
				"y": 5.3640274729,
				"z": -0.3355991057,
				"element": "C" 
			},
			{
				"x": -2.941328833,
				"y": 4.0762255772,
				"z": 0.4402511281,
				"element": "C" 
			},
			{
				"x": -3.8064665319,
				"y": 4.0147695645,
				"z": 1.3018441326,
				"element": "O" 
			},
			{
				"x": -2.0858792918,
				"y": 2.8866337652,
				"z": 0.1307369309,
				"element": "C" 
			},
			{
				"x": -2.3031708653,
				"y": 1.7028887041,
				"z": 0.8536729752,
				"element": "C" 
			},
			{
				"x": -1.5398920337,
				"y": 0.5698616223,
				"z": 0.6071143329,
				"element": "C" 
			},
			{
				"x": -0.5276145212,
				"y": 0.5761951405,
				"z": -0.3717457824,
				"element": "C" 
			},
			{
				"x": -0.3136501296,
				"y": 1.7640477048,
				"z": -1.0921125484,
				"element": "C" 
			},
			{
				"x": -1.0797645902,
				"y": 2.9001116187,
				"z": -0.8466390196,
				"element": "C" 
			},
			{
				"x": 0.2896397666,
				"y": -0.6344657057,
				"z": -0.6346121043,
				"element": "C" 
			},
			{
				"x": 0.6835453069,
				"y": -1.4805105538,
				"z": 0.4165995968,
				"element": "C" 
			},
			{
				"x": 1.4520210831,
				"y": -2.6171335759,
				"z": 0.1704940307,
				"element": "C" 
			},
			{
				"x": 1.8422314805,
				"y": -2.9336721855,
				"z": -1.1321880232,
				"element": "C" 
			},
			{
				"x": 1.4576313875,
				"y": -2.1033295979,
				"z": -2.1867344674,
				"element": "C" 
			},
			{
				"x": 0.6902337916,
				"y": -0.9659856341,
				"z": -1.9405970958,
				"element": "C" 
			},
			{
				"x": -2.860727195,
				"y": 5.2071724819,
				"z": -1.4102638784,
				"element": "H" 
			},
			{
				"x": -1.6948044247,
				"y": 5.7347270876,
				"z": -0.1945429347,
				"element": "H" 
			},
			{
				"x": -3.4247804521,
				"y": 6.1126987231,
				"z": 0.0194591063,
				"element": "H" 
			},
			{
				"x": -3.089122075,
				"y": 1.6983772789,
				"z": 1.6015789035,
				"element": "H" 
			},
			{
				"x": -1.7425087688,
				"y": -0.3435830071,
				"z": 1.1580321858,
				"element": "H" 
			},
			{
				"x": 0.4790536454,
				"y": 1.8037560785,
				"z": -1.832874015,
				"element": "H" 
			},
			{
				"x": -0.8808055057,
				"y": 3.802073721,
				"z": -1.4166557144,
				"element": "H" 
			},
			{
				"x": 0.407478382,
				"y": -1.2295261923,
				"z": 1.4363875658,
				"element": "H" 
			},
			{
				"x": 1.7530979942,
				"y": -3.2522908956,
				"z": 0.9987242,
				"element": "H" 
			},
			{
				"x": 2.4403487812,
				"y": -3.8197380841,
				"z": -1.3239026281,
				"element": "H" 
			},
			{
				"x": 1.7484376602,
				"y": -2.3459408628,
				"z": -3.2048954678,
				"element": "H" 
			},
			{
				"x": 0.3736948784,
				"y": -0.3418902467,
				"z": -2.7710323035,
				"element": "H" 
			}
		],
		 "valence_orbital": [ 
			{
				"type": "occ",
				"energy": -0.2798,
				"method": "rhf"
			},
			{
				"type": "occ",
				"energy": -0.26023,
				"method": "rhf"
			},
			{
				"type": "occ",
				"energy": -0.25649,
				"method": "rhf"
			},
			{
				"type": "occ",
				"energy": -0.24566,
				"method": "rhf"
			},
			{
				"type": "occ",
				"energy": -0.23211,
				"method": "rhf"
			},
			{
				"type": "unocc",
				"energy": -0.06083,
				"method": "rhf"
			},
			{
				"type": "unocc",
				"energy": -0.01161,
				"method": "rhf"
			},
			{
				"type": "unocc",
				"energy": -0.00658,
				"method": "rhf"
			},
			{
				"type": "unocc",
				"energy": -0.00513,
				"method": "rhf"
			},
			{
				"type": "unocc",
				"energy": 0.05096,
				"method": "rhf"
			}
		],
		"cosmo_sigma_profile": { 
			"-0.025": 0.0,
			"-0.024": 0.0,
			"-0.023": 0.0,
			"-0.022": 0.0,
			"-0.021": 0.0,
			"-0.02": 0.0,
			"-0.019": 0.0,
			"-0.018": 0.0,
			"-0.017": 0.0,
			"-0.016": 0.0,
			"-0.015": 0.0,
			"-0.014": 0.0,
			"-0.013": 0.0,
			"-0.012": 0.0,
			"-0.011": 0.0,
			"-0.01": 0.0,
			"-0.009": 0.0,
			"-0.008": 0.0,
			"-0.007": 1.13442530412,
			"-0.006": 18.9845903577,
			"-0.005": 24.1872377185,
			"-0.004": 23.9786328173,
			"-0.003": 20.5009042294,
			"-0.002": 17.6160041499,
			"-0.001": 18.7107515848,
			"0.0": 15.5734177704,
			"0.001": 14.9392269665,
			"0.002": 18.6599181324,
			"0.003": 20.6612496262,
			"0.004": 20.8319247869,
			"0.005": 11.6332449994,
			"0.006": 5.44993901883,
			"0.007": 1.20811044083,
			"0.008": 1.14880811006,
			"0.009": 1.8670964822,
			"0.01": 2.30449776007,
			"0.011": 2.6663131448,
			"0.012": 4.18214271389,
			"0.013": 1.82409625917,
			"0.014": 0.260444302786,
			"0.015": 0.0,
			"0.016": 0.0,
			"0.017": 0.0,
			"0.018": 0.0,
			"0.019": 0.0,
			"0.02": 0.0,
			"0.021": 0.0,
			"0.022": 0.0,
			"0.023": 0.0,
			"0.024": 0.0,
			"0.025": 0.0
		}
	}
}
