{
	 "smiles": "BrCC(=O)C1=CC=C(C=C1)C1=CC=CC=C1", 
	 "Tm": 398.15, 
	 "num_atms": 27, 
	 "gaussian": { 
		 "optdone": 1, 
		 "sigma_profile": "yes", 
		 "theory": "DFT", 
		 "functional": "B3LYP", 
		 "basiset": "6-31G**", 
		 "properties": { 
			 "R2extent": 7662.0136, 
			 "electric_dipole_moment_norm": 3.59788743293, 
			 "electric_quadrupole_moment_norm": 12.3463045099, 
			 "total_energy": -3186.75505543, 
			 "HOMO_LUMO_gap": 0.15919, 
			 "cosmo_polarized_energy": -10.1, 
			 "cosmo_cavitation_energy": 33.58, 
			 "cosmo_dispersion_energy": -24.66, 
			 "cosmo_repulsion_energy": 1.9, 
			 "cosmo_total_nonelectrostatic_energy": 10.83, 
			 "SMD_solvation_energy": 4.89 
		},
		"coords": [
			{
				"x": 4.3401535158,
				"y": -0.4696784951,
				"z": -2.5451770187,
				"element": "Br" 
			},
			{
				"x": 3.6986357279,
				"y": 1.373572521,
				"z": -2.2060441284,
				"element": "C" 
			},
			{
				"x": 2.1864300664,
				"y": 1.4754986197,
				"z": -2.3920924674,
				"element": "C" 
			},
			{
				"x": 1.7642611118,
				"y": 2.0552168392,
				"z": -3.3810870094,
				"element": "O" 
			},
			{
				"x": 1.2711266626,
				"y": 0.9193865694,
				"z": -1.3567874842,
				"element": "C" 
			},
			{
				"x": 1.7191305018,
				"y": 0.2560247063,
				"z": -0.203560362,
				"element": "C" 
			},
			{
				"x": 0.8098534655,
				"y": -0.2149171068,
				"z": 0.7378700607,
				"element": "C" 
			},
			{
				"x": -0.5743616512,
				"y": -0.0404323773,
				"z": 0.5626375332,
				"element": "C" 
			},
			{
				"x": -1.0153816562,
				"y": 0.623580925,
				"z": -0.598258869,
				"element": "C" 
			},
			{
				"x": -0.110770721,
				"y": 1.0935116014,
				"z": -1.5397780249,
				"element": "C" 
			},
			{
				"x": -1.5409108988,
				"y": -0.5430296602,
				"z": 1.5695203207,
				"element": "C" 
			},
			{
				"x": -2.7756934714,
				"y": -1.0866270321,
				"z": 1.1746400592,
				"element": "C" 
			},
			{
				"x": -3.6834624429,
				"y": -1.5602077777,
				"z": 2.1203825827,
				"element": "C" 
			},
			{
				"x": -3.3776043139,
				"y": -1.498227142,
				"z": 3.4813215306,
				"element": "C" 
			},
			{
				"x": -2.1554498382,
				"y": -0.9596582136,
				"z": 3.8885510217,
				"element": "C" 
			},
			{
				"x": -1.2464156199,
				"y": -0.4882132586,
				"z": 2.9429622536,
				"element": "C" 
			},
			{
				"x": 4.1830615792,
				"y": 2.0027822199,
				"z": -2.9481991187,
				"element": "H" 
			},
			{
				"x": 4.0286865481,
				"y": 1.6268304805,
				"z": -1.1989163887,
				"element": "H" 
			},
			{
				"x": 2.7770669164,
				"y": 0.0743174274,
				"z": -0.047913616,
				"element": "H" 
			},
			{
				"x": 1.1743782807,
				"y": -0.7529256058,
				"z": 1.6072667937,
				"element": "H" 
			},
			{
				"x": -2.07749407,
				"y": 0.794017902,
				"z": -0.744598189,
				"element": "H" 
			},
			{
				"x": -0.4494715589,
				"y": 1.6152667794,
				"z": -2.4284877274,
				"element": "H" 
			},
			{
				"x": -3.0124669372,
				"y": -1.1638107347,
				"z": 0.117712077,
				"element": "H" 
			},
			{
				"x": -4.6277953211,
				"y": -1.9855810232,
				"z": 1.7929846062,
				"element": "H" 
			},
			{
				"x": -4.0854785136,
				"y": -1.866379339,
				"z": 4.2181062955,
				"element": "H" 
			},
			{
				"x": -1.9119263228,
				"y": -0.8988467133,
				"z": 4.9454057435,
				"element": "H" 
			},
			{
				"x": -0.3101010389,
				"y": -0.0472721118,
				"z": 3.2718395257,
				"element": "H" 
			}
		],
		 "valence_orbital": [ 
			{
				"type": "occ",
				"energy": -0.27969,
				"method": "rhf"
			},
			{
				"type": "occ",
				"energy": -0.2646,
				"method": "rhf"
			},
			{
				"type": "occ",
				"energy": -0.25951,
				"method": "rhf"
			},
			{
				"type": "occ",
				"energy": -0.25709,
				"method": "rhf"
			},
			{
				"type": "occ",
				"energy": -0.23635,
				"method": "rhf"
			},
			{
				"type": "unocc",
				"energy": -0.07716,
				"method": "rhf"
			},
			{
				"type": "unocc",
				"energy": -0.02663,
				"method": "rhf"
			},
			{
				"type": "unocc",
				"energy": -0.01593,
				"method": "rhf"
			},
			{
				"type": "unocc",
				"energy": -0.00951,
				"method": "rhf"
			},
			{
				"type": "unocc",
				"energy": 0.00629,
				"method": "rhf"
			}
		],
		"cosmo_sigma_profile": { 
			"-0.025": 0.0,
			"-0.024": 0.0,
			"-0.023": 0.0,
			"-0.022": 0.0,
			"-0.021": 0.0,
			"-0.02": 0.0,
			"-0.019": 0.0,
			"-0.018": 0.0,
			"-0.017": 0.0,
			"-0.016": 0.0,
			"-0.015": 0.0,
			"-0.014": 0.0,
			"-0.013": 0.0,
			"-0.012": 0.0,
			"-0.011": 0.0,
			"-0.01": 0.464160250303,
			"-0.009": 2.67752653942,
			"-0.008": 4.25380061037,
			"-0.007": 5.39694935794,
			"-0.006": 17.9636416819,
			"-0.005": 22.830719701,
			"-0.004": 20.5588788498,
			"-0.003": 17.6111937123,
			"-0.002": 15.6657018838,
			"-0.001": 15.4249987884,
			"0.0": 15.7748541167,
			"0.001": 21.1734934411,
			"0.002": 24.2360888507,
			"0.003": 28.4578794756,
			"0.004": 22.9836925687,
			"0.005": 19.3055960957,
			"0.006": 4.62990601281,
			"0.007": 1.48203750351,
			"0.008": 1.60565828506,
			"0.009": 2.06395857468,
			"0.01": 2.60668273955,
			"0.011": 4.01628281878,
			"0.012": 1.46773048321,
			"0.013": 0.0621932057284,
			"0.014": 0.0,
			"0.015": 0.0,
			"0.016": 0.0,
			"0.017": 0.0,
			"0.018": 0.0,
			"0.019": 0.0,
			"0.02": 0.0,
			"0.021": 0.0,
			"0.022": 0.0,
			"0.023": 0.0,
			"0.024": 0.0,
			"0.025": 0.0
		}
	}
}
