{
	 "smiles": "Cl[Si](Cl)(C1=CC=CC=C1)C1=CC=CC=C1", 
	 "Tm": 251.15, 
	 "num_atms": 25, 
	 "gaussian": { 
		 "optdone": 1, 
		 "sigma_profile": "yes", 
		 "theory": "DFT", 
		 "functional": "B3LYP", 
		 "basiset": "6-31G**", 
		 "properties": { 
			 "R2extent": 5436.7524, 
			 "electric_dipole_moment_norm": 3.5363046263, 
			 "electric_quadrupole_moment_norm": 15.4654861117, 
			 "total_energy": -1673.3073894, 
			 "HOMO_LUMO_gap": 0.22437, 
			 "cosmo_polarized_energy": -6.76, 
			 "cosmo_cavitation_energy": 34.18, 
			 "cosmo_dispersion_energy": -22.36, 
			 "cosmo_repulsion_energy": 1.84, 
			 "cosmo_total_nonelectrostatic_energy": 13.66, 
			 "SMD_solvation_energy": 5.19 
		},
		"coords": [
			{
				"x": 2.2018174431,
				"y": 2.4902580721,
				"z": 0.096085601,
				"element": "Cl" 
			},
			{
				"x": 1.90320608,
				"y": 0.6508106845,
				"z": -0.84461084,
				"element": "Si" 
			},
			{
				"x": 3.710804356,
				"y": 0.1381584075,
				"z": -1.7542330249,
				"element": "Cl" 
			},
			{
				"x": 0.5896106741,
				"y": 0.8418879346,
				"z": -2.1587632215,
				"element": "C" 
			},
			{
				"x": -0.4777797682,
				"y": 1.7423446102,
				"z": -1.9839391383,
				"element": "C" 
			},
			{
				"x": -1.4927346388,
				"y": 1.8398726996,
				"z": -2.9361784135,
				"element": "C" 
			},
			{
				"x": -1.4576469247,
				"y": 1.0399783646,
				"z": -4.0798808651,
				"element": "C" 
			},
			{
				"x": -0.404530797,
				"y": 0.1435206196,
				"z": -4.2707407459,
				"element": "C" 
			},
			{
				"x": 0.6107914739,
				"y": 0.0454979676,
				"z": -3.3189418131,
				"element": "C" 
			},
			{
				"x": 1.4997237981,
				"y": -0.6287595965,
				"z": 0.4527987807,
				"element": "C" 
			},
			{
				"x": 0.2936219987,
				"y": -1.3483458494,
				"z": 0.3838106434,
				"element": "C" 
			},
			{
				"x": -0.0206500333,
				"y": -2.3085434782,
				"z": 1.3480063209,
				"element": "C" 
			},
			{
				"x": 0.8662106057,
				"y": -2.5624940986,
				"z": 2.3940693808,
				"element": "C" 
			},
			{
				"x": 2.0694358378,
				"y": -1.8557848023,
				"z": 2.4770662934,
				"element": "C" 
			},
			{
				"x": 2.3832861692,
				"y": -0.8978695272,
				"z": 1.5154579652,
				"element": "C" 
			},
			{
				"x": -0.5114291131,
				"y": 2.3809204566,
				"z": -1.1058044361,
				"element": "H" 
			},
			{
				"x": -2.3064635151,
				"y": 2.5439116298,
				"z": -2.7879151115,
				"element": "H" 
			},
			{
				"x": -2.2462002762,
				"y": 1.1187249412,
				"z": -4.8229600187,
				"element": "H" 
			},
			{
				"x": -0.3698511105,
				"y": -0.4749734603,
				"z": -5.1629679781,
				"element": "H" 
			},
			{
				"x": 1.4308462184,
				"y": -0.6466301395,
				"z": -3.487773192,
				"element": "H" 
			},
			{
				"x": -0.4049063155,
				"y": -1.1592351873,
				"z": -0.4262372302,
				"element": "H" 
			},
			{
				"x": -0.9564038683,
				"y": -2.8560316156,
				"z": 1.2807842113,
				"element": "H" 
			},
			{
				"x": 0.6225431311,
				"y": -3.3092545413,
				"z": 3.1445475945,
				"element": "H" 
			},
			{
				"x": 2.7612219214,
				"y": -2.0523363025,
				"z": 3.2910610425,
				"element": "H" 
			},
			{
				"x": 3.3221766532,
				"y": -0.3560277892,
				"z": 1.5924581954,
				"element": "H" 
			}
		],
		 "valence_orbital": [ 
			{
				"type": "occ",
				"energy": -0.30093,
				"method": "rhf"
			},
			{
				"type": "occ",
				"energy": -0.26583,
				"method": "rhf"
			},
			{
				"type": "occ",
				"energy": -0.26485,
				"method": "rhf"
			},
			{
				"type": "occ",
				"energy": -0.26159,
				"method": "rhf"
			},
			{
				"type": "occ",
				"energy": -0.26024,
				"method": "rhf"
			},
			{
				"type": "unocc",
				"energy": -0.03587,
				"method": "rhf"
			},
			{
				"type": "unocc",
				"energy": -0.0342,
				"method": "rhf"
			},
			{
				"type": "unocc",
				"energy": -0.01583,
				"method": "rhf"
			},
			{
				"type": "unocc",
				"energy": -0.00881,
				"method": "rhf"
			},
			{
				"type": "unocc",
				"energy": 0.03033,
				"method": "rhf"
			}
		],
		"cosmo_sigma_profile": { 
			"-0.025": 0.0,
			"-0.024": 0.0,
			"-0.023": 0.0,
			"-0.022": 0.0,
			"-0.021": 0.0,
			"-0.02": 0.0,
			"-0.019": 0.0,
			"-0.018": 0.0,
			"-0.017": 0.0,
			"-0.016": 0.0,
			"-0.015": 0.0,
			"-0.014": 0.0,
			"-0.013": 0.0,
			"-0.012": 0.0,
			"-0.011": 0.0,
			"-0.01": 0.0,
			"-0.009": 0.0,
			"-0.008": 0.0,
			"-0.007": 2.13990490069,
			"-0.006": 17.2175893562,
			"-0.005": 23.5963900317,
			"-0.004": 22.6454849018,
			"-0.003": 16.4636576259,
			"-0.002": 17.7558067343,
			"-0.001": 16.4110918632,
			"0.0": 16.3656054864,
			"0.001": 23.3381366635,
			"0.002": 28.4682928394,
			"0.003": 33.6171725249,
			"0.004": 40.2294178696,
			"0.005": 16.9776507345,
			"0.006": 0.0,
			"0.007": 0.0,
			"0.008": 0.0,
			"0.009": 0.0,
			"0.01": 0.0,
			"0.011": 0.0,
			"0.012": 0.0,
			"0.013": 0.0,
			"0.014": 0.0,
			"0.015": 0.0,
			"0.016": 0.0,
			"0.017": 0.0,
			"0.018": 0.0,
			"0.019": 0.0,
			"0.02": 0.0,
			"0.021": 0.0,
			"0.022": 0.0,
			"0.023": 0.0,
			"0.024": 0.0,
			"0.025": 0.0
		}
	}
}
