{
	 "smiles": "FC(F)(Br)C(F)(F)C(F)(F)C(F)(F)C(F)(F)C(F)(F)C(F)(F)C(F)(F)Br", 
	 "Tm": 313.15, 
	 "num_atms": 26, 
	 "gaussian": { 
		 "optdone": 1, 
		 "sigma_profile": "yes", 
		 "theory": "DFT", 
		 "functional": "B3LYP", 
		 "basiset": "6-31G**", 
		 "properties": { 
			 "R2extent": 14091.0177, 
			 "electric_dipole_moment_norm": 0.377154848835, 
			 "electric_quadrupole_moment_norm": 4.89645236881, 
			 "total_energy": -7045.00692596, 
			 "HOMO_LUMO_gap": 0.26995, 
			 "cosmo_polarized_energy": -1.88, 
			 "cosmo_cavitation_energy": 39.54, 
			 "cosmo_dispersion_energy": -27.02, 
			 "cosmo_repulsion_energy": 1.77, 
			 "cosmo_total_nonelectrostatic_energy": 14.29, 
			 "SMD_solvation_energy": 9.1 
		},
		"coords": [
			{
				"x": -1.9517287759,
				"y": 0.7941351622,
				"z": 4.4880249007,
				"element": "F" 
			},
			{
				"x": -1.2914673209,
				"y": 1.5342576348,
				"z": 3.5860299382,
				"element": "C" 
			},
			{
				"x": -2.1789142675,
				"y": 2.2911227147,
				"z": 2.9210594712,
				"element": "F" 
			},
			{
				"x": -0.0256243763,
				"y": 2.6805419607,
				"z": 4.536380535,
				"element": "Br" 
			},
			{
				"x": -0.6035644814,
				"y": 0.5521826271,
				"z": 2.5827619469,
				"element": "C" 
			},
			{
				"x": -1.5088628778,
				"y": -0.4215778688,
				"z": 2.3209738768,
				"element": "F" 
			},
			{
				"x": 0.475508053,
				"y": -0.0001023215,
				"z": 3.1743267974,
				"element": "F" 
			},
			{
				"x": -0.2011060829,
				"y": 1.1885354884,
				"z": 1.2227467926,
				"element": "C" 
			},
			{
				"x": 0.3823154361,
				"y": 2.3894106793,
				"z": 1.4555522976,
				"element": "F" 
			},
			{
				"x": -1.3219558507,
				"y": 1.3832741827,
				"z": 0.4963944897,
				"element": "F" 
			},
			{
				"x": 0.8230437057,
				"y": 0.4021602079,
				"z": 0.3369776055,
				"element": "C" 
			},
			{
				"x": 2.007147466,
				"y": 0.3597490665,
				"z": 0.982329587,
				"element": "F" 
			},
			{
				"x": 0.9599354492,
				"y": 1.1488532742,
				"z": -0.7854744316,
				"element": "F" 
			},
			{
				"x": 0.4276174609,
				"y": -1.0383984422,
				"z": -0.075106961,
				"element": "C" 
			},
			{
				"x": -0.802922253,
				"y": -1.0220221751,
				"z": -0.6367901573,
				"element": "F" 
			},
			{
				"x": 0.3818747771,
				"y": -1.7855376297,
				"z": 1.0554977957,
				"element": "F" 
			},
			{
				"x": 1.3977290425,
				"y": -1.8096528985,
				"z": -1.0258673209,
				"element": "C" 
			},
			{
				"x": 2.5965712853,
				"y": -1.8895748384,
				"z": -0.4039329879,
				"element": "F" 
			},
			{
				"x": 0.8752051493,
				"y": -3.0528776078,
				"z": -1.1350818948,
				"element": "F" 
			},
			{
				"x": 1.7016274491,
				"y": -1.3134130731,
				"z": -2.4790980233,
				"element": "C" 
			},
			{
				"x": 2.4605298047,
				"y": -0.2012660765,
				"z": -2.4143816476,
				"element": "F" 
			},
			{
				"x": 2.4303425155,
				"y": -2.3069446375,
				"z": -3.0362905463,
				"element": "F" 
			},
			{
				"x": 0.4812111518,
				"y": -1.0356062379,
				"z": -3.3969938157,
				"element": "C" 
			},
			{
				"x": -0.3547312998,
				"y": -2.0827447722,
				"z": -3.3571996297,
				"element": "F" 
			},
			{
				"x": -0.1664770222,
				"y": 0.0569675996,
				"z": -2.9677010867,
				"element": "F" 
			},
			{
				"x": 1.0617958619,
				"y": -0.7360720188,
				"z": -5.2435375314,
				"element": "Br" 
			}
		],
		 "valence_orbital": [ 
			{
				"type": "occ",
				"energy": -0.35267,
				"method": "rhf"
			},
			{
				"type": "occ",
				"energy": -0.31958,
				"method": "rhf"
			},
			{
				"type": "occ",
				"energy": -0.31864,
				"method": "rhf"
			},
			{
				"type": "occ",
				"energy": -0.31727,
				"method": "rhf"
			},
			{
				"type": "occ",
				"energy": -0.31644,
				"method": "rhf"
			},
			{
				"type": "unocc",
				"energy": -0.04649,
				"method": "rhf"
			},
			{
				"type": "unocc",
				"energy": -0.04286,
				"method": "rhf"
			},
			{
				"type": "unocc",
				"energy": 0.0074,
				"method": "rhf"
			},
			{
				"type": "unocc",
				"energy": 0.01245,
				"method": "rhf"
			},
			{
				"type": "unocc",
				"energy": 0.03188,
				"method": "rhf"
			}
		],
		"cosmo_sigma_profile": { 
			"-0.025": 0.0,
			"-0.024": 0.0,
			"-0.023": 0.0,
			"-0.022": 0.0,
			"-0.021": 0.0,
			"-0.02": 0.0,
			"-0.019": 0.0,
			"-0.018": 0.0,
			"-0.017": 0.0,
			"-0.016": 0.0,
			"-0.015": 0.0,
			"-0.014": 0.0,
			"-0.013": 0.0,
			"-0.012": 0.0,
			"-0.011": 0.0,
			"-0.01": 0.0,
			"-0.009": 0.0,
			"-0.008": 0.079402850637,
			"-0.007": 1.97076019979,
			"-0.006": 2.7959036604,
			"-0.005": 3.32074689372,
			"-0.004": 6.37837126349,
			"-0.003": 10.2900513743,
			"-0.002": 17.7824627027,
			"-0.001": 36.8900728353,
			"0.0": 93.1780837411,
			"0.001": 122.875729505,
			"0.002": 28.1742391222,
			"0.003": 0.872572993627,
			"0.004": 0.0,
			"0.005": 0.0,
			"0.006": 0.0,
			"0.007": 0.0,
			"0.008": 0.0,
			"0.009": 0.0,
			"0.01": 0.0,
			"0.011": 0.0,
			"0.012": 0.0,
			"0.013": 0.0,
			"0.014": 0.0,
			"0.015": 0.0,
			"0.016": 0.0,
			"0.017": 0.0,
			"0.018": 0.0,
			"0.019": 0.0,
			"0.02": 0.0,
			"0.021": 0.0,
			"0.022": 0.0,
			"0.023": 0.0,
			"0.024": 0.0,
			"0.025": 0.0
		}
	}
}
