{
	 "smiles": "CC1=C2N=CC(C(O)=O)=C(O)C2=CC=C1", 
	 "Tm": 555.15, 
	 "num_atms": 24, 
	 "gaussian": { 
		 "optdone": 1, 
		 "sigma_profile": "yes", 
		 "theory": "DFT", 
		 "functional": "B3LYP", 
		 "basiset": "6-31G**", 
		 "properties": { 
			 "R2extent": 3670.983, 
			 "electric_dipole_moment_norm": 2.76256891136, 
			 "electric_quadrupole_moment_norm": 15.1079810676, 
			 "total_energy": -705.057248539, 
			 "HOMO_LUMO_gap": 0.16351, 
			 "cosmo_polarized_energy": -12.24, 
			 "cosmo_cavitation_energy": 28.06, 
			 "cosmo_dispersion_energy": -21.22, 
			 "cosmo_repulsion_energy": 1.63, 
			 "cosmo_total_nonelectrostatic_energy": 8.47, 
			 "SMD_solvation_energy": 5.04 
		},
		"coords": [
			{
				"x": -1.9918676147,
				"y": -2.0980602088,
				"z": -3.7364018737,
				"element": "C" 
			},
			{
				"x": -0.9285553774,
				"y": -1.9577539364,
				"z": -2.6790026996,
				"element": "C" 
			},
			{
				"x": -1.0238923047,
				"y": -0.9083299037,
				"z": -1.7148943676,
				"element": "C" 
			},
			{
				"x": -2.0984512038,
				"y": -0.0585829336,
				"z": -1.7946071868,
				"element": "N" 
			},
			{
				"x": -2.1804249332,
				"y": 0.9012371934,
				"z": -0.9082340383,
				"element": "C" 
			},
			{
				"x": -1.2409106873,
				"y": 1.1382490454,
				"z": 0.1385309106,
				"element": "C" 
			},
			{
				"x": -1.5111978146,
				"y": 2.2709573323,
				"z": 1.034836492,
				"element": "C" 
			},
			{
				"x": -0.5539142532,
				"y": 2.4266267757,
				"z": 2.0166123891,
				"element": "O" 
			},
			{
				"x": -2.4562582783,
				"y": 3.027538243,
				"z": 0.9751312106,
				"element": "O" 
			},
			{
				"x": -0.1387475427,
				"y": 0.2802475155,
				"z": 0.2337702053,
				"element": "C" 
			},
			{
				"x": 0.8261701149,
				"y": 0.3739686742,
				"z": 1.1595091714,
				"element": "O" 
			},
			{
				"x": -0.0127635398,
				"y": -0.7813023149,
				"z": -0.7159399974,
				"element": "C" 
			},
			{
				"x": 1.0754840874,
				"y": -1.687751033,
				"z": -0.6807989369,
				"element": "C" 
			},
			{
				"x": 1.1500401774,
				"y": -2.6929749275,
				"z": -1.6186266114,
				"element": "C" 
			},
			{
				"x": 0.1506019438,
				"y": -2.8215737293,
				"z": -2.6091495597,
				"element": "C" 
			},
			{
				"x": -1.7773282792,
				"y": -2.9440550867,
				"z": -4.3949265131,
				"element": "H" 
			},
			{
				"x": -2.0657859076,
				"y": -1.1901898464,
				"z": -4.3431339668,
				"element": "H" 
			},
			{
				"x": -2.9783084852,
				"y": -2.2447577909,
				"z": -3.2855954388,
				"element": "H" 
			},
			{
				"x": -3.032804531,
				"y": 1.5745967339,
				"z": -0.9721201942,
				"element": "H" 
			},
			{
				"x": -0.824117778,
				"y": 3.1931456863,
				"z": 2.548607951,
				"element": "H" 
			},
			{
				"x": 0.6303772542,
				"y": 1.1302040328,
				"z": 1.7443457214,
				"element": "H" 
			},
			{
				"x": 1.8329908093,
				"y": -1.5741788969,
				"z": 0.0859798298,
				"element": "H" 
			},
			{
				"x": 1.9793916516,
				"y": -3.3938064651,
				"z": -1.6017636128,
				"element": "H" 
			},
			{
				"x": 0.2313724922,
				"y": -3.6233541591,
				"z": -3.3388288841,
				"element": "H" 
			}
		],
		 "valence_orbital": [ 
			{
				"type": "occ",
				"energy": -0.29603,
				"method": "rhf"
			},
			{
				"type": "occ",
				"energy": -0.27496,
				"method": "rhf"
			},
			{
				"type": "occ",
				"energy": -0.25743,
				"method": "rhf"
			},
			{
				"type": "occ",
				"energy": -0.25557,
				"method": "rhf"
			},
			{
				"type": "occ",
				"energy": -0.22578,
				"method": "rhf"
			},
			{
				"type": "unocc",
				"energy": -0.06227,
				"method": "rhf"
			},
			{
				"type": "unocc",
				"energy": -0.03707,
				"method": "rhf"
			},
			{
				"type": "unocc",
				"energy": 0.02085,
				"method": "rhf"
			},
			{
				"type": "unocc",
				"energy": 0.03044,
				"method": "rhf"
			},
			{
				"type": "unocc",
				"energy": 0.05751,
				"method": "rhf"
			}
		],
		"cosmo_sigma_profile": { 
			"-0.025": 0.0,
			"-0.024": 0.0,
			"-0.023": 0.0,
			"-0.022": 0.0,
			"-0.021": 0.0,
			"-0.02": 0.0,
			"-0.019": 0.633562253584,
			"-0.018": 0.952093145161,
			"-0.017": 0.65168465518,
			"-0.016": 0.939319042975,
			"-0.015": 1.13087463055,
			"-0.014": 0.587588294702,
			"-0.013": 0.492109660436,
			"-0.012": 1.05456125282,
			"-0.011": 1.30488476244,
			"-0.01": 0.671773347556,
			"-0.009": 1.58866132334,
			"-0.008": 1.82477387928,
			"-0.007": 1.98025861761,
			"-0.006": 7.9111776899,
			"-0.005": 12.2027158682,
			"-0.004": 15.0975969082,
			"-0.003": 16.0962873044,
			"-0.002": 16.2567869663,
			"-0.001": 21.5772397186,
			"0.0": 23.6852555461,
			"0.001": 18.7921869838,
			"0.002": 18.1947635016,
			"0.003": 14.4386731238,
			"0.004": 12.7703846054,
			"0.005": 5.64178144367,
			"0.006": 4.85394422481,
			"0.007": 4.07973488397,
			"0.008": 2.98271423296,
			"0.009": 3.69647230178,
			"0.01": 3.32898445553,
			"0.011": 5.91807606992,
			"0.012": 1.59628877011,
			"0.013": 0.823679204855,
			"0.014": 0.756473013977,
			"0.015": 0.147217647353,
			"0.016": 0.0,
			"0.017": 0.0,
			"0.018": 0.0,
			"0.019": 0.0,
			"0.02": 0.0,
			"0.021": 0.0,
			"0.022": 0.0,
			"0.023": 0.0,
			"0.024": 0.0,
			"0.025": 0.0
		}
	}
}
