{
	 "smiles": "CC1=CC=C(C=C1)C1=CC=C(O)C=C1", 
	 "Tm": 429.15, 
	 "num_atms": 26, 
	 "gaussian": { 
		 "optdone": 1, 
		 "sigma_profile": "yes", 
		 "theory": "DFT", 
		 "functional": "B3LYP", 
		 "basiset": "6-31G**", 
		 "properties": { 
			 "R2extent": 4067.2468, 
			 "electric_dipole_moment_norm": 1.34957739311, 
			 "electric_quadrupole_moment_norm": 11.7848162654, 
			 "total_energy": -577.851042054, 
			 "HOMO_LUMO_gap": 0.18687, 
			 "cosmo_polarized_energy": -9.74, 
			 "cosmo_cavitation_energy": 29.67, 
			 "cosmo_dispersion_energy": -21.82, 
			 "cosmo_repulsion_energy": 1.7, 
			 "cosmo_total_nonelectrostatic_energy": 9.54, 
			 "SMD_solvation_energy": 5.22 
		},
		"coords": [
			{
				"x": -1.1979182426,
				"y": 4.6729808991,
				"z": 1.4485536839,
				"element": "C" 
			},
			{
				"x": -0.9141842369,
				"y": 3.2059317441,
				"z": 1.2282941944,
				"element": "C" 
			},
			{
				"x": -1.4087030172,
				"y": 2.532434365,
				"z": 0.1037666132,
				"element": "C" 
			},
			{
				"x": -1.1218847766,
				"y": 1.1873293663,
				"z": -0.1181177014,
				"element": "C" 
			},
			{
				"x": -0.3312573828,
				"y": 0.4542781348,
				"z": 0.7828279148,
				"element": "C" 
			},
			{
				"x": 0.1583773624,
				"y": 1.1297619107,
				"z": 1.9134604949,
				"element": "C" 
			},
			{
				"x": -0.1269501247,
				"y": 2.476256608,
				"z": 2.1286525859,
				"element": "C" 
			},
			{
				"x": -0.0282293446,
				"y": -0.9795544314,
				"z": 0.5511902809,
				"element": "C" 
			},
			{
				"x": 1.2251889744,
				"y": -1.5210632,
				"z": 0.8778722724,
				"element": "C" 
			},
			{
				"x": 1.5149724095,
				"y": -2.8669583222,
				"z": 0.6625372386,
				"element": "C" 
			},
			{
				"x": 0.5474652145,
				"y": -3.7105185378,
				"z": 0.1075787202,
				"element": "C" 
			},
			{
				"x": 0.7688889883,
				"y": -5.038091601,
				"z": -0.1295464764,
				"element": "O" 
			},
			{
				"x": -0.7088917651,
				"y": -3.1931864306,
				"z": -0.2266885002,
				"element": "C" 
			},
			{
				"x": -0.9850556009,
				"y": -1.848792944,
				"z": -0.00460567,
				"element": "C" 
			},
			{
				"x": -2.1613101344,
				"y": 4.9641035821,
				"z": 1.0187338291,
				"element": "H" 
			},
			{
				"x": -0.4302959522,
				"y": 5.3020684429,
				"z": 0.9797702464,
				"element": "H" 
			},
			{
				"x": -1.2137119513,
				"y": 4.922347169,
				"z": 2.5140290148,
				"element": "H" 
			},
			{
				"x": -2.0212320863,
				"y": 3.0718474189,
				"z": -0.6151097376,
				"element": "H" 
			},
			{
				"x": -1.4989362518,
				"y": 0.7030703308,
				"z": -1.0144013356,
				"element": "H" 
			},
			{
				"x": 0.7446820495,
				"y": 0.5853722263,
				"z": 2.6482806262,
				"element": "H" 
			},
			{
				"x": 0.2585348458,
				"y": 2.9665521667,
				"z": 3.0197080391,
				"element": "H" 
			},
			{
				"x": 1.9975562149,
				"y": -0.8748683655,
				"z": 1.2843055458,
				"element": "H" 
			},
			{
				"x": 2.4984380072,
				"y": -3.2586452468,
				"z": 0.9154073503,
				"element": "H" 
			},
			{
				"x": 1.6658630593,
				"y": -5.2632350973,
				"z": 0.1493816372,
				"element": "H" 
			},
			{
				"x": -1.4553845326,
				"y": -3.8593445838,
				"z": -0.6467023505,
				"element": "H" 
			},
			{
				"x": -1.9736217259,
				"y": -1.4685756045,
				"z": -0.2444785163,
				"element": "H" 
			}
		],
		 "valence_orbital": [ 
			{
				"type": "occ",
				"energy": -0.32417,
				"method": "rhf"
			},
			{
				"type": "occ",
				"energy": -0.25144,
				"method": "rhf"
			},
			{
				"type": "occ",
				"energy": -0.24933,
				"method": "rhf"
			},
			{
				"type": "occ",
				"energy": -0.24451,
				"method": "rhf"
			},
			{
				"type": "occ",
				"energy": -0.20275,
				"method": "rhf"
			},
			{
				"type": "unocc",
				"energy": -0.01588,
				"method": "rhf"
			},
			{
				"type": "unocc",
				"energy": -0.00262,
				"method": "rhf"
			},
			{
				"type": "unocc",
				"energy": 0.00391,
				"method": "rhf"
			},
			{
				"type": "unocc",
				"energy": 0.0408,
				"method": "rhf"
			},
			{
				"type": "unocc",
				"energy": 0.07099,
				"method": "rhf"
			}
		],
		"cosmo_sigma_profile": { 
			"-0.025": 0.0,
			"-0.024": 0.0,
			"-0.023": 0.0,
			"-0.022": 0.0,
			"-0.021": 0.0,
			"-0.02": 0.0,
			"-0.019": 0.0,
			"-0.018": 0.236107368515,
			"-0.017": 1.3417986391,
			"-0.016": 0.632660659848,
			"-0.015": 1.2801724441,
			"-0.014": 1.32972205446,
			"-0.013": 0.859408639367,
			"-0.012": 0.686692707395,
			"-0.011": 0.451455471422,
			"-0.01": 1.41491512485,
			"-0.009": 1.39575765366,
			"-0.008": 1.23901381521,
			"-0.007": 1.42827897914,
			"-0.006": 4.15620404421,
			"-0.005": 15.3761938053,
			"-0.004": 22.4478530753,
			"-0.003": 20.8049800754,
			"-0.002": 18.1121785441,
			"-0.001": 16.2180367754,
			"0.0": 19.1436062331,
			"0.001": 13.8389955152,
			"0.002": 13.1463624469,
			"0.003": 16.290601013,
			"0.004": 19.0787825816,
			"0.005": 20.1807206885,
			"0.006": 14.8081915738,
			"0.007": 3.15901228962,
			"0.008": 1.2198221811,
			"0.009": 1.69317972711,
			"0.01": 1.45877586807,
			"0.011": 2.11291973262,
			"0.012": 0.690154569699,
			"0.013": 0.0,
			"0.014": 0.0,
			"0.015": 0.0,
			"0.016": 0.0,
			"0.017": 0.0,
			"0.018": 0.0,
			"0.019": 0.0,
			"0.02": 0.0,
			"0.021": 0.0,
			"0.022": 0.0,
			"0.023": 0.0,
			"0.024": 0.0,
			"0.025": 0.0
		}
	}
}
