{
	 "smiles": "OCN1N=NC2=C(C=CC=C2)C1=O", 
	 "Tm": 407.15, 
	 "num_atms": 20, 
	 "gaussian": { 
		 "optdone": 1, 
		 "sigma_profile": "yes", 
		 "theory": "DFT", 
		 "functional": "B3LYP", 
		 "basiset": "6-31G**", 
		 "properties": { 
			 "R2extent": 2337.863, 
			 "electric_dipole_moment_norm": 3.04278913334, 
			 "electric_quadrupole_moment_norm": 11.6185426328, 
			 "total_energy": -623.725542264, 
			 "HOMO_LUMO_gap": 0.17834, 
			 "cosmo_polarized_energy": -12.74, 
			 "cosmo_cavitation_energy": 24.72, 
			 "cosmo_dispersion_energy": -18.57, 
			 "cosmo_repulsion_energy": 1.45, 
			 "cosmo_total_nonelectrostatic_energy": 7.6, 
			 "SMD_solvation_energy": 3.36 
		},
		"coords": [
			{
				"x": 1.3523779844,
				"y": -3.6059100947,
				"z": -0.491898339,
				"element": "O" 
			},
			{
				"x": 2.0293819826,
				"y": -2.3863388046,
				"z": -0.4216697781,
				"element": "C" 
			},
			{
				"x": 1.1036675762,
				"y": -1.2396506066,
				"z": -0.3805079129,
				"element": "N" 
			},
			{
				"x": 0.4243772076,
				"y": -1.0826772757,
				"z": -1.5556643384,
				"element": "N" 
			},
			{
				"x": -0.4614210351,
				"y": -0.1864046226,
				"z": -1.6785878663,
				"element": "N" 
			},
			{
				"x": -0.7579184126,
				"y": 0.6493901291,
				"z": -0.5999175124,
				"element": "C" 
			},
			{
				"x": -0.1088507223,
				"y": 0.5349289829,
				"z": 0.6440512891,
				"element": "C" 
			},
			{
				"x": -0.4458814457,
				"y": 1.3939309325,
				"z": 1.6994566438,
				"element": "C" 
			},
			{
				"x": -1.4236129866,
				"y": 2.360130128,
				"z": 1.5073994975,
				"element": "C" 
			},
			{
				"x": -2.0734966046,
				"y": 2.4777897051,
				"z": 0.264443746,
				"element": "C" 
			},
			{
				"x": -1.747527421,
				"y": 1.6317709102,
				"z": -0.7845842619,
				"element": "C" 
			},
			{
				"x": 0.9154755787,
				"y": -0.4988770567,
				"z": 0.8009650439,
				"element": "C" 
			},
			{
				"x": 1.5637925057,
				"y": -0.7203548873,
				"z": 1.8138993637,
				"element": "O" 
			},
			{
				"x": 0.903178504,
				"y": -3.6378505174,
				"z": -1.3484668447,
				"element": "H" 
			},
			{
				"x": 2.6945431702,
				"y": -2.224996039,
				"z": -1.2779280315,
				"element": "H" 
			},
			{
				"x": 2.5903181598,
				"y": -2.3621289172,
				"z": 0.5106438492,
				"element": "H" 
			},
			{
				"x": 0.0712375229,
				"y": 1.2804318841,
				"z": 2.6460869464,
				"element": "H" 
			},
			{
				"x": -1.6900653095,
				"y": 3.0302711129,
				"z": 2.318993095,
				"element": "H" 
			},
			{
				"x": -2.8368883651,
				"y": 3.2377526045,
				"z": 0.1274291088,
				"element": "H" 
			},
			{
				"x": -2.2335878896,
				"y": 1.6998924324,
				"z": -1.7519436982,
				"element": "H" 
			}
		],
		 "valence_orbital": [ 
			{
				"type": "occ",
				"energy": -0.30241,
				"method": "rhf"
			},
			{
				"type": "occ",
				"energy": -0.28392,
				"method": "rhf"
			},
			{
				"type": "occ",
				"energy": -0.27888,
				"method": "rhf"
			},
			{
				"type": "occ",
				"energy": -0.25855,
				"method": "rhf"
			},
			{
				"type": "occ",
				"energy": -0.25495,
				"method": "rhf"
			},
			{
				"type": "unocc",
				"energy": -0.07661,
				"method": "rhf"
			},
			{
				"type": "unocc",
				"energy": -0.05743,
				"method": "rhf"
			},
			{
				"type": "unocc",
				"energy": 0.00475,
				"method": "rhf"
			},
			{
				"type": "unocc",
				"energy": 0.05187,
				"method": "rhf"
			},
			{
				"type": "unocc",
				"energy": 0.08302,
				"method": "rhf"
			}
		],
		"cosmo_sigma_profile": { 
			"-0.025": 0.0,
			"-0.024": 0.0,
			"-0.023": 0.0,
			"-0.022": 0.0,
			"-0.021": 0.0,
			"-0.02": 0.0,
			"-0.019": 0.0,
			"-0.018": 0.0,
			"-0.017": 0.0,
			"-0.016": 0.218209377757,
			"-0.015": 0.909188173948,
			"-0.014": 0.63800213479,
			"-0.013": 0.952286804254,
			"-0.012": 0.625140423642,
			"-0.011": 0.576117456178,
			"-0.01": 0.807979598464,
			"-0.009": 1.093041206,
			"-0.008": 2.59565962692,
			"-0.007": 13.2000933619,
			"-0.006": 14.9213353968,
			"-0.005": 15.1627365481,
			"-0.004": 12.2910642134,
			"-0.003": 12.3074722959,
			"-0.002": 10.3132377232,
			"-0.001": 12.2546890136,
			"0.0": 16.5644349605,
			"0.001": 16.1599880268,
			"0.002": 14.5979570251,
			"0.003": 5.45144129119,
			"0.004": 4.72261785567,
			"0.005": 4.45026730854,
			"0.006": 3.30140592015,
			"0.007": 3.90338328708,
			"0.008": 5.38424224078,
			"0.009": 4.62526728941,
			"0.01": 5.25757934018,
			"0.011": 5.72626305628,
			"0.012": 7.03197916592,
			"0.013": 2.30315011617,
			"0.014": 0.134554929431,
			"0.015": 0.0,
			"0.016": 0.0,
			"0.017": 0.0,
			"0.018": 0.0,
			"0.019": 0.0,
			"0.02": 0.0,
			"0.021": 0.0,
			"0.022": 0.0,
			"0.023": 0.0,
			"0.024": 0.0,
			"0.025": 0.0
		}
	}
}
