{
	 "smiles": "NNC(=O)C1CC1", 
	 "Tm": 366.15, 
	 "num_atms": 15, 
	 "gaussian": { 
		 "optdone": 1, 
		 "sigma_profile": "yes", 
		 "theory": "DFT", 
		 "functional": "B3LYP", 
		 "basiset": "6-31G**", 
		 "properties": { 
			 "R2extent": 951.867, 
			 "electric_dipole_moment_norm": 3.96157074151, 
			 "electric_quadrupole_moment_norm": 13.3606691924, 
			 "total_energy": -341.923235209, 
			 "HOMO_LUMO_gap": 0.2758, 
			 "cosmo_polarized_energy": -13.25, 
			 "cosmo_cavitation_energy": 18.48, 
			 "cosmo_dispersion_energy": -13.86, 
			 "cosmo_repulsion_energy": 1.22, 
			 "cosmo_total_nonelectrostatic_energy": 5.84, 
			 "SMD_solvation_energy": 4.35 
		},
		"coords": [
			{
				"x": -0.0774081797,
				"y": -2.407727641,
				"z": 1.2060082422,
				"element": "N" 
			},
			{
				"x": -0.0186192666,
				"y": -2.0564766885,
				"z": -0.1465219292,
				"element": "N" 
			},
			{
				"x": -0.4485600114,
				"y": -0.8500686324,
				"z": -0.6530714848,
				"element": "C" 
			},
			{
				"x": -0.3532990442,
				"y": -0.6363841882,
				"z": -1.8584386402,
				"element": "O" 
			},
			{
				"x": -1.01312294,
				"y": 0.1398465699,
				"z": 0.3094245012,
				"element": "C" 
			},
			{
				"x": -0.7619863823,
				"y": 1.604882331,
				"z": -0.0088227465,
				"element": "C" 
			},
			{
				"x": -2.124798551,
				"y": 1.0318519924,
				"z": -0.2188257863,
				"element": "C" 
			},
			{
				"x": -0.6538738857,
				"y": -3.2361310057,
				"z": 1.3314447836,
				"element": "H" 
			},
			{
				"x": 0.8556011626,
				"y": -2.5994386679,
				"z": 1.5624466273,
				"element": "H" 
			},
			{
				"x": 0.3572719075,
				"y": -2.6944484073,
				"z": -0.8411108005,
				"element": "H" 
			},
			{
				"x": -1.0463739978,
				"y": -0.161664033,
				"z": 1.3483800501,
				"element": "H" 
			},
			{
				"x": -0.5936926337,
				"y": 2.2712694971,
				"z": 0.8314735802,
				"element": "H" 
			},
			{
				"x": -0.1652261424,
				"y": 1.8026802168,
				"z": -0.8930468594,
				"element": "H" 
			},
			{
				"x": -2.9193750773,
				"y": 1.293422728,
				"z": 0.4730724102,
				"element": "H" 
			},
			{
				"x": -2.433736958,
				"y": 0.8487859287,
				"z": -1.2426119477,
				"element": "H" 
			}
		],
		 "valence_orbital": [ 
			{
				"type": "occ",
				"energy": -0.29769,
				"method": "rhf"
			},
			{
				"type": "occ",
				"energy": -0.28139,
				"method": "rhf"
			},
			{
				"type": "occ",
				"energy": -0.28045,
				"method": "rhf"
			},
			{
				"type": "occ",
				"energy": -0.25009,
				"method": "rhf"
			},
			{
				"type": "occ",
				"energy": -0.24143,
				"method": "rhf"
			},
			{
				"type": "unocc",
				"energy": 0.03437,
				"method": "rhf"
			},
			{
				"type": "unocc",
				"energy": 0.06548,
				"method": "rhf"
			},
			{
				"type": "unocc",
				"energy": 0.10291,
				"method": "rhf"
			},
			{
				"type": "unocc",
				"energy": 0.11543,
				"method": "rhf"
			},
			{
				"type": "unocc",
				"energy": 0.13823,
				"method": "rhf"
			}
		],
		"cosmo_sigma_profile": { 
			"-0.025": 0.0,
			"-0.024": 0.0,
			"-0.023": 0.0,
			"-0.022": 0.0,
			"-0.021": 0.0,
			"-0.02": 0.0,
			"-0.019": 0.0,
			"-0.018": 0.0,
			"-0.017": 0.0,
			"-0.016": 0.0,
			"-0.015": 0.0,
			"-0.014": 0.0,
			"-0.013": 1.20985537825,
			"-0.012": 3.13737096464,
			"-0.011": 4.88325040887,
			"-0.01": 4.61343439969,
			"-0.009": 5.22285415227,
			"-0.008": 3.59229860459,
			"-0.007": 2.76737110441,
			"-0.006": 2.3025194459,
			"-0.005": 4.80951731692,
			"-0.004": 9.60057153169,
			"-0.003": 8.72126454995,
			"-0.002": 8.35353137405,
			"-0.001": 8.73011508911,
			"0.0": 9.04675760293,
			"0.001": 10.1897128262,
			"0.002": 13.0600840766,
			"0.003": 9.19235628477,
			"0.004": 6.63899835305,
			"0.005": 3.47267018646,
			"0.006": 2.72190034367,
			"0.007": 1.89838684186,
			"0.008": 2.707628594,
			"0.009": 2.43872024869,
			"0.01": 1.90902626111,
			"0.011": 2.00127338864,
			"0.012": 1.3777033127,
			"0.013": 2.12093067111,
			"0.014": 4.94693600214,
			"0.015": 2.83589939953,
			"0.016": 0.00376775721566,
			"0.017": 0.0,
			"0.018": 0.0,
			"0.019": 0.0,
			"0.02": 0.0,
			"0.021": 0.0,
			"0.022": 0.0,
			"0.023": 0.0,
			"0.024": 0.0,
			"0.025": 0.0
		}
	}
}
