{
	 "smiles": "CSC1=NC2=C(N1C)C(=O)N(CC=C)C(SC)=N2", 
	 "Tm": 385.15, 
	 "num_atms": 32, 
	 "gaussian": { 
		 "optdone": 1, 
		 "sigma_profile": "yes", 
		 "theory": "DFT", 
		 "functional": "B3LYP", 
		 "basiset": "6-31G**", 
		 "properties": { 
			 "R2extent": 6637.9928, 
			 "electric_dipole_moment_norm": 1.06623311241, 
			 "electric_quadrupole_moment_norm": 10.6678935723, 
			 "total_energy": -1518.21377782, 
			 "HOMO_LUMO_gap": 0.17986, 
			 "cosmo_polarized_energy": -13.61, 
			 "cosmo_cavitation_energy": 38.56, 
			 "cosmo_dispersion_energy": -28.32, 
			 "cosmo_repulsion_energy": 2.1, 
			 "cosmo_total_nonelectrostatic_energy": 12.34, 
			 "SMD_solvation_energy": 5.34 
		},
		"coords": [
			{
				"x": 1.2343005213,
				"y": 3.7648363967,
				"z": -2.8539735007,
				"element": "C" 
			},
			{
				"x": -0.0566318056,
				"y": 2.5380203695,
				"z": -3.2599212862,
				"element": "S" 
			},
			{
				"x": 0.1924170436,
				"y": 1.42143063,
				"z": -1.9206230471,
				"element": "C" 
			},
			{
				"x": 1.1012544079,
				"y": 1.5571163548,
				"z": -0.9650490585,
				"element": "N" 
			},
			{
				"x": 0.9140491896,
				"y": 0.4587613511,
				"z": -0.167647025,
				"element": "C" 
			},
			{
				"x": -0.1163382529,
				"y": -0.3373053112,
				"z": -0.6558193239,
				"element": "C" 
			},
			{
				"x": -0.5829830985,
				"y": 0.2980712992,
				"z": -1.7969683193,
				"element": "N" 
			},
			{
				"x": -1.6612682967,
				"y": -0.1454795034,
				"z": -2.6733493031,
				"element": "C" 
			},
			{
				"x": -0.5296915758,
				"y": -1.5364400533,
				"z": -0.0116486387,
				"element": "C" 
			},
			{
				"x": -1.4344274851,
				"y": -2.3088990235,
				"z": -0.3382985496,
				"element": "O" 
			},
			{
				"x": 0.2680010487,
				"y": -1.7914120341,
				"z": 1.1510455982,
				"element": "N" 
			},
			{
				"x": -0.077255425,
				"y": -3.0323736045,
				"z": 1.8825871847,
				"element": "C" 
			},
			{
				"x": -1.1657030317,
				"y": -2.8227644599,
				"z": 2.9018004744,
				"element": "C" 
			},
			{
				"x": -1.0476015315,
				"y": -3.121602026,
				"z": 4.1945143917,
				"element": "C" 
			},
			{
				"x": 1.2731089414,
				"y": -0.9318618761,
				"z": 1.5691490276,
				"element": "C" 
			},
			{
				"x": 2.1464182667,
				"y": -1.3902142584,
				"z": 3.058989169,
				"element": "S" 
			},
			{
				"x": 3.3902213459,
				"y": -0.0593514555,
				"z": 3.1098582443,
				"element": "C" 
			},
			{
				"x": 1.6210391978,
				"y": 0.1655521534,
				"z": 0.9600917141,
				"element": "N" 
			},
			{
				"x": 2.2161717378,
				"y": 3.2924348474,
				"z": -2.8555981079,
				"element": "H" 
			},
			{
				"x": 1.1750180269,
				"y": 4.5254222685,
				"z": -3.6346667699,
				"element": "H" 
			},
			{
				"x": 1.0405901584,
				"y": 4.2058490006,
				"z": -1.8766016009,
				"element": "H" 
			},
			{
				"x": -2.4488059975,
				"y": 0.6128318906,
				"z": -2.7205084243,
				"element": "H" 
			},
			{
				"x": -2.0635325433,
				"y": -1.0691675679,
				"z": -2.2581740252,
				"element": "H" 
			},
			{
				"x": -1.2815419449,
				"y": -0.3291993985,
				"z": -3.6832316005,
				"element": "H" 
			},
			{
				"x": -0.4210432144,
				"y": -3.7316842825,
				"z": 1.1164258437,
				"element": "H" 
			},
			{
				"x": 0.8293504019,
				"y": -3.4333401339,
				"z": 2.3404944795,
				"element": "H" 
			},
			{
				"x": -2.0997468382,
				"y": -2.4286595271,
				"z": 2.5064524003,
				"element": "H" 
			},
			{
				"x": -0.1236424825,
				"y": -3.5175042976,
				"z": 4.6087614747,
				"element": "H" 
			},
			{
				"x": -1.8728360862,
				"y": -2.9843720104,
				"z": 4.886810238,
				"element": "H" 
			},
			{
				"x": 4.0235975706,
				"y": -0.0921474539,
				"z": 2.2238322637,
				"element": "H" 
			},
			{
				"x": 3.980078046,
				"y": -0.2527592728,
				"z": 4.0087207248,
				"element": "H" 
			},
			{
				"x": 2.9030337052,
				"y": 0.9129109889,
				"z": 3.1737453523,
				"element": "H" 
			}
		],
		 "valence_orbital": [ 
			{
				"type": "occ",
				"energy": -0.27064,
				"method": "rhf"
			},
			{
				"type": "occ",
				"energy": -0.25937,
				"method": "rhf"
			},
			{
				"type": "occ",
				"energy": -0.25571,
				"method": "rhf"
			},
			{
				"type": "occ",
				"energy": -0.24127,
				"method": "rhf"
			},
			{
				"type": "occ",
				"energy": -0.20402,
				"method": "rhf"
			},
			{
				"type": "unocc",
				"energy": -0.02416,
				"method": "rhf"
			},
			{
				"type": "unocc",
				"energy": -0.0034,
				"method": "rhf"
			},
			{
				"type": "unocc",
				"energy": 0.01008,
				"method": "rhf"
			},
			{
				"type": "unocc",
				"energy": 0.01795,
				"method": "rhf"
			},
			{
				"type": "unocc",
				"energy": 0.02904,
				"method": "rhf"
			}
		],
		"cosmo_sigma_profile": { 
			"-0.025": 0.0,
			"-0.024": 0.0,
			"-0.023": 0.0,
			"-0.022": 0.0,
			"-0.021": 0.0,
			"-0.02": 0.0,
			"-0.019": 0.0,
			"-0.018": 0.0,
			"-0.017": 0.0,
			"-0.016": 0.0,
			"-0.015": 0.0,
			"-0.014": 0.0,
			"-0.013": 0.0,
			"-0.012": 0.0,
			"-0.011": 0.0,
			"-0.01": 0.0,
			"-0.009": 0.0,
			"-0.008": 1.39449576688,
			"-0.007": 6.3533200062,
			"-0.006": 16.212906924,
			"-0.005": 24.3194002781,
			"-0.004": 28.4244056031,
			"-0.003": 35.0905124736,
			"-0.002": 34.1385024844,
			"-0.001": 26.8805832622,
			"0.0": 21.2723215357,
			"0.001": 19.0010721601,
			"0.002": 16.3518761915,
			"0.003": 14.4466428302,
			"0.004": 13.4563139653,
			"0.005": 10.825905218,
			"0.006": 10.7416273897,
			"0.007": 7.09630964537,
			"0.008": 3.50033875717,
			"0.009": 4.12230879857,
			"0.01": 2.55627612605,
			"0.011": 4.17108378113,
			"0.012": 4.62985537204,
			"0.013": 4.30490370956,
			"0.014": 0.929231541614,
			"0.015": 0.649713422812,
			"0.016": 0.00387083979502,
			"0.017": 0.0,
			"0.018": 0.0,
			"0.019": 0.0,
			"0.02": 0.0,
			"0.021": 0.0,
			"0.022": 0.0,
			"0.023": 0.0,
			"0.024": 0.0,
			"0.025": 0.0
		}
	}
}
