{
	 "smiles": "CS(=O)(=O)CC1=CC=CC=C1", 
	 "Tm": 398.65, 
	 "num_atms": 21, 
	 "gaussian": { 
		 "optdone": 1, 
		 "sigma_profile": "yes", 
		 "theory": "DFT", 
		 "functional": "B3LYP", 
		 "basiset": "6-31G**", 
		 "properties": { 
			 "R2extent": 2300.7883, 
			 "electric_dipole_moment_norm": 4.81039608764, 
			 "electric_quadrupole_moment_norm": 12.9313386565, 
			 "total_energy": -859.456697657, 
			 "HOMO_LUMO_gap": 0.22888, 
			 "cosmo_polarized_energy": -15.5, 
			 "cosmo_cavitation_energy": 25.73, 
			 "cosmo_dispersion_energy": -18.91, 
			 "cosmo_repulsion_energy": 1.47, 
			 "cosmo_total_nonelectrostatic_energy": 8.29, 
			 "SMD_solvation_energy": 3.99 
		},
		"coords": [
			{
				"x": -1.0966189357,
				"y": 2.3769872565,
				"z": -0.9654582072,
				"element": "C" 
			},
			{
				"x": -1.8423529961,
				"y": 1.2496356575,
				"z": 0.2344476965,
				"element": "S" 
			},
			{
				"x": -2.1866161238,
				"y": 0.0043771834,
				"z": -0.4715613787,
				"element": "O" 
			},
			{
				"x": -2.870993762,
				"y": 1.9890538415,
				"z": 0.9833910416,
				"element": "O" 
			},
			{
				"x": -0.4864687728,
				"y": 0.8829454108,
				"z": 1.4193871615,
				"element": "C" 
			},
			{
				"x": 0.7547579392,
				"y": 0.2927342663,
				"z": 0.8082549475,
				"element": "C" 
			},
			{
				"x": 1.9391554031,
				"y": 1.0408398295,
				"z": 0.7563593017,
				"element": "C" 
			},
			{
				"x": 3.0978010019,
				"y": 0.5012635308,
				"z": 0.1958005194,
				"element": "C" 
			},
			{
				"x": 3.0828132752,
				"y": -0.7933851985,
				"z": -0.3247970766,
				"element": "C" 
			},
			{
				"x": 1.9056812897,
				"y": -1.5446484648,
				"z": -0.2811320738,
				"element": "C" 
			},
			{
				"x": 0.7486494929,
				"y": -1.0082059792,
				"z": 0.281974909,
				"element": "C" 
			},
			{
				"x": -0.7959661608,
				"y": 3.2959450788,
				"z": -0.4599551237,
				"element": "H" 
			},
			{
				"x": -0.2470617512,
				"y": 1.8875138632,
				"z": -1.4421138954,
				"element": "H" 
			},
			{
				"x": -1.8768351328,
				"y": 2.5881074769,
				"z": -1.6988693792,
				"element": "H" 
			},
			{
				"x": -0.9796609286,
				"y": 0.198909187,
				"z": 2.1176943665,
				"element": "H" 
			},
			{
				"x": -0.2900664265,
				"y": 1.8208437514,
				"z": 1.944844732,
				"element": "H" 
			},
			{
				"x": 1.9572242674,
				"y": 2.0472516642,
				"z": 1.1679361007,
				"element": "H" 
			},
			{
				"x": 4.0096810501,
				"y": 1.0907030107,
				"z": 0.1692021182,
				"element": "H" 
			},
			{
				"x": 3.9835607474,
				"y": -1.2162259812,
				"z": -0.7600719025,
				"element": "H" 
			},
			{
				"x": 1.8883449999,
				"y": -2.552533072,
				"z": -0.6853380794,
				"element": "H" 
			},
			{
				"x": -0.1693284765,
				"y": -1.5866123127,
				"z": 0.301104222,
				"element": "H" 
			}
		],
		 "valence_orbital": [ 
			{
				"type": "occ",
				"energy": -0.3088,
				"method": "rhf"
			},
			{
				"type": "occ",
				"energy": -0.29411,
				"method": "rhf"
			},
			{
				"type": "occ",
				"energy": -0.29067,
				"method": "rhf"
			},
			{
				"type": "occ",
				"energy": -0.2628,
				"method": "rhf"
			},
			{
				"type": "occ",
				"energy": -0.25375,
				"method": "rhf"
			},
			{
				"type": "unocc",
				"energy": -0.02487,
				"method": "rhf"
			},
			{
				"type": "unocc",
				"energy": -0.01492,
				"method": "rhf"
			},
			{
				"type": "unocc",
				"energy": 0.06688,
				"method": "rhf"
			},
			{
				"type": "unocc",
				"energy": 0.06992,
				"method": "rhf"
			},
			{
				"type": "unocc",
				"energy": 0.08166,
				"method": "rhf"
			}
		],
		"cosmo_sigma_profile": { 
			"-0.025": 0.0,
			"-0.024": 0.0,
			"-0.023": 0.0,
			"-0.022": 0.0,
			"-0.021": 0.0,
			"-0.02": 0.0,
			"-0.019": 0.0,
			"-0.018": 0.0,
			"-0.017": 0.0,
			"-0.016": 0.0,
			"-0.015": 0.0,
			"-0.014": 0.0,
			"-0.013": 0.0,
			"-0.012": 0.0,
			"-0.011": 0.153903424629,
			"-0.01": 1.14271949725,
			"-0.009": 4.76809031634,
			"-0.008": 9.25443350355,
			"-0.007": 8.01005693823,
			"-0.006": 15.1322896431,
			"-0.005": 17.2514600637,
			"-0.004": 20.5675413898,
			"-0.003": 16.0245756325,
			"-0.002": 11.357049536,
			"-0.001": 8.28352809962,
			"0.0": 8.24502479744,
			"0.001": 8.9280187785,
			"0.002": 8.68707952773,
			"0.003": 8.96789242192,
			"0.004": 10.8388790877,
			"0.005": 10.3140239713,
			"0.006": 2.89717815483,
			"0.007": 2.21394426021,
			"0.008": 2.73253080791,
			"0.009": 3.51560230755,
			"0.01": 3.62731242002,
			"0.011": 7.79591602371,
			"0.012": 10.5975091297,
			"0.013": 3.08942390372,
			"0.014": 0.0,
			"0.015": 0.0,
			"0.016": 0.0,
			"0.017": 0.0,
			"0.018": 0.0,
			"0.019": 0.0,
			"0.02": 0.0,
			"0.021": 0.0,
			"0.022": 0.0,
			"0.023": 0.0,
			"0.024": 0.0,
			"0.025": 0.0
		}
	}
}
