{
	 "smiles": "CCOC(=O)C1=C(C)N=CC(=C1)[N+]([O-])=O", 
	 "Tm": 321.65, 
	 "num_atms": 25, 
	 "gaussian": { 
		 "optdone": 1, 
		 "sigma_profile": "yes", 
		 "theory": "DFT", 
		 "functional": "B3LYP", 
		 "basiset": "6-31G**", 
		 "properties": { 
			 "R2extent": 4354.2781, 
			 "electric_dipole_moment_norm": 3.50955917032, 
			 "electric_quadrupole_moment_norm": 16.3965053954, 
			 "total_energy": -759.297905601, 
			 "HOMO_LUMO_gap": 0.17893, 
			 "cosmo_polarized_energy": -10.34, 
			 "cosmo_cavitation_energy": 30.43, 
			 "cosmo_dispersion_energy": -21.87, 
			 "cosmo_repulsion_energy": 1.73, 
			 "cosmo_total_nonelectrostatic_energy": 10.29, 
			 "SMD_solvation_energy": 7.41 
		},
		"coords": [
			{
				"x": 2.3211619603,
				"y": -2.441606181,
				"z": 0.8038720928,
				"element": "C" 
			},
			{
				"x": 0.8604006141,
				"y": -2.3573430147,
				"z": 0.4066054015,
				"element": "C" 
			},
			{
				"x": 0.5593373148,
				"y": -0.9633390172,
				"z": 0.1503582354,
				"element": "O" 
			},
			{
				"x": -0.7093628529,
				"y": -0.6909982852,
				"z": -0.2169689864,
				"element": "C" 
			},
			{
				"x": -1.5663961779,
				"y": -1.5452259944,
				"z": -0.3333566224,
				"element": "O" 
			},
			{
				"x": -0.9141328904,
				"y": 0.7720067813,
				"z": -0.4562427724,
				"element": "C" 
			},
			{
				"x": -2.1735599448,
				"y": 1.2954249192,
				"z": -0.8547470437,
				"element": "C" 
			},
			{
				"x": -3.3987222114,
				"y": 0.4509833409,
				"z": -1.0712429137,
				"element": "C" 
			},
			{
				"x": -2.3470430105,
				"y": 2.6146032298,
				"z": -1.0673216858,
				"element": "N" 
			},
			{
				"x": -1.3233341395,
				"y": 3.4509040986,
				"z": -0.9028606326,
				"element": "C" 
			},
			{
				"x": -0.0615527954,
				"y": 3.0053752929,
				"z": -0.5136249784,
				"element": "C" 
			},
			{
				"x": 0.1546314609,
				"y": 1.6546886744,
				"z": -0.285934171,
				"element": "C" 
			},
			{
				"x": 1.0370567856,
				"y": 3.9619492839,
				"z": -0.3445250301,
				"element": "N" 
			},
			{
				"x": 2.1305252748,
				"y": 3.5161109237,
				"z": -0.0000245423,
				"element": "O" 
			},
			{
				"x": 0.7914026917,
				"y": 5.1480601611,
				"z": -0.558746388,
				"element": "O" 
			},
			{
				"x": 2.967726545,
				"y": -2.0708528666,
				"z": 0.0035069438,
				"element": "H" 
			},
			{
				"x": 2.5170082855,
				"y": -1.8556447517,
				"z": 1.7063041046,
				"element": "H" 
			},
			{
				"x": 2.5878437047,
				"y": -3.4834387719,
				"z": 1.0061356939,
				"element": "H" 
			},
			{
				"x": 0.6427280335,
				"y": -2.9330535834,
				"z": -0.4981624532,
				"element": "H" 
			},
			{
				"x": 0.1942782984,
				"y": -2.7185904793,
				"z": 1.1960126371,
				"element": "H" 
			},
			{
				"x": -3.2244049898,
				"y": -0.3102838407,
				"z": -1.8366028736,
				"element": "H" 
			},
			{
				"x": -3.6661761495,
				"y": -0.0980458488,
				"z": -0.1642119867,
				"element": "H" 
			},
			{
				"x": -4.2194104181,
				"y": 1.103233653,
				"z": -1.370844507,
				"element": "H" 
			},
			{
				"x": -1.4984082352,
				"y": 4.5071507381,
				"z": -1.082533846,
				"element": "H" 
			},
			{
				"x": 1.131502846,
				"y": 1.302331538,
				"z": 0.0162563244,
				"element": "H" 
			}
		],
		 "valence_orbital": [ 
			{
				"type": "occ",
				"energy": -0.31467,
				"method": "rhf"
			},
			{
				"type": "occ",
				"energy": -0.30202,
				"method": "rhf"
			},
			{
				"type": "occ",
				"energy": -0.29041,
				"method": "rhf"
			},
			{
				"type": "occ",
				"energy": -0.28924,
				"method": "rhf"
			},
			{
				"type": "occ",
				"energy": -0.27922,
				"method": "rhf"
			},
			{
				"type": "unocc",
				"energy": -0.10029,
				"method": "rhf"
			},
			{
				"type": "unocc",
				"energy": -0.07484,
				"method": "rhf"
			},
			{
				"type": "unocc",
				"energy": -0.02561,
				"method": "rhf"
			},
			{
				"type": "unocc",
				"energy": 0.03649,
				"method": "rhf"
			},
			{
				"type": "unocc",
				"energy": 0.08597,
				"method": "rhf"
			}
		],
		"cosmo_sigma_profile": { 
			"-0.025": 0.0,
			"-0.024": 0.0,
			"-0.023": 0.0,
			"-0.022": 0.0,
			"-0.021": 0.0,
			"-0.02": 0.0,
			"-0.019": 0.0,
			"-0.018": 0.0,
			"-0.017": 0.0,
			"-0.016": 0.0,
			"-0.015": 0.0,
			"-0.014": 0.0,
			"-0.013": 0.0,
			"-0.012": 0.0,
			"-0.011": 0.0,
			"-0.01": 0.0,
			"-0.009": 0.278360799637,
			"-0.008": 2.13116142049,
			"-0.007": 2.71089676115,
			"-0.006": 5.13260929218,
			"-0.005": 16.5530321855,
			"-0.004": 32.1265742364,
			"-0.003": 35.9119126754,
			"-0.002": 25.4675643532,
			"-0.001": 21.9414798883,
			"0.0": 18.1749355767,
			"0.001": 10.0488758466,
			"0.002": 7.78747072173,
			"0.003": 7.99080863714,
			"0.004": 6.11357342777,
			"0.005": 6.63119609231,
			"0.006": 7.84176762792,
			"0.007": 11.8736487144,
			"0.008": 7.44377891658,
			"0.009": 6.27368162672,
			"0.01": 3.11075423345,
			"0.011": 4.07648411491,
			"0.012": 1.79333154716,
			"0.013": 0.538704072631,
			"0.014": 0.42805298171,
			"0.015": 0.0,
			"0.016": 0.0,
			"0.017": 0.0,
			"0.018": 0.0,
			"0.019": 0.0,
			"0.02": 0.0,
			"0.021": 0.0,
			"0.022": 0.0,
			"0.023": 0.0,
			"0.024": 0.0,
			"0.025": 0.0
		}
	}
}
