{
	 "smiles": "CC(=O)C1CC1", 
	 "Tm": 204.85, 
	 "num_atms": 14, 
	 "gaussian": { 
		 "optdone": 1, 
		 "sigma_profile": "yes", 
		 "theory": "DFT", 
		 "functional": "B3LYP", 
		 "basiset": "6-31G**", 
		 "properties": { 
			 "R2extent": 1346.0982, 
			 "electric_dipole_moment_norm": 2.74016842183, 
			 "electric_quadrupole_moment_norm": 9.48394758843, 
			 "total_energy": -270.550802556, 
			 "HOMO_LUMO_gap": 0.23301, 
			 "cosmo_polarized_energy": -6.78, 
			 "cosmo_cavitation_energy": 17.19, 
			 "cosmo_dispersion_energy": -12.59, 
			 "cosmo_repulsion_energy": 1.1, 
			 "cosmo_total_nonelectrostatic_energy": 5.69, 
			 "SMD_solvation_energy": 3.51 
		},
		"coords": [
			{
				"x": 3.021615825,
				"y": -0.9940029175,
				"z": 0.367093764,
				"element": "C" 
			},
			{
				"x": 2.127992275,
				"y": -1.3765714548,
				"z": -0.7977169401,
				"element": "C" 
			},
			{
				"x": 2.528833956,
				"y": -2.0772692565,
				"z": -1.7136828095,
				"element": "O" 
			},
			{
				"x": 0.7277518447,
				"y": -0.8528857821,
				"z": -0.7708905706,
				"element": "C" 
			},
			{
				"x": 0.0829178027,
				"y": -0.5200206274,
				"z": -2.1110157169,
				"element": "C" 
			},
			{
				"x": -0.3578329879,
				"y": -1.7364494287,
				"z": -1.3736406861,
				"element": "C" 
			},
			{
				"x": 3.1053704317,
				"y": 0.0969824872,
				"z": 0.4392444115,
				"element": "H" 
			},
			{
				"x": 4.0120071938,
				"y": -1.4315795986,
				"z": 0.2358570827,
				"element": "H" 
			},
			{
				"x": 2.5850987224,
				"y": -1.3420691469,
				"z": 1.3109067993,
				"element": "H" 
			},
			{
				"x": 0.4557422872,
				"y": -0.2373934603,
				"z": 0.0817379858,
				"element": "H" 
			},
			{
				"x": 0.7153964316,
				"y": -0.6646722206,
				"z": -2.9809499675,
				"element": "H" 
			},
			{
				"x": -0.5730544794,
				"y": 0.3441080346,
				"z": -2.143247054,
				"element": "H" 
			},
			{
				"x": -0.0210451241,
				"y": -2.6975248166,
				"z": -1.7486935636,
				"element": "H" 
			},
			{
				"x": -1.3261941787,
				"y": -1.7346518118,
				"z": -0.8834027348,
				"element": "H" 
			}
		],
		 "valence_orbital": [ 
			{
				"type": "occ",
				"energy": -0.37607,
				"method": "rhf"
			},
			{
				"type": "occ",
				"energy": -0.35223,
				"method": "rhf"
			},
			{
				"type": "occ",
				"energy": -0.30899,
				"method": "rhf"
			},
			{
				"type": "occ",
				"energy": -0.29075,
				"method": "rhf"
			},
			{
				"type": "occ",
				"energy": -0.24292,
				"method": "rhf"
			},
			{
				"type": "unocc",
				"energy": -0.00991,
				"method": "rhf"
			},
			{
				"type": "unocc",
				"energy": 0.09079,
				"method": "rhf"
			},
			{
				"type": "unocc",
				"energy": 0.11615,
				"method": "rhf"
			},
			{
				"type": "unocc",
				"energy": 0.12604,
				"method": "rhf"
			},
			{
				"type": "unocc",
				"energy": 0.13734,
				"method": "rhf"
			}
		],
		"cosmo_sigma_profile": { 
			"-0.025": 0.0,
			"-0.024": 0.0,
			"-0.023": 0.0,
			"-0.022": 0.0,
			"-0.021": 0.0,
			"-0.02": 0.0,
			"-0.019": 0.0,
			"-0.018": 0.0,
			"-0.017": 0.0,
			"-0.016": 0.0,
			"-0.015": 0.0,
			"-0.014": 0.0,
			"-0.013": 0.0,
			"-0.012": 0.0,
			"-0.011": 0.0,
			"-0.01": 0.0,
			"-0.009": 0.0,
			"-0.008": 0.0,
			"-0.007": 0.0164820803428,
			"-0.006": 5.17579858957,
			"-0.005": 13.7775109553,
			"-0.004": 16.9380872198,
			"-0.003": 13.5831300742,
			"-0.002": 13.5809298882,
			"-0.001": 14.1862495581,
			"0.0": 12.5651067434,
			"0.001": 9.13909772389,
			"0.002": 6.75976580211,
			"0.003": 5.75541264051,
			"0.004": 3.66205775613,
			"0.005": 2.0385414227,
			"0.006": 1.81408954261,
			"0.007": 1.48066517656,
			"0.008": 1.74214574749,
			"0.009": 1.39306862267,
			"0.01": 1.32816223511,
			"0.011": 2.34010437686,
			"0.012": 3.26711458934,
			"0.013": 3.40274749924,
			"0.014": 1.0778166447,
			"0.015": 0.0140360371649,
			"0.016": 0.0,
			"0.017": 0.0,
			"0.018": 0.0,
			"0.019": 0.0,
			"0.02": 0.0,
			"0.021": 0.0,
			"0.022": 0.0,
			"0.023": 0.0,
			"0.024": 0.0,
			"0.025": 0.0
		}
	}
}
