{
	 "smiles": "NCCCS(O)(=O)=O", 
	 "Tm": 543.15, 
	 "num_atms": 17, 
	 "gaussian": { 
		 "optdone": 1, 
		 "sigma_profile": "yes", 
		 "theory": "DFT", 
		 "functional": "B3LYP", 
		 "basiset": "6-31G**", 
		 "properties": { 
			 "R2extent": 1320.6553, 
			 "electric_dipole_moment_norm": 3.83580537958, 
			 "electric_quadrupole_moment_norm": 11.1065865107, 
			 "total_energy": -798.286383786, 
			 "HOMO_LUMO_gap": 0.25935, 
			 "cosmo_polarized_energy": -17.1, 
			 "cosmo_cavitation_energy": 20.98, 
			 "cosmo_dispersion_energy": -16.28, 
			 "cosmo_repulsion_energy": 1.32, 
			 "cosmo_total_nonelectrostatic_energy": 6.01, 
			 "SMD_solvation_energy": 1.25 
		},
		"coords": [
			{
				"x": -2.9610530736,
				"y": -1.3931146052,
				"z": 0.6630581324,
				"element": "N" 
			},
			{
				"x": -2.5136107274,
				"y": -0.3044745273,
				"z": -0.1965190606,
				"element": "C" 
			},
			{
				"x": -1.5507854237,
				"y": 0.7361780397,
				"z": 0.4221843053,
				"element": "C" 
			},
			{
				"x": -0.3309579879,
				"y": 0.1823588083,
				"z": 1.1677118087,
				"element": "C" 
			},
			{
				"x": 0.8072399333,
				"y": -0.8287168307,
				"z": 0.1953548542,
				"element": "S" 
			},
			{
				"x": 1.0642277766,
				"y": 0.1848244394,
				"z": -1.0793748795,
				"element": "O" 
			},
			{
				"x": 0.1106099126,
				"y": -2.0172855759,
				"z": -0.2892691031,
				"element": "O" 
			},
			{
				"x": 2.0842814951,
				"y": -0.9541548477,
				"z": 0.8994928511,
				"element": "O" 
			},
			{
				"x": -2.2082646195,
				"y": -2.0572403804,
				"z": 0.8172962189,
				"element": "H" 
			},
			{
				"x": -3.2881341834,
				"y": -1.0573931901,
				"z": 1.564998736,
				"element": "H" 
			},
			{
				"x": -3.3922830519,
				"y": 0.2455392493,
				"z": -0.5564440639,
				"element": "H" 
			},
			{
				"x": -2.0489045432,
				"y": -0.7566612572,
				"z": -1.0766636874,
				"element": "H" 
			},
			{
				"x": -1.2174236279,
				"y": 1.4335490175,
				"z": -0.3541705484,
				"element": "H" 
			},
			{
				"x": -2.0968142509,
				"y": 1.3339892195,
				"z": 1.1647903302,
				"element": "H" 
			},
			{
				"x": 0.2849559315,
				"y": 0.9805650666,
				"z": 1.5882961433,
				"element": "H" 
			},
			{
				"x": -0.6296372656,
				"y": -0.488870563,
				"z": 1.9791742953,
				"element": "H" 
			},
			{
				"x": 2.0263537058,
				"y": 0.2041079373,
				"z": -1.2190163326,
				"element": "H" 
			}
		],
		 "valence_orbital": [ 
			{
				"type": "occ",
				"energy": -0.34921,
				"method": "rhf"
			},
			{
				"type": "occ",
				"energy": -0.32728,
				"method": "rhf"
			},
			{
				"type": "occ",
				"energy": -0.31847,
				"method": "rhf"
			},
			{
				"type": "occ",
				"energy": -0.30721,
				"method": "rhf"
			},
			{
				"type": "occ",
				"energy": -0.23363,
				"method": "rhf"
			},
			{
				"type": "unocc",
				"energy": 0.02572,
				"method": "rhf"
			},
			{
				"type": "unocc",
				"energy": 0.06034,
				"method": "rhf"
			},
			{
				"type": "unocc",
				"energy": 0.06792,
				"method": "rhf"
			},
			{
				"type": "unocc",
				"energy": 0.08209,
				"method": "rhf"
			},
			{
				"type": "unocc",
				"energy": 0.09639,
				"method": "rhf"
			}
		],
		"cosmo_sigma_profile": { 
			"-0.025": 0.0,
			"-0.024": 0.0,
			"-0.023": 0.0,
			"-0.022": 0.0,
			"-0.021": 0.0,
			"-0.02": 0.338686849585,
			"-0.019": 0.755196616924,
			"-0.018": 1.32938731845,
			"-0.017": 0.786011568524,
			"-0.016": 0.643286813007,
			"-0.015": 0.4128858196,
			"-0.014": 1.00552992325,
			"-0.013": 0.967463193588,
			"-0.012": 0.63723592294,
			"-0.011": 1.02866430259,
			"-0.01": 1.02800018695,
			"-0.009": 4.29581082363,
			"-0.008": 7.4223232571,
			"-0.007": 9.35636064085,
			"-0.006": 8.6818325922,
			"-0.005": 10.2959287519,
			"-0.004": 9.10362211345,
			"-0.003": 11.1141500289,
			"-0.002": 10.9489760342,
			"-0.001": 9.80990683754,
			"0.0": 5.70980886038,
			"0.001": 4.78904784645,
			"0.002": 5.29455919342,
			"0.003": 5.10574490779,
			"0.004": 3.80873264821,
			"0.005": 4.14092424913,
			"0.006": 5.22646002983,
			"0.007": 5.11427103206,
			"0.008": 5.72954851646,
			"0.009": 4.8575668994,
			"0.01": 9.81458719066,
			"0.011": 8.10687297014,
			"0.012": 1.24280304264,
			"0.013": 0.461009763097,
			"0.014": 0.945592502341,
			"0.015": 0.589101864732,
			"0.016": 0.105878344323,
			"0.017": 0.740469676817,
			"0.018": 0.853434826154,
			"0.019": 0.491922275143,
			"0.02": 0.238873089563,
			"0.021": 0.0,
			"0.022": 0.0,
			"0.023": 0.0,
			"0.024": 0.0,
			"0.025": 0.0
		}
	}
}
