{
	 "smiles": "NC1=CC=C(CCN2CCOC2=O)C=C1", 
	 "Tm": 466.15, 
	 "num_atms": 29, 
	 "gaussian": { 
		 "optdone": 1, 
		 "sigma_profile": "yes", 
		 "theory": "DFT", 
		 "functional": "B3LYP", 
		 "basiset": "6-31G**", 
		 "properties": { 
			 "R2extent": 3670.5612, 
			 "electric_dipole_moment_norm": 6.32477952817, 
			 "electric_quadrupole_moment_norm": 16.2254856501, 
			 "total_energy": -687.579537543, 
			 "HOMO_LUMO_gap": 0.1988, 
			 "cosmo_polarized_energy": -17.99, 
			 "cosmo_cavitation_energy": 31.96, 
			 "cosmo_dispersion_energy": -22.41, 
			 "cosmo_repulsion_energy": 1.78, 
			 "cosmo_total_nonelectrostatic_energy": 11.33, 
			 "SMD_solvation_energy": 5.56 
		},
		"coords": [
			{
				"x": -3.4009458265,
				"y": 2.6542295461,
				"z": 0.7315123806,
				"element": "N" 
			},
			{
				"x": -2.5592674957,
				"y": 1.5502935072,
				"z": 0.5770192849,
				"element": "C" 
			},
			{
				"x": -2.430827778,
				"y": 0.5933892937,
				"z": 1.5992639508,
				"element": "C" 
			},
			{
				"x": -1.6398856689,
				"y": -0.5369885248,
				"z": 1.4156636345,
				"element": "C" 
			},
			{
				"x": -0.9443336923,
				"y": -0.7639800325,
				"z": 0.2189008654,
				"element": "C" 
			},
			{
				"x": -0.0576079257,
				"y": -1.9766442097,
				"z": 0.0416213442,
				"element": "C" 
			},
			{
				"x": 1.3007814042,
				"y": -1.8971642376,
				"z": 0.7729037012,
				"element": "C" 
			},
			{
				"x": 2.1728541706,
				"y": -0.8178589625,
				"z": 0.3317163517,
				"element": "N" 
			},
			{
				"x": 2.1818469922,
				"y": 0.5308864895,
				"z": 0.8755173097,
				"element": "C" 
			},
			{
				"x": 3.3350440155,
				"y": 1.1440079335,
				"z": 0.058887964,
				"element": "C" 
			},
			{
				"x": 3.4310122305,
				"y": 0.3271005658,
				"z": -1.1193614983,
				"element": "O" 
			},
			{
				"x": 2.8015779576,
				"y": -0.8719639677,
				"z": -0.8878341083,
				"element": "C" 
			},
			{
				"x": 2.8280364363,
				"y": -1.799654375,
				"z": -1.6655105421,
				"element": "O" 
			},
			{
				"x": -1.0840391952,
				"y": 0.1916024292,
				"z": -0.7965924408,
				"element": "C" 
			},
			{
				"x": -1.8702641477,
				"y": 1.3297124004,
				"z": -0.6272167277,
				"element": "C" 
			},
			{
				"x": -3.5691557084,
				"y": 2.9377646704,
				"z": 1.6868514278,
				"element": "H" 
			},
			{
				"x": -3.1902282362,
				"y": 3.4429590786,
				"z": 0.1357889614,
				"element": "H" 
			},
			{
				"x": -2.966705159,
				"y": 0.7349678403,
				"z": 2.5350398282,
				"element": "H" 
			},
			{
				"x": -1.566796772,
				"y": -1.2624576933,
				"z": 2.2235569609,
				"element": "H" 
			},
			{
				"x": 0.1476950602,
				"y": -2.1436452715,
				"z": -1.0203101864,
				"element": "H" 
			},
			{
				"x": -0.5690060374,
				"y": -2.8759664761,
				"z": 0.4097507004,
				"element": "H" 
			},
			{
				"x": 1.8406103669,
				"y": -2.8357370418,
				"z": 0.6125224893,
				"element": "H" 
			},
			{
				"x": 1.150170618,
				"y": -1.7781875822,
				"z": 1.8511799992,
				"element": "H" 
			},
			{
				"x": 2.3905937748,
				"y": 0.532544989,
				"z": 1.9510156031,
				"element": "H" 
			},
			{
				"x": 1.2294441635,
				"y": 1.0477674079,
				"z": 0.7054517349,
				"element": "H" 
			},
			{
				"x": 3.1492447664,
				"y": 2.1755476299,
				"z": -0.2468626539,
				"element": "H" 
			},
			{
				"x": 4.287096218,
				"y": 1.0945328685,
				"z": 0.6003065079,
				"element": "H" 
			},
			{
				"x": -0.5671690332,
				"y": 0.0431302104,
				"z": -1.7417890114,
				"element": "H" 
			},
			{
				"x": -1.9645754985,
				"y": 2.0484115143,
				"z": -1.4379938315,
				"element": "H" 
			}
		],
		 "valence_orbital": [ 
			{
				"type": "occ",
				"energy": -0.2831,
				"method": "rhf"
			},
			{
				"type": "occ",
				"energy": -0.26483,
				"method": "rhf"
			},
			{
				"type": "occ",
				"energy": -0.24956,
				"method": "rhf"
			},
			{
				"type": "occ",
				"energy": -0.23943,
				"method": "rhf"
			},
			{
				"type": "occ",
				"energy": -0.2008,
				"method": "rhf"
			},
			{
				"type": "unocc",
				"energy": -0.002,
				"method": "rhf"
			},
			{
				"type": "unocc",
				"energy": 0.01331,
				"method": "rhf"
			},
			{
				"type": "unocc",
				"energy": 0.05776,
				"method": "rhf"
			},
			{
				"type": "unocc",
				"energy": 0.07738,
				"method": "rhf"
			},
			{
				"type": "unocc",
				"energy": 0.08289,
				"method": "rhf"
			}
		],
		"cosmo_sigma_profile": { 
			"-0.025": 0.0,
			"-0.024": 0.0,
			"-0.023": 0.0,
			"-0.022": 0.0,
			"-0.021": 0.0,
			"-0.02": 0.0,
			"-0.019": 0.0,
			"-0.018": 0.0,
			"-0.017": 0.0,
			"-0.016": 0.0,
			"-0.015": 0.0,
			"-0.014": 0.0,
			"-0.013": 0.0414000016351,
			"-0.012": 1.89226999317,
			"-0.011": 3.01150114435,
			"-0.01": 2.46653536578,
			"-0.009": 3.07773434509,
			"-0.008": 3.47601486661,
			"-0.007": 5.12072165907,
			"-0.006": 15.8583262025,
			"-0.005": 21.2218373945,
			"-0.004": 24.6777828379,
			"-0.003": 24.6312191311,
			"-0.002": 19.190873307,
			"-0.001": 15.7515989749,
			"0.0": 13.5368515407,
			"0.001": 11.3909527536,
			"0.002": 9.05291093099,
			"0.003": 11.3846916246,
			"0.004": 8.97344971559,
			"0.005": 9.97607118774,
			"0.006": 9.26206349711,
			"0.007": 7.28881752683,
			"0.008": 2.78330098103,
			"0.009": 4.59280930043,
			"0.01": 4.47741924983,
			"0.011": 4.90156303812,
			"0.012": 2.99938238481,
			"0.013": 6.62819341637,
			"0.014": 3.50066492177,
			"0.015": 0.424683760985,
			"0.016": 0.0,
			"0.017": 0.0,
			"0.018": 0.0,
			"0.019": 0.0,
			"0.02": 0.0,
			"0.021": 0.0,
			"0.022": 0.0,
			"0.023": 0.0,
			"0.024": 0.0,
			"0.025": 0.0
		}
	}
}
