{
	 "smiles": "[O-][N+](=O)CC(=O)CC1=CC=CC=C1", 
	 "Tm": 322.15, 
	 "num_atms": 22, 
	 "gaussian": { 
		 "optdone": 1, 
		 "sigma_profile": "yes", 
		 "theory": "DFT", 
		 "functional": "B3LYP", 
		 "basiset": "6-31G**", 
		 "properties": { 
			 "R2extent": 2801.682, 
			 "electric_dipole_moment_norm": 3.27740091689, 
			 "electric_quadrupole_moment_norm": 7.1985190081, 
			 "total_energy": -628.6956874, 
			 "HOMO_LUMO_gap": 0.16729, 
			 "cosmo_polarized_energy": -10.66, 
			 "cosmo_cavitation_energy": 27.03, 
			 "cosmo_dispersion_energy": -18.88, 
			 "cosmo_repulsion_energy": 1.5, 
			 "cosmo_total_nonelectrostatic_energy": 9.65, 
			 "SMD_solvation_energy": 7.07 
		},
		"coords": [
			{
				"x": 0.7600013655,
				"y": -1.8056278671,
				"z": 1.7811268142,
				"element": "O" 
			},
			{
				"x": -0.1058100638,
				"y": -2.5659224303,
				"z": 1.3461797607,
				"element": "N" 
			},
			{
				"x": -0.2400404355,
				"y": -3.742652871,
				"z": 1.6548993331,
				"element": "O" 
			},
			{
				"x": -1.0670489167,
				"y": -2.0081800116,
				"z": 0.3320455105,
				"element": "C" 
			},
			{
				"x": -0.4192584259,
				"y": -1.8584712169,
				"z": -1.0657455079,
				"element": "C" 
			},
			{
				"x": -0.9184109717,
				"y": -2.4440124134,
				"z": -2.000974644,
				"element": "O" 
			},
			{
				"x": 0.7585856125,
				"y": -0.9046354021,
				"z": -1.2112915197,
				"element": "C" 
			},
			{
				"x": 0.2835669323,
				"y": 0.5386871186,
				"z": -1.1140400327,
				"element": "C" 
			},
			{
				"x": 0.4365926564,
				"y": 1.2701496377,
				"z": 0.0712730241,
				"element": "C" 
			},
			{
				"x": -0.0190719873,
				"y": 2.5877770675,
				"z": 0.1515383839,
				"element": "C" 
			},
			{
				"x": -0.6361642689,
				"y": 3.1858186883,
				"z": -0.9483816236,
				"element": "C" 
			},
			{
				"x": -0.7986443516,
				"y": 2.4597920347,
				"z": -2.1305514067,
				"element": "C" 
			},
			{
				"x": -0.3447245125,
				"y": 1.1433319945,
				"z": -2.2116487268,
				"element": "C" 
			},
			{
				"x": -1.9019386545,
				"y": -2.7005012133,
				"z": 0.2634326915,
				"element": "H" 
			},
			{
				"x": -1.3691153757,
				"y": -1.0271822063,
				"z": 0.7045007204,
				"element": "H" 
			},
			{
				"x": 1.4967440705,
				"y": -1.1059147727,
				"z": -0.4310793065,
				"element": "H" 
			},
			{
				"x": 1.2046497803,
				"y": -1.1040014899,
				"z": -2.1887035237,
				"element": "H" 
			},
			{
				"x": 0.9124082288,
				"y": 0.8035053648,
				"z": 0.929139425,
				"element": "H" 
			},
			{
				"x": 0.1123494054,
				"y": 3.1468747508,
				"z": 1.0735563893,
				"element": "H" 
			},
			{
				"x": -0.9872631426,
				"y": 4.2117001403,
				"z": -0.8860518034,
				"element": "H" 
			},
			{
				"x": -1.2778240617,
				"y": 2.9186403637,
				"z": -2.9906068136,
				"element": "H" 
			},
			{
				"x": -0.4744828832,
				"y": 0.5789247338,
				"z": -3.1315171443,
				"element": "H" 
			}
		],
		 "valence_orbital": [ 
			{
				"type": "occ",
				"energy": -0.31953,
				"method": "rhf"
			},
			{
				"type": "occ",
				"energy": -0.30537,
				"method": "rhf"
			},
			{
				"type": "occ",
				"energy": -0.28382,
				"method": "rhf"
			},
			{
				"type": "occ",
				"energy": -0.2622,
				"method": "rhf"
			},
			{
				"type": "occ",
				"energy": -0.25283,
				"method": "rhf"
			},
			{
				"type": "unocc",
				"energy": -0.08554,
				"method": "rhf"
			},
			{
				"type": "unocc",
				"energy": -0.05108,
				"method": "rhf"
			},
			{
				"type": "unocc",
				"energy": -0.01559,
				"method": "rhf"
			},
			{
				"type": "unocc",
				"energy": -0.00644,
				"method": "rhf"
			},
			{
				"type": "unocc",
				"energy": 0.08343,
				"method": "rhf"
			}
		],
		"cosmo_sigma_profile": { 
			"-0.025": 0.0,
			"-0.024": 0.0,
			"-0.023": 0.0,
			"-0.022": 0.0,
			"-0.021": 0.0,
			"-0.02": 0.0,
			"-0.019": 0.0,
			"-0.018": 0.0,
			"-0.017": 0.0,
			"-0.016": 0.0,
			"-0.015": 0.0,
			"-0.014": 0.0,
			"-0.013": 0.0,
			"-0.012": 0.0312176021895,
			"-0.011": 0.523175037951,
			"-0.01": 2.06433287512,
			"-0.009": 5.05124175151,
			"-0.008": 5.21659319091,
			"-0.007": 6.30072015743,
			"-0.006": 11.7395308757,
			"-0.005": 17.1507647352,
			"-0.004": 19.3667274861,
			"-0.003": 15.5049846956,
			"-0.002": 14.4867513061,
			"-0.001": 11.7501664029,
			"0.0": 10.8857797596,
			"0.001": 11.0625647643,
			"0.002": 10.192270632,
			"0.003": 11.1915156805,
			"0.004": 12.1158622581,
			"0.005": 12.5935647217,
			"0.006": 8.7681814053,
			"0.007": 9.5057333586,
			"0.008": 7.63648481983,
			"0.009": 5.73540399077,
			"0.01": 5.01984340075,
			"0.011": 1.639535319,
			"0.012": 0.0381822928343,
			"0.013": 0.0,
			"0.014": 0.0,
			"0.015": 0.0,
			"0.016": 0.0,
			"0.017": 0.0,
			"0.018": 0.0,
			"0.019": 0.0,
			"0.02": 0.0,
			"0.021": 0.0,
			"0.022": 0.0,
			"0.023": 0.0,
			"0.024": 0.0,
			"0.025": 0.0
		}
	}
}
