{
	 "smiles": "CC(=O)CC(=O)NC1=CC(C)=CC=C1", 
	 "Tm": 331.15, 
	 "num_atms": 27, 
	 "gaussian": { 
		 "optdone": 1, 
		 "sigma_profile": "yes", 
		 "theory": "DFT", 
		 "functional": "B3LYP", 
		 "basiset": "6-31G**", 
		 "properties": { 
			 "R2extent": 3695.3585, 
			 "electric_dipole_moment_norm": 2.21615996489, 
			 "electric_quadrupole_moment_norm": 8.3567293692, 
			 "total_energy": -632.228669855, 
			 "HOMO_LUMO_gap": 0.19832, 
			 "cosmo_polarized_energy": -12.19, 
			 "cosmo_cavitation_energy": 30.62, 
			 "cosmo_dispersion_energy": -21.62, 
			 "cosmo_repulsion_energy": 1.71, 
			 "cosmo_total_nonelectrostatic_energy": 10.71, 
			 "SMD_solvation_energy": 6.63 
		},
		"coords": [
			{
				"x": -1.0884822298,
				"y": 3.1252486763,
				"z": -1.9381563268,
				"element": "C" 
			},
			{
				"x": -0.8784204194,
				"y": 1.9350805509,
				"z": -1.0337922796,
				"element": "C" 
			},
			{
				"x": -1.1632178846,
				"y": 0.7967550422,
				"z": -1.3581529236,
				"element": "O" 
			},
			{
				"x": -0.2412423943,
				"y": 2.2298311894,
				"z": 0.3331697846,
				"element": "C" 
			},
			{
				"x": 1.2721679969,
				"y": 2.3855038136,
				"z": 0.1744787537,
				"element": "C" 
			},
			{
				"x": 1.7472243513,
				"y": 3.3697200446,
				"z": -0.3815520284,
				"element": "O" 
			},
			{
				"x": 2.0969241571,
				"y": 1.4092816761,
				"z": 0.6805757863,
				"element": "N" 
			},
			{
				"x": 1.8301832851,
				"y": 0.1765255975,
				"z": 1.3354717241,
				"element": "C" 
			},
			{
				"x": 0.8581974259,
				"y": -0.7185985896,
				"z": 0.8688186182,
				"element": "C" 
			},
			{
				"x": 0.6344152673,
				"y": -1.9347351334,
				"z": 1.5262674719,
				"element": "C" 
			},
			{
				"x": -0.4088826036,
				"y": -2.8972460619,
				"z": 1.0072473599,
				"element": "C" 
			},
			{
				"x": 1.4207302796,
				"y": -2.2588815601,
				"z": 2.6396360949,
				"element": "C" 
			},
			{
				"x": 2.4098051871,
				"y": -1.382944965,
				"z": 3.0867228499,
				"element": "C" 
			},
			{
				"x": 2.6144626835,
				"y": -0.1630234566,
				"z": 2.4457323041,
				"element": "C" 
			},
			{
				"x": -0.1618216723,
				"y": 3.7074801513,
				"z": -1.9858348489,
				"element": "H" 
			},
			{
				"x": -1.4005724481,
				"y": 2.7965476556,
				"z": -2.9302194554,
				"element": "H" 
			},
			{
				"x": -1.8560953292,
				"y": 3.781942719,
				"z": -1.5103965057,
				"element": "H" 
			},
			{
				"x": -0.5951864648,
				"y": 3.1967569667,
				"z": 0.7023620841,
				"element": "H" 
			},
			{
				"x": -0.5137586374,
				"y": 1.4421512762,
				"z": 1.0342263231,
				"element": "H" 
			},
			{
				"x": 3.0707199482,
				"y": 1.6815144274,
				"z": 0.61217024,
				"element": "H" 
			},
			{
				"x": 0.2722413372,
				"y": -0.4740800898,
				"z": -0.0117182939,
				"element": "H" 
			},
			{
				"x": -1.1400723846,
				"y": -2.3885158777,
				"z": 0.3736046747,
				"element": "H" 
			},
			{
				"x": -0.9450579811,
				"y": -3.3840243677,
				"z": 1.8282265463,
				"element": "H" 
			},
			{
				"x": 0.0517979972,
				"y": -3.6911446681,
				"z": 0.4064694815,
				"element": "H" 
			},
			{
				"x": 1.2608933042,
				"y": -3.2028037425,
				"z": 3.1542480611,
				"element": "H" 
			},
			{
				"x": 3.0167702631,
				"y": -1.6437533522,
				"z": 3.948980835,
				"element": "H" 
			},
			{
				"x": 3.3666769657,
				"y": 0.5326120779,
				"z": 2.8073136691,
				"element": "H" 
			}
		],
		 "valence_orbital": [ 
			{
				"type": "occ",
				"energy": -0.29494,
				"method": "rhf"
			},
			{
				"type": "occ",
				"energy": -0.26436,
				"method": "rhf"
			},
			{
				"type": "occ",
				"energy": -0.25261,
				"method": "rhf"
			},
			{
				"type": "occ",
				"energy": -0.24881,
				"method": "rhf"
			},
			{
				"type": "occ",
				"energy": -0.22896,
				"method": "rhf"
			},
			{
				"type": "unocc",
				"energy": -0.03064,
				"method": "rhf"
			},
			{
				"type": "unocc",
				"energy": -0.0102,
				"method": "rhf"
			},
			{
				"type": "unocc",
				"energy": -0.0063,
				"method": "rhf"
			},
			{
				"type": "unocc",
				"energy": 0.0304,
				"method": "rhf"
			},
			{
				"type": "unocc",
				"energy": 0.09015,
				"method": "rhf"
			}
		],
		"cosmo_sigma_profile": { 
			"-0.025": 0.0,
			"-0.024": 0.0,
			"-0.023": 0.0,
			"-0.022": 0.0,
			"-0.021": 0.0,
			"-0.02": 0.0,
			"-0.019": 0.0,
			"-0.018": 0.0,
			"-0.017": 0.0,
			"-0.016": 0.0,
			"-0.015": 0.179652566651,
			"-0.014": 1.01581814967,
			"-0.013": 0.883242705708,
			"-0.012": 0.905274938887,
			"-0.011": 0.855301909287,
			"-0.01": 1.31052479772,
			"-0.009": 1.09140906462,
			"-0.008": 2.15445232779,
			"-0.007": 6.83630226399,
			"-0.006": 9.15242869632,
			"-0.005": 13.4465918568,
			"-0.004": 22.0851023475,
			"-0.003": 24.1273883314,
			"-0.002": 20.862133837,
			"-0.001": 25.3601540042,
			"0.0": 22.2218949306,
			"0.001": 13.3207307205,
			"0.002": 10.6361274317,
			"0.003": 11.4768659977,
			"0.004": 11.1388894675,
			"0.005": 10.3250760123,
			"0.006": 6.36913120856,
			"0.007": 3.26360289515,
			"0.008": 2.53836438031,
			"0.009": 3.19237840577,
			"0.01": 3.72554741813,
			"0.011": 4.10260399396,
			"0.012": 4.30555991057,
			"0.013": 5.02483345792,
			"0.014": 0.739116354778,
			"0.015": 0.0,
			"0.016": 0.0,
			"0.017": 0.0,
			"0.018": 0.0,
			"0.019": 0.0,
			"0.02": 0.0,
			"0.021": 0.0,
			"0.022": 0.0,
			"0.023": 0.0,
			"0.024": 0.0,
			"0.025": 0.0
		}
	}
}
