{
	 "smiles": "O=C1CCC(=C1)C1=CC=CC=C1", 
	 "Tm": 250.15, 
	 "num_atms": 22, 
	 "gaussian": { 
		 "optdone": 1, 
		 "sigma_profile": "yes", 
		 "theory": "DFT", 
		 "functional": "B3LYP", 
		 "basiset": "6-31G**", 
		 "properties": { 
			 "R2extent": 2883.4546, 
			 "electric_dipole_moment_norm": 4.53692893266, 
			 "electric_quadrupole_moment_norm": 18.0490490262, 
			 "total_energy": -500.416738645, 
			 "HOMO_LUMO_gap": 0.16567, 
			 "cosmo_polarized_energy": -10.61, 
			 "cosmo_cavitation_energy": 25.51, 
			 "cosmo_dispersion_energy": -18.94, 
			 "cosmo_repulsion_energy": 1.5, 
			 "cosmo_total_nonelectrostatic_energy": 8.06, 
			 "SMD_solvation_energy": 4.63 
		},
		"coords": [
			{
				"x": -3.2091574411,
				"y": -0.1137941903,
				"z": -3.901862185,
				"element": "O" 
			},
			{
				"x": -2.6485397993,
				"y": -0.0477697712,
				"z": -2.8218094256,
				"element": "C" 
			},
			{
				"x": -3.327242806,
				"y": -0.1723247896,
				"z": -1.4495390988,
				"element": "C" 
			},
			{
				"x": -2.1905105576,
				"y": -0.0180513067,
				"z": -0.4228898119,
				"element": "C" 
			},
			{
				"x": -0.9293403983,
				"y": 0.1838116747,
				"z": -1.2543177815,
				"element": "C" 
			},
			{
				"x": -1.2120108783,
				"y": 0.1633410243,
				"z": -2.5784947679,
				"element": "C" 
			},
			{
				"x": 0.3883649537,
				"y": 0.3703961504,
				"z": -0.6289126741,
				"element": "C" 
			},
			{
				"x": 0.5222674267,
				"y": 0.3731272314,
				"z": 0.7718338843,
				"element": "C" 
			},
			{
				"x": 1.7668081267,
				"y": 0.5494426748,
				"z": 1.3751279876,
				"element": "C" 
			},
			{
				"x": 2.9067955203,
				"y": 0.7270233347,
				"z": 0.5912804776,
				"element": "C" 
			},
			{
				"x": 2.7927095452,
				"y": 0.7269373613,
				"z": -0.8024355673,
				"element": "C" 
			},
			{
				"x": 1.5514417719,
				"y": 0.5511458797,
				"z": -1.4040612,
				"element": "C" 
			},
			{
				"x": -4.0982554043,
				"y": 0.5987327327,
				"z": -1.3552888841,
				"element": "H" 
			},
			{
				"x": -3.8364804207,
				"y": -1.1388805736,
				"z": -1.3837122239,
				"element": "H" 
			},
			{
				"x": -2.0892753127,
				"y": -0.9000240231,
				"z": 0.2209753163,
				"element": "H" 
			},
			{
				"x": -2.3492426682,
				"y": 0.8352514023,
				"z": 0.2474953355,
				"element": "H" 
			},
			{
				"x": -0.5135465644,
				"y": 0.2817640841,
				"z": -3.3979343642,
				"element": "H" 
			},
			{
				"x": -0.3533209921,
				"y": 0.2365363564,
				"z": 1.3976112517,
				"element": "H" 
			},
			{
				"x": 1.8445924798,
				"y": 0.5478567653,
				"z": 2.458433728,
				"element": "H" 
			},
			{
				"x": 3.8769367987,
				"y": 0.864420005,
				"z": 1.0597323507,
				"element": "H" 
			},
			{
				"x": 3.6751358864,
				"y": 0.8643452548,
				"z": -1.4205366076,
				"element": "H" 
			},
			{
				"x": 1.4813707335,
				"y": 0.5534127226,
				"z": -2.4867957398,
				"element": "H" 
			}
		],
		 "valence_orbital": [ 
			{
				"type": "occ",
				"energy": -0.3453,
				"method": "rhf"
			},
			{
				"type": "occ",
				"energy": -0.29574,
				"method": "rhf"
			},
			{
				"type": "occ",
				"energy": -0.26401,
				"method": "rhf"
			},
			{
				"type": "occ",
				"energy": -0.23754,
				"method": "rhf"
			},
			{
				"type": "occ",
				"energy": -0.23243,
				"method": "rhf"
			},
			{
				"type": "unocc",
				"energy": -0.06676,
				"method": "rhf"
			},
			{
				"type": "unocc",
				"energy": -0.01331,
				"method": "rhf"
			},
			{
				"type": "unocc",
				"energy": 0.01656,
				"method": "rhf"
			},
			{
				"type": "unocc",
				"energy": 0.0649,
				"method": "rhf"
			},
			{
				"type": "unocc",
				"energy": 0.0809,
				"method": "rhf"
			}
		],
		"cosmo_sigma_profile": { 
			"-0.025": 0.0,
			"-0.024": 0.0,
			"-0.023": 0.0,
			"-0.022": 0.0,
			"-0.021": 0.0,
			"-0.02": 0.0,
			"-0.019": 0.0,
			"-0.018": 0.0,
			"-0.017": 0.0,
			"-0.016": 0.0,
			"-0.015": 0.0,
			"-0.014": 0.0,
			"-0.013": 0.0,
			"-0.012": 0.0,
			"-0.011": 0.0,
			"-0.01": 0.0,
			"-0.009": 0.0097845681249,
			"-0.008": 1.3407308828,
			"-0.007": 2.95898075972,
			"-0.006": 11.9025783018,
			"-0.005": 22.8844986233,
			"-0.004": 24.1177477122,
			"-0.003": 17.4471613892,
			"-0.002": 15.2250481239,
			"-0.001": 15.0521564436,
			"0.0": 10.6410843928,
			"0.001": 13.5331564465,
			"0.002": 13.608014679,
			"0.003": 12.3978711352,
			"0.004": 12.9774051381,
			"0.005": 7.86411997124,
			"0.006": 1.26337330421,
			"0.007": 1.50228850277,
			"0.008": 1.8779085257,
			"0.009": 0.9088506594,
			"0.01": 1.77330272329,
			"0.011": 2.40119476377,
			"0.012": 3.05443759328,
			"0.013": 5.27170460968,
			"0.014": 3.21480191969,
			"0.015": 0.345133138707,
			"0.016": 0.0,
			"0.017": 0.0,
			"0.018": 0.0,
			"0.019": 0.0,
			"0.02": 0.0,
			"0.021": 0.0,
			"0.022": 0.0,
			"0.023": 0.0,
			"0.024": 0.0,
			"0.025": 0.0
		}
	}
}
