{
	 "smiles": "CCCCCCCCC1=CC=C(NC(=O)C2=CC=C(OC)C=C2)C=C1", 
	 "Tm": 405.15, 
	 "num_atms": 54, 
	 "gaussian": { 
		 "optdone": 1, 
		 "sigma_profile": "yes", 
		 "theory": "DFT", 
		 "functional": "B3LYP", 
		 "basiset": "6-31G**", 
		 "properties": { 
			 "R2extent": 15767.8981, 
			 "electric_dipole_moment_norm": 4.69460329527, 
			 "electric_quadrupole_moment_norm": 26.1658706352, 
			 "total_energy": -1061.05767547, 
			 "HOMO_LUMO_gap": 0.17294, 
			 "cosmo_polarized_energy": -15.41, 
			 "cosmo_cavitation_energy": 55.4, 
			 "cosmo_dispersion_energy": -37.58, 
			 "cosmo_repulsion_energy": 2.92, 
			 "cosmo_total_nonelectrostatic_energy": 20.74, 
			 "SMD_solvation_energy": 9.42 
		},
		"coords": [
			{
				"x": -2.9370483731,
				"y": 1.5395575955,
				"z": 3.7719590196,
				"element": "C" 
			},
			{
				"x": -2.5840963373,
				"y": 0.0745746239,
				"z": 4.0506857069,
				"element": "C" 
			},
			{
				"x": -2.5784509733,
				"y": -0.7897969302,
				"z": 2.7817624899,
				"element": "C" 
			},
			{
				"x": -2.3033106089,
				"y": -2.2853536124,
				"z": 3.0130478811,
				"element": "C" 
			},
			{
				"x": -0.8894141018,
				"y": -2.5999064395,
				"z": 3.523783252,
				"element": "C" 
			},
			{
				"x": -0.617155619,
				"y": -4.0979982783,
				"z": 3.7579656204,
				"element": "C" 
			},
			{
				"x": -0.6481477322,
				"y": -5.0292446735,
				"z": 2.5307300559,
				"element": "C" 
			},
			{
				"x": 0.5475447649,
				"y": -4.9181914977,
				"z": 1.5564418882,
				"element": "C" 
			},
			{
				"x": 0.5825422282,
				"y": -3.6960984026,
				"z": 0.6593701519,
				"element": "C" 
			},
			{
				"x": 1.6396984116,
				"y": -2.7789829397,
				"z": 0.7120769825,
				"element": "C" 
			},
			{
				"x": 1.6774272509,
				"y": -1.6679066546,
				"z": -0.1259820364,
				"element": "C" 
			},
			{
				"x": 0.6528555638,
				"y": -1.4389419495,
				"z": -1.056620232,
				"element": "C" 
			},
			{
				"x": 0.7539276387,
				"y": -0.287098062,
				"z": -1.8639185058,
				"element": "N" 
			},
			{
				"x": -0.0723776101,
				"y": 0.1293083276,
				"z": -2.8879477518,
				"element": "C" 
			},
			{
				"x": -1.0430656029,
				"y": -0.5123107825,
				"z": -3.2796207157,
				"element": "O" 
			},
			{
				"x": 0.3074260637,
				"y": 1.4348270135,
				"z": -3.520625514,
				"element": "C" 
			},
			{
				"x": 1.0651064805,
				"y": 2.4279687506,
				"z": -2.8898350364,
				"element": "C" 
			},
			{
				"x": 1.3688250157,
				"y": 3.6289591552,
				"z": -3.5339409578,
				"element": "C" 
			},
			{
				"x": 0.9070209811,
				"y": 3.8488228666,
				"z": -4.8379749118,
				"element": "C" 
			},
			{
				"x": 1.1456982454,
				"y": 4.9745086653,
				"z": -5.5632140343,
				"element": "O" 
			},
			{
				"x": 1.9193137797,
				"y": 6.0093785126,
				"z": -4.9736140221,
				"element": "C" 
			},
			{
				"x": 0.1309819322,
				"y": 2.8656326741,
				"z": -5.4754749149,
				"element": "C" 
			},
			{
				"x": -0.1685535064,
				"y": 1.6834061926,
				"z": -4.8201955256,
				"element": "C" 
			},
			{
				"x": -0.4110511972,
				"y": -2.352636105,
				"z": -1.1326600542,
				"element": "C" 
			},
			{
				"x": -0.427585769,
				"y": -3.4572446141,
				"z": -0.283328692,
				"element": "C" 
			},
			{
				"x": -2.218686276,
				"y": 1.9947253719,
				"z": 3.0802555063,
				"element": "H" 
			},
			{
				"x": -3.9305661413,
				"y": 1.6282835844,
				"z": 3.3174660785,
				"element": "H" 
			},
			{
				"x": -2.9369981067,
				"y": 2.1356274437,
				"z": 4.6907706438,
				"element": "H" 
			},
			{
				"x": -3.3029066398,
				"y": -0.3447201154,
				"z": 4.7686877831,
				"element": "H" 
			},
			{
				"x": -1.6036410458,
				"y": 0.0283346738,
				"z": 4.5410160677,
				"element": "H" 
			},
			{
				"x": -1.8363229548,
				"y": -0.393209387,
				"z": 2.0743331993,
				"element": "H" 
			},
			{
				"x": -3.5524859593,
				"y": -0.6846648607,
				"z": 2.2843593887,
				"element": "H" 
			},
			{
				"x": -3.0433228227,
				"y": -2.6861116614,
				"z": 3.7219638883,
				"element": "H" 
			},
			{
				"x": -2.4711328723,
				"y": -2.8118638611,
				"z": 2.0659641525,
				"element": "H" 
			},
			{
				"x": -0.7253005531,
				"y": -2.0820729505,
				"z": 4.4774624598,
				"element": "H" 
			},
			{
				"x": -0.1549187045,
				"y": -2.1876946926,
				"z": 2.8225714427,
				"element": "H" 
			},
			{
				"x": 0.3602584589,
				"y": -4.2074629629,
				"z": 4.2487898108,
				"element": "H" 
			},
			{
				"x": -1.3557044292,
				"y": -4.470279923,
				"z": 4.4818874,
				"element": "H" 
			},
			{
				"x": -0.6679735283,
				"y": -6.0626629631,
				"z": 2.9002167003,
				"element": "H" 
			},
			{
				"x": -1.5853973651,
				"y": -4.897255102,
				"z": 1.9764399947,
				"element": "H" 
			},
			{
				"x": 1.4801480499,
				"y": -4.9683682995,
				"z": 2.132842703,
				"element": "H" 
			},
			{
				"x": 0.5397989668,
				"y": -5.8132772912,
				"z": 0.9193206041,
				"element": "H" 
			},
			{
				"x": 2.4483032353,
				"y": -2.9331077358,
				"z": 1.4223997683,
				"element": "H" 
			},
			{
				"x": 2.5108046836,
				"y": -0.9712157912,
				"z": -0.0583636883,
				"element": "H" 
			},
			{
				"x": 1.596495058,
				"y": 0.2510956097,
				"z": -1.7282337352,
				"element": "H" 
			},
			{
				"x": 1.4002790157,
				"y": 2.3016590965,
				"z": -1.8635864685,
				"element": "H" 
			},
			{
				"x": 1.9471522688,
				"y": 4.3810851754,
				"z": -3.0111522833,
				"element": "H" 
			},
			{
				"x": 1.9868648463,
				"y": 6.7983987172,
				"z": -5.7237551277,
				"element": "H" 
			},
			{
				"x": 1.4388228734,
				"y": 6.4090646948,
				"z": -4.0716771007,
				"element": "H" 
			},
			{
				"x": 2.9297302804,
				"y": 5.6640725958,
				"z": -4.7205319644,
				"element": "H" 
			},
			{
				"x": -0.2241608619,
				"y": 3.0604720832,
				"z": -6.4820234032,
				"element": "H" 
			},
			{
				"x": -0.7789132496,
				"y": 0.9235901228,
				"z": -5.296078477,
				"element": "H" 
			},
			{
				"x": -1.1958397528,
				"y": -2.1923754039,
				"z": -1.8577864153,
				"element": "H" 
			},
			{
				"x": -1.254997399,
				"y": -4.1580996038,
				"z": -0.3672290724,
				"element": "H" 
			}
		],
		 "valence_orbital": [ 
			{
				"type": "occ",
				"energy": -0.26202,
				"method": "rhf"
			},
			{
				"type": "occ",
				"energy": -0.25097,
				"method": "rhf"
			},
			{
				"type": "occ",
				"energy": -0.24576,
				"method": "rhf"
			},
			{
				"type": "occ",
				"energy": -0.23059,
				"method": "rhf"
			},
			{
				"type": "occ",
				"energy": -0.20747,
				"method": "rhf"
			},
			{
				"type": "unocc",
				"energy": -0.03453,
				"method": "rhf"
			},
			{
				"type": "unocc",
				"energy": -0.01164,
				"method": "rhf"
			},
			{
				"type": "unocc",
				"energy": 0.0014,
				"method": "rhf"
			},
			{
				"type": "unocc",
				"energy": 0.01458,
				"method": "rhf"
			},
			{
				"type": "unocc",
				"energy": 0.06928,
				"method": "rhf"
			}
		],
		"cosmo_sigma_profile": { 
			"-0.025": 0.0,
			"-0.024": 0.0,
			"-0.023": 0.0,
			"-0.022": 0.0,
			"-0.021": 0.0,
			"-0.02": 0.0,
			"-0.019": 0.0,
			"-0.018": 0.0,
			"-0.017": 0.0,
			"-0.016": 0.0,
			"-0.015": 0.163697356232,
			"-0.014": 1.34132945134,
			"-0.013": 1.30750857327,
			"-0.012": 1.53852618445,
			"-0.011": 1.19334074576,
			"-0.01": 1.43413365137,
			"-0.009": 1.88794342201,
			"-0.008": 2.14048261256,
			"-0.007": 4.5532380406,
			"-0.006": 13.58716971,
			"-0.005": 20.177369633,
			"-0.004": 21.8725363505,
			"-0.003": 26.1879969998,
			"-0.002": 40.4173452414,
			"-0.001": 50.814950583,
			"0.0": 59.1530163901,
			"0.001": 57.0070684088,
			"0.002": 36.4912374173,
			"0.003": 26.7642256119,
			"0.004": 25.8382343885,
			"0.005": 13.6084879803,
			"0.006": 6.62157774823,
			"0.007": 3.50502800889,
			"0.008": 3.26805032009,
			"0.009": 3.08088359945,
			"0.01": 2.36555747765,
			"0.011": 2.16565265973,
			"0.012": 2.13901653921,
			"0.013": 3.15247920935,
			"0.014": 0.909411526152,
			"0.015": 0.0,
			"0.016": 0.0,
			"0.017": 0.0,
			"0.018": 0.0,
			"0.019": 0.0,
			"0.02": 0.0,
			"0.021": 0.0,
			"0.022": 0.0,
			"0.023": 0.0,
			"0.024": 0.0,
			"0.025": 0.0
		}
	}
}
