{
	 "smiles": "ClS(=O)(=O)CC1=CC(=NO1)C1=CC=CC=C1", 
	 "Tm": 389.15, 
	 "num_atms": 24, 
	 "gaussian": { 
		 "optdone": 1, 
		 "sigma_profile": "yes", 
		 "theory": "DFT", 
		 "functional": "B3LYP", 
		 "basiset": "6-31G**", 
		 "properties": { 
			 "R2extent": 8379.4821, 
			 "electric_dipole_moment_norm": 4.24201418314, 
			 "electric_quadrupole_moment_norm": 25.2446836597, 
			 "total_energy": -1524.57092115, 
			 "HOMO_LUMO_gap": 0.15106, 
			 "cosmo_polarized_energy": -14.99, 
			 "cosmo_cavitation_energy": 33.05, 
			 "cosmo_dispersion_energy": -24.35, 
			 "cosmo_repulsion_energy": 1.84, 
			 "cosmo_total_nonelectrostatic_energy": 10.54, 
			 "SMD_solvation_energy": 4.1 
		},
		"coords": [
			{
				"x": -4.5501545188,
				"y": 4.6672208883,
				"z": -0.6525422175,
				"element": "Cl" 
			},
			{
				"x": -2.5114980316,
				"y": 4.0594391535,
				"z": -0.5032712984,
				"element": "S" 
			},
			{
				"x": -2.0734475646,
				"y": 3.6938503687,
				"z": -1.8443579948,
				"element": "O" 
			},
			{
				"x": -1.8158066907,
				"y": 5.0556287236,
				"z": 0.2969037289,
				"element": "O" 
			},
			{
				"x": -2.763925773,
				"y": 2.5195715975,
				"z": 0.4794451441,
				"element": "C" 
			},
			{
				"x": -1.465231453,
				"y": 1.8633857114,
				"z": 0.7632336104,
				"element": "C" 
			},
			{
				"x": -0.5771956777,
				"y": 1.1700173586,
				"z": 0.0004529155,
				"element": "C" 
			},
			{
				"x": 0.4719709662,
				"y": 0.8327327027,
				"z": 0.9129035773,
				"element": "C" 
			},
			{
				"x": 0.2087617717,
				"y": 1.2992894176,
				"z": 2.1228143776,
				"element": "N" 
			},
			{
				"x": -1.0092185337,
				"y": 1.956680526,
				"z": 2.0318228354,
				"element": "O" 
			},
			{
				"x": 1.7063282966,
				"y": 0.0718068662,
				"z": 0.6525508913,
				"element": "C" 
			},
			{
				"x": 2.0475086195,
				"y": -0.3122499766,
				"z": -0.6525097549,
				"element": "C" 
			},
			{
				"x": 3.2170371971,
				"y": -1.0317981533,
				"z": -0.8945594174,
				"element": "C" 
			},
			{
				"x": 4.0596271698,
				"y": -1.375549679,
				"z": 0.1633144292,
				"element": "C" 
			},
			{
				"x": 3.7270648549,
				"y": -0.9947568595,
				"z": 1.4664493984,
				"element": "C" 
			},
			{
				"x": 2.5601917843,
				"y": -0.2771637851,
				"z": 1.7125371507,
				"element": "C" 
			},
			{
				"x": -3.2689227993,
				"y": 2.8225121451,
				"z": 1.3979828849,
				"element": "H" 
			},
			{
				"x": -3.425339753,
				"y": 1.9055113966,
				"z": -0.1345888667,
				"element": "H" 
			},
			{
				"x": -0.6604490112,
				"y": 0.9407123883,
				"z": -1.0499744772,
				"element": "H" 
			},
			{
				"x": 1.4055062243,
				"y": -0.0439281032,
				"z": -1.4858586062,
				"element": "H" 
			},
			{
				"x": 3.4697060376,
				"y": -1.3209591445,
				"z": -1.9103027245,
				"element": "H" 
			},
			{
				"x": 4.9704710078,
				"y": -1.9360322592,
				"z": -0.0255361037,
				"element": "H" 
			},
			{
				"x": 4.3790061764,
				"y": -1.2592416656,
				"z": 2.2937350847,
				"element": "H" 
			},
			{
				"x": 2.2973097003,
				"y": 0.019020382,
				"z": 2.722255433,
				"element": "H" 
			}
		],
		 "valence_orbital": [ 
			{
				"type": "occ",
				"energy": -0.3251,
				"method": "rhf"
			},
			{
				"type": "occ",
				"energy": -0.3196,
				"method": "rhf"
			},
			{
				"type": "occ",
				"energy": -0.2858,
				"method": "rhf"
			},
			{
				"type": "occ",
				"energy": -0.2643,
				"method": "rhf"
			},
			{
				"type": "occ",
				"energy": -0.25036,
				"method": "rhf"
			},
			{
				"type": "unocc",
				"energy": -0.0993,
				"method": "rhf"
			},
			{
				"type": "unocc",
				"energy": -0.05211,
				"method": "rhf"
			},
			{
				"type": "unocc",
				"energy": -0.02192,
				"method": "rhf"
			},
			{
				"type": "unocc",
				"energy": -0.01097,
				"method": "rhf"
			},
			{
				"type": "unocc",
				"energy": 0.02504,
				"method": "rhf"
			}
		],
		"cosmo_sigma_profile": { 
			"-0.025": 0.0,
			"-0.024": 0.0,
			"-0.023": 0.0,
			"-0.022": 0.0,
			"-0.021": 0.0,
			"-0.02": 0.0,
			"-0.019": 0.0,
			"-0.018": 0.0,
			"-0.017": 0.0,
			"-0.016": 0.0,
			"-0.015": 0.0,
			"-0.014": 0.0,
			"-0.013": 0.0128361712927,
			"-0.012": 2.32802880249,
			"-0.011": 4.90602912846,
			"-0.01": 5.62708804014,
			"-0.009": 6.11588417505,
			"-0.008": 5.83948816575,
			"-0.007": 6.10521397688,
			"-0.006": 11.8150994624,
			"-0.005": 12.9284889541,
			"-0.004": 16.0842054288,
			"-0.003": 12.3558569958,
			"-0.002": 14.3069414611,
			"-0.001": 16.9024032812,
			"0.0": 19.6046272476,
			"0.001": 18.86516789,
			"0.002": 22.8980448575,
			"0.003": 23.7535986451,
			"0.004": 19.1434443258,
			"0.005": 11.1354994352,
			"0.006": 6.59090488711,
			"0.007": 11.0774762121,
			"0.008": 12.855182807,
			"0.009": 3.70210347979,
			"0.01": 1.14066435924,
			"0.011": 1.32467315095,
			"0.012": 1.05126552183,
			"0.013": 0.0606841005049,
			"0.014": 0.0,
			"0.015": 0.0,
			"0.016": 0.0,
			"0.017": 0.0,
			"0.018": 0.0,
			"0.019": 0.0,
			"0.02": 0.0,
			"0.021": 0.0,
			"0.022": 0.0,
			"0.023": 0.0,
			"0.024": 0.0,
			"0.025": 0.0
		}
	}
}
