{
	 "smiles": "[O-][N+](=O)C1=C(CCl)C=CC(=C1)C(F)(F)F", 
	 "Tm": 317.15, 
	 "num_atms": 20, 
	 "gaussian": { 
		 "optdone": 1, 
		 "sigma_profile": "yes", 
		 "theory": "DFT", 
		 "functional": "B3LYP", 
		 "basiset": "6-31G**", 
		 "properties": { 
			 "R2extent": 4808.6906, 
			 "electric_dipole_moment_norm": 4.30061866945, 
			 "electric_quadrupole_moment_norm": 11.4498223851, 
			 "total_energy": -1272.67902947, 
			 "HOMO_LUMO_gap": 0.18766, 
			 "cosmo_polarized_energy": -10.43, 
			 "cosmo_cavitation_energy": 28.44, 
			 "cosmo_dispersion_energy": -20.03, 
			 "cosmo_repulsion_energy": 1.51, 
			 "cosmo_total_nonelectrostatic_energy": 9.92, 
			 "SMD_solvation_energy": 7.79 
		},
		"coords": [
			{
				"x": 3.664764038,
				"y": 0.6895271585,
				"z": -1.7574853626,
				"element": "O" 
			},
			{
				"x": 3.0799375888,
				"y": -0.026798445,
				"z": -0.9496863888,
				"element": "N" 
			},
			{
				"x": 3.5777133805,
				"y": -1.0059800476,
				"z": -0.3976597995,
				"element": "O" 
			},
			{
				"x": 1.668255689,
				"y": 0.3071915221,
				"z": -0.6518444388,
				"element": "C" 
			},
			{
				"x": 1.0182066217,
				"y": -0.1244456687,
				"z": 0.520786284,
				"element": "C" 
			},
			{
				"x": 1.6531748534,
				"y": -0.9140607985,
				"z": 1.6350842123,
				"element": "C" 
			},
			{
				"x": 2.7176013836,
				"y": 0.1431448124,
				"z": 2.6733507082,
				"element": "Cl" 
			},
			{
				"x": -0.3246150073,
				"y": 0.2515378721,
				"z": 0.6673381515,
				"element": "C" 
			},
			{
				"x": -0.9960903299,
				"y": 0.9970491929,
				"z": -0.2969310713,
				"element": "C" 
			},
			{
				"x": -0.3205849304,
				"y": 1.4080022922,
				"z": -1.4469101132,
				"element": "C" 
			},
			{
				"x": 1.0175210254,
				"y": 1.067804197,
				"z": -1.6206290332,
				"element": "C" 
			},
			{
				"x": -1.0228590725,
				"y": 2.262656636,
				"z": -2.4721333989,
				"element": "C" 
			},
			{
				"x": -2.3297296572,
				"y": 1.9371763552,
				"z": -2.568919593,
				"element": "F" 
			},
			{
				"x": -0.9627269614,
				"y": 3.5706163604,
				"z": -2.1426952016,
				"element": "F" 
			},
			{
				"x": -0.4714593583,
				"y": 2.1300497104,
				"z": -3.6948504727,
				"element": "F" 
			},
			{
				"x": 2.287979214,
				"y": -1.7140049374,
				"z": 1.2695213053,
				"element": "H" 
			},
			{
				"x": 0.8834087081,
				"y": -1.3063772022,
				"z": 2.298687535,
				"element": "H" 
			},
			{
				"x": -0.8519577769,
				"y": -0.0520841196,
				"z": 1.566436393,
				"element": "H" 
			},
			{
				"x": -2.0402742642,
				"y": 1.2553138856,
				"z": -0.1584234142,
				"element": "H" 
			},
			{
				"x": 1.5655348555,
				"y": 1.3766812241,
				"z": -2.5009363015,
				"element": "H" 
			}
		],
		 "valence_orbital": [ 
			{
				"type": "occ",
				"energy": -0.31698,
				"method": "rhf"
			},
			{
				"type": "occ",
				"energy": -0.31504,
				"method": "rhf"
			},
			{
				"type": "occ",
				"energy": -0.30398,
				"method": "rhf"
			},
			{
				"type": "occ",
				"energy": -0.29777,
				"method": "rhf"
			},
			{
				"type": "occ",
				"energy": -0.29546,
				"method": "rhf"
			},
			{
				"type": "unocc",
				"energy": -0.1078,
				"method": "rhf"
			},
			{
				"type": "unocc",
				"energy": -0.06484,
				"method": "rhf"
			},
			{
				"type": "unocc",
				"energy": -0.02919,
				"method": "rhf"
			},
			{
				"type": "unocc",
				"energy": 0.0181,
				"method": "rhf"
			},
			{
				"type": "unocc",
				"energy": 0.06687,
				"method": "rhf"
			}
		],
		"cosmo_sigma_profile": { 
			"-0.025": 0.0,
			"-0.024": 0.0,
			"-0.023": 0.0,
			"-0.022": 0.0,
			"-0.021": 0.0,
			"-0.02": 0.0,
			"-0.019": 0.0,
			"-0.018": 0.0,
			"-0.017": 0.0,
			"-0.016": 0.0,
			"-0.015": 0.0,
			"-0.014": 0.0,
			"-0.013": 0.0,
			"-0.012": 0.0,
			"-0.011": 0.0998030269901,
			"-0.01": 1.48451431313,
			"-0.009": 4.5669251395,
			"-0.008": 6.9890376362,
			"-0.007": 9.0393364167,
			"-0.006": 10.3598791237,
			"-0.005": 11.375004104,
			"-0.004": 10.7112970215,
			"-0.003": 10.4196607099,
			"-0.002": 16.7553360488,
			"-0.001": 19.7059101108,
			"0.0": 16.7040980271,
			"0.001": 15.5321468077,
			"0.002": 30.6756671688,
			"0.003": 19.2689951027,
			"0.004": 7.70305009892,
			"0.005": 11.6695866725,
			"0.006": 12.2677808488,
			"0.007": 7.3593518615,
			"0.008": 4.44294001025,
			"0.009": 3.30314490187,
			"0.01": 0.512643871794,
			"0.011": 0.0,
			"0.012": 0.0,
			"0.013": 0.0,
			"0.014": 0.0,
			"0.015": 0.0,
			"0.016": 0.0,
			"0.017": 0.0,
			"0.018": 0.0,
			"0.019": 0.0,
			"0.02": 0.0,
			"0.021": 0.0,
			"0.022": 0.0,
			"0.023": 0.0,
			"0.024": 0.0,
			"0.025": 0.0
		}
	}
}
