{
	 "smiles": "N#CC1(CC1)C1=CC2=C(OCO2)C=C1", 
	 "Tm": 347.15, 
	 "num_atms": 23, 
	 "gaussian": { 
		 "optdone": 1, 
		 "sigma_profile": "yes", 
		 "theory": "DFT", 
		 "functional": "B3LYP", 
		 "basiset": "6-31G**", 
		 "properties": { 
			 "R2extent": 3146.509, 
			 "electric_dipole_moment_norm": 4.25860668881, 
			 "electric_quadrupole_moment_norm": 15.2760561615, 
			 "total_energy": -629.717157456, 
			 "HOMO_LUMO_gap": 0.20139, 
			 "cosmo_polarized_energy": -12.08, 
			 "cosmo_cavitation_energy": 28.05, 
			 "cosmo_dispersion_energy": -19.91, 
			 "cosmo_repulsion_energy": 1.58, 
			 "cosmo_total_nonelectrostatic_energy": 9.72, 
			 "SMD_solvation_energy": 6.67 
		},
		"coords": [
			{
				"x": 3.2521719971,
				"y": 1.5096994221,
				"z": -1.2362803799,
				"element": "N" 
			},
			{
				"x": 2.7084807919,
				"y": 1.0136202573,
				"z": -0.336087304,
				"element": "C" 
			},
			{
				"x": 2.0227568871,
				"y": 0.3972044782,
				"z": 0.7833025581,
				"element": "C" 
			},
			{
				"x": 2.5495428402,
				"y": 0.7518157429,
				"z": 2.173165853,
				"element": "C" 
			},
			{
				"x": 2.8311330676,
				"y": -0.6041248884,
				"z": 1.6030442252,
				"element": "C" 
			},
			{
				"x": 0.5419708712,
				"y": 0.1835217907,
				"z": 0.575247777,
				"element": "C" 
			},
			{
				"x": -0.3496468591,
				"y": 1.2516407493,
				"z": 0.8212658578,
				"element": "C" 
			},
			{
				"x": -1.6882308032,
				"y": 1.0222677104,
				"z": 0.5829167957,
				"element": "C" 
			},
			{
				"x": -2.1579208185,
				"y": -0.2068771849,
				"z": 0.1203811324,
				"element": "C" 
			},
			{
				"x": -3.5240902268,
				"y": -0.1635343716,
				"z": -0.0003560932,
				"element": "O" 
			},
			{
				"x": -3.8941950788,
				"y": 1.1979450768,
				"z": 0.2523376919,
				"element": "C" 
			},
			{
				"x": -2.744744815,
				"y": 1.8794048028,
				"z": 0.7688496211,
				"element": "O" 
			},
			{
				"x": -1.3056381361,
				"y": -1.2640638608,
				"z": -0.1270044951,
				"element": "C" 
			},
			{
				"x": 0.0639790857,
				"y": -1.0429184507,
				"z": 0.1065966426,
				"element": "C" 
			},
			{
				"x": 1.8017014947,
				"y": 0.8354165762,
				"z": 2.9549853466,
				"element": "H" 
			},
			{
				"x": 3.3620535256,
				"y": 1.467909462,
				"z": 2.234135412,
				"element": "H" 
			},
			{
				"x": 3.8390116304,
				"y": -0.8267666524,
				"z": 1.2696255918,
				"element": "H" 
			},
			{
				"x": 2.2792809706,
				"y": -1.4510578295,
				"z": 1.9969744557,
				"element": "H" 
			},
			{
				"x": 0.0036850476,
				"y": 2.2114691641,
				"z": 1.181283394,
				"element": "H" 
			},
			{
				"x": -4.6982340299,
				"y": 1.2250670607,
				"z": 0.9940328303,
				"element": "H" 
			},
			{
				"x": -4.2111698688,
				"y": 1.6721394433,
				"z": -0.6871226691,
				"element": "H" 
			},
			{
				"x": -1.6770045288,
				"y": -2.2174161628,
				"z": -0.4849600137,
				"element": "H" 
			},
			{
				"x": 0.7684069554,
				"y": -1.8453623355,
				"z": -0.0879342302,
				"element": "H" 
			}
		],
		 "valence_orbital": [ 
			{
				"type": "occ",
				"energy": -0.31706,
				"method": "rhf"
			},
			{
				"type": "occ",
				"energy": -0.30869,
				"method": "rhf"
			},
			{
				"type": "occ",
				"energy": -0.28627,
				"method": "rhf"
			},
			{
				"type": "occ",
				"energy": -0.25575,
				"method": "rhf"
			},
			{
				"type": "occ",
				"energy": -0.21626,
				"method": "rhf"
			},
			{
				"type": "unocc",
				"energy": -0.01487,
				"method": "rhf"
			},
			{
				"type": "unocc",
				"energy": -0.00652,
				"method": "rhf"
			},
			{
				"type": "unocc",
				"energy": 0.0385,
				"method": "rhf"
			},
			{
				"type": "unocc",
				"energy": 0.04619,
				"method": "rhf"
			},
			{
				"type": "unocc",
				"energy": 0.09058,
				"method": "rhf"
			}
		],
		"cosmo_sigma_profile": { 
			"-0.025": 0.0,
			"-0.024": 0.0,
			"-0.023": 0.0,
			"-0.022": 0.0,
			"-0.021": 0.0,
			"-0.02": 0.0,
			"-0.019": 0.0,
			"-0.018": 0.0,
			"-0.017": 0.0,
			"-0.016": 0.0,
			"-0.015": 0.0,
			"-0.014": 0.0,
			"-0.013": 0.0,
			"-0.012": 0.0,
			"-0.011": 0.0,
			"-0.01": 0.0,
			"-0.009": 0.0446850491473,
			"-0.008": 3.54152147756,
			"-0.007": 12.2885962576,
			"-0.006": 19.2060212627,
			"-0.005": 17.6101297546,
			"-0.004": 17.9933510169,
			"-0.003": 16.4087387568,
			"-0.002": 17.0435321669,
			"-0.001": 14.5006744483,
			"0.0": 11.5071248846,
			"0.001": 12.2597846585,
			"0.002": 16.6650837371,
			"0.003": 15.0156933628,
			"0.004": 9.60516821789,
			"0.005": 5.16154812721,
			"0.006": 4.69393594156,
			"0.007": 4.84308954062,
			"0.008": 6.33067424014,
			"0.009": 6.68753457422,
			"0.01": 5.13143866443,
			"0.011": 2.82777531428,
			"0.012": 2.82190380402,
			"0.013": 2.29527392002,
			"0.014": 0.735904116115,
			"0.015": 0.0,
			"0.016": 0.0,
			"0.017": 0.0,
			"0.018": 0.0,
			"0.019": 0.0,
			"0.02": 0.0,
			"0.021": 0.0,
			"0.022": 0.0,
			"0.023": 0.0,
			"0.024": 0.0,
			"0.025": 0.0
		}
	}
}
