{
	 "smiles": "N1N=C(C=C1C1=CC=CC=C1)C1=CC=CC=C1", 
	 "Tm": 474.65, 
	 "num_atms": 29, 
	 "gaussian": { 
		 "optdone": 1, 
		 "sigma_profile": "yes", 
		 "theory": "DFT", 
		 "functional": "B3LYP", 
		 "basiset": "6-31G**", 
		 "properties": { 
			 "R2extent": 6023.638, 
			 "electric_dipole_moment_norm": 2.70824318332, 
			 "electric_quadrupole_moment_norm": 12.3605279636, 
			 "total_energy": -688.326879715, 
			 "HOMO_LUMO_gap": 0.17944, 
			 "cosmo_polarized_energy": -11.88, 
			 "cosmo_cavitation_energy": 33.43, 
			 "cosmo_dispersion_energy": -24.69, 
			 "cosmo_repulsion_energy": 1.87, 
			 "cosmo_total_nonelectrostatic_energy": 10.62, 
			 "SMD_solvation_energy": 4.42 
		},
		"coords": [
			{
				"x": -0.0480884544,
				"y": -1.6099141553,
				"z": 0.5577007586,
				"element": "N" 
			},
			{
				"x": -1.0921144322,
				"y": -1.1682101736,
				"z": -0.1662341302,
				"element": "N" 
			},
			{
				"x": -1.0304340882,
				"y": 0.168002538,
				"z": -0.0744181121,
				"element": "C" 
			},
			{
				"x": 0.0641483933,
				"y": 0.5648890482,
				"z": 0.7377593869,
				"element": "C" 
			},
			{
				"x": 0.6821691927,
				"y": -0.6105175893,
				"z": 1.1374712416,
				"element": "C" 
			},
			{
				"x": 1.8606945538,
				"y": -0.8642684958,
				"z": 1.9716356267,
				"element": "C" 
			},
			{
				"x": 2.6534646312,
				"y": -2.0102564721,
				"z": 1.784805521,
				"element": "C" 
			},
			{
				"x": 3.7659090614,
				"y": -2.2447608862,
				"z": 2.5912639878,
				"element": "C" 
			},
			{
				"x": 4.1152162129,
				"y": -1.3337867324,
				"z": 3.5897694495,
				"element": "C" 
			},
			{
				"x": 3.340586536,
				"y": -0.1864496037,
				"z": 3.7775627331,
				"element": "C" 
			},
			{
				"x": 2.221531477,
				"y": 0.0446578064,
				"z": 2.9810849899,
				"element": "C" 
			},
			{
				"x": -2.0146102242,
				"y": 1.013641704,
				"z": -0.7717256085,
				"element": "C" 
			},
			{
				"x": -2.9730144098,
				"y": 0.4352601406,
				"z": -1.6214449022,
				"element": "C" 
			},
			{
				"x": -3.9067617611,
				"y": 1.2294953408,
				"z": -2.2818050805,
				"element": "C" 
			},
			{
				"x": -3.9028530135,
				"y": 2.6164404504,
				"z": -2.1102772634,
				"element": "C" 
			},
			{
				"x": -2.9553018963,
				"y": 3.2010069164,
				"z": -1.2686315217,
				"element": "C" 
			},
			{
				"x": -2.0205541313,
				"y": 2.4072311218,
				"z": -0.6048540971,
				"element": "C" 
			},
			{
				"x": 0.0602540643,
				"y": -2.6020172228,
				"z": 0.7005223799,
				"element": "H" 
			},
			{
				"x": 0.3934235018,
				"y": 1.566482327,
				"z": 0.967491746,
				"element": "H" 
			},
			{
				"x": 2.4175233838,
				"y": -2.7066484784,
				"z": 0.9845683728,
				"element": "H" 
			},
			{
				"x": 4.3679444362,
				"y": -3.1343534053,
				"z": 2.4301169582,
				"element": "H" 
			},
			{
				"x": 4.9846443078,
				"y": -1.5148462077,
				"z": 4.2146768012,
				"element": "H" 
			},
			{
				"x": 3.6031222336,
				"y": 0.5262460288,
				"z": 4.5540682555,
				"element": "H" 
			},
			{
				"x": 1.6072591642,
				"y": 0.9240310499,
				"z": 3.1485620533,
				"element": "H" 
			},
			{
				"x": -2.9710472599,
				"y": -0.6413026834,
				"z": -1.7535862817,
				"element": "H" 
			},
			{
				"x": -4.6401411252,
				"y": 0.764766465,
				"z": -2.935114231,
				"element": "H" 
			},
			{
				"x": -4.6311347563,
				"y": 3.2346839727,
				"z": -2.6272872143,
				"element": "H" 
			},
			{
				"x": -2.9433971918,
				"y": 4.2779918984,
				"z": -1.1258246151,
				"element": "H" 
			},
			{
				"x": -1.2941384057,
				"y": 2.8767052978,
				"z": 0.0517427958,
				"element": "H" 
			}
		],
		 "valence_orbital": [ 
			{
				"type": "occ",
				"energy": -0.27611,
				"method": "rhf"
			},
			{
				"type": "occ",
				"energy": -0.261,
				"method": "rhf"
			},
			{
				"type": "occ",
				"energy": -0.24255,
				"method": "rhf"
			},
			{
				"type": "occ",
				"energy": -0.22795,
				"method": "rhf"
			},
			{
				"type": "occ",
				"energy": -0.21168,
				"method": "rhf"
			},
			{
				"type": "unocc",
				"energy": -0.03224,
				"method": "rhf"
			},
			{
				"type": "unocc",
				"energy": -0.01538,
				"method": "rhf"
			},
			{
				"type": "unocc",
				"energy": -0.01112,
				"method": "rhf"
			},
			{
				"type": "unocc",
				"energy": 0.0082,
				"method": "rhf"
			},
			{
				"type": "unocc",
				"energy": 0.05497,
				"method": "rhf"
			}
		],
		"cosmo_sigma_profile": { 
			"-0.025": 0.0,
			"-0.024": 0.0,
			"-0.023": 0.0,
			"-0.022": 0.0,
			"-0.021": 0.0,
			"-0.02": 0.0,
			"-0.019": 0.0,
			"-0.018": 0.0,
			"-0.017": 0.148751317654,
			"-0.016": 1.00818999933,
			"-0.015": 1.10097014668,
			"-0.014": 0.562696681571,
			"-0.013": 1.48479713778,
			"-0.012": 1.08588940036,
			"-0.011": 0.926496662802,
			"-0.01": 1.8667272267,
			"-0.009": 0.787235917325,
			"-0.008": 1.88236805263,
			"-0.007": 4.16278859438,
			"-0.006": 13.8759470243,
			"-0.005": 21.4311074711,
			"-0.004": 22.6588785713,
			"-0.003": 19.1783077479,
			"-0.002": 15.6689211226,
			"-0.001": 13.764207223,
			"0.0": 13.6661223691,
			"0.001": 15.6807823327,
			"0.002": 18.3700460112,
			"0.003": 23.3352866147,
			"0.004": 28.6216892455,
			"0.005": 25.7889051531,
			"0.006": 11.2761658802,
			"0.007": 2.11076238378,
			"0.008": 1.91855476763,
			"0.009": 1.0117540167,
			"0.01": 1.6090572234,
			"0.011": 1.05735023842,
			"0.012": 1.03112285619,
			"0.013": 1.08145140834,
			"0.014": 0.621165756322,
			"0.015": 0.0275240043105,
			"0.016": 0.0,
			"0.017": 0.0,
			"0.018": 0.0,
			"0.019": 0.0,
			"0.02": 0.0,
			"0.021": 0.0,
			"0.022": 0.0,
			"0.023": 0.0,
			"0.024": 0.0,
			"0.025": 0.0
		}
	}
}
