{
	 "smiles": "CC1=CC(=C(I)C=C1)[N+]([O-])=O", 
	 "Tm": 326.15, 
	 "num_atms": 17, 
	 "gaussian": { 
		 "optdone": 1, 
		 "sigma_profile": "no", 
		 "theory": "DFT", 
		 "functional": "B3LYP", 
		 "basiset": "6-31G**", 
		 "properties": { 
			 "R2extent": 2910.0073, 
			 "electric_dipole_moment_norm": 5.11333083029, 
			 "electric_quadrupole_moment_norm": 15.3966583284, 
			 "total_energy": -486.839327143, 
			 "HOMO_LUMO_gap": 0.16209, 
			 "cosmo_polarized_energy": -89339.03, 
			 "cosmo_cavitation_energy": 24.78, 
			 "cosmo_dispersion_energy": -19.53, 
			 "cosmo_repulsion_energy": 1.53, 
			 "cosmo_total_nonelectrostatic_energy": 6.79, 
			 "SMD_solvation_energy": 5.72 
		},
		"coords": [
			{
				"x": 0.041590075,
				"y": -1.9080354035,
				"z": -0.6901577898,
				"element": "C" 
			},
			{
				"x": 0.3123157502,
				"y": -0.6797365494,
				"z": 0.1436755309,
				"element": "C" 
			},
			{
				"x": 1.5569891556,
				"y": -0.4675699688,
				"z": 0.7339801663,
				"element": "C" 
			},
			{
				"x": 1.8196597784,
				"y": 0.6886561344,
				"z": 1.4741047559,
				"element": "C" 
			},
			{
				"x": 0.8328260421,
				"y": 1.6623007599,
				"z": 1.6727737731,
				"element": "C" 
			},
			{
				"x": 1.0362910845,
				"y": 3.3952795026,
				"z": 2.8636291198,
				"element": "I" 
			},
			{
				"x": -0.4252480703,
				"y": 1.4363991237,
				"z": 1.1006661258,
				"element": "C" 
			},
			{
				"x": -0.6750097883,
				"y": 0.2954735743,
				"z": 0.3432286976,
				"element": "C" 
			},
			{
				"x": 3.1899719628,
				"y": 0.8048839243,
				"z": 2.008851294,
				"element": "N" 
			},
			{
				"x": 3.7685059052,
				"y": -0.2442459195,
				"z": 2.2913933216,
				"element": "O" 
			},
			{
				"x": 3.6729923454,
				"y": 1.9277206275,
				"z": 2.1145488935,
				"element": "O" 
			},
			{
				"x": -0.9334905481,
				"y": -2.3435377897,
				"z": -0.4501155005,
				"element": "H" 
			},
			{
				"x": 0.8043920153,
				"y": -2.6743667085,
				"z": -0.5316908559,
				"element": "H" 
			},
			{
				"x": 0.0336451293,
				"y": -1.6632157919,
				"z": -1.7589756421,
				"element": "H" 
			},
			{
				"x": 2.3548739031,
				"y": -1.1940690688,
				"z": 0.632387134,
				"element": "H" 
			},
			{
				"x": -1.2157377261,
				"y": 2.1617679195,
				"z": 1.2555146149,
				"element": "H" 
			},
			{
				"x": -1.6615670143,
				"y": 0.1600956339,
				"z": -0.0923136391,
				"element": "H" 
			}
		],
		 "valence_orbital": [ 
			{
				"type": "occ",
				"energy": -0.30713,
				"method": "rhf"
			},
			{
				"type": "occ",
				"energy": -0.30171,
				"method": "rhf"
			},
			{
				"type": "occ",
				"energy": -0.28155,
				"method": "rhf"
			},
			{
				"type": "occ",
				"energy": -0.26338,
				"method": "rhf"
			},
			{
				"type": "occ",
				"energy": -0.25146,
				"method": "rhf"
			},
			{
				"type": "unocc",
				"energy": -0.08937,
				"method": "rhf"
			},
			{
				"type": "unocc",
				"energy": -0.05116,
				"method": "rhf"
			},
			{
				"type": "unocc",
				"energy": -0.03487,
				"method": "rhf"
			},
			{
				"type": "unocc",
				"energy": -0.01577,
				"method": "rhf"
			},
			{
				"type": "unocc",
				"energy": 0.046,
				"method": "rhf"
			}
		],
		"cosmo_sigma_profile": { 
			"0.0": 0.0,
			"0.0": 0.0,
			"0.0": 0.0,
			"0.0": 0.0,
			"0.0": 0.0,
			"0.0": 0.0,
			"0.0": 0.0,
			"0.0": 0.0,
			"0.0": 0.0,
			"0.0": 0.0,
			"0.0": 0.0,
			"0.0": 0.0,
			"0.0": 0.0,
			"0.0": 0.0,
			"0.0": 0.0,
			"0.0": 0.0,
			"0.0": 0.0,
			"0.0": 0.0,
			"0.0": 0.0,
			"0.0": 0.0,
			"0.0": 0.0,
			"0.0": 0.0,
			"0.0": 0.0,
			"0.0": 0.0,
			"0.0": 0.0,
			"0.0": 0.0,
			"0.0": 0.0,
			"0.0": 0.0,
			"0.0": 0.0,
			"0.0": 0.0,
			"0.0": 0.0,
			"0.0": 0.0,
			"0.0": 0.0,
			"0.0": 0.0,
			"0.0": 0.0,
			"0.0": 0.0,
			"0.0": 0.0,
			"0.0": 0.0,
			"0.0": 0.0,
			"0.0": 0.0,
			"0.0": 0.0,
			"0.0": 0.0,
			"0.0": 0.0,
			"0.0": 0.0,
			"0.0": 0.0,
			"0.0": 0.0,
			"0.0": 0.0,
			"0.0": 0.0,
			"0.0": 0.0,
			"0.0": 0.0,
			"0.0": 0.0
		}
	}
}
