{
	 "smiles": "NC1=C(C=CC2=CC=CC=C2)C=CC2=C1C(=O)C1=CC=CC=C1C2=O", 
	 "Tm": 487.15, 
	 "num_atms": 40, 
	 "gaussian": { 
		 "optdone": 1, 
		 "sigma_profile": "yes", 
		 "theory": "DFT", 
		 "functional": "B3LYP", 
		 "basiset": "6-31G**", 
		 "properties": { 
			 "R2extent": 11548.0284, 
			 "electric_dipole_moment_norm": 2.25898594285, 
			 "electric_quadrupole_moment_norm": 19.6589674772, 
			 "total_energy": -1052.6009997, 
			 "HOMO_LUMO_gap": 0.10913, 
			 "cosmo_polarized_energy": -12.97, 
			 "cosmo_cavitation_energy": 43.77, 
			 "cosmo_dispersion_energy": -31.62, 
			 "cosmo_repulsion_energy": 2.32, 
			 "cosmo_total_nonelectrostatic_energy": 14.47, 
			 "SMD_solvation_energy": 7.38 
		},
		"coords": [
			{
				"x": 1.082543332,
				"y": -1.6373860946,
				"z": -2.1540806459,
				"element": "N" 
			},
			{
				"x": 0.5453368774,
				"y": -1.4902312516,
				"z": -0.913076591,
				"element": "C" 
			},
			{
				"x": 1.2061388089,
				"y": -0.6476827043,
				"z": 0.038635093,
				"element": "C" 
			},
			{
				"x": 2.5106094724,
				"y": -0.0593113611,
				"z": -0.3160005333,
				"element": "C" 
			},
			{
				"x": 2.9916722461,
				"y": 1.1839587352,
				"z": -0.1009999642,
				"element": "C" 
			},
			{
				"x": 2.3368922292,
				"y": 2.3992696004,
				"z": 0.4116483787,
				"element": "C" 
			},
			{
				"x": 0.9538029403,
				"y": 2.6442476094,
				"z": 0.3125293321,
				"element": "C" 
			},
			{
				"x": 0.4055935822,
				"y": 3.832561186,
				"z": 0.7882212257,
				"element": "C" 
			},
			{
				"x": 1.2209543439,
				"y": 4.8056897519,
				"z": 1.3731237749,
				"element": "C" 
			},
			{
				"x": 2.5960810818,
				"y": 4.5855987777,
				"z": 1.4652190953,
				"element": "C" 
			},
			{
				"x": 3.1463081737,
				"y": 3.4006405642,
				"z": 0.980293045,
				"element": "C" 
			},
			{
				"x": 0.6577727029,
				"y": -0.5040058322,
				"z": 1.3120326052,
				"element": "C" 
			},
			{
				"x": -0.5172520029,
				"y": -1.1581824419,
				"z": 1.6839397021,
				"element": "C" 
			},
			{
				"x": -1.165626493,
				"y": -1.9876938262,
				"z": 0.7753734928,
				"element": "C" 
			},
			{
				"x": -0.6532994255,
				"y": -2.1712176744,
				"z": -0.5363620756,
				"element": "C" 
			},
			{
				"x": -1.3640050349,
				"y": -3.0284376204,
				"z": -1.4962618455,
				"element": "C" 
			},
			{
				"x": -0.9699448185,
				"y": -3.208164347,
				"z": -2.6605354048,
				"element": "O" 
			},
			{
				"x": -2.6153028281,
				"y": -3.7092360787,
				"z": -1.0481019281,
				"element": "C" 
			},
			{
				"x": -3.2974053618,
				"y": -4.5352534893,
				"z": -1.9503918071,
				"element": "C" 
			},
			{
				"x": -4.4644987133,
				"y": -5.1856296885,
				"z": -1.5585608375,
				"element": "C" 
			},
			{
				"x": -4.9627137864,
				"y": -5.0180672123,
				"z": -0.2606097895,
				"element": "C" 
			},
			{
				"x": -4.2910595518,
				"y": -4.1989259552,
				"z": 0.6422355917,
				"element": "C" 
			},
			{
				"x": -3.1170930897,
				"y": -3.5419411749,
				"z": 0.2546672427,
				"element": "C" 
			},
			{
				"x": -2.4138014537,
				"y": -2.6675377675,
				"z": 1.2306928393,
				"element": "C" 
			},
			{
				"x": -2.8490755443,
				"y": -2.5094659594,
				"z": 2.3680907039,
				"element": "O" 
			},
			{
				"x": 0.5409961455,
				"y": -2.1806192336,
				"z": -2.8192760873,
				"element": "H" 
			},
			{
				"x": 1.7578889925,
				"y": -0.9620095081,
				"z": -2.4728579599,
				"element": "H" 
			},
			{
				"x": 3.2023518977,
				"y": -0.7624723359,
				"z": -0.7835103628,
				"element": "H" 
			},
			{
				"x": 4.0424250029,
				"y": 1.3296386635,
				"z": -0.3507005023,
				"element": "H" 
			},
			{
				"x": 0.3099417668,
				"y": 1.9055563433,
				"z": -0.1506987562,
				"element": "H" 
			},
			{
				"x": -0.6633286126,
				"y": 4.0031799611,
				"z": 0.6966794871,
				"element": "H" 
			},
			{
				"x": 0.7883812699,
				"y": 5.7302453512,
				"z": 1.7441625393,
				"element": "H" 
			},
			{
				"x": 3.2414383134,
				"y": 5.338749298,
				"z": 1.9082213997,
				"element": "H" 
			},
			{
				"x": 4.2193788857,
				"y": 3.2386041485,
				"z": 1.0462740808,
				"element": "H" 
			},
			{
				"x": 1.1772521505,
				"y": 0.1211535206,
				"z": 2.0313213357,
				"element": "H" 
			},
			{
				"x": -0.9353797465,
				"y": -1.0508105871,
				"z": 2.6778991206,
				"element": "H" 
			},
			{
				"x": -2.8920813582,
				"y": -4.6503237202,
				"z": -2.9495659924,
				"element": "H" 
			},
			{
				"x": -4.9891424132,
				"y": -5.8251217577,
				"z": -2.2625695624,
				"element": "H" 
			},
			{
				"x": -5.8733015064,
				"y": -5.5270654779,
				"z": 0.0417688472,
				"element": "H" 
			},
			{
				"x": -4.652148475,
				"y": -4.0485004111,
				"z": 1.6540317131,
				"element": "H" 
			}
		],
		 "valence_orbital": [ 
			{
				"type": "occ",
				"energy": -0.26122,
				"method": "rhf"
			},
			{
				"type": "occ",
				"energy": -0.25494,
				"method": "rhf"
			},
			{
				"type": "occ",
				"energy": -0.25055,
				"method": "rhf"
			},
			{
				"type": "occ",
				"energy": -0.23106,
				"method": "rhf"
			},
			{
				"type": "occ",
				"energy": -0.20675,
				"method": "rhf"
			},
			{
				"type": "unocc",
				"energy": -0.09762,
				"method": "rhf"
			},
			{
				"type": "unocc",
				"energy": -0.05126,
				"method": "rhf"
			},
			{
				"type": "unocc",
				"energy": -0.04112,
				"method": "rhf"
			},
			{
				"type": "unocc",
				"energy": -0.01173,
				"method": "rhf"
			},
			{
				"type": "unocc",
				"energy": -0.00542,
				"method": "rhf"
			}
		],
		"cosmo_sigma_profile": { 
			"-0.025": 0.0,
			"-0.024": 0.0,
			"-0.023": 0.0,
			"-0.022": 0.0,
			"-0.021": 0.0,
			"-0.02": 0.0,
			"-0.019": 0.0,
			"-0.018": 0.0,
			"-0.017": 0.0,
			"-0.016": 0.0,
			"-0.015": 0.0,
			"-0.014": 0.0,
			"-0.013": 0.41318328034,
			"-0.012": 0.851264963119,
			"-0.011": 1.08161857598,
			"-0.01": 1.22799506269,
			"-0.009": 1.83453448915,
			"-0.008": 1.75597963233,
			"-0.007": 5.6489264714,
			"-0.006": 18.151313665,
			"-0.005": 28.0579786173,
			"-0.004": 26.6489656255,
			"-0.003": 26.756998978,
			"-0.002": 22.6937519678,
			"-0.001": 24.4427824732,
			"0.0": 25.610665654,
			"0.001": 34.3964004314,
			"0.002": 40.0975369462,
			"0.003": 31.0178676067,
			"0.004": 16.2104376128,
			"0.005": 14.7960015006,
			"0.006": 7.96647743928,
			"0.007": 2.94694155756,
			"0.008": 3.55446904528,
			"0.009": 4.13690945952,
			"0.01": 3.65281769623,
			"0.011": 5.29600213187,
			"0.012": 3.2545476587,
			"0.013": 0.0,
			"0.014": 0.0,
			"0.015": 0.0,
			"0.016": 0.0,
			"0.017": 0.0,
			"0.018": 0.0,
			"0.019": 0.0,
			"0.02": 0.0,
			"0.021": 0.0,
			"0.022": 0.0,
			"0.023": 0.0,
			"0.024": 0.0,
			"0.025": 0.0
		}
	}
}
