{
	 "smiles": "CN[C@@H]1CN(C[C@H]1O)C(=O)OC(C)(C)C", 
	 "Tm": 363.15, 
	 "num_atms": 35, 
	 "gaussian": { 
		 "optdone": 1, 
		 "sigma_profile": "yes", 
		 "theory": "DFT", 
		 "functional": "B3LYP", 
		 "basiset": "6-31G**", 
		 "properties": { 
			 "R2extent": 4673.3194, 
			 "electric_dipole_moment_norm": 2.90004496517, 
			 "electric_quadrupole_moment_norm": 8.93807355474, 
			 "total_energy": -728.311562945, 
			 "HOMO_LUMO_gap": 0.28385, 
			 "cosmo_polarized_energy": -14.15, 
			 "cosmo_cavitation_energy": 35.92, 
			 "cosmo_dispersion_energy": -24.96, 
			 "cosmo_repulsion_energy": 1.99, 
			 "cosmo_total_nonelectrostatic_energy": 12.95, 
			 "SMD_solvation_energy": 4.43 
		},
		"coords": [
			{
				"x": 1.4324105287,
				"y": -3.5751990291,
				"z": 0.918585725,
				"element": "C" 
			},
			{
				"x": 1.2141544853,
				"y": -2.5426764497,
				"z": 1.9267202483,
				"element": "N" 
			},
			{
				"x": 0.1878569543,
				"y": -1.5775223265,
				"z": 1.5819335086,
				"element": "C" 
			},
			{
				"x": 0.6198405681,
				"y": -0.5399925376,
				"z": 0.5321656013,
				"element": "C" 
			},
			{
				"x": -0.2286755604,
				"y": 0.6161958035,
				"z": 0.8513809474,
				"element": "N" 
			},
			{
				"x": -0.8857118428,
				"y": 0.5118568376,
				"z": 2.1518510305,
				"element": "C" 
			},
			{
				"x": -0.1875272733,
				"y": -0.7005262953,
				"z": 2.7883948837,
				"element": "C" 
			},
			{
				"x": -0.9279398236,
				"y": -1.3714632697,
				"z": 3.7899714217,
				"element": "O" 
			},
			{
				"x": -0.3758233976,
				"y": 1.7365104566,
				"z": 0.088423515,
				"element": "C" 
			},
			{
				"x": -1.0834681635,
				"y": 2.6816657745,
				"z": 0.4105233887,
				"element": "O" 
			},
			{
				"x": 0.3627417365,
				"y": 1.6343987367,
				"z": -1.0463722847,
				"element": "O" 
			},
			{
				"x": 0.3632321019,
				"y": 2.7154090751,
				"z": -2.042162032,
				"element": "C" 
			},
			{
				"x": 1.3041206308,
				"y": 2.1734045754,
				"z": -3.1216936729,
				"element": "C" 
			},
			{
				"x": 0.928804189,
				"y": 3.9987093092,
				"z": -1.4236778601,
				"element": "C" 
			},
			{
				"x": -1.048958718,
				"y": 2.9159507294,
				"z": -2.6032389507,
				"element": "C" 
			},
			{
				"x": 0.5154645906,
				"y": -4.1135001004,
				"z": 0.6156307573,
				"element": "H" 
			},
			{
				"x": 2.149269906,
				"y": -4.3086234872,
				"z": 1.2988545989,
				"element": "H" 
			},
			{
				"x": 1.8670539614,
				"y": -3.1311851463,
				"z": 0.0164613483,
				"element": "H" 
			},
			{
				"x": 0.9433917225,
				"y": -2.9772233143,
				"z": 2.8062449529,
				"element": "H" 
			},
			{
				"x": -0.7465198035,
				"y": -2.0610520126,
				"z": 1.2219002391,
				"element": "H" 
			},
			{
				"x": 1.6862420055,
				"y": -0.3094206196,
				"z": 0.655565735,
				"element": "H" 
			},
			{
				"x": 0.4582517076,
				"y": -0.8642953774,
				"z": -0.4984436081,
				"element": "H" 
			},
			{
				"x": -0.7726556338,
				"y": 1.4330390878,
				"z": 2.7285260051,
				"element": "H" 
			},
			{
				"x": -1.965589858,
				"y": 0.3244960851,
				"z": 2.0434461773,
				"element": "H" 
			},
			{
				"x": 0.7407593754,
				"y": -0.3858764516,
				"z": 3.2779439756,
				"element": "H" 
			},
			{
				"x": -1.7786940963,
				"y": -1.6289349577,
				"z": 3.4073606359,
				"element": "H" 
			},
			{
				"x": 1.3976899388,
				"y": 2.8967500055,
				"z": -3.937209649,
				"element": "H" 
			},
			{
				"x": 0.9203170173,
				"y": 1.2352195032,
				"z": -3.5333492318,
				"element": "H" 
			},
			{
				"x": 2.2994008523,
				"y": 1.986630098,
				"z": -2.7079162231,
				"element": "H" 
			},
			{
				"x": 1.9204010782,
				"y": 3.8101539584,
				"z": -0.9998291873,
				"element": "H" 
			},
			{
				"x": 0.2729789495,
				"y": 4.3730264727,
				"z": -0.6374530586,
				"element": "H" 
			},
			{
				"x": 1.0307460064,
				"y": 4.7666971083,
				"z": -2.197493318,
				"element": "H" 
			},
			{
				"x": -1.7263983137,
				"y": 3.279856071,
				"z": -1.8305583816,
				"element": "H" 
			},
			{
				"x": -1.0201224421,
				"y": 3.6425845948,
				"z": -3.4218544251,
				"element": "H" 
			},
			{
				"x": -1.4367433794,
				"y": 1.9724370924,
				"z": -3.0008328128,
				"element": "H" 
			}
		],
		 "valence_orbital": [ 
			{
				"type": "occ",
				"energy": -0.28212,
				"method": "rhf"
			},
			{
				"type": "occ",
				"energy": -0.27678,
				"method": "rhf"
			},
			{
				"type": "occ",
				"energy": -0.256,
				"method": "rhf"
			},
			{
				"type": "occ",
				"energy": -0.23472,
				"method": "rhf"
			},
			{
				"type": "occ",
				"energy": -0.23018,
				"method": "rhf"
			},
			{
				"type": "unocc",
				"energy": 0.05367,
				"method": "rhf"
			},
			{
				"type": "unocc",
				"energy": 0.06425,
				"method": "rhf"
			},
			{
				"type": "unocc",
				"energy": 0.08442,
				"method": "rhf"
			},
			{
				"type": "unocc",
				"energy": 0.09085,
				"method": "rhf"
			},
			{
				"type": "unocc",
				"energy": 0.10386,
				"method": "rhf"
			}
		],
		"cosmo_sigma_profile": { 
			"-0.025": 0.0,
			"-0.024": 0.0,
			"-0.023": 0.0,
			"-0.022": 0.0,
			"-0.021": 0.0,
			"-0.02": 0.0,
			"-0.019": 0.0,
			"-0.018": 0.0,
			"-0.017": 0.0,
			"-0.016": 0.160181042453,
			"-0.015": 1.21896323454,
			"-0.014": 0.685797487338,
			"-0.013": 1.23709734352,
			"-0.012": 1.38525025902,
			"-0.011": 1.17113524873,
			"-0.01": 0.995348286783,
			"-0.009": 2.11762801053,
			"-0.008": 1.77282547245,
			"-0.007": 2.24750958155,
			"-0.006": 3.27317046894,
			"-0.005": 7.33538702283,
			"-0.004": 25.2338597238,
			"-0.003": 32.8490650041,
			"-0.002": 34.1266776442,
			"-0.001": 31.8720780912,
			"0.0": 36.6146249921,
			"0.001": 26.8169078042,
			"0.002": 10.2148158585,
			"0.003": 6.84763332696,
			"0.004": 7.31443319447,
			"0.005": 5.51393245493,
			"0.006": 4.68421441609,
			"0.007": 4.78183217366,
			"0.008": 3.72914407503,
			"0.009": 2.76931111906,
			"0.01": 3.89746163219,
			"0.011": 3.3218245185,
			"0.012": 2.98900137361,
			"0.013": 5.00346208537,
			"0.014": 3.66582081062,
			"0.015": 0.816774540222,
			"0.016": 0.378023890686,
			"0.017": 0.3644769809,
			"0.018": 0.0,
			"0.019": 0.0,
			"0.02": 0.0,
			"0.021": 0.0,
			"0.022": 0.0,
			"0.023": 0.0,
			"0.024": 0.0,
			"0.025": 0.0
		}
	}
}
