{
	 "smiles": "CNS(=O)(=O)C1=C(C)ON=C1C", 
	 "Tm": 344.15, 
	 "num_atms": 22, 
	 "gaussian": { 
		 "optdone": 1, 
		 "sigma_profile": "yes", 
		 "theory": "DFT", 
		 "functional": "B3LYP", 
		 "basiset": "6-31G**", 
		 "properties": { 
			 "R2extent": 2605.1879, 
			 "electric_dipole_moment_norm": 3.4336484459, 
			 "electric_quadrupole_moment_norm": 16.8145502069, 
			 "total_energy": -967.914358194, 
			 "HOMO_LUMO_gap": 0.24051, 
			 "cosmo_polarized_energy": -14.14, 
			 "cosmo_cavitation_energy": 26.94, 
			 "cosmo_dispersion_energy": -19.66, 
			 "cosmo_repulsion_energy": 1.53, 
			 "cosmo_total_nonelectrostatic_energy": 8.82, 
			 "SMD_solvation_energy": 4.37 
		},
		"coords": [
			{
				"x": 2.8768965562,
				"y": -1.8305775694,
				"z": 1.83373028,
				"element": "C" 
			},
			{
				"x": 1.9068050404,
				"y": -1.994429075,
				"z": 0.7428186315,
				"element": "N" 
			},
			{
				"x": 0.2817980775,
				"y": -1.6954267775,
				"z": 1.1038522381,
				"element": "S" 
			},
			{
				"x": -0.0082493387,
				"y": -1.9895023965,
				"z": 2.5135401579,
				"element": "O" 
			},
			{
				"x": -0.4634297182,
				"y": -2.3592898983,
				"z": 0.031538608,
				"element": "O" 
			},
			{
				"x": 0.1851813931,
				"y": 0.0484249956,
				"z": 0.8903681456,
				"element": "C" 
			},
			{
				"x": -0.1480536866,
				"y": 1.0055724605,
				"z": 1.8163259514,
				"element": "C" 
			},
			{
				"x": -0.5010486549,
				"y": 0.9929754312,
				"z": 3.2617378267,
				"element": "C" 
			},
			{
				"x": -0.1463144111,
				"y": 2.2006340047,
				"z": 1.207007645,
				"element": "O" 
			},
			{
				"x": 0.1861487132,
				"y": 2.0503491603,
				"z": -0.1560953511,
				"element": "N" 
			},
			{
				"x": 0.3771294004,
				"y": 0.7676978922,
				"z": -0.3387811192,
				"element": "C" 
			},
			{
				"x": 0.7416643612,
				"y": 0.2333544056,
				"z": -1.6856505829,
				"element": "C" 
			},
			{
				"x": 2.8806541775,
				"y": -0.7854381842,
				"z": 2.1538507268,
				"element": "H" 
			},
			{
				"x": 2.6690345006,
				"y": -2.4663621598,
				"z": 2.7010246571,
				"element": "H" 
			},
			{
				"x": 3.8676517391,
				"y": -2.0626013742,
				"z": 1.4363909655,
				"element": "H" 
			},
			{
				"x": 1.9404720492,
				"y": -2.9061579505,
				"z": 0.2913125438,
				"element": "H" 
			},
			{
				"x": -0.4196592977,
				"y": -0.0182732607,
				"z": 3.6572396611,
				"element": "H" 
			},
			{
				"x": 0.1595555721,
				"y": 1.6670865948,
				"z": 3.8161454278,
				"element": "H" 
			},
			{
				"x": -1.5269701758,
				"y": 1.3510748619,
				"z": 3.3976815688,
				"element": "H" 
			},
			{
				"x": 1.7107290824,
				"y": -0.2726438309,
				"z": -1.641953404,
				"element": "H" 
			},
			{
				"x": 0.7900380376,
				"y": 1.0506630669,
				"z": -2.4071211077,
				"element": "H" 
			},
			{
				"x": 0.0022665825,
				"y": -0.5029303965,
				"z": -2.0128634699,
				"element": "H" 
			}
		],
		 "valence_orbital": [ 
			{
				"type": "occ",
				"energy": -0.31693,
				"method": "rhf"
			},
			{
				"type": "occ",
				"energy": -0.30535,
				"method": "rhf"
			},
			{
				"type": "occ",
				"energy": -0.30343,
				"method": "rhf"
			},
			{
				"type": "occ",
				"energy": -0.28706,
				"method": "rhf"
			},
			{
				"type": "occ",
				"energy": -0.2691,
				"method": "rhf"
			},
			{
				"type": "unocc",
				"energy": -0.02859,
				"method": "rhf"
			},
			{
				"type": "unocc",
				"energy": 0.00999,
				"method": "rhf"
			},
			{
				"type": "unocc",
				"energy": 0.05982,
				"method": "rhf"
			},
			{
				"type": "unocc",
				"energy": 0.0714,
				"method": "rhf"
			},
			{
				"type": "unocc",
				"energy": 0.07982,
				"method": "rhf"
			}
		],
		"cosmo_sigma_profile": { 
			"-0.025": 0.0,
			"-0.024": 0.0,
			"-0.023": 0.0,
			"-0.022": 0.0,
			"-0.021": 0.0,
			"-0.02": 0.0,
			"-0.019": 0.0,
			"-0.018": 0.0,
			"-0.017": 0.0,
			"-0.016": 0.0,
			"-0.015": 0.685877304601,
			"-0.014": 1.30886166112,
			"-0.013": 0.812872911433,
			"-0.012": 1.20054223318,
			"-0.011": 1.16363313379,
			"-0.01": 0.826032999863,
			"-0.009": 1.29942706701,
			"-0.008": 1.09890769539,
			"-0.007": 5.32771863758,
			"-0.006": 10.8416100643,
			"-0.005": 16.5973464008,
			"-0.004": 19.7834217728,
			"-0.003": 23.6626949449,
			"-0.002": 26.469631975,
			"-0.001": 14.2386824559,
			"0.0": 9.25591831362,
			"0.001": 7.82343858469,
			"0.002": 7.60092105686,
			"0.003": 6.80992658906,
			"0.004": 6.18858410675,
			"0.005": 5.56150415108,
			"0.006": 5.79267224674,
			"0.007": 8.01342591062,
			"0.008": 5.86104597591,
			"0.009": 5.0165782444,
			"0.01": 7.71985458255,
			"0.011": 8.37002676588,
			"0.012": 2.80256809091,
			"0.013": 1.08482743114,
			"0.014": 0.253537793992,
			"0.015": 0.0,
			"0.016": 0.0,
			"0.017": 0.0,
			"0.018": 0.0,
			"0.019": 0.0,
			"0.02": 0.0,
			"0.021": 0.0,
			"0.022": 0.0,
			"0.023": 0.0,
			"0.024": 0.0,
			"0.025": 0.0
		}
	}
}
