{
	 "smiles": "[O-][N+](=O)C1=CC(C=O)=C(Cl)C=C1", 
	 "Tm": 352.15, 
	 "num_atms": 16, 
	 "gaussian": { 
		 "optdone": 1, 
		 "sigma_profile": "yes", 
		 "theory": "DFT", 
		 "functional": "B3LYP", 
		 "basiset": "6-31G**", 
		 "properties": { 
			 "R2extent": 2947.6347, 
			 "electric_dipole_moment_norm": 4.31063582433, 
			 "electric_quadrupole_moment_norm": 7.5993613508, 
			 "total_energy": -1009.65388324, 
			 "HOMO_LUMO_gap": 0.17205, 
			 "cosmo_polarized_energy": -10.36, 
			 "cosmo_cavitation_energy": 23.82, 
			 "cosmo_dispersion_energy": -17.48, 
			 "cosmo_repulsion_energy": 1.38, 
			 "cosmo_total_nonelectrostatic_energy": 7.71, 
			 "SMD_solvation_energy": 7.26 
		},
		"coords": [
			{
				"x": -0.6916436786,
				"y": -2.6964334214,
				"z": -1.0939385916,
				"element": "O" 
			},
			{
				"x": 0.4110701643,
				"y": -2.1576169513,
				"z": -1.0090329769,
				"element": "N" 
			},
			{
				"x": 1.4590527269,
				"y": -2.6135317747,
				"z": -1.4590422845,
				"element": "O" 
			},
			{
				"x": 0.4774939508,
				"y": -0.8618423833,
				"z": -0.3098318794,
				"element": "C" 
			},
			{
				"x": 1.6993477442,
				"y": -0.2189190099,
				"z": -0.1900450716,
				"element": "C" 
			},
			{
				"x": 1.7739286793,
				"y": 1.0134440972,
				"z": 0.4728700488,
				"element": "C" 
			},
			{
				"x": 3.1126679442,
				"y": 1.6663021193,
				"z": 0.5758103593,
				"element": "C" 
			},
			{
				"x": 4.1190859965,
				"y": 1.170000396,
				"z": 0.1104602992,
				"element": "O" 
			},
			{
				"x": 0.5923150063,
				"y": 1.5626520736,
				"z": 1.0004454346,
				"element": "C" 
			},
			{
				"x": 0.6057820714,
				"y": 3.0991789872,
				"z": 1.8421212166,
				"element": "Cl" 
			},
			{
				"x": -0.6347418175,
				"y": 0.9049522026,
				"z": 0.8735233323,
				"element": "C" 
			},
			{
				"x": -0.6963025405,
				"y": -0.3170570835,
				"z": 0.2138053958,
				"element": "C" 
			},
			{
				"x": 2.6041653439,
				"y": -0.6516309945,
				"z": -0.6006846742,
				"element": "H" 
			},
			{
				"x": 3.1408010598,
				"y": 2.6361844974,
				"z": 1.1030535582,
				"element": "H" 
			},
			{
				"x": -1.5298659099,
				"y": 1.3521457004,
				"z": 1.2902811481,
				"element": "H" 
			},
			{
				"x": -1.6313567412,
				"y": -0.851328455,
				"z": 0.0989046853,
				"element": "H" 
			}
		],
		 "valence_orbital": [ 
			{
				"type": "occ",
				"energy": -0.32184,
				"method": "rhf"
			},
			{
				"type": "occ",
				"energy": -0.30561,
				"method": "rhf"
			},
			{
				"type": "occ",
				"energy": -0.30216,
				"method": "rhf"
			},
			{
				"type": "occ",
				"energy": -0.2913,
				"method": "rhf"
			},
			{
				"type": "occ",
				"energy": -0.28006,
				"method": "rhf"
			},
			{
				"type": "unocc",
				"energy": -0.10801,
				"method": "rhf"
			},
			{
				"type": "unocc",
				"energy": -0.09241,
				"method": "rhf"
			},
			{
				"type": "unocc",
				"energy": -0.03168,
				"method": "rhf"
			},
			{
				"type": "unocc",
				"energy": -0.0018,
				"method": "rhf"
			},
			{
				"type": "unocc",
				"energy": 0.0145,
				"method": "rhf"
			}
		],
		"cosmo_sigma_profile": { 
			"-0.025": 0.0,
			"-0.024": 0.0,
			"-0.023": 0.0,
			"-0.022": 0.0,
			"-0.021": 0.0,
			"-0.02": 0.0,
			"-0.019": 0.0,
			"-0.018": 0.0,
			"-0.017": 0.0,
			"-0.016": 0.0,
			"-0.015": 0.0,
			"-0.014": 0.0,
			"-0.013": 0.0,
			"-0.012": 0.0,
			"-0.011": 0.0,
			"-0.01": 0.200055528095,
			"-0.009": 3.24939399794,
			"-0.008": 5.07444826596,
			"-0.007": 6.9690225223,
			"-0.006": 9.53147544376,
			"-0.005": 10.9497867756,
			"-0.004": 12.4849874978,
			"-0.003": 18.6538706846,
			"-0.002": 24.4583803368,
			"-0.001": 17.1632393488,
			"0.0": 10.1391791044,
			"0.001": 9.98826863686,
			"0.002": 9.70113580151,
			"0.003": 9.47847093202,
			"0.004": 3.98740532132,
			"0.005": 4.48073690279,
			"0.006": 6.49349045654,
			"0.007": 11.0068588343,
			"0.008": 6.88263797805,
			"0.009": 6.58396291575,
			"0.01": 4.66645241472,
			"0.011": 2.19373104589,
			"0.012": 0.500162709197,
			"0.013": 0.0,
			"0.014": 0.0,
			"0.015": 0.0,
			"0.016": 0.0,
			"0.017": 0.0,
			"0.018": 0.0,
			"0.019": 0.0,
			"0.02": 0.0,
			"0.021": 0.0,
			"0.022": 0.0,
			"0.023": 0.0,
			"0.024": 0.0,
			"0.025": 0.0
		}
	}
}
