{
	 "smiles": "OC(=O)C1=CC2=C(C=C1)C(=O)N(C2=O)C1=CC=C(F)C=C1", 
	 "Tm": 569.15, 
	 "num_atms": 29, 
	 "gaussian": { 
		 "optdone": 1, 
		 "sigma_profile": "yes", 
		 "theory": "DFT", 
		 "functional": "B3LYP", 
		 "basiset": "6-31G**", 
		 "properties": { 
			 "R2extent": 8493.6514, 
			 "electric_dipole_moment_norm": 3.92650278238, 
			 "electric_quadrupole_moment_norm": 26.0083318056, 
			 "total_energy": -1031.9308278, 
			 "HOMO_LUMO_gap": 0.13435, 
			 "cosmo_polarized_energy": -21.12, 
			 "cosmo_cavitation_energy": 36.08, 
			 "cosmo_dispersion_energy": -25.86, 
			 "cosmo_repulsion_energy": 1.89, 
			 "cosmo_total_nonelectrostatic_energy": 12.12, 
			 "SMD_solvation_energy": 8.94 
		},
		"coords": [
			{
				"x": 1.7997337338,
				"y": -0.3480028901,
				"z": -5.6694530549,
				"element": "O" 
			},
			{
				"x": 1.2814734731,
				"y": -1.0398064144,
				"z": -4.6224501096,
				"element": "C" 
			},
			{
				"x": 1.0016365536,
				"y": -2.2078072175,
				"z": -4.7410151502,
				"element": "O" 
			},
			{
				"x": 1.0778397728,
				"y": -0.2817266694,
				"z": -3.338921895,
				"element": "C" 
			},
			{
				"x": 1.0030254237,
				"y": -1.0357109977,
				"z": -2.1538708158,
				"element": "C" 
			},
			{
				"x": 0.8049395864,
				"y": -0.3480708967,
				"z": -0.9692452601,
				"element": "C" 
			},
			{
				"x": 0.6605193133,
				"y": 1.0385217539,
				"z": -0.9419759329,
				"element": "C" 
			},
			{
				"x": 0.7046461879,
				"y": 1.7965265565,
				"z": -2.1019131114,
				"element": "C" 
			},
			{
				"x": 0.9182618943,
				"y": 1.1151804277,
				"z": -3.3059150663,
				"element": "C" 
			},
			{
				"x": 0.455836319,
				"y": 1.4686230582,
				"z": 0.4716949035,
				"element": "C" 
			},
			{
				"x": 0.2991641405,
				"y": 2.5954276103,
				"z": 0.8919902079,
				"element": "O" 
			},
			{
				"x": 0.4874530444,
				"y": 0.2818018184,
				"z": 1.243241148,
				"element": "N" 
			},
			{
				"x": 0.6979649454,
				"y": -0.8614158526,
				"z": 0.427800809,
				"element": "C" 
			},
			{
				"x": 0.7684993363,
				"y": -2.0082139045,
				"z": 0.8116986405,
				"element": "O" 
			},
			{
				"x": 0.328807455,
				"y": 0.2391205752,
				"z": 2.6618938173,
				"element": "C" 
			},
			{
				"x": -0.4286699256,
				"y": -0.7817839718,
				"z": 3.2493574116,
				"element": "C" 
			},
			{
				"x": -0.5777424414,
				"y": -0.8287631661,
				"z": 4.6335516347,
				"element": "C" 
			},
			{
				"x": 0.0212758556,
				"y": 0.1561687496,
				"z": 5.4102558399,
				"element": "C" 
			},
			{
				"x": -0.1285558634,
				"y": 0.1159299851,
				"z": 6.7490743625,
				"element": "F" 
			},
			{
				"x": 0.7704585173,
				"y": 1.1816526789,
				"z": 4.8451336309,
				"element": "C" 
			},
			{
				"x": 0.9309833036,
				"y": 1.2181079747,
				"z": 3.4619104067,
				"element": "C" 
			},
			{
				"x": 2.1351666591,
				"y": 0.5113182741,
				"z": -5.3788397101,
				"element": "H" 
			},
			{
				"x": 1.0988843085,
				"y": -2.1151694092,
				"z": -2.1888883482,
				"element": "H" 
			},
			{
				"x": 0.5716586864,
				"y": 2.8727834424,
				"z": -2.0726028168,
				"element": "H" 
			},
			{
				"x": 0.9208403724,
				"y": 1.6843102977,
				"z": -4.2319491047,
				"element": "H" 
			},
			{
				"x": -0.8853135649,
				"y": -1.5432570781,
				"z": 2.6305179926,
				"element": "H" 
			},
			{
				"x": -1.1544440494,
				"y": -1.6131125237,
				"z": 5.1108629718,
				"element": "H" 
			},
			{
				"x": 1.2222696342,
				"y": 1.9322047963,
				"z": 5.4840170513,
				"element": "H" 
			},
			{
				"x": 1.5077873282,
				"y": 2.0120629929,
				"z": 3.0055395478,
				"element": "H" 
			}
		],
		 "valence_orbital": [ 
			{
				"type": "occ",
				"energy": -0.30119,
				"method": "rhf"
			},
			{
				"type": "occ",
				"energy": -0.28854,
				"method": "rhf"
			},
			{
				"type": "occ",
				"energy": -0.28379,
				"method": "rhf"
			},
			{
				"type": "occ",
				"energy": -0.26901,
				"method": "rhf"
			},
			{
				"type": "occ",
				"energy": -0.24167,
				"method": "rhf"
			},
			{
				"type": "unocc",
				"energy": -0.10732,
				"method": "rhf"
			},
			{
				"type": "unocc",
				"energy": -0.07177,
				"method": "rhf"
			},
			{
				"type": "unocc",
				"energy": -0.02797,
				"method": "rhf"
			},
			{
				"type": "unocc",
				"energy": -0.0192,
				"method": "rhf"
			},
			{
				"type": "unocc",
				"energy": -0.01064,
				"method": "rhf"
			}
		],
		"cosmo_sigma_profile": { 
			"-0.025": 0.0,
			"-0.024": 0.0,
			"-0.023": 0.0,
			"-0.022": 0.0,
			"-0.021": 0.0,
			"-0.02": 0.16052091719,
			"-0.019": 0.818598225517,
			"-0.018": 1.07018361672,
			"-0.017": 1.05430128397,
			"-0.016": 1.6062446657,
			"-0.015": 0.352285079917,
			"-0.014": 1.07824237284,
			"-0.013": 1.13799915388,
			"-0.012": 1.44521290361,
			"-0.011": 1.33271649226,
			"-0.01": 1.41529488812,
			"-0.009": 3.24688031648,
			"-0.008": 6.35299972605,
			"-0.007": 13.2873186363,
			"-0.006": 15.9793280652,
			"-0.005": 18.0912981761,
			"-0.004": 13.8672893812,
			"-0.003": 17.3674830015,
			"-0.002": 19.220865801,
			"-0.001": 22.8536338695,
			"0.0": 21.929641997,
			"0.001": 16.7320283075,
			"0.002": 17.1619123469,
			"0.003": 17.0045713897,
			"0.004": 16.727632822,
			"0.005": 8.09516290813,
			"0.006": 5.49749263012,
			"0.007": 5.40164559267,
			"0.008": 8.27620290135,
			"0.009": 8.19564959716,
			"0.01": 13.0787543553,
			"0.011": 9.38193262937,
			"0.012": 2.55479251883,
			"0.013": 0.310359166847,
			"0.014": 0.0,
			"0.015": 0.0,
			"0.016": 0.0,
			"0.017": 0.0,
			"0.018": 0.0,
			"0.019": 0.0,
			"0.02": 0.0,
			"0.021": 0.0,
			"0.022": 0.0,
			"0.023": 0.0,
			"0.024": 0.0,
			"0.025": 0.0
		}
	}
}
