{
	 "smiles": "OCCN1CCN(CC1)C1=NC2=C(S1)C=C(Cl)C=C2", 
	 "Tm": 402.15, 
	 "num_atms": 35, 
	 "gaussian": { 
		 "optdone": 1, 
		 "sigma_profile": "yes", 
		 "theory": "DFT", 
		 "functional": "B3LYP", 
		 "basiset": "6-31G**", 
		 "properties": { 
			 "R2extent": 12751.4208, 
			 "electric_dipole_moment_norm": 5.27917655511, 
			 "electric_quadrupole_moment_norm": 18.8551018679, 
			 "total_energy": -1602.86540112, 
			 "HOMO_LUMO_gap": 0.18603, 
			 "cosmo_polarized_energy": -14.01, 
			 "cosmo_cavitation_energy": 40.21, 
			 "cosmo_dispersion_energy": -30.22, 
			 "cosmo_repulsion_energy": 2.3, 
			 "cosmo_total_nonelectrostatic_energy": 12.28, 
			 "SMD_solvation_energy": 1.4 
		},
		"coords": [
			{
				"x": 2.4433413359,
				"y": 2.9899061725,
				"z": -4.2069715442,
				"element": "O" 
			},
			{
				"x": 1.3151229544,
				"y": 2.2286780239,
				"z": -3.7989556922,
				"element": "C" 
			},
			{
				"x": 1.730286128,
				"y": 1.4478240912,
				"z": -2.5539937276,
				"element": "C" 
			},
			{
				"x": 0.6406945423,
				"y": 0.6258497563,
				"z": -2.0345817608,
				"element": "N" 
			},
			{
				"x": 1.1193210729,
				"y": -0.5806464427,
				"z": -1.3516957449,
				"element": "C" 
			},
			{
				"x": 0.0029394842,
				"y": -1.2445729754,
				"z": -0.5530591384,
				"element": "C" 
			},
			{
				"x": -0.4627567518,
				"y": -0.3256452114,
				"z": 0.4951301836,
				"element": "N" 
			},
			{
				"x": -0.3226737007,
				"y": 1.1070118371,
				"z": 0.2438307331,
				"element": "C" 
			},
			{
				"x": -0.3769604165,
				"y": 1.3629271424,
				"z": -1.2680879477,
				"element": "C" 
			},
			{
				"x": -0.8853977416,
				"y": -0.8272638396,
				"z": 1.6810066877,
				"element": "C" 
			},
			{
				"x": -1.0025278998,
				"y": -2.0988594558,
				"z": 1.9426883059,
				"element": "N" 
			},
			{
				"x": -1.4567958633,
				"y": -2.2994587559,
				"z": 3.2319914654,
				"element": "C" 
			},
			{
				"x": -1.7004744941,
				"y": -1.130987218,
				"z": 3.9960293043,
				"element": "C" 
			},
			{
				"x": -1.3223684473,
				"y": 0.2897054564,
				"z": 3.0265015937,
				"element": "S" 
			},
			{
				"x": -2.1657808963,
				"y": -1.181936618,
				"z": 5.3073170762,
				"element": "C" 
			},
			{
				"x": -2.3870040753,
				"y": -2.4435010434,
				"z": 5.8580587363,
				"element": "C" 
			},
			{
				"x": -2.9729547238,
				"y": -2.5573550915,
				"z": 7.5153618433,
				"element": "Cl" 
			},
			{
				"x": -2.1565176721,
				"y": -3.6188299389,
				"z": 5.1327103056,
				"element": "C" 
			},
			{
				"x": -1.6930756259,
				"y": -3.5487200763,
				"z": 3.8221548602,
				"element": "C" 
			},
			{
				"x": 2.2109810815,
				"y": 3.4674007781,
				"z": -5.0121814967,
				"element": "H" 
			},
			{
				"x": 0.4532666051,
				"y": 2.8782008009,
				"z": -3.5743219312,
				"element": "H" 
			},
			{
				"x": 0.9923207344,
				"y": 1.5146185977,
				"z": -4.5715326609,
				"element": "H" 
			},
			{
				"x": 2.135570389,
				"y": 2.1533617116,
				"z": -1.8057139348,
				"element": "H" 
			},
			{
				"x": 2.5569947918,
				"y": 0.7885069043,
				"z": -2.8382514411,
				"element": "H" 
			},
			{
				"x": 1.493676811,
				"y": -1.2904047107,
				"z": -2.0992671858,
				"element": "H" 
			},
			{
				"x": 1.9586574825,
				"y": -0.368062867,
				"z": -0.6634076832,
				"element": "H" 
			},
			{
				"x": 0.3616177257,
				"y": -2.155752142,
				"z": -0.0711976578,
				"element": "H" 
			},
			{
				"x": -0.8276439255,
				"y": -1.5242623562,
				"z": -1.2151962215,
				"element": "H" 
			},
			{
				"x": -1.1477440741,
				"y": 1.6444669076,
				"z": 0.725260871,
				"element": "H" 
			},
			{
				"x": 0.6159701795,
				"y": 1.4935077665,
				"z": 0.6690095513,
				"element": "H" 
			},
			{
				"x": -0.2562084101,
				"y": 2.4368430495,
				"z": -1.4398967524,
				"element": "H" 
			},
			{
				"x": -1.3814748801,
				"y": 1.0970783202,
				"z": -1.6240602155,
				"element": "H" 
			},
			{
				"x": -2.3513124636,
				"y": -0.2857934245,
				"z": 5.8879858016,
				"element": "H" 
			},
			{
				"x": -2.3421473806,
				"y": -4.5797424254,
				"z": 5.5992215522,
				"element": "H" 
			},
			{
				"x": -1.5117418758,
				"y": -4.4504927236,
				"z": 3.2470138654,
				"element": "H" 
			}
		],
		 "valence_orbital": [ 
			{
				"type": "occ",
				"energy": -0.27399,
				"method": "rhf"
			},
			{
				"type": "occ",
				"energy": -0.26711,
				"method": "rhf"
			},
			{
				"type": "occ",
				"energy": -0.23535,
				"method": "rhf"
			},
			{
				"type": "occ",
				"energy": -0.22013,
				"method": "rhf"
			},
			{
				"type": "occ",
				"energy": -0.20034,
				"method": "rhf"
			},
			{
				"type": "unocc",
				"energy": -0.01431,
				"method": "rhf"
			},
			{
				"type": "unocc",
				"energy": -0.00575,
				"method": "rhf"
			},
			{
				"type": "unocc",
				"energy": 0.00254,
				"method": "rhf"
			},
			{
				"type": "unocc",
				"energy": 0.0382,
				"method": "rhf"
			},
			{
				"type": "unocc",
				"energy": 0.04509,
				"method": "rhf"
			}
		],
		"cosmo_sigma_profile": { 
			"-0.025": 0.0,
			"-0.024": 0.0,
			"-0.023": 0.0,
			"-0.022": 0.0,
			"-0.021": 0.0,
			"-0.02": 0.0,
			"-0.019": 0.0,
			"-0.018": 0.0,
			"-0.017": 0.0,
			"-0.016": 0.258994510698,
			"-0.015": 1.36042713987,
			"-0.014": 0.722829742787,
			"-0.013": 0.901535346161,
			"-0.012": 0.727819486659,
			"-0.011": 1.35419318781,
			"-0.01": 0.767635726843,
			"-0.009": 0.692719032936,
			"-0.008": 2.73104274383,
			"-0.007": 4.16064618561,
			"-0.006": 10.361726402,
			"-0.005": 18.9054779155,
			"-0.004": 34.2666527532,
			"-0.003": 35.0009097019,
			"-0.002": 27.6001728873,
			"-0.001": 20.4155831456,
			"0.0": 22.3393318906,
			"0.001": 18.0348176245,
			"0.002": 24.6400769134,
			"0.003": 26.4227706003,
			"0.004": 24.5674281953,
			"0.005": 15.37243304,
			"0.006": 5.31412458403,
			"0.007": 3.93242730997,
			"0.008": 2.88918145643,
			"0.009": 3.30066965261,
			"0.01": 2.80245289473,
			"0.011": 2.61166040847,
			"0.012": 3.64803356273,
			"0.013": 2.33583599966,
			"0.014": 2.60968322376,
			"0.015": 0.322313195838,
			"0.016": 0.0,
			"0.017": 0.0,
			"0.018": 0.0,
			"0.019": 0.0,
			"0.02": 0.0,
			"0.021": 0.0,
			"0.022": 0.0,
			"0.023": 0.0,
			"0.024": 0.0,
			"0.025": 0.0
		}
	}
}
