{
	 "smiles": "OC(=O)C(=O)NC1=CC(Cl)=C(C=C1)C#N", 
	 "Tm": 477.15, 
	 "num_atms": 20, 
	 "gaussian": { 
		 "optdone": 1, 
		 "sigma_profile": "yes", 
		 "theory": "DFT", 
		 "functional": "B3LYP", 
		 "basiset": "6-31G**", 
		 "properties": { 
			 "R2extent": 5257.9451, 
			 "electric_dipole_moment_norm": 3.0994084726, 
			 "electric_quadrupole_moment_norm": 31.9794572854, 
			 "total_energy": -1141.34606589, 
			 "HOMO_LUMO_gap": 0.16688, 
			 "cosmo_polarized_energy": -18.07, 
			 "cosmo_cavitation_energy": 29.02, 
			 "cosmo_dispersion_energy": -20.86, 
			 "cosmo_repulsion_energy": 1.63, 
			 "cosmo_total_nonelectrostatic_energy": 9.78, 
			 "SMD_solvation_energy": 8.02 
		},
		"coords": [
			{
				"x": -0.3699470525,
				"y": 4.6860579104,
				"z": -0.0847414911,
				"element": "O" 
			},
			{
				"x": -0.348619011,
				"y": 3.6308491177,
				"z": -0.8902981059,
				"element": "C" 
			},
			{
				"x": -0.8035381408,
				"y": 3.5960394789,
				"z": -2.011256459,
				"element": "O" 
			},
			{
				"x": 0.3360311106,
				"y": 2.4169530854,
				"z": -0.2291603741,
				"element": "C" 
			},
			{
				"x": 0.777015362,
				"y": 2.5166583521,
				"z": 0.9131874107,
				"element": "O" 
			},
			{
				"x": 0.3585434447,
				"y": 1.3397818015,
				"z": -1.0504907148,
				"element": "N" 
			},
			{
				"x": 0.88703131,
				"y": 0.0607748859,
				"z": -0.8180017378,
				"element": "C" 
			},
			{
				"x": 1.5058018301,
				"y": -0.2822929504,
				"z": 0.3926681348,
				"element": "C" 
			},
			{
				"x": 2.0080317803,
				"y": -1.569431807,
				"z": 0.5555512775,
				"element": "C" 
			},
			{
				"x": 2.7740943047,
				"y": -1.9784250606,
				"z": 2.0673196667,
				"element": "Cl" 
			},
			{
				"x": 1.9084732122,
				"y": -2.5324951993,
				"z": -0.4668656098,
				"element": "C" 
			},
			{
				"x": 1.2832245462,
				"y": -2.1633402511,
				"z": -1.6720161927,
				"element": "C" 
			},
			{
				"x": 0.7781785929,
				"y": -0.8860489491,
				"z": -1.8496588947,
				"element": "C" 
			},
			{
				"x": 2.4197767165,
				"y": -3.8592974754,
				"z": -0.3144359284,
				"element": "C" 
			},
			{
				"x": 2.8219455006,
				"y": -4.9474259191,
				"z": -0.230729385,
				"element": "N" 
			},
			{
				"x": 0.0701847572,
				"y": 4.4057032838,
				"z": 0.7453914281,
				"element": "H" 
			},
			{
				"x": -0.0765616827,
				"y": 1.520262123,
				"z": -1.9511599624,
				"element": "H" 
			},
			{
				"x": 1.5905914596,
				"y": 0.4447861518,
				"z": 1.1876760155,
				"element": "H" 
			},
			{
				"x": 1.2015028185,
				"y": -2.8976674146,
				"z": -2.4656532325,
				"element": "H" 
			},
			{
				"x": 0.2985391411,
				"y": -0.6176411638,
				"z": -2.7862258451,
				"element": "H" 
			}
		],
		 "valence_orbital": [ 
			{
				"type": "occ",
				"energy": -0.33231,
				"method": "rhf"
			},
			{
				"type": "occ",
				"energy": -0.33132,
				"method": "rhf"
			},
			{
				"type": "occ",
				"energy": -0.2924,
				"method": "rhf"
			},
			{
				"type": "occ",
				"energy": -0.28493,
				"method": "rhf"
			},
			{
				"type": "occ",
				"energy": -0.2639,
				"method": "rhf"
			},
			{
				"type": "unocc",
				"energy": -0.09702,
				"method": "rhf"
			},
			{
				"type": "unocc",
				"energy": -0.05257,
				"method": "rhf"
			},
			{
				"type": "unocc",
				"energy": -0.04754,
				"method": "rhf"
			},
			{
				"type": "unocc",
				"energy": 0.00665,
				"method": "rhf"
			},
			{
				"type": "unocc",
				"energy": 0.02458,
				"method": "rhf"
			}
		],
		"cosmo_sigma_profile": { 
			"-0.025": 0.0,
			"-0.024": 0.0,
			"-0.023": 0.0,
			"-0.022": 0.0,
			"-0.021": 0.0,
			"-0.02": 0.0,
			"-0.019": 0.0,
			"-0.018": 0.0,
			"-0.017": 0.0166123588199,
			"-0.016": 0.680948986859,
			"-0.015": 2.06553994811,
			"-0.014": 1.37931823409,
			"-0.013": 1.65042153487,
			"-0.012": 2.31865569658,
			"-0.011": 2.04715618005,
			"-0.01": 1.79132208268,
			"-0.009": 6.55747941302,
			"-0.008": 9.23823063905,
			"-0.007": 9.13247252433,
			"-0.006": 7.41746611068,
			"-0.005": 7.4702291166,
			"-0.004": 8.89009406851,
			"-0.003": 14.3051648165,
			"-0.002": 17.7304043904,
			"-0.001": 23.4460318798,
			"0.0": 19.5928251137,
			"0.001": 12.8828143988,
			"0.002": 11.9027241191,
			"0.003": 14.074816007,
			"0.004": 7.34604111283,
			"0.005": 6.8371456711,
			"0.006": 6.72261970598,
			"0.007": 9.39390008898,
			"0.008": 8.35142438742,
			"0.009": 10.1959337715,
			"0.01": 6.61465217092,
			"0.011": 4.48366014089,
			"0.012": 2.4906860342,
			"0.013": 0.647096075751,
			"0.014": 0.0,
			"0.015": 0.0,
			"0.016": 0.0,
			"0.017": 0.0,
			"0.018": 0.0,
			"0.019": 0.0,
			"0.02": 0.0,
			"0.021": 0.0,
			"0.022": 0.0,
			"0.023": 0.0,
			"0.024": 0.0,
			"0.025": 0.0
		}
	}
}
