{
	 "smiles": "CC1=CC(C)=C(Cl)C(O)=C1Cl", 
	 "Tm": 360.65, 
	 "num_atms": 19, 
	 "gaussian": { 
		 "optdone": 1, 
		 "sigma_profile": "yes", 
		 "theory": "DFT", 
		 "functional": "B3LYP", 
		 "basiset": "6-31G**", 
		 "properties": { 
			 "R2extent": 2960.8114, 
			 "electric_dipole_moment_norm": 2.43902958367, 
			 "electric_quadrupole_moment_norm": 7.19194289118, 
			 "total_energy": -1305.2930552, 
			 "HOMO_LUMO_gap": 0.21158, 
			 "cosmo_polarized_energy": -6.44, 
			 "cosmo_cavitation_energy": 25.58, 
			 "cosmo_dispersion_energy": -19.28, 
			 "cosmo_repulsion_energy": 1.54, 
			 "cosmo_total_nonelectrostatic_energy": 7.83, 
			 "SMD_solvation_energy": 4.31 
		},
		"coords": [
			{
				"x": -0.1912348433,
				"y": 0.8537151681,
				"z": -2.8698080566,
				"element": "C" 
			},
			{
				"x": 0.58673078,
				"y": 0.4540187675,
				"z": -1.6427822966,
				"element": "C" 
			},
			{
				"x": 1.6725028314,
				"y": -0.4224549873,
				"z": -1.7297620132,
				"element": "C" 
			},
			{
				"x": 2.4215420877,
				"y": -0.8190686029,
				"z": -0.615211656,
				"element": "C" 
			},
			{
				"x": 3.5828918825,
				"y": -1.7670847147,
				"z": -0.7680403352,
				"element": "C" 
			},
			{
				"x": 2.0558137581,
				"y": -0.3076543115,
				"z": 0.6349500507,
				"element": "C" 
			},
			{
				"x": 2.9459018528,
				"y": -0.7585741958,
				"z": 2.0753355663,
				"element": "Cl" 
			},
			{
				"x": 0.9742229221,
				"y": 0.5759205123,
				"z": 0.7806896786,
				"element": "C" 
			},
			{
				"x": 0.6690975181,
				"y": 1.0360516816,
				"z": 2.0125108976,
				"element": "O" 
			},
			{
				"x": 0.2602678541,
				"y": 0.9378843301,
				"z": -0.3725659792,
				"element": "C" 
			},
			{
				"x": -1.0967295496,
				"y": 2.0517894382,
				"z": -0.1597629411,
				"element": "Cl" 
			},
			{
				"x": 0.2192117773,
				"y": 0.3707124541,
				"z": -3.7594353194,
				"element": "H" 
			},
			{
				"x": -1.2463185844,
				"y": 0.5722689493,
				"z": -2.7830473779,
				"element": "H" 
			},
			{
				"x": -0.1634436726,
				"y": 1.937758023,
				"z": -3.0247886767,
				"element": "H" 
			},
			{
				"x": 1.9466472774,
				"y": -0.8127110767,
				"z": -2.7056336324,
				"element": "H" 
			},
			{
				"x": 3.7115828474,
				"y": -2.0542311239,
				"z": -1.8142162697,
				"element": "H" 
			},
			{
				"x": 4.5156218368,
				"y": -1.312556052,
				"z": -0.4176054847,
				"element": "H" 
			},
			{
				"x": 3.4340181958,
				"y": -2.6765146482,
				"z": -0.1762929284,
				"element": "H" 
			},
			{
				"x": -0.0949267715,
				"y": 1.6290303888,
				"z": 1.9399667738,
				"element": "H" 
			}
		],
		 "valence_orbital": [ 
			{
				"type": "occ",
				"energy": -0.33476,
				"method": "rhf"
			},
			{
				"type": "occ",
				"energy": -0.31705,
				"method": "rhf"
			},
			{
				"type": "occ",
				"energy": -0.30779,
				"method": "rhf"
			},
			{
				"type": "occ",
				"energy": -0.24064,
				"method": "rhf"
			},
			{
				"type": "occ",
				"energy": -0.22939,
				"method": "rhf"
			},
			{
				"type": "unocc",
				"energy": -0.01781,
				"method": "rhf"
			},
			{
				"type": "unocc",
				"energy": -0.00055,
				"method": "rhf"
			},
			{
				"type": "unocc",
				"energy": 0.0056,
				"method": "rhf"
			},
			{
				"type": "unocc",
				"energy": 0.0543,
				"method": "rhf"
			},
			{
				"type": "unocc",
				"energy": 0.08534,
				"method": "rhf"
			}
		],
		"cosmo_sigma_profile": { 
			"-0.025": 0.0,
			"-0.024": 0.0,
			"-0.023": 0.0,
			"-0.022": 0.0,
			"-0.021": 0.0,
			"-0.02": 0.0,
			"-0.019": 0.0,
			"-0.018": 0.0,
			"-0.017": 0.0,
			"-0.016": 0.0840303177421,
			"-0.015": 0.635653022027,
			"-0.014": 0.598066942392,
			"-0.013": 0.628706529881,
			"-0.012": 0.566884530366,
			"-0.011": 0.951830687868,
			"-0.01": 0.84070939143,
			"-0.009": 1.02625405197,
			"-0.008": 0.683290354521,
			"-0.007": 1.1815376521,
			"-0.006": 4.54360973328,
			"-0.005": 9.71893678292,
			"-0.004": 12.6643061024,
			"-0.003": 14.9745665098,
			"-0.002": 16.8120536348,
			"-0.001": 25.5121677079,
			"0.0": 23.5084949813,
			"0.001": 19.9881424034,
			"0.002": 20.0056678528,
			"0.003": 19.7356687579,
			"0.004": 13.962115479,
			"0.005": 7.39329181671,
			"0.006": 2.12656726312,
			"0.007": 2.39988814736,
			"0.008": 1.86833078838,
			"0.009": 1.58158093225,
			"0.01": 2.61442222852,
			"0.011": 0.771943675839,
			"0.012": 0.0,
			"0.013": 0.0,
			"0.014": 0.0,
			"0.015": 0.0,
			"0.016": 0.0,
			"0.017": 0.0,
			"0.018": 0.0,
			"0.019": 0.0,
			"0.02": 0.0,
			"0.021": 0.0,
			"0.022": 0.0,
			"0.023": 0.0,
			"0.024": 0.0,
			"0.025": 0.0
		}
	}
}
