{
	 "smiles": "OC(OCC(COC(O)C(Cl)(Cl)Cl)(COC(O)C(Cl)(Cl)Cl)COC(O)C(Cl)(Cl)Cl)C(Cl)(Cl)Cl", 
	 "Tm": 326.15, 
	 "num_atms": 49, 
	 "gaussian": { 
		 "optdone": 1, 
		 "sigma_profile": "yes", 
		 "theory": "DFT", 
		 "functional": "B3LYP", 
		 "basiset": "6-31G**", 
		 "properties": { 
			 "R2extent": 28225.3588, 
			 "electric_dipole_moment_norm": 2.08467248747, 
			 "electric_quadrupole_moment_norm": 30.5576474898, 
			 "total_energy": -6629.01093297, 
			 "HOMO_LUMO_gap": 0.23174, 
			 "cosmo_polarized_energy": -24.26, 
			 "cosmo_cavitation_energy": 72.01, 
			 "cosmo_dispersion_energy": -42.69, 
			 "cosmo_repulsion_energy": 3.2, 
			 "cosmo_total_nonelectrostatic_energy": 32.52, 
			 "SMD_solvation_energy": 7.76 
		},
		"coords": [
			{
				"x": 2.1571794434,
				"y": 0.6049403956,
				"z": 4.3889293556,
				"element": "O" 
			},
			{
				"x": 0.9328261886,
				"y": 0.7913534747,
				"z": 3.7566154885,
				"element": "C" 
			},
			{
				"x": 0.6076656506,
				"y": -0.2462445385,
				"z": 2.8703521606,
				"element": "O" 
			},
			{
				"x": 1.5622460025,
				"y": -0.5520055964,
				"z": 1.8488874274,
				"element": "C" 
			},
			{
				"x": 1.2433443679,
				"y": 0.0469442671,
				"z": 0.4505243206,
				"element": "C" 
			},
			{
				"x": 1.9190084067,
				"y": -0.8522396432,
				"z": -0.6084518175,
				"element": "C" 
			},
			{
				"x": 1.4276993641,
				"y": -2.1890778449,
				"z": -0.4734100331,
				"element": "O" 
			},
			{
				"x": 1.855617846,
				"y": -3.0547697323,
				"z": -1.4804560941,
				"element": "C" 
			},
			{
				"x": 3.2232077473,
				"y": -3.2991068433,
				"z": -1.4492861856,
				"element": "O" 
			},
			{
				"x": 1.0231550143,
				"y": -4.3711726749,
				"z": -1.3256257839,
				"element": "C" 
			},
			{
				"x": 1.4005457647,
				"y": -5.135416152,
				"z": 0.2681048049,
				"element": "Cl" 
			},
			{
				"x": -0.7284618978,
				"y": -4.0137230714,
				"z": -1.4247074391,
				"element": "Cl" 
			},
			{
				"x": 1.476629007,
				"y": -5.4969387451,
				"z": -2.6446736613,
				"element": "Cl" 
			},
			{
				"x": -0.2765907709,
				"y": 0.0695353999,
				"z": 0.2380840124,
				"element": "C" 
			},
			{
				"x": -0.5303827608,
				"y": 0.5239630449,
				"z": -1.10793454,
				"element": "O" 
			},
			{
				"x": -1.7929042038,
				"y": 1.0200189318,
				"z": -1.3173268838,
				"element": "C" 
			},
			{
				"x": -1.8561019032,
				"y": 2.324921804,
				"z": -0.7847061897,
				"element": "O" 
			},
			{
				"x": -2.0557120896,
				"y": 1.0233385463,
				"z": -2.8601075978,
				"element": "C" 
			},
			{
				"x": -2.035121869,
				"y": -0.6633472444,
				"z": -3.4632189793,
				"element": "Cl" 
			},
			{
				"x": -0.845059592,
				"y": 2.0103817327,
				"z": -3.7177193978,
				"element": "Cl" 
			},
			{
				"x": -3.7083199418,
				"y": 1.7223785456,
				"z": -3.1237990036,
				"element": "Cl" 
			},
			{
				"x": 1.8445674135,
				"y": 1.4496428013,
				"z": 0.225550301,
				"element": "C" 
			},
			{
				"x": 1.1609613437,
				"y": 2.4362298359,
				"z": 1.0055727161,
				"element": "O" 
			},
			{
				"x": 1.2582106373,
				"y": 3.7266320191,
				"z": 0.4502546263,
				"element": "C" 
			},
			{
				"x": 0.57369208,
				"y": 3.8544620667,
				"z": -0.738751355,
				"element": "O" 
			},
			{
				"x": 0.7667619389,
				"y": 4.736512002,
				"z": 1.542917676,
				"element": "C" 
			},
			{
				"x": -0.9440699887,
				"y": 4.4129308097,
				"z": 1.9869840152,
				"element": "Cl" 
			},
			{
				"x": 1.8107630105,
				"y": 4.5997122887,
				"z": 3.0014482747,
				"element": "Cl" 
			},
			{
				"x": 0.9073902796,
				"y": 6.3984040613,
				"z": 0.8797023664,
				"element": "Cl" 
			},
			{
				"x": -0.2401572759,
				"y": 0.8436922884,
				"z": 4.7931033959,
				"element": "C" 
			},
			{
				"x": -1.8115230965,
				"y": 1.0821046279,
				"z": 3.9628221927,
				"element": "Cl" 
			},
			{
				"x": 0.0448918308,
				"y": 2.2003672174,
				"z": 5.9264224867,
				"element": "Cl" 
			},
			{
				"x": -0.2881595762,
				"y": -0.7086378592,
				"z": 5.7246585205,
				"element": "Cl" 
			},
			{
				"x": 2.113924534,
				"y": -0.2319343857,
				"z": 4.8796900044,
				"element": "H" 
			},
			{
				"x": 0.9844318263,
				"y": 1.7641241022,
				"z": 3.2593289326,
				"element": "H" 
			},
			{
				"x": 2.567021066,
				"y": -0.2527082158,
				"z": 2.1668057106,
				"element": "H" 
			},
			{
				"x": 1.5381361323,
				"y": -1.6399718216,
				"z": 1.7650877015,
				"element": "H" 
			},
			{
				"x": 3.0096825609,
				"y": -0.8442458651,
				"z": -0.483232841,
				"element": "H" 
			},
			{
				"x": 1.6847468492,
				"y": -0.4757176568,
				"z": -1.6114433217,
				"element": "H" 
			},
			{
				"x": 1.6384636087,
				"y": -2.6538867744,
				"z": -2.4792239374,
				"element": "H" 
			},
			{
				"x": 3.4364909475,
				"y": -3.695058773,
				"z": -0.5891453076,
				"element": "H" 
			},
			{
				"x": -0.6935820254,
				"y": -0.9357678778,
				"z": 0.3616023866,
				"element": "H" 
			},
			{
				"x": -0.7366585272,
				"y": 0.750299813,
				"z": 0.9543533982,
				"element": "H" 
			},
			{
				"x": -2.5750288465,
				"y": 0.3853485941,
				"z": -0.8708180788,
				"element": "H" 
			},
			{
				"x": -2.771846589,
				"y": 2.6365939169,
				"z": -0.7670577959,
				"element": "H" 
			},
			{
				"x": 2.910301655,
				"y": 1.4458538395,
				"z": 0.4978857801,
				"element": "H" 
			},
			{
				"x": 1.7522642822,
				"y": 1.7116891417,
				"z": -0.83252289,
				"element": "H" 
			},
			{
				"x": 2.3043622012,
				"y": 3.9972146695,
				"z": 0.250361145,
				"element": "H" 
			},
			{
				"x": -0.2992080462,
				"y": 3.4193810775,
				"z": -0.6638300664,
				"element": "H" 
			}
		],
		 "valence_orbital": [ 
			{
				"type": "occ",
				"energy": -0.3067,
				"method": "rhf"
			},
			{
				"type": "occ",
				"energy": -0.30454,
				"method": "rhf"
			},
			{
				"type": "occ",
				"energy": -0.30106,
				"method": "rhf"
			},
			{
				"type": "occ",
				"energy": -0.29087,
				"method": "rhf"
			},
			{
				"type": "occ",
				"energy": -0.28572,
				"method": "rhf"
			},
			{
				"type": "unocc",
				"energy": -0.05398,
				"method": "rhf"
			},
			{
				"type": "unocc",
				"energy": -0.05005,
				"method": "rhf"
			},
			{
				"type": "unocc",
				"energy": -0.04249,
				"method": "rhf"
			},
			{
				"type": "unocc",
				"energy": -0.03864,
				"method": "rhf"
			},
			{
				"type": "unocc",
				"energy": -0.01615,
				"method": "rhf"
			}
		],
		"cosmo_sigma_profile": { 
			"-0.025": 0.0,
			"-0.024": 0.0,
			"-0.023": 0.0,
			"-0.022": 0.0,
			"-0.021": 0.0,
			"-0.02": 0.0,
			"-0.019": 0.0,
			"-0.018": 0.0206189639757,
			"-0.017": 0.68197300838,
			"-0.016": 0.976007185796,
			"-0.015": 2.78200016279,
			"-0.014": 2.35142865913,
			"-0.013": 2.02527887086,
			"-0.012": 1.85557696781,
			"-0.011": 1.99665826752,
			"-0.01": 3.52225291125,
			"-0.009": 7.03865522035,
			"-0.008": 12.4834609469,
			"-0.007": 12.837615467,
			"-0.006": 15.3353049607,
			"-0.005": 17.2914961176,
			"-0.004": 27.0939644184,
			"-0.003": 33.0643352395,
			"-0.002": 39.5693208084,
			"-0.001": 42.1493981273,
			"0.0": 48.0208906985,
			"0.001": 60.3100439667,
			"0.002": 81.0723280578,
			"0.003": 110.88426798,
			"0.004": 26.1057610011,
			"0.005": 12.8843619288,
			"0.006": 7.80895744211,
			"0.007": 5.41099365892,
			"0.008": 4.37165005268,
			"0.009": 4.869116587,
			"0.01": 4.276661083,
			"0.011": 3.95921514472,
			"0.012": 1.42666980346,
			"0.013": 0.00345404749224,
			"0.014": 0.0,
			"0.015": 0.0,
			"0.016": 0.0,
			"0.017": 0.0,
			"0.018": 0.0,
			"0.019": 0.0,
			"0.02": 0.0,
			"0.021": 0.0,
			"0.022": 0.0,
			"0.023": 0.0,
			"0.024": 0.0,
			"0.025": 0.0
		}
	}
}
