{
	 "smiles": "CC1=NN(CC2=CC=C(F)C=C2)C(Cl)=C1C=O", 
	 "Tm": 323.15, 
	 "num_atms": 27, 
	 "gaussian": { 
		 "optdone": 1, 
		 "sigma_profile": "yes", 
		 "theory": "DFT", 
		 "functional": "B3LYP", 
		 "basiset": "6-31G**", 
		 "properties": { 
			 "R2extent": 5840.117, 
			 "electric_dipole_moment_norm": 3.09159057606, 
			 "electric_quadrupole_moment_norm": 23.9872799425, 
			 "total_energy": -1208.03059702, 
			 "HOMO_LUMO_gap": 0.19931, 
			 "cosmo_polarized_energy": -12.0, 
			 "cosmo_cavitation_energy": 34.54, 
			 "cosmo_dispersion_energy": -23.8, 
			 "cosmo_repulsion_energy": 1.83, 
			 "cosmo_total_nonelectrostatic_energy": 12.57, 
			 "SMD_solvation_energy": 6.26 
		},
		"coords": [
			{
				"x": -0.5847589328,
				"y": 0.6111054267,
				"z": -3.3101706857,
				"element": "C" 
			},
			{
				"x": 0.0543602997,
				"y": 1.0395746505,
				"z": -2.0245456939,
				"element": "C" 
			},
			{
				"x": 0.7583994554,
				"y": 0.1700707066,
				"z": -1.3083105979,
				"element": "N" 
			},
			{
				"x": 1.2088044385,
				"y": 0.8635923078,
				"z": -0.2209167368,
				"element": "N" 
			},
			{
				"x": 1.9699646413,
				"y": 0.1560309615,
				"z": 0.8105595667,
				"element": "C" 
			},
			{
				"x": 1.0990997267,
				"y": -0.4686526324,
				"z": 1.8840950095,
				"element": "C" 
			},
			{
				"x": 1.2274820817,
				"y": -0.0768446783,
				"z": 3.2206525114,
				"element": "C" 
			},
			{
				"x": 0.4454341162,
				"y": -0.661788086,
				"z": 4.2179880713,
				"element": "C" 
			},
			{
				"x": -0.4709631969,
				"y": -1.6400708311,
				"z": 3.854020335,
				"element": "C" 
			},
			{
				"x": -1.2331494418,
				"y": -2.2108051564,
				"z": 4.8084876033,
				"element": "F" 
			},
			{
				"x": -0.6271342243,
				"y": -2.049952576,
				"z": 2.5328873812,
				"element": "C" 
			},
			{
				"x": 0.1653507724,
				"y": -1.4606210474,
				"z": 1.5508939986,
				"element": "C" 
			},
			{
				"x": 0.7888859644,
				"y": 2.146180239,
				"z": -0.245652781,
				"element": "C" 
			},
			{
				"x": 1.1956123173,
				"y": 3.2671317182,
				"z": 0.9889012357,
				"element": "Cl" 
			},
			{
				"x": 0.0333676979,
				"y": 2.3260430301,
				"z": -1.4059485639,
				"element": "C" 
			},
			{
				"x": -0.620501704,
				"y": 3.5370115275,
				"z": -1.8896033742,
				"element": "C" 
			},
			{
				"x": -0.6049275594,
				"y": 4.6210078576,
				"z": -1.3316570918,
				"element": "O" 
			},
			{
				"x": -0.3677516765,
				"y": -0.4444142825,
				"z": -3.4869084939,
				"element": "H" 
			},
			{
				"x": -1.6717446085,
				"y": 0.7414829902,
				"z": -3.2815443049,
				"element": "H" 
			},
			{
				"x": -0.2062097032,
				"y": 1.1889758372,
				"z": -4.1599509988,
				"element": "H" 
			},
			{
				"x": 2.6746676502,
				"y": 0.8637702907,
				"z": 1.2515664694,
				"element": "H" 
			},
			{
				"x": 2.5405066497,
				"y": -0.6047813152,
				"z": 0.2723999331,
				"element": "H" 
			},
			{
				"x": 1.9438440806,
				"y": 0.6941572003,
				"z": 3.4909937869,
				"element": "H" 
			},
			{
				"x": 0.5339683642,
				"y": -0.3682650235,
				"z": 5.258184756,
				"element": "H" 
			},
			{
				"x": -1.3550551241,
				"y": -2.8174694673,
				"z": 2.2933152466,
				"element": "H" 
			},
			{
				"x": 0.055156179,
				"y": -1.7617309812,
				"z": 0.5133794465,
				"element": "H" 
			},
			{
				"x": -1.1639082638,
				"y": 3.4018613332,
				"z": -2.8505160284,
				"element": "H" 
			}
		],
		 "valence_orbital": [ 
			{
				"type": "occ",
				"energy": -0.27003,
				"method": "rhf"
			},
			{
				"type": "occ",
				"energy": -0.26585,
				"method": "rhf"
			},
			{
				"type": "occ",
				"energy": -0.25623,
				"method": "rhf"
			},
			{
				"type": "occ",
				"energy": -0.25161,
				"method": "rhf"
			},
			{
				"type": "occ",
				"energy": -0.24784,
				"method": "rhf"
			},
			{
				"type": "unocc",
				"energy": -0.04853,
				"method": "rhf"
			},
			{
				"type": "unocc",
				"energy": -0.02197,
				"method": "rhf"
			},
			{
				"type": "unocc",
				"energy": -0.01526,
				"method": "rhf"
			},
			{
				"type": "unocc",
				"energy": 0.00684,
				"method": "rhf"
			},
			{
				"type": "unocc",
				"energy": 0.02419,
				"method": "rhf"
			}
		],
		"cosmo_sigma_profile": { 
			"-0.025": 0.0,
			"-0.024": 0.0,
			"-0.023": 0.0,
			"-0.022": 0.0,
			"-0.021": 0.0,
			"-0.02": 0.0,
			"-0.019": 0.0,
			"-0.018": 0.0,
			"-0.017": 0.0,
			"-0.016": 0.0,
			"-0.015": 0.0,
			"-0.014": 0.0,
			"-0.013": 0.0,
			"-0.012": 0.0,
			"-0.011": 0.0,
			"-0.01": 0.0,
			"-0.009": 0.0,
			"-0.008": 1.74616741433,
			"-0.007": 10.0198377859,
			"-0.006": 17.527984209,
			"-0.005": 22.4829198446,
			"-0.004": 19.758834113,
			"-0.003": 18.4620766739,
			"-0.002": 19.7121045761,
			"-0.001": 24.6263283587,
			"0.0": 25.4798084355,
			"0.001": 24.1881127659,
			"0.002": 21.3760488918,
			"0.003": 20.161618028,
			"0.004": 19.2689312626,
			"0.005": 7.85719586926,
			"0.006": 2.92259340382,
			"0.007": 2.04415118525,
			"0.008": 3.12714695083,
			"0.009": 3.62808569035,
			"0.01": 2.81890815546,
			"0.011": 4.47901406378,
			"0.012": 5.3318851571,
			"0.013": 1.83381218465,
			"0.014": 0.255661729034,
			"0.015": 0.0,
			"0.016": 0.0,
			"0.017": 0.0,
			"0.018": 0.0,
			"0.019": 0.0,
			"0.02": 0.0,
			"0.021": 0.0,
			"0.022": 0.0,
			"0.023": 0.0,
			"0.024": 0.0,
			"0.025": 0.0
		}
	}
}
