{
	 "smiles": "CN1C=C(Br)N=N1", 
	 "Tm": 373.15, 
	 "num_atms": 11, 
	 "gaussian": { 
		 "optdone": 1, 
		 "sigma_profile": "yes", 
		 "theory": "DFT", 
		 "functional": "B3LYP", 
		 "basiset": "6-31G**", 
		 "properties": { 
			 "R2extent": 2697.38, 
			 "electric_dipole_moment_norm": 5.14855485064, 
			 "electric_quadrupole_moment_norm": 13.9752770506, 
			 "total_energy": -2852.33480886, 
			 "HOMO_LUMO_gap": 0.23296, 
			 "cosmo_polarized_energy": -12.35, 
			 "cosmo_cavitation_energy": 17.86, 
			 "cosmo_dispersion_energy": -13.9, 
			 "cosmo_repulsion_energy": 1.18, 
			 "cosmo_total_nonelectrostatic_energy": 5.15, 
			 "SMD_solvation_energy": 1.08 
		},
		"coords": [
			{
				"x": 2.0936952497,
				"y": 1.8982162657,
				"z": -0.0665070236,
				"element": "C" 
			},
			{
				"x": 0.7458727387,
				"y": 1.8995742916,
				"z": 0.4822571999,
				"element": "N" 
			},
			{
				"x": -0.3801510046,
				"y": 1.3233378754,
				"z": -0.0072086266,
				"element": "C" 
			},
			{
				"x": -1.3388819229,
				"y": 1.6551480837,
				"z": 0.9263434814,
				"element": "C" 
			},
			{
				"x": -3.160880693,
				"y": 1.1952842016,
				"z": 0.9105041483,
				"element": "Br" 
			},
			{
				"x": -0.7785686643,
				"y": 2.3943370173,
				"z": 1.9125476503,
				"element": "N" 
			},
			{
				"x": 0.4938290666,
				"y": 2.5431364299,
				"z": 1.6409997184,
				"element": "N" 
			},
			{
				"x": 2.0954240155,
				"y": 1.3312178439,
				"z": -0.9977379053,
				"element": "H" 
			},
			{
				"x": 2.7808919461,
				"y": 1.4355762708,
				"z": 0.6448899925,
				"element": "H" 
			},
			{
				"x": 2.4131655188,
				"y": 2.9239296244,
				"z": -0.2619915248,
				"element": "H" 
			},
			{
				"x": -0.4172962505,
				"y": 0.7564420956,
				"z": -0.9227971105,
				"element": "H" 
			}
		],
		 "valence_orbital": [ 
			{
				"type": "occ",
				"energy": -0.33198,
				"method": "rhf"
			},
			{
				"type": "occ",
				"energy": -0.29907,
				"method": "rhf"
			},
			{
				"type": "occ",
				"energy": -0.29739,
				"method": "rhf"
			},
			{
				"type": "occ",
				"energy": -0.2762,
				"method": "rhf"
			},
			{
				"type": "occ",
				"energy": -0.24854,
				"method": "rhf"
			},
			{
				"type": "unocc",
				"energy": -0.01558,
				"method": "rhf"
			},
			{
				"type": "unocc",
				"energy": 0.01303,
				"method": "rhf"
			},
			{
				"type": "unocc",
				"energy": 0.03784,
				"method": "rhf"
			},
			{
				"type": "unocc",
				"energy": 0.08071,
				"method": "rhf"
			},
			{
				"type": "unocc",
				"energy": 0.10875,
				"method": "rhf"
			}
		],
		"cosmo_sigma_profile": { 
			"-0.025": 0.0,
			"-0.024": 0.0,
			"-0.023": 0.0,
			"-0.022": 0.0,
			"-0.021": 0.0,
			"-0.02": 0.0,
			"-0.019": 0.0,
			"-0.018": 0.0,
			"-0.017": 0.0,
			"-0.016": 0.0,
			"-0.015": 0.0,
			"-0.014": 0.0,
			"-0.013": 0.0,
			"-0.012": 0.28289569398,
			"-0.011": 2.94384883722,
			"-0.01": 2.73875778841,
			"-0.009": 2.74417633464,
			"-0.008": 4.30147300621,
			"-0.007": 7.30924433408,
			"-0.006": 8.27225895301,
			"-0.005": 10.366131179,
			"-0.004": 13.2467509404,
			"-0.003": 5.35012572228,
			"-0.002": 6.51311282873,
			"-0.001": 7.42300972767,
			"0.0": 7.78330816099,
			"0.001": 9.0030025603,
			"0.002": 8.25454025183,
			"0.003": 10.6835121713,
			"0.004": 12.3409271276,
			"0.005": 3.45249353125,
			"0.006": 2.20834191402,
			"0.007": 2.63148145743,
			"0.008": 2.88285041101,
			"0.009": 2.34045380923,
			"0.01": 4.21022249612,
			"0.011": 2.96902296227,
			"0.012": 2.8662001092,
			"0.013": 1.73177052578,
			"0.014": 1.33363925054,
			"0.015": 0.744501476522,
			"0.016": 0.00134525691498,
			"0.017": 0.0,
			"0.018": 0.0,
			"0.019": 0.0,
			"0.02": 0.0,
			"0.021": 0.0,
			"0.022": 0.0,
			"0.023": 0.0,
			"0.024": 0.0,
			"0.025": 0.0
		}
	}
}
