{
	 "smiles": "OC(=O)C1CN(CCN2CCOCC2)C(=O)C1", 
	 "Tm": 433.15, 
	 "num_atms": 35, 
	 "gaussian": { 
		 "optdone": 1, 
		 "sigma_profile": "yes", 
		 "theory": "DFT", 
		 "functional": "B3LYP", 
		 "basiset": "6-31G**", 
		 "properties": { 
			 "R2extent": 5267.5702, 
			 "electric_dipole_moment_norm": 4.54808774542, 
			 "electric_quadrupole_moment_norm": 35.854396276, 
			 "total_energy": -840.40797377, 
			 "HOMO_LUMO_gap": 0.21989, 
			 "cosmo_polarized_energy": -21.21, 
			 "cosmo_cavitation_energy": 35.29, 
			 "cosmo_dispersion_energy": -24.87, 
			 "cosmo_repulsion_energy": 1.93, 
			 "cosmo_total_nonelectrostatic_energy": 12.35, 
			 "SMD_solvation_energy": 5.95 
		},
		"coords": [
			{
				"x": -4.2845017958,
				"y": 1.3777809088,
				"z": -0.1761931382,
				"element": "O" 
			},
			{
				"x": -4.2004327613,
				"y": 0.2076666089,
				"z": -0.8577475274,
				"element": "C" 
			},
			{
				"x": -5.17183369,
				"y": -0.2664987589,
				"z": -1.3920798128,
				"element": "O" 
			},
			{
				"x": -2.8140276892,
				"y": -0.4397467051,
				"z": -0.9106671871,
				"element": "C" 
			},
			{
				"x": -2.1109805411,
				"y": -0.4490150929,
				"z": 0.4685277988,
				"element": "C" 
			},
			{
				"x": -1.4218738198,
				"y": 0.8444565923,
				"z": 0.495827104,
				"element": "N" 
			},
			{
				"x": -0.6543187108,
				"y": 1.2838295089,
				"z": 1.6558479145,
				"element": "C" 
			},
			{
				"x": 0.4036885766,
				"y": 0.2687590368,
				"z": 2.1282270678,
				"element": "C" 
			},
			{
				"x": 1.3240041363,
				"y": -0.1295863525,
				"z": 1.0741885291,
				"element": "N" 
			},
			{
				"x": 2.2465511219,
				"y": 0.9560413038,
				"z": 0.6878986115,
				"element": "C" 
			},
			{
				"x": 3.4523937532,
				"y": 0.3894021312,
				"z": -0.0494304867,
				"element": "C" 
			},
			{
				"x": 4.2371216399,
				"y": -0.4836092283,
				"z": 0.7640377527,
				"element": "O" 
			},
			{
				"x": 3.4897139756,
				"y": -1.1764663134,
				"z": 1.759782204,
				"element": "C" 
			},
			{
				"x": 2.0405384954,
				"y": -1.3970154646,
				"z": 1.3270677489,
				"element": "C" 
			},
			{
				"x": -1.0766405708,
				"y": 1.2654949874,
				"z": -0.7826023448,
				"element": "C" 
			},
			{
				"x": -0.32853364,
				"y": 2.1908638876,
				"z": -1.0447661624,
				"element": "O" 
			},
			{
				"x": -1.827644129,
				"y": 0.3815209504,
				"z": -1.7762711382,
				"element": "C" 
			},
			{
				"x": -3.4144087636,
				"y": 1.6123597766,
				"z": 0.1937116453,
				"element": "H" 
			},
			{
				"x": -2.9643580493,
				"y": -1.448332335,
				"z": -1.2955666984,
				"element": "H" 
			},
			{
				"x": -2.8105658646,
				"y": -0.5357978571,
				"z": 1.3065043162,
				"element": "H" 
			},
			{
				"x": -1.394697309,
				"y": -1.2784586579,
				"z": 0.5294149943,
				"element": "H" 
			},
			{
				"x": -0.1914973707,
				"y": 2.2309838017,
				"z": 1.3695096992,
				"element": "H" 
			},
			{
				"x": -1.3383343424,
				"y": 1.4838964675,
				"z": 2.4896637847,
				"element": "H" 
			},
			{
				"x": -0.1066516338,
				"y": -0.6286201451,
				"z": 2.4957890858,
				"element": "H" 
			},
			{
				"x": 0.9121440703,
				"y": 0.7215894167,
				"z": 3.0032536949,
				"element": "H" 
			},
			{
				"x": 2.6069130881,
				"y": 1.5091574588,
				"z": 1.5759525922,
				"element": "H" 
			},
			{
				"x": 1.7256282846,
				"y": 1.6708611668,
				"z": 0.0429776668,
				"element": "H" 
			},
			{
				"x": 3.1132902417,
				"y": -0.1360253321,
				"z": -0.9557725925,
				"element": "H" 
			},
			{
				"x": 4.1118844953,
				"y": 1.203334532,
				"z": -0.3661095966,
				"element": "H" 
			},
			{
				"x": 3.9911908217,
				"y": -2.1367975219,
				"z": 1.9258997231,
				"element": "H" 
			},
			{
				"x": 3.5153078182,
				"y": -0.621129485,
				"z": 2.7116630151,
				"element": "H" 
			},
			{
				"x": 2.0400895808,
				"y": -2.0070998754,
				"z": 0.4135685416,
				"element": "H" 
			},
			{
				"x": 1.5104005181,
				"y": -1.9728430082,
				"z": 2.0930728083,
				"element": "H" 
			},
			{
				"x": -1.0955448518,
				"y": -0.2729785421,
				"z": -2.2624086794,
				"element": "H" 
			},
			{
				"x": -2.297015085,
				"y": 0.9836221394,
				"z": -2.557470934,
				"element": "H" 
			}
		],
		 "valence_orbital": [ 
			{
				"type": "occ",
				"energy": -0.27592,
				"method": "rhf"
			},
			{
				"type": "occ",
				"energy": -0.27092,
				"method": "rhf"
			},
			{
				"type": "occ",
				"energy": -0.26125,
				"method": "rhf"
			},
			{
				"type": "occ",
				"energy": -0.25075,
				"method": "rhf"
			},
			{
				"type": "occ",
				"energy": -0.22286,
				"method": "rhf"
			},
			{
				"type": "unocc",
				"energy": -0.00297,
				"method": "rhf"
			},
			{
				"type": "unocc",
				"energy": 0.01029,
				"method": "rhf"
			},
			{
				"type": "unocc",
				"energy": 0.05235,
				"method": "rhf"
			},
			{
				"type": "unocc",
				"energy": 0.07741,
				"method": "rhf"
			},
			{
				"type": "unocc",
				"energy": 0.08662,
				"method": "rhf"
			}
		],
		"cosmo_sigma_profile": { 
			"-0.025": 0.0,
			"-0.024": 0.0,
			"-0.023": 0.0,
			"-0.022": 0.0,
			"-0.021": 0.0,
			"-0.02": 0.0,
			"-0.019": 0.0,
			"-0.018": 0.0,
			"-0.017": 0.0,
			"-0.016": 0.0,
			"-0.015": 0.0,
			"-0.014": 0.0,
			"-0.013": 0.0,
			"-0.012": 0.837968121034,
			"-0.011": 0.673924301341,
			"-0.01": 1.39191018559,
			"-0.009": 1.83069642977,
			"-0.008": 2.56811758207,
			"-0.007": 12.7128171244,
			"-0.006": 18.8765316167,
			"-0.005": 24.817129482,
			"-0.004": 24.7992148457,
			"-0.003": 38.0051278966,
			"-0.002": 31.9139534462,
			"-0.001": 16.5645697703,
			"0.0": 8.93857315392,
			"0.001": 6.98181895896,
			"0.002": 7.38022623501,
			"0.003": 4.95477511801,
			"0.004": 5.7719301648,
			"0.005": 6.1468305838,
			"0.006": 6.79935489114,
			"0.007": 4.87896599145,
			"0.008": 6.07949343605,
			"0.009": 5.77186871361,
			"0.01": 8.40615419145,
			"0.011": 8.35403556986,
			"0.012": 8.75526220606,
			"0.013": 7.82539465837,
			"0.014": 2.57385675719,
			"0.015": 0.0560431707843,
			"0.016": 0.0,
			"0.017": 0.0,
			"0.018": 0.0,
			"0.019": 0.0,
			"0.02": 0.0,
			"0.021": 0.0,
			"0.022": 0.0,
			"0.023": 0.0,
			"0.024": 0.0,
			"0.025": 0.0
		}
	}
}
