{
	 "smiles": "CC1=CC=C2C=CC=C(O)C2=N1", 
	 "Tm": 346.05, 
	 "num_atms": 21, 
	 "gaussian": { 
		 "optdone": 1, 
		 "sigma_profile": "yes", 
		 "theory": "DFT", 
		 "functional": "B3LYP", 
		 "basiset": "6-31G**", 
		 "properties": { 
			 "R2extent": 2867.5815, 
			 "electric_dipole_moment_norm": 2.71213995583, 
			 "electric_quadrupole_moment_norm": 9.59892600607, 
			 "total_energy": -516.484980871, 
			 "HOMO_LUMO_gap": 0.15903, 
			 "cosmo_polarized_energy": -6.84, 
			 "cosmo_cavitation_energy": 24.48, 
			 "cosmo_dispersion_energy": -18.52, 
			 "cosmo_repulsion_energy": 1.46, 
			 "cosmo_total_nonelectrostatic_energy": 7.42, 
			 "SMD_solvation_energy": 3.54 
		},
		"coords": [
			{
				"x": -2.1120244089,
				"y": -2.2088230803,
				"z": -0.2334045227,
				"element": "C" 
			},
			{
				"x": -0.8618278568,
				"y": -1.490390441,
				"z": -0.6727893117,
				"element": "C" 
			},
			{
				"x": 0.4158900534,
				"y": -1.9044768627,
				"z": -0.1946383186,
				"element": "C" 
			},
			{
				"x": 1.5495592644,
				"y": -1.2429946138,
				"z": -0.6009786627,
				"element": "C" 
			},
			{
				"x": 1.4459735287,
				"y": -0.1466859884,
				"z": -1.4977051495,
				"element": "C" 
			},
			{
				"x": 2.541371657,
				"y": 0.610537023,
				"z": -1.9856906898,
				"element": "C" 
			},
			{
				"x": 2.3107789201,
				"y": 1.6566231003,
				"z": -2.8562740576,
				"element": "C" 
			},
			{
				"x": 1.0062086598,
				"y": 1.9998345079,
				"z": -3.2803217951,
				"element": "C" 
			},
			{
				"x": -0.077930782,
				"y": 1.2775501913,
				"z": -2.819241434,
				"element": "C" 
			},
			{
				"x": -1.3415972085,
				"y": 1.5673647308,
				"z": -3.1955415343,
				"element": "O" 
			},
			{
				"x": 0.1277628889,
				"y": 0.1881028504,
				"z": -1.9164684617,
				"element": "C" 
			},
			{
				"x": -0.9901368535,
				"y": -0.4736861466,
				"z": -1.5080653769,
				"element": "N" 
			},
			{
				"x": -2.2301988855,
				"y": -2.1654051281,
				"z": 0.8555868358,
				"element": "H" 
			},
			{
				"x": -2.0763883363,
				"y": -3.2687923778,
				"z": -0.5107913012,
				"element": "H" 
			},
			{
				"x": -2.9869961765,
				"y": -1.7532944408,
				"z": -0.699742657,
				"element": "H" 
			},
			{
				"x": 0.4793576333,
				"y": -2.7445815604,
				"z": 0.4907269723,
				"element": "H" 
			},
			{
				"x": 2.5293845543,
				"y": -1.5497201726,
				"z": -0.2430096428,
				"element": "H" 
			},
			{
				"x": 3.5494010099,
				"y": 0.3589031863,
				"z": -1.6689860911,
				"element": "H" 
			},
			{
				"x": 3.1484432957,
				"y": 2.2378491077,
				"z": -3.2312292124,
				"element": "H" 
			},
			{
				"x": 0.8414634711,
				"y": 2.8248757178,
				"z": -3.9650420413,
				"element": "H" 
			},
			{
				"x": -1.8969944286,
				"y": 0.9112103969,
				"z": -2.7282935476,
				"element": "H" 
			}
		],
		 "valence_orbital": [ 
			{
				"type": "occ",
				"energy": -0.32663,
				"method": "rhf"
			},
			{
				"type": "occ",
				"energy": -0.28976,
				"method": "rhf"
			},
			{
				"type": "occ",
				"energy": -0.26969,
				"method": "rhf"
			},
			{
				"type": "occ",
				"energy": -0.2467,
				"method": "rhf"
			},
			{
				"type": "occ",
				"energy": -0.20654,
				"method": "rhf"
			},
			{
				"type": "unocc",
				"energy": -0.04751,
				"method": "rhf"
			},
			{
				"type": "unocc",
				"energy": -0.01608,
				"method": "rhf"
			},
			{
				"type": "unocc",
				"energy": 0.03343,
				"method": "rhf"
			},
			{
				"type": "unocc",
				"energy": 0.08662,
				"method": "rhf"
			},
			{
				"type": "unocc",
				"energy": 0.09915,
				"method": "rhf"
			}
		],
		"cosmo_sigma_profile": { 
			"-0.025": 0.0,
			"-0.024": 0.0,
			"-0.023": 0.0,
			"-0.022": 0.0,
			"-0.021": 0.0,
			"-0.02": 0.0,
			"-0.019": 0.0,
			"-0.018": 0.0,
			"-0.017": 0.0,
			"-0.016": 0.0,
			"-0.015": 0.0,
			"-0.014": 0.0,
			"-0.013": 0.0,
			"-0.012": 0.0531266581817,
			"-0.011": 0.221260960083,
			"-0.01": 0.607281170882,
			"-0.009": 0.895544710265,
			"-0.008": 0.711149493212,
			"-0.007": 3.1749568813,
			"-0.006": 10.1403047876,
			"-0.005": 14.4379648923,
			"-0.004": 16.8548990546,
			"-0.003": 15.4367889227,
			"-0.002": 13.1756629385,
			"-0.001": 15.5699161312,
			"0.0": 13.0274731484,
			"0.001": 15.477383708,
			"0.002": 20.4940345156,
			"0.003": 17.8476496227,
			"0.004": 12.4965010811,
			"0.005": 10.1112617417,
			"0.006": 4.08641946659,
			"0.007": 3.21767193846,
			"0.008": 1.47830005475,
			"0.009": 1.45102223706,
			"0.01": 1.4794238221,
			"0.011": 2.27975835614,
			"0.012": 1.02240484248,
			"0.013": 0.0,
			"0.014": 0.0,
			"0.015": 0.0,
			"0.016": 0.0,
			"0.017": 0.0,
			"0.018": 0.0,
			"0.019": 0.0,
			"0.02": 0.0,
			"0.021": 0.0,
			"0.022": 0.0,
			"0.023": 0.0,
			"0.024": 0.0,
			"0.025": 0.0
		}
	}
}
