{
	 "smiles": "ClC(Cl)C(Cl)(Cl)Cl", 
	 "Tm": 244.25, 
	 "num_atms": 8, 
	 "gaussian": { 
		 "optdone": 1, 
		 "sigma_profile": "yes", 
		 "theory": "DFT", 
		 "functional": "B3LYP", 
		 "basiset": "6-31G**", 
		 "properties": { 
			 "R2extent": 1958.2943, 
			 "electric_dipole_moment_norm": 1.03203057125, 
			 "electric_quadrupole_moment_norm": 2.98570718424, 
			 "total_energy": -2377.74545915, 
			 "HOMO_LUMO_gap": 0.25653, 
			 "cosmo_polarized_energy": -3.96, 
			 "cosmo_cavitation_energy": 20.4, 
			 "cosmo_dispersion_energy": -15.6, 
			 "cosmo_repulsion_energy": 1.3, 
			 "cosmo_total_nonelectrostatic_energy": 6.1, 
			 "SMD_solvation_energy": 1.9 
		},
		"coords": [
			{
				"x": -1.0164663462,
				"y": -1.3222257553,
				"z": -0.9534556841,
				"element": "Cl" 
			},
			{
				"x": 0.0050002352,
				"y": 0.136190141,
				"z": -0.7777249744,
				"element": "C" 
			},
			{
				"x": 1.4517298388,
				"y": -0.2318243997,
				"z": 0.2086207583,
				"element": "Cl" 
			},
			{
				"x": -0.797439968,
				"y": 1.3493008778,
				"z": -0.2115274679,
				"element": "C" 
			},
			{
				"x": 0.2908230315,
				"y": 2.7834356918,
				"z": -0.184865599,
				"element": "Cl" 
			},
			{
				"x": -2.1577345125,
				"y": 1.7015486378,
				"z": -1.337363903,
				"element": "Cl" 
			},
			{
				"x": -1.4276751866,
				"y": 1.0307087786,
				"z": 1.4262959264,
				"element": "Cl" 
			},
			{
				"x": 0.3520629079,
				"y": 0.4107660279,
				"z": -1.7724790563,
				"element": "H" 
			}
		],
		 "valence_orbital": [ 
			{
				"type": "occ",
				"energy": -0.33855,
				"method": "rhf"
			},
			{
				"type": "occ",
				"energy": -0.33703,
				"method": "rhf"
			},
			{
				"type": "occ",
				"energy": -0.3269,
				"method": "rhf"
			},
			{
				"type": "occ",
				"energy": -0.32286,
				"method": "rhf"
			},
			{
				"type": "occ",
				"energy": -0.31251,
				"method": "rhf"
			},
			{
				"type": "unocc",
				"energy": -0.05598,
				"method": "rhf"
			},
			{
				"type": "unocc",
				"energy": -0.04039,
				"method": "rhf"
			},
			{
				"type": "unocc",
				"energy": -0.03916,
				"method": "rhf"
			},
			{
				"type": "unocc",
				"energy": 0.0009,
				"method": "rhf"
			},
			{
				"type": "unocc",
				"energy": 0.03316,
				"method": "rhf"
			}
		],
		"cosmo_sigma_profile": { 
			"-0.025": 0.0,
			"-0.024": 0.0,
			"-0.023": 0.0,
			"-0.022": 0.0,
			"-0.021": 0.0,
			"-0.02": 0.0,
			"-0.019": 0.0,
			"-0.018": 0.0,
			"-0.017": 0.0,
			"-0.016": 0.0,
			"-0.015": 0.0,
			"-0.014": 0.0,
			"-0.013": 0.87449395035,
			"-0.012": 2.0661544574,
			"-0.011": 2.0967790423,
			"-0.01": 1.280223969,
			"-0.009": 1.44549660852,
			"-0.008": 1.23308853818,
			"-0.007": 1.0355813394,
			"-0.006": 1.18772112352,
			"-0.005": 4.02013589165,
			"-0.004": 7.98558675484,
			"-0.003": 8.9410256858,
			"-0.002": 11.3120339144,
			"-0.001": 11.7282585888,
			"0.0": 15.6408585744,
			"0.001": 25.1861355668,
			"0.002": 40.7388302218,
			"0.003": 31.2392420272,
			"0.004": 5.74996178257,
			"0.005": 0.0,
			"0.006": 0.0,
			"0.007": 0.0,
			"0.008": 0.0,
			"0.009": 0.0,
			"0.01": 0.0,
			"0.011": 0.0,
			"0.012": 0.0,
			"0.013": 0.0,
			"0.014": 0.0,
			"0.015": 0.0,
			"0.016": 0.0,
			"0.017": 0.0,
			"0.018": 0.0,
			"0.019": 0.0,
			"0.02": 0.0,
			"0.021": 0.0,
			"0.022": 0.0,
			"0.023": 0.0,
			"0.024": 0.0,
			"0.025": 0.0
		}
	}
}
