{
	 "smiles": "CCCO[C@H]1CCC2C3CC[C@H]4C[C@H](CC[C@]4(C)C3CC[C@]12C)OCCC", 
	 "Tm": 397.15, 
	 "num_atms": 71, 
	 "gaussian": { 
		 "optdone": 1, 
		 "sigma_profile": "yes", 
		 "theory": "DFT", 
		 "functional": "B3LYP", 
		 "basiset": "6-31G**", 
		 "properties": { 
			 "R2extent": 17058.0889, 
			 "electric_dipole_moment_norm": 1.80031773307, 
			 "electric_quadrupole_moment_norm": 9.26728690556, 
			 "total_energy": -1129.64722711, 
			 "HOMO_LUMO_gap": 0.31026, 
			 "cosmo_polarized_energy": -7.31, 
			 "cosmo_cavitation_energy": 61.06, 
			 "cosmo_dispersion_energy": -41.4, 
			 "cosmo_repulsion_energy": 3.12, 
			 "cosmo_total_nonelectrostatic_energy": 22.78, 
			 "SMD_solvation_energy": 8.25 
		},
		"coords": [
			{
				"x": 7.4619761437,
				"y": 1.9097476924,
				"z": -0.8834650212,
				"element": "C" 
			},
			{
				"x": 5.9550860046,
				"y": 2.0838717428,
				"z": -0.6681157291,
				"element": "C" 
			},
			{
				"x": 5.625287016,
				"y": 2.6436288246,
				"z": 0.7182986179,
				"element": "C" 
			},
			{
				"x": 4.2318477441,
				"y": 2.857987456,
				"z": 0.9065715638,
				"element": "O" 
			},
			{
				"x": 3.5023454499,
				"y": 1.7363758776,
				"z": 1.383436472,
				"element": "C" 
			},
			{
				"x": 3.5354294481,
				"y": 1.5525631637,
				"z": 2.9082928086,
				"element": "C" 
			},
			{
				"x": 2.363188357,
				"y": 0.5940638247,
				"z": 3.1442195899,
				"element": "C" 
			},
			{
				"x": 1.2467407535,
				"y": 1.1279213213,
				"z": 2.2135470373,
				"element": "C" 
			},
			{
				"x": 0.2133862592,
				"y": 0.0781974009,
				"z": 1.7585628003,
				"element": "C" 
			},
			{
				"x": -0.607372623,
				"y": -0.483043989,
				"z": 2.9247504739,
				"element": "C" 
			},
			{
				"x": -1.6014825169,
				"y": -1.571369231,
				"z": 2.4578399571,
				"element": "C" 
			},
			{
				"x": -1.9599757444,
				"y": -1.4838809072,
				"z": 0.9567238649,
				"element": "C" 
			},
			{
				"x": -3.2041484219,
				"y": -2.3402879673,
				"z": 0.6559793108,
				"element": "C" 
			},
			{
				"x": -3.6106768589,
				"y": -2.3096579708,
				"z": -0.8159953206,
				"element": "C" 
			},
			{
				"x": -3.8020738441,
				"y": -0.862651253,
				"z": -1.2853463321,
				"element": "C" 
			},
			{
				"x": -2.5297454065,
				"y": -0.0368668366,
				"z": -1.0337365005,
				"element": "C" 
			},
			{
				"x": -2.0775137225,
				"y": -0.013726662,
				"z": 0.4526279298,
				"element": "C" 
			},
			{
				"x": -3.1375582715,
				"y": 0.7754458591,
				"z": 1.2605289102,
				"element": "C" 
			},
			{
				"x": -0.675387128,
				"y": 0.7074077133,
				"z": 0.6480138747,
				"element": "C" 
			},
			{
				"x": 0.1999213504,
				"y": 0.8818592477,
				"z": -0.62210471,
				"element": "C" 
			},
			{
				"x": 1.6996227622,
				"y": 1.0995337202,
				"z": -0.3057387858,
				"element": "C" 
			},
			{
				"x": 1.9850930325,
				"y": 1.8450096375,
				"z": 1.0141758597,
				"element": "C" 
			},
			{
				"x": 1.5638315034,
				"y": 3.3223259789,
				"z": 0.9052035595,
				"element": "C" 
			},
			{
				"x": -4.8139866398,
				"y": -3.0688650565,
				"z": -0.9457739539,
				"element": "O" 
			},
			{
				"x": -5.0387383083,
				"y": -3.6460872356,
				"z": -2.2274360367,
				"element": "C" 
			},
			{
				"x": -4.3911712062,
				"y": -5.0269640127,
				"z": -2.3769474583,
				"element": "C" 
			},
			{
				"x": -4.9188031228,
				"y": -6.0457802917,
				"z": -1.363115626,
				"element": "C" 
			},
			{
				"x": 7.8918955259,
				"y": 1.2100382301,
				"z": -0.1574291307,
				"element": "H" 
			},
			{
				"x": 7.6779256185,
				"y": 1.5220513766,
				"z": -1.8836953812,
				"element": "H" 
			},
			{
				"x": 7.9924914742,
				"y": 2.8629353452,
				"z": -0.7764597917,
				"element": "H" 
			},
			{
				"x": 5.5385729212,
				"y": 2.7642931542,
				"z": -1.4203700108,
				"element": "H" 
			},
			{
				"x": 5.4468547866,
				"y": 1.1209101832,
				"z": -0.8037434399,
				"element": "H" 
			},
			{
				"x": 6.0311875073,
				"y": 1.9851795054,
				"z": 1.5018087408,
				"element": "H" 
			},
			{
				"x": 6.1033080373,
				"y": 3.6228482768,
				"z": 0.8439200651,
				"element": "H" 
			},
			{
				"x": 3.9009069982,
				"y": 0.8184567473,
				"z": 0.9217646102,
				"element": "H" 
			},
			{
				"x": 4.4934351852,
				"y": 1.1731482755,
				"z": 3.2788997227,
				"element": "H" 
			},
			{
				"x": 3.3522370768,
				"y": 2.5211907087,
				"z": 3.3894534677,
				"element": "H" 
			},
			{
				"x": 2.0541118192,
				"y": 0.5443958538,
				"z": 4.1925905582,
				"element": "H" 
			},
			{
				"x": 2.6495120967,
				"y": -0.4246144302,
				"z": 2.846606534,
				"element": "H" 
			},
			{
				"x": 0.6920556127,
				"y": 1.8984009501,
				"z": 2.7684409768,
				"element": "H" 
			},
			{
				"x": 0.7627407954,
				"y": -0.7685445891,
				"z": 1.3174507899,
				"element": "H" 
			},
			{
				"x": -1.1412814784,
				"y": 0.3435333762,
				"z": 3.4108260457,
				"element": "H" 
			},
			{
				"x": 0.0609268984,
				"y": -0.8939011498,
				"z": 3.6897847404,
				"element": "H" 
			},
			{
				"x": -1.1847208998,
				"y": -2.5676353538,
				"z": 2.6504082052,
				"element": "H" 
			},
			{
				"x": -2.5192371954,
				"y": -1.5125215297,
				"z": 3.0556477371,
				"element": "H" 
			},
			{
				"x": -1.1255751847,
				"y": -1.9269443531,
				"z": 0.3906533957,
				"element": "H" 
			},
			{
				"x": -4.0591060096,
				"y": -1.994414434,
				"z": 1.2508493322,
				"element": "H" 
			},
			{
				"x": -3.0208787654,
				"y": -3.3784162561,
				"z": 0.9591566414,
				"element": "H" 
			},
			{
				"x": -2.8092594964,
				"y": -2.7746141634,
				"z": -1.4153308395,
				"element": "H" 
			},
			{
				"x": -4.0458703398,
				"y": -0.8389384991,
				"z": -2.3544750282,
				"element": "H" 
			},
			{
				"x": -4.6679835396,
				"y": -0.4442891118,
				"z": -0.7600093695,
				"element": "H" 
			},
			{
				"x": -2.6747894024,
				"y": 0.9895736617,
				"z": -1.3928857399,
				"element": "H" 
			},
			{
				"x": -1.7363143244,
				"y": -0.4672461017,
				"z": -1.6540780614,
				"element": "H" 
			},
			{
				"x": -3.2584402976,
				"y": 1.778682559,
				"z": 0.8356678974,
				"element": "H" 
			},
			{
				"x": -4.1196238606,
				"y": 0.295474744,
				"z": 1.247867787,
				"element": "H" 
			},
			{
				"x": -2.8508761381,
				"y": 0.9008369047,
				"z": 2.3071967164,
				"element": "H" 
			},
			{
				"x": -0.9182958542,
				"y": 1.7190633886,
				"z": 0.9990430212,
				"element": "H" 
			},
			{
				"x": -0.1891740999,
				"y": 1.7095482715,
				"z": -1.2251793574,
				"element": "H" 
			},
			{
				"x": 0.1361381759,
				"y": -0.0085982585,
				"z": -1.2563545361,
				"element": "H" 
			},
			{
				"x": 2.1854011642,
				"y": 1.6246584051,
				"z": -1.1372931731,
				"element": "H" 
			},
			{
				"x": 2.1867499369,
				"y": 0.1179746415,
				"z": -0.2503766192,
				"element": "H" 
			},
			{
				"x": 2.1116207025,
				"y": 3.825113037,
				"z": 0.1046153566,
				"element": "H" 
			},
			{
				"x": 0.4920639325,
				"y": 3.4088399447,
				"z": 0.7014084623,
				"element": "H" 
			},
			{
				"x": 1.7685727257,
				"y": 3.8642678251,
				"z": 1.8344209529,
				"element": "H" 
			},
			{
				"x": -4.6906123262,
				"y": -2.9746652675,
				"z": -3.0262955252,
				"element": "H" 
			},
			{
				"x": -6.1273765251,
				"y": -3.7352092829,
				"z": -2.3316193584,
				"element": "H" 
			},
			{
				"x": -4.5721123063,
				"y": -5.3800002587,
				"z": -3.4013620559,
				"element": "H" 
			},
			{
				"x": -3.3023074467,
				"y": -4.9288015169,
				"z": -2.2755718518,
				"element": "H" 
			},
			{
				"x": -4.4058207882,
				"y": -7.0081387289,
				"z": -1.4582363707,
				"element": "H" 
			},
			{
				"x": -5.9914358204,
				"y": -6.2229018695,
				"z": -1.50453291,
				"element": "H" 
			},
			{
				"x": -4.7756389017,
				"y": -5.6783782585,
				"z": -0.3431803626,
				"element": "H" 
			}
		],
		 "valence_orbital": [ 
			{
				"type": "occ",
				"energy": -0.27673,
				"method": "rhf"
			},
			{
				"type": "occ",
				"energy": -0.27016,
				"method": "rhf"
			},
			{
				"type": "occ",
				"energy": -0.26559,
				"method": "rhf"
			},
			{
				"type": "occ",
				"energy": -0.23809,
				"method": "rhf"
			},
			{
				"type": "occ",
				"energy": -0.23767,
				"method": "rhf"
			},
			{
				"type": "unocc",
				"energy": 0.07259,
				"method": "rhf"
			},
			{
				"type": "unocc",
				"energy": 0.07802,
				"method": "rhf"
			},
			{
				"type": "unocc",
				"energy": 0.08293,
				"method": "rhf"
			},
			{
				"type": "unocc",
				"energy": 0.08952,
				"method": "rhf"
			},
			{
				"type": "unocc",
				"energy": 0.09288,
				"method": "rhf"
			}
		],
		"cosmo_sigma_profile": { 
			"-0.025": 0.0,
			"-0.024": 0.0,
			"-0.023": 0.0,
			"-0.022": 0.0,
			"-0.021": 0.0,
			"-0.02": 0.0,
			"-0.019": 0.0,
			"-0.018": 0.0,
			"-0.017": 0.0,
			"-0.016": 0.0,
			"-0.015": 0.0,
			"-0.014": 0.0,
			"-0.013": 0.0,
			"-0.012": 0.0,
			"-0.011": 0.0,
			"-0.01": 0.0,
			"-0.009": 0.0,
			"-0.008": 0.0,
			"-0.007": 0.0,
			"-0.006": 0.0,
			"-0.005": 0.0,
			"-0.004": 3.12491704805,
			"-0.003": 41.5255975757,
			"-0.002": 87.4395413994,
			"-0.001": 99.687110438,
			"0.0": 86.6561691976,
			"0.001": 67.9151089994,
			"0.002": 39.488256115,
			"0.003": 8.33829932285,
			"0.004": 4.96198428673,
			"0.005": 4.13793237008,
			"0.006": 3.58201882942,
			"0.007": 2.92686832818,
			"0.008": 3.40601663435,
			"0.009": 2.93464157578,
			"0.01": 2.43184162169,
			"0.011": 2.1903222659,
			"0.012": 1.75286857422,
			"0.013": 1.65026410692,
			"0.014": 0.93530681619,
			"0.015": 0.160008365519,
			"0.016": 0.0,
			"0.017": 0.0,
			"0.018": 0.0,
			"0.019": 0.0,
			"0.02": 0.0,
			"0.021": 0.0,
			"0.022": 0.0,
			"0.023": 0.0,
			"0.024": 0.0,
			"0.025": 0.0
		}
	}
}
