{
	 "smiles": "CC(C)(C)OC(=O)NNC(=O)OC(C)(C)C", 
	 "Tm": 397.15, 
	 "num_atms": 36, 
	 "gaussian": { 
		 "optdone": 1, 
		 "sigma_profile": "yes", 
		 "theory": "DFT", 
		 "functional": "B3LYP", 
		 "basiset": "6-31G**", 
		 "properties": { 
			 "R2extent": 5112.5822, 
			 "electric_dipole_moment_norm": 3.75962165783, 
			 "electric_quadrupole_moment_norm": 11.5608867177, 
			 "total_energy": -803.558141004, 
			 "HOMO_LUMO_gap": 0.29615, 
			 "cosmo_polarized_energy": -13.29, 
			 "cosmo_cavitation_energy": 38.1, 
			 "cosmo_dispersion_energy": -24.95, 
			 "cosmo_repulsion_energy": 1.97, 
			 "cosmo_total_nonelectrostatic_energy": 15.12, 
			 "SMD_solvation_energy": 8.77 
		},
		"coords": [
			{
				"x": -3.3830542281,
				"y": -0.093911697,
				"z": 3.8207350008,
				"element": "C" 
			},
			{
				"x": -2.3544240831,
				"y": 0.8555905171,
				"z": 3.1987141134,
				"element": "C" 
			},
			{
				"x": -2.6419304263,
				"y": 2.3065860092,
				"z": 3.5908754452,
				"element": "C" 
			},
			{
				"x": -0.915520175,
				"y": 0.4675382264,
				"z": 3.5532595209,
				"element": "C" 
			},
			{
				"x": -2.5191121324,
				"y": 0.8817930067,
				"z": 1.7332251383,
				"element": "O" 
			},
			{
				"x": -2.3664242726,
				"y": -0.2377014338,
				"z": 0.9990876859,
				"element": "C" 
			},
			{
				"x": -2.0471650572,
				"y": -1.3445338005,
				"z": 1.3851007161,
				"element": "O" 
			},
			{
				"x": -2.6849893612,
				"y": 0.0606457439,
				"z": -0.3197048022,
				"element": "N" 
			},
			{
				"x": -2.3484044853,
				"y": -0.834668149,
				"z": -1.3177376848,
				"element": "N" 
			},
			{
				"x": -1.0326497437,
				"y": -1.2413028229,
				"z": -1.54090376,
				"element": "C" 
			},
			{
				"x": -0.7816867187,
				"y": -2.2519674524,
				"z": -2.1674889592,
				"element": "O" 
			},
			{
				"x": -0.1678115196,
				"y": -0.3440214599,
				"z": -1.0435252046,
				"element": "O" 
			},
			{
				"x": 1.2858698133,
				"y": -0.5961453715,
				"z": -1.0918471979,
				"element": "C" 
			},
			{
				"x": 1.7586829263,
				"y": -0.6288815149,
				"z": -2.5482546528,
				"element": "C" 
			},
			{
				"x": 1.6097009029,
				"y": -1.8903588705,
				"z": -0.3392047303,
				"element": "C" 
			},
			{
				"x": 1.8559605426,
				"y": 0.6199052659,
				"z": -0.3582665482,
				"element": "C" 
			},
			{
				"x": -4.395029913,
				"y": 0.1862220185,
				"z": 3.5118392258,
				"element": "H" 
			},
			{
				"x": -3.3303835472,
				"y": -0.0268859702,
				"z": 4.9121423369,
				"element": "H" 
			},
			{
				"x": -3.1942738141,
				"y": -1.1258346853,
				"z": 3.5230976671,
				"element": "H" 
			},
			{
				"x": -2.5500960479,
				"y": 2.4271299694,
				"z": 4.6742950535,
				"element": "H" 
			},
			{
				"x": -3.6550205872,
				"y": 2.5935507037,
				"z": 3.2947458848,
				"element": "H" 
			},
			{
				"x": -1.9348468532,
				"y": 2.9856570395,
				"z": 3.1056046062,
				"element": "H" 
			},
			{
				"x": -0.7030622977,
				"y": -0.5595194221,
				"z": 3.2553616384,
				"element": "H" 
			},
			{
				"x": -0.2078186216,
				"y": 1.1375205252,
				"z": 3.0545213329,
				"element": "H" 
			},
			{
				"x": -0.7663424143,
				"y": 0.560138054,
				"z": 4.633888834,
				"element": "H" 
			},
			{
				"x": -2.6767336256,
				"y": 1.0360806077,
				"z": -0.5845300764,
				"element": "H" 
			},
			{
				"x": -3.0134885334,
				"y": -1.5836925423,
				"z": -1.4601564528,
				"element": "H" 
			},
			{
				"x": 1.3244914782,
				"y": -1.4760411409,
				"z": -3.0795679516,
				"element": "H" 
			},
			{
				"x": 2.8498836701,
				"y": -0.7140873394,
				"z": -2.5768587956,
				"element": "H" 
			},
			{
				"x": 1.4766707831,
				"y": 0.2957287824,
				"z": -3.061924248,
				"element": "H" 
			},
			{
				"x": 1.220462439,
				"y": -2.7607316604,
				"z": -0.8680441338,
				"element": "H" 
			},
			{
				"x": 1.1699572092,
				"y": -1.8633282056,
				"z": 0.6622310295,
				"element": "H" 
			},
			{
				"x": 2.6950116891,
				"y": -1.9936120783,
				"z": -0.23911153,
				"element": "H" 
			},
			{
				"x": 1.4858202774,
				"y": 0.6585789178,
				"z": 0.6703699253,
				"element": "H" 
			},
			{
				"x": 1.5696195209,
				"y": 1.5464386517,
				"z": -0.8645915083,
				"element": "H" 
			},
			{
				"x": 2.9481372062,
				"y": 0.5631215783,
				"z": -0.3319769185,
				"element": "H" 
			}
		],
		 "valence_orbital": [ 
			{
				"type": "occ",
				"energy": -0.29222,
				"method": "rhf"
			},
			{
				"type": "occ",
				"energy": -0.29075,
				"method": "rhf"
			},
			{
				"type": "occ",
				"energy": -0.2766,
				"method": "rhf"
			},
			{
				"type": "occ",
				"energy": -0.27193,
				"method": "rhf"
			},
			{
				"type": "occ",
				"energy": -0.25626,
				"method": "rhf"
			},
			{
				"type": "unocc",
				"energy": 0.03989,
				"method": "rhf"
			},
			{
				"type": "unocc",
				"energy": 0.04752,
				"method": "rhf"
			},
			{
				"type": "unocc",
				"energy": 0.0722,
				"method": "rhf"
			},
			{
				"type": "unocc",
				"energy": 0.08702,
				"method": "rhf"
			},
			{
				"type": "unocc",
				"energy": 0.08981,
				"method": "rhf"
			}
		],
		"cosmo_sigma_profile": { 
			"-0.025": 0.0,
			"-0.024": 0.0,
			"-0.023": 0.0,
			"-0.022": 0.0,
			"-0.021": 0.0,
			"-0.02": 0.0,
			"-0.019": 0.0,
			"-0.018": 0.0,
			"-0.017": 0.0,
			"-0.016": 0.0,
			"-0.015": 0.631003116138,
			"-0.014": 2.01653753506,
			"-0.013": 1.62759650371,
			"-0.012": 2.1858577078,
			"-0.011": 1.37964607698,
			"-0.01": 0.517683211873,
			"-0.009": 2.12369633807,
			"-0.008": 1.42487003821,
			"-0.007": 1.37164649204,
			"-0.006": 1.2383549735,
			"-0.005": 5.34055306456,
			"-0.004": 24.4594759966,
			"-0.003": 29.8813385332,
			"-0.002": 31.8144732026,
			"-0.001": 35.3749398071,
			"0.0": 51.6648363778,
			"0.001": 29.6320758886,
			"0.002": 11.1941771661,
			"0.003": 10.5380139792,
			"0.004": 10.0458238459,
			"0.005": 8.60823734825,
			"0.006": 8.12359008395,
			"0.007": 4.26100491619,
			"0.008": 2.44122648474,
			"0.009": 2.73185698248,
			"0.01": 2.86056627533,
			"0.011": 3.33622142527,
			"0.012": 5.73515849846,
			"0.013": 3.13948047717,
			"0.014": 0.0163209930974,
			"0.015": 0.0,
			"0.016": 0.0,
			"0.017": 0.0,
			"0.018": 0.0,
			"0.019": 0.0,
			"0.02": 0.0,
			"0.021": 0.0,
			"0.022": 0.0,
			"0.023": 0.0,
			"0.024": 0.0,
			"0.025": 0.0
		}
	}
}
