{
	 "smiles": "CC1=CC=C(C=C1)C1=C(C(=NO1)C(=O)C1=CC=C(C=C1)[N+]([O-])=O)S(=O)(=O)C1=CC=CC=C1", 
	 "Tm": 499.15, 
	 "num_atms": 48, 
	 "gaussian": { 
		 "optdone": 1, 
		 "sigma_profile": "yes", 
		 "theory": "DFT", 
		 "functional": "B3LYP", 
		 "basiset": "6-31G**", 
		 "properties": { 
			 "R2extent": 18324.3991, 
			 "electric_dipole_moment_norm": 8.67286223862, 
			 "electric_quadrupole_moment_norm": 23.385370451, 
			 "total_energy": -1844.90131727, 
			 "HOMO_LUMO_gap": 0.13934, 
			 "cosmo_polarized_energy": -19.16, 
			 "cosmo_cavitation_energy": 55.77, 
			 "cosmo_dispersion_energy": -38.11, 
			 "cosmo_repulsion_energy": 2.8, 
			 "cosmo_total_nonelectrostatic_energy": 20.46, 
			 "SMD_solvation_energy": 11.16 
		},
		"coords": [
			{
				"x": -3.146251825,
				"y": -2.4679552279,
				"z": 5.7822290975,
				"element": "C" 
			},
			{
				"x": -2.6298521315,
				"y": -2.1208675853,
				"z": 4.4077655052,
				"element": "C" 
			},
			{
				"x": -2.1592726051,
				"y": -3.119835747,
				"z": 3.5419292273,
				"element": "C" 
			},
			{
				"x": -1.6586004379,
				"y": -2.8048648586,
				"z": 2.2851218145,
				"element": "C" 
			},
			{
				"x": -1.6072015858,
				"y": -1.4647605812,
				"z": 1.8538368173,
				"element": "C" 
			},
			{
				"x": -2.0860351745,
				"y": -0.4579609072,
				"z": 2.7084789839,
				"element": "C" 
			},
			{
				"x": -2.5878101457,
				"y": -0.7929006745,
				"z": 3.9636109682,
				"element": "C" 
			},
			{
				"x": -1.0880285488,
				"y": -1.1824545517,
				"z": 0.5136323421,
				"element": "C" 
			},
			{
				"x": -0.4104529298,
				"y": -0.1574758859,
				"z": -0.1251356561,
				"element": "C" 
			},
			{
				"x": -0.1844719297,
				"y": -0.6523425823,
				"z": -1.4488074265,
				"element": "C" 
			},
			{
				"x": -0.6907959029,
				"y": -1.8503489001,
				"z": -1.611446016,
				"element": "N" 
			},
			{
				"x": -1.2543002087,
				"y": -2.1850692975,
				"z": -0.3789912915,
				"element": "O" 
			},
			{
				"x": 0.636749894,
				"y": -0.0591199069,
				"z": -2.5769369547,
				"element": "C" 
			},
			{
				"x": 1.8464161957,
				"y": 0.0085094305,
				"z": -2.4422627703,
				"element": "O" 
			},
			{
				"x": -0.0495482439,
				"y": 0.3730546577,
				"z": -3.8268506809,
				"element": "C" 
			},
			{
				"x": 0.7397985079,
				"y": 0.9376651488,
				"z": -4.843104489,
				"element": "C" 
			},
			{
				"x": 0.1580251459,
				"y": 1.3644152982,
				"z": -6.0290380704,
				"element": "C" 
			},
			{
				"x": -1.2210732892,
				"y": 1.2171605866,
				"z": -6.1828683524,
				"element": "C" 
			},
			{
				"x": -2.0289777516,
				"y": 0.6618717755,
				"z": -5.1943776476,
				"element": "C" 
			},
			{
				"x": -1.434277842,
				"y": 0.2394952002,
				"z": -4.0083369694,
				"element": "C" 
			},
			{
				"x": -1.847633187,
				"y": 1.6668377489,
				"z": -7.4419329604,
				"element": "N" 
			},
			{
				"x": -1.1122990098,
				"y": 2.1513579134,
				"z": -8.2998903,
				"element": "O" 
			},
			{
				"x": -3.0641259315,
				"y": 1.5273407246,
				"z": -7.5527772472,
				"element": "O" 
			},
			{
				"x": 0.1245780376,
				"y": 1.4544655862,
				"z": 0.4239856099,
				"element": "S" 
			},
			{
				"x": -0.8837899612,
				"y": 2.0096278132,
				"z": 1.3405240763,
				"element": "O" 
			},
			{
				"x": 0.4769193392,
				"y": 2.170854657,
				"z": -0.8093912059,
				"element": "O" 
			},
			{
				"x": 1.6163431738,
				"y": 1.1425626687,
				"z": 1.3737288176,
				"element": "C" 
			},
			{
				"x": 2.7763872365,
				"y": 0.73340381,
				"z": 0.70876446,
				"element": "C" 
			},
			{
				"x": 3.9307395608,
				"y": 0.5146819386,
				"z": 1.4592526009,
				"element": "C" 
			},
			{
				"x": 3.9196679369,
				"y": 0.7099918063,
				"z": 2.8435552495,
				"element": "C" 
			},
			{
				"x": 2.753123042,
				"y": 1.1237874571,
				"z": 3.4894279843,
				"element": "C" 
			},
			{
				"x": 1.5867833513,
				"y": 1.3425009683,
				"z": 2.7547350275,
				"element": "C" 
			},
			{
				"x": -3.6609146894,
				"y": -3.4335050375,
				"z": 5.7846267276,
				"element": "H" 
			},
			{
				"x": -2.3224748055,
				"y": -2.5379329186,
				"z": 6.5037278948,
				"element": "H" 
			},
			{
				"x": -3.8407963639,
				"y": -1.7088240925,
				"z": 6.1526029968,
				"element": "H" 
			},
			{
				"x": -2.1865052975,
				"y": -4.1593324332,
				"z": 3.858074516,
				"element": "H" 
			},
			{
				"x": -1.3001242032,
				"y": -3.5925422752,
				"z": 1.6316404831,
				"element": "H" 
			},
			{
				"x": -2.080573818,
				"y": 0.5744061226,
				"z": 2.3825684786,
				"element": "H" 
			},
			{
				"x": -2.9647355888,
				"y": -0.002757741,
				"z": 4.6076930309,
				"element": "H" 
			},
			{
				"x": 1.8069146184,
				"y": 1.034244332,
				"z": -4.6781529747,
				"element": "H" 
			},
			{
				"x": 0.7401423648,
				"y": 1.8049071443,
				"z": -6.8284315781,
				"element": "H" 
			},
			{
				"x": -3.0940220206,
				"y": 0.56969744,
				"z": -5.3642572842,
				"element": "H" 
			},
			{
				"x": -2.0462133021,
				"y": -0.2029532543,
				"z": -3.2314134248,
				"element": "H" 
			},
			{
				"x": 2.770500022,
				"y": 0.5821034411,
				"z": -0.3661450214,
				"element": "H" 
			},
			{
				"x": 4.8409494526,
				"y": 0.1951894522,
				"z": 0.9611428805,
				"element": "H" 
			},
			{
				"x": 4.8246631241,
				"y": 0.5405485546,
				"z": 3.4196736104,
				"element": "H" 
			},
			{
				"x": 2.7491776238,
				"y": 1.2794065092,
				"z": 4.5639195646,
				"element": "H" 
			},
			{
				"x": 0.6708801028,
				"y": 1.6732162725,
				"z": 3.230799556,
				"element": "H" 
			}
		],
		 "valence_orbital": [ 
			{
				"type": "occ",
				"energy": -0.28542,
				"method": "rhf"
			},
			{
				"type": "occ",
				"energy": -0.27723,
				"method": "rhf"
			},
			{
				"type": "occ",
				"energy": -0.2738,
				"method": "rhf"
			},
			{
				"type": "occ",
				"energy": -0.26972,
				"method": "rhf"
			},
			{
				"type": "occ",
				"energy": -0.25038,
				"method": "rhf"
			},
			{
				"type": "unocc",
				"energy": -0.11104,
				"method": "rhf"
			},
			{
				"type": "unocc",
				"energy": -0.07141,
				"method": "rhf"
			},
			{
				"type": "unocc",
				"energy": -0.05932,
				"method": "rhf"
			},
			{
				"type": "unocc",
				"energy": -0.04505,
				"method": "rhf"
			},
			{
				"type": "unocc",
				"energy": -0.03471,
				"method": "rhf"
			}
		],
		"cosmo_sigma_profile": { 
			"-0.025": 0.0,
			"-0.024": 0.0,
			"-0.023": 0.0,
			"-0.022": 0.0,
			"-0.021": 0.0,
			"-0.02": 0.0,
			"-0.019": 0.0,
			"-0.018": 0.0,
			"-0.017": 0.0,
			"-0.016": 0.0,
			"-0.015": 0.0,
			"-0.014": 0.0,
			"-0.013": 0.0,
			"-0.012": 0.0,
			"-0.011": 0.0,
			"-0.01": 0.0,
			"-0.009": 0.942111466991,
			"-0.008": 6.4791276146,
			"-0.007": 16.5044402667,
			"-0.006": 22.417693623,
			"-0.005": 31.1485017961,
			"-0.004": 32.5511121574,
			"-0.003": 33.7217506401,
			"-0.002": 37.958404853,
			"-0.001": 43.6027982157,
			"0.0": 43.7469123764,
			"0.001": 29.3704938308,
			"0.002": 29.0211002069,
			"0.003": 30.6457366552,
			"0.004": 16.5377712602,
			"0.005": 11.5934572602,
			"0.006": 12.1171094006,
			"0.007": 15.6558559149,
			"0.008": 13.2941886112,
			"0.009": 9.16664021891,
			"0.01": 6.72548581136,
			"0.011": 6.56128207803,
			"0.012": 0.609544169683,
			"0.013": 0.0,
			"0.014": 0.0,
			"0.015": 0.0,
			"0.016": 0.0,
			"0.017": 0.0,
			"0.018": 0.0,
			"0.019": 0.0,
			"0.02": 0.0,
			"0.021": 0.0,
			"0.022": 0.0,
			"0.023": 0.0,
			"0.024": 0.0,
			"0.025": 0.0
		}
	}
}
