{
	 "smiles": "OC(=O)C1=CC=CC=C1C1=CC=CC=C1", 
	 "Tm": 387.15, 
	 "num_atms": 25, 
	 "gaussian": { 
		 "optdone": 1, 
		 "sigma_profile": "yes", 
		 "theory": "DFT", 
		 "functional": "B3LYP", 
		 "basiset": "6-31G**", 
		 "properties": { 
			 "R2extent": 3715.4332, 
			 "electric_dipole_moment_norm": 1.90841966559, 
			 "electric_quadrupole_moment_norm": 11.0395759959, 
			 "total_energy": -651.875742537, 
			 "HOMO_LUMO_gap": 0.18724, 
			 "cosmo_polarized_energy": -10.81, 
			 "cosmo_cavitation_energy": 29.36, 
			 "cosmo_dispersion_energy": -21.0, 
			 "cosmo_repulsion_energy": 1.65, 
			 "cosmo_total_nonelectrostatic_energy": 10.01, 
			 "SMD_solvation_energy": 6.01 
		},
		"coords": [
			{
				"x": 0.485852859,
				"y": -1.4431033718,
				"z": -3.1895283925,
				"element": "O" 
			},
			{
				"x": 1.7178995547,
				"y": -1.4471709926,
				"z": -2.6329185702,
				"element": "C" 
			},
			{
				"x": 2.7245713828,
				"y": -1.5739986039,
				"z": -3.3037414277,
				"element": "O" 
			},
			{
				"x": 1.7141580152,
				"y": -1.3615251344,
				"z": -1.1402040226,
				"element": "C" 
			},
			{
				"x": 2.7979512733,
				"y": -1.9966947445,
				"z": -0.5137424532,
				"element": "C" 
			},
			{
				"x": 2.8800784486,
				"y": -2.0806448629,
				"z": 0.8717966919,
				"element": "C" 
			},
			{
				"x": 1.870595742,
				"y": -1.5137443694,
				"z": 1.6510194724,
				"element": "C" 
			},
			{
				"x": 0.8085743505,
				"y": -0.8512673688,
				"z": 1.0391674353,
				"element": "C" 
			},
			{
				"x": 0.7057039685,
				"y": -0.7490178046,
				"z": -0.3584613834,
				"element": "C" 
			},
			{
				"x": -0.416062811,
				"y": 0.061454377,
				"z": -0.912713336,
				"element": "C" 
			},
			{
				"x": -1.7398499993,
				"y": -0.2110708334,
				"z": -0.5373397777,
				"element": "C" 
			},
			{
				"x": -2.7902102075,
				"y": 0.5818388535,
				"z": -1.0010166717,
				"element": "C" 
			},
			{
				"x": -2.5322832938,
				"y": 1.6675276647,
				"z": -1.838809331,
				"element": "C" 
			},
			{
				"x": -1.2167521741,
				"y": 1.954273999,
				"z": -2.2110889974,
				"element": "C" 
			},
			{
				"x": -0.1687026054,
				"y": 1.1584357038,
				"z": -1.7529508726,
				"element": "C" 
			},
			{
				"x": 0.631241346,
				"y": -1.5181765401,
				"z": -4.1476007475,
				"element": "H" 
			},
			{
				"x": 3.5622350923,
				"y": -2.436461931,
				"z": -1.145286179,
				"element": "H" 
			},
			{
				"x": 3.7202562485,
				"y": -2.5856339846,
				"z": 1.3384920022,
				"element": "H" 
			},
			{
				"x": 1.9172471178,
				"y": -1.5703122234,
				"z": 2.7348723746,
				"element": "H" 
			},
			{
				"x": 0.050158093,
				"y": -0.3704769591,
				"z": 1.6495405752,
				"element": "H" 
			},
			{
				"x": -1.9457458576,
				"y": -1.0611312632,
				"z": 0.1069241857,
				"element": "H" 
			},
			{
				"x": -3.8101261464,
				"y": 0.348963466,
				"z": -0.7081769948,
				"element": "H" 
			},
			{
				"x": -3.3488673854,
				"y": 2.2878326587,
				"z": -2.1969315217,
				"element": "H" 
			},
			{
				"x": -1.0055654619,
				"y": 2.803697138,
				"z": -2.8546416659,
				"element": "H" 
			},
			{
				"x": 0.8535424502,
				"y": 1.395907127,
				"z": -2.0336603925,
				"element": "H" 
			}
		],
		 "valence_orbital": [ 
			{
				"type": "occ",
				"energy": -0.27765,
				"method": "rhf"
			},
			{
				"type": "occ",
				"energy": -0.27063,
				"method": "rhf"
			},
			{
				"type": "occ",
				"energy": -0.25793,
				"method": "rhf"
			},
			{
				"type": "occ",
				"energy": -0.25023,
				"method": "rhf"
			},
			{
				"type": "occ",
				"energy": -0.23421,
				"method": "rhf"
			},
			{
				"type": "unocc",
				"energy": -0.04697,
				"method": "rhf"
			},
			{
				"type": "unocc",
				"energy": -0.01969,
				"method": "rhf"
			},
			{
				"type": "unocc",
				"energy": -0.00115,
				"method": "rhf"
			},
			{
				"type": "unocc",
				"energy": 0.01234,
				"method": "rhf"
			},
			{
				"type": "unocc",
				"energy": 0.04869,
				"method": "rhf"
			}
		],
		"cosmo_sigma_profile": { 
			"-0.025": 0.0,
			"-0.024": 0.0,
			"-0.023": 0.0,
			"-0.022": 0.0,
			"-0.021": 0.0,
			"-0.02": 0.0,
			"-0.019": 0.026782420649,
			"-0.018": 0.80196662822,
			"-0.017": 0.788478855656,
			"-0.016": 0.333179719031,
			"-0.015": 1.44516485548,
			"-0.014": 0.53861253674,
			"-0.013": 0.752593678867,
			"-0.012": 0.189282837354,
			"-0.011": 0.708024927712,
			"-0.01": 0.759884811076,
			"-0.009": 0.572888141279,
			"-0.008": 0.800105032788,
			"-0.007": 2.44498675979,
			"-0.006": 12.731306337,
			"-0.005": 20.0475006779,
			"-0.004": 21.4755925754,
			"-0.003": 17.7343586381,
			"-0.002": 16.1607464315,
			"-0.001": 14.8279151072,
			"0.0": 13.275549909,
			"0.001": 14.8188018158,
			"0.002": 18.144216338,
			"0.003": 18.4461128872,
			"0.004": 17.7308207157,
			"0.005": 10.5963289416,
			"0.006": 6.8662763555,
			"0.007": 4.4228451246,
			"0.008": 3.8190724969,
			"0.009": 2.95420038791,
			"0.01": 2.91535537639,
			"0.011": 3.12034100337,
			"0.012": 4.59104959421,
			"0.013": 0.344583226092,
			"0.014": 0.0,
			"0.015": 0.0,
			"0.016": 0.0,
			"0.017": 0.0,
			"0.018": 0.0,
			"0.019": 0.0,
			"0.02": 0.0,
			"0.021": 0.0,
			"0.022": 0.0,
			"0.023": 0.0,
			"0.024": 0.0,
			"0.025": 0.0
		}
	}
}
