{
	 "smiles": "CNS(=O)(=O)C1=C(CN)C=CC=C1", 
	 "Tm": 389.15, 
	 "num_atms": 25, 
	 "gaussian": { 
		 "optdone": 1, 
		 "sigma_profile": "yes", 
		 "theory": "DFT", 
		 "functional": "B3LYP", 
		 "basiset": "6-31G**", 
		 "properties": { 
			 "R2extent": 2752.8937, 
			 "electric_dipole_moment_norm": 4.43278226964, 
			 "electric_quadrupole_moment_norm": 17.0376285703, 
			 "total_energy": -970.145810126, 
			 "HOMO_LUMO_gap": 0.19051, 
			 "cosmo_polarized_energy": -16.27, 
			 "cosmo_cavitation_energy": 28.68, 
			 "cosmo_dispersion_energy": -21.03, 
			 "cosmo_repulsion_energy": 1.62, 
			 "cosmo_total_nonelectrostatic_energy": 9.27, 
			 "SMD_solvation_energy": 3.13 
		},
		"coords": [
			{
				"x": -2.5135618796,
				"y": 0.0877454888,
				"z": 0.0027114164,
				"element": "C" 
			},
			{
				"x": -1.4075283131,
				"y": -0.8796385498,
				"z": 0.0868287684,
				"element": "N" 
			},
			{
				"x": -0.5059406983,
				"y": -1.1186979051,
				"z": -1.3419838005,
				"element": "S" 
			},
			{
				"x": -1.3456025275,
				"y": -0.8485187271,
				"z": -2.5163138843,
				"element": "O" 
			},
			{
				"x": 0.1217304503,
				"y": -2.4334470809,
				"z": -1.1686864859,
				"element": "O" 
			},
			{
				"x": 0.7280267219,
				"y": 0.1931999085,
				"z": -1.2508754845,
				"element": "C" 
			},
			{
				"x": 1.7256680007,
				"y": 0.2287476971,
				"z": -0.2533260479,
				"element": "C" 
			},
			{
				"x": 1.8258271887,
				"y": -0.7379154849,
				"z": 0.9235781983,
				"element": "C" 
			},
			{
				"x": 1.0532227762,
				"y": -0.3458373566,
				"z": 2.1096406288,
				"element": "N" 
			},
			{
				"x": 2.656845868,
				"y": 1.2737527676,
				"z": -0.3369655245,
				"element": "C" 
			},
			{
				"x": 2.6057417276,
				"y": 2.2364578496,
				"z": -1.3450921589,
				"element": "C" 
			},
			{
				"x": 1.6081370574,
				"y": 2.1767332287,
				"z": -2.3169291598,
				"element": "C" 
			},
			{
				"x": 0.6687137524,
				"y": 1.1480421976,
				"z": -2.2709747692,
				"element": "C" 
			},
			{
				"x": -2.1037879201,
				"y": 1.0831397292,
				"z": -0.1865060745,
				"element": "H" 
			},
			{
				"x": -3.2384037099,
				"y": -0.1502293554,
				"z": -0.7824324178,
				"element": "H" 
			},
			{
				"x": -3.0143689025,
				"y": 0.1069603172,
				"z": 0.9736370709,
				"element": "H" 
			},
			{
				"x": -1.7090977229,
				"y": -1.80868095,
				"z": 0.3783707584,
				"element": "H" 
			},
			{
				"x": 1.5095506889,
				"y": -1.738134478,
				"z": 0.6251756025,
				"element": "H" 
			},
			{
				"x": 2.8805795939,
				"y": -0.8083525296,
				"z": 1.2114916174,
				"element": "H" 
			},
			{
				"x": 1.2947176025,
				"y": 0.6059011634,
				"z": 2.3780817477,
				"element": "H" 
			},
			{
				"x": 0.0667526607,
				"y": -0.3395041693,
				"z": 1.8572086042,
				"element": "H" 
			},
			{
				"x": 3.445764376,
				"y": 1.3224333139,
				"z": 0.409942266,
				"element": "H" 
			},
			{
				"x": 3.3506800379,
				"y": 3.0265387404,
				"z": -1.3745428828,
				"element": "H" 
			},
			{
				"x": 1.5626078609,
				"y": 2.9165864106,
				"z": -3.1099103793,
				"element": "H" 
			},
			{
				"x": -0.1080746902,
				"y": 1.0655177744,
				"z": -3.0224276092,
				"element": "H" 
			}
		],
		 "valence_orbital": [ 
			{
				"type": "occ",
				"energy": -0.30336,
				"method": "rhf"
			},
			{
				"type": "occ",
				"energy": -0.28904,
				"method": "rhf"
			},
			{
				"type": "occ",
				"energy": -0.2706,
				"method": "rhf"
			},
			{
				"type": "occ",
				"energy": -0.26595,
				"method": "rhf"
			},
			{
				"type": "occ",
				"energy": -0.23217,
				"method": "rhf"
			},
			{
				"type": "unocc",
				"energy": -0.04166,
				"method": "rhf"
			},
			{
				"type": "unocc",
				"energy": -0.02066,
				"method": "rhf"
			},
			{
				"type": "unocc",
				"energy": 0.05511,
				"method": "rhf"
			},
			{
				"type": "unocc",
				"energy": 0.07263,
				"method": "rhf"
			},
			{
				"type": "unocc",
				"energy": 0.08241,
				"method": "rhf"
			}
		],
		"cosmo_sigma_profile": { 
			"-0.025": 0.0,
			"-0.024": 0.0,
			"-0.023": 0.0,
			"-0.022": 0.0,
			"-0.021": 0.0,
			"-0.02": 0.0,
			"-0.019": 0.0,
			"-0.018": 0.0,
			"-0.017": 0.0,
			"-0.016": 0.0,
			"-0.015": 0.319692253787,
			"-0.014": 1.25671206368,
			"-0.013": 1.09217119214,
			"-0.012": 0.691104166446,
			"-0.011": 1.35584206228,
			"-0.01": 1.2878943147,
			"-0.009": 1.98888635131,
			"-0.008": 2.89103289976,
			"-0.007": 6.55039111169,
			"-0.006": 17.1167518928,
			"-0.005": 18.0788380578,
			"-0.004": 18.8524589519,
			"-0.003": 17.3470236245,
			"-0.002": 18.8478046954,
			"-0.001": 16.576688022,
			"0.0": 13.4936064957,
			"0.001": 12.3179626185,
			"0.002": 11.8298064597,
			"0.003": 15.1169046053,
			"0.004": 7.60038573762,
			"0.005": 2.78734090707,
			"0.006": 3.09704157408,
			"0.007": 2.56249395803,
			"0.008": 4.52788660988,
			"0.009": 4.76707994699,
			"0.01": 6.91878056489,
			"0.011": 8.82292144063,
			"0.012": 4.29212074412,
			"0.013": 0.274566182079,
			"0.014": 0.347314212567,
			"0.015": 0.936394791724,
			"0.016": 0.879603276456,
			"0.017": 0.513997843391,
			"0.018": 0.767114188349,
			"0.019": 0.49706912547,
			"0.02": 0.248634136044,
			"0.021": 0.0,
			"0.022": 0.0,
			"0.023": 0.0,
			"0.024": 0.0,
			"0.025": 0.0
		}
	}
}
