{
	 "smiles": "OC(=O)CNC(=O)C1=CC=C(C=C1)C(=O)NCC(O)=O", 
	 "Tm": 535.15, 
	 "num_atms": 32, 
	 "gaussian": { 
		 "optdone": 1, 
		 "sigma_profile": "yes", 
		 "theory": "DFT", 
		 "functional": "B3LYP", 
		 "basiset": "6-31G**", 
		 "properties": { 
			 "R2extent": 10234.7168, 
			 "electric_dipole_moment_norm": 0.000374165738677, 
			 "electric_quadrupole_moment_norm": 36.7272767292, 
			 "total_energy": -1025.39568104, 
			 "HOMO_LUMO_gap": 0.18868, 
			 "cosmo_polarized_energy": -30.24, 
			 "cosmo_cavitation_energy": 38.94, 
			 "cosmo_dispersion_energy": -27.01, 
			 "cosmo_repulsion_energy": 2.14, 
			 "cosmo_total_nonelectrostatic_energy": 14.07, 
			 "SMD_solvation_energy": 9.31 
		},
		"coords": [
			{
				"x": 0.8355080819,
				"y": 4.8432798334,
				"z": 2.4934705708,
				"element": "O" 
			},
			{
				"x": 0.9833891915,
				"y": 3.5632811476,
				"z": 2.8996718727,
				"element": "C" 
			},
			{
				"x": 1.0369741752,
				"y": 3.2309885952,
				"z": 4.0603266615,
				"element": "O" 
			},
			{
				"x": 1.1309048892,
				"y": 2.5857970943,
				"z": 1.7365547305,
				"element": "C" 
			},
			{
				"x": 0.7928754205,
				"y": 3.1194394103,
				"z": 0.4299255784,
				"element": "N" 
			},
			{
				"x": -0.3323673507,
				"y": 2.8290491671,
				"z": -0.3185750319,
				"element": "C" 
			},
			{
				"x": -0.793731589,
				"y": 3.6508682751,
				"z": -1.1010002388,
				"element": "O" 
			},
			{
				"x": -0.9369869074,
				"y": 1.4573476234,
				"z": -0.200899344,
				"element": "C" 
			},
			{
				"x": -0.1688338448,
				"y": 0.2906606531,
				"z": -0.0678855061,
				"element": "C" 
			},
			{
				"x": -0.7843665974,
				"y": -0.9575897581,
				"z": -0.0393211848,
				"element": "C" 
			},
			{
				"x": -2.1754725319,
				"y": -1.065378654,
				"z": -0.163038944,
				"element": "C" 
			},
			{
				"x": -2.943619974,
				"y": 0.1013072527,
				"z": -0.2960375478,
				"element": "C" 
			},
			{
				"x": -2.3280853456,
				"y": 1.3495639846,
				"z": -0.324606651,
				"element": "C" 
			},
			{
				"x": -2.7800433762,
				"y": -2.4371032295,
				"z": -0.0453827525,
				"element": "C" 
			},
			{
				"x": -2.3185690307,
				"y": -3.2589526662,
				"z": 0.7369510454,
				"element": "O" 
			},
			{
				"x": -3.9053348142,
				"y": -2.7275177953,
				"z": -0.7937897283,
				"element": "N" 
			},
			{
				"x": -4.2435870574,
				"y": -2.193846347,
				"z": -2.1003448405,
				"element": "C" 
			},
			{
				"x": -4.0966237066,
				"y": -3.1714284072,
				"z": -3.263448336,
				"element": "C" 
			},
			{
				"x": -3.9489000998,
				"y": -4.4514370273,
				"z": -2.8572225381,
				"element": "O" 
			},
			{
				"x": -4.1504122455,
				"y": -2.8391746748,
				"z": -4.4241041939,
				"element": "O" 
			},
			{
				"x": 0.7769662548,
				"y": 5.3850510914,
				"z": 3.2985867316,
				"element": "H" 
			},
			{
				"x": 0.5068522192,
				"y": 1.7229169897,
				"z": 1.9699628577,
				"element": "H" 
			},
			{
				"x": 2.1717188485,
				"y": 2.2344336607,
				"z": 1.7661512112,
				"element": "H" 
			},
			{
				"x": 1.0988846068,
				"y": 4.0712605725,
				"z": 0.2622702718,
				"element": "H" 
			},
			{
				"x": 0.9132204134,
				"y": 0.3568013095,
				"z": -0.0093992774,
				"element": "H" 
			},
			{
				"x": -0.1995782912,
				"y": -1.8631933143,
				"z": 0.0818555956,
				"element": "H" 
			},
			{
				"x": -4.0256764662,
				"y": 0.0351900964,
				"z": -0.3544900406,
				"element": "H" 
			},
			{
				"x": -2.9128913145,
				"y": 2.2551571366,
				"z": -0.4457802376,
				"element": "H" 
			},
			{
				"x": -4.2113244356,
				"y": -3.6793389682,
				"z": -0.6261037642,
				"element": "H" 
			},
			{
				"x": -3.6193795618,
				"y": -1.331136951,
				"z": -2.3339688999,
				"element": "H" 
			},
			{
				"x": -5.2843263129,
				"y": -1.8422315383,
				"z": -2.1297041692,
				"element": "H" 
			},
			{
				"x": -3.8906832473,
				"y": -4.9932645624,
				"z": -3.6623239006,
				"element": "H" 
			}
		],
		 "valence_orbital": [ 
			{
				"type": "occ",
				"energy": -0.2727,
				"method": "rhf"
			},
			{
				"type": "occ",
				"energy": -0.26569,
				"method": "rhf"
			},
			{
				"type": "occ",
				"energy": -0.26248,
				"method": "rhf"
			},
			{
				"type": "occ",
				"energy": -0.25539,
				"method": "rhf"
			},
			{
				"type": "occ",
				"energy": -0.24839,
				"method": "rhf"
			},
			{
				"type": "unocc",
				"energy": -0.05971,
				"method": "rhf"
			},
			{
				"type": "unocc",
				"energy": -0.02487,
				"method": "rhf"
			},
			{
				"type": "unocc",
				"energy": -0.0081,
				"method": "rhf"
			},
			{
				"type": "unocc",
				"energy": -0.00603,
				"method": "rhf"
			},
			{
				"type": "unocc",
				"energy": 0.01372,
				"method": "rhf"
			}
		],
		"cosmo_sigma_profile": { 
			"-0.025": 0.0,
			"-0.024": 0.0,
			"-0.023": 0.0,
			"-0.022": 0.0,
			"-0.021": 0.0,
			"-0.02": 0.0,
			"-0.019": 0.75243938577,
			"-0.018": 2.37806714211,
			"-0.017": 1.60277152016,
			"-0.016": 1.64469196782,
			"-0.015": 1.52521109347,
			"-0.014": 1.42811145918,
			"-0.013": 1.01177358312,
			"-0.012": 2.8093997991,
			"-0.011": 3.49339361975,
			"-0.01": 2.82881425352,
			"-0.009": 3.12754601462,
			"-0.008": 12.4726009447,
			"-0.007": 19.3025021265,
			"-0.006": 22.6475834099,
			"-0.005": 18.8893886422,
			"-0.004": 14.7037557498,
			"-0.003": 18.6674917287,
			"-0.002": 14.0851748196,
			"-0.001": 13.8454374472,
			"0.0": 13.2172202781,
			"0.001": 16.3860160383,
			"0.002": 19.6279788082,
			"0.003": 13.04438214,
			"0.004": 8.58133896948,
			"0.005": 10.3198872111,
			"0.006": 5.94797252955,
			"0.007": 6.29209390543,
			"0.008": 5.65234573251,
			"0.009": 6.69649038189,
			"0.01": 8.72246094858,
			"0.011": 13.0038863398,
			"0.012": 11.8483527676,
			"0.013": 10.4229918751,
			"0.014": 2.68482716592,
			"0.015": 0.0,
			"0.016": 0.0,
			"0.017": 0.0,
			"0.018": 0.0,
			"0.019": 0.0,
			"0.02": 0.0,
			"0.021": 0.0,
			"0.022": 0.0,
			"0.023": 0.0,
			"0.024": 0.0,
			"0.025": 0.0
		}
	}
}
