{
	 "smiles": "CCC(N1CCNCC1)C1=CC=C(Br)C=C1", 
	 "Tm": 339.15, 
	 "num_atms": 35, 
	 "gaussian": { 
		 "optdone": 1, 
		 "sigma_profile": "yes", 
		 "theory": "DFT", 
		 "functional": "B3LYP", 
		 "basiset": "6-31G**", 
		 "properties": { 
			 "R2extent": 8202.0832, 
			 "electric_dipole_moment_norm": 2.186061909, 
			 "electric_quadrupole_moment_norm": 11.4086658545, 
			 "total_energy": -3187.72478595, 
			 "HOMO_LUMO_gap": 0.2032, 
			 "cosmo_polarized_energy": -7.38, 
			 "cosmo_cavitation_energy": 36.87, 
			 "cosmo_dispersion_energy": -26.3, 
			 "cosmo_repulsion_energy": 2.05, 
			 "cosmo_total_nonelectrostatic_energy": 12.62, 
			 "SMD_solvation_energy": 1.28 
		},
		"coords": [
			{
				"x": 0.6536494857,
				"y": 1.4105528504,
				"z": 2.1486581526,
				"element": "C" 
			},
			{
				"x": 1.7363506918,
				"y": 0.3799528075,
				"z": 1.8131633718,
				"element": "C" 
			},
			{
				"x": 1.3978134132,
				"y": -0.6171432609,
				"z": 0.6713079025,
				"element": "C" 
			},
			{
				"x": 1.1062167091,
				"y": 0.0540699767,
				"z": -0.6050851853,
				"element": "N" 
			},
			{
				"x": 2.1186399069,
				"y": 1.0532451069,
				"z": -0.9854618842,
				"element": "C" 
			},
			{
				"x": 1.9049652821,
				"y": 1.5108289322,
				"z": -2.4572384798,
				"element": "C" 
			},
			{
				"x": 0.5473390508,
				"y": 1.2790751571,
				"z": -2.9427189137,
				"element": "N" 
			},
			{
				"x": 0.241376254,
				"y": -0.1579065129,
				"z": -2.8968175502,
				"element": "C" 
			},
			{
				"x": 0.9317882873,
				"y": -0.8883317976,
				"z": -1.7179671061,
				"element": "C" 
			},
			{
				"x": 0.2493320137,
				"y": -1.526555122,
				"z": 1.0986617567,
				"element": "C" 
			},
			{
				"x": 0.5217854448,
				"y": -2.7268302506,
				"z": 1.7663771823,
				"element": "C" 
			},
			{
				"x": -0.5040047684,
				"y": -3.5520084175,
				"z": 2.2288057388,
				"element": "C" 
			},
			{
				"x": -1.8265396205,
				"y": -3.1715284485,
				"z": 2.0125976888,
				"element": "C" 
			},
			{
				"x": -3.244830663,
				"y": -4.2962760757,
				"z": 2.6330196833,
				"element": "Br" 
			},
			{
				"x": -2.130797936,
				"y": -1.9871720116,
				"z": 1.3440638519,
				"element": "C" 
			},
			{
				"x": -1.0914859839,
				"y": -1.172490348,
				"z": 0.8939283487,
				"element": "C" 
			},
			{
				"x": 0.3902214697,
				"y": 2.0192706886,
				"z": 1.2785916744,
				"element": "H" 
			},
			{
				"x": -0.2617558822,
				"y": 0.9290421141,
				"z": 2.5037609002,
				"element": "H" 
			},
			{
				"x": 1.0027799611,
				"y": 2.0836084942,
				"z": 2.9383899341,
				"element": "H" 
			},
			{
				"x": 1.9508555347,
				"y": -0.2234754678,
				"z": 2.7028572278,
				"element": "H" 
			},
			{
				"x": 2.6737918484,
				"y": 0.8918583939,
				"z": 1.5694222173,
				"element": "H" 
			},
			{
				"x": 2.2961984417,
				"y": -1.2587375363,
				"z": 0.5597461394,
				"element": "H" 
			},
			{
				"x": 3.1466777126,
				"y": 0.6549316181,
				"z": -0.8715186743,
				"element": "H" 
			},
			{
				"x": 2.033072292,
				"y": 1.9151780361,
				"z": -0.3170243299,
				"element": "H" 
			},
			{
				"x": 2.5895889283,
				"y": 0.971444259,
				"z": -3.1227357273,
				"element": "H" 
			},
			{
				"x": 2.151112687,
				"y": 2.573370033,
				"z": -2.5532856875,
				"element": "H" 
			},
			{
				"x": -0.0955816012,
				"y": 1.7568197737,
				"z": -2.3160323559,
				"element": "H" 
			},
			{
				"x": -0.8453049804,
				"y": -0.269302272,
				"z": -2.8253845952,
				"element": "H" 
			},
			{
				"x": 0.5508219274,
				"y": -0.6239172073,
				"z": -3.8420624947,
				"element": "H" 
			},
			{
				"x": 1.9060926325,
				"y": -1.3091535225,
				"z": -2.0344307742,
				"element": "H" 
			},
			{
				"x": 0.3206490566,
				"y": -1.7322336687,
				"z": -1.3919512585,
				"element": "H" 
			},
			{
				"x": 1.5542034817,
				"y": -3.0282876852,
				"z": 1.9276072074,
				"element": "H" 
			},
			{
				"x": -0.2789647056,
				"y": -4.479950934,
				"z": 2.7422969064,
				"element": "H" 
			},
			{
				"x": -3.1645544349,
				"y": -1.7056559208,
				"z": 1.1772372176,
				"element": "H" 
			},
			{
				"x": -1.3162019369,
				"y": -0.2543917815,
				"z": 0.3612219149,
				"element": "H" 
			}
		],
		 "valence_orbital": [ 
			{
				"type": "occ",
				"energy": -0.28469,
				"method": "rhf"
			},
			{
				"type": "occ",
				"energy": -0.26123,
				"method": "rhf"
			},
			{
				"type": "occ",
				"energy": -0.23678,
				"method": "rhf"
			},
			{
				"type": "occ",
				"energy": -0.22106,
				"method": "rhf"
			},
			{
				"type": "occ",
				"energy": -0.21686,
				"method": "rhf"
			},
			{
				"type": "unocc",
				"energy": -0.01366,
				"method": "rhf"
			},
			{
				"type": "unocc",
				"energy": -0.0132,
				"method": "rhf"
			},
			{
				"type": "unocc",
				"energy": 0.00963,
				"method": "rhf"
			},
			{
				"type": "unocc",
				"energy": 0.06923,
				"method": "rhf"
			},
			{
				"type": "unocc",
				"energy": 0.09343,
				"method": "rhf"
			}
		],
		"cosmo_sigma_profile": { 
			"-0.025": 0.0,
			"-0.024": 0.0,
			"-0.023": 0.0,
			"-0.022": 0.0,
			"-0.021": 0.0,
			"-0.02": 0.0,
			"-0.019": 0.0,
			"-0.018": 0.0,
			"-0.017": 0.0,
			"-0.016": 0.0,
			"-0.015": 0.0,
			"-0.014": 0.0,
			"-0.013": 0.0,
			"-0.012": 0.0,
			"-0.011": 0.0,
			"-0.01": 0.0,
			"-0.009": 0.482824026947,
			"-0.008": 1.29556175225,
			"-0.007": 2.44021254091,
			"-0.006": 6.11468572518,
			"-0.005": 8.3286722353,
			"-0.004": 14.7876887279,
			"-0.003": 28.7544007319,
			"-0.002": 44.3690154348,
			"-0.001": 44.2737270316,
			"0.0": 33.7682010318,
			"0.001": 23.4266270417,
			"0.002": 20.3242339071,
			"0.003": 18.6281250487,
			"0.004": 20.2342566909,
			"0.005": 12.2845974042,
			"0.006": 2.26007970199,
			"0.007": 1.5901887755,
			"0.008": 0.701363095645,
			"0.009": 0.575868738127,
			"0.01": 1.0587193646,
			"0.011": 0.818448020791,
			"0.012": 0.705856049999,
			"0.013": 0.51134599529,
			"0.014": 0.62932662422,
			"0.015": 0.388562539381,
			"0.016": 0.719279492579,
			"0.017": 0.773415293521,
			"0.018": 0.499762462751,
			"0.019": 0.371828381234,
			"0.02": 0.0119756552602,
			"0.021": 0.0,
			"0.022": 0.0,
			"0.023": 0.0,
			"0.024": 0.0,
			"0.025": 0.0
		}
	}
}
