{
	 "smiles": "CC(C)CC(C)(N)C(O)=O", 
	 "Tm": 573.15, 
	 "num_atms": 25, 
	 "gaussian": { 
		 "optdone": 1, 
		 "sigma_profile": "yes", 
		 "theory": "DFT", 
		 "functional": "B3LYP", 
		 "basiset": "6-31G**", 
		 "properties": { 
			 "R2extent": 1628.2172, 
			 "electric_dipole_moment_norm": 2.11536766544, 
			 "electric_quadrupole_moment_norm": 7.83146052087, 
			 "total_energy": -481.006165839, 
			 "HOMO_LUMO_gap": 0.23419, 
			 "cosmo_polarized_energy": -10.43, 
			 "cosmo_cavitation_energy": 25.82, 
			 "cosmo_dispersion_energy": -18.2, 
			 "cosmo_repulsion_energy": 1.47, 
			 "cosmo_total_nonelectrostatic_energy": 9.09, 
			 "SMD_solvation_energy": 4.51 
		},
		"coords": [
			{
				"x": 0.5616378675,
				"y": -1.6334542836,
				"z": 1.3311422844,
				"element": "C" 
			},
			{
				"x": 0.6940223295,
				"y": -0.1053134773,
				"z": 1.4465581194,
				"element": "C" 
			},
			{
				"x": 1.9980961124,
				"y": 0.3797077777,
				"z": 0.7909332669,
				"element": "C" 
			},
			{
				"x": -0.5671423403,
				"y": 0.6922857727,
				"z": 1.024330503,
				"element": "C" 
			},
			{
				"x": -1.1101700626,
				"y": 0.6814515444,
				"z": -0.4432633153,
				"element": "C" 
			},
			{
				"x": -2.3610116514,
				"y": 1.5936477612,
				"z": -0.4873442319,
				"element": "C" 
			},
			{
				"x": -1.4989668755,
				"y": -0.6352775575,
				"z": -0.9580567614,
				"element": "N" 
			},
			{
				"x": -0.0644832571,
				"y": 1.2452082526,
				"z": -1.4078867962,
				"element": "C" 
			},
			{
				"x": 0.2119001599,
				"y": 2.5486011612,
				"z": -1.1704730163,
				"element": "O" 
			},
			{
				"x": 0.4823771343,
				"y": 0.622932286,
				"z": -2.2948315106,
				"element": "O" 
			},
			{
				"x": 1.4013745321,
				"y": -2.1247178663,
				"z": 1.8350096386,
				"element": "H" 
			},
			{
				"x": 0.5652247898,
				"y": -1.9693470162,
				"z": 0.290500345,
				"element": "H" 
			},
			{
				"x": -0.3602005516,
				"y": -1.9963278369,
				"z": 1.8006850915,
				"element": "H" 
			},
			{
				"x": 0.7856351606,
				"y": 0.1137548869,
				"z": 2.5208251537,
				"element": "H" 
			},
			{
				"x": 2.1039933885,
				"y": 1.4671921196,
				"z": 0.8654652032,
				"element": "H" 
			},
			{
				"x": 2.0486495102,
				"y": 0.1049876931,
				"z": -0.2667221239,
				"element": "H" 
			},
			{
				"x": 2.8630106726,
				"y": -0.0745838866,
				"z": 1.2863273878,
				"element": "H" 
			},
			{
				"x": -0.4044544436,
				"y": 1.7400913471,
				"z": 1.302997769,
				"element": "H" 
			},
			{
				"x": -1.4044793204,
				"y": 0.3440940085,
				"z": 1.645848151,
				"element": "H" 
			},
			{
				"x": -3.1371749079,
				"y": 1.1632143447,
				"z": 0.1534720332,
				"element": "H" 
			},
			{
				"x": -2.7558754389,
				"y": 1.6334090482,
				"z": -1.5056138171,
				"element": "H" 
			},
			{
				"x": -2.1435245319,
				"y": 2.6076961018,
				"z": -0.1437328582,
				"element": "H" 
			},
			{
				"x": -0.7163894864,
				"y": -1.0707656567,
				"z": -1.4362492125,
				"element": "H" 
			},
			{
				"x": -1.7950034248,
				"y": -1.2408923477,
				"z": -0.2003729468,
				"element": "H" 
			},
			{
				"x": 0.8864546349,
				"y": 2.801405823,
				"z": -1.8229483564,
				"element": "H" 
			}
		],
		 "valence_orbital": [ 
			{
				"type": "occ",
				"energy": -0.32838,
				"method": "rhf"
			},
			{
				"type": "occ",
				"energy": -0.31976,
				"method": "rhf"
			},
			{
				"type": "occ",
				"energy": -0.31272,
				"method": "rhf"
			},
			{
				"type": "occ",
				"energy": -0.27546,
				"method": "rhf"
			},
			{
				"type": "occ",
				"energy": -0.22859,
				"method": "rhf"
			},
			{
				"type": "unocc",
				"energy": 0.0056,
				"method": "rhf"
			},
			{
				"type": "unocc",
				"energy": 0.0609,
				"method": "rhf"
			},
			{
				"type": "unocc",
				"energy": 0.07807,
				"method": "rhf"
			},
			{
				"type": "unocc",
				"energy": 0.11578,
				"method": "rhf"
			},
			{
				"type": "unocc",
				"energy": 0.1188,
				"method": "rhf"
			}
		],
		"cosmo_sigma_profile": { 
			"-0.025": 0.0,
			"-0.024": 0.0,
			"-0.023": 0.0,
			"-0.022": 0.0,
			"-0.021": 0.0,
			"-0.02": 0.0,
			"-0.019": 0.0,
			"-0.018": 0.721006574661,
			"-0.017": 0.872395492358,
			"-0.016": 0.961710057117,
			"-0.015": 0.652201323026,
			"-0.014": 0.95668379615,
			"-0.013": 0.559975994929,
			"-0.012": 0.293135985799,
			"-0.011": 0.888253244671,
			"-0.01": 1.07025016224,
			"-0.009": 0.847187794101,
			"-0.008": 1.99956451341,
			"-0.007": 3.54810713835,
			"-0.006": 4.72017465357,
			"-0.005": 5.34795741415,
			"-0.004": 7.71652298043,
			"-0.003": 16.1782443251,
			"-0.002": 24.7463029313,
			"-0.001": 27.0126461967,
			"0.0": 24.4600708901,
			"0.001": 24.2759500231,
			"0.002": 12.0031677936,
			"0.003": 4.93709088863,
			"0.004": 3.72359179261,
			"0.005": 3.69190781079,
			"0.006": 3.34960602684,
			"0.007": 2.62190533168,
			"0.008": 3.65838479671,
			"0.009": 2.83992774337,
			"0.01": 2.71120052275,
			"0.011": 4.60017704546,
			"0.012": 2.70155592734,
			"0.013": 1.04504011582,
			"0.014": 0.335732182338,
			"0.015": 0.399838271975,
			"0.016": 0.680073323909,
			"0.017": 0.607160697276,
			"0.018": 0.540677336454,
			"0.019": 0.15301560512,
			"0.02": 0.0,
			"0.021": 0.0,
			"0.022": 0.0,
			"0.023": 0.0,
			"0.024": 0.0,
			"0.025": 0.0
		}
	}
}
