{
	 "smiles": "ClCC1=NC2=C(C(=CS2)C2=CC=CO2)C(=O)N1", 
	 "Tm": 504.15, 
	 "num_atms": 24, 
	 "gaussian": { 
		 "optdone": 1, 
		 "sigma_profile": "yes", 
		 "theory": "DFT", 
		 "functional": "B3LYP", 
		 "basiset": "6-31G**", 
		 "properties": { 
			 "R2extent": 5821.1962, 
			 "electric_dipole_moment_norm": 1.71378712214, 
			 "electric_quadrupole_moment_norm": 14.6628071231, 
			 "total_energy": -1541.70880154, 
			 "HOMO_LUMO_gap": 0.1474, 
			 "cosmo_polarized_energy": -15.72, 
			 "cosmo_cavitation_energy": 32.81, 
			 "cosmo_dispersion_energy": -24.62, 
			 "cosmo_repulsion_energy": 1.86, 
			 "cosmo_total_nonelectrostatic_energy": 10.05, 
			 "SMD_solvation_energy": 4.76 
		},
		"coords": [
			{
				"x": 4.7803373078,
				"y": -0.2797148068,
				"z": 1.2392994906,
				"element": "Cl" 
			},
			{
				"x": 3.70360907,
				"y": 1.0999349242,
				"z": 0.7561374189,
				"element": "C" 
			},
			{
				"x": 2.3157249215,
				"y": 0.659375171,
				"z": 0.3739205394,
				"element": "C" 
			},
			{
				"x": 1.3119178168,
				"y": 1.3698857693,
				"z": 0.8031343318,
				"element": "N" 
			},
			{
				"x": 0.091805717,
				"y": 0.974011802,
				"z": 0.3382757679,
				"element": "C" 
			},
			{
				"x": -0.1775862304,
				"y": -0.0861061344,
				"z": -0.5265574625,
				"element": "C" 
			},
			{
				"x": -1.5860700106,
				"y": -0.2367491206,
				"z": -0.8025529997,
				"element": "C" 
			},
			{
				"x": -2.3251476392,
				"y": 0.7055004743,
				"z": -0.1299303776,
				"element": "C" 
			},
			{
				"x": -1.3693642711,
				"y": 1.7830716034,
				"z": 0.8421489274,
				"element": "S" 
			},
			{
				"x": -2.2119429714,
				"y": -1.2357579345,
				"z": -1.6631051977,
				"element": "C" 
			},
			{
				"x": -3.3476499314,
				"y": -1.9880675063,
				"z": -1.5172388249,
				"element": "C" 
			},
			{
				"x": -3.487720858,
				"y": -2.7502580664,
				"z": -2.7193706896,
				"element": "C" 
			},
			{
				"x": -2.4310134534,
				"y": -2.4046844714,
				"z": -3.5073807855,
				"element": "C" 
			},
			{
				"x": -1.6501186048,
				"y": -1.4831634693,
				"z": -2.8847447714,
				"element": "O" 
			},
			{
				"x": 0.939828074,
				"y": -0.9252300667,
				"z": -0.9427621486,
				"element": "C" 
			},
			{
				"x": 0.9294177396,
				"y": -1.9492435611,
				"z": -1.6031024019,
				"element": "O" 
			},
			{
				"x": 2.1742671644,
				"y": -0.4150199934,
				"z": -0.4533366653,
				"element": "N" 
			},
			{
				"x": 4.202128439,
				"y": 1.591844534,
				"z": -0.0825159905,
				"element": "H" 
			},
			{
				"x": 3.6301748035,
				"y": 1.7868193522,
				"z": 1.5964409225,
				"element": "H" 
			},
			{
				"x": -3.3961233012,
				"y": 0.8406313341,
				"z": -0.1857971888,
				"element": "H" 
			},
			{
				"x": -3.98469792,
				"y": -2.0142600342,
				"z": -0.6449376047,
				"element": "H" 
			},
			{
				"x": -4.2622784656,
				"y": -3.4651399344,
				"z": -2.956533861,
				"element": "H" 
			},
			{
				"x": -2.1021177277,
				"y": -2.7118130749,
				"z": -4.4879009918,
				"element": "H" 
			},
			{
				"x": 2.9838203309,
				"y": -0.9831667899,
				"z": -0.6798894371,
				"element": "H" 
			}
		],
		 "valence_orbital": [ 
			{
				"type": "occ",
				"energy": -0.27881,
				"method": "rhf"
			},
			{
				"type": "occ",
				"energy": -0.27465,
				"method": "rhf"
			},
			{
				"type": "occ",
				"energy": -0.26508,
				"method": "rhf"
			},
			{
				"type": "occ",
				"energy": -0.2397,
				"method": "rhf"
			},
			{
				"type": "occ",
				"energy": -0.20948,
				"method": "rhf"
			},
			{
				"type": "unocc",
				"energy": -0.06208,
				"method": "rhf"
			},
			{
				"type": "unocc",
				"energy": -0.02306,
				"method": "rhf"
			},
			{
				"type": "unocc",
				"energy": -0.01077,
				"method": "rhf"
			},
			{
				"type": "unocc",
				"energy": 0.00831,
				"method": "rhf"
			},
			{
				"type": "unocc",
				"energy": 0.01869,
				"method": "rhf"
			}
		],
		"cosmo_sigma_profile": { 
			"-0.025": 0.0,
			"-0.024": 0.0,
			"-0.023": 0.0,
			"-0.022": 0.0,
			"-0.021": 0.0,
			"-0.02": 0.0,
			"-0.019": 0.0,
			"-0.018": 0.0,
			"-0.017": 0.0,
			"-0.016": 0.0,
			"-0.015": 0.396884172846,
			"-0.014": 0.586013417353,
			"-0.013": 1.14231149061,
			"-0.012": 0.80553046342,
			"-0.011": 0.757322827996,
			"-0.01": 4.03788483779,
			"-0.009": 8.31374643953,
			"-0.008": 8.24516411496,
			"-0.007": 10.4935221779,
			"-0.006": 10.7113409599,
			"-0.005": 12.3247337552,
			"-0.004": 15.0076358404,
			"-0.003": 13.1805307853,
			"-0.002": 15.1453195471,
			"-0.001": 15.7823565918,
			"0.0": 23.2149977274,
			"0.001": 24.3201386192,
			"0.002": 23.4666609808,
			"0.003": 17.8241941658,
			"0.004": 15.3889809731,
			"0.005": 16.3049935618,
			"0.006": 5.72348676079,
			"0.007": 3.2828483661,
			"0.008": 3.51769065284,
			"0.009": 3.07109315096,
			"0.01": 3.01440538408,
			"0.011": 3.01117926185,
			"0.012": 5.69994037387,
			"0.013": 4.5214996428,
			"0.014": 0.0384314165185,
			"0.015": 0.0,
			"0.016": 0.0,
			"0.017": 0.0,
			"0.018": 0.0,
			"0.019": 0.0,
			"0.02": 0.0,
			"0.021": 0.0,
			"0.022": 0.0,
			"0.023": 0.0,
			"0.024": 0.0,
			"0.025": 0.0
		}
	}
}
