{
	 "smiles": "CC1=CC(C)=C(C=C)C=C1", 
	 "Tm": 209.15, 
	 "num_atms": 22, 
	 "gaussian": { 
		 "optdone": 1, 
		 "sigma_profile": "yes", 
		 "theory": "DFT", 
		 "functional": "B3LYP", 
		 "basiset": "6-31G**", 
		 "properties": { 
			 "R2extent": 1891.006, 
			 "electric_dipole_moment_norm": 0.510440368701, 
			 "electric_quadrupole_moment_norm": 6.55387891786, 
			 "total_energy": -388.291561729, 
			 "HOMO_LUMO_gap": 0.18837, 
			 "cosmo_polarized_energy": -3.88, 
			 "cosmo_cavitation_energy": 24.85, 
			 "cosmo_dispersion_energy": -17.95, 
			 "cosmo_repulsion_energy": 1.44, 
			 "cosmo_total_nonelectrostatic_energy": 8.35, 
			 "SMD_solvation_energy": 4.95 
		},
		"coords": [
			{
				"x": 0.2422964441,
				"y": 2.6372401096,
				"z": 3.0545346123,
				"element": "C" 
			},
			{
				"x": 0.1195435876,
				"y": 1.4137954041,
				"z": 2.1778317739,
				"element": "C" 
			},
			{
				"x": 0.3374631715,
				"y": 1.4888274617,
				"z": 0.7978130079,
				"element": "C" 
			},
			{
				"x": 0.2023146335,
				"y": 0.3834622969,
				"z": -0.0489531011,
				"element": "C" 
			},
			{
				"x": 0.4701647958,
				"y": 0.5446948174,
				"z": -1.5288561531,
				"element": "C" 
			},
			{
				"x": -0.1612419013,
				"y": -0.8664220716,
				"z": 0.5070043817,
				"element": "C" 
			},
			{
				"x": -0.3032500742,
				"y": -2.0592087328,
				"z": -0.3479042126,
				"element": "C" 
			},
			{
				"x": -0.1814315705,
				"y": -3.3349645447,
				"z": 0.0417761493,
				"element": "C" 
			},
			{
				"x": -0.3890116347,
				"y": -0.9389464585,
				"z": 1.8919582211,
				"element": "C" 
			},
			{
				"x": -0.2466046992,
				"y": 0.1729195213,
				"z": 2.7141548409,
				"element": "C" 
			},
			{
				"x": -0.7367575909,
				"y": 3.1014739557,
				"z": 3.2294134471,
				"element": "H" 
			},
			{
				"x": 0.6592321029,
				"y": 2.3868467864,
				"z": 4.0353424832,
				"element": "H" 
			},
			{
				"x": 0.8846666461,
				"y": 3.3955127893,
				"z": 2.597068953,
				"element": "H" 
			},
			{
				"x": 0.6276400033,
				"y": 2.4436367508,
				"z": 0.3636410983,
				"element": "H" 
			},
			{
				"x": -0.4222180616,
				"y": 0.3352061213,
				"z": -2.1315566255,
				"element": "H" 
			},
			{
				"x": 0.7852206911,
				"y": 1.56641076,
				"z": -1.7565642246,
				"element": "H" 
			},
			{
				"x": 1.2572236336,
				"y": -0.1333090082,
				"z": -1.8770262292,
				"element": "H" 
			},
			{
				"x": -0.5205902118,
				"y": -1.8700775137,
				"z": -1.3973404655,
				"element": "H" 
			},
			{
				"x": -0.3238562192,
				"y": -4.1507911355,
				"z": -0.6597601493,
				"element": "H" 
			},
			{
				"x": 0.0742523,
				"y": -3.6108720562,
				"z": 1.0609437086,
				"element": "H" 
			},
			{
				"x": -0.7025502702,
				"y": -1.8840897816,
				"z": 2.3253973914,
				"element": "H" 
			},
			{
				"x": -0.4317057759,
				"y": 0.0798545282,
				"z": 3.7816810921,
				"element": "H" 
			}
		],
		 "valence_orbital": [ 
			{
				"type": "occ",
				"energy": -0.33004,
				"method": "rhf"
			},
			{
				"type": "occ",
				"energy": -0.32435,
				"method": "rhf"
			},
			{
				"type": "occ",
				"energy": -0.28292,
				"method": "rhf"
			},
			{
				"type": "occ",
				"energy": -0.23815,
				"method": "rhf"
			},
			{
				"type": "occ",
				"energy": -0.2132,
				"method": "rhf"
			},
			{
				"type": "unocc",
				"energy": -0.02483,
				"method": "rhf"
			},
			{
				"type": "unocc",
				"energy": 0.00706,
				"method": "rhf"
			},
			{
				"type": "unocc",
				"energy": 0.05749,
				"method": "rhf"
			},
			{
				"type": "unocc",
				"energy": 0.10364,
				"method": "rhf"
			},
			{
				"type": "unocc",
				"energy": 0.1088,
				"method": "rhf"
			}
		],
		"cosmo_sigma_profile": { 
			"-0.025": 0.0,
			"-0.024": 0.0,
			"-0.023": 0.0,
			"-0.022": 0.0,
			"-0.021": 0.0,
			"-0.02": 0.0,
			"-0.019": 0.0,
			"-0.018": 0.0,
			"-0.017": 0.0,
			"-0.016": 0.0,
			"-0.015": 0.0,
			"-0.014": 0.0,
			"-0.013": 0.0,
			"-0.012": 0.0,
			"-0.011": 0.0,
			"-0.01": 0.0,
			"-0.009": 0.0,
			"-0.008": 0.0,
			"-0.007": 0.0,
			"-0.006": 0.404341022752,
			"-0.005": 10.0173824163,
			"-0.004": 21.7828937539,
			"-0.003": 21.9820437518,
			"-0.002": 22.9326244059,
			"-0.001": 19.7726472926,
			"0.0": 24.6622387632,
			"0.001": 15.6305062764,
			"0.002": 11.3042398467,
			"0.003": 9.43129900732,
			"0.004": 11.2480617473,
			"0.005": 11.6299725764,
			"0.006": 11.5964276984,
			"0.007": 4.13307001704,
			"0.008": 0.0458991430153,
			"0.009": 0.0,
			"0.01": 0.0,
			"0.011": 0.0,
			"0.012": 0.0,
			"0.013": 0.0,
			"0.014": 0.0,
			"0.015": 0.0,
			"0.016": 0.0,
			"0.017": 0.0,
			"0.018": 0.0,
			"0.019": 0.0,
			"0.02": 0.0,
			"0.021": 0.0,
			"0.022": 0.0,
			"0.023": 0.0,
			"0.024": 0.0,
			"0.025": 0.0
		}
	}
}
