{
	 "smiles": "OC(=O)C1=C(NC(=O)OCC2=CC=CC=C2)C=CC=C1", 
	 "Tm": 403.15, 
	 "num_atms": 33, 
	 "gaussian": { 
		 "optdone": 1, 
		 "sigma_profile": "yes", 
		 "theory": "DFT", 
		 "functional": "B3LYP", 
		 "basiset": "6-31G**", 
		 "properties": { 
			 "R2extent": 8932.3022, 
			 "electric_dipole_moment_norm": 2.51336533357, 
			 "electric_quadrupole_moment_norm": 15.3535297206, 
			 "total_energy": -935.124105409, 
			 "HOMO_LUMO_gap": 0.17528, 
			 "cosmo_polarized_energy": -14.14, 
			 "cosmo_cavitation_energy": 38.51, 
			 "cosmo_dispersion_energy": -27.9, 
			 "cosmo_repulsion_energy": 2.14, 
			 "cosmo_total_nonelectrostatic_energy": 12.75, 
			 "SMD_solvation_energy": 8.4 
		},
		"coords": [
			{
				"x": 0.5217442405,
				"y": 3.0786208311,
				"z": 1.8255502759,
				"element": "O" 
			},
			{
				"x": 1.6956986859,
				"y": 3.4998418595,
				"z": 2.3903141568,
				"element": "C" 
			},
			{
				"x": 1.7011944532,
				"y": 4.4711939932,
				"z": 3.1197671799,
				"element": "O" 
			},
			{
				"x": 2.8910904711,
				"y": 2.6920695238,
				"z": 2.0382628376,
				"element": "C" 
			},
			{
				"x": 2.9277431926,
				"y": 1.5487781868,
				"z": 1.18835839,
				"element": "C" 
			},
			{
				"x": 1.7581316983,
				"y": 1.0757606675,
				"z": 0.5848904631,
				"element": "N" 
			},
			{
				"x": 1.6069536906,
				"y": -0.0024051793,
				"z": -0.2573709443,
				"element": "C" 
			},
			{
				"x": 2.465115859,
				"y": -0.7698528703,
				"z": -0.6522777926,
				"element": "O" 
			},
			{
				"x": 0.2946138214,
				"y": -0.0854935736,
				"z": -0.5992258489,
				"element": "O" 
			},
			{
				"x": -0.0352771195,
				"y": -1.1794951604,
				"z": -1.4927844644,
				"element": "C" 
			},
			{
				"x": -1.5138554262,
				"y": -1.1243479943,
				"z": -1.7649895778,
				"element": "C" 
			},
			{
				"x": -2.4148915852,
				"y": -1.8040292075,
				"z": -0.9361630454,
				"element": "C" 
			},
			{
				"x": -3.7875286175,
				"y": -1.7404022199,
				"z": -1.1768443195,
				"element": "C" 
			},
			{
				"x": -4.2737420907,
				"y": -0.9939968534,
				"z": -2.2522858444,
				"element": "C" 
			},
			{
				"x": -3.3832502014,
				"y": -0.3127932228,
				"z": -3.0847516073,
				"element": "C" 
			},
			{
				"x": -2.0112633648,
				"y": -0.3787738865,
				"z": -2.8408030204,
				"element": "C" 
			},
			{
				"x": 4.1647286085,
				"y": 0.910924759,
				"z": 0.9727760918,
				"element": "C" 
			},
			{
				"x": 5.3229278695,
				"y": 1.3859255556,
				"z": 1.5751718797,
				"element": "C" 
			},
			{
				"x": 5.2962538141,
				"y": 2.5067075185,
				"z": 2.4101683596,
				"element": "C" 
			},
			{
				"x": 4.0857381285,
				"y": 3.1431314307,
				"z": 2.6303823651,
				"element": "C" 
			},
			{
				"x": -0.160125323,
				"y": 3.6938891352,
				"z": 2.1421554973,
				"element": "H" 
			},
			{
				"x": 0.9075906265,
				"y": 1.5859842856,
				"z": 0.7872372786,
				"element": "H" 
			},
			{
				"x": 0.5516060469,
				"y": -1.0726298252,
				"z": -2.4096305254,
				"element": "H" 
			},
			{
				"x": 0.2562747631,
				"y": -2.1205380585,
				"z": -1.0174894213,
				"element": "H" 
			},
			{
				"x": -2.0368447498,
				"y": -2.3867294227,
				"z": -0.0998809117,
				"element": "H" 
			},
			{
				"x": -4.4762511018,
				"y": -2.2750694411,
				"z": -0.5290471504,
				"element": "H" 
			},
			{
				"x": -5.342022876,
				"y": -0.9468953702,
				"z": -2.4434097607,
				"element": "H" 
			},
			{
				"x": -3.7566782843,
				"y": 0.2658208679,
				"z": -3.9247540394,
				"element": "H" 
			},
			{
				"x": -1.3183874002,
				"y": 0.1503422287,
				"z": -3.4902538618,
				"element": "H" 
			},
			{
				"x": 4.1924510937,
				"y": 0.0441057171,
				"z": 0.3284234961,
				"element": "H" 
			},
			{
				"x": 6.2598255262,
				"y": 0.869046676,
				"z": 1.3865594344,
				"element": "H" 
			},
			{
				"x": 6.2036672154,
				"y": 2.8738529783,
				"z": 2.8783408518,
				"element": "H" 
			},
			{
				"x": 4.0197683353,
				"y": 4.0154560711,
				"z": 3.270703578,
				"element": "H" 
			}
		],
		 "valence_orbital": [ 
			{
				"type": "occ",
				"energy": -0.28115,
				"method": "rhf"
			},
			{
				"type": "occ",
				"energy": -0.26012,
				"method": "rhf"
			},
			{
				"type": "occ",
				"energy": -0.25745,
				"method": "rhf"
			},
			{
				"type": "occ",
				"energy": -0.25504,
				"method": "rhf"
			},
			{
				"type": "occ",
				"energy": -0.22611,
				"method": "rhf"
			},
			{
				"type": "unocc",
				"energy": -0.05083,
				"method": "rhf"
			},
			{
				"type": "unocc",
				"energy": -0.01639,
				"method": "rhf"
			},
			{
				"type": "unocc",
				"energy": -0.01018,
				"method": "rhf"
			},
			{
				"type": "unocc",
				"energy": -0.00663,
				"method": "rhf"
			},
			{
				"type": "unocc",
				"energy": 0.05445,
				"method": "rhf"
			}
		],
		"cosmo_sigma_profile": { 
			"-0.025": 0.0,
			"-0.024": 0.0,
			"-0.023": 0.0,
			"-0.022": 0.0,
			"-0.021": 0.0,
			"-0.02": 0.0,
			"-0.019": 0.246141775011,
			"-0.018": 0.932363167754,
			"-0.017": 1.06197320803,
			"-0.016": 0.638533859637,
			"-0.015": 0.760745518865,
			"-0.014": 0.69931081895,
			"-0.013": 1.03438901553,
			"-0.012": 0.498048803974,
			"-0.011": 0.649215293928,
			"-0.01": 0.669398204636,
			"-0.009": 0.501521491482,
			"-0.008": 0.735464755598,
			"-0.007": 2.484539733,
			"-0.006": 19.3780365528,
			"-0.005": 22.9572553463,
			"-0.004": 26.4308214658,
			"-0.003": 24.4603851341,
			"-0.002": 23.9145507203,
			"-0.001": 20.889657417,
			"0.0": 21.5417206412,
			"0.001": 20.9433768885,
			"0.002": 23.0151050351,
			"0.003": 22.6148100695,
			"0.004": 20.5208001429,
			"0.005": 15.9406753839,
			"0.006": 8.05457120171,
			"0.007": 4.73937762812,
			"0.008": 2.69287260575,
			"0.009": 3.68202873092,
			"0.01": 3.94415606464,
			"0.011": 7.24287274017,
			"0.012": 4.66746751275,
			"0.013": 0.100063876047,
			"0.014": 0.0,
			"0.015": 0.0,
			"0.016": 0.0,
			"0.017": 0.0,
			"0.018": 0.0,
			"0.019": 0.0,
			"0.02": 0.0,
			"0.021": 0.0,
			"0.022": 0.0,
			"0.023": 0.0,
			"0.024": 0.0,
			"0.025": 0.0
		}
	}
}
