{
	 "smiles": "CCCCCCCCCCS", 
	 "Tm": 247.15, 
	 "num_atms": 33, 
	 "gaussian": { 
		 "optdone": 1, 
		 "sigma_profile": "yes", 
		 "theory": "DFT", 
		 "functional": "B3LYP", 
		 "basiset": "6-31G**", 
		 "properties": { 
			 "R2extent": 5211.8384, 
			 "electric_dipole_moment_norm": 1.79248717708, 
			 "electric_quadrupole_moment_norm": 15.4813677755, 
			 "total_energy": -792.538713166, 
			 "HOMO_LUMO_gap": 0.26435, 
			 "cosmo_polarized_energy": -4.29, 
			 "cosmo_cavitation_energy": 34.89, 
			 "cosmo_dispersion_energy": -24.84, 
			 "cosmo_repulsion_energy": 2.04, 
			 "cosmo_total_nonelectrostatic_energy": 12.08, 
			 "SMD_solvation_energy": 4.43 
		},
		"coords": [
			{
				"x": 1.4050496419,
				"y": 1.6976945516,
				"z": -3.2187111459,
				"element": "C" 
			},
			{
				"x": 1.4130475019,
				"y": 0.6336270623,
				"z": -2.1160926808,
				"element": "C" 
			},
			{
				"x": 0.4912322833,
				"y": -0.5547632149,
				"z": -2.4251171552,
				"element": "C" 
			},
			{
				"x": 0.5189752495,
				"y": -1.6844723438,
				"z": -1.3824229037,
				"element": "C" 
			},
			{
				"x": -0.048401311,
				"y": -1.3068769299,
				"z": -0.0057976658,
				"element": "C" 
			},
			{
				"x": -0.0486466508,
				"y": -2.4851438872,
				"z": 0.978344847,
				"element": "C" 
			},
			{
				"x": -0.7234171761,
				"y": -2.2384683084,
				"z": 2.3400674255,
				"element": "C" 
			},
			{
				"x": -0.0655661929,
				"y": -1.1750809129,
				"z": 3.247480041,
				"element": "C" 
			},
			{
				"x": -0.6181350001,
				"y": 0.2476476586,
				"z": 3.0812684616,
				"element": "C" 
			},
			{
				"x": 0.0295835236,
				"y": 1.2917632165,
				"z": 3.9978886163,
				"element": "C" 
			},
			{
				"x": -0.2513963906,
				"y": 1.0521404112,
				"z": 5.8081034256,
				"element": "S" 
			},
			{
				"x": 2.0713837334,
				"y": 2.5322249446,
				"z": -2.9766173416,
				"element": "H" 
			},
			{
				"x": 0.3992396294,
				"y": 2.1077563008,
				"z": -3.3661394507,
				"element": "H" 
			},
			{
				"x": 1.7322013823,
				"y": 1.2777668961,
				"z": -4.1768665678,
				"element": "H" 
			},
			{
				"x": 2.4378984134,
				"y": 0.264694318,
				"z": -1.9702750417,
				"element": "H" 
			},
			{
				"x": 1.1196842544,
				"y": 1.0979765197,
				"z": -1.1661502914,
				"element": "H" 
			},
			{
				"x": -0.5405788433,
				"y": -0.1917886616,
				"z": -2.5398640563,
				"element": "H" 
			},
			{
				"x": 0.7737454672,
				"y": -0.970686088,
				"z": -3.4019913707,
				"element": "H" 
			},
			{
				"x": 1.5523968177,
				"y": -2.0409425343,
				"z": -1.2626783323,
				"element": "H" 
			},
			{
				"x": -0.050286178,
				"y": -2.538943462,
				"z": -1.7731017818,
				"element": "H" 
			},
			{
				"x": -1.0754732397,
				"y": -0.9329497065,
				"z": -0.1297694532,
				"element": "H" 
			},
			{
				"x": 0.5325401599,
				"y": -0.477052746,
				"z": 0.4138326841,
				"element": "H" 
			},
			{
				"x": -0.5492697625,
				"y": -3.3383062582,
				"z": 0.4994590582,
				"element": "H" 
			},
			{
				"x": 0.9888748404,
				"y": -2.8062372812,
				"z": 1.1503337069,
				"element": "H" 
			},
			{
				"x": -0.7313093615,
				"y": -3.1951566815,
				"z": 2.8767767237,
				"element": "H" 
			},
			{
				"x": -1.7803417339,
				"y": -1.9798327664,
				"z": 2.1822996878,
				"element": "H" 
			},
			{
				"x": -0.1983262531,
				"y": -1.4641659038,
				"z": 4.2957257701,
				"element": "H" 
			},
			{
				"x": 1.0205002419,
				"y": -1.1661829201,
				"z": 3.0742382667,
				"element": "H" 
			},
			{
				"x": -0.4794387601,
				"y": 0.5921084748,
				"z": 2.0487064564,
				"element": "H" 
			},
			{
				"x": -1.7031954429,
				"y": 0.239481154,
				"z": 3.2530280909,
				"element": "H" 
			},
			{
				"x": -0.2986957487,
				"y": 2.3001984383,
				"z": 3.732400256,
				"element": "H" 
			},
			{
				"x": 1.1196655311,
				"y": 1.2715122394,
				"z": 3.8952312115,
				"element": "H" 
			},
			{
				"x": -1.5869406261,
				"y": 1.2415584207,
				"z": 5.7851105094,
				"element": "H" 
			}
		],
		 "valence_orbital": [ 
			{
				"type": "occ",
				"energy": -0.31679,
				"method": "rhf"
			},
			{
				"type": "occ",
				"energy": -0.31482,
				"method": "rhf"
			},
			{
				"type": "occ",
				"energy": -0.30577,
				"method": "rhf"
			},
			{
				"type": "occ",
				"energy": -0.29684,
				"method": "rhf"
			},
			{
				"type": "occ",
				"energy": -0.23338,
				"method": "rhf"
			},
			{
				"type": "unocc",
				"energy": 0.03097,
				"method": "rhf"
			},
			{
				"type": "unocc",
				"energy": 0.07435,
				"method": "rhf"
			},
			{
				"type": "unocc",
				"energy": 0.08206,
				"method": "rhf"
			},
			{
				"type": "unocc",
				"energy": 0.09827,
				"method": "rhf"
			},
			{
				"type": "unocc",
				"energy": 0.09971,
				"method": "rhf"
			}
		],
		"cosmo_sigma_profile": { 
			"-0.025": 0.0,
			"-0.024": 0.0,
			"-0.023": 0.0,
			"-0.022": 0.0,
			"-0.021": 0.0,
			"-0.02": 0.0,
			"-0.019": 0.0,
			"-0.018": 0.0,
			"-0.017": 0.0,
			"-0.016": 0.0,
			"-0.015": 0.0,
			"-0.014": 0.0,
			"-0.013": 0.0,
			"-0.012": 0.0,
			"-0.011": 0.0,
			"-0.01": 0.0,
			"-0.009": 0.475026381902,
			"-0.008": 1.8809700784,
			"-0.007": 2.12004808132,
			"-0.006": 1.96211143892,
			"-0.005": 5.34213082704,
			"-0.004": 7.20171259201,
			"-0.003": 12.1645983598,
			"-0.002": 33.9002676135,
			"-0.001": 54.0250659739,
			"0.0": 55.57107778,
			"0.001": 47.0668604288,
			"0.002": 20.5373804117,
			"0.003": 4.4302445053,
			"0.004": 3.70251905495,
			"0.005": 3.58417759576,
			"0.006": 4.7845476512,
			"0.007": 2.48555079822,
			"0.008": 3.19071135121,
			"0.009": 2.48058148765,
			"0.01": 1.9072030711,
			"0.011": 1.09568430504,
			"0.012": 0.131336361209,
			"0.013": 0.0,
			"0.014": 0.0,
			"0.015": 0.0,
			"0.016": 0.0,
			"0.017": 0.0,
			"0.018": 0.0,
			"0.019": 0.0,
			"0.02": 0.0,
			"0.021": 0.0,
			"0.022": 0.0,
			"0.023": 0.0,
			"0.024": 0.0,
			"0.025": 0.0
		}
	}
}
