{
	 "smiles": "COC1=C(O)C(I)=CC(C=O)=C1", 
	 "Tm": 367.15, 
	 "num_atms": 19, 
	 "gaussian": { 
		 "optdone": 1, 
		 "sigma_profile": "no", 
		 "theory": "DFT", 
		 "functional": "B3LYP", 
		 "basiset": "6-31G**", 
		 "properties": { 
			 "R2extent": 2583.2148, 
			 "electric_dipole_moment_norm": 6.03141453226, 
			 "electric_quadrupole_moment_norm": 14.814145975, 
			 "total_energy": -546.102240243, 
			 "HOMO_LUMO_gap": 0.17004, 
			 "cosmo_polarized_energy": -97921.53, 
			 "cosmo_cavitation_energy": 26.9, 
			 "cosmo_dispersion_energy": -21.09, 
			 "cosmo_repulsion_energy": 1.65, 
			 "cosmo_total_nonelectrostatic_energy": 7.46, 
			 "SMD_solvation_energy": 5.96 
		},
		"coords": [
			{
				"x": -1.4345890234,
				"y": 1.9067386886,
				"z": -2.5529789446,
				"element": "C" 
			},
			{
				"x": -0.3837879375,
				"y": 1.4394294968,
				"z": -1.7156215809,
				"element": "O" 
			},
			{
				"x": -0.6825323832,
				"y": 0.4975478191,
				"z": -0.7647854339,
				"element": "C" 
			},
			{
				"x": 0.4438306421,
				"y": 0.1137291729,
				"z": 0.0039064832,
				"element": "C" 
			},
			{
				"x": 1.6429244194,
				"y": 0.6747364067,
				"z": -0.250637233,
				"element": "O" 
			},
			{
				"x": 0.2885382943,
				"y": -0.842259823,
				"z": 1.0143086035,
				"element": "C" 
			},
			{
				"x": 1.9651130616,
				"y": -1.4158715186,
				"z": 2.1611784702,
				"element": "I" 
			},
			{
				"x": -0.9583310215,
				"y": -1.4096917425,
				"z": 1.2613432238,
				"element": "C" 
			},
			{
				"x": -2.06423535,
				"y": -1.0236340327,
				"z": 0.4963740131,
				"element": "C" 
			},
			{
				"x": -3.3869912764,
				"y": -1.6250502871,
				"z": 0.7577956114,
				"element": "C" 
			},
			{
				"x": -3.6159638512,
				"y": -2.4607345143,
				"z": 1.611994489,
				"element": "O" 
			},
			{
				"x": -1.9258318364,
				"y": -0.064247685,
				"z": -0.5229160179,
				"element": "C" 
			},
			{
				"x": -1.8656277646,
				"y": 1.0880092427,
				"z": -3.1415466327,
				"element": "H" 
			},
			{
				"x": -2.2246002356,
				"y": 2.3890327174,
				"z": -1.9649314478,
				"element": "H" 
			},
			{
				"x": -0.9843776316,
				"y": 2.638308543,
				"z": -3.2245731668,
				"element": "H" 
			},
			{
				"x": 1.5178373495,
				"y": 1.3013577423,
				"z": -0.9820959458,
				"element": "H" 
			},
			{
				"x": -1.0985988055,
				"y": -2.1512960678,
				"z": 2.0391018248,
				"element": "H" 
			},
			{
				"x": -4.2001004223,
				"y": -1.2505024983,
				"z": 0.0947011243,
				"element": "H" 
			},
			{
				"x": -2.7939762276,
				"y": 0.2236983398,
				"z": -1.10671744,
				"element": "H" 
			}
		],
		 "valence_orbital": [ 
			{
				"type": "occ",
				"energy": -0.29374,
				"method": "rhf"
			},
			{
				"type": "occ",
				"energy": -0.26515,
				"method": "rhf"
			},
			{
				"type": "occ",
				"energy": -0.25547,
				"method": "rhf"
			},
			{
				"type": "occ",
				"energy": -0.24356,
				"method": "rhf"
			},
			{
				"type": "occ",
				"energy": -0.23126,
				"method": "rhf"
			},
			{
				"type": "unocc",
				"energy": -0.06122,
				"method": "rhf"
			},
			{
				"type": "unocc",
				"energy": -0.03718,
				"method": "rhf"
			},
			{
				"type": "unocc",
				"energy": -0.01895,
				"method": "rhf"
			},
			{
				"type": "unocc",
				"energy": 0.04084,
				"method": "rhf"
			},
			{
				"type": "unocc",
				"energy": 0.04268,
				"method": "rhf"
			}
		],
		"cosmo_sigma_profile": { 
			"0.0": 0.0,
			"0.0": 0.0,
			"0.0": 0.0,
			"0.0": 0.0,
			"0.0": 0.0,
			"0.0": 0.0,
			"0.0": 0.0,
			"0.0": 0.0,
			"0.0": 0.0,
			"0.0": 0.0,
			"0.0": 0.0,
			"0.0": 0.0,
			"0.0": 0.0,
			"0.0": 0.0,
			"0.0": 0.0,
			"0.0": 0.0,
			"0.0": 0.0,
			"0.0": 0.0,
			"0.0": 0.0,
			"0.0": 0.0,
			"0.0": 0.0,
			"0.0": 0.0,
			"0.0": 0.0,
			"0.0": 0.0,
			"0.0": 0.0,
			"0.0": 0.0,
			"0.0": 0.0,
			"0.0": 0.0,
			"0.0": 0.0,
			"0.0": 0.0,
			"0.0": 0.0,
			"0.0": 0.0,
			"0.0": 0.0,
			"0.0": 0.0,
			"0.0": 0.0,
			"0.0": 0.0,
			"0.0": 0.0,
			"0.0": 0.0,
			"0.0": 0.0,
			"0.0": 0.0,
			"0.0": 0.0,
			"0.0": 0.0,
			"0.0": 0.0,
			"0.0": 0.0,
			"0.0": 0.0,
			"0.0": 0.0,
			"0.0": 0.0,
			"0.0": 0.0,
			"0.0": 0.0,
			"0.0": 0.0,
			"0.0": 0.0
		}
	}
}
