{
	 "smiles": "OC(=O)C1=C(C=CS1)C1CC1", 
	 "Tm": 443.15, 
	 "num_atms": 19, 
	 "gaussian": { 
		 "optdone": 1, 
		 "sigma_profile": "yes", 
		 "theory": "DFT", 
		 "functional": "B3LYP", 
		 "basiset": "6-31G**", 
		 "properties": { 
			 "R2extent": 2596.6861, 
			 "electric_dipole_moment_norm": 3.07181036036, 
			 "electric_quadrupole_moment_norm": 12.6274151654, 
			 "total_energy": -858.281654395, 
			 "HOMO_LUMO_gap": 0.18424, 
			 "cosmo_polarized_energy": -10.54, 
			 "cosmo_cavitation_energy": 24.31, 
			 "cosmo_dispersion_energy": -18.54, 
			 "cosmo_repulsion_energy": 1.44, 
			 "cosmo_total_nonelectrostatic_energy": 7.21, 
			 "SMD_solvation_energy": 5.03 
		},
		"coords": [
			{
				"x": 3.4247102797,
				"y": 0.6601361325,
				"z": -1.1559035487,
				"element": "O" 
			},
			{
				"x": 3.1782056092,
				"y": -0.4461886393,
				"z": -0.404648342,
				"element": "C" 
			},
			{
				"x": 4.0102731592,
				"y": -1.3279185274,
				"z": -0.2810087297,
				"element": "O" 
			},
			{
				"x": 1.855487591,
				"y": -0.4759792489,
				"z": 0.2234805857,
				"element": "C" 
			},
			{
				"x": 0.7804504229,
				"y": 0.4060218403,
				"z": 0.2118621459,
				"element": "C" 
			},
			{
				"x": -0.301741249,
				"y": -0.0985685646,
				"z": 1.0028027195,
				"element": "C" 
			},
			{
				"x": -0.0394114936,
				"y": -1.3106556916,
				"z": 1.5804448495,
				"element": "C" 
			},
			{
				"x": 1.5311654246,
				"y": -1.8976919323,
				"z": 1.1930024925,
				"element": "S" 
			},
			{
				"x": 0.7222559108,
				"y": 1.7018132646,
				"z": -0.50819268,
				"element": "C" 
			},
			{
				"x": -0.5866811127,
				"y": 2.1861185768,
				"z": -1.1138719746,
				"element": "C" 
			},
			{
				"x": -0.0295875571,
				"y": 2.880768843,
				"z": 0.0914316089,
				"element": "C" 
			},
			{
				"x": 4.3248308042,
				"y": 0.5356193115,
				"z": -1.5000819852,
				"element": "H" 
			},
			{
				"x": -1.2419694797,
				"y": 0.4243396923,
				"z": 1.1356893782,
				"element": "H" 
			},
			{
				"x": -0.6944587909,
				"y": -1.8901572237,
				"z": 2.2172466762,
				"element": "H" 
			},
			{
				"x": 1.6165439112,
				"y": 1.9482257728,
				"z": -1.06347663,
				"element": "H" 
			},
			{
				"x": -0.5320108432,
				"y": 2.6854479653,
				"z": -2.0764386892,
				"element": "H" 
			},
			{
				"x": -1.4629170008,
				"y": 1.5571928444,
				"z": -0.9889608217,
				"element": "H" 
			},
			{
				"x": 0.4135070621,
				"y": 3.8644499419,
				"z": -0.0307237559,
				"element": "H" 
			},
			{
				"x": -0.5215526477,
				"y": 2.7311256425,
				"z": 1.0477467004,
				"element": "H" 
			}
		],
		 "valence_orbital": [ 
			{
				"type": "occ",
				"energy": -0.3142,
				"method": "rhf"
			},
			{
				"type": "occ",
				"energy": -0.30424,
				"method": "rhf"
			},
			{
				"type": "occ",
				"energy": -0.27667,
				"method": "rhf"
			},
			{
				"type": "occ",
				"energy": -0.24863,
				"method": "rhf"
			},
			{
				"type": "occ",
				"energy": -0.23516,
				"method": "rhf"
			},
			{
				"type": "unocc",
				"energy": -0.05092,
				"method": "rhf"
			},
			{
				"type": "unocc",
				"energy": 0.02832,
				"method": "rhf"
			},
			{
				"type": "unocc",
				"energy": 0.02968,
				"method": "rhf"
			},
			{
				"type": "unocc",
				"energy": 0.07762,
				"method": "rhf"
			},
			{
				"type": "unocc",
				"energy": 0.09012,
				"method": "rhf"
			}
		],
		"cosmo_sigma_profile": { 
			"-0.025": 0.0,
			"-0.024": 0.0,
			"-0.023": 0.0,
			"-0.022": 0.0,
			"-0.021": 0.0,
			"-0.02": 0.0,
			"-0.019": 0.0196183807843,
			"-0.018": 0.586669451713,
			"-0.017": 1.07487524244,
			"-0.016": 0.87109508367,
			"-0.015": 0.28173374929,
			"-0.014": 0.773797768556,
			"-0.013": 0.821118889301,
			"-0.012": 0.723170829893,
			"-0.011": 1.1712725055,
			"-0.01": 0.788116311362,
			"-0.009": 2.01098459101,
			"-0.008": 3.20557377992,
			"-0.007": 5.15286041283,
			"-0.006": 7.58623439203,
			"-0.005": 10.6276145811,
			"-0.004": 12.9749551369,
			"-0.003": 11.1787149626,
			"-0.002": 11.6296211559,
			"-0.001": 12.6864493896,
			"0.0": 12.7607705123,
			"0.001": 13.3268153952,
			"0.002": 21.1123227795,
			"0.003": 25.9437894865,
			"0.004": 15.7298831313,
			"0.005": 4.63901597232,
			"0.006": 2.48808288631,
			"0.007": 1.96142002147,
			"0.008": 1.64303465596,
			"0.009": 1.51756896362,
			"0.01": 2.02810402164,
			"0.011": 3.24678982685,
			"0.012": 5.09345401509,
			"0.013": 0.362397610419,
			"0.014": 0.0,
			"0.015": 0.0,
			"0.016": 0.0,
			"0.017": 0.0,
			"0.018": 0.0,
			"0.019": 0.0,
			"0.02": 0.0,
			"0.021": 0.0,
			"0.022": 0.0,
			"0.023": 0.0,
			"0.024": 0.0,
			"0.025": 0.0
		}
	}
}
