{
	 "smiles": "COC1=CC(=CC(OC)=C1OC)C(=O)NN", 
	 "Tm": 432.15, 
	 "num_atms": 30, 
	 "gaussian": { 
		 "optdone": 1, 
		 "sigma_profile": "yes", 
		 "theory": "DFT", 
		 "functional": "B3LYP", 
		 "basiset": "6-31G**", 
		 "properties": { 
			 "R2extent": 4159.9877, 
			 "electric_dipole_moment_norm": 4.82122512853, 
			 "electric_quadrupole_moment_norm": 12.1588732763, 
			 "total_energy": -799.821408645, 
			 "HOMO_LUMO_gap": 0.1964, 
			 "cosmo_polarized_energy": -16.83, 
			 "cosmo_cavitation_energy": 33.96, 
			 "cosmo_dispersion_energy": -23.45, 
			 "cosmo_repulsion_energy": 1.88, 
			 "cosmo_total_nonelectrostatic_energy": 12.39, 
			 "SMD_solvation_energy": 9.26 
		},
		"coords": [
			{
				"x": 2.6478222355,
				"y": 2.2361590554,
				"z": 0.9872861702,
				"element": "C" 
			},
			{
				"x": 1.4081857591,
				"y": 2.5336596997,
				"z": 0.3341232217,
				"element": "O" 
			},
			{
				"x": 0.696046178,
				"y": 1.4396962792,
				"z": -0.098164514,
				"element": "C" 
			},
			{
				"x": 0.538302157,
				"y": 1.231740063,
				"z": -1.466172814,
				"element": "C" 
			},
			{
				"x": -0.2225224807,
				"y": 0.1539858553,
				"z": -1.9348704057,
				"element": "C" 
			},
			{
				"x": -0.8361682323,
				"y": -0.7082867578,
				"z": -1.0173614569,
				"element": "C" 
			},
			{
				"x": -0.7060736265,
				"y": -0.4913747744,
				"z": 0.3559012855,
				"element": "C" 
			},
			{
				"x": -1.4099628723,
				"y": -1.2999480282,
				"z": 1.2127045359,
				"element": "O" 
			},
			{
				"x": -0.6303379886,
				"y": -2.1061127999,
				"z": 2.1026420467,
				"element": "C" 
			},
			{
				"x": 0.0650785814,
				"y": 0.5863613264,
				"z": 0.826778462,
				"element": "C" 
			},
			{
				"x": 0.1939251197,
				"y": 0.7952793508,
				"z": 2.1798953503,
				"element": "O" 
			},
			{
				"x": -0.6193058068,
				"y": 1.8657696141,
				"z": 2.6871381306,
				"element": "C" 
			},
			{
				"x": -0.4026643474,
				"y": 0.041930246,
				"z": -3.4223668491,
				"element": "C" 
			},
			{
				"x": -0.4774095624,
				"y": 1.0371485179,
				"z": -4.1335908811,
				"element": "O" 
			},
			{
				"x": -0.5008707994,
				"y": -1.2184146974,
				"z": -3.9843171663,
				"element": "N" 
			},
			{
				"x": 0.074206754,
				"y": -2.4057841031,
				"z": -3.4771925922,
				"element": "N" 
			},
			{
				"x": 3.3300559811,
				"y": 1.7135663529,
				"z": 0.3049374406,
				"element": "H" 
			},
			{
				"x": 3.0842446271,
				"y": 3.1979191705,
				"z": 1.263687039,
				"element": "H" 
			},
			{
				"x": 2.4906890113,
				"y": 1.6302463855,
				"z": 1.8847687483,
				"element": "H" 
			},
			{
				"x": 0.9905714445,
				"y": 1.923456205,
				"z": -2.1675089959,
				"element": "H" 
			},
			{
				"x": -1.4774009938,
				"y": -1.5214671219,
				"z": -1.337735786,
				"element": "H" 
			},
			{
				"x": -1.3456093793,
				"y": -2.6907262233,
				"z": 2.6845973716,
				"element": "H" 
			},
			{
				"x": -0.023669994,
				"y": -1.4908493611,
				"z": 2.7720677717,
				"element": "H" 
			},
			{
				"x": 0.0193642483,
				"y": -2.7897033071,
				"z": 1.5403479018,
				"element": "H" 
			},
			{
				"x": -1.6817879154,
				"y": 1.6499060364,
				"z": 2.5287082674,
				"element": "H" 
			},
			{
				"x": -0.4146040125,
				"y": 1.9228561773,
				"z": 3.7579444813,
				"element": "H" 
			},
			{
				"x": -0.3559756482,
				"y": 2.8139586684,
				"z": 2.2085658372,
				"element": "H" 
			},
			{
				"x": -0.5118591516,
				"y": -1.1820624834,
				"z": -4.9970968764,
				"element": "H" 
			},
			{
				"x": 0.9204485848,
				"y": -2.190518934,
				"z": -2.9551713772,
				"element": "H" 
			},
			{
				"x": -0.5771178706,
				"y": -2.8546904122,
				"z": -2.8402443472,
				"element": "H" 
			}
		],
		 "valence_orbital": [ 
			{
				"type": "occ",
				"energy": -0.26917,
				"method": "rhf"
			},
			{
				"type": "occ",
				"energy": -0.25449,
				"method": "rhf"
			},
			{
				"type": "occ",
				"energy": -0.25203,
				"method": "rhf"
			},
			{
				"type": "occ",
				"energy": -0.23916,
				"method": "rhf"
			},
			{
				"type": "occ",
				"energy": -0.23287,
				"method": "rhf"
			},
			{
				"type": "unocc",
				"energy": -0.03647,
				"method": "rhf"
			},
			{
				"type": "unocc",
				"energy": -0.00471,
				"method": "rhf"
			},
			{
				"type": "unocc",
				"energy": 0.04648,
				"method": "rhf"
			},
			{
				"type": "unocc",
				"energy": 0.06533,
				"method": "rhf"
			},
			{
				"type": "unocc",
				"energy": 0.07566,
				"method": "rhf"
			}
		],
		"cosmo_sigma_profile": { 
			"-0.025": 0.0,
			"-0.024": 0.0,
			"-0.023": 0.0,
			"-0.022": 0.0,
			"-0.021": 0.0,
			"-0.02": 0.0,
			"-0.019": 0.0,
			"-0.018": 0.0,
			"-0.017": 0.0,
			"-0.016": 0.0,
			"-0.015": 0.0,
			"-0.014": 0.0300405596055,
			"-0.013": 0.764955931729,
			"-0.012": 2.57703798351,
			"-0.011": 3.02333708186,
			"-0.01": 4.31255883451,
			"-0.009": 4.34063591492,
			"-0.008": 3.18572221002,
			"-0.007": 3.9744458048,
			"-0.006": 7.56256570244,
			"-0.005": 16.3590458886,
			"-0.004": 22.2712514947,
			"-0.003": 31.1015285355,
			"-0.002": 26.2664747434,
			"-0.001": 19.898504582,
			"0.0": 15.4119020122,
			"0.001": 16.1396819857,
			"0.002": 18.9520374418,
			"0.003": 12.9558838278,
			"0.004": 8.54717259892,
			"0.005": 7.35300927863,
			"0.006": 5.27613579364,
			"0.007": 5.86386689223,
			"0.008": 4.27902970646,
			"0.009": 4.84005760371,
			"0.01": 4.03584471835,
			"0.011": 5.08739959957,
			"0.012": 3.48685763326,
			"0.013": 5.7170639952,
			"0.014": 3.35509238838,
			"0.015": 0.601639980695,
			"0.016": 0.454797126048,
			"0.017": 0.0215148190455,
			"0.018": 0.0,
			"0.019": 0.0,
			"0.02": 0.0,
			"0.021": 0.0,
			"0.022": 0.0,
			"0.023": 0.0,
			"0.024": 0.0,
			"0.025": 0.0
		}
	}
}
