{
	 "smiles": "CC1=CC(S)=CC=C1", 
	 "Tm": 253.15, 
	 "num_atms": 16, 
	 "gaussian": { 
		 "optdone": 1, 
		 "sigma_profile": "yes", 
		 "theory": "DFT", 
		 "functional": "B3LYP", 
		 "basiset": "6-31G**", 
		 "properties": { 
			 "R2extent": 1945.9821, 
			 "electric_dipole_moment_norm": 1.64514210328, 
			 "electric_quadrupole_moment_norm": 6.87447491449, 
			 "total_energy": -669.757434966, 
			 "HOMO_LUMO_gap": 0.21248, 
			 "cosmo_polarized_energy": -5.65, 
			 "cosmo_cavitation_energy": 21.02, 
			 "cosmo_dispersion_energy": -16.14, 
			 "cosmo_repulsion_energy": 1.29, 
			 "cosmo_total_nonelectrostatic_energy": 6.17, 
			 "SMD_solvation_energy": 3.19 
		},
		"coords": [
			{
				"x": 1.5286591734,
				"y": -0.0899747217,
				"z": 0.1416268185,
				"element": "C" 
			},
			{
				"x": 0.0649390431,
				"y": -0.0850777553,
				"z": -0.234633758,
				"element": "C" 
			},
			{
				"x": -0.3702950979,
				"y": 0.6017138502,
				"z": -1.3746637241,
				"element": "C" 
			},
			{
				"x": -1.7173736772,
				"y": 0.5890638275,
				"z": -1.7539858853,
				"element": "C" 
			},
			{
				"x": -2.320533341,
				"y": 1.4549790445,
				"z": -3.1981887232,
				"element": "S" 
			},
			{
				"x": -2.6488580712,
				"y": -0.1171943729,
				"z": -0.9821270037,
				"element": "C" 
			},
			{
				"x": -2.2206806452,
				"y": -0.7975822105,
				"z": 0.1559557577,
				"element": "C" 
			},
			{
				"x": -0.8769863663,
				"y": -0.7836898058,
				"z": 0.5306945673,
				"element": "C" 
			},
			{
				"x": 2.0318858627,
				"y": 0.8240598203,
				"z": -0.1877339559,
				"element": "H" 
			},
			{
				"x": 1.6614864266,
				"y": -0.1785274141,
				"z": 1.2239796636,
				"element": "H" 
			},
			{
				"x": 2.0528121281,
				"y": -0.9356480652,
				"z": -0.3209575338,
				"element": "H" 
			},
			{
				"x": 0.3550714626,
				"y": 1.1526071014,
				"z": -1.9684471813,
				"element": "H" 
			},
			{
				"x": -1.1300358084,
				"y": 1.9261180782,
				"z": -3.6150949188,
				"element": "H" 
			},
			{
				"x": -3.6968881716,
				"y": -0.1315558572,
				"z": -1.2664248161,
				"element": "H" 
			},
			{
				"x": -2.9445130216,
				"y": -1.3410080657,
				"z": 0.7568597829,
				"element": "H" 
			},
			{
				"x": -0.556689896,
				"y": -1.3162834538,
				"z": 1.4221409102,
				"element": "H" 
			}
		],
		 "valence_orbital": [ 
			{
				"type": "occ",
				"energy": -0.34393,
				"method": "rhf"
			},
			{
				"type": "occ",
				"energy": -0.32985,
				"method": "rhf"
			},
			{
				"type": "occ",
				"energy": -0.29104,
				"method": "rhf"
			},
			{
				"type": "occ",
				"energy": -0.24627,
				"method": "rhf"
			},
			{
				"type": "occ",
				"energy": -0.21547,
				"method": "rhf"
			},
			{
				"type": "unocc",
				"energy": -0.00299,
				"method": "rhf"
			},
			{
				"type": "unocc",
				"energy": -0.00121,
				"method": "rhf"
			},
			{
				"type": "unocc",
				"energy": 0.0177,
				"method": "rhf"
			},
			{
				"type": "unocc",
				"energy": 0.07318,
				"method": "rhf"
			},
			{
				"type": "unocc",
				"energy": 0.10445,
				"method": "rhf"
			}
		],
		"cosmo_sigma_profile": { 
			"-0.025": 0.0,
			"-0.024": 0.0,
			"-0.023": 0.0,
			"-0.022": 0.0,
			"-0.021": 0.0,
			"-0.02": 0.0,
			"-0.019": 0.0,
			"-0.018": 0.0,
			"-0.017": 0.0,
			"-0.016": 0.0,
			"-0.015": 0.0,
			"-0.014": 0.0,
			"-0.013": 0.0,
			"-0.012": 0.0,
			"-0.011": 0.175976834437,
			"-0.01": 2.59430507048,
			"-0.009": 2.58986166791,
			"-0.008": 1.80765267584,
			"-0.007": 2.1076917362,
			"-0.006": 5.4224192919,
			"-0.005": 9.85578073454,
			"-0.004": 16.7873361396,
			"-0.003": 13.4749928651,
			"-0.002": 12.834968555,
			"-0.001": 12.3346028359,
			"0.0": 16.0368458948,
			"0.001": 9.13450215731,
			"0.002": 9.36419401045,
			"0.003": 10.3894320901,
			"0.004": 11.2034788073,
			"0.005": 14.66084296,
			"0.006": 11.4005494691,
			"0.007": 2.28813428559,
			"0.008": 3.34086299337,
			"0.009": 1.63829435371,
			"0.01": 0.133575029262,
			"0.011": 0.0,
			"0.012": 0.0,
			"0.013": 0.0,
			"0.014": 0.0,
			"0.015": 0.0,
			"0.016": 0.0,
			"0.017": 0.0,
			"0.018": 0.0,
			"0.019": 0.0,
			"0.02": 0.0,
			"0.021": 0.0,
			"0.022": 0.0,
			"0.023": 0.0,
			"0.024": 0.0,
			"0.025": 0.0
		}
	}
}
