{
	 "smiles": "ClC1=CC=C(C=C1)C1=NNC=C1C=O", 
	 "Tm": 413.15, 
	 "num_atms": 21, 
	 "gaussian": { 
		 "optdone": 1, 
		 "sigma_profile": "yes", 
		 "theory": "DFT", 
		 "functional": "B3LYP", 
		 "basiset": "6-31G**", 
		 "properties": { 
			 "R2extent": 5001.0063, 
			 "electric_dipole_moment_norm": 3.43077463264, 
			 "electric_quadrupole_moment_norm": 14.4713841833, 
			 "total_energy": -1030.17596704, 
			 "HOMO_LUMO_gap": 0.18363, 
			 "cosmo_polarized_energy": -14.67, 
			 "cosmo_cavitation_energy": 28.17, 
			 "cosmo_dispersion_energy": -20.72, 
			 "cosmo_repulsion_energy": 1.63, 
			 "cosmo_total_nonelectrostatic_energy": 9.08, 
			 "SMD_solvation_energy": 4.87 
		},
		"coords": [
			{
				"x": -4.1640295537,
				"y": 0.4042530822,
				"z": 4.1305643142,
				"element": "Cl" 
			},
			{
				"x": -3.1441952893,
				"y": 0.5878357013,
				"z": 2.7120640764,
				"element": "C" 
			},
			{
				"x": -2.2564707183,
				"y": 1.6621783862,
				"z": 2.6383362252,
				"element": "C" 
			},
			{
				"x": -1.446528064,
				"y": 1.7988838971,
				"z": 1.5148637887,
				"element": "C" 
			},
			{
				"x": -1.5109436784,
				"y": 0.8743232945,
				"z": 0.45923905,
				"element": "C" 
			},
			{
				"x": -2.424451763,
				"y": -0.1872231887,
				"z": 0.5527587307,
				"element": "C" 
			},
			{
				"x": -3.2378157766,
				"y": -0.3384053367,
				"z": 1.6748517757,
				"element": "C" 
			},
			{
				"x": -0.6487136703,
				"y": 1.0524126158,
				"z": -0.723125738,
				"element": "C" 
			},
			{
				"x": -0.3454540087,
				"y": 2.28507739,
				"z": -1.1378681991,
				"element": "N" 
			},
			{
				"x": 0.4469933674,
				"y": 2.0989665546,
				"z": -2.2207815232,
				"element": "N" 
			},
			{
				"x": 0.6590649335,
				"y": 0.8049200991,
				"z": -2.5189799786,
				"element": "C" 
			},
			{
				"x": -0.0307427401,
				"y": 0.0664936639,
				"z": -1.5634929486,
				"element": "C" 
			},
			{
				"x": 0.022313419,
				"y": -1.3921315838,
				"z": -1.4606496295,
				"element": "C" 
			},
			{
				"x": 0.5724732082,
				"y": -2.1065722016,
				"z": -2.2834431592,
				"element": "O" 
			},
			{
				"x": -2.198585443,
				"y": 2.3759997578,
				"z": 3.4525457401,
				"element": "H" 
			},
			{
				"x": -0.7500441742,
				"y": 2.627484086,
				"z": 1.4463852495,
				"element": "H" 
			},
			{
				"x": -2.5285912489,
				"y": -0.8879457526,
				"z": -0.2690504857,
				"element": "H" 
			},
			{
				"x": -3.9445447729,
				"y": -1.1581740146,
				"z": 1.7386042617,
				"element": "H" 
			},
			{
				"x": 0.7908793436,
				"y": 2.910557813,
				"z": -2.7119918252,
				"element": "H" 
			},
			{
				"x": 1.275038911,
				"y": 0.4769458793,
				"z": -3.3428556428,
				"element": "H" 
			},
			{
				"x": -0.4576522812,
				"y": -1.8288801427,
				"z": -0.5618740821,
				"element": "H" 
			}
		],
		 "valence_orbital": [ 
			{
				"type": "occ",
				"energy": -0.293,
				"method": "rhf"
			},
			{
				"type": "occ",
				"energy": -0.27008,
				"method": "rhf"
			},
			{
				"type": "occ",
				"energy": -0.26759,
				"method": "rhf"
			},
			{
				"type": "occ",
				"energy": -0.25331,
				"method": "rhf"
			},
			{
				"type": "occ",
				"energy": -0.23812,
				"method": "rhf"
			},
			{
				"type": "unocc",
				"energy": -0.05449,
				"method": "rhf"
			},
			{
				"type": "unocc",
				"energy": -0.03318,
				"method": "rhf"
			},
			{
				"type": "unocc",
				"energy": -0.01984,
				"method": "rhf"
			},
			{
				"type": "unocc",
				"energy": 0.02005,
				"method": "rhf"
			},
			{
				"type": "unocc",
				"energy": 0.02756,
				"method": "rhf"
			}
		],
		"cosmo_sigma_profile": { 
			"-0.025": 0.0,
			"-0.024": 0.0,
			"-0.023": 0.0,
			"-0.022": 0.0,
			"-0.021": 0.0,
			"-0.02": 0.0,
			"-0.019": 0.0,
			"-0.018": 1.01460279457,
			"-0.017": 1.89325092038,
			"-0.016": 1.09072005773,
			"-0.015": 1.32595274029,
			"-0.014": 0.493819966919,
			"-0.013": 1.45145393261,
			"-0.012": 1.28854505493,
			"-0.011": 1.55956560264,
			"-0.01": 2.84427685353,
			"-0.009": 2.28249387465,
			"-0.008": 4.00202585589,
			"-0.007": 8.60951126823,
			"-0.006": 11.4216853773,
			"-0.005": 10.5477421096,
			"-0.004": 10.1608911843,
			"-0.003": 9.94347782765,
			"-0.002": 10.4305011209,
			"-0.001": 13.4256235965,
			"0.0": 17.2911379176,
			"0.001": 22.7560548527,
			"0.002": 21.1070658357,
			"0.003": 23.2751224461,
			"0.004": 15.3798734509,
			"0.005": 7.91168133613,
			"0.006": 2.84610097532,
			"0.007": 3.27575236225,
			"0.008": 3.12005935749,
			"0.009": 2.61134112616,
			"0.01": 3.08594631778,
			"0.011": 4.32730320023,
			"0.012": 5.33126521151,
			"0.013": 2.4947068789,
			"0.014": 0.726093315833,
			"0.015": 0.101662281765,
			"0.016": 0.0,
			"0.017": 0.0,
			"0.018": 0.0,
			"0.019": 0.0,
			"0.02": 0.0,
			"0.021": 0.0,
			"0.022": 0.0,
			"0.023": 0.0,
			"0.024": 0.0,
			"0.025": 0.0
		}
	}
}
