{
	 "smiles": "NC1=CC(COC2=CC3=C(OCO3)C=C2)=CC=C1", 
	 "Tm": 341.15, 
	 "num_atms": 31, 
	 "gaussian": { 
		 "optdone": 1, 
		 "sigma_profile": "yes", 
		 "theory": "DFT", 
		 "functional": "B3LYP", 
		 "basiset": "6-31G**", 
		 "properties": { 
			 "R2extent": 6304.1447, 
			 "electric_dipole_moment_norm": 1.45529264067, 
			 "electric_quadrupole_moment_norm": 8.18798201818, 
			 "total_energy": -821.71124659, 
			 "HOMO_LUMO_gap": 0.19169, 
			 "cosmo_polarized_energy": -13.03, 
			 "cosmo_cavitation_energy": 34.94, 
			 "cosmo_dispersion_energy": -25.58, 
			 "cosmo_repulsion_energy": 2.0, 
			 "cosmo_total_nonelectrostatic_energy": 11.35, 
			 "SMD_solvation_energy": 6.52 
		},
		"coords": [
			{
				"x": 1.7578341299,
				"y": 2.3045331106,
				"z": 2.4959137222,
				"element": "N" 
			},
			{
				"x": 0.9221358262,
				"y": 2.3260229845,
				"z": 1.3783802106,
				"element": "C" 
			},
			{
				"x": -0.0299530775,
				"y": 1.3124956231,
				"z": 1.1812967319,
				"element": "C" 
			},
			{
				"x": -0.9000539761,
				"y": 1.3499955446,
				"z": 0.0916752376,
				"element": "C" 
			},
			{
				"x": -1.9599202367,
				"y": 0.2769530023,
				"z": -0.0765527362,
				"element": "C" 
			},
			{
				"x": -1.6035403734,
				"y": -0.996116861,
				"z": 0.4557909502,
				"element": "O" 
			},
			{
				"x": -0.7736391178,
				"y": -1.8146466756,
				"z": -0.2696416311,
				"element": "C" 
			},
			{
				"x": -0.6522216647,
				"y": -3.1227379961,
				"z": 0.2511959818,
				"element": "C" 
			},
			{
				"x": 0.1587368892,
				"y": -3.9944077986,
				"z": -0.4408705904,
				"element": "C" 
			},
			{
				"x": 0.8342630576,
				"y": -3.6226474894,
				"z": -1.6028106795,
				"element": "C" 
			},
			{
				"x": 1.5899618807,
				"y": -4.6858477674,
				"z": -2.0569960604,
				"element": "O" 
			},
			{
				"x": 1.186127297,
				"y": -5.8002162417,
				"z": -1.2600061449,
				"element": "C" 
			},
			{
				"x": 0.4567357008,
				"y": -5.3000226041,
				"z": -0.1316538262,
				"element": "O" 
			},
			{
				"x": 0.7274589301,
				"y": -2.3497408929,
				"z": -2.1168063162,
				"element": "C" 
			},
			{
				"x": -0.0939935695,
				"y": -1.4316745764,
				"z": -1.4294386971,
				"element": "C" 
			},
			{
				"x": -0.833000069,
				"y": 2.4106420952,
				"z": -0.8196638994,
				"element": "C" 
			},
			{
				"x": 0.1041971673,
				"y": 3.42645719,
				"z": -0.622038069,
				"element": "C" 
			},
			{
				"x": 0.9770324878,
				"y": 3.3911113607,
				"z": 0.4615179322,
				"element": "C" 
			},
			{
				"x": 2.6185790098,
				"y": 2.8253880447,
				"z": 2.4001879906,
				"element": "H" 
			},
			{
				"x": 1.9124837057,
				"y": 1.3903611202,
				"z": 2.8982777436,
				"element": "H" 
			},
			{
				"x": -0.0879804592,
				"y": 0.4810651709,
				"z": 1.8783279134,
				"element": "H" 
			},
			{
				"x": -2.2460487733,
				"y": 0.1821578281,
				"z": -1.1325420489,
				"element": "H" 
			},
			{
				"x": -2.85984531,
				"y": 0.5550365903,
				"z": 0.4835105836,
				"element": "H" 
			},
			{
				"x": -1.1865279077,
				"y": -3.4072421556,
				"z": 1.1493227728,
				"element": "H" 
			},
			{
				"x": 0.5336121448,
				"y": -6.4622343037,
				"z": -1.8496185527,
				"element": "H" 
			},
			{
				"x": 2.0710426677,
				"y": -6.3392459145,
				"z": -0.9092064556,
				"element": "H" 
			},
			{
				"x": 1.2625752993,
				"y": -2.0560599138,
				"z": -3.0128181701,
				"element": "H" 
			},
			{
				"x": -0.1681565273,
				"y": -0.4181186793,
				"z": -1.8011548161,
				"element": "H" 
			},
			{
				"x": -1.5041238006,
				"y": 2.4419613626,
				"z": -1.6740133424,
				"element": "H" 
			},
			{
				"x": 0.16367705,
				"y": 4.2514847204,
				"z": -1.3267174232,
				"element": "H" 
			},
			{
				"x": 1.7055516192,
				"y": 4.1854941219,
				"z": 0.6041516891,
				"element": "H" 
			}
		],
		 "valence_orbital": [ 
			{
				"type": "occ",
				"energy": -0.28065,
				"method": "rhf"
			},
			{
				"type": "occ",
				"energy": -0.24191,
				"method": "rhf"
			},
			{
				"type": "occ",
				"energy": -0.23263,
				"method": "rhf"
			},
			{
				"type": "occ",
				"energy": -0.20173,
				"method": "rhf"
			},
			{
				"type": "occ",
				"energy": -0.19164,
				"method": "rhf"
			},
			{
				"type": "unocc",
				"energy": 5e-05,
				"method": "rhf"
			},
			{
				"type": "unocc",
				"energy": 0.00458,
				"method": "rhf"
			},
			{
				"type": "unocc",
				"energy": 0.01751,
				"method": "rhf"
			},
			{
				"type": "unocc",
				"energy": 0.02831,
				"method": "rhf"
			},
			{
				"type": "unocc",
				"energy": 0.08206,
				"method": "rhf"
			}
		],
		"cosmo_sigma_profile": { 
			"-0.025": 0.0,
			"-0.024": 0.0,
			"-0.023": 0.0,
			"-0.022": 0.0,
			"-0.021": 0.0,
			"-0.02": 0.0,
			"-0.019": 0.0,
			"-0.018": 0.0,
			"-0.017": 0.0,
			"-0.016": 0.0,
			"-0.015": 0.0,
			"-0.014": 0.0,
			"-0.013": 0.232623025696,
			"-0.012": 2.10832506314,
			"-0.011": 2.84309441149,
			"-0.01": 2.66552363742,
			"-0.009": 3.4255376016,
			"-0.008": 4.74743656499,
			"-0.007": 10.4061717911,
			"-0.006": 17.2742867178,
			"-0.005": 21.5183355645,
			"-0.004": 20.4901273077,
			"-0.003": 16.7047888901,
			"-0.002": 14.6755410553,
			"-0.001": 13.6509994955,
			"0.0": 14.877538576,
			"0.001": 13.1331005543,
			"0.002": 16.9763736593,
			"0.003": 20.7101612274,
			"0.004": 22.1320104274,
			"0.005": 17.781850126,
			"0.006": 15.3651189902,
			"0.007": 9.6132205359,
			"0.008": 4.79620201487,
			"0.009": 4.98585318272,
			"0.01": 4.05835778875,
			"0.011": 0.439560076624,
			"0.012": 1.46197252035,
			"0.013": 0.477423960068,
			"0.014": 0.61900138682,
			"0.015": 0.210578193849,
			"0.016": 0.0,
			"0.017": 0.0,
			"0.018": 0.0,
			"0.019": 0.0,
			"0.02": 0.0,
			"0.021": 0.0,
			"0.022": 0.0,
			"0.023": 0.0,
			"0.024": 0.0,
			"0.025": 0.0
		}
	}
}
