{
	 "smiles": "CN(C)N=CC1=CN=CC=C1C", 
	 "Tm": 323.15, 
	 "num_atms": 25, 
	 "gaussian": { 
		 "optdone": 1, 
		 "sigma_profile": "yes", 
		 "theory": "DFT", 
		 "functional": "B3LYP", 
		 "basiset": "6-31G**", 
		 "properties": { 
			 "R2extent": 2917.6299, 
			 "electric_dipole_moment_norm": 4.57478149205, 
			 "electric_quadrupole_moment_norm": 8.85721974154, 
			 "total_energy": -515.006201097, 
			 "HOMO_LUMO_gap": 0.16325, 
			 "cosmo_polarized_energy": -10.58, 
			 "cosmo_cavitation_energy": 28.25, 
			 "cosmo_dispersion_energy": -20.32, 
			 "cosmo_repulsion_energy": 1.62, 
			 "cosmo_total_nonelectrostatic_energy": 9.55, 
			 "SMD_solvation_energy": 2.55 
		},
		"coords": [
			{
				"x": -2.4689683846,
				"y": 2.329491208,
				"z": -1.8538014655,
				"element": "C" 
			},
			{
				"x": -2.1731599401,
				"y": 0.9091518149,
				"z": -1.935343722,
				"element": "N" 
			},
			{
				"x": -2.5213371317,
				"y": 0.228633366,
				"z": -3.174576402,
				"element": "C" 
			},
			{
				"x": -1.0739190098,
				"y": 0.3971299955,
				"z": -1.3429953991,
				"element": "N" 
			},
			{
				"x": -0.3886731511,
				"y": 1.0823390697,
				"z": -0.486527284,
				"element": "C" 
			},
			{
				"x": 0.7555894721,
				"y": 0.4772484621,
				"z": 0.2044611363,
				"element": "C" 
			},
			{
				"x": 1.0748707579,
				"y": -0.8834746435,
				"z": 0.0250868538,
				"element": "C" 
			},
			{
				"x": 2.0991276664,
				"y": -1.5089357453,
				"z": 0.6064030486,
				"element": "N" 
			},
			{
				"x": 2.8711487945,
				"y": -0.7779729706,
				"z": 1.4234827318,
				"element": "C" 
			},
			{
				"x": 2.6474027191,
				"y": 0.571989189,
				"z": 1.6804739045,
				"element": "C" 
			},
			{
				"x": 1.5768534885,
				"y": 1.2333421432,
				"z": 1.0709881425,
				"element": "C" 
			},
			{
				"x": 1.3337765738,
				"y": 2.6990353044,
				"z": 1.3428368246,
				"element": "C" 
			},
			{
				"x": -2.6481864421,
				"y": 2.6264591593,
				"z": -0.8148241635,
				"element": "H" 
			},
			{
				"x": -3.3768140245,
				"y": 2.5307353653,
				"z": -2.4249209754,
				"element": "H" 
			},
			{
				"x": -1.6510441256,
				"y": 2.9516618464,
				"z": -2.2546025776,
				"element": "H" 
			},
			{
				"x": -3.5864005919,
				"y": 0.3660920747,
				"z": -3.3835699561,
				"element": "H" 
			},
			{
				"x": -1.9434128236,
				"y": 0.5965132584,
				"z": -4.0373013226,
				"element": "H" 
			},
			{
				"x": -2.3139841515,
				"y": -0.8343226874,
				"z": -3.0467087274,
				"element": "H" 
			},
			{
				"x": -0.6313541643,
				"y": 2.1153583709,
				"z": -0.2382500006,
				"element": "H" 
			},
			{
				"x": 0.4476902946,
				"y": -1.4805159973,
				"z": -0.6316802332,
				"element": "H" 
			},
			{
				"x": 3.7045545174,
				"y": -1.2970568846,
				"z": 1.8939872151,
				"element": "H" 
			},
			{
				"x": 3.3072722362,
				"y": 1.1120237834,
				"z": 2.3542918723,
				"element": "H" 
			},
			{
				"x": 0.3509772925,
				"y": 2.870257101,
				"z": 1.7978427381,
				"element": "H" 
			},
			{
				"x": 2.0884933768,
				"y": 3.0964163473,
				"z": 2.026208559,
				"element": "H" 
			},
			{
				"x": 1.3706967511,
				"y": 3.293601069,
				"z": 0.4226392024,
				"element": "H" 
			}
		],
		 "valence_orbital": [ 
			{
				"type": "occ",
				"energy": -0.27461,
				"method": "rhf"
			},
			{
				"type": "occ",
				"energy": -0.27332,
				"method": "rhf"
			},
			{
				"type": "occ",
				"energy": -0.25791,
				"method": "rhf"
			},
			{
				"type": "occ",
				"energy": -0.23655,
				"method": "rhf"
			},
			{
				"type": "occ",
				"energy": -0.19746,
				"method": "rhf"
			},
			{
				"type": "unocc",
				"energy": -0.03421,
				"method": "rhf"
			},
			{
				"type": "unocc",
				"energy": -0.00516,
				"method": "rhf"
			},
			{
				"type": "unocc",
				"energy": 0.05488,
				"method": "rhf"
			},
			{
				"type": "unocc",
				"energy": 0.08398,
				"method": "rhf"
			},
			{
				"type": "unocc",
				"energy": 0.09873,
				"method": "rhf"
			}
		],
		"cosmo_sigma_profile": { 
			"-0.025": 0.0,
			"-0.024": 0.0,
			"-0.023": 0.0,
			"-0.022": 0.0,
			"-0.021": 0.0,
			"-0.02": 0.0,
			"-0.019": 0.0,
			"-0.018": 0.0,
			"-0.017": 0.0,
			"-0.016": 0.0,
			"-0.015": 0.0,
			"-0.014": 0.0,
			"-0.013": 0.0,
			"-0.012": 0.0,
			"-0.011": 0.0,
			"-0.01": 0.0,
			"-0.009": 0.0,
			"-0.008": 0.0,
			"-0.007": 0.102375808396,
			"-0.006": 8.25551172985,
			"-0.005": 20.4472115012,
			"-0.004": 25.0094510708,
			"-0.003": 26.0816539338,
			"-0.002": 26.2353462069,
			"-0.001": 20.7097248217,
			"0.0": 13.6405457655,
			"0.001": 9.66236901389,
			"0.002": 11.6790932807,
			"0.003": 18.7117577637,
			"0.004": 10.7806544465,
			"0.005": 5.81316952948,
			"0.006": 5.86755371597,
			"0.007": 3.35736933395,
			"0.008": 4.97081639695,
			"0.009": 4.28301459485,
			"0.01": 1.56577445749,
			"0.011": 0.847625594457,
			"0.012": 0.953114258611,
			"0.013": 0.816673993335,
			"0.014": 0.819549217512,
			"0.015": 0.95047587442,
			"0.016": 1.0762560891,
			"0.017": 0.674362445339,
			"0.018": 0.201524913667,
			"0.019": 0.0,
			"0.02": 0.0,
			"0.021": 0.0,
			"0.022": 0.0,
			"0.023": 0.0,
			"0.024": 0.0,
			"0.025": 0.0
		}
	}
}
