{
	 "smiles": "NC1=NC(=CS1)C1=CC=CC2=CC=CC=C12", 
	 "Tm": 430.15, 
	 "num_atms": 26, 
	 "gaussian": { 
		 "optdone": 1, 
		 "sigma_profile": "yes", 
		 "theory": "DFT", 
		 "functional": "B3LYP", 
		 "basiset": "6-31G**", 
		 "properties": { 
			 "R2extent": 5589.0483, 
			 "electric_dipole_moment_norm": 1.87132547142, 
			 "electric_quadrupole_moment_norm": 17.6597422241, 
			 "total_energy": -1009.10885577, 
			 "HOMO_LUMO_gap": 0.15889, 
			 "cosmo_polarized_energy": -12.35, 
			 "cosmo_cavitation_energy": 31.46, 
			 "cosmo_dispersion_energy": -23.75, 
			 "cosmo_repulsion_energy": 1.79, 
			 "cosmo_total_nonelectrostatic_energy": 9.49, 
			 "SMD_solvation_energy": 3.76 
		},
		"coords": [
			{
				"x": -4.5710760964,
				"y": 0.2201274941,
				"z": -2.2725633352,
				"element": "N" 
			},
			{
				"x": -4.1441668888,
				"y": 0.116303513,
				"z": -0.9676982835,
				"element": "C" 
			},
			{
				"x": -2.9242002834,
				"y": 0.3486545996,
				"z": -0.5823470857,
				"element": "N" 
			},
			{
				"x": -2.806312868,
				"y": 0.2604949995,
				"z": 0.7999065259,
				"element": "C" 
			},
			{
				"x": -3.9590566061,
				"y": -0.0659717903,
				"z": 1.461370683,
				"element": "C" 
			},
			{
				"x": -5.2836499143,
				"y": -0.2429399517,
				"z": 0.3378321637,
				"element": "S" 
			},
			{
				"x": -1.5199556194,
				"y": 0.5312254154,
				"z": 1.4845463731,
				"element": "C" 
			},
			{
				"x": -1.5454721843,
				"y": 1.293518625,
				"z": 2.6428101094,
				"element": "C" 
			},
			{
				"x": -0.3724478339,
				"y": 1.5727762098,
				"z": 3.3770223948,
				"element": "C" 
			},
			{
				"x": 0.8407991293,
				"y": 1.0933530728,
				"z": 2.9443575897,
				"element": "C" 
			},
			{
				"x": 0.9272002572,
				"y": 0.309233083,
				"z": 1.7633311532,
				"element": "C" 
			},
			{
				"x": 2.1762335107,
				"y": -0.2020250044,
				"z": 1.3170336296,
				"element": "C" 
			},
			{
				"x": 2.26131278,
				"y": -0.9797876051,
				"z": 0.1859821916,
				"element": "C" 
			},
			{
				"x": 1.0909159967,
				"y": -1.2796756249,
				"z": -0.5495912328,
				"element": "C" 
			},
			{
				"x": -0.1354447768,
				"y": -0.796781503,
				"z": -0.148677905,
				"element": "C" 
			},
			{
				"x": -0.2619737869,
				"y": 0.0160284873,
				"z": 1.0123627941,
				"element": "C" 
			},
			{
				"x": -5.3253700292,
				"y": -0.3883043709,
				"z": -2.5570648323,
				"element": "H" 
			},
			{
				"x": -3.8064303359,
				"y": 0.264210151,
				"z": -2.933662814,
				"element": "H" 
			},
			{
				"x": -4.1008114977,
				"y": -0.2446896172,
				"z": 2.5165365193,
				"element": "H" 
			},
			{
				"x": -2.4924087222,
				"y": 1.7059317794,
				"z": 2.9770956082,
				"element": "H" 
			},
			{
				"x": -0.4363097637,
				"y": 2.1787351632,
				"z": 4.2761516234,
				"element": "H" 
			},
			{
				"x": 1.7517117326,
				"y": 1.307986948,
				"z": 3.49730914,
				"element": "H" 
			},
			{
				"x": 3.0672785728,
				"y": 0.0322265681,
				"z": 1.8941908718,
				"element": "H" 
			},
			{
				"x": 3.2221194663,
				"y": -1.3654964302,
				"z": -0.1429295699,
				"element": "H" 
			},
			{
				"x": 1.1607642594,
				"y": -1.8970232296,
				"z": -1.440907708,
				"element": "H" 
			},
			{
				"x": -1.0215484981,
				"y": -1.0150109819,
				"z": -0.7304966044,
				"element": "H" 
			}
		],
		 "valence_orbital": [ 
			{
				"type": "occ",
				"energy": -0.27238,
				"method": "rhf"
			},
			{
				"type": "occ",
				"energy": -0.2669,
				"method": "rhf"
			},
			{
				"type": "occ",
				"energy": -0.23723,
				"method": "rhf"
			},
			{
				"type": "occ",
				"energy": -0.2201,
				"method": "rhf"
			},
			{
				"type": "occ",
				"energy": -0.19783,
				"method": "rhf"
			},
			{
				"type": "unocc",
				"energy": -0.03894,
				"method": "rhf"
			},
			{
				"type": "unocc",
				"energy": -0.00437,
				"method": "rhf"
			},
			{
				"type": "unocc",
				"energy": -0.00338,
				"method": "rhf"
			},
			{
				"type": "unocc",
				"energy": 0.01262,
				"method": "rhf"
			},
			{
				"type": "unocc",
				"energy": 0.03245,
				"method": "rhf"
			}
		],
		"cosmo_sigma_profile": { 
			"-0.025": 0.0,
			"-0.024": 0.0,
			"-0.023": 0.0,
			"-0.022": 0.0,
			"-0.021": 0.0,
			"-0.02": 0.0,
			"-0.019": 0.0,
			"-0.018": 0.0,
			"-0.017": 0.0,
			"-0.016": 0.0,
			"-0.015": 0.342381680715,
			"-0.014": 1.99690646052,
			"-0.013": 2.1775218872,
			"-0.012": 2.91680624152,
			"-0.011": 2.37030748873,
			"-0.01": 3.15183790244,
			"-0.009": 1.86175572719,
			"-0.008": 2.82325421897,
			"-0.007": 3.4414989409,
			"-0.006": 10.7132086532,
			"-0.005": 16.5288526863,
			"-0.004": 17.0711426891,
			"-0.003": 16.1985107753,
			"-0.002": 13.4337028223,
			"-0.001": 13.77906281,
			"0.0": 13.3324556616,
			"0.001": 15.2386117209,
			"0.002": 20.7295430292,
			"0.003": 24.8631647311,
			"0.004": 31.7785350556,
			"0.005": 22.810639411,
			"0.006": 5.46504254588,
			"0.007": 2.34541341782,
			"0.008": 2.39850316224,
			"0.009": 1.6230852145,
			"0.01": 1.32938815491,
			"0.011": 1.97184660636,
			"0.012": 1.08368833935,
			"0.013": 0.545979578185,
			"0.014": 0.573723378636,
			"0.015": 0.0453054424323,
			"0.016": 0.0,
			"0.017": 0.0,
			"0.018": 0.0,
			"0.019": 0.0,
			"0.02": 0.0,
			"0.021": 0.0,
			"0.022": 0.0,
			"0.023": 0.0,
			"0.024": 0.0,
			"0.025": 0.0
		}
	}
}
