{
	 "smiles": "CC(=O)NC1=C(C=CC(=O)N1)[N+]([O-])=O", 
	 "Tm": 456.15, 
	 "num_atms": 21, 
	 "gaussian": { 
		 "optdone": 1, 
		 "sigma_profile": "yes", 
		 "theory": "DFT", 
		 "functional": "B3LYP", 
		 "basiset": "6-31G**", 
		 "properties": { 
			 "R2extent": 3045.6179, 
			 "electric_dipole_moment_norm": 2.04095472022, 
			 "electric_quadrupole_moment_norm": 19.7167168552, 
			 "total_energy": -736.021818947, 
			 "HOMO_LUMO_gap": 0.15381, 
			 "cosmo_polarized_energy": -23.07, 
			 "cosmo_cavitation_energy": 26.35, 
			 "cosmo_dispersion_energy": -19.12, 
			 "cosmo_repulsion_energy": 1.51, 
			 "cosmo_total_nonelectrostatic_energy": 8.73, 
			 "SMD_solvation_energy": 8.26 
		},
		"coords": [
			{
				"x": -0.9408542664,
				"y": -1.9863917409,
				"z": -2.2051625386,
				"element": "C" 
			},
			{
				"x": -0.8302575935,
				"y": -0.5337424658,
				"z": -2.6017043101,
				"element": "C" 
			},
			{
				"x": -1.2874038677,
				"y": -0.0858749377,
				"z": -3.6319142163,
				"element": "O" 
			},
			{
				"x": -0.2716051166,
				"y": 0.3822623702,
				"z": -1.6824438038,
				"element": "N" 
			},
			{
				"x": 0.428034114,
				"y": 0.1973301135,
				"z": -0.5011994805,
				"element": "C" 
			},
			{
				"x": 1.4851714731,
				"y": -0.6683582225,
				"z": -0.2320419456,
				"element": "C" 
			},
			{
				"x": 2.0295199101,
				"y": -0.7120951068,
				"z": 1.0910039895,
				"element": "C" 
			},
			{
				"x": 1.5931831713,
				"y": 0.1046448281,
				"z": 2.0847113333,
				"element": "C" 
			},
			{
				"x": 0.5331991254,
				"y": 1.0649533665,
				"z": 1.8495231101,
				"element": "C" 
			},
			{
				"x": 0.0454264539,
				"y": 1.8576242715,
				"z": 2.6384424283,
				"element": "O" 
			},
			{
				"x": 0.0172477866,
				"y": 1.0020068488,
				"z": 0.521637317,
				"element": "N" 
			},
			{
				"x": 2.1654725173,
				"y": -1.4369554979,
				"z": -1.25544499,
				"element": "N" 
			},
			{
				"x": 3.0671518797,
				"y": -2.1921365677,
				"z": -0.8838378522,
				"element": "O" 
			},
			{
				"x": 1.8387829767,
				"y": -1.2859352614,
				"z": -2.4371589856,
				"element": "O" 
			},
			{
				"x": -0.6921985976,
				"y": -2.1805981155,
				"z": -1.1606545973,
				"element": "H" 
			},
			{
				"x": -0.2776638947,
				"y": -2.5747948065,
				"z": -2.8423998696,
				"element": "H" 
			},
			{
				"x": -1.9689064378,
				"y": -2.3006868331,
				"z": -2.4000858929,
				"element": "H" 
			},
			{
				"x": -0.4235708703,
				"y": 1.3416348362,
				"z": -1.9762026446,
				"element": "H" 
			},
			{
				"x": 2.8337348683,
				"y": -1.4177997397,
				"z": 1.2590473932,
				"element": "H" 
			},
			{
				"x": 2.0138197044,
				"y": 0.0714348656,
				"z": 3.0820195887,
				"element": "H" 
			},
			{
				"x": -0.800983336,
				"y": 1.5829777951,
				"z": 0.374365967,
				"element": "H" 
			}
		],
		 "valence_orbital": [ 
			{
				"type": "occ",
				"energy": -0.31079,
				"method": "rhf"
			},
			{
				"type": "occ",
				"energy": -0.29621,
				"method": "rhf"
			},
			{
				"type": "occ",
				"energy": -0.28951,
				"method": "rhf"
			},
			{
				"type": "occ",
				"energy": -0.27952,
				"method": "rhf"
			},
			{
				"type": "occ",
				"energy": -0.25337,
				"method": "rhf"
			},
			{
				"type": "unocc",
				"energy": -0.09956,
				"method": "rhf"
			},
			{
				"type": "unocc",
				"energy": -0.07192,
				"method": "rhf"
			},
			{
				"type": "unocc",
				"energy": -0.00844,
				"method": "rhf"
			},
			{
				"type": "unocc",
				"energy": 0.0063,
				"method": "rhf"
			},
			{
				"type": "unocc",
				"energy": 0.04729,
				"method": "rhf"
			}
		],
		"cosmo_sigma_profile": { 
			"-0.025": 0.0,
			"-0.024": 0.0,
			"-0.023": 0.0,
			"-0.022": 0.0,
			"-0.021": 0.0,
			"-0.02": 0.0,
			"-0.019": 0.451221107109,
			"-0.018": 1.82390948113,
			"-0.017": 2.66654992464,
			"-0.016": 2.10014477065,
			"-0.015": 1.33726289531,
			"-0.014": 1.62796724676,
			"-0.013": 1.6009868272,
			"-0.012": 1.44702131764,
			"-0.011": 1.34515515342,
			"-0.01": 1.44990493962,
			"-0.009": 1.72894996329,
			"-0.008": 4.01307733224,
			"-0.007": 8.98191195179,
			"-0.006": 13.4250088968,
			"-0.005": 15.19662616,
			"-0.004": 15.1911679261,
			"-0.003": 14.9461796162,
			"-0.002": 13.3976418918,
			"-0.001": 11.6653708375,
			"0.0": 8.92890139372,
			"0.001": 8.10914162835,
			"0.002": 4.41464561802,
			"0.003": 5.00452643166,
			"0.004": 5.53181359733,
			"0.005": 5.74412086691,
			"0.006": 6.07072449267,
			"0.007": 7.7643414513,
			"0.008": 8.1894519263,
			"0.009": 7.15573037931,
			"0.01": 7.25204862363,
			"0.011": 5.9705401562,
			"0.012": 9.85993761739,
			"0.013": 5.43173042578,
			"0.014": 0.561424058281,
			"0.015": 0.0,
			"0.016": 0.0,
			"0.017": 0.0,
			"0.018": 0.0,
			"0.019": 0.0,
			"0.02": 0.0,
			"0.021": 0.0,
			"0.022": 0.0,
			"0.023": 0.0,
			"0.024": 0.0,
			"0.025": 0.0
		}
	}
}
