{
	 "smiles": "CC(=N/C1=CC=C(C=C1)C(O)=O)C1=C(O)C2=CC=CC=C2N(C2=CC=CC=C2)C1=O", 
	 "Tm": 510.15, 
	 "num_atms": 48, 
	 "gaussian": { 
		 "optdone": 1, 
		 "sigma_profile": "yes", 
		 "theory": "DFT", 
		 "functional": "B3LYP", 
		 "basiset": "6-31G**", 
		 "properties": { 
			 "R2extent": 18397.7582, 
			 "electric_dipole_moment_norm": 7.25820743297, 
			 "electric_quadrupole_moment_norm": 32.4386017633, 
			 "total_energy": -1335.84464436, 
			 "HOMO_LUMO_gap": 0.14836, 
			 "cosmo_polarized_energy": -22.85, 
			 "cosmo_cavitation_energy": 52.4, 
			 "cosmo_dispersion_energy": -36.81, 
			 "cosmo_repulsion_energy": 2.7, 
			 "cosmo_total_nonelectrostatic_energy": 18.29, 
			 "SMD_solvation_energy": 10.17 
		},
		"coords": [
			{
				"x": 0.3901312641,
				"y": 2.1723366538,
				"z": -1.1132264278,
				"element": "C" 
			},
			{
				"x": 0.2706173931,
				"y": 0.6940256088,
				"z": -1.3856930132,
				"element": "C" 
			},
			{
				"x": 0.6274826446,
				"y": 0.1620966489,
				"z": -2.5298225385,
				"element": "N" 
			},
			{
				"x": 1.2813559179,
				"y": 0.8247592226,
				"z": -3.5805438391,
				"element": "C" 
			},
			{
				"x": 0.7334982842,
				"y": 0.7387925907,
				"z": -4.8715955369,
				"element": "C" 
			},
			{
				"x": 1.3866883686,
				"y": 1.3171972464,
				"z": -5.9542291696,
				"element": "C" 
			},
			{
				"x": 2.6125378457,
				"y": 1.9783974924,
				"z": -5.7824575589,
				"element": "C" 
			},
			{
				"x": 3.1799133746,
				"y": 2.0240714594,
				"z": -4.5010791657,
				"element": "C" 
			},
			{
				"x": 2.5247764535,
				"y": 1.462920439,
				"z": -3.4125138433,
				"element": "C" 
			},
			{
				"x": 3.3777981482,
				"y": 2.6038685009,
				"z": -6.9056302792,
				"element": "C" 
			},
			{
				"x": 2.6811820476,
				"y": 2.8884612655,
				"z": -8.0407418445,
				"element": "O" 
			},
			{
				"x": 4.5577048342,
				"y": 2.8614216601,
				"z": -6.8450812931,
				"element": "O" 
			},
			{
				"x": -0.3118752803,
				"y": -0.217263167,
				"z": -0.3975571882,
				"element": "C" 
			},
			{
				"x": -0.5025512004,
				"y": -1.5719019949,
				"z": -0.7229862924,
				"element": "C" 
			},
			{
				"x": -0.1644032309,
				"y": -2.0699331455,
				"z": -1.8915021333,
				"element": "O" 
			},
			{
				"x": -1.0970964488,
				"y": -2.4913215468,
				"z": 0.223082007,
				"element": "C" 
			},
			{
				"x": -1.2968470547,
				"y": -3.844979551,
				"z": -0.1103459388,
				"element": "C" 
			},
			{
				"x": -1.8683297627,
				"y": -4.7195602363,
				"z": 0.7974445463,
				"element": "C" 
			},
			{
				"x": -2.2487560458,
				"y": -4.2425488183,
				"z": 2.0614912167,
				"element": "C" 
			},
			{
				"x": -2.0615526272,
				"y": -2.9137646214,
				"z": 2.4145007334,
				"element": "C" 
			},
			{
				"x": -1.4805544032,
				"y": -2.0151104913,
				"z": 1.4974494085,
				"element": "C" 
			},
			{
				"x": -1.2730640408,
				"y": -0.6754860688,
				"z": 1.814505769,
				"element": "N" 
			},
			{
				"x": -1.6455325895,
				"y": -0.1767876253,
				"z": 3.1185683714,
				"element": "C" 
			},
			{
				"x": -0.723925714,
				"y": -0.2180981282,
				"z": 4.165802382,
				"element": "C" 
			},
			{
				"x": -1.0912236634,
				"y": 0.2506980385,
				"z": 5.4274981203,
				"element": "C" 
			},
			{
				"x": -2.3745128753,
				"y": 0.7586053261,
				"z": 5.6402259049,
				"element": "C" 
			},
			{
				"x": -3.2916836915,
				"y": 0.7991468242,
				"z": 4.5881203754,
				"element": "C" 
			},
			{
				"x": -2.9287728681,
				"y": 0.3315767769,
				"z": 3.3245534718,
				"element": "C" 
			},
			{
				"x": -0.6909093454,
				"y": 0.2682530038,
				"z": 0.9331339612,
				"element": "C" 
			},
			{
				"x": -0.536597316,
				"y": 1.4200693447,
				"z": 1.3338942642,
				"element": "O" 
			},
			{
				"x": 0.6910158586,
				"y": 2.7065147181,
				"z": -2.0143082941,
				"element": "H" 
			},
			{
				"x": -0.5592630051,
				"y": 2.5602286954,
				"z": -0.7416799964,
				"element": "H" 
			},
			{
				"x": 1.1084132316,
				"y": 2.3643708251,
				"z": -0.312205931,
				"element": "H" 
			},
			{
				"x": -0.206166673,
				"y": 0.2135621498,
				"z": -5.0097217004,
				"element": "H" 
			},
			{
				"x": 0.9467147265,
				"y": 1.2059498458,
				"z": -6.9426707757,
				"element": "H" 
			},
			{
				"x": 4.1442136513,
				"y": 2.5064638338,
				"z": -4.3823031461,
				"element": "H" 
			},
			{
				"x": 2.9778475194,
				"y": 1.4941616241,
				"z": -2.4269409202,
				"element": "H" 
			},
			{
				"x": 1.7324190746,
				"y": 2.7874496081,
				"z": -7.8840622231,
				"element": "H" 
			},
			{
				"x": 0.2416121524,
				"y": -1.2563625292,
				"z": -2.4204896615,
				"element": "H" 
			},
			{
				"x": -0.9900840148,
				"y": -4.1770993261,
				"z": -1.09540232,
				"element": "H" 
			},
			{
				"x": -2.0201779418,
				"y": -5.761605061,
				"z": 0.535728171,
				"element": "H" 
			},
			{
				"x": -2.6980938365,
				"y": -4.9196395611,
				"z": 2.7823679439,
				"element": "H" 
			},
			{
				"x": -2.3598680237,
				"y": -2.5631247658,
				"z": 3.3940390373,
				"element": "H" 
			},
			{
				"x": 0.2718461986,
				"y": -0.6102985503,
				"z": 3.9852321543,
				"element": "H" 
			},
			{
				"x": -0.3740015271,
				"y": 0.2214373274,
				"z": 6.2423177172,
				"element": "H" 
			},
			{
				"x": -2.6582681711,
				"y": 1.1239481979,
				"z": 6.622780052,
				"element": "H" 
			},
			{
				"x": -4.2892582089,
				"y": 1.1969358294,
				"z": 4.7488181187,
				"element": "H" 
			},
			{
				"x": -3.6299994293,
				"y": 0.3619644307,
				"z": 2.4966373047,
				"element": "H" 
			}
		],
		 "valence_orbital": [ 
			{
				"type": "occ",
				"energy": -0.26266,
				"method": "rhf"
			},
			{
				"type": "occ",
				"energy": -0.25246,
				"method": "rhf"
			},
			{
				"type": "occ",
				"energy": -0.24998,
				"method": "rhf"
			},
			{
				"type": "occ",
				"energy": -0.23379,
				"method": "rhf"
			},
			{
				"type": "occ",
				"energy": -0.22285,
				"method": "rhf"
			},
			{
				"type": "unocc",
				"energy": -0.07449,
				"method": "rhf"
			},
			{
				"type": "unocc",
				"energy": -0.04572,
				"method": "rhf"
			},
			{
				"type": "unocc",
				"energy": -0.02314,
				"method": "rhf"
			},
			{
				"type": "unocc",
				"energy": -0.01696,
				"method": "rhf"
			},
			{
				"type": "unocc",
				"energy": -0.01634,
				"method": "rhf"
			}
		],
		"cosmo_sigma_profile": { 
			"-0.025": 0.0,
			"-0.024": 0.0,
			"-0.023": 0.0,
			"-0.022": 0.0,
			"-0.021": 0.0,
			"-0.02": 0.0,
			"-0.019": 0.166406383487,
			"-0.018": 0.859587777099,
			"-0.017": 0.498805901197,
			"-0.016": 1.51708863154,
			"-0.015": 0.862292482406,
			"-0.014": 0.809644344051,
			"-0.013": 0.950986779054,
			"-0.012": 1.36270112718,
			"-0.011": 1.5366402052,
			"-0.01": 0.825397921073,
			"-0.009": 1.17065100555,
			"-0.008": 1.5328626027,
			"-0.007": 8.81502079513,
			"-0.006": 24.3286415796,
			"-0.005": 29.3893043643,
			"-0.004": 31.9777397761,
			"-0.003": 28.3351318222,
			"-0.002": 36.0022003065,
			"-0.001": 36.5179919523,
			"0.0": 38.1161766953,
			"0.001": 29.551028418,
			"0.002": 31.5068464664,
			"0.003": 32.7964711324,
			"0.004": 19.4735192152,
			"0.005": 8.85601655328,
			"0.006": 7.23829296458,
			"0.007": 5.99544884529,
			"0.008": 6.42767292318,
			"0.009": 6.39200466568,
			"0.01": 6.01286100924,
			"0.011": 7.1539766432,
			"0.012": 7.38914749761,
			"0.013": 4.59152992682,
			"0.014": 2.27699244746,
			"0.015": 0.0798862688126,
			"0.016": 0.0,
			"0.017": 0.0,
			"0.018": 0.0,
			"0.019": 0.0,
			"0.02": 0.0,
			"0.021": 0.0,
			"0.022": 0.0,
			"0.023": 0.0,
			"0.024": 0.0,
			"0.025": 0.0
		}
	}
}
