{
	 "smiles": "OCC1=CSC(=N1)C1=CC=C(C=C1)C(F)(F)F", 
	 "Tm": 380.15, 
	 "num_atms": 25, 
	 "gaussian": { 
		 "optdone": 1, 
		 "sigma_profile": "yes", 
		 "theory": "DFT", 
		 "functional": "B3LYP", 
		 "basiset": "6-31G**", 
		 "properties": { 
			 "R2extent": 6690.755, 
			 "electric_dipole_moment_norm": 2.54882682425, 
			 "electric_quadrupole_moment_norm": 15.5015443869, 
			 "total_energy": -1251.67178208, 
			 "HOMO_LUMO_gap": 0.16396, 
			 "cosmo_polarized_energy": -9.23, 
			 "cosmo_cavitation_energy": 32.78, 
			 "cosmo_dispersion_energy": -24.07, 
			 "cosmo_repulsion_energy": 1.76, 
			 "cosmo_total_nonelectrostatic_energy": 10.47, 
			 "SMD_solvation_energy": 5.69 
		},
		"coords": [
			{
				"x": 0.6235779241,
				"y": 4.465052011,
				"z": -2.7166667228,
				"element": "O" 
			},
			{
				"x": -0.222731719,
				"y": 3.7765942914,
				"z": -3.6196308742,
				"element": "C" 
			},
			{
				"x": -0.1872709206,
				"y": 2.2859856271,
				"z": -3.3937036228,
				"element": "C" 
			},
			{
				"x": -0.0381619211,
				"y": 1.3012965149,
				"z": -4.3299881228,
				"element": "C" 
			},
			{
				"x": -0.0818027688,
				"y": -0.2566511918,
				"z": -3.5746474087,
				"element": "S" 
			},
			{
				"x": -0.2883880114,
				"y": 0.5387542589,
				"z": -2.0130322203,
				"element": "C" 
			},
			{
				"x": -0.3258249184,
				"y": 1.8438111768,
				"z": -2.099258673,
				"element": "N" 
			},
			{
				"x": -0.4137207935,
				"y": -0.205208311,
				"z": -0.7523948198,
				"element": "C" 
			},
			{
				"x": -0.2998059523,
				"y": -1.6036751213,
				"z": -0.6961895803,
				"element": "C" 
			},
			{
				"x": -0.4234900507,
				"y": -2.2771378908,
				"z": 0.5145338291,
				"element": "C" 
			},
			{
				"x": -0.6605300578,
				"y": -1.5612632015,
				"z": 1.6906707222,
				"element": "C" 
			},
			{
				"x": -0.7729599738,
				"y": -0.1679092183,
				"z": 1.6481561737,
				"element": "C" 
			},
			{
				"x": -0.6506285718,
				"y": 0.504437934,
				"z": 0.4383582686,
				"element": "C" 
			},
			{
				"x": -0.8521176881,
				"y": -2.2920588636,
				"z": 2.9920140896,
				"element": "C" 
			},
			{
				"x": -0.1703821835,
				"y": -3.4584212163,
				"z": 3.0190154567,
				"element": "F" 
			},
			{
				"x": -2.1543442715,
				"y": -2.5928609493,
				"z": 3.2059408517,
				"element": "F" 
			},
			{
				"x": -0.4419460622,
				"y": -1.5543001952,
				"z": 4.0468912506,
				"element": "F" 
			},
			{
				"x": 0.4498028793,
				"y": 4.0836654512,
				"z": -1.8437553468,
				"element": "H" 
			},
			{
				"x": -1.265826967,
				"y": 4.1246038764,
				"z": -3.5299324906,
				"element": "H" 
			},
			{
				"x": 0.1148343505,
				"y": 4.0158097296,
				"z": -4.6322830307,
				"element": "H" 
			},
			{
				"x": 0.0982454038,
				"y": 1.4010584688,
				"z": -5.3973874905,
				"element": "H" 
			},
			{
				"x": -0.1069204015,
				"y": -2.1742811251,
				"z": -1.5999113651,
				"element": "H" 
			},
			{
				"x": -0.3260630887,
				"y": -3.3565494484,
				"z": 0.5496601735,
				"element": "H" 
			},
			{
				"x": -0.9486790567,
				"y": 0.3868674532,
				"z": 2.5634765985,
				"element": "H" 
			},
			{
				"x": -0.7347651792,
				"y": 1.583979939,
				"z": 0.3940643543,
				"element": "H" 
			}
		],
		 "valence_orbital": [ 
			{
				"type": "occ",
				"energy": -0.29409,
				"method": "rhf"
			},
			{
				"type": "occ",
				"energy": -0.28901,
				"method": "rhf"
			},
			{
				"type": "occ",
				"energy": -0.27574,
				"method": "rhf"
			},
			{
				"type": "occ",
				"energy": -0.27035,
				"method": "rhf"
			},
			{
				"type": "occ",
				"energy": -0.23796,
				"method": "rhf"
			},
			{
				"type": "unocc",
				"energy": -0.074,
				"method": "rhf"
			},
			{
				"type": "unocc",
				"energy": -0.02565,
				"method": "rhf"
			},
			{
				"type": "unocc",
				"energy": -0.00087,
				"method": "rhf"
			},
			{
				"type": "unocc",
				"energy": 0.00644,
				"method": "rhf"
			},
			{
				"type": "unocc",
				"energy": 0.03991,
				"method": "rhf"
			}
		],
		"cosmo_sigma_profile": { 
			"-0.025": 0.0,
			"-0.024": 0.0,
			"-0.023": 0.0,
			"-0.022": 0.0,
			"-0.021": 0.0,
			"-0.02": 0.0,
			"-0.019": 0.0,
			"-0.018": 0.0,
			"-0.017": 0.0,
			"-0.016": 0.0,
			"-0.015": 0.0,
			"-0.014": 0.0,
			"-0.013": 0.119504199474,
			"-0.012": 0.508663073322,
			"-0.011": 0.726167761036,
			"-0.01": 1.01063592599,
			"-0.009": 2.16415846023,
			"-0.008": 4.3654423911,
			"-0.007": 9.20594211038,
			"-0.006": 12.0391902995,
			"-0.005": 13.7237911309,
			"-0.004": 14.2231553053,
			"-0.003": 13.8599503697,
			"-0.002": 16.1706741336,
			"-0.001": 17.5514499068,
			"0.0": 21.5448959633,
			"0.001": 29.8309310182,
			"0.002": 43.5943058809,
			"0.003": 40.5040354797,
			"0.004": 5.8681923349,
			"0.005": 3.10436117345,
			"0.006": 1.89972269304,
			"0.007": 1.72373626219,
			"0.008": 1.90001107908,
			"0.009": 1.40149640234,
			"0.01": 1.39605179542,
			"0.011": 0.962445476298,
			"0.012": 1.59466656151,
			"0.013": 1.87809146075,
			"0.014": 2.37026103691,
			"0.015": 0.132508731605,
			"0.016": 0.0,
			"0.017": 0.0,
			"0.018": 0.0,
			"0.019": 0.0,
			"0.02": 0.0,
			"0.021": 0.0,
			"0.022": 0.0,
			"0.023": 0.0,
			"0.024": 0.0,
			"0.025": 0.0
		}
	}
}
