{
	 "smiles": "CCOC1=CC2=C(C=C1)N=C1C=C(N)C=CC1=C2N", 
	 "Tm": 499.15, 
	 "num_atms": 34, 
	 "gaussian": { 
		 "optdone": 1, 
		 "sigma_profile": "yes", 
		 "theory": "DFT", 
		 "functional": "B3LYP", 
		 "basiset": "6-31G**", 
		 "properties": { 
			 "R2extent": 7119.6412, 
			 "electric_dipole_moment_norm": 4.41853943515, 
			 "electric_quadrupole_moment_norm": 21.2107050041, 
			 "total_energy": -820.135328508, 
			 "HOMO_LUMO_gap": 0.12484, 
			 "cosmo_polarized_energy": -21.57, 
			 "cosmo_cavitation_energy": 36.93, 
			 "cosmo_dispersion_energy": -27.64, 
			 "cosmo_repulsion_energy": 2.11, 
			 "cosmo_total_nonelectrostatic_energy": 11.4, 
			 "SMD_solvation_energy": 4.37 
		},
		"coords": [
			{
				"x": -3.6866884516,
				"y": -3.5170018505,
				"z": -3.1866114086,
				"element": "C" 
			},
			{
				"x": -2.6232508704,
				"y": -2.6224738966,
				"z": -2.5733677341,
				"element": "C" 
			},
			{
				"x": -2.4392085687,
				"y": -3.0323432536,
				"z": -1.2219087865,
				"element": "O" 
			},
			{
				"x": -1.5137748967,
				"y": -2.376137414,
				"z": -0.4616399881,
				"element": "C" 
			},
			{
				"x": -0.7243164915,
				"y": -1.3318005367,
				"z": -0.8875259211,
				"element": "C" 
			},
			{
				"x": 0.204177884,
				"y": -0.713848125,
				"z": 0.008073367,
				"element": "C" 
			},
			{
				"x": 0.2894586896,
				"y": -1.1678003018,
				"z": 1.3691959039,
				"element": "C" 
			},
			{
				"x": -0.5457724761,
				"y": -2.2652430063,
				"z": 1.7586833917,
				"element": "C" 
			},
			{
				"x": -1.4111527463,
				"y": -2.8517841616,
				"z": 0.8806001608,
				"element": "C" 
			},
			{
				"x": 1.1017523347,
				"y": -0.639013516,
				"z": 2.2992359612,
				"element": "N" 
			},
			{
				"x": 1.8727337999,
				"y": 0.4014188524,
				"z": 1.9342313498,
				"element": "C" 
			},
			{
				"x": 2.7224426924,
				"y": 0.9781286602,
				"z": 2.9208128944,
				"element": "C" 
			},
			{
				"x": 3.5449902444,
				"y": 2.0485013204,
				"z": 2.6364364157,
				"element": "C" 
			},
			{
				"x": 4.3321618252,
				"y": 2.6613998658,
				"z": 3.6107486359,
				"element": "N" 
			},
			{
				"x": 3.5426084771,
				"y": 2.5914646053,
				"z": 1.3117237933,
				"element": "C" 
			},
			{
				"x": 2.7492855608,
				"y": 2.0523090517,
				"z": 0.3353842613,
				"element": "C" 
			},
			{
				"x": 1.8921870715,
				"y": 0.9415611739,
				"z": 0.5959281402,
				"element": "C" 
			},
			{
				"x": 1.0676517801,
				"y": 0.3406285757,
				"z": -0.3847015518,
				"element": "C" 
			},
			{
				"x": 1.0657118612,
				"y": 0.7953139037,
				"z": -1.6955427768,
				"element": "N" 
			},
			{
				"x": -4.6291293529,
				"y": -3.4248376388,
				"z": -2.6396955943,
				"element": "H" 
			},
			{
				"x": -3.8612563852,
				"y": -3.2349708139,
				"z": -4.2295108667,
				"element": "H" 
			},
			{
				"x": -3.3729490822,
				"y": -4.5641986976,
				"z": -3.1575959476,
				"element": "H" 
			},
			{
				"x": -1.6733851381,
				"y": -2.7084626614,
				"z": -3.1218523543,
				"element": "H" 
			},
			{
				"x": -2.9322304754,
				"y": -1.5673498542,
				"z": -2.6047606849,
				"element": "H" 
			},
			{
				"x": -0.8414558624,
				"y": -0.9426954199,
				"z": -1.8913369624,
				"element": "H" 
			},
			{
				"x": -0.4633412936,
				"y": -2.6044154384,
				"z": 2.7860092979,
				"element": "H" 
			},
			{
				"x": -2.0484646602,
				"y": -3.679758408,
				"z": 1.1746891524,
				"element": "H" 
			},
			{
				"x": 2.6881311578,
				"y": 0.5404755148,
				"z": 3.9140911978,
				"element": "H" 
			},
			{
				"x": 4.5076592074,
				"y": 2.1021515229,
				"z": 4.4341609942,
				"element": "H" 
			},
			{
				"x": 5.1708924811,
				"y": 3.1112579531,
				"z": 3.2707054139,
				"element": "H" 
			},
			{
				"x": 4.1690442752,
				"y": 3.4525094939,
				"z": 1.0926914568,
				"element": "H" 
			},
			{
				"x": 2.7593123195,
				"y": 2.5171457591,
				"z": -0.6467563394,
				"element": "H" 
			},
			{
				"x": 0.7903797567,
				"y": 0.1114245227,
				"z": -2.385490374,
				"element": "H" 
			},
			{
				"x": 1.8929953327,
				"y": 1.2971442188,
				"z": -1.9826044974,
				"element": "H" 
			}
		],
		 "valence_orbital": [ 
			{
				"type": "occ",
				"energy": -0.25102,
				"method": "rhf"
			},
			{
				"type": "occ",
				"energy": -0.23269,
				"method": "rhf"
			},
			{
				"type": "occ",
				"energy": -0.22683,
				"method": "rhf"
			},
			{
				"type": "occ",
				"energy": -0.20802,
				"method": "rhf"
			},
			{
				"type": "occ",
				"energy": -0.17378,
				"method": "rhf"
			},
			{
				"type": "unocc",
				"energy": -0.04894,
				"method": "rhf"
			},
			{
				"type": "unocc",
				"energy": 0.00459,
				"method": "rhf"
			},
			{
				"type": "unocc",
				"energy": 0.01684,
				"method": "rhf"
			},
			{
				"type": "unocc",
				"energy": 0.05667,
				"method": "rhf"
			},
			{
				"type": "unocc",
				"energy": 0.06307,
				"method": "rhf"
			}
		],
		"cosmo_sigma_profile": { 
			"-0.025": 0.0,
			"-0.024": 0.0,
			"-0.023": 0.0,
			"-0.022": 0.0,
			"-0.021": 0.0,
			"-0.02": 0.0,
			"-0.019": 0.0,
			"-0.018": 0.0,
			"-0.017": 0.0,
			"-0.016": 0.0,
			"-0.015": 0.0,
			"-0.014": 0.740672071558,
			"-0.013": 3.13088361684,
			"-0.012": 5.6081452197,
			"-0.011": 5.36812290051,
			"-0.01": 5.68739337648,
			"-0.009": 5.85945316943,
			"-0.008": 5.06818443325,
			"-0.007": 7.1202830412,
			"-0.006": 9.84010944608,
			"-0.005": 13.2273383518,
			"-0.004": 21.0012947756,
			"-0.003": 22.1903750688,
			"-0.002": 17.5681183141,
			"-0.001": 14.5981542202,
			"0.0": 15.9570152415,
			"0.001": 13.2366862444,
			"0.002": 12.849182561,
			"0.003": 23.4920101916,
			"0.004": 28.5501339801,
			"0.005": 22.2354405812,
			"0.006": 10.5119440135,
			"0.007": 5.65948316679,
			"0.008": 4.32428856759,
			"0.009": 4.46451250579,
			"0.01": 4.47743899071,
			"0.011": 2.43932020495,
			"0.012": 2.60264341071,
			"0.013": 1.66340061203,
			"0.014": 0.989338995959,
			"0.015": 1.38512268934,
			"0.016": 0.715665427349,
			"0.017": 0.668650751936,
			"0.018": 0.208681269851,
			"0.019": 0.0,
			"0.02": 0.0,
			"0.021": 0.0,
			"0.022": 0.0,
			"0.023": 0.0,
			"0.024": 0.0,
			"0.025": 0.0
		}
	}
}
