{
	 "smiles": "CC(C)CC(N)C(O)=O", 
	 "Tm": 573.15, 
	 "num_atms": 22, 
	 "gaussian": { 
		 "optdone": 1, 
		 "sigma_profile": "yes", 
		 "theory": "DFT", 
		 "functional": "B3LYP", 
		 "basiset": "6-31G**", 
		 "properties": { 
			 "R2extent": 1984.3996, 
			 "electric_dipole_moment_norm": 5.18874225415, 
			 "electric_quadrupole_moment_norm": 18.0129511907, 
			 "total_energy": -441.69595998, 
			 "HOMO_LUMO_gap": 0.26567, 
			 "cosmo_polarized_energy": -13.67, 
			 "cosmo_cavitation_energy": 23.45, 
			 "cosmo_dispersion_energy": -17.06, 
			 "cosmo_repulsion_energy": 1.42, 
			 "cosmo_total_nonelectrostatic_energy": 7.81, 
			 "SMD_solvation_energy": 4.64 
		},
		"coords": [
			{
				"x": 1.0424229454,
				"y": 0.8247915622,
				"z": -1.2985908316,
				"element": "C" 
			},
			{
				"x": -0.4412198643,
				"y": 0.6775441026,
				"z": -0.9227049682,
				"element": "C" 
			},
			{
				"x": -0.9258017778,
				"y": 1.9146959335,
				"z": -0.1515554142,
				"element": "C" 
			},
			{
				"x": -0.7668592635,
				"y": -0.5937378268,
				"z": -0.1083620528,
				"element": "C" 
			},
			{
				"x": -0.3587377975,
				"y": -1.9585048047,
				"z": -0.7070093854,
				"element": "C" 
			},
			{
				"x": 1.0664866793,
				"y": -2.3389227946,
				"z": -0.5845460183,
				"element": "N" 
			},
			{
				"x": -0.7939240049,
				"y": -2.0975230882,
				"z": -2.18481421,
				"element": "C" 
			},
			{
				"x": 0.1226342163,
				"y": -2.6930307792,
				"z": -2.9590637658,
				"element": "O" 
			},
			{
				"x": -1.8722273381,
				"y": -1.7260382921,
				"z": -2.5898915648,
				"element": "O" 
			},
			{
				"x": 1.2143301336,
				"y": 1.7727591596,
				"z": -1.8190989464,
				"element": "H" 
			},
			{
				"x": 1.6866496657,
				"y": 0.8259738138,
				"z": -0.408527426,
				"element": "H" 
			},
			{
				"x": 1.3787328316,
				"y": 0.0312200221,
				"z": -1.9748638032,
				"element": "H" 
			},
			{
				"x": -1.0161634484,
				"y": 0.6142544195,
				"z": -1.853996342,
				"element": "H" 
			},
			{
				"x": -0.3756782011,
				"y": 2.0352483462,
				"z": 0.7902845475,
				"element": "H" 
			},
			{
				"x": -0.7793333461,
				"y": 2.8266762565,
				"z": -0.7397525023,
				"element": "H" 
			},
			{
				"x": -1.9910790541,
				"y": 1.8417656436,
				"z": 0.091797099,
				"element": "H" 
			},
			{
				"x": -0.3147581589,
				"y": -0.5218774259,
				"z": 0.8912710641,
				"element": "H" 
			},
			{
				"x": -1.8511024508,
				"y": -0.617347641,
				"z": 0.0422653419,
				"element": "H" 
			},
			{
				"x": -0.9357302375,
				"y": -2.728609495,
				"z": -0.1801026345,
				"element": "H" 
			},
			{
				"x": 1.662449608,
				"y": -1.5202786958,
				"z": -0.517927302,
				"element": "H" 
			},
			{
				"x": 1.2281110088,
				"y": -2.8994492918,
				"z": 0.2455534329,
				"element": "H" 
			},
			{
				"x": 0.8752978543,
				"y": -2.8745091245,
				"z": -2.3419643177,
				"element": "H" 
			}
		],
		 "valence_orbital": [ 
			{
				"type": "occ",
				"energy": -0.32987,
				"method": "rhf"
			},
			{
				"type": "occ",
				"energy": -0.32543,
				"method": "rhf"
			},
			{
				"type": "occ",
				"energy": -0.2958,
				"method": "rhf"
			},
			{
				"type": "occ",
				"energy": -0.2912,
				"method": "rhf"
			},
			{
				"type": "occ",
				"energy": -0.24716,
				"method": "rhf"
			},
			{
				"type": "unocc",
				"energy": 0.01851,
				"method": "rhf"
			},
			{
				"type": "unocc",
				"energy": 0.05824,
				"method": "rhf"
			},
			{
				"type": "unocc",
				"energy": 0.09362,
				"method": "rhf"
			},
			{
				"type": "unocc",
				"energy": 0.10509,
				"method": "rhf"
			},
			{
				"type": "unocc",
				"energy": 0.12036,
				"method": "rhf"
			}
		],
		"cosmo_sigma_profile": { 
			"-0.025": 0.0,
			"-0.024": 0.0,
			"-0.023": 0.0,
			"-0.022": 0.0,
			"-0.021": 0.0,
			"-0.02": 0.0,
			"-0.019": 0.0,
			"-0.018": 0.0,
			"-0.017": 0.0,
			"-0.016": 0.0,
			"-0.015": 0.0,
			"-0.014": 0.0,
			"-0.013": 0.00565714767993,
			"-0.012": 0.978121856,
			"-0.011": 1.9199527133,
			"-0.01": 1.7252627116,
			"-0.009": 3.62827433043,
			"-0.008": 4.07503587842,
			"-0.007": 6.71744807855,
			"-0.006": 6.34617522043,
			"-0.005": 6.55825193625,
			"-0.004": 8.24624261693,
			"-0.003": 17.6346579465,
			"-0.002": 21.989119978,
			"-0.001": 18.7511015979,
			"0.0": 18.7554559772,
			"0.001": 17.3947300867,
			"0.002": 7.12042362871,
			"0.003": 2.80679812965,
			"0.004": 2.89561991069,
			"0.005": 2.8843946026,
			"0.006": 3.00426482841,
			"0.007": 1.90882457301,
			"0.008": 3.02400037356,
			"0.009": 3.13478632635,
			"0.01": 3.60790756655,
			"0.011": 5.02727439801,
			"0.012": 4.60549621315,
			"0.013": 4.86179534831,
			"0.014": 1.49639074429,
			"0.015": 0.00987763591234,
			"0.016": 0.0,
			"0.017": 0.0,
			"0.018": 0.0,
			"0.019": 0.0,
			"0.02": 0.0,
			"0.021": 0.0,
			"0.022": 0.0,
			"0.023": 0.0,
			"0.024": 0.0,
			"0.025": 0.0
		}
	}
}
