{
	 "smiles": "ClC1=CC=CC=C1I", 
	 "Tm": 274.0, 
	 "num_atms": 12, 
	 "gaussian": { 
		 "optdone": 1, 
		 "sigma_profile": "no", 
		 "theory": "DFT", 
		 "functional": "B3LYP", 
		 "basiset": "6-31G**", 
		 "properties": { 
			 "R2extent": 1515.2904, 
			 "electric_dipole_moment_norm": 2.53802767715, 
			 "electric_quadrupole_moment_norm": 5.15874830167, 
			 "total_energy": -702.621843248, 
			 "HOMO_LUMO_gap": 0.19747, 
			 "cosmo_polarized_energy": -89829.44, 
			 "cosmo_cavitation_energy": 20.79, 
			 "cosmo_dispersion_energy": -17.1, 
			 "cosmo_repulsion_energy": 1.37, 
			 "cosmo_total_nonelectrostatic_energy": 5.06, 
			 "SMD_solvation_energy": 2.51 
		},
		"coords": [
			{
				"x": -0.9350855869,
				"y": -0.0208143316,
				"z": 3.208466298,
				"element": "Cl" 
			},
			{
				"x": -0.0374367137,
				"y": 0.1162109793,
				"z": 1.7143932852,
				"element": "C" 
			},
			{
				"x": 0.9100010019,
				"y": 1.140031603,
				"z": 1.6115911167,
				"element": "C" 
			},
			{
				"x": 1.6525570504,
				"y": 1.2942696708,
				"z": 0.4440997128,
				"element": "C" 
			},
			{
				"x": 1.4527873965,
				"y": 0.4253616303,
				"z": -0.6292828251,
				"element": "C" 
			},
			{
				"x": 0.5099649894,
				"y": -0.5963658156,
				"z": -0.5318436671,
				"element": "C" 
			},
			{
				"x": -0.2406070139,
				"y": -0.7585157763,
				"z": 0.6378009063,
				"element": "C" 
			},
			{
				"x": -1.65043147,
				"y": -2.3329680425,
				"z": 0.7053120644,
				"element": "I" 
			},
			{
				"x": 1.0542077247,
				"y": 1.8075439848,
				"z": 2.4539276414,
				"element": "H" 
			},
			{
				"x": 2.3845345302,
				"y": 2.0929566056,
				"z": 0.3776006696,
				"element": "H" 
			},
			{
				"x": 2.0267657312,
				"y": 0.5374303569,
				"z": -1.5437138582,
				"element": "H" 
			},
			{
				"x": 0.3527423602,
				"y": -1.2727408648,
				"z": -1.364151344,
				"element": "H" 
			}
		],
		 "valence_orbital": [ 
			{
				"type": "occ",
				"energy": -0.32386,
				"method": "rhf"
			},
			{
				"type": "occ",
				"energy": -0.30424,
				"method": "rhf"
			},
			{
				"type": "occ",
				"energy": -0.26733,
				"method": "rhf"
			},
			{
				"type": "occ",
				"energy": -0.26083,
				"method": "rhf"
			},
			{
				"type": "occ",
				"energy": -0.24547,
				"method": "rhf"
			},
			{
				"type": "unocc",
				"energy": -0.048,
				"method": "rhf"
			},
			{
				"type": "unocc",
				"energy": -0.02786,
				"method": "rhf"
			},
			{
				"type": "unocc",
				"energy": -0.02493,
				"method": "rhf"
			},
			{
				"type": "unocc",
				"energy": 0.02979,
				"method": "rhf"
			},
			{
				"type": "unocc",
				"energy": 0.05141,
				"method": "rhf"
			}
		],
		"cosmo_sigma_profile": { 
			"0.0": 0.0,
			"0.0": 0.0,
			"0.0": 0.0,
			"0.0": 0.0,
			"0.0": 0.0,
			"0.0": 0.0,
			"0.0": 0.0,
			"0.0": 0.0,
			"0.0": 0.0,
			"0.0": 0.0,
			"0.0": 0.0,
			"0.0": 0.0,
			"0.0": 0.0,
			"0.0": 0.0,
			"0.0": 0.0,
			"0.0": 0.0,
			"0.0": 0.0,
			"0.0": 0.0,
			"0.0": 0.0,
			"0.0": 0.0,
			"0.0": 0.0,
			"0.0": 0.0,
			"0.0": 0.0,
			"0.0": 0.0,
			"0.0": 0.0,
			"0.0": 0.0,
			"0.0": 0.0,
			"0.0": 0.0,
			"0.0": 0.0,
			"0.0": 0.0,
			"0.0": 0.0,
			"0.0": 0.0,
			"0.0": 0.0,
			"0.0": 0.0,
			"0.0": 0.0,
			"0.0": 0.0,
			"0.0": 0.0,
			"0.0": 0.0,
			"0.0": 0.0,
			"0.0": 0.0,
			"0.0": 0.0,
			"0.0": 0.0,
			"0.0": 0.0,
			"0.0": 0.0,
			"0.0": 0.0,
			"0.0": 0.0,
			"0.0": 0.0,
			"0.0": 0.0,
			"0.0": 0.0,
			"0.0": 0.0,
			"0.0": 0.0
		}
	}
}
