{
	 "smiles": "OC(=O)C1=C(NS(=O)(=O)C2=CC=C(Cl)C=C2)C=CC=C1", 
	 "Tm": 481.15, 
	 "num_atms": 30, 
	 "gaussian": { 
		 "optdone": 1, 
		 "sigma_profile": "yes", 
		 "theory": "DFT", 
		 "functional": "B3LYP", 
		 "basiset": "6-31G**", 
		 "properties": { 
			 "R2extent": 7201.2048, 
			 "electric_dipole_moment_norm": 6.53049438328, 
			 "electric_quadrupole_moment_norm": 17.1727275277, 
			 "total_energy": -1715.38008172, 
			 "HOMO_LUMO_gap": 0.17705, 
			 "cosmo_polarized_energy": -20.77, 
			 "cosmo_cavitation_energy": 38.24, 
			 "cosmo_dispersion_energy": -26.83, 
			 "cosmo_repulsion_energy": 2.03, 
			 "cosmo_total_nonelectrostatic_energy": 13.43, 
			 "SMD_solvation_energy": 6.29 
		},
		"coords": [
			{
				"x": -0.190138376,
				"y": -3.7815153608,
				"z": -1.9522582384,
				"element": "O" 
			},
			{
				"x": -0.4405085601,
				"y": -3.3002171401,
				"z": -0.7126421478,
				"element": "C" 
			},
			{
				"x": 0.0848568416,
				"y": -3.8511143566,
				"z": 0.2401022066,
				"element": "O" 
			},
			{
				"x": -1.338546253,
				"y": -2.1146154615,
				"z": -0.6081745806,
				"element": "C" 
			},
			{
				"x": -1.3283935,
				"y": -1.2989270309,
				"z": 0.5568136509,
				"element": "C" 
			},
			{
				"x": -0.5447513031,
				"y": -1.6638632183,
				"z": 1.6645880263,
				"element": "N" 
			},
			{
				"x": 0.4618651538,
				"y": -0.615583815,
				"z": 2.5349158948,
				"element": "S" 
			},
			{
				"x": -0.3067908609,
				"y": 0.5824072237,
				"z": 2.8742564788,
				"element": "O" 
			},
			{
				"x": 1.0686307585,
				"y": -1.4722754772,
				"z": 3.5493087436,
				"element": "O" 
			},
			{
				"x": 1.7452597876,
				"y": -0.1199834956,
				"z": 1.3807254313,
				"element": "C" 
			},
			{
				"x": 1.6564754238,
				"y": 1.1169525378,
				"z": 0.7402524006,
				"element": "C" 
			},
			{
				"x": 2.6430474049,
				"y": 1.4876075725,
				"z": -0.1728969174,
				"element": "C" 
			},
			{
				"x": 3.6987646504,
				"y": 0.6111950777,
				"z": -0.4273752083,
				"element": "C" 
			},
			{
				"x": 4.9382138215,
				"y": 1.074048602,
				"z": -1.5768003367,
				"element": "Cl" 
			},
			{
				"x": 3.7938266533,
				"y": -0.624679174,
				"z": 0.2174490597,
				"element": "C" 
			},
			{
				"x": 2.8081664635,
				"y": -0.9922417492,
				"z": 1.1299416489,
				"element": "C" 
			},
			{
				"x": -2.1495928066,
				"y": -0.1589666944,
				"z": 0.6007035847,
				"element": "C" 
			},
			{
				"x": -2.9754425435,
				"y": 0.1581393088,
				"z": -0.4711124601,
				"element": "C" 
			},
			{
				"x": -3.0307339307,
				"y": -0.6639076326,
				"z": -1.6008754068,
				"element": "C" 
			},
			{
				"x": -2.2204734839,
				"y": -1.7896340967,
				"z": -1.6551655926,
				"element": "C" 
			},
			{
				"x": -0.5131010222,
				"y": -3.1666768248,
				"z": -2.6251185188,
				"element": "H" 
			},
			{
				"x": -0.1328650624,
				"y": -2.5982483326,
				"z": 1.5749606897,
				"element": "H" 
			},
			{
				"x": 0.8352076497,
				"y": 1.7857589302,
				"z": 0.9709694525,
				"element": "H" 
			},
			{
				"x": 2.5982935409,
				"y": 2.4464048566,
				"z": -0.6768836124,
				"element": "H" 
			},
			{
				"x": 4.6293241875,
				"y": -1.2836913198,
				"z": 0.010688995,
				"element": "H" 
			},
			{
				"x": 2.8711425086,
				"y": -1.9405295954,
				"z": 1.6529898828,
				"element": "H" 
			},
			{
				"x": -2.1403873177,
				"y": 0.4528966095,
				"z": 1.4936340349,
				"element": "H" 
			},
			{
				"x": -3.6069798047,
				"y": 1.0395032837,
				"z": -0.4098036911,
				"element": "H" 
			},
			{
				"x": -3.7077202425,
				"y": -0.4376651467,
				"z": -2.4179054519,
				"element": "H" 
			},
			{
				"x": -2.3045497786,
				"y": -2.4506780803,
				"z": -2.5143880181,
				"element": "H" 
			}
		],
		 "valence_orbital": [ 
			{
				"type": "occ",
				"energy": -0.29415,
				"method": "rhf"
			},
			{
				"type": "occ",
				"energy": -0.28722,
				"method": "rhf"
			},
			{
				"type": "occ",
				"energy": -0.28348,
				"method": "rhf"
			},
			{
				"type": "occ",
				"energy": -0.27265,
				"method": "rhf"
			},
			{
				"type": "occ",
				"energy": -0.24673,
				"method": "rhf"
			},
			{
				"type": "unocc",
				"energy": -0.06968,
				"method": "rhf"
			},
			{
				"type": "unocc",
				"energy": -0.05335,
				"method": "rhf"
			},
			{
				"type": "unocc",
				"energy": -0.03676,
				"method": "rhf"
			},
			{
				"type": "unocc",
				"energy": -0.03042,
				"method": "rhf"
			},
			{
				"type": "unocc",
				"energy": 0.0134,
				"method": "rhf"
			}
		],
		"cosmo_sigma_profile": { 
			"-0.025": 0.0,
			"-0.024": 0.0,
			"-0.023": 0.0,
			"-0.022": 0.0,
			"-0.021": 0.0,
			"-0.02": 0.0606304052175,
			"-0.019": 0.6852624417,
			"-0.018": 0.603721115671,
			"-0.017": 1.02824645867,
			"-0.016": 0.945223899272,
			"-0.015": 0.814001471886,
			"-0.014": 1.36780404418,
			"-0.013": 1.0090342813,
			"-0.012": 1.28053910241,
			"-0.011": 0.978454426137,
			"-0.01": 1.29056785041,
			"-0.009": 2.17285103354,
			"-0.008": 8.95764347025,
			"-0.007": 14.1852618564,
			"-0.006": 15.1608173899,
			"-0.005": 14.8039143288,
			"-0.004": 15.1238323638,
			"-0.003": 17.1809909743,
			"-0.002": 17.3747015568,
			"-0.001": 21.4287485898,
			"0.0": 29.21483034,
			"0.001": 32.4616802397,
			"0.002": 21.7771552347,
			"0.003": 21.6513515083,
			"0.004": 15.3209721925,
			"0.005": 5.59102140162,
			"0.006": 5.47256759049,
			"0.007": 6.03759560847,
			"0.008": 6.19639442269,
			"0.009": 8.01843664058,
			"0.01": 12.3725263382,
			"0.011": 7.72621898229,
			"0.012": 1.9105240057,
			"0.013": 0.332391835313,
			"0.014": 0.0,
			"0.015": 0.0,
			"0.016": 0.0,
			"0.017": 0.0,
			"0.018": 0.0,
			"0.019": 0.0,
			"0.02": 0.0,
			"0.021": 0.0,
			"0.022": 0.0,
			"0.023": 0.0,
			"0.024": 0.0,
			"0.0": 0.0
		}
	}
}
