{
	 "smiles": "CNCCCC1=CC(=NN1)C1=CC=C(F)C=C1", 
	 "Tm": 378.15, 
	 "num_atms": 33, 
	 "gaussian": { 
		 "optdone": 1, 
		 "sigma_profile": "yes", 
		 "theory": "DFT", 
		 "functional": "B3LYP", 
		 "basiset": "6-31G**", 
		 "properties": { 
			 "R2extent": 7289.1078, 
			 "electric_dipole_moment_norm": 3.73678087931, 
			 "electric_quadrupole_moment_norm": 14.2515419618, 
			 "total_energy": -769.100681806, 
			 "HOMO_LUMO_gap": 0.19636, 
			 "cosmo_polarized_energy": -13.78, 
			 "cosmo_cavitation_energy": 37.09, 
			 "cosmo_dispersion_energy": -26.08, 
			 "cosmo_repulsion_energy": 2.03, 
			 "cosmo_total_nonelectrostatic_energy": 13.04, 
			 "SMD_solvation_energy": 3.42 
		},
		"coords": [
			{
				"x": -0.7191744971,
				"y": -1.3435975265,
				"z": -4.011551728,
				"element": "C" 
			},
			{
				"x": 0.1705699201,
				"y": -2.44197159,
				"z": -3.6448318342,
				"element": "N" 
			},
			{
				"x": 0.4650070169,
				"y": -2.5224696195,
				"z": -2.2131522167,
				"element": "C" 
			},
			{
				"x": -0.682566063,
				"y": -3.1670554776,
				"z": -1.4269107758,
				"element": "C" 
			},
			{
				"x": -0.3781453408,
				"y": -3.3424158851,
				"z": 0.0762328487,
				"element": "C" 
			},
			{
				"x": -0.2310146176,
				"y": -2.0561149265,
				"z": 0.8364731421,
				"element": "C" 
			},
			{
				"x": -1.1541955375,
				"y": -1.1103571031,
				"z": 1.2463326871,
				"element": "C" 
			},
			{
				"x": -0.4036799642,
				"y": -0.1025039788,
				"z": 1.9110396216,
				"element": "C" 
			},
			{
				"x": 0.901101695,
				"y": -0.4059530094,
				"z": 1.9139344389,
				"element": "N" 
			},
			{
				"x": 0.9744799677,
				"y": -1.5821746279,
				"z": 1.2603039516,
				"element": "N" 
			},
			{
				"x": -0.883236524,
				"y": 1.1360942653,
				"z": 2.5471836132,
				"element": "C" 
			},
			{
				"x": 0.0222976354,
				"y": 2.0074657866,
				"z": 3.1779696381,
				"element": "C" 
			},
			{
				"x": -0.4140746708,
				"y": 3.1820774341,
				"z": 3.7832852411,
				"element": "C" 
			},
			{
				"x": -1.7711904436,
				"y": 3.4871848698,
				"z": 3.7570430342,
				"element": "C" 
			},
			{
				"x": -2.2007896115,
				"y": 4.6262228539,
				"z": 4.3432765691,
				"element": "F" 
			},
			{
				"x": -2.6964756913,
				"y": 2.6517424998,
				"z": 3.1438948556,
				"element": "C" 
			},
			{
				"x": -2.2444145331,
				"y": 1.4786376301,
				"z": 2.5412542177,
				"element": "C" 
			},
			{
				"x": -0.7964261933,
				"y": -1.2889575574,
				"z": -5.1015827289,
				"element": "H" 
			},
			{
				"x": -1.7270926678,
				"y": -1.5267529907,
				"z": -3.6252741218,
				"element": "H" 
			},
			{
				"x": -0.395598804,
				"y": -0.3549412067,
				"z": -3.6374064693,
				"element": "H" 
			},
			{
				"x": 1.0440939691,
				"y": -2.3354930217,
				"z": -4.1517276638,
				"element": "H" 
			},
			{
				"x": 1.3611635903,
				"y": -3.1459047715,
				"z": -2.0942446182,
				"element": "H" 
			},
			{
				"x": 0.7011782945,
				"y": -1.5350205206,
				"z": -1.7736997061,
				"element": "H" 
			},
			{
				"x": -1.5940456635,
				"y": -2.5676458913,
				"z": -1.5336203622,
				"element": "H" 
			},
			{
				"x": -0.8951792796,
				"y": -4.1473652387,
				"z": -1.8680115775,
				"element": "H" 
			},
			{
				"x": 0.5362540514,
				"y": -3.939446245,
				"z": 0.1962812505,
				"element": "H" 
			},
			{
				"x": -1.1832443233,
				"y": -3.9293034522,
				"z": 0.5324401925,
				"element": "H" 
			},
			{
				"x": -2.2215829309,
				"y": -1.1533205951,
				"z": 1.0891193652,
				"element": "H" 
			},
			{
				"x": 1.8755923705,
				"y": -2.0195920194,
				"z": 1.1428499736,
				"element": "H" 
			},
			{
				"x": 1.0752341275,
				"y": 1.7483962676,
				"z": 3.1862248052,
				"element": "H" 
			},
			{
				"x": 0.2775434656,
				"y": 3.8598783542,
				"z": 4.2723050591,
				"element": "H" 
			},
			{
				"x": -3.7467345977,
				"y": 2.9228237962,
				"z": 3.1432276113,
				"element": "H" 
			},
			{
				"x": -2.9658541495,
				"y": 0.8253334969,
				"z": 2.0607416861,
				"element": "H" 
			}
		],
		 "valence_orbital": [ 
			{
				"type": "occ",
				"energy": -0.28024,
				"method": "rhf"
			},
			{
				"type": "occ",
				"energy": -0.25288,
				"method": "rhf"
			},
			{
				"type": "occ",
				"energy": -0.23974,
				"method": "rhf"
			},
			{
				"type": "occ",
				"energy": -0.22193,
				"method": "rhf"
			},
			{
				"type": "occ",
				"energy": -0.21021,
				"method": "rhf"
			},
			{
				"type": "unocc",
				"energy": -0.01385,
				"method": "rhf"
			},
			{
				"type": "unocc",
				"energy": -0.00257,
				"method": "rhf"
			},
			{
				"type": "unocc",
				"energy": 0.03006,
				"method": "rhf"
			},
			{
				"type": "unocc",
				"energy": 0.07167,
				"method": "rhf"
			},
			{
				"type": "unocc",
				"energy": 0.08174,
				"method": "rhf"
			}
		],
		"cosmo_sigma_profile": { 
			"-0.025": 0.0,
			"-0.024": 0.0,
			"-0.023": 0.0,
			"-0.022": 0.0,
			"-0.021": 0.0,
			"-0.02": 0.0,
			"-0.019": 0.0,
			"-0.018": 0.0,
			"-0.017": 0.0,
			"-0.016": 0.702885301314,
			"-0.015": 1.34007840939,
			"-0.014": 1.39681937987,
			"-0.013": 1.02929060262,
			"-0.012": 1.01040011898,
			"-0.011": 0.741607441516,
			"-0.01": 2.2154336743,
			"-0.009": 2.89008381366,
			"-0.008": 2.45258730324,
			"-0.007": 7.12729503107,
			"-0.006": 9.87271734671,
			"-0.005": 11.3913324895,
			"-0.004": 19.5015585035,
			"-0.003": 24.0462135903,
			"-0.002": 25.7537132832,
			"-0.001": 28.3440595068,
			"0.0": 27.1796456567,
			"0.001": 21.444733478,
			"0.002": 15.642118747,
			"0.003": 17.5690766049,
			"0.004": 29.4333485384,
			"0.005": 16.8512019064,
			"0.006": 6.47065704194,
			"0.007": 2.63619617746,
			"0.008": 2.56952518961,
			"0.009": 2.19788214474,
			"0.01": 1.4712860084,
			"0.011": 2.2998364113,
			"0.012": 2.10890535453,
			"0.013": 1.53741671374,
			"0.014": 1.57109603206,
			"0.015": 0.691196459631,
			"0.016": 0.193196612292,
			"0.017": 0.425255661195,
			"0.018": 0.726913319322,
			"0.019": 0.0201234965335,
			"0.02": 0.0,
			"0.021": 0.0,
			"0.022": 0.0,
			"0.023": 0.0,
			"0.024": 0.0,
			"0.025": 0.0
		}
	}
}
