{
	 "smiles": "CC(=O)NC(C(O)=O)C(C)(C)S", 
	 "Tm": 456.15, 
	 "num_atms": 25, 
	 "gaussian": { 
		 "optdone": 1, 
		 "sigma_profile": "yes", 
		 "theory": "DFT", 
		 "functional": "B3LYP", 
		 "basiset": "6-31G**", 
		 "properties": { 
			 "R2extent": 3099.0278, 
			 "electric_dipole_moment_norm": 2.56587829797, 
			 "electric_quadrupole_moment_norm": 19.9179300729, 
			 "total_energy": -953.217550147, 
			 "HOMO_LUMO_gap": 0.23249, 
			 "cosmo_polarized_energy": -18.72, 
			 "cosmo_cavitation_energy": 29.53, 
			 "cosmo_dispersion_energy": -20.26, 
			 "cosmo_repulsion_energy": 1.59, 
			 "cosmo_total_nonelectrostatic_energy": 10.86, 
			 "SMD_solvation_energy": 6.87 
		},
		"coords": [
			{
				"x": -0.6704872773,
				"y": -1.2332526897,
				"z": -1.8477157425,
				"element": "C" 
			},
			{
				"x": -0.9522906869,
				"y": -0.0205789396,
				"z": -0.9761351176,
				"element": "C" 
			},
			{
				"x": -1.9379929499,
				"y": 0.6833527934,
				"z": -1.133643728,
				"element": "O" 
			},
			{
				"x": -0.05481976,
				"y": 0.2645315162,
				"z": 0.0380372821,
				"element": "N" 
			},
			{
				"x": 1.263392323,
				"y": -0.3083230406,
				"z": 0.2547302271,
				"element": "C" 
			},
			{
				"x": 2.3502908598,
				"y": 0.6801978425,
				"z": -0.1901819723,
				"element": "C" 
			},
			{
				"x": 2.1679031605,
				"y": 1.916567114,
				"z": 0.3314937626,
				"element": "O" 
			},
			{
				"x": 3.2494464498,
				"y": 0.4113399262,
				"z": -0.9519419111,
				"element": "O" 
			},
			{
				"x": 1.430922317,
				"y": -0.8398963278,
				"z": 1.7218867495,
				"element": "C" 
			},
			{
				"x": 0.4619628634,
				"y": -2.0135388074,
				"z": 1.931748033,
				"element": "C" 
			},
			{
				"x": 1.1873985709,
				"y": 0.2457257479,
				"z": 2.7809354314,
				"element": "C" 
			},
			{
				"x": 3.1983171807,
				"y": -1.4558067669,
				"z": 1.8294452247,
				"element": "S" 
			},
			{
				"x": 0.2461244477,
				"y": -1.0999435253,
				"z": -2.4324364083,
				"element": "H" 
			},
			{
				"x": -0.5600667278,
				"y": -2.1466357886,
				"z": -1.2547335095,
				"element": "H" 
			},
			{
				"x": -1.5115502928,
				"y": -1.3481983582,
				"z": -2.5305210818,
				"element": "H" 
			},
			{
				"x": -0.2515195394,
				"y": 1.1479689511,
				"z": 0.4925318631,
				"element": "H" 
			},
			{
				"x": 1.3849038663,
				"y": -1.1629312473,
				"z": -0.4105416227,
				"element": "H" 
			},
			{
				"x": 2.8823188878,
				"y": 2.4733709188,
				"z": -0.022349925,
				"element": "H" 
			},
			{
				"x": 0.6603710276,
				"y": -2.8260817445,
				"z": 1.2273917022,
				"element": "H" 
			},
			{
				"x": -0.5719235986,
				"y": -1.6768584652,
				"z": 1.8029190265,
				"element": "H" 
			},
			{
				"x": 0.5615917956,
				"y": -2.4143582607,
				"z": 2.9449639479,
				"element": "H" 
			},
			{
				"x": 1.8666878317,
				"y": 1.091037161,
				"z": 2.665332413,
				"element": "H" 
			},
			{
				"x": 1.3246132665,
				"y": -0.1728374025,
				"z": 3.7823689696,
				"element": "H" 
			},
			{
				"x": 0.1555313615,
				"y": 0.6111953662,
				"z": 2.7225731909,
				"element": "H" 
			},
			{
				"x": 3.0834746228,
				"y": -1.9135459728,
				"z": 3.0918431952,
				"element": "H" 
			}
		],
		 "valence_orbital": [ 
			{
				"type": "occ",
				"energy": -0.32456,
				"method": "rhf"
			},
			{
				"type": "occ",
				"energy": -0.30287,
				"method": "rhf"
			},
			{
				"type": "occ",
				"energy": -0.25641,
				"method": "rhf"
			},
			{
				"type": "occ",
				"energy": -0.2528,
				"method": "rhf"
			},
			{
				"type": "occ",
				"energy": -0.24752,
				"method": "rhf"
			},
			{
				"type": "unocc",
				"energy": -0.01503,
				"method": "rhf"
			},
			{
				"type": "unocc",
				"energy": 0.01098,
				"method": "rhf"
			},
			{
				"type": "unocc",
				"energy": 0.02187,
				"method": "rhf"
			},
			{
				"type": "unocc",
				"energy": 0.05689,
				"method": "rhf"
			},
			{
				"type": "unocc",
				"energy": 0.05759,
				"method": "rhf"
			}
		],
		"cosmo_sigma_profile": { 
			"-0.025": 0.0,
			"-0.024": 0.0,
			"-0.023": 0.0,
			"-0.022": 0.0,
			"-0.021": 0.0,
			"-0.02": 0.0,
			"-0.019": 0.318377953749,
			"-0.018": 1.51750406256,
			"-0.017": 0.366875485155,
			"-0.016": 0.79942037085,
			"-0.015": 1.11555281254,
			"-0.014": 0.568288050319,
			"-0.013": 0.611431494246,
			"-0.012": 1.08216835384,
			"-0.011": 1.37038302514,
			"-0.01": 1.49590914442,
			"-0.009": 3.74263987159,
			"-0.008": 5.28066720799,
			"-0.007": 7.91455228578,
			"-0.006": 10.3522141355,
			"-0.005": 14.3754008187,
			"-0.004": 17.1399668194,
			"-0.003": 18.2859103202,
			"-0.002": 21.0611032814,
			"-0.001": 22.698456806,
			"0.0": 17.3688591354,
			"0.001": 8.95658816359,
			"0.002": 7.0491783481,
			"0.003": 7.66144015609,
			"0.004": 5.32446752,
			"0.005": 6.27403180333,
			"0.006": 6.99313749081,
			"0.007": 7.21329672818,
			"0.008": 4.58322469801,
			"0.009": 5.9739266295,
			"0.01": 4.77226033873,
			"0.011": 6.526065807,
			"0.012": 4.11549609618,
			"0.013": 4.79060836021,
			"0.014": 4.21354163389,
			"0.015": 0.517791856721,
			"0.016": 0.0,
			"0.017": 0.0,
			"0.018": 0.0,
			"0.019": 0.0,
			"0.02": 0.0,
			"0.021": 0.0,
			"0.022": 0.0,
			"0.023": 0.0,
			"0.024": 0.0,
			"0.025": 0.0
		}
	}
}
