{
	 "smiles": "OC(=O)C1=C2C=CC=CC2=NC(=C1)C1=CC=NC=C1", 
	 "Tm": 582.15, 
	 "num_atms": 29, 
	 "gaussian": { 
		 "optdone": 1, 
		 "sigma_profile": "yes", 
		 "theory": "DFT", 
		 "functional": "B3LYP", 
		 "basiset": "6-31G**", 
		 "properties": { 
			 "R2extent": 5717.5251, 
			 "electric_dipole_moment_norm": 4.53411288016, 
			 "electric_quadrupole_moment_norm": 6.00296872722, 
			 "total_energy": -837.594483467, 
			 "HOMO_LUMO_gap": 0.14964, 
			 "cosmo_polarized_energy": -13.33, 
			 "cosmo_cavitation_energy": 33.89, 
			 "cosmo_dispersion_energy": -25.07, 
			 "cosmo_repulsion_energy": 1.87, 
			 "cosmo_total_nonelectrostatic_energy": 10.68, 
			 "SMD_solvation_energy": 4.28 
		},
		"coords": [
			{
				"x": -3.7690694697,
				"y": 2.1993861477,
				"z": 0.5945333109,
				"element": "O" 
			},
			{
				"x": -3.0067715279,
				"y": 1.1835440314,
				"z": 1.0596691985,
				"element": "C" 
			},
			{
				"x": -3.4041198626,
				"y": 0.4544212996,
				"z": 1.9465770133,
				"element": "O" 
			},
			{
				"x": -1.6693822552,
				"y": 1.0260330059,
				"z": 0.3946435989,
				"element": "C" 
			},
			{
				"x": -1.078447141,
				"y": 1.904106507,
				"z": -0.574775113,
				"element": "C" 
			},
			{
				"x": -1.6382976404,
				"y": 3.1129600978,
				"z": -1.0726501215,
				"element": "C" 
			},
			{
				"x": -0.9652452803,
				"y": 3.8692803784,
				"z": -2.0081113684,
				"element": "C" 
			},
			{
				"x": 0.298705192,
				"y": 3.4687140893,
				"z": -2.5014462605,
				"element": "C" 
			},
			{
				"x": 0.8740929864,
				"y": 2.3091627044,
				"z": -2.0415511713,
				"element": "C" 
			},
			{
				"x": 0.211940401,
				"y": 1.5043686269,
				"z": -1.0740431112,
				"element": "C" 
			},
			{
				"x": 0.8593600854,
				"y": 0.3813394487,
				"z": -0.6687167413,
				"element": "N" 
			},
			{
				"x": 0.2980833725,
				"y": -0.4006183139,
				"z": 0.2403131465,
				"element": "C" 
			},
			{
				"x": -0.9759795207,
				"y": -0.1012919927,
				"z": 0.787612874,
				"element": "C" 
			},
			{
				"x": 1.0570031127,
				"y": -1.6141822717,
				"z": 0.6504292404,
				"element": "C" 
			},
			{
				"x": 2.1752837026,
				"y": -2.0283649434,
				"z": -0.0880481212,
				"element": "C" 
			},
			{
				"x": 2.8693873199,
				"y": -3.1668117615,
				"z": 0.3115318999,
				"element": "C" 
			},
			{
				"x": 2.5410640924,
				"y": -3.911100254,
				"z": 1.3775399663,
				"element": "N" 
			},
			{
				"x": 1.4780979309,
				"y": -3.5081842096,
				"z": 2.0830148591,
				"element": "C" 
			},
			{
				"x": 0.7119084797,
				"y": -2.385537209,
				"z": 1.7690681397,
				"element": "C" 
			},
			{
				"x": -4.5910425482,
				"y": 2.1657385935,
				"z": 1.1129380386,
				"element": "H" 
			},
			{
				"x": -2.6025920949,
				"y": 3.4392416729,
				"z": -0.7123094188,
				"element": "H" 
			},
			{
				"x": -1.414715864,
				"y": 4.7889317994,
				"z": -2.3713113948,
				"element": "H" 
			},
			{
				"x": 0.8100467022,
				"y": 4.0799969495,
				"z": -3.2390729519,
				"element": "H" 
			},
			{
				"x": 1.8432361028,
				"y": 1.9677811217,
				"z": -2.3892702472,
				"element": "H" 
			},
			{
				"x": -1.4439673793,
				"y": -0.7543230366,
				"z": 1.5126104936,
				"element": "H" 
			},
			{
				"x": 2.4837149017,
				"y": -1.458851857,
				"z": -0.956553591,
				"element": "H" 
			},
			{
				"x": 3.7365424707,
				"y": -3.5012520541,
				"z": -0.2554087273,
				"element": "H" 
			},
			{
				"x": 1.2207282117,
				"y": -4.1127861783,
				"z": 2.9510872563,
				"element": "H" 
			},
			{
				"x": -0.1256644803,
				"y": -2.1241023922,
				"z": 2.4064993033,
				"element": "H" 
			}
		],
		 "valence_orbital": [ 
			{
				"type": "occ",
				"energy": -0.27099,
				"method": "rhf"
			},
			{
				"type": "occ",
				"energy": -0.26093,
				"method": "rhf"
			},
			{
				"type": "occ",
				"energy": -0.25408,
				"method": "rhf"
			},
			{
				"type": "occ",
				"energy": -0.25279,
				"method": "rhf"
			},
			{
				"type": "occ",
				"energy": -0.24017,
				"method": "rhf"
			},
			{
				"type": "unocc",
				"energy": -0.09053,
				"method": "rhf"
			},
			{
				"type": "unocc",
				"energy": -0.05123,
				"method": "rhf"
			},
			{
				"type": "unocc",
				"energy": -0.01572,
				"method": "rhf"
			},
			{
				"type": "unocc",
				"energy": -0.00894,
				"method": "rhf"
			},
			{
				"type": "unocc",
				"energy": 0.00016,
				"method": "rhf"
			}
		],
		"cosmo_sigma_profile": { 
			"-0.025": 0.0,
			"-0.024": 0.0,
			"-0.023": 0.0,
			"-0.022": 0.0,
			"-0.021": 0.0,
			"-0.02": 0.0,
			"-0.019": 0.39751327711,
			"-0.018": 0.919602611466,
			"-0.017": 0.982767743159,
			"-0.016": 0.616352553219,
			"-0.015": 0.848198429975,
			"-0.014": 0.441014340837,
			"-0.013": 0.675986773445,
			"-0.012": 0.930679245388,
			"-0.011": 1.00400199397,
			"-0.01": 0.789380777345,
			"-0.009": 1.93751233275,
			"-0.008": 2.61791324996,
			"-0.007": 5.86312890189,
			"-0.006": 14.3560842814,
			"-0.005": 16.2353965305,
			"-0.004": 16.6395216527,
			"-0.003": 15.9112517598,
			"-0.002": 17.6052720963,
			"-0.001": 22.5327537716,
			"0.0": 24.1581097017,
			"0.001": 25.8713097475,
			"0.002": 33.5581313681,
			"0.003": 20.8530392471,
			"0.004": 10.916260243,
			"0.005": 6.28491672327,
			"0.006": 2.87407009104,
			"0.007": 5.34893483273,
			"0.008": 4.8054690114,
			"0.009": 3.63995947687,
			"0.01": 3.67089624491,
			"0.011": 5.41572132569,
			"0.012": 1.28173674944,
			"0.013": 1.0690402507,
			"0.014": 0.860311564535,
			"0.015": 0.935108677857,
			"0.016": 0.811928478274,
			"0.017": 0.351259869218,
			"0.018": 0.0,
			"0.019": 0.0,
			"0.02": 0.0,
			"0.021": 0.0,
			"0.022": 0.0,
			"0.023": 0.0,
			"0.024": 0.0,
			"0.0": 0.0
		}
	}
}
