{
	 "smiles": "OC1=C(C=CC(Cl)=C1)C(=O)C1=CC=CC=C1", 
	 "Tm": 349.15, 
	 "num_atms": 25, 
	 "gaussian": { 
		 "optdone": 1, 
		 "sigma_profile": "yes", 
		 "theory": "DFT", 
		 "functional": "B3LYP", 
		 "basiset": "6-31G**", 
		 "properties": { 
			 "R2extent": 5174.946, 
			 "electric_dipole_moment_norm": 3.4000610671, 
			 "electric_quadrupole_moment_norm": 7.12743509055, 
			 "total_energy": -1111.44205172, 
			 "HOMO_LUMO_gap": 0.17537, 
			 "cosmo_polarized_energy": -13.96, 
			 "cosmo_cavitation_energy": 31.59, 
			 "cosmo_dispersion_energy": -22.93, 
			 "cosmo_repulsion_energy": 1.79, 
			 "cosmo_total_nonelectrostatic_energy": 10.45, 
			 "SMD_solvation_energy": 5.86 
		},
		"coords": [
			{
				"x": -0.4982990895,
				"y": -1.6298547894,
				"z": 0.347931789,
				"element": "O" 
			},
			{
				"x": 0.6883354487,
				"y": -1.1370820566,
				"z": 0.7989146397,
				"element": "C" 
			},
			{
				"x": 1.5557340382,
				"y": -0.5231492522,
				"z": -0.1264375339,
				"element": "C" 
			},
			{
				"x": 2.8118446528,
				"y": -0.09752546,
				"z": 0.3276582639,
				"element": "C" 
			},
			{
				"x": 3.1969236454,
				"y": -0.2066664055,
				"z": 1.6600575836,
				"element": "C" 
			},
			{
				"x": 2.3037724805,
				"y": -0.792903459,
				"z": 2.5563255867,
				"element": "C" 
			},
			{
				"x": 2.7503650547,
				"y": -0.9540080809,
				"z": 4.2462705896,
				"element": "Cl" 
			},
			{
				"x": 1.0625612986,
				"y": -1.2670145114,
				"z": 2.1420658875,
				"element": "C" 
			},
			{
				"x": 1.2747692968,
				"y": -0.3842880632,
				"z": -1.5998273111,
				"element": "C" 
			},
			{
				"x": 2.1746840528,
				"y": -0.633467828,
				"z": -2.3940573645,
				"element": "O" 
			},
			{
				"x": -0.0441429383,
				"y": 0.1226905982,
				"z": -2.0899137396,
				"element": "C" 
			},
			{
				"x": -0.3701085363,
				"y": -0.0890979996,
				"z": -3.438696608,
				"element": "C" 
			},
			{
				"x": -1.5572892788,
				"y": 0.413128437,
				"z": -3.963192086,
				"element": "C" 
			},
			{
				"x": -2.4211915413,
				"y": 1.1542138979,
				"z": -3.1510354744,
				"element": "C" 
			},
			{
				"x": -2.0946082521,
				"y": 1.3871224778,
				"z": -1.8133223631,
				"element": "C" 
			},
			{
				"x": -0.9148656477,
				"y": 0.8680106793,
				"z": -1.2821797715,
				"element": "C" 
			},
			{
				"x": -0.9749694982,
				"y": -2.0451893263,
				"z": 1.0785324233,
				"element": "H" 
			},
			{
				"x": 3.4923318735,
				"y": 0.33120418,
				"z": -0.4005726071,
				"element": "H" 
			},
			{
				"x": 4.1641626876,
				"y": 0.1457225273,
				"z": 1.9976332131,
				"element": "H" 
			},
			{
				"x": 0.396751853,
				"y": -1.7448662278,
				"z": 2.854683998,
				"element": "H" 
			},
			{
				"x": 0.3251902095,
				"y": -0.6489445852,
				"z": -4.0551159949,
				"element": "H" 
			},
			{
				"x": -1.8088029306,
				"y": 0.2346194891,
				"z": -5.0046304259,
				"element": "H" 
			},
			{
				"x": -3.3446965096,
				"y": 1.5529344208,
				"z": -3.5615649713,
				"element": "H" 
			},
			{
				"x": -2.758471846,
				"y": 1.9738167257,
				"z": -1.1849893313,
				"element": "H" 
			},
			{
				"x": -0.6607805235,
				"y": 1.0569946121,
				"z": -0.2445383918,
				"element": "H" 
			}
		],
		 "valence_orbital": [ 
			{
				"type": "occ",
				"energy": -0.2653,
				"method": "rhf"
			},
			{
				"type": "occ",
				"energy": -0.25695,
				"method": "rhf"
			},
			{
				"type": "occ",
				"energy": -0.25663,
				"method": "rhf"
			},
			{
				"type": "occ",
				"energy": -0.24801,
				"method": "rhf"
			},
			{
				"type": "occ",
				"energy": -0.23923,
				"method": "rhf"
			},
			{
				"type": "unocc",
				"energy": -0.06386,
				"method": "rhf"
			},
			{
				"type": "unocc",
				"energy": -0.02118,
				"method": "rhf"
			},
			{
				"type": "unocc",
				"energy": -0.00882,
				"method": "rhf"
			},
			{
				"type": "unocc",
				"energy": -0.00461,
				"method": "rhf"
			},
			{
				"type": "unocc",
				"energy": 0.02112,
				"method": "rhf"
			}
		],
		"cosmo_sigma_profile": { 
			"-0.025": 0.0,
			"-0.024": 0.0,
			"-0.023": 0.0,
			"-0.022": 0.0,
			"-0.021": 0.0,
			"-0.02": 0.0,
			"-0.019": 0.569299510896,
			"-0.018": 1.24978481067,
			"-0.017": 1.1805048343,
			"-0.016": 1.52025811755,
			"-0.015": 0.927978337865,
			"-0.014": 0.645106691939,
			"-0.013": 0.909232288588,
			"-0.012": 0.877416946863,
			"-0.011": 1.05936149733,
			"-0.01": 1.70511727645,
			"-0.009": 1.35176839642,
			"-0.008": 1.12527124527,
			"-0.007": 5.10390099799,
			"-0.006": 12.4796666753,
			"-0.005": 16.5336444627,
			"-0.004": 15.2853250352,
			"-0.003": 14.5194349402,
			"-0.002": 14.7921848488,
			"-0.001": 14.7209301513,
			"0.0": 17.9790747129,
			"0.001": 23.8190198352,
			"0.002": 24.6653792132,
			"0.003": 23.8815350098,
			"0.004": 24.9954918353,
			"0.005": 9.90209881776,
			"0.006": 3.57714663352,
			"0.007": 3.26062436577,
			"0.008": 4.10460247399,
			"0.009": 3.47895995403,
			"0.01": 2.18967116969,
			"0.011": 3.30368648182,
			"0.012": 3.78941007414,
			"0.013": 0.603740662416,
			"0.014": 0.0,
			"0.015": 0.0,
			"0.016": 0.0,
			"0.017": 0.0,
			"0.018": 0.0,
			"0.019": 0.0,
			"0.02": 0.0,
			"0.021": 0.0,
			"0.022": 0.0,
			"0.023": 0.0,
			"0.024": 0.0,
			"0.025": 0.0
		}
	}
}
