{
	 "smiles": "OC(=O)C1=CC(=CC=C1)S(=O)(=O)N1CCCC2=C1C=CC=C2", 
	 "Tm": 372.15, 
	 "num_atms": 37, 
	 "gaussian": { 
		 "optdone": 1, 
		 "sigma_profile": "yes", 
		 "theory": "DFT", 
		 "functional": "B3LYP", 
		 "basiset": "6-31G**", 
		 "properties": { 
			 "R2extent": 7303.4158, 
			 "electric_dipole_moment_norm": 7.32060916796, 
			 "electric_quadrupole_moment_norm": 16.6630778057, 
			 "total_energy": -1372.51719016, 
			 "HOMO_LUMO_gap": 0.15459, 
			 "cosmo_polarized_energy": -23.54, 
			 "cosmo_cavitation_energy": 40.9, 
			 "cosmo_dispersion_energy": -28.72, 
			 "cosmo_repulsion_energy": 2.15, 
			 "cosmo_total_nonelectrostatic_energy": 14.33, 
			 "SMD_solvation_energy": 6.15 
		},
		"coords": [
			{
				"x": 1.213332912,
				"y": 4.551754085,
				"z": 0.035473018,
				"element": "O" 
			},
			{
				"x": 1.1997849351,
				"y": 3.4156190796,
				"z": -0.7100780734,
				"element": "C" 
			},
			{
				"x": 2.1009056758,
				"y": 3.1846453952,
				"z": -1.4794433708,
				"element": "O" 
			},
			{
				"x": 0.0306566555,
				"y": 2.4912106576,
				"z": -0.5176057321,
				"element": "C" 
			},
			{
				"x": 0.1812834828,
				"y": 1.1682368738,
				"z": -0.9553184238,
				"element": "C" 
			},
			{
				"x": -0.8741917452,
				"y": 0.273377913,
				"z": -0.8001656054,
				"element": "C" 
			},
			{
				"x": -2.0954528236,
				"y": 0.6748348059,
				"z": -0.2457983467,
				"element": "C" 
			},
			{
				"x": -2.2484451245,
				"y": 1.9975922392,
				"z": 0.1647015725,
				"element": "C" 
			},
			{
				"x": -1.191503997,
				"y": 2.9001304822,
				"z": 0.0331680516,
				"element": "C" 
			},
			{
				"x": -0.661372686,
				"y": -1.4427448333,
				"z": -1.3067198867,
				"element": "S" 
			},
			{
				"x": 0.5186678121,
				"y": -1.5110001284,
				"z": -2.1669794294,
				"element": "O" 
			},
			{
				"x": -1.9690392014,
				"y": -1.9181505268,
				"z": -1.7548810419,
				"element": "O" 
			},
			{
				"x": -0.2322807004,
				"y": -2.2746401409,
				"z": 0.1161443687,
				"element": "N" 
			},
			{
				"x": 1.2165093866,
				"y": -2.1469996726,
				"z": 0.4506212721,
				"element": "C" 
			},
			{
				"x": 1.4990588255,
				"y": -2.4987919437,
				"z": 1.9072883099,
				"element": "C" 
			},
			{
				"x": 0.5253248194,
				"y": -1.7391340241,
				"z": 2.8162222993,
				"element": "C" 
			},
			{
				"x": -0.8756402056,
				"y": -2.1957503024,
				"z": 2.4890570871,
				"element": "C" 
			},
			{
				"x": -1.2031038301,
				"y": -2.4954408303,
				"z": 1.1490372154,
				"element": "C" 
			},
			{
				"x": -2.4532149984,
				"y": -3.0627564412,
				"z": 0.8511095875,
				"element": "C" 
			},
			{
				"x": -3.3933802312,
				"y": -3.2561462137,
				"z": 1.8615145472,
				"element": "C" 
			},
			{
				"x": -3.0881680913,
				"y": -2.9357466517,
				"z": 3.1845457526,
				"element": "C" 
			},
			{
				"x": -1.8245900552,
				"y": -2.4315681321,
				"z": 3.4874293031,
				"element": "C" 
			},
			{
				"x": 0.5248949904,
				"y": 4.5225922642,
				"z": 0.7137745237,
				"element": "H" 
			},
			{
				"x": 1.1075454987,
				"y": 0.8648050583,
				"z": -1.4298368934,
				"element": "H" 
			},
			{
				"x": -2.911937301,
				"y": -0.0332953845,
				"z": -0.1631512533,
				"element": "H" 
			},
			{
				"x": -3.1967994591,
				"y": 2.3296995517,
				"z": 0.5749028966,
				"element": "H" 
			},
			{
				"x": -1.3504617351,
				"y": 3.9355643603,
				"z": 0.3244716648,
				"element": "H" 
			},
			{
				"x": 1.5437638095,
				"y": -1.1149198817,
				"z": 0.2759346647,
				"element": "H" 
			},
			{
				"x": 1.7790181984,
				"y": -2.7859319841,
				"z": -0.2332548709,
				"element": "H" 
			},
			{
				"x": 2.5412208278,
				"y": -2.2393040123,
				"z": 2.1216813654,
				"element": "H" 
			},
			{
				"x": 1.3892501112,
				"y": -3.5763403313,
				"z": 2.0728095221,
				"element": "H" 
			},
			{
				"x": 0.7426009923,
				"y": -1.9201174648,
				"z": 3.8736127498,
				"element": "H" 
			},
			{
				"x": 0.6411641869,
				"y": -0.6583291781,
				"z": 2.6491587155,
				"element": "H" 
			},
			{
				"x": -2.6812173899,
				"y": -3.3412505413,
				"z": -0.1682019402,
				"element": "H" 
			},
			{
				"x": -4.35977586,
				"y": -3.6833800074,
				"z": 1.6102871279,
				"element": "H" 
			},
			{
				"x": -3.8145036651,
				"y": -3.1013806368,
				"z": 3.9744974929,
				"element": "H" 
			},
			{
				"x": -1.5584040196,
				"y": -2.2151435024,
				"z": 4.5192917594,
				"element": "H" 
			}
		],
		 "valence_orbital": [ 
			{
				"type": "occ",
				"energy": -0.29153,
				"method": "rhf"
			},
			{
				"type": "occ",
				"energy": -0.28742,
				"method": "rhf"
			},
			{
				"type": "occ",
				"energy": -0.28016,
				"method": "rhf"
			},
			{
				"type": "occ",
				"energy": -0.25233,
				"method": "rhf"
			},
			{
				"type": "occ",
				"energy": -0.22621,
				"method": "rhf"
			},
			{
				"type": "unocc",
				"energy": -0.07162,
				"method": "rhf"
			},
			{
				"type": "unocc",
				"energy": -0.05124,
				"method": "rhf"
			},
			{
				"type": "unocc",
				"energy": -0.01277,
				"method": "rhf"
			},
			{
				"type": "unocc",
				"energy": -0.00885,
				"method": "rhf"
			},
			{
				"type": "unocc",
				"energy": 0.02569,
				"method": "rhf"
			}
		],
		"cosmo_sigma_profile": { 
			"-0.025": 0.0,
			"-0.024": 0.0,
			"-0.023": 0.0,
			"-0.022": 0.0,
			"-0.021": 0.0,
			"-0.02": 0.0606890366337,
			"-0.019": 0.772785646918,
			"-0.018": 1.13214348941,
			"-0.017": 0.969267111895,
			"-0.016": 1.10284969849,
			"-0.015": 0.675907549127,
			"-0.014": 1.07470173659,
			"-0.013": 1.09941623664,
			"-0.012": 1.36661368902,
			"-0.011": 1.40666526057,
			"-0.01": 1.3714973663,
			"-0.009": 1.81336127016,
			"-0.008": 3.93367384732,
			"-0.007": 7.39198573769,
			"-0.006": 9.88317127886,
			"-0.005": 23.3153344989,
			"-0.004": 30.5024295011,
			"-0.003": 29.0834088474,
			"-0.002": 25.3626695489,
			"-0.001": 26.2272351456,
			"0.0": 23.9078631547,
			"0.001": 21.7437588494,
			"0.002": 16.0196848776,
			"0.003": 13.9053251534,
			"0.004": 13.1913025007,
			"0.005": 12.7301708943,
			"0.006": 8.94702119447,
			"0.007": 5.92876000861,
			"0.008": 6.81179348867,
			"0.009": 8.25623999999,
			"0.01": 11.7613757592,
			"0.011": 10.7600982954,
			"0.012": 3.07304120393,
			"0.013": 0.620210138086,
			"0.014": 0.0,
			"0.015": 0.0,
			"0.016": 0.0,
			"0.017": 0.0,
			"0.018": 0.0,
			"0.019": 0.0,
			"0.02": 0.0,
			"0.021": 0.0,
			"0.022": 0.0,
			"0.023": 0.0,
			"0.024": 0.0,
			"0.0": 0.0
		}
	}
}
