{
	 "smiles": "OC(=O)C1=C(C=CC(F)=C1)N1CCOCC1", 
	 "Tm": 432.15, 
	 "num_atms": 28, 
	 "gaussian": { 
		 "optdone": 1, 
		 "sigma_profile": "yes", 
		 "theory": "DFT", 
		 "functional": "B3LYP", 
		 "basiset": "6-31G**", 
		 "properties": { 
			 "R2extent": 4359.3818, 
			 "electric_dipole_moment_norm": 0.916367278988, 
			 "electric_quadrupole_moment_norm": 13.8693420078, 
			 "total_energy": -806.64098665, 
			 "HOMO_LUMO_gap": 0.15404, 
			 "cosmo_polarized_energy": -12.63, 
			 "cosmo_cavitation_energy": 30.7, 
			 "cosmo_dispersion_energy": -22.62, 
			 "cosmo_repulsion_energy": 1.73, 
			 "cosmo_total_nonelectrostatic_energy": 9.8, 
			 "SMD_solvation_energy": 5.78 
		},
		"coords": [
			{
				"x": -0.1219434529,
				"y": -3.8683517721,
				"z": 1.2919466111,
				"element": "O" 
			},
			{
				"x": -0.0081693567,
				"y": -2.5434363902,
				"z": 1.5907500821,
				"element": "C" 
			},
			{
				"x": -0.5814096593,
				"y": -2.0732597093,
				"z": 2.5569322167,
				"element": "O" 
			},
			{
				"x": 0.9155751831,
				"y": -1.828206529,
				"z": 0.6765678661,
				"element": "C" 
			},
			{
				"x": 0.9556549191,
				"y": -0.4030241539,
				"z": 0.5755629543,
				"element": "C" 
			},
			{
				"x": 2.081478583,
				"y": 0.167607856,
				"z": -0.0686654692,
				"element": "C" 
			},
			{
				"x": 3.0727002632,
				"y": -0.6102062255,
				"z": -0.6495526449,
				"element": "C" 
			},
			{
				"x": 2.9588684962,
				"y": -1.996482356,
				"z": -0.612126879,
				"element": "C" 
			},
			{
				"x": 3.909794408,
				"y": -2.7569846699,
				"z": -1.2002172591,
				"element": "F" 
			},
			{
				"x": 1.9049514102,
				"y": -2.6034266761,
				"z": 0.0388110583,
				"element": "C" 
			},
			{
				"x": -0.0483445146,
				"y": 0.4219953326,
				"z": 1.0577532417,
				"element": "N" 
			},
			{
				"x": -1.4700692741,
				"y": 0.0597450304,
				"z": 0.9745863151,
				"element": "C" 
			},
			{
				"x": -2.2874902905,
				"y": 1.2499592204,
				"z": 0.4762334667,
				"element": "C" 
			},
			{
				"x": -2.1840490163,
				"y": 2.3877911349,
				"z": 1.3289534599,
				"element": "O" 
			},
			{
				"x": -0.944000004,
				"y": 2.4750033371,
				"z": 2.0232261415,
				"element": "C" 
			},
			{
				"x": 0.2081357568,
				"y": 1.8499882127,
				"z": 1.2424942349,
				"element": "C" 
			},
			{
				"x": -0.6689845922,
				"y": -4.2417714602,
				"z": 2.0021059143,
				"element": "H" 
			},
			{
				"x": 2.1607615378,
				"y": 1.243698234,
				"z": -0.1528101765,
				"element": "H" 
			},
			{
				"x": 3.9184186324,
				"y": -0.1527742122,
				"z": -1.1524416186,
				"element": "H" 
			},
			{
				"x": 1.8646406857,
				"y": -3.6831686246,
				"z": 0.1015460714,
				"element": "H" 
			},
			{
				"x": -1.5880810242,
				"y": -0.7695247467,
				"z": 0.2688861312,
				"element": "H" 
			},
			{
				"x": -1.8453481173,
				"y": -0.2857382917,
				"z": 1.9425934014,
				"element": "H" 
			},
			{
				"x": -3.347032984,
				"y": 0.9751224834,
				"z": 0.4386847184,
				"element": "H" 
			},
			{
				"x": -1.9748399906,
				"y": 1.5149593257,
				"z": -0.5461373507,
				"element": "H" 
			},
			{
				"x": -1.0196346027,
				"y": 1.9877202155,
				"z": 3.0069355477,
				"element": "H" 
			},
			{
				"x": -0.7439860618,
				"y": 3.5388853659,
				"z": 2.1876738205,
				"element": "H" 
			},
			{
				"x": 1.1391947956,
				"y": 1.9832881294,
				"z": 1.8050949999,
				"element": "H" 
			},
			{
				"x": 0.3212082699,
				"y": 2.3856919395,
				"z": 0.2849131447,
				"element": "H" 
			}
		],
		 "valence_orbital": [ 
			{
				"type": "occ",
				"energy": -0.28359,
				"method": "rhf"
			},
			{
				"type": "occ",
				"energy": -0.27344,
				"method": "rhf"
			},
			{
				"type": "occ",
				"energy": -0.26501,
				"method": "rhf"
			},
			{
				"type": "occ",
				"energy": -0.25236,
				"method": "rhf"
			},
			{
				"type": "occ",
				"energy": -0.20112,
				"method": "rhf"
			},
			{
				"type": "unocc",
				"energy": -0.04708,
				"method": "rhf"
			},
			{
				"type": "unocc",
				"energy": 0.0024,
				"method": "rhf"
			},
			{
				"type": "unocc",
				"energy": 0.04986,
				"method": "rhf"
			},
			{
				"type": "unocc",
				"energy": 0.07611,
				"method": "rhf"
			},
			{
				"type": "unocc",
				"energy": 0.08199,
				"method": "rhf"
			}
		],
		"cosmo_sigma_profile": { 
			"-0.025": 0.0,
			"-0.024": 0.0,
			"-0.023": 0.0,
			"-0.022": 0.0,
			"-0.021": 0.0,
			"-0.02": 0.0,
			"-0.019": 0.0,
			"-0.018": 0.383602230729,
			"-0.017": 0.731345856231,
			"-0.016": 1.00431353954,
			"-0.015": 0.991808152566,
			"-0.014": 0.790569918413,
			"-0.013": 0.579891309707,
			"-0.012": 0.236720730639,
			"-0.011": 0.495803080647,
			"-0.01": 0.971331526343,
			"-0.009": 0.672899071921,
			"-0.008": 1.16802035262,
			"-0.007": 4.37347619072,
			"-0.006": 11.1267768015,
			"-0.005": 21.1879232845,
			"-0.004": 26.1681716646,
			"-0.003": 20.5988936947,
			"-0.002": 16.8977974303,
			"-0.001": 12.3861401651,
			"0.0": 14.408947139,
			"0.001": 16.3099469346,
			"0.002": 15.7200978113,
			"0.003": 18.2733719622,
			"0.004": 15.0178092605,
			"0.005": 10.4827879321,
			"0.006": 4.46714168578,
			"0.007": 5.00789907262,
			"0.008": 3.29947170731,
			"0.009": 3.245159761,
			"0.01": 2.63273374196,
			"0.011": 4.09681277088,
			"0.012": 5.44683320669,
			"0.013": 2.91308392256,
			"0.014": 0.611162978755,
			"0.015": 0.0,
			"0.016": 0.0,
			"0.017": 0.0,
			"0.018": 0.0,
			"0.019": 0.0,
			"0.02": 0.0,
			"0.021": 0.0,
			"0.022": 0.0,
			"0.023": 0.0,
			"0.024": 0.0,
			"0.025": 0.0
		}
	}
}
