{
	 "smiles": "CC(CN(C)C)CN1C2=CC=CC=C2CCC2=CC=CC=C12", 
	 "Tm": 318.15, 
	 "num_atms": 48, 
	 "gaussian": { 
		 "optdone": 1, 
		 "sigma_profile": "yes", 
		 "theory": "DFT", 
		 "functional": "B3LYP", 
		 "basiset": "6-31G**", 
		 "properties": { 
			 "R2extent": 8115.0708, 
			 "electric_dipole_moment_norm": 1.16193580718, 
			 "electric_quadrupole_moment_norm": 9.33576452895, 
			 "total_energy": -887.293145939, 
			 "HOMO_LUMO_gap": 0.18944, 
			 "cosmo_polarized_energy": -7.41, 
			 "cosmo_cavitation_energy": 46.3, 
			 "cosmo_dispersion_energy": -31.3, 
			 "cosmo_repulsion_energy": 2.38, 
			 "cosmo_total_nonelectrostatic_energy": 17.37, 
			 "SMD_solvation_energy": 6.53 
		},
		"coords": [
			{
				"x": 0.2064799774,
				"y": -0.0497728103,
				"z": 1.5030483412,
				"element": "C" 
			},
			{
				"x": -1.0395846793,
				"y": -0.5621358252,
				"z": 0.771070746,
				"element": "C" 
			},
			{
				"x": -2.3411609999,
				"y": -0.3856057133,
				"z": 1.5850610087,
				"element": "C" 
			},
			{
				"x": -2.6988423686,
				"y": 1.0163941402,
				"z": 1.8590067784,
				"element": "N" 
			},
			{
				"x": -2.3673436495,
				"y": 1.4362061549,
				"z": 3.2155277121,
				"element": "C" 
			},
			{
				"x": -4.0886106116,
				"y": 1.3261217418,
				"z": 1.5460532728,
				"element": "C" 
			},
			{
				"x": -1.2128939323,
				"y": 0.1105218385,
				"z": -0.6062945087,
				"element": "C" 
			},
			{
				"x": -0.059306434,
				"y": -0.0297870807,
				"z": -1.5030180284,
				"element": "N" 
			},
			{
				"x": 0.3210143071,
				"y": -1.3328466643,
				"z": -1.9474702096,
				"element": "C" 
			},
			{
				"x": -0.6379308417,
				"y": -2.366830319,
				"z": -1.9345030535,
				"element": "C" 
			},
			{
				"x": -0.3344204848,
				"y": -3.6643962538,
				"z": -2.3330507905,
				"element": "C" 
			},
			{
				"x": 0.9508228738,
				"y": -3.969017939,
				"z": -2.7756555712,
				"element": "C" 
			},
			{
				"x": 1.9029318034,
				"y": -2.9552279935,
				"z": -2.7994369456,
				"element": "C" 
			},
			{
				"x": 1.6324962988,
				"y": -1.6407002992,
				"z": -2.3902642091,
				"element": "C" 
			},
			{
				"x": 2.8110569303,
				"y": -0.6771016983,
				"z": -2.4724222934,
				"element": "C" 
			},
			{
				"x": 2.6404354414,
				"y": 0.7214101067,
				"z": -1.8624053438,
				"element": "C" 
			},
			{
				"x": 1.5450510779,
				"y": 1.500477649,
				"z": -2.5365949342,
				"element": "C" 
			},
			{
				"x": 1.8080588411,
				"y": 2.607671246,
				"z": -3.3487738819,
				"element": "C" 
			},
			{
				"x": 0.7745822931,
				"y": 3.3222969407,
				"z": -3.9559171787,
				"element": "C" 
			},
			{
				"x": -0.5461010875,
				"y": 2.9206503305,
				"z": -3.756222228,
				"element": "C" 
			},
			{
				"x": -0.8247861948,
				"y": 1.8070857786,
				"z": -2.9636183356,
				"element": "C" 
			},
			{
				"x": 0.212618308,
				"y": 1.0894561199,
				"z": -2.3517933802,
				"element": "C" 
			},
			{
				"x": 0.2985015878,
				"y": -0.5114743726,
				"z": 2.4927045323,
				"element": "H" 
			},
			{
				"x": 0.1691132198,
				"y": 1.0369966856,
				"z": 1.6323324093,
				"element": "H" 
			},
			{
				"x": 1.111265263,
				"y": -0.2883874295,
				"z": 0.938826692,
				"element": "H" 
			},
			{
				"x": -0.9224113932,
				"y": -1.6440685328,
				"z": 0.626583408,
				"element": "H" 
			},
			{
				"x": -3.159023855,
				"y": -0.8510446475,
				"z": 1.0206057408,
				"element": "H" 
			},
			{
				"x": -2.2590737754,
				"y": -0.9596546642,
				"z": 2.5228350545,
				"element": "H" 
			},
			{
				"x": -2.5432310669,
				"y": 2.5118976262,
				"z": 3.3232596124,
				"element": "H" 
			},
			{
				"x": -2.9661630789,
				"y": 0.9153752129,
				"z": 3.9884442709,
				"element": "H" 
			},
			{
				"x": -1.3124622843,
				"y": 1.2484502276,
				"z": 3.4259628706,
				"element": "H" 
			},
			{
				"x": -4.8173615579,
				"y": 0.7866893394,
				"z": 2.1821582547,
				"element": "H" 
			},
			{
				"x": -4.2642033157,
				"y": 2.3992601323,
				"z": 1.6776029951,
				"element": "H" 
			},
			{
				"x": -4.3032617059,
				"y": 1.0795647985,
				"z": 0.5018992239,
				"element": "H" 
			},
			{
				"x": -2.1497425285,
				"y": -0.2457583026,
				"z": -1.0678893675,
				"element": "H" 
			},
			{
				"x": -1.3485753715,
				"y": 1.1794309348,
				"z": -0.4293411415,
				"element": "H" 
			},
			{
				"x": -1.6503637318,
				"y": -2.1473898595,
				"z": -1.6183510889,
				"element": "H" 
			},
			{
				"x": -1.1072522579,
				"y": -4.4276021685,
				"z": -2.3055618306,
				"element": "H" 
			},
			{
				"x": 1.2099121845,
				"y": -4.9749478019,
				"z": -3.0917677296,
				"element": "H" 
			},
			{
				"x": 2.9119524602,
				"y": -3.1836528422,
				"z": -3.1369283885,
				"element": "H" 
			},
			{
				"x": 3.0823892835,
				"y": -0.5530254226,
				"z": -3.5299667678,
				"element": "H" 
			},
			{
				"x": 3.673967102,
				"y": -1.1649522081,
				"z": -2.0005747066,
				"element": "H" 
			},
			{
				"x": 3.5904349533,
				"y": 1.2591638048,
				"z": -1.9536916404,
				"element": "H" 
			},
			{
				"x": 2.4199487228,
				"y": 0.6313985723,
				"z": -0.7924573552,
				"element": "H" 
			},
			{
				"x": 2.8393315053,
				"y": 2.9231916488,
				"z": -3.4891983244,
				"element": "H" 
			},
			{
				"x": 0.9988516037,
				"y": 4.1866952798,
				"z": -4.5740606874,
				"element": "H" 
			},
			{
				"x": -1.3615407491,
				"y": 3.4647586106,
				"z": -4.2245324752,
				"element": "H" 
			},
			{
				"x": -1.8527680819,
				"y": 1.487215928,
				"z": -2.8260205276,
				"element": "H" 
			}
		],
		 "valence_orbital": [ 
			{
				"type": "occ",
				"energy": -0.23944,
				"method": "rhf"
			},
			{
				"type": "occ",
				"energy": -0.23486,
				"method": "rhf"
			},
			{
				"type": "occ",
				"energy": -0.22885,
				"method": "rhf"
			},
			{
				"type": "occ",
				"energy": -0.20781,
				"method": "rhf"
			},
			{
				"type": "occ",
				"energy": -0.18896,
				"method": "rhf"
			},
			{
				"type": "unocc",
				"energy": 0.00048,
				"method": "rhf"
			},
			{
				"type": "unocc",
				"energy": 0.00818,
				"method": "rhf"
			},
			{
				"type": "unocc",
				"energy": 0.01113,
				"method": "rhf"
			},
			{
				"type": "unocc",
				"energy": 0.01561,
				"method": "rhf"
			},
			{
				"type": "unocc",
				"energy": 0.07401,
				"method": "rhf"
			}
		],
		"cosmo_sigma_profile": { 
			"-0.025": 0.0,
			"-0.024": 0.0,
			"-0.023": 0.0,
			"-0.022": 0.0,
			"-0.021": 0.0,
			"-0.02": 0.0,
			"-0.019": 0.0,
			"-0.018": 0.0,
			"-0.017": 0.0,
			"-0.016": 0.0,
			"-0.015": 0.0,
			"-0.014": 0.0,
			"-0.013": 0.0,
			"-0.012": 0.0,
			"-0.011": 0.0,
			"-0.01": 0.0,
			"-0.009": 0.0,
			"-0.008": 0.0,
			"-0.007": 0.0,
			"-0.006": 1.6882014834,
			"-0.005": 14.4487623106,
			"-0.004": 25.5563633455,
			"-0.003": 42.2417995236,
			"-0.002": 49.8352199326,
			"-0.001": 52.6770498358,
			"0.0": 47.6106191909,
			"0.001": 30.3117088913,
			"0.002": 19.9843629454,
			"0.003": 18.5086233457,
			"0.004": 15.9883860478,
			"0.005": 14.6146885082,
			"0.006": 15.4008388259,
			"0.007": 10.0919749794,
			"0.008": 1.13571759255,
			"0.009": 0.896280536784,
			"0.01": 0.716693515135,
			"0.011": 0.378985743269,
			"0.012": 0.338112348151,
			"0.013": 0.0999527790961,
			"0.014": 0.0,
			"0.015": 0.0,
			"0.016": 0.0,
			"0.017": 0.0,
			"0.018": 0.0,
			"0.019": 0.0,
			"0.02": 0.0,
			"0.021": 0.0,
			"0.022": 0.0,
			"0.023": 0.0,
			"0.024": 0.0,
			"0.025": 0.0
		}
	}
}
