{
	 "smiles": "CC1(CCC2=CC=C(O)C=C2)NC(=O)NC1=O", 
	 "Tm": 466.15, 
	 "num_atms": 31, 
	 "gaussian": { 
		 "optdone": 1, 
		 "sigma_profile": "yes", 
		 "theory": "DFT", 
		 "functional": "B3LYP", 
		 "basiset": "6-31G**", 
		 "properties": { 
			 "R2extent": 6215.8493, 
			 "electric_dipole_moment_norm": 1.96580730744, 
			 "electric_quadrupole_moment_norm": 14.1833434634, 
			 "total_energy": -800.936221809, 
			 "HOMO_LUMO_gap": 0.20645, 
			 "cosmo_polarized_energy": -20.7, 
			 "cosmo_cavitation_energy": 34.15, 
			 "cosmo_dispersion_energy": -23.96, 
			 "cosmo_repulsion_energy": 1.86, 
			 "cosmo_total_nonelectrostatic_energy": 12.05, 
			 "SMD_solvation_energy": 7.05 
		},
		"coords": [
			{
				"x": 1.2812959264,
				"y": 2.1732990891,
				"z": 0.8848282133,
				"element": "C" 
			},
			{
				"x": 0.0337834832,
				"y": 1.4181516478,
				"z": 0.4034045508,
				"element": "C" 
			},
			{
				"x": -0.04906016,
				"y": -0.0503530597,
				"z": 0.9131392483,
				"element": "C" 
			},
			{
				"x": 0.9538552741,
				"y": -1.0882033619,
				"z": 0.3565295991,
				"element": "C" 
			},
			{
				"x": 2.3953980545,
				"y": -0.9612244045,
				"z": 0.807071936,
				"element": "C" 
			},
			{
				"x": 3.3979628663,
				"y": -0.5566425998,
				"z": -0.0826013804,
				"element": "C" 
			},
			{
				"x": 4.729815936,
				"y": -0.4549931559,
				"z": 0.3233602261,
				"element": "C" 
			},
			{
				"x": 5.0838121699,
				"y": -0.7622757963,
				"z": 1.6402955245,
				"element": "C" 
			},
			{
				"x": 6.3686884906,
				"y": -0.6843424907,
				"z": 2.1014899523,
				"element": "O" 
			},
			{
				"x": 4.0969101895,
				"y": -1.172871445,
				"z": 2.5439636155,
				"element": "C" 
			},
			{
				"x": 2.7741536637,
				"y": -1.2707549286,
				"z": 2.1226609179,
				"element": "C" 
			},
			{
				"x": -1.191206452,
				"y": 2.1373666684,
				"z": 0.774000395,
				"element": "N" 
			},
			{
				"x": -1.9927679728,
				"y": 2.4689372198,
				"z": -0.2845323247,
				"element": "C" 
			},
			{
				"x": -3.0846766696,
				"y": 2.9983637897,
				"z": -0.2825705583,
				"element": "O" 
			},
			{
				"x": -1.268946142,
				"y": 2.0678533542,
				"z": -1.4317942353,
				"element": "N" 
			},
			{
				"x": -0.0617165334,
				"y": 1.4764990685,
				"z": -1.1386996694,
				"element": "C" 
			},
			{
				"x": 0.7663917571,
				"y": 1.0800677456,
				"z": -1.9367931621,
				"element": "O" 
			},
			{
				"x": 2.1860252627,
				"y": 1.7303825329,
				"z": 0.4689164908,
				"element": "H" 
			},
			{
				"x": 1.349891295,
				"y": 2.1309685964,
				"z": 1.9765960751,
				"element": "H" 
			},
			{
				"x": 1.224925696,
				"y": 3.2226963894,
				"z": 0.5820564318,
				"element": "H" 
			},
			{
				"x": -1.0604324255,
				"y": -0.4066438132,
				"z": 0.6835609449,
				"element": "H" 
			},
			{
				"x": 0.0266704896,
				"y": -0.0162619978,
				"z": 2.00837649,
				"element": "H" 
			},
			{
				"x": 0.9133083463,
				"y": -1.0731797203,
				"z": -0.7354769361,
				"element": "H" 
			},
			{
				"x": 0.5747572814,
				"y": -2.0703015629,
				"z": 0.6675402212,
				"element": "H" 
			},
			{
				"x": 3.1278328153,
				"y": -0.3014127791,
				"z": -1.1035694286,
				"element": "H" 
			},
			{
				"x": 5.4921702888,
				"y": -0.1380399789,
				"z": -0.3858797768,
				"element": "H" 
			},
			{
				"x": 6.9453925629,
				"y": -0.4007756694,
				"z": 1.3803649596,
				"element": "H" 
			},
			{
				"x": 4.386102443,
				"y": -1.4172042015,
				"z": 3.5609494083,
				"element": "H" 
			},
			{
				"x": 2.0207465907,
				"y": -1.6050345674,
				"z": 2.8329672477,
				"element": "H" 
			},
			{
				"x": -1.5414941802,
				"y": 2.2109857925,
				"z": 1.7165593869,
				"element": "H" 
			},
			{
				"x": -1.6025903475,
				"y": 2.2461436384,
				"z": -2.3682143632,
				"element": "H" 
			}
		],
		 "valence_orbital": [ 
			{
				"type": "occ",
				"energy": -0.28754,
				"method": "rhf"
			},
			{
				"type": "occ",
				"energy": -0.26625,
				"method": "rhf"
			},
			{
				"type": "occ",
				"energy": -0.26175,
				"method": "rhf"
			},
			{
				"type": "occ",
				"energy": -0.25174,
				"method": "rhf"
			},
			{
				"type": "occ",
				"energy": -0.21675,
				"method": "rhf"
			},
			{
				"type": "unocc",
				"energy": -0.0103,
				"method": "rhf"
			},
			{
				"type": "unocc",
				"energy": -0.00459,
				"method": "rhf"
			},
			{
				"type": "unocc",
				"energy": 0.01046,
				"method": "rhf"
			},
			{
				"type": "unocc",
				"energy": 0.06017,
				"method": "rhf"
			},
			{
				"type": "unocc",
				"energy": 0.07017,
				"method": "rhf"
			}
		],
		"cosmo_sigma_profile": { 
			"-0.025": 0.0,
			"-0.024": 0.0,
			"-0.023": 0.0,
			"-0.022": 0.0,
			"-0.021": 0.0,
			"-0.02": 0.0,
			"-0.019": 0.0,
			"-0.018": 0.0877362649434,
			"-0.017": 1.18148955657,
			"-0.016": 2.60717136486,
			"-0.015": 2.6697503875,
			"-0.014": 3.61154921804,
			"-0.013": 2.94908744651,
			"-0.012": 2.89038396345,
			"-0.011": 2.17864511357,
			"-0.01": 2.56925024006,
			"-0.009": 3.4171977702,
			"-0.008": 3.43490387788,
			"-0.007": 2.93928207686,
			"-0.006": 6.56763274617,
			"-0.005": 14.2374290413,
			"-0.004": 20.9774383078,
			"-0.003": 21.3593670448,
			"-0.002": 21.0235106512,
			"-0.001": 22.1254156332,
			"0.0": 18.2935455475,
			"0.001": 12.7447645362,
			"0.002": 11.4201613436,
			"0.003": 13.0281832483,
			"0.004": 13.9561505815,
			"0.005": 13.4433220558,
			"0.006": 9.46070340785,
			"0.007": 4.76513312543,
			"0.008": 4.0142330756,
			"0.009": 4.53622980782,
			"0.01": 3.77474017401,
			"0.011": 6.41906787516,
			"0.012": 7.23588980344,
			"0.013": 7.74774389633,
			"0.014": 1.42802217362,
			"0.015": 0.0,
			"0.016": 0.0,
			"0.017": 0.0,
			"0.018": 0.0,
			"0.019": 0.0,
			"0.02": 0.0,
			"0.021": 0.0,
			"0.022": 0.0,
			"0.023": 0.0,
			"0.024": 0.0,
			"0.025": 0.0
		}
	}
}
