{
	 "smiles": "CC1=C(C)C(C)=C(C(=O)CC2=CC=CC=C2)C(C)=C1C", 
	 "Tm": 408.15, 
	 "num_atms": 42, 
	 "gaussian": { 
		 "optdone": 1, 
		 "sigma_profile": "yes", 
		 "theory": "DFT", 
		 "functional": "B3LYP", 
		 "basiset": "6-31G**", 
		 "properties": { 
			 "R2extent": 6678.5158, 
			 "electric_dipole_moment_norm": 2.874194555, 
			 "electric_quadrupole_moment_norm": 6.61480244149, 
			 "total_energy": -812.525186874, 
			 "HOMO_LUMO_gap": 0.19121, 
			 "cosmo_polarized_energy": -9.5, 
			 "cosmo_cavitation_energy": 42.42, 
			 "cosmo_dispersion_energy": -28.46, 
			 "cosmo_repulsion_energy": 2.17, 
			 "cosmo_total_nonelectrostatic_energy": 16.13, 
			 "SMD_solvation_energy": 7.09 
		},
		"coords": [
			{
				"x": -2.0296420781,
				"y": -3.9211432891,
				"z": -1.6197151691,
				"element": "C" 
			},
			{
				"x": -1.3796515518,
				"y": -2.6513975088,
				"z": -1.1059716903,
				"element": "C" 
			},
			{
				"x": -0.0086621455,
				"y": -2.4297559838,
				"z": -1.3421094577,
				"element": "C" 
			},
			{
				"x": 0.7799171198,
				"y": -3.4359655402,
				"z": -2.1572848787,
				"element": "C" 
			},
			{
				"x": 0.6253472359,
				"y": -1.2845316773,
				"z": -0.8202760966,
				"element": "C" 
			},
			{
				"x": 2.1092828183,
				"y": -1.0696558226,
				"z": -1.04615205,
				"element": "C" 
			},
			{
				"x": -0.1478379259,
				"y": -0.3497824661,
				"z": -0.1049689494,
				"element": "C" 
			},
			{
				"x": 0.4971415047,
				"y": 0.9093838578,
				"z": 0.4283049304,
				"element": "C" 
			},
			{
				"x": 1.322244464,
				"y": 0.8954509543,
				"z": 1.3247722658,
				"element": "O" 
			},
			{
				"x": 0.132474817,
				"y": 2.2352298092,
				"z": -0.2626439348,
				"element": "C" 
			},
			{
				"x": 1.113763689,
				"y": 2.51871706,
				"z": -1.3878643391,
				"element": "C" 
			},
			{
				"x": 0.7424183637,
				"y": 2.3551564891,
				"z": -2.7279700002,
				"element": "C" 
			},
			{
				"x": 1.656541099,
				"y": 2.599482492,
				"z": -3.7551290222,
				"element": "C" 
			},
			{
				"x": 2.9565035791,
				"y": 3.0075198487,
				"z": -3.4535583791,
				"element": "C" 
			},
			{
				"x": 3.3376723236,
				"y": 3.1677355818,
				"z": -2.1189030656,
				"element": "C" 
			},
			{
				"x": 2.4242907243,
				"y": 2.9229776393,
				"z": -1.094103705,
				"element": "C" 
			},
			{
				"x": -1.521978342,
				"y": -0.5546911564,
				"z": 0.1237720216,
				"element": "C" 
			},
			{
				"x": -2.3130605354,
				"y": 0.4268712668,
				"z": 0.9708165696,
				"element": "C" 
			},
			{
				"x": -2.1430705814,
				"y": -1.7073777719,
				"z": -0.390539617,
				"element": "C" 
			},
			{
				"x": -3.6269139235,
				"y": -1.9381052142,
				"z": -0.1780095658,
				"element": "C" 
			},
			{
				"x": -2.9073395051,
				"y": -4.197011572,
				"z": -1.0331994066,
				"element": "H" 
			},
			{
				"x": -1.3400797191,
				"y": -4.7677556451,
				"z": -1.5844145042,
				"element": "H" 
			},
			{
				"x": -2.3571739625,
				"y": -3.8191839203,
				"z": -2.6637658722,
				"element": "H" 
			},
			{
				"x": 1.7078332611,
				"y": -3.0136631579,
				"z": -2.5430170368,
				"element": "H" 
			},
			{
				"x": 0.2055372569,
				"y": -3.7944274962,
				"z": -3.0163341387,
				"element": "H" 
			},
			{
				"x": 1.0500191208,
				"y": -4.3193689686,
				"z": -1.5626997236,
				"element": "H" 
			},
			{
				"x": 2.4930579707,
				"y": -0.2246072609,
				"z": -0.4784481018,
				"element": "H" 
			},
			{
				"x": 2.683597721,
				"y": -1.9505362128,
				"z": -0.7409317217,
				"element": "H" 
			},
			{
				"x": 2.331770029,
				"y": -0.8881506423,
				"z": -2.1044843597,
				"element": "H" 
			},
			{
				"x": -0.8844491557,
				"y": 2.1971542502,
				"z": -0.6605243077,
				"element": "H" 
			},
			{
				"x": 0.1891390878,
				"y": 3.0238490979,
				"z": 0.4945778543,
				"element": "H" 
			},
			{
				"x": -0.2692454338,
				"y": 2.0385689413,
				"z": -2.968559901,
				"element": "H" 
			},
			{
				"x": 1.3507551413,
				"y": 2.4729514033,
				"z": -4.7899901673,
				"element": "H" 
			},
			{
				"x": 3.6673935025,
				"y": 3.2011476937,
				"z": -4.2517351553,
				"element": "H" 
			},
			{
				"x": 4.347925324,
				"y": 3.484814616,
				"z": -1.87557718,
				"element": "H" 
			},
			{
				"x": 2.7241561815,
				"y": 3.0347321335,
				"z": -0.0559311851,
				"element": "H" 
			},
			{
				"x": -2.8798957092,
				"y": -0.0931507951,
				"z": 1.7493624138,
				"element": "H" 
			},
			{
				"x": -3.0363457378,
				"y": 1.0022871077,
				"z": 0.3790384698,
				"element": "H" 
			},
			{
				"x": -1.6666466953,
				"y": 1.1403522319,
				"z": 1.4854030274,
				"element": "H" 
			},
			{
				"x": -4.1095143416,
				"y": -2.3014088377,
				"z": -1.089921594,
				"element": "H" 
			},
			{
				"x": -4.1461506389,
				"y": -1.0252219735,
				"z": 0.1151802013,
				"element": "H" 
			},
			{
				"x": -3.8187243524,
				"y": -2.6843895619,
				"z": 0.6047065222,
				"element": "H" 
			}
		],
		 "valence_orbital": [ 
			{
				"type": "occ",
				"energy": -0.25667,
				"method": "rhf"
			},
			{
				"type": "occ",
				"energy": -0.24854,
				"method": "rhf"
			},
			{
				"type": "occ",
				"energy": -0.23035,
				"method": "rhf"
			},
			{
				"type": "occ",
				"energy": -0.22538,
				"method": "rhf"
			},
			{
				"type": "occ",
				"energy": -0.22149,
				"method": "rhf"
			},
			{
				"type": "unocc",
				"energy": -0.03028,
				"method": "rhf"
			},
			{
				"type": "unocc",
				"energy": -0.00163,
				"method": "rhf"
			},
			{
				"type": "unocc",
				"energy": 0.0003,
				"method": "rhf"
			},
			{
				"type": "unocc",
				"energy": 0.00544,
				"method": "rhf"
			},
			{
				"type": "unocc",
				"energy": 0.02208,
				"method": "rhf"
			}
		],
		"cosmo_sigma_profile": { 
			"-0.025": 0.0,
			"-0.024": 0.0,
			"-0.023": 0.0,
			"-0.022": 0.0,
			"-0.021": 0.0,
			"-0.02": 0.0,
			"-0.019": 0.0,
			"-0.018": 0.0,
			"-0.017": 0.0,
			"-0.016": 0.0,
			"-0.015": 0.0,
			"-0.014": 0.0,
			"-0.013": 0.0,
			"-0.012": 0.0,
			"-0.011": 0.0,
			"-0.01": 0.0,
			"-0.009": 0.0,
			"-0.008": 0.0,
			"-0.007": 0.0,
			"-0.006": 4.35673759322,
			"-0.005": 14.9449658737,
			"-0.004": 31.048644369,
			"-0.003": 48.1778093819,
			"-0.002": 38.9991986425,
			"-0.001": 37.0353911925,
			"0.0": 36.6988785048,
			"0.001": 29.0337206038,
			"0.002": 19.4768390889,
			"0.003": 16.1657114211,
			"0.004": 15.8574626085,
			"0.005": 14.3990353869,
			"0.006": 11.8189377972,
			"0.007": 2.7275415928,
			"0.008": 1.54657887238,
			"0.009": 1.77963583501,
			"0.01": 2.12196924636,
			"0.011": 2.86461339889,
			"0.012": 3.84298106521,
			"0.013": 1.28786791508,
			"0.014": 0.0250890953437,
			"0.015": 0.0,
			"0.016": 0.0,
			"0.017": 0.0,
			"0.018": 0.0,
			"0.019": 0.0,
			"0.02": 0.0,
			"0.021": 0.0,
			"0.022": 0.0,
			"0.023": 0.0,
			"0.024": 0.0,
			"0.025": 0.0
		}
	}
}
