{
	 "smiles": "NC1=CC(Cl)=C(C=C1)C1=CC=C(N)C=C1Cl", 
	 "Tm": 438.15, 
	 "num_atms": 26, 
	 "gaussian": { 
		 "optdone": 1, 
		 "sigma_profile": "yes", 
		 "theory": "DFT", 
		 "functional": "B3LYP", 
		 "basiset": "6-31G**", 
		 "properties": { 
			 "R2extent": 5610.6804, 
			 "electric_dipole_moment_norm": 3.85240616109, 
			 "electric_quadrupole_moment_norm": 26.6435261957, 
			 "total_energy": -1493.2016244, 
			 "HOMO_LUMO_gap": 0.19239, 
			 "cosmo_polarized_energy": -17.26, 
			 "cosmo_cavitation_energy": 33.76, 
			 "cosmo_dispersion_energy": -24.05, 
			 "cosmo_repulsion_energy": 1.9, 
			 "cosmo_total_nonelectrostatic_energy": 11.62, 
			 "SMD_solvation_energy": 5.0 
		},
		"coords": [
			{
				"x": 2.7410817892,
				"y": 2.7273495703,
				"z": 1.655880245,
				"element": "N" 
			},
			{
				"x": 1.6383013492,
				"y": 1.9255946929,
				"z": 1.369445685,
				"element": "C" 
			},
			{
				"x": 1.1842263765,
				"y": 0.9780273145,
				"z": 2.3005583481,
				"element": "C" 
			},
			{
				"x": 0.1186314073,
				"y": 0.1408712498,
				"z": 1.984028091,
				"element": "C" 
			},
			{
				"x": -0.4123544341,
				"y": -0.9939047344,
				"z": 3.2205674374,
				"element": "Cl" 
			},
			{
				"x": -0.5408085517,
				"y": 0.1941643911,
				"z": 0.7459383842,
				"element": "C" 
			},
			{
				"x": -0.0736190695,
				"y": 1.1572128208,
				"z": -0.1631525984,
				"element": "C" 
			},
			{
				"x": 0.9868467751,
				"y": 2.0068658434,
				"z": 0.1272939354,
				"element": "C" 
			},
			{
				"x": -1.7030297374,
				"y": -0.6672283826,
				"z": 0.3894396383,
				"element": "C" 
			},
			{
				"x": -3.0021348967,
				"y": -0.1338819678,
				"z": 0.3951947724,
				"element": "C" 
			},
			{
				"x": -4.118935496,
				"y": -0.8823066596,
				"z": 0.0438226566,
				"element": "C" 
			},
			{
				"x": -3.9775576769,
				"y": -2.2272275149,
				"z": -0.3371690915,
				"element": "C" 
			},
			{
				"x": -5.0908239489,
				"y": -3.0102424864,
				"z": -0.6346122228,
				"element": "N" 
			},
			{
				"x": -2.6881641602,
				"y": -2.7821243852,
				"z": -0.3613592949,
				"element": "C" 
			},
			{
				"x": -1.5868895089,
				"y": -2.0090242784,
				"z": -0.006362646,
				"element": "C" 
			},
			{
				"x": -0.0021077763,
				"y": -2.7696791797,
				"z": -0.0988353825,
				"element": "Cl" 
			},
			{
				"x": 2.9405340174,
				"y": 2.8615256031,
				"z": 2.6371927459,
				"element": "H" 
			},
			{
				"x": 2.7982566641,
				"y": 3.5895490417,
				"z": 1.1324224759,
				"element": "H" 
			},
			{
				"x": 1.660411803,
				"y": 0.8929607688,
				"z": 3.271924796,
				"element": "H" 
			},
			{
				"x": -0.5625638652,
				"y": 1.2292858691,
				"z": -1.1303131099,
				"element": "H" 
			},
			{
				"x": 1.320970586,
				"y": 2.7312710993,
				"z": -0.6107493688,
				"element": "H" 
			},
			{
				"x": -3.129558574,
				"y": 0.9028335372,
				"z": 0.692920277,
				"element": "H" 
			},
			{
				"x": -5.1069739189,
				"y": -0.4305251359,
				"z": 0.0718517704,
				"element": "H" 
			},
			{
				"x": -4.9122012328,
				"y": -3.8249130847,
				"z": -1.2048397525,
				"element": "H" 
			},
			{
				"x": -5.9097011209,
				"y": -2.5025287215,
				"z": -0.9384645969,
				"element": "H" 
			},
			{
				"x": -2.5423367995,
				"y": -3.8159252708,
				"z": -0.6572231941,
				"element": "H" 
			}
		],
		 "valence_orbital": [ 
			{
				"type": "occ",
				"energy": -0.29377,
				"method": "rhf"
			},
			{
				"type": "occ",
				"energy": -0.23974,
				"method": "rhf"
			},
			{
				"type": "occ",
				"energy": -0.23828,
				"method": "rhf"
			},
			{
				"type": "occ",
				"energy": -0.21161,
				"method": "rhf"
			},
			{
				"type": "occ",
				"energy": -0.20028,
				"method": "rhf"
			},
			{
				"type": "unocc",
				"energy": -0.00789,
				"method": "rhf"
			},
			{
				"type": "unocc",
				"energy": 0.00149,
				"method": "rhf"
			},
			{
				"type": "unocc",
				"energy": 0.00436,
				"method": "rhf"
			},
			{
				"type": "unocc",
				"energy": 0.01789,
				"method": "rhf"
			},
			{
				"type": "unocc",
				"energy": 0.03825,
				"method": "rhf"
			}
		],
		"cosmo_sigma_profile": { 
			"-0.025": 0.0,
			"-0.024": 0.0,
			"-0.023": 0.0,
			"-0.022": 0.0,
			"-0.021": 0.0,
			"-0.02": 0.0,
			"-0.019": 0.0,
			"-0.018": 0.0,
			"-0.017": 0.0,
			"-0.016": 0.0,
			"-0.015": 0.0,
			"-0.014": 0.0,
			"-0.013": 2.41572240268,
			"-0.012": 6.51490269625,
			"-0.011": 4.81243330229,
			"-0.01": 6.98305628638,
			"-0.009": 7.13993103108,
			"-0.008": 5.88200478334,
			"-0.007": 8.2353707538,
			"-0.006": 10.4442924048,
			"-0.005": 11.2655069108,
			"-0.004": 11.7383068319,
			"-0.003": 9.38837377843,
			"-0.002": 10.8866554903,
			"-0.001": 14.2624445803,
			"0.0": 13.4324122232,
			"0.001": 15.6949549128,
			"0.002": 18.1379120442,
			"0.003": 23.5796442157,
			"0.004": 27.8671277852,
			"0.005": 38.1966672721,
			"0.006": 14.4067123519,
			"0.007": 2.37369272497,
			"0.008": 2.07434860469,
			"0.009": 1.66903153764,
			"0.01": 1.54443485881,
			"0.011": 1.13726418652,
			"0.012": 1.10480107772,
			"0.013": 1.37736558872,
			"0.014": 0.604604496528,
			"0.015": 0.0,
			"0.016": 0.0,
			"0.017": 0.0,
			"0.018": 0.0,
			"0.019": 0.0,
			"0.02": 0.0,
			"0.021": 0.0,
			"0.022": 0.0,
			"0.023": 0.0,
			"0.024": 0.0,
			"0.025": 0.0
		}
	}
}
