{
	 "smiles": "O=C1NN=NN1C1=CC=CS1", 
	 "Tm": 425.15, 
	 "num_atms": 15, 
	 "gaussian": { 
		 "optdone": 1, 
		 "sigma_profile": "yes", 
		 "theory": "DFT", 
		 "functional": "B3LYP", 
		 "basiset": "6-31G**", 
		 "properties": { 
			 "R2extent": 2152.3651, 
			 "electric_dipole_moment_norm": 0.354682463621, 
			 "electric_quadrupole_moment_norm": 13.8259646123, 
			 "total_energy": -885.290096033, 
			 "HOMO_LUMO_gap": 0.17407, 
			 "cosmo_polarized_energy": -11.79, 
			 "cosmo_cavitation_energy": 21.75, 
			 "cosmo_dispersion_energy": -17.14, 
			 "cosmo_repulsion_energy": 1.32, 
			 "cosmo_total_nonelectrostatic_energy": 5.93, 
			 "SMD_solvation_energy": 4.14 
		},
		"coords": [
			{
				"x": 2.4513412606,
				"y": 0.5132849205,
				"z": 0.7336041956,
				"element": "O" 
			},
			{
				"x": 1.5232981468,
				"y": 1.0524982951,
				"z": 1.3054529947,
				"element": "C" 
			},
			{
				"x": 1.5029046365,
				"y": 2.1617460129,
				"z": 2.1350810121,
				"element": "N" 
			},
			{
				"x": 0.257364351,
				"y": 2.4593946236,
				"z": 2.5855296416,
				"element": "N" 
			},
			{
				"x": -0.5492030866,
				"y": 1.6048236803,
				"z": 2.0973872145,
				"element": "N" 
			},
			{
				"x": 0.15977989,
				"y": 0.7317291502,
				"z": 1.3172149731,
				"element": "N" 
			},
			{
				"x": -0.46764948,
				"y": -0.3245620868,
				"z": 0.646277912,
				"element": "C" 
			},
			{
				"x": 0.1286190841,
				"y": -1.2591815444,
				"z": -0.1585333169,
				"element": "C" 
			},
			{
				"x": -0.8256137699,
				"y": -2.188489658,
				"z": -0.6750979776,
				"element": "C" 
			},
			{
				"x": -2.1012000425,
				"y": -1.9402675756,
				"z": -0.2565090478,
				"element": "C" 
			},
			{
				"x": -2.1916883795,
				"y": -0.5539084408,
				"z": 0.7917670929,
				"element": "S" 
			},
			{
				"x": 2.2955060165,
				"y": 2.7225551597,
				"z": 2.4070297264,
				"element": "H" 
			},
			{
				"x": 1.1911647517,
				"y": -1.2672763833,
				"z": -0.3593792271,
				"element": "H" 
			},
			{
				"x": -0.5628057693,
				"y": -3.0083381521,
				"z": -1.333358847,
				"element": "H" 
			},
			{
				"x": -3.0062176092,
				"y": -2.4817080014,
				"z": -0.4934663467,
				"element": "H" 
			}
		],
		 "valence_orbital": [ 
			{
				"type": "occ",
				"energy": -0.3501,
				"method": "rhf"
			},
			{
				"type": "occ",
				"energy": -0.28256,
				"method": "rhf"
			},
			{
				"type": "occ",
				"energy": -0.2814,
				"method": "rhf"
			},
			{
				"type": "occ",
				"energy": -0.2621,
				"method": "rhf"
			},
			{
				"type": "occ",
				"energy": -0.22512,
				"method": "rhf"
			},
			{
				"type": "unocc",
				"energy": -0.05105,
				"method": "rhf"
			},
			{
				"type": "unocc",
				"energy": -0.00827,
				"method": "rhf"
			},
			{
				"type": "unocc",
				"energy": 0.01666,
				"method": "rhf"
			},
			{
				"type": "unocc",
				"energy": 0.03484,
				"method": "rhf"
			},
			{
				"type": "unocc",
				"energy": 0.06257,
				"method": "rhf"
			}
		],
		"cosmo_sigma_profile": { 
			"-0.025": 0.0,
			"-0.024": 0.0,
			"-0.023": 0.0,
			"-0.022": 0.0,
			"-0.021": 0.0,
			"-0.02": 0.00231048101324,
			"-0.019": 1.36264804404,
			"-0.018": 1.61159784316,
			"-0.017": 0.927749066042,
			"-0.016": 0.950507092027,
			"-0.015": 1.06175726139,
			"-0.014": 1.42886702194,
			"-0.013": 0.53140590869,
			"-0.012": 0.30959442368,
			"-0.011": 0.811971576158,
			"-0.01": 1.72832514938,
			"-0.009": 1.83392484629,
			"-0.008": 3.15566804922,
			"-0.007": 5.66099934328,
			"-0.006": 7.40876973633,
			"-0.005": 8.57264761003,
			"-0.004": 10.8858402836,
			"-0.003": 10.105417356,
			"-0.002": 9.09750297882,
			"-0.001": 8.11359136459,
			"0.0": 9.93010210884,
			"0.001": 12.1641786716,
			"0.002": 15.9788972404,
			"0.003": 16.9069859478,
			"0.004": 11.2449782781,
			"0.005": 9.06684553724,
			"0.006": 5.44973570203,
			"0.007": 4.25104654128,
			"0.008": 3.63022550628,
			"0.009": 3.33685716183,
			"0.01": 2.92101154256,
			"0.011": 3.79911475874,
			"0.012": 3.67650753735,
			"0.013": 0.322304610339,
			"0.014": 0.0,
			"0.015": 0.0,
			"0.016": 0.0,
			"0.017": 0.0,
			"0.018": 0.0,
			"0.019": 0.0,
			"0.02": 0.0,
			"0.021": 0.0,
			"0.022": 0.0,
			"0.023": 0.0,
			"0.024": 0.0,
			"0.025": 0.0
		}
	}
}
