{
	 "smiles": "COC(=O)C1=CC=C(OC)C(=C1)S(Cl)(=O)=O", 
	 "Tm": 400.15, 
	 "num_atms": 25, 
	 "gaussian": { 
		 "optdone": 1, 
		 "sigma_profile": "yes", 
		 "theory": "DFT", 
		 "functional": "B3LYP", 
		 "basiset": "6-31G**", 
		 "properties": { 
			 "R2extent": 5656.2802, 
			 "electric_dipole_moment_norm": 7.59730091743, 
			 "electric_quadrupole_moment_norm": 12.4711721474, 
			 "total_energy": -1582.80175476, 
			 "HOMO_LUMO_gap": 0.18034, 
			 "cosmo_polarized_energy": -15.83, 
			 "cosmo_cavitation_energy": 33.37, 
			 "cosmo_dispersion_energy": -24.39, 
			 "cosmo_repulsion_energy": 1.86, 
			 "cosmo_total_nonelectrostatic_energy": 10.84, 
			 "SMD_solvation_energy": 6.94 
		},
		"coords": [
			{
				"x": -1.6555502908,
				"y": 0.903463002,
				"z": -5.1900235826,
				"element": "C" 
			},
			{
				"x": -1.3295458262,
				"y": 0.3749889118,
				"z": -3.8934061691,
				"element": "O" 
			},
			{
				"x": -0.7298671536,
				"y": 1.2462915045,
				"z": -3.0522296143,
				"element": "C" 
			},
			{
				"x": -0.475068665,
				"y": 2.3967712448,
				"z": -3.3484086079,
				"element": "O" 
			},
			{
				"x": -0.421752284,
				"y": 0.6332941664,
				"z": -1.7313522638,
				"element": "C" 
			},
			{
				"x": -0.726576385,
				"y": -0.6946678424,
				"z": -1.4176100973,
				"element": "C" 
			},
			{
				"x": -0.4175895771,
				"y": -1.2213326705,
				"z": -0.1666364107,
				"element": "C" 
			},
			{
				"x": 0.2067894588,
				"y": -0.4219066143,
				"z": 0.7997041969,
				"element": "C" 
			},
			{
				"x": 0.5471419498,
				"y": -0.8317672199,
				"z": 2.0346900487,
				"element": "O" 
			},
			{
				"x": 0.2699347433,
				"y": -2.1730829105,
				"z": 2.4320490458,
				"element": "C" 
			},
			{
				"x": 0.5120941404,
				"y": 0.9225300597,
				"z": 0.4737819628,
				"element": "C" 
			},
			{
				"x": 0.2029650424,
				"y": 1.4423416369,
				"z": -0.7720723728,
				"element": "C" 
			},
			{
				"x": 1.3162793822,
				"y": 1.8708387898,
				"z": 1.7846116497,
				"element": "S" 
			},
			{
				"x": 1.5763222709,
				"y": 3.7870785593,
				"z": 0.8694473034,
				"element": "Cl" 
			},
			{
				"x": 2.6586507773,
				"y": 1.3523923125,
				"z": 2.0074538556,
				"element": "O" 
			},
			{
				"x": 0.379898894,
				"y": 2.0786256927,
				"z": 2.8802265007,
				"element": "O" 
			},
			{
				"x": -2.1246841193,
				"y": 0.0825511884,
				"z": -5.7318232214,
				"element": "H" 
			},
			{
				"x": -2.3434485343,
				"y": 1.7473892525,
				"z": -5.098113894,
				"element": "H" 
			},
			{
				"x": -0.7523792461,
				"y": 1.2389461447,
				"z": -5.7053748504,
				"element": "H" 
			},
			{
				"x": -1.2096014345,
				"y": -1.3196182522,
				"z": -2.159727135,
				"element": "H" 
			},
			{
				"x": -0.6615563437,
				"y": -2.2522041328,
				"z": 0.0578427771,
				"element": "H" 
			},
			{
				"x": 0.7995625171,
				"y": -2.8904755284,
				"z": 1.7954243653,
				"element": "H" 
			},
			{
				"x": -0.8062870062,
				"y": -2.3770938263,
				"z": 2.4078833257,
				"element": "H" 
			},
			{
				"x": 0.6343249228,
				"y": -2.2541980164,
				"z": 3.4554599119,
				"element": "H" 
			},
			{
				"x": 0.4325427667,
				"y": 2.4682445477,
				"z": -1.0298967242,
				"element": "H" 
			}
		],
		 "valence_orbital": [ 
			{
				"type": "occ",
				"energy": -0.31378,
				"method": "rhf"
			},
			{
				"type": "occ",
				"energy": -0.30734,
				"method": "rhf"
			},
			{
				"type": "occ",
				"energy": -0.29041,
				"method": "rhf"
			},
			{
				"type": "occ",
				"energy": -0.28692,
				"method": "rhf"
			},
			{
				"type": "occ",
				"energy": -0.25897,
				"method": "rhf"
			},
			{
				"type": "unocc",
				"energy": -0.07863,
				"method": "rhf"
			},
			{
				"type": "unocc",
				"energy": -0.0628,
				"method": "rhf"
			},
			{
				"type": "unocc",
				"energy": -0.04756,
				"method": "rhf"
			},
			{
				"type": "unocc",
				"energy": 0.03365,
				"method": "rhf"
			},
			{
				"type": "unocc",
				"energy": 0.0437,
				"method": "rhf"
			}
		],
		"cosmo_sigma_profile": { 
			"-0.025": 0.0,
			"-0.024": 0.0,
			"-0.023": 0.0,
			"-0.022": 0.0,
			"-0.021": 0.0,
			"-0.02": 0.0,
			"-0.019": 0.0,
			"-0.018": 0.0,
			"-0.017": 0.0,
			"-0.016": 0.0,
			"-0.015": 0.0,
			"-0.014": 0.0,
			"-0.013": 0.0,
			"-0.012": 0.0,
			"-0.011": 0.0,
			"-0.01": 0.000711416531147,
			"-0.009": 1.27453382431,
			"-0.008": 5.10880263243,
			"-0.007": 12.9182519157,
			"-0.006": 17.4701690428,
			"-0.005": 17.3088565225,
			"-0.004": 22.6330212938,
			"-0.003": 21.0676708095,
			"-0.002": 17.9923521272,
			"-0.001": 24.2491815546,
			"0.0": 22.0342679254,
			"0.001": 15.7746452322,
			"0.002": 12.5187744824,
			"0.003": 15.6034841311,
			"0.004": 9.27540510634,
			"0.005": 8.49682917335,
			"0.006": 5.84781341258,
			"0.007": 7.88344149154,
			"0.008": 16.9666680798,
			"0.009": 6.69930889055,
			"0.01": 1.93308893287,
			"0.011": 3.66580720259,
			"0.012": 2.82927276182,
			"0.013": 0.0184817121651,
			"0.014": 0.0,
			"0.015": 0.0,
			"0.016": 0.0,
			"0.017": 0.0,
			"0.018": 0.0,
			"0.019": 0.0,
			"0.02": 0.0,
			"0.021": 0.0,
			"0.022": 0.0,
			"0.023": 0.0,
			"0.024": 0.0,
			"0.025": 0.0
		}
	}
}
