{
	 "smiles": "COC(=O)CC(C)=O", 
	 "Tm": 300.65, 
	 "num_atms": 16, 
	 "gaussian": { 
		 "optdone": 1, 
		 "sigma_profile": "yes", 
		 "theory": "DFT", 
		 "functional": "B3LYP", 
		 "basiset": "6-31G**", 
		 "properties": { 
			 "R2extent": 2029.9919, 
			 "electric_dipole_moment_norm": 3.67391041399, 
			 "electric_quadrupole_moment_norm": 17.3680987788, 
			 "total_energy": -421.02723286, 
			 "HOMO_LUMO_gap": 0.22654, 
			 "cosmo_polarized_energy": -11.01, 
			 "cosmo_cavitation_energy": 20.47, 
			 "cosmo_dispersion_energy": -14.9, 
			 "cosmo_repulsion_energy": 1.3, 
			 "cosmo_total_nonelectrostatic_energy": 6.86, 
			 "SMD_solvation_energy": 6.19 
		},
		"coords": [
			{
				"x": -2.006896468,
				"y": -0.5202975496,
				"z": 0.5052279653,
				"element": "C" 
			},
			{
				"x": -0.8681169112,
				"y": -1.0762798778,
				"z": -0.1779956644,
				"element": "O" 
			},
			{
				"x": 0.1231837536,
				"y": -1.5292593813,
				"z": 0.6247645215,
				"element": "C" 
			},
			{
				"x": 0.0895158409,
				"y": -1.471496612,
				"z": 1.831240005,
				"element": "O" 
			},
			{
				"x": 1.2738587389,
				"y": -2.0950855794,
				"z": -0.1952237747,
				"element": "C" 
			},
			{
				"x": 0.7993913984,
				"y": -3.1078799938,
				"z": -1.2525266983,
				"element": "C" 
			},
			{
				"x": 0.5511501855,
				"y": -2.5798465358,
				"z": -2.6490462479,
				"element": "C" 
			},
			{
				"x": 0.6419554843,
				"y": -4.2729297507,
				"z": -0.9516646128,
				"element": "O" 
			},
			{
				"x": -2.7062402779,
				"y": -0.2296824862,
				"z": -0.2782404192,
				"element": "H" 
			},
			{
				"x": -1.7105307677,
				"y": 0.3483467067,
				"z": 1.0980843337,
				"element": "H" 
			},
			{
				"x": -2.4561995616,
				"y": -1.264455019,
				"z": 1.1666567438,
				"element": "H" 
			},
			{
				"x": 1.9505349361,
				"y": -2.5939671646,
				"z": 0.4989267991,
				"element": "H" 
			},
			{
				"x": 1.7912424324,
				"y": -1.2542410918,
				"z": -0.6712558181,
				"element": "H" 
			},
			{
				"x": -0.13291001,
				"y": -1.7264774454,
				"z": -2.6100895588,
				"element": "H" 
			},
			{
				"x": 0.1383902262,
				"y": -3.3701093099,
				"z": -3.2773361263,
				"element": "H" 
			},
			{
				"x": 1.4930710002,
				"y": -2.2219389095,
				"z": -3.0831214476,
				"element": "H" 
			}
		],
		 "valence_orbital": [ 
			{
				"type": "occ",
				"energy": -0.36854,
				"method": "rhf"
			},
			{
				"type": "occ",
				"energy": -0.35365,
				"method": "rhf"
			},
			{
				"type": "occ",
				"energy": -0.31258,
				"method": "rhf"
			},
			{
				"type": "occ",
				"energy": -0.28436,
				"method": "rhf"
			},
			{
				"type": "occ",
				"energy": -0.25152,
				"method": "rhf"
			},
			{
				"type": "unocc",
				"energy": -0.02498,
				"method": "rhf"
			},
			{
				"type": "unocc",
				"energy": 0.00571,
				"method": "rhf"
			},
			{
				"type": "unocc",
				"energy": 0.08805,
				"method": "rhf"
			},
			{
				"type": "unocc",
				"energy": 0.11119,
				"method": "rhf"
			},
			{
				"type": "unocc",
				"energy": 0.11865,
				"method": "rhf"
			}
		],
		"cosmo_sigma_profile": { 
			"-0.025": 0.0,
			"-0.024": 0.0,
			"-0.023": 0.0,
			"-0.022": 0.0,
			"-0.021": 0.0,
			"-0.02": 0.0,
			"-0.019": 0.0,
			"-0.018": 0.0,
			"-0.017": 0.0,
			"-0.016": 0.0,
			"-0.015": 0.0,
			"-0.014": 0.0,
			"-0.013": 0.0,
			"-0.012": 0.0,
			"-0.011": 0.0,
			"-0.01": 0.0,
			"-0.009": 0.0236525337921,
			"-0.008": 3.40197009897,
			"-0.007": 7.54853377153,
			"-0.006": 11.7508774491,
			"-0.005": 15.0985344246,
			"-0.004": 17.9362970348,
			"-0.003": 16.4864558989,
			"-0.002": 12.5281227841,
			"-0.001": 12.0526469352,
			"0.0": 7.92647713903,
			"0.001": 6.26299240254,
			"0.002": 6.13329439234,
			"0.003": 4.38068974339,
			"0.004": 4.14819060539,
			"0.005": 3.561295038,
			"0.006": 2.37821051334,
			"0.007": 2.50851622458,
			"0.008": 3.03643594954,
			"0.009": 3.42288355924,
			"0.01": 5.19571909663,
			"0.011": 8.30714010075,
			"0.012": 6.30857535151,
			"0.013": 0.963066654746,
			"0.014": 0.0,
			"0.015": 0.0,
			"0.016": 0.0,
			"0.017": 0.0,
			"0.018": 0.0,
			"0.019": 0.0,
			"0.02": 0.0,
			"0.021": 0.0,
			"0.022": 0.0,
			"0.023": 0.0,
			"0.024": 0.0,
			"0.025": 0.0
		}
	}
}
