{
	 "smiles": "O=C(C1=CC=CS1)C1=CC=CC=C1", 
	 "Tm": 329.65, 
	 "num_atms": 21, 
	 "gaussian": { 
		 "optdone": 1, 
		 "sigma_profile": "yes", 
		 "theory": "DFT", 
		 "functional": "B3LYP", 
		 "basiset": "6-31G**", 
		 "properties": { 
			 "R2extent": 3677.486, 
			 "electric_dipole_moment_norm": 3.59845043734, 
			 "electric_quadrupole_moment_norm": 16.2212815976, 
			 "total_energy": -897.389454307, 
			 "HOMO_LUMO_gap": 0.17376, 
			 "cosmo_polarized_energy": -9.85, 
			 "cosmo_cavitation_energy": 26.99, 
			 "cosmo_dispersion_energy": -20.37, 
			 "cosmo_repulsion_energy": 1.55, 
			 "cosmo_total_nonelectrostatic_energy": 8.17, 
			 "SMD_solvation_energy": 5.05 
		},
		"coords": [
			{
				"x": -0.4368912834,
				"y": 1.8571473027,
				"z": -2.6161325399,
				"element": "O" 
			},
			{
				"x": -0.4266788545,
				"y": 0.9046570874,
				"z": -1.8393099461,
				"element": "C" 
			},
			{
				"x": -1.5089536949,
				"y": -0.097503857,
				"z": -1.8900482912,
				"element": "C" 
			},
			{
				"x": -1.9320687353,
				"y": -1.0344113452,
				"z": -0.9674560261,
				"element": "C" 
			},
			{
				"x": -3.085413691,
				"y": -1.7498618571,
				"z": -1.3865967656,
				"element": "C" 
			},
			{
				"x": -3.5284544614,
				"y": -1.3463318366,
				"z": -2.6218635512,
				"element": "C" 
			},
			{
				"x": -2.5644257449,
				"y": -0.0784688942,
				"z": -3.284472823,
				"element": "S" 
			},
			{
				"x": 0.6721908038,
				"y": 0.7683498637,
				"z": -0.8273338468,
				"element": "C" 
			},
			{
				"x": 1.1676163577,
				"y": -0.469817195,
				"z": -0.3909472209,
				"element": "C" 
			},
			{
				"x": 2.2298550129,
				"y": -0.5227696689,
				"z": 0.5126646084,
				"element": "C" 
			},
			{
				"x": 2.7990527356,
				"y": 0.6569177889,
				"z": 0.9946824716,
				"element": "C" 
			},
			{
				"x": 2.3179660583,
				"y": 1.8940913538,
				"z": 0.5551843082,
				"element": "C" 
			},
			{
				"x": 1.27061569,
				"y": 1.9491637377,
				"z": -0.3597033833,
				"element": "C" 
			},
			{
				"x": -1.4472186435,
				"y": -1.1818096518,
				"z": -0.0105915171,
				"element": "H" 
			},
			{
				"x": -3.5653528666,
				"y": -2.5241083521,
				"z": -0.7991526349,
				"element": "H" 
			},
			{
				"x": -4.3754170642,
				"y": -1.7276380749,
				"z": -3.1766737435,
				"element": "H" 
			},
			{
				"x": 0.7479753135,
				"y": -1.3897391584,
				"z": -0.7834044834,
				"element": "H" 
			},
			{
				"x": 2.6165364924,
				"y": -1.4854225588,
				"z": 0.8343441781,
				"element": "H" 
			},
			{
				"x": 3.6210778767,
				"y": 0.6135884105,
				"z": 1.7035250533,
				"element": "H" 
			},
			{
				"x": 2.7651047603,
				"y": 2.8133010014,
				"z": 0.9223293748,
				"element": "H" 
			},
			{
				"x": 0.8978839384,
				"y": 2.8986659038,
				"z": -0.7292432214,
				"element": "H" 
			}
		],
		 "valence_orbital": [ 
			{
				"type": "occ",
				"energy": -0.26343,
				"method": "rhf"
			},
			{
				"type": "occ",
				"energy": -0.26177,
				"method": "rhf"
			},
			{
				"type": "occ",
				"energy": -0.26061,
				"method": "rhf"
			},
			{
				"type": "occ",
				"energy": -0.25037,
				"method": "rhf"
			},
			{
				"type": "occ",
				"energy": -0.24357,
				"method": "rhf"
			},
			{
				"type": "unocc",
				"energy": -0.06981,
				"method": "rhf"
			},
			{
				"type": "unocc",
				"energy": -0.01766,
				"method": "rhf"
			},
			{
				"type": "unocc",
				"energy": -0.01001,
				"method": "rhf"
			},
			{
				"type": "unocc",
				"energy": 0.03147,
				"method": "rhf"
			},
			{
				"type": "unocc",
				"energy": 0.03566,
				"method": "rhf"
			}
		],
		"cosmo_sigma_profile": { 
			"-0.025": 0.0,
			"-0.024": 0.0,
			"-0.023": 0.0,
			"-0.022": 0.0,
			"-0.021": 0.0,
			"-0.02": 0.0,
			"-0.019": 0.0,
			"-0.018": 0.0,
			"-0.017": 0.0,
			"-0.016": 0.0,
			"-0.015": 0.0,
			"-0.014": 0.0,
			"-0.013": 0.0,
			"-0.012": 0.0,
			"-0.011": 0.0,
			"-0.01": 0.109587752903,
			"-0.009": 2.07478523152,
			"-0.008": 2.58833238042,
			"-0.007": 6.24368345843,
			"-0.006": 14.5365412918,
			"-0.005": 17.7831220051,
			"-0.004": 16.5050609996,
			"-0.003": 14.0106226767,
			"-0.002": 14.1460326651,
			"-0.001": 12.6664303139,
			"0.0": 14.9196321211,
			"0.001": 15.3354093497,
			"0.002": 23.1099303425,
			"0.003": 23.54419224,
			"0.004": 19.2304883869,
			"0.005": 4.83560721283,
			"0.006": 2.23563076513,
			"0.007": 1.97246186123,
			"0.008": 1.56485212297,
			"0.009": 2.19748186443,
			"0.01": 1.98558569302,
			"0.011": 2.93372397081,
			"0.012": 4.28427473422,
			"0.013": 0.991838158746,
			"0.014": 0.0,
			"0.015": 0.0,
			"0.016": 0.0,
			"0.017": 0.0,
			"0.018": 0.0,
			"0.019": 0.0,
			"0.02": 0.0,
			"0.021": 0.0,
			"0.022": 0.0,
			"0.023": 0.0,
			"0.024": 0.0,
			"0.025": 0.0
		}
	}
}
