{
	 "smiles": "OC(=O)C1=NC(=NC=C1)C1CCCC1", 
	 "Tm": 403.15, 
	 "num_atms": 26, 
	 "gaussian": { 
		 "optdone": 1, 
		 "sigma_profile": "yes", 
		 "theory": "DFT", 
		 "functional": "B3LYP", 
		 "basiset": "6-31G**", 
		 "properties": { 
			 "R2extent": 3509.6369, 
			 "electric_dipole_moment_norm": 3.7095143267, 
			 "electric_quadrupole_moment_norm": 18.8405851215, 
			 "total_energy": -648.269521482, 
			 "HOMO_LUMO_gap": 0.18734, 
			 "cosmo_polarized_energy": -10.44, 
			 "cosmo_cavitation_energy": 29.15, 
			 "cosmo_dispersion_energy": -21.28, 
			 "cosmo_repulsion_energy": 1.7, 
			 "cosmo_total_nonelectrostatic_energy": 9.56, 
			 "SMD_solvation_energy": 3.9 
		},
		"coords": [
			{
				"x": 2.6725491704,
				"y": 1.7190320839,
				"z": -2.2504875186,
				"element": "O" 
			},
			{
				"x": 3.3622258681,
				"y": 1.4937816517,
				"z": -1.1244200151,
				"element": "C" 
			},
			{
				"x": 4.538667923,
				"y": 1.7416887767,
				"z": -0.9963414368,
				"element": "O" 
			},
			{
				"x": 2.5263517578,
				"y": 0.8940964431,
				"z": -0.0141701583,
				"element": "C" 
			},
			{
				"x": 1.2382033713,
				"y": 0.6738571293,
				"z": -0.3012731699,
				"element": "N" 
			},
			{
				"x": 0.4664163296,
				"y": 0.1419789126,
				"z": 0.6632725997,
				"element": "C" 
			},
			{
				"x": 0.9076035081,
				"y": -0.1803692194,
				"z": 1.8907788327,
				"element": "N" 
			},
			{
				"x": 2.1991123487,
				"y": 0.0472478665,
				"z": 2.1580698487,
				"element": "C" 
			},
			{
				"x": 3.0784037896,
				"y": 0.5946542509,
				"z": 1.226508812,
				"element": "C" 
			},
			{
				"x": -0.9861794922,
				"y": -0.1063190997,
				"z": 0.3500774617,
				"element": "C" 
			},
			{
				"x": -1.7787373773,
				"y": 1.1561426719,
				"z": -0.0587500782,
				"element": "C" 
			},
			{
				"x": -3.0804012842,
				"y": 0.590530412,
				"z": -0.6598328894,
				"element": "C" 
			},
			{
				"x": -2.6928454817,
				"y": -0.7828978188,
				"z": -1.28332894,
				"element": "C" 
			},
			{
				"x": -1.2285944772,
				"y": -1.0524544836,
				"z": -0.8510713982,
				"element": "C" 
			},
			{
				"x": 1.7534470437,
				"y": 1.4274537254,
				"z": -2.0725538407,
				"element": "H" 
			},
			{
				"x": 2.5377286804,
				"y": -0.2205246495,
				"z": 3.1572848459,
				"element": "H" 
			},
			{
				"x": 4.1250673362,
				"y": 0.7839242789,
				"z": 1.4297651552,
				"element": "H" 
			},
			{
				"x": -1.4319235429,
				"y": -0.536316445,
				"z": 1.2530755892,
				"element": "H" 
			},
			{
				"x": -1.2063439662,
				"y": 1.7029146312,
				"z": -0.8172261973,
				"element": "H" 
			},
			{
				"x": -1.952024242,
				"y": 1.8377944558,
				"z": 0.7799250063,
				"element": "H" 
			},
			{
				"x": -3.8232626886,
				"y": 0.4478179437,
				"z": 0.1325343691,
				"element": "H" 
			},
			{
				"x": -3.5250254941,
				"y": 1.2738893308,
				"z": -1.3894408292,
				"element": "H" 
			},
			{
				"x": -3.3591745085,
				"y": -1.5715889111,
				"z": -0.9204088932,
				"element": "H" 
			},
			{
				"x": -2.782456354,
				"y": -0.7759136757,
				"z": -2.3737850126,
				"element": "H" 
			},
			{
				"x": -0.5350467205,
				"y": -0.7824632226,
				"z": -1.6548426279,
				"element": "H" 
			},
			{
				"x": -1.0424614973,
				"y": -2.1007570388,
				"z": -0.5985595148,
				"element": "H" 
			}
		],
		 "valence_orbital": [ 
			{
				"type": "occ",
				"energy": -0.32043,
				"method": "rhf"
			},
			{
				"type": "occ",
				"energy": -0.31877,
				"method": "rhf"
			},
			{
				"type": "occ",
				"energy": -0.28912,
				"method": "rhf"
			},
			{
				"type": "occ",
				"energy": -0.28909,
				"method": "rhf"
			},
			{
				"type": "occ",
				"energy": -0.26874,
				"method": "rhf"
			},
			{
				"type": "unocc",
				"energy": -0.0814,
				"method": "rhf"
			},
			{
				"type": "unocc",
				"energy": -0.04956,
				"method": "rhf"
			},
			{
				"type": "unocc",
				"energy": 0.03742,
				"method": "rhf"
			},
			{
				"type": "unocc",
				"energy": 0.07396,
				"method": "rhf"
			},
			{
				"type": "unocc",
				"energy": 0.08475,
				"method": "rhf"
			}
		],
		"cosmo_sigma_profile": { 
			"-0.025": 0.0,
			"-0.024": 0.0,
			"-0.023": 0.0,
			"-0.022": 0.0,
			"-0.021": 0.0,
			"-0.02": 0.0,
			"-0.019": 0.0,
			"-0.018": 0.0,
			"-0.017": 0.0,
			"-0.016": 0.0,
			"-0.015": 0.0,
			"-0.014": 0.0,
			"-0.013": 0.0237615567535,
			"-0.012": 0.487143264257,
			"-0.011": 0.768728968822,
			"-0.01": 0.710607167132,
			"-0.009": 1.52656710504,
			"-0.008": 4.70813199184,
			"-0.007": 5.35246287503,
			"-0.006": 7.03922971269,
			"-0.005": 6.58245468522,
			"-0.004": 7.53701143761,
			"-0.003": 22.2479814111,
			"-0.002": 36.4925317711,
			"-0.001": 39.4875694482,
			"0.0": 22.6279592763,
			"0.001": 21.4602534988,
			"0.002": 9.37966500913,
			"0.003": 3.19389530857,
			"0.004": 3.54713373869,
			"0.005": 3.22160113099,
			"0.006": 3.84772118445,
			"0.007": 3.92742237616,
			"0.008": 4.00938782139,
			"0.009": 5.49656799122,
			"0.01": 5.84317160182,
			"0.011": 5.65126103162,
			"0.012": 3.46316843463,
			"0.013": 0.93621352742,
			"0.014": 0.580660760404,
			"0.015": 0.22538252257,
			"0.016": 0.0,
			"0.017": 0.0,
			"0.018": 0.0,
			"0.019": 0.0,
			"0.02": 0.0,
			"0.021": 0.0,
			"0.022": 0.0,
			"0.023": 0.0,
			"0.024": 0.0,
			"0.025": 0.0
		}
	}
}
