{
	 "smiles": "CC1=C(N=C(N)S1)C1=CC=C(C)C=C1", 
	 "Tm": 447.15, 
	 "num_atms": 26, 
	 "gaussian": { 
		 "optdone": 1, 
		 "sigma_profile": "yes", 
		 "theory": "DFT", 
		 "functional": "B3LYP", 
		 "basiset": "6-31G**", 
		 "properties": { 
			 "R2extent": 4141.3705, 
			 "electric_dipole_moment_norm": 1.39498487805, 
			 "electric_quadrupole_moment_norm": 13.3072421606, 
			 "total_energy": -934.107885278, 
			 "HOMO_LUMO_gap": 0.17558, 
			 "cosmo_polarized_energy": -11.23, 
			 "cosmo_cavitation_energy": 30.94, 
			 "cosmo_dispersion_energy": -23.21, 
			 "cosmo_repulsion_energy": 1.8, 
			 "cosmo_total_nonelectrostatic_energy": 9.53, 
			 "SMD_solvation_energy": 3.61 
		},
		"coords": [
			{
				"x": -0.5054916185,
				"y": -2.729141409,
				"z": 1.5790064167,
				"element": "C" 
			},
			{
				"x": -0.7177762348,
				"y": -1.2898341197,
				"z": 1.9431309675,
				"element": "C" 
			},
			{
				"x": -0.2999937719,
				"y": -0.1313448961,
				"z": 1.3332224303,
				"element": "C" 
			},
			{
				"x": -0.7872857313,
				"y": 1.0526807018,
				"z": 1.8813454756,
				"element": "N" 
			},
			{
				"x": -1.5356823897,
				"y": 0.8266404353,
				"z": 2.9154112668,
				"element": "C" 
			},
			{
				"x": -2.0743475304,
				"y": 1.816312832,
				"z": 3.7120444401,
				"element": "N" 
			},
			{
				"x": -1.733288586,
				"y": -0.879749642,
				"z": 3.3249712712,
				"element": "S" 
			},
			{
				"x": 0.5635517817,
				"y": -0.0242617548,
				"z": 0.1384059714,
				"element": "C" 
			},
			{
				"x": 1.5987937251,
				"y": -0.9328052136,
				"z": -0.1329281661,
				"element": "C" 
			},
			{
				"x": 2.3880901392,
				"y": -0.7991445901,
				"z": -1.2752745589,
				"element": "C" 
			},
			{
				"x": 2.1833177351,
				"y": 0.2464530128,
				"z": -2.1824586632,
				"element": "C" 
			},
			{
				"x": 3.0199237408,
				"y": 0.3753669667,
				"z": -3.4331799351,
				"element": "C" 
			},
			{
				"x": 1.1661305135,
				"y": 1.1691297285,
				"z": -1.8952167435,
				"element": "C" 
			},
			{
				"x": 0.3742543249,
				"y": 1.041813596,
				"z": -0.759144418,
				"element": "C" 
			},
			{
				"x": 0.2912641716,
				"y": -3.1998236274,
				"z": 2.1694144645,
				"element": "H" 
			},
			{
				"x": -0.2342708715,
				"y": -2.8152466511,
				"z": 0.5240081695,
				"element": "H" 
			},
			{
				"x": -1.4164537849,
				"y": -3.3156694015,
				"z": 1.7390182754,
				"element": "H" 
			},
			{
				"x": -2.019739756,
				"y": 2.7291527289,
				"z": 3.2778661795,
				"element": "H" 
			},
			{
				"x": -2.9760836164,
				"y": 1.6203220589,
				"z": 4.124198679,
				"element": "H" 
			},
			{
				"x": 1.8181973023,
				"y": -1.7287439256,
				"z": 0.570668085,
				"element": "H" 
			},
			{
				"x": 3.1885104894,
				"y": -1.513124984,
				"z": -1.4547998504,
				"element": "H" 
			},
			{
				"x": 2.4932847781,
				"y": -0.0276651992,
				"z": -4.3077221058,
				"element": "H" 
			},
			{
				"x": 3.2535521108,
				"y": 1.422153754,
				"z": -3.65330199,
				"element": "H" 
			},
			{
				"x": 3.9640608299,
				"y": -0.1696752426,
				"z": -3.3416360101,
				"element": "H" 
			},
			{
				"x": 0.9952339977,
				"y": 2.0025640365,
				"z": -2.5730167719,
				"element": "H" 
			},
			{
				"x": -0.3992517489,
				"y": 1.7712408054,
				"z": -0.5445328796,
				"element": "H" 
			}
		],
		 "valence_orbital": [ 
			{
				"type": "occ",
				"energy": -0.27131,
				"method": "rhf"
			},
			{
				"type": "occ",
				"energy": -0.26542,
				"method": "rhf"
			},
			{
				"type": "occ",
				"energy": -0.24132,
				"method": "rhf"
			},
			{
				"type": "occ",
				"energy": -0.23551,
				"method": "rhf"
			},
			{
				"type": "occ",
				"energy": -0.19352,
				"method": "rhf"
			},
			{
				"type": "unocc",
				"energy": -0.01794,
				"method": "rhf"
			},
			{
				"type": "unocc",
				"energy": 0.00486,
				"method": "rhf"
			},
			{
				"type": "unocc",
				"energy": 0.01274,
				"method": "rhf"
			},
			{
				"type": "unocc",
				"energy": 0.02156,
				"method": "rhf"
			},
			{
				"type": "unocc",
				"energy": 0.07543,
				"method": "rhf"
			}
		],
		"cosmo_sigma_profile": { 
			"-0.025": 0.0,
			"-0.024": 0.0,
			"-0.023": 0.0,
			"-0.022": 0.0,
			"-0.021": 0.0,
			"-0.02": 0.0,
			"-0.019": 0.0,
			"-0.018": 0.0,
			"-0.017": 0.0,
			"-0.016": 0.0,
			"-0.015": 0.0613703369973,
			"-0.014": 1.49641702411,
			"-0.013": 2.46886903322,
			"-0.012": 2.54259150684,
			"-0.011": 2.93617661258,
			"-0.01": 2.18816198927,
			"-0.009": 2.17207439744,
			"-0.008": 1.93826542121,
			"-0.007": 1.85204445488,
			"-0.006": 1.92439179404,
			"-0.005": 9.57421467936,
			"-0.004": 21.547772448,
			"-0.003": 23.3407929507,
			"-0.002": 22.0856012423,
			"-0.001": 21.2346744005,
			"0.0": 20.648190427,
			"0.001": 14.9647159075,
			"0.002": 14.7393128938,
			"0.003": 18.9351411721,
			"0.004": 20.0258454493,
			"0.005": 14.381878001,
			"0.006": 11.7575808691,
			"0.007": 3.19630982615,
			"0.008": 3.44330352839,
			"0.009": 2.23559260473,
			"0.01": 1.97041705303,
			"0.011": 1.47625439706,
			"0.012": 1.30582931562,
			"0.013": 0.76910396532,
			"0.014": 0.548518543683,
			"0.015": 0.0935894706369,
			"0.016": 0.0,
			"0.017": 0.0,
			"0.018": 0.0,
			"0.019": 0.0,
			"0.02": 0.0,
			"0.021": 0.0,
			"0.022": 0.0,
			"0.023": 0.0,
			"0.024": 0.0,
			"0.025": 0.0
		}
	}
}
