{
	 "smiles": "CN1C=CN=C1C1=CC=C(C=C1)[N+]([O-])=O", 
	 "Tm": 381.15, 
	 "num_atms": 24, 
	 "gaussian": { 
		 "optdone": 1, 
		 "sigma_profile": "yes", 
		 "theory": "DFT", 
		 "functional": "B3LYP", 
		 "basiset": "6-31G**", 
		 "properties": { 
			 "R2extent": 4941.4226, 
			 "electric_dipole_moment_norm": 6.87385564221, 
			 "electric_quadrupole_moment_norm": 16.0646094148, 
			 "total_energy": -701.088524181, 
			 "HOMO_LUMO_gap": 0.13711, 
			 "cosmo_polarized_energy": -14.96, 
			 "cosmo_cavitation_energy": 28.88, 
			 "cosmo_dispersion_energy": -21.2, 
			 "cosmo_repulsion_energy": 1.62, 
			 "cosmo_total_nonelectrostatic_energy": 9.3, 
			 "SMD_solvation_energy": 6.22 
		},
		"coords": [
			{
				"x": 2.0582047285,
				"y": 0.6115570905,
				"z": 1.3583452226,
				"element": "C" 
			},
			{
				"x": 2.3930651828,
				"y": 0.4590004356,
				"z": -0.0520684367,
				"element": "N" 
			},
			{
				"x": 3.4041765084,
				"y": 1.1522860126,
				"z": -0.6806201397,
				"element": "C" 
			},
			{
				"x": 3.3311506162,
				"y": 0.8129199424,
				"z": -2.0107297175,
				"element": "C" 
			},
			{
				"x": 2.3046297986,
				"y": -0.0611087882,
				"z": -2.2216472237,
				"element": "N" 
			},
			{
				"x": 1.7505279685,
				"y": -0.2740859261,
				"z": -1.0327409801,
				"element": "C" 
			},
			{
				"x": 0.6010361041,
				"y": -1.1656192999,
				"z": -0.843987288,
				"element": "C" 
			},
			{
				"x": 0.3257356248,
				"y": -1.8484817506,
				"z": 0.3562949393,
				"element": "C" 
			},
			{
				"x": -0.7758425111,
				"y": -2.6916664746,
				"z": 0.4618770892,
				"element": "C" 
			},
			{
				"x": -1.602795397,
				"y": -2.8632536907,
				"z": -0.6451322662,
				"element": "C" 
			},
			{
				"x": -1.3447588776,
				"y": -2.2216774357,
				"z": -1.8579999453,
				"element": "C" 
			},
			{
				"x": -0.2469662968,
				"y": -1.3792133686,
				"z": -1.9508383614,
				"element": "C" 
			},
			{
				"x": -2.7676986396,
				"y": -3.7481971355,
				"z": -0.5346546363,
				"element": "N" 
			},
			{
				"x": -2.9693024726,
				"y": -4.296802315,
				"z": 0.5499806014,
				"element": "O" 
			},
			{
				"x": -3.4754494026,
				"y": -3.8891840707,
				"z": -1.53236654,
				"element": "O" 
			},
			{
				"x": 2.4245827846,
				"y": 1.5805713305,
				"z": 1.7020208882,
				"element": "H" 
			},
			{
				"x": 2.5170407491,
				"y": -0.171868394,
				"z": 1.97043627,
				"element": "H" 
			},
			{
				"x": 0.9760097775,
				"y": 0.5832271522,
				"z": 1.4937621842,
				"element": "H" 
			},
			{
				"x": 4.0578051163,
				"y": 1.8143705838,
				"z": -0.1328785189,
				"element": "H" 
			},
			{
				"x": 3.9624170986,
				"y": 1.1538795474,
				"z": -2.8196038459,
				"element": "H" 
			},
			{
				"x": 0.9888030213,
				"y": -1.7567849135,
				"z": 1.2077257195,
				"element": "H" 
			},
			{
				"x": -0.9956493625,
				"y": -3.2260321252,
				"z": 1.3775235884,
				"element": "H" 
			},
			{
				"x": -2.0065017651,
				"y": -2.3875135473,
				"z": -2.6988359188,
				"element": "H" 
			},
			{
				"x": -0.0176203544,
				"y": -0.8708228592,
				"z": -2.8799626845,
				"element": "H" 
			}
		],
		 "valence_orbital": [ 
			{
				"type": "occ",
				"energy": -0.28614,
				"method": "rhf"
			},
			{
				"type": "occ",
				"energy": -0.28259,
				"method": "rhf"
			},
			{
				"type": "occ",
				"energy": -0.27923,
				"method": "rhf"
			},
			{
				"type": "occ",
				"energy": -0.2748,
				"method": "rhf"
			},
			{
				"type": "occ",
				"energy": -0.22661,
				"method": "rhf"
			},
			{
				"type": "unocc",
				"energy": -0.0895,
				"method": "rhf"
			},
			{
				"type": "unocc",
				"energy": -0.02588,
				"method": "rhf"
			},
			{
				"type": "unocc",
				"energy": -0.01977,
				"method": "rhf"
			},
			{
				"type": "unocc",
				"energy": 0.03602,
				"method": "rhf"
			},
			{
				"type": "unocc",
				"energy": 0.06064,
				"method": "rhf"
			}
		],
		"cosmo_sigma_profile": { 
			"-0.025": 0.0,
			"-0.024": 0.0,
			"-0.023": 0.0,
			"-0.022": 0.0,
			"-0.021": 0.0,
			"-0.02": 0.0,
			"-0.019": 0.0,
			"-0.018": 0.0,
			"-0.017": 0.0,
			"-0.016": 0.0,
			"-0.015": 0.0,
			"-0.014": 0.0,
			"-0.013": 0.0,
			"-0.012": 0.0,
			"-0.011": 0.0,
			"-0.01": 0.0,
			"-0.009": 2.36858578059,
			"-0.008": 7.14057072813,
			"-0.007": 12.2851730013,
			"-0.006": 17.5274498372,
			"-0.005": 16.5560399784,
			"-0.004": 17.0221027069,
			"-0.003": 16.7397000289,
			"-0.002": 11.9775798755,
			"-0.001": 14.0222567554,
			"0.0": 15.7377298453,
			"0.001": 18.5386416746,
			"0.002": 16.3700770664,
			"0.003": 8.94680158393,
			"0.004": 7.11116482355,
			"0.005": 7.18580994476,
			"0.006": 6.81055494545,
			"0.007": 8.7901097116,
			"0.008": 10.2093261088,
			"0.009": 6.52178226099,
			"0.01": 4.51779865687,
			"0.011": 1.50093927051,
			"0.012": 0.920730269304,
			"0.013": 0.970654893233,
			"0.014": 0.949918822448,
			"0.015": 0.762141995825,
			"0.016": 0.724571495937,
			"0.017": 0.0395889499816,
			"0.018": 0.0,
			"0.019": 0.0,
			"0.02": 0.0,
			"0.021": 0.0,
			"0.022": 0.0,
			"0.023": 0.0,
			"0.024": 0.0,
			"0.025": 0.0
		}
	}
}
