{
	 "smiles": "OC1=CC(F)=CN=C1", 
	 "Tm": 436.15, 
	 "num_atms": 12, 
	 "gaussian": { 
		 "optdone": 1, 
		 "sigma_profile": "yes", 
		 "theory": "DFT", 
		 "functional": "B3LYP", 
		 "basiset": "6-31G**", 
		 "properties": { 
			 "R2extent": 1016.6862, 
			 "electric_dipole_moment_norm": 2.01950132706, 
			 "electric_quadrupole_moment_norm": 7.62075178641, 
			 "total_energy": -422.734838471, 
			 "HOMO_LUMO_gap": 0.21201, 
			 "cosmo_polarized_energy": -9.39, 
			 "cosmo_cavitation_energy": 16.99, 
			 "cosmo_dispersion_energy": -12.74, 
			 "cosmo_repulsion_energy": 1.03, 
			 "cosmo_total_nonelectrostatic_energy": 5.29, 
			 "SMD_solvation_energy": 2.64 
		},
		"coords": [
			{
				"x": -2.1592780064,
				"y": -2.4056069058,
				"z": -0.2016078586,
				"element": "O" 
			},
			{
				"x": -1.2526675613,
				"y": -1.3915343021,
				"z": -0.1868977015,
				"element": "C" 
			},
			{
				"x": -1.3461575376,
				"y": -0.4103440508,
				"z": -1.1771019911,
				"element": "C" 
			},
			{
				"x": -0.4105843945,
				"y": 0.6113136805,
				"z": -1.1392623737,
				"element": "C" 
			},
			{
				"x": -0.4551410393,
				"y": 1.5823548325,
				"z": -2.0695910753,
				"element": "F" 
			},
			{
				"x": 0.5762869462,
				"y": 0.6518022655,
				"z": -0.154897611,
				"element": "C" 
			},
			{
				"x": 0.6552354576,
				"y": -0.2920701914,
				"z": 0.7862437531,
				"element": "N" 
			},
			{
				"x": -0.234166317,
				"y": -1.2868259719,
				"z": 0.7717003492,
				"element": "C" 
			},
			{
				"x": -1.9778170814,
				"y": -3.006504396,
				"z": 0.5335625229,
				"element": "H" 
			},
			{
				"x": -2.1160643782,
				"y": -0.4487900123,
				"z": -1.9387801618,
				"element": "H" 
			},
			{
				"x": 1.3028683589,
				"y": 1.4595524291,
				"z": -0.138579061,
				"element": "H" 
			},
			{
				"x": -0.1416144471,
				"y": -2.0410473775,
				"z": 1.5543112088,
				"element": "H" 
			}
		],
		 "valence_orbital": [ 
			{
				"type": "occ",
				"energy": -0.38312,
				"method": "rhf"
			},
			{
				"type": "occ",
				"energy": -0.36787,
				"method": "rhf"
			},
			{
				"type": "occ",
				"energy": -0.27927,
				"method": "rhf"
			},
			{
				"type": "occ",
				"energy": -0.26503,
				"method": "rhf"
			},
			{
				"type": "occ",
				"energy": -0.24213,
				"method": "rhf"
			},
			{
				"type": "unocc",
				"energy": -0.03012,
				"method": "rhf"
			},
			{
				"type": "unocc",
				"energy": -0.00213,
				"method": "rhf"
			},
			{
				"type": "unocc",
				"energy": 0.05567,
				"method": "rhf"
			},
			{
				"type": "unocc",
				"energy": 0.09569,
				"method": "rhf"
			},
			{
				"type": "unocc",
				"energy": 0.1399,
				"method": "rhf"
			}
		],
		"cosmo_sigma_profile": { 
			"-0.025": 0.0,
			"-0.024": 0.0,
			"-0.023": 0.0,
			"-0.022": 0.0,
			"-0.021": 0.0,
			"-0.02": 0.0,
			"-0.019": 0.276409580374,
			"-0.018": 1.31456780351,
			"-0.017": 1.01065180456,
			"-0.016": 1.26759975339,
			"-0.015": 1.02976688963,
			"-0.014": 1.15230770507,
			"-0.013": 0.941553406238,
			"-0.012": 0.924734603958,
			"-0.011": 0.510017980804,
			"-0.01": 1.46985482559,
			"-0.009": 1.53477507064,
			"-0.008": 3.10800355794,
			"-0.007": 4.92221503698,
			"-0.006": 5.25343520581,
			"-0.005": 4.20002483106,
			"-0.004": 4.49219058135,
			"-0.003": 3.93416789137,
			"-0.002": 5.0173713001,
			"-0.001": 8.71080826365,
			"0.0": 17.0401158729,
			"0.001": 15.1795541807,
			"0.002": 8.14487444054,
			"0.003": 10.3051571935,
			"0.004": 12.1366096943,
			"0.005": 3.11043405817,
			"0.006": 2.62316583958,
			"0.007": 2.69583461128,
			"0.008": 2.89288823848,
			"0.009": 3.04183885075,
			"0.01": 2.60478627947,
			"0.011": 1.54338650614,
			"0.012": 1.29441219531,
			"0.013": 0.611018682734,
			"0.014": 0.795507579837,
			"0.015": 1.07099980399,
			"0.016": 0.447939727083,
			"0.017": 0.00892337916934,
			"0.018": 0.0,
			"0.019": 0.0,
			"0.02": 0.0,
			"0.021": 0.0,
			"0.022": 0.0,
			"0.023": 0.0,
			"0.024": 0.0,
			"0.025": 0.0
		}
	}
}
