{
	 "smiles": "CC12CCC3C(CCC4CC(O)(CCC34C)C#C)C1CCC2=O", 
	 "Tm": 511.15, 
	 "num_atms": 53, 
	 "gaussian": { 
		 "optdone": 1, 
		 "sigma_profile": "yes", 
		 "theory": "DFT", 
		 "functional": "B3LYP", 
		 "basiset": "6-31G**", 
		 "properties": { 
			 "R2extent": 8906.3518, 
			 "electric_dipole_moment_norm": 3.27243329191, 
			 "electric_quadrupole_moment_norm": 17.9628552747, 
			 "total_energy": -968.703987341, 
			 "HOMO_LUMO_gap": 0.21787, 
			 "cosmo_polarized_energy": -13.11, 
			 "cosmo_cavitation_energy": 46.18, 
			 "cosmo_dispersion_energy": -32.03, 
			 "cosmo_repulsion_energy": 2.34, 
			 "cosmo_total_nonelectrostatic_energy": 16.48, 
			 "SMD_solvation_energy": 8.32 
		},
		"coords": [
			{
				"x": 0.6446956616,
				"y": -3.1262634595,
				"z": -2.7628583488,
				"element": "C" 
			},
			{
				"x": -0.615463237,
				"y": -3.1464831063,
				"z": -1.8550754795,
				"element": "C" 
			},
			{
				"x": -1.7164521334,
				"y": -2.2584403828,
				"z": -2.443915971,
				"element": "C" 
			},
			{
				"x": -1.4105591787,
				"y": -0.761985561,
				"z": -2.2019825414,
				"element": "C" 
			},
			{
				"x": -1.2049351793,
				"y": -0.4113681933,
				"z": -0.7028318331,
				"element": "C" 
			},
			{
				"x": -0.0844807307,
				"y": -1.2955107236,
				"z": -0.0714578918,
				"element": "C" 
			},
			{
				"x": 1.3166646192,
				"y": -0.8003022555,
				"z": -0.4641196952,
				"element": "C" 
			},
			{
				"x": 1.5067962892,
				"y": 0.6477899256,
				"z": -0.0095423542,
				"element": "C" 
			},
			{
				"x": 0.4506422328,
				"y": 1.5969994449,
				"z": -0.6161906805,
				"element": "C" 
			},
			{
				"x": 0.6621323908,
				"y": 3.0562479163,
				"z": -0.1437549986,
				"element": "C" 
			},
			{
				"x": 0.2092043374,
				"y": 3.3543839108,
				"z": 1.3063898891,
				"element": "C" 
			},
			{
				"x": 1.1400727244,
				"y": 2.6936092525,
				"z": 2.1818342292,
				"element": "O" 
			},
			{
				"x": -1.2243094183,
				"y": 2.8260211817,
				"z": 1.5543399719,
				"element": "C" 
			},
			{
				"x": -1.4002082201,
				"y": 1.3696249343,
				"z": 1.1008435122,
				"element": "C" 
			},
			{
				"x": -1.0227022201,
				"y": 1.1219835998,
				"z": -0.3878719825,
				"element": "C" 
			},
			{
				"x": -1.9828854011,
				"y": 1.9439136824,
				"z": -1.2784954374,
				"element": "C" 
			},
			{
				"x": 0.2575747935,
				"y": 4.8079015816,
				"z": 1.5604586049,
				"element": "C" 
			},
			{
				"x": 0.2877766528,
				"y": 5.9916539223,
				"z": 1.8011824915,
				"element": "C" 
			},
			{
				"x": -0.4140924991,
				"y": -2.766900949,
				"z": -0.3656697214,
				"element": "C" 
			},
			{
				"x": 0.4257764637,
				"y": -3.9194550116,
				"z": 0.2173588923,
				"element": "C" 
			},
			{
				"x": -0.2209799201,
				"y": -5.1622272399,
				"z": -0.4414438716,
				"element": "C" 
			},
			{
				"x": -0.945001389,
				"y": -4.6385086804,
				"z": -1.6996749453,
				"element": "C" 
			},
			{
				"x": -1.6464504699,
				"y": -5.3012992693,
				"z": -2.4332637016,
				"element": "O" 
			},
			{
				"x": 0.9316552681,
				"y": -2.1114552964,
				"z": -3.0424851304,
				"element": "H" 
			},
			{
				"x": 1.513997258,
				"y": -3.6000768005,
				"z": -2.2977115523,
				"element": "H" 
			},
			{
				"x": 0.421019771,
				"y": -3.6719259595,
				"z": -3.6856828009,
				"element": "H" 
			},
			{
				"x": -1.8428109754,
				"y": -2.4498953566,
				"z": -3.5154567046,
				"element": "H" 
			},
			{
				"x": -2.6743772885,
				"y": -2.5111342074,
				"z": -1.9704139195,
				"element": "H" 
			},
			{
				"x": -0.5327787116,
				"y": -0.4627313696,
				"z": -2.788502825,
				"element": "H" 
			},
			{
				"x": -2.2472169414,
				"y": -0.1855846177,
				"z": -2.6044024949,
				"element": "H" 
			},
			{
				"x": -2.1451951101,
				"y": -0.6997089952,
				"z": -0.2055948648,
				"element": "H" 
			},
			{
				"x": -0.1503796862,
				"y": -1.1822950917,
				"z": 1.0206616704,
				"element": "H" 
			},
			{
				"x": 1.4696993934,
				"y": -0.8618584148,
				"z": -1.5460688715,
				"element": "H" 
			},
			{
				"x": 2.0831766967,
				"y": -1.4388176465,
				"z": -0.0077828839,
				"element": "H" 
			},
			{
				"x": 2.5018865652,
				"y": 1.0068704162,
				"z": -0.3014455239,
				"element": "H" 
			},
			{
				"x": 1.4783255856,
				"y": 0.7028304098,
				"z": 1.0816813749,
				"element": "H" 
			},
			{
				"x": 0.6216190907,
				"y": 1.6024470576,
				"z": -1.7036073784,
				"element": "H" 
			},
			{
				"x": 0.119872669,
				"y": 3.7429018133,
				"z": -0.8008903034,
				"element": "H" 
			},
			{
				"x": 1.7219155712,
				"y": 3.3216658386,
				"z": -0.219906416,
				"element": "H" 
			},
			{
				"x": 0.9374744153,
				"y": 2.9780558455,
				"z": 3.0837344774,
				"element": "H" 
			},
			{
				"x": -1.9345078666,
				"y": 3.4839409579,
				"z": 1.0435878616,
				"element": "H" 
			},
			{
				"x": -1.446478107,
				"y": 2.9183378666,
				"z": 2.625104384,
				"element": "H" 
			},
			{
				"x": -2.4447848973,
				"y": 1.073301295,
				"z": 1.2609171778,
				"element": "H" 
			},
			{
				"x": -0.793802476,
				"y": 0.7322030999,
				"z": 1.7513247888,
				"element": "H" 
			},
			{
				"x": -2.0092295908,
				"y": 2.9989452071,
				"z": -0.9984714399,
				"element": "H" 
			},
			{
				"x": -1.6924588764,
				"y": 1.9036947135,
				"z": -2.3319625151,
				"element": "H" 
			},
			{
				"x": -3.0083045124,
				"y": 1.5642016298,
				"z": -1.198004433,
				"element": "H" 
			},
			{
				"x": 0.3243925172,
				"y": 7.0369978222,
				"z": 2.0043245563,
				"element": "H" 
			},
			{
				"x": -1.417735572,
				"y": -2.9071001862,
				"z": 0.0741347556,
				"element": "H" 
			},
			{
				"x": 0.3825473988,
				"y": -3.9526467,
				"z": 1.3105411506,
				"element": "H" 
			},
			{
				"x": 1.4813849753,
				"y": -3.8316644782,
				"z": -0.0603750549,
				"element": "H" 
			},
			{
				"x": -0.9704810122,
				"y": -5.6293384932,
				"z": 0.2079125417,
				"element": "H" 
			},
			{
				"x": 0.4860582797,
				"y": -5.9514448797,
				"z": -0.7171177641,
				"element": "H" 
			}
		],
		 "valence_orbital": [ 
			{
				"type": "occ",
				"energy": -0.28063,
				"method": "rhf"
			},
			{
				"type": "occ",
				"energy": -0.27737,
				"method": "rhf"
			},
			{
				"type": "occ",
				"energy": -0.26933,
				"method": "rhf"
			},
			{
				"type": "occ",
				"energy": -0.26289,
				"method": "rhf"
			},
			{
				"type": "occ",
				"energy": -0.22676,
				"method": "rhf"
			},
			{
				"type": "unocc",
				"energy": -0.00889,
				"method": "rhf"
			},
			{
				"type": "unocc",
				"energy": 0.03507,
				"method": "rhf"
			},
			{
				"type": "unocc",
				"energy": 0.05061,
				"method": "rhf"
			},
			{
				"type": "unocc",
				"energy": 0.0684,
				"method": "rhf"
			},
			{
				"type": "unocc",
				"energy": 0.07289,
				"method": "rhf"
			}
		],
		"cosmo_sigma_profile": { 
			"-0.025": 0.0,
			"-0.024": 0.0,
			"-0.023": 0.0,
			"-0.022": 0.0,
			"-0.021": 0.0,
			"-0.02": 0.0,
			"-0.019": 0.0,
			"-0.018": 0.0,
			"-0.017": 0.0,
			"-0.016": 0.0485413812399,
			"-0.015": 0.994548761201,
			"-0.014": 0.459535952602,
			"-0.013": 0.96897699898,
			"-0.012": 1.04279979216,
			"-0.011": 1.84710411148,
			"-0.01": 2.04348678087,
			"-0.009": 1.81337590703,
			"-0.008": 2.32510163378,
			"-0.007": 2.44079574602,
			"-0.006": 1.45257817209,
			"-0.005": 9.48932694018,
			"-0.004": 20.1952901735,
			"-0.003": 28.1438880811,
			"-0.002": 53.6418828055,
			"-0.001": 64.2123674904,
			"0.0": 52.1043056025,
			"0.001": 33.3944202817,
			"0.002": 12.4033943519,
			"0.003": 7.73326992653,
			"0.004": 8.57487631181,
			"0.005": 8.24347548848,
			"0.006": 9.41329905724,
			"0.007": 8.72163463653,
			"0.008": 4.36762243526,
			"0.009": 2.3796903581,
			"0.01": 3.39026460324,
			"0.011": 3.97371015598,
			"0.012": 5.03311695787,
			"0.013": 4.37123338943,
			"0.014": 0.550748656302,
			"0.015": 0.0,
			"0.016": 0.0,
			"0.017": 0.0,
			"0.018": 0.0,
			"0.019": 0.0,
			"0.02": 0.0,
			"0.021": 0.0,
			"0.022": 0.0,
			"0.023": 0.0,
			"0.024": 0.0,
			"0.025": 0.0
		}
	}
}
