{
	 "smiles": "CC12OCC(N1C(=O)C=C2)C1=CC=CC=C1", 
	 "Tm": 363.15, 
	 "num_atms": 29, 
	 "gaussian": { 
		 "optdone": 1, 
		 "sigma_profile": "yes", 
		 "theory": "DFT", 
		 "functional": "B3LYP", 
		 "basiset": "6-31G**", 
		 "properties": { 
			 "R2extent": 3658.1864, 
			 "electric_dipole_moment_norm": 2.39195176791, 
			 "electric_quadrupole_moment_norm": 12.1090203039, 
			 "total_energy": -708.397841668, 
			 "HOMO_LUMO_gap": 0.19541, 
			 "cosmo_polarized_energy": -11.38, 
			 "cosmo_cavitation_energy": 31.38, 
			 "cosmo_dispersion_energy": -22.22, 
			 "cosmo_repulsion_energy": 1.71, 
			 "cosmo_total_nonelectrostatic_energy": 10.86, 
			 "SMD_solvation_energy": 4.64 
		},
		"coords": [
			{
				"x": 2.282107893,
				"y": -0.6983124841,
				"z": -1.4625650954,
				"element": "C" 
			},
			{
				"x": 1.2959643406,
				"y": 0.2641197603,
				"z": -2.1226693354,
				"element": "C" 
			},
			{
				"x": 1.4489884228,
				"y": 1.5537093709,
				"z": -1.5073026561,
				"element": "O" 
			},
			{
				"x": 0.150628895,
				"y": 2.0581789977,
				"z": -1.1720245287,
				"element": "C" 
			},
			{
				"x": -0.7141750382,
				"y": 0.8040134799,
				"z": -0.9307644849,
				"element": "C" 
			},
			{
				"x": -0.1176533523,
				"y": -0.1009027748,
				"z": -1.9357057492,
				"element": "N" 
			},
			{
				"x": -0.7609429585,
				"y": -0.1977576704,
				"z": -3.1839046782,
				"element": "C" 
			},
			{
				"x": -1.9631324988,
				"y": -0.2986532576,
				"z": -3.346800224,
				"element": "O" 
			},
			{
				"x": 0.3008536159,
				"y": -0.0728389812,
				"z": -4.2249509037,
				"element": "C" 
			},
			{
				"x": 1.448676249,
				"y": 0.2731809129,
				"z": -3.6365166503,
				"element": "C" 
			},
			{
				"x": -0.7085400827,
				"y": 0.2317349306,
				"z": 0.478280644,
				"element": "C" 
			},
			{
				"x": -1.7620310044,
				"y": -0.6087143501,
				"z": 0.8624599389,
				"element": "C" 
			},
			{
				"x": -1.8030031758,
				"y": -1.1640706787,
				"z": 2.1407925748,
				"element": "C" 
			},
			{
				"x": -0.7876172108,
				"y": -0.8843014622,
				"z": 3.0581902166,
				"element": "C" 
			},
			{
				"x": 0.2671106021,
				"y": -0.0503643505,
				"z": 2.6855499017,
				"element": "C" 
			},
			{
				"x": 0.3069192705,
				"y": 0.5041111444,
				"z": 1.4040696382,
				"element": "C" 
			},
			{
				"x": 2.0691495916,
				"y": -0.7795731636,
				"z": -0.3953335685,
				"element": "H" 
			},
			{
				"x": 2.2083040901,
				"y": -1.6903164358,
				"z": -1.9163331271,
				"element": "H" 
			},
			{
				"x": 3.3024102385,
				"y": -0.3245055619,
				"z": -1.5919520007,
				"element": "H" 
			},
			{
				"x": 0.2571090077,
				"y": 2.7127708607,
				"z": -0.3042274936,
				"element": "H" 
			},
			{
				"x": -0.2664800082,
				"y": 2.6406681747,
				"z": -2.0056815655,
				"element": "H" 
			},
			{
				"x": -1.7502292917,
				"y": 0.9717985533,
				"z": -1.2370338138,
				"element": "H" 
			},
			{
				"x": 0.0899387391,
				"y": -0.1887538632,
				"z": -5.2804489066,
				"element": "H" 
			},
			{
				"x": 2.4020605621,
				"y": 0.4747457524,
				"z": -4.1122282402,
				"element": "H" 
			},
			{
				"x": -2.5510225426,
				"y": -0.8299349236,
				"z": 0.1478939273,
				"element": "H" 
			},
			{
				"x": -2.6289846713,
				"y": -1.8111980917,
				"z": 2.4220751891,
				"element": "H" 
			},
			{
				"x": -0.8193236834,
				"y": -1.3124822441,
				"z": 4.0559613091,
				"element": "H" 
			},
			{
				"x": 1.0619723708,
				"y": 0.1717185328,
				"z": 3.3920964193,
				"element": "H" 
			},
			{
				"x": 1.14004163,
				"y": 1.140829823,
				"z": 1.122073263,
				"element": "H" 
			}
		],
		 "valence_orbital": [ 
			{
				"type": "occ",
				"energy": -0.2722,
				"method": "rhf"
			},
			{
				"type": "occ",
				"energy": -0.2617,
				"method": "rhf"
			},
			{
				"type": "occ",
				"energy": -0.25731,
				"method": "rhf"
			},
			{
				"type": "occ",
				"energy": -0.2514,
				"method": "rhf"
			},
			{
				"type": "occ",
				"energy": -0.24254,
				"method": "rhf"
			},
			{
				"type": "unocc",
				"energy": -0.04713,
				"method": "rhf"
			},
			{
				"type": "unocc",
				"energy": -0.00745,
				"method": "rhf"
			},
			{
				"type": "unocc",
				"energy": -0.00444,
				"method": "rhf"
			},
			{
				"type": "unocc",
				"energy": 0.06843,
				"method": "rhf"
			},
			{
				"type": "unocc",
				"energy": 0.08959,
				"method": "rhf"
			}
		],
		"cosmo_sigma_profile": { 
			"-0.025": 0.0,
			"-0.024": 0.0,
			"-0.023": 0.0,
			"-0.022": 0.0,
			"-0.021": 0.0,
			"-0.02": 0.0,
			"-0.019": 0.0,
			"-0.018": 0.0,
			"-0.017": 0.0,
			"-0.016": 0.0,
			"-0.015": 0.0,
			"-0.014": 0.0,
			"-0.013": 0.0,
			"-0.012": 0.0,
			"-0.011": 0.0,
			"-0.01": 0.0,
			"-0.009": 0.742727055967,
			"-0.008": 3.61640597923,
			"-0.007": 3.21136244568,
			"-0.006": 14.0236204808,
			"-0.005": 25.4146392793,
			"-0.004": 25.1026712949,
			"-0.003": 22.1102953664,
			"-0.002": 19.9870381686,
			"-0.001": 20.3556656144,
			"0.0": 18.4027633456,
			"0.001": 14.5147918571,
			"0.002": 13.0528921689,
			"0.003": 10.8746582928,
			"0.004": 11.1997710306,
			"0.005": 11.8109072397,
			"0.006": 9.75106350941,
			"0.007": 4.82963884229,
			"0.008": 3.02450406192,
			"0.009": 1.25283656955,
			"0.01": 2.24085639899,
			"0.011": 4.30670630249,
			"0.012": 5.27839267156,
			"0.013": 3.91637926859,
			"0.014": 0.475445777247,
			"0.015": 0.0,
			"0.016": 0.0,
			"0.017": 0.0,
			"0.018": 0.0,
			"0.019": 0.0,
			"0.02": 0.0,
			"0.021": 0.0,
			"0.022": 0.0,
			"0.023": 0.0,
			"0.024": 0.0,
			"0.025": 0.0
		}
	}
}
