{
	 "smiles": "NC(=O)C1=CC=C(OC2CCNCC2)C=C1", 
	 "Tm": 501.15, 
	 "num_atms": 32, 
	 "gaussian": { 
		 "optdone": 1, 
		 "sigma_profile": "yes", 
		 "theory": "DFT", 
		 "functional": "B3LYP", 
		 "basiset": "6-31G**", 
		 "properties": { 
			 "R2extent": 6077.1713, 
			 "electric_dipole_moment_norm": 5.71932818695, 
			 "electric_quadrupole_moment_norm": 23.6364583993, 
			 "total_energy": -726.875540908, 
			 "HOMO_LUMO_gap": 0.19731, 
			 "cosmo_polarized_energy": -16.78, 
			 "cosmo_cavitation_energy": 34.04, 
			 "cosmo_dispersion_energy": -25.17, 
			 "cosmo_repulsion_energy": 1.98, 
			 "cosmo_total_nonelectrostatic_energy": 10.85, 
			 "SMD_solvation_energy": 4.13 
		},
		"coords": [
			{
				"x": -2.4118163201,
				"y": 4.9419126169,
				"z": 1.893995042,
				"element": "N" 
			},
			{
				"x": -3.1190433256,
				"y": 4.1198466712,
				"z": 1.0407755171,
				"element": "C" 
			},
			{
				"x": -4.2181197505,
				"y": 4.4470114464,
				"z": 0.6068103642,
				"element": "O" 
			},
			{
				"x": -2.4863501528,
				"y": 2.8072148237,
				"z": 0.7026492502,
				"element": "C" 
			},
			{
				"x": -1.4233944503,
				"y": 2.2452479907,
				"z": 1.4187002745,
				"element": "C" 
			},
			{
				"x": -0.873961045,
				"y": 1.0146900616,
				"z": 1.0570773728,
				"element": "C" 
			},
			{
				"x": -1.3961534804,
				"y": 0.3186550515,
				"z": -0.0427880727,
				"element": "C" 
			},
			{
				"x": -0.9566425415,
				"y": -0.888472107,
				"z": -0.4888576325,
				"element": "O" 
			},
			{
				"x": 0.1218564417,
				"y": -1.5692816765,
				"z": 0.1753367996,
				"element": "C" 
			},
			{
				"x": 1.4941851576,
				"y": -1.0120522508,
				"z": -0.2605091331,
				"element": "C" 
			},
			{
				"x": 2.5834513304,
				"y": -2.1047936789,
				"z": -0.1609716076,
				"element": "C" 
			},
			{
				"x": 2.2128247457,
				"y": -3.0374179041,
				"z": 0.9033619473,
				"element": "N" 
			},
			{
				"x": 1.0721340405,
				"y": -3.8842927698,
				"z": 0.5286225722,
				"element": "C" 
			},
			{
				"x": 0.0041357278,
				"y": -3.0433879773,
				"z": -0.2077394557,
				"element": "C" 
			},
			{
				"x": -2.4720765935,
				"y": 0.8706870328,
				"z": -0.7609517363,
				"element": "C" 
			},
			{
				"x": -3.0093014293,
				"y": 2.0911104323,
				"z": -0.387127025,
				"element": "C" 
			},
			{
				"x": -1.4076688136,
				"y": 4.8660319197,
				"z": 1.9447360192,
				"element": "H" 
			},
			{
				"x": -2.7965044258,
				"y": 5.8703327111,
				"z": 1.9962877584,
				"element": "H" 
			},
			{
				"x": -1.0261903981,
				"y": 2.7484070767,
				"z": 2.2957803742,
				"element": "H" 
			},
			{
				"x": -0.0536547573,
				"y": 0.6096843993,
				"z": 1.6367454511,
				"element": "H" 
			},
			{
				"x": -0.0046481542,
				"y": -1.4724270838,
				"z": 1.2591355961,
				"element": "H" 
			},
			{
				"x": 1.4050970213,
				"y": -0.6597957062,
				"z": -1.2940079772,
				"element": "H" 
			},
			{
				"x": 1.7631205858,
				"y": -0.1487327145,
				"z": 0.3551988772,
				"element": "H" 
			},
			{
				"x": 2.7096560995,
				"y": -2.6012547164,
				"z": -1.1414891092,
				"element": "H" 
			},
			{
				"x": 3.5490794916,
				"y": -1.6537379655,
				"z": 0.0870719558,
				"element": "H" 
			},
			{
				"x": 3.0037447576,
				"y": -3.6150009966,
				"z": 1.1697717353,
				"element": "H" 
			},
			{
				"x": 0.650415053,
				"y": -4.3097541434,
				"z": 1.4471964142,
				"element": "H" 
			},
			{
				"x": 1.3586739767,
				"y": -4.7331095213,
				"z": -0.1172460398,
				"element": "H" 
			},
			{
				"x": -1.0007389608,
				"y": -3.4087687863,
				"z": 0.0216524153,
				"element": "H" 
			},
			{
				"x": 0.1284732076,
				"y": -3.1228426572,
				"z": -1.2939031744,
				"element": "H" 
			},
			{
				"x": -2.867584933,
				"y": 0.3130270913,
				"z": -1.6035945047,
				"element": "H" 
			},
			{
				"x": -3.8468981048,
				"y": 2.5203633302,
				"z": -0.9265202685,
				"element": "H" 
			}
		],
		 "valence_orbital": [ 
			{
				"type": "occ",
				"energy": -0.26491,
				"method": "rhf"
			},
			{
				"type": "occ",
				"energy": -0.25383,
				"method": "rhf"
			},
			{
				"type": "occ",
				"energy": -0.241,
				"method": "rhf"
			},
			{
				"type": "occ",
				"energy": -0.22397,
				"method": "rhf"
			},
			{
				"type": "occ",
				"energy": -0.21979,
				"method": "rhf"
			},
			{
				"type": "unocc",
				"energy": -0.02248,
				"method": "rhf"
			},
			{
				"type": "unocc",
				"energy": -0.00351,
				"method": "rhf"
			},
			{
				"type": "unocc",
				"energy": 0.06477,
				"method": "rhf"
			},
			{
				"type": "unocc",
				"energy": 0.06961,
				"method": "rhf"
			},
			{
				"type": "unocc",
				"energy": 0.08194,
				"method": "rhf"
			}
		],
		"cosmo_sigma_profile": { 
			"-0.025": 0.0,
			"-0.024": 0.0,
			"-0.023": 0.0,
			"-0.022": 0.0,
			"-0.021": 0.0,
			"-0.02": 0.0,
			"-0.019": 0.0,
			"-0.018": 0.0,
			"-0.017": 0.0,
			"-0.016": 0.0,
			"-0.015": 0.011411549687,
			"-0.014": 0.746955600179,
			"-0.013": 2.25254594612,
			"-0.012": 2.74537449423,
			"-0.011": 2.12653155507,
			"-0.01": 3.43396559068,
			"-0.009": 4.52940238532,
			"-0.008": 3.4727506665,
			"-0.007": 5.3237333566,
			"-0.006": 8.27970676764,
			"-0.005": 10.5608304448,
			"-0.004": 14.4583882695,
			"-0.003": 25.1369686107,
			"-0.002": 32.4590854181,
			"-0.001": 26.7280897018,
			"0.0": 21.3437672642,
			"0.001": 13.7261321967,
			"0.002": 13.5822837239,
			"0.003": 14.3084444129,
			"0.004": 17.0370700292,
			"0.005": 8.77710018555,
			"0.006": 5.30056334768,
			"0.007": 3.26078229543,
			"0.008": 4.85418265716,
			"0.009": 4.25845823393,
			"0.01": 2.05494201339,
			"0.011": 2.19874614442,
			"0.012": 2.04772944395,
			"0.013": 4.45167330353,
			"0.014": 5.44405836504,
			"0.015": 1.22669539419,
			"0.016": 0.558518264706,
			"0.017": 0.182072618553,
			"0.018": 0.0561547546363,
			"0.019": 0.0,
			"0.02": 0.0,
			"0.021": 0.0,
			"0.022": 0.0,
			"0.023": 0.0,
			"0.024": 0.0,
			"0.025": 0.0
		}
	}
}
