{
	 "smiles": "CCS(=O)(=O)CC(O)=O", 
	 "Tm": 331.15, 
	 "num_atms": 17, 
	 "gaussian": { 
		 "optdone": 1, 
		 "sigma_profile": "yes", 
		 "theory": "DFT", 
		 "functional": "B3LYP", 
		 "basiset": "6-31G**", 
		 "properties": { 
			 "R2extent": 1613.4201, 
			 "electric_dipole_moment_norm": 3.0521925398, 
			 "electric_quadrupole_moment_norm": 15.4998712782, 
			 "total_energy": -856.282063936, 
			 "HOMO_LUMO_gap": 0.26431, 
			 "cosmo_polarized_energy": -17.75, 
			 "cosmo_cavitation_energy": 21.88, 
			 "cosmo_dispersion_energy": -16.47, 
			 "cosmo_repulsion_energy": 1.31, 
			 "cosmo_total_nonelectrostatic_energy": 6.73, 
			 "SMD_solvation_energy": 4.49 
		},
		"coords": [
			{
				"x": -2.0569918182,
				"y": 0.2166726303,
				"z": 1.4634235975,
				"element": "C" 
			},
			{
				"x": -1.2016622289,
				"y": -0.3442124936,
				"z": 0.3316971149,
				"element": "C" 
			},
			{
				"x": 0.5417921635,
				"y": 0.1616212441,
				"z": 0.4105599322,
				"element": "S" 
			},
			{
				"x": 1.2389685061,
				"y": -0.4871848712,
				"z": -0.7313766181,
				"element": "O" 
			},
			{
				"x": 1.0406372941,
				"y": -0.0263732735,
				"z": 1.7777023883,
				"element": "O" 
			},
			{
				"x": 0.5567513671,
				"y": 1.9443780781,
				"z": 0.0338930181,
				"element": "C" 
			},
			{
				"x": 0.1277236739,
				"y": 2.3441163855,
				"z": -1.3879922845,
				"element": "C" 
			},
			{
				"x": 0.5407399961,
				"y": 1.5545202427,
				"z": -2.3853096201,
				"element": "O" 
			},
			{
				"x": -0.5182766014,
				"y": 3.3458161796,
				"z": -1.5729314951,
				"element": "O" 
			},
			{
				"x": -3.0591067743,
				"y": -0.2172098994,
				"z": 1.4041277165,
				"element": "H" 
			},
			{
				"x": -2.1639492258,
				"y": 1.3030314454,
				"z": 1.3956093277,
				"element": "H" 
			},
			{
				"x": -1.6273334571,
				"y": -0.0350068573,
				"z": 2.4355397737,
				"element": "H" 
			},
			{
				"x": -1.1360850246,
				"y": -1.436469788,
				"z": 0.364659169,
				"element": "H" 
			},
			{
				"x": -1.5565729137,
				"y": -0.0582160516,
				"z": -0.6631158495,
				"element": "H" 
			},
			{
				"x": 1.6045318412,
				"y": 2.2208844067,
				"z": 0.1969644639,
				"element": "H" 
			},
			{
				"x": -0.059728295,
				"y": 2.4723501328,
				"z": 0.7611111297,
				"element": "H" 
			},
			{
				"x": 0.996661497,
				"y": 0.7567824893,
				"z": -2.0307617642,
				"element": "H" 
			}
		],
		 "valence_orbital": [ 
			{
				"type": "occ",
				"energy": -0.34517,
				"method": "rhf"
			},
			{
				"type": "occ",
				"energy": -0.33061,
				"method": "rhf"
			},
			{
				"type": "occ",
				"energy": -0.32444,
				"method": "rhf"
			},
			{
				"type": "occ",
				"energy": -0.31811,
				"method": "rhf"
			},
			{
				"type": "occ",
				"energy": -0.28356,
				"method": "rhf"
			},
			{
				"type": "unocc",
				"energy": -0.01925,
				"method": "rhf"
			},
			{
				"type": "unocc",
				"energy": 0.03584,
				"method": "rhf"
			},
			{
				"type": "unocc",
				"energy": 0.04605,
				"method": "rhf"
			},
			{
				"type": "unocc",
				"energy": 0.05641,
				"method": "rhf"
			},
			{
				"type": "unocc",
				"energy": 0.06344,
				"method": "rhf"
			}
		],
		"cosmo_sigma_profile": { 
			"-0.025": 0.0,
			"-0.024": 0.0,
			"-0.023": 0.0,
			"-0.022": 0.0,
			"-0.021": 0.0,
			"-0.02": 0.0,
			"-0.019": 0.0,
			"-0.018": 0.0,
			"-0.017": 0.0,
			"-0.016": 0.0,
			"-0.015": 0.0,
			"-0.014": 0.0,
			"-0.013": 0.000591016059636,
			"-0.012": 2.32026256205,
			"-0.011": 2.93929604859,
			"-0.01": 5.31825094116,
			"-0.009": 10.8797882417,
			"-0.008": 9.23264807998,
			"-0.007": 8.26609177117,
			"-0.006": 9.13877739747,
			"-0.005": 11.9544921127,
			"-0.004": 10.2887778733,
			"-0.003": 8.77612183618,
			"-0.002": 9.76924117486,
			"-0.001": 9.08598394347,
			"0.0": 4.05407230145,
			"0.001": 3.10038771527,
			"0.002": 3.34982600218,
			"0.003": 3.71476437279,
			"0.004": 4.30998767576,
			"0.005": 3.94451408345,
			"0.006": 4.21630526205,
			"0.007": 4.76366680161,
			"0.008": 6.41823042878,
			"0.009": 8.37291779593,
			"0.01": 11.7711076773,
			"0.011": 13.049604313,
			"0.012": 3.49446784624,
			"0.013": 0.1968510425,
			"0.014": 0.0,
			"0.015": 0.0,
			"0.016": 0.0,
			"0.017": 0.0,
			"0.018": 0.0,
			"0.019": 0.0,
			"0.02": 0.0,
			"0.021": 0.0,
			"0.022": 0.0,
			"0.023": 0.0,
			"0.024": 0.0,
			"0.025": 0.0
		}
	}
}
