{
	 "smiles": "FC(F)(F)C1=CC=C(OCC2=CN=C(Cl)C=C2)C=C1", 
	 "Tm": 380.15, 
	 "num_atms": 28, 
	 "gaussian": { 
		 "optdone": 1, 
		 "sigma_profile": "yes", 
		 "theory": "DFT", 
		 "functional": "B3LYP", 
		 "basiset": "6-31G**", 
		 "properties": { 
			 "R2extent": 8512.1082, 
			 "electric_dipole_moment_norm": 4.68988023408, 
			 "electric_quadrupole_moment_norm": 21.143589616, 
			 "total_energy": -1390.48986557, 
			 "HOMO_LUMO_gap": 0.19499, 
			 "cosmo_polarized_energy": -11.95, 
			 "cosmo_cavitation_energy": 36.41, 
			 "cosmo_dispersion_energy": -25.63, 
			 "cosmo_repulsion_energy": 1.92, 
			 "cosmo_total_nonelectrostatic_energy": 12.7, 
			 "SMD_solvation_energy": 5.74 
		},
		"coords": [
			{
				"x": -2.1913025136,
				"y": 1.5365198371,
				"z": 4.3117538321,
				"element": "F" 
			},
			{
				"x": -3.1149458076,
				"y": 1.6553687622,
				"z": 3.3279153419,
				"element": "C" 
			},
			{
				"x": -4.058146323,
				"y": 0.7151433525,
				"z": 3.5629037754,
				"element": "F" 
			},
			{
				"x": -3.6975263687,
				"y": 2.86581949,
				"z": 3.490508465,
				"element": "F" 
			},
			{
				"x": -2.5045665477,
				"y": 1.510858448,
				"z": 1.9639927235,
				"element": "C" 
			},
			{
				"x": -1.9001824975,
				"y": 2.6150403828,
				"z": 1.3488246288,
				"element": "C" 
			},
			{
				"x": -1.2911171477,
				"y": 2.4783204663,
				"z": 0.1102139613,
				"element": "C" 
			},
			{
				"x": -1.2757577774,
				"y": 1.2307222647,
				"z": -0.5320427911,
				"element": "C" 
			},
			{
				"x": -0.6599526882,
				"y": 1.2135194373,
				"z": -1.753721981,
				"element": "O" 
			},
			{
				"x": -0.7091052835,
				"y": 0.0321530089,
				"z": -2.5477628184,
				"element": "C" 
			},
			{
				"x": 0.2857085849,
				"y": -1.0312175368,
				"z": -2.1290291026,
				"element": "C" 
			},
			{
				"x": 1.4978465572,
				"y": -0.6962652634,
				"z": -1.5193362405,
				"element": "C" 
			},
			{
				"x": 2.4304463926,
				"y": -1.5951475708,
				"z": -1.1755296228,
				"element": "N" 
			},
			{
				"x": 2.1794756135,
				"y": -2.8642002468,
				"z": -1.4381499003,
				"element": "C" 
			},
			{
				"x": 3.4191522416,
				"y": -4.030187476,
				"z": -0.9851359244,
				"element": "Cl" 
			},
			{
				"x": 1.0094715383,
				"y": -3.3329898951,
				"z": -2.042442311,
				"element": "C" 
			},
			{
				"x": 0.0505100823,
				"y": -2.3867371451,
				"z": -2.3877253288,
				"element": "C" 
			},
			{
				"x": -1.8715152078,
				"y": 0.1220485524,
				"z": 0.0801046189,
				"element": "C" 
			},
			{
				"x": -2.4835471489,
				"y": 0.2720301101,
				"z": 1.3254364704,
				"element": "C" 
			},
			{
				"x": -1.9198843363,
				"y": 3.5831121881,
				"z": 1.8380399532,
				"element": "H" 
			},
			{
				"x": -0.8275313062,
				"y": 3.3237945531,
				"z": -0.3866001872,
				"element": "H" 
			},
			{
				"x": -1.7272134546,
				"y": -0.378373064,
				"z": -2.5694653671,
				"element": "H" 
			},
			{
				"x": -0.4773510736,
				"y": 0.3810993286,
				"z": -3.5598453098,
				"element": "H" 
			},
			{
				"x": 1.7248896855,
				"y": 0.3412158212,
				"z": -1.2890883421,
				"element": "H" 
			},
			{
				"x": 0.8622964102,
				"y": -4.3907444838,
				"z": -2.2243307836,
				"element": "H" 
			},
			{
				"x": -0.8783253372,
				"y": -2.7051267774,
				"z": -2.8555403079,
				"element": "H" 
			},
			{
				"x": -1.8523188807,
				"y": -0.8547865731,
				"z": -0.3865007229,
				"element": "H" 
			},
			{
				"x": -2.9493074059,
				"y": -0.5852899708,
				"z": 1.7990532708,
				"element": "H" 
			}
		],
		 "valence_orbital": [ 
			{
				"type": "occ",
				"energy": -0.30847,
				"method": "rhf"
			},
			{
				"type": "occ",
				"energy": -0.28155,
				"method": "rhf"
			},
			{
				"type": "occ",
				"energy": -0.27257,
				"method": "rhf"
			},
			{
				"type": "occ",
				"energy": -0.26367,
				"method": "rhf"
			},
			{
				"type": "occ",
				"energy": -0.24334,
				"method": "rhf"
			},
			{
				"type": "unocc",
				"energy": -0.04835,
				"method": "rhf"
			},
			{
				"type": "unocc",
				"energy": -0.03671,
				"method": "rhf"
			},
			{
				"type": "unocc",
				"energy": -0.02039,
				"method": "rhf"
			},
			{
				"type": "unocc",
				"energy": -0.01885,
				"method": "rhf"
			},
			{
				"type": "unocc",
				"energy": 0.02834,
				"method": "rhf"
			}
		],
		"cosmo_sigma_profile": { 
			"-0.025": 0.0,
			"-0.024": 0.0,
			"-0.023": 0.0,
			"-0.022": 0.0,
			"-0.021": 0.0,
			"-0.02": 0.0,
			"-0.019": 0.0,
			"-0.018": 0.0,
			"-0.017": 0.0,
			"-0.016": 0.0,
			"-0.015": 0.0,
			"-0.014": 0.0,
			"-0.013": 0.0,
			"-0.012": 0.0,
			"-0.011": 0.0,
			"-0.01": 5.43116305702e-05,
			"-0.009": 2.22707338471,
			"-0.008": 7.64280123425,
			"-0.007": 14.0553455478,
			"-0.006": 17.5394991879,
			"-0.005": 15.609832066,
			"-0.004": 13.1670491523,
			"-0.003": 12.9690719885,
			"-0.002": 13.4636227675,
			"-0.001": 19.191335308,
			"0.0": 28.1542038574,
			"0.001": 26.8871339824,
			"0.002": 29.1720049459,
			"0.003": 50.4691484906,
			"0.004": 21.6783366005,
			"0.005": 6.78849903345,
			"0.006": 3.63142264529,
			"0.007": 2.53784359296,
			"0.008": 2.99065015859,
			"0.009": 2.13138061344,
			"0.01": 1.34509412281,
			"0.011": 0.718903602682,
			"0.012": 0.846173378214,
			"0.013": 0.765943684459,
			"0.014": 0.957375964636,
			"0.015": 0.126685514025,
			"0.016": 0.0,
			"0.017": 0.0,
			"0.018": 0.0,
			"0.019": 0.0,
			"0.02": 0.0,
			"0.021": 0.0,
			"0.022": 0.0,
			"0.023": 0.0,
			"0.024": 0.0,
			"0.025": 0.0
		}
	}
}
