{
	 "smiles": "CC1=NN=C(CN)S1", 
	 "Tm": 350.15, 
	 "num_atms": 15, 
	 "gaussian": { 
		 "optdone": 1, 
		 "sigma_profile": "yes", 
		 "theory": "DFT", 
		 "functional": "B3LYP", 
		 "basiset": "6-31G**", 
		 "properties": { 
			 "R2extent": 1731.3119, 
			 "electric_dipole_moment_norm": 2.65437250023, 
			 "electric_quadrupole_moment_norm": 5.02524229565, 
			 "total_energy": -719.056436297, 
			 "HOMO_LUMO_gap": 0.21386, 
			 "cosmo_polarized_energy": -11.42, 
			 "cosmo_cavitation_energy": 20.54, 
			 "cosmo_dispersion_energy": -15.86, 
			 "cosmo_repulsion_energy": 1.29, 
			 "cosmo_total_nonelectrostatic_energy": 5.97, 
			 "SMD_solvation_energy": 0.24 
		},
		"coords": [
			{
				"x": -3.0155545542,
				"y": -0.9341322568,
				"z": -0.1064125521,
				"element": "C" 
			},
			{
				"x": -1.9004384507,
				"y": 0.0504992664,
				"z": -0.2653272024,
				"element": "C" 
			},
			{
				"x": -1.5464204129,
				"y": 0.8929245379,
				"z": 0.660058776,
				"element": "N" 
			},
			{
				"x": -0.4985893289,
				"y": 1.7000331814,
				"z": 0.29321912,
				"element": "N" 
			},
			{
				"x": -0.058426228,
				"y": 1.470486074,
				"z": -0.908264352,
				"element": "C" 
			},
			{
				"x": 1.0922204805,
				"y": 2.2354058376,
				"z": -1.5350002794,
				"element": "C" 
			},
			{
				"x": 1.6847802838,
				"y": 3.2619090796,
				"z": -0.6933197051,
				"element": "N" 
			},
			{
				"x": -0.9321383383,
				"y": 0.1838683198,
				"z": -1.7310816524,
				"element": "S" 
			},
			{
				"x": -3.7986720138,
				"y": -0.7755567975,
				"z": -0.8548290185,
				"element": "H" 
			},
			{
				"x": -2.6576159365,
				"y": -1.9636065808,
				"z": -0.2094189279,
				"element": "H" 
			},
			{
				"x": -3.4461244941,
				"y": -0.8071495905,
				"z": 0.8885715289,
				"element": "H" 
			},
			{
				"x": 0.7426659373,
				"y": 2.6967719693,
				"z": -2.4672619225,
				"element": "H" 
			},
			{
				"x": 1.8719155954,
				"y": 1.5212644024,
				"z": -1.8286575222,
				"element": "H" 
			},
			{
				"x": 2.0001815556,
				"y": 2.8364358402,
				"z": 0.1756973658,
				"element": "H" 
			},
			{
				"x": 0.9602159049,
				"y": 3.9190467169,
				"z": -0.4124736562,
				"element": "H" 
			}
		],
		 "valence_orbital": [ 
			{
				"type": "occ",
				"energy": -0.30077,
				"method": "rhf"
			},
			{
				"type": "occ",
				"energy": -0.29304,
				"method": "rhf"
			},
			{
				"type": "occ",
				"energy": -0.26983,
				"method": "rhf"
			},
			{
				"type": "occ",
				"energy": -0.26537,
				"method": "rhf"
			},
			{
				"type": "occ",
				"energy": -0.24849,
				"method": "rhf"
			},
			{
				"type": "unocc",
				"energy": -0.03463,
				"method": "rhf"
			},
			{
				"type": "unocc",
				"energy": 0.00237,
				"method": "rhf"
			},
			{
				"type": "unocc",
				"energy": 0.03295,
				"method": "rhf"
			},
			{
				"type": "unocc",
				"energy": 0.07889,
				"method": "rhf"
			},
			{
				"type": "unocc",
				"energy": 0.09595,
				"method": "rhf"
			}
		],
		"cosmo_sigma_profile": { 
			"-0.025": 0.0,
			"-0.024": 0.0,
			"-0.023": 0.0,
			"-0.022": 0.0,
			"-0.021": 0.0,
			"-0.02": 0.0,
			"-0.019": 0.0,
			"-0.018": 0.0,
			"-0.017": 0.0,
			"-0.016": 0.0,
			"-0.015": 0.0,
			"-0.014": 0.0,
			"-0.013": 0.0,
			"-0.012": 0.0,
			"-0.011": 0.0,
			"-0.01": 1.27630755735,
			"-0.009": 2.59731290271,
			"-0.008": 1.85185249941,
			"-0.007": 4.46835293029,
			"-0.006": 17.1843839518,
			"-0.005": 16.8082101155,
			"-0.004": 12.6326543945,
			"-0.003": 12.1282116348,
			"-0.002": 13.5493477871,
			"-0.001": 14.0218353451,
			"0.0": 9.82116991219,
			"0.001": 8.85541070393,
			"0.002": 8.25495547963,
			"0.003": 5.29403444804,
			"0.004": 3.35020448703,
			"0.005": 3.4462293895,
			"0.006": 2.62594829,
			"0.007": 1.93828542254,
			"0.008": 1.82520400845,
			"0.009": 3.13279604331,
			"0.01": 3.10111126795,
			"0.011": 3.17009747708,
			"0.012": 3.81694843369,
			"0.013": 3.20437245531,
			"0.014": 2.64144874498,
			"0.015": 1.27649490492,
			"0.016": 0.691828703214,
			"0.017": 0.874302388066,
			"0.018": 0.615505671256,
			"0.019": 0.236796357294,
			"0.02": 0.0,
			"0.021": 0.0,
			"0.022": 0.0,
			"0.023": 0.0,
			"0.024": 0.0,
			"0.025": 0.0
		}
	}
}
