{
	 "smiles": "NC1=C(Cl)C=CC2=NSN=C12", 
	 "Tm": 363.15, 
	 "num_atms": 15, 
	 "gaussian": { 
		 "optdone": 1, 
		 "sigma_profile": "yes", 
		 "theory": "DFT", 
		 "functional": "B3LYP", 
		 "basiset": "6-31G**", 
		 "properties": { 
			 "R2extent": 2339.2086, 
			 "electric_dipole_moment_norm": 1.60289887703, 
			 "electric_quadrupole_moment_norm": 1.57647033591, 
			 "total_energy": -1253.64828047, 
			 "HOMO_LUMO_gap": 0.15334, 
			 "cosmo_polarized_energy": -10.06, 
			 "cosmo_cavitation_energy": 22.96, 
			 "cosmo_dispersion_energy": -18.13, 
			 "cosmo_repulsion_energy": 1.39, 
			 "cosmo_total_nonelectrostatic_energy": 6.22, 
			 "SMD_solvation_energy": 0.36 
		},
		"coords": [
			{
				"x": 1.92810307,
				"y": -0.8218496098,
				"z": 0.530739946,
				"element": "N" 
			},
			{
				"x": 0.5712211716,
				"y": -0.4314329317,
				"z": 0.3410681832,
				"element": "C" 
			},
			{
				"x": -0.3008284163,
				"y": -0.0468151687,
				"z": 1.3399322427,
				"element": "C" 
			},
			{
				"x": 0.2634489265,
				"y": -0.0199820525,
				"z": 3.0041136026,
				"element": "Cl" 
			},
			{
				"x": -1.6604239178,
				"y": 0.3396174112,
				"z": 1.110948291,
				"element": "C" 
			},
			{
				"x": -2.1889870227,
				"y": 0.3498861209,
				"z": -0.1505401007,
				"element": "C" 
			},
			{
				"x": -1.3487023527,
				"y": -0.0351102021,
				"z": -1.2340585834,
				"element": "C" 
			},
			{
				"x": -1.7018440916,
				"y": -0.081666849,
				"z": -2.5244384975,
				"element": "N" 
			},
			{
				"x": -0.3673420313,
				"y": -0.5849111675,
				"z": -3.3406767931,
				"element": "S" 
			},
			{
				"x": 0.6938569339,
				"y": -0.7602222243,
				"z": -2.1019137925,
				"element": "N" 
			},
			{
				"x": 0.0286223552,
				"y": -0.4250699929,
				"z": -0.9897706059,
				"element": "C" 
			},
			{
				"x": 2.4500931292,
				"y": -0.0714347781,
				"z": 0.9783074678,
				"element": "H" 
			},
			{
				"x": 1.9792962388,
				"y": -1.6179650126,
				"z": 1.1627950405,
				"element": "H" 
			},
			{
				"x": -2.262525521,
				"y": 0.6249312671,
				"z": 1.9663260774,
				"element": "H" 
			},
			{
				"x": -3.2163884718,
				"y": 0.64012519,
				"z": -0.3382324785,
				"element": "H" 
			}
		],
		 "valence_orbital": [ 
			{
				"type": "occ",
				"energy": -0.3274,
				"method": "rhf"
			},
			{
				"type": "occ",
				"energy": -0.303,
				"method": "rhf"
			},
			{
				"type": "occ",
				"energy": -0.26624,
				"method": "rhf"
			},
			{
				"type": "occ",
				"energy": -0.26443,
				"method": "rhf"
			},
			{
				"type": "occ",
				"energy": -0.24439,
				"method": "rhf"
			},
			{
				"type": "unocc",
				"energy": -0.09105,
				"method": "rhf"
			},
			{
				"type": "unocc",
				"energy": -0.00386,
				"method": "rhf"
			},
			{
				"type": "unocc",
				"energy": -0.00038,
				"method": "rhf"
			},
			{
				"type": "unocc",
				"energy": 0.00573,
				"method": "rhf"
			},
			{
				"type": "unocc",
				"energy": 0.02168,
				"method": "rhf"
			}
		],
		"cosmo_sigma_profile": { 
			"-0.025": 0.0,
			"-0.024": 0.0,
			"-0.023": 0.0,
			"-0.022": 0.0,
			"-0.021": 0.0,
			"-0.02": 0.0,
			"-0.019": 0.0,
			"-0.018": 0.0,
			"-0.017": 0.0,
			"-0.016": 0.0,
			"-0.015": 0.0,
			"-0.014": 0.0,
			"-0.013": 0.0,
			"-0.012": 0.865125861278,
			"-0.011": 2.21072132788,
			"-0.01": 2.53099272606,
			"-0.009": 2.92623473099,
			"-0.008": 5.34069688279,
			"-0.007": 5.53592718641,
			"-0.006": 6.21534062183,
			"-0.005": 6.92835203528,
			"-0.004": 10.3904478221,
			"-0.003": 13.2562844097,
			"-0.002": 17.5780233167,
			"-0.001": 24.1237785583,
			"0.0": 17.2810928097,
			"0.001": 16.0555158461,
			"0.002": 11.613602841,
			"0.003": 10.5431072959,
			"0.004": 9.5943441796,
			"0.005": 3.03963423554,
			"0.006": 3.04444867735,
			"0.007": 2.1612505395,
			"0.008": 2.16615261881,
			"0.009": 1.9782873966,
			"0.01": 2.61212293142,
			"0.011": 2.76201699432,
			"0.012": 1.90153852673,
			"0.013": 1.60182520041,
			"0.014": 1.34107242601,
			"0.015": 1.19128853302,
			"0.016": 1.10313860518,
			"0.017": 0.967156297725,
			"0.018": 0.709901353111,
			"0.019": 0.136944277732,
			"0.02": 0.0,
			"0.021": 0.0,
			"0.022": 0.0,
			"0.023": 0.0,
			"0.024": 0.0,
			"0.025": 0.0
		}
	}
}
