{
	 "smiles": "SC1=NN=C(S1)N1CCCCC1", 
	 "Tm": 439.15, 
	 "num_atms": 23, 
	 "gaussian": { 
		 "optdone": 1, 
		 "sigma_profile": "yes", 
		 "theory": "DFT", 
		 "functional": "B3LYP", 
		 "basiset": "6-31G**", 
		 "properties": { 
			 "R2extent": 3728.7583, 
			 "electric_dipole_moment_norm": 3.5828599861, 
			 "electric_quadrupole_moment_norm": 4.50375349126, 
			 "total_energy": -1233.97231836, 
			 "HOMO_LUMO_gap": 0.18994, 
			 "cosmo_polarized_energy": -9.88, 
			 "cosmo_cavitation_energy": 28.17, 
			 "cosmo_dispersion_energy": -22.06, 
			 "cosmo_repulsion_energy": 1.67, 
			 "cosmo_total_nonelectrostatic_energy": 7.78, 
			 "SMD_solvation_energy": 0.65 
		},
		"coords": [
			{
				"x": -3.9735890382,
				"y": -3.1830570181,
				"z": -0.9881463884,
				"element": "S" 
			},
			{
				"x": -2.9261381478,
				"y": -1.798884973,
				"z": -0.6402024213,
				"element": "C" 
			},
			{
				"x": -3.1473675678,
				"y": -0.9153152978,
				"z": 0.2787428903,
				"element": "N" 
			},
			{
				"x": -2.1721908493,
				"y": 0.0462226178,
				"z": 0.3603927801,
				"element": "N" 
			},
			{
				"x": -1.2183390319,
				"y": -0.1053252432,
				"z": -0.5249354525,
				"element": "C" 
			},
			{
				"x": -1.4396408242,
				"y": -1.538007416,
				"z": -1.5630339017,
				"element": "S" 
			},
			{
				"x": -0.1874710324,
				"y": 0.7729371601,
				"z": -0.7023575241,
				"element": "N" 
			},
			{
				"x": -0.0304267156,
				"y": 1.8583168593,
				"z": 0.2799755421,
				"element": "C" 
			},
			{
				"x": 0.9638069661,
				"y": 1.4651011463,
				"z": 1.3821518135,
				"element": "C" 
			},
			{
				"x": 2.3061283676,
				"y": 1.0191626082,
				"z": 0.778289029,
				"element": "C" 
			},
			{
				"x": 2.1043426213,
				"y": -0.0790286343,
				"z": -0.2794721814,
				"element": "C" 
			},
			{
				"x": 1.0713752272,
				"y": 0.3617957365,
				"z": -1.3290368083,
				"element": "C" 
			},
			{
				"x": -4.8366338659,
				"y": -2.8705088557,
				"z": -0.000760913,
				"element": "H" 
			},
			{
				"x": -1.013562553,
				"y": 2.0907387835,
				"z": 0.6881620123,
				"element": "H" 
			},
			{
				"x": 0.3378614665,
				"y": 2.7369794842,
				"z": -0.2663914846,
				"element": "H" 
			},
			{
				"x": 1.1096432361,
				"y": 2.3133324597,
				"z": 2.0612374527,
				"element": "H" 
			},
			{
				"x": 0.52635414,
				"y": 0.6512447731,
				"z": 1.9731752582,
				"element": "H" 
			},
			{
				"x": 2.9818153313,
				"y": 0.666863269,
				"z": 1.5655078809,
				"element": "H" 
			},
			{
				"x": 2.7969055785,
				"y": 1.8839894991,
				"z": 0.3088904001,
				"element": "H" 
			},
			{
				"x": 3.051781711,
				"y": -0.3177534912,
				"z": -0.7771459629,
				"element": "H" 
			},
			{
				"x": 1.750937198,
				"y": -1.0004532732,
				"z": 0.2008261868,
				"element": "H" 
			},
			{
				"x": 1.4552846877,
				"y": 1.2230169988,
				"z": -1.8918703641,
				"element": "H" 
			},
			{
				"x": 0.8765230949,
				"y": -0.430667193,
				"z": -2.0564978439,
				"element": "H" 
			}
		],
		 "valence_orbital": [ 
			{
				"type": "occ",
				"energy": -0.2957,
				"method": "rhf"
			},
			{
				"type": "occ",
				"energy": -0.29304,
				"method": "rhf"
			},
			{
				"type": "occ",
				"energy": -0.26208,
				"method": "rhf"
			},
			{
				"type": "occ",
				"energy": -0.25711,
				"method": "rhf"
			},
			{
				"type": "occ",
				"energy": -0.20396,
				"method": "rhf"
			},
			{
				"type": "unocc",
				"energy": -0.01402,
				"method": "rhf"
			},
			{
				"type": "unocc",
				"energy": -0.00918,
				"method": "rhf"
			},
			{
				"type": "unocc",
				"energy": 0.02073,
				"method": "rhf"
			},
			{
				"type": "unocc",
				"energy": 0.04319,
				"method": "rhf"
			},
			{
				"type": "unocc",
				"energy": 0.04927,
				"method": "rhf"
			}
		],
		"cosmo_sigma_profile": { 
			"-0.025": 0.0,
			"-0.024": 0.0,
			"-0.023": 0.0,
			"-0.022": 0.0,
			"-0.021": 0.0,
			"-0.02": 0.0,
			"-0.019": 0.0,
			"-0.018": 0.0,
			"-0.017": 0.0,
			"-0.016": 0.0,
			"-0.015": 0.0,
			"-0.014": 0.0,
			"-0.013": 0.00735187340815,
			"-0.012": 0.758743769635,
			"-0.011": 1.26447325579,
			"-0.01": 1.52113798323,
			"-0.009": 1.06291386945,
			"-0.008": 0.921196187925,
			"-0.007": 1.84304215974,
			"-0.006": 3.82301068862,
			"-0.005": 10.3397483337,
			"-0.004": 16.5948224202,
			"-0.003": 29.9759170625,
			"-0.002": 28.8838572047,
			"-0.001": 25.409779183,
			"0.0": 25.839654401,
			"0.001": 15.8837313202,
			"0.002": 13.4252844116,
			"0.003": 10.249631219,
			"0.004": 7.14560081935,
			"0.005": 5.75739020113,
			"0.006": 5.13027099057,
			"0.007": 3.8191364749,
			"0.008": 1.79717213084,
			"0.009": 2.4974892093,
			"0.01": 1.92627641096,
			"0.011": 2.17853755676,
			"0.012": 3.78276747638,
			"0.013": 2.88508004506,
			"0.014": 1.68653758478,
			"0.015": 0.319547678176,
			"0.016": 0.0,
			"0.017": 0.0,
			"0.018": 0.0,
			"0.019": 0.0,
			"0.02": 0.0,
			"0.021": 0.0,
			"0.022": 0.0,
			"0.023": 0.0,
			"0.024": 0.0,
			"0.025": 0.0
		}
	}
}
