{
	 "smiles": "COC1=C(C=CC(Cl)=C1)S(Cl)(=O)=O", 
	 "Tm": 363.15, 
	 "num_atms": 19, 
	 "gaussian": { 
		 "optdone": 1, 
		 "sigma_profile": "yes", 
		 "theory": "DFT", 
		 "functional": "B3LYP", 
		 "basiset": "6-31G**", 
		 "properties": { 
			 "R2extent": 4293.5144, 
			 "electric_dipole_moment_norm": 4.96535866479, 
			 "electric_quadrupole_moment_norm": 21.7639599198, 
			 "total_energy": -1814.51847664, 
			 "HOMO_LUMO_gap": 0.17622, 
			 "cosmo_polarized_energy": -11.57, 
			 "cosmo_cavitation_energy": 28.6, 
			 "cosmo_dispersion_energy": -21.3, 
			 "cosmo_repulsion_energy": 1.65, 
			 "cosmo_total_nonelectrostatic_energy": 8.95, 
			 "SMD_solvation_energy": 4.23 
		},
		"coords": [
			{
				"x": 0.201474019,
				"y": -2.1922688137,
				"z": 1.1129929929,
				"element": "C" 
			},
			{
				"x": 1.0032049375,
				"y": -1.1046074962,
				"z": 0.6567392508,
				"element": "O" 
			},
			{
				"x": 0.4281151915,
				"y": -0.1047262341,
				"z": -0.0321462792,
				"element": "C" 
			},
			{
				"x": 1.2643430545,
				"y": 0.9497011139,
				"z": -0.4631337657,
				"element": "C" 
			},
			{
				"x": 0.7583756904,
				"y": 2.0129331285,
				"z": -1.2102624678,
				"element": "C" 
			},
			{
				"x": -0.5946821515,
				"y": 2.0647690924,
				"z": -1.5336166341,
				"element": "C" 
			},
			{
				"x": -1.4188170291,
				"y": 1.0274922706,
				"z": -1.0991397605,
				"element": "C" 
			},
			{
				"x": -3.1238072923,
				"y": 1.0680539204,
				"z": -1.4932968003,
				"element": "Cl" 
			},
			{
				"x": -0.9328324641,
				"y": -0.0512471895,
				"z": -0.360297145,
				"element": "C" 
			},
			{
				"x": 2.9966044008,
				"y": 1.0010165161,
				"z": -0.0357296672,
				"element": "S" 
			},
			{
				"x": 3.7725279766,
				"y": -0.6302963068,
				"z": -1.167463008,
				"element": "Cl" 
			},
			{
				"x": 3.2011290891,
				"y": 0.6711172663,
				"z": 1.3669192406,
				"element": "O" 
			},
			{
				"x": 3.5704508708,
				"y": 2.2050437463,
				"z": -0.6268023372,
				"element": "O" 
			},
			{
				"x": 0.8862038452,
				"y": -2.8564950144,
				"z": 1.6390463924,
				"element": "H" 
			},
			{
				"x": -0.2561614721,
				"y": -2.7268596987,
				"z": 0.2728946486,
				"element": "H" 
			},
			{
				"x": -0.5770151212,
				"y": -1.8472688426,
				"z": 1.8026644002,
				"element": "H" 
			},
			{
				"x": 1.4340596044,
				"y": 2.7979123046,
				"z": -1.5291671457,
				"element": "H" 
			},
			{
				"x": -0.9996798881,
				"y": 2.8890144432,
				"z": -2.1075070707,
				"element": "H" 
			},
			{
				"x": -1.6103932615,
				"y": -0.8354842062,
				"z": -0.0513948439,
				"element": "H" 
			}
		],
		 "valence_orbital": [ 
			{
				"type": "occ",
				"energy": -0.3297,
				"method": "rhf"
			},
			{
				"type": "occ",
				"energy": -0.32698,
				"method": "rhf"
			},
			{
				"type": "occ",
				"energy": -0.30838,
				"method": "rhf"
			},
			{
				"type": "occ",
				"energy": -0.28414,
				"method": "rhf"
			},
			{
				"type": "occ",
				"energy": -0.26197,
				"method": "rhf"
			},
			{
				"type": "unocc",
				"energy": -0.08575,
				"method": "rhf"
			},
			{
				"type": "unocc",
				"energy": -0.05027,
				"method": "rhf"
			},
			{
				"type": "unocc",
				"energy": -0.03218,
				"method": "rhf"
			},
			{
				"type": "unocc",
				"energy": 0.00568,
				"method": "rhf"
			},
			{
				"type": "unocc",
				"energy": 0.0506,
				"method": "rhf"
			}
		],
		"cosmo_sigma_profile": { 
			"-0.025": 0.0,
			"-0.024": 0.0,
			"-0.023": 0.0,
			"-0.022": 0.0,
			"-0.021": 0.0,
			"-0.02": 0.0,
			"-0.019": 0.0,
			"-0.018": 0.0,
			"-0.017": 0.0,
			"-0.016": 0.0,
			"-0.015": 0.0,
			"-0.014": 0.0,
			"-0.013": 0.0,
			"-0.012": 0.0,
			"-0.011": 0.0,
			"-0.01": 0.191875416597,
			"-0.009": 2.86310800431,
			"-0.008": 6.992611505,
			"-0.007": 11.66338655,
			"-0.006": 12.6266423799,
			"-0.005": 12.5603507485,
			"-0.004": 12.647687084,
			"-0.003": 12.0409905416,
			"-0.002": 14.4838470918,
			"-0.001": 19.7567257924,
			"0.0": 22.6955637845,
			"0.001": 17.9274020248,
			"0.002": 14.9078028958,
			"0.003": 20.9260821771,
			"0.004": 16.9076922174,
			"0.005": 5.59051057429,
			"0.006": 5.10307363905,
			"0.007": 5.20761201097,
			"0.008": 10.8072970284,
			"0.009": 7.45280554595,
			"0.01": 1.14140717174,
			"0.011": 0.0204015018371,
			"0.012": 0.0,
			"0.013": 0.0,
			"0.014": 0.0,
			"0.015": 0.0,
			"0.016": 0.0,
			"0.017": 0.0,
			"0.018": 0.0,
			"0.019": 0.0,
			"0.02": 0.0,
			"0.021": 0.0,
			"0.022": 0.0,
			"0.023": 0.0,
			"0.024": 0.0,
			"0.025": 0.0
		}
	}
}
