{
	 "smiles": "FC(F)(F)C1=NC(Cl)=NC=C1C(=O)OCC1CC1", 
	 "Tm": 382.15, 
	 "num_atms": 26, 
	 "gaussian": { 
		 "optdone": 1, 
		 "sigma_profile": "yes", 
		 "theory": "DFT", 
		 "functional": "B3LYP", 
		 "basiset": "6-31G**", 
		 "properties": { 
			 "R2extent": 6276.7681, 
			 "electric_dipole_moment_norm": 3.3184970107, 
			 "electric_quadrupole_moment_norm": 9.54094352934, 
			 "total_energy": -1405.5144087, 
			 "HOMO_LUMO_gap": 0.19927, 
			 "cosmo_polarized_energy": -9.79, 
			 "cosmo_cavitation_energy": 34.27, 
			 "cosmo_dispersion_energy": -23.82, 
			 "cosmo_repulsion_energy": 1.81, 
			 "cosmo_total_nonelectrostatic_energy": 12.26, 
			 "SMD_solvation_energy": 4.3 
		},
		"coords": [
			{
				"x": -0.5656265392,
				"y": 2.1826116341,
				"z": -0.65652907,
				"element": "F" 
			},
			{
				"x": -0.9511925646,
				"y": 1.374934249,
				"z": 0.3455638118,
				"element": "C" 
			},
			{
				"x": 0.1538969104,
				"y": 0.8224898087,
				"z": 0.89516961,
				"element": "F" 
			},
			{
				"x": -1.534060106,
				"y": 2.1278738078,
				"z": 1.2833123649,
				"element": "F" 
			},
			{
				"x": -1.9049673476,
				"y": 0.2845248415,
				"z": -0.1544098331,
				"element": "C" 
			},
			{
				"x": -3.1909576996,
				"y": 0.5094485108,
				"z": 0.1182066168,
				"element": "N" 
			},
			{
				"x": -4.0500810924,
				"y": -0.4342705455,
				"z": -0.2457816413,
				"element": "C" 
			},
			{
				"x": -5.7319292435,
				"y": -0.1002700697,
				"z": 0.0648650964,
				"element": "Cl" 
			},
			{
				"x": -3.7766779912,
				"y": -1.6090856906,
				"z": -0.8052187055,
				"element": "N" 
			},
			{
				"x": -2.4877099343,
				"y": -1.8211605633,
				"z": -1.0723727728,
				"element": "C" 
			},
			{
				"x": -1.4802510391,
				"y": -0.8844401761,
				"z": -0.8042168813,
				"element": "C" 
			},
			{
				"x": -0.0815453571,
				"y": -1.251760445,
				"z": -1.1986676378,
				"element": "C" 
			},
			{
				"x": 0.3257944534,
				"y": -2.3952664925,
				"z": -1.1725913107,
				"element": "O" 
			},
			{
				"x": 0.6143328052,
				"y": -0.1919994643,
				"z": -1.6159787668,
				"element": "O" 
			},
			{
				"x": 2.0214677406,
				"y": -0.4159152164,
				"z": -1.9210079758,
				"element": "C" 
			},
			{
				"x": 2.6247239668,
				"y": 0.9075462691,
				"z": -2.2861201214,
				"element": "C" 
			},
			{
				"x": 2.8987802357,
				"y": 1.915339518,
				"z": -1.1972975491,
				"element": "C" 
			},
			{
				"x": 4.0470121733,
				"y": 1.2054625351,
				"z": -1.8648239618,
				"element": "C" 
			},
			{
				"x": -2.2237320205,
				"y": -2.774656917,
				"z": -1.5223592823,
				"element": "H" 
			},
			{
				"x": 2.4956470952,
				"y": -0.849331482,
				"z": -1.034592539,
				"element": "H" 
			},
			{
				"x": 2.0858458376,
				"y": -1.1493001396,
				"z": -2.7303866875,
				"element": "H" 
			},
			{
				"x": 2.3061920256,
				"y": 1.3017943239,
				"z": -3.2479992622,
				"element": "H" 
			},
			{
				"x": 2.7337579715,
				"y": 2.9630963611,
				"z": -1.4263234514,
				"element": "H" 
			},
			{
				"x": 2.6366308586,
				"y": 1.6372036255,
				"z": -0.1811543368,
				"element": "H" 
			},
			{
				"x": 4.5811211556,
				"y": 0.4475676801,
				"z": -1.2984736847,
				"element": "H" 
			},
			{
				"x": 4.6720277057,
				"y": 1.7622640373,
				"z": -2.5556120284,
				"element": "H" 
			}
		],
		 "valence_orbital": [ 
			{
				"type": "occ",
				"energy": -0.31498,
				"method": "rhf"
			},
			{
				"type": "occ",
				"energy": -0.30358,
				"method": "rhf"
			},
			{
				"type": "occ",
				"energy": -0.29952,
				"method": "rhf"
			},
			{
				"type": "occ",
				"energy": -0.29022,
				"method": "rhf"
			},
			{
				"type": "occ",
				"energy": -0.28764,
				"method": "rhf"
			},
			{
				"type": "unocc",
				"energy": -0.08837,
				"method": "rhf"
			},
			{
				"type": "unocc",
				"energy": -0.07669,
				"method": "rhf"
			},
			{
				"type": "unocc",
				"energy": 0.00688,
				"method": "rhf"
			},
			{
				"type": "unocc",
				"energy": 0.02389,
				"method": "rhf"
			},
			{
				"type": "unocc",
				"energy": 0.08104,
				"method": "rhf"
			}
		],
		"cosmo_sigma_profile": { 
			"-0.025": 0.0,
			"-0.024": 0.0,
			"-0.023": 0.0,
			"-0.022": 0.0,
			"-0.021": 0.0,
			"-0.02": 0.0,
			"-0.019": 0.0,
			"-0.018": 0.0,
			"-0.017": 0.0,
			"-0.016": 0.0,
			"-0.015": 0.0,
			"-0.014": 0.0,
			"-0.013": 0.0,
			"-0.012": 0.0,
			"-0.011": 0.0,
			"-0.01": 0.849058529874,
			"-0.009": 1.59976208389,
			"-0.008": 2.88425341566,
			"-0.007": 6.69585340761,
			"-0.006": 12.5155692429,
			"-0.005": 18.9196587657,
			"-0.004": 24.2742255446,
			"-0.003": 22.0902382491,
			"-0.002": 19.1056158369,
			"-0.001": 20.0889907016,
			"0.0": 21.9189671367,
			"0.001": 22.3612030677,
			"0.002": 34.6484476555,
			"0.003": 20.7087428497,
			"0.004": 10.7524073918,
			"0.005": 8.24161932864,
			"0.006": 6.49914654129,
			"0.007": 4.79806713809,
			"0.008": 3.34964292936,
			"0.009": 4.4800217151,
			"0.01": 4.75799018019,
			"0.011": 4.572231928,
			"0.012": 0.680856273629,
			"0.013": 0.0380705444092,
			"0.014": 0.0,
			"0.015": 0.0,
			"0.016": 0.0,
			"0.017": 0.0,
			"0.018": 0.0,
			"0.019": 0.0,
			"0.02": 0.0,
			"0.021": 0.0,
			"0.022": 0.0,
			"0.023": 0.0,
			"0.024": 0.0,
			"0.025": 0.0
		}
	}
}
