{
	 "smiles": "COC1=CC=C(OC(F)(F)F)C=C1C=O", 
	 "Tm": 295.65, 
	 "num_atms": 22, 
	 "gaussian": { 
		 "optdone": 1, 
		 "sigma_profile": "yes", 
		 "theory": "DFT", 
		 "functional": "B3LYP", 
		 "basiset": "6-31G**", 
		 "properties": { 
			 "R2extent": 6574.4328, 
			 "electric_dipole_moment_norm": 5.69657188316, 
			 "electric_quadrupole_moment_norm": 13.6304153011, 
			 "total_energy": -872.345994735, 
			 "HOMO_LUMO_gap": 0.16623, 
			 "cosmo_polarized_energy": -9.33, 
			 "cosmo_cavitation_energy": 28.49, 
			 "cosmo_dispersion_energy": -20.23, 
			 "cosmo_repulsion_energy": 1.52, 
			 "cosmo_total_nonelectrostatic_energy": 9.78, 
			 "SMD_solvation_energy": 8.32 
		},
		"coords": [
			{
				"x": 1.673387985,
				"y": -0.7826760508,
				"z": -1.4325837618,
				"element": "C" 
			},
			{
				"x": 1.5106153261,
				"y": 0.4994408957,
				"z": -0.8400926601,
				"element": "O" 
			},
			{
				"x": 0.253471297,
				"y": 0.9386631768,
				"z": -0.5631251239,
				"element": "C" 
			},
			{
				"x": -0.9106691851,
				"y": 0.2027784797,
				"z": -0.8256927925,
				"element": "C" 
			},
			{
				"x": -2.1563978221,
				"y": 0.7354590305,
				"z": -0.5069984338,
				"element": "C" 
			},
			{
				"x": -2.2585271585,
				"y": 2.0004817975,
				"z": 0.0739383316,
				"element": "C" 
			},
			{
				"x": -3.5691001064,
				"y": 2.4059138291,
				"z": 0.3387315338,
				"element": "O" 
			},
			{
				"x": -3.8264093812,
				"y": 3.611961078,
				"z": 0.9030865886,
				"element": "C" 
			},
			{
				"x": -3.2670265058,
				"y": 3.7411436406,
				"z": 2.1211017387,
				"element": "F" 
			},
			{
				"x": -5.1486421725,
				"y": 3.714406993,
				"z": 1.0305761955,
				"element": "F" 
			},
			{
				"x": -3.3876622853,
				"y": 4.6380386533,
				"z": 0.1495352736,
				"element": "F" 
			},
			{
				"x": -1.1173610427,
				"y": 2.7428577365,
				"z": 0.3409056556,
				"element": "C" 
			},
			{
				"x": 0.143271801,
				"y": 2.2177575306,
				"z": 0.0247249726,
				"element": "C" 
			},
			{
				"x": 1.3400330257,
				"y": 3.0407484824,
				"z": 0.324865116,
				"element": "C" 
			},
			{
				"x": 1.2799007638,
				"y": 4.1478054394,
				"z": 0.8314468719,
				"element": "O" 
			},
			{
				"x": 1.2829565308,
				"y": -1.5771508579,
				"z": -0.7848833305,
				"element": "H" 
			},
			{
				"x": 1.1827702596,
				"y": -0.8379203515,
				"z": -2.412069154,
				"element": "H" 
			},
			{
				"x": 2.7479522416,
				"y": -0.9173671092,
				"z": -1.5599389362,
				"element": "H" 
			},
			{
				"x": -0.8593787017,
				"y": -0.7807393266,
				"z": -1.2755898356,
				"element": "H" 
			},
			{
				"x": -3.063803759,
				"y": 0.1749894192,
				"z": -0.7057201073,
				"element": "H" 
			},
			{
				"x": -1.1434087723,
				"y": 3.7276746761,
				"z": 0.7898308188,
				"element": "H" 
			},
			{
				"x": 2.311327662,
				"y": 2.5864328375,
				"z": 0.0586510391,
				"element": "H" 
			}
		],
		 "valence_orbital": [ 
			{
				"type": "occ",
				"energy": -0.35324,
				"method": "rhf"
			},
			{
				"type": "occ",
				"energy": -0.32644,
				"method": "rhf"
			},
			{
				"type": "occ",
				"energy": -0.27469,
				"method": "rhf"
			},
			{
				"type": "occ",
				"energy": -0.25323,
				"method": "rhf"
			},
			{
				"type": "occ",
				"energy": -0.23466,
				"method": "rhf"
			},
			{
				"type": "unocc",
				"energy": -0.06843,
				"method": "rhf"
			},
			{
				"type": "unocc",
				"energy": -0.00775,
				"method": "rhf"
			},
			{
				"type": "unocc",
				"energy": 0.03344,
				"method": "rhf"
			},
			{
				"type": "unocc",
				"energy": 0.07385,
				"method": "rhf"
			},
			{
				"type": "unocc",
				"energy": 0.08891,
				"method": "rhf"
			}
		],
		"cosmo_sigma_profile": { 
			"-0.025": 0.0,
			"-0.024": 0.0,
			"-0.023": 0.0,
			"-0.022": 0.0,
			"-0.021": 0.0,
			"-0.02": 0.0,
			"-0.019": 0.0,
			"-0.018": 0.0,
			"-0.017": 0.0,
			"-0.016": 0.0,
			"-0.015": 0.0,
			"-0.014": 0.0,
			"-0.013": 0.0,
			"-0.012": 0.0,
			"-0.011": 0.0,
			"-0.01": 0.0,
			"-0.009": 0.132342347914,
			"-0.008": 3.32223420566,
			"-0.007": 6.160316608,
			"-0.006": 13.9979485946,
			"-0.005": 11.717763801,
			"-0.004": 14.5810073416,
			"-0.003": 14.1081011963,
			"-0.002": 12.1103179694,
			"-0.001": 16.6319678218,
			"0.0": 24.7717646755,
			"0.001": 38.9465482488,
			"0.002": 36.2026589892,
			"0.003": 7.47862982779,
			"0.004": 4.87857274322,
			"0.005": 6.17974967344,
			"0.006": 2.22603141122,
			"0.007": 1.33874273607,
			"0.008": 2.33062702062,
			"0.009": 1.55021664814,
			"0.01": 2.61815349532,
			"0.011": 4.12748203194,
			"0.012": 2.61305982452,
			"0.013": 0.735158379904,
			"0.014": 0.0,
			"0.015": 0.0,
			"0.016": 0.0,
			"0.017": 0.0,
			"0.018": 0.0,
			"0.019": 0.0,
			"0.02": 0.0,
			"0.021": 0.0,
			"0.022": 0.0,
			"0.023": 0.0,
			"0.024": 0.0,
			"0.025": 0.0
		}
	}
}
