{
	 "smiles": "CCOC(=O)C1=CC=C2OCOC2=C1", 
	 "Tm": 291.65, 
	 "num_atms": 24, 
	 "gaussian": { 
		 "optdone": 1, 
		 "sigma_profile": "yes", 
		 "theory": "DFT", 
		 "functional": "B3LYP", 
		 "basiset": "6-31G**", 
		 "properties": { 
			 "R2extent": 4195.1514, 
			 "electric_dipole_moment_norm": 2.31239357809, 
			 "electric_quadrupole_moment_norm": 10.5827803861, 
			 "total_energy": -687.97904858, 
			 "HOMO_LUMO_gap": 0.17797, 
			 "cosmo_polarized_energy": -9.16, 
			 "cosmo_cavitation_energy": 28.3, 
			 "cosmo_dispersion_energy": -21.24, 
			 "cosmo_repulsion_energy": 1.68, 
			 "cosmo_total_nonelectrostatic_energy": 8.74, 
			 "SMD_solvation_energy": 6.66 
		},
		"coords": [
			{
				"x": 2.7006061379,
				"y": -1.7608751478,
				"z": -1.5306662173,
				"element": "C" 
			},
			{
				"x": 1.3150088984,
				"y": -2.005863471,
				"z": -2.1097792195,
				"element": "C" 
			},
			{
				"x": 0.2808474328,
				"y": -1.5005235866,
				"z": -1.2345561765,
				"element": "O" 
			},
			{
				"x": -0.0340600296,
				"y": -0.1888141297,
				"z": -1.366900561,
				"element": "C" 
			},
			{
				"x": 0.5002389765,
				"y": 0.5500365808,
				"z": -2.1739329591,
				"element": "O" 
			},
			{
				"x": -1.1020947349,
				"y": 0.2318182094,
				"z": -0.4214147452,
				"element": "C" 
			},
			{
				"x": -1.5173926279,
				"y": 1.5682190911,
				"z": -0.4686026327,
				"element": "C" 
			},
			{
				"x": -2.51813984,
				"y": 2.0556755075,
				"z": 0.383580813,
				"element": "C" 
			},
			{
				"x": -3.0721828824,
				"y": 1.1513432175,
				"z": 1.2715227161,
				"element": "C" 
			},
			{
				"x": -4.052911156,
				"y": 1.3707739011,
				"z": 2.1993231834,
				"element": "O" 
			},
			{
				"x": -4.2664862423,
				"y": 0.1156227776,
				"z": 2.8629565264,
				"element": "C" 
			},
			{
				"x": -3.3756680654,
				"y": -0.8466937899,
				"z": 2.2910389326,
				"element": "O" 
			},
			{
				"x": -2.661362411,
				"y": -0.1813826889,
				"z": 1.3227817001,
				"element": "C" 
			},
			{
				"x": -1.6808722833,
				"y": -0.6785520557,
				"z": 0.4942523646,
				"element": "C" 
			},
			{
				"x": 3.4589579428,
				"y": -2.2192939262,
				"z": -2.174301493,
				"element": "H" 
			},
			{
				"x": 2.7885686658,
				"y": -2.1974503792,
				"z": -0.5313424921,
				"element": "H" 
			},
			{
				"x": 2.9052613389,
				"y": -0.6894008816,
				"z": -1.4689320075,
				"element": "H" 
			},
			{
				"x": 1.2094399004,
				"y": -1.5335217744,
				"z": -3.0892180389,
				"element": "H" 
			},
			{
				"x": 1.1001895724,
				"y": -3.0739466575,
				"z": -2.1957303149,
				"element": "H" 
			},
			{
				"x": -1.0414741763,
				"y": 2.2241785247,
				"z": -1.1885244622,
				"element": "H" 
			},
			{
				"x": -2.8452305854,
				"y": 3.0885461777,
				"z": 0.3530371234,
				"element": "H" 
			},
			{
				"x": -5.3042154745,
				"y": -0.2042755553,
				"z": 2.7085818564,
				"element": "H" 
			},
			{
				"x": -4.0501603248,
				"y": 0.2293632112,
				"z": 3.9322164588,
				"element": "H" 
			},
			{
				"x": -1.3638680319,
				"y": -1.7121831546,
				"z": 0.5359096451,
				"element": "H" 
			}
		],
		 "valence_orbital": [ 
			{
				"type": "occ",
				"energy": -0.31698,
				"method": "rhf"
			},
			{
				"type": "occ",
				"energy": -0.29306,
				"method": "rhf"
			},
			{
				"type": "occ",
				"energy": -0.26815,
				"method": "rhf"
			},
			{
				"type": "occ",
				"energy": -0.25443,
				"method": "rhf"
			},
			{
				"type": "occ",
				"energy": -0.21495,
				"method": "rhf"
			},
			{
				"type": "unocc",
				"energy": -0.03698,
				"method": "rhf"
			},
			{
				"type": "unocc",
				"energy": -0.00253,
				"method": "rhf"
			},
			{
				"type": "unocc",
				"energy": 0.07028,
				"method": "rhf"
			},
			{
				"type": "unocc",
				"energy": 0.09487,
				"method": "rhf"
			},
			{
				"type": "unocc",
				"energy": 0.10086,
				"method": "rhf"
			}
		],
		"cosmo_sigma_profile": { 
			"-0.025": 0.0,
			"-0.024": 0.0,
			"-0.023": 0.0,
			"-0.022": 0.0,
			"-0.021": 0.0,
			"-0.02": 0.0,
			"-0.019": 0.0,
			"-0.018": 0.0,
			"-0.017": 0.0,
			"-0.016": 0.0,
			"-0.015": 0.0,
			"-0.014": 0.0,
			"-0.013": 0.0,
			"-0.012": 0.0,
			"-0.011": 0.0,
			"-0.01": 0.0,
			"-0.009": 0.00476145854879,
			"-0.008": 5.33305254563,
			"-0.007": 9.78768923919,
			"-0.006": 11.1165456023,
			"-0.005": 11.8426620611,
			"-0.004": 16.5195593364,
			"-0.003": 18.4176367811,
			"-0.002": 17.1410949879,
			"-0.001": 18.3144550956,
			"0.0": 19.7889219875,
			"0.001": 19.4019607228,
			"0.002": 19.0585802947,
			"0.003": 16.9227381708,
			"0.004": 8.45858716552,
			"0.005": 6.78550699915,
			"0.006": 4.75551506376,
			"0.007": 3.84502579179,
			"0.008": 4.78186151421,
			"0.009": 4.46385142818,
			"0.01": 1.88882779661,
			"0.011": 2.1638739928,
			"0.012": 4.18484375689,
			"0.013": 0.66320553145,
			"0.014": 0.0,
			"0.015": 0.0,
			"0.016": 0.0,
			"0.017": 0.0,
			"0.018": 0.0,
			"0.019": 0.0,
			"0.02": 0.0,
			"0.021": 0.0,
			"0.022": 0.0,
			"0.023": 0.0,
			"0.024": 0.0,
			"0.025": 0.0
		}
	}
}
