{
	 "smiles": "CCCSCC", 
	 "Tm": 156.15, 
	 "num_atms": 18, 
	 "gaussian": { 
		 "optdone": 1, 
		 "sigma_profile": "yes", 
		 "theory": "DFT", 
		 "functional": "B3LYP", 
		 "basiset": "6-31G**", 
		 "properties": { 
			 "R2extent": 1143.7188, 
			 "electric_dipole_moment_norm": 1.74644508932, 
			 "electric_quadrupole_moment_norm": 3.67884363897, 
			 "total_energy": -595.965821831, 
			 "HOMO_LUMO_gap": 0.2654, 
			 "cosmo_polarized_energy": -4.07, 
			 "cosmo_cavitation_energy": 21.12, 
			 "cosmo_dispersion_energy": -15.9, 
			 "cosmo_repulsion_energy": 1.33, 
			 "cosmo_total_nonelectrostatic_energy": 6.55, 
			 "SMD_solvation_energy": 3.39 
		},
		"coords": [
			{
				"x": 1.6835576983,
				"y": 2.237388409,
				"z": -2.203240194,
				"element": "C" 
			},
			{
				"x": 0.5002950161,
				"y": 1.2700259865,
				"z": -2.1209729943,
				"element": "C" 
			},
			{
				"x": -0.3192928637,
				"y": 1.391072354,
				"z": -0.8292718155,
				"element": "C" 
			},
			{
				"x": 0.5585461221,
				"y": 0.927711681,
				"z": 0.7209804691,
				"element": "S" 
			},
			{
				"x": 0.587427055,
				"y": -0.9073386875,
				"z": 0.6009438817,
				"element": "C" 
			},
			{
				"x": -0.7588266603,
				"y": -1.588349654,
				"z": 0.8452632878,
				"element": "C" 
			},
			{
				"x": 2.3795246322,
				"y": 2.0766154122,
				"z": -1.3748547125,
				"element": "H" 
			},
			{
				"x": 1.3436274841,
				"y": 3.2786308707,
				"z": -2.1573220205,
				"element": "H" 
			},
			{
				"x": 2.23346873,
				"y": 2.1074791001,
				"z": -3.1408728446,
				"element": "H" 
			},
			{
				"x": -0.1818467209,
				"y": 1.4499722738,
				"z": -2.9636546545,
				"element": "H" 
			},
			{
				"x": 0.8539075399,
				"y": 0.2377516167,
				"z": -2.2372763625,
				"element": "H" 
			},
			{
				"x": -0.6198332044,
				"y": 2.4320765064,
				"z": -0.6674286193,
				"element": "H" 
			},
			{
				"x": -1.2407954677,
				"y": 0.804223717,
				"z": -0.8960703126,
				"element": "H" 
			},
			{
				"x": 1.3144423306,
				"y": -1.2113055595,
				"z": 1.3605151692,
				"element": "H" 
			},
			{
				"x": 1.0070889835,
				"y": -1.1949085252,
				"z": -0.3684888313,
				"element": "H" 
			},
			{
				"x": -1.5027733464,
				"y": -1.2951377709,
				"z": 0.0979897847,
				"element": "H" 
			},
			{
				"x": -0.6493830298,
				"y": -2.6780207664,
				"z": 0.7903056775,
				"element": "H" 
			},
			{
				"x": -1.1542342988,
				"y": -1.330986964,
				"z": 1.8317550915,
				"element": "H" 
			}
		],
		 "valence_orbital": [ 
			{
				"type": "occ",
				"energy": -0.34801,
				"method": "rhf"
			},
			{
				"type": "occ",
				"energy": -0.34455,
				"method": "rhf"
			},
			{
				"type": "occ",
				"energy": -0.32544,
				"method": "rhf"
			},
			{
				"type": "occ",
				"energy": -0.29109,
				"method": "rhf"
			},
			{
				"type": "occ",
				"energy": -0.21518,
				"method": "rhf"
			},
			{
				"type": "unocc",
				"energy": 0.05022,
				"method": "rhf"
			},
			{
				"type": "unocc",
				"energy": 0.07388,
				"method": "rhf"
			},
			{
				"type": "unocc",
				"energy": 0.0875,
				"method": "rhf"
			},
			{
				"type": "unocc",
				"energy": 0.11989,
				"method": "rhf"
			},
			{
				"type": "unocc",
				"energy": 0.1209,
				"method": "rhf"
			}
		],
		"cosmo_sigma_profile": { 
			"-0.025": 0.0,
			"-0.024": 0.0,
			"-0.023": 0.0,
			"-0.022": 0.0,
			"-0.021": 0.0,
			"-0.02": 0.0,
			"-0.019": 0.0,
			"-0.018": 0.0,
			"-0.017": 0.0,
			"-0.016": 0.0,
			"-0.015": 0.0,
			"-0.014": 0.0,
			"-0.013": 0.0,
			"-0.012": 0.0,
			"-0.011": 0.0,
			"-0.01": 0.0,
			"-0.009": 0.0,
			"-0.008": 0.0,
			"-0.007": 0.0,
			"-0.006": 0.0918138905449,
			"-0.005": 5.63613199113,
			"-0.004": 11.5291031875,
			"-0.003": 20.7921335509,
			"-0.002": 25.023562257,
			"-0.001": 26.4500921373,
			"0.0": 21.1592443461,
			"0.001": 19.1094203697,
			"0.002": 8.62569035652,
			"0.003": 4.00418077515,
			"0.004": 3.42806584782,
			"0.005": 2.8871193173,
			"0.006": 3.96800811569,
			"0.007": 3.37601409131,
			"0.008": 3.18843248638,
			"0.009": 2.49919923197,
			"0.01": 2.0781077824,
			"0.011": 1.11119417443,
			"0.012": 0.555958138396,
			"0.013": 0.0215074445343,
			"0.014": 0.0,
			"0.015": 0.0,
			"0.016": 0.0,
			"0.017": 0.0,
			"0.018": 0.0,
			"0.019": 0.0,
			"0.02": 0.0,
			"0.021": 0.0,
			"0.022": 0.0,
			"0.023": 0.0,
			"0.024": 0.0,
			"0.025": 0.0
		}
	}
}
