{
	 "smiles": "[N-]=[N+]=NC(=O)C=CC1=CC=C(C=CC(=O)N=[N+]=[N-])C=C1", 
	 "Tm": 353.15, 
	 "num_atms": 28, 
	 "gaussian": { 
		 "optdone": 1, 
		 "sigma_profile": "yes", 
		 "theory": "DFT", 
		 "functional": "B3LYP", 
		 "basiset": "6-31G**", 
		 "properties": { 
			 "R2extent": 10038.8887, 
			 "electric_dipole_moment_norm": 1.94281635004, 
			 "electric_quadrupole_moment_norm": 23.0338292511, 
			 "total_energy": -940.891712862, 
			 "HOMO_LUMO_gap": 0.13684, 
			 "cosmo_polarized_energy": -12.33, 
			 "cosmo_cavitation_energy": 37.78, 
			 "cosmo_dispersion_energy": -25.72, 
			 "cosmo_repulsion_energy": 1.99, 
			 "cosmo_total_nonelectrostatic_energy": 14.06, 
			 "SMD_solvation_energy": 4.63 
		},
		"coords": [
			{
				"x": -2.1458292397,
				"y": -3.5130192554,
				"z": 4.0382498626,
				"element": "N" 
			},
			{
				"x": -1.8152773884,
				"y": -2.4376430767,
				"z": 3.8987470206,
				"element": "N" 
			},
			{
				"x": -1.3546993727,
				"y": -1.3021734638,
				"z": 3.6695334874,
				"element": "N" 
			},
			{
				"x": -2.0536829985,
				"y": -0.2322771514,
				"z": 4.3182070956,
				"element": "C" 
			},
			{
				"x": -3.0100363948,
				"y": -0.4163950739,
				"z": 5.0484553855,
				"element": "O" 
			},
			{
				"x": -1.4699173093,
				"y": 1.1057195309,
				"z": 4.0996221829,
				"element": "C" 
			},
			{
				"x": -0.6270293279,
				"y": 1.580781802,
				"z": 3.1572515019,
				"element": "C" 
			},
			{
				"x": -0.0833745064,
				"y": 0.9913192687,
				"z": 1.9270425379,
				"element": "C" 
			},
			{
				"x": -0.8077653808,
				"y": 0.119577264,
				"z": 1.0944321564,
				"element": "C" 
			},
			{
				"x": -0.2451908161,
				"y": -0.3575802882,
				"z": -0.0791633276,
				"element": "C" 
			},
			{
				"x": 1.0608587825,
				"y": 0.0049390663,
				"z": -0.4810408813,
				"element": "C" 
			},
			{
				"x": 1.5336752318,
				"y": -0.576487435,
				"z": -1.7356409071,
				"element": "C" 
			},
			{
				"x": 2.6712077033,
				"y": -0.5137202437,
				"z": -2.4751772842,
				"element": "C" 
			},
			{
				"x": 3.9219106432,
				"y": 0.2214312927,
				"z": -2.25704967,
				"element": "C" 
			},
			{
				"x": 4.2323405768,
				"y": 0.9679023464,
				"z": -1.3436020263,
				"element": "O" 
			},
			{
				"x": 4.8229189081,
				"y": -0.0654595356,
				"z": -3.345890439,
				"element": "N" 
			},
			{
				"x": 5.92785021,
				"y": 0.5061119359,
				"z": -3.2716429985,
				"element": "N" 
			},
			{
				"x": 6.9589160639,
				"y": 0.9764464837,
				"z": -3.2986811774,
				"element": "N" 
			},
			{
				"x": 1.7778134796,
				"y": 0.8962216022,
				"z": 0.3450825134,
				"element": "C" 
			},
			{
				"x": 1.2028783238,
				"y": 1.3854074317,
				"z": 1.5102455943,
				"element": "C" 
			},
			{
				"x": -1.7953147458,
				"y": 1.7932034406,
				"z": 4.8751514461,
				"element": "H" 
			},
			{
				"x": -0.2887858761,
				"y": 2.6031933827,
				"z": 3.3282143281,
				"element": "H" 
			},
			{
				"x": -1.819385516,
				"y": -0.1630729642,
				"z": 1.3589064191,
				"element": "H" 
			},
			{
				"x": -0.8271497289,
				"y": -1.0231641932,
				"z": -0.7112969207,
				"element": "H" 
			},
			{
				"x": 0.7808026281,
				"y": -1.2245157439,
				"z": -2.1843060359,
				"element": "H" 
			},
			{
				"x": 2.6833267141,
				"y": -1.0998277122,
				"z": -3.3886697616,
				"element": "H" 
			},
			{
				"x": 2.7746790475,
				"y": 1.2016288851,
				"z": 0.0576046854,
				"element": "H" 
			},
			{
				"x": 1.7676602889,
				"y": 2.0808524044,
				"z": 2.1256152123,
				"element": "H" 
			}
		],
		 "valence_orbital": [ 
			{
				"type": "occ",
				"energy": -0.29012,
				"method": "rhf"
			},
			{
				"type": "occ",
				"energy": -0.28034,
				"method": "rhf"
			},
			{
				"type": "occ",
				"energy": -0.27839,
				"method": "rhf"
			},
			{
				"type": "occ",
				"energy": -0.26794,
				"method": "rhf"
			},
			{
				"type": "occ",
				"energy": -0.2414,
				"method": "rhf"
			},
			{
				"type": "unocc",
				"energy": -0.10456,
				"method": "rhf"
			},
			{
				"type": "unocc",
				"energy": -0.07379,
				"method": "rhf"
			},
			{
				"type": "unocc",
				"energy": -0.04976,
				"method": "rhf"
			},
			{
				"type": "unocc",
				"energy": -0.04962,
				"method": "rhf"
			},
			{
				"type": "unocc",
				"energy": -0.03221,
				"method": "rhf"
			}
		],
		"cosmo_sigma_profile": { 
			"-0.025": 0.0,
			"-0.024": 0.0,
			"-0.023": 0.0,
			"-0.022": 0.0,
			"-0.021": 0.0,
			"-0.02": 0.0,
			"-0.019": 0.0,
			"-0.018": 0.0,
			"-0.017": 0.0,
			"-0.016": 0.0,
			"-0.015": 0.0,
			"-0.014": 0.0,
			"-0.013": 0.0,
			"-0.012": 0.0,
			"-0.011": 0.0,
			"-0.01": 0.0,
			"-0.009": 0.255715090186,
			"-0.008": 4.6686808487,
			"-0.007": 16.6366232655,
			"-0.006": 22.2942131721,
			"-0.005": 20.2424142524,
			"-0.004": 18.3306478316,
			"-0.003": 17.3228876146,
			"-0.002": 16.9162494497,
			"-0.001": 21.2580196592,
			"0.0": 27.0122247299,
			"0.001": 26.9845788807,
			"0.002": 29.0384035188,
			"0.003": 25.9181081508,
			"0.004": 13.9025385616,
			"0.005": 11.8006748921,
			"0.006": 7.82182767214,
			"0.007": 5.70586862423,
			"0.008": 5.19946362128,
			"0.009": 4.14661664717,
			"0.01": 4.75070653887,
			"0.011": 5.49708820571,
			"0.012": 1.45316161666,
			"0.013": 0.0,
			"0.014": 0.0,
			"0.015": 0.0,
			"0.016": 0.0,
			"0.017": 0.0,
			"0.018": 0.0,
			"0.019": 0.0,
			"0.02": 0.0,
			"0.021": 0.0,
			"0.022": 0.0,
			"0.023": 0.0,
			"0.024": 0.0,
			"0.025": 0.0
		}
	}
}
