{
	 "smiles": "C(NC1=NC2=C(N1)C=CC=C2)C1=CC=CC=C1", 
	 "Tm": 421.15, 
	 "num_atms": 30, 
	 "gaussian": { 
		 "optdone": 1, 
		 "sigma_profile": "yes", 
		 "theory": "DFT", 
		 "functional": "B3LYP", 
		 "basiset": "6-31G**", 
		 "properties": { 
			 "R2extent": 6563.8056, 
			 "electric_dipole_moment_norm": 4.39003018896, 
			 "electric_quadrupole_moment_norm": 6.39606393261, 
			 "total_energy": -705.594759913, 
			 "HOMO_LUMO_gap": 0.17683, 
			 "cosmo_polarized_energy": -16.51, 
			 "cosmo_cavitation_energy": 34.15, 
			 "cosmo_dispersion_energy": -25.29, 
			 "cosmo_repulsion_energy": 1.95, 
			 "cosmo_total_nonelectrostatic_energy": 10.81, 
			 "SMD_solvation_energy": 2.61 
		},
		"coords": [
			{
				"x": 1.297064893,
				"y": 0.4169614753,
				"z": -1.1094250743,
				"element": "C" 
			},
			{
				"x": 0.32940974,
				"y": -0.655639589,
				"z": -0.8829503756,
				"element": "N" 
			},
			{
				"x": -0.7512191527,
				"y": -0.4789792465,
				"z": -0.0464311343,
				"element": "C" 
			},
			{
				"x": -1.3216760849,
				"y": -1.4461307058,
				"z": 0.6348226749,
				"element": "N" 
			},
			{
				"x": -2.4021574511,
				"y": -0.8424325303,
				"z": 1.2677006397,
				"element": "C" 
			},
			{
				"x": -2.4574060909,
				"y": 0.5381056288,
				"z": 0.9553830787,
				"element": "C" 
			},
			{
				"x": -1.368608938,
				"y": 0.747511361,
				"z": 0.110878019,
				"element": "N" 
			},
			{
				"x": -3.4343849134,
				"y": 1.389245758,
				"z": 1.4614822275,
				"element": "C" 
			},
			{
				"x": -4.3883626741,
				"y": 0.8196885232,
				"z": 2.3092067371,
				"element": "C" 
			},
			{
				"x": -4.3511706554,
				"y": -0.5472749515,
				"z": 2.6326262851,
				"element": "C" 
			},
			{
				"x": -3.3645845249,
				"y": -1.3908575874,
				"z": 2.1209737951,
				"element": "C" 
			},
			{
				"x": 2.3677743164,
				"y": -0.0117558006,
				"z": -2.0918384681,
				"element": "C" 
			},
			{
				"x": 3.7186298838,
				"y": 0.221219448,
				"z": -1.8131158406,
				"element": "C" 
			},
			{
				"x": 4.7075434701,
				"y": -0.145484286,
				"z": -2.7286051528,
				"element": "C" 
			},
			{
				"x": 4.3535991179,
				"y": -0.7573343717,
				"z": -3.9312401939,
				"element": "C" 
			},
			{
				"x": 3.006867888,
				"y": -0.9996496007,
				"z": -4.214499588,
				"element": "C" 
			},
			{
				"x": 2.0201087311,
				"y": -0.6279390924,
				"z": -3.3022252024,
				"element": "C" 
			},
			{
				"x": 1.7679568932,
				"y": 0.7604081462,
				"z": -0.1749703494,
				"element": "H" 
			},
			{
				"x": 0.7581773164,
				"y": 1.279828663,
				"z": -1.5262121217,
				"element": "H" 
			},
			{
				"x": 0.7418902295,
				"y": -1.5699729447,
				"z": -0.7418573722,
				"element": "H" 
			},
			{
				"x": -1.1431439858,
				"y": 1.6010005131,
				"z": -0.3730795255,
				"element": "H" 
			},
			{
				"x": -3.4620746083,
				"y": 2.4461834657,
				"z": 1.2121413567,
				"element": "H" 
			},
			{
				"x": -5.1714557469,
				"y": 1.447040174,
				"z": 2.7244731239,
				"element": "H" 
			},
			{
				"x": -5.1088751301,
				"y": -0.9544339369,
				"z": 3.295982222,
				"element": "H" 
			},
			{
				"x": -3.3348903376,
				"y": -2.4468321718,
				"z": 2.3697147228,
				"element": "H" 
			},
			{
				"x": 3.9994594985,
				"y": 0.6900509129,
				"z": -0.8731402828,
				"element": "H" 
			},
			{
				"x": 5.7524256414,
				"y": 0.040620418,
				"z": -2.497468324,
				"element": "H" 
			},
			{
				"x": 5.1213393089,
				"y": -1.0474751651,
				"z": -4.6426593815,
				"element": "H" 
			},
			{
				"x": 2.7249569332,
				"y": -1.4780479288,
				"z": -5.1481540342,
				"element": "H" 
			},
			{
				"x": 0.9734064326,
				"y": -0.821424578,
				"z": -3.518312461,
				"element": "H" 
			}
		],
		 "valence_orbital": [ 
			{
				"type": "occ",
				"energy": -0.26365,
				"method": "rhf"
			},
			{
				"type": "occ",
				"energy": -0.25929,
				"method": "rhf"
			},
			{
				"type": "occ",
				"energy": -0.25348,
				"method": "rhf"
			},
			{
				"type": "occ",
				"energy": -0.21645,
				"method": "rhf"
			},
			{
				"type": "occ",
				"energy": -0.19262,
				"method": "rhf"
			},
			{
				"type": "unocc",
				"energy": -0.01579,
				"method": "rhf"
			},
			{
				"type": "unocc",
				"energy": -0.01034,
				"method": "rhf"
			},
			{
				"type": "unocc",
				"energy": 0.00645,
				"method": "rhf"
			},
			{
				"type": "unocc",
				"energy": 0.03327,
				"method": "rhf"
			},
			{
				"type": "unocc",
				"energy": 0.06317,
				"method": "rhf"
			}
		],
		"cosmo_sigma_profile": { 
			"-0.025": 0.0,
			"-0.024": 0.0,
			"-0.023": 0.0,
			"-0.022": 0.0,
			"-0.021": 0.0,
			"-0.02": 0.0,
			"-0.019": 0.0,
			"-0.018": 0.0,
			"-0.017": 0.00146689261952,
			"-0.016": 0.797270225659,
			"-0.015": 1.52434000757,
			"-0.014": 1.36343882025,
			"-0.013": 2.01189718089,
			"-0.012": 1.63154697312,
			"-0.011": 2.02737000727,
			"-0.01": 2.86641517188,
			"-0.009": 1.8137223989,
			"-0.008": 2.38359531835,
			"-0.007": 3.35895058932,
			"-0.006": 9.87149457655,
			"-0.005": 22.3438722562,
			"-0.004": 24.1654380852,
			"-0.003": 23.3429340598,
			"-0.002": 18.0601478614,
			"-0.001": 17.0987449946,
			"0.0": 12.8511133022,
			"0.001": 15.0576030842,
			"0.002": 15.6886391547,
			"0.003": 17.8187851714,
			"0.004": 16.8028718865,
			"0.005": 18.954322366,
			"0.006": 18.1605917649,
			"0.007": 9.42099801634,
			"0.008": 3.25011569423,
			"0.009": 1.05502898018,
			"0.01": 0.792796936173,
			"0.011": 1.15292903091,
			"0.012": 1.45356001969,
			"0.013": 1.4911113038,
			"0.014": 0.731351183049,
			"0.015": 0.522926768662,
			"0.016": 1.47313745634,
			"0.017": 1.02568411819,
			"0.018": 0.543785633934,
			"0.019": 0.0,
			"0.02": 0.0,
			"0.021": 0.0,
			"0.022": 0.0,
			"0.023": 0.0,
			"0.024": 0.0,
			"0.025": 0.0
		}
	}
}
