{
	 "smiles": "O=C(C=N/C1=CC=CC=C1)C1=CC(=CC(=C1)C(=O)C=N/C1=CC=CC=C1)C(=O)C=N/C1=CC=CC=C1", 
	 "Tm": 613.15, 
	 "num_atms": 57, 
	 "gaussian": { 
		 "optdone": 1, 
		 "sigma_profile": "yes", 
		 "theory": "DFT", 
		 "functional": "B3LYP", 
		 "basiset": "6-31G**", 
		 "properties": { 
			 "R2extent": 15522.6319, 
			 "electric_dipole_moment_norm": 2.65935115771, 
			 "electric_quadrupole_moment_norm": 22.9804758399, 
			 "total_energy": -1545.6802175, 
			 "HOMO_LUMO_gap": 0.12612, 
			 "cosmo_polarized_energy": -21.57, 
			 "cosmo_cavitation_energy": 64.37, 
			 "cosmo_dispersion_energy": -36.82, 
			 "cosmo_repulsion_energy": 2.7, 
			 "cosmo_total_nonelectrostatic_energy": 30.25, 
			 "SMD_solvation_energy": 7.84 
		},
		"coords": [
			{
				"x": -1.590603377,
				"y": -0.2112486532,
				"z": -3.3165967608,
				"element": "O" 
			},
			{
				"x": -0.6722429759,
				"y": -0.7835487322,
				"z": -2.746303357,
				"element": "C" 
			},
			{
				"x": 0.7083969856,
				"y": -0.905823586,
				"z": -3.3638672165,
				"element": "C" 
			},
			{
				"x": 1.5093461835,
				"y": -0.0106962349,
				"z": -3.7940375104,
				"element": "N" 
			},
			{
				"x": 1.3122154995,
				"y": 1.3824224233,
				"z": -3.8139050098,
				"element": "C" 
			},
			{
				"x": 2.4362734039,
				"y": 2.1577260551,
				"z": -3.4696517854,
				"element": "C" 
			},
			{
				"x": 2.3694025385,
				"y": 3.5475617193,
				"z": -3.4878203016,
				"element": "C" 
			},
			{
				"x": 1.1980455068,
				"y": 4.1869574579,
				"z": -3.9056927937,
				"element": "C" 
			},
			{
				"x": 0.0985670963,
				"y": 3.4226382736,
				"z": -4.298692639,
				"element": "C" 
			},
			{
				"x": 0.1412469613,
				"y": 2.0288742641,
				"z": -4.2488266693,
				"element": "C" 
			},
			{
				"x": -0.8855279334,
				"y": -1.4581436651,
				"z": -1.4271050926,
				"element": "C" 
			},
			{
				"x": -2.1984885187,
				"y": -1.5811820362,
				"z": -0.9505492784,
				"element": "C" 
			},
			{
				"x": -2.452312538,
				"y": -2.1876767834,
				"z": 0.2828992346,
				"element": "C" 
			},
			{
				"x": -1.3818041759,
				"y": -2.6724973037,
				"z": 1.0457929715,
				"element": "C" 
			},
			{
				"x": -0.0656589735,
				"y": -2.5309374437,
				"z": 0.5958655759,
				"element": "C" 
			},
			{
				"x": 0.1773565641,
				"y": -1.9301327429,
				"z": -0.6479115279,
				"element": "C" 
			},
			{
				"x": 1.0373212528,
				"y": -3.0759536325,
				"z": 1.4480719378,
				"element": "C" 
			},
			{
				"x": 0.8114350862,
				"y": -3.7616087667,
				"z": 2.4333420362,
				"element": "O" 
			},
			{
				"x": 2.4926275274,
				"y": -2.8630000868,
				"z": 1.0523465098,
				"element": "C" 
			},
			{
				"x": 3.1414712728,
				"y": -1.7729073015,
				"z": 0.9218582206,
				"element": "N" 
			},
			{
				"x": 2.5593063619,
				"y": -0.5167625337,
				"z": 1.193764507,
				"element": "C" 
			},
			{
				"x": 2.7347466996,
				"y": 0.5114026103,
				"z": 0.2533317721,
				"element": "C" 
			},
			{
				"x": 2.1913203082,
				"y": 1.7716171246,
				"z": 0.4874500474,
				"element": "C" 
			},
			{
				"x": 1.5159715948,
				"y": 2.0376187162,
				"z": 1.682844054,
				"element": "C" 
			},
			{
				"x": 1.3816272804,
				"y": 1.0308502359,
				"z": 2.6397518362,
				"element": "C" 
			},
			{
				"x": 1.8920261792,
				"y": -0.2453618259,
				"z": 2.400113601,
				"element": "C" 
			},
			{
				"x": -3.8414151696,
				"y": -2.3880207371,
				"z": 0.8042299509,
				"element": "C" 
			},
			{
				"x": -4.0662682348,
				"y": -3.0790643709,
				"z": 1.7859377858,
				"element": "O" 
			},
			{
				"x": -5.0318649388,
				"y": -1.8032541915,
				"z": 0.0564373372,
				"element": "C" 
			},
			{
				"x": -5.3152553061,
				"y": -0.5820340744,
				"z": -0.174813327,
				"element": "N" 
			},
			{
				"x": -4.5221852611,
				"y": 0.478016807,
				"z": 0.3129267932,
				"element": "C" 
			},
			{
				"x": -4.1767016366,
				"y": 1.5094514337,
				"z": -0.5755375427,
				"element": "C" 
			},
			{
				"x": -3.4203415589,
				"y": 2.5891026489,
				"z": -0.128363041,
				"element": "C" 
			},
			{
				"x": -3.0421855408,
				"y": 2.6802821834,
				"z": 1.2149424458,
				"element": "C" 
			},
			{
				"x": -3.4214612735,
				"y": 1.6779886302,
				"z": 2.1085569525,
				"element": "C" 
			},
			{
				"x": -4.1530267441,
				"y": 0.5757492178,
				"z": 1.6652719459,
				"element": "C" 
			},
			{
				"x": 1.0698213947,
				"y": -1.9393846956,
				"z": -3.4225315189,
				"element": "H" 
			},
			{
				"x": 3.3513027408,
				"y": 1.6447943014,
				"z": -3.1906226298,
				"element": "H" 
			},
			{
				"x": 3.2393144347,
				"y": 4.1324309457,
				"z": -3.2029315054,
				"element": "H" 
			},
			{
				"x": 1.1512058778,
				"y": 5.2713294753,
				"z": -3.9424999931,
				"element": "H" 
			},
			{
				"x": -0.8064162259,
				"y": 3.9124146378,
				"z": -4.6469590392,
				"element": "H" 
			},
			{
				"x": -0.712455134,
				"y": 1.4383476299,
				"z": -4.5534479585,
				"element": "H" 
			},
			{
				"x": -3.0030872062,
				"y": -1.1957891569,
				"z": -1.5667613987,
				"element": "H" 
			},
			{
				"x": -1.5756097245,
				"y": -3.1605353583,
				"z": 1.9950419028,
				"element": "H" 
			},
			{
				"x": 1.1974121018,
				"y": -1.819975623,
				"z": -0.999309956,
				"element": "H" 
			},
			{
				"x": 3.0451660247,
				"y": -3.7988168799,
				"z": 0.9259058726,
				"element": "H" 
			},
			{
				"x": 3.2797911584,
				"y": 0.2987242899,
				"z": -0.6609955966,
				"element": "H" 
			},
			{
				"x": 2.301196379,
				"y": 2.5481423829,
				"z": -0.2636401756,
				"element": "H" 
			},
			{
				"x": 1.1093337361,
				"y": 3.02669356,
				"z": 1.8703956431,
				"element": "H" 
			},
			{
				"x": 0.8757835735,
				"y": 1.2351447043,
				"z": 3.5790044271,
				"element": "H" 
			},
			{
				"x": 1.806288974,
				"y": -1.0226214716,
				"z": 3.1529767762,
				"element": "H" 
			},
			{
				"x": -5.7535654955,
				"y": -2.5602675136,
				"z": -0.2647762605,
				"element": "H" 
			},
			{
				"x": -4.4928820513,
				"y": 1.4380012849,
				"z": -1.6112103336,
				"element": "H" 
			},
			{
				"x": -3.1352198898,
				"y": 3.3691417894,
				"z": -0.8281435051,
				"element": "H" 
			},
			{
				"x": -2.4691385057,
				"y": 3.5342606747,
				"z": 1.5632350446,
				"element": "H" 
			},
			{
				"x": -3.149829472,
				"y": 1.7510060137,
				"z": 3.1577447261,
				"element": "H" 
			},
			{
				"x": -4.469872837,
				"y": -0.1911460899,
				"z": 2.3650638162,
				"element": "H" 
			}
		],
		 "valence_orbital": [ 
			{
				"type": "occ",
				"energy": -0.25971,
				"method": "rhf"
			},
			{
				"type": "occ",
				"energy": -0.25828,
				"method": "rhf"
			},
			{
				"type": "occ",
				"energy": -0.23255,
				"method": "rhf"
			},
			{
				"type": "occ",
				"energy": -0.23045,
				"method": "rhf"
			},
			{
				"type": "occ",
				"energy": -0.22839,
				"method": "rhf"
			},
			{
				"type": "unocc",
				"energy": -0.10227,
				"method": "rhf"
			},
			{
				"type": "unocc",
				"energy": -0.09509,
				"method": "rhf"
			},
			{
				"type": "unocc",
				"energy": -0.08258,
				"method": "rhf"
			},
			{
				"type": "unocc",
				"energy": -0.05044,
				"method": "rhf"
			},
			{
				"type": "unocc",
				"energy": -0.04859,
				"method": "rhf"
			}
		],
		"cosmo_sigma_profile": { 
			"-0.025": 0.0,
			"-0.024": 0.0,
			"-0.023": 0.0,
			"-0.022": 0.0,
			"-0.021": 0.0,
			"-0.02": 0.0,
			"-0.019": 0.0,
			"-0.018": 0.0,
			"-0.017": 0.0,
			"-0.016": 0.0,
			"-0.015": 0.0,
			"-0.014": 0.0,
			"-0.013": 0.0,
			"-0.012": 0.0,
			"-0.011": 0.0,
			"-0.01": 0.0654001433779,
			"-0.009": 5.51424653111,
			"-0.008": 11.4422290178,
			"-0.007": 11.8564454923,
			"-0.006": 28.4927585395,
			"-0.005": 34.8856343454,
			"-0.004": 45.7752617614,
			"-0.003": 40.7098013336,
			"-0.002": 39.4196920905,
			"-0.001": 43.6649148007,
			"0.0": 32.3668800986,
			"0.001": 33.8558108776,
			"0.002": 33.2220033365,
			"0.003": 35.3415279255,
			"0.004": 36.6033954118,
			"0.005": 28.3007435959,
			"0.006": 9.8195518486,
			"0.007": 7.34461906308,
			"0.008": 8.46558775277,
			"0.009": 9.29531497933,
			"0.01": 11.2013706542,
			"0.011": 5.70651320515,
			"0.012": 2.31245052625,
			"0.013": 2.58111621474,
			"0.014": 0.617092334428,
			"0.015": 0.0,
			"0.016": 0.0,
			"0.017": 0.0,
			"0.018": 0.0,
			"0.019": 0.0,
			"0.02": 0.0,
			"0.021": 0.0,
			"0.022": 0.0,
			"0.023": 0.0,
			"0.024": 0.0,
			"0.025": 0.0
		}
	}
}
