{
	 "smiles": "OC1=CC(=CC=C1)C1=NN=CN1", 
	 "Tm": 466.15, 
	 "num_atms": 19, 
	 "gaussian": { 
		 "optdone": 1, 
		 "sigma_profile": "yes", 
		 "theory": "DFT", 
		 "functional": "B3LYP", 
		 "basiset": "6-31G**", 
		 "properties": { 
			 "R2extent": 2453.7825, 
			 "electric_dipole_moment_norm": 5.58837295105, 
			 "electric_quadrupole_moment_norm": 19.840583757, 
			 "total_energy": -548.522476566, 
			 "HOMO_LUMO_gap": 0.18481, 
			 "cosmo_polarized_energy": -25.09, 
			 "cosmo_cavitation_energy": 23.83, 
			 "cosmo_dispersion_energy": -17.94, 
			 "cosmo_repulsion_energy": 1.41, 
			 "cosmo_total_nonelectrostatic_energy": 7.29, 
			 "SMD_solvation_energy": 2.88 
		},
		"coords": [
			{
				"x": 3.6765897421,
				"y": -0.2457199592,
				"z": -0.8358456308,
				"element": "O" 
			},
			{
				"x": 2.3797218595,
				"y": -0.4141801141,
				"z": -1.2301689953,
				"element": "C" 
			},
			{
				"x": 1.3032617776,
				"y": 0.1407070682,
				"z": -0.5334458543,
				"element": "C" 
			},
			{
				"x": -0.011402479,
				"y": -0.0661678366,
				"z": -0.9813892427,
				"element": "C" 
			},
			{
				"x": -0.2368605351,
				"y": -0.8399773389,
				"z": -2.129096297,
				"element": "C" 
			},
			{
				"x": 0.8458663787,
				"y": -1.3895600067,
				"z": -2.8131453348,
				"element": "C" 
			},
			{
				"x": 2.1528646213,
				"y": -1.1821384881,
				"z": -2.3775429998,
				"element": "C" 
			},
			{
				"x": -1.1632135537,
				"y": 0.5047965792,
				"z": -0.2778405075,
				"element": "C" 
			},
			{
				"x": -2.4277579278,
				"y": 0.1947532476,
				"z": -0.4955326016,
				"element": "N" 
			},
			{
				"x": -3.2080032523,
				"y": 0.9469228522,
				"z": 0.3544715056,
				"element": "N" 
			},
			{
				"x": -2.3989365294,
				"y": 1.6930342233,
				"z": 1.0657058912,
				"element": "C" 
			},
			{
				"x": -1.0985896776,
				"y": 1.4550516376,
				"z": 0.7148572548,
				"element": "N" 
			},
			{
				"x": 3.7022725632,
				"y": 0.2872017306,
				"z": -0.0308515296,
				"element": "H" 
			},
			{
				"x": 1.5011641248,
				"y": 0.712829035,
				"z": 0.371423505,
				"element": "H" 
			},
			{
				"x": -1.2556822372,
				"y": -0.9954122082,
				"z": -2.4635598963,
				"element": "H" 
			},
			{
				"x": 0.6698780996,
				"y": -1.987488521,
				"z": -3.7024238759,
				"element": "H" 
			},
			{
				"x": 3.0031852155,
				"y": -1.6041477377,
				"z": -2.9023593853,
				"element": "H" 
			},
			{
				"x": -2.6918604524,
				"y": 2.4012034471,
				"z": 1.8273787555,
				"element": "H" 
			},
			{
				"x": -0.2793977376,
				"y": 1.9240923896,
				"z": 1.0682652388,
				"element": "H" 
			}
		],
		 "valence_orbital": [ 
			{
				"type": "occ",
				"energy": -0.30598,
				"method": "rhf"
			},
			{
				"type": "occ",
				"energy": -0.28925,
				"method": "rhf"
			},
			{
				"type": "occ",
				"energy": -0.25298,
				"method": "rhf"
			},
			{
				"type": "occ",
				"energy": -0.24595,
				"method": "rhf"
			},
			{
				"type": "occ",
				"energy": -0.22378,
				"method": "rhf"
			},
			{
				"type": "unocc",
				"energy": -0.03897,
				"method": "rhf"
			},
			{
				"type": "unocc",
				"energy": 1e-05,
				"method": "rhf"
			},
			{
				"type": "unocc",
				"energy": 0.03056,
				"method": "rhf"
			},
			{
				"type": "unocc",
				"energy": 0.04492,
				"method": "rhf"
			},
			{
				"type": "unocc",
				"energy": 0.05968,
				"method": "rhf"
			}
		],
		"cosmo_sigma_profile": { 
			"-0.025": 0.0,
			"-0.024": 0.0,
			"-0.023": 0.0,
			"-0.022": 0.0,
			"-0.021": 0.0,
			"-0.02": 0.0,
			"-0.019": 0.0189437105228,
			"-0.018": 1.24976788196,
			"-0.017": 3.17126855511,
			"-0.016": 3.02238491974,
			"-0.015": 2.55478793891,
			"-0.014": 1.94201731953,
			"-0.013": 2.5138160394,
			"-0.012": 2.53370908148,
			"-0.011": 3.34474624851,
			"-0.01": 5.41012200095,
			"-0.009": 4.03794129654,
			"-0.008": 2.76220399357,
			"-0.007": 4.19016480985,
			"-0.006": 5.83425461092,
			"-0.005": 8.59984108143,
			"-0.004": 8.55102210382,
			"-0.003": 6.91780291845,
			"-0.002": 7.2483030261,
			"-0.001": 10.1339434457,
			"0.0": 10.9212130605,
			"0.001": 8.5627574251,
			"0.002": 10.6738721688,
			"0.003": 15.3290744066,
			"0.004": 16.0045150929,
			"0.005": 8.67446419169,
			"0.006": 3.6490806865,
			"0.007": 2.83524481632,
			"0.008": 4.11266087118,
			"0.009": 3.61848015736,
			"0.01": 4.41806663144,
			"0.011": 3.8153128013,
			"0.012": 2.5053366342,
			"0.013": 2.89937337473,
			"0.014": 3.58045713013,
			"0.015": 2.99577121029,
			"0.016": 2.15595372037,
			"0.017": 0.685542148029,
			"0.018": 0.0,
			"0.019": 0.0,
			"0.02": 0.0,
			"0.021": 0.0,
			"0.022": 0.0,
			"0.023": 0.0,
			"0.024": 0.0,
			"0.025": 0.0
		}
	}
}
