{
	 "smiles": "BrCC1CO1", 
	 "Tm": 233.15, 
	 "num_atms": 10, 
	 "gaussian": { 
		 "optdone": 1, 
		 "sigma_profile": "yes", 
		 "theory": "DFT", 
		 "functional": "B3LYP", 
		 "basiset": "6-31G**", 
		 "properties": { 
			 "R2extent": 2090.4832, 
			 "electric_dipole_moment_norm": 2.67794290081, 
			 "electric_quadrupole_moment_norm": 7.81444918212, 
			 "total_energy": -2763.90993955, 
			 "HOMO_LUMO_gap": 0.26588, 
			 "cosmo_polarized_energy": -7.58, 
			 "cosmo_cavitation_energy": 15.5, 
			 "cosmo_dispersion_energy": -12.2, 
			 "cosmo_repulsion_energy": 1.08, 
			 "cosmo_total_nonelectrostatic_energy": 4.38, 
			 "SMD_solvation_energy": 1.77 
		},
		"coords": [
			{
				"x": -2.7877252182,
				"y": -1.983526559,
				"z": -0.9811046457,
				"element": "Br" 
			},
			{
				"x": -1.4648210201,
				"y": -0.5321441589,
				"z": -1.1501272465,
				"element": "C" 
			},
			{
				"x": -0.9533279997,
				"y": 0.0128899621,
				"z": 0.161584045,
				"element": "C" 
			},
			{
				"x": -0.970901804,
				"y": -0.6953417876,
				"z": 1.4472690263,
				"element": "C" 
			},
			{
				"x": -1.8949856385,
				"y": 0.3691797284,
				"z": 1.1641118096,
				"element": "O" 
			},
			{
				"x": -0.643798176,
				"y": -0.9381396726,
				"z": -1.7430404284,
				"element": "H" 
			},
			{
				"x": -1.9683953918,
				"y": 0.2501371506,
				"z": -1.7194816814,
				"element": "H" 
			},
			{
				"x": -0.1624176373,
				"y": 0.7533465951,
				"z": -0.0006794246,
				"element": "H" 
			},
			{
				"x": -0.2080766117,
				"y": -0.4658877046,
				"z": 2.1910046552,
				"element": "H" 
			},
			{
				"x": -1.4138505027,
				"y": -1.6869135536,
				"z": 1.5052638904,
				"element": "H" 
			}
		],
		 "valence_orbital": [ 
			{
				"type": "occ",
				"energy": -0.37156,
				"method": "rhf"
			},
			{
				"type": "occ",
				"energy": -0.31634,
				"method": "rhf"
			},
			{
				"type": "occ",
				"energy": -0.28653,
				"method": "rhf"
			},
			{
				"type": "occ",
				"energy": -0.27665,
				"method": "rhf"
			},
			{
				"type": "occ",
				"energy": -0.26886,
				"method": "rhf"
			},
			{
				"type": "unocc",
				"energy": -0.00298,
				"method": "rhf"
			},
			{
				"type": "unocc",
				"energy": 0.09339,
				"method": "rhf"
			},
			{
				"type": "unocc",
				"energy": 0.09549,
				"method": "rhf"
			},
			{
				"type": "unocc",
				"energy": 0.1162,
				"method": "rhf"
			},
			{
				"type": "unocc",
				"energy": 0.13155,
				"method": "rhf"
			}
		],
		"cosmo_sigma_profile": { 
			"-0.025": 0.0,
			"-0.024": 0.0,
			"-0.023": 0.0,
			"-0.022": 0.0,
			"-0.021": 0.0,
			"-0.02": 0.0,
			"-0.019": 0.0,
			"-0.018": 0.0,
			"-0.017": 0.0,
			"-0.016": 0.0,
			"-0.015": 0.0,
			"-0.014": 0.0,
			"-0.013": 0.0,
			"-0.012": 0.0,
			"-0.011": 0.0,
			"-0.01": 0.0,
			"-0.009": 0.122757853991,
			"-0.008": 5.09787447032,
			"-0.007": 10.4151650869,
			"-0.006": 9.4645794182,
			"-0.005": 10.2716930601,
			"-0.004": 7.47294326234,
			"-0.003": 7.80896170045,
			"-0.002": 7.38629688632,
			"-0.001": 8.32332145676,
			"0.0": 5.03357434794,
			"0.001": 5.4306784197,
			"0.002": 4.91391360465,
			"0.003": 6.31527990103,
			"0.004": 5.83381264516,
			"0.005": 7.8188560386,
			"0.006": 8.68884675062,
			"0.007": 2.58104027557,
			"0.008": 2.05619893397,
			"0.009": 2.10573898169,
			"0.01": 2.59626033201,
			"0.011": 3.53074124546,
			"0.012": 2.45657826514,
			"0.013": 0.182420335076,
			"0.014": 0.0,
			"0.015": 0.0,
			"0.016": 0.0,
			"0.017": 0.0,
			"0.018": 0.0,
			"0.019": 0.0,
			"0.02": 0.0,
			"0.021": 0.0,
			"0.022": 0.0,
			"0.023": 0.0,
			"0.024": 0.0,
			"0.025": 0.0
		}
	}
}
