{
	 "smiles": "NC1=C(C#N)C(C2=C(O1)N(N=C2C(F)(F)F)C1=CC=CC=C1)C1=CC=C(Cl)C=C1Cl", 
	 "Tm": 483.15, 
	 "num_atms": 41, 
	 "gaussian": { 
		 "optdone": 1, 
		 "sigma_profile": "yes", 
		 "theory": "DFT", 
		 "functional": "B3LYP", 
		 "basiset": "6-31G**", 
		 "properties": { 
			 "R2extent": 15062.1218, 
			 "electric_dipole_moment_norm": 7.75102835048, 
			 "electric_quadrupole_moment_norm": 16.7966043795, 
			 "total_energy": -2282.84065352, 
			 "HOMO_LUMO_gap": 0.18486, 
			 "cosmo_polarized_energy": -20.37, 
			 "cosmo_cavitation_energy": 52.44, 
			 "cosmo_dispersion_energy": -34.11, 
			 "cosmo_repulsion_energy": 2.52, 
			 "cosmo_total_nonelectrostatic_energy": 20.85, 
			 "SMD_solvation_energy": 9.82 
		},
		"coords": [
			{
				"x": 1.6110112243,
				"y": -0.8697145235,
				"z": 2.9184953625,
				"element": "N" 
			},
			{
				"x": 0.7956379174,
				"y": -0.2943285911,
				"z": 1.9867620231,
				"element": "C" 
			},
			{
				"x": 0.1775146437,
				"y": 0.921415733,
				"z": 2.0861805139,
				"element": "C" 
			},
			{
				"x": 0.3156499811,
				"y": 1.594909921,
				"z": 3.3285263685,
				"element": "C" 
			},
			{
				"x": 0.4516761503,
				"y": 2.1068295236,
				"z": 4.3682523513,
				"element": "N" 
			},
			{
				"x": -0.6288098128,
				"y": 1.5877841736,
				"z": 0.9623210203,
				"element": "C" 
			},
			{
				"x": -0.7137431548,
				"y": 0.591665114,
				"z": -0.1606393349,
				"element": "C" 
			},
			{
				"x": -0.0669811277,
				"y": -0.6170383838,
				"z": -0.1218216155,
				"element": "C" 
			},
			{
				"x": 0.7095268935,
				"y": -1.1076908171,
				"z": 0.8798056456,
				"element": "O" 
			},
			{
				"x": -0.3460425717,
				"y": -1.3226490633,
				"z": -1.25426416,
				"element": "N" 
			},
			{
				"x": -1.1809575063,
				"y": -0.6014603217,
				"z": -2.0515183574,
				"element": "N" 
			},
			{
				"x": -1.4000405733,
				"y": 0.5334363925,
				"z": -1.3984816714,
				"element": "C" 
			},
			{
				"x": -2.2385990463,
				"y": 1.6086212275,
				"z": -2.0193884054,
				"element": "C" 
			},
			{
				"x": -2.9233608688,
				"y": 2.2756567961,
				"z": -1.0602830029,
				"element": "F" 
			},
			{
				"x": -1.4776123448,
				"y": 2.5188548479,
				"z": -2.6650371116,
				"element": "F" 
			},
			{
				"x": -3.1219555393,
				"y": 1.1156316075,
				"z": -2.8999314298,
				"element": "F" 
			},
			{
				"x": 0.0591407178,
				"y": -2.6341586179,
				"z": -1.6419822966,
				"element": "C" 
			},
			{
				"x": -0.7965774609,
				"y": -3.3848547024,
				"z": -2.4543640582,
				"element": "C" 
			},
			{
				"x": -0.4103808475,
				"y": -4.6625628674,
				"z": -2.8525288123,
				"element": "C" 
			},
			{
				"x": 0.8126618727,
				"y": -5.1954750756,
				"z": -2.4384724724,
				"element": "C" 
			},
			{
				"x": 1.658569973,
				"y": -4.4354847876,
				"z": -1.6300047638,
				"element": "C" 
			},
			{
				"x": 1.2935786747,
				"y": -3.1486589548,
				"z": -1.2335234024,
				"element": "C" 
			},
			{
				"x": -0.0176166855,
				"y": 2.9271307802,
				"z": 0.536631633,
				"element": "C" 
			},
			{
				"x": 1.1974873651,
				"y": 2.9489995519,
				"z": -0.1615871459,
				"element": "C" 
			},
			{
				"x": 1.8069185969,
				"y": 4.133314241,
				"z": -0.5597850497,
				"element": "C" 
			},
			{
				"x": 1.1844241278,
				"y": 5.3425259524,
				"z": -0.2501727079,
				"element": "C" 
			},
			{
				"x": 1.9279681998,
				"y": 6.8534426631,
				"z": -0.7402956634,
				"element": "Cl" 
			},
			{
				"x": -0.0208625354,
				"y": 5.3721322199,
				"z": 0.4432312046,
				"element": "C" 
			},
			{
				"x": -0.6073035113,
				"y": 4.1645300916,
				"z": 0.8298165845,
				"element": "C" 
			},
			{
				"x": -2.1286775312,
				"y": 4.2693087867,
				"z": 1.7073063545,
				"element": "Cl" 
			},
			{
				"x": 1.6426310596,
				"y": -1.8795585141,
				"z": 2.918690609,
				"element": "H" 
			},
			{
				"x": 1.6280840403,
				"y": -0.4292222321,
				"z": 3.8281162836,
				"element": "H" 
			},
			{
				"x": -1.6361047909,
				"y": 1.7915129378,
				"z": 1.3356516745,
				"element": "H" 
			},
			{
				"x": -1.7407476013,
				"y": -2.9559743733,
				"z": -2.7672729929,
				"element": "H" 
			},
			{
				"x": -1.0732282511,
				"y": -5.2452679691,
				"z": -3.4849059698,
				"element": "H" 
			},
			{
				"x": 1.1058949792,
				"y": -6.1938949058,
				"z": -2.7478504499,
				"element": "H" 
			},
			{
				"x": 2.6169154419,
				"y": -4.8363643255,
				"z": -1.3139749724,
				"element": "H" 
			},
			{
				"x": 1.9628890574,
				"y": -2.5528084283,
				"z": -0.6252679281,
				"element": "H" 
			},
			{
				"x": 1.6757294865,
				"y": 2.0037630157,
				"z": -0.4016474772,
				"element": "H" 
			},
			{
				"x": 2.7457652115,
				"y": 4.1232239817,
				"z": -1.1012205997,
				"element": "H" 
			},
			{
				"x": -0.5003738538,
				"y": 6.3129778956,
				"z": 0.6825342223,
				"element": "H" 
			}
		],
		 "valence_orbital": [ 
			{
				"type": "occ",
				"energy": -0.26841,
				"method": "rhf"
			},
			{
				"type": "occ",
				"energy": -0.26087,
				"method": "rhf"
			},
			{
				"type": "occ",
				"energy": -0.25403,
				"method": "rhf"
			},
			{
				"type": "occ",
				"energy": -0.24693,
				"method": "rhf"
			},
			{
				"type": "occ",
				"energy": -0.23423,
				"method": "rhf"
			},
			{
				"type": "unocc",
				"energy": -0.04937,
				"method": "rhf"
			},
			{
				"type": "unocc",
				"energy": -0.03203,
				"method": "rhf"
			},
			{
				"type": "unocc",
				"energy": -0.02711,
				"method": "rhf"
			},
			{
				"type": "unocc",
				"energy": -0.02378,
				"method": "rhf"
			},
			{
				"type": "unocc",
				"energy": -0.01596,
				"method": "rhf"
			}
		],
		"cosmo_sigma_profile": { 
			"-0.025": 0.0,
			"-0.024": 0.0,
			"-0.023": 0.0,
			"-0.022": 0.0,
			"-0.021": 0.0,
			"-0.02": 0.0,
			"-0.019": 0.0,
			"-0.018": 0.0,
			"-0.017": 0.0,
			"-0.016": 0.411276689405,
			"-0.015": 1.39837285529,
			"-0.014": 2.31750593774,
			"-0.013": 2.03238109625,
			"-0.012": 2.07394750776,
			"-0.011": 2.21696718968,
			"-0.01": 2.05363645532,
			"-0.009": 2.60629407597,
			"-0.008": 5.3526697796,
			"-0.007": 10.5978739244,
			"-0.006": 18.0097436841,
			"-0.005": 22.0726402492,
			"-0.004": 22.2618376774,
			"-0.003": 22.7593121872,
			"-0.002": 28.2986871327,
			"-0.001": 28.7195635221,
			"0.0": 37.2097030534,
			"0.001": 45.3152684371,
			"0.002": 53.4616900405,
			"0.003": 48.3602358052,
			"0.004": 31.3061224109,
			"0.005": 8.75828614352,
			"0.006": 4.35988005846,
			"0.007": 4.62635604022,
			"0.008": 3.51531925918,
			"0.009": 4.68019292893,
			"0.01": 3.68963348765,
			"0.011": 3.59812657926,
			"0.012": 2.92927850084,
			"0.013": 2.46407864708,
			"0.014": 0.77858429165,
			"0.015": 0.0,
			"0.016": 0.0,
			"0.017": 0.0,
			"0.018": 0.0,
			"0.019": 0.0,
			"0.02": 0.0,
			"0.021": 0.0,
			"0.022": 0.0,
			"0.023": 0.0,
			"0.024": 0.0,
			"0.025": 0.0
		}
	}
}
