{
	 "smiles": "NCC1=CC=C(C=C1)N1C=CC=N1", 
	 "Tm": 349.65, 
	 "num_atms": 24, 
	 "gaussian": { 
		 "optdone": 1, 
		 "sigma_profile": "yes", 
		 "theory": "DFT", 
		 "functional": "B3LYP", 
		 "basiset": "6-31G**", 
		 "properties": { 
			 "R2extent": 3664.8694, 
			 "electric_dipole_moment_norm": 1.82230903526, 
			 "electric_quadrupole_moment_norm": 6.63455365417, 
			 "total_energy": -551.919964714, 
			 "HOMO_LUMO_gap": 0.19342, 
			 "cosmo_polarized_energy": -11.52, 
			 "cosmo_cavitation_energy": 27.94, 
			 "cosmo_dispersion_energy": -20.45, 
			 "cosmo_repulsion_energy": 1.6, 
			 "cosmo_total_nonelectrostatic_energy": 9.1, 
			 "SMD_solvation_energy": 3.11 
		},
		"coords": [
			{
				"x": -3.9438317712,
				"y": 0.8953197276,
				"z": -3.6352758276,
				"element": "N" 
			},
			{
				"x": -2.8417204884,
				"y": -0.0564094749,
				"z": -3.41446724,
				"element": "C" 
			},
			{
				"x": -2.1199329557,
				"y": 0.0725925769,
				"z": -2.084544974,
				"element": "C" 
			},
			{
				"x": -0.9902279645,
				"y": 0.8890084252,
				"z": -1.9504292246,
				"element": "C" 
			},
			{
				"x": -0.3615129327,
				"y": 1.0646476636,
				"z": -0.7188240418,
				"element": "C" 
			},
			{
				"x": -0.8507732227,
				"y": 0.3994434156,
				"z": 0.4102422539,
				"element": "C" 
			},
			{
				"x": -1.9774146444,
				"y": -0.4237723764,
				"z": 0.2995559627,
				"element": "C" 
			},
			{
				"x": -2.5981115303,
				"y": -0.5757404298,
				"z": -0.9365019943,
				"element": "C" 
			},
			{
				"x": -0.2133153354,
				"y": 0.545414478,
				"z": 1.6698020291,
				"element": "N" 
			},
			{
				"x": 1.0699314226,
				"y": 0.94431994,
				"z": 1.9271028061,
				"element": "C" 
			},
			{
				"x": 1.231855565,
				"y": 0.9203134238,
				"z": 3.2951721481,
				"element": "C" 
			},
			{
				"x": -0.0193268042,
				"y": 0.484928403,
				"z": 3.7902519969,
				"element": "C" 
			},
			{
				"x": -0.8898758595,
				"y": 0.2573926359,
				"z": 2.8124261092,
				"element": "N" 
			},
			{
				"x": -3.5885279618,
				"y": 1.8452354446,
				"z": -3.5418040233,
				"element": "H" 
			},
			{
				"x": -4.6317143194,
				"y": 0.7889548073,
				"z": -2.891799633,
				"element": "H" 
			},
			{
				"x": -2.1261075718,
				"y": 0.0700793883,
				"z": -4.2349230228,
				"element": "H" 
			},
			{
				"x": -3.2549064525,
				"y": -1.0668661351,
				"z": -3.5125103915,
				"element": "H" 
			},
			{
				"x": -0.5957750504,
				"y": 1.4059807137,
				"z": -2.8223069281,
				"element": "H" 
			},
			{
				"x": 0.4935540035,
				"y": 1.7276256682,
				"z": -0.6404911688,
				"element": "H" 
			},
			{
				"x": -2.3443832042,
				"y": -0.9307589686,
				"z": 1.1833880831,
				"element": "H" 
			},
			{
				"x": -3.4682111723,
				"y": -1.2243397964,
				"z": -1.0123944485,
				"element": "H" 
			},
			{
				"x": 1.7620146599,
				"y": 1.1817280556,
				"z": 1.1345153064,
				"element": "H" 
			},
			{
				"x": 2.1225434846,
				"y": 1.1705596991,
				"z": 3.8515957265,
				"element": "H" 
			},
			{
				"x": -0.3211298943,
				"y": 0.3311427149,
				"z": 4.8178204965,
				"element": "H" 
			}
		],
		 "valence_orbital": [ 
			{
				"type": "occ",
				"energy": -0.28848,
				"method": "rhf"
			},
			{
				"type": "occ",
				"energy": -0.25974,
				"method": "rhf"
			},
			{
				"type": "occ",
				"energy": -0.25001,
				"method": "rhf"
			},
			{
				"type": "occ",
				"energy": -0.24293,
				"method": "rhf"
			},
			{
				"type": "occ",
				"energy": -0.21876,
				"method": "rhf"
			},
			{
				"type": "unocc",
				"energy": -0.02534,
				"method": "rhf"
			},
			{
				"type": "unocc",
				"energy": -0.01076,
				"method": "rhf"
			},
			{
				"type": "unocc",
				"energy": 0.03648,
				"method": "rhf"
			},
			{
				"type": "unocc",
				"energy": 0.06925,
				"method": "rhf"
			},
			{
				"type": "unocc",
				"energy": 0.08448,
				"method": "rhf"
			}
		],
		"cosmo_sigma_profile": { 
			"-0.025": 0.0,
			"-0.024": 0.0,
			"-0.023": 0.0,
			"-0.022": 0.0,
			"-0.021": 0.0,
			"-0.02": 0.0,
			"-0.019": 0.0,
			"-0.018": 0.0,
			"-0.017": 0.0,
			"-0.016": 0.0,
			"-0.015": 0.0,
			"-0.014": 0.0,
			"-0.013": 0.0,
			"-0.012": 0.0,
			"-0.011": 0.0,
			"-0.01": 0.969494172227,
			"-0.009": 4.68816835475,
			"-0.008": 4.59666143186,
			"-0.007": 9.45201108331,
			"-0.006": 12.7800618542,
			"-0.005": 17.0195631264,
			"-0.004": 19.6750215384,
			"-0.003": 15.5539012426,
			"-0.002": 13.6302181855,
			"-0.001": 12.7575629274,
			"0.0": 13.3886161156,
			"0.001": 12.4128349015,
			"0.002": 13.9429881678,
			"0.003": 14.9416090647,
			"0.004": 17.1926063734,
			"0.005": 15.6489758791,
			"0.006": 4.17142001266,
			"0.007": 3.22675142444,
			"0.008": 2.64112649559,
			"0.009": 1.81138349865,
			"0.01": 1.55983973152,
			"0.011": 2.2636705898,
			"0.012": 1.96548766125,
			"0.013": 1.26203363397,
			"0.014": 1.50592496098,
			"0.015": 0.760429840364,
			"0.016": 0.51842562399,
			"0.017": 0.535864898953,
			"0.018": 0.854764933851,
			"0.019": 0.574832638627,
			"0.02": 0.292507398568,
			"0.021": 0.0,
			"0.022": 0.0,
			"0.023": 0.0,
			"0.024": 0.0,
			"0.025": 0.0
		}
	}
}
