{
	 "smiles": "COC1=CC=CC=C1OC1=CC=C(C=C1)S(Cl)(=O)=O", 
	 "Tm": 328.15, 
	 "num_atms": 30, 
	 "gaussian": { 
		 "optdone": 1, 
		 "sigma_profile": "yes", 
		 "theory": "DFT", 
		 "functional": "B3LYP", 
		 "basiset": "6-31G**", 
		 "properties": { 
			 "R2extent": 8971.4311, 
			 "electric_dipole_moment_norm": 7.55652396344, 
			 "electric_quadrupole_moment_norm": 24.5123017328, 
			 "total_energy": -1661.19315769, 
			 "HOMO_LUMO_gap": 0.1697, 
			 "cosmo_polarized_energy": -12.03, 
			 "cosmo_cavitation_energy": 38.41, 
			 "cosmo_dispersion_energy": -27.23, 
			 "cosmo_repulsion_energy": 2.08, 
			 "cosmo_total_nonelectrostatic_energy": 13.26, 
			 "SMD_solvation_energy": 6.18 
		},
		"coords": [
			{
				"x": 1.011743618,
				"y": -0.371207097,
				"z": 3.3571199866,
				"element": "C" 
			},
			{
				"x": 0.4980708295,
				"y": 0.9544234707,
				"z": 3.1762277559,
				"element": "O" 
			},
			{
				"x": 1.4313064976,
				"y": 1.9046036412,
				"z": 2.848236567,
				"element": "C" 
			},
			{
				"x": 1.8095604831,
				"y": 2.8631657251,
				"z": 3.7909490694,
				"element": "C" 
			},
			{
				"x": 2.7169626175,
				"y": 3.868579107,
				"z": 3.4525676698,
				"element": "C" 
			},
			{
				"x": 3.2606657116,
				"y": 3.920166432,
				"z": 2.1678674942,
				"element": "C" 
			},
			{
				"x": 2.8837359885,
				"y": 2.9726884847,
				"z": 1.2142045435,
				"element": "C" 
			},
			{
				"x": 1.9712343124,
				"y": 1.9773380437,
				"z": 1.5531435925,
				"element": "C" 
			},
			{
				"x": 1.6578728641,
				"y": 1.0039434395,
				"z": 0.6090527889,
				"element": "O" 
			},
			{
				"x": 0.4370281252,
				"y": 1.0091908846,
				"z": -0.0071805019,
				"element": "C" 
			},
			{
				"x": 0.1943860766,
				"y": -0.0742537217,
				"z": -0.8650599851,
				"element": "C" 
			},
			{
				"x": -1.0057999814,
				"y": -0.1548222982,
				"z": -1.5557175686,
				"element": "C" 
			},
			{
				"x": -1.9533412488,
				"y": 0.859524815,
				"z": -1.382898614,
				"element": "C" 
			},
			{
				"x": -1.722016339,
				"y": 1.9424332626,
				"z": -0.5325517641,
				"element": "C" 
			},
			{
				"x": -0.5170345431,
				"y": 2.0214296657,
				"z": 0.1574770933,
				"element": "C" 
			},
			{
				"x": -3.4864097701,
				"y": 0.7704727373,
				"z": -2.2725255888,
				"element": "S" 
			},
			{
				"x": -4.7227398753,
				"y": -0.3333439317,
				"z": -0.912989701,
				"element": "Cl" 
			},
			{
				"x": -4.0811499312,
				"y": 2.0991040937,
				"z": -2.3572882645,
				"element": "O" 
			},
			{
				"x": -3.3233066987,
				"y": -0.0865412252,
				"z": -3.4410293921,
				"element": "O" 
			},
			{
				"x": 0.1532482961,
				"y": -0.9992068014,
				"z": 3.6008164781,
				"element": "H" 
			},
			{
				"x": 1.4914400487,
				"y": -0.7435961295,
				"z": 2.4459925248,
				"element": "H" 
			},
			{
				"x": 1.7313291731,
				"y": -0.3996462794,
				"z": 4.1846161273,
				"element": "H" 
			},
			{
				"x": 1.3745414889,
				"y": 2.8032687498,
				"z": 4.7834651068,
				"element": "H" 
			},
			{
				"x": 3.0026239977,
				"y": 4.6068727814,
				"z": 4.1955280076,
				"element": "H" 
			},
			{
				"x": 3.9707725489,
				"y": 4.6971541682,
				"z": 1.9032711019,
				"element": "H" 
			},
			{
				"x": 3.2865544341,
				"y": 2.9899020088,
				"z": 0.2066412243,
				"element": "H" 
			},
			{
				"x": 0.9603321579,
				"y": -0.8334773532,
				"z": -0.9789881003,
				"element": "H" 
			},
			{
				"x": -1.206688535,
				"y": -0.9808508252,
				"z": -2.2284418291,
				"element": "H" 
			},
			{
				"x": -2.4717233514,
				"y": 2.7179473425,
				"z": -0.423117168,
				"element": "H" 
			},
			{
				"x": -0.3189989955,
				"y": 2.8582368093,
				"z": 0.8158113456,
				"element": "H" 
			}
		],
		 "valence_orbital": [ 
			{
				"type": "occ",
				"energy": -0.29647,
				"method": "rhf"
			},
			{
				"type": "occ",
				"energy": -0.28504,
				"method": "rhf"
			},
			{
				"type": "occ",
				"energy": -0.26983,
				"method": "rhf"
			},
			{
				"type": "occ",
				"energy": -0.25859,
				"method": "rhf"
			},
			{
				"type": "occ",
				"energy": -0.25192,
				"method": "rhf"
			},
			{
				"type": "unocc",
				"energy": -0.08222,
				"method": "rhf"
			},
			{
				"type": "unocc",
				"energy": -0.03515,
				"method": "rhf"
			},
			{
				"type": "unocc",
				"energy": -0.0312,
				"method": "rhf"
			},
			{
				"type": "unocc",
				"energy": -0.02095,
				"method": "rhf"
			},
			{
				"type": "unocc",
				"energy": -0.01763,
				"method": "rhf"
			}
		],
		"cosmo_sigma_profile": { 
			"-0.025": 0.0,
			"-0.024": 0.0,
			"-0.023": 0.0,
			"-0.022": 0.0,
			"-0.021": 0.0,
			"-0.02": 0.0,
			"-0.019": 0.0,
			"-0.018": 0.0,
			"-0.017": 0.0,
			"-0.016": 0.0,
			"-0.015": 0.0,
			"-0.014": 0.0,
			"-0.013": 0.0,
			"-0.012": 0.0,
			"-0.011": 0.0,
			"-0.01": 0.0,
			"-0.009": 0.81347692318,
			"-0.008": 5.57734390414,
			"-0.007": 9.41970340587,
			"-0.006": 16.2408480475,
			"-0.005": 19.4670504402,
			"-0.004": 22.532577874,
			"-0.003": 24.0754769255,
			"-0.002": 24.2158863789,
			"-0.001": 22.2418648065,
			"0.0": 26.9300875414,
			"0.001": 28.7283178949,
			"0.002": 20.6983318641,
			"0.003": 23.1342526804,
			"0.004": 24.9257055113,
			"0.005": 8.27254519113,
			"0.006": 5.3349866802,
			"0.007": 7.62506493751,
			"0.008": 11.0184141872,
			"0.009": 7.28348710561,
			"0.01": 1.09297739249,
			"0.011": 1.13467593029,
			"0.012": 0.12026610764,
			"0.013": 0.0,
			"0.014": 0.0,
			"0.015": 0.0,
			"0.016": 0.0,
			"0.017": 0.0,
			"0.018": 0.0,
			"0.019": 0.0,
			"0.02": 0.0,
			"0.021": 0.0,
			"0.022": 0.0,
			"0.023": 0.0,
			"0.024": 0.0,
			"0.025": 0.0
		}
	}
}
