{
	 "smiles": "CC1=C(F)C=C(C=C1)C1=NN=C(N)O1", 
	 "Tm": 538.15, 
	 "num_atms": 22, 
	 "gaussian": { 
		 "optdone": 1, 
		 "sigma_profile": "yes", 
		 "theory": "DFT", 
		 "functional": "B3LYP", 
		 "basiset": "6-31G**", 
		 "properties": { 
			 "R2extent": 3868.7917, 
			 "electric_dipole_moment_norm": 4.84677469767, 
			 "electric_quadrupole_moment_norm": 17.5265872086, 
			 "total_energy": -687.077293766, 
			 "HOMO_LUMO_gap": 0.17446, 
			 "cosmo_polarized_energy": -15.69, 
			 "cosmo_cavitation_energy": 27.64, 
			 "cosmo_dispersion_energy": -20.39, 
			 "cosmo_repulsion_energy": 1.58, 
			 "cosmo_total_nonelectrostatic_energy": 8.83, 
			 "SMD_solvation_energy": 3.76 
		},
		"coords": [
			{
				"x": -3.5611923457,
				"y": -2.7654169473,
				"z": -0.0501113234,
				"element": "C" 
			},
			{
				"x": -2.5456773329,
				"y": -1.685080656,
				"z": 0.211523144,
				"element": "C" 
			},
			{
				"x": -2.2826755795,
				"y": -0.7108098257,
				"z": -0.7589786221,
				"element": "C" 
			},
			{
				"x": -2.9673126975,
				"y": -0.7795032161,
				"z": -1.9237807054,
				"element": "F" 
			},
			{
				"x": -1.3655092723,
				"y": 0.3097743966,
				"z": -0.5896275284,
				"element": "C" 
			},
			{
				"x": -0.6538729079,
				"y": 0.3821009213,
				"z": 0.6197580472,
				"element": "C" 
			},
			{
				"x": -0.8887136491,
				"y": -0.5745854234,
				"z": 1.6173820107,
				"element": "C" 
			},
			{
				"x": -1.8224690401,
				"y": -1.5882662465,
				"z": 1.4050528537,
				"element": "C" 
			},
			{
				"x": 0.3122869251,
				"y": 1.4552440097,
				"z": 0.8043799135,
				"element": "C" 
			},
			{
				"x": 0.6341593381,
				"y": 2.4140794408,
				"z": -0.0055690347,
				"element": "N" 
			},
			{
				"x": 1.6219767999,
				"y": 3.1767567032,
				"z": 0.622365366,
				"element": "N" 
			},
			{
				"x": 1.8073644628,
				"y": 2.6146914661,
				"z": 1.7811348338,
				"element": "C" 
			},
			{
				"x": 2.6164533838,
				"y": 3.0208411397,
				"z": 2.8055892856,
				"element": "N" 
			},
			{
				"x": 1.0293898261,
				"y": 1.5213217551,
				"z": 1.9855085558,
				"element": "O" 
			},
			{
				"x": -3.2920130742,
				"y": -3.3583155646,
				"z": -0.9310494104,
				"element": "H" 
			},
			{
				"x": -3.642488413,
				"y": -3.4401585153,
				"z": 0.8054263558,
				"element": "H" 
			},
			{
				"x": -4.551124712,
				"y": -2.3399471587,
				"z": -0.2476081671,
				"element": "H" 
			},
			{
				"x": -1.2010010668,
				"y": 1.0381273331,
				"z": -1.3749130837,
				"element": "H" 
			},
			{
				"x": -0.3440941536,
				"y": -0.5228337001,
				"z": 2.5534169742,
				"element": "H" 
			},
			{
				"x": -1.9977628319,
				"y": -2.3248682552,
				"z": 2.1844515517,
				"element": "H" 
			},
			{
				"x": 2.9860440823,
				"y": 2.2842679016,
				"z": 3.3904098101,
				"element": "H" 
			},
			{
				"x": 3.2989322585,
				"y": 3.7104804417,
				"z": 2.5229391732,
				"element": "H" 
			}
		],
		 "valence_orbital": [ 
			{
				"type": "occ",
				"energy": -0.3153,
				"method": "rhf"
			},
			{
				"type": "occ",
				"energy": -0.27436,
				"method": "rhf"
			},
			{
				"type": "occ",
				"energy": -0.27053,
				"method": "rhf"
			},
			{
				"type": "occ",
				"energy": -0.25187,
				"method": "rhf"
			},
			{
				"type": "occ",
				"energy": -0.21856,
				"method": "rhf"
			},
			{
				"type": "unocc",
				"energy": -0.0441,
				"method": "rhf"
			},
			{
				"type": "unocc",
				"energy": -0.006,
				"method": "rhf"
			},
			{
				"type": "unocc",
				"energy": 0.03651,
				"method": "rhf"
			},
			{
				"type": "unocc",
				"energy": 0.06246,
				"method": "rhf"
			},
			{
				"type": "unocc",
				"energy": 0.06913,
				"method": "rhf"
			}
		],
		"cosmo_sigma_profile": { 
			"-0.025": 0.0,
			"-0.024": 0.0,
			"-0.023": 0.0,
			"-0.022": 0.0,
			"-0.021": 0.0,
			"-0.02": 0.0,
			"-0.019": 0.0,
			"-0.018": 0.0,
			"-0.017": 0.0,
			"-0.016": 0.181067099207,
			"-0.015": 2.1979492267,
			"-0.014": 2.96021119242,
			"-0.013": 2.652912136,
			"-0.012": 2.25888203571,
			"-0.011": 2.08353717234,
			"-0.01": 1.9960810828,
			"-0.009": 1.7852280455,
			"-0.008": 1.98847591519,
			"-0.007": 3.24169470359,
			"-0.006": 7.60279458166,
			"-0.005": 10.5573078122,
			"-0.004": 13.4850191015,
			"-0.003": 13.6365990685,
			"-0.002": 15.4570980843,
			"-0.001": 18.8342960985,
			"0.0": 21.1953547613,
			"0.001": 17.3452533262,
			"0.002": 19.171902424,
			"0.003": 16.5402679833,
			"0.004": 14.3880990447,
			"0.005": 4.2207117965,
			"0.006": 3.00652197075,
			"0.007": 2.12109069149,
			"0.008": 2.95879763813,
			"0.009": 2.33123115952,
			"0.01": 2.43005329222,
			"0.011": 3.15356730643,
			"0.012": 3.41326161526,
			"0.013": 2.96521601945,
			"0.014": 2.82271278167,
			"0.015": 1.52895211582,
			"0.016": 0.82337164926,
			"0.017": 0.0289328328645,
			"0.018": 0.0,
			"0.019": 0.0,
			"0.02": 0.0,
			"0.021": 0.0,
			"0.022": 0.0,
			"0.023": 0.0,
			"0.024": 0.0,
			"0.025": 0.0
		}
	}
}
