{
	 "smiles": "OC(=O)C1=C(F)C(F)=NC(F)=C1", 
	 "Tm": 399.15, 
	 "num_atms": 14, 
	 "gaussian": { 
		 "optdone": 1, 
		 "sigma_profile": "yes", 
		 "theory": "DFT", 
		 "functional": "B3LYP", 
		 "basiset": "6-31G**", 
		 "properties": { 
			 "R2extent": 1982.9858, 
			 "electric_dipole_moment_norm": 1.65699851841, 
			 "electric_quadrupole_moment_norm": 14.3896419893, 
			 "total_energy": -734.54500794, 
			 "HOMO_LUMO_gap": 0.18922, 
			 "cosmo_polarized_energy": -10.84, 
			 "cosmo_cavitation_energy": 21.03, 
			 "cosmo_dispersion_energy": -15.47, 
			 "cosmo_repulsion_energy": 1.15, 
			 "cosmo_total_nonelectrostatic_energy": 6.71, 
			 "SMD_solvation_energy": 4.76 
		},
		"coords": [
			{
				"x": -1.6783573416,
				"y": 0.2241049594,
				"z": 2.1416977403,
				"element": "O" 
			},
			{
				"x": -0.411261135,
				"y": 0.5718198033,
				"z": 1.8606676625,
				"element": "C" 
			},
			{
				"x": 0.2755732574,
				"y": 1.1486282541,
				"z": 2.6680678042,
				"element": "O" 
			},
			{
				"x": 0.1301513423,
				"y": 0.2155635511,
				"z": 0.4896138731,
				"element": "C" 
			},
			{
				"x": -0.5796426206,
				"y": -0.4476575987,
				"z": -0.5094964926,
				"element": "C" 
			},
			{
				"x": -1.865634859,
				"y": -0.8459490418,
				"z": -0.3323426016,
				"element": "F" 
			},
			{
				"x": 0.0424851773,
				"y": -0.713560604,
				"z": -1.7298478197,
				"element": "C" 
			},
			{
				"x": -0.6506624816,
				"y": -1.3479363037,
				"z": -2.6724316134,
				"element": "F" 
			},
			{
				"x": 1.2800005776,
				"y": -0.3700336463,
				"z": -1.9989984718,
				"element": "N" 
			},
			{
				"x": 1.9531416431,
				"y": 0.2598486592,
				"z": -1.0492636297,
				"element": "C" 
			},
			{
				"x": 3.2076649761,
				"y": 0.596716305,
				"z": -1.350129031,
				"element": "F" 
			},
			{
				"x": 1.4505098463,
				"y": 0.582798642,
				"z": 0.2044291967,
				"element": "C" 
			},
			{
				"x": -2.0954249201,
				"y": -0.2303960969,
				"z": 1.3926328057,
				"element": "H" 
			},
			{
				"x": 2.0403565378,
				"y": 1.0997531172,
				"z": 0.9503005772,
				"element": "H" 
			}
		],
		 "valence_orbital": [ 
			{
				"type": "occ",
				"energy": -0.34585,
				"method": "rhf"
			},
			{
				"type": "occ",
				"energy": -0.33426,
				"method": "rhf"
			},
			{
				"type": "occ",
				"energy": -0.32662,
				"method": "rhf"
			},
			{
				"type": "occ",
				"energy": -0.30361,
				"method": "rhf"
			},
			{
				"type": "occ",
				"energy": -0.28423,
				"method": "rhf"
			},
			{
				"type": "unocc",
				"energy": -0.09501,
				"method": "rhf"
			},
			{
				"type": "unocc",
				"energy": -0.04094,
				"method": "rhf"
			},
			{
				"type": "unocc",
				"energy": 0.02353,
				"method": "rhf"
			},
			{
				"type": "unocc",
				"energy": 0.03893,
				"method": "rhf"
			},
			{
				"type": "unocc",
				"energy": 0.09572,
				"method": "rhf"
			}
		],
		"cosmo_sigma_profile": { 
			"-0.025": 0.0,
			"-0.024": 0.0,
			"-0.023": 0.0,
			"-0.022": 0.0,
			"-0.021": 0.0,
			"-0.02": 0.0,
			"-0.019": 0.0,
			"-0.018": 0.0,
			"-0.017": 0.0,
			"-0.016": 0.0,
			"-0.015": 0.161169938287,
			"-0.014": 0.696141912901,
			"-0.013": 1.28890096615,
			"-0.012": 1.88884283097,
			"-0.011": 2.2082177948,
			"-0.01": 1.7558031143,
			"-0.009": 2.84602134927,
			"-0.008": 3.12287513434,
			"-0.007": 4.97903153908,
			"-0.006": 9.51322293592,
			"-0.005": 10.8015818612,
			"-0.004": 10.8545360423,
			"-0.003": 10.828998843,
			"-0.002": 9.78177109798,
			"-0.001": 7.79330053221,
			"0.0": 9.83859132196,
			"0.001": 11.2277555079,
			"0.002": 19.1456156095,
			"0.003": 13.3360529415,
			"0.004": 5.24671345104,
			"0.005": 4.48629169141,
			"0.006": 3.63894467355,
			"0.007": 4.57201336901,
			"0.008": 3.95736673265,
			"0.009": 6.54052309623,
			"0.01": 5.82145374492,
			"0.011": 3.90063977761,
			"0.012": 0.964913170041,
			"0.013": 0.0,
			"0.014": 0.0,
			"0.015": 0.0,
			"0.016": 0.0,
			"0.017": 0.0,
			"0.018": 0.0,
			"0.019": 0.0,
			"0.02": 0.0,
			"0.021": 0.0,
			"0.022": 0.0,
			"0.023": 0.0,
			"0.024": 0.0,
			"0.025": 0.0
		}
	}
}
