{
	 "smiles": "CN(C)C1=CC=C(C=C1)C1=C(C#N)C(=O)N(N)C(N)=C1C#N", 
	 "Tm": 602.15, 
	 "num_atms": 36, 
	 "gaussian": { 
		 "optdone": 1, 
		 "sigma_profile": "yes", 
		 "theory": "DFT", 
		 "functional": "B3LYP", 
		 "basiset": "6-31G**", 
		 "properties": { 
			 "R2extent": 8293.9368, 
			 "electric_dipole_moment_norm": 4.26468710927, 
			 "electric_quadrupole_moment_norm": 51.3437341664, 
			 "total_energy": -983.72172442, 
			 "HOMO_LUMO_gap": 0.13615, 
			 "cosmo_polarized_energy": -28.83, 
			 "cosmo_cavitation_energy": 41.18, 
			 "cosmo_dispersion_energy": -28.43, 
			 "cosmo_repulsion_energy": 2.15, 
			 "cosmo_total_nonelectrostatic_energy": 14.9, 
			 "SMD_solvation_energy": 9.73 
		},
		"coords": [
			{
				"x": 2.1743587791,
				"y": -4.4094178835,
				"z": -1.1169251936,
				"element": "C" 
			},
			{
				"x": 2.2497935703,
				"y": -3.5825866664,
				"z": 0.0761832817,
				"element": "N" 
			},
			{
				"x": 3.0990330662,
				"y": -3.9970383792,
				"z": 1.1813298954,
				"element": "C" 
			},
			{
				"x": 1.6476118882,
				"y": -2.3430617401,
				"z": 0.0963142014,
				"element": "C" 
			},
			{
				"x": 1.7518716818,
				"y": -1.4907729412,
				"z": 1.2230912325,
				"element": "C" 
			},
			{
				"x": 1.144352154,
				"y": -0.2457109975,
				"z": 1.2376661895,
				"element": "C" 
			},
			{
				"x": 0.3858988919,
				"y": 0.2181442954,
				"z": 0.1476284823,
				"element": "C" 
			},
			{
				"x": 0.277078587,
				"y": -0.6295973229,
				"z": -0.969666745,
				"element": "C" 
			},
			{
				"x": 0.8967139173,
				"y": -1.8688519685,
				"z": -1.0071046833,
				"element": "C" 
			},
			{
				"x": -0.2669595587,
				"y": 1.5416604677,
				"z": 0.1717940141,
				"element": "C" 
			},
			{
				"x": 0.4085214425,
				"y": 2.688265522,
				"z": 0.6079001063,
				"element": "C" 
			},
			{
				"x": 1.7851863494,
				"y": 2.6800790302,
				"z": 0.9827603074,
				"element": "C" 
			},
			{
				"x": 2.9083454984,
				"y": 2.6993553549,
				"z": 1.2892668737,
				"element": "N" 
			},
			{
				"x": -0.2255195241,
				"y": 3.9905472803,
				"z": 0.6469043923,
				"element": "C" 
			},
			{
				"x": 0.2615104483,
				"y": 5.0499958171,
				"z": 1.0206345634,
				"element": "O" 
			},
			{
				"x": -1.5754471745,
				"y": 4.0144193392,
				"z": 0.172388523,
				"element": "N" 
			},
			{
				"x": -2.2520553152,
				"y": 5.2547621066,
				"z": 0.1776302934,
				"element": "N" 
			},
			{
				"x": -2.2695804998,
				"y": 2.9208523474,
				"z": -0.2530262599,
				"element": "C" 
			},
			{
				"x": -3.540545297,
				"y": 3.1046876388,
				"z": -0.6461963445,
				"element": "N" 
			},
			{
				"x": -1.6257435246,
				"y": 1.6654291621,
				"z": -0.2551014571,
				"element": "C" 
			},
			{
				"x": -2.4450558259,
				"y": 0.5654592396,
				"z": -0.6301168759,
				"element": "C" 
			},
			{
				"x": -3.2220972742,
				"y": -0.2423749588,
				"z": -0.9544678525,
				"element": "N" 
			},
			{
				"x": 2.6567428448,
				"y": -3.9364217417,
				"z": -1.9844715338,
				"element": "H" 
			},
			{
				"x": 2.6765378675,
				"y": -5.3586198277,
				"z": -0.9274177309,
				"element": "H" 
			},
			{
				"x": 1.1340292112,
				"y": -4.6300799322,
				"z": -1.3862991746,
				"element": "H" 
			},
			{
				"x": 2.5405036476,
				"y": -4.039424785,
				"z": 2.1250851791,
				"element": "H" 
			},
			{
				"x": 3.9544690941,
				"y": -3.3219705657,
				"z": 1.3233811967,
				"element": "H" 
			},
			{
				"x": 3.4865458905,
				"y": -4.9961922951,
				"z": 0.9799912203,
				"element": "H" 
			},
			{
				"x": 2.3122899831,
				"y": -1.8013209619,
				"z": 2.095632699,
				"element": "H" 
			},
			{
				"x": 1.247245682,
				"y": 0.3707621697,
				"z": 2.1237072641,
				"element": "H" 
			},
			{
				"x": -0.2774441025,
				"y": -0.3037463923,
				"z": -1.8434818774,
				"element": "H" 
			},
			{
				"x": 0.7990453206,
				"y": -2.468415793,
				"z": -1.9031302675,
				"element": "H" 
			},
			{
				"x": -2.1028681329,
				"y": 5.6507417803,
				"z": 1.1065869674,
				"element": "H" 
			},
			{
				"x": -1.7332328106,
				"y": 5.8721098523,
				"z": -0.4486495912,
				"element": "H" 
			},
			{
				"x": -4.1022730362,
				"y": 2.3072029675,
				"z": -0.9021978838,
				"element": "H" 
			},
			{
				"x": -3.9377637394,
				"y": 4.0259307815,
				"z": -0.5314234121,
				"element": "H" 
			}
		],
		 "valence_orbital": [ 
			{
				"type": "occ",
				"energy": -0.2791,
				"method": "rhf"
			},
			{
				"type": "occ",
				"energy": -0.27682,
				"method": "rhf"
			},
			{
				"type": "occ",
				"energy": -0.25246,
				"method": "rhf"
			},
			{
				"type": "occ",
				"energy": -0.22019,
				"method": "rhf"
			},
			{
				"type": "occ",
				"energy": -0.19761,
				"method": "rhf"
			},
			{
				"type": "unocc",
				"energy": -0.06146,
				"method": "rhf"
			},
			{
				"type": "unocc",
				"energy": -0.02727,
				"method": "rhf"
			},
			{
				"type": "unocc",
				"energy": -0.00638,
				"method": "rhf"
			},
			{
				"type": "unocc",
				"energy": 0.01791,
				"method": "rhf"
			},
			{
				"type": "unocc",
				"energy": 0.024,
				"method": "rhf"
			}
		],
		"cosmo_sigma_profile": { 
			"-0.025": 0.0,
			"-0.024": 0.0,
			"-0.023": 0.0,
			"-0.022": 0.0,
			"-0.021": 0.0,
			"-0.02": 0.0,
			"-0.019": 0.0,
			"-0.018": 0.0,
			"-0.017": 0.0,
			"-0.016": 0.0,
			"-0.015": 0.575618785032,
			"-0.014": 1.63103703989,
			"-0.013": 3.77843869211,
			"-0.012": 5.53679967932,
			"-0.011": 4.54876400812,
			"-0.01": 3.95137862825,
			"-0.009": 3.05762971678,
			"-0.008": 4.21843182064,
			"-0.007": 6.86015397787,
			"-0.006": 12.1565776108,
			"-0.005": 24.2523198285,
			"-0.004": 29.5926794507,
			"-0.003": 27.7370515065,
			"-0.002": 29.8818845384,
			"-0.001": 24.5404182481,
			"0.0": 17.3217353456,
			"0.001": 13.2073505572,
			"0.002": 11.8688808169,
			"0.003": 11.6095638149,
			"0.004": 15.0044408284,
			"0.005": 13.935366802,
			"0.006": 8.89300747585,
			"0.007": 6.84655749751,
			"0.008": 7.18974173863,
			"0.009": 7.46940278259,
			"0.01": 8.34393145931,
			"0.011": 8.22426365526,
			"0.012": 9.72231272128,
			"0.013": 6.52162333398,
			"0.014": 1.24940898556,
			"0.015": 0.0,
			"0.016": 0.0,
			"0.017": 0.0,
			"0.018": 0.0,
			"0.019": 0.0,
			"0.02": 0.0,
			"0.021": 0.0,
			"0.022": 0.0,
			"0.023": 0.0,
			"0.024": 0.0,
			"0.025": 0.0
		}
	}
}
