{
	 "smiles": "OC(=O)C1=CN(N=C1C1=C2C=CC=CC2=CC=C1)C1=CC=CC=C1", 
	 "Tm": 460.15, 
	 "num_atms": 38, 
	 "gaussian": { 
		 "optdone": 1, 
		 "sigma_profile": "yes", 
		 "theory": "DFT", 
		 "functional": "B3LYP", 
		 "basiset": "6-31G**", 
		 "properties": { 
			 "R2extent": 8893.3773, 
			 "electric_dipole_moment_norm": 5.52652369668, 
			 "electric_quadrupole_moment_norm": 30.7976459065, 
			 "total_energy": -1030.51675442, 
			 "HOMO_LUMO_gap": 0.15775, 
			 "cosmo_polarized_energy": -22.28, 
			 "cosmo_cavitation_energy": 42.78, 
			 "cosmo_dispersion_energy": -30.29, 
			 "cosmo_repulsion_energy": 2.27, 
			 "cosmo_total_nonelectrostatic_energy": 14.76, 
			 "SMD_solvation_energy": 7.38 
		},
		"coords": [
			{
				"x": 3.5798349065,
				"y": -2.5688692564,
				"z": 1.7906483874,
				"element": "O" 
			},
			{
				"x": 2.514442459,
				"y": -2.4373812919,
				"z": 0.9412130887,
				"element": "C" 
			},
			{
				"x": 2.240195087,
				"y": -3.3312956855,
				"z": 0.1792407447,
				"element": "O" 
			},
			{
				"x": 1.7576731804,
				"y": -1.1708849387,
				"z": 1.0769937137,
				"element": "C" 
			},
			{
				"x": 1.6187976205,
				"y": -0.4306684572,
				"z": 2.2405811274,
				"element": "C" 
			},
			{
				"x": 0.7610058275,
				"y": 0.5854011026,
				"z": 1.9714534624,
				"element": "N" 
			},
			{
				"x": 0.3423654491,
				"y": 0.5602397558,
				"z": 0.6788933014,
				"element": "N" 
			},
			{
				"x": 0.9211406622,
				"y": -0.5029956703,
				"z": 0.120715445,
				"element": "C" 
			},
			{
				"x": 0.7206774017,
				"y": -0.8213763164,
				"z": -1.3102882041,
				"element": "C" 
			},
			{
				"x": -0.5783695899,
				"y": -0.7936592993,
				"z": -1.9273531453,
				"element": "C" 
			},
			{
				"x": -1.7816458752,
				"y": -0.5137935779,
				"z": -1.2210610494,
				"element": "C" 
			},
			{
				"x": -3.0007051214,
				"y": -0.515919376,
				"z": -1.8620978088,
				"element": "C" 
			},
			{
				"x": -3.0899457043,
				"y": -0.7956622558,
				"z": -3.2458719063,
				"element": "C" 
			},
			{
				"x": -1.9490093259,
				"y": -1.0785154961,
				"z": -3.959171689,
				"element": "C" 
			},
			{
				"x": -0.6746681428,
				"y": -1.0924553262,
				"z": -3.3294094993,
				"element": "C" 
			},
			{
				"x": 0.4982429611,
				"y": -1.4033512884,
				"z": -4.0660038302,
				"element": "C" 
			},
			{
				"x": 1.7263149246,
				"y": -1.4309936259,
				"z": -3.4492943788,
				"element": "C" 
			},
			{
				"x": 1.8313398605,
				"y": -1.140952449,
				"z": -2.0730398849,
				"element": "C" 
			},
			{
				"x": 0.3058234943,
				"y": 1.6102024845,
				"z": 2.8478051638,
				"element": "C" 
			},
			{
				"x": -0.169813325,
				"y": 2.8088774543,
				"z": 2.3060164661,
				"element": "C" 
			},
			{
				"x": -0.6068517753,
				"y": 3.8180588676,
				"z": 3.1614210748,
				"element": "C" 
			},
			{
				"x": -0.5665342435,
				"y": 3.6444696711,
				"z": 4.5467017236,
				"element": "C" 
			},
			{
				"x": -0.0953403552,
				"y": 2.4423949538,
				"z": 5.0765801538,
				"element": "C" 
			},
			{
				"x": 0.3341900741,
				"y": 1.4183916977,
				"z": 4.2331746698,
				"element": "C" 
			},
			{
				"x": 3.7912164581,
				"y": -1.7112048814,
				"z": 2.1847020685,
				"element": "H" 
			},
			{
				"x": 2.0402550708,
				"y": -0.5732820804,
				"z": 3.224291074,
				"element": "H" 
			},
			{
				"x": -1.7293672612,
				"y": -0.2838810749,
				"z": -0.1648561054,
				"element": "H" 
			},
			{
				"x": -3.9040800352,
				"y": -0.3012122575,
				"z": -1.2981796301,
				"element": "H" 
			},
			{
				"x": -4.0579125525,
				"y": -0.7908591887,
				"z": -3.7387227524,
				"element": "H" 
			},
			{
				"x": -2.0031013499,
				"y": -1.3030232064,
				"z": -5.021451831,
				"element": "H" 
			},
			{
				"x": 0.4059332036,
				"y": -1.6233994048,
				"z": -5.1264594491,
				"element": "H" 
			},
			{
				"x": 2.6218657056,
				"y": -1.6726304046,
				"z": -4.0135536281,
				"element": "H" 
			},
			{
				"x": 2.8102190193,
				"y": -1.1598914951,
				"z": -1.6062844781,
				"element": "H" 
			},
			{
				"x": -0.1921829832,
				"y": 2.9283935908,
				"z": 1.2299231271,
				"element": "H" 
			},
			{
				"x": -0.9756508199,
				"y": 4.7481544579,
				"z": 2.7395654156,
				"element": "H" 
			},
			{
				"x": -0.9052094348,
				"y": 4.4363790376,
				"z": 5.2074462343,
				"element": "H" 
			},
			{
				"x": -0.0735949019,
				"y": 2.2899443137,
				"z": 6.1513810237,
				"element": "H" 
			},
			{
				"x": 0.6619494312,
				"y": 0.4738509173,
				"z": 4.6543518046,
				"element": "H" 
			}
		],
		 "valence_orbital": [ 
			{
				"type": "occ",
				"energy": -0.27115,
				"method": "rhf"
			},
			{
				"type": "occ",
				"energy": -0.26588,
				"method": "rhf"
			},
			{
				"type": "occ",
				"energy": -0.24173,
				"method": "rhf"
			},
			{
				"type": "occ",
				"energy": -0.23777,
				"method": "rhf"
			},
			{
				"type": "occ",
				"energy": -0.20593,
				"method": "rhf"
			},
			{
				"type": "unocc",
				"energy": -0.04818,
				"method": "rhf"
			},
			{
				"type": "unocc",
				"energy": -0.04153,
				"method": "rhf"
			},
			{
				"type": "unocc",
				"energy": -0.02132,
				"method": "rhf"
			},
			{
				"type": "unocc",
				"energy": -0.00983,
				"method": "rhf"
			},
			{
				"type": "unocc",
				"energy": -0.00325,
				"method": "rhf"
			}
		],
		"cosmo_sigma_profile": { 
			"-0.025": 0.0,
			"-0.024": 0.0,
			"-0.023": 0.0,
			"-0.022": 0.0,
			"-0.021": 0.0,
			"-0.02": 0.0,
			"-0.019": 0.202842978564,
			"-0.018": 1.08583848535,
			"-0.017": 1.10205713185,
			"-0.016": 1.26783514621,
			"-0.015": 0.963320889483,
			"-0.014": 1.10097023082,
			"-0.013": 1.76275982172,
			"-0.012": 2.09707919807,
			"-0.011": 2.25173698154,
			"-0.01": 2.41930948761,
			"-0.009": 2.51334444192,
			"-0.008": 2.26089623098,
			"-0.007": 5.85062541705,
			"-0.006": 21.4138268499,
			"-0.005": 24.8649067577,
			"-0.004": 25.753443476,
			"-0.003": 21.8441683761,
			"-0.002": 18.4089993412,
			"-0.001": 21.4972948389,
			"0.0": 22.516230803,
			"0.001": 21.6081008746,
			"0.002": 18.922006817,
			"0.003": 28.3770067044,
			"0.004": 35.432619228,
			"0.005": 20.8206780167,
			"0.006": 5.44671466463,
			"0.007": 4.83812381638,
			"0.008": 3.96744014934,
			"0.009": 5.440752037,
			"0.01": 5.43855111763,
			"0.011": 6.00644675343,
			"0.012": 5.46735941695,
			"0.013": 1.78788759783,
			"0.014": 0.0862123683474,
			"0.015": 0.0,
			"0.016": 0.0,
			"0.017": 0.0,
			"0.018": 0.0,
			"0.019": 0.0,
			"0.02": 0.0,
			"0.021": 0.0,
			"0.022": 0.0,
			"0.023": 0.0,
			"0.024": 0.0,
			"0.025": 0.0
		}
	}
}
