{
	 "smiles": "CC(C)CC(NC(=O)OCC1C2=C(C=CC=C2)C2=C1C=CC=C2)C(O)=O", 
	 "Tm": 428.15, 
	 "num_atms": 49, 
	 "gaussian": { 
		 "optdone": 1, 
		 "sigma_profile": "yes", 
		 "theory": "DFT", 
		 "functional": "B3LYP", 
		 "basiset": "6-31G**", 
		 "properties": { 
			 "R2extent": 12530.1506, 
			 "electric_dipole_moment_norm": 1.31519524406, 
			 "electric_quadrupole_moment_norm": 19.5764747506, 
			 "total_energy": -1169.80607215, 
			 "HOMO_LUMO_gap": 0.18443, 
			 "cosmo_polarized_energy": -18.03, 
			 "cosmo_cavitation_energy": 52.73, 
			 "cosmo_dispersion_energy": -34.22, 
			 "cosmo_repulsion_energy": 2.6, 
			 "cosmo_total_nonelectrostatic_energy": 21.11, 
			 "SMD_solvation_energy": 10.05 
		},
		"coords": [
			{
				"x": -1.8493747805,
				"y": 3.414270971,
				"z": -4.2062323773,
				"element": "C" 
			},
			{
				"x": -2.8980082982,
				"y": 2.959494373,
				"z": -3.1775969735,
				"element": "C" 
			},
			{
				"x": -3.790804118,
				"y": 1.860349955,
				"z": -3.7749571987,
				"element": "C" 
			},
			{
				"x": -2.179950424,
				"y": 2.5512136744,
				"z": -1.875107749,
				"element": "C" 
			},
			{
				"x": -3.0478867259,
				"y": 2.179268566,
				"z": -0.6400499806,
				"element": "C" 
			},
			{
				"x": -3.6883861847,
				"y": 0.8740734474,
				"z": -0.7041625563,
				"element": "N" 
			},
			{
				"x": -3.106045452,
				"y": -0.3220978942,
				"z": -0.3990059123,
				"element": "C" 
			},
			{
				"x": -3.690764326,
				"y": -1.3897625154,
				"z": -0.3976275094,
				"element": "O" 
			},
			{
				"x": -1.7821282315,
				"y": -0.1710207344,
				"z": -0.1052934613,
				"element": "O" 
			},
			{
				"x": -1.1045597125,
				"y": -1.3880796378,
				"z": 0.2704439702,
				"element": "C" 
			},
			{
				"x": 0.4057722792,
				"y": -1.1391770724,
				"z": 0.2213110821,
				"element": "C" 
			},
			{
				"x": 1.1805266006,
				"y": -2.4229266877,
				"z": 0.4873126819,
				"element": "C" 
			},
			{
				"x": 2.0351775182,
				"y": -2.2583404762,
				"z": 1.5962752932,
				"element": "C" 
			},
			{
				"x": 2.8446422383,
				"y": -3.3115741311,
				"z": 2.0269876457,
				"element": "C" 
			},
			{
				"x": 2.78975734,
				"y": -4.5279712851,
				"z": 1.3425076334,
				"element": "C" 
			},
			{
				"x": 1.9409969159,
				"y": -4.6907609338,
				"z": 0.2424815276,
				"element": "C" 
			},
			{
				"x": 1.1299014535,
				"y": -3.6355048345,
				"z": -0.191708539,
				"element": "C" 
			},
			{
				"x": 1.8866087138,
				"y": -0.8873463893,
				"z": 2.1021770342,
				"element": "C" 
			},
			{
				"x": 0.93949877,
				"y": -0.2113844386,
				"z": 1.304103979,
				"element": "C" 
			},
			{
				"x": 0.6265884279,
				"y": 1.1192524035,
				"z": 1.5622164743,
				"element": "C" 
			},
			{
				"x": 1.2568587255,
				"y": 1.7717832405,
				"z": 2.6282749979,
				"element": "C" 
			},
			{
				"x": 2.1912927376,
				"y": 1.0991160889,
				"z": 3.4228119068,
				"element": "C" 
			},
			{
				"x": 2.5150471672,
				"y": -0.2346381455,
				"z": 3.1647418674,
				"element": "C" 
			},
			{
				"x": -4.0533034892,
				"y": 3.2907250295,
				"z": -0.3662270754,
				"element": "C" 
			},
			{
				"x": -5.3429221643,
				"y": 2.9047388538,
				"z": -0.5229140206,
				"element": "O" 
			},
			{
				"x": -3.7384971104,
				"y": 4.4206385396,
				"z": -0.0717284136,
				"element": "O" 
			},
			{
				"x": -2.3289091214,
				"y": 3.765723431,
				"z": -5.1257850022,
				"element": "H" 
			},
			{
				"x": -1.2306563289,
				"y": 4.2297690504,
				"z": -3.8168012048,
				"element": "H" 
			},
			{
				"x": -1.181391705,
				"y": 2.5871774171,
				"z": -4.4760623694,
				"element": "H" 
			},
			{
				"x": -3.5321961753,
				"y": 3.8296847867,
				"z": -2.9529033968,
				"element": "H" 
			},
			{
				"x": -4.6377460935,
				"y": 1.6168733195,
				"z": -3.1290905961,
				"element": "H" 
			},
			{
				"x": -3.2236714999,
				"y": 0.9375737268,
				"z": -3.9432338982,
				"element": "H" 
			},
			{
				"x": -4.1962919019,
				"y": 2.1827595444,
				"z": -4.7402816429,
				"element": "H" 
			},
			{
				"x": -1.5208025719,
				"y": 1.6958732582,
				"z": -2.062398718,
				"element": "H" 
			},
			{
				"x": -1.5406144774,
				"y": 3.3844889891,
				"z": -1.5620043662,
				"element": "H" 
			},
			{
				"x": -2.3762372902,
				"y": 2.1832887936,
				"z": 0.2242571793,
				"element": "H" 
			},
			{
				"x": -4.6785769208,
				"y": 0.8222658982,
				"z": -0.8861579222,
				"element": "H" 
			},
			{
				"x": -1.4202799192,
				"y": -1.6832649036,
				"z": 1.2761704225,
				"element": "H" 
			},
			{
				"x": -1.3960806743,
				"y": -2.1812837001,
				"z": -0.4217643363,
				"element": "H" 
			},
			{
				"x": 0.6431168252,
				"y": -0.7440314807,
				"z": -0.7768796371,
				"element": "H" 
			},
			{
				"x": 3.5074359176,
				"y": -3.1918591757,
				"z": 2.8795280587,
				"element": "H" 
			},
			{
				"x": 3.4134318784,
				"y": -5.3561480107,
				"z": 1.6668592699,
				"element": "H" 
			},
			{
				"x": 1.9115869668,
				"y": -5.6426363718,
				"z": -0.2796459502,
				"element": "H" 
			},
			{
				"x": 0.4756253834,
				"y": -3.7693442301,
				"z": -1.04943353,
				"element": "H" 
			},
			{
				"x": -0.092785699,
				"y": 1.6459750047,
				"z": 0.9441305793,
				"element": "H" 
			},
			{
				"x": 1.0191518848,
				"y": 2.8104988858,
				"z": 2.8391094634,
				"element": "H" 
			},
			{
				"x": 2.6722115461,
				"y": 1.6203426875,
				"z": 4.2456946194,
				"element": "H" 
			},
			{
				"x": 3.2460605463,
				"y": -0.750725784,
				"z": 3.7810755382,
				"element": "H" 
			},
			{
				"x": -5.8893184404,
				"y": 3.6895588969,
				"z": -0.3478168869,
				"element": "H" 
			}
		],
		 "valence_orbital": [ 
			{
				"type": "occ",
				"energy": -0.26986,
				"method": "rhf"
			},
			{
				"type": "occ",
				"energy": -0.25273,
				"method": "rhf"
			},
			{
				"type": "occ",
				"energy": -0.25129,
				"method": "rhf"
			},
			{
				"type": "occ",
				"energy": -0.24536,
				"method": "rhf"
			},
			{
				"type": "occ",
				"energy": -0.21628,
				"method": "rhf"
			},
			{
				"type": "unocc",
				"energy": -0.03185,
				"method": "rhf"
			},
			{
				"type": "unocc",
				"energy": -0.01342,
				"method": "rhf"
			},
			{
				"type": "unocc",
				"energy": -0.00783,
				"method": "rhf"
			},
			{
				"type": "unocc",
				"energy": 0.00655,
				"method": "rhf"
			},
			{
				"type": "unocc",
				"energy": 0.03914,
				"method": "rhf"
			}
		],
		"cosmo_sigma_profile": { 
			"-0.025": 0.0,
			"-0.024": 0.0,
			"-0.023": 0.0,
			"-0.022": 0.0,
			"-0.021": 0.0,
			"-0.02": 0.0,
			"-0.019": 0.374573438609,
			"-0.018": 1.25427927915,
			"-0.017": 0.662550373235,
			"-0.016": 0.647797337699,
			"-0.015": 1.1120927957,
			"-0.014": 0.924383893913,
			"-0.013": 0.0876813425894,
			"-0.012": 0.429710937519,
			"-0.011": 1.20448008022,
			"-0.01": 1.04134652104,
			"-0.009": 1.37582566509,
			"-0.008": 1.1424182829,
			"-0.007": 3.59087108996,
			"-0.006": 17.9276413944,
			"-0.005": 26.7940147969,
			"-0.004": 26.5053467711,
			"-0.003": 37.4221272413,
			"-0.002": 43.5481424105,
			"-0.001": 42.9287520284,
			"0.0": 36.5076525682,
			"0.001": 36.9696004568,
			"0.002": 27.4050041877,
			"0.003": 21.1266331188,
			"0.004": 20.9066811387,
			"0.005": 20.7183940832,
			"0.006": 13.1114494791,
			"0.007": 2.42596405669,
			"0.008": 2.04876931389,
			"0.009": 2.74174730355,
			"0.01": 3.75157746975,
			"0.011": 6.75816754488,
			"0.012": 4.35834158941,
			"0.013": 6.22263079884,
			"0.014": 1.46335634016,
			"0.015": 0.0,
			"0.016": 0.0,
			"0.017": 0.0,
			"0.018": 0.0,
			"0.019": 0.0,
			"0.02": 0.0,
			"0.021": 0.0,
			"0.022": 0.0,
			"0.023": 0.0,
			"0.024": 0.0,
			"0.025": 0.0
		}
	}
}
