{
	 "smiles": "NC1=CC=C(C=C1)N=NC1=CC=C(N)C=C1", 
	 "Tm": 523.15, 
	 "num_atms": 28, 
	 "gaussian": { 
		 "optdone": 1, 
		 "sigma_profile": "yes", 
		 "theory": "DFT", 
		 "functional": "B3LYP", 
		 "basiset": "6-31G**", 
		 "properties": { 
			 "R2extent": 6631.4041, 
			 "electric_dipole_moment_norm": 2.00699840807, 
			 "electric_quadrupole_moment_norm": 33.0549732986, 
			 "total_energy": -683.484646332, 
			 "HOMO_LUMO_gap": 0.12445, 
			 "cosmo_polarized_energy": -18.53, 
			 "cosmo_cavitation_energy": 33.05, 
			 "cosmo_dispersion_energy": -24.43, 
			 "cosmo_repulsion_energy": 1.91, 
			 "cosmo_total_nonelectrostatic_energy": 10.53, 
			 "SMD_solvation_energy": 4.25 
		},
		"coords": [
			{
				"x": 0.3485575717,
				"y": -1.6407343615,
				"z": 4.6753906414,
				"element": "N" 
			},
			{
				"x": 0.2353367684,
				"y": -1.0347749282,
				"z": 3.4295203975,
				"element": "C" 
			},
			{
				"x": -1.0130980041,
				"y": -0.9255934049,
				"z": 2.7903759767,
				"element": "C" 
			},
			{
				"x": -1.1042241015,
				"y": -0.3659949979,
				"z": 1.5229566514,
				"element": "C" 
			},
			{
				"x": 0.0358653481,
				"y": 0.1026129005,
				"z": 0.8526472169,
				"element": "C" 
			},
			{
				"x": 1.2862192769,
				"y": -0.0073368428,
				"z": 1.4914202123,
				"element": "C" 
			},
			{
				"x": 1.3833655617,
				"y": -0.5651358986,
				"z": 2.7546050496,
				"element": "C" 
			},
			{
				"x": -0.177929957,
				"y": 0.653803564,
				"z": -0.4255228952,
				"element": "N" 
			},
			{
				"x": 0.8643266678,
				"y": 1.0736464209,
				"z": -1.0100108671,
				"element": "N" 
			},
			{
				"x": 0.6506837255,
				"y": 1.6237525017,
				"z": -2.2886454047,
				"element": "C" 
			},
			{
				"x": -0.5992752586,
				"y": 1.7298164849,
				"z": -2.9289192318,
				"element": "C" 
			},
			{
				"x": -0.6973430062,
				"y": 2.2923196815,
				"z": -4.1899532178,
				"element": "C" 
			},
			{
				"x": 0.4491621508,
				"y": 2.7714511295,
				"z": -4.8607477437,
				"element": "C" 
			},
			{
				"x": 0.3486890696,
				"y": 3.287081258,
				"z": -6.1479570566,
				"element": "N" 
			},
			{
				"x": 1.6973456846,
				"y": 2.664613518,
				"z": -4.2208570792,
				"element": "C" 
			},
			{
				"x": 1.789680182,
				"y": 2.0986812269,
				"z": -2.9563419528,
				"element": "C" 
			},
			{
				"x": -0.4908720302,
				"y": -1.6591190168,
				"z": 5.2368274446,
				"element": "H" 
			},
			{
				"x": 1.1710399359,
				"y": -1.4015939179,
				"z": 5.2106969177,
				"element": "H" 
			},
			{
				"x": -1.9067061474,
				"y": -1.2860648195,
				"z": 3.2938931114,
				"element": "H" 
			},
			{
				"x": -2.0635881823,
				"y": -0.275682531,
				"z": 1.0227373239,
				"element": "H" 
			},
			{
				"x": 2.166270866,
				"y": 0.3561848512,
				"z": 0.9729322006,
				"element": "H" 
			},
			{
				"x": 2.354137939,
				"y": -0.6494344636,
				"z": 3.2381148174,
				"element": "H" 
			},
			{
				"x": -1.4788933692,
				"y": 1.3638429017,
				"z": -2.4114328323,
				"element": "H" 
			},
			{
				"x": -1.6666137694,
				"y": 2.3662200963,
				"z": -4.6781618935,
				"element": "H" 
			},
			{
				"x": -0.5600014688,
				"y": 3.6397987212,
				"z": -6.4129444117,
				"element": "H" 
			},
			{
				"x": 1.1022716841,
				"y": 3.8920385568,
				"z": -6.4420378584,
				"element": "H" 
			},
			{
				"x": 2.5909293091,
				"y": 3.0247784452,
				"z": -4.7246406849,
				"element": "H" 
			},
			{
				"x": 2.748263553,
				"y": 2.0138229243,
				"z": -2.4536448316,
				"element": "H" 
			}
		],
		 "valence_orbital": [ 
			{
				"type": "occ",
				"energy": -0.24569,
				"method": "rhf"
			},
			{
				"type": "occ",
				"energy": -0.24538,
				"method": "rhf"
			},
			{
				"type": "occ",
				"energy": -0.21739,
				"method": "rhf"
			},
			{
				"type": "occ",
				"energy": -0.20402,
				"method": "rhf"
			},
			{
				"type": "occ",
				"energy": -0.17964,
				"method": "rhf"
			},
			{
				"type": "unocc",
				"energy": -0.05519,
				"method": "rhf"
			},
			{
				"type": "unocc",
				"energy": 0.00679,
				"method": "rhf"
			},
			{
				"type": "unocc",
				"energy": 0.00737,
				"method": "rhf"
			},
			{
				"type": "unocc",
				"energy": 0.0343,
				"method": "rhf"
			},
			{
				"type": "unocc",
				"energy": 0.06556,
				"method": "rhf"
			}
		],
		"cosmo_sigma_profile": { 
			"-0.025": 0.0,
			"-0.024": 0.0,
			"-0.023": 0.0,
			"-0.022": 0.0,
			"-0.021": 0.0,
			"-0.02": 0.0,
			"-0.019": 0.0,
			"-0.018": 0.0,
			"-0.017": 0.0,
			"-0.016": 0.0,
			"-0.015": 0.0,
			"-0.014": 0.00634625306613,
			"-0.013": 3.35146173467,
			"-0.012": 5.7718843706,
			"-0.011": 5.52462446408,
			"-0.01": 6.81885950428,
			"-0.009": 6.48846487964,
			"-0.008": 5.26577387879,
			"-0.007": 7.28886309141,
			"-0.006": 9.18116129926,
			"-0.005": 12.1798874466,
			"-0.004": 15.2785539992,
			"-0.003": 14.2134707057,
			"-0.002": 10.8184981331,
			"-0.001": 10.9383258115,
			"0.0": 10.9991778612,
			"0.001": 10.3767611349,
			"0.002": 12.1679347688,
			"0.003": 18.4184852522,
			"0.004": 31.4311120441,
			"0.005": 34.3333280613,
			"0.006": 12.039627016,
			"0.007": 5.24758037491,
			"0.008": 3.86182203297,
			"0.009": 5.13487431433,
			"0.01": 2.59339956713,
			"0.011": 1.42945756921,
			"0.012": 1.31962637783,
			"0.013": 0.956161914774,
			"0.014": 0.0785387374304,
			"0.015": 0.0,
			"0.016": 0.0,
			"0.017": 0.0,
			"0.018": 0.0,
			"0.019": 0.0,
			"0.02": 0.0,
			"0.021": 0.0,
			"0.022": 0.0,
			"0.023": 0.0,
			"0.024": 0.0,
			"0.025": 0.0
		}
	}
}
