{
	 "smiles": "OC(=O)C1=C(F)C(=CC(=C1)[N+]([O-])=O)[N+]([O-])=O", 
	 "Tm": 478.15, 
	 "num_atms": 19, 
	 "gaussian": { 
		 "optdone": 1, 
		 "sigma_profile": "yes", 
		 "theory": "DFT", 
		 "functional": "B3LYP", 
		 "basiset": "6-31G**", 
		 "properties": { 
			 "R2extent": 4428.2962, 
			 "electric_dipole_moment_norm": 1.86217617588, 
			 "electric_quadrupole_moment_norm": 19.4415774558, 
			 "total_energy": -929.018047886, 
			 "HOMO_LUMO_gap": 0.18054, 
			 "cosmo_polarized_energy": -18.39, 
			 "cosmo_cavitation_energy": 26.77, 
			 "cosmo_dispersion_energy": -19.57, 
			 "cosmo_repulsion_energy": 1.49, 
			 "cosmo_total_nonelectrostatic_energy": 8.69, 
			 "SMD_solvation_energy": 10.78 
		},
		"coords": [
			{
				"x": -1.4489088709,
				"y": -3.3601072995,
				"z": 2.3881195829,
				"element": "O" 
			},
			{
				"x": -0.5047807182,
				"y": -2.5459447176,
				"z": 2.884366264,
				"element": "C" 
			},
			{
				"x": -0.0871782345,
				"y": -2.6857830599,
				"z": 4.0081031958,
				"element": "O" 
			},
			{
				"x": 0.0340352698,
				"y": -1.4345172495,
				"z": 1.9992674553,
				"element": "C" 
			},
			{
				"x": -0.3738236396,
				"y": -1.1597232892,
				"z": 0.6879685201,
				"element": "C" 
			},
			{
				"x": -1.3091395524,
				"y": -1.9420923693,
				"z": 0.1212820971,
				"element": "F" 
			},
			{
				"x": 0.1948550116,
				"y": -0.1092917089,
				"z": -0.0472239213,
				"element": "C" 
			},
			{
				"x": 1.1888960852,
				"y": 0.6789140548,
				"z": 0.5203870977,
				"element": "C" 
			},
			{
				"x": 1.5821610979,
				"y": 0.4087113934,
				"z": 1.8245794083,
				"element": "C" 
			},
			{
				"x": 1.0244054499,
				"y": -0.6245144315,
				"z": 2.5647049224,
				"element": "C" 
			},
			{
				"x": 2.6304023958,
				"y": 1.250688011,
				"z": 2.43695904,
				"element": "N" 
			},
			{
				"x": 3.0929913749,
				"y": 2.1556221504,
				"z": 1.7481386881,
				"element": "O" 
			},
			{
				"x": 2.9609511633,
				"y": 0.9840407976,
				"z": 3.5876702802,
				"element": "O" 
			},
			{
				"x": -0.2304066158,
				"y": 0.2088280325,
				"z": -1.4249863014,
				"element": "N" 
			},
			{
				"x": 0.5333909921,
				"y": 0.9073641135,
				"z": -2.0850124738,
				"element": "O" 
			},
			{
				"x": -1.3112752178,
				"y": -0.2278177465,
				"z": -1.8032946835,
				"element": "O" 
			},
			{
				"x": -1.6827575514,
				"y": -3.1251643635,
				"z": 1.477711523,
				"element": "H" 
			},
			{
				"x": 1.639816238,
				"y": 1.4806449695,
				"z": -0.0496235374,
				"element": "H" 
			},
			{
				"x": 1.3451653221,
				"y": -0.8231572872,
				"z": 3.5801828425,
				"element": "H" 
			}
		],
		 "valence_orbital": [ 
			{
				"type": "occ",
				"energy": -0.33477,
				"method": "rhf"
			},
			{
				"type": "occ",
				"energy": -0.32611,
				"method": "rhf"
			},
			{
				"type": "occ",
				"energy": -0.32444,
				"method": "rhf"
			},
			{
				"type": "occ",
				"energy": -0.32293,
				"method": "rhf"
			},
			{
				"type": "occ",
				"energy": -0.3112,
				"method": "rhf"
			},
			{
				"type": "unocc",
				"energy": -0.13066,
				"method": "rhf"
			},
			{
				"type": "unocc",
				"energy": -0.12401,
				"method": "rhf"
			},
			{
				"type": "unocc",
				"energy": -0.08833,
				"method": "rhf"
			},
			{
				"type": "unocc",
				"energy": -0.03289,
				"method": "rhf"
			},
			{
				"type": "unocc",
				"energy": 0.01666,
				"method": "rhf"
			}
		],
		"cosmo_sigma_profile": { 
			"-0.025": 0.0,
			"-0.024": 0.0,
			"-0.023": 0.0,
			"-0.022": 0.0,
			"-0.021": 0.0,
			"-0.02": 0.0,
			"-0.019": 0.0,
			"-0.018": 0.0,
			"-0.017": 0.0,
			"-0.016": 0.0984941334096,
			"-0.015": 0.851699668651,
			"-0.014": 0.930875599737,
			"-0.013": 1.90618000197,
			"-0.012": 2.24028600606,
			"-0.011": 1.81951244936,
			"-0.01": 2.92748562833,
			"-0.009": 4.76682914733,
			"-0.008": 8.74299659516,
			"-0.007": 13.6990190431,
			"-0.006": 14.6762205668,
			"-0.005": 17.157012805,
			"-0.004": 14.0980416953,
			"-0.003": 8.43347230612,
			"-0.002": 6.80538862546,
			"-0.001": 7.62456355681,
			"0.0": 7.60461323421,
			"0.001": 6.0916210065,
			"0.002": 6.60887126105,
			"0.003": 7.49685278268,
			"0.004": 8.8340956453,
			"0.005": 10.3354138618,
			"0.006": 19.2531786787,
			"0.007": 16.3757550304,
			"0.008": 11.1709008654,
			"0.009": 7.54226243822,
			"0.01": 4.74203653131,
			"0.011": 3.22830010401,
			"0.012": 1.00364917574,
			"0.013": 0.0,
			"0.014": 0.0,
			"0.015": 0.0,
			"0.016": 0.0,
			"0.017": 0.0,
			"0.018": 0.0,
			"0.019": 0.0,
			"0.02": 0.0,
			"0.021": 0.0,
			"0.022": 0.0,
			"0.023": 0.0,
			"0.024": 0.0,
			"0.025": 0.0
		}
	}
}
