{
	 "smiles": "CC(C)(C)OC(=O)N1CCC(C)(CC1)C(O)=O", 
	 "Tm": 423.15, 
	 "num_atms": 38, 
	 "gaussian": { 
		 "optdone": 1, 
		 "sigma_profile": "yes", 
		 "theory": "DFT", 
		 "functional": "B3LYP", 
		 "basiset": "6-31G**", 
		 "properties": { 
			 "R2extent": 5539.8506, 
			 "electric_dipole_moment_norm": 3.52381764284, 
			 "electric_quadrupole_moment_norm": 15.2357034488, 
			 "total_energy": -825.639039786, 
			 "HOMO_LUMO_gap": 0.23472, 
			 "cosmo_polarized_energy": -14.11, 
			 "cosmo_cavitation_energy": 38.01, 
			 "cosmo_dispersion_energy": -25.67, 
			 "cosmo_repulsion_energy": 2.01, 
			 "cosmo_total_nonelectrostatic_energy": 14.35, 
			 "SMD_solvation_energy": 8.07 
		},
		"coords": [
			{
				"x": 1.2048764362,
				"y": 1.3728052469,
				"z": 2.4204563571,
				"element": "C" 
			},
			{
				"x": -0.1137267589,
				"y": 0.8035381724,
				"z": 1.8890680588,
				"element": "C" 
			},
			{
				"x": -1.2691528398,
				"y": 1.7747003491,
				"z": 2.1558520102,
				"element": "C" 
			},
			{
				"x": -0.3781740443,
				"y": -0.5882459171,
				"z": 2.4737421598,
				"element": "C" 
			},
			{
				"x": 0.1406018952,
				"y": 0.7069686591,
				"z": 0.4445124,
				"element": "O" 
			},
			{
				"x": -0.8073756109,
				"y": 0.2206985191,
				"z": -0.3969861624,
				"element": "C" 
			},
			{
				"x": -1.9291164436,
				"y": -0.1422290998,
				"z": -0.0694552048,
				"element": "O" 
			},
			{
				"x": -0.3305134297,
				"y": 0.1887628656,
				"z": -1.6821155022,
				"element": "N" 
			},
			{
				"x": -1.2194894801,
				"y": -0.2179513353,
				"z": -2.7656027652,
				"element": "C" 
			},
			{
				"x": -0.6018339688,
				"y": -1.3638876092,
				"z": -3.5910494072,
				"element": "C" 
			},
			{
				"x": 0.9448833058,
				"y": -1.2501242329,
				"z": -3.7037839628,
				"element": "C" 
			},
			{
				"x": 1.4258202909,
				"y": -1.7264562802,
				"z": -5.0951095147,
				"element": "C" 
			},
			{
				"x": 1.3694544597,
				"y": 0.2154797251,
				"z": -3.4635613694,
				"element": "C" 
			},
			{
				"x": 0.9887169816,
				"y": 0.7091455404,
				"z": -2.058531822,
				"element": "C" 
			},
			{
				"x": 1.6050153986,
				"y": -2.1935540424,
				"z": -2.688231577,
				"element": "C" 
			},
			{
				"x": 2.8868741276,
				"y": -1.8359949807,
				"z": -2.4110936012,
				"element": "O" 
			},
			{
				"x": 1.1095461201,
				"y": -3.1913904536,
				"z": -2.2131813531,
				"element": "O" 
			},
			{
				"x": 1.1487498891,
				"y": 1.5022501934,
				"z": 3.5054178012,
				"element": "H" 
			},
			{
				"x": 1.4169786666,
				"y": 2.3450270229,
				"z": 1.9659059747,
				"element": "H" 
			},
			{
				"x": 2.0360684013,
				"y": 0.6980585302,
				"z": 2.195005657,
				"element": "H" 
			},
			{
				"x": -2.2052102884,
				"y": 1.3840041144,
				"z": 1.7568962573,
				"element": "H" 
			},
			{
				"x": -1.0629680429,
				"y": 2.7454381055,
				"z": 1.6934762076,
				"element": "H" 
			},
			{
				"x": -1.3784686681,
				"y": 1.928935728,
				"z": 3.2344111957,
				"element": "H" 
			},
			{
				"x": -1.3061489475,
				"y": -1.0053455869,
				"z": 2.0826835309,
				"element": "H" 
			},
			{
				"x": 0.4459140319,
				"y": -1.2658347545,
				"z": 2.2284340285,
				"element": "H" 
			},
			{
				"x": -0.4496640131,
				"y": -0.5212058192,
				"z": 3.5643688043,
				"element": "H" 
			},
			{
				"x": -2.1638306021,
				"y": -0.5206294096,
				"z": -2.3147297057,
				"element": "H" 
			},
			{
				"x": -1.4250811955,
				"y": 0.6492248462,
				"z": -3.4100679196,
				"element": "H" 
			},
			{
				"x": -1.0432713831,
				"y": -1.3481234089,
				"z": -4.5939754371,
				"element": "H" 
			},
			{
				"x": -0.846353195,
				"y": -2.3292376111,
				"z": -3.1421318112,
				"element": "H" 
			},
			{
				"x": 1.0220609345,
				"y": -1.0686435283,
				"z": -5.8715126078,
				"element": "H" 
			},
			{
				"x": 1.0795702579,
				"y": -2.7448381018,
				"z": -5.2975603315,
				"element": "H" 
			},
			{
				"x": 2.5176116069,
				"y": -1.7115634161,
				"z": -5.1658783618,
				"element": "H" 
			},
			{
				"x": 0.8821550594,
				"y": 0.830095179,
				"z": -4.2299528844,
				"element": "H" 
			},
			{
				"x": 2.4472489816,
				"y": 0.3359019574,
				"z": -3.5995299175,
				"element": "H" 
			},
			{
				"x": 1.002017665,
				"y": 1.8083094537,
				"z": -2.0301369452,
				"element": "H" 
			},
			{
				"x": 1.7228933277,
				"y": 0.3612411711,
				"z": -1.3296179794,
				"element": "H" 
			},
			{
				"x": 3.2270210741,
				"y": -2.5197297919,
				"z": -1.8096342997,
				"element": "H" 
			}
		],
		 "valence_orbital": [ 
			{
				"type": "occ",
				"energy": -0.31796,
				"method": "rhf"
			},
			{
				"type": "occ",
				"energy": -0.28099,
				"method": "rhf"
			},
			{
				"type": "occ",
				"energy": -0.2739,
				"method": "rhf"
			},
			{
				"type": "occ",
				"energy": -0.25344,
				"method": "rhf"
			},
			{
				"type": "occ",
				"energy": -0.2291,
				"method": "rhf"
			},
			{
				"type": "unocc",
				"energy": 0.00562,
				"method": "rhf"
			},
			{
				"type": "unocc",
				"energy": 0.05807,
				"method": "rhf"
			},
			{
				"type": "unocc",
				"energy": 0.06572,
				"method": "rhf"
			},
			{
				"type": "unocc",
				"energy": 0.08854,
				"method": "rhf"
			},
			{
				"type": "unocc",
				"energy": 0.09285,
				"method": "rhf"
			}
		],
		"cosmo_sigma_profile": { 
			"-0.025": 0.0,
			"-0.024": 0.0,
			"-0.023": 0.0,
			"-0.022": 0.0,
			"-0.021": 0.0,
			"-0.02": 0.0,
			"-0.019": 0.0,
			"-0.018": 0.313970516298,
			"-0.017": 1.12930767785,
			"-0.016": 0.740616415866,
			"-0.015": 0.984247801265,
			"-0.014": 0.966467267076,
			"-0.013": 0.171733824022,
			"-0.012": 0.625356731919,
			"-0.011": 0.650948732902,
			"-0.01": 1.15279715627,
			"-0.009": 0.746539712503,
			"-0.008": 0.289147147885,
			"-0.007": 0.775756670387,
			"-0.006": 0.897341183363,
			"-0.005": 4.222499752,
			"-0.004": 30.0056167475,
			"-0.003": 37.7813235271,
			"-0.002": 40.5881260907,
			"-0.001": 35.1699575053,
			"0.0": 38.6119839795,
			"0.001": 28.6035352603,
			"0.002": 10.8298615213,
			"0.003": 7.4201784836,
			"0.004": 7.88986356638,
			"0.005": 6.2954227588,
			"0.006": 6.25530162942,
			"0.007": 5.44372267032,
			"0.008": 4.08819028814,
			"0.009": 3.13588841271,
			"0.01": 3.20362717087,
			"0.011": 4.80050816779,
			"0.012": 5.93728016171,
			"0.013": 2.89077361445,
			"0.014": 1.60094606062,
			"0.015": 0.0,
			"0.016": 0.0,
			"0.017": 0.0,
			"0.018": 0.0,
			"0.019": 0.0,
			"0.02": 0.0,
			"0.021": 0.0,
			"0.022": 0.0,
			"0.023": 0.0,
			"0.024": 0.0,
			"0.025": 0.0
		}
	}
}
