{
	 "smiles": "C1NC2=C(CO1)C1=NC3=C(C=CC4=C3COCN4)C=C1C=C2", 
	 "Tm": 508.15, 
	 "num_atms": 37, 
	 "gaussian": { 
		 "optdone": 1, 
		 "sigma_profile": "yes", 
		 "theory": "DFT", 
		 "functional": "B3LYP", 
		 "basiset": "6-31G**", 
		 "properties": { 
			 "R2extent": 8203.1612, 
			 "electric_dipole_moment_norm": 4.31567715776, 
			 "electric_quadrupole_moment_norm": 31.5478487916, 
			 "total_energy": -971.542543404, 
			 "HOMO_LUMO_gap": 0.12521, 
			 "cosmo_polarized_energy": -19.41, 
			 "cosmo_cavitation_energy": 38.64, 
			 "cosmo_dispersion_energy": -29.14, 
			 "cosmo_repulsion_energy": 2.15, 
			 "cosmo_total_nonelectrostatic_energy": 11.64, 
			 "SMD_solvation_energy": 2.63 
		},
		"coords": [
			{
				"x": -1.6201933201,
				"y": 3.7765515841,
				"z": -2.6097997132,
				"element": "C" 
			},
			{
				"x": -1.7160160523,
				"y": 2.6396532397,
				"z": -3.5162619016,
				"element": "N" 
			},
			{
				"x": -1.4019689876,
				"y": 1.4061254431,
				"z": -2.9612052735,
				"element": "C" 
			},
			{
				"x": -1.4117547179,
				"y": 1.2555576977,
				"z": -1.5818242675,
				"element": "C" 
			},
			{
				"x": -1.7790736935,
				"y": 2.4234053327,
				"z": -0.6957012535,
				"element": "C" 
			},
			{
				"x": -2.3410498129,
				"y": 3.5099896872,
				"z": -1.4389558274,
				"element": "O" 
			},
			{
				"x": -1.091625147,
				"y": -0.0070573391,
				"z": -1.0021859762,
				"element": "C" 
			},
			{
				"x": -1.0991976,
				"y": -0.1119874931,
				"z": 0.340832695,
				"element": "N" 
			},
			{
				"x": -0.7933992441,
				"y": -1.2964712826,
				"z": 0.9049742641,
				"element": "C" 
			},
			{
				"x": -0.4600847402,
				"y": -2.4668701447,
				"z": 0.124590744,
				"element": "C" 
			},
			{
				"x": -0.1523929928,
				"y": -3.6849374498,
				"z": 0.8019515931,
				"element": "C" 
			},
			{
				"x": -0.1624457379,
				"y": -3.747367607,
				"z": 2.1665930469,
				"element": "C" 
			},
			{
				"x": -0.4778862532,
				"y": -2.5875247521,
				"z": 2.9457420876,
				"element": "C" 
			},
			{
				"x": -0.8001766574,
				"y": -1.3876383288,
				"z": 2.327759069,
				"element": "C" 
			},
			{
				"x": -1.1753252914,
				"y": -0.1839835576,
				"z": 3.161189188,
				"element": "C" 
			},
			{
				"x": -1.405803386,
				"y": -0.5262500005,
				"z": 4.5318421269,
				"element": "O" 
			},
			{
				"x": -0.4232321257,
				"y": -1.389946501,
				"z": 5.0319401909,
				"element": "C" 
			},
			{
				"x": -0.4877244054,
				"y": -2.6664401832,
				"z": 4.3321025535,
				"element": "N" 
			},
			{
				"x": -0.4611904965,
				"y": -2.3411160733,
				"z": -1.2660515291,
				"element": "C" 
			},
			{
				"x": -0.7715225624,
				"y": -1.1198727879,
				"z": -1.8676858137,
				"element": "C" 
			},
			{
				"x": -0.7907171208,
				"y": -0.9241100272,
				"z": -3.2813678734,
				"element": "C" 
			},
			{
				"x": -1.0976269947,
				"y": 0.2959904333,
				"z": -3.8137336134,
				"element": "C" 
			},
			{
				"x": -2.0718359859,
				"y": 4.6519538538,
				"z": -3.0843321344,
				"element": "H" 
			},
			{
				"x": -0.5639971509,
				"y": 4.0021371974,
				"z": -2.3643118373,
				"element": "H" 
			},
			{
				"x": -1.3915041097,
				"y": 2.7976735136,
				"z": -4.4608521511,
				"element": "H" 
			},
			{
				"x": -0.905462603,
				"y": 2.7662973231,
				"z": -0.1178751361,
				"element": "H" 
			},
			{
				"x": -2.5414974474,
				"y": 2.1273391108,
				"z": 0.0291219082,
				"element": "H" 
			},
			{
				"x": 0.0933559091,
				"y": -4.5651879603,
				"z": 0.2133447328,
				"element": "H" 
			},
			{
				"x": 0.068869274,
				"y": -4.6768518234,
				"z": 2.6809396246,
				"element": "H" 
			},
			{
				"x": -0.4036702259,
				"y": 0.5994011511,
				"z": 3.0869507153,
				"element": "H" 
			},
			{
				"x": -2.1081096609,
				"y": 0.2552628122,
				"z": 2.7988399326,
				"element": "H" 
			},
			{
				"x": 0.5784483725,
				"y": -0.9289831683,
				"z": 4.9278102523,
				"element": "H" 
			},
			{
				"x": -0.6338324718,
				"y": -1.551963191,
				"z": 6.0925472387,
				"element": "H" 
			},
			{
				"x": 0.0481489943,
				"y": -3.421756429,
				"z": 4.7381458105,
				"element": "H" 
			},
			{
				"x": -0.2191280772,
				"y": -3.2025785111,
				"z": -1.8863240216,
				"element": "H" 
			},
			{
				"x": -0.5542364111,
				"y": -1.7632541805,
				"z": -3.9306792873,
				"element": "H" 
			},
			{
				"x": -1.1151410662,
				"y": 0.4425104117,
				"z": -4.8908701638,
				"element": "H" 
			}
		],
		 "valence_orbital": [ 
			{
				"type": "occ",
				"energy": -0.24508,
				"method": "rhf"
			},
			{
				"type": "occ",
				"energy": -0.24133,
				"method": "rhf"
			},
			{
				"type": "occ",
				"energy": -0.23888,
				"method": "rhf"
			},
			{
				"type": "occ",
				"energy": -0.19558,
				"method": "rhf"
			},
			{
				"type": "occ",
				"energy": -0.18614,
				"method": "rhf"
			},
			{
				"type": "unocc",
				"energy": -0.06093,
				"method": "rhf"
			},
			{
				"type": "unocc",
				"energy": -0.00654,
				"method": "rhf"
			},
			{
				"type": "unocc",
				"energy": 0.01458,
				"method": "rhf"
			},
			{
				"type": "unocc",
				"energy": 0.04028,
				"method": "rhf"
			},
			{
				"type": "unocc",
				"energy": 0.06739,
				"method": "rhf"
			}
		],
		"cosmo_sigma_profile": { 
			"-0.025": 0.0,
			"-0.024": 0.0,
			"-0.023": 0.0,
			"-0.022": 0.0,
			"-0.021": 0.0,
			"-0.02": 0.0,
			"-0.019": 0.0,
			"-0.018": 0.0,
			"-0.017": 0.0,
			"-0.016": 0.0,
			"-0.015": 0.0,
			"-0.014": 0.789708707769,
			"-0.013": 3.24220384616,
			"-0.012": 2.89562777754,
			"-0.011": 3.42529860657,
			"-0.01": 2.96253987381,
			"-0.009": 2.72472105066,
			"-0.008": 3.99751641623,
			"-0.007": 10.4114645295,
			"-0.006": 18.5735253595,
			"-0.005": 14.8532359907,
			"-0.004": 29.670280635,
			"-0.003": 22.1545513045,
			"-0.002": 15.9270287186,
			"-0.001": 16.7533419343,
			"0.0": 12.7649961671,
			"0.001": 13.1843068067,
			"0.002": 16.7108347303,
			"0.003": 29.8410592127,
			"0.004": 29.5289494324,
			"0.005": 14.6854034147,
			"0.006": 6.68376501249,
			"0.007": 6.4802213786,
			"0.008": 6.13454179568,
			"0.009": 5.63642206749,
			"0.01": 5.15440986576,
			"0.011": 4.82657381357,
			"0.012": 4.8819248812,
			"0.013": 2.03815632762,
			"0.014": 0.0,
			"0.015": 0.0,
			"0.016": 0.0,
			"0.017": 0.0,
			"0.018": 0.0,
			"0.019": 0.0,
			"0.02": 0.0,
			"0.021": 0.0,
			"0.022": 0.0,
			"0.023": 0.0,
			"0.024": 0.0,
			"0.025": 0.0
		}
	}
}
