{
	 "smiles": "BrC1=CC2=C(C=C1)S(=O)(=O)NC2=O", 
	 "Tm": 519.15, 
	 "num_atms": 17, 
	 "gaussian": { 
		 "optdone": 1, 
		 "sigma_profile": "yes", 
		 "theory": "DFT", 
		 "functional": "B3LYP", 
		 "basiset": "6-31G**", 
		 "properties": { 
			 "R2extent": 4783.3894, 
			 "electric_dipole_moment_norm": 2.60843064696, 
			 "electric_quadrupole_moment_norm": 10.7107246557, 
			 "total_energy": -3519.09922865, 
			 "HOMO_LUMO_gap": 0.18961, 
			 "cosmo_polarized_energy": -15.83, 
			 "cosmo_cavitation_energy": 26.09, 
			 "cosmo_dispersion_energy": -20.33, 
			 "cosmo_repulsion_energy": 1.56, 
			 "cosmo_total_nonelectrostatic_energy": 7.31, 
			 "SMD_solvation_energy": 3.22 
		},
		"coords": [
			{
				"x": 0.6394916647,
				"y": -1.353383139,
				"z": -3.8573261177,
				"element": "Br" 
			},
			{
				"x": 0.4486624929,
				"y": -1.3058398594,
				"z": -1.9646338765,
				"element": "C" 
			},
			{
				"x": 1.2595098709,
				"y": -0.4489050279,
				"z": -1.2187203704,
				"element": "C" 
			},
			{
				"x": 1.0913233823,
				"y": -0.4415579235,
				"z": 0.1616069524,
				"element": "C" 
			},
			{
				"x": 0.1434687058,
				"y": -1.265358762,
				"z": 0.7649550875,
				"element": "C" 
			},
			{
				"x": -0.6666734255,
				"y": -2.12046229,
				"z": 0.0300322784,
				"element": "C" 
			},
			{
				"x": -0.5039261655,
				"y": -2.1337630865,
				"z": -1.3578801157,
				"element": "C" 
			},
			{
				"x": 0.147688676,
				"y": -1.0482682121,
				"z": 2.5401532193,
				"element": "S" 
			},
			{
				"x": 0.6499920482,
				"y": -2.2355708918,
				"z": 3.2272227492,
				"element": "O" 
			},
			{
				"x": -1.0785339233,
				"y": -0.4074208692,
				"z": 3.0089536481,
				"element": "O" 
			},
			{
				"x": 1.4002462766,
				"y": 0.1205957484,
				"z": 2.4057568542,
				"element": "N" 
			},
			{
				"x": 1.8616432988,
				"y": 0.403605949,
				"z": 1.1248942588,
				"element": "C" 
			},
			{
				"x": 2.7365081423,
				"y": 1.1998891553,
				"z": 0.8549938878,
				"element": "O" 
			},
			{
				"x": 1.9980144834,
				"y": 0.1936488877,
				"z": -1.6834868497,
				"element": "H" 
			},
			{
				"x": -1.4025498608,
				"y": -2.7591461347,
				"z": 0.5066349105,
				"element": "H" 
			},
			{
				"x": -1.1155192514,
				"y": -2.7860618279,
				"z": -1.9702550149,
				"element": "H" 
			},
			{
				"x": 1.7747535845,
				"y": 0.5771982835,
				"z": 3.2281984984,
				"element": "H" 
			}
		],
		 "valence_orbital": [ 
			{
				"type": "occ",
				"energy": -0.31406,
				"method": "rhf"
			},
			{
				"type": "occ",
				"energy": -0.30516,
				"method": "rhf"
			},
			{
				"type": "occ",
				"energy": -0.29688,
				"method": "rhf"
			},
			{
				"type": "occ",
				"energy": -0.29364,
				"method": "rhf"
			},
			{
				"type": "occ",
				"energy": -0.27751,
				"method": "rhf"
			},
			{
				"type": "unocc",
				"energy": -0.0879,
				"method": "rhf"
			},
			{
				"type": "unocc",
				"energy": -0.06354,
				"method": "rhf"
			},
			{
				"type": "unocc",
				"energy": -0.02082,
				"method": "rhf"
			},
			{
				"type": "unocc",
				"energy": 0.0185,
				"method": "rhf"
			},
			{
				"type": "unocc",
				"energy": 0.02687,
				"method": "rhf"
			}
		],
		"cosmo_sigma_profile": { 
			"-0.025": 0.0,
			"-0.024": 0.0,
			"-0.023": 0.0,
			"-0.022": 0.0,
			"-0.021": 0.0,
			"-0.02": 0.0,
			"-0.019": 0.178561639465,
			"-0.018": 1.78123255754,
			"-0.017": 1.34067342637,
			"-0.016": 1.1600611854,
			"-0.015": 0.830533151202,
			"-0.014": 1.2215977329,
			"-0.013": 0.692748385674,
			"-0.012": 0.725383612409,
			"-0.011": 1.19378874971,
			"-0.01": 3.61022994982,
			"-0.009": 6.02505932837,
			"-0.008": 6.75857983928,
			"-0.007": 6.33744038411,
			"-0.006": 6.86365460522,
			"-0.005": 8.63847643239,
			"-0.004": 8.63595540595,
			"-0.003": 12.1946905658,
			"-0.002": 19.1702489074,
			"-0.001": 23.1434339629,
			"0.0": 13.5587736064,
			"0.001": 9.43974022329,
			"0.002": 9.34621725,
			"0.003": 13.6167178229,
			"0.004": 6.79545881599,
			"0.005": 3.14528933758,
			"0.006": 4.306419475,
			"0.007": 4.48539495521,
			"0.008": 6.17518106436,
			"0.009": 14.8018214052,
			"0.01": 12.3067176152,
			"0.011": 5.07688236856,
			"0.012": 0.683711030405,
			"0.013": 0.0,
			"0.014": 0.0,
			"0.015": 0.0,
			"0.016": 0.0,
			"0.017": 0.0,
			"0.018": 0.0,
			"0.019": 0.0,
			"0.02": 0.0,
			"0.021": 0.0,
			"0.022": 0.0,
			"0.023": 0.0,
			"0.024": 0.0,
			"0.025": 0.0
		}
	}
}
