{
	 "smiles": "CSC1=NC(N)=C(S1)C(=O)C1=CC=C(C=C1)[N+]([O-])=O", 
	 "Tm": 474.15, 
	 "num_atms": 28, 
	 "gaussian": { 
		 "optdone": 1, 
		 "sigma_profile": "yes", 
		 "theory": "DFT", 
		 "functional": "B3LYP", 
		 "basiset": "6-31G**", 
		 "properties": { 
			 "R2extent": 8882.0209, 
			 "electric_dipole_moment_norm": 6.06163100659, 
			 "electric_quadrupole_moment_norm": 23.5375447426, 
			 "total_energy": -1610.7929945, 
			 "HOMO_LUMO_gap": 0.11711, 
			 "cosmo_polarized_energy": -18.54, 
			 "cosmo_cavitation_energy": 37.14, 
			 "cosmo_dispersion_energy": -27.65, 
			 "cosmo_repulsion_energy": 2.04, 
			 "cosmo_total_nonelectrostatic_energy": 11.54, 
			 "SMD_solvation_energy": 7.65 
		},
		"coords": [
			{
				"x": -3.1669999548,
				"y": -0.7933928522,
				"z": 4.8173240866,
				"element": "C" 
			},
			{
				"x": -1.5344296927,
				"y": -0.0275863345,
				"z": 5.1045909422,
				"element": "S" 
			},
			{
				"x": -0.9789415652,
				"y": 0.1563181084,
				"z": 3.4495423755,
				"element": "C" 
			},
			{
				"x": -1.6780977922,
				"y": -0.2045125183,
				"z": 2.4020403398,
				"element": "N" 
			},
			{
				"x": -0.9860555046,
				"y": 0.0471780889,
				"z": 1.2411369869,
				"element": "C" 
			},
			{
				"x": -1.6315090931,
				"y": -0.2890358447,
				"z": 0.082234977,
				"element": "N" 
			},
			{
				"x": 0.2883215791,
				"y": 0.6012279279,
				"z": 1.4005533614,
				"element": "C" 
			},
			{
				"x": 0.5849147186,
				"y": 0.8586462725,
				"z": 3.1262557775,
				"element": "S" 
			},
			{
				"x": 1.3050087646,
				"y": 1.1122188212,
				"z": 0.5021920291,
				"element": "C" 
			},
			{
				"x": 2.2183896112,
				"y": 1.8269962372,
				"z": 0.9242315252,
				"element": "O" 
			},
			{
				"x": 1.290165387,
				"y": 0.774672452,
				"z": -0.9689148872,
				"element": "C" 
			},
			{
				"x": 1.0265216822,
				"y": -0.5202664697,
				"z": -1.4417549221,
				"element": "C" 
			},
			{
				"x": 1.1240147517,
				"y": -0.8091766396,
				"z": -2.8018434133,
				"element": "C" 
			},
			{
				"x": 1.4801208926,
				"y": 0.2138122783,
				"z": -3.6771172107,
				"element": "C" 
			},
			{
				"x": 1.761613611,
				"y": 1.5065861627,
				"z": -3.2347061849,
				"element": "C" 
			},
			{
				"x": 1.6788110088,
				"y": 1.7757969845,
				"z": -1.8735310583,
				"element": "C" 
			},
			{
				"x": 1.5686478037,
				"y": -0.0822842044,
				"z": -5.1180522012,
				"element": "N" 
			},
			{
				"x": 1.8879124861,
				"y": 0.837600161,
				"z": -5.8694211629,
				"element": "O" 
			},
			{
				"x": 1.3145275618,
				"y": -1.2303270031,
				"z": -5.4802638352,
				"element": "O" 
			},
			{
				"x": -3.5932925036,
				"y": -0.9552323875,
				"z": 5.8091727082,
				"element": "H" 
			},
			{
				"x": -3.8038127373,
				"y": -0.1249387528,
				"z": 4.2379050476,
				"element": "H" 
			},
			{
				"x": -3.0540198123,
				"y": -1.7436383104,
				"z": 4.2954660138,
				"element": "H" 
			},
			{
				"x": -1.3230192613,
				"y": 0.1190817795,
				"z": -0.7857562148,
				"element": "H" 
			},
			{
				"x": -2.624669022,
				"y": -0.4386262667,
				"z": 0.1821414579,
				"element": "H" 
			},
			{
				"x": 0.7591232637,
				"y": -1.3075416282,
				"z": -0.74493092,
				"element": "H" 
			},
			{
				"x": 0.9372109881,
				"y": -1.8025459604,
				"z": -3.1900572673,
				"element": "H" 
			},
			{
				"x": 2.0449119035,
				"y": 2.2657399866,
				"z": -3.9529165631,
				"element": "H" 
			},
			{
				"x": 1.9240309254,
				"y": 2.759529912,
				"z": -1.4886217877,
				"element": "H" 
			}
		],
		 "valence_orbital": [ 
			{
				"type": "occ",
				"energy": -0.28834,
				"method": "rhf"
			},
			{
				"type": "occ",
				"energy": -0.28717,
				"method": "rhf"
			},
			{
				"type": "occ",
				"energy": -0.26796,
				"method": "rhf"
			},
			{
				"type": "occ",
				"energy": -0.2556,
				"method": "rhf"
			},
			{
				"type": "occ",
				"energy": -0.21932,
				"method": "rhf"
			},
			{
				"type": "unocc",
				"energy": -0.10221,
				"method": "rhf"
			},
			{
				"type": "unocc",
				"energy": -0.06529,
				"method": "rhf"
			},
			{
				"type": "unocc",
				"energy": -0.03641,
				"method": "rhf"
			},
			{
				"type": "unocc",
				"energy": -0.01983,
				"method": "rhf"
			},
			{
				"type": "unocc",
				"energy": -0.00683,
				"method": "rhf"
			}
		],
		"cosmo_sigma_profile": { 
			"-0.025": 0.0,
			"-0.024": 0.0,
			"-0.023": 0.0,
			"-0.022": 0.0,
			"-0.021": 0.0,
			"-0.02": 0.0,
			"-0.019": 0.0,
			"-0.018": 0.0,
			"-0.017": 0.0,
			"-0.016": 0.0,
			"-0.015": 0.0666627758533,
			"-0.014": 1.12156463601,
			"-0.013": 1.44484666306,
			"-0.012": 2.69667662558,
			"-0.011": 2.40554350768,
			"-0.01": 2.13893183039,
			"-0.009": 2.74355721456,
			"-0.008": 6.50128795665,
			"-0.007": 10.8427935158,
			"-0.006": 15.0253974622,
			"-0.005": 15.0646164901,
			"-0.004": 17.6067809338,
			"-0.003": 20.6084517739,
			"-0.002": 23.1407743264,
			"-0.001": 24.2200909303,
			"0.0": 27.0355025495,
			"0.001": 22.4282947121,
			"0.002": 16.9591947866,
			"0.003": 15.6469247233,
			"0.004": 12.9850525998,
			"0.005": 9.83839562735,
			"0.006": 10.2852594063,
			"0.007": 12.5186146452,
			"0.008": 9.67692578,
			"0.009": 6.73155996331,
			"0.01": 3.65484204266,
			"0.011": 2.40238926636,
			"0.012": 4.32108939354,
			"0.013": 2.12535158467,
			"0.014": 0.0,
			"0.015": 0.0,
			"0.016": 0.0,
			"0.017": 0.0,
			"0.018": 0.0,
			"0.019": 0.0,
			"0.02": 0.0,
			"0.021": 0.0,
			"0.022": 0.0,
			"0.023": 0.0,
			"0.024": 0.0,
			"0.025": 0.0
		}
	}
}
