{
	 "smiles": "SC1=NN=C(N1C1=CC=CC=C1)C1=CC=CS1", 
	 "Tm": 543.15, 
	 "num_atms": 26, 
	 "gaussian": { 
		 "optdone": 1, 
		 "sigma_profile": "yes", 
		 "theory": "DFT", 
		 "functional": "B3LYP", 
		 "basiset": "6-31G**", 
		 "properties": { 
			 "R2extent": 4946.0367, 
			 "electric_dipole_moment_norm": 4.98080738034, 
			 "electric_quadrupole_moment_norm": 12.9367866188, 
			 "total_energy": -1423.28584615, 
			 "HOMO_LUMO_gap": 0.16627, 
			 "cosmo_polarized_energy": -15.11, 
			 "cosmo_cavitation_energy": 33.98, 
			 "cosmo_dispersion_energy": -24.61, 
			 "cosmo_repulsion_energy": 1.83, 
			 "cosmo_total_nonelectrostatic_energy": 11.19, 
			 "SMD_solvation_energy": 3.73 
		},
		"coords": [
			{
				"x": -0.1075575791,
				"y": 2.2102427588,
				"z": -3.5640133503,
				"element": "S" 
			},
			{
				"x": 0.3932237972,
				"y": 0.6201392638,
				"z": -2.9813411052,
				"element": "C" 
			},
			{
				"x": 0.7340014061,
				"y": -0.4089630865,
				"z": -3.7194304747,
				"element": "N" 
			},
			{
				"x": 1.0495580284,
				"y": -1.4347550863,
				"z": -2.8604899207,
				"element": "N" 
			},
			{
				"x": 0.8939176252,
				"y": -1.0067031883,
				"z": -1.6220824605,
				"element": "C" 
			},
			{
				"x": 0.469910477,
				"y": 0.3178847825,
				"z": -1.6400138344,
				"element": "N" 
			},
			{
				"x": 0.1696636975,
				"y": 1.2070344938,
				"z": -0.555153432,
				"element": "C" 
			},
			{
				"x": -1.136078476,
				"y": 1.2752778881,
				"z": -0.059774525,
				"element": "C" 
			},
			{
				"x": -1.4259398857,
				"y": 2.1508769003,
				"z": 0.9862079843,
				"element": "C" 
			},
			{
				"x": -0.4191366072,
				"y": 2.9527713103,
				"z": 1.5284212257,
				"element": "C" 
			},
			{
				"x": 0.8813534772,
				"y": 2.8843034603,
				"z": 1.0236969757,
				"element": "C" 
			},
			{
				"x": 1.181109163,
				"y": 2.0119889097,
				"z": -0.0222202182,
				"element": "C" 
			},
			{
				"x": 1.1435292266,
				"y": -1.8393319495,
				"z": -0.4571658099,
				"element": "C" 
			},
			{
				"x": 1.5698849052,
				"y": -3.1485972866,
				"z": -0.5235355484,
				"element": "C" 
			},
			{
				"x": 1.7408818966,
				"y": -3.7494191619,
				"z": 0.7527486469,
				"element": "C" 
			},
			{
				"x": 1.4451675451,
				"y": -2.8987776593,
				"z": 1.7835852929,
				"element": "C" 
			},
			{
				"x": 0.9497678742,
				"y": -1.3400181346,
				"z": 1.2112522875,
				"element": "S" 
			},
			{
				"x": 0.0295134136,
				"y": 1.8415461262,
				"z": -4.8520867675,
				"element": "H" 
			},
			{
				"x": -1.9056927181,
				"y": 0.6450359442,
				"z": -0.493278467,
				"element": "H" 
			},
			{
				"x": -2.4375709438,
				"y": 2.2062413567,
				"z": 1.3760563288,
				"element": "H" 
			},
			{
				"x": -0.648651711,
				"y": 3.6331299701,
				"z": 2.3430172633,
				"element": "H" 
			},
			{
				"x": 1.6633904233,
				"y": 3.5098396786,
				"z": 1.4427012993,
				"element": "H" 
			},
			{
				"x": 2.1856997968,
				"y": 1.9457989957,
				"z": -0.426994112,
				"element": "H" 
			},
			{
				"x": 1.74729161,
				"y": -3.6401758336,
				"z": -1.4718187025,
				"element": "H" 
			},
			{
				"x": 2.0702945952,
				"y": -4.771815838,
				"z": 0.8978077845,
				"element": "H" 
			},
			{
				"x": 1.4867689629,
				"y": -3.0878546147,
				"z": 2.8473036394,
				"element": "H" 
			}
		],
		 "valence_orbital": [ 
			{
				"type": "occ",
				"energy": -0.27636,
				"method": "rhf"
			},
			{
				"type": "occ",
				"energy": -0.25958,
				"method": "rhf"
			},
			{
				"type": "occ",
				"energy": -0.25469,
				"method": "rhf"
			},
			{
				"type": "occ",
				"energy": -0.24916,
				"method": "rhf"
			},
			{
				"type": "occ",
				"energy": -0.20631,
				"method": "rhf"
			},
			{
				"type": "unocc",
				"energy": -0.04004,
				"method": "rhf"
			},
			{
				"type": "unocc",
				"energy": -0.03436,
				"method": "rhf"
			},
			{
				"type": "unocc",
				"energy": -0.0256,
				"method": "rhf"
			},
			{
				"type": "unocc",
				"energy": 0.01039,
				"method": "rhf"
			},
			{
				"type": "unocc",
				"energy": 0.03255,
				"method": "rhf"
			}
		],
		"cosmo_sigma_profile": { 
			"-0.025": 0.0,
			"-0.024": 0.0,
			"-0.023": 0.0,
			"-0.022": 0.0,
			"-0.021": 0.0,
			"-0.02": 0.0,
			"-0.019": 0.0,
			"-0.018": 0.0,
			"-0.017": 0.0,
			"-0.016": 0.0,
			"-0.015": 0.0,
			"-0.014": 0.0,
			"-0.013": 0.160972433052,
			"-0.012": 1.41316521597,
			"-0.011": 1.4163182251,
			"-0.01": 1.28237482632,
			"-0.009": 2.60959124344,
			"-0.008": 4.39358164852,
			"-0.007": 13.3178580081,
			"-0.006": 19.4893089116,
			"-0.005": 20.3576182802,
			"-0.004": 17.6365899327,
			"-0.003": 16.3135740323,
			"-0.002": 14.0600939226,
			"-0.001": 14.6014753427,
			"0.0": 16.5741322045,
			"0.001": 20.1354069938,
			"0.002": 25.0180526922,
			"0.003": 33.4293098246,
			"0.004": 20.9968604932,
			"0.005": 7.487701353,
			"0.006": 4.66034291984,
			"0.007": 2.34656572634,
			"0.008": 2.30770765049,
			"0.009": 1.5123212998,
			"0.01": 1.82867772978,
			"0.011": 2.44401694931,
			"0.012": 3.3877766276,
			"0.013": 3.20308151529,
			"0.014": 2.88822852837,
			"0.015": 2.12804482012,
			"0.016": 0.82288560829,
			"0.017": 0.0,
			"0.018": 0.0,
			"0.019": 0.0,
			"0.02": 0.0,
			"0.021": 0.0,
			"0.022": 0.0,
			"0.023": 0.0,
			"0.024": 0.0,
			"0.025": 0.0
		}
	}
}
