{
	 "smiles": "OC(=O)C1=CC=C(C=C1)C(O)=O", 
	 "Tm": 573.15, 
	 "num_atms": 18, 
	 "gaussian": { 
		 "optdone": 1, 
		 "sigma_profile": "yes", 
		 "theory": "DFT", 
		 "functional": "B3LYP", 
		 "basiset": "6-31G**", 
		 "properties": { 
			 "R2extent": 3122.1839, 
			 "electric_dipole_moment_norm": 4.14249928546, 
			 "electric_quadrupole_moment_norm": 26.6881817116, 
			 "total_energy": -609.375289401, 
			 "HOMO_LUMO_gap": 0.19498, 
			 "cosmo_polarized_energy": -23.66, 
			 "cosmo_cavitation_energy": 23.55, 
			 "cosmo_dispersion_energy": -17.41, 
			 "cosmo_repulsion_energy": 1.38, 
			 "cosmo_total_nonelectrostatic_energy": 7.51, 
			 "SMD_solvation_energy": 6.46 
		},
		"coords": [
			{
				"x": -0.7901950419,
				"y": -4.566446864,
				"z": 2.1010283106,
				"element": "O" 
			},
			{
				"x": -0.564367706,
				"y": -3.2765608437,
				"z": 2.4632832368,
				"element": "C" 
			},
			{
				"x": -0.5789204672,
				"y": -2.959792439,
				"z": 3.6281341287,
				"element": "O" 
			},
			{
				"x": -0.3076907981,
				"y": -2.2962898485,
				"z": 1.3537197435,
				"element": "C" 
			},
			{
				"x": -0.7484859335,
				"y": -2.5025103563,
				"z": 0.0400286916,
				"element": "C" 
			},
			{
				"x": -0.5077365153,
				"y": -1.5414621945,
				"z": -0.940344653,
				"element": "C" 
			},
			{
				"x": 0.1854827536,
				"y": -0.3665335671,
				"z": -0.6216100792,
				"element": "C" 
			},
			{
				"x": 0.6376182056,
				"y": -0.167868378,
				"z": 0.6911746162,
				"element": "C" 
			},
			{
				"x": 0.3745763517,
				"y": -1.1133690173,
				"z": 1.673885317,
				"element": "C" 
			},
			{
				"x": 0.5064669328,
				"y": 0.692192908,
				"z": -1.6384732664,
				"element": "C" 
			},
			{
				"x": -0.2854628783,
				"y": 0.7423661924,
				"z": -2.7413684558,
				"element": "O" 
			},
			{
				"x": 1.4200630126,
				"y": 1.4706503945,
				"z": -1.508941096,
				"element": "O" 
			},
			{
				"x": -0.573861788,
				"y": -4.6989581959,
				"z": 1.1677154497,
				"element": "H" 
			},
			{
				"x": -1.3109357433,
				"y": -3.3937330554,
				"z": -0.2260102065,
				"element": "H" 
			},
			{
				"x": -0.8369051573,
				"y": -1.7361433966,
				"z": -1.9577725916,
				"element": "H" 
			},
			{
				"x": 1.1886731529,
				"y": 0.7385361239,
				"z": 0.91680427,
				"element": "H" 
			},
			{
				"x": 0.6927141761,
				"y": -0.9611491445,
				"z": 2.6994393849,
				"element": "H" 
			},
			{
				"x": -1.0674325565,
				"y": 0.1857716822,
				"z": -2.6223928006,
				"element": "H" 
			}
		],
		 "valence_orbital": [ 
			{
				"type": "occ",
				"energy": -0.32918,
				"method": "rhf"
			},
			{
				"type": "occ",
				"energy": -0.29774,
				"method": "rhf"
			},
			{
				"type": "occ",
				"energy": -0.29447,
				"method": "rhf"
			},
			{
				"type": "occ",
				"energy": -0.28684,
				"method": "rhf"
			},
			{
				"type": "occ",
				"energy": -0.28057,
				"method": "rhf"
			},
			{
				"type": "unocc",
				"energy": -0.08559,
				"method": "rhf"
			},
			{
				"type": "unocc",
				"energy": -0.04498,
				"method": "rhf"
			},
			{
				"type": "unocc",
				"energy": -0.00245,
				"method": "rhf"
			},
			{
				"type": "unocc",
				"energy": 0.04213,
				"method": "rhf"
			},
			{
				"type": "unocc",
				"energy": 0.04663,
				"method": "rhf"
			}
		],
		"cosmo_sigma_profile": { 
			"-0.025": 0.0,
			"-0.024": 0.0,
			"-0.023": 0.0,
			"-0.022": 0.0,
			"-0.021": 0.0,
			"-0.02": 0.0229323322136,
			"-0.019": 1.08721730343,
			"-0.018": 2.24915045387,
			"-0.017": 2.13563249201,
			"-0.016": 2.14190555684,
			"-0.015": 2.00027098442,
			"-0.014": 1.69385325907,
			"-0.013": 1.78936628638,
			"-0.012": 2.77190303431,
			"-0.011": 2.35499482367,
			"-0.01": 2.53650551072,
			"-0.009": 3.75518834263,
			"-0.008": 4.42464398878,
			"-0.007": 7.90095025646,
			"-0.006": 7.37134334879,
			"-0.005": 7.95119469132,
			"-0.004": 8.11031946482,
			"-0.003": 9.08623394371,
			"-0.002": 8.26847199745,
			"-0.001": 9.59866352755,
			"0.0": 10.3761472566,
			"0.001": 17.5393852651,
			"0.002": 9.05885231473,
			"0.003": 4.03011060169,
			"0.004": 4.3160130485,
			"0.005": 4.26340063005,
			"0.006": 4.90900512573,
			"0.007": 5.08086496046,
			"0.008": 5.88934999764,
			"0.009": 7.18317342236,
			"0.01": 10.307892025,
			"0.011": 11.1073467829,
			"0.012": 6.59221141111,
			"0.013": 1.2037863807,
			"0.014": 0.0,
			"0.015": 0.0,
			"0.016": 0.0,
			"0.017": 0.0,
			"0.018": 0.0,
			"0.019": 0.0,
			"0.02": 0.0,
			"0.021": 0.0,
			"0.022": 0.0,
			"0.023": 0.0,
			"0.024": 0.0,
			"0.025": 0.0
		}
	}
}
