{
	 "smiles": "OC(=O)CCOC1=CC2=C(C=C1)C1=CC=CC=C1N2", 
	 "Tm": 457.15, 
	 "num_atms": 32, 
	 "gaussian": { 
		 "optdone": 1, 
		 "sigma_profile": "yes", 
		 "theory": "DFT", 
		 "functional": "B3LYP", 
		 "basiset": "6-31G**", 
		 "properties": { 
			 "R2extent": 7783.426, 
			 "electric_dipole_moment_norm": 0.8901141556, 
			 "electric_quadrupole_moment_norm": 23.218150068, 
			 "total_energy": -859.883945816, 
			 "HOMO_LUMO_gap": 0.17529, 
			 "cosmo_polarized_energy": -17.71, 
			 "cosmo_cavitation_energy": 36.76, 
			 "cosmo_dispersion_energy": -26.76, 
			 "cosmo_repulsion_energy": 2.06, 
			 "cosmo_total_nonelectrostatic_energy": 12.06, 
			 "SMD_solvation_energy": 6.77 
		},
		"coords": [
			{
				"x": 0.8353375169,
				"y": 4.1008970504,
				"z": 2.7624071358,
				"element": "O" 
			},
			{
				"x": -0.465013172,
				"y": 4.3689884748,
				"z": 2.4854794505,
				"element": "C" 
			},
			{
				"x": -0.811923778,
				"y": 5.3456623843,
				"z": 1.8624785461,
				"element": "O" 
			},
			{
				"x": -1.3947502342,
				"y": 3.3306321752,
				"z": 3.0829485289,
				"element": "C" 
			},
			{
				"x": -0.9772849857,
				"y": 1.8932370027,
				"z": 2.7944967426,
				"element": "C" 
			},
			{
				"x": -1.0152661271,
				"y": 1.7253329325,
				"z": 1.3829872859,
				"element": "O" 
			},
			{
				"x": -0.6522391452,
				"y": 0.5175258427,
				"z": 0.8473535885,
				"element": "C" 
			},
			{
				"x": -0.7065902952,
				"y": 0.4503603493,
				"z": -0.5487156912,
				"element": "C" 
			},
			{
				"x": -0.3520015541,
				"y": -0.7525723484,
				"z": -1.1522492277,
				"element": "C" 
			},
			{
				"x": 0.0548244366,
				"y": -1.8896190459,
				"z": -0.3999443958,
				"element": "C" 
			},
			{
				"x": 0.0977590229,
				"y": -1.7898181673,
				"z": 0.9918838239,
				"element": "C" 
			},
			{
				"x": -0.2532924183,
				"y": -0.5938303249,
				"z": 1.6172457348,
				"element": "C" 
			},
			{
				"x": 0.3426196113,
				"y": -2.943249118,
				"z": -1.3548831331,
				"element": "C" 
			},
			{
				"x": 0.7758849198,
				"y": -4.2693768365,
				"z": -1.2439256499,
				"element": "C" 
			},
			{
				"x": 0.9567828059,
				"y": -5.0245212448,
				"z": -2.4011025249,
				"element": "C" 
			},
			{
				"x": 0.7095177544,
				"y": -4.4691351708,
				"z": -3.667788557,
				"element": "C" 
			},
			{
				"x": 0.2771673836,
				"y": -3.1507635459,
				"z": -3.8079863736,
				"element": "C" 
			},
			{
				"x": 0.0981568912,
				"y": -2.4004590938,
				"z": -2.6450019621,
				"element": "C" 
			},
			{
				"x": -0.3181212605,
				"y": -1.0832504133,
				"z": -2.4968027603,
				"element": "N" 
			},
			{
				"x": 1.3515781639,
				"y": 4.8101701889,
				"z": 2.3442568435,
				"element": "H" 
			},
			{
				"x": -1.4108785291,
				"y": 3.4776401049,
				"z": 4.170058096,
				"element": "H" 
			},
			{
				"x": -2.3963356708,
				"y": 3.5279329873,
				"z": 2.6966660758,
				"element": "H" 
			},
			{
				"x": -1.672249369,
				"y": 1.1969845407,
				"z": 3.2839999776,
				"element": "H" 
			},
			{
				"x": 0.0325982033,
				"y": 1.7042483331,
				"z": 3.1779133365,
				"element": "H" 
			},
			{
				"x": -1.017922957,
				"y": 1.3233041846,
				"z": -1.1124320732,
				"element": "H" 
			},
			{
				"x": 0.4037383645,
				"y": -2.6391936463,
				"z": 1.5961694437,
				"element": "H" 
			},
			{
				"x": -0.2153956292,
				"y": -0.5301080708,
				"z": 2.6975082112,
				"element": "H" 
			},
			{
				"x": 0.9691119961,
				"y": -4.7054429703,
				"z": -0.2676468445,
				"element": "H" 
			},
			{
				"x": 1.2926947065,
				"y": -6.0542994205,
				"z": -2.3251582895,
				"element": "H" 
			},
			{
				"x": 0.8571858611,
				"y": -5.076210398,
				"z": -4.556267368,
				"element": "H" 
			},
			{
				"x": 0.0870208585,
				"y": -2.7249041406,
				"z": -4.7891170852,
				"element": "H" 
			},
			{
				"x": -0.5589133711,
				"y": -0.4626625951,
				"z": -3.2519308852,
				"element": "H" 
			}
		],
		 "valence_orbital": [ 
			{
				"type": "occ",
				"energy": -0.27486,
				"method": "rhf"
			},
			{
				"type": "occ",
				"energy": -0.25947,
				"method": "rhf"
			},
			{
				"type": "occ",
				"energy": -0.24964,
				"method": "rhf"
			},
			{
				"type": "occ",
				"energy": -0.20193,
				"method": "rhf"
			},
			{
				"type": "occ",
				"energy": -0.19665,
				"method": "rhf"
			},
			{
				"type": "unocc",
				"energy": -0.02136,
				"method": "rhf"
			},
			{
				"type": "unocc",
				"energy": 0.00734,
				"method": "rhf"
			},
			{
				"type": "unocc",
				"energy": 0.00801,
				"method": "rhf"
			},
			{
				"type": "unocc",
				"energy": 0.03455,
				"method": "rhf"
			},
			{
				"type": "unocc",
				"energy": 0.05234,
				"method": "rhf"
			}
		],
		"cosmo_sigma_profile": { 
			"-0.025": 0.0,
			"-0.024": 0.0,
			"-0.023": 0.0,
			"-0.022": 0.0,
			"-0.021": 0.0,
			"-0.02": 0.0,
			"-0.019": 0.0263093194025,
			"-0.018": 0.598631179329,
			"-0.017": 1.35522350009,
			"-0.016": 0.601497662961,
			"-0.015": 2.11685093153,
			"-0.014": 2.45606861157,
			"-0.013": 1.24353703497,
			"-0.012": 1.78339886057,
			"-0.011": 2.41376306975,
			"-0.01": 3.15091221774,
			"-0.009": 1.21977310629,
			"-0.008": 2.72668023483,
			"-0.007": 7.16032618049,
			"-0.006": 18.0015043174,
			"-0.005": 23.765091951,
			"-0.004": 20.9240216322,
			"-0.003": 20.3043018734,
			"-0.002": 15.0787162275,
			"-0.001": 11.9413757343,
			"0.0": 10.7924118336,
			"0.001": 14.1835860696,
			"0.002": 13.0769435017,
			"0.003": 19.2120815554,
			"0.004": 24.1133373329,
			"0.005": 28.6501975151,
			"0.006": 19.9645380074,
			"0.007": 8.75115873292,
			"0.008": 3.28557496222,
			"0.009": 2.55995867635,
			"0.01": 2.09968251536,
			"0.011": 4.48797311872,
			"0.012": 4.38888713623,
			"0.013": 0.621716653043,
			"0.014": 0.0,
			"0.015": 0.0,
			"0.016": 0.0,
			"0.017": 0.0,
			"0.018": 0.0,
			"0.019": 0.0,
			"0.02": 0.0,
			"0.021": 0.0,
			"0.022": 0.0,
			"0.023": 0.0,
			"0.024": 0.0,
			"0.025": 0.0
		}
	}
}
