{
	 "smiles": "CCCC(=O)NC1=NC2=C(S1)C=C(N)C=C2", 
	 "Tm": 456.15, 
	 "num_atms": 29, 
	 "gaussian": { 
		 "optdone": 1, 
		 "sigma_profile": "yes", 
		 "theory": "DFT", 
		 "functional": "B3LYP", 
		 "basiset": "6-31G**", 
		 "properties": { 
			 "R2extent": 5667.5433, 
			 "electric_dipole_moment_norm": 4.92379354665, 
			 "electric_quadrupole_moment_norm": 14.4039847101, 
			 "total_energy": -1064.70616652, 
			 "HOMO_LUMO_gap": 0.16789, 
			 "cosmo_polarized_energy": -15.37, 
			 "cosmo_cavitation_energy": 34.47, 
			 "cosmo_dispersion_energy": -25.13, 
			 "cosmo_repulsion_energy": 1.93, 
			 "cosmo_total_nonelectrostatic_energy": 11.27, 
			 "SMD_solvation_energy": 5.13 
		},
		"coords": [
			{
				"x": -2.9524081498,
				"y": -0.3147314585,
				"z": -2.1403634835,
				"element": "C" 
			},
			{
				"x": -1.9152080101,
				"y": 0.7243078255,
				"z": -1.7065972683,
				"element": "C" 
			},
			{
				"x": -2.2207279557,
				"y": 1.2914553408,
				"z": -0.3039792874,
				"element": "C" 
			},
			{
				"x": -1.244447882,
				"y": 2.3773505418,
				"z": 0.0861634852,
				"element": "C" 
			},
			{
				"x": -1.4455811097,
				"y": 3.5636697176,
				"z": -0.1136708519,
				"element": "O" 
			},
			{
				"x": -0.0229289351,
				"y": 2.023435319,
				"z": 0.6874532237,
				"element": "N" 
			},
			{
				"x": 0.5077919988,
				"y": 0.799922444,
				"z": 1.0508194286,
				"element": "C" 
			},
			{
				"x": 0.0235214482,
				"y": -0.3663248312,
				"z": 0.7851806914,
				"element": "N" 
			},
			{
				"x": 0.8232168334,
				"y": -1.3705551707,
				"z": 1.3161951995,
				"element": "C" 
			},
			{
				"x": 1.9778858179,
				"y": -0.9394863419,
				"z": 2.0095604648,
				"element": "C" 
			},
			{
				"x": 2.0348349356,
				"y": 0.8190934225,
				"z": 1.9954744797,
				"element": "S" 
			},
			{
				"x": 2.8809650602,
				"y": -1.8316497273,
				"z": 2.5803489307,
				"element": "C" 
			},
			{
				"x": 2.6282453564,
				"y": -3.2078707576,
				"z": 2.4661170513,
				"element": "C" 
			},
			{
				"x": 3.4743109789,
				"y": -4.1362236822,
				"z": 3.0778356606,
				"element": "N" 
			},
			{
				"x": 1.4751535192,
				"y": -3.6462135864,
				"z": 1.776780942,
				"element": "C" 
			},
			{
				"x": 0.5847068934,
				"y": -2.7459574423,
				"z": 1.2084020955,
				"element": "C" 
			},
			{
				"x": -3.9604499782,
				"y": 0.1143451757,
				"z": -2.1666261066,
				"element": "H" 
			},
			{
				"x": -2.9688058919,
				"y": -1.16481883,
				"z": -1.4494955028,
				"element": "H" 
			},
			{
				"x": -2.7280593233,
				"y": -0.7006858249,
				"z": -3.1400462345,
				"element": "H" 
			},
			{
				"x": -1.8887077793,
				"y": 1.5517467115,
				"z": -2.425752124,
				"element": "H" 
			},
			{
				"x": -0.9202272181,
				"y": 0.2672782502,
				"z": -1.6970962261,
				"element": "H" 
			},
			{
				"x": -3.2060886922,
				"y": 1.7665551264,
				"z": -0.3045370178,
				"element": "H" 
			},
			{
				"x": -2.2074687634,
				"y": 0.4774908114,
				"z": 0.4241846446,
				"element": "H" 
			},
			{
				"x": 0.5312593884,
				"y": 2.845392537,
				"z": 0.8949005417,
				"element": "H" 
			},
			{
				"x": 3.760430888,
				"y": -1.4801242524,
				"z": 3.1117012791,
				"element": "H" 
			},
			{
				"x": 4.4196813727,
				"y": -3.8168937356,
				"z": 3.2388142064,
				"element": "H" 
			},
			{
				"x": 3.4566182568,
				"y": -5.0619557774,
				"z": 2.6725710795,
				"element": "H" 
			},
			{
				"x": 1.2843406118,
				"y": -4.7132030439,
				"z": 1.697495663,
				"element": "H" 
			},
			{
				"x": -0.2957536709,
				"y": -3.093148761,
				"z": 0.6776650356,
				"element": "H" 
			}
		],
		 "valence_orbital": [ 
			{
				"type": "occ",
				"energy": -0.28254,
				"method": "rhf"
			},
			{
				"type": "occ",
				"energy": -0.2696,
				"method": "rhf"
			},
			{
				"type": "occ",
				"energy": -0.25879,
				"method": "rhf"
			},
			{
				"type": "occ",
				"energy": -0.23691,
				"method": "rhf"
			},
			{
				"type": "occ",
				"energy": -0.19691,
				"method": "rhf"
			},
			{
				"type": "unocc",
				"energy": -0.02902,
				"method": "rhf"
			},
			{
				"type": "unocc",
				"energy": -0.00791,
				"method": "rhf"
			},
			{
				"type": "unocc",
				"energy": -0.00785,
				"method": "rhf"
			},
			{
				"type": "unocc",
				"energy": 0.02117,
				"method": "rhf"
			},
			{
				"type": "unocc",
				"energy": 0.05512,
				"method": "rhf"
			}
		],
		"cosmo_sigma_profile": { 
			"-0.025": 0.0,
			"-0.024": 0.0,
			"-0.023": 0.0,
			"-0.022": 0.0,
			"-0.021": 0.0,
			"-0.02": 0.0,
			"-0.019": 0.0,
			"-0.018": 0.0,
			"-0.017": 0.0608577783075,
			"-0.016": 0.572943455162,
			"-0.015": 1.08591620913,
			"-0.014": 0.82906271219,
			"-0.013": 1.51658798058,
			"-0.012": 3.71569930742,
			"-0.011": 4.41355491896,
			"-0.01": 3.13684763461,
			"-0.009": 4.89892808195,
			"-0.008": 3.93895090639,
			"-0.007": 5.69653687216,
			"-0.006": 8.00891557224,
			"-0.005": 7.76330718822,
			"-0.004": 10.5100018812,
			"-0.003": 19.2321653709,
			"-0.002": 24.7719345171,
			"-0.001": 28.6408911176,
			"0.0": 26.2530475916,
			"0.001": 23.1230348795,
			"0.002": 15.5156276049,
			"0.003": 15.9540213779,
			"0.004": 16.4374012823,
			"0.005": 16.2748205768,
			"0.006": 7.27482404718,
			"0.007": 3.44709314508,
			"0.008": 3.30855131788,
			"0.009": 2.76808161868,
			"0.01": 2.22183545081,
			"0.011": 2.8468919767,
			"0.012": 5.33083769257,
			"0.013": 4.27484302014,
			"0.014": 1.16832794471,
			"0.015": 0.115988950074,
			"0.016": 0.0,
			"0.017": 0.0,
			"0.018": 0.0,
			"0.019": 0.0,
			"0.02": 0.0,
			"0.021": 0.0,
			"0.022": 0.0,
			"0.023": 0.0,
			"0.024": 0.0,
			"0.025": 0.0
		}
	}
}
