{
	 "smiles": "COC(=O)C1=C(N)OC2=C(C1C1=CC=C(OC)C=C1)C(=O)N(CCC1=CC=CC=C1)C(C)=C2", 
	 "Tm": 485.15, 
	 "num_atms": 59, 
	 "gaussian": { 
		 "optdone": 1, 
		 "sigma_profile": "yes", 
		 "theory": "DFT", 
		 "functional": "B3LYP", 
		 "basiset": "6-31G**", 
		 "properties": { 
			 "R2extent": 18433.4035, 
			 "electric_dipole_moment_norm": 5.04135264488, 
			 "electric_quadrupole_moment_norm": 27.4391706024, 
			 "total_energy": -1492.07736549, 
			 "HOMO_LUMO_gap": 0.15985, 
			 "cosmo_polarized_energy": -28.1, 
			 "cosmo_cavitation_energy": 62.19, 
			 "cosmo_dispersion_energy": -41.46, 
			 "cosmo_repulsion_energy": 3.14, 
			 "cosmo_total_nonelectrostatic_energy": 23.86, 
			 "SMD_solvation_energy": 12.46 
		},
		"coords": [
			{
				"x": 3.7024168321,
				"y": -0.6012638102,
				"z": -5.6370132247,
				"element": "C" 
			},
			{
				"x": 3.4942905124,
				"y": 0.0844691809,
				"z": -4.3936814077,
				"element": "O" 
			},
			{
				"x": 2.5961325128,
				"y": -0.5249040897,
				"z": -3.541774952,
				"element": "C" 
			},
			{
				"x": 2.0409177725,
				"y": -1.5621416905,
				"z": -3.8586184407,
				"element": "O" 
			},
			{
				"x": 2.3977625626,
				"y": 0.1622627357,
				"z": -2.2699890378,
				"element": "C" 
			},
			{
				"x": 3.0789461655,
				"y": 1.284278874,
				"z": -1.8847643858,
				"element": "C" 
			},
			{
				"x": 3.9236037959,
				"y": 2.0614565453,
				"z": -2.6180791381,
				"element": "N" 
			},
			{
				"x": 2.955199602,
				"y": 1.8260887179,
				"z": -0.6285518143,
				"element": "O" 
			},
			{
				"x": 2.3293729643,
				"y": 1.0891847134,
				"z": 0.3527370154,
				"element": "C" 
			},
			{
				"x": 1.5867082739,
				"y": -0.0168039851,
				"z": 0.0619471143,
				"element": "C" 
			},
			{
				"x": 1.3410218783,
				"y": -0.4531604713,
				"z": -1.3631185718,
				"element": "C" 
			},
			{
				"x": -0.0912885637,
				"y": -0.1221198149,
				"z": -1.8035791647,
				"element": "C" 
			},
			{
				"x": -0.486530487,
				"y": 1.1970722695,
				"z": -2.0734266193,
				"element": "C" 
			},
			{
				"x": -1.788748914,
				"y": 1.4965647364,
				"z": -2.4531035702,
				"element": "C" 
			},
			{
				"x": -2.7384877613,
				"y": 0.4715642894,
				"z": -2.5729025116,
				"element": "C" 
			},
			{
				"x": -3.9925964521,
				"y": 0.8649330083,
				"z": -2.9554536533,
				"element": "O" 
			},
			{
				"x": -4.9886467793,
				"y": -0.13242328,
				"z": -3.0966762911,
				"element": "C" 
			},
			{
				"x": -2.3638763206,
				"y": -0.8489089329,
				"z": -2.3047886537,
				"element": "C" 
			},
			{
				"x": -1.0487888576,
				"y": -1.1298638542,
				"z": -1.9225311529,
				"element": "C" 
			},
			{
				"x": 0.9959389522,
				"y": -0.7720191555,
				"z": 1.1445988588,
				"element": "C" 
			},
			{
				"x": 0.3332319199,
				"y": -1.8022367034,
				"z": 0.9940868041,
				"element": "O" 
			},
			{
				"x": 1.2140850968,
				"y": -0.2632057877,
				"z": 2.4593351727,
				"element": "N" 
			},
			{
				"x": 0.5656750617,
				"y": -1.0413891506,
				"z": 3.5279162189,
				"element": "C" 
			},
			{
				"x": -0.9286891999,
				"y": -0.6928683538,
				"z": 3.6886765202,
				"element": "C" 
			},
			{
				"x": -1.6069585141,
				"y": -1.6136264981,
				"z": 4.6790377479,
				"element": "C" 
			},
			{
				"x": -1.8625343691,
				"y": -1.2095952281,
				"z": 5.9953562591,
				"element": "C" 
			},
			{
				"x": -2.4614053683,
				"y": -2.0801331687,
				"z": 6.9084326462,
				"element": "C" 
			},
			{
				"x": -2.8109857327,
				"y": -3.3727956442,
				"z": 6.5158850906,
				"element": "C" 
			},
			{
				"x": -2.5599757543,
				"y": -3.7880500525,
				"z": 5.205725854,
				"element": "C" 
			},
			{
				"x": -1.9633783455,
				"y": -2.9154822107,
				"z": 4.2959223623,
				"element": "C" 
			},
			{
				"x": 1.9396072936,
				"y": 0.8806081154,
				"z": 2.7122193239,
				"element": "C" 
			},
			{
				"x": 2.1083513729,
				"y": 1.3494400731,
				"z": 4.1329934604,
				"element": "C" 
			},
			{
				"x": 2.5127371331,
				"y": 1.5659041255,
				"z": 1.6742989467,
				"element": "C" 
			},
			{
				"x": 4.4140526168,
				"y": 0.0081983165,
				"z": -6.1955750753,
				"element": "H" 
			},
			{
				"x": 2.7633017846,
				"y": -0.6942603522,
				"z": -6.1873202259,
				"element": "H" 
			},
			{
				"x": 4.1076663206,
				"y": -1.6016285937,
				"z": -5.4654535312,
				"element": "H" 
			},
			{
				"x": 4.2004366342,
				"y": 1.6767131578,
				"z": -3.5105428029,
				"element": "H" 
			},
			{
				"x": 4.6004758698,
				"y": 2.5958271744,
				"z": -2.0939238506,
				"element": "H" 
			},
			{
				"x": 1.4411831261,
				"y": -1.5412859602,
				"z": -1.4095630205,
				"element": "H" 
			},
			{
				"x": 0.2363819518,
				"y": 2.0048156879,
				"z": -1.9931657598,
				"element": "H" 
			},
			{
				"x": -2.0956923482,
				"y": 2.5157131944,
				"z": -2.6659668652,
				"element": "H" 
			},
			{
				"x": -4.7194292469,
				"y": -0.8714587289,
				"z": -3.8629377561,
				"element": "H" 
			},
			{
				"x": -5.1781491557,
				"y": -0.6562002749,
				"z": -2.1502763458,
				"element": "H" 
			},
			{
				"x": -5.8973211899,
				"y": 0.3877999917,
				"z": -3.4053095262,
				"element": "H" 
			},
			{
				"x": -3.076264574,
				"y": -1.6612047324,
				"z": -2.3896889035,
				"element": "H" 
			},
			{
				"x": -0.7673265709,
				"y": -2.1548465132,
				"z": -1.7037566238,
				"element": "H" 
			},
			{
				"x": 0.6573820412,
				"y": -2.090821718,
				"z": 3.2466975396,
				"element": "H" 
			},
			{
				"x": 1.1022512025,
				"y": -0.8877091289,
				"z": 4.4641340312,
				"element": "H" 
			},
			{
				"x": -1.0328189261,
				"y": 0.3512252848,
				"z": 4.0061750222,
				"element": "H" 
			},
			{
				"x": -1.3973807694,
				"y": -0.7864633749,
				"z": 2.7048587584,
				"element": "H" 
			},
			{
				"x": -1.5981299645,
				"y": -0.2011556307,
				"z": 6.3061758406,
				"element": "H" 
			},
			{
				"x": -2.6573382619,
				"y": -1.7469540695,
				"z": 7.923926705,
				"element": "H" 
			},
			{
				"x": -3.2791575466,
				"y": -4.0508580788,
				"z": 7.2237467812,
				"element": "H" 
			},
			{
				"x": -2.8336111392,
				"y": -4.791285724,
				"z": 4.8909338572,
				"element": "H" 
			},
			{
				"x": -1.7725038169,
				"y": -3.2379334741,
				"z": 3.2750711709,
				"element": "H" 
			},
			{
				"x": 2.6449032852,
				"y": 2.2997331331,
				"z": 4.1405734544,
				"element": "H" 
			},
			{
				"x": 1.1462639389,
				"y": 1.4997848454,
				"z": 4.6333113768,
				"element": "H" 
			},
			{
				"x": 2.6835202269,
				"y": 0.6349631482,
				"z": 4.7328344743,
				"element": "H" 
			},
			{
				"x": 3.0992962288,
				"y": 2.4574569174,
				"z": 1.8525244694,
				"element": "H" 
			}
		],
		 "valence_orbital": [ 
			{
				"type": "occ",
				"energy": -0.23964,
				"method": "rhf"
			},
			{
				"type": "occ",
				"energy": -0.23121,
				"method": "rhf"
			},
			{
				"type": "occ",
				"energy": -0.21231,
				"method": "rhf"
			},
			{
				"type": "occ",
				"energy": -0.20644,
				"method": "rhf"
			},
			{
				"type": "occ",
				"energy": -0.19455,
				"method": "rhf"
			},
			{
				"type": "unocc",
				"energy": -0.0347,
				"method": "rhf"
			},
			{
				"type": "unocc",
				"energy": -0.00149,
				"method": "rhf"
			},
			{
				"type": "unocc",
				"energy": 0.00161,
				"method": "rhf"
			},
			{
				"type": "unocc",
				"energy": 0.00272,
				"method": "rhf"
			},
			{
				"type": "unocc",
				"energy": 0.01792,
				"method": "rhf"
			}
		],
		"cosmo_sigma_profile": { 
			"-0.025": 0.0,
			"-0.024": 0.0,
			"-0.023": 0.0,
			"-0.022": 0.0,
			"-0.021": 0.0,
			"-0.02": 0.0,
			"-0.019": 0.0,
			"-0.018": 0.0,
			"-0.017": 0.0,
			"-0.016": 0.0,
			"-0.015": 0.14452204819,
			"-0.014": 1.24855177056,
			"-0.013": 0.962701180608,
			"-0.012": 1.11748818481,
			"-0.011": 1.6613730763,
			"-0.01": 1.88156528903,
			"-0.009": 1.99032349294,
			"-0.008": 2.54774239531,
			"-0.007": 9.86908455429,
			"-0.006": 23.3417320467,
			"-0.005": 38.8273875761,
			"-0.004": 43.2360221893,
			"-0.003": 48.6700104771,
			"-0.002": 40.378252709,
			"-0.001": 39.3070976742,
			"0.0": 34.1133011004,
			"0.001": 34.9752840133,
			"0.002": 29.9466448247,
			"0.003": 24.171952746,
			"0.004": 24.1245912687,
			"0.005": 21.7810753111,
			"0.006": 23.1448806349,
			"0.007": 10.1565248492,
			"0.008": 6.53057777138,
			"0.009": 6.0964423524,
			"0.01": 5.6499088008,
			"0.011": 5.48064782631,
			"0.012": 4.20008583717,
			"0.013": 5.6242568149,
			"0.014": 1.96052253793,
			"0.015": 0.229998510261,
			"0.016": 0.0,
			"0.017": 0.0,
			"0.018": 0.0,
			"0.019": 0.0,
			"0.02": 0.0,
			"0.021": 0.0,
			"0.022": 0.0,
			"0.023": 0.0,
			"0.024": 0.0,
			"0.025": 0.0
		}
	}
}
