{
	 "smiles": "CN(N)C(=O)C1=CC=CC=C1N", 
	 "Tm": 343.15, 
	 "num_atms": 23, 
	 "gaussian": { 
		 "optdone": 1, 
		 "sigma_profile": "yes", 
		 "theory": "DFT", 
		 "functional": "B3LYP", 
		 "basiset": "6-31G**", 
		 "properties": { 
			 "R2extent": 2226.705, 
			 "electric_dipole_moment_norm": 2.31062029118, 
			 "electric_quadrupole_moment_norm": 19.4523231101, 
			 "total_energy": -550.941731044, 
			 "HOMO_LUMO_gap": 0.16968, 
			 "cosmo_polarized_energy": -14.4, 
			 "cosmo_cavitation_energy": 26.01, 
			 "cosmo_dispersion_energy": -19.4, 
			 "cosmo_repulsion_energy": 1.56, 
			 "cosmo_total_nonelectrostatic_energy": 8.17, 
			 "SMD_solvation_energy": 5.35 
		},
		"coords": [
			{
				"x": -0.6177157549,
				"y": -3.0571443465,
				"z": 2.4207161335,
				"element": "C" 
			},
			{
				"x": -0.2388027719,
				"y": -2.3099820549,
				"z": 1.227754244,
				"element": "N" 
			},
			{
				"x": 0.8067559615,
				"y": -2.8393787885,
				"z": 0.4460884719,
				"element": "N" 
			},
			{
				"x": -0.5201548601,
				"y": -0.9507940804,
				"z": 1.1777330709,
				"element": "C" 
			},
			{
				"x": -1.1060994802,
				"y": -0.4332213288,
				"z": 2.1382278893,
				"element": "O" 
			},
			{
				"x": -0.1581659949,
				"y": -0.1625997202,
				"z": -0.0353159894,
				"element": "C" 
			},
			{
				"x": -0.1631525825,
				"y": -0.729961458,
				"z": -1.3212465037,
				"element": "C" 
			},
			{
				"x": 0.1033080243,
				"y": 0.0211753486,
				"z": -2.4583385648,
				"element": "C" 
			},
			{
				"x": 0.3992539603,
				"y": 1.3819488957,
				"z": -2.3166779151,
				"element": "C" 
			},
			{
				"x": 0.3959048618,
				"y": 1.9753378758,
				"z": -1.0637183374,
				"element": "C" 
			},
			{
				"x": 0.0946582562,
				"y": 1.2338724308,
				"z": 0.0987472578,
				"element": "C" 
			},
			{
				"x": 0.1069863556,
				"y": 1.858409491,
				"z": 1.3293412068,
				"element": "N" 
			},
			{
				"x": 0.1995842476,
				"y": -3.0832876908,
				"z": 3.1566136214,
				"element": "H" 
			},
			{
				"x": -0.8646558557,
				"y": -4.0853892921,
				"z": 2.1352708359,
				"element": "H" 
			},
			{
				"x": -1.4818808825,
				"y": -2.5824188966,
				"z": 2.881624153,
				"element": "H" 
			},
			{
				"x": 0.5118892795,
				"y": -3.740726564,
				"z": 0.0758856432,
				"element": "H" 
			},
			{
				"x": 1.6218702264,
				"y": -3.0014684325,
				"z": 1.0400034967,
				"element": "H" 
			},
			{
				"x": -0.3910113366,
				"y": -1.7831655859,
				"z": -1.421104684,
				"element": "H" 
			},
			{
				"x": 0.0838314476,
				"y": -0.4428375394,
				"z": -3.4391046137,
				"element": "H" 
			},
			{
				"x": 0.6215378073,
				"y": 1.9866034998,
				"z": -3.1920825278,
				"element": "H" 
			},
			{
				"x": 0.6116237214,
				"y": 3.0362738724,
				"z": -0.9612748985,
				"element": "H" 
			},
			{
				"x": -0.4541042585,
				"y": 1.395539978,
				"z": 2.0351036898,
				"element": "H" 
			},
			{
				"x": 0.0430396284,
				"y": 2.8652143865,
				"z": 1.3094543202,
				"element": "H" 
			}
		],
		 "valence_orbital": [ 
			{
				"type": "occ",
				"energy": -0.28044,
				"method": "rhf"
			},
			{
				"type": "occ",
				"energy": -0.25633,
				"method": "rhf"
			},
			{
				"type": "occ",
				"energy": -0.24188,
				"method": "rhf"
			},
			{
				"type": "occ",
				"energy": -0.23327,
				"method": "rhf"
			},
			{
				"type": "occ",
				"energy": -0.1919,
				"method": "rhf"
			},
			{
				"type": "unocc",
				"energy": -0.02222,
				"method": "rhf"
			},
			{
				"type": "unocc",
				"energy": 0.0244,
				"method": "rhf"
			},
			{
				"type": "unocc",
				"energy": 0.05445,
				"method": "rhf"
			},
			{
				"type": "unocc",
				"energy": 0.07142,
				"method": "rhf"
			},
			{
				"type": "unocc",
				"energy": 0.10418,
				"method": "rhf"
			}
		],
		"cosmo_sigma_profile": { 
			"-0.025": 0.0,
			"-0.024": 0.0,
			"-0.023": 0.0,
			"-0.022": 0.0,
			"-0.021": 0.0,
			"-0.02": 0.0,
			"-0.019": 0.0,
			"-0.018": 0.0,
			"-0.017": 0.0,
			"-0.016": 0.0,
			"-0.015": 0.0,
			"-0.014": 0.0,
			"-0.013": 0.143556931004,
			"-0.012": 2.08732003527,
			"-0.011": 4.61605202232,
			"-0.01": 4.82746139905,
			"-0.009": 5.72133999639,
			"-0.008": 4.83032458383,
			"-0.007": 5.50504306994,
			"-0.006": 6.726852881,
			"-0.005": 12.6992969438,
			"-0.004": 14.3485803858,
			"-0.003": 15.8852182808,
			"-0.002": 13.7515306915,
			"-0.001": 13.6560189815,
			"0.0": 10.0246692765,
			"0.001": 8.58383379857,
			"0.002": 9.84404232084,
			"0.003": 9.47597109006,
			"0.004": 11.4819158618,
			"0.005": 11.8355736224,
			"0.006": 11.2041631356,
			"0.007": 6.7434190989,
			"0.008": 3.84419840639,
			"0.009": 3.03801273912,
			"0.01": 3.08497232215,
			"0.011": 3.30635646131,
			"0.012": 3.18226189417,
			"0.013": 4.23862080723,
			"0.014": 0.711303864741,
			"0.015": 0.0,
			"0.016": 0.0,
			"0.017": 0.0,
			"0.018": 0.0,
			"0.019": 0.0,
			"0.02": 0.0,
			"0.021": 0.0,
			"0.022": 0.0,
			"0.023": 0.0,
			"0.024": 0.0,
			"0.025": 0.0
		}
	}
}
