{
	 "smiles": "NS(=O)(=O)C1=C(Br)C=CC(=C1)C(O)=O", 
	 "Tm": 549.15, 
	 "num_atms": 20, 
	 "gaussian": { 
		 "optdone": 1, 
		 "sigma_profile": "yes", 
		 "theory": "DFT", 
		 "functional": "B3LYP", 
		 "basiset": "6-31G**", 
		 "properties": { 
			 "R2extent": 4794.6186, 
			 "electric_dipole_moment_norm": 8.10704494498, 
			 "electric_quadrupole_moment_norm": 17.0720350902, 
			 "total_energy": -3595.52519546, 
			 "HOMO_LUMO_gap": 0.19682, 
			 "cosmo_polarized_energy": -28.31, 
			 "cosmo_cavitation_energy": 28.43, 
			 "cosmo_dispersion_energy": -21.82, 
			 "cosmo_repulsion_energy": 1.66, 
			 "cosmo_total_nonelectrostatic_energy": 8.28, 
			 "SMD_solvation_energy": 4.68 
		},
		"coords": [
			{
				"x": -1.3949907022,
				"y": 1.5148521434,
				"z": -2.6009210981,
				"element": "N" 
			},
			{
				"x": -0.8917973261,
				"y": 2.2980162371,
				"z": -1.216603989,
				"element": "S" 
			},
			{
				"x": -2.0176256354,
				"y": 3.0899387919,
				"z": -0.7379750464,
				"element": "O" 
			},
			{
				"x": 0.4059324168,
				"y": 2.8837905051,
				"z": -1.5397374496,
				"element": "O" 
			},
			{
				"x": -0.5591799364,
				"y": 1.0120421217,
				"z": 0.0294477282,
				"element": "C" 
			},
			{
				"x": -1.5248205559,
				"y": 0.1258312737,
				"z": 0.5298255453,
				"element": "C" 
			},
			{
				"x": -3.321857423,
				"y": 0.0892157739,
				"z": -0.1093471352,
				"element": "Br" 
			},
			{
				"x": -1.1893270698,
				"y": -0.7885288765,
				"z": 1.5279639391,
				"element": "C" 
			},
			{
				"x": 0.1116669667,
				"y": -0.8300259238,
				"z": 2.0240337059,
				"element": "C" 
			},
			{
				"x": 1.089570574,
				"y": 0.0383469178,
				"z": 1.5257859413,
				"element": "C" 
			},
			{
				"x": 0.7369481227,
				"y": 0.9679637429,
				"z": 0.5409725518,
				"element": "C" 
			},
			{
				"x": 2.506882526,
				"y": 0.0630099409,
				"z": 2.0254903473,
				"element": "C" 
			},
			{
				"x": 2.9550250867,
				"y": -1.0568237312,
				"z": 2.6508155616,
				"element": "O" 
			},
			{
				"x": 3.2313605223,
				"y": 1.0184152941,
				"z": 1.8931832795,
				"element": "O" 
			},
			{
				"x": -2.2706436005,
				"y": 1.012933003,
				"z": -2.490889728,
				"element": "H" 
			},
			{
				"x": -0.6570524048,
				"y": 0.9846035199,
				"z": -3.0519327034,
				"element": "H" 
			},
			{
				"x": -1.9482540933,
				"y": -1.4573509334,
				"z": 1.9168023786,
				"element": "H" 
			},
			{
				"x": 0.3348817938,
				"y": -1.5265191438,
				"z": 2.8279926092,
				"element": "H" 
			},
			{
				"x": 1.4819132984,
				"y": 1.6641837936,
				"z": 0.1723226285,
				"element": "H" 
			},
			{
				"x": 2.3371674401,
				"y": -1.7902944504,
				"z": 2.5277709337,
				"element": "H" 
			}
		],
		 "valence_orbital": [ 
			{
				"type": "occ",
				"energy": -0.31931,
				"method": "rhf"
			},
			{
				"type": "occ",
				"energy": -0.30789,
				"method": "rhf"
			},
			{
				"type": "occ",
				"energy": -0.29613,
				"method": "rhf"
			},
			{
				"type": "occ",
				"energy": -0.29218,
				"method": "rhf"
			},
			{
				"type": "occ",
				"energy": -0.2801,
				"method": "rhf"
			},
			{
				"type": "unocc",
				"energy": -0.08328,
				"method": "rhf"
			},
			{
				"type": "unocc",
				"energy": -0.06038,
				"method": "rhf"
			},
			{
				"type": "unocc",
				"energy": -0.03302,
				"method": "rhf"
			},
			{
				"type": "unocc",
				"energy": 0.01281,
				"method": "rhf"
			},
			{
				"type": "unocc",
				"energy": 0.04553,
				"method": "rhf"
			}
		],
		"cosmo_sigma_profile": { 
			"-0.025": 0.0,
			"-0.024": 0.0,
			"-0.023": 0.0,
			"-0.022": 0.0,
			"-0.021": 0.0,
			"-0.02": 0.210077873373,
			"-0.019": 0.64126481558,
			"-0.018": 1.25839382128,
			"-0.017": 1.26837934027,
			"-0.016": 1.56139059215,
			"-0.015": 2.83351315893,
			"-0.014": 2.42386055162,
			"-0.013": 3.39595566669,
			"-0.012": 4.31265271829,
			"-0.011": 3.57300880967,
			"-0.01": 3.12688850378,
			"-0.009": 5.45176531001,
			"-0.008": 7.77188034611,
			"-0.007": 6.5976911404,
			"-0.006": 6.36855566648,
			"-0.005": 6.89058460769,
			"-0.004": 10.3345019749,
			"-0.003": 11.7359151064,
			"-0.002": 14.9492566715,
			"-0.001": 20.8967916214,
			"0.0": 14.0719418622,
			"0.001": 8.96324989906,
			"0.002": 10.0498187862,
			"0.003": 7.16764960179,
			"0.004": 6.9671060178,
			"0.005": 5.57157415899,
			"0.006": 7.00100894862,
			"0.007": 6.25814434454,
			"0.008": 7.92408149699,
			"0.009": 10.0943748824,
			"0.01": 15.3890231543,
			"0.011": 13.0885447177,
			"0.012": 2.80006697837,
			"0.013": 0.321063351477,
			"0.014": 0.0,
			"0.015": 0.0,
			"0.016": 0.0,
			"0.017": 0.0,
			"0.018": 0.0,
			"0.019": 0.0,
			"0.02": 0.0,
			"0.021": 0.0,
			"0.022": 0.0,
			"0.023": 0.0,
			"0.024": 0.0,
			"0.025": 0.0
		}
	}
}
