{
	 "smiles": "NC(=NO)C1CCCC2=C1C=CC=C2", 
	 "Tm": 407.15, 
	 "num_atms": 28, 
	 "gaussian": { 
		 "optdone": 1, 
		 "sigma_profile": "yes", 
		 "theory": "DFT", 
		 "functional": "B3LYP", 
		 "basiset": "6-31G**", 
		 "properties": { 
			 "R2extent": 3320.1614, 
			 "electric_dipole_moment_norm": 1.58848863074, 
			 "electric_quadrupole_moment_norm": 2.78831312804, 
			 "total_energy": -612.293072635, 
			 "HOMO_LUMO_gap": 0.20043, 
			 "cosmo_polarized_energy": -11.67, 
			 "cosmo_cavitation_energy": 29.61, 
			 "cosmo_dispersion_energy": -21.57, 
			 "cosmo_repulsion_energy": 1.72, 
			 "cosmo_total_nonelectrostatic_energy": 9.77, 
			 "SMD_solvation_energy": 4.25 
		},
		"coords": [
			{
				"x": 0.0435152959,
				"y": -0.2622535393,
				"z": 2.4511976668,
				"element": "N" 
			},
			{
				"x": 1.0651253831,
				"y": 0.6258763052,
				"z": 2.1479501507,
				"element": "C" 
			},
			{
				"x": 1.9409185099,
				"y": 0.8500870915,
				"z": 3.066594807,
				"element": "N" 
			},
			{
				"x": 2.8941266529,
				"y": 1.8243978095,
				"z": 2.6433319318,
				"element": "O" 
			},
			{
				"x": 1.0914045243,
				"y": 1.2407084647,
				"z": 0.7564177086,
				"element": "C" 
			},
			{
				"x": 2.0609796913,
				"y": 0.4105251792,
				"z": -0.1201437807,
				"element": "C" 
			},
			{
				"x": 1.9671619522,
				"y": 0.8197568146,
				"z": -1.5905887072,
				"element": "C" 
			},
			{
				"x": 0.5579330626,
				"y": 0.5377442778,
				"z": -2.1193454999,
				"element": "C" 
			},
			{
				"x": -0.5247795633,
				"y": 1.1268325983,
				"z": -1.2321260474,
				"element": "C" 
			},
			{
				"x": -0.285617703,
				"y": 1.4341426664,
				"z": 0.1215014846,
				"element": "C" 
			},
			{
				"x": -1.3208409374,
				"y": 2.0060281517,
				"z": 0.8801921412,
				"element": "C" 
			},
			{
				"x": -2.5749527662,
				"y": 2.251374041,
				"z": 0.3292865916,
				"element": "C" 
			},
			{
				"x": -2.8160979993,
				"y": 1.9317837825,
				"z": -1.0089949253,
				"element": "C" 
			},
			{
				"x": -1.7936275502,
				"y": 1.3805418369,
				"z": -1.7750692209,
				"element": "C" 
			},
			{
				"x": -0.3743549414,
				"y": -0.7389852734,
				"z": 1.6654080205,
				"element": "H" 
			},
			{
				"x": 0.2282334457,
				"y": -0.8512878988,
				"z": 3.2521924217,
				"element": "H" 
			},
			{
				"x": 3.4304139049,
				"y": 1.9184230444,
				"z": 3.4398301388,
				"element": "H" 
			},
			{
				"x": 1.54264523,
				"y": 2.2315731883,
				"z": 0.8816902989,
				"element": "H" 
			},
			{
				"x": 3.0732268649,
				"y": 0.5397317423,
				"z": 0.2725842745,
				"element": "H" 
			},
			{
				"x": 1.8159886259,
				"y": -0.6573498648,
				"z": -0.0302219589,
				"element": "H" 
			},
			{
				"x": 2.7104613543,
				"y": 0.2782059416,
				"z": -2.1866374486,
				"element": "H" 
			},
			{
				"x": 2.195772351,
				"y": 1.8890160557,
				"z": -1.6911494114,
				"element": "H" 
			},
			{
				"x": 0.4412930174,
				"y": 0.9233399364,
				"z": -3.1389416552,
				"element": "H" 
			},
			{
				"x": 0.4167556281,
				"y": -0.5513489189,
				"z": -2.1925779283,
				"element": "H" 
			},
			{
				"x": -1.1359528773,
				"y": 2.2517337649,
				"z": 1.921723355,
				"element": "H" 
			},
			{
				"x": -3.358554178,
				"y": 2.6914481828,
				"z": 0.9394588242,
				"element": "H" 
			},
			{
				"x": -3.789391831,
				"y": 2.1206557823,
				"z": -1.4532314248,
				"element": "H" 
			},
			{
				"x": -1.9713851471,
				"y": 1.1451988374,
				"z": -2.8222318072,
				"element": "H" 
			}
		],
		 "valence_orbital": [ 
			{
				"type": "occ",
				"energy": -0.30215,
				"method": "rhf"
			},
			{
				"type": "occ",
				"energy": -0.26102,
				"method": "rhf"
			},
			{
				"type": "occ",
				"energy": -0.23808,
				"method": "rhf"
			},
			{
				"type": "occ",
				"energy": -0.23201,
				"method": "rhf"
			},
			{
				"type": "occ",
				"energy": -0.20047,
				"method": "rhf"
			},
			{
				"type": "unocc",
				"energy": -4e-05,
				"method": "rhf"
			},
			{
				"type": "unocc",
				"energy": 0.00435,
				"method": "rhf"
			},
			{
				"type": "unocc",
				"energy": 0.03902,
				"method": "rhf"
			},
			{
				"type": "unocc",
				"energy": 0.07939,
				"method": "rhf"
			},
			{
				"type": "unocc",
				"energy": 0.08853,
				"method": "rhf"
			}
		],
		"cosmo_sigma_profile": { 
			"-0.025": 0.0,
			"-0.024": 0.0,
			"-0.023": 0.0,
			"-0.022": 0.0,
			"-0.021": 0.0,
			"-0.02": 0.0,
			"-0.019": 0.0,
			"-0.018": 0.0,
			"-0.017": 0.0958817911779,
			"-0.016": 0.721759884083,
			"-0.015": 1.14837537787,
			"-0.014": 0.787768304967,
			"-0.013": 0.607395820894,
			"-0.012": 2.70695697184,
			"-0.011": 1.80852004599,
			"-0.01": 2.93627235351,
			"-0.009": 3.33762795665,
			"-0.008": 3.53914399328,
			"-0.007": 2.45480174824,
			"-0.006": 3.02532387951,
			"-0.005": 8.82369356461,
			"-0.004": 13.3150531254,
			"-0.003": 25.2892294409,
			"-0.002": 25.5444058728,
			"-0.001": 24.4424416039,
			"0.0": 21.7845376091,
			"0.001": 12.0228280733,
			"0.002": 9.15911759121,
			"0.003": 8.8406338229,
			"0.004": 9.40882059463,
			"0.005": 10.6111292357,
			"0.006": 11.5378773744,
			"0.007": 7.60461726466,
			"0.008": 4.77310896786,
			"0.009": 5.94140848514,
			"0.01": 3.85158223275,
			"0.011": 1.58058247386,
			"0.012": 0.989753269717,
			"0.013": 1.52861044714,
			"0.014": 1.08143870672,
			"0.015": 0.509289727142,
			"0.016": 0.048656257279,
			"0.017": 0.0,
			"0.018": 0.0,
			"0.019": 0.0,
			"0.02": 0.0,
			"0.021": 0.0,
			"0.022": 0.0,
			"0.023": 0.0,
			"0.024": 0.0,
			"0.025": 0.0
		}
	}
}
