{
	 "smiles": "CC(C)NS(=O)(=O)C1=CN=C(NN)C=C1", 
	 "Tm": 415.15, 
	 "num_atms": 29, 
	 "gaussian": { 
		 "optdone": 1, 
		 "sigma_profile": "yes", 
		 "theory": "DFT", 
		 "functional": "B3LYP", 
		 "basiset": "6-31G**", 
		 "properties": { 
			 "R2extent": 4709.7248, 
			 "electric_dipole_moment_norm": 4.07648718016, 
			 "electric_quadrupole_moment_norm": 24.5708158782, 
			 "total_energy": -1080.83816587, 
			 "HOMO_LUMO_gap": 0.19201, 
			 "cosmo_polarized_energy": -18.67, 
			 "cosmo_cavitation_energy": 33.63, 
			 "cosmo_dispersion_energy": -24.19, 
			 "cosmo_repulsion_energy": 1.88, 
			 "cosmo_total_nonelectrostatic_energy": 11.32, 
			 "SMD_solvation_energy": 4.06 
		},
		"coords": [
			{
				"x": -0.002749929,
				"y": 3.8212242978,
				"z": 0.5272635918,
				"element": "C" 
			},
			{
				"x": 0.5360074859,
				"y": 2.4309201605,
				"z": 0.8732804092,
				"element": "C" 
			},
			{
				"x": 1.1481034918,
				"y": 1.7428917915,
				"z": -0.3485878946,
				"element": "C" 
			},
			{
				"x": -0.6020553605,
				"y": 1.6368742047,
				"z": 1.4055410913,
				"element": "N" 
			},
			{
				"x": -0.2831033498,
				"y": 0.2405224898,
				"z": 2.3129868653,
				"element": "S" 
			},
			{
				"x": -1.3983934906,
				"y": 0.1677911971,
				"z": 3.2648853656,
				"element": "O" 
			},
			{
				"x": 1.1113101225,
				"y": 0.2280131915,
				"z": 2.7785197863,
				"element": "O" 
			},
			{
				"x": -0.4409472843,
				"y": -1.0806136057,
				"z": 1.1291841851,
				"element": "C" 
			},
			{
				"x": -1.6090342255,
				"y": -1.2444883387,
				"z": 0.3870048548,
				"element": "C" 
			},
			{
				"x": -1.7978063599,
				"y": -2.2496720691,
				"z": -0.4709131617,
				"element": "N" 
			},
			{
				"x": -0.8098078783,
				"y": -3.1536263699,
				"z": -0.6072281006,
				"element": "C" 
			},
			{
				"x": -1.0394492482,
				"y": -4.1937523204,
				"z": -1.4712989056,
				"element": "N" 
			},
			{
				"x": -2.1471552435,
				"y": -4.2348341283,
				"z": -2.3379378854,
				"element": "N" 
			},
			{
				"x": 0.4123878049,
				"y": -3.0702629668,
				"z": 0.1039616125,
				"element": "C" 
			},
			{
				"x": 0.5904179756,
				"y": -2.0211133252,
				"z": 0.9831947564,
				"element": "C" 
			},
			{
				"x": -0.7888717711,
				"y": 3.7567766997,
				"z": -0.2322537274,
				"element": "H" 
			},
			{
				"x": -0.4149065337,
				"y": 4.3227383725,
				"z": 1.4102276919,
				"element": "H" 
			},
			{
				"x": 0.8031066739,
				"y": 4.4484317855,
				"z": 0.1353553188,
				"element": "H" 
			},
			{
				"x": 1.3100463773,
				"y": 2.5290509499,
				"z": 1.6457263964,
				"element": "H" 
			},
			{
				"x": 1.9652303923,
				"y": 2.3521713682,
				"z": -0.7478218569,
				"element": "H" 
			},
			{
				"x": 0.3962721579,
				"y": 1.6085355595,
				"z": -1.1328494504,
				"element": "H" 
			},
			{
				"x": 1.5596820363,
				"y": 0.7637510231,
				"z": -0.0918083488,
				"element": "H" 
			},
			{
				"x": -1.2265130468,
				"y": 2.1913785914,
				"z": 1.9882661082,
				"element": "H" 
			},
			{
				"x": -2.4225710236,
				"y": -0.5288636847,
				"z": 0.4784741428,
				"element": "H" 
			},
			{
				"x": -0.2527327514,
				"y": -4.7422778056,
				"z": -1.7837269797,
				"element": "H" 
			},
			{
				"x": -2.3177804177,
				"y": -3.2872835734,
				"z": -2.6769653375,
				"element": "H" 
			},
			{
				"x": -2.9659121372,
				"y": -4.4696870497,
				"z": -1.7782291062,
				"element": "H" 
			},
			{
				"x": 1.1842689082,
				"y": -3.8206480402,
				"z": -0.0378333599,
				"element": "H" 
			},
			{
				"x": 1.5045566245,
				"y": -1.9085484052,
				"z": 1.5561819386,
				"element": "H" 
			}
		],
		 "valence_orbital": [ 
			{
				"type": "occ",
				"energy": -0.29545,
				"method": "rhf"
			},
			{
				"type": "occ",
				"energy": -0.28482,
				"method": "rhf"
			},
			{
				"type": "occ",
				"energy": -0.27134,
				"method": "rhf"
			},
			{
				"type": "occ",
				"energy": -0.26896,
				"method": "rhf"
			},
			{
				"type": "occ",
				"energy": -0.22589,
				"method": "rhf"
			},
			{
				"type": "unocc",
				"energy": -0.03388,
				"method": "rhf"
			},
			{
				"type": "unocc",
				"energy": -0.02633,
				"method": "rhf"
			},
			{
				"type": "unocc",
				"energy": 0.06051,
				"method": "rhf"
			},
			{
				"type": "unocc",
				"energy": 0.07412,
				"method": "rhf"
			},
			{
				"type": "unocc",
				"energy": 0.08314,
				"method": "rhf"
			}
		],
		"cosmo_sigma_profile": { 
			"-0.025": 0.0,
			"-0.024": 0.0,
			"-0.023": 0.0,
			"-0.022": 0.0,
			"-0.021": 0.0,
			"-0.02": 0.0,
			"-0.019": 0.0,
			"-0.018": 0.0,
			"-0.017": 0.0,
			"-0.016": 0.0,
			"-0.015": 0.24541822688,
			"-0.014": 1.38630801214,
			"-0.013": 1.85149753218,
			"-0.012": 2.31728009673,
			"-0.011": 4.21951220622,
			"-0.01": 3.99786485259,
			"-0.009": 4.76537717115,
			"-0.008": 6.70464473509,
			"-0.007": 7.39293751761,
			"-0.006": 8.40229667887,
			"-0.005": 8.66438823675,
			"-0.004": 15.8855089759,
			"-0.003": 20.9814866022,
			"-0.002": 24.6857508208,
			"-0.001": 20.8727456955,
			"0.0": 25.1290299936,
			"0.001": 23.1209524259,
			"0.002": 14.5403041726,
			"0.003": 8.29217281138,
			"0.004": 7.87273589434,
			"0.005": 5.37704416335,
			"0.006": 5.77813869205,
			"0.007": 4.80480006162,
			"0.008": 5.21171471268,
			"0.009": 5.16828604826,
			"0.01": 6.44440480923,
			"0.011": 10.8208157269,
			"0.012": 6.93414472336,
			"0.013": 0.498683921813,
			"0.014": 0.887346932772,
			"0.015": 0.530027923204,
			"0.016": 0.675185634361,
			"0.017": 0.14002812614,
			"0.018": 0.0,
			"0.019": 0.0,
			"0.02": 0.0,
			"0.021": 0.0,
			"0.022": 0.0,
			"0.023": 0.0,
			"0.024": 0.0,
			"0.025": 0.0
		}
	}
}
