{
	 "smiles": "CC(C)(C)OC(=O)C(C(=O)CC1=CC=CC=C1)C1=CC=CC=C1", 
	 "Tm": 355.95, 
	 "num_atms": 45, 
	 "gaussian": { 
		 "optdone": 1, 
		 "sigma_profile": "yes", 
		 "theory": "DFT", 
		 "functional": "B3LYP", 
		 "basiset": "6-31G**", 
		 "properties": { 
			 "R2extent": 8380.3692, 
			 "electric_dipole_moment_norm": 1.49462996758, 
			 "electric_quadrupole_moment_norm": 14.4678373837, 
			 "total_energy": -1001.08397978, 
			 "HOMO_LUMO_gap": 0.19938, 
			 "cosmo_polarized_energy": -12.35, 
			 "cosmo_cavitation_energy": 47.35, 
			 "cosmo_dispersion_energy": -30.1, 
			 "cosmo_repulsion_energy": 2.29, 
			 "cosmo_total_nonelectrostatic_energy": 19.54, 
			 "SMD_solvation_energy": 8.9 
		},
		"coords": [
			{
				"x": -2.4648449022,
				"y": -0.1677076806,
				"z": -3.5351793141,
				"element": "C" 
			},
			{
				"x": -1.0011931867,
				"y": -0.3120170738,
				"z": -3.9613035973,
				"element": "C" 
			},
			{
				"x": -0.7748689898,
				"y": -1.5213674977,
				"z": -4.8732128417,
				"element": "C" 
			},
			{
				"x": -0.4901765512,
				"y": 0.9747070568,
				"z": -4.6122875122,
				"element": "C" 
			},
			{
				"x": -0.1324064725,
				"y": -0.4310790398,
				"z": -2.765494806,
				"element": "O" 
			},
			{
				"x": -0.2406425016,
				"y": -1.4479642081,
				"z": -1.8955018507,
				"element": "C" 
			},
			{
				"x": -1.0646428021,
				"y": -2.3366480832,
				"z": -1.9395018842,
				"element": "O" 
			},
			{
				"x": 0.8937522777,
				"y": -1.3348429749,
				"z": -0.8676042508,
				"element": "C" 
			},
			{
				"x": 1.165002668,
				"y": 0.1370791948,
				"z": -0.4765903571,
				"element": "C" 
			},
			{
				"x": 2.2547623165,
				"y": 0.6323492305,
				"z": -0.6800229488,
				"element": "O" 
			},
			{
				"x": 0.0568249268,
				"y": 0.9049861704,
				"z": 0.2508035716,
				"element": "C" 
			},
			{
				"x": -0.388950232,
				"y": 2.18463767,
				"z": -0.4389734373,
				"element": "C" 
			},
			{
				"x": -1.7560618989,
				"y": 2.4347172385,
				"z": -0.6171230879,
				"element": "C" 
			},
			{
				"x": -2.1966517146,
				"y": 3.6146421295,
				"z": -1.2209981444,
				"element": "C" 
			},
			{
				"x": -1.2712025334,
				"y": 4.5625009514,
				"z": -1.6592996688,
				"element": "C" 
			},
			{
				"x": 0.0936567015,
				"y": 4.3226285953,
				"z": -1.4831964822,
				"element": "C" 
			},
			{
				"x": 0.533564144,
				"y": 3.1467714758,
				"z": -0.873990731,
				"element": "C" 
			},
			{
				"x": 0.7604715287,
				"y": -2.192065737,
				"z": 0.382628886,
				"element": "C" 
			},
			{
				"x": 1.9399094327,
				"y": -2.583937557,
				"z": 1.034297793,
				"element": "C" 
			},
			{
				"x": 1.8942121278,
				"y": -3.3159176415,
				"z": 2.219884798,
				"element": "C" 
			},
			{
				"x": 0.662929342,
				"y": -3.6666207005,
				"z": 2.7767177127,
				"element": "C" 
			},
			{
				"x": -0.5157401263,
				"y": -3.2804474644,
				"z": 2.1376885994,
				"element": "C" 
			},
			{
				"x": -0.4710693117,
				"y": -2.5465133635,
				"z": 0.9508860396,
				"element": "C" 
			},
			{
				"x": -2.5766833782,
				"y": 0.6732031961,
				"z": -2.844918599,
				"element": "H" 
			},
			{
				"x": -3.0786615768,
				"y": 0.0346334486,
				"z": -4.4189870874,
				"element": "H" 
			},
			{
				"x": -2.8301868788,
				"y": -1.0772226739,
				"z": -3.057357808,
				"element": "H" 
			},
			{
				"x": 0.2873664254,
				"y": -1.6229530208,
				"z": -5.1163850031,
				"element": "H" 
			},
			{
				"x": -1.1220060582,
				"y": -2.4426212045,
				"z": -4.403591404,
				"element": "H" 
			},
			{
				"x": -1.3240479382,
				"y": -1.3778956179,
				"z": -5.8092551501,
				"element": "H" 
			},
			{
				"x": -1.0578573049,
				"y": 1.1803759802,
				"z": -5.5248443286,
				"element": "H" 
			},
			{
				"x": -0.602030323,
				"y": 1.8230868161,
				"z": -3.93196537,
				"element": "H" 
			},
			{
				"x": 0.5672294613,
				"y": 0.8802203843,
				"z": -4.8752651378,
				"element": "H" 
			},
			{
				"x": 1.7994812012,
				"y": -1.6354707485,
				"z": -1.4069454831,
				"element": "H" 
			},
			{
				"x": 0.4703700392,
				"y": 1.1474689267,
				"z": 1.239082734,
				"element": "H" 
			},
			{
				"x": -0.8056991204,
				"y": 0.2569776976,
				"z": 0.4258843731,
				"element": "H" 
			},
			{
				"x": -2.4834874164,
				"y": 1.7027726134,
				"z": -0.2741393813,
				"element": "H" 
			},
			{
				"x": -3.2613829404,
				"y": 3.7905205547,
				"z": -1.3470737527,
				"element": "H" 
			},
			{
				"x": -1.6096785383,
				"y": 5.4812396525,
				"z": -2.1297340957,
				"element": "H" 
			},
			{
				"x": 0.8216771432,
				"y": 5.0564045536,
				"z": -1.8180524195,
				"element": "H" 
			},
			{
				"x": 1.5937543113,
				"y": 2.9589679535,
				"z": -0.7448882109,
				"element": "H" 
			},
			{
				"x": 2.9006621604,
				"y": -2.3066627124,
				"z": 0.6077928057,
				"element": "H" 
			},
			{
				"x": 2.8191113728,
				"y": -3.6127148241,
				"z": 2.7060542423,
				"element": "H" 
			},
			{
				"x": 0.6228718264,
				"y": -4.2395251536,
				"z": 3.6986735177,
				"element": "H" 
			},
			{
				"x": -1.4783664002,
				"y": -3.5547976091,
				"z": 2.5598607326,
				"element": "H" 
			},
			{
				"x": -1.39387031,
				"y": -2.2803989032,
				"z": 0.4499283403,
				"element": "H" 
			}
		],
		 "valence_orbital": [ 
			{
				"type": "occ",
				"energy": -0.26071,
				"method": "rhf"
			},
			{
				"type": "occ",
				"energy": -0.25095,
				"method": "rhf"
			},
			{
				"type": "occ",
				"energy": -0.24947,
				"method": "rhf"
			},
			{
				"type": "occ",
				"energy": -0.24755,
				"method": "rhf"
			},
			{
				"type": "occ",
				"energy": -0.2313,
				"method": "rhf"
			},
			{
				"type": "unocc",
				"energy": -0.03192,
				"method": "rhf"
			},
			{
				"type": "unocc",
				"energy": -0.0083,
				"method": "rhf"
			},
			{
				"type": "unocc",
				"energy": -0.00407,
				"method": "rhf"
			},
			{
				"type": "unocc",
				"energy": -0.00117,
				"method": "rhf"
			},
			{
				"type": "unocc",
				"energy": 0.00537,
				"method": "rhf"
			}
		],
		"cosmo_sigma_profile": { 
			"-0.025": 0.0,
			"-0.024": 0.0,
			"-0.023": 0.0,
			"-0.022": 0.0,
			"-0.021": 0.0,
			"-0.02": 0.0,
			"-0.019": 0.0,
			"-0.018": 0.0,
			"-0.017": 0.0,
			"-0.016": 0.0,
			"-0.015": 0.0,
			"-0.014": 0.0,
			"-0.013": 0.0,
			"-0.012": 0.0,
			"-0.011": 0.0,
			"-0.01": 0.0,
			"-0.009": 0.0193090458378,
			"-0.008": 1.62904126277,
			"-0.007": 4.90626719994,
			"-0.006": 16.1951332225,
			"-0.005": 24.1776344232,
			"-0.004": 36.6541831863,
			"-0.003": 33.790594279,
			"-0.002": 32.6510029489,
			"-0.001": 32.5249267363,
			"0.0": 42.715337091,
			"0.001": 29.4377136863,
			"0.002": 20.4175498024,
			"0.003": 24.275172507,
			"0.004": 20.6259006925,
			"0.005": 19.6570889023,
			"0.006": 11.9083761568,
			"0.007": 3.12381516066,
			"0.008": 4.00592891534,
			"0.009": 3.35654991515,
			"0.01": 4.69209532407,
			"0.011": 5.38561930084,
			"0.012": 2.11822559967,
			"0.013": 0.0268534472901,
			"0.014": 0.0,
			"0.015": 0.0,
			"0.016": 0.0,
			"0.017": 0.0,
			"0.018": 0.0,
			"0.019": 0.0,
			"0.02": 0.0,
			"0.021": 0.0,
			"0.022": 0.0,
			"0.023": 0.0,
			"0.024": 0.0,
			"0.025": 0.0
		}
	}
}
