{
	 "smiles": "CC1=C(C=C(C=C1Br)C(O)=O)S(Cl)(=O)=O", 
	 "Tm": 457.15, 
	 "num_atms": 21, 
	 "gaussian": { 
		 "optdone": 1, 
		 "sigma_profile": "yes", 
		 "theory": "DFT", 
		 "functional": "B3LYP", 
		 "basiset": "6-31G**", 
		 "properties": { 
			 "R2extent": 6669.7082, 
			 "electric_dipole_moment_norm": 2.30550859031, 
			 "electric_quadrupole_moment_norm": 24.4614316903, 
			 "total_energy": -4039.08299253, 
			 "HOMO_LUMO_gap": 0.17668, 
			 "cosmo_polarized_energy": -16.39, 
			 "cosmo_cavitation_energy": 31.16, 
			 "cosmo_dispersion_energy": -23.41, 
			 "cosmo_repulsion_energy": 1.78, 
			 "cosmo_total_nonelectrostatic_energy": 9.52, 
			 "SMD_solvation_energy": 4.26 
		},
		"coords": [
			{
				"x": 3.1412111457,
				"y": -0.9331636413,
				"z": 0.7378156244,
				"element": "C" 
			},
			{
				"x": 2.0681398841,
				"y": -0.5048968814,
				"z": -0.2275445036,
				"element": "C" 
			},
			{
				"x": 0.813263304,
				"y": 0.0170942458,
				"z": 0.1437154161,
				"element": "C" 
			},
			{
				"x": -0.1562547343,
				"y": 0.421687231,
				"z": -0.776337456,
				"element": "C" 
			},
			{
				"x": 0.0997521484,
				"y": 0.3007515511,
				"z": -2.1414991964,
				"element": "C" 
			},
			{
				"x": 1.3381868254,
				"y": -0.1977105487,
				"z": -2.5565698265,
				"element": "C" 
			},
			{
				"x": 2.2838860012,
				"y": -0.5924926496,
				"z": -1.6188682947,
				"element": "C" 
			},
			{
				"x": 3.9393108972,
				"y": -1.2742285459,
				"z": -2.2799555133,
				"element": "Br" 
			},
			{
				"x": -0.8710206658,
				"y": 0.720375637,
				"z": -3.2116960694,
				"element": "C" 
			},
			{
				"x": -2.1672212179,
				"y": 0.8670733859,
				"z": -2.8489379444,
				"element": "O" 
			},
			{
				"x": -0.5258299434,
				"y": 0.9248803027,
				"z": -4.3501748101,
				"element": "O" 
			},
			{
				"x": 0.3049276051,
				"y": 0.1907298863,
				"z": 1.8690125242,
				"element": "S" 
			},
			{
				"x": 1.5466194288,
				"y": 1.7863856699,
				"z": 2.5239115464,
				"element": "Cl" 
			},
			{
				"x": 0.6879800621,
				"y": -0.9850224777,
				"z": 2.6403630183,
				"element": "O" 
			},
			{
				"x": -1.0611337823,
				"y": 0.6997341372,
				"z": 1.8951835861,
				"element": "O" 
			},
			{
				"x": 2.8499670188,
				"y": -0.8223213434,
				"z": 1.777730733,
				"element": "H" 
			},
			{
				"x": 3.3947363177,
				"y": -1.9838910134,
				"z": 0.5643248998,
				"element": "H" 
			},
			{
				"x": 4.052100114,
				"y": -0.3540423054,
				"z": 0.5565143186,
				"element": "H" 
			},
			{
				"x": -1.0766840248,
				"y": 0.850528864,
				"z": -0.3965361542,
				"element": "H" 
			},
			{
				"x": 1.5440986857,
				"y": -0.2655855931,
				"z": -3.6180327589,
				"element": "H" 
			},
			{
				"x": -2.3278350697,
				"y": 0.5201140891,
				"z": -1.9605191394,
				"element": "H" 
			}
		],
		 "valence_orbital": [ 
			{
				"type": "occ",
				"energy": -0.33111,
				"method": "rhf"
			},
			{
				"type": "occ",
				"energy": -0.31635,
				"method": "rhf"
			},
			{
				"type": "occ",
				"energy": -0.30657,
				"method": "rhf"
			},
			{
				"type": "occ",
				"energy": -0.29512,
				"method": "rhf"
			},
			{
				"type": "occ",
				"energy": -0.2842,
				"method": "rhf"
			},
			{
				"type": "unocc",
				"energy": -0.10752,
				"method": "rhf"
			},
			{
				"type": "unocc",
				"energy": -0.0839,
				"method": "rhf"
			},
			{
				"type": "unocc",
				"energy": -0.06774,
				"method": "rhf"
			},
			{
				"type": "unocc",
				"energy": -0.02583,
				"method": "rhf"
			},
			{
				"type": "unocc",
				"energy": 0.00483,
				"method": "rhf"
			}
		],
		"cosmo_sigma_profile": { 
			"-0.025": 0.0,
			"-0.024": 0.0,
			"-0.023": 0.0,
			"-0.022": 0.0,
			"-0.021": 0.0682436806239,
			"-0.02": 0.914875526308,
			"-0.019": 1.02782579781,
			"-0.018": 0.816176677699,
			"-0.017": 1.0818493071,
			"-0.016": 0.749419637682,
			"-0.015": 1.34937205067,
			"-0.014": 1.12374394669,
			"-0.013": 0.853919069412,
			"-0.012": 0.897936996356,
			"-0.011": 1.10274065926,
			"-0.01": 1.01424535436,
			"-0.009": 1.6019536238,
			"-0.008": 2.28251680957,
			"-0.007": 4.35811682962,
			"-0.006": 9.55302851295,
			"-0.005": 12.6454735755,
			"-0.004": 14.9743826887,
			"-0.003": 22.5104930594,
			"-0.002": 27.4599417024,
			"-0.001": 20.2702417769,
			"0.0": 14.5738604985,
			"0.001": 17.0575318473,
			"0.002": 20.1977540172,
			"0.003": 20.2434470531,
			"0.004": 7.77032750519,
			"0.005": 4.77261752052,
			"0.006": 6.93860626403,
			"0.007": 9.78316622514,
			"0.008": 10.4637363947,
			"0.009": 5.78085551919,
			"0.01": 4.83446617517,
			"0.011": 4.9973064667,
			"0.012": 1.88761987055,
			"0.013": 0.184513506918,
			"0.014": 0.0,
			"0.015": 0.0,
			"0.016": 0.0,
			"0.017": 0.0,
			"0.018": 0.0,
			"0.019": 0.0,
			"0.02": 0.0,
			"0.021": 0.0,
			"0.022": 0.0,
			"0.023": 0.0,
			"0.024": 0.0,
			"0.025": 0.0
		}
	}
}
