{
	 "smiles": "CC1CNC2=C(O1)N=CC=C2", 
	 "Tm": 406.15, 
	 "num_atms": 21, 
	 "gaussian": { 
		 "optdone": 1, 
		 "sigma_profile": "yes", 
		 "theory": "DFT", 
		 "functional": "B3LYP", 
		 "basiset": "6-31G**", 
		 "properties": { 
			 "R2extent": 1995.9433, 
			 "electric_dipole_moment_norm": 4.15477321403, 
			 "electric_quadrupole_moment_norm": 12.2878447219, 
			 "total_energy": -495.599845041, 
			 "HOMO_LUMO_gap": 0.18969, 
			 "cosmo_polarized_energy": -12.81, 
			 "cosmo_cavitation_energy": 23.38, 
			 "cosmo_dispersion_energy": -17.84, 
			 "cosmo_repulsion_energy": 1.43, 
			 "cosmo_total_nonelectrostatic_energy": 6.96, 
			 "SMD_solvation_energy": 1.76 
		},
		"coords": [
			{
				"x": 2.6973180319,
				"y": 1.0108221311,
				"z": 1.2727943872,
				"element": "C" 
			},
			{
				"x": 2.7406484525,
				"y": -0.1159554075,
				"z": 0.242635187,
				"element": "C" 
			},
			{
				"x": 2.0365533914,
				"y": 0.2238402001,
				"z": -1.0760515865,
				"element": "C" 
			},
			{
				"x": 0.6149344223,
				"y": 0.386950621,
				"z": -0.8062205688,
				"element": "N" 
			},
			{
				"x": 0.0244510443,
				"y": -0.6535839429,
				"z": -0.0809225326,
				"element": "C" 
			},
			{
				"x": 0.8319274889,
				"y": -1.4859731502,
				"z": 0.7359790403,
				"element": "C" 
			},
			{
				"x": 2.1895812428,
				"y": -1.3258222717,
				"z": 0.795215313,
				"element": "O" 
			},
			{
				"x": 0.3566684728,
				"y": -2.4783056353,
				"z": 1.4675423029,
				"element": "N" 
			},
			{
				"x": -0.9645670908,
				"y": -2.7098971772,
				"z": 1.4477490489,
				"element": "C" 
			},
			{
				"x": -1.8556859151,
				"y": -1.9505021136,
				"z": 0.6967453597,
				"element": "C" 
			},
			{
				"x": -1.3466487713,
				"y": -0.9081313327,
				"z": -0.0812311634,
				"element": "C" 
			},
			{
				"x": 3.1552666186,
				"y": 0.6761554862,
				"z": 2.2070169736,
				"element": "H" 
			},
			{
				"x": 3.2510194874,
				"y": 1.882308717,
				"z": 0.9069579993,
				"element": "H" 
			},
			{
				"x": 1.6685561461,
				"y": 1.318700868,
				"z": 1.4753713511,
				"element": "H" 
			},
			{
				"x": 3.782246428,
				"y": -0.3732779735,
				"z": 0.0243012165,
				"element": "H" 
			},
			{
				"x": 2.4369772546,
				"y": 1.1582658797,
				"z": -1.4814774354,
				"element": "H" 
			},
			{
				"x": 2.2423461002,
				"y": -0.5797724808,
				"z": -1.8016912089,
				"element": "H" 
			},
			{
				"x": 0.0653805894,
				"y": 0.7084315079,
				"z": -1.5927547021,
				"element": "H" 
			},
			{
				"x": -1.3138191459,
				"y": -3.5370741719,
				"z": 2.0617708652,
				"element": "H" 
			},
			{
				"x": -2.9189527427,
				"y": -2.1663081911,
				"z": 0.7105713236,
				"element": "H" 
			},
			{
				"x": -2.0052015054,
				"y": -0.2926715626,
				"z": -0.6901011707,
				"element": "H" 
			}
		],
		 "valence_orbital": [ 
			{
				"type": "occ",
				"energy": -0.31418,
				"method": "rhf"
			},
			{
				"type": "occ",
				"energy": -0.31181,
				"method": "rhf"
			},
			{
				"type": "occ",
				"energy": -0.24934,
				"method": "rhf"
			},
			{
				"type": "occ",
				"energy": -0.24776,
				"method": "rhf"
			},
			{
				"type": "occ",
				"energy": -0.19619,
				"method": "rhf"
			},
			{
				"type": "unocc",
				"energy": -0.0065,
				"method": "rhf"
			},
			{
				"type": "unocc",
				"energy": 0.01782,
				"method": "rhf"
			},
			{
				"type": "unocc",
				"energy": 0.07106,
				"method": "rhf"
			},
			{
				"type": "unocc",
				"energy": 0.10344,
				"method": "rhf"
			},
			{
				"type": "unocc",
				"energy": 0.11102,
				"method": "rhf"
			}
		],
		"cosmo_sigma_profile": { 
			"-0.025": 0.0,
			"-0.024": 0.0,
			"-0.023": 0.0,
			"-0.022": 0.0,
			"-0.021": 0.0,
			"-0.02": 0.0,
			"-0.019": 0.0,
			"-0.018": 0.0,
			"-0.017": 0.0,
			"-0.016": 0.0,
			"-0.015": 0.0,
			"-0.014": 0.000288893587316,
			"-0.013": 1.22368378533,
			"-0.012": 1.3044554956,
			"-0.011": 1.62615487353,
			"-0.01": 1.35783117621,
			"-0.009": 1.4633367855,
			"-0.008": 2.15499725842,
			"-0.007": 2.487226067,
			"-0.006": 8.93374749019,
			"-0.005": 15.6815039707,
			"-0.004": 18.8891811531,
			"-0.003": 17.3940031509,
			"-0.002": 13.9456682481,
			"-0.001": 11.613231582,
			"0.0": 13.1212020036,
			"0.001": 10.7257532161,
			"0.002": 7.97759788391,
			"0.003": 9.54774802215,
			"0.004": 11.9285344105,
			"0.005": 7.3714379694,
			"0.006": 3.41270122419,
			"0.007": 3.04437415705,
			"0.008": 2.91304639197,
			"0.009": 2.51075221842,
			"0.01": 2.6019799598,
			"0.011": 1.59561991537,
			"0.012": 2.56659472613,
			"0.013": 2.30503243152,
			"0.014": 1.75122712384,
			"0.015": 0.868877413657,
			"0.016": 1.52415353311,
			"0.017": 0.789518165358,
			"0.018": 0.067732641876,
			"0.019": 0.0,
			"0.02": 0.0,
			"0.021": 0.0,
			"0.022": 0.0,
			"0.023": 0.0,
			"0.024": 0.0,
			"0.025": 0.0
		}
	}
}
