{
	 "smiles": "CCC1=CC=CC2=C1C=CC=C2", 
	 "Tm": 259.25, 
	 "num_atms": 24, 
	 "gaussian": { 
		 "optdone": 1, 
		 "sigma_profile": "yes", 
		 "theory": "DFT", 
		 "functional": "B3LYP", 
		 "basiset": "6-31G**", 
		 "properties": { 
			 "R2extent": 2098.9805, 
			 "electric_dipole_moment_norm": 0.289222371196, 
			 "electric_quadrupole_moment_norm": 7.63288224133, 
			 "total_energy": -464.530050015, 
			 "HOMO_LUMO_gap": 0.17384, 
			 "cosmo_polarized_energy": -4.37, 
			 "cosmo_cavitation_energy": 26.27, 
			 "cosmo_dispersion_energy": -19.36, 
			 "cosmo_repulsion_energy": 1.52, 
			 "cosmo_total_nonelectrostatic_energy": 8.43, 
			 "SMD_solvation_energy": 4.16 
		},
		"coords": [
			{
				"x": -0.9553577223,
				"y": 2.7500898385,
				"z": -2.4014025687,
				"element": "C" 
			},
			{
				"x": -1.4590374118,
				"y": 1.2955967177,
				"z": -2.3376220486,
				"element": "C" 
			},
			{
				"x": -1.2036092996,
				"y": 0.6263460316,
				"z": -1.001716594,
				"element": "C" 
			},
			{
				"x": -2.2237477094,
				"y": 0.5458425147,
				"z": -0.0725506601,
				"element": "C" 
			},
			{
				"x": -2.0315369916,
				"y": -0.0337954346,
				"z": 1.2033500169,
				"element": "C" 
			},
			{
				"x": -0.80345811,
				"y": -0.542526002,
				"z": 1.5516354131,
				"element": "C" 
			},
			{
				"x": 0.2806715195,
				"y": -0.4939818938,
				"z": 0.6348965297,
				"element": "C" 
			},
			{
				"x": 0.0862481098,
				"y": 0.0965582338,
				"z": -0.659949617,
				"element": "C" 
			},
			{
				"x": 1.1939717374,
				"y": 0.121081736,
				"z": -1.5539144327,
				"element": "C" 
			},
			{
				"x": 2.4175820413,
				"y": -0.4003327268,
				"z": -1.1946901608,
				"element": "C" 
			},
			{
				"x": 2.6040314963,
				"y": -0.977322679,
				"z": 0.0834402218,
				"element": "C" 
			},
			{
				"x": 1.5559577129,
				"y": -1.0220504373,
				"z": 0.973757119,
				"element": "C" 
			},
			{
				"x": 0.1232749901,
				"y": 2.8090335507,
				"z": -2.2276279615,
				"element": "H" 
			},
			{
				"x": -1.1665280547,
				"y": 3.1929690531,
				"z": -3.3805327883,
				"element": "H" 
			},
			{
				"x": -1.4458319459,
				"y": 3.3626724837,
				"z": -1.638336706,
				"element": "H" 
			},
			{
				"x": -2.5374649471,
				"y": 1.2858937544,
				"z": -2.5313241868,
				"element": "H" 
			},
			{
				"x": -1.0030006671,
				"y": 0.7149723842,
				"z": -3.1482639894,
				"element": "H" 
			},
			{
				"x": -3.2040594816,
				"y": 0.9399393978,
				"z": -0.3299912894,
				"element": "H" 
			},
			{
				"x": -2.8616613835,
				"y": -0.0753080457,
				"z": 1.9028310104,
				"element": "H" 
			},
			{
				"x": -0.6440299076,
				"y": -0.9910032149,
				"z": 2.5288755867,
				"element": "H" 
			},
			{
				"x": 1.0739488238,
				"y": 0.5574644288,
				"z": -2.5395875573,
				"element": "H" 
			},
			{
				"x": 3.245722939,
				"y": -0.3696586883,
				"z": -1.8970909464,
				"element": "H" 
			},
			{
				"x": 3.5729908137,
				"y": -1.3851285411,
				"z": 0.3566644479,
				"element": "H" 
			},
			{
				"x": 1.6879234483,
				"y": -1.4661524615,
				"z": 1.9573511615,
				"element": "H" 
			}
		],
		 "valence_orbital": [ 
			{
				"type": "occ",
				"energy": -0.3186,
				"method": "rhf"
			},
			{
				"type": "occ",
				"energy": -0.31591,
				"method": "rhf"
			},
			{
				"type": "occ",
				"energy": -0.27306,
				"method": "rhf"
			},
			{
				"type": "occ",
				"energy": -0.23857,
				"method": "rhf"
			},
			{
				"type": "occ",
				"energy": -0.20837,
				"method": "rhf"
			},
			{
				"type": "unocc",
				"energy": -0.03453,
				"method": "rhf"
			},
			{
				"type": "unocc",
				"energy": -0.00465,
				"method": "rhf"
			},
			{
				"type": "unocc",
				"energy": 0.03574,
				"method": "rhf"
			},
			{
				"type": "unocc",
				"energy": 0.09147,
				"method": "rhf"
			},
			{
				"type": "unocc",
				"energy": 0.10057,
				"method": "rhf"
			}
		],
		"cosmo_sigma_profile": { 
			"-0.025": 0.0,
			"-0.024": 0.0,
			"-0.023": 0.0,
			"-0.022": 0.0,
			"-0.021": 0.0,
			"-0.02": 0.0,
			"-0.019": 0.0,
			"-0.018": 0.0,
			"-0.017": 0.0,
			"-0.016": 0.0,
			"-0.015": 0.0,
			"-0.014": 0.0,
			"-0.013": 0.0,
			"-0.012": 0.0,
			"-0.011": 0.0,
			"-0.01": 0.0,
			"-0.009": 0.0,
			"-0.008": 0.0,
			"-0.007": 0.0,
			"-0.006": 4.38287139909,
			"-0.005": 15.3881817572,
			"-0.004": 18.5002501576,
			"-0.003": 22.1738721693,
			"-0.002": 18.5890789703,
			"-0.001": 21.9473701194,
			"0.0": 17.9491780558,
			"0.001": 18.9138639316,
			"0.002": 12.9426943102,
			"0.003": 11.7259422752,
			"0.004": 17.3289316618,
			"0.005": 20.7737465365,
			"0.006": 8.07648588707,
			"0.007": 0.0,
			"0.008": 0.0,
			"0.009": 0.0,
			"0.01": 0.0,
			"0.011": 0.0,
			"0.012": 0.0,
			"0.013": 0.0,
			"0.014": 0.0,
			"0.015": 0.0,
			"0.016": 0.0,
			"0.017": 0.0,
			"0.018": 0.0,
			"0.019": 0.0,
			"0.02": 0.0,
			"0.021": 0.0,
			"0.022": 0.0,
			"0.023": 0.0,
			"0.024": 0.0,
			"0.025": 0.0
		}
	}
}
