{
	 "smiles": "CC1=C(N2C=CSC2=N1)C(O)=O", 
	 "Tm": 437.15, 
	 "num_atms": 18, 
	 "gaussian": { 
		 "optdone": 1, 
		 "sigma_profile": "yes", 
		 "theory": "DFT", 
		 "functional": "B3LYP", 
		 "basiset": "6-31G**", 
		 "properties": { 
			 "R2extent": 2869.8445, 
			 "electric_dipole_moment_norm": 3.88915794742, 
			 "electric_quadrupole_moment_norm": 1.83001145898, 
			 "total_energy": -928.499957657, 
			 "HOMO_LUMO_gap": 0.1876, 
			 "cosmo_polarized_energy": -12.3, 
			 "cosmo_cavitation_energy": 24.3, 
			 "cosmo_dispersion_energy": -18.73, 
			 "cosmo_repulsion_energy": 1.42, 
			 "cosmo_total_nonelectrostatic_energy": 7.0, 
			 "SMD_solvation_energy": 3.84 
		},
		"coords": [
			{
				"x": 3.2610050285,
				"y": 0.460161958,
				"z": -2.7195661198,
				"element": "C" 
			},
			{
				"x": 1.9496036477,
				"y": 0.7371035151,
				"z": -2.0581563468,
				"element": "C" 
			},
			{
				"x": 1.4169318149,
				"y": 0.1042848971,
				"z": -0.9290264114,
				"element": "C" 
			},
			{
				"x": 0.1804123052,
				"y": 0.7252713821,
				"z": -0.7207463502,
				"element": "N" 
			},
			{
				"x": -0.8988286726,
				"y": 0.6673108597,
				"z": 0.1538014062,
				"element": "C" 
			},
			{
				"x": -1.8561465178,
				"y": 1.5662727683,
				"z": -0.1678450174,
				"element": "C" 
			},
			{
				"x": -1.4452299032,
				"y": 2.5283799554,
				"z": -1.5861743093,
				"element": "S" 
			},
			{
				"x": 0.0649394905,
				"y": 1.662159177,
				"z": -1.7161103248,
				"element": "C" 
			},
			{
				"x": 1.101311565,
				"y": 1.7001316552,
				"z": -2.5354033892,
				"element": "N" 
			},
			{
				"x": 1.9814200493,
				"y": -0.9574705298,
				"z": -0.1255731626,
				"element": "C" 
			},
			{
				"x": 1.1707747586,
				"y": -1.3293430192,
				"z": 0.9120734305,
				"element": "O" 
			},
			{
				"x": 3.060942908,
				"y": -1.4867141363,
				"z": -0.3208363743,
				"element": "O" 
			},
			{
				"x": 4.0929175917,
				"y": 0.609689344,
				"z": -2.0244379274,
				"element": "H" 
			},
			{
				"x": 3.3796216753,
				"y": 1.1256211377,
				"z": -3.5762718767,
				"element": "H" 
			},
			{
				"x": 3.3219422987,
				"y": -0.5797174464,
				"z": -3.0550942878,
				"element": "H" 
			},
			{
				"x": -0.8900915784,
				"y": -0.0421264171,
				"z": 0.9663527825,
				"element": "H" 
			},
			{
				"x": -2.7923056314,
				"y": 1.7291808876,
				"z": 0.3445578489,
				"element": "H" 
			},
			{
				"x": 1.6501791701,
				"y": -2.0376959885,
				"z": 1.3722564296,
				"element": "H" 
			}
		],
		 "valence_orbital": [ 
			{
				"type": "occ",
				"energy": -0.32021,
				"method": "rhf"
			},
			{
				"type": "occ",
				"energy": -0.28774,
				"method": "rhf"
			},
			{
				"type": "occ",
				"energy": -0.27918,
				"method": "rhf"
			},
			{
				"type": "occ",
				"energy": -0.24185,
				"method": "rhf"
			},
			{
				"type": "occ",
				"energy": -0.22921,
				"method": "rhf"
			},
			{
				"type": "unocc",
				"energy": -0.04161,
				"method": "rhf"
			},
			{
				"type": "unocc",
				"energy": -0.00216,
				"method": "rhf"
			},
			{
				"type": "unocc",
				"energy": 0.00149,
				"method": "rhf"
			},
			{
				"type": "unocc",
				"energy": 0.04366,
				"method": "rhf"
			},
			{
				"type": "unocc",
				"energy": 0.07029,
				"method": "rhf"
			}
		],
		"cosmo_sigma_profile": { 
			"-0.025": 0.0,
			"-0.024": 0.0,
			"-0.023": 0.0,
			"-0.022": 0.0,
			"-0.021": 0.0,
			"-0.02": 0.0,
			"-0.019": 0.0248196805481,
			"-0.018": 0.640246175187,
			"-0.017": 1.11264842889,
			"-0.016": 0.757148042472,
			"-0.015": 0.624114467245,
			"-0.014": 0.55941384675,
			"-0.013": 0.786025493147,
			"-0.012": 0.794564397442,
			"-0.011": 1.36668090021,
			"-0.01": 2.78525337287,
			"-0.009": 2.9927024076,
			"-0.008": 3.78810206807,
			"-0.007": 4.17668151959,
			"-0.006": 4.5771576726,
			"-0.005": 5.28039258872,
			"-0.004": 8.26034830185,
			"-0.003": 10.914578491,
			"-0.002": 19.3080745567,
			"-0.001": 24.6540481561,
			"0.0": 25.1685180016,
			"0.001": 18.6403622384,
			"0.002": 14.0463073693,
			"0.003": 9.15940086968,
			"0.004": 5.35762097529,
			"0.005": 4.78893042111,
			"0.006": 3.209167302,
			"0.007": 1.7093571516,
			"0.008": 3.26750712226,
			"0.009": 3.22713844481,
			"0.01": 2.18719292726,
			"0.011": 3.626805255,
			"0.012": 5.79268510003,
			"0.013": 1.4779747326,
			"0.014": 1.22309045851,
			"0.015": 0.527490936581,
			"0.016": 0.630838536956,
			"0.017": 0.00467404308267,
			"0.018": 0.0,
			"0.019": 0.0,
			"0.02": 0.0,
			"0.021": 0.0,
			"0.022": 0.0,
			"0.023": 0.0,
			"0.024": 0.0,
			"0.025": 0.0
		}
	}
}
