{
	 "smiles": "OC(=O)CNC1=NS(=O)(=O)C2=C1C=CC=C2", 
	 "Tm": 434.15, 
	 "num_atms": 24, 
	 "gaussian": { 
		 "optdone": 1, 
		 "sigma_profile": "yes", 
		 "theory": "DFT", 
		 "functional": "B3LYP", 
		 "basiset": "6-31G**", 
		 "properties": { 
			 "R2extent": 4607.8728, 
			 "electric_dipole_moment_norm": 7.52990353856, 
			 "electric_quadrupole_moment_norm": 29.3359800671, 
			 "total_energy": -1156.30785862, 
			 "HOMO_LUMO_gap": 0.18398, 
			 "cosmo_polarized_energy": -27.26, 
			 "cosmo_cavitation_energy": 30.89, 
			 "cosmo_dispersion_energy": -23.19, 
			 "cosmo_repulsion_energy": 1.77, 
			 "cosmo_total_nonelectrostatic_energy": 9.47, 
			 "SMD_solvation_energy": 3.87 
		},
		"coords": [
			{
				"x": -3.7328803385,
				"y": -1.0767266815,
				"z": 3.6709910187,
				"element": "O" 
			},
			{
				"x": -3.0101169431,
				"y": -1.3747941946,
				"z": 2.5804756859,
				"element": "C" 
			},
			{
				"x": -3.1604058569,
				"y": -2.381097795,
				"z": 1.9193648917,
				"element": "O" 
			},
			{
				"x": -1.9863318546,
				"y": -0.3012834293,
				"z": 2.2788823141,
				"element": "C" 
			},
			{
				"x": -1.2519133341,
				"y": -0.6924584776,
				"z": 1.0985142761,
				"element": "N" 
			},
			{
				"x": -0.2688107909,
				"y": 0.0654395919,
				"z": 0.5818536045,
				"element": "C" 
			},
			{
				"x": 0.0679066304,
				"y": 1.2012900376,
				"z": 1.1331995789,
				"element": "N" 
			},
			{
				"x": 1.3276725897,
				"y": 1.9139605911,
				"z": 0.2559905847,
				"element": "S" 
			},
			{
				"x": 2.5442439391,
				"y": 1.9432753835,
				"z": 1.069330409,
				"element": "O" 
			},
			{
				"x": 0.8557191246,
				"y": 3.1453145393,
				"z": -0.3792105387,
				"element": "O" 
			},
			{
				"x": 1.4301339013,
				"y": 0.587527644,
				"z": -0.9648433074,
				"element": "C" 
			},
			{
				"x": 0.4703686409,
				"y": -0.3675003342,
				"z": -0.6396679996,
				"element": "C" 
			},
			{
				"x": 0.3278931438,
				"y": -1.511176908,
				"z": -1.4241366644,
				"element": "C" 
			},
			{
				"x": 1.1682271382,
				"y": -1.6645357214,
				"z": -2.531297547,
				"element": "C" 
			},
			{
				"x": 2.1278779146,
				"y": -0.6956950721,
				"z": -2.8449263876,
				"element": "C" 
			},
			{
				"x": 2.2713064242,
				"y": 0.4529835313,
				"z": -2.057531969,
				"element": "C" 
			},
			{
				"x": -4.3648466471,
				"y": -1.8037071694,
				"z": 3.8033839578,
				"element": "H" 
			},
			{
				"x": -2.4926440373,
				"y": 0.6620993367,
				"z": 2.1375649499,
				"element": "H" 
			},
			{
				"x": -1.321541312,
				"y": -0.1721337698,
				"z": 3.1423876972,
				"element": "H" 
			},
			{
				"x": -1.5216701286,
				"y": -1.5731791852,
				"z": 0.6811816713,
				"element": "H" 
			},
			{
				"x": -0.4115150146,
				"y": -2.2736512626,
				"z": -1.1959256176,
				"element": "H" 
			},
			{
				"x": 1.0739679738,
				"y": -2.5476631031,
				"z": -3.1554136047,
				"element": "H" 
			},
			{
				"x": 2.7691991052,
				"y": -0.8364675815,
				"z": -3.7095951295,
				"element": "H" 
			},
			{
				"x": 3.0128597317,
				"y": 1.2088800298,
				"z": -2.2938718743,
				"element": "H" 
			}
		],
		 "valence_orbital": [ 
			{
				"type": "occ",
				"energy": -0.30865,
				"method": "rhf"
			},
			{
				"type": "occ",
				"energy": -0.28643,
				"method": "rhf"
			},
			{
				"type": "occ",
				"energy": -0.28404,
				"method": "rhf"
			},
			{
				"type": "occ",
				"energy": -0.27204,
				"method": "rhf"
			},
			{
				"type": "occ",
				"energy": -0.25237,
				"method": "rhf"
			},
			{
				"type": "unocc",
				"energy": -0.06839,
				"method": "rhf"
			},
			{
				"type": "unocc",
				"energy": -0.04147,
				"method": "rhf"
			},
			{
				"type": "unocc",
				"energy": -0.02292,
				"method": "rhf"
			},
			{
				"type": "unocc",
				"energy": 0.03134,
				"method": "rhf"
			},
			{
				"type": "unocc",
				"energy": 0.05042,
				"method": "rhf"
			}
		],
		"cosmo_sigma_profile": { 
			"-0.025": 0.0,
			"-0.024": 0.0,
			"-0.023": 0.0,
			"-0.022": 0.0,
			"-0.021": 0.0,
			"-0.02": 0.104029599573,
			"-0.019": 0.786977239738,
			"-0.018": 1.37764327734,
			"-0.017": 0.57458500575,
			"-0.016": 0.657615332002,
			"-0.015": 0.988674447679,
			"-0.014": 1.48986168865,
			"-0.013": 1.58710336617,
			"-0.012": 2.49746765625,
			"-0.011": 2.06412731732,
			"-0.01": 2.24459310959,
			"-0.009": 5.20612668211,
			"-0.008": 11.6765480614,
			"-0.007": 15.9876321608,
			"-0.006": 14.3841404433,
			"-0.005": 11.0980501057,
			"-0.004": 15.2302502942,
			"-0.003": 12.787761836,
			"-0.002": 12.3682829097,
			"-0.001": 12.0513164265,
			"0.0": 13.3569862156,
			"0.001": 16.300511256,
			"0.002": 14.1029389895,
			"0.003": 4.72176828967,
			"0.004": 4.94005595864,
			"0.005": 4.65326861476,
			"0.006": 5.56004953584,
			"0.007": 6.06102516666,
			"0.008": 7.72538528165,
			"0.009": 6.82426466548,
			"0.01": 13.572296915,
			"0.011": 18.8240931791,
			"0.012": 5.96418589052,
			"0.013": 0.156548520711,
			"0.014": 0.0,
			"0.015": 0.0,
			"0.016": 0.0,
			"0.017": 0.0,
			"0.018": 0.0,
			"0.019": 0.0,
			"0.02": 0.0,
			"0.021": 0.0,
			"0.022": 0.0,
			"0.023": 0.0,
			"0.024": 0.0,
			"0.025": 0.0
		}
	}
}
