{
	 "smiles": "CC1=C(CO)C(=O)NC(=O)N1", 
	 "Tm": 600.15, 
	 "num_atms": 19, 
	 "gaussian": { 
		 "optdone": 1, 
		 "sigma_profile": "yes", 
		 "theory": "DFT", 
		 "functional": "B3LYP", 
		 "basiset": "6-31G**", 
		 "properties": { 
			 "R2extent": 2248.1301, 
			 "electric_dipole_moment_norm": 4.54791158445, 
			 "electric_quadrupole_moment_norm": 4.11219955863, 
			 "total_energy": -568.667020385, 
			 "HOMO_LUMO_gap": 0.20122, 
			 "cosmo_polarized_energy": -19.89, 
			 "cosmo_cavitation_energy": 23.03, 
			 "cosmo_dispersion_energy": -17.29, 
			 "cosmo_repulsion_energy": 1.41, 
			 "cosmo_total_nonelectrostatic_energy": 7.16, 
			 "SMD_solvation_energy": 5.82 
		},
		"coords": [
			{
				"x": 0.9081734425,
				"y": 0.82901832,
				"z": -0.5605474719,
				"element": "C" 
			},
			{
				"x": 0.0811659069,
				"y": -0.1350029857,
				"z": 0.2426795388,
				"element": "C" 
			},
			{
				"x": 0.2646833495,
				"y": -1.4846318713,
				"z": 0.2630839009,
				"element": "C" 
			},
			{
				"x": 1.3533296577,
				"y": -2.1837530383,
				"z": -0.5065966795,
				"element": "C" 
			},
			{
				"x": 2.6313257829,
				"y": -1.6982952629,
				"z": -0.0771936912,
				"element": "O" 
			},
			{
				"x": -0.6193652496,
				"y": -2.3185274576,
				"z": 1.0828534789,
				"element": "C" 
			},
			{
				"x": -0.5595501186,
				"y": -3.5370349447,
				"z": 1.1821816744,
				"element": "O" 
			},
			{
				"x": -1.6103618679,
				"y": -1.6103052421,
				"z": 1.7859729483,
				"element": "N" 
			},
			{
				"x": -1.8312086309,
				"y": -0.2465028635,
				"z": 1.7917044373,
				"element": "C" 
			},
			{
				"x": -2.7080161897,
				"y": 0.3085657662,
				"z": 2.4294558275,
				"element": "O" 
			},
			{
				"x": -0.9356786245,
				"y": 0.4425898571,
				"z": 0.9803909604,
				"element": "N" 
			},
			{
				"x": 1.1588068308,
				"y": 1.7109706,
				"z": 0.0392939267,
				"element": "H" 
			},
			{
				"x": 0.3492635058,
				"y": 1.173671034,
				"z": -1.4392851009,
				"element": "H" 
			},
			{
				"x": 1.8383000122,
				"y": 0.3609250753,
				"z": -0.8779058476,
				"element": "H" 
			},
			{
				"x": 1.224036174,
				"y": -2.015984898,
				"z": -1.5879376361,
				"element": "H" 
			},
			{
				"x": 1.2462492037,
				"y": -3.257209722,
				"z": -0.3168258966,
				"element": "H" 
			},
			{
				"x": 3.3059579295,
				"y": -2.2309032261,
				"z": -0.518406226,
				"element": "H" 
			},
			{
				"x": -2.233107601,
				"y": -2.1639613561,
				"z": 2.3612658582,
				"element": "H" 
			},
			{
				"x": -1.0606035134,
				"y": 1.4452722157,
				"z": 0.9792159984,
				"element": "H" 
			}
		],
		 "valence_orbital": [ 
			{
				"type": "occ",
				"energy": -0.29011,
				"method": "rhf"
			},
			{
				"type": "occ",
				"energy": -0.28126,
				"method": "rhf"
			},
			{
				"type": "occ",
				"energy": -0.2775,
				"method": "rhf"
			},
			{
				"type": "occ",
				"energy": -0.25942,
				"method": "rhf"
			},
			{
				"type": "occ",
				"energy": -0.23906,
				"method": "rhf"
			},
			{
				"type": "unocc",
				"energy": -0.03784,
				"method": "rhf"
			},
			{
				"type": "unocc",
				"energy": 0.01287,
				"method": "rhf"
			},
			{
				"type": "unocc",
				"energy": 0.06372,
				"method": "rhf"
			},
			{
				"type": "unocc",
				"energy": 0.07289,
				"method": "rhf"
			},
			{
				"type": "unocc",
				"energy": 0.10263,
				"method": "rhf"
			}
		],
		"cosmo_sigma_profile": { 
			"-0.025": 0.0,
			"-0.024": 0.0,
			"-0.023": 0.0,
			"-0.022": 0.0,
			"-0.021": 0.0,
			"-0.02": 0.0,
			"-0.019": 0.0,
			"-0.018": 0.0,
			"-0.017": 0.128348761975,
			"-0.016": 1.65152832856,
			"-0.015": 3.39597839004,
			"-0.014": 2.96728522698,
			"-0.013": 2.71844096226,
			"-0.012": 2.30995874186,
			"-0.011": 2.57657117171,
			"-0.01": 3.04752483337,
			"-0.009": 2.63202573771,
			"-0.008": 3.72705580848,
			"-0.007": 4.15013363075,
			"-0.006": 7.7673264466,
			"-0.005": 6.8729977541,
			"-0.004": 12.9014254502,
			"-0.003": 15.5259920486,
			"-0.002": 19.601403743,
			"-0.001": 14.4473599234,
			"0.0": 7.02073360563,
			"0.001": 4.56652133481,
			"0.002": 4.03745765048,
			"0.003": 5.31514711877,
			"0.004": 4.64120253863,
			"0.005": 2.84207404842,
			"0.006": 4.25567070607,
			"0.007": 4.3772723246,
			"0.008": 3.40697259019,
			"0.009": 3.28418915725,
			"0.01": 3.9301215441,
			"0.011": 5.19334873791,
			"0.012": 8.62636587434,
			"0.013": 11.9168284156,
			"0.014": 1.93798517621,
			"0.015": 0.0816818593022,
			"0.016": 0.0,
			"0.017": 0.0,
			"0.018": 0.0,
			"0.019": 0.0,
			"0.02": 0.0,
			"0.021": 0.0,
			"0.022": 0.0,
			"0.023": 0.0,
			"0.024": 0.0,
			"0.025": 0.0
		}
	}
}
