{
	 "smiles": "CN1C(O)C2=C(C1=O)C(C)=CC=C2C", 
	 "Tm": 436.15, 
	 "num_atms": 27, 
	 "gaussian": { 
		 "optdone": 1, 
		 "sigma_profile": "yes", 
		 "theory": "DFT", 
		 "functional": "B3LYP", 
		 "basiset": "6-31G**", 
		 "properties": { 
			 "R2extent": 3232.8448, 
			 "electric_dipole_moment_norm": 2.58182185481, 
			 "electric_quadrupole_moment_norm": 14.4282833476, 
			 "total_energy": -632.23805682, 
			 "HOMO_LUMO_gap": 0.20219, 
			 "cosmo_polarized_energy": -11.58, 
			 "cosmo_cavitation_energy": 29.6, 
			 "cosmo_dispersion_energy": -21.24, 
			 "cosmo_repulsion_energy": 1.65, 
			 "cosmo_total_nonelectrostatic_energy": 10.01, 
			 "SMD_solvation_energy": 5.39 
		},
		"coords": [
			{
				"x": -2.4054682277,
				"y": -2.9730070636,
				"z": 0.8826328711,
				"element": "C" 
			},
			{
				"x": -1.8672019231,
				"y": -1.7510296518,
				"z": 0.325666121,
				"element": "N" 
			},
			{
				"x": -0.4720357256,
				"y": -1.6074653513,
				"z": -0.0544630889,
				"element": "C" 
			},
			{
				"x": 0.4192845772,
				"y": -1.8159119913,
				"z": 1.030655286,
				"element": "O" 
			},
			{
				"x": -0.4377176595,
				"y": -0.2073930188,
				"z": -0.6429695087,
				"element": "C" 
			},
			{
				"x": -1.713084514,
				"y": 0.3552514222,
				"z": -0.5746437477,
				"element": "C" 
			},
			{
				"x": -2.6414775413,
				"y": -0.6408283222,
				"z": 0.0370904747,
				"element": "C" 
			},
			{
				"x": -3.8417949612,
				"y": -0.5346959124,
				"z": 0.2512998084,
				"element": "O" 
			},
			{
				"x": -1.9907033498,
				"y": 1.6502451523,
				"z": -1.028174098,
				"element": "C" 
			},
			{
				"x": -3.3703589783,
				"y": 2.2536600666,
				"z": -0.9593170864,
				"element": "C" 
			},
			{
				"x": -0.8964250113,
				"y": 2.3528304973,
				"z": -1.5519609608,
				"element": "C" 
			},
			{
				"x": 0.3827851722,
				"y": 1.7915486217,
				"z": -1.6180050892,
				"element": "C" 
			},
			{
				"x": 0.6530539488,
				"y": 0.4899249598,
				"z": -1.1679259131,
				"element": "C" 
			},
			{
				"x": 2.0318008978,
				"y": -0.1172793236,
				"z": -1.2681044122,
				"element": "C" 
			},
			{
				"x": -2.3895978877,
				"y": -3.7900082927,
				"z": 0.149372291,
				"element": "H" 
			},
			{
				"x": -3.4393474836,
				"y": -2.7756839248,
				"z": 1.1707852025,
				"element": "H" 
			},
			{
				"x": -1.827633361,
				"y": -3.2810365441,
				"z": 1.7593169619,
				"element": "H" 
			},
			{
				"x": -0.1871166103,
				"y": -2.3785581071,
				"z": -0.7826899279,
				"element": "H" 
			},
			{
				"x": 0.2626824238,
				"y": -1.1041275368,
				"z": 1.6687868838,
				"element": "H" 
			},
			{
				"x": -4.0929651802,
				"y": 1.6514925908,
				"z": -1.5180983157,
				"element": "H" 
			},
			{
				"x": -3.3707739806,
				"y": 3.269557284,
				"z": -1.3639085326,
				"element": "H" 
			},
			{
				"x": -3.7384119099,
				"y": 2.2844038765,
				"z": 0.0706031786,
				"element": "H" 
			},
			{
				"x": -1.0472253587,
				"y": 3.3657030598,
				"z": -1.9171965552,
				"element": "H" 
			},
			{
				"x": 1.1960379162,
				"y": 2.3825719234,
				"z": -2.0326758093,
				"element": "H" 
			},
			{
				"x": 2.795153752,
				"y": 0.6557400501,
				"z": -1.3930263337,
				"element": "H" 
			},
			{
				"x": 2.1041571537,
				"y": -0.7912065951,
				"z": -2.1315360105,
				"element": "H" 
			},
			{
				"x": 2.2688838221,
				"y": -0.7075978688,
				"z": -0.379513689,
				"element": "H" 
			}
		],
		 "valence_orbital": [ 
			{
				"type": "occ",
				"energy": -0.29891,
				"method": "rhf"
			},
			{
				"type": "occ",
				"energy": -0.25954,
				"method": "rhf"
			},
			{
				"type": "occ",
				"energy": -0.24907,
				"method": "rhf"
			},
			{
				"type": "occ",
				"energy": -0.24274,
				"method": "rhf"
			},
			{
				"type": "occ",
				"energy": -0.23928,
				"method": "rhf"
			},
			{
				"type": "unocc",
				"energy": -0.03709,
				"method": "rhf"
			},
			{
				"type": "unocc",
				"energy": -0.01124,
				"method": "rhf"
			},
			{
				"type": "unocc",
				"energy": 0.06316,
				"method": "rhf"
			},
			{
				"type": "unocc",
				"energy": 0.08362,
				"method": "rhf"
			},
			{
				"type": "unocc",
				"energy": 0.10249,
				"method": "rhf"
			}
		],
		"cosmo_sigma_profile": { 
			"-0.025": 0.0,
			"-0.024": 0.0,
			"-0.023": 0.0,
			"-0.022": 0.0,
			"-0.021": 0.0,
			"-0.02": 0.0,
			"-0.019": 0.0,
			"-0.018": 0.0,
			"-0.017": 0.0,
			"-0.016": 0.664173405341,
			"-0.015": 0.855022666843,
			"-0.014": 0.747908000299,
			"-0.013": 0.940383792774,
			"-0.012": 0.735415706676,
			"-0.011": 1.20116826664,
			"-0.01": 0.687273791719,
			"-0.009": 0.521755727015,
			"-0.008": 0.581079572846,
			"-0.007": 2.2079284311,
			"-0.006": 5.80900535467,
			"-0.005": 13.8577185614,
			"-0.004": 22.2163635622,
			"-0.003": 21.4376738165,
			"-0.002": 23.2743359009,
			"-0.001": 25.7121897442,
			"0.0": 27.0437609976,
			"0.001": 17.1314566039,
			"0.002": 10.9571258989,
			"0.003": 10.4141664947,
			"0.004": 11.6348240844,
			"0.005": 7.85460473824,
			"0.006": 2.85678242735,
			"0.007": 2.45592682842,
			"0.008": 2.94166322782,
			"0.009": 2.84959126296,
			"0.01": 1.78689040575,
			"0.011": 3.18946825558,
			"0.012": 3.26866217423,
			"0.013": 5.07605827657,
			"0.014": 2.38406752149,
			"0.015": 0.0,
			"0.016": 0.0,
			"0.017": 0.0,
			"0.018": 0.0,
			"0.019": 0.0,
			"0.02": 0.0,
			"0.021": 0.0,
			"0.022": 0.0,
			"0.023": 0.0,
			"0.024": 0.0,
			"0.025": 0.0
		}
	}
}
