{
	 "smiles": "COC1=C(C=CC(=C1)C1=CC(OC)=C(C=C1)N=C=O)N=C=O", 
	 "Tm": 387.15, 
	 "num_atms": 34, 
	 "gaussian": { 
		 "optdone": 1, 
		 "sigma_profile": "yes", 
		 "theory": "DFT", 
		 "functional": "B3LYP", 
		 "basiset": "6-31G**", 
		 "properties": { 
			 "R2extent": 9927.3194, 
			 "electric_dipole_moment_norm": 2.11159986266, 
			 "electric_quadrupole_moment_norm": 38.8032492431, 
			 "total_energy": -1027.31930057, 
			 "HOMO_LUMO_gap": 0.16407, 
			 "cosmo_polarized_energy": -11.78, 
			 "cosmo_cavitation_energy": 41.24, 
			 "cosmo_dispersion_energy": -28.29, 
			 "cosmo_repulsion_energy": 2.15, 
			 "cosmo_total_nonelectrostatic_energy": 15.1, 
			 "SMD_solvation_energy": 12.31 
		},
		"coords": [
			{
				"x": 0.4773895049,
				"y": 0.3777755148,
				"z": -3.9524608258,
				"element": "C" 
			},
			{
				"x": -0.4391984893,
				"y": -0.6981098077,
				"z": -3.8095506762,
				"element": "O" 
			},
			{
				"x": -0.9385723825,
				"y": -0.9764199328,
				"z": -2.5734690083,
				"element": "C" 
			},
			{
				"x": -1.8527734319,
				"y": -2.0550891551,
				"z": -2.528132982,
				"element": "C" 
			},
			{
				"x": -2.4272300713,
				"y": -2.406593512,
				"z": -1.3073791843,
				"element": "C" 
			},
			{
				"x": -2.1092425344,
				"y": -1.7106187835,
				"z": -0.1431431683,
				"element": "C" 
			},
			{
				"x": -1.2041037492,
				"y": -0.640427701,
				"z": -0.1733949936,
				"element": "C" 
			},
			{
				"x": -0.6244245151,
				"y": -0.2836442101,
				"z": -1.4064905284,
				"element": "C" 
			},
			{
				"x": -0.8612931271,
				"y": 0.1045185714,
				"z": 1.063174959,
				"element": "C" 
			},
			{
				"x": 0.4550434248,
				"y": 0.5538699346,
				"z": 1.284973908,
				"element": "C" 
			},
			{
				"x": 0.7880082941,
				"y": 1.2544148004,
				"z": 2.4420511755,
				"element": "C" 
			},
			{
				"x": 2.031688951,
				"y": 1.7170481086,
				"z": 2.7485470304,
				"element": "O" 
			},
			{
				"x": 3.0944738054,
				"y": 1.4836088438,
				"z": 1.8352583887,
				"element": "C" 
			},
			{
				"x": -0.2045665133,
				"y": 1.5220762778,
				"z": 3.4139212373,
				"element": "C" 
			},
			{
				"x": -1.506963078,
				"y": 1.0756765347,
				"z": 3.1941942436,
				"element": "C" 
			},
			{
				"x": -1.8346791719,
				"y": 0.3758593484,
				"z": 2.0349768103,
				"element": "C" 
			},
			{
				"x": 0.1008799802,
				"y": 2.2199220827,
				"z": 4.5802730487,
				"element": "N" 
			},
			{
				"x": 1.0979471558,
				"y": 2.7237461632,
				"z": 5.0608932727,
				"element": "C" 
			},
			{
				"x": 1.9549782586,
				"y": 3.2584922886,
				"z": 5.6644915608,
				"element": "O" 
			},
			{
				"x": -2.1852169301,
				"y": -2.7647558448,
				"z": -3.6798966804,
				"element": "N" 
			},
			{
				"x": -1.8787487978,
				"y": -2.7142717067,
				"z": -4.8557151911,
				"element": "C" 
			},
			{
				"x": -1.6949870999,
				"y": -2.8065483404,
				"z": -6.0143721514,
				"element": "O" 
			},
			{
				"x": 1.3841935868,
				"y": 0.2118127968,
				"z": -3.3577242886,
				"element": "H" 
			},
			{
				"x": 0.0222296383,
				"y": 1.3322348133,
				"z": -3.6610052245,
				"element": "H" 
			},
			{
				"x": 0.7390583264,
				"y": 0.4090780809,
				"z": -5.010558565,
				"element": "H" 
			},
			{
				"x": -3.1195012513,
				"y": -3.241518001,
				"z": -1.286349371,
				"element": "H" 
			},
			{
				"x": -2.545324099,
				"y": -2.0207762082,
				"z": 0.8003794344,
				"element": "H" 
			},
			{
				"x": 0.0486480361,
				"y": 0.5642144149,
				"z": -1.4470621086,
				"element": "H" 
			},
			{
				"x": 1.2221923811,
				"y": 0.318469484,
				"z": 0.5572342448,
				"element": "H" 
			},
			{
				"x": 3.2706534693,
				"y": 0.4104280214,
				"z": 1.6925889952,
				"element": "H" 
			},
			{
				"x": 3.9783379076,
				"y": 1.9397577836,
				"z": 2.2821725644,
				"element": "H" 
			},
			{
				"x": 2.895572035,
				"y": 1.9509306874,
				"z": 0.8628452787,
				"element": "H" 
			},
			{
				"x": -2.2594154376,
				"y": 1.2961902351,
				"z": 3.9438406126,
				"element": "H" 
			},
			{
				"x": -2.8607540757,
				"y": 0.0644484168,
				"z": 1.8712881825,
				"element": "H" 
			}
		],
		 "valence_orbital": [ 
			{
				"type": "occ",
				"energy": -0.30564,
				"method": "rhf"
			},
			{
				"type": "occ",
				"energy": -0.25692,
				"method": "rhf"
			},
			{
				"type": "occ",
				"energy": -0.24774,
				"method": "rhf"
			},
			{
				"type": "occ",
				"energy": -0.23266,
				"method": "rhf"
			},
			{
				"type": "occ",
				"energy": -0.2086,
				"method": "rhf"
			},
			{
				"type": "unocc",
				"energy": -0.04453,
				"method": "rhf"
			},
			{
				"type": "unocc",
				"energy": -0.00669,
				"method": "rhf"
			},
			{
				"type": "unocc",
				"energy": -0.0047,
				"method": "rhf"
			},
			{
				"type": "unocc",
				"energy": 0.00577,
				"method": "rhf"
			},
			{
				"type": "unocc",
				"energy": 0.02151,
				"method": "rhf"
			}
		],
		"cosmo_sigma_profile": { 
			"-0.025": 0.0,
			"-0.024": 0.0,
			"-0.023": 0.0,
			"-0.022": 0.0,
			"-0.021": 0.0,
			"-0.02": 0.0,
			"-0.019": 0.0,
			"-0.018": 0.0,
			"-0.017": 0.0,
			"-0.016": 0.0,
			"-0.015": 0.0,
			"-0.014": 0.0,
			"-0.013": 0.0,
			"-0.012": 0.0,
			"-0.011": 0.0,
			"-0.01": 0.0,
			"-0.009": 0.0,
			"-0.008": 0.0,
			"-0.007": 5.99466813152,
			"-0.006": 24.3628012425,
			"-0.005": 27.1316477206,
			"-0.004": 26.5924221751,
			"-0.003": 24.2920392265,
			"-0.002": 26.3609398816,
			"-0.001": 18.2741680999,
			"0.0": 21.675012911,
			"0.001": 23.9802482241,
			"0.002": 28.8226357614,
			"0.003": 31.3985354148,
			"0.004": 30.6618243854,
			"0.005": 13.8541907699,
			"0.006": 7.59656747373,
			"0.007": 14.0387174396,
			"0.008": 7.68488733227,
			"0.009": 0.0,
			"0.01": 0.0,
			"0.011": 0.0,
			"0.012": 0.0,
			"0.013": 0.0,
			"0.014": 0.0,
			"0.015": 0.0,
			"0.016": 0.0,
			"0.017": 0.0,
			"0.018": 0.0,
			"0.019": 0.0,
			"0.02": 0.0,
			"0.021": 0.0,
			"0.022": 0.0,
			"0.023": 0.0,
			"0.024": 0.0,
			"0.025": 0.0
		}
	}
}
