{
	 "smiles": "OC(=O)C1=CSC(=N1)C1=NN=CN1", 
	 "Tm": 573.15, 
	 "num_atms": 17, 
	 "gaussian": { 
		 "optdone": 1, 
		 "sigma_profile": "yes", 
		 "theory": "DFT", 
		 "functional": "B3LYP", 
		 "basiset": "6-31G**", 
		 "properties": { 
			 "R2extent": 3069.6417, 
			 "electric_dipole_moment_norm": 3.78151814752, 
			 "electric_quadrupole_moment_norm": 20.5604095234, 
			 "total_energy": -998.672437343, 
			 "HOMO_LUMO_gap": 0.17387, 
			 "cosmo_polarized_energy": -21.61, 
			 "cosmo_cavitation_energy": 25.25, 
			 "cosmo_dispersion_energy": -19.24, 
			 "cosmo_repulsion_energy": 1.48, 
			 "cosmo_total_nonelectrostatic_energy": 7.49, 
			 "SMD_solvation_energy": 2.76 
		},
		"coords": [
			{
				"x": -2.9044104438,
				"y": -1.8807296864,
				"z": -0.0968788956,
				"element": "O" 
			},
			{
				"x": -2.7776714697,
				"y": -1.0533547507,
				"z": 0.9614120094,
				"element": "C" 
			},
			{
				"x": -3.6415690287,
				"y": -0.9109180361,
				"z": 1.8039156306,
				"element": "O" 
			},
			{
				"x": -1.4784749803,
				"y": -0.3400546193,
				"z": 0.9890457971,
				"element": "C" 
			},
			{
				"x": -1.1614198723,
				"y": 0.5465731728,
				"z": 1.9891975924,
				"element": "C" 
			},
			{
				"x": 0.4091912169,
				"y": 1.2035363743,
				"z": 1.7362105209,
				"element": "S" 
			},
			{
				"x": 0.5295731229,
				"y": 0.2235809574,
				"z": 0.2805735008,
				"element": "C" 
			},
			{
				"x": -0.514866242,
				"y": -0.5174885431,
				"z": 0.0246569243,
				"element": "N" 
			},
			{
				"x": 1.7063747191,
				"y": 0.2474985304,
				"z": -0.5618220658,
				"element": "C" 
			},
			{
				"x": 2.8002828608,
				"y": 0.9605075436,
				"z": -0.3815820257,
				"element": "N" 
			},
			{
				"x": 3.6549389972,
				"y": 0.6726010783,
				"z": -1.4190922931,
				"element": "N" 
			},
			{
				"x": 3.0505367386,
				"y": -0.2038863824,
				"z": -2.1917029833,
				"element": "C" 
			},
			{
				"x": 1.8163540383,
				"y": -0.5078963344,
				"z": -1.6971502542,
				"element": "N" 
			},
			{
				"x": -3.7833293776,
				"y": -2.2861185274,
				"z": -0.0072881305,
				"element": "H" 
			},
			{
				"x": -1.7784451983,
				"y": 0.8217968892,
				"z": 2.8320611269,
				"element": "H" 
			},
			{
				"x": 3.457386393,
				"y": -0.6344222787,
				"z": -3.0949290493,
				"element": "H" 
			},
			{
				"x": 1.1117485261,
				"y": -1.1388253875,
				"z": -2.0527274049,
				"element": "H" 
			}
		],
		 "valence_orbital": [ 
			{
				"type": "occ",
				"energy": -0.30782,
				"method": "rhf"
			},
			{
				"type": "occ",
				"energy": -0.30226,
				"method": "rhf"
			},
			{
				"type": "occ",
				"energy": -0.28833,
				"method": "rhf"
			},
			{
				"type": "occ",
				"energy": -0.26879,
				"method": "rhf"
			},
			{
				"type": "occ",
				"energy": -0.24754,
				"method": "rhf"
			},
			{
				"type": "unocc",
				"energy": -0.07367,
				"method": "rhf"
			},
			{
				"type": "unocc",
				"energy": -0.04515,
				"method": "rhf"
			},
			{
				"type": "unocc",
				"energy": 0.00272,
				"method": "rhf"
			},
			{
				"type": "unocc",
				"energy": 0.0185,
				"method": "rhf"
			},
			{
				"type": "unocc",
				"energy": 0.06937,
				"method": "rhf"
			}
		],
		"cosmo_sigma_profile": { 
			"-0.025": 0.0,
			"-0.024": 0.0,
			"-0.023": 0.0,
			"-0.022": 0.0,
			"-0.021": 0.0,
			"-0.02": 0.0,
			"-0.019": 0.261130870656,
			"-0.018": 1.63275739407,
			"-0.017": 2.75765199396,
			"-0.016": 1.28369333346,
			"-0.015": 1.7418280351,
			"-0.014": 1.73513112037,
			"-0.013": 1.30500833995,
			"-0.012": 2.19614587349,
			"-0.011": 5.39090884255,
			"-0.01": 5.15167718411,
			"-0.009": 4.7583614613,
			"-0.008": 4.56024264098,
			"-0.007": 3.74876024524,
			"-0.006": 5.9284425793,
			"-0.005": 4.3558757833,
			"-0.004": 5.36254095249,
			"-0.003": 16.1847042434,
			"-0.002": 18.3962465924,
			"-0.001": 19.7369092481,
			"0.0": 17.8139504525,
			"0.001": 10.5259973767,
			"0.002": 5.66515124519,
			"0.003": 5.46593042831,
			"0.004": 5.31249866297,
			"0.005": 5.42367968632,
			"0.006": 3.78138986538,
			"0.007": 5.17375024083,
			"0.008": 5.27681090468,
			"0.009": 4.78963140243,
			"0.01": 6.36240206185,
			"0.011": 9.39435032365,
			"0.012": 5.82557225603,
			"0.013": 4.01750219879,
			"0.014": 2.25659614504,
			"0.015": 1.79034898185,
			"0.016": 0.943554436541,
			"0.017": 0.0634507206712,
			"0.018": 0.0,
			"0.019": 0.0,
			"0.02": 0.0,
			"0.021": 0.0,
			"0.022": 0.0,
			"0.023": 0.0,
			"0.024": 0.0,
			"0.025": 0.0
		}
	}
}
