{
	 "smiles": "OC(=O)C1=CC2=C(C=C1)N(C1CCCC1)C(=O)N2", 
	 "Tm": 589.15, 
	 "num_atms": 32, 
	 "gaussian": { 
		 "optdone": 1, 
		 "sigma_profile": "yes", 
		 "theory": "DFT", 
		 "functional": "B3LYP", 
		 "basiset": "6-31G**", 
		 "properties": { 
			 "R2extent": 6287.1195, 
			 "electric_dipole_moment_norm": 4.85253386181, 
			 "electric_quadrupole_moment_norm": 31.3935454161, 
			 "total_energy": -839.049762881, 
			 "HOMO_LUMO_gap": 0.17755, 
			 "cosmo_polarized_energy": -21.41, 
			 "cosmo_cavitation_energy": 34.52, 
			 "cosmo_dispersion_energy": -25.22, 
			 "cosmo_repulsion_energy": 1.94, 
			 "cosmo_total_nonelectrostatic_energy": 11.24, 
			 "SMD_solvation_energy": 6.76 
		},
		"coords": [
			{
				"x": -0.0538193014,
				"y": 3.8565269705,
				"z": -4.7639948386,
				"element": "O" 
			},
			{
				"x": 0.2861575789,
				"y": 2.5378486273,
				"z": -4.7618961919,
				"element": "C" 
			},
			{
				"x": 0.4666420117,
				"y": 1.963335787,
				"z": -5.8113343288,
				"element": "O" 
			},
			{
				"x": 0.4114335186,
				"y": 1.8735139911,
				"z": -3.4282838462,
				"element": "C" 
			},
			{
				"x": 0.3763988297,
				"y": 0.4665098262,
				"z": -3.4157789647,
				"element": "C" 
			},
			{
				"x": 0.4943776582,
				"y": -0.1758761453,
				"z": -2.1985318484,
				"element": "C" 
			},
			{
				"x": 0.663611838,
				"y": 0.542572097,
				"z": -0.9882753525,
				"element": "C" 
			},
			{
				"x": 0.7234161894,
				"y": 1.9343691104,
				"z": -1.0014768435,
				"element": "C" 
			},
			{
				"x": 0.5941986464,
				"y": 2.5858968165,
				"z": -2.2324225296,
				"element": "C" 
			},
			{
				"x": 0.7544298231,
				"y": -0.3888515097,
				"z": 0.0364030069,
				"element": "N" 
			},
			{
				"x": 0.9267426626,
				"y": -0.1647861202,
				"z": 1.4690129806,
				"element": "C" 
			},
			{
				"x": 2.210178053,
				"y": 0.6395612232,
				"z": 1.853733499,
				"element": "C" 
			},
			{
				"x": 1.7500641041,
				"y": 1.6993561749,
				"z": 2.8852463453,
				"element": "C" 
			},
			{
				"x": 0.3897772534,
				"y": 1.1869717293,
				"z": 3.3989067165,
				"element": "C" 
			},
			{
				"x": -0.2524289011,
				"y": 0.5711854606,
				"z": 2.1480568232,
				"element": "C" 
			},
			{
				"x": 0.6464552046,
				"y": -1.6904807787,
				"z": -0.4865391047,
				"element": "C" 
			},
			{
				"x": 0.685486487,
				"y": -2.7372417338,
				"z": 0.1346749168,
				"element": "O" 
			},
			{
				"x": 0.4862132081,
				"y": -1.5199175888,
				"z": -1.8579756497,
				"element": "N" 
			},
			{
				"x": -0.3385215981,
				"y": 4.1258453425,
				"z": -3.8800068785,
				"element": "H" 
			},
			{
				"x": 0.2596499139,
				"y": -0.067782935,
				"z": -4.3518644899,
				"element": "H" 
			},
			{
				"x": 0.8760957065,
				"y": 2.5040674913,
				"z": -0.0929101664,
				"element": "H" 
			},
			{
				"x": 0.6873267364,
				"y": 3.6685516162,
				"z": -2.2462121555,
				"element": "H" 
			},
			{
				"x": 0.9952270962,
				"y": -1.1756103013,
				"z": 1.8775878178,
				"element": "H" 
			},
			{
				"x": 2.9520488189,
				"y": -0.0390132909,
				"z": 2.2847071348,
				"element": "H" 
			},
			{
				"x": 2.6762272285,
				"y": 1.0935551988,
				"z": 0.9750513631,
				"element": "H" 
			},
			{
				"x": 1.6114174869,
				"y": 2.6710634746,
				"z": 2.3947148526,
				"element": "H" 
			},
			{
				"x": 2.4792180225,
				"y": 1.8513797119,
				"z": 3.6862332082,
				"element": "H" 
			},
			{
				"x": 0.5423286631,
				"y": 0.411623153,
				"z": 4.1604102092,
				"element": "H" 
			},
			{
				"x": -0.2217363486,
				"y": 1.9724900719,
				"z": 3.8529478364,
				"element": "H" 
			},
			{
				"x": -0.6333018047,
				"y": 1.3629746193,
				"z": 1.4921251271,
				"element": "H" 
			},
			{
				"x": -1.0854634173,
				"y": -0.1041942949,
				"z": 2.3628583195,
				"element": "H" 
			},
			{
				"x": 0.3930486315,
				"y": -2.3049437948,
				"z": -2.4823669682,
				"element": "H" 
			}
		],
		 "valence_orbital": [ 
			{
				"type": "occ",
				"energy": -0.30505,
				"method": "rhf"
			},
			{
				"type": "occ",
				"energy": -0.28098,
				"method": "rhf"
			},
			{
				"type": "occ",
				"energy": -0.2711,
				"method": "rhf"
			},
			{
				"type": "occ",
				"energy": -0.25176,
				"method": "rhf"
			},
			{
				"type": "occ",
				"energy": -0.22234,
				"method": "rhf"
			},
			{
				"type": "unocc",
				"energy": -0.04479,
				"method": "rhf"
			},
			{
				"type": "unocc",
				"energy": -0.02207,
				"method": "rhf"
			},
			{
				"type": "unocc",
				"energy": 0.05263,
				"method": "rhf"
			},
			{
				"type": "unocc",
				"energy": 0.05544,
				"method": "rhf"
			},
			{
				"type": "unocc",
				"energy": 0.05659,
				"method": "rhf"
			}
		],
		"cosmo_sigma_profile": { 
			"-0.025": 0.0,
			"-0.024": 0.0,
			"-0.023": 0.0,
			"-0.022": 0.0,
			"-0.021": 0.0,
			"-0.02": 0.0,
			"-0.019": 0.0564148808078,
			"-0.018": 0.597841239177,
			"-0.017": 1.2839929597,
			"-0.016": 2.47648810991,
			"-0.015": 1.89528675128,
			"-0.014": 2.6004300872,
			"-0.013": 1.41422609639,
			"-0.012": 2.42518600429,
			"-0.011": 2.16619259245,
			"-0.01": 2.12136801745,
			"-0.009": 2.39783905128,
			"-0.008": 3.58358951947,
			"-0.007": 4.51109899153,
			"-0.006": 7.27520760305,
			"-0.005": 7.97693163983,
			"-0.004": 12.1507389179,
			"-0.003": 25.8137545208,
			"-0.002": 28.3253918709,
			"-0.001": 33.7909304416,
			"0.0": 29.3094888438,
			"0.001": 22.0491750985,
			"0.002": 10.738003205,
			"0.003": 11.1057630259,
			"0.004": 6.88370449688,
			"0.005": 3.74342959835,
			"0.006": 3.76869563814,
			"0.007": 3.44029309177,
			"0.008": 3.04852783747,
			"0.009": 4.72551395904,
			"0.01": 6.26692061754,
			"0.011": 6.08486073528,
			"0.012": 8.08606942539,
			"0.013": 8.90749731707,
			"0.014": 2.09443975683,
			"0.015": 0.0,
			"0.016": 0.0,
			"0.017": 0.0,
			"0.018": 0.0,
			"0.019": 0.0,
			"0.02": 0.0,
			"0.021": 0.0,
			"0.022": 0.0,
			"0.023": 0.0,
			"0.024": 0.0,
			"0.025": 0.0
		}
	}
}
