{
	 "smiles": "OCC1=CC=CS1", 
	 "Tm": 273.15, 
	 "num_atms": 13, 
	 "gaussian": { 
		 "optdone": 1, 
		 "sigma_profile": "yes", 
		 "theory": "DFT", 
		 "functional": "B3LYP", 
		 "basiset": "6-31G**", 
		 "properties": { 
			 "R2extent": 1946.8598, 
			 "electric_dipole_moment_norm": 1.25870793276, 
			 "electric_quadrupole_moment_norm": 6.02635175044, 
			 "total_energy": -667.529169252, 
			 "HOMO_LUMO_gap": 0.21526, 
			 "cosmo_polarized_energy": -6.97, 
			 "cosmo_cavitation_energy": 18.23, 
			 "cosmo_dispersion_energy": -14.27, 
			 "cosmo_repulsion_energy": 1.16, 
			 "cosmo_total_nonelectrostatic_energy": 5.12, 
			 "SMD_solvation_energy": 3.24 
		},
		"coords": [
			{
				"x": -2.6323763011,
				"y": -2.3744565809,
				"z": -3.3738277082,
				"element": "O" 
			},
			{
				"x": -2.8283230309,
				"y": -1.9345000065,
				"z": -2.0395524489,
				"element": "C" 
			},
			{
				"x": -1.707745465,
				"y": -1.0462191049,
				"z": -1.5605352584,
				"element": "C" 
			},
			{
				"x": -0.4047852801,
				"y": -1.0480251524,
				"z": -1.9846761264,
				"element": "C" 
			},
			{
				"x": 0.4101860577,
				"y": -0.0863214245,
				"z": -1.311313227,
				"element": "C" 
			},
			{
				"x": -0.2817835407,
				"y": 0.6362640528,
				"z": -0.3805160189,
				"element": "C" 
			},
			{
				"x": -1.9503688604,
				"y": 0.157130259,
				"z": -0.3183896219,
				"element": "S" 
			},
			{
				"x": -2.5425697062,
				"y": -1.5853761546,
				"z": -3.9253880087,
				"element": "H" 
			},
			{
				"x": -2.8760332387,
				"y": -2.8497660124,
				"z": -1.4374797156,
				"element": "H" 
			},
			{
				"x": -3.7962316524,
				"y": -1.4229778666,
				"z": -1.9144630113,
				"element": "H" 
			},
			{
				"x": -0.0483408294,
				"y": -1.7229502781,
				"z": -2.7540595902,
				"element": "H" 
			},
			{
				"x": 1.4655346921,
				"y": 0.0588558244,
				"z": -1.5135419508,
				"element": "H" 
			},
			{
				"x": 0.0796371551,
				"y": 1.4194424448,
				"z": 0.2712426861,
				"element": "H" 
			}
		],
		 "valence_orbital": [ 
			{
				"type": "occ",
				"energy": -0.34633,
				"method": "rhf"
			},
			{
				"type": "occ",
				"energy": -0.33281,
				"method": "rhf"
			},
			{
				"type": "occ",
				"energy": -0.28251,
				"method": "rhf"
			},
			{
				"type": "occ",
				"energy": -0.25097,
				"method": "rhf"
			},
			{
				"type": "occ",
				"energy": -0.22844,
				"method": "rhf"
			},
			{
				"type": "unocc",
				"energy": -0.01318,
				"method": "rhf"
			},
			{
				"type": "unocc",
				"energy": 0.02793,
				"method": "rhf"
			},
			{
				"type": "unocc",
				"energy": 0.06365,
				"method": "rhf"
			},
			{
				"type": "unocc",
				"energy": 0.08194,
				"method": "rhf"
			},
			{
				"type": "unocc",
				"energy": 0.10297,
				"method": "rhf"
			}
		],
		"cosmo_sigma_profile": { 
			"-0.025": 0.0,
			"-0.024": 0.0,
			"-0.023": 0.0,
			"-0.022": 0.0,
			"-0.021": 0.0,
			"-0.02": 0.0,
			"-0.019": 0.0,
			"-0.018": 0.0,
			"-0.017": 0.0,
			"-0.016": 0.122796155721,
			"-0.015": 0.931076053262,
			"-0.014": 0.935870746851,
			"-0.013": 0.742291434405,
			"-0.012": 0.678153513374,
			"-0.011": 0.771161428153,
			"-0.01": 1.01732487665,
			"-0.009": 0.658925825315,
			"-0.008": 2.40751863595,
			"-0.007": 3.21252897257,
			"-0.006": 6.86468853959,
			"-0.005": 12.2259670481,
			"-0.004": 12.0095454937,
			"-0.003": 11.3728507681,
			"-0.002": 8.18471956963,
			"-0.001": 7.94137748631,
			"0.0": 8.0788726121,
			"0.001": 7.781977597,
			"0.002": 9.46263607725,
			"0.003": 10.7533525917,
			"0.004": 11.3161931169,
			"0.005": 12.5676181832,
			"0.006": 5.97012525316,
			"0.007": 1.74939454932,
			"0.008": 1.21172263546,
			"0.009": 0.964511956121,
			"0.01": 0.93990146598,
			"0.011": 0.935279393837,
			"0.012": 1.61006137054,
			"0.013": 1.88972580406,
			"0.014": 1.64555241657,
			"0.015": 0.0193395972649,
			"0.016": 0.0,
			"0.017": 0.0,
			"0.018": 0.0,
			"0.019": 0.0,
			"0.02": 0.0,
			"0.021": 0.0,
			"0.022": 0.0,
			"0.023": 0.0,
			"0.024": 0.0,
			"0.025": 0.0
		}
	}
}
