{
	 "smiles": "CC(C)(C)OC(=O)N1CCC(CC1)OCC(=O)NC1CC1", 
	 "Tm": 359.15, 
	 "num_atms": 47, 
	 "gaussian": { 
		 "optdone": 1, 
		 "sigma_profile": "yes", 
		 "theory": "DFT", 
		 "functional": "B3LYP", 
		 "basiset": "6-31G**", 
		 "properties": { 
			 "R2extent": 12860.4975, 
			 "electric_dipole_moment_norm": 2.16800607702, 
			 "electric_quadrupole_moment_norm": 25.0264859165, 
			 "total_energy": -997.674921854, 
			 "HOMO_LUMO_gap": 0.26553, 
			 "cosmo_polarized_energy": -17.87, 
			 "cosmo_cavitation_energy": 47.77, 
			 "cosmo_dispersion_energy": -32.86, 
			 "cosmo_repulsion_energy": 2.59, 
			 "cosmo_total_nonelectrostatic_energy": 17.49, 
			 "SMD_solvation_energy": 7.78 
		},
		"coords": [
			{
				"x": 1.3324831288,
				"y": -4.6296029457,
				"z": -1.0120328946,
				"element": "C" 
			},
			{
				"x": 2.4121408137,
				"y": -3.6034394362,
				"z": -0.6512887459,
				"element": "C" 
			},
			{
				"x": 3.4899950259,
				"y": -3.4893526398,
				"z": -1.7349081975,
				"element": "C" 
			},
			{
				"x": 3.0411083484,
				"y": -3.9327386892,
				"z": 0.7054510283,
				"element": "C" 
			},
			{
				"x": 1.8005878082,
				"y": -2.2884043452,
				"z": -0.4082004793,
				"element": "O" 
			},
			{
				"x": 1.113097984,
				"y": -1.6491645576,
				"z": -1.3892439603,
				"element": "C" 
			},
			{
				"x": 0.9638074257,
				"y": -2.0543321591,
				"z": -2.5348611347,
				"element": "O" 
			},
			{
				"x": 0.5984048426,
				"y": -0.4682964338,
				"z": -0.924655057,
				"element": "N" 
			},
			{
				"x": -0.0844659203,
				"y": 0.4175100131,
				"z": -1.8742459105,
				"element": "C" 
			},
			{
				"x": 0.2799646554,
				"y": 1.872152633,
				"z": -1.5752106221,
				"element": "C" 
			},
			{
				"x": -0.149758313,
				"y": 2.3050163667,
				"z": -0.1618649047,
				"element": "C" 
			},
			{
				"x": -0.2121957273,
				"y": 1.0913519229,
				"z": 0.7920394199,
				"element": "C" 
			},
			{
				"x": 0.8202384325,
				"y": 0.0153685676,
				"z": 0.4433393235,
				"element": "C" 
			},
			{
				"x": -1.4292062907,
				"y": 2.9354392668,
				"z": -0.2794367237,
				"element": "O" 
			},
			{
				"x": -1.8704793402,
				"y": 3.6141083668,
				"z": 0.8842333923,
				"element": "C" 
			},
			{
				"x": -3.1174328998,
				"y": 4.4568519397,
				"z": 0.6031372379,
				"element": "C" 
			},
			{
				"x": -3.6375431354,
				"y": 5.0995740122,
				"z": 1.5049522101,
				"element": "O" 
			},
			{
				"x": -3.5616622304,
				"y": 4.4143301092,
				"z": -0.682187136,
				"element": "N" 
			},
			{
				"x": -4.6663531505,
				"y": 5.2046797403,
				"z": -1.1422902992,
				"element": "C" 
			},
			{
				"x": -6.0671823407,
				"y": 4.7923753003,
				"z": -0.7748972446,
				"element": "C" 
			},
			{
				"x": -5.5714729386,
				"y": 4.6075773363,
				"z": -2.1884838387,
				"element": "C" 
			},
			{
				"x": 1.780388687,
				"y": -5.6265655865,
				"z": -1.0778156916,
				"element": "H" 
			},
			{
				"x": 0.5596644727,
				"y": -4.6557782703,
				"z": -0.2370085676,
				"element": "H" 
			},
			{
				"x": 0.8676995128,
				"y": -4.3868090236,
				"z": -1.9676677657,
				"element": "H" 
			},
			{
				"x": 4.0180198482,
				"y": -4.44381234,
				"z": -1.8305002363,
				"element": "H" 
			},
			{
				"x": 4.2222658536,
				"y": -2.7225807064,
				"z": -1.4620717924,
				"element": "H" 
			},
			{
				"x": 3.0479335955,
				"y": -3.2307315371,
				"z": -2.6970666488,
				"element": "H" 
			},
			{
				"x": 2.2761859259,
				"y": -3.9756375242,
				"z": 1.4864918201,
				"element": "H" 
			},
			{
				"x": 3.7770977493,
				"y": -3.1730095876,
				"z": 0.9845785951,
				"element": "H" 
			},
			{
				"x": 3.5447197344,
				"y": -4.9029676111,
				"z": 0.6610138675,
				"element": "H" 
			},
			{
				"x": 0.22490264,
				"y": 0.1241744741,
				"z": -2.8779665738,
				"element": "H" 
			},
			{
				"x": -1.1735849196,
				"y": 0.2816132424,
				"z": -1.8168791519,
				"element": "H" 
			},
			{
				"x": 1.3643776639,
				"y": 1.9925776335,
				"z": -1.6771355283,
				"element": "H" 
			},
			{
				"x": -0.1895093619,
				"y": 2.5419767421,
				"z": -2.3019346516,
				"element": "H" 
			},
			{
				"x": 0.566280495,
				"y": 3.0476247418,
				"z": 0.2251137171,
				"element": "H" 
			},
			{
				"x": -0.070350674,
				"y": 1.3984174149,
				"z": 1.8330003911,
				"element": "H" 
			},
			{
				"x": -1.2167119277,
				"y": 0.6587850607,
				"z": 0.7152475479,
				"element": "H" 
			},
			{
				"x": 1.8400321804,
				"y": 0.4141353073,
				"z": 0.5562590095,
				"element": "H" 
			},
			{
				"x": 0.7347557358,
				"y": -0.8243400066,
				"z": 1.135141501,
				"element": "H" 
			},
			{
				"x": -2.1239845295,
				"y": 2.9210821137,
				"z": 1.6982198622,
				"element": "H" 
			},
			{
				"x": -1.0926139238,
				"y": 4.2945652918,
				"z": 1.2641372964,
				"element": "H" 
			},
			{
				"x": -2.9857134986,
				"y": 3.9128852656,
				"z": -1.3446861387,
				"element": "H" 
			},
			{
				"x": -4.4707335644,
				"y": 6.2742947349,
				"z": -1.1977974928,
				"element": "H" 
			},
			{
				"x": -6.172172684,
				"y": 3.9085115564,
				"z": -0.1554184111,
				"element": "H" 
			},
			{
				"x": -6.785958683,
				"y": 5.5789333898,
				"z": -0.5697614875,
				"element": "H" 
			},
			{
				"x": -5.3567584228,
				"y": 3.5946801393,
				"z": -2.5171867924,
				"element": "H" 
			},
			{
				"x": -5.947608084,
				"y": 5.262070717,
				"z": -2.9684521403,
				"element": "H" 
			}
		],
		 "valence_orbital": [ 
			{
				"type": "occ",
				"energy": -0.2734,
				"method": "rhf"
			},
			{
				"type": "occ",
				"energy": -0.25813,
				"method": "rhf"
			},
			{
				"type": "occ",
				"energy": -0.24519,
				"method": "rhf"
			},
			{
				"type": "occ",
				"energy": -0.2404,
				"method": "rhf"
			},
			{
				"type": "occ",
				"energy": -0.23442,
				"method": "rhf"
			},
			{
				"type": "unocc",
				"energy": 0.03111,
				"method": "rhf"
			},
			{
				"type": "unocc",
				"energy": 0.05495,
				"method": "rhf"
			},
			{
				"type": "unocc",
				"energy": 0.06883,
				"method": "rhf"
			},
			{
				"type": "unocc",
				"energy": 0.08291,
				"method": "rhf"
			},
			{
				"type": "unocc",
				"energy": 0.09252,
				"method": "rhf"
			}
		],
		"cosmo_sigma_profile": { 
			"-0.025": 0.0,
			"-0.024": 0.0,
			"-0.023": 0.0,
			"-0.022": 0.0,
			"-0.021": 0.0,
			"-0.02": 0.0,
			"-0.019": 0.0,
			"-0.018": 0.0,
			"-0.017": 0.0,
			"-0.016": 0.0,
			"-0.015": 0.0,
			"-0.014": 0.0,
			"-0.013": 0.0,
			"-0.012": 0.0,
			"-0.011": 0.191851527869,
			"-0.01": 0.733359212983,
			"-0.009": 0.379419527754,
			"-0.008": 1.01552316495,
			"-0.007": 1.04711592606,
			"-0.006": 4.47419027344,
			"-0.005": 21.8818477702,
			"-0.004": 48.7551726331,
			"-0.003": 48.3480283806,
			"-0.002": 42.3429798671,
			"-0.001": 38.0831285159,
			"0.0": 39.5016201401,
			"0.001": 36.0990414598,
			"0.002": 16.3675329534,
			"0.003": 12.7437057877,
			"0.004": 9.53520744932,
			"0.005": 6.64498040277,
			"0.006": 5.74048907537,
			"0.007": 4.62291184821,
			"0.008": 3.49126180199,
			"0.009": 2.52943396022,
			"0.01": 3.00648164999,
			"0.011": 3.56578574205,
			"0.012": 3.69451181049,
			"0.013": 5.10425167536,
			"0.014": 8.72868453753,
			"0.015": 2.41595046002,
			"0.016": 0.0103108567342,
			"0.017": 0.0,
			"0.018": 0.0,
			"0.019": 0.0,
			"0.02": 0.0,
			"0.021": 0.0,
			"0.022": 0.0,
			"0.023": 0.0,
			"0.024": 0.0,
			"0.025": 0.0
		}
	}
}
