{
	 "smiles": "OC(=O)C1CC(=NO1)C1=C(Cl)C=C(Cl)C=C1", 
	 "Tm": 389.15, 
	 "num_atms": 23, 
	 "gaussian": { 
		 "optdone": 1, 
		 "sigma_profile": "yes", 
		 "theory": "DFT", 
		 "functional": "B3LYP", 
		 "basiset": "6-31G**", 
		 "properties": { 
			 "R2extent": 5686.2562, 
			 "electric_dipole_moment_norm": 3.93188988401, 
			 "electric_quadrupole_moment_norm": 16.9419043773, 
			 "total_energy": -1586.03847817, 
			 "HOMO_LUMO_gap": 0.18659, 
			 "cosmo_polarized_energy": -14.34, 
			 "cosmo_cavitation_energy": 31.62, 
			 "cosmo_dispersion_energy": -23.08, 
			 "cosmo_repulsion_energy": 1.8, 
			 "cosmo_total_nonelectrostatic_energy": 10.34, 
			 "SMD_solvation_energy": 5.47 
		},
		"coords": [
			{
				"x": -3.4507919896,
				"y": 2.2706834726,
				"z": -2.9019134576,
				"element": "O" 
			},
			{
				"x": -3.7646882021,
				"y": 1.6356863568,
				"z": -1.7649062194,
				"element": "C" 
			},
			{
				"x": -4.5752274495,
				"y": 0.7441932834,
				"z": -1.700360571,
				"element": "O" 
			},
			{
				"x": -3.0315396701,
				"y": 2.1554341161,
				"z": -0.5135077031,
				"element": "C" 
			},
			{
				"x": -2.3423347304,
				"y": 1.0388684894,
				"z": 0.2721621789,
				"element": "C" 
			},
			{
				"x": -0.9044471328,
				"y": 1.2714558003,
				"z": -0.149786618,
				"element": "C" 
			},
			{
				"x": -0.7249347342,
				"y": 2.3808437743,
				"z": -0.7769938137,
				"element": "N" 
			},
			{
				"x": -1.9591843292,
				"y": 3.0540211605,
				"z": -0.907070376,
				"element": "O" 
			},
			{
				"x": 0.2835802663,
				"y": 0.4736665035,
				"z": 0.2222474449,
				"element": "C" 
			},
			{
				"x": 0.3557235607,
				"y": -0.9305682903,
				"z": 0.177065081,
				"element": "C" 
			},
			{
				"x": -0.9733320401,
				"y": -1.9034816286,
				"z": -0.4312801487,
				"element": "Cl" 
			},
			{
				"x": 1.5066199506,
				"y": -1.6169448878,
				"z": 0.5643581208,
				"element": "C" 
			},
			{
				"x": 2.615177759,
				"y": -0.8932216356,
				"z": 0.9963239395,
				"element": "C" 
			},
			{
				"x": 4.056843004,
				"y": -1.7550634001,
				"z": 1.4893004098,
				"element": "Cl" 
			},
			{
				"x": 2.5925568794,
				"y": 0.500680049,
				"z": 1.037412481,
				"element": "C" 
			},
			{
				"x": 1.4330179984,
				"y": 1.1628614233,
				"z": 0.6538308482,
				"element": "C" 
			},
			{
				"x": -2.7392228258,
				"y": 2.9060809883,
				"z": -2.6912793644,
				"element": "H" 
			},
			{
				"x": -3.7436562078,
				"y": 2.7349493972,
				"z": 0.0801684551,
				"element": "H" 
			},
			{
				"x": -2.740334474,
				"y": 0.0589623613,
				"z": 0.0115096053,
				"element": "H" 
			},
			{
				"x": -2.4298877976,
				"y": 1.1622423556,
				"z": 1.3578691895,
				"element": "H" 
			},
			{
				"x": 1.5364711755,
				"y": -2.6982344346,
				"z": 0.5152055008,
				"element": "H" 
			},
			{
				"x": 3.4627459319,
				"y": 1.0536088161,
				"z": 1.3713749326,
				"element": "H" 
			},
			{
				"x": 1.3938450572,
				"y": 2.2457759292,
				"z": 0.6881700844,
				"element": "H" 
			}
		],
		 "valence_orbital": [ 
			{
				"type": "occ",
				"energy": -0.32059,
				"method": "rhf"
			},
			{
				"type": "occ",
				"energy": -0.3026,
				"method": "rhf"
			},
			{
				"type": "occ",
				"energy": -0.2793,
				"method": "rhf"
			},
			{
				"type": "occ",
				"energy": -0.2745,
				"method": "rhf"
			},
			{
				"type": "occ",
				"energy": -0.25398,
				"method": "rhf"
			},
			{
				"type": "unocc",
				"energy": -0.06739,
				"method": "rhf"
			},
			{
				"type": "unocc",
				"energy": -0.04088,
				"method": "rhf"
			},
			{
				"type": "unocc",
				"energy": -0.01223,
				"method": "rhf"
			},
			{
				"type": "unocc",
				"energy": -0.00421,
				"method": "rhf"
			},
			{
				"type": "unocc",
				"energy": 0.00429,
				"method": "rhf"
			}
		],
		"cosmo_sigma_profile": { 
			"-0.025": 0.0,
			"-0.024": 0.0,
			"-0.023": 0.0,
			"-0.022": 0.0,
			"-0.021": 0.0,
			"-0.02": 0.0,
			"-0.019": 0.0,
			"-0.018": 0.0,
			"-0.017": 0.0,
			"-0.016": 0.0,
			"-0.015": 0.362373669329,
			"-0.014": 0.567392135446,
			"-0.013": 0.780090119419,
			"-0.012": 0.40186599025,
			"-0.011": 0.737993407293,
			"-0.01": 2.97514117481,
			"-0.009": 6.12972197858,
			"-0.008": 11.1406010582,
			"-0.007": 11.5049135094,
			"-0.006": 10.3750989318,
			"-0.005": 9.62344179252,
			"-0.004": 12.8986063174,
			"-0.003": 14.3681530743,
			"-0.002": 16.1728404942,
			"-0.001": 18.2327690864,
			"0.0": 25.3623731598,
			"0.001": 23.6657533818,
			"0.002": 17.7804879469,
			"0.003": 17.5881132974,
			"0.004": 15.3427360523,
			"0.005": 4.20792150671,
			"0.006": 4.04627886295,
			"0.007": 4.57498798733,
			"0.008": 6.66734641462,
			"0.009": 7.16267873391,
			"0.01": 4.69791028877,
			"0.011": 6.08790684549,
			"0.012": 4.29231293188,
			"0.013": 0.622197059741,
			"0.014": 0.0,
			"0.015": 0.0,
			"0.016": 0.0,
			"0.017": 0.0,
			"0.018": 0.0,
			"0.019": 0.0,
			"0.02": 0.0,
			"0.021": 0.0,
			"0.022": 0.0,
			"0.023": 0.0,
			"0.024": 0.0,
			"0.025": 0.0
		}
	}
}
