{
	 "smiles": "CC(C)=CC(=O)NS(=O)(=O)C1=CC=C(N)C=C1", 
	 "Tm": 457.15, 
	 "num_atms": 31, 
	 "gaussian": { 
		 "optdone": 1, 
		 "sigma_profile": "yes", 
		 "theory": "DFT", 
		 "functional": "B3LYP", 
		 "basiset": "6-31G**", 
		 "properties": { 
			 "R2extent": 6559.7141, 
			 "electric_dipole_moment_norm": 7.59967184949, 
			 "electric_quadrupole_moment_norm": 20.27398314, 
			 "total_energy": -1160.90901797, 
			 "HOMO_LUMO_gap": 0.18171, 
			 "cosmo_polarized_energy": -21.36, 
			 "cosmo_cavitation_energy": 36.55, 
			 "cosmo_dispersion_energy": -25.69, 
			 "cosmo_repulsion_energy": 1.99, 
			 "cosmo_total_nonelectrostatic_energy": 12.86, 
			 "SMD_solvation_energy": 6.6 
		},
		"coords": [
			{
				"x": 0.7965204205,
				"y": 2.8461335335,
				"z": -2.8824698156,
				"element": "C" 
			},
			{
				"x": -0.310682047,
				"y": 3.2476884363,
				"z": -1.941346877,
				"element": "C" 
			},
			{
				"x": -1.5932595211,
				"y": 3.6607887746,
				"z": -2.6106323428,
				"element": "C" 
			},
			{
				"x": -0.0921637203,
				"y": 3.213536569,
				"z": -0.6085792637,
				"element": "C" 
			},
			{
				"x": -1.0637436926,
				"y": 3.6008303125,
				"z": 0.4298957698,
				"element": "C" 
			},
			{
				"x": -2.1099230594,
				"y": 4.2142612962,
				"z": 0.2588051005,
				"element": "O" 
			},
			{
				"x": -0.7302880316,
				"y": 3.2742622114,
				"z": 1.7641860694,
				"element": "N" 
			},
			{
				"x": 0.3276151448,
				"y": 2.1210164075,
				"z": 2.4531868999,
				"element": "S" 
			},
			{
				"x": 1.6223250756,
				"y": 2.228306476,
				"z": 1.7798464098,
				"element": "O" 
			},
			{
				"x": 0.1732077941,
				"y": 2.3614205342,
				"z": 3.888017786,
				"element": "O" 
			},
			{
				"x": -0.3649638566,
				"y": 0.5286769827,
				"z": 2.0678965016,
				"element": "C" 
			},
			{
				"x": 0.1067576329,
				"y": -0.1959425018,
				"z": 0.968777049,
				"element": "C" 
			},
			{
				"x": -0.4504038616,
				"y": -1.4309452302,
				"z": 0.6669917649,
				"element": "C" 
			},
			{
				"x": -1.4871938055,
				"y": -1.9649226628,
				"z": 1.458792594,
				"element": "C" 
			},
			{
				"x": -2.0089778777,
				"y": -3.2145937306,
				"z": 1.1865690005,
				"element": "N" 
			},
			{
				"x": -1.9423492017,
				"y": -1.2242049863,
				"z": 2.5697129477,
				"element": "C" 
			},
			{
				"x": -1.3864900022,
				"y": 0.0097615972,
				"z": 2.871923662,
				"element": "C" 
			},
			{
				"x": 0.4885756855,
				"y": 1.9906573079,
				"z": -3.4975138498,
				"element": "H" 
			},
			{
				"x": 1.0192383945,
				"y": 3.6627193992,
				"z": -3.5810657884,
				"element": "H" 
			},
			{
				"x": 1.7165352933,
				"y": 2.5828121309,
				"z": -2.3553504141,
				"element": "H" 
			},
			{
				"x": -1.8831686399,
				"y": 2.9126270134,
				"z": -3.3590465773,
				"element": "H" 
			},
			{
				"x": -1.4336161167,
				"y": 4.5990845397,
				"z": -3.1586548954,
				"element": "H" 
			},
			{
				"x": -2.4015398906,
				"y": 3.8173447371,
				"z": -1.9003760464,
				"element": "H" 
			},
			{
				"x": 0.8807426629,
				"y": 2.8996747189,
				"z": -0.2469567245,
				"element": "H" 
			},
			{
				"x": -1.4352123049,
				"y": 3.5809462189,
				"z": 2.4282284129,
				"element": "H" 
			},
			{
				"x": 0.9155472319,
				"y": 0.2033392754,
				"z": 0.3676274591,
				"element": "H" 
			},
			{
				"x": -0.077072627,
				"y": -1.9994346237,
				"z": -0.1805132011,
				"element": "H" 
			},
			{
				"x": -1.869421359,
				"y": -3.5818552185,
				"z": 0.2573078169,
				"element": "H" 
			},
			{
				"x": -2.9096604695,
				"y": -3.4362188282,
				"z": 1.5835445418,
				"element": "H" 
			},
			{
				"x": -2.7279904397,
				"y": -1.6321855949,
				"z": 3.1998214054,
				"element": "H" 
			},
			{
				"x": -1.7270448114,
				"y": 0.5658149048,
				"z": 3.7388746048,
				"element": "H" 
			}
		],
		 "valence_orbital": [ 
			{
				"type": "occ",
				"energy": -0.2858,
				"method": "rhf"
			},
			{
				"type": "occ",
				"energy": -0.2733,
				"method": "rhf"
			},
			{
				"type": "occ",
				"energy": -0.26075,
				"method": "rhf"
			},
			{
				"type": "occ",
				"energy": -0.25446,
				"method": "rhf"
			},
			{
				"type": "occ",
				"energy": -0.2271,
				"method": "rhf"
			},
			{
				"type": "unocc",
				"energy": -0.04539,
				"method": "rhf"
			},
			{
				"type": "unocc",
				"energy": -0.02634,
				"method": "rhf"
			},
			{
				"type": "unocc",
				"energy": -0.01978,
				"method": "rhf"
			},
			{
				"type": "unocc",
				"energy": 0.0495,
				"method": "rhf"
			},
			{
				"type": "unocc",
				"energy": 0.06629,
				"method": "rhf"
			}
		],
		"cosmo_sigma_profile": { 
			"-0.025": 0.0,
			"-0.024": 0.0,
			"-0.023": 0.0,
			"-0.022": 0.0,
			"-0.021": 0.0,
			"-0.02": 0.0,
			"-0.019": 0.0,
			"-0.018": 0.0,
			"-0.017": 0.0,
			"-0.016": 0.0,
			"-0.015": 0.385389664039,
			"-0.014": 1.59983352562,
			"-0.013": 3.01464015502,
			"-0.012": 4.54675880008,
			"-0.011": 3.91127958465,
			"-0.01": 4.18587121431,
			"-0.009": 3.3848411051,
			"-0.008": 4.34723621482,
			"-0.007": 7.70917881802,
			"-0.006": 9.20358976633,
			"-0.005": 17.4892259615,
			"-0.004": 20.0615185412,
			"-0.003": 17.6920741668,
			"-0.002": 17.5651431153,
			"-0.001": 24.608919507,
			"0.0": 23.3793738744,
			"0.001": 19.4601768786,
			"0.002": 17.3825787347,
			"0.003": 20.7644171891,
			"0.004": 14.8675611668,
			"0.005": 5.04386635862,
			"0.006": 5.68220064613,
			"0.007": 6.16800038677,
			"0.008": 5.29117754882,
			"0.009": 6.24741363025,
			"0.01": 10.5453944262,
			"0.011": 9.64841124935,
			"0.012": 4.68157469808,
			"0.013": 1.16905354037,
			"0.014": 0.0,
			"0.015": 0.0,
			"0.016": 0.0,
			"0.017": 0.0,
			"0.018": 0.0,
			"0.019": 0.0,
			"0.02": 0.0,
			"0.021": 0.0,
			"0.022": 0.0,
			"0.023": 0.0,
			"0.024": 0.0,
			"0.025": 0.0
		}
	}
}
