{
	 "smiles": "CC(C)(C)OC(=O)C1=C(N)SN=N1", 
	 "Tm": 408.15, 
	 "num_atms": 24, 
	 "gaussian": { 
		 "optdone": 1, 
		 "sigma_profile": "yes", 
		 "theory": "DFT", 
		 "functional": "B3LYP", 
		 "basiset": "6-31G**", 
		 "properties": { 
			 "R2extent": 4263.0099, 
			 "electric_dipole_moment_norm": 3.45791200871, 
			 "electric_quadrupole_moment_norm": 19.3131480406, 
			 "total_energy": -986.255811171, 
			 "HOMO_LUMO_gap": 0.199, 
			 "cosmo_polarized_energy": -12.74, 
			 "cosmo_cavitation_energy": 29.13, 
			 "cosmo_dispersion_energy": -21.57, 
			 "cosmo_repulsion_energy": 1.68, 
			 "cosmo_total_nonelectrostatic_energy": 9.23, 
			 "SMD_solvation_energy": 4.01 
		},
		"coords": [
			{
				"x": -1.5003438915,
				"y": 0.9906388181,
				"z": 0.216901257,
				"element": "C" 
			},
			{
				"x": -0.3181435749,
				"y": 1.4825376634,
				"z": -0.6242097483,
				"element": "C" 
			},
			{
				"x": 0.5104172614,
				"y": 2.5500502783,
				"z": 0.0976432585,
				"element": "C" 
			},
			{
				"x": -0.791627142,
				"y": 1.9888507352,
				"z": -1.9885239872,
				"element": "C" 
			},
			{
				"x": 0.5449212817,
				"y": 0.3415355221,
				"z": -0.9942458601,
				"element": "O" 
			},
			{
				"x": 1.1739494952,
				"y": -0.3988532031,
				"z": -0.0786108154,
				"element": "C" 
			},
			{
				"x": 1.1138387017,
				"y": -0.2300842308,
				"z": 1.141788427,
				"element": "O" 
			},
			{
				"x": 1.9754191636,
				"y": -1.4736962261,
				"z": -0.6646080724,
				"element": "C" 
			},
			{
				"x": 2.7263376179,
				"y": -2.3815818403,
				"z": 0.1178475366,
				"element": "C" 
			},
			{
				"x": 2.7858799598,
				"y": -2.3585315052,
				"z": 1.457087815,
				"element": "N" 
			},
			{
				"x": 3.5391015679,
				"y": -3.5031914511,
				"z": -0.9032460957,
				"element": "S" 
			},
			{
				"x": 2.7872583186,
				"y": -2.6473401893,
				"z": -2.4036660248,
				"element": "N" 
			},
			{
				"x": 2.0790759754,
				"y": -1.7068737861,
				"z": -2.0064441358,
				"element": "N" 
			},
			{
				"x": -2.0327924503,
				"y": 0.1909442511,
				"z": -0.3071657836,
				"element": "H" 
			},
			{
				"x": -1.1688844208,
				"y": 0.6196597831,
				"z": 1.1870594702,
				"element": "H" 
			},
			{
				"x": -2.2012295534,
				"y": 1.8163994177,
				"z": 0.37663484,
				"element": "H" 
			},
			{
				"x": -0.1032551341,
				"y": 3.443471986,
				"z": 0.2520665927,
				"element": "H" 
			},
			{
				"x": 1.3756180794,
				"y": 2.8341502908,
				"z": -0.5092909132,
				"element": "H" 
			},
			{
				"x": 0.8589604339,
				"y": 2.1926155537,
				"z": 1.0669201474,
				"element": "H" 
			},
			{
				"x": -1.339174151,
				"y": 1.2064659298,
				"z": -2.5212329904,
				"element": "H" 
			},
			{
				"x": 0.0599624681,
				"y": 2.2912346038,
				"z": -2.6042079216,
				"element": "H" 
			},
			{
				"x": -1.4524944216,
				"y": 2.8511480204,
				"z": -1.8590713434,
				"element": "H" 
			},
			{
				"x": 2.244259633,
				"y": -1.6282432246,
				"z": 1.9138704195,
				"element": "H" 
			},
			{
				"x": 3.3317447821,
				"y": -3.0226071971,
				"z": 1.978703928,
				"element": "H" 
			}
		],
		 "valence_orbital": [ 
			{
				"type": "occ",
				"energy": -0.29925,
				"method": "rhf"
			},
			{
				"type": "occ",
				"energy": -0.27848,
				"method": "rhf"
			},
			{
				"type": "occ",
				"energy": -0.27828,
				"method": "rhf"
			},
			{
				"type": "occ",
				"energy": -0.2564,
				"method": "rhf"
			},
			{
				"type": "occ",
				"energy": -0.2382,
				"method": "rhf"
			},
			{
				"type": "unocc",
				"energy": -0.0392,
				"method": "rhf"
			},
			{
				"type": "unocc",
				"energy": -0.03449,
				"method": "rhf"
			},
			{
				"type": "unocc",
				"energy": -0.0246,
				"method": "rhf"
			},
			{
				"type": "unocc",
				"energy": 0.07174,
				"method": "rhf"
			},
			{
				"type": "unocc",
				"energy": 0.08381,
				"method": "rhf"
			}
		],
		"cosmo_sigma_profile": { 
			"-0.025": 0.0,
			"-0.024": 0.0,
			"-0.023": 0.0,
			"-0.022": 0.0,
			"-0.021": 0.0,
			"-0.02": 0.0,
			"-0.019": 0.0,
			"-0.018": 0.0,
			"-0.017": 0.0301632181362,
			"-0.016": 1.35577510923,
			"-0.015": 1.72260480263,
			"-0.014": 1.54677331701,
			"-0.013": 1.41367484879,
			"-0.012": 1.48792381439,
			"-0.011": 2.04957660125,
			"-0.01": 2.06814500819,
			"-0.009": 1.18635500017,
			"-0.008": 2.05660402663,
			"-0.007": 1.68887281648,
			"-0.006": 1.32073410403,
			"-0.005": 3.22460501367,
			"-0.004": 14.5069866254,
			"-0.003": 18.8035939315,
			"-0.002": 24.0009821433,
			"-0.001": 30.851679722,
			"0.0": 35.8889374785,
			"0.001": 21.5083160645,
			"0.002": 11.9137380158,
			"0.003": 10.26978156,
			"0.004": 6.31008712563,
			"0.005": 5.25765150377,
			"0.006": 4.32160909921,
			"0.007": 5.60689451711,
			"0.008": 6.41923235043,
			"0.009": 5.2816282391,
			"0.01": 4.79974434017,
			"0.011": 3.55242078763,
			"0.012": 1.90372625027,
			"0.013": 0.231126481987,
			"0.014": 0.0,
			"0.015": 0.0,
			"0.016": 0.0,
			"0.017": 0.0,
			"0.018": 0.0,
			"0.019": 0.0,
			"0.02": 0.0,
			"0.021": 0.0,
			"0.022": 0.0,
			"0.023": 0.0,
			"0.024": 0.0,
			"0.025": 0.0
		}
	}
}
