{
	 "smiles": "NC(=S)COC1=CC=C(Cl)C=C1", 
	 "Tm": 382.15, 
	 "num_atms": 20, 
	 "gaussian": { 
		 "optdone": 1, 
		 "sigma_profile": "yes", 
		 "theory": "DFT", 
		 "functional": "B3LYP", 
		 "basiset": "6-31G**", 
		 "properties": { 
			 "R2extent": 4418.0317, 
			 "electric_dipole_moment_norm": 5.70376790376, 
			 "electric_quadrupole_moment_norm": 20.6706333374, 
			 "total_energy": -1298.01513689, 
			 "HOMO_LUMO_gap": 0.17178, 
			 "cosmo_polarized_energy": -21.43, 
			 "cosmo_cavitation_energy": 28.12, 
			 "cosmo_dispersion_energy": -20.71, 
			 "cosmo_repulsion_energy": 1.64, 
			 "cosmo_total_nonelectrostatic_energy": 9.05, 
			 "SMD_solvation_energy": 3.78 
		},
		"coords": [
			{
				"x": 0.4395791341,
				"y": -1.2900196893,
				"z": -3.6434130202,
				"element": "N" 
			},
			{
				"x": -0.575216731,
				"y": -1.2407765626,
				"z": -2.7542850175,
				"element": "C" 
			},
			{
				"x": -2.1561552917,
				"y": -1.0299741136,
				"z": -3.1848566081,
				"element": "S" 
			},
			{
				"x": -0.1022942221,
				"y": -1.4736932795,
				"z": -1.3133457804,
				"element": "C" 
			},
			{
				"x": -0.9495523175,
				"y": -0.9700695105,
				"z": -0.3140881913,
				"element": "O" 
			},
			{
				"x": -0.9264338139,
				"y": 0.3720471953,
				"z": -0.0334963281,
				"element": "C" 
			},
			{
				"x": -1.6953715478,
				"y": 0.7638810297,
				"z": 1.0699538705,
				"element": "C" 
			},
			{
				"x": -1.7319256002,
				"y": 2.0962630027,
				"z": 1.4631735925,
				"element": "C" 
			},
			{
				"x": -0.9936783378,
				"y": 3.0437156948,
				"z": 0.7500291075,
				"element": "C" 
			},
			{
				"x": -1.0329317106,
				"y": 4.7313084837,
				"z": 1.2476112159,
				"element": "Cl" 
			},
			{
				"x": -0.2322929674,
				"y": 2.6670667999,
				"z": -0.3511539868,
				"element": "C" 
			},
			{
				"x": -0.1979269379,
				"y": 1.3274553337,
				"z": -0.7485327865,
				"element": "C" 
			},
			{
				"x": 1.4015896137,
				"y": -1.4148224668,
				"z": -3.3613088698,
				"element": "H" 
			},
			{
				"x": 0.2281886232,
				"y": -1.2359836669,
				"z": -4.6295596184,
				"element": "H" 
			},
			{
				"x": -0.0761188389,
				"y": -2.5572393059,
				"z": -1.1527879748,
				"element": "H" 
			},
			{
				"x": 0.9229998987,
				"y": -1.0918275109,
				"z": -1.1860011888,
				"element": "H" 
			},
			{
				"x": -2.2577370863,
				"y": 0.0074607951,
				"z": 1.606634459,
				"element": "H" 
			},
			{
				"x": -2.3262802785,
				"y": 2.400205459,
				"z": 2.3176595428,
				"element": "H" 
			},
			{
				"x": 0.3276274654,
				"y": 3.4121247714,
				"z": -0.9054593619,
				"element": "H" 
			},
			{
				"x": 0.3803309468,
				"y": 1.0577775407,
				"z": -1.6240730557,
				"element": "H" 
			}
		],
		 "valence_orbital": [ 
			{
				"type": "occ",
				"energy": -0.30661,
				"method": "rhf"
			},
			{
				"type": "occ",
				"energy": -0.26358,
				"method": "rhf"
			},
			{
				"type": "occ",
				"energy": -0.24372,
				"method": "rhf"
			},
			{
				"type": "occ",
				"energy": -0.22364,
				"method": "rhf"
			},
			{
				"type": "occ",
				"energy": -0.21706,
				"method": "rhf"
			},
			{
				"type": "unocc",
				"energy": -0.04528,
				"method": "rhf"
			},
			{
				"type": "unocc",
				"energy": -0.01285,
				"method": "rhf"
			},
			{
				"type": "unocc",
				"energy": 0.00044,
				"method": "rhf"
			},
			{
				"type": "unocc",
				"energy": 0.03289,
				"method": "rhf"
			},
			{
				"type": "unocc",
				"energy": 0.04568,
				"method": "rhf"
			}
		],
		"cosmo_sigma_profile": { 
			"-0.025": 0.0,
			"-0.024": 0.0,
			"-0.023": 0.0,
			"-0.022": 0.0,
			"-0.021": 0.0,
			"-0.02": 0.0,
			"-0.019": 0.0,
			"-0.018": 0.0,
			"-0.017": 0.222458568843,
			"-0.016": 1.67687553203,
			"-0.015": 2.86031221389,
			"-0.014": 2.55263957578,
			"-0.013": 3.19644786034,
			"-0.012": 3.46298320389,
			"-0.011": 1.53373707062,
			"-0.01": 3.20345542304,
			"-0.009": 4.58569746501,
			"-0.008": 5.56331812076,
			"-0.007": 9.96109776371,
			"-0.006": 11.5858457812,
			"-0.005": 10.1279674113,
			"-0.004": 8.27036464445,
			"-0.003": 7.65785113752,
			"-0.002": 7.88247569078,
			"-0.001": 10.6061004235,
			"0.0": 9.31201268007,
			"0.001": 12.3173769294,
			"0.002": 17.1838486354,
			"0.003": 20.6639981102,
			"0.004": 21.7988979119,
			"0.005": 15.5803415149,
			"0.006": 6.23850879683,
			"0.007": 6.6574207515,
			"0.008": 7.37465561399,
			"0.009": 6.22977129958,
			"0.01": 4.43534773322,
			"0.011": 3.47703422241,
			"0.012": 1.94836964627,
			"0.013": 1.08006826199,
			"0.014": 0.203951862592,
			"0.015": 0.0,
			"0.016": 0.0,
			"0.017": 0.0,
			"0.018": 0.0,
			"0.019": 0.0,
			"0.02": 0.0,
			"0.021": 0.0,
			"0.022": 0.0,
			"0.023": 0.0,
			"0.024": 0.0,
			"0.025": 0.0
		}
	}
}
