{
	 "smiles": "OC(=O)C1CN(C(=O)C1)C1=CC(=CC=C1)C(F)(F)F", 
	 "Tm": 376.15, 
	 "num_atms": 29, 
	 "gaussian": { 
		 "optdone": 1, 
		 "sigma_profile": "yes", 
		 "theory": "DFT", 
		 "functional": "B3LYP", 
		 "basiset": "6-31G**", 
		 "properties": { 
			 "R2extent": 6551.8832, 
			 "electric_dipole_moment_norm": 6.14963728117, 
			 "electric_quadrupole_moment_norm": 10.7867899595, 
			 "total_energy": -1043.28755348, 
			 "HOMO_LUMO_gap": 0.20166, 
			 "cosmo_polarized_energy": -17.14, 
			 "cosmo_cavitation_energy": 34.6, 
			 "cosmo_dispersion_energy": -24.41, 
			 "cosmo_repulsion_energy": 1.81, 
			 "cosmo_total_nonelectrostatic_energy": 12.0, 
			 "SMD_solvation_energy": 8.26 
		},
		"coords": [
			{
				"x": 1.921002205,
				"y": -1.1166775052,
				"z": -4.7834474271,
				"element": "O" 
			},
			{
				"x": 1.4676270353,
				"y": -1.7909873293,
				"z": -3.703034267,
				"element": "C" 
			},
			{
				"x": 2.1125875402,
				"y": -2.6526908673,
				"z": -3.1489923503,
				"element": "O" 
			},
			{
				"x": 0.0570903503,
				"y": -1.347205342,
				"z": -3.3273249488,
				"element": "C" 
			},
			{
				"x": -0.3854616095,
				"y": -1.965195822,
				"z": -1.9897226275,
				"element": "C" 
			},
			{
				"x": -0.1516518991,
				"y": -0.9090438093,
				"z": -0.9970433051,
				"element": "N" 
			},
			{
				"x": 0.0357497579,
				"y": 0.3394872174,
				"z": -1.5792915458,
				"element": "C" 
			},
			{
				"x": 0.2193963691,
				"y": 1.3970171481,
				"z": -1.0029682633,
				"element": "O" 
			},
			{
				"x": -0.0544159506,
				"y": 0.170398036,
				"z": -3.0927946342,
				"element": "C" 
			},
			{
				"x": -0.2452916095,
				"y": -1.1775810582,
				"z": 0.388303599,
				"element": "C" 
			},
			{
				"x": 0.0968160868,
				"y": -0.2108093902,
				"z": 1.3510619634,
				"element": "C" 
			},
			{
				"x": 0.0013056717,
				"y": -0.5232033607,
				"z": 2.7053669411,
				"element": "C" 
			},
			{
				"x": -0.4266520957,
				"y": -1.7815491992,
				"z": 3.1367728819,
				"element": "C" 
			},
			{
				"x": -0.7648464225,
				"y": -2.7350229776,
				"z": 2.1817335833,
				"element": "C" 
			},
			{
				"x": -0.6795731016,
				"y": -2.4426401051,
				"z": 0.8212276488,
				"element": "C" 
			},
			{
				"x": 0.3135241879,
				"y": 0.5395851757,
				"z": 3.7267497249,
				"element": "C" 
			},
			{
				"x": -0.8010190892,
				"y": 1.21308901,
				"z": 4.097748604,
				"element": "F" 
			},
			{
				"x": 0.8392074386,
				"y": 0.0079610306,
				"z": 4.8548367623,
				"element": "F" 
			},
			{
				"x": 1.1904429085,
				"y": 1.4538710436,
				"z": 3.2627633504,
				"element": "F" 
			},
			{
				"x": 2.8101134155,
				"y": -1.4619285691,
				"z": -4.9717446837,
				"element": "H" 
			},
			{
				"x": -0.59131852,
				"y": -1.672587417,
				"z": -4.1474656191,
				"element": "H" 
			},
			{
				"x": -1.4463878414,
				"y": -2.2457044435,
				"z": -2.0129238908,
				"element": "H" 
			},
			{
				"x": 0.2112648321,
				"y": -2.8500627013,
				"z": -1.7582069179,
				"element": "H" 
			},
			{
				"x": 0.7165748497,
				"y": 0.7593909976,
				"z": -3.5905267435,
				"element": "H" 
			},
			{
				"x": -1.0254568767,
				"y": 0.5569361113,
				"z": -3.4216530026,
				"element": "H" 
			},
			{
				"x": 0.4296716554,
				"y": 0.766127322,
				"z": 1.0346111191,
				"element": "H" 
			},
			{
				"x": -0.4836685016,
				"y": -2.0072321297,
				"z": 4.1955259254,
				"element": "H" 
			},
			{
				"x": -1.0976673034,
				"y": -3.7207219572,
				"z": 2.4921979415,
				"element": "H" 
			},
			{
				"x": -0.9539634834,
				"y": -3.2072191083,
				"z": 0.1049401815,
				"element": "H" 
			}
		],
		 "valence_orbital": [ 
			{
				"type": "occ",
				"energy": -0.30835,
				"method": "rhf"
			},
			{
				"type": "occ",
				"energy": -0.29587,
				"method": "rhf"
			},
			{
				"type": "occ",
				"energy": -0.26604,
				"method": "rhf"
			},
			{
				"type": "occ",
				"energy": -0.26095,
				"method": "rhf"
			},
			{
				"type": "occ",
				"energy": -0.23077,
				"method": "rhf"
			},
			{
				"type": "unocc",
				"energy": -0.02911,
				"method": "rhf"
			},
			{
				"type": "unocc",
				"energy": -0.02044,
				"method": "rhf"
			},
			{
				"type": "unocc",
				"energy": -0.01257,
				"method": "rhf"
			},
			{
				"type": "unocc",
				"energy": 0.02836,
				"method": "rhf"
			},
			{
				"type": "unocc",
				"energy": 0.0587,
				"method": "rhf"
			}
		],
		"cosmo_sigma_profile": { 
			"-0.025": 0.0,
			"-0.024": 0.0,
			"-0.023": 0.0,
			"-0.022": 0.0,
			"-0.021": 0.0,
			"-0.02": 0.0,
			"-0.019": 0.30100105496,
			"-0.018": 1.03576042759,
			"-0.017": 0.837169819587,
			"-0.016": 0.858982285325,
			"-0.015": 0.784874758222,
			"-0.014": 0.203697405317,
			"-0.013": 0.470405471258,
			"-0.012": 1.14134185687,
			"-0.011": 1.09883704644,
			"-0.01": 0.644594341786,
			"-0.009": 0.411072509618,
			"-0.008": 5.31877848307,
			"-0.007": 16.6807725085,
			"-0.006": 19.7077927859,
			"-0.005": 16.2416853913,
			"-0.004": 14.2858007422,
			"-0.003": 12.5178794439,
			"-0.002": 11.4412544491,
			"-0.001": 13.5390463866,
			"0.0": 15.7234842085,
			"0.001": 20.7121817702,
			"0.002": 28.2334707054,
			"0.003": 45.0001277759,
			"0.004": 12.4918126697,
			"0.005": 3.38201997046,
			"0.006": 3.1117472814,
			"0.007": 4.39926847454,
			"0.008": 4.39516882439,
			"0.009": 3.50317867481,
			"0.01": 3.75099534125,
			"0.011": 7.33893485771,
			"0.012": 4.09398465198,
			"0.013": 2.00160691333,
			"0.014": 0.444815098895,
			"0.015": 0.0,
			"0.016": 0.0,
			"0.017": 0.0,
			"0.018": 0.0,
			"0.019": 0.0,
			"0.02": 0.0,
			"0.021": 0.0,
			"0.022": 0.0,
			"0.023": 0.0,
			"0.024": 0.0,
			"0.025": 0.0
		}
	}
}
