{
	 "smiles": "OC(=O)C=CC1=NC2=C(C=CC(Cl)=C2)C=C1", 
	 "Tm": 500.15, 
	 "num_atms": 24, 
	 "gaussian": { 
		 "optdone": 1, 
		 "sigma_profile": "yes", 
		 "theory": "DFT", 
		 "functional": "B3LYP", 
		 "basiset": "6-31G**", 
		 "properties": { 
			 "R2extent": 6479.0232, 
			 "electric_dipole_moment_norm": 2.50400485822, 
			 "electric_quadrupole_moment_norm": 23.0003217886, 
			 "total_energy": -1127.50060126, 
			 "HOMO_LUMO_gap": 0.15825, 
			 "cosmo_polarized_energy": -13.4, 
			 "cosmo_cavitation_energy": 31.77, 
			 "cosmo_dispersion_energy": -23.46, 
			 "cosmo_repulsion_energy": 1.81, 
			 "cosmo_total_nonelectrostatic_energy": 10.12, 
			 "SMD_solvation_energy": 4.91 
		},
		"coords": [
			{
				"x": 2.8072210338,
				"y": 3.391949563,
				"z": -2.8592951056,
				"element": "O" 
			},
			{
				"x": 1.9361748621,
				"y": 4.0781758726,
				"z": -2.0762093721,
				"element": "C" 
			},
			{
				"x": 1.8042783186,
				"y": 5.2848281942,
				"z": -2.1519502357,
				"element": "O" 
			},
			{
				"x": 1.1772588492,
				"y": 3.2282273956,
				"z": -1.1388435647,
				"element": "C" 
			},
			{
				"x": 1.3189147609,
				"y": 1.8937519505,
				"z": -1.0522928378,
				"element": "C" 
			},
			{
				"x": 0.5973484478,
				"y": 0.9917214348,
				"z": -0.1448926461,
				"element": "C" 
			},
			{
				"x": 0.9230058905,
				"y": -0.2919759134,
				"z": -0.2606492174,
				"element": "N" 
			},
			{
				"x": 0.303211574,
				"y": -1.1986947273,
				"z": 0.5413975039,
				"element": "C" 
			},
			{
				"x": -0.6863715632,
				"y": -0.8270893399,
				"z": 1.5062245648,
				"element": "C" 
			},
			{
				"x": -1.2855454794,
				"y": -1.8337123211,
				"z": 2.3042091313,
				"element": "C" 
			},
			{
				"x": -0.9260915096,
				"y": -3.1546925469,
				"z": 2.1595873483,
				"element": "C" 
			},
			{
				"x": 0.0548816239,
				"y": -3.5080541855,
				"z": 1.2004964056,
				"element": "C" 
			},
			{
				"x": 0.4910064725,
				"y": -5.2010684497,
				"z": 1.0404968101,
				"element": "Cl" 
			},
			{
				"x": 0.663168536,
				"y": -2.566606226,
				"z": 0.4044011135,
				"element": "C" 
			},
			{
				"x": -1.0097641875,
				"y": 0.5508210807,
				"z": 1.60346722,
				"element": "C" 
			},
			{
				"x": -0.3780697978,
				"y": 1.4552257282,
				"z": 0.7893384026,
				"element": "C" 
			},
			{
				"x": 3.2354947576,
				"y": 4.0577625033,
				"z": -3.4214814956,
				"element": "H" 
			},
			{
				"x": 0.4860872786,
				"y": 3.7898813443,
				"z": -0.5195123376,
				"element": "H" 
			},
			{
				"x": 2.028491692,
				"y": 1.3889898512,
				"z": -1.7010456218,
				"element": "H" 
			},
			{
				"x": -2.036959404,
				"y": -1.5524422358,
				"z": 3.0370165846,
				"element": "H" 
			},
			{
				"x": -1.3812532016,
				"y": -3.928483291,
				"z": 2.7673756977,
				"element": "H" 
			},
			{
				"x": 1.4136781234,
				"y": -2.8330962734,
				"z": -0.3300273315,
				"element": "H" 
			},
			{
				"x": -1.7561503133,
				"y": 0.8759360827,
				"z": 2.3235652291,
				"element": "H" 
			},
			{
				"x": -0.6150167646,
				"y": 2.5111445087,
				"z": 0.8527237544,
				"element": "H" 
			}
		],
		 "valence_orbital": [ 
			{
				"type": "occ",
				"energy": -0.29807,
				"method": "rhf"
			},
			{
				"type": "occ",
				"energy": -0.27897,
				"method": "rhf"
			},
			{
				"type": "occ",
				"energy": -0.27094,
				"method": "rhf"
			},
			{
				"type": "occ",
				"energy": -0.24964,
				"method": "rhf"
			},
			{
				"type": "occ",
				"energy": -0.24637,
				"method": "rhf"
			},
			{
				"type": "unocc",
				"energy": -0.08812,
				"method": "rhf"
			},
			{
				"type": "unocc",
				"energy": -0.05602,
				"method": "rhf"
			},
			{
				"type": "unocc",
				"energy": -0.0118,
				"method": "rhf"
			},
			{
				"type": "unocc",
				"energy": 0.0065,
				"method": "rhf"
			},
			{
				"type": "unocc",
				"energy": 0.02261,
				"method": "rhf"
			}
		],
		"cosmo_sigma_profile": { 
			"-0.025": 0.0,
			"-0.024": 0.0,
			"-0.023": 0.0,
			"-0.022": 0.0,
			"-0.021": 0.0,
			"-0.02": 0.0,
			"-0.019": 0.00105700724181,
			"-0.018": 0.808167494897,
			"-0.017": 0.989183603457,
			"-0.016": 0.648099746457,
			"-0.015": 0.997764848813,
			"-0.014": 0.62917478412,
			"-0.013": 0.56612211086,
			"-0.012": 0.513622335887,
			"-0.011": 0.759080075069,
			"-0.01": 1.59453289239,
			"-0.009": 2.53025708401,
			"-0.008": 6.57503360087,
			"-0.007": 11.5202213662,
			"-0.006": 12.0863106194,
			"-0.005": 9.48129565865,
			"-0.004": 10.3949570307,
			"-0.003": 9.84735414129,
			"-0.002": 12.7415967119,
			"-0.001": 20.2562027739,
			"0.0": 29.7409957675,
			"0.001": 36.3574019004,
			"0.002": 26.1686976469,
			"0.003": 13.1890853007,
			"0.004": 13.7880747133,
			"0.005": 6.55899258978,
			"0.006": 4.91580110499,
			"0.007": 4.24970472606,
			"0.008": 2.84212237436,
			"0.009": 2.53128431277,
			"0.01": 2.52721496974,
			"0.011": 4.74202875218,
			"0.012": 5.87749947065,
			"0.013": 1.674003748,
			"0.014": 0.11008573846,
			"0.015": 0.0,
			"0.016": 0.0,
			"0.017": 0.0,
			"0.018": 0.0,
			"0.019": 0.0,
			"0.02": 0.0,
			"0.021": 0.0,
			"0.022": 0.0,
			"0.023": 0.0,
			"0.024": 0.0,
			"0.025": 0.0
		}
	}
}
