{
	 "smiles": "CCC(CC)CO", 
	 "Tm": 258.15, 
	 "num_atms": 21, 
	 "gaussian": { 
		 "optdone": 1, 
		 "sigma_profile": "yes", 
		 "theory": "DFT", 
		 "functional": "B3LYP", 
		 "basiset": "6-31G**", 
		 "properties": { 
			 "R2extent": 1407.6412, 
			 "electric_dipole_moment_norm": 1.56830565898, 
			 "electric_quadrupole_moment_norm": 7.63139511557, 
			 "total_energy": -312.305133842, 
			 "HOMO_LUMO_gap": 0.33767, 
			 "cosmo_polarized_energy": -5.66, 
			 "cosmo_cavitation_energy": 22.09, 
			 "cosmo_dispersion_energy": -16.02, 
			 "cosmo_repulsion_energy": 1.38, 
			 "cosmo_total_nonelectrostatic_energy": 7.45, 
			 "SMD_solvation_energy": 3.93 
		},
		"coords": [
			{
				"x": -2.2119222637,
				"y": -0.4927288747,
				"z": 2.5616456562,
				"element": "C" 
			},
			{
				"x": -2.2380076375,
				"y": 0.1941176275,
				"z": 1.1918159638,
				"element": "C" 
			},
			{
				"x": -1.2626501943,
				"y": -0.3964637602,
				"z": 0.1535188939,
				"element": "C" 
			},
			{
				"x": 0.2095061645,
				"y": -0.0547276467,
				"z": 0.4661955857,
				"element": "C" 
			},
			{
				"x": 1.2486769741,
				"y": -0.8853657022,
				"z": -0.2985501634,
				"element": "C" 
			},
			{
				"x": -1.6497551905,
				"y": 0.0671284944,
				"z": -1.2618151323,
				"element": "C" 
			},
			{
				"x": -2.971182454,
				"y": -0.3045811574,
				"z": -1.6411309475,
				"element": "O" 
			},
			{
				"x": -1.2312842558,
				"y": -0.4238708518,
				"z": 3.0445444021,
				"element": "H" 
			},
			{
				"x": -2.4618986297,
				"y": -1.5566648247,
				"z": 2.4741255694,
				"element": "H" 
			},
			{
				"x": -2.9407488457,
				"y": -0.0379613803,
				"z": 3.2406389395,
				"element": "H" 
			},
			{
				"x": -3.2490744295,
				"y": 0.1313469407,
				"z": 0.775482852,
				"element": "H" 
			},
			{
				"x": -2.0203020733,
				"y": 1.2654374226,
				"z": 1.310547373,
				"element": "H" 
			},
			{
				"x": -1.3663253899,
				"y": -1.4956331327,
				"z": 0.1774393028,
				"element": "H" 
			},
			{
				"x": 0.3731159267,
				"y": 1.0145784121,
				"z": 0.2692022545,
				"element": "H" 
			},
			{
				"x": 0.3833879753,
				"y": -0.1885739591,
				"z": 1.5400495795,
				"element": "H" 
			},
			{
				"x": 1.1831757638,
				"y": -0.7412162124,
				"z": -1.3816651364,
				"element": "H" 
			},
			{
				"x": 1.1204155785,
				"y": -1.9556166329,
				"z": -0.0992111479,
				"element": "H" 
			},
			{
				"x": 2.2651298653,
				"y": -0.6131662027,
				"z": 0.0041723843,
				"element": "H" 
			},
			{
				"x": -0.91941328,
				"y": -0.2978576923,
				"z": -1.9990747337,
				"element": "H" 
			},
			{
				"x": -1.6306723744,
				"y": 1.1628514113,
				"z": -1.3051904243,
				"element": "H" 
			},
			{
				"x": -3.00897123,
				"y": -1.2699322784,
				"z": -1.6550410709,
				"element": "H" 
			}
		],
		 "valence_orbital": [ 
			{
				"type": "occ",
				"energy": -0.33587,
				"method": "rhf"
			},
			{
				"type": "occ",
				"energy": -0.3236,
				"method": "rhf"
			},
			{
				"type": "occ",
				"energy": -0.31754,
				"method": "rhf"
			},
			{
				"type": "occ",
				"energy": -0.30156,
				"method": "rhf"
			},
			{
				"type": "occ",
				"energy": -0.25915,
				"method": "rhf"
			},
			{
				"type": "unocc",
				"energy": 0.07852,
				"method": "rhf"
			},
			{
				"type": "unocc",
				"energy": 0.08956,
				"method": "rhf"
			},
			{
				"type": "unocc",
				"energy": 0.1054,
				"method": "rhf"
			},
			{
				"type": "unocc",
				"energy": 0.11563,
				"method": "rhf"
			},
			{
				"type": "unocc",
				"energy": 0.14169,
				"method": "rhf"
			}
		],
		"cosmo_sigma_profile": { 
			"-0.025": 0.0,
			"-0.024": 0.0,
			"-0.023": 0.0,
			"-0.022": 0.0,
			"-0.021": 0.0,
			"-0.02": 0.0,
			"-0.019": 0.0,
			"-0.018": 0.0,
			"-0.017": 0.0,
			"-0.016": 0.0,
			"-0.015": 0.56087322759,
			"-0.014": 1.09824424373,
			"-0.013": 0.506985412364,
			"-0.012": 1.21936428338,
			"-0.011": 0.839564502771,
			"-0.01": 0.888806737191,
			"-0.009": 1.17867494331,
			"-0.008": 0.903847201496,
			"-0.007": 0.524157213536,
			"-0.006": 0.907767127778,
			"-0.005": 1.46032077394,
			"-0.004": 2.83777915302,
			"-0.003": 12.9257020547,
			"-0.002": 24.3232218127,
			"-0.001": 26.8309327349,
			"0.0": 28.9791916741,
			"0.001": 30.2604691383,
			"0.002": 14.124829188,
			"0.003": 2.26473833689,
			"0.004": 2.02953551564,
			"0.005": 1.41142329475,
			"0.006": 1.24216228953,
			"0.007": 1.28326646179,
			"0.008": 1.19071594226,
			"0.009": 1.29792213309,
			"0.01": 1.21069389658,
			"0.011": 1.34102416374,
			"0.012": 0.968740062111,
			"0.013": 1.19671258595,
			"0.014": 2.17284143098,
			"0.015": 1.38848429692,
			"0.016": 0.0,
			"0.017": 0.0,
			"0.018": 0.0,
			"0.019": 0.0,
			"0.02": 0.0,
			"0.021": 0.0,
			"0.022": 0.0,
			"0.023": 0.0,
			"0.024": 0.0,
			"0.025": 0.0
		}
	}
}
