{
	 "smiles": "COC1=NC=CC(=C1)C#N", 
	 "Tm": 368.15, 
	 "num_atms": 16, 
	 "gaussian": { 
		 "optdone": 1, 
		 "sigma_profile": "yes", 
		 "theory": "DFT", 
		 "functional": "B3LYP", 
		 "basiset": "6-31G**", 
		 "properties": { 
			 "R2extent": 2151.7823, 
			 "electric_dipole_moment_norm": 3.81416526648, 
			 "electric_quadrupole_moment_norm": 15.5017095112, 
			 "total_energy": -455.059228115, 
			 "HOMO_LUMO_gap": 0.18431, 
			 "cosmo_polarized_energy": -8.55, 
			 "cosmo_cavitation_energy": 21.74, 
			 "cosmo_dispersion_energy": -15.62, 
			 "cosmo_repulsion_energy": 1.28, 
			 "cosmo_total_nonelectrostatic_energy": 7.39, 
			 "SMD_solvation_energy": 5.33 
		},
		"coords": [
			{
				"x": 2.1910220715,
				"y": -1.0835141686,
				"z": -0.4423878014,
				"element": "C" 
			},
			{
				"x": 1.4537570311,
				"y": 0.1340047773,
				"z": -0.2793301163,
				"element": "O" 
			},
			{
				"x": 0.5723032271,
				"y": 0.1903416731,
				"z": 0.7364332725,
				"element": "C" 
			},
			{
				"x": 0.4176794694,
				"y": -0.8602767459,
				"z": 1.5366078248,
				"element": "N" 
			},
			{
				"x": -0.4730199364,
				"y": -0.7586980296,
				"z": 2.5367943189,
				"element": "C" 
			},
			{
				"x": -1.2369508721,
				"y": 0.3725729034,
				"z": 2.7822344976,
				"element": "C" 
			},
			{
				"x": -1.0593784591,
				"y": 1.476439658,
				"z": 1.9235236608,
				"element": "C" 
			},
			{
				"x": -0.1419160317,
				"y": 1.3949839982,
				"z": 0.8796844784,
				"element": "C" 
			},
			{
				"x": -1.819669939,
				"y": 2.6786355062,
				"z": 2.1230047454,
				"element": "C" 
			},
			{
				"x": -2.4385123351,
				"y": 3.648368003,
				"z": 2.2905039028,
				"element": "N" 
			},
			{
				"x": 2.791955532,
				"y": -1.3005524649,
				"z": 0.4450422796,
				"element": "H" 
			},
			{
				"x": 2.8343890064,
				"y": -0.9153249644,
				"z": -1.3063471394,
				"element": "H" 
			},
			{
				"x": 1.5200056809,
				"y": -1.9275731075,
				"z": -0.6242127173,
				"element": "H" 
			},
			{
				"x": -0.5745237954,
				"y": -1.6358520887,
				"z": 3.1720296826,
				"element": "H" 
			},
			{
				"x": -1.9442121661,
				"y": 0.4101173408,
				"z": 3.6017111586,
				"element": "H" 
			},
			{
				"x": 0.0274715163,
				"y": 2.2173277097,
				"z": 0.1958079525,
				"element": "H" 
			}
		],
		 "valence_orbital": [ 
			{
				"type": "occ",
				"energy": -0.34118,
				"method": "rhf"
			},
			{
				"type": "occ",
				"energy": -0.34049,
				"method": "rhf"
			},
			{
				"type": "occ",
				"energy": -0.29535,
				"method": "rhf"
			},
			{
				"type": "occ",
				"energy": -0.28646,
				"method": "rhf"
			},
			{
				"type": "occ",
				"energy": -0.25276,
				"method": "rhf"
			},
			{
				"type": "unocc",
				"energy": -0.06845,
				"method": "rhf"
			},
			{
				"type": "unocc",
				"energy": -0.02237,
				"method": "rhf"
			},
			{
				"type": "unocc",
				"energy": 0.02754,
				"method": "rhf"
			},
			{
				"type": "unocc",
				"energy": 0.07258,
				"method": "rhf"
			},
			{
				"type": "unocc",
				"energy": 0.08925,
				"method": "rhf"
			}
		],
		"cosmo_sigma_profile": { 
			"-0.025": 0.0,
			"-0.024": 0.0,
			"-0.023": 0.0,
			"-0.022": 0.0,
			"-0.021": 0.0,
			"-0.02": 0.0,
			"-0.019": 0.0,
			"-0.018": 0.0,
			"-0.017": 0.0,
			"-0.016": 0.0,
			"-0.015": 0.0,
			"-0.014": 0.0,
			"-0.013": 0.0,
			"-0.012": 0.0,
			"-0.011": 0.0,
			"-0.01": 0.0445435654687,
			"-0.009": 1.70498294231,
			"-0.008": 5.07660963733,
			"-0.007": 7.31905899287,
			"-0.006": 8.52474290774,
			"-0.005": 11.4213603013,
			"-0.004": 11.8048819896,
			"-0.003": 16.7674437315,
			"-0.002": 14.8134490305,
			"-0.001": 16.8194871501,
			"0.0": 15.7911342501,
			"0.001": 10.6976148876,
			"0.002": 7.7892615654,
			"0.003": 4.82395228868,
			"0.004": 5.68852305449,
			"0.005": 5.19841705684,
			"0.006": 5.1475534947,
			"0.007": 5.3404072504,
			"0.008": 5.5589112877,
			"0.009": 5.30223240201,
			"0.01": 4.17218141718,
			"0.011": 2.9635526409,
			"0.012": 2.50657581618,
			"0.013": 0.344612873986,
			"0.014": 0.0,
			"0.015": 0.0,
			"0.016": 0.0,
			"0.017": 0.0,
			"0.018": 0.0,
			"0.019": 0.0,
			"0.02": 0.0,
			"0.021": 0.0,
			"0.022": 0.0,
			"0.023": 0.0,
			"0.024": 0.0,
			"0.025": 0.0
		}
	}
}
