{
	 "smiles": "CN(C(C)=O)C1=C(I)C(C(=O)N[C@H]2C(O)O[C@H](CO)[C@@H](O)[C@@H]2O)=C(I)C(NC(C)=O)=C1I", 
	 "Tm": 496.15, 
	 "num_atms": 54, 
	 "gaussian": { 
		 "optdone": 1, 
		 "sigma_profile": "no", 
		 "theory": "DFT", 
		 "functional": "B3LYP", 
		 "basiset": "6-31G**", 
		 "properties": { 
			 "R2extent": 16603.1083, 
			 "electric_dipole_moment_norm": 4.17767273611, 
			 "electric_quadrupole_moment_norm": 29.8680646842, 
			 "total_energy": -1499.35497414, 
			 "HOMO_LUMO_gap": 0.16531, 
			 "cosmo_polarized_energy": -172229.62, 
			 "cosmo_cavitation_energy": 64.05, 
			 "cosmo_dispersion_energy": -41.75, 
			 "cosmo_repulsion_energy": 3.09, 
			 "cosmo_total_nonelectrostatic_energy": 25.39, 
			 "SMD_solvation_energy": 11.41 
		},
		"coords": [
			{
				"x": -4.869020997,
				"y": 1.0708016179,
				"z": -0.5809877546,
				"element": "C" 
			},
			{
				"x": -4.1985360398,
				"y": 1.4204648159,
				"z": 0.674656424,
				"element": "N" 
			},
			{
				"x": -4.7294296663,
				"y": 2.4338282647,
				"z": 1.4751752286,
				"element": "C" 
			},
			{
				"x": -3.990226801,
				"y": 2.7405320567,
				"z": 2.7644491004,
				"element": "C" 
			},
			{
				"x": -5.7390677622,
				"y": 3.0335337746,
				"z": 1.1425179619,
				"element": "O" 
			},
			{
				"x": -3.0300838053,
				"y": 0.69137341,
				"z": 1.0150104158,
				"element": "C" 
			},
			{
				"x": -1.7530200855,
				"y": 1.1297113559,
				"z": 0.6111787761,
				"element": "C" 
			},
			{
				"x": -1.6086877294,
				"y": 2.9352978095,
				"z": -0.4926913816,
				"element": "I" 
			},
			{
				"x": -0.5878225339,
				"y": 0.4148179758,
				"z": 0.9262736906,
				"element": "C" 
			},
			{
				"x": 0.7810423581,
				"y": 0.9975452977,
				"z": 0.6004630925,
				"element": "C" 
			},
			{
				"x": 1.3345435115,
				"y": 1.7651740364,
				"z": 1.3758297754,
				"element": "O" 
			},
			{
				"x": 1.304826731,
				"y": 0.6089825349,
				"z": -0.5887233542,
				"element": "N" 
			},
			{
				"x": 2.5534053008,
				"y": 1.1755370255,
				"z": -1.0890619609,
				"element": "C" 
			},
			{
				"x": 3.7948666289,
				"y": 0.6481978867,
				"z": -0.3293541312,
				"element": "C" 
			},
			{
				"x": 4.7763646981,
				"y": 1.6506310075,
				"z": -0.453555884,
				"element": "O" 
			},
			{
				"x": 4.3429498359,
				"y": -0.5302403696,
				"z": -0.9201090935,
				"element": "O" 
			},
			{
				"x": 3.418153346,
				"y": -1.4036500722,
				"z": -1.584732759,
				"element": "C" 
			},
			{
				"x": 4.2414911564,
				"y": -2.6239089251,
				"z": -1.9810381891,
				"element": "C" 
			},
			{
				"x": 4.7783623577,
				"y": -3.284308477,
				"z": -0.853730871,
				"element": "O" 
			},
			{
				"x": 2.7382573746,
				"y": -0.6946761478,
				"z": -2.7778027701,
				"element": "C" 
			},
			{
				"x": 1.369547821,
				"y": -1.1162635507,
				"z": -2.9001990522,
				"element": "O" 
			},
			{
				"x": 2.7077836099,
				"y": 0.8424980337,
				"z": -2.5831849247,
				"element": "C" 
			},
			{
				"x": 3.8472748209,
				"y": 1.4595893177,
				"z": -3.1391390333,
				"element": "O" 
			},
			{
				"x": -0.7151749413,
				"y": -0.7871141679,
				"z": 1.6346253202,
				"element": "C" 
			},
			{
				"x": 1.0076667059,
				"y": -1.9173633212,
				"z": 2.1425077805,
				"element": "I" 
			},
			{
				"x": -1.9705980051,
				"y": -1.2851281522,
				"z": 2.0371556543,
				"element": "C" 
			},
			{
				"x": -2.076330618,
				"y": -2.4948586823,
				"z": 2.7611854259,
				"element": "N" 
			},
			{
				"x": -2.2796194085,
				"y": -3.7735410303,
				"z": 2.2543449218,
				"element": "C" 
			},
			{
				"x": -2.4413800687,
				"y": -3.8869730233,
				"z": 0.7510736844,
				"element": "C" 
			},
			{
				"x": -2.3181692925,
				"y": -4.7289527497,
				"z": 3.0086927536,
				"element": "O" 
			},
			{
				"x": -3.111918277,
				"y": -0.518160268,
				"z": 1.7333826242,
				"element": "C" 
			},
			{
				"x": -4.9980818356,
				"y": -1.1847733658,
				"z": 2.4210148816,
				"element": "I" 
			},
			{
				"x": -5.7296948685,
				"y": 1.7315204095,
				"z": -0.6775535612,
				"element": "H" 
			},
			{
				"x": -4.1961889009,
				"y": 1.218878078,
				"z": -1.4316208592,
				"element": "H" 
			},
			{
				"x": -5.2080279796,
				"y": 0.029999699,
				"z": -0.5621422326,
				"element": "H" 
			},
			{
				"x": -4.5280951134,
				"y": 3.5428354892,
				"z": 3.2683898103,
				"element": "H" 
			},
			{
				"x": -3.9522765314,
				"y": 1.8654166238,
				"z": 3.4202934838,
				"element": "H" 
			},
			{
				"x": -2.9623599656,
				"y": 3.0618177205,
				"z": 2.5711687205,
				"element": "H" 
			},
			{
				"x": 0.8041343007,
				"y": -0.0391933963,
				"z": -1.1877599562,
				"element": "H" 
			},
			{
				"x": 2.5361207448,
				"y": 2.2589069784,
				"z": -0.9399062309,
				"element": "H" 
			},
			{
				"x": 3.5576174176,
				"y": 0.4534237995,
				"z": 0.7237295719,
				"element": "H" 
			},
			{
				"x": 5.5892399355,
				"y": 1.3248423443,
				"z": -0.0424703123,
				"element": "H" 
			},
			{
				"x": 2.6397857538,
				"y": -1.717947974,
				"z": -0.8757879869,
				"element": "H" 
			},
			{
				"x": 3.6040087672,
				"y": -3.3476924513,
				"z": -2.5025629399,
				"element": "H" 
			},
			{
				"x": 5.0281361733,
				"y": -2.3035009024,
				"z": -2.6836236153,
				"element": "H" 
			},
			{
				"x": 5.2539105368,
				"y": -2.6062691655,
				"z": -0.3532524974,
				"element": "H" 
			},
			{
				"x": 3.2836444166,
				"y": -0.8849562267,
				"z": -3.7115857175,
				"element": "H" 
			},
			{
				"x": 1.346823697,
				"y": -2.0658228192,
				"z": -3.0757549657,
				"element": "H" 
			},
			{
				"x": 1.8326725157,
				"y": 1.2088729373,
				"z": -3.1323050796,
				"element": "H" 
			},
			{
				"x": 4.5211643579,
				"y": 1.5455801037,
				"z": -2.445354824,
				"element": "H" 
			},
			{
				"x": -1.9366567009,
				"y": -2.4720427196,
				"z": 3.7651441614,
				"element": "H" 
			},
			{
				"x": -2.5688426346,
				"y": -4.9407266108,
				"z": 0.5057780167,
				"element": "H" 
			},
			{
				"x": -3.3154553558,
				"y": -3.3257570442,
				"z": 0.4063936151,
				"element": "H" 
			},
			{
				"x": -1.5618289557,
				"y": -3.4946887913,
				"z": 0.2307570465,
				"element": "H" 
			}
		],
		 "valence_orbital": [ 
			{
				"type": "occ",
				"energy": -0.26711,
				"method": "rhf"
			},
			{
				"type": "occ",
				"energy": -0.26558,
				"method": "rhf"
			},
			{
				"type": "occ",
				"energy": -0.26005,
				"method": "rhf"
			},
			{
				"type": "occ",
				"energy": -0.25475,
				"method": "rhf"
			},
			{
				"type": "occ",
				"energy": -0.25333,
				"method": "rhf"
			},
			{
				"type": "unocc",
				"energy": -0.08802,
				"method": "rhf"
			},
			{
				"type": "unocc",
				"energy": -0.06653,
				"method": "rhf"
			},
			{
				"type": "unocc",
				"energy": -0.06471,
				"method": "rhf"
			},
			{
				"type": "unocc",
				"energy": -0.04783,
				"method": "rhf"
			},
			{
				"type": "unocc",
				"energy": -0.04486,
				"method": "rhf"
			}
		],
		"cosmo_sigma_profile": { 
			"0.0": 0.0,
			"0.0": 0.0,
			"0.0": 0.0,
			"0.0": 0.0,
			"0.0": 0.0,
			"0.0": 0.0,
			"0.0": 0.0,
			"0.0": 0.0,
			"0.0": 0.0,
			"0.0": 0.0,
			"0.0": 0.0,
			"0.0": 0.0,
			"0.0": 0.0,
			"0.0": 0.0,
			"0.0": 0.0,
			"0.0": 0.0,
			"0.0": 0.0,
			"0.0": 0.0,
			"0.0": 0.0,
			"0.0": 0.0,
			"0.0": 0.0,
			"0.0": 0.0,
			"0.0": 0.0,
			"0.0": 0.0,
			"0.0": 0.0,
			"0.0": 0.0,
			"0.0": 0.0,
			"0.0": 0.0,
			"0.0": 0.0,
			"0.0": 0.0,
			"0.0": 0.0,
			"0.0": 0.0,
			"0.0": 0.0,
			"0.0": 0.0,
			"0.0": 0.0,
			"0.0": 0.0,
			"0.0": 0.0,
			"0.0": 0.0,
			"0.0": 0.0,
			"0.0": 0.0,
			"0.0": 0.0,
			"0.0": 0.0,
			"0.0": 0.0,
			"0.0": 0.0,
			"0.0": 0.0,
			"0.0": 0.0,
			"0.0": 0.0,
			"0.0": 0.0,
			"0.0": 0.0,
			"0.0": 0.0,
			"0.0": 0.0
		}
	}
}
