{
	 "smiles": "NC1=C(O)C=CC(I)=C1", 
	 "Tm": 409.15, 
	 "num_atms": 15, 
	 "gaussian": { 
		 "optdone": 1, 
		 "sigma_profile": "yes", 
		 "theory": "DFT", 
		 "functional": "B3LYP", 
		 "basiset": "6-31G**", 
		 "properties": { 
			 "R2extent": 1793.205, 
			 "electric_dipole_moment_norm": 2.68494788962, 
			 "electric_quadrupole_moment_norm": 7.70416668304, 
			 "total_energy": -373.61329517, 
			 "HOMO_LUMO_gap": 0.18095, 
			 "cosmo_polarized_energy": -8.94, 
			 "cosmo_cavitation_energy": 22.07, 
			 "cosmo_dispersion_energy": -18.13, 
			 "cosmo_repulsion_energy": 1.47, 
			 "cosmo_total_nonelectrostatic_energy": 5.41, 
			 "SMD_solvation_energy": 3.56 
		},
		"coords": [
			{
				"x": -0.1425634848,
				"y": 0.8532606797,
				"z": 2.3022108638,
				"element": "N" 
			},
			{
				"x": 0.1249658804,
				"y": -0.2846023893,
				"z": 1.4570183508,
				"element": "C" 
			},
			{
				"x": 0.5477944774,
				"y": -1.4448012944,
				"z": 2.1344585844,
				"element": "C" 
			},
			{
				"x": 0.6719822176,
				"y": -1.4209749653,
				"z": 3.4790972903,
				"element": "O" 
			},
			{
				"x": 0.8346729067,
				"y": -2.6081265095,
				"z": 1.4133744121,
				"element": "C" 
			},
			{
				"x": 0.7019542057,
				"y": -2.617950211,
				"z": 0.0262862282,
				"element": "C" 
			},
			{
				"x": 0.2819878238,
				"y": -1.4639942739,
				"z": -0.6413707867,
				"element": "C" 
			},
			{
				"x": 0.0807105044,
				"y": -1.4823480756,
				"z": -2.7552074248,
				"element": "I" 
			},
			{
				"x": -0.007146879,
				"y": -0.2971191626,
				"z": 0.0676382149,
				"element": "C" 
			},
			{
				"x": 0.4550720063,
				"y": 1.6422028223,
				"z": 2.0694769514,
				"element": "H" 
			},
			{
				"x": -1.1063493212,
				"y": 1.1655532952,
				"z": 2.2168572976,
				"element": "H" 
			},
			{
				"x": 0.4143195571,
				"y": -0.5083644222,
				"z": 3.7267626823,
				"element": "H" 
			},
			{
				"x": 1.1591846459,
				"y": -3.4946077991,
				"z": 1.9478842908,
				"element": "H" 
			},
			{
				"x": 0.9254313722,
				"y": -3.5223548072,
				"z": -0.5283851397,
				"element": "H" 
			},
			{
				"x": -0.3334159126,
				"y": 0.6008271129,
				"z": -0.4474018155,
				"element": "H" 
			}
		],
		 "valence_orbital": [ 
			{
				"type": "occ",
				"energy": -0.28637,
				"method": "rhf"
			},
			{
				"type": "occ",
				"energy": -0.27392,
				"method": "rhf"
			},
			{
				"type": "occ",
				"energy": -0.2647,
				"method": "rhf"
			},
			{
				"type": "occ",
				"energy": -0.26148,
				"method": "rhf"
			},
			{
				"type": "occ",
				"energy": -0.21616,
				"method": "rhf"
			},
			{
				"type": "unocc",
				"energy": -0.03521,
				"method": "rhf"
			},
			{
				"type": "unocc",
				"energy": -0.01667,
				"method": "rhf"
			},
			{
				"type": "unocc",
				"energy": -0.0,
				"method": "rhf"
			},
			{
				"type": "unocc",
				"energy": 0.041,
				"method": "rhf"
			},
			{
				"type": "unocc",
				"energy": 0.05221,
				"method": "rhf"
			}
		],
		"cosmo_sigma_profile": { 
			"-0.025": 0.0,
			"-0.024": 0.0,
			"-0.023": 0.0,
			"-0.022": 0.0,
			"-0.021": 0.0,
			"-0.02": 0.0,
			"-0.019": 0.0,
			"-0.018": 0.0,
			"-0.017": 0.0,
			"-0.016": 0.0,
			"-0.015": 0.0,
			"-0.014": 0.0,
			"-0.013": 0.0636082936748,
			"-0.012": 1.71564161267,
			"-0.011": 3.7647686678,
			"-0.01": 2.55270126691,
			"-0.009": 3.29753755997,
			"-0.008": 3.92403363414,
			"-0.007": 5.18274829071,
			"-0.006": 9.80358531055,
			"-0.005": 9.54255020739,
			"-0.004": 9.55010992864,
			"-0.003": 7.79039897292,
			"-0.002": 9.54029369097,
			"-0.001": 8.77990875228,
			"0.0": 9.8097451273,
			"0.001": 11.0559628226,
			"0.002": 13.2165970583,
			"0.003": 19.296437929,
			"0.004": 22.4238268446,
			"0.005": 17.3298686336,
			"0.006": 2.37188231437,
			"0.007": 1.73930688319,
			"0.008": 1.60489414408,
			"0.009": 1.70259856998,
			"0.01": 1.46903635342,
			"0.011": 2.00715985774,
			"0.012": 1.36277086011,
			"0.013": 0.0,
			"0.014": 0.0,
			"0.015": 0.0,
			"0.016": 0.0,
			"0.017": 0.0,
			"0.018": 0.0,
			"0.019": 0.0,
			"0.02": 0.0,
			"0.021": 0.0,
			"0.022": 0.0,
			"0.023": 0.0,
			"0.024": 0.0,
			"0.025": 0.0
		}
	}
}
