{
	 "smiles": "NC1=CC(Cl)=C(C=C1)N1C=NC=N1", 
	 "Tm": 405.15, 
	 "num_atms": 20, 
	 "gaussian": { 
		 "optdone": 1, 
		 "sigma_profile": "yes", 
		 "theory": "DFT", 
		 "functional": "B3LYP", 
		 "basiset": "6-31G**", 
		 "properties": { 
			 "R2extent": 4433.3302, 
			 "electric_dipole_moment_norm": 5.89038766891, 
			 "electric_quadrupole_moment_norm": 13.6417924746, 
			 "total_energy": -988.247584669, 
			 "HOMO_LUMO_gap": 0.1939, 
			 "cosmo_polarized_energy": -14.73, 
			 "cosmo_cavitation_energy": 26.41, 
			 "cosmo_dispersion_energy": -19.62, 
			 "cosmo_repulsion_energy": 1.53, 
			 "cosmo_total_nonelectrostatic_energy": 8.33, 
			 "SMD_solvation_energy": 2.38 
		},
		"coords": [
			{
				"x": 0.7607681539,
				"y": -2.966508259,
				"z": -1.6931024439,
				"element": "N" 
			},
			{
				"x": 1.0143674464,
				"y": -1.6774642434,
				"z": -1.2465275163,
				"element": "C" 
			},
			{
				"x": 2.2908830433,
				"y": -1.1098747329,
				"z": -1.3879619091,
				"element": "C" 
			},
			{
				"x": 2.5626116739,
				"y": 0.1603508258,
				"z": -0.8870035797,
				"element": "C" 
			},
			{
				"x": 4.2039143961,
				"y": 0.7629180668,
				"z": -1.0563785129,
				"element": "Cl" 
			},
			{
				"x": 1.5663298384,
				"y": 0.9162111544,
				"z": -0.2530613006,
				"element": "C" 
			},
			{
				"x": 0.2969656555,
				"y": 0.3405642731,
				"z": -0.1104535858,
				"element": "C" 
			},
			{
				"x": 0.0196250452,
				"y": -0.9300603151,
				"z": -0.5883642592,
				"element": "C" 
			},
			{
				"x": 1.7819820329,
				"y": 2.2197652356,
				"z": 0.2685975847,
				"element": "N" 
			},
			{
				"x": 2.3653858558,
				"y": 3.3124324272,
				"z": -0.2948236567,
				"element": "C" 
			},
			{
				"x": 2.2662970797,
				"y": 4.3563779415,
				"z": 0.5059069047,
				"element": "N" 
			},
			{
				"x": 1.586470649,
				"y": 3.8471803807,
				"z": 1.5729270822,
				"element": "C" 
			},
			{
				"x": 1.2632251691,
				"y": 2.5676039344,
				"z": 1.4850501425,
				"element": "N" 
			},
			{
				"x": 1.3766928178,
				"y": -3.3244863824,
				"z": -2.4084228137,
				"element": "H" 
			},
			{
				"x": -0.2082163392,
				"y": -3.1999237017,
				"z": -1.8538036759,
				"element": "H" 
			},
			{
				"x": 3.0866483965,
				"y": -1.6662633134,
				"z": -1.8715985877,
				"element": "H" 
			},
			{
				"x": -0.4669352513,
				"y": 0.9181079979,
				"z": 0.3973460726,
				"element": "H" 
			},
			{
				"x": -0.9729261276,
				"y": -1.3509764817,
				"z": -0.4560111921,
				"element": "H" 
			},
			{
				"x": 2.8328597418,
				"y": 3.2917790627,
				"z": -1.2673850464,
				"element": "H" 
			},
			{
				"x": 1.3242507228,
				"y": 4.4353661293,
				"z": 2.4417702933,
				"element": "H" 
			}
		],
		 "valence_orbital": [ 
			{
				"type": "occ",
				"energy": -0.2893,
				"method": "rhf"
			},
			{
				"type": "occ",
				"energy": -0.27188,
				"method": "rhf"
			},
			{
				"type": "occ",
				"energy": -0.26525,
				"method": "rhf"
			},
			{
				"type": "occ",
				"energy": -0.26022,
				"method": "rhf"
			},
			{
				"type": "occ",
				"energy": -0.21755,
				"method": "rhf"
			},
			{
				"type": "unocc",
				"energy": -0.02365,
				"method": "rhf"
			},
			{
				"type": "unocc",
				"energy": -0.02091,
				"method": "rhf"
			},
			{
				"type": "unocc",
				"energy": 0.01763,
				"method": "rhf"
			},
			{
				"type": "unocc",
				"energy": 0.02469,
				"method": "rhf"
			},
			{
				"type": "unocc",
				"energy": 0.05874,
				"method": "rhf"
			}
		],
		"cosmo_sigma_profile": { 
			"-0.025": 0.0,
			"-0.024": 0.0,
			"-0.023": 0.0,
			"-0.022": 0.0,
			"-0.021": 0.0,
			"-0.02": 0.0,
			"-0.019": 0.0,
			"-0.018": 0.0,
			"-0.017": 0.0,
			"-0.016": 0.0,
			"-0.015": 0.0,
			"-0.014": 0.19763336942,
			"-0.013": 2.88642072542,
			"-0.012": 3.08401588737,
			"-0.011": 2.88989656445,
			"-0.01": 4.16979252773,
			"-0.009": 5.69882701358,
			"-0.008": 7.74056147521,
			"-0.007": 7.08941765833,
			"-0.006": 9.38948771534,
			"-0.005": 7.05262342124,
			"-0.004": 8.58886779526,
			"-0.003": 8.63738676952,
			"-0.002": 10.8456241486,
			"-0.001": 11.9846678495,
			"0.0": 14.0384933174,
			"0.001": 18.9437514996,
			"0.002": 19.1601012374,
			"0.003": 21.6893229712,
			"0.004": 16.6298927587,
			"0.005": 5.65904202599,
			"0.006": 3.56182173111,
			"0.007": 3.89167210462,
			"0.008": 3.20295137339,
			"0.009": 2.72404888763,
			"0.01": 2.92242100074,
			"0.011": 2.86422677609,
			"0.012": 3.0213808728,
			"0.013": 1.82394314373,
			"0.014": 1.73681798982,
			"0.015": 1.31813510333,
			"0.016": 0.789983392912,
			"0.017": 0.139771323534,
			"0.018": 0.0,
			"0.019": 0.0,
			"0.02": 0.0,
			"0.021": 0.0,
			"0.022": 0.0,
			"0.023": 0.0,
			"0.024": 0.0,
			"0.025": 0.0
		}
	}
}
