{
	 "smiles": "OP(O)(=O)CCP(O)(O)=O", 
	 "Tm": 491.15, 
	 "num_atms": 18, 
	 "gaussian": { 
		 "optdone": 1, 
		 "sigma_profile": "yes", 
		 "theory": "DFT", 
		 "functional": "B3LYP", 
		 "basiset": "6-31G**", 
		 "properties": { 
			 "R2extent": 2505.4415, 
			 "electric_dipole_moment_norm": 3.79388100762, 
			 "electric_quadrupole_moment_norm": 11.8041388564, 
			 "total_energy": -1215.24225742, 
			 "HOMO_LUMO_gap": 0.29906, 
			 "cosmo_polarized_energy": -25.95, 
			 "cosmo_cavitation_energy": 24.77, 
			 "cosmo_dispersion_energy": -18.91, 
			 "cosmo_repulsion_energy": 1.5, 
			 "cosmo_total_nonelectrostatic_energy": 7.36, 
			 "SMD_solvation_energy": 8.58 
		},
		"coords": [
			{
				"x": -0.5346031218,
				"y": 1.3555903277,
				"z": -3.2539475527,
				"element": "O" 
			},
			{
				"x": -1.3357978509,
				"y": 0.9049292809,
				"z": -1.9189728692,
				"element": "P" 
			},
			{
				"x": -2.6299432794,
				"y": 0.1154749158,
				"z": -2.4786160508,
				"element": "O" 
			},
			{
				"x": -1.6412203524,
				"y": 2.0704772236,
				"z": -1.0288441654,
				"element": "O" 
			},
			{
				"x": -0.3621025671,
				"y": -0.4501999222,
				"z": -1.2164243128,
				"element": "C" 
			},
			{
				"x": -0.895703732,
				"y": -1.0119070531,
				"z": 0.117200896,
				"element": "C" 
			},
			{
				"x": -0.6266224913,
				"y": 0.1282977751,
				"z": 1.5280956678,
				"element": "P" 
			},
			{
				"x": -1.8363729159,
				"y": 1.1821767152,
				"z": 1.5119808712,
				"element": "O" 
			},
			{
				"x": -1.0379075863,
				"y": -0.8143939171,
				"z": 2.7825390369,
				"element": "O" 
			},
			{
				"x": 0.7560414947,
				"y": 0.6752786269,
				"z": 1.5740058048,
				"element": "O" 
			},
			{
				"x": -0.2362995036,
				"y": 2.2732534951,
				"z": -3.1695069437,
				"element": "H" 
			},
			{
				"x": -3.3643522134,
				"y": 0.7160812632,
				"z": -2.6743440643,
				"element": "H" 
			},
			{
				"x": 0.6527693106,
				"y": -0.0649984428,
				"z": -1.0724506742,
				"element": "H" 
			},
			{
				"x": -0.3159513444,
				"y": -1.2349217417,
				"z": -1.9787270467,
				"element": "H" 
			},
			{
				"x": -0.3385224381,
				"y": -1.9227094282,
				"z": 0.3568202249,
				"element": "H" 
			},
			{
				"x": -1.9527034448,
				"y": -1.285726892,
				"z": 0.0499594788,
				"element": "H" 
			},
			{
				"x": -1.8100234334,
				"y": 1.7292372778,
				"z": 0.6887854977,
				"element": "H" 
			},
			{
				"x": -0.4938845304,
				"y": -0.5908395042,
				"z": 3.5511462018,
				"element": "H" 
			}
		],
		 "valence_orbital": [ 
			{
				"type": "occ",
				"energy": -0.3226,
				"method": "rhf"
			},
			{
				"type": "occ",
				"energy": -0.31958,
				"method": "rhf"
			},
			{
				"type": "occ",
				"energy": -0.30834,
				"method": "rhf"
			},
			{
				"type": "occ",
				"energy": -0.2784,
				"method": "rhf"
			},
			{
				"type": "occ",
				"energy": -0.27416,
				"method": "rhf"
			},
			{
				"type": "unocc",
				"energy": 0.0249,
				"method": "rhf"
			},
			{
				"type": "unocc",
				"energy": 0.04835,
				"method": "rhf"
			},
			{
				"type": "unocc",
				"energy": 0.0561,
				"method": "rhf"
			},
			{
				"type": "unocc",
				"energy": 0.06455,
				"method": "rhf"
			},
			{
				"type": "unocc",
				"energy": 0.0961,
				"method": "rhf"
			}
		],
		"cosmo_sigma_profile": { 
			"-0.025": 0.0,
			"-0.024": 0.0,
			"-0.023": 0.0,
			"-0.022": 0.0,
			"-0.021": 0.0,
			"-0.02": 0.48197953909,
			"-0.019": 2.49610218541,
			"-0.018": 3.39795652655,
			"-0.017": 2.3889061575,
			"-0.016": 2.21210363518,
			"-0.015": 2.08180208099,
			"-0.014": 2.50004989336,
			"-0.013": 2.45714867686,
			"-0.012": 1.86723315481,
			"-0.011": 1.94651968252,
			"-0.01": 2.95421095378,
			"-0.009": 2.41606083678,
			"-0.008": 3.85428572881,
			"-0.007": 8.96489403281,
			"-0.006": 10.5518087672,
			"-0.005": 10.3713737927,
			"-0.004": 10.1721408001,
			"-0.003": 8.77612458056,
			"-0.002": 7.79321834311,
			"-0.001": 6.5435791685,
			"0.0": 6.44600698679,
			"0.001": 6.62098107142,
			"0.002": 6.19051774242,
			"0.003": 5.29354607352,
			"0.004": 4.70822347433,
			"0.005": 5.69664491682,
			"0.006": 7.44795852553,
			"0.007": 7.19810155748,
			"0.008": 6.19362734608,
			"0.009": 6.4839857861,
			"0.01": 7.82181464763,
			"0.011": 6.47849489372,
			"0.012": 3.5415752457,
			"0.013": 3.72774501925,
			"0.014": 2.75332139584,
			"0.015": 6.1679974442,
			"0.016": 1.5381815325,
			"0.017": 0.0,
			"0.018": 0.0,
			"0.019": 0.0,
			"0.02": 0.0,
			"0.021": 0.0,
			"0.022": 0.0,
			"0.023": 0.0,
			"0.024": 0.0,
			"0.025": 0.0
		}
	}
}
