{
	 "smiles": "CC1=CC(C)=C(CO)C=C1", 
	 "Tm": 295.15, 
	 "num_atms": 22, 
	 "gaussian": { 
		 "optdone": 1, 
		 "sigma_profile": "yes", 
		 "theory": "DFT", 
		 "functional": "B3LYP", 
		 "basiset": "6-31G**", 
		 "properties": { 
			 "R2extent": 1763.7668, 
			 "electric_dipole_moment_norm": 1.56623285625, 
			 "electric_quadrupole_moment_norm": 6.40959350193, 
			 "total_energy": -425.418603152, 
			 "HOMO_LUMO_gap": 0.22686, 
			 "cosmo_polarized_energy": -6.73, 
			 "cosmo_cavitation_energy": 24.49, 
			 "cosmo_dispersion_energy": -17.91, 
			 "cosmo_repulsion_energy": 1.46, 
			 "cosmo_total_nonelectrostatic_energy": 8.04, 
			 "SMD_solvation_energy": 4.36 
		},
		"coords": [
			{
				"x": -0.7472801405,
				"y": 1.7792589831,
				"z": 3.0047786648,
				"element": "C" 
			},
			{
				"x": -0.4029205758,
				"y": 1.09772118,
				"z": 1.701153628,
				"element": "C" 
			},
			{
				"x": -0.2679342882,
				"y": 1.8443553494,
				"z": 0.5205166404,
				"element": "C" 
			},
			{
				"x": 0.0378922715,
				"y": 1.2571661338,
				"z": -0.7088626929,
				"element": "C" 
			},
			{
				"x": 0.1896162312,
				"y": 2.1126714507,
				"z": -1.945712133,
				"element": "C" 
			},
			{
				"x": 0.2154312692,
				"y": -0.1447730902,
				"z": -0.7658865812,
				"element": "C" 
			},
			{
				"x": 0.5162961218,
				"y": -0.8464419673,
				"z": -2.0725472476,
				"element": "C" 
			},
			{
				"x": -0.5558680768,
				"y": -0.7730910034,
				"z": -3.0168427825,
				"element": "O" 
			},
			{
				"x": 0.081629881,
				"y": -0.8915771017,
				"z": 0.4072257886,
				"element": "C" 
			},
			{
				"x": -0.2200298576,
				"y": -0.2846497814,
				"z": 1.6280673982,
				"element": "C" 
			},
			{
				"x": -0.6745343587,
				"y": 1.0876587013,
				"z": 3.8487627287,
				"element": "H" 
			},
			{
				"x": -1.7694105624,
				"y": 2.1766830664,
				"z": 2.9887246507,
				"element": "H" 
			},
			{
				"x": -0.0787156574,
				"y": 2.624273154,
				"z": 3.2033337971,
				"element": "H" 
			},
			{
				"x": -0.4038105427,
				"y": 2.9236635472,
				"z": 0.5629198218,
				"element": "H" 
			},
			{
				"x": -0.3867938993,
				"y": 1.7027889541,
				"z": -2.7789067895,
				"element": "H" 
			},
			{
				"x": 1.2369515412,
				"y": 2.1540175285,
				"z": -2.2726072888,
				"element": "H" 
			},
			{
				"x": -0.1357591578,
				"y": 3.1392533108,
				"z": -1.7571462518,
				"element": "H" 
			},
			{
				"x": 1.3710055982,
				"y": -0.3855812549,
				"z": -2.5794667773,
				"element": "H" 
			},
			{
				"x": 0.7870566433,
				"y": -1.8938100035,
				"z": -1.8696182539,
				"element": "H" 
			},
			{
				"x": -1.3564621084,
				"y": -1.0593934077,
				"z": -2.5573049095,
				"element": "H" 
			},
			{
				"x": 0.2209242833,
				"y": -1.9699564376,
				"z": 0.3663206476,
				"element": "H" 
			},
			{
				"x": -0.3151846152,
				"y": -0.8910373117,
				"z": 2.5252979422,
				"element": "H" 
			}
		],
		 "valence_orbital": [ 
			{
				"type": "occ",
				"energy": -0.33142,
				"method": "rhf"
			},
			{
				"type": "occ",
				"energy": -0.31765,
				"method": "rhf"
			},
			{
				"type": "occ",
				"energy": -0.26753,
				"method": "rhf"
			},
			{
				"type": "occ",
				"energy": -0.24097,
				"method": "rhf"
			},
			{
				"type": "occ",
				"energy": -0.23081,
				"method": "rhf"
			},
			{
				"type": "unocc",
				"energy": -0.00395,
				"method": "rhf"
			},
			{
				"type": "unocc",
				"energy": 0.00426,
				"method": "rhf"
			},
			{
				"type": "unocc",
				"energy": 0.09249,
				"method": "rhf"
			},
			{
				"type": "unocc",
				"energy": 0.1023,
				"method": "rhf"
			},
			{
				"type": "unocc",
				"energy": 0.11734,
				"method": "rhf"
			}
		],
		"cosmo_sigma_profile": { 
			"-0.025": 0.0,
			"-0.024": 0.0,
			"-0.023": 0.0,
			"-0.022": 0.0,
			"-0.021": 0.0,
			"-0.02": 0.0,
			"-0.019": 0.0,
			"-0.018": 0.0,
			"-0.017": 0.0,
			"-0.016": 0.0,
			"-0.015": 0.563960926628,
			"-0.014": 1.07494728201,
			"-0.013": 0.411131128542,
			"-0.012": 0.701803060629,
			"-0.011": 1.06612394441,
			"-0.01": 0.652407778424,
			"-0.009": 0.963663090364,
			"-0.008": 0.892653627543,
			"-0.007": 0.565100745006,
			"-0.006": 1.12211379861,
			"-0.005": 6.54961737838,
			"-0.004": 20.9098019797,
			"-0.003": 22.8889363444,
			"-0.002": 19.3115045741,
			"-0.001": 19.0672247249,
			"0.0": 20.9633153533,
			"0.001": 17.3282846153,
			"0.002": 10.0219442957,
			"0.003": 9.0621110312,
			"0.004": 8.04526439537,
			"0.005": 7.67030341549,
			"0.006": 8.4856429794,
			"0.007": 4.49265319401,
			"0.008": 1.40511468005,
			"0.009": 0.958700726235,
			"0.01": 1.10455274037,
			"0.011": 0.916868184587,
			"0.012": 1.47508166508,
			"0.013": 1.36565832765,
			"0.014": 1.48701459972,
			"0.015": 0.568833795897,
			"0.016": 0.0,
			"0.017": 0.0,
			"0.018": 0.0,
			"0.019": 0.0,
			"0.02": 0.0,
			"0.021": 0.0,
			"0.022": 0.0,
			"0.023": 0.0,
			"0.024": 0.0,
			"0.025": 0.0
		}
	}
}
