{
	 "smiles": "COC1=CC2=C(C=C1)C(CC(O)=O)CCC2", 
	 "Tm": 358.15, 
	 "num_atms": 32, 
	 "gaussian": { 
		 "optdone": 1, 
		 "sigma_profile": "yes", 
		 "theory": "DFT", 
		 "functional": "B3LYP", 
		 "basiset": "6-31G**", 
		 "properties": { 
			 "R2extent": 4419.4573, 
			 "electric_dipole_moment_norm": 2.01717815525, 
			 "electric_quadrupole_moment_norm": 12.1817407754, 
			 "total_energy": -730.715119501, 
			 "HOMO_LUMO_gap": 0.21032, 
			 "cosmo_polarized_energy": -13.57, 
			 "cosmo_cavitation_energy": 33.5, 
			 "cosmo_dispersion_energy": -23.83, 
			 "cosmo_repulsion_energy": 1.86, 
			 "cosmo_total_nonelectrostatic_energy": 11.53, 
			 "SMD_solvation_energy": 6.64 
		},
		"coords": [
			{
				"x": -1.0734682424,
				"y": 2.5807574082,
				"z": -3.7086211179,
				"element": "C" 
			},
			{
				"x": -1.7411193254,
				"y": 1.3374709392,
				"z": -3.578358101,
				"element": "O" 
			},
			{
				"x": -1.3336555625,
				"y": 0.4868909932,
				"z": -2.589343384,
				"element": "C" 
			},
			{
				"x": -0.2905574889,
				"y": 0.7404037897,
				"z": -1.6999595448,
				"element": "C" 
			},
			{
				"x": 0.0588384898,
				"y": -0.1943719531,
				"z": -0.7095503361,
				"element": "C" 
			},
			{
				"x": -0.6528962988,
				"y": -1.3973816093,
				"z": -0.6011201924,
				"element": "C" 
			},
			{
				"x": -1.6930818027,
				"y": -1.6381474316,
				"z": -1.5171583636,
				"element": "C" 
			},
			{
				"x": -2.0383113982,
				"y": -0.723326618,
				"z": -2.4972913719,
				"element": "C" 
			},
			{
				"x": -0.3261026938,
				"y": -2.4568867991,
				"z": 0.4472975361,
				"element": "C" 
			},
			{
				"x": -1.5032428845,
				"y": -2.7035643971,
				"z": 1.4461697385,
				"element": "C" 
			},
			{
				"x": -1.8166263875,
				"y": -1.549584343,
				"z": 2.3713831872,
				"element": "C" 
			},
			{
				"x": -1.2690617698,
				"y": -1.7254909066,
				"z": 3.605993198,
				"element": "O" 
			},
			{
				"x": -2.4667698392,
				"y": -0.5673199672,
				"z": 2.0916422948,
				"element": "O" 
			},
			{
				"x": 1.0208191312,
				"y": -2.1979796604,
				"z": 1.1569644903,
				"element": "C" 
			},
			{
				"x": 1.2540022803,
				"y": -0.7159558897,
				"z": 1.4749139529,
				"element": "C" 
			},
			{
				"x": 1.2432546772,
				"y": 0.1133485033,
				"z": 0.1884263038,
				"element": "C" 
			},
			{
				"x": -0.0079746618,
				"y": 2.4483038711,
				"z": -3.9389693924,
				"element": "H" 
			},
			{
				"x": -1.5569398343,
				"y": 3.0985131037,
				"z": -4.5388267124,
				"element": "H" 
			},
			{
				"x": -1.1681114387,
				"y": 3.1896724903,
				"z": -2.8000040303,
				"element": "H" 
			},
			{
				"x": 0.2719837972,
				"y": 1.6661690026,
				"z": -1.7572413523,
				"element": "H" 
			},
			{
				"x": -2.2444016882,
				"y": -2.5744006444,
				"z": -1.4602504625,
				"element": "H" 
			},
			{
				"x": -2.8428090262,
				"y": -0.9162290434,
				"z": -3.1992186862,
				"element": "H" 
			},
			{
				"x": -0.2346518666,
				"y": -3.4159446382,
				"z": -0.080548608,
				"element": "H" 
			},
			{
				"x": -2.4137641261,
				"y": -2.9014392485,
				"z": 0.8747552713,
				"element": "H" 
			},
			{
				"x": -1.2721502033,
				"y": -3.5878376322,
				"z": 2.0469847642,
				"element": "H" 
			},
			{
				"x": -1.5151487016,
				"y": -0.9368731879,
				"z": 4.1190274491,
				"element": "H" 
			},
			{
				"x": 1.0799500183,
				"y": -2.8015399622,
				"z": 2.0695374329,
				"element": "H" 
			},
			{
				"x": 1.8313863241,
				"y": -2.5417991308,
				"z": 0.5008568639,
				"element": "H" 
			},
			{
				"x": 2.2124140869,
				"y": -0.5921681906,
				"z": 1.9921522634,
				"element": "H" 
			},
			{
				"x": 0.483745391,
				"y": -0.3468936841,
				"z": 2.1594507037,
				"element": "H" 
			},
			{
				"x": 1.2594618012,
				"y": 1.1844304253,
				"z": 0.4224902964,
				"element": "H" 
			},
			{
				"x": 2.1688892434,
				"y": -0.0859255891,
				"z": -0.3726840908,
				"element": "H" 
			}
		],
		 "valence_orbital": [ 
			{
				"type": "occ",
				"energy": -0.30204,
				"method": "rhf"
			},
			{
				"type": "occ",
				"energy": -0.29988,
				"method": "rhf"
			},
			{
				"type": "occ",
				"energy": -0.2664,
				"method": "rhf"
			},
			{
				"type": "occ",
				"energy": -0.23504,
				"method": "rhf"
			},
			{
				"type": "occ",
				"energy": -0.20611,
				"method": "rhf"
			},
			{
				"type": "unocc",
				"energy": 0.00421,
				"method": "rhf"
			},
			{
				"type": "unocc",
				"energy": 0.00687,
				"method": "rhf"
			},
			{
				"type": "unocc",
				"energy": 0.0216,
				"method": "rhf"
			},
			{
				"type": "unocc",
				"energy": 0.07486,
				"method": "rhf"
			},
			{
				"type": "unocc",
				"energy": 0.09559,
				"method": "rhf"
			}
		],
		"cosmo_sigma_profile": { 
			"-0.025": 0.0,
			"-0.024": 0.0,
			"-0.023": 0.0,
			"-0.022": 0.0,
			"-0.021": 0.0,
			"-0.02": 0.0,
			"-0.019": 0.0,
			"-0.018": 0.158324578786,
			"-0.017": 1.23962501835,
			"-0.016": 0.635306527101,
			"-0.015": 0.763915478685,
			"-0.014": 0.837255920946,
			"-0.013": 0.966675984664,
			"-0.012": 0.418254830894,
			"-0.011": 0.51311123493,
			"-0.01": 0.794296283587,
			"-0.009": 0.791282376955,
			"-0.008": 0.467000218177,
			"-0.007": 0.65833058574,
			"-0.006": 6.75369753053,
			"-0.005": 19.2261295963,
			"-0.004": 25.1358434913,
			"-0.003": 34.4130246731,
			"-0.002": 28.398740158,
			"-0.001": 23.479081275,
			"0.0": 20.1607317888,
			"0.001": 13.2442796849,
			"0.002": 9.20184723558,
			"0.003": 9.07332779073,
			"0.004": 12.2835165664,
			"0.005": 10.6386260318,
			"0.006": 10.7866020357,
			"0.007": 5.490770894,
			"0.008": 5.31294098703,
			"0.009": 5.15951205118,
			"0.01": 4.66464376721,
			"0.011": 4.26188060946,
			"0.012": 5.21540179433,
			"0.013": 1.20685077487,
			"0.014": 0.0,
			"0.015": 0.0,
			"0.016": 0.0,
			"0.017": 0.0,
			"0.018": 0.0,
			"0.019": 0.0,
			"0.02": 0.0,
			"0.021": 0.0,
			"0.022": 0.0,
			"0.023": 0.0,
			"0.024": 0.0,
			"0.025": 0.0
		}
	}
}
