{
	 "smiles": "CCC1=C(C)NC2=C(C=C(OC3=CC=CC=C3)C=C2)C1=O", 
	 "Tm": 540.15, 
	 "num_atms": 38, 
	 "gaussian": { 
		 "optdone": 1, 
		 "sigma_profile": "yes", 
		 "theory": "DFT", 
		 "functional": "B3LYP", 
		 "basiset": "6-31G**", 
		 "properties": { 
			 "R2extent": 9655.5298, 
			 "electric_dipole_moment_norm": 6.49000386595, 
			 "electric_quadrupole_moment_norm": 15.3808927267, 
			 "total_energy": -901.381353263, 
			 "HOMO_LUMO_gap": 0.15965, 
			 "cosmo_polarized_energy": -20.67, 
			 "cosmo_cavitation_energy": 41.36, 
			 "cosmo_dispersion_energy": -29.54, 
			 "cosmo_repulsion_energy": 2.24, 
			 "cosmo_total_nonelectrostatic_energy": 14.07, 
			 "SMD_solvation_energy": 7.25 
		},
		"coords": [
			{
				"x": 5.4402351726,
				"y": -0.5737627958,
				"z": 0.5501267969,
				"element": "C" 
			},
			{
				"x": 4.2802693289,
				"y": -0.6110426225,
				"z": 1.5618865361,
				"element": "C" 
			},
			{
				"x": 3.0107325669,
				"y": 0.012379055,
				"z": 1.0305016528,
				"element": "C" 
			},
			{
				"x": 2.6286828341,
				"y": 1.2965551368,
				"z": 1.3203867646,
				"element": "C" 
			},
			{
				"x": 3.4029476688,
				"y": 2.2314891197,
				"z": 2.216540397,
				"element": "C" 
			},
			{
				"x": 1.4603048947,
				"y": 1.8204779445,
				"z": 0.8144080506,
				"element": "N" 
			},
			{
				"x": 0.6039801717,
				"y": 1.1113607482,
				"z": -0.0070009303,
				"element": "C" 
			},
			{
				"x": 0.9396635829,
				"y": -0.211130092,
				"z": -0.352306308,
				"element": "C" 
			},
			{
				"x": 0.0817428058,
				"y": -0.9405865281,
				"z": -1.1918655607,
				"element": "C" 
			},
			{
				"x": -1.0847654136,
				"y": -0.3664396937,
				"z": -1.6650074452,
				"element": "C" 
			},
			{
				"x": -1.9510262165,
				"y": -1.1492445353,
				"z": -2.4071188344,
				"element": "O" 
			},
			{
				"x": -2.4203294553,
				"y": -0.7020222962,
				"z": -3.6258427333,
				"element": "C" 
			},
			{
				"x": -3.6476542495,
				"y": -1.2256344616,
				"z": -4.0430439075,
				"element": "C" 
			},
			{
				"x": -4.1619705031,
				"y": -0.8655533755,
				"z": -5.287022927,
				"element": "C" 
			},
			{
				"x": -3.4634742212,
				"y": 0.0179261839,
				"z": -6.1143971717,
				"element": "C" 
			},
			{
				"x": -2.2381614961,
				"y": 0.5322088457,
				"z": -5.6879672119,
				"element": "C" 
			},
			{
				"x": -1.7061449759,
				"y": 0.175654117,
				"z": -4.4472225012,
				"element": "C" 
			},
			{
				"x": -1.4234775568,
				"y": 0.9552470956,
				"z": -1.3130251303,
				"element": "C" 
			},
			{
				"x": -0.5834424477,
				"y": 1.6905334244,
				"z": -0.4953140816,
				"element": "C" 
			},
			{
				"x": 2.1884720025,
				"y": -0.8257587673,
				"z": 0.1542042759,
				"element": "C" 
			},
			{
				"x": 2.507225355,
				"y": -1.9831082798,
				"z": -0.1489036645,
				"element": "O" 
			},
			{
				"x": 5.7132017361,
				"y": 0.4547749087,
				"z": 0.2876269507,
				"element": "H" 
			},
			{
				"x": 5.1524991436,
				"y": -1.0949549004,
				"z": -0.3663896716,
				"element": "H" 
			},
			{
				"x": 6.3296987707,
				"y": -1.0660988411,
				"z": 0.9578091481,
				"element": "H" 
			},
			{
				"x": 4.0574302298,
				"y": -1.6583816867,
				"z": 1.7893979074,
				"element": "H" 
			},
			{
				"x": 4.585754877,
				"y": -0.1352553912,
				"z": 2.4997830168,
				"element": "H" 
			},
			{
				"x": 3.1172689562,
				"y": 3.2745371413,
				"z": 2.0451489077,
				"element": "H" 
			},
			{
				"x": 4.4767261474,
				"y": 2.149813667,
				"z": 2.0395695147,
				"element": "H" 
			},
			{
				"x": 3.2230910694,
				"y": 2.0059690695,
				"z": 3.2741040514,
				"element": "H" 
			},
			{
				"x": 1.2156918634,
				"y": 2.7698027622,
				"z": 1.0529046044,
				"element": "H" 
			},
			{
				"x": 0.3525791325,
				"y": -1.9583294782,
				"z": -1.4494793457,
				"element": "H" 
			},
			{
				"x": -4.1746298955,
				"y": -1.9090633838,
				"z": -3.3853807683,
				"element": "H" 
			},
			{
				"x": -5.1154954419,
				"y": -1.2749418098,
				"z": -5.6083122091,
				"element": "H" 
			},
			{
				"x": -3.8686640656,
				"y": 0.2993234864,
				"z": -7.0814489578,
				"element": "H" 
			},
			{
				"x": -1.6815744323,
				"y": 1.2123318588,
				"z": -6.3267036201,
				"element": "H" 
			},
			{
				"x": -0.7469220692,
				"y": 0.5647707739,
				"z": -4.1242857843,
				"element": "H" 
			},
			{
				"x": -2.3463524761,
				"y": 1.3883651314,
				"z": -1.68401629,
				"element": "H" 
			},
			{
				"x": -0.8440133937,
				"y": 2.7097884684,
				"z": -0.2205435206,
				"element": "H" 
			}
		],
		 "valence_orbital": [ 
			{
				"type": "occ",
				"energy": -0.25414,
				"method": "rhf"
			},
			{
				"type": "occ",
				"energy": -0.24977,
				"method": "rhf"
			},
			{
				"type": "occ",
				"energy": -0.22446,
				"method": "rhf"
			},
			{
				"type": "occ",
				"energy": -0.22355,
				"method": "rhf"
			},
			{
				"type": "occ",
				"energy": -0.20127,
				"method": "rhf"
			},
			{
				"type": "unocc",
				"energy": -0.04162,
				"method": "rhf"
			},
			{
				"type": "unocc",
				"energy": -0.01291,
				"method": "rhf"
			},
			{
				"type": "unocc",
				"energy": -0.00104,
				"method": "rhf"
			},
			{
				"type": "unocc",
				"energy": 0.00866,
				"method": "rhf"
			},
			{
				"type": "unocc",
				"energy": 0.01996,
				"method": "rhf"
			}
		],
		"cosmo_sigma_profile": { 
			"-0.025": 0.0,
			"-0.024": 0.0,
			"-0.023": 0.0,
			"-0.022": 0.0,
			"-0.021": 0.0,
			"-0.02": 0.0,
			"-0.019": 0.0,
			"-0.018": 0.0,
			"-0.017": 0.0,
			"-0.016": 0.765520551024,
			"-0.015": 1.88690861498,
			"-0.014": 1.41123399794,
			"-0.013": 1.72641648515,
			"-0.012": 1.29128325897,
			"-0.011": 1.84395181108,
			"-0.01": 1.34538647142,
			"-0.009": 1.75731873103,
			"-0.008": 2.14245357523,
			"-0.007": 4.61147022533,
			"-0.006": 11.1728713412,
			"-0.005": 20.5412354534,
			"-0.004": 22.6209103035,
			"-0.003": 26.9737845051,
			"-0.002": 25.7381522553,
			"-0.001": 25.1496304812,
			"0.0": 26.848740773,
			"0.001": 33.5968484691,
			"0.002": 31.2676352331,
			"0.003": 25.7685551823,
			"0.004": 16.2963838131,
			"0.005": 13.5697590851,
			"0.006": 6.95350119958,
			"0.007": 3.52671118861,
			"0.008": 2.76335248659,
			"0.009": 2.71504481894,
			"0.01": 2.42324233189,
			"0.011": 1.40408581678,
			"0.012": 1.76113323532,
			"0.013": 1.65717508626,
			"0.014": 2.84148831304,
			"0.015": 4.52031813914,
			"0.016": 0.237112511344,
			"0.017": 0.0,
			"0.018": 0.0,
			"0.019": 0.0,
			"0.02": 0.0,
			"0.021": 0.0,
			"0.022": 0.0,
			"0.023": 0.0,
			"0.024": 0.0,
			"0.025": 0.0
		}
	}
}
