{
	 "smiles": "OC(=O)C1=C(S)N=CC(Br)=C1", 
	 "Tm": 513.15, 
	 "num_atms": 15, 
	 "gaussian": { 
		 "optdone": 1, 
		 "sigma_profile": "yes", 
		 "theory": "DFT", 
		 "functional": "B3LYP", 
		 "basiset": "6-31G**", 
		 "properties": { 
			 "R2extent": 3459.842, 
			 "electric_dipole_moment_norm": 3.7739447651, 
			 "electric_quadrupole_moment_norm": 13.3389813385, 
			 "total_energy": -3405.83457241, 
			 "HOMO_LUMO_gap": 0.18006, 
			 "cosmo_polarized_energy": -11.38, 
			 "cosmo_cavitation_energy": 23.95, 
			 "cosmo_dispersion_energy": -18.89, 
			 "cosmo_repulsion_energy": 1.47, 
			 "cosmo_total_nonelectrostatic_energy": 6.53, 
			 "SMD_solvation_energy": 2.61 
		},
		"coords": [
			{
				"x": 2.604561636,
				"y": -0.5242935163,
				"z": 2.3514360614,
				"element": "O" 
			},
			{
				"x": 1.3065228945,
				"y": -0.2813154769,
				"z": 2.079407925,
				"element": "C" 
			},
			{
				"x": 0.5389876927,
				"y": -0.0032298872,
				"z": 2.9708587532,
				"element": "O" 
			},
			{
				"x": 0.833382491,
				"y": -0.4012664292,
				"z": 0.6493939971,
				"element": "C" 
			},
			{
				"x": 1.6065162898,
				"y": -0.3149033797,
				"z": -0.5283279449,
				"element": "C" 
			},
			{
				"x": 3.3550768593,
				"y": 0.0934584897,
				"z": -0.4875551971,
				"element": "S" 
			},
			{
				"x": 1.0926635893,
				"y": -0.4864225823,
				"z": -1.749046053,
				"element": "N" 
			},
			{
				"x": -0.2111534481,
				"y": -0.7341117889,
				"z": -1.8766237012,
				"element": "C" 
			},
			{
				"x": -1.0700779297,
				"y": -0.7885549809,
				"z": -0.7776144008,
				"element": "C" 
			},
			{
				"x": -2.9261417937,
				"y": -1.1028200366,
				"z": -1.0357520135,
				"element": "Br" 
			},
			{
				"x": -0.5420166597,
				"y": -0.6184088368,
				"z": 0.4936785324,
				"element": "C" 
			},
			{
				"x": 3.09808201,
				"y": -0.8224565941,
				"z": 1.5667535474,
				"element": "H" 
			},
			{
				"x": 3.5799024487,
				"y": -0.3408520503,
				"z": -1.741140355,
				"element": "H" 
			},
			{
				"x": -0.5855464846,
				"y": -0.8866875107,
				"z": -2.8851710819,
				"element": "H" 
			},
			{
				"x": -1.1613595956,
				"y": -0.6548354196,
				"z": 1.3822019309,
				"element": "H" 
			}
		],
		 "valence_orbital": [ 
			{
				"type": "occ",
				"energy": -0.31386,
				"method": "rhf"
			},
			{
				"type": "occ",
				"energy": -0.30493,
				"method": "rhf"
			},
			{
				"type": "occ",
				"energy": -0.30087,
				"method": "rhf"
			},
			{
				"type": "occ",
				"energy": -0.28138,
				"method": "rhf"
			},
			{
				"type": "occ",
				"energy": -0.25753,
				"method": "rhf"
			},
			{
				"type": "unocc",
				"energy": -0.07747,
				"method": "rhf"
			},
			{
				"type": "unocc",
				"energy": -0.05736,
				"method": "rhf"
			},
			{
				"type": "unocc",
				"energy": -0.01574,
				"method": "rhf"
			},
			{
				"type": "unocc",
				"energy": -0.00756,
				"method": "rhf"
			},
			{
				"type": "unocc",
				"energy": 0.02363,
				"method": "rhf"
			}
		],
		"cosmo_sigma_profile": { 
			"-0.025": 0.0,
			"-0.024": 0.0,
			"-0.023": 0.0,
			"-0.022": 0.0,
			"-0.021": 0.0,
			"-0.02": 0.0,
			"-0.019": 0.0,
			"-0.018": 0.0,
			"-0.017": 0.0,
			"-0.016": 0.0,
			"-0.015": 0.0,
			"-0.014": 0.543520900751,
			"-0.013": 1.03301288882,
			"-0.012": 2.66946504016,
			"-0.011": 1.80028692342,
			"-0.01": 2.23691981924,
			"-0.009": 2.97010603356,
			"-0.008": 4.36459794037,
			"-0.007": 6.19088014439,
			"-0.006": 6.81087893085,
			"-0.005": 8.56531819405,
			"-0.004": 11.1125936207,
			"-0.003": 13.8111667232,
			"-0.002": 18.9673113179,
			"-0.001": 18.4199197852,
			"0.0": 14.4734545992,
			"0.001": 11.3759686649,
			"0.002": 13.1490651217,
			"0.003": 14.9748822538,
			"0.004": 11.2385574077,
			"0.005": 2.88659754732,
			"0.006": 5.3294284004,
			"0.007": 3.7249050898,
			"0.008": 3.68061216836,
			"0.009": 4.73804189215,
			"0.01": 5.97878777708,
			"0.011": 5.29129470927,
			"0.012": 2.32954727577,
			"0.013": 0.2736855229,
			"0.014": 0.0,
			"0.015": 0.0,
			"0.016": 0.0,
			"0.017": 0.0,
			"0.018": 0.0,
			"0.019": 0.0,
			"0.02": 0.0,
			"0.021": 0.0,
			"0.022": 0.0,
			"0.023": 0.0,
			"0.024": 0.0,
			"0.025": 0.0
		}
	}
}
