{
	 "smiles": "ClCC(=O)NCC1CCN(C1)C1=CC=CC=C1", 
	 "Tm": 335.15, 
	 "num_atms": 34, 
	 "gaussian": { 
		 "optdone": 1, 
		 "sigma_profile": "yes", 
		 "theory": "DFT", 
		 "functional": "B3LYP", 
		 "basiset": "6-31G**", 
		 "properties": { 
			 "R2extent": 8410.7374, 
			 "electric_dipole_moment_norm": 2.87321858897, 
			 "electric_quadrupole_moment_norm": 25.0647279209, 
			 "total_energy": -1150.55831583, 
			 "HOMO_LUMO_gap": 0.16772, 
			 "cosmo_polarized_energy": -16.1, 
			 "cosmo_cavitation_energy": 37.74, 
			 "cosmo_dispersion_energy": -26.5, 
			 "cosmo_repulsion_energy": 2.08, 
			 "cosmo_total_nonelectrostatic_energy": 13.31, 
			 "SMD_solvation_energy": 5.35 
		},
		"coords": [
			{
				"x": -3.5971509696,
				"y": -2.8120075329,
				"z": 2.9770476645,
				"element": "Cl" 
			},
			{
				"x": -3.1140229135,
				"y": -1.6536945104,
				"z": 4.2899594401,
				"element": "C" 
			},
			{
				"x": -3.8742842339,
				"y": -0.3290667602,
				"z": 4.2068787149,
				"element": "C" 
			},
			{
				"x": -4.6999501191,
				"y": -0.0443418696,
				"z": 5.0634329733,
				"element": "O" 
			},
			{
				"x": -3.5730371899,
				"y": 0.5225965611,
				"z": 3.1810467622,
				"element": "N" 
			},
			{
				"x": -2.6912253631,
				"y": 0.3363614475,
				"z": 2.0368539649,
				"element": "C" 
			},
			{
				"x": -1.8728893612,
				"y": 1.6060497079,
				"z": 1.7321865137,
				"element": "C" 
			},
			{
				"x": -0.8949718814,
				"y": 1.9827832038,
				"z": 2.8621798487,
				"element": "C" 
			},
			{
				"x": 0.3495762762,
				"y": 1.1206504339,
				"z": 2.5881899198,
				"element": "C" 
			},
			{
				"x": 0.2898141626,
				"y": 0.8598978028,
				"z": 1.152924332,
				"element": "N" 
			},
			{
				"x": -0.9274687118,
				"y": 1.3764350015,
				"z": 0.5394652075,
				"element": "C" 
			},
			{
				"x": 1.3668954318,
				"y": 0.3876243176,
				"z": 0.4228563616,
				"element": "C" 
			},
			{
				"x": 2.5219818262,
				"y": -0.1039596264,
				"z": 1.0710133958,
				"element": "C" 
			},
			{
				"x": 3.599084034,
				"y": -0.5863347833,
				"z": 0.3318308585,
				"element": "C" 
			},
			{
				"x": 3.5675313951,
				"y": -0.5998382017,
				"z": -1.0637998433,
				"element": "C" 
			},
			{
				"x": 2.4294171816,
				"y": -0.116404951,
				"z": -1.7114146985,
				"element": "C" 
			},
			{
				"x": 1.3436464347,
				"y": 0.3733157387,
				"z": -0.9894095006,
				"element": "C" 
			},
			{
				"x": -3.3787065155,
				"y": -2.1158930936,
				"z": 5.2379015126,
				"element": "H" 
			},
			{
				"x": -2.0318700535,
				"y": -1.5266878147,
				"z": 4.2204708559,
				"element": "H" 
			},
			{
				"x": -4.1708769688,
				"y": 1.3407442136,
				"z": 3.1760286222,
				"element": "H" 
			},
			{
				"x": -3.2738994581,
				"y": 0.0589673461,
				"z": 1.1477570211,
				"element": "H" 
			},
			{
				"x": -2.0175444899,
				"y": -0.4996408943,
				"z": 2.2352035653,
				"element": "H" 
			},
			{
				"x": -2.5690238373,
				"y": 2.4259380302,
				"z": 1.5178252395,
				"element": "H" 
			},
			{
				"x": -1.3157803891,
				"y": 1.8159488521,
				"z": 3.8571654626,
				"element": "H" 
			},
			{
				"x": -0.6369938678,
				"y": 3.04392668,
				"z": 2.784817595,
				"element": "H" 
			},
			{
				"x": 1.2747560892,
				"y": 1.6441985606,
				"z": 2.8626599686,
				"element": "H" 
			},
			{
				"x": 0.3317812572,
				"y": 0.1827088433,
				"z": 3.1664580972,
				"element": "H" 
			},
			{
				"x": -0.7482764972,
				"y": 2.316753997,
				"z": -0.0076956009,
				"element": "H" 
			},
			{
				"x": -1.3406626361,
				"y": 0.6582052626,
				"z": -0.1809263654,
				"element": "H" 
			},
			{
				"x": 2.5715972373,
				"y": -0.119636555,
				"z": 2.1541140392,
				"element": "H" 
			},
			{
				"x": 4.473084778,
				"y": -0.9595552038,
				"z": 0.8592187857,
				"element": "H" 
			},
			{
				"x": 4.4103509102,
				"y": -0.9782531375,
				"z": -1.6333758062,
				"element": "H" 
			},
			{
				"x": 2.3823377761,
				"y": -0.1132378056,
				"z": -2.7972721084,
				"element": "H" 
			},
			{
				"x": 0.4800806665,
				"y": 0.7530467395,
				"z": -1.5238927993,
				"element": "H" 
			}
		],
		 "valence_orbital": [ 
			{
				"type": "occ",
				"energy": -0.283,
				"method": "rhf"
			},
			{
				"type": "occ",
				"energy": -0.2631,
				"method": "rhf"
			},
			{
				"type": "occ",
				"energy": -0.25923,
				"method": "rhf"
			},
			{
				"type": "occ",
				"energy": -0.24259,
				"method": "rhf"
			},
			{
				"type": "occ",
				"energy": -0.1895,
				"method": "rhf"
			},
			{
				"type": "unocc",
				"energy": -0.02178,
				"method": "rhf"
			},
			{
				"type": "unocc",
				"energy": 0.00654,
				"method": "rhf"
			},
			{
				"type": "unocc",
				"energy": 0.02011,
				"method": "rhf"
			},
			{
				"type": "unocc",
				"energy": 0.03994,
				"method": "rhf"
			},
			{
				"type": "unocc",
				"energy": 0.06681,
				"method": "rhf"
			}
		],
		"cosmo_sigma_profile": { 
			"-0.025": 0.0,
			"-0.024": 0.0,
			"-0.023": 0.0,
			"-0.022": 0.0,
			"-0.021": 0.0,
			"-0.02": 0.0,
			"-0.019": 0.0,
			"-0.018": 0.0,
			"-0.017": 0.0,
			"-0.016": 0.0,
			"-0.015": 0.0,
			"-0.014": 0.328966562653,
			"-0.013": 1.10957579028,
			"-0.012": 1.0419640317,
			"-0.011": 1.35268343761,
			"-0.01": 1.19440843309,
			"-0.009": 1.62190657146,
			"-0.008": 6.1782614038,
			"-0.007": 6.09358289701,
			"-0.006": 6.81669888534,
			"-0.005": 19.4555501827,
			"-0.004": 29.5000307271,
			"-0.003": 37.5271561284,
			"-0.002": 29.7382739989,
			"-0.001": 21.2355855483,
			"0.0": 17.5578084751,
			"0.001": 15.4207062559,
			"0.002": 13.2567905209,
			"0.003": 11.8840335349,
			"0.004": 16.1393953985,
			"0.005": 17.1787625934,
			"0.006": 12.9606709902,
			"0.007": 9.79379280162,
			"0.008": 6.05489862457,
			"0.009": 1.33292461444,
			"0.01": 1.49629153537,
			"0.011": 1.51126199829,
			"0.012": 2.43867772355,
			"0.013": 5.7562026133,
			"0.014": 2.92684320837,
			"0.015": 0.0477360840963,
			"0.016": 0.0,
			"0.017": 0.0,
			"0.018": 0.0,
			"0.019": 0.0,
			"0.02": 0.0,
			"0.021": 0.0,
			"0.022": 0.0,
			"0.023": 0.0,
			"0.024": 0.0,
			"0.025": 0.0
		}
	}
}
