{
	 "smiles": "O=C1COC(=O)CO1", 
	 "Tm": 355.15, 
	 "num_atms": 12, 
	 "gaussian": { 
		 "optdone": 1, 
		 "sigma_profile": "yes", 
		 "theory": "DFT", 
		 "functional": "B3LYP", 
		 "basiset": "6-31G**", 
		 "properties": { 
			 "R2extent": 2141.0006, 
			 "electric_dipole_moment_norm": 2.38368662999, 
			 "electric_quadrupole_moment_norm": 17.1373065276, 
			 "total_energy": -455.716261614, 
			 "HOMO_LUMO_gap": 0.26689, 
			 "cosmo_polarized_energy": -14.93, 
			 "cosmo_cavitation_energy": 16.62, 
			 "cosmo_dispersion_energy": -12.78, 
			 "cosmo_repulsion_energy": 1.08, 
			 "cosmo_total_nonelectrostatic_energy": 4.92, 
			 "SMD_solvation_energy": 5.52 
		},
		"coords": [
			{
				"x": -2.9388755479,
				"y": -2.623642681,
				"z": -0.0840053647,
				"element": "O" 
			},
			{
				"x": -2.5271276446,
				"y": -1.6136551262,
				"z": -0.5914283456,
				"element": "C" 
			},
			{
				"x": -3.2776290164,
				"y": -0.8613691171,
				"z": -1.6807700796,
				"element": "C" 
			},
			{
				"x": -2.4216522312,
				"y": -0.2383402589,
				"z": -2.6511973713,
				"element": "O" 
			},
			{
				"x": -1.3356260539,
				"y": 0.4290437089,
				"z": -2.1920964659,
				"element": "C" 
			},
			{
				"x": -0.6706647748,
				"y": 1.119309324,
				"z": -2.9190400122,
				"element": "O" 
			},
			{
				"x": -1.0370097897,
				"y": 0.2473494326,
				"z": -0.710994819,
				"element": "C" 
			},
			{
				"x": -1.3487072104,
				"y": -1.0629473406,
				"z": -0.2124089007,
				"element": "O" 
			},
			{
				"x": -3.9297490776,
				"y": -0.1079876757,
				"z": -1.2174494438,
				"element": "H" 
			},
			{
				"x": -3.902695532,
				"y": -1.5691896966,
				"z": -2.2230655555,
				"element": "H" 
			},
			{
				"x": 0.0296881442,
				"y": 0.3975093276,
				"z": -0.5515834174,
				"element": "H" 
			},
			{
				"x": -1.5833512657,
				"y": 1.007320103,
				"z": -0.1352602244,
				"element": "H" 
			}
		],
		 "valence_orbital": [ 
			{
				"type": "occ",
				"energy": -0.37772,
				"method": "rhf"
			},
			{
				"type": "occ",
				"energy": -0.33951,
				"method": "rhf"
			},
			{
				"type": "occ",
				"energy": -0.33138,
				"method": "rhf"
			},
			{
				"type": "occ",
				"energy": -0.29173,
				"method": "rhf"
			},
			{
				"type": "occ",
				"energy": -0.29096,
				"method": "rhf"
			},
			{
				"type": "unocc",
				"energy": -0.02407,
				"method": "rhf"
			},
			{
				"type": "unocc",
				"energy": -0.024,
				"method": "rhf"
			},
			{
				"type": "unocc",
				"energy": 0.05747,
				"method": "rhf"
			},
			{
				"type": "unocc",
				"energy": 0.09062,
				"method": "rhf"
			},
			{
				"type": "unocc",
				"energy": 0.10286,
				"method": "rhf"
			}
		],
		"cosmo_sigma_profile": { 
			"-0.025": 0.0,
			"-0.024": 0.0,
			"-0.023": 0.0,
			"-0.022": 0.0,
			"-0.021": 0.0,
			"-0.02": 0.0,
			"-0.019": 0.0,
			"-0.018": 0.0,
			"-0.017": 0.0,
			"-0.016": 0.0,
			"-0.015": 0.0,
			"-0.014": 0.407225393739,
			"-0.013": 1.4745413463,
			"-0.012": 2.10541876495,
			"-0.011": 3.12492205816,
			"-0.01": 6.09803172235,
			"-0.009": 8.71003188048,
			"-0.008": 8.12965762836,
			"-0.007": 9.95303657524,
			"-0.006": 6.89001043655,
			"-0.005": 5.03357590113,
			"-0.004": 4.25006171806,
			"-0.003": 3.22568333896,
			"-0.002": 3.55885712859,
			"-0.001": 3.75700169063,
			"0.0": 3.41634863615,
			"0.001": 3.36178353751,
			"0.002": 3.30419259918,
			"0.003": 3.14685734948,
			"0.004": 4.15876955263,
			"0.005": 3.94445503013,
			"0.006": 4.8942620535,
			"0.007": 5.13992420677,
			"0.008": 7.13325610206,
			"0.009": 6.57620364298,
			"0.01": 9.49261660328,
			"0.011": 9.4881255236,
			"0.012": 1.96682645223,
			"0.013": 0.0,
			"0.014": 0.0,
			"0.015": 0.0,
			"0.016": 0.0,
			"0.017": 0.0,
			"0.018": 0.0,
			"0.019": 0.0,
			"0.02": 0.0,
			"0.021": 0.0,
			"0.022": 0.0,
			"0.023": 0.0,
			"0.024": 0.0,
			"0.025": 0.0
		}
	}
}
