{
	 "smiles": "CC1=C(C=NO1)C(=O)NC1=CC=C(C=C1)C(O)=O", 
	 "Tm": 503.15, 
	 "num_atms": 28, 
	 "gaussian": { 
		 "optdone": 1, 
		 "sigma_profile": "yes", 
		 "theory": "DFT", 
		 "functional": "B3LYP", 
		 "basiset": "6-31G**", 
		 "properties": { 
			 "R2extent": 6166.9909, 
			 "electric_dipole_moment_norm": 4.90406976806, 
			 "electric_quadrupole_moment_norm": 31.3842780167, 
			 "total_energy": -873.673874604, 
			 "HOMO_LUMO_gap": 0.18266, 
			 "cosmo_polarized_energy": -24.19, 
			 "cosmo_cavitation_energy": 33.69, 
			 "cosmo_dispersion_energy": -24.04, 
			 "cosmo_repulsion_energy": 1.85, 
			 "cosmo_total_nonelectrostatic_energy": 11.5, 
			 "SMD_solvation_energy": 7.59 
		},
		"coords": [
			{
				"x": 3.0038359204,
				"y": 2.576528228,
				"z": -0.1990014824,
				"element": "C" 
			},
			{
				"x": 2.3890870336,
				"y": 1.3395973645,
				"z": 0.3520592169,
				"element": "C" 
			},
			{
				"x": 1.5288866654,
				"y": 0.3952819013,
				"z": -0.1649032048,
				"element": "C" 
			},
			{
				"x": 1.3665985825,
				"y": -0.5275948672,
				"z": 0.9171718194,
				"element": "C" 
			},
			{
				"x": 2.0438587606,
				"y": -0.1794220852,
				"z": 1.9785838965,
				"element": "N" 
			},
			{
				"x": 2.6875886504,
				"y": 1.0211949695,
				"z": 1.6199614802,
				"element": "O" 
			},
			{
				"x": 1.0507084052,
				"y": 0.3540969269,
				"z": -1.5613544812,
				"element": "C" 
			},
			{
				"x": 1.6459604662,
				"y": 0.9255732603,
				"z": -2.470044503,
				"element": "O" 
			},
			{
				"x": -0.0587702909,
				"y": -0.42479642,
				"z": -1.8733146357,
				"element": "N" 
			},
			{
				"x": -1.1619033286,
				"y": -0.8423128622,
				"z": -1.1023130777,
				"element": "C" 
			},
			{
				"x": -1.8351159885,
				"y": -2.0120314771,
				"z": -1.4893995637,
				"element": "C" 
			},
			{
				"x": -2.9640497716,
				"y": -2.4361435393,
				"z": -0.7969496621,
				"element": "C" 
			},
			{
				"x": -3.4391123113,
				"y": -1.7146634547,
				"z": 0.307558251,
				"element": "C" 
			},
			{
				"x": -2.7508821534,
				"y": -0.5584772339,
				"z": 0.7016705636,
				"element": "C" 
			},
			{
				"x": -1.6415624175,
				"y": -0.1092228182,
				"z": -0.0031988505,
				"element": "C" 
			},
			{
				"x": -4.6303029846,
				"y": -2.1260714829,
				"z": 1.1156679989,
				"element": "C" 
			},
			{
				"x": -5.5042757025,
				"y": -2.9887531507,
				"z": 0.5289713492,
				"element": "O" 
			},
			{
				"x": -4.8365122988,
				"y": -1.7299279496,
				"z": 2.2387075574,
				"element": "O" 
			},
			{
				"x": 4.0951984679,
				"y": 2.5121164347,
				"z": -0.1393264979,
				"element": "H" 
			},
			{
				"x": 2.7122243704,
				"y": 2.6921107685,
				"z": -1.2419291434,
				"element": "H" 
			},
			{
				"x": 2.6923491855,
				"y": 3.4516487653,
				"z": 0.3810736098,
				"element": "H" 
			},
			{
				"x": 0.7856727923,
				"y": -1.4394125874,
				"z": 0.9467110072,
				"element": "H" 
			},
			{
				"x": -0.148013041,
				"y": -0.5331167779,
				"z": -2.8769387442,
				"element": "H" 
			},
			{
				"x": -1.456256426,
				"y": -2.5934445872,
				"z": -2.3248416344,
				"element": "H" 
			},
			{
				"x": -3.4370854636,
				"y": -3.3662972534,
				"z": -1.1025107968,
				"element": "H" 
			},
			{
				"x": -3.1197470116,
				"y": -0.0074480643,
				"z": 1.5599665929,
				"element": "H" 
			},
			{
				"x": -1.1523440477,
				"y": 0.8126162552,
				"z": 0.2882701777,
				"element": "H" 
			},
			{
				"x": -5.3090360628,
				"y": -3.076828263,
				"z": -0.4138472427,
				"element": "H" 
			}
		],
		 "valence_orbital": [ 
			{
				"type": "occ",
				"energy": -0.28535,
				"method": "rhf"
			},
			{
				"type": "occ",
				"energy": -0.28168,
				"method": "rhf"
			},
			{
				"type": "occ",
				"energy": -0.27903,
				"method": "rhf"
			},
			{
				"type": "occ",
				"energy": -0.26798,
				"method": "rhf"
			},
			{
				"type": "occ",
				"energy": -0.24976,
				"method": "rhf"
			},
			{
				"type": "unocc",
				"energy": -0.0671,
				"method": "rhf"
			},
			{
				"type": "unocc",
				"energy": -0.04138,
				"method": "rhf"
			},
			{
				"type": "unocc",
				"energy": -0.03384,
				"method": "rhf"
			},
			{
				"type": "unocc",
				"energy": -0.01253,
				"method": "rhf"
			},
			{
				"type": "unocc",
				"energy": 0.04079,
				"method": "rhf"
			}
		],
		"cosmo_sigma_profile": { 
			"-0.025": 0.0,
			"-0.024": 0.0,
			"-0.023": 0.0,
			"-0.022": 0.0,
			"-0.021": 0.0,
			"-0.02": 0.0,
			"-0.019": 0.238578060018,
			"-0.018": 1.02692017313,
			"-0.017": 0.86695722134,
			"-0.016": 0.842853819332,
			"-0.015": 2.10733915066,
			"-0.014": 1.63442378849,
			"-0.013": 2.070124921,
			"-0.012": 2.26398442662,
			"-0.011": 2.81579096865,
			"-0.01": 2.52213596103,
			"-0.009": 4.47662358334,
			"-0.008": 4.98787425769,
			"-0.007": 10.0299962273,
			"-0.006": 14.8759901853,
			"-0.005": 15.7807651705,
			"-0.004": 15.9185109762,
			"-0.003": 19.8509350938,
			"-0.002": 20.4108101394,
			"-0.001": 16.9023922212,
			"0.0": 16.8722663699,
			"0.001": 15.0719767251,
			"0.002": 16.4530990233,
			"0.003": 9.42373342586,
			"0.004": 4.91001605637,
			"0.005": 7.27444200771,
			"0.006": 7.10303716586,
			"0.007": 8.32885232533,
			"0.008": 6.42247583287,
			"0.009": 6.27204759356,
			"0.01": 7.8240869793,
			"0.011": 8.83915591365,
			"0.012": 10.4454928468,
			"0.013": 4.92515240647,
			"0.014": 0.312614924847,
			"0.015": 0.0,
			"0.016": 0.0,
			"0.017": 0.0,
			"0.018": 0.0,
			"0.019": 0.0,
			"0.02": 0.0,
			"0.021": 0.0,
			"0.022": 0.0,
			"0.023": 0.0,
			"0.024": 0.0,
			"0.025": 0.0
		}
	}
}
