{
	 "smiles": "OC1=C(C=C(C=O)C=C1)[N+]([O-])=O", 
	 "Tm": 415.15, 
	 "num_atms": 17, 
	 "gaussian": { 
		 "optdone": 1, 
		 "sigma_profile": "yes", 
		 "theory": "DFT", 
		 "functional": "B3LYP", 
		 "basiset": "6-31G**", 
		 "properties": { 
			 "R2extent": 2190.0311, 
			 "electric_dipole_moment_norm": 3.9825027784, 
			 "electric_quadrupole_moment_norm": 20.302643765, 
			 "total_energy": -625.28144986, 
			 "HOMO_LUMO_gap": 0.17371, 
			 "cosmo_polarized_energy": -18.35, 
			 "cosmo_cavitation_energy": 23.06, 
			 "cosmo_dispersion_energy": -16.91, 
			 "cosmo_repulsion_energy": 1.34, 
			 "cosmo_total_nonelectrostatic_energy": 7.49, 
			 "SMD_solvation_energy": 7.78 
		},
		"coords": [
			{
				"x": -1.085368004,
				"y": -2.4399288412,
				"z": -0.1132753539,
				"element": "O" 
			},
			{
				"x": -0.6123603504,
				"y": -1.2046354094,
				"z": 0.1244717552,
				"element": "C" 
			},
			{
				"x": -0.281441665,
				"y": -0.3329274374,
				"z": -0.9382935069,
				"element": "C" 
			},
			{
				"x": 0.2330704122,
				"y": 0.9359810583,
				"z": -0.6757449003,
				"element": "C" 
			},
			{
				"x": 0.4195906163,
				"y": 1.3759484907,
				"z": 0.63226479,
				"element": "C" 
			},
			{
				"x": 0.9577924269,
				"y": 2.7269304292,
				"z": 0.8993467105,
				"element": "C" 
			},
			{
				"x": 1.1470890265,
				"y": 3.1767031536,
				"z": 2.0134092245,
				"element": "O" 
			},
			{
				"x": 0.0904774076,
				"y": 0.5166123959,
				"z": 1.6958778944,
				"element": "C" 
			},
			{
				"x": -0.4104276049,
				"y": -0.7461402028,
				"z": 1.4429899722,
				"element": "C" 
			},
			{
				"x": -0.4594577148,
				"y": -0.7056039736,
				"z": -2.348946555,
				"element": "N" 
			},
			{
				"x": 0.0755985505,
				"y": 0.0217987511,
				"z": -3.1890593993,
				"element": "O" 
			},
			{
				"x": -1.1317233469,
				"y": -1.6979268054,
				"z": -2.6102312467,
				"element": "O" 
			},
			{
				"x": -1.2188074876,
				"y": -2.8936976882,
				"z": 0.7312832322,
				"element": "H" 
			},
			{
				"x": 0.4832181474,
				"y": 1.5653028899,
				"z": -1.522851272,
				"element": "H" 
			},
			{
				"x": 1.1860202813,
				"y": 3.3243452127,
				"z": -0.0099802434,
				"element": "H" 
			},
			{
				"x": 0.2413316794,
				"y": 0.8676769159,
				"z": 2.7117693416,
				"element": "H" 
			},
			{
				"x": -0.6590023745,
				"y": -1.4122389391,
				"z": 2.2663695569,
				"element": "H" 
			}
		],
		 "valence_orbital": [ 
			{
				"type": "occ",
				"energy": -0.30975,
				"method": "rhf"
			},
			{
				"type": "occ",
				"energy": -0.30132,
				"method": "rhf"
			},
			{
				"type": "occ",
				"energy": -0.28935,
				"method": "rhf"
			},
			{
				"type": "occ",
				"energy": -0.26899,
				"method": "rhf"
			},
			{
				"type": "occ",
				"energy": -0.26707,
				"method": "rhf"
			},
			{
				"type": "unocc",
				"energy": -0.09336,
				"method": "rhf"
			},
			{
				"type": "unocc",
				"energy": -0.07417,
				"method": "rhf"
			},
			{
				"type": "unocc",
				"energy": -0.02265,
				"method": "rhf"
			},
			{
				"type": "unocc",
				"energy": 0.03126,
				"method": "rhf"
			},
			{
				"type": "unocc",
				"energy": 0.0367,
				"method": "rhf"
			}
		],
		"cosmo_sigma_profile": { 
			"-0.025": 0.0,
			"-0.024": 0.0,
			"-0.023": 0.0,
			"-0.022": 0.0,
			"-0.021": 0.0,
			"-0.02": 0.649004204443,
			"-0.019": 1.72414558926,
			"-0.018": 1.15309970569,
			"-0.017": 1.16919834898,
			"-0.016": 1.18791910063,
			"-0.015": 0.822974001847,
			"-0.014": 0.540774217145,
			"-0.013": 0.993360088726,
			"-0.012": 1.32038677279,
			"-0.011": 1.04627190725,
			"-0.01": 1.7794151823,
			"-0.009": 3.41190221569,
			"-0.008": 4.84236892236,
			"-0.007": 8.06952210944,
			"-0.006": 7.85235613377,
			"-0.005": 8.57060469627,
			"-0.004": 9.92841294856,
			"-0.003": 10.2983515867,
			"-0.002": 13.1891274085,
			"-0.001": 16.0557774191,
			"0.0": 14.196280215,
			"0.001": 7.71738806997,
			"0.002": 5.27429076312,
			"0.003": 4.39732753126,
			"0.004": 4.60188274561,
			"0.005": 4.53269688974,
			"0.006": 4.49881949006,
			"0.007": 9.30957640477,
			"0.008": 10.7983575269,
			"0.009": 8.23444460974,
			"0.01": 7.30327245103,
			"0.011": 5.87712975733,
			"0.012": 3.3845880509,
			"0.013": 0.644827830022,
			"0.014": 0.0,
			"0.015": 0.0,
			"0.016": 0.0,
			"0.017": 0.0,
			"0.018": 0.0,
			"0.019": 0.0,
			"0.02": 0.0,
			"0.021": 0.0,
			"0.022": 0.0,
			"0.023": 0.0,
			"0.024": 0.0,
			"0.025": 0.0
		}
	}
}
