{
	 "smiles": "COC(=O)C1=C(C)C=CC(N)=C1", 
	 "Tm": 312.15, 
	 "num_atms": 23, 
	 "gaussian": { 
		 "optdone": 1, 
		 "sigma_profile": "yes", 
		 "theory": "DFT", 
		 "functional": "B3LYP", 
		 "basiset": "6-31G**", 
		 "properties": { 
			 "R2extent": 3069.0381, 
			 "electric_dipole_moment_norm": 1.69792672987, 
			 "electric_quadrupole_moment_norm": 14.6155706543, 
			 "total_energy": -554.804088693, 
			 "HOMO_LUMO_gap": 0.16538, 
			 "cosmo_polarized_energy": -11.27, 
			 "cosmo_cavitation_energy": 26.58, 
			 "cosmo_dispersion_energy": -19.47, 
			 "cosmo_repulsion_energy": 1.55, 
			 "cosmo_total_nonelectrostatic_energy": 8.66, 
			 "SMD_solvation_energy": 6.1 
		},
		"coords": [
			{
				"x": -4.2082160242,
				"y": 2.9119299919,
				"z": -0.7842822088,
				"element": "C" 
			},
			{
				"x": -2.842746628,
				"y": 2.5196794712,
				"z": -0.5785048661,
				"element": "O" 
			},
			{
				"x": -2.6763177685,
				"y": 1.3237315442,
				"z": 0.032392133,
				"element": "C" 
			},
			{
				"x": -3.6237966608,
				"y": 0.6403612154,
				"z": 0.3764142881,
				"element": "O" 
			},
			{
				"x": -1.245282126,
				"y": 0.9366419309,
				"z": 0.2396111552,
				"element": "C" 
			},
			{
				"x": -0.1171864354,
				"y": 1.6840877746,
				"z": -0.1786092092,
				"element": "C" 
			},
			{
				"x": -0.1661988621,
				"y": 3.0088468263,
				"z": -0.90667213,
				"element": "C" 
			},
			{
				"x": 1.1390545811,
				"y": 1.1328763696,
				"z": 0.1122704627,
				"element": "C" 
			},
			{
				"x": 1.3007262728,
				"y": -0.0784764155,
				"z": 0.7758445021,
				"element": "C" 
			},
			{
				"x": 0.1796214352,
				"y": -0.8148693539,
				"z": 1.1882359656,
				"element": "C" 
			},
			{
				"x": 0.3187073266,
				"y": -2.0047740885,
				"z": 1.9070362393,
				"element": "N" 
			},
			{
				"x": -1.0836061748,
				"y": -0.2859399593,
				"z": 0.9066540441,
				"element": "C" 
			},
			{
				"x": -4.7351121415,
				"y": 2.9906997832,
				"z": 0.169903562,
				"element": "H" 
			},
			{
				"x": -4.7288282642,
				"y": 2.1841121771,
				"z": -1.4116643035,
				"element": "H" 
			},
			{
				"x": -4.1629413089,
				"y": 3.8823723311,
				"z": -1.2789919593,
				"element": "H" 
			},
			{
				"x": -0.7069375962,
				"y": 2.936999941,
				"z": -1.8546371552,
				"element": "H" 
			},
			{
				"x": 0.8504217519,
				"y": 3.3527741516,
				"z": -1.1177873982,
				"element": "H" 
			},
			{
				"x": -0.6733559481,
				"y": 3.7801740672,
				"z": -0.3201143158,
				"element": "H" 
			},
			{
				"x": 2.0274130968,
				"y": 1.6778142691,
				"z": -0.1965589462,
				"element": "H" 
			},
			{
				"x": 2.3004840711,
				"y": -0.4547727987,
				"z": 0.9797857046,
				"element": "H" 
			},
			{
				"x": 1.1809194825,
				"y": -2.5061017177,
				"z": 1.7427450135,
				"element": "H" 
			},
			{
				"x": -0.4839743992,
				"y": -2.6182487222,
				"z": 1.8725500099,
				"element": "H" 
			},
			{
				"x": -1.9815476801,
				"y": -0.8176187886,
				"z": 1.2048794126,
				"element": "H" 
			}
		],
		 "valence_orbital": [ 
			{
				"type": "occ",
				"energy": -0.30135,
				"method": "rhf"
			},
			{
				"type": "occ",
				"energy": -0.29347,
				"method": "rhf"
			},
			{
				"type": "occ",
				"energy": -0.26667,
				"method": "rhf"
			},
			{
				"type": "occ",
				"energy": -0.24858,
				"method": "rhf"
			},
			{
				"type": "occ",
				"energy": -0.20111,
				"method": "rhf"
			},
			{
				"type": "unocc",
				"energy": -0.03573,
				"method": "rhf"
			},
			{
				"type": "unocc",
				"energy": 0.0152,
				"method": "rhf"
			},
			{
				"type": "unocc",
				"energy": 0.06684,
				"method": "rhf"
			},
			{
				"type": "unocc",
				"energy": 0.0847,
				"method": "rhf"
			},
			{
				"type": "unocc",
				"energy": 0.10452,
				"method": "rhf"
			}
		],
		"cosmo_sigma_profile": { 
			"-0.025": 0.0,
			"-0.024": 0.0,
			"-0.023": 0.0,
			"-0.022": 0.0,
			"-0.021": 0.0,
			"-0.02": 0.0,
			"-0.019": 0.0,
			"-0.018": 0.0,
			"-0.017": 0.0,
			"-0.016": 0.0,
			"-0.015": 0.0,
			"-0.014": 0.0,
			"-0.013": 0.430413539264,
			"-0.012": 2.68470083552,
			"-0.011": 2.28635414591,
			"-0.01": 3.21080803738,
			"-0.009": 3.64324089581,
			"-0.008": 2.77289688677,
			"-0.007": 3.59532026585,
			"-0.006": 7.3652627744,
			"-0.005": 13.2824957713,
			"-0.004": 15.0335645997,
			"-0.003": 17.1375011845,
			"-0.002": 14.6424236401,
			"-0.001": 14.9624179064,
			"0.0": 15.4195407479,
			"0.001": 15.8130620976,
			"0.002": 12.6965886938,
			"0.003": 12.7013948311,
			"0.004": 13.7362102826,
			"0.005": 13.1134913245,
			"0.006": 5.89445335504,
			"0.007": 2.01484300101,
			"0.008": 1.77145930779,
			"0.009": 2.28522909907,
			"0.01": 2.97141013795,
			"0.011": 3.27349453461,
			"0.012": 4.78219097412,
			"0.013": 1.60380916558,
			"0.014": 0.831816687329,
			"0.015": 0.161204562949,
			"0.016": 0.0,
			"0.017": 0.0,
			"0.018": 0.0,
			"0.019": 0.0,
			"0.02": 0.0,
			"0.021": 0.0,
			"0.022": 0.0,
			"0.023": 0.0,
			"0.024": 0.0,
			"0.025": 0.0
		}
	}
}
