{
	 "smiles": "OC(=O)CN1C(=O)COC2=C1C=C(C=C2)S(Cl)(=O)=O", 
	 "Tm": 433.15, 
	 "num_atms": 27, 
	 "gaussian": { 
		 "optdone": 1, 
		 "sigma_profile": "yes", 
		 "theory": "DFT", 
		 "functional": "B3LYP", 
		 "basiset": "6-31G**", 
		 "properties": { 
			 "R2extent": 6634.608, 
			 "electric_dipole_moment_norm": 5.25943251216, 
			 "electric_quadrupole_moment_norm": 21.5367451336, 
			 "total_energy": -1750.30169806, 
			 "HOMO_LUMO_gap": 0.15845, 
			 "cosmo_polarized_energy": -20.73, 
			 "cosmo_cavitation_energy": 35.7, 
			 "cosmo_dispersion_energy": -25.24, 
			 "cosmo_repulsion_energy": 1.91, 
			 "cosmo_total_nonelectrostatic_energy": 12.38, 
			 "SMD_solvation_energy": 6.87 
		},
		"coords": [
			{
				"x": 0.9909705955,
				"y": -2.5779964606,
				"z": -1.9642179614,
				"element": "O" 
			},
			{
				"x": 1.8128140309,
				"y": -2.4370372222,
				"z": -0.9057648732,
				"element": "C" 
			},
			{
				"x": 3.0150109836,
				"y": -2.5451616827,
				"z": -0.9605151401,
				"element": "O" 
			},
			{
				"x": 1.0589487373,
				"y": -2.1771969974,
				"z": 0.3925889274,
				"element": "C" 
			},
			{
				"x": -0.2225323731,
				"y": -1.503583059,
				"z": 0.2390198457,
				"element": "N" 
			},
			{
				"x": -1.367292805,
				"y": -2.2059712781,
				"z": 0.5717397802,
				"element": "C" 
			},
			{
				"x": -1.3550037912,
				"y": -3.3508412546,
				"z": 0.9902648875,
				"element": "O" 
			},
			{
				"x": -2.668140164,
				"y": -1.4265951509,
				"z": 0.4580333038,
				"element": "C" 
			},
			{
				"x": -2.6680837187,
				"y": -0.4187304774,
				"z": -0.5537243443,
				"element": "O" 
			},
			{
				"x": -1.5464185001,
				"y": 0.3436895257,
				"z": -0.6262793409,
				"element": "C" 
			},
			{
				"x": -0.2925372976,
				"y": -0.1740981143,
				"z": -0.2314006761,
				"element": "C" 
			},
			{
				"x": 0.8376757194,
				"y": 0.6338819387,
				"z": -0.357966703,
				"element": "C" 
			},
			{
				"x": 0.6941192425,
				"y": 1.9232437092,
				"z": -0.8767923105,
				"element": "C" 
			},
			{
				"x": -0.5354925515,
				"y": 2.4387941717,
				"z": -1.2817549172,
				"element": "C" 
			},
			{
				"x": -1.6616143218,
				"y": 1.6331923783,
				"z": -1.1438611318,
				"element": "C" 
			},
			{
				"x": 2.1477445136,
				"y": 2.939667852,
				"z": -1.0258790589,
				"element": "S" 
			},
			{
				"x": 2.8380252875,
				"y": 2.4226290227,
				"z": -2.9816487706,
				"element": "Cl" 
			},
			{
				"x": 3.1687529794,
				"y": 2.4615751369,
				"z": -0.1016646896,
				"element": "O" 
			},
			{
				"x": 1.751515364,
				"y": 4.3403546786,
				"z": -1.097548638,
				"element": "O" 
			},
			{
				"x": 1.5587971328,
				"y": -2.7648209746,
				"z": -2.7313182792,
				"element": "H" 
			},
			{
				"x": 0.8381439946,
				"y": -3.1454418097,
				"z": 0.8513790871,
				"element": "H" 
			},
			{
				"x": 1.7247079155,
				"y": -1.630361471,
				"z": 1.0647689217,
				"element": "H" 
			},
			{
				"x": -3.4627082407,
				"y": -2.1284926961,
				"z": 0.2071629144,
				"element": "H" 
			},
			{
				"x": -2.8922510216,
				"y": -0.9775723727,
				"z": 1.4371406848,
				"element": "H" 
			},
			{
				"x": 1.8213288703,
				"y": 0.2844427183,
				"z": -0.0699537405,
				"element": "H" 
			},
			{
				"x": -0.6086592638,
				"y": 3.4455693485,
				"z": -1.6752243856,
				"element": "H" 
			},
			{
				"x": -2.6459213178,
				"y": 1.9833605405,
				"z": -1.4340833914,
				"element": "H" 
			}
		],
		 "valence_orbital": [ 
			{
				"type": "occ",
				"energy": -0.3143,
				"method": "rhf"
			},
			{
				"type": "occ",
				"energy": -0.30074,
				"method": "rhf"
			},
			{
				"type": "occ",
				"energy": -0.29423,
				"method": "rhf"
			},
			{
				"type": "occ",
				"energy": -0.27896,
				"method": "rhf"
			},
			{
				"type": "occ",
				"energy": -0.25059,
				"method": "rhf"
			},
			{
				"type": "unocc",
				"energy": -0.09214,
				"method": "rhf"
			},
			{
				"type": "unocc",
				"energy": -0.05191,
				"method": "rhf"
			},
			{
				"type": "unocc",
				"energy": -0.04674,
				"method": "rhf"
			},
			{
				"type": "unocc",
				"energy": -0.01314,
				"method": "rhf"
			},
			{
				"type": "unocc",
				"energy": -0.00829,
				"method": "rhf"
			}
		],
		"cosmo_sigma_profile": { 
			"-0.025": 0.0,
			"-0.024": 0.0,
			"-0.023": 0.0,
			"-0.022": 0.0,
			"-0.021": 0.0,
			"-0.02": 0.0,
			"-0.019": 0.474222628085,
			"-0.018": 1.20207204799,
			"-0.017": 0.827055322718,
			"-0.016": 0.643222707692,
			"-0.015": 0.978446114406,
			"-0.014": 1.01301147927,
			"-0.013": 0.565710530803,
			"-0.012": 0.596168005813,
			"-0.011": 1.31610740449,
			"-0.01": 2.89967339182,
			"-0.009": 8.8010933223,
			"-0.008": 13.2046930539,
			"-0.007": 13.0108227831,
			"-0.006": 14.7062121727,
			"-0.005": 12.295013628,
			"-0.004": 14.8447849714,
			"-0.003": 12.0137541988,
			"-0.002": 13.6221310938,
			"-0.001": 19.948500933,
			"0.0": 23.2783793903,
			"0.001": 17.6622757303,
			"0.002": 13.6168740523,
			"0.003": 19.3392533575,
			"0.004": 16.8269672189,
			"0.005": 6.75633625028,
			"0.006": 8.28629617453,
			"0.007": 10.524465948,
			"0.008": 13.1911361471,
			"0.009": 8.06982051618,
			"0.01": 4.80492744061,
			"0.011": 9.37480307647,
			"0.012": 3.83031294964,
			"0.013": 0.196736691736,
			"0.014": 0.0,
			"0.015": 0.0,
			"0.016": 0.0,
			"0.017": 0.0,
			"0.018": 0.0,
			"0.019": 0.0,
			"0.02": 0.0,
			"0.021": 0.0,
			"0.022": 0.0,
			"0.023": 0.0,
			"0.024": 0.0,
			"0.025": 0.0
		}
	}
}
