{
	 "smiles": "OC(=O)C1=CC(F)=NC=C1", 
	 "Tm": 619.15, 
	 "num_atms": 14, 
	 "gaussian": { 
		 "optdone": 1, 
		 "sigma_profile": "yes", 
		 "theory": "DFT", 
		 "functional": "B3LYP", 
		 "basiset": "6-31G**", 
		 "properties": { 
			 "R2extent": 1616.8136, 
			 "electric_dipole_moment_norm": 3.236145451, 
			 "electric_quadrupole_moment_norm": 5.79259398715, 
			 "total_energy": -536.095765618, 
			 "HOMO_LUMO_gap": 0.19451, 
			 "cosmo_polarized_energy": -10.17, 
			 "cosmo_cavitation_energy": 19.84, 
			 "cosmo_dispersion_energy": -14.66, 
			 "cosmo_repulsion_energy": 1.16, 
			 "cosmo_total_nonelectrostatic_energy": 6.34, 
			 "SMD_solvation_energy": 3.87 
		},
		"coords": [
			{
				"x": -1.4618905385,
				"y": -2.6486839514,
				"z": -0.984419734,
				"element": "O" 
			},
			{
				"x": -1.1253733557,
				"y": -1.3839677216,
				"z": -1.3245464732,
				"element": "C" 
			},
			{
				"x": -1.0293052792,
				"y": -1.014767374,
				"z": -2.4756500272,
				"element": "O" 
			},
			{
				"x": -0.8899576788,
				"y": -0.5102528819,
				"z": -0.1351620309,
				"element": "C" 
			},
			{
				"x": -0.5362294212,
				"y": 0.8192016405,
				"z": -0.3607045871,
				"element": "C" 
			},
			{
				"x": -0.3227170383,
				"y": 1.6112413771,
				"z": 0.7657104575,
				"element": "C" 
			},
			{
				"x": 0.0186004446,
				"y": 2.8939118861,
				"z": 0.581275013,
				"element": "F" 
			},
			{
				"x": -0.4264940454,
				"y": 1.2111489509,
				"z": 2.0158496891,
				"element": "N" 
			},
			{
				"x": -0.7677687558,
				"y": -0.071434183,
				"z": 2.2152805383,
				"element": "C" 
			},
			{
				"x": -1.0102928012,
				"y": -0.9729238827,
				"z": 1.1824971067,
				"element": "C" 
			},
			{
				"x": -1.5915499814,
				"y": -3.1286598697,
				"z": -1.8192772364,
				"element": "H" 
			},
			{
				"x": -0.4339336659,
				"y": 1.2113959969,
				"z": -1.3648674394,
				"element": "H" 
			},
			{
				"x": -0.8491309243,
				"y": -0.3855237457,
				"z": 3.2531343053,
				"element": "H" 
			},
			{
				"x": -1.283456959,
				"y": -1.9998862417,
				"z": 1.3897804182,
				"element": "H" 
			}
		],
		 "valence_orbital": [ 
			{
				"type": "occ",
				"energy": -0.33981,
				"method": "rhf"
			},
			{
				"type": "occ",
				"energy": -0.30769,
				"method": "rhf"
			},
			{
				"type": "occ",
				"energy": -0.29905,
				"method": "rhf"
			},
			{
				"type": "occ",
				"energy": -0.28796,
				"method": "rhf"
			},
			{
				"type": "occ",
				"energy": -0.2717,
				"method": "rhf"
			},
			{
				"type": "unocc",
				"energy": -0.07719,
				"method": "rhf"
			},
			{
				"type": "unocc",
				"energy": -0.02431,
				"method": "rhf"
			},
			{
				"type": "unocc",
				"energy": 0.03816,
				"method": "rhf"
			},
			{
				"type": "unocc",
				"energy": 0.06257,
				"method": "rhf"
			},
			{
				"type": "unocc",
				"energy": 0.10615,
				"method": "rhf"
			}
		],
		"cosmo_sigma_profile": { 
			"-0.025": 0.0,
			"-0.024": 0.0,
			"-0.023": 0.0,
			"-0.022": 0.0,
			"-0.021": 0.0,
			"-0.02": 0.0,
			"-0.019": 0.329205720661,
			"-0.018": 1.32533261338,
			"-0.017": 0.905225556794,
			"-0.016": 0.542912398078,
			"-0.015": 0.613543949182,
			"-0.014": 1.39464915637,
			"-0.013": 0.397253458859,
			"-0.012": 0.569330009428,
			"-0.011": 1.2372201934,
			"-0.01": 0.176941081446,
			"-0.009": 0.747989666742,
			"-0.008": 4.02633366328,
			"-0.007": 6.42942586427,
			"-0.006": 4.92564567206,
			"-0.005": 5.42393759716,
			"-0.004": 7.9215562408,
			"-0.003": 9.88107756595,
			"-0.002": 15.274372978,
			"-0.001": 16.4604696709,
			"0.0": 14.1399477421,
			"0.001": 9.37775098555,
			"0.002": 5.52679257209,
			"0.003": 10.9415402459,
			"0.004": 9.61155864479,
			"0.005": 5.18152311654,
			"0.006": 5.35607528099,
			"0.007": 3.18805351093,
			"0.008": 2.91881617438,
			"0.009": 2.90527970133,
			"0.01": 3.93269530213,
			"0.011": 5.36525841306,
			"0.012": 1.4127178657,
			"0.013": 0.953072827715,
			"0.014": 0.584136482753,
			"0.015": 0.0184368121685,
			"0.016": 0.0,
			"0.017": 0.0,
			"0.018": 0.0,
			"0.019": 0.0,
			"0.02": 0.0,
			"0.021": 0.0,
			"0.022": 0.0,
			"0.023": 0.0,
			"0.024": 0.0,
			"0.025": 0.0
		}
	}
}
