{
	 "smiles": "COC1=CC(OC)=C(CO)C=C1", 
	 "Tm": 311.65, 
	 "num_atms": 24, 
	 "gaussian": { 
		 "optdone": 1, 
		 "sigma_profile": "yes", 
		 "theory": "DFT", 
		 "functional": "B3LYP", 
		 "basiset": "6-31G**", 
		 "properties": { 
			 "R2extent": 2589.1196, 
			 "electric_dipole_moment_norm": 2.44394103652, 
			 "electric_quadrupole_moment_norm": 13.1750271256, 
			 "total_energy": -575.826967521, 
			 "HOMO_LUMO_gap": 0.21452, 
			 "cosmo_polarized_energy": -10.43, 
			 "cosmo_cavitation_energy": 27.14, 
			 "cosmo_dispersion_energy": -20.11, 
			 "cosmo_repulsion_energy": 1.62, 
			 "cosmo_total_nonelectrostatic_energy": 8.65, 
			 "SMD_solvation_energy": 6.2 
		},
		"coords": [
			{
				"x": 3.32881662,
				"y": -0.4450126597,
				"z": 2.819519236,
				"element": "C" 
			},
			{
				"x": 2.8560332281,
				"y": -0.660245825,
				"z": 1.5002044582,
				"element": "O" 
			},
			{
				"x": 1.5675481027,
				"y": -0.3037716911,
				"z": 1.2143342901,
				"element": "C" 
			},
			{
				"x": 1.1644936848,
				"y": -0.5561807962,
				"z": -0.1076819992,
				"element": "C" 
			},
			{
				"x": -0.1280901466,
				"y": -0.232750867,
				"z": -0.5105864444,
				"element": "C" 
			},
			{
				"x": -0.6095482445,
				"y": -0.4520819756,
				"z": -1.7727983698,
				"element": "O" 
			},
			{
				"x": 0.2607150744,
				"y": -1.0204187522,
				"z": -2.7380964059,
				"element": "C" 
			},
			{
				"x": -1.0440397925,
				"y": 0.3554340921,
				"z": 0.3901438657,
				"element": "C" 
			},
			{
				"x": -2.4487378752,
				"y": 0.705950149,
				"z": -0.0627053305,
				"element": "C" 
			},
			{
				"x": -3.1219958241,
				"y": 1.5942165996,
				"z": 0.8204038756,
				"element": "O" 
			},
			{
				"x": -0.6170248178,
				"y": 0.5848844331,
				"z": 1.6923436379,
				"element": "C" 
			},
			{
				"x": 0.677727647,
				"y": 0.2682337762,
				"z": 2.1238434833,
				"element": "C" 
			},
			{
				"x": 2.7460127967,
				"y": -1.0121568139,
				"z": 3.5568691719,
				"element": "H" 
			},
			{
				"x": 3.3068390304,
				"y": 0.6187188887,
				"z": 3.0900693438,
				"element": "H" 
			},
			{
				"x": 4.3618797721,
				"y": -0.7965756189,
				"z": 2.8316579952,
				"element": "H" 
			},
			{
				"x": 1.8855394989,
				"y": -1.0039933912,
				"z": -0.7794694516,
				"element": "H" 
			},
			{
				"x": 0.5959833283,
				"y": -2.0216582781,
				"z": -2.4391263531,
				"element": "H" 
			},
			{
				"x": -0.3184261467,
				"y": -1.095451538,
				"z": -3.6598903724,
				"element": "H" 
			},
			{
				"x": 1.1396505691,
				"y": -0.3868302568,
				"z": -2.9129401819,
				"element": "H" 
			},
			{
				"x": -3.0731859757,
				"y": -0.1947278518,
				"z": -0.1019480063,
				"element": "H" 
			},
			{
				"x": -2.4168280443,
				"y": 1.1027819567,
				"z": -1.0873943178,
				"element": "H" 
			},
			{
				"x": -2.6196219948,
				"y": 2.419895897,
				"z": 0.8324912727,
				"element": "H" 
			},
			{
				"x": -1.3230222525,
				"y": 1.0247495461,
				"z": 2.3898140672,
				"element": "H" 
			},
			{
				"x": 0.9657817624,
				"y": 0.467390977,
				"z": 3.1485425353,
				"element": "H" 
			}
		],
		 "valence_orbital": [ 
			{
				"type": "occ",
				"energy": -0.31889,
				"method": "rhf"
			},
			{
				"type": "occ",
				"energy": -0.29452,
				"method": "rhf"
			},
			{
				"type": "occ",
				"energy": -0.26544,
				"method": "rhf"
			},
			{
				"type": "occ",
				"energy": -0.22741,
				"method": "rhf"
			},
			{
				"type": "occ",
				"energy": -0.20465,
				"method": "rhf"
			},
			{
				"type": "unocc",
				"energy": 0.00987,
				"method": "rhf"
			},
			{
				"type": "unocc",
				"energy": 0.02132,
				"method": "rhf"
			},
			{
				"type": "unocc",
				"energy": 0.08921,
				"method": "rhf"
			},
			{
				"type": "unocc",
				"energy": 0.09736,
				"method": "rhf"
			},
			{
				"type": "unocc",
				"energy": 0.10594,
				"method": "rhf"
			}
		],
		"cosmo_sigma_profile": { 
			"-0.025": 0.0,
			"-0.024": 0.0,
			"-0.023": 0.0,
			"-0.022": 0.0,
			"-0.021": 0.0,
			"-0.02": 0.0,
			"-0.019": 0.0,
			"-0.018": 0.0,
			"-0.017": 0.0,
			"-0.016": 0.179614700389,
			"-0.015": 0.703419036926,
			"-0.014": 0.954260265581,
			"-0.013": 0.872225948815,
			"-0.012": 0.98013499644,
			"-0.011": 0.593030509576,
			"-0.01": 0.711119528086,
			"-0.009": 0.361315479621,
			"-0.008": 1.24649204338,
			"-0.007": 1.15262808671,
			"-0.006": 8.13379827385,
			"-0.005": 22.556034688,
			"-0.004": 23.7378950992,
			"-0.003": 25.8539660007,
			"-0.002": 14.7292635971,
			"-0.001": 11.4442347932,
			"0.0": 9.71520328436,
			"0.001": 8.76957550812,
			"0.002": 10.2842702135,
			"0.003": 12.4164251389,
			"0.004": 11.9850388533,
			"0.005": 14.240583612,
			"0.006": 10.2665264378,
			"0.007": 5.84129151839,
			"0.008": 3.72684963338,
			"0.009": 2.48703133998,
			"0.01": 2.76424839143,
			"0.011": 2.07033176407,
			"0.012": 1.26745780984,
			"0.013": 1.64693586874,
			"0.014": 2.03278126712,
			"0.015": 0.190828575434,
			"0.016": 0.0,
			"0.017": 0.0,
			"0.018": 0.0,
			"0.019": 0.0,
			"0.02": 0.0,
			"0.021": 0.0,
			"0.022": 0.0,
			"0.023": 0.0,
			"0.024": 0.0,
			"0.025": 0.0
		}
	}
}
