{
	 "smiles": "NNC1=CC(=CC=C1)C#N", 
	 "Tm": 378.15, 
	 "num_atms": 17, 
	 "gaussian": { 
		 "optdone": 1, 
		 "sigma_profile": "yes", 
		 "theory": "DFT", 
		 "functional": "B3LYP", 
		 "basiset": "6-31G**", 
		 "properties": { 
			 "R2extent": 2532.1213, 
			 "electric_dipole_moment_norm": 5.18150830261, 
			 "electric_quadrupole_moment_norm": 15.7573684351, 
			 "total_energy": -435.166241014, 
			 "HOMO_LUMO_gap": 0.17572, 
			 "cosmo_polarized_energy": -14.07, 
			 "cosmo_cavitation_energy": 22.32, 
			 "cosmo_dispersion_energy": -15.97, 
			 "cosmo_repulsion_energy": 1.3, 
			 "cosmo_total_nonelectrostatic_energy": 7.65, 
			 "SMD_solvation_energy": 5.65 
		},
		"coords": [
			{
				"x": 3.3377316496,
				"y": 1.8419750365,
				"z": -2.0301874029,
				"element": "N" 
			},
			{
				"x": 3.0066134682,
				"y": 1.9186903729,
				"z": -0.6664863379,
				"element": "N" 
			},
			{
				"x": 1.7518796747,
				"y": 1.5571300698,
				"z": -0.1852941754,
				"element": "C" 
			},
			{
				"x": 1.3463085968,
				"y": 2.0059309617,
				"z": 1.08393235,
				"element": "C" 
			},
			{
				"x": 0.1073019195,
				"y": 1.6196514,
				"z": 1.6056095828,
				"element": "C" 
			},
			{
				"x": -0.7547047994,
				"y": 0.7823566155,
				"z": 0.8746268748,
				"element": "C" 
			},
			{
				"x": -0.3466019606,
				"y": 0.3437003308,
				"z": -0.3809368833,
				"element": "C" 
			},
			{
				"x": 0.8869191622,
				"y": 0.7199329873,
				"z": -0.9130710141,
				"element": "C" 
			},
			{
				"x": -0.2872112687,
				"y": 2.093091834,
				"z": 2.902316478,
				"element": "C" 
			},
			{
				"x": -0.6092297325,
				"y": 2.4762755227,
				"z": 3.9523770992,
				"element": "N" 
			},
			{
				"x": 2.5535797148,
				"y": 2.1362269499,
				"z": -2.6143591833,
				"element": "H" 
			},
			{
				"x": 3.5661988753,
				"y": 0.8797089637,
				"z": -2.2660595694,
				"element": "H" 
			},
			{
				"x": 3.4285125267,
				"y": 2.7237959921,
				"z": -0.2246839705,
				"element": "H" 
			},
			{
				"x": 1.9955096698,
				"y": 2.6534803613,
				"z": 1.6656443282,
				"element": "H" 
			},
			{
				"x": -1.7129890662,
				"y": 0.4929034008,
				"z": 1.2897110378,
				"element": "H" 
			},
			{
				"x": -0.9972910555,
				"y": -0.304103827,
				"z": -0.9607585435,
				"element": "H" 
			},
			{
				"x": 1.1850726253,
				"y": 0.3581530281,
				"z": -1.8908806704,
				"element": "H" 
			}
		],
		 "valence_orbital": [ 
			{
				"type": "occ",
				"energy": -0.32751,
				"method": "rhf"
			},
			{
				"type": "occ",
				"energy": -0.31308,
				"method": "rhf"
			},
			{
				"type": "occ",
				"energy": -0.28241,
				"method": "rhf"
			},
			{
				"type": "occ",
				"energy": -0.26505,
				"method": "rhf"
			},
			{
				"type": "occ",
				"energy": -0.22211,
				"method": "rhf"
			},
			{
				"type": "unocc",
				"energy": -0.04639,
				"method": "rhf"
			},
			{
				"type": "unocc",
				"energy": -0.01067,
				"method": "rhf"
			},
			{
				"type": "unocc",
				"energy": 0.04106,
				"method": "rhf"
			},
			{
				"type": "unocc",
				"energy": 0.06211,
				"method": "rhf"
			},
			{
				"type": "unocc",
				"energy": 0.08092,
				"method": "rhf"
			}
		],
		"cosmo_sigma_profile": { 
			"-0.025": 0.0,
			"-0.024": 0.0,
			"-0.023": 0.0,
			"-0.022": 0.0,
			"-0.021": 0.0,
			"-0.02": 0.0,
			"-0.019": 0.0,
			"-0.018": 0.0,
			"-0.017": 0.0,
			"-0.016": 0.0,
			"-0.015": 0.0,
			"-0.014": 0.00474036768003,
			"-0.013": 1.27190366057,
			"-0.012": 1.51086520911,
			"-0.011": 3.37341343886,
			"-0.01": 4.79285350911,
			"-0.009": 6.11330328979,
			"-0.008": 5.72596980075,
			"-0.007": 7.58024890513,
			"-0.006": 10.0980729442,
			"-0.005": 10.4233318125,
			"-0.004": 8.062733071,
			"-0.003": 8.99999070509,
			"-0.002": 6.4257683009,
			"-0.001": 9.09343127477,
			"0.0": 11.0930801853,
			"0.001": 10.2990044039,
			"0.002": 8.8899421062,
			"0.003": 15.0255682649,
			"0.004": 11.7252650798,
			"0.005": 4.20852819887,
			"0.006": 4.51480343674,
			"0.007": 4.53576461061,
			"0.008": 4.69428036525,
			"0.009": 4.59974338467,
			"0.01": 4.76293583267,
			"0.011": 3.1284619616,
			"0.012": 3.23219042434,
			"0.013": 2.39674969814,
			"0.014": 0.882354283085,
			"0.015": 0.569279683795,
			"0.016": 0.522013453344,
			"0.017": 0.184854637336,
			"0.018": 0.0,
			"0.019": 0.0,
			"0.02": 0.0,
			"0.021": 0.0,
			"0.022": 0.0,
			"0.023": 0.0,
			"0.024": 0.0,
			"0.025": 0.0
		}
	}
}
