{
	 "smiles": "C=CC1=NC2=C(C3=C(CCCC3)S2)C(=O)N1", 
	 "Tm": 483.15, 
	 "num_atms": 28, 
	 "gaussian": { 
		 "optdone": 1, 
		 "sigma_profile": "yes", 
		 "theory": "DFT", 
		 "functional": "B3LYP", 
		 "basiset": "6-31G**", 
		 "properties": { 
			 "R2extent": 4779.3576, 
			 "electric_dipole_moment_norm": 1.40112746743, 
			 "electric_quadrupole_moment_norm": 22.6395050812, 
			 "total_energy": -1047.4427582, 
			 "HOMO_LUMO_gap": 0.14048, 
			 "cosmo_polarized_energy": -12.7, 
			 "cosmo_cavitation_energy": 32.33, 
			 "cosmo_dispersion_energy": -24.42, 
			 "cosmo_repulsion_energy": 1.84, 
			 "cosmo_total_nonelectrostatic_energy": 9.74, 
			 "SMD_solvation_energy": 4.01 
		},
		"coords": [
			{
				"x": -0.83927188,
				"y": 3.807797999,
				"z": -4.1201320136,
				"element": "C" 
			},
			{
				"x": 0.2224726303,
				"y": 3.121163506,
				"z": -3.6856186692,
				"element": "C" 
			},
			{
				"x": 0.2368008697,
				"y": 2.3680316071,
				"z": -2.4239836162,
				"element": "C" 
			},
			{
				"x": -0.8149678746,
				"y": 2.331479238,
				"z": -1.6429697799,
				"element": "N" 
			},
			{
				"x": -0.6722049286,
				"y": 1.6025658019,
				"z": -0.5088908523,
				"element": "C" 
			},
			{
				"x": 0.4613871289,
				"y": 0.9009534406,
				"z": -0.093554281,
				"element": "C" 
			},
			{
				"x": 0.2878839858,
				"y": 0.2238284089,
				"z": 1.1604931493,
				"element": "C" 
			},
			{
				"x": -0.9642691067,
				"y": 0.4228035211,
				"z": 1.6799721613,
				"element": "C" 
			},
			{
				"x": -1.4694044081,
				"y": -0.1537105599,
				"z": 2.9740553984,
				"element": "C" 
			},
			{
				"x": -0.2911388197,
				"y": -0.6683634694,
				"z": 3.8228157589,
				"element": "C" 
			},
			{
				"x": 0.7000277322,
				"y": -1.4750854528,
				"z": 2.9710419798,
				"element": "C" 
			},
			{
				"x": 1.3300660396,
				"y": -0.6105638982,
				"z": 1.8664553447,
				"element": "C" 
			},
			{
				"x": -1.9700965458,
				"y": 1.4356653916,
				"z": 0.6522082374,
				"element": "S" 
			},
			{
				"x": 1.6297171221,
				"y": 0.9300017237,
				"z": -0.9492689746,
				"element": "C" 
			},
			{
				"x": 2.7150791405,
				"y": 0.3851676942,
				"z": -0.780636692,
				"element": "O" 
			},
			{
				"x": 1.4015786693,
				"y": 1.7089673897,
				"z": -2.1090589626,
				"element": "N" 
			},
			{
				"x": -0.8104993968,
				"y": 4.3518378746,
				"z": -5.0579955117,
				"element": "H" 
			},
			{
				"x": -1.7553084935,
				"y": 3.8339867604,
				"z": -3.5393592518,
				"element": "H" 
			},
			{
				"x": 1.1391757113,
				"y": 3.0980259737,
				"z": -4.2719262984,
				"element": "H" 
			},
			{
				"x": -2.1664222925,
				"y": -0.9786863412,
				"z": 2.7659772876,
				"element": "H" 
			},
			{
				"x": -2.043230076,
				"y": 0.5945827173,
				"z": 3.5344246877,
				"element": "H" 
			},
			{
				"x": 0.2301628861,
				"y": 0.1866906226,
				"z": 4.2723971191,
				"element": "H" 
			},
			{
				"x": -0.6753140137,
				"y": -1.2764117374,
				"z": 4.6492745854,
				"element": "H" 
			},
			{
				"x": 0.1730731882,
				"y": -2.3236952679,
				"z": 2.5144321976,
				"element": "H" 
			},
			{
				"x": 1.4880075578,
				"y": -1.8982636841,
				"z": 3.6036056511,
				"element": "H" 
			},
			{
				"x": 2.0902162927,
				"y": 0.0558327366,
				"z": 2.2974618041,
				"element": "H" 
			},
			{
				"x": 1.8667479963,
				"y": -1.2253001524,
				"z": 1.1381488874,
				"element": "H" 
			},
			{
				"x": 2.1953308851,
				"y": 1.7561981564,
				"z": -2.7371693463,
				"element": "H" 
			}
		],
		 "valence_orbital": [ 
			{
				"type": "occ",
				"energy": -0.28426,
				"method": "rhf"
			},
			{
				"type": "occ",
				"energy": -0.28287,
				"method": "rhf"
			},
			{
				"type": "occ",
				"energy": -0.25728,
				"method": "rhf"
			},
			{
				"type": "occ",
				"energy": -0.24872,
				"method": "rhf"
			},
			{
				"type": "occ",
				"energy": -0.20511,
				"method": "rhf"
			},
			{
				"type": "unocc",
				"energy": -0.06463,
				"method": "rhf"
			},
			{
				"type": "unocc",
				"energy": -0.01139,
				"method": "rhf"
			},
			{
				"type": "unocc",
				"energy": 0.01536,
				"method": "rhf"
			},
			{
				"type": "unocc",
				"energy": 0.02341,
				"method": "rhf"
			},
			{
				"type": "unocc",
				"energy": 0.06511,
				"method": "rhf"
			}
		],
		"cosmo_sigma_profile": { 
			"-0.025": 0.0,
			"-0.024": 0.0,
			"-0.023": 0.0,
			"-0.022": 0.0,
			"-0.021": 0.0,
			"-0.02": 0.0,
			"-0.019": 0.0,
			"-0.018": 0.0,
			"-0.017": 0.0161795596467,
			"-0.016": 1.14499605118,
			"-0.015": 1.66224055342,
			"-0.014": 1.15832667031,
			"-0.013": 1.31138072982,
			"-0.012": 0.90088576142,
			"-0.011": 1.36152609871,
			"-0.01": 1.00871496906,
			"-0.009": 1.48857052613,
			"-0.008": 1.80250362447,
			"-0.007": 3.18000800039,
			"-0.006": 4.88275000639,
			"-0.005": 7.0338142194,
			"-0.004": 12.7353862861,
			"-0.003": 24.7305914079,
			"-0.002": 33.6373872936,
			"-0.001": 32.1830274555,
			"0.0": 25.2604520309,
			"0.001": 21.6272504125,
			"0.002": 19.0857570487,
			"0.003": 19.1838739047,
			"0.004": 12.4094997336,
			"0.005": 4.49390657248,
			"0.006": 3.50312721888,
			"0.007": 3.76603038881,
			"0.008": 2.20032746989,
			"0.009": 2.91167341438,
			"0.01": 2.81509671431,
			"0.011": 2.01720349962,
			"0.012": 2.30060576059,
			"0.013": 4.85787167375,
			"0.014": 2.08300964148,
			"0.015": 0.0,
			"0.016": 0.0,
			"0.017": 0.0,
			"0.018": 0.0,
			"0.019": 0.0,
			"0.02": 0.0,
			"0.021": 0.0,
			"0.022": 0.0,
			"0.023": 0.0,
			"0.024": 0.0,
			"0.025": 0.0
		}
	}
}
