{
	 "smiles": "OC1=CC=C(C=C1)C(=O)OCC1=CC=CC=C1", 
	 "Tm": 385.15, 
	 "num_atms": 29, 
	 "gaussian": { 
		 "optdone": 1, 
		 "sigma_profile": "yes", 
		 "theory": "DFT", 
		 "functional": "B3LYP", 
		 "basiset": "6-31G**", 
		 "properties": { 
			 "R2extent": 5930.5879, 
			 "electric_dipole_moment_norm": 3.14327040358, 
			 "electric_quadrupole_moment_norm": 7.52593291028, 
			 "total_energy": -766.407624479, 
			 "HOMO_LUMO_gap": 0.19707, 
			 "cosmo_polarized_energy": -13.5, 
			 "cosmo_cavitation_energy": 33.94, 
			 "cosmo_dispersion_energy": -24.54, 
			 "cosmo_repulsion_energy": 1.9, 
			 "cosmo_total_nonelectrostatic_energy": 11.31, 
			 "SMD_solvation_energy": 6.91 
		},
		"coords": [
			{
				"x": 0.6045953971,
				"y": -3.8832745025,
				"z": 3.5980637685,
				"element": "O" 
			},
			{
				"x": 0.40676486,
				"y": -2.7566029286,
				"z": 2.8604532511,
				"element": "C" 
			},
			{
				"x": -0.4539068868,
				"y": -1.7842496172,
				"z": 3.3894310505,
				"element": "C" 
			},
			{
				"x": -0.6896053041,
				"y": -0.6179945246,
				"z": 2.6767863019,
				"element": "C" 
			},
			{
				"x": -0.0761081363,
				"y": -0.3976716576,
				"z": 1.4327314202,
				"element": "C" 
			},
			{
				"x": 0.7823660499,
				"y": -1.3758414258,
				"z": 0.9122789242,
				"element": "C" 
			},
			{
				"x": 1.0238254227,
				"y": -2.5490555707,
				"z": 1.6194662044,
				"element": "C" 
			},
			{
				"x": -0.3698321796,
				"y": 0.8711652549,
				"z": 0.7216013229,
				"element": "C" 
			},
			{
				"x": -1.1219513412,
				"y": 1.7330621607,
				"z": 1.1426708298,
				"element": "O" 
			},
			{
				"x": 0.3011535918,
				"y": 0.9700549354,
				"z": -0.4519158053,
				"element": "O" 
			},
			{
				"x": 0.0856744201,
				"y": 2.1788289344,
				"z": -1.2294376554,
				"element": "C" 
			},
			{
				"x": -1.0165191522,
				"y": 2.0057875934,
				"z": -2.2456166716,
				"element": "C" 
			},
			{
				"x": -2.3560176279,
				"y": 2.2174543968,
				"z": -1.8884335736,
				"element": "C" 
			},
			{
				"x": -3.3712438912,
				"y": 2.0479224974,
				"z": -2.8297451313,
				"element": "C" 
			},
			{
				"x": -3.0609149111,
				"y": 1.6671780026,
				"z": -4.1375769388,
				"element": "C" 
			},
			{
				"x": -1.7300351788,
				"y": 1.4553146279,
				"z": -4.5015238618,
				"element": "C" 
			},
			{
				"x": -0.7151331436,
				"y": 1.6237449345,
				"z": -3.5585131106,
				"element": "C" 
			},
			{
				"x": 1.2113994968,
				"y": -4.471055464,
				"z": 3.128951419,
				"element": "H" 
			},
			{
				"x": -0.9212454364,
				"y": -1.9659762433,
				"z": 4.3513244326,
				"element": "H" 
			},
			{
				"x": -1.3525894805,
				"y": 0.1462333358,
				"z": 3.0678884399,
				"element": "H" 
			},
			{
				"x": 1.2570643363,
				"y": -1.2136303053,
				"z": -0.0483594954,
				"element": "H" 
			},
			{
				"x": 1.6900864184,
				"y": -3.3060029909,
				"z": 1.2109287308,
				"element": "H" 
			},
			{
				"x": 1.04425359,
				"y": 2.3580707669,
				"z": -1.7213770114,
				"element": "H" 
			},
			{
				"x": -0.1338469428,
				"y": 2.9964604334,
				"z": -0.5405566516,
				"element": "H" 
			},
			{
				"x": -2.5910623371,
				"y": 2.5054639178,
				"z": -0.8684756724,
				"element": "H" 
			},
			{
				"x": -4.4056245054,
				"y": 2.2161297786,
				"z": -2.5434278961,
				"element": "H" 
			},
			{
				"x": -3.8527650148,
				"y": 1.5388952388,
				"z": -4.8702266782,
				"element": "H" 
			},
			{
				"x": -1.4822426528,
				"y": 1.1619692622,
				"z": -5.517757109,
				"element": "H" 
			},
			{
				"x": 0.3214605395,
				"y": 1.4606191588,
				"z": -3.8440328333,
				"element": "H" 
			}
		],
		 "valence_orbital": [ 
			{
				"type": "occ",
				"energy": -0.2702,
				"method": "rhf"
			},
			{
				"type": "occ",
				"energy": -0.26059,
				"method": "rhf"
			},
			{
				"type": "occ",
				"energy": -0.24908,
				"method": "rhf"
			},
			{
				"type": "occ",
				"energy": -0.24623,
				"method": "rhf"
			},
			{
				"type": "occ",
				"energy": -0.23189,
				"method": "rhf"
			},
			{
				"type": "unocc",
				"energy": -0.03482,
				"method": "rhf"
			},
			{
				"type": "unocc",
				"energy": -0.00889,
				"method": "rhf"
			},
			{
				"type": "unocc",
				"energy": -0.00767,
				"method": "rhf"
			},
			{
				"type": "unocc",
				"energy": -7e-05,
				"method": "rhf"
			},
			{
				"type": "unocc",
				"energy": 0.06236,
				"method": "rhf"
			}
		],
		"cosmo_sigma_profile": { 
			"-0.025": 0.0,
			"-0.024": 0.0,
			"-0.023": 0.0,
			"-0.022": 0.0,
			"-0.021": 0.0,
			"-0.02": 0.0,
			"-0.019": 0.202445234581,
			"-0.018": 0.967642537648,
			"-0.017": 1.24931609146,
			"-0.016": 1.21254535195,
			"-0.015": 0.916996515385,
			"-0.014": 0.743308293108,
			"-0.013": 0.249468763044,
			"-0.012": 1.12655613278,
			"-0.011": 1.99434449785,
			"-0.01": 1.25535646832,
			"-0.009": 0.781424543979,
			"-0.008": 1.18330482174,
			"-0.007": 3.46411743627,
			"-0.006": 14.2434314868,
			"-0.005": 19.4254085055,
			"-0.004": 20.4065853072,
			"-0.003": 18.9207548312,
			"-0.002": 14.9368220439,
			"-0.001": 17.8461453036,
			"0.0": 15.6327495441,
			"0.001": 19.0117579495,
			"0.002": 23.5681878717,
			"0.003": 26.5170038922,
			"0.004": 22.2351648618,
			"0.005": 16.155370947,
			"0.006": 9.28892583805,
			"0.007": 2.45409408489,
			"0.008": 2.78042120272,
			"0.009": 2.8830462089,
			"0.01": 3.94079109193,
			"0.011": 2.71497436056,
			"0.012": 3.00305758107,
			"0.013": 0.291379976982,
			"0.014": 0.0,
			"0.015": 0.0,
			"0.016": 0.0,
			"0.017": 0.0,
			"0.018": 0.0,
			"0.019": 0.0,
			"0.02": 0.0,
			"0.021": 0.0,
			"0.022": 0.0,
			"0.023": 0.0,
			"0.024": 0.0,
			"0.025": 0.0
		}
	}
}
