{
	 "smiles": "COC(=O)C1=CC=CC=C1SC", 
	 "Tm": 338.15, 
	 "num_atms": 22, 
	 "gaussian": { 
		 "optdone": 1, 
		 "sigma_profile": "yes", 
		 "theory": "DFT", 
		 "functional": "B3LYP", 
		 "basiset": "6-31G**", 
		 "properties": { 
			 "R2extent": 2730.4233, 
			 "electric_dipole_moment_norm": 2.52619181576, 
			 "electric_quadrupole_moment_norm": 9.41049278306, 
			 "total_energy": -897.622969419, 
			 "HOMO_LUMO_gap": 0.16875, 
			 "cosmo_polarized_energy": -8.45, 
			 "cosmo_cavitation_energy": 27.26, 
			 "cosmo_dispersion_energy": -20.25, 
			 "cosmo_repulsion_energy": 1.58, 
			 "cosmo_total_nonelectrostatic_energy": 8.59, 
			 "SMD_solvation_energy": 6.29 
		},
		"coords": [
			{
				"x": 2.9373372543,
				"y": -0.7660609389,
				"z": -0.2383324955,
				"element": "C" 
			},
			{
				"x": 1.6650732138,
				"y": -0.7704968491,
				"z": -0.9047505188,
				"element": "O" 
			},
			{
				"x": 0.5963700603,
				"y": -0.5398936917,
				"z": -0.10403257,
				"element": "C" 
			},
			{
				"x": 0.7095665158,
				"y": -0.3251761171,
				"z": 1.0857281611,
				"element": "O" 
			},
			{
				"x": -0.6847566668,
				"y": -0.6174142386,
				"z": -0.8728547103,
				"element": "C" 
			},
			{
				"x": -0.7424928228,
				"y": -1.4947956323,
				"z": -1.9678506891,
				"element": "C" 
			},
			{
				"x": -1.9074742207,
				"y": -1.6419974854,
				"z": -2.7157841659,
				"element": "C" 
			},
			{
				"x": -3.0349781529,
				"y": -0.8917456122,
				"z": -2.3863461593,
				"element": "C" 
			},
			{
				"x": -2.98903231,
				"y": -0.0087645962,
				"z": -1.3076355647,
				"element": "C" 
			},
			{
				"x": -1.8320972038,
				"y": 0.1386425603,
				"z": -0.5291102403,
				"element": "C" 
			},
			{
				"x": -1.8821754876,
				"y": 1.4058463321,
				"z": 0.7469213875,
				"element": "S" 
			},
			{
				"x": -2.048995018,
				"y": 0.4160744544,
				"z": 2.280715631,
				"element": "C" 
			},
			{
				"x": 3.6757484253,
				"y": -0.9628607771,
				"z": -1.0154996045,
				"element": "H" 
			},
			{
				"x": 3.1212236129,
				"y": 0.2037416251,
				"z": 0.2302077591,
				"element": "H" 
			},
			{
				"x": 2.9734203689,
				"y": -1.5406396203,
				"z": 0.5321757951,
				"element": "H" 
			},
			{
				"x": 0.144245344,
				"y": -2.0623395076,
				"z": -2.2251650526,
				"element": "H" 
			},
			{
				"x": -1.9297475292,
				"y": -2.3331351245,
				"z": -3.5529562543,
				"element": "H" 
			},
			{
				"x": -3.9491117919,
				"y": -0.9894562046,
				"z": -2.9649113082,
				"element": "H" 
			},
			{
				"x": -3.8597843112,
				"y": 0.5862751826,
				"z": -1.0533215128,
				"element": "H" 
			},
			{
				"x": -1.1544945952,
				"y": -0.1869891491,
				"z": 2.4285433625,
				"element": "H" 
			},
			{
				"x": -2.1472936935,
				"y": 1.1419500943,
				"z": 3.0918000345,
				"element": "H" 
			},
			{
				"x": -2.9472509915,
				"y": -0.2039647042,
				"z": 2.2451587155,
				"element": "H" 
			}
		],
		 "valence_orbital": [ 
			{
				"type": "occ",
				"energy": -0.30378,
				"method": "rhf"
			},
			{
				"type": "occ",
				"energy": -0.27759,
				"method": "rhf"
			},
			{
				"type": "occ",
				"energy": -0.26167,
				"method": "rhf"
			},
			{
				"type": "occ",
				"energy": -0.25799,
				"method": "rhf"
			},
			{
				"type": "occ",
				"energy": -0.21626,
				"method": "rhf"
			},
			{
				"type": "unocc",
				"energy": -0.04751,
				"method": "rhf"
			},
			{
				"type": "unocc",
				"energy": -0.01806,
				"method": "rhf"
			},
			{
				"type": "unocc",
				"energy": 0.04126,
				"method": "rhf"
			},
			{
				"type": "unocc",
				"energy": 0.05699,
				"method": "rhf"
			},
			{
				"type": "unocc",
				"energy": 0.08013,
				"method": "rhf"
			}
		],
		"cosmo_sigma_profile": { 
			"-0.025": 0.0,
			"-0.024": 0.0,
			"-0.023": 0.0,
			"-0.022": 0.0,
			"-0.021": 0.0,
			"-0.02": 0.0,
			"-0.019": 0.0,
			"-0.018": 0.0,
			"-0.017": 0.0,
			"-0.016": 0.0,
			"-0.015": 0.0,
			"-0.014": 0.0,
			"-0.013": 0.0,
			"-0.012": 0.0,
			"-0.011": 0.0,
			"-0.01": 0.0,
			"-0.009": 0.0,
			"-0.008": 0.0,
			"-0.007": 3.51121563033,
			"-0.006": 14.3783421192,
			"-0.005": 18.7212603662,
			"-0.004": 19.2671016831,
			"-0.003": 19.2991859386,
			"-0.002": 16.7734967659,
			"-0.001": 17.6647213469,
			"0.0": 17.4331242887,
			"0.001": 16.1149450263,
			"0.002": 15.8965621119,
			"0.003": 18.780420728,
			"0.004": 8.88446019382,
			"0.005": 6.15406476154,
			"0.006": 6.00776813804,
			"0.007": 4.31950777779,
			"0.008": 4.19353818919,
			"0.009": 3.8413502102,
			"0.01": 2.82742636075,
			"0.011": 3.41827711147,
			"0.012": 1.71042192506,
			"0.013": 0.00526677304905,
			"0.014": 0.0,
			"0.015": 0.0,
			"0.016": 0.0,
			"0.017": 0.0,
			"0.018": 0.0,
			"0.019": 0.0,
			"0.02": 0.0,
			"0.021": 0.0,
			"0.022": 0.0,
			"0.023": 0.0,
			"0.024": 0.0,
			"0.025": 0.0
		}
	}
}
