{
	 "smiles": "CC(=O)CCC1=C(C2=CC=C(C)O2)C2=C(O1)C(Br)=CC(Br)=C2", 
	 "Tm": 381.15, 
	 "num_atms": 36, 
	 "gaussian": { 
		 "optdone": 1, 
		 "sigma_profile": "yes", 
		 "theory": "DFT", 
		 "functional": "B3LYP", 
		 "basiset": "6-31G**", 
		 "properties": { 
			 "R2extent": 14260.0812, 
			 "electric_dipole_moment_norm": 3.37392746365, 
			 "electric_quadrupole_moment_norm": 16.431990164, 
			 "total_energy": -6024.71586348, 
			 "HOMO_LUMO_gap": 0.159, 
			 "cosmo_polarized_energy": -12.42, 
			 "cosmo_cavitation_energy": 45.8, 
			 "cosmo_dispersion_energy": -31.59, 
			 "cosmo_repulsion_energy": 2.48, 
			 "cosmo_total_nonelectrostatic_energy": 16.69, 
			 "SMD_solvation_energy": 6.44 
		},
		"coords": [
			{
				"x": -3.6324476137,
				"y": -1.4300643056,
				"z": 2.0947762545,
				"element": "C" 
			},
			{
				"x": -2.4322263814,
				"y": -0.5332678708,
				"z": 1.8529358887,
				"element": "C" 
			},
			{
				"x": -1.3204249438,
				"y": -0.8254533453,
				"z": 2.2499058299,
				"element": "O" 
			},
			{
				"x": -2.6979331198,
				"y": 0.7644148459,
				"z": 1.0930789446,
				"element": "C" 
			},
			{
				"x": -1.4154036762,
				"y": 1.4724290845,
				"z": 0.6255931487,
				"element": "C" 
			},
			{
				"x": -0.7562194733,
				"y": 0.7933550781,
				"z": -0.5268250254,
				"element": "C" 
			},
			{
				"x": 0.5064874798,
				"y": 0.3063680113,
				"z": -0.7509404578,
				"element": "C" 
			},
			{
				"x": 1.641590833,
				"y": 0.304809144,
				"z": 0.1493095129,
				"element": "C" 
			},
			{
				"x": 2.7659385056,
				"y": -0.4730455235,
				"z": 0.2304312251,
				"element": "C" 
			},
			{
				"x": 3.5201824749,
				"y": 0.0118366519,
				"z": 1.3449124605,
				"element": "C" 
			},
			{
				"x": 2.8149669851,
				"y": 1.0512605441,
				"z": 1.8766803476,
				"element": "C" 
			},
			{
				"x": 3.0375506313,
				"y": 1.9655633824,
				"z": 3.0286986209,
				"element": "C" 
			},
			{
				"x": 1.6687964324,
				"y": 1.2442058314,
				"z": 1.1519401374,
				"element": "O" 
			},
			{
				"x": 0.4917010501,
				"y": -0.2319021029,
				"z": -2.1013921022,
				"element": "C" 
			},
			{
				"x": -0.8156716544,
				"y": -0.0217854369,
				"z": -2.5732684592,
				"element": "C" 
			},
			{
				"x": -1.56940759,
				"y": 0.6030062685,
				"z": -1.630422161,
				"element": "O" 
			},
			{
				"x": -1.2219857567,
				"y": -0.4084879916,
				"z": -3.8439730061,
				"element": "C" 
			},
			{
				"x": -3.0022721893,
				"y": -0.1077259915,
				"z": -4.4325659574,
				"element": "Br" 
			},
			{
				"x": -0.2861604182,
				"y": -1.0203590969,
				"z": -4.6740888042,
				"element": "C" 
			},
			{
				"x": 1.0237413061,
				"y": -1.2165241039,
				"z": -4.2098913001,
				"element": "C" 
			},
			{
				"x": 2.2835700807,
				"y": -2.0426669155,
				"z": -5.3896810752,
				"element": "Br" 
			},
			{
				"x": 1.4395845094,
				"y": -0.8340584714,
				"z": -2.9395054635,
				"element": "C" 
			},
			{
				"x": -3.3678807002,
				"y": -2.2238196647,
				"z": 2.7946960332,
				"element": "H" 
			},
			{
				"x": -3.9502166516,
				"y": -1.8787727944,
				"z": 1.1456444246,
				"element": "H" 
			},
			{
				"x": -4.4851560788,
				"y": -0.8585941666,
				"z": 2.4778171202,
				"element": "H" 
			},
			{
				"x": -3.371156647,
				"y": 0.5670286378,
				"z": 0.2510037989,
				"element": "H" 
			},
			{
				"x": -3.2577233121,
				"y": 1.4241042509,
				"z": 1.7713707686,
				"element": "H" 
			},
			{
				"x": -1.6660064497,
				"y": 2.5009805439,
				"z": 0.3344931614,
				"element": "H" 
			},
			{
				"x": -0.6993185982,
				"y": 1.5236272325,
				"z": 1.445618351,
				"element": "H" 
			},
			{
				"x": 3.0089978924,
				"y": -1.3152146014,
				"z": -0.4001234743,
				"element": "H" 
			},
			{
				"x": 4.4640380823,
				"y": -0.3686976144,
				"z": 1.7083992281,
				"element": "H" 
			},
			{
				"x": 3.9850043253,
				"y": 1.7236247016,
				"z": 3.5155490179,
				"element": "H" 
			},
			{
				"x": 3.0733642586,
				"y": 3.0138578694,
				"z": 2.7098370451,
				"element": "H" 
			},
			{
				"x": 2.2373014344,
				"y": 1.8743438367,
				"z": 3.7724274374,
				"element": "H" 
			},
			{
				"x": -0.5676348734,
				"y": -1.3363015158,
				"z": -5.6700085921,
				"element": "H" 
			},
			{
				"x": 2.4638298464,
				"y": -0.9848744017,
				"z": -2.624632879,
				"element": "H" 
			}
		],
		 "valence_orbital": [ 
			{
				"type": "occ",
				"energy": -0.27392,
				"method": "rhf"
			},
			{
				"type": "occ",
				"energy": -0.25194,
				"method": "rhf"
			},
			{
				"type": "occ",
				"energy": -0.24359,
				"method": "rhf"
			},
			{
				"type": "occ",
				"energy": -0.23565,
				"method": "rhf"
			},
			{
				"type": "occ",
				"energy": -0.19816,
				"method": "rhf"
			},
			{
				"type": "unocc",
				"energy": -0.03916,
				"method": "rhf"
			},
			{
				"type": "unocc",
				"energy": -0.01666,
				"method": "rhf"
			},
			{
				"type": "unocc",
				"energy": -0.01372,
				"method": "rhf"
			},
			{
				"type": "unocc",
				"energy": -0.00705,
				"method": "rhf"
			},
			{
				"type": "unocc",
				"energy": -0.00441,
				"method": "rhf"
			}
		],
		"cosmo_sigma_profile": { 
			"-0.025": 0.0,
			"-0.024": 0.0,
			"-0.023": 0.0,
			"-0.022": 0.0,
			"-0.021": 0.0,
			"-0.02": 0.0,
			"-0.019": 0.0,
			"-0.018": 0.0,
			"-0.017": 0.0,
			"-0.016": 0.0,
			"-0.015": 0.0,
			"-0.014": 0.0,
			"-0.013": 0.0,
			"-0.012": 0.0,
			"-0.011": 0.0,
			"-0.01": 0.0,
			"-0.009": 0.121042188656,
			"-0.008": 2.88510699867,
			"-0.007": 7.39844008422,
			"-0.006": 17.8333220145,
			"-0.005": 25.6580351141,
			"-0.004": 29.2299051888,
			"-0.003": 28.5822777935,
			"-0.002": 28.0290685795,
			"-0.001": 33.7307211603,
			"0.0": 31.0583858971,
			"0.001": 34.2605348107,
			"0.002": 34.9502500326,
			"0.003": 26.6486786596,
			"0.004": 29.0388682574,
			"0.005": 16.6980470951,
			"0.006": 8.69074914077,
			"0.007": 4.79782680671,
			"0.008": 2.66840097571,
			"0.009": 2.1956946013,
			"0.01": 2.11384170385,
			"0.011": 2.67512532462,
			"0.012": 2.1679503452,
			"0.013": 1.2264842366,
			"0.014": 0.116362548289,
			"0.015": 0.0,
			"0.016": 0.0,
			"0.017": 0.0,
			"0.018": 0.0,
			"0.019": 0.0,
			"0.02": 0.0,
			"0.021": 0.0,
			"0.022": 0.0,
			"0.023": 0.0,
			"0.024": 0.0,
			"0.025": 0.0
		}
	}
}
