{
	 "smiles": "CCOC1=C(C=CC=C1)C1=CSC(N)=N1", 
	 "Tm": 483.15, 
	 "num_atms": 27, 
	 "gaussian": { 
		 "optdone": 1, 
		 "sigma_profile": "yes", 
		 "theory": "DFT", 
		 "functional": "B3LYP", 
		 "basiset": "6-31G**", 
		 "properties": { 
			 "R2extent": 3987.0069, 
			 "electric_dipole_moment_norm": 2.45270980754, 
			 "electric_quadrupole_moment_norm": 15.376658106, 
			 "total_energy": -1009.31052304, 
			 "HOMO_LUMO_gap": 0.17361, 
			 "cosmo_polarized_energy": -11.96, 
			 "cosmo_cavitation_energy": 32.36, 
			 "cosmo_dispersion_energy": -23.74, 
			 "cosmo_repulsion_energy": 1.83, 
			 "cosmo_total_nonelectrostatic_energy": 10.45, 
			 "SMD_solvation_energy": 4.32 
		},
		"coords": [
			{
				"x": 2.9441747166,
				"y": 2.780713191,
				"z": -0.2323713742,
				"element": "C" 
			},
			{
				"x": 2.0200631363,
				"y": 2.0477038022,
				"z": 0.723294422,
				"element": "C" 
			},
			{
				"x": 0.7250452211,
				"y": 1.9490418863,
				"z": 0.1071919653,
				"element": "O" 
			},
			{
				"x": -0.2538146463,
				"y": 1.3843005685,
				"z": 0.9048133123,
				"element": "C" 
			},
			{
				"x": -0.6852346943,
				"y": 0.0592501218,
				"z": 0.6823760751,
				"element": "C" 
			},
			{
				"x": -1.697220261,
				"y": -0.4432173212,
				"z": 1.5223372113,
				"element": "C" 
			},
			{
				"x": -2.2607302232,
				"y": 0.3301740184,
				"z": 2.5325591259,
				"element": "C" 
			},
			{
				"x": -1.8279920069,
				"y": 1.642923237,
				"z": 2.7300363373,
				"element": "C" 
			},
			{
				"x": -0.8248614609,
				"y": 2.1625781082,
				"z": 1.9144897028,
				"element": "C" 
			},
			{
				"x": -0.1437880181,
				"y": -0.8139373922,
				"z": -0.3787008315,
				"element": "C" 
			},
			{
				"x": 0.6254333295,
				"y": -0.4431496917,
				"z": -1.4494855941,
				"element": "C" 
			},
			{
				"x": 0.975888591,
				"y": -1.8221008281,
				"z": -2.4603971305,
				"element": "S" 
			},
			{
				"x": 0.0542600215,
				"y": -2.8178347239,
				"z": -1.3251035443,
				"element": "C" 
			},
			{
				"x": -0.1450963047,
				"y": -4.1620232557,
				"z": -1.5575610303,
				"element": "N" 
			},
			{
				"x": -0.4545241758,
				"y": -2.1704613268,
				"z": -0.3226664244,
				"element": "N" 
			},
			{
				"x": 3.0527684874,
				"y": 2.2302848696,
				"z": -1.1715998499,
				"element": "H" 
			},
			{
				"x": 3.9366462498,
				"y": 2.8925008593,
				"z": 0.2155228622,
				"element": "H" 
			},
			{
				"x": 2.5511482708,
				"y": 3.7756165205,
				"z": -0.46056457,
				"element": "H" 
			},
			{
				"x": 2.3970003613,
				"y": 1.0396031904,
				"z": 0.9448686134,
				"element": "H" 
			},
			{
				"x": 1.9351211498,
				"y": 2.5890738035,
				"z": 1.6753182795,
				"element": "H" 
			},
			{
				"x": -2.0270580751,
				"y": -1.4626464366,
				"z": 1.3592379046,
				"element": "H" 
			},
			{
				"x": -3.0419047136,
				"y": -0.0892328024,
				"z": 3.1597923467,
				"element": "H" 
			},
			{
				"x": -2.2691617371,
				"y": 2.259584698,
				"z": 3.5077584434,
				"element": "H" 
			},
			{
				"x": -0.4779261751,
				"y": 3.1842428946,
				"z": 2.0371000324,
				"element": "H" 
			},
			{
				"x": 0.9718708988,
				"y": 0.5421600429,
				"z": -1.7103855497,
				"element": "H" 
			},
			{
				"x": -0.5060578498,
				"y": -4.6479932333,
				"z": -0.7466830328,
				"element": "H" 
			},
			{
				"x": 0.6008499082,
				"y": -4.6555548005,
				"z": -2.0269777024,
				"element": "H" 
			}
		],
		 "valence_orbital": [ 
			{
				"type": "occ",
				"energy": -0.27109,
				"method": "rhf"
			},
			{
				"type": "occ",
				"energy": -0.26683,
				"method": "rhf"
			},
			{
				"type": "occ",
				"energy": -0.24416,
				"method": "rhf"
			},
			{
				"type": "occ",
				"energy": -0.23307,
				"method": "rhf"
			},
			{
				"type": "occ",
				"energy": -0.19626,
				"method": "rhf"
			},
			{
				"type": "unocc",
				"energy": -0.02265,
				"method": "rhf"
			},
			{
				"type": "unocc",
				"energy": 0.00566,
				"method": "rhf"
			},
			{
				"type": "unocc",
				"energy": 0.0149,
				"method": "rhf"
			},
			{
				"type": "unocc",
				"energy": 0.02159,
				"method": "rhf"
			},
			{
				"type": "unocc",
				"energy": 0.07399,
				"method": "rhf"
			}
		],
		"cosmo_sigma_profile": { 
			"-0.025": 0.0,
			"-0.024": 0.0,
			"-0.023": 0.0,
			"-0.022": 0.0,
			"-0.021": 0.0,
			"-0.02": 0.0,
			"-0.019": 0.0,
			"-0.018": 0.0,
			"-0.017": 0.0,
			"-0.016": 0.0,
			"-0.015": 0.223896359409,
			"-0.014": 1.85085946275,
			"-0.013": 2.85019633475,
			"-0.012": 2.30893791225,
			"-0.011": 2.54835060108,
			"-0.01": 2.65302491272,
			"-0.009": 2.15479445559,
			"-0.008": 1.59802445473,
			"-0.007": 1.97612652129,
			"-0.006": 6.24352667926,
			"-0.005": 10.5818423324,
			"-0.004": 19.3530743176,
			"-0.003": 25.0765227841,
			"-0.002": 20.8830970797,
			"-0.001": 18.7864796278,
			"0.0": 19.5619540081,
			"0.001": 15.4614019509,
			"0.002": 17.4725411067,
			"0.003": 21.7899359232,
			"0.004": 24.5756170454,
			"0.005": 17.649961815,
			"0.006": 7.59138719291,
			"0.007": 3.81247346457,
			"0.008": 3.13718986614,
			"0.009": 3.07520452017,
			"0.01": 3.05262994168,
			"0.011": 2.12620965576,
			"0.012": 1.01613139834,
			"0.013": 0.185457715633,
			"0.014": 0.0,
			"0.015": 0.0,
			"0.016": 0.0,
			"0.017": 0.0,
			"0.018": 0.0,
			"0.019": 0.0,
			"0.02": 0.0,
			"0.021": 0.0,
			"0.022": 0.0,
			"0.023": 0.0,
			"0.024": 0.0,
			"0.025": 0.0
		}
	}
}
