{
	 "smiles": "FC1=C2C(=CC=C1)C(=O)CCS2(=O)=O", 
	 "Tm": 455.15, 
	 "num_atms": 21, 
	 "gaussian": { 
		 "optdone": 1, 
		 "sigma_profile": "yes", 
		 "theory": "DFT", 
		 "functional": "B3LYP", 
		 "basiset": "6-31G**", 
		 "properties": { 
			 "R2extent": 2978.2926, 
			 "electric_dipole_moment_norm": 3.47964561558, 
			 "electric_quadrupole_moment_norm": 24.4727255717, 
			 "total_energy": -1070.79581793, 
			 "HOMO_LUMO_gap": 0.18444, 
			 "cosmo_polarized_energy": -17.3, 
			 "cosmo_cavitation_energy": 26.41, 
			 "cosmo_dispersion_energy": -19.97, 
			 "cosmo_repulsion_energy": 1.47, 
			 "cosmo_total_nonelectrostatic_energy": 7.9, 
			 "SMD_solvation_energy": 4.51 
		},
		"coords": [
			{
				"x": -2.0704356208,
				"y": 1.6788410699,
				"z": 0.999249513,
				"element": "F" 
			},
			{
				"x": -1.1900853219,
				"y": 0.6850788938,
				"z": 0.8237173919,
				"element": "C" 
			},
			{
				"x": -0.4285602237,
				"y": 0.6363529323,
				"z": -0.3455669358,
				"element": "C" 
			},
			{
				"x": 0.5265095779,
				"y": -0.3915888664,
				"z": -0.4968939695,
				"element": "C" 
			},
			{
				"x": 0.6549577691,
				"y": -1.3579019106,
				"z": 0.5107222088,
				"element": "C" 
			},
			{
				"x": -0.1304320591,
				"y": -1.3001654179,
				"z": 1.6580859833,
				"element": "C" 
			},
			{
				"x": -1.0572556411,
				"y": -0.2710725244,
				"z": 1.823953555,
				"element": "C" 
			},
			{
				"x": 1.4505252066,
				"y": -0.5097870265,
				"z": -1.6796943789,
				"element": "C" 
			},
			{
				"x": 2.2313936153,
				"y": -1.4417479326,
				"z": -1.7639098032,
				"element": "O" 
			},
			{
				"x": 1.421723849,
				"y": 0.575972985,
				"z": -2.7444210122,
				"element": "C" 
			},
			{
				"x": 0.0178899654,
				"y": 1.0951410928,
				"z": -3.0466489851,
				"element": "C" 
			},
			{
				"x": -0.6868478138,
				"y": 1.9168586412,
				"z": -1.596980366,
				"element": "S" 
			},
			{
				"x": -2.125319135,
				"y": 2.0899422099,
				"z": -1.8230655973,
				"element": "O" 
			},
			{
				"x": 0.167843352,
				"y": 3.0662248139,
				"z": -1.2632690047,
				"element": "O" 
			},
			{
				"x": 1.391919543,
				"y": -2.1396062008,
				"z": 0.3658224424,
				"element": "H" 
			},
			{
				"x": -0.0189688123,
				"y": -2.0520732207,
				"z": 2.4327715445,
				"element": "H" 
			},
			{
				"x": -1.6786641767,
				"y": -0.1904391226,
				"z": 2.7091959623,
				"element": "H" 
			},
			{
				"x": 1.8925080975,
				"y": 0.1713570543,
				"z": -3.6438437475,
				"element": "H" 
			},
			{
				"x": 2.0445429812,
				"y": 1.4096750433,
				"z": -2.3936112923,
				"element": "H" 
			},
			{
				"x": -0.6796091018,
				"y": 0.3038544607,
				"z": -3.3340461693,
				"element": "H" 
			},
			{
				"x": 0.0194639494,
				"y": 1.8636830254,
				"z": -3.8245673393,
				"element": "H" 
			}
		],
		 "valence_orbital": [ 
			{
				"type": "occ",
				"energy": -0.31203,
				"method": "rhf"
			},
			{
				"type": "occ",
				"energy": -0.29694,
				"method": "rhf"
			},
			{
				"type": "occ",
				"energy": -0.28875,
				"method": "rhf"
			},
			{
				"type": "occ",
				"energy": -0.2761,
				"method": "rhf"
			},
			{
				"type": "occ",
				"energy": -0.27485,
				"method": "rhf"
			},
			{
				"type": "unocc",
				"energy": -0.09041,
				"method": "rhf"
			},
			{
				"type": "unocc",
				"energy": -0.04376,
				"method": "rhf"
			},
			{
				"type": "unocc",
				"energy": 0.01146,
				"method": "rhf"
			},
			{
				"type": "unocc",
				"energy": 0.03922,
				"method": "rhf"
			},
			{
				"type": "unocc",
				"energy": 0.05317,
				"method": "rhf"
			}
		],
		"cosmo_sigma_profile": { 
			"-0.025": 0.0,
			"-0.024": 0.0,
			"-0.023": 0.0,
			"-0.022": 0.0,
			"-0.021": 0.0,
			"-0.02": 0.0,
			"-0.019": 0.0,
			"-0.018": 0.0,
			"-0.017": 0.0,
			"-0.016": 0.0,
			"-0.015": 0.0,
			"-0.014": 0.0,
			"-0.013": 0.0,
			"-0.012": 0.0,
			"-0.011": 0.54830077324,
			"-0.01": 3.64977149567,
			"-0.009": 6.69916504242,
			"-0.008": 10.38354275,
			"-0.007": 15.6109766004,
			"-0.006": 15.8836889751,
			"-0.005": 11.2026257192,
			"-0.004": 8.98172335482,
			"-0.003": 8.96852419701,
			"-0.002": 14.2999302691,
			"-0.001": 15.3439792649,
			"0.0": 13.9422062266,
			"0.001": 11.741104614,
			"0.002": 7.305309433,
			"0.003": 10.1164524725,
			"0.004": 4.41831728383,
			"0.005": 4.54241503221,
			"0.006": 3.21111475203,
			"0.007": 4.16600906855,
			"0.008": 6.13760238529,
			"0.009": 5.8545103652,
			"0.01": 12.7907550279,
			"0.011": 13.5678336696,
			"0.012": 2.40237232635,
			"0.013": 0.0,
			"0.014": 0.0,
			"0.015": 0.0,
			"0.016": 0.0,
			"0.017": 0.0,
			"0.018": 0.0,
			"0.019": 0.0,
			"0.02": 0.0,
			"0.021": 0.0,
			"0.022": 0.0,
			"0.023": 0.0,
			"0.024": 0.0,
			"0.025": 0.0
		}
	}
}
