{
	 "smiles": "NC(C1=CC=CC=C1)C1=C2C=CC=CC2=CC=C1O", 
	 "Tm": 408.15, 
	 "num_atms": 34, 
	 "gaussian": { 
		 "optdone": 1, 
		 "sigma_profile": "yes", 
		 "theory": "DFT", 
		 "functional": "B3LYP", 
		 "basiset": "6-31G**", 
		 "properties": { 
			 "R2extent": 4986.6632, 
			 "electric_dipole_moment_norm": 0.57354937015, 
			 "electric_quadrupole_moment_norm": 3.78313464207, 
			 "total_energy": -786.824737848, 
			 "HOMO_LUMO_gap": 0.16885, 
			 "cosmo_polarized_energy": -12.34, 
			 "cosmo_cavitation_energy": 36.0, 
			 "cosmo_dispersion_energy": -25.63, 
			 "cosmo_repulsion_energy": 1.96, 
			 "cosmo_total_nonelectrostatic_energy": 12.34, 
			 "SMD_solvation_energy": 5.15 
		},
		"coords": [
			{
				"x": 0.8866995644,
				"y": 1.7283519717,
				"z": -0.2515855477,
				"element": "N" 
			},
			{
				"x": 1.0604479141,
				"y": 0.2623269063,
				"z": -0.2606621276,
				"element": "C" 
			},
			{
				"x": 0.541443486,
				"y": -0.3528248589,
				"z": -1.5664445379,
				"element": "C" 
			},
			{
				"x": 0.2689297624,
				"y": -1.7248969484,
				"z": -1.6527636662,
				"element": "C" 
			},
			{
				"x": -0.1341440407,
				"y": -2.2965887724,
				"z": -2.8597199679,
				"element": "C" 
			},
			{
				"x": -0.2751056071,
				"y": -1.5041959152,
				"z": -4.0006915325,
				"element": "C" 
			},
			{
				"x": -0.0042739824,
				"y": -0.1374956761,
				"z": -3.9237545724,
				"element": "C" 
			},
			{
				"x": 0.4055235022,
				"y": 0.4343387848,
				"z": -2.7174122445,
				"element": "C" 
			},
			{
				"x": 0.567949551,
				"y": -0.4271010495,
				"z": 1.0174150142,
				"element": "C" 
			},
			{
				"x": -0.8207068181,
				"y": -0.3877397978,
				"z": 1.3982826639,
				"element": "C" 
			},
			{
				"x": -1.8408069909,
				"y": 0.1404936494,
				"z": 0.5545561416,
				"element": "C" 
			},
			{
				"x": -3.1589895748,
				"y": 0.1862953714,
				"z": 0.9585988462,
				"element": "C" 
			},
			{
				"x": -3.5441540764,
				"y": -0.2961982724,
				"z": 2.2286428473,
				"element": "C" 
			},
			{
				"x": -2.5901940547,
				"y": -0.8321128946,
				"z": 3.0641690323,
				"element": "C" 
			},
			{
				"x": -1.2265504476,
				"y": -0.8951343593,
				"z": 2.677904404,
				"element": "C" 
			},
			{
				"x": -0.2472178798,
				"y": -1.4606633542,
				"z": 3.5394432018,
				"element": "C" 
			},
			{
				"x": 1.0630346639,
				"y": -1.5330494728,
				"z": 3.154996499,
				"element": "C" 
			},
			{
				"x": 1.4704229415,
				"y": -1.0201516989,
				"z": 1.8945159102,
				"element": "C" 
			},
			{
				"x": 2.8123714762,
				"y": -1.1571241165,
				"z": 1.6590569758,
				"element": "O" 
			},
			{
				"x": 1.3944213335,
				"y": 2.1086993661,
				"z": 0.5436534176,
				"element": "H" 
			},
			{
				"x": -0.0911253187,
				"y": 1.9562592595,
				"z": -0.087988486,
				"element": "H" 
			},
			{
				"x": 2.1527236079,
				"y": 0.1405742167,
				"z": -0.3103512477,
				"element": "H" 
			},
			{
				"x": 0.3625254345,
				"y": -2.3470785686,
				"z": -0.767339304,
				"element": "H" 
			},
			{
				"x": -0.344006589,
				"y": -3.3616348801,
				"z": -2.9060088868,
				"element": "H" 
			},
			{
				"x": -0.5937435061,
				"y": -1.9482831111,
				"z": -4.9395144864,
				"element": "H" 
			},
			{
				"x": -0.1087857505,
				"y": 0.4886246877,
				"z": -4.8057968325,
				"element": "H" 
			},
			{
				"x": 0.6267215368,
				"y": 1.4940567889,
				"z": -2.6534180869,
				"element": "H" 
			},
			{
				"x": -1.591573829,
				"y": 0.4769611825,
				"z": -0.4448769724,
				"element": "H" 
			},
			{
				"x": -3.9102494606,
				"y": 0.5892592714,
				"z": 0.2851716106,
				"element": "H" 
			},
			{
				"x": -4.5848904479,
				"y": -0.2535391661,
				"z": 2.5354975831,
				"element": "H" 
			},
			{
				"x": -2.8683674159,
				"y": -1.2217322951,
				"z": 4.0404104767,
				"element": "H" 
			},
			{
				"x": -0.5567362734,
				"y": -1.8446389917,
				"z": 4.5078400806,
				"element": "H" 
			},
			{
				"x": 1.8245744311,
				"y": -1.9728995012,
				"z": 3.790319241,
				"element": "H" 
			},
			{
				"x": 3.0191328584,
				"y": -0.9094577552,
				"z": 0.7495545535,
				"element": "H" 
			}
		],
		 "valence_orbital": [ 
			{
				"type": "occ",
				"energy": -0.24805,
				"method": "rhf"
			},
			{
				"type": "occ",
				"energy": -0.24465,
				"method": "rhf"
			},
			{
				"type": "occ",
				"energy": -0.2371,
				"method": "rhf"
			},
			{
				"type": "occ",
				"energy": -0.2311,
				"method": "rhf"
			},
			{
				"type": "occ",
				"energy": -0.2064,
				"method": "rhf"
			},
			{
				"type": "unocc",
				"energy": -0.03755,
				"method": "rhf"
			},
			{
				"type": "unocc",
				"energy": -0.00454,
				"method": "rhf"
			},
			{
				"type": "unocc",
				"energy": -0.00157,
				"method": "rhf"
			},
			{
				"type": "unocc",
				"energy": 0.00395,
				"method": "rhf"
			},
			{
				"type": "unocc",
				"energy": 0.02842,
				"method": "rhf"
			}
		],
		"cosmo_sigma_profile": { 
			"-0.025": 0.0,
			"-0.024": 0.0,
			"-0.023": 0.0,
			"-0.022": 0.0,
			"-0.021": 0.0,
			"-0.02": 0.0,
			"-0.019": 0.0,
			"-0.018": 0.146504367791,
			"-0.017": 0.700370824841,
			"-0.016": 0.885127767482,
			"-0.015": 0.929162147112,
			"-0.014": 0.938901189419,
			"-0.013": 1.16227794677,
			"-0.012": 0.116034602741,
			"-0.011": 0.727444854939,
			"-0.01": 3.19923577395,
			"-0.009": 2.94975445957,
			"-0.008": 4.01397970953,
			"-0.007": 4.01024983251,
			"-0.006": 11.9738116771,
			"-0.005": 20.3367306514,
			"-0.004": 21.8433226496,
			"-0.003": 26.1021688043,
			"-0.002": 17.3393351222,
			"-0.001": 17.529977765,
			"0.0": 14.4483050826,
			"0.001": 15.4685273551,
			"0.002": 18.9973180506,
			"0.003": 20.9374040342,
			"0.004": 28.4222014128,
			"0.005": 24.3425928069,
			"0.006": 14.3113881607,
			"0.007": 3.70519628489,
			"0.008": 1.92358189239,
			"0.009": 1.81080798089,
			"0.01": 3.02548063423,
			"0.011": 2.17040798099,
			"0.012": 0.704983028951,
			"0.013": 0.64651653561,
			"0.014": 0.551055976265,
			"0.015": 0.69661872418,
			"0.016": 0.192149496423,
			"0.017": 0.0,
			"0.018": 0.0,
			"0.019": 0.0,
			"0.02": 0.0,
			"0.021": 0.0,
			"0.022": 0.0,
			"0.023": 0.0,
			"0.024": 0.0,
			"0.025": 0.0
		}
	}
}
