{
	 "smiles": "OC1=C(Cl)C(Cl)=CC(Cl)=C1Cl", 
	 "Tm": 388.15, 
	 "num_atms": 13, 
	 "gaussian": { 
		 "optdone": 1, 
		 "sigma_profile": "yes", 
		 "theory": "DFT", 
		 "functional": "B3LYP", 
		 "basiset": "6-31G**", 
		 "properties": { 
			 "R2extent": 3914.1528, 
			 "electric_dipole_moment_norm": 1.38653410344, 
			 "electric_quadrupole_moment_norm": 9.05033662302, 
			 "total_energy": -2145.82070426, 
			 "HOMO_LUMO_gap": 0.20657, 
			 "cosmo_polarized_energy": -6.13, 
			 "cosmo_cavitation_energy": 24.54, 
			 "cosmo_dispersion_energy": -19.05, 
			 "cosmo_repulsion_energy": 1.53, 
			 "cosmo_total_nonelectrostatic_energy": 7.02, 
			 "SMD_solvation_energy": 3.59 
		},
		"coords": [
			{
				"x": -3.0011048205,
				"y": -1.9166369916,
				"z": 0.0742732794,
				"element": "O" 
			},
			{
				"x": -1.7401750423,
				"y": -1.5232456196,
				"z": -0.1840337505,
				"element": "C" 
			},
			{
				"x": -1.0723086118,
				"y": -0.5606469877,
				"z": 0.5946344588,
				"element": "C" 
			},
			{
				"x": -1.9391196369,
				"y": 0.1351086457,
				"z": 1.94492297,
				"element": "Cl" 
			},
			{
				"x": 0.2386335691,
				"y": -0.1864170173,
				"z": 0.2838854935,
				"element": "C" 
			},
			{
				"x": 1.0813140881,
				"y": 1.0041297156,
				"z": 1.2372420289,
				"element": "Cl" 
			},
			{
				"x": 0.8937175327,
				"y": -0.764043827,
				"z": -0.7995080645,
				"element": "C" 
			},
			{
				"x": 0.2360435988,
				"y": -1.7188363992,
				"z": -1.5746451072,
				"element": "C" 
			},
			{
				"x": 1.0920432106,
				"y": -2.4170125055,
				"z": -2.9215506288,
				"element": "Cl" 
			},
			{
				"x": -1.0759694545,
				"y": -2.1066788195,
				"z": -1.2798015806,
				"element": "C" 
			},
			{
				"x": -1.9226740017,
				"y": -3.2909069432,
				"z": -2.2231670913,
				"element": "Cl" 
			},
			{
				"x": -3.3297910217,
				"y": -1.4355322975,
				"z": 0.8500516971,
				"element": "H" 
			},
			{
				"x": 1.9082905903,
				"y": -0.4736809531,
				"z": -1.0391037047,
				"element": "H" 
			}
		],
		 "valence_orbital": [ 
			{
				"type": "occ",
				"energy": -0.33186,
				"method": "rhf"
			},
			{
				"type": "occ",
				"energy": -0.31766,
				"method": "rhf"
			},
			{
				"type": "occ",
				"energy": -0.31724,
				"method": "rhf"
			},
			{
				"type": "occ",
				"energy": -0.25869,
				"method": "rhf"
			},
			{
				"type": "occ",
				"energy": -0.25154,
				"method": "rhf"
			},
			{
				"type": "unocc",
				"energy": -0.04497,
				"method": "rhf"
			},
			{
				"type": "unocc",
				"energy": -0.0333,
				"method": "rhf"
			},
			{
				"type": "unocc",
				"energy": -0.03074,
				"method": "rhf"
			},
			{
				"type": "unocc",
				"energy": 0.01052,
				"method": "rhf"
			},
			{
				"type": "unocc",
				"energy": 0.03194,
				"method": "rhf"
			}
		],
		"cosmo_sigma_profile": { 
			"-0.025": 0.0,
			"-0.024": 0.0,
			"-0.023": 0.0,
			"-0.022": 0.0,
			"-0.021": 0.0,
			"-0.02": 0.0,
			"-0.019": 0.0,
			"-0.018": 0.0,
			"-0.017": 0.14656689095,
			"-0.016": 0.735541625781,
			"-0.015": 0.452718458014,
			"-0.014": 0.554489831689,
			"-0.013": 1.06868809378,
			"-0.012": 1.13095956858,
			"-0.011": 0.983868273957,
			"-0.01": 1.09568866361,
			"-0.009": 1.99598040248,
			"-0.008": 2.32763392019,
			"-0.007": 2.69425250777,
			"-0.006": 3.06805842692,
			"-0.005": 3.6726656978,
			"-0.004": 7.53960155716,
			"-0.003": 9.19503280814,
			"-0.002": 18.4525398985,
			"-0.001": 30.5220498181,
			"0.0": 23.6079036162,
			"0.001": 18.2292197488,
			"0.002": 21.9226233413,
			"0.003": 29.3653979507,
			"0.004": 17.0274279504,
			"0.005": 2.75101958271,
			"0.006": 2.32899415562,
			"0.007": 1.86550983663,
			"0.008": 1.81333820121,
			"0.009": 2.02792151087,
			"0.01": 0.285323200245,
			"0.011": 0.0,
			"0.012": 0.0,
			"0.013": 0.0,
			"0.014": 0.0,
			"0.015": 0.0,
			"0.016": 0.0,
			"0.017": 0.0,
			"0.018": 0.0,
			"0.019": 0.0,
			"0.02": 0.0,
			"0.021": 0.0,
			"0.022": 0.0,
			"0.023": 0.0,
			"0.024": 0.0,
			"0.025": 0.0
		}
	}
}
