{
	 "smiles": "NC(=O)C1CCN(CC1)C1=CC=C(N)C=C1", 
	 "Tm": 479.15, 
	 "num_atms": 33, 
	 "gaussian": { 
		 "optdone": 1, 
		 "sigma_profile": "yes", 
		 "theory": "DFT", 
		 "functional": "B3LYP", 
		 "basiset": "6-31G**", 
		 "properties": { 
			 "R2extent": 5408.262, 
			 "electric_dipole_moment_norm": 3.1794504478, 
			 "electric_quadrupole_moment_norm": 27.838400935, 
			 "total_energy": -707.014092224, 
			 "HOMO_LUMO_gap": 0.17164, 
			 "cosmo_polarized_energy": -19.98, 
			 "cosmo_cavitation_energy": 34.32, 
			 "cosmo_dispersion_energy": -25.18, 
			 "cosmo_repulsion_energy": 1.97, 
			 "cosmo_total_nonelectrostatic_energy": 11.11, 
			 "SMD_solvation_energy": 4.98 
		},
		"coords": [
			{
				"x": -0.1415070963,
				"y": -0.5427901795,
				"z": -4.74413308,
				"element": "N" 
			},
			{
				"x": 0.3417145656,
				"y": -0.0940161265,
				"z": -3.5467574061,
				"element": "C" 
			},
			{
				"x": 1.5365042735,
				"y": 0.1023543653,
				"z": -3.3637771582,
				"element": "O" 
			},
			{
				"x": -0.7069890938,
				"y": 0.0803118529,
				"z": -2.4429147758,
				"element": "C" 
			},
			{
				"x": -0.7187039772,
				"y": -1.1875475176,
				"z": -1.5402601529,
				"element": "C" 
			},
			{
				"x": 0.2454743364,
				"y": -1.0581232337,
				"z": -0.3562236386,
				"element": "C" 
			},
			{
				"x": -0.1323920175,
				"y": 0.070879347,
				"z": 0.4920242518,
				"element": "N" 
			},
			{
				"x": -0.8300845682,
				"y": 1.1835504285,
				"z": -0.1361012037,
				"element": "C" 
			},
			{
				"x": -0.3949377318,
				"y": 1.3342259254,
				"z": -1.5964847584,
				"element": "C" 
			},
			{
				"x": -0.0206427146,
				"y": -0.0049177157,
				"z": 1.881292883,
				"element": "C" 
			},
			{
				"x": -0.7874756676,
				"y": 0.8156498821,
				"z": 2.7339398575,
				"element": "C" 
			},
			{
				"x": -0.6562156095,
				"y": 0.7459815268,
				"z": 4.1193978846,
				"element": "C" 
			},
			{
				"x": 0.2326437654,
				"y": -0.1511280037,
				"z": 4.725547443,
				"element": "C" 
			},
			{
				"x": 0.3108053751,
				"y": -0.269574166,
				"z": 6.1287336018,
				"element": "N" 
			},
			{
				"x": 0.9956781009,
				"y": -0.9720977714,
				"z": 3.8834559172,
				"element": "C" 
			},
			{
				"x": 0.8815412674,
				"y": -0.8971635617,
				"z": 2.498233031,
				"element": "C" 
			},
			{
				"x": 0.5159897503,
				"y": -0.7132305991,
				"z": -5.490103501,
				"element": "H" 
			},
			{
				"x": -1.1237170485,
				"y": -0.6783482273,
				"z": -4.9168012053,
				"element": "H" 
			},
			{
				"x": -1.6978572849,
				"y": 0.1794676848,
				"z": -2.9040236846,
				"element": "H" 
			},
			{
				"x": -1.7316548151,
				"y": -1.339253761,
				"z": -1.1505895839,
				"element": "H" 
			},
			{
				"x": -0.4667309219,
				"y": -2.0796736994,
				"z": -2.1242662436,
				"element": "H" 
			},
			{
				"x": 0.1957502008,
				"y": -1.9758956725,
				"z": 0.2388192875,
				"element": "H" 
			},
			{
				"x": 1.2756442906,
				"y": -0.9667396854,
				"z": -0.7329078716,
				"element": "H" 
			},
			{
				"x": -0.5785740348,
				"y": 2.1041149818,
				"z": 0.4030135541,
				"element": "H" 
			},
			{
				"x": -1.9301345243,
				"y": 1.0783317743,
				"z": -0.0760732574,
				"element": "H" 
			},
			{
				"x": 0.6857959067,
				"y": 1.5022231243,
				"z": -1.6265311265,
				"element": "H" 
			},
			{
				"x": -0.8764778953,
				"y": 2.2167737652,
				"z": -2.0312892597,
				"element": "H" 
			},
			{
				"x": -1.5112735304,
				"y": 1.5081313998,
				"z": 2.3192360211,
				"element": "H" 
			},
			{
				"x": -1.272224536,
				"y": 1.3920331582,
				"z": 4.7414441805,
				"element": "H" 
			},
			{
				"x": 0.0682055911,
				"y": 0.5833528086,
				"z": 6.6173997889,
				"element": "H" 
			},
			{
				"x": 1.2079686712,
				"y": -0.6090858154,
				"z": 6.4529962082,
				"element": "H" 
			},
			{
				"x": 1.7026795808,
				"y": -1.6755782374,
				"z": 4.3182385425,
				"element": "H" 
			},
			{
				"x": 1.5271973918,
				"y": -1.5222180518,
				"z": 1.8910654545,
				"element": "H" 
			}
		],
		 "valence_orbital": [ 
			{
				"type": "occ",
				"energy": -0.26918,
				"method": "rhf"
			},
			{
				"type": "occ",
				"energy": -0.24736,
				"method": "rhf"
			},
			{
				"type": "occ",
				"energy": -0.23113,
				"method": "rhf"
			},
			{
				"type": "occ",
				"energy": -0.23049,
				"method": "rhf"
			},
			{
				"type": "occ",
				"energy": -0.15607,
				"method": "rhf"
			},
			{
				"type": "unocc",
				"energy": 0.01557,
				"method": "rhf"
			},
			{
				"type": "unocc",
				"energy": 0.02695,
				"method": "rhf"
			},
			{
				"type": "unocc",
				"energy": 0.04499,
				"method": "rhf"
			},
			{
				"type": "unocc",
				"energy": 0.06566,
				"method": "rhf"
			},
			{
				"type": "unocc",
				"energy": 0.09105,
				"method": "rhf"
			}
		],
		"cosmo_sigma_profile": { 
			"-0.025": 0.0,
			"-0.024": 0.0,
			"-0.023": 0.0,
			"-0.022": 0.0,
			"-0.021": 0.0,
			"-0.02": 0.0,
			"-0.019": 0.0,
			"-0.018": 0.0,
			"-0.017": 0.0,
			"-0.016": 0.0,
			"-0.015": 0.0290535130111,
			"-0.014": 1.45221886047,
			"-0.013": 2.49763593538,
			"-0.012": 2.53731822183,
			"-0.011": 4.57583563411,
			"-0.01": 5.88584608325,
			"-0.009": 5.31049939391,
			"-0.008": 5.04724936069,
			"-0.007": 5.37141936482,
			"-0.006": 4.62366476781,
			"-0.005": 9.52054297076,
			"-0.004": 19.7236613829,
			"-0.003": 30.1243882407,
			"-0.002": 31.928443756,
			"-0.001": 21.6298225997,
			"0.0": 13.7620001763,
			"0.001": 11.1140421302,
			"0.002": 8.66386122208,
			"0.003": 11.2182681806,
			"0.004": 9.33783017868,
			"0.005": 9.80434489479,
			"0.006": 10.4970887349,
			"0.007": 10.9148422623,
			"0.008": 10.0055218283,
			"0.009": 3.97486483812,
			"0.01": 2.07477285866,
			"0.011": 2.05925017174,
			"0.012": 2.84107538938,
			"0.013": 3.16414506987,
			"0.014": 5.20579174028,
			"0.015": 2.08503851507,
			"0.016": 0.871381001866,
			"0.017": 0.217570330471,
			"0.018": 0.0,
			"0.019": 0.0,
			"0.02": 0.0,
			"0.021": 0.0,
			"0.022": 0.0,
			"0.023": 0.0,
			"0.024": 0.0,
			"0.025": 0.0
		}
	}
}
