{
	 "smiles": "COC1=C2C(CC2=NNC2=CC=C(C=C2[N+]([O-])=O)[N+]([O-])=O)=CC=C1Br", 
	 "Tm": 583.15, 
	 "num_atms": 36, 
	 "gaussian": { 
		 "optdone": 1, 
		 "sigma_profile": "yes", 
		 "theory": "DFT", 
		 "functional": "B3LYP", 
		 "basiset": "6-31G**", 
		 "properties": { 
			 "R2extent": 18150.8993, 
			 "electric_dipole_moment_norm": 5.73548586346, 
			 "electric_quadrupole_moment_norm": 29.1928047101, 
			 "total_energy": -3744.47575552, 
			 "HOMO_LUMO_gap": 0.12245, 
			 "cosmo_polarized_energy": -17.68, 
			 "cosmo_cavitation_energy": 45.09, 
			 "cosmo_dispersion_energy": -32.3, 
			 "cosmo_repulsion_energy": 2.41, 
			 "cosmo_total_nonelectrostatic_energy": 15.21, 
			 "SMD_solvation_energy": 10.61 
		},
		"coords": [
			{
				"x": 0.3217691639,
				"y": 1.7575183776,
				"z": 3.0909968804,
				"element": "C" 
			},
			{
				"x": 1.4490489346,
				"y": 1.4538350209,
				"z": 3.9155770631,
				"element": "O" 
			},
			{
				"x": 2.1126911322,
				"y": 0.3064656017,
				"z": 3.7000689431,
				"element": "C" 
			},
			{
				"x": 1.8402477955,
				"y": -0.6797388345,
				"z": 2.7367520233,
				"element": "C" 
			},
			{
				"x": 2.6285681645,
				"y": -1.8427453029,
				"z": 2.6244931872,
				"element": "C" 
			},
			{
				"x": 1.8190153264,
				"y": -2.414874875,
				"z": 1.4650885559,
				"element": "C" 
			},
			{
				"x": 0.9797905433,
				"y": -1.1214430407,
				"z": 1.6249439536,
				"element": "C" 
			},
			{
				"x": -0.0463125184,
				"y": -0.6295088469,
				"z": 1.0352008914,
				"element": "N" 
			},
			{
				"x": -0.5582389425,
				"y": -1.3865102868,
				"z": 0.0178245745,
				"element": "N" 
			},
			{
				"x": -1.6447804747,
				"y": -0.9760470846,
				"z": -0.6853451006,
				"element": "C" 
			},
			{
				"x": -2.2805732367,
				"y": 0.2584806713,
				"z": -0.3800194439,
				"element": "C" 
			},
			{
				"x": -3.3822570683,
				"y": 0.6906731832,
				"z": -1.0813750596,
				"element": "C" 
			},
			{
				"x": -3.8994438652,
				"y": -0.09670089,
				"z": -2.1245531454,
				"element": "C" 
			},
			{
				"x": -3.3187195888,
				"y": -1.3037488307,
				"z": -2.4608445373,
				"element": "C" 
			},
			{
				"x": -2.2003634118,
				"y": -1.7493700294,
				"z": -1.7538282916,
				"element": "C" 
			},
			{
				"x": -1.6440251458,
				"y": -3.0271726838,
				"z": -2.1632480851,
				"element": "N" 
			},
			{
				"x": -0.6431366673,
				"y": -3.4644929454,
				"z": -1.5582844936,
				"element": "O" 
			},
			{
				"x": -2.1765555479,
				"y": -3.6321021301,
				"z": -3.08875331,
				"element": "O" 
			},
			{
				"x": -5.0690361922,
				"y": 0.3658836931,
				"z": -2.866217092,
				"element": "N" 
			},
			{
				"x": -5.5573801411,
				"y": 1.4482329282,
				"z": -2.5344590199,
				"element": "O" 
			},
			{
				"x": -5.4946719765,
				"y": -0.3494897645,
				"z": -3.7735195795,
				"element": "O" 
			},
			{
				"x": 3.7123602502,
				"y": -2.1078229671,
				"z": 3.4332949124,
				"element": "C" 
			},
			{
				"x": 3.9959546693,
				"y": -1.1294089957,
				"z": 4.4016084912,
				"element": "C" 
			},
			{
				"x": 3.227334471,
				"y": 0.0284839829,
				"z": 4.528325761,
				"element": "C" 
			},
			{
				"x": 3.7013159476,
				"y": 1.2899269368,
				"z": 5.8773786236,
				"element": "Br" 
			},
			{
				"x": 0.6121402518,
				"y": 1.8321891222,
				"z": 2.0394167484,
				"element": "H" 
			},
			{
				"x": -0.4578108791,
				"y": 0.9978107493,
				"z": 3.1947066636,
				"element": "H" 
			},
			{
				"x": -0.0466362353,
				"y": 2.7205411468,
				"z": 3.4452610871,
				"element": "H" 
			},
			{
				"x": 2.3469799388,
				"y": -2.5108901628,
				"z": 0.5091675582,
				"element": "H" 
			},
			{
				"x": 1.2789027549,
				"y": -3.3471025531,
				"z": 1.6675346714,
				"element": "H" 
			},
			{
				"x": -0.1540162862,
				"y": -2.2818989596,
				"z": -0.2557438793,
				"element": "H" 
			},
			{
				"x": -1.8673505329,
				"y": 0.8491883304,
				"z": 0.4257449729,
				"element": "H" 
			},
			{
				"x": -3.8635908996,
				"y": 1.6317770562,
				"z": -0.8454984286,
				"element": "H" 
			},
			{
				"x": -3.720038079,
				"y": -1.9062145352,
				"z": -3.2640628471,
				"element": "H" 
			},
			{
				"x": 4.3206444478,
				"y": -3.0017545385,
				"z": 3.3492841661,
				"element": "H" 
			},
			{
				"x": 4.8329738974,
				"y": -1.2625685433,
				"z": 5.0780825851,
				"element": "H" 
			}
		],
		 "valence_orbital": [ 
			{
				"type": "occ",
				"energy": -0.29292,
				"method": "rhf"
			},
			{
				"type": "occ",
				"energy": -0.29063,
				"method": "rhf"
			},
			{
				"type": "occ",
				"energy": -0.27611,
				"method": "rhf"
			},
			{
				"type": "occ",
				"energy": -0.24311,
				"method": "rhf"
			},
			{
				"type": "occ",
				"energy": -0.22985,
				"method": "rhf"
			},
			{
				"type": "unocc",
				"energy": -0.1074,
				"method": "rhf"
			},
			{
				"type": "unocc",
				"energy": -0.09399,
				"method": "rhf"
			},
			{
				"type": "unocc",
				"energy": -0.06299,
				"method": "rhf"
			},
			{
				"type": "unocc",
				"energy": -0.02869,
				"method": "rhf"
			},
			{
				"type": "unocc",
				"energy": -0.02173,
				"method": "rhf"
			}
		],
		"cosmo_sigma_profile": { 
			"-0.025": 0.0,
			"-0.024": 0.0,
			"-0.023": 0.0,
			"-0.022": 0.0,
			"-0.021": 0.0,
			"-0.02": 0.0,
			"-0.019": 0.0,
			"-0.018": 0.0,
			"-0.017": 0.0,
			"-0.016": 0.0,
			"-0.015": 0.0,
			"-0.014": 0.0,
			"-0.013": 0.0,
			"-0.012": 0.0,
			"-0.011": 0.0,
			"-0.01": 0.265438706432,
			"-0.009": 1.57411657272,
			"-0.008": 4.03067979202,
			"-0.007": 15.2241666796,
			"-0.006": 19.6357083162,
			"-0.005": 26.1301548363,
			"-0.004": 27.6144970123,
			"-0.003": 31.9092180486,
			"-0.002": 32.6491955398,
			"-0.001": 25.4425507652,
			"0.0": 27.8970509853,
			"0.001": 27.3685631211,
			"0.002": 23.4182555565,
			"0.003": 18.6768843482,
			"0.004": 15.4628773011,
			"0.005": 12.4508892809,
			"0.006": 10.2592023568,
			"0.007": 13.2855985214,
			"0.008": 15.4872457687,
			"0.009": 10.9896482746,
			"0.01": 6.23685075415,
			"0.011": 0.507027150058,
			"0.012": 0.0,
			"0.013": 0.0,
			"0.014": 0.0,
			"0.015": 0.0,
			"0.016": 0.0,
			"0.017": 0.0,
			"0.018": 0.0,
			"0.019": 0.0,
			"0.02": 0.0,
			"0.021": 0.0,
			"0.022": 0.0,
			"0.023": 0.0,
			"0.024": 0.0,
			"0.025": 0.0
		}
	}
}
