{
	 "smiles": "CNC1=CC=C(C2=NON=C12)[N+]([O-])=O", 
	 "Tm": 531.15, 
	 "num_atms": 20, 
	 "gaussian": { 
		 "optdone": 1, 
		 "sigma_profile": "yes", 
		 "theory": "DFT", 
		 "functional": "B3LYP", 
		 "basiset": "6-31G**", 
		 "properties": { 
			 "R2extent": 3260.0749, 
			 "electric_dipole_moment_norm": 9.22974363728, 
			 "electric_quadrupole_moment_norm": 10.1647912118, 
			 "total_energy": -714.83946099, 
			 "HOMO_LUMO_gap": 0.12922, 
			 "cosmo_polarized_energy": -20.1, 
			 "cosmo_cavitation_energy": 25.63, 
			 "cosmo_dispersion_energy": -19.21, 
			 "cosmo_repulsion_energy": 1.49, 
			 "cosmo_total_nonelectrostatic_energy": 7.91, 
			 "SMD_solvation_energy": 5.79 
		},
		"coords": [
			{
				"x": 2.9876508343,
				"y": 1.4447277907,
				"z": -0.3327555835,
				"element": "C" 
			},
			{
				"x": 1.677932078,
				"y": 1.8212144122,
				"z": 0.1616911228,
				"element": "N" 
			},
			{
				"x": 0.6222713578,
				"y": 0.9776247449,
				"z": 0.2250793124,
				"element": "C" 
			},
			{
				"x": 0.6255385375,
				"y": -0.3593856157,
				"z": -0.1664456034,
				"element": "C" 
			},
			{
				"x": -0.5358924342,
				"y": -1.1596371128,
				"z": -0.0595939767,
				"element": "C" 
			},
			{
				"x": -1.7415511898,
				"y": -0.7007313413,
				"z": 0.4281199245,
				"element": "C" 
			},
			{
				"x": -1.8135031042,
				"y": 0.6646042396,
				"z": 0.8481274012,
				"element": "C" 
			},
			{
				"x": -2.7805555976,
				"y": 1.4161552236,
				"z": 1.3513643102,
				"element": "N" 
			},
			{
				"x": -2.2002659154,
				"y": 2.6493171786,
				"z": 1.5414329738,
				"element": "O" 
			},
			{
				"x": -0.8936712247,
				"y": 2.6884554792,
				"z": 1.1695870717,
				"element": "N" 
			},
			{
				"x": -0.6323918673,
				"y": 1.4735123225,
				"z": 0.7380173124,
				"element": "C" 
			},
			{
				"x": -2.8798159581,
				"y": -1.5890196179,
				"z": 0.5023816407,
				"element": "N" 
			},
			{
				"x": -2.7306396004,
				"y": -2.754513207,
				"z": 0.118224256,
				"element": "O" 
			},
			{
				"x": -3.9294068591,
				"y": -1.1220053984,
				"z": 0.9465220579,
				"element": "O" 
			},
			{
				"x": 2.9406994048,
				"y": 1.1154688951,
				"z": -1.3780621748,
				"element": "H" 
			},
			{
				"x": 3.4238526359,
				"y": 0.6360186153,
				"z": 0.2664193792,
				"element": "H" 
			},
			{
				"x": 3.6476133063,
				"y": 2.3108930029,
				"z": -0.2741422574,
				"element": "H" 
			},
			{
				"x": 1.5271121537,
				"y": 2.7661218487,
				"z": 0.4821582644,
				"element": "H" 
			},
			{
				"x": 1.5282609904,
				"y": -0.8081831383,
				"z": -0.5622892278,
				"element": "H" 
			},
			{
				"x": -0.497037548,
				"y": -2.1964383219,
				"z": -0.3739362035,
				"element": "H" 
			}
		],
		 "valence_orbital": [ 
			{
				"type": "occ",
				"energy": -0.30888,
				"method": "rhf"
			},
			{
				"type": "occ",
				"energy": -0.29553,
				"method": "rhf"
			},
			{
				"type": "occ",
				"energy": -0.29421,
				"method": "rhf"
			},
			{
				"type": "occ",
				"energy": -0.27749,
				"method": "rhf"
			},
			{
				"type": "occ",
				"energy": -0.23444,
				"method": "rhf"
			},
			{
				"type": "unocc",
				"energy": -0.10522,
				"method": "rhf"
			},
			{
				"type": "unocc",
				"energy": -0.05966,
				"method": "rhf"
			},
			{
				"type": "unocc",
				"energy": -0.00672,
				"method": "rhf"
			},
			{
				"type": "unocc",
				"energy": 0.02321,
				"method": "rhf"
			},
			{
				"type": "unocc",
				"energy": 0.04615,
				"method": "rhf"
			}
		],
		"cosmo_sigma_profile": { 
			"-0.025": 0.0,
			"-0.024": 0.0,
			"-0.023": 0.0,
			"-0.022": 0.0,
			"-0.021": 0.0,
			"-0.02": 0.0,
			"-0.019": 0.0,
			"-0.018": 0.0,
			"-0.017": 0.0,
			"-0.016": 0.271103958087,
			"-0.015": 0.859218814496,
			"-0.014": 1.4554112322,
			"-0.013": 0.554570218632,
			"-0.012": 1.00263810748,
			"-0.011": 0.864641244987,
			"-0.01": 1.51103152387,
			"-0.009": 1.64918170675,
			"-0.008": 4.86804633653,
			"-0.007": 8.59423598884,
			"-0.006": 12.1896786038,
			"-0.005": 13.8988053706,
			"-0.004": 18.0493516934,
			"-0.003": 20.2208360475,
			"-0.002": 15.0741347972,
			"-0.001": 12.8296721471,
			"0.0": 10.7591422866,
			"0.001": 7.9232041891,
			"0.002": 5.26789766526,
			"0.003": 5.5116235674,
			"0.004": 9.34906915599,
			"0.005": 8.64143315536,
			"0.006": 5.08050050897,
			"0.007": 5.78806274819,
			"0.008": 8.40278102235,
			"0.009": 10.2949675623,
			"0.01": 7.36237040139,
			"0.011": 4.48322801493,
			"0.012": 1.66680602437,
			"0.013": 1.54674299613,
			"0.014": 0.156318964199,
			"0.015": 0.0,
			"0.016": 0.0,
			"0.017": 0.0,
			"0.018": 0.0,
			"0.019": 0.0,
			"0.02": 0.0,
			"0.021": 0.0,
			"0.022": 0.0,
			"0.023": 0.0,
			"0.024": 0.0,
			"0.025": 0.0
		}
	}
}
