{
	 "smiles": "OC1=NC=CC(=C1)C(F)(F)F", 
	 "Tm": 432.15, 
	 "num_atms": 15, 
	 "gaussian": { 
		 "optdone": 1, 
		 "sigma_profile": "yes", 
		 "theory": "DFT", 
		 "functional": "B3LYP", 
		 "basiset": "6-31G**", 
		 "properties": { 
			 "R2extent": 1995.4305, 
			 "electric_dipole_moment_norm": 1.58713498481, 
			 "electric_quadrupole_moment_norm": 3.78034562177, 
			 "total_energy": -660.551861878, 
			 "HOMO_LUMO_gap": 0.20372, 
			 "cosmo_polarized_energy": -6.42, 
			 "cosmo_cavitation_energy": 21.17, 
			 "cosmo_dispersion_energy": -15.37, 
			 "cosmo_repulsion_energy": 1.18, 
			 "cosmo_total_nonelectrostatic_energy": 6.98, 
			 "SMD_solvation_energy": 4.07 
		},
		"coords": [
			{
				"x": 3.681829767,
				"y": -0.1275961815,
				"z": -0.9287654671,
				"element": "O" 
			},
			{
				"x": 2.5655481109,
				"y": 0.503607505,
				"z": -0.5096150775,
				"element": "C" 
			},
			{
				"x": 2.4524253047,
				"y": 1.8008036833,
				"z": -0.7789580259,
				"element": "N" 
			},
			{
				"x": 1.3404342683,
				"y": 2.42779399,
				"z": -0.3642181202,
				"element": "C" 
			},
			{
				"x": 0.3136818709,
				"y": 1.7963113988,
				"z": 0.3255884486,
				"element": "C" 
			},
			{
				"x": 0.458711856,
				"y": 0.4286570618,
				"z": 0.5978346155,
				"element": "C" 
			},
			{
				"x": 1.596471972,
				"y": -0.2438354007,
				"z": 0.179986899,
				"element": "C" 
			},
			{
				"x": -0.6127195107,
				"y": -0.2884456031,
				"z": 1.3810565535,
				"element": "C" 
			},
			{
				"x": -0.4916270329,
				"y": -1.6285765597,
				"z": 1.3014239539,
				"element": "F" 
			},
			{
				"x": -0.5612828183,
				"y": 0.0454548391,
				"z": 2.6892259728,
				"element": "F" 
			},
			{
				"x": -1.845408925,
				"y": 0.0397109081,
				"z": 0.9380210338,
				"element": "F" 
			},
			{
				"x": 4.2194277197,
				"y": 0.5445775237,
				"z": -1.3776383207,
				"element": "H" 
			},
			{
				"x": 1.2758607709,
				"y": 3.4870726184,
				"z": -0.6020394189,
				"element": "H" 
			},
			{
				"x": -0.5704348067,
				"y": 2.3407594681,
				"z": 0.6349211362,
				"element": "H" 
			},
			{
				"x": 1.7446814533,
				"y": -1.2998952511,
				"z": 0.364675817,
				"element": "H" 
			}
		],
		 "valence_orbital": [ 
			{
				"type": "occ",
				"energy": -0.37884,
				"method": "rhf"
			},
			{
				"type": "occ",
				"energy": -0.36372,
				"method": "rhf"
			},
			{
				"type": "occ",
				"energy": -0.30552,
				"method": "rhf"
			},
			{
				"type": "occ",
				"energy": -0.2865,
				"method": "rhf"
			},
			{
				"type": "occ",
				"energy": -0.25175,
				"method": "rhf"
			},
			{
				"type": "unocc",
				"energy": -0.04803,
				"method": "rhf"
			},
			{
				"type": "unocc",
				"energy": -0.01519,
				"method": "rhf"
			},
			{
				"type": "unocc",
				"energy": 0.08145,
				"method": "rhf"
			},
			{
				"type": "unocc",
				"energy": 0.10371,
				"method": "rhf"
			},
			{
				"type": "unocc",
				"energy": 0.11985,
				"method": "rhf"
			}
		],
		"cosmo_sigma_profile": { 
			"-0.025": 0.0,
			"-0.024": 0.0,
			"-0.023": 0.0,
			"-0.022": 0.0,
			"-0.021": 0.0,
			"-0.02": 0.0,
			"-0.019": 0.0,
			"-0.018": 0.04261795379,
			"-0.017": 0.839670114471,
			"-0.016": 0.837697385775,
			"-0.015": 0.671692502143,
			"-0.014": 0.97257466382,
			"-0.013": 0.235128727903,
			"-0.012": 0.563227748135,
			"-0.011": 0.754112697809,
			"-0.01": 1.09371464919,
			"-0.009": 0.492457421431,
			"-0.008": 2.58118645244,
			"-0.007": 5.80451863834,
			"-0.006": 6.66468893843,
			"-0.005": 6.64462289303,
			"-0.004": 5.761033606,
			"-0.003": 6.88275881351,
			"-0.002": 7.410777882,
			"-0.001": 12.7919670523,
			"0.0": 19.4319490067,
			"0.001": 21.2186892716,
			"0.002": 29.2068492678,
			"0.003": 19.3872869714,
			"0.004": 2.73709490512,
			"0.005": 2.15874556168,
			"0.006": 2.86423244531,
			"0.007": 2.66000615381,
			"0.008": 1.61528639293,
			"0.009": 2.74023738789,
			"0.01": 2.81431787127,
			"0.011": 0.652537016997,
			"0.012": 0.997374058818,
			"0.013": 0.558740256001,
			"0.014": 0.0776784770807,
			"0.015": 0.0,
			"0.016": 0.0,
			"0.017": 0.0,
			"0.018": 0.0,
			"0.019": 0.0,
			"0.02": 0.0,
			"0.021": 0.0,
			"0.022": 0.0,
			"0.023": 0.0,
			"0.024": 0.0,
			"0.025": 0.0
		}
	}
}
