{
	 "smiles": "CC(C)(C)C(=O)N1CCC2=C1C=CC(=C2)C(O)=O", 
	 "Tm": 469.15, 
	 "num_atms": 35, 
	 "gaussian": { 
		 "optdone": 1, 
		 "sigma_profile": "yes", 
		 "theory": "DFT", 
		 "functional": "B3LYP", 
		 "basiset": "6-31G**", 
		 "properties": { 
			 "R2extent": 5817.3689, 
			 "electric_dipole_moment_norm": 3.76825898526, 
			 "electric_quadrupole_moment_norm": 33.2275319347, 
			 "total_energy": -824.185418428, 
			 "HOMO_LUMO_gap": 0.17314, 
			 "cosmo_polarized_energy": -18.84, 
			 "cosmo_cavitation_energy": 36.17, 
			 "cosmo_dispersion_energy": -25.92, 
			 "cosmo_repulsion_energy": 1.98, 
			 "cosmo_total_nonelectrostatic_energy": 12.23, 
			 "SMD_solvation_energy": 7.23 
		},
		"coords": [
			{
				"x": -0.4675095803,
				"y": 4.3298736471,
				"z": 1.4683396983,
				"element": "C" 
			},
			{
				"x": -0.0934235486,
				"y": 3.2020174765,
				"z": 0.4781460965,
				"element": "C" 
			},
			{
				"x": 0.7170555929,
				"y": 3.8521583062,
				"z": -0.6701014158,
				"element": "C" 
			},
			{
				"x": -1.411196457,
				"y": 2.5644085694,
				"z": -0.0093787154,
				"element": "C" 
			},
			{
				"x": 0.8168770237,
				"y": 2.2174358872,
				"z": 1.25813885,
				"element": "C" 
			},
			{
				"x": 1.4247958275,
				"y": 2.610150371,
				"z": 2.247725643,
				"element": "O" 
			},
			{
				"x": 0.9202513574,
				"y": 0.8518620884,
				"z": 0.9583736493,
				"element": "N" 
			},
			{
				"x": 1.5579979157,
				"y": 0.0192533518,
				"z": 2.0169415337,
				"element": "C" 
			},
			{
				"x": 1.1797995588,
				"y": -1.4227112711,
				"z": 1.6406212069,
				"element": "C" 
			},
			{
				"x": 0.9071207003,
				"y": -1.3096828971,
				"z": 0.1610012302,
				"element": "C" 
			},
			{
				"x": 0.7500195847,
				"y": 0.0483316132,
				"z": -0.1897258365,
				"element": "C" 
			},
			{
				"x": 0.5527202794,
				"y": 0.390660419,
				"z": -1.5335290353,
				"element": "C" 
			},
			{
				"x": 0.4650181922,
				"y": -0.6227826723,
				"z": -2.4858851692,
				"element": "C" 
			},
			{
				"x": 0.5699480017,
				"y": -1.9744464318,
				"z": -2.1373835875,
				"element": "C" 
			},
			{
				"x": 0.8116475616,
				"y": -2.308465657,
				"z": -0.791943135,
				"element": "C" 
			},
			{
				"x": 0.4720484442,
				"y": -2.9851152541,
				"z": -3.2336307469,
				"element": "C" 
			},
			{
				"x": 0.2205557187,
				"y": -4.2719060244,
				"z": -2.8617780535,
				"element": "O" 
			},
			{
				"x": 0.6018529436,
				"y": -2.7150679174,
				"z": -4.4054596001,
				"element": "O" 
			},
			{
				"x": -1.077329613,
				"y": 5.0770672663,
				"z": 0.9498836595,
				"element": "H" 
			},
			{
				"x": 0.4219604318,
				"y": 4.8137352689,
				"z": 1.8724967062,
				"element": "H" 
			},
			{
				"x": -1.0466705995,
				"y": 3.9405849732,
				"z": 2.3108601837,
				"element": "H" 
			},
			{
				"x": 1.0957595845,
				"y": 3.1388242392,
				"z": -1.4050080078,
				"element": "H" 
			},
			{
				"x": 1.579402752,
				"y": 4.387946775,
				"z": -0.2620004873,
				"element": "H" 
			},
			{
				"x": 0.0887468706,
				"y": 4.5750708627,
				"z": -1.2008509304,
				"element": "H" 
			},
			{
				"x": -2.0362452471,
				"y": 3.3387876501,
				"z": -0.4662362969,
				"element": "H" 
			},
			{
				"x": -1.9696769292,
				"y": 2.1474388714,
				"z": 0.8351286675,
				"element": "H" 
			},
			{
				"x": -1.2834289038,
				"y": 1.7725189343,
				"z": -0.7458453343,
				"element": "H" 
			},
			{
				"x": 1.1976604129,
				"y": 0.337272757,
				"z": 2.9940837978,
				"element": "H" 
			},
			{
				"x": 2.6425478165,
				"y": 0.1749024259,
				"z": 1.9965475281,
				"element": "H" 
			},
			{
				"x": 1.9754097314,
				"y": -2.1338681984,
				"z": 1.8792203937,
				"element": "H" 
			},
			{
				"x": 0.2780714212,
				"y": -1.7451133305,
				"z": 2.177861316,
				"element": "H" 
			},
			{
				"x": 0.4858778046,
				"y": 1.4181044456,
				"z": -1.8564969399,
				"element": "H" 
			},
			{
				"x": 0.3244245914,
				"y": -0.375580268,
				"z": -3.5325593183,
				"element": "H" 
			},
			{
				"x": 0.9748852572,
				"y": -3.3405481751,
				"z": -0.4881191286,
				"element": "H" 
			},
			{
				"x": -0.0307744982,
				"y": -4.3060181021,
				"z": -1.9288384216,
				"element": "H" 
			}
		],
		 "valence_orbital": [ 
			{
				"type": "occ",
				"energy": -0.30646,
				"method": "rhf"
			},
			{
				"type": "occ",
				"energy": -0.27229,
				"method": "rhf"
			},
			{
				"type": "occ",
				"energy": -0.27028,
				"method": "rhf"
			},
			{
				"type": "occ",
				"energy": -0.25951,
				"method": "rhf"
			},
			{
				"type": "occ",
				"energy": -0.22681,
				"method": "rhf"
			},
			{
				"type": "unocc",
				"energy": -0.05367,
				"method": "rhf"
			},
			{
				"type": "unocc",
				"energy": -0.02785,
				"method": "rhf"
			},
			{
				"type": "unocc",
				"energy": 0.00575,
				"method": "rhf"
			},
			{
				"type": "unocc",
				"energy": 0.05468,
				"method": "rhf"
			},
			{
				"type": "unocc",
				"energy": 0.06178,
				"method": "rhf"
			}
		],
		"cosmo_sigma_profile": { 
			"-0.025": 0.0,
			"-0.024": 0.0,
			"-0.023": 0.0,
			"-0.022": 0.0,
			"-0.021": 0.0,
			"-0.02": 0.0,
			"-0.019": 0.0793839301482,
			"-0.018": 0.985842596375,
			"-0.017": 0.882592818046,
			"-0.016": 0.876470056482,
			"-0.015": 0.829716777108,
			"-0.014": 0.746789601219,
			"-0.013": 1.07465323546,
			"-0.012": 1.14301260061,
			"-0.011": 1.09057065487,
			"-0.01": 1.35362450282,
			"-0.009": 0.785780779434,
			"-0.008": 2.20790224364,
			"-0.007": 3.28078017988,
			"-0.006": 6.87321349227,
			"-0.005": 16.5979137938,
			"-0.004": 24.8130072055,
			"-0.003": 32.5586668573,
			"-0.002": 30.4102880085,
			"-0.001": 26.7341538132,
			"0.0": 28.2511638071,
			"0.001": 23.3177133735,
			"0.002": 14.1186391714,
			"0.003": 13.3878144643,
			"0.004": 3.77037812612,
			"0.005": 3.97180919296,
			"0.006": 4.45189630314,
			"0.007": 3.05418196422,
			"0.008": 4.84765431303,
			"0.009": 4.86229670796,
			"0.01": 5.2129477218,
			"0.011": 7.14549090765,
			"0.012": 8.81602277873,
			"0.013": 6.01339757349,
			"0.014": 0.491045406789,
			"0.015": 0.0,
			"0.016": 0.0,
			"0.017": 0.0,
			"0.018": 0.0,
			"0.019": 0.0,
			"0.02": 0.0,
			"0.021": 0.0,
			"0.022": 0.0,
			"0.023": 0.0,
			"0.024": 0.0,
			"0.025": 0.0
		}
	}
}
