{
	 "smiles": "COC(=O)C1=C(C=CC(Cl)=N1)S(Cl)(=O)=O", 
	 "Tm": 417.15, 
	 "num_atms": 20, 
	 "gaussian": { 
		 "optdone": 1, 
		 "sigma_profile": "yes", 
		 "theory": "DFT", 
		 "functional": "B3LYP", 
		 "basiset": "6-31G**", 
		 "properties": { 
			 "R2extent": 4500.3591, 
			 "electric_dipole_moment_norm": 2.99208728817, 
			 "electric_quadrupole_moment_norm": 21.714590207, 
			 "total_energy": -1943.8907649, 
			 "HOMO_LUMO_gap": 0.18602, 
			 "cosmo_polarized_energy": -13.76, 
			 "cosmo_cavitation_energy": 30.92, 
			 "cosmo_dispersion_energy": -22.68, 
			 "cosmo_repulsion_energy": 1.76, 
			 "cosmo_total_nonelectrostatic_energy": 10.0, 
			 "SMD_solvation_energy": 3.97 
		},
		"coords": [
			{
				"x": -0.2993969389,
				"y": 1.0363152286,
				"z": -3.7847796633,
				"element": "C" 
			},
			{
				"x": -0.6196915905,
				"y": 1.0677135838,
				"z": -2.3779033184,
				"element": "O" 
			},
			{
				"x": 0.4133596935,
				"y": 0.8724333011,
				"z": -1.5581290073,
				"element": "C" 
			},
			{
				"x": 1.562351152,
				"y": 0.6920766733,
				"z": -1.8896287368,
				"element": "O" 
			},
			{
				"x": -0.0113652905,
				"y": 0.9599398503,
				"z": -0.1070095178,
				"element": "C" 
			},
			{
				"x": 0.2232511676,
				"y": -0.0557166218,
				"z": 0.8311547143,
				"element": "C" 
			},
			{
				"x": -0.1164356095,
				"y": 0.1513184781,
				"z": 2.1706495765,
				"element": "C" 
			},
			{
				"x": -0.6693474718,
				"y": 1.370062709,
				"z": 2.5395050892,
				"element": "C" 
			},
			{
				"x": -0.8696893966,
				"y": 2.3135897874,
				"z": 1.5263578365,
				"element": "C" 
			},
			{
				"x": -1.5769053131,
				"y": 3.8577887237,
				"z": 1.9402988489,
				"element": "Cl" 
			},
			{
				"x": -0.5650702495,
				"y": 2.1237060939,
				"z": 0.2534323546,
				"element": "N" 
			},
			{
				"x": 0.8255571839,
				"y": -1.6899091763,
				"z": 0.3861086682,
				"element": "S" 
			},
			{
				"x": 2.9153417819,
				"y": -1.4220695387,
				"z": 0.3923371819,
				"element": "Cl" 
			},
			{
				"x": 0.5308369643,
				"y": -2.5838595855,
				"z": 1.5000674632,
				"element": "O" 
			},
			{
				"x": 0.4161543879,
				"y": -1.9985928101,
				"z": -0.9764531744,
				"element": "O" 
			},
			{
				"x": -1.2472812336,
				"y": 1.1834998262,
				"z": -4.3000814364,
				"element": "H" 
			},
			{
				"x": 0.4033795775,
				"y": 1.8356268543,
				"z": -4.0300451181,
				"element": "H" 
			},
			{
				"x": 0.1423444846,
				"y": 0.0728775896,
				"z": -4.0479432909,
				"element": "H" 
			},
			{
				"x": 0.0401800552,
				"y": -0.6383675043,
				"z": 2.8968914798,
				"element": "H" 
			},
			{
				"x": -0.9476733544,
				"y": 1.5825665373,
				"z": 3.5642700502,
				"element": "H" 
			}
		],
		 "valence_orbital": [ 
			{
				"type": "occ",
				"energy": -0.32328,
				"method": "rhf"
			},
			{
				"type": "occ",
				"energy": -0.32086,
				"method": "rhf"
			},
			{
				"type": "occ",
				"energy": -0.31584,
				"method": "rhf"
			},
			{
				"type": "occ",
				"energy": -0.29972,
				"method": "rhf"
			},
			{
				"type": "occ",
				"energy": -0.28764,
				"method": "rhf"
			},
			{
				"type": "unocc",
				"energy": -0.10162,
				"method": "rhf"
			},
			{
				"type": "unocc",
				"energy": -0.07896,
				"method": "rhf"
			},
			{
				"type": "unocc",
				"energy": -0.06833,
				"method": "rhf"
			},
			{
				"type": "unocc",
				"energy": -0.00527,
				"method": "rhf"
			},
			{
				"type": "unocc",
				"energy": 0.01106,
				"method": "rhf"
			}
		],
		"cosmo_sigma_profile": { 
			"-0.025": 0.0,
			"-0.024": 0.0,
			"-0.023": 0.0,
			"-0.022": 0.0,
			"-0.021": 0.0,
			"-0.02": 0.0,
			"-0.019": 0.0,
			"-0.018": 0.0,
			"-0.017": 0.0,
			"-0.016": 0.0,
			"-0.015": 0.0,
			"-0.014": 0.0,
			"-0.013": 0.0,
			"-0.012": 0.0,
			"-0.011": 1.12708449508,
			"-0.01": 3.97556380693,
			"-0.009": 4.00256931726,
			"-0.008": 4.39033327932,
			"-0.007": 8.42427030366,
			"-0.006": 13.43936269,
			"-0.005": 15.9400002884,
			"-0.004": 21.9567822986,
			"-0.003": 20.7004350764,
			"-0.002": 15.8490743651,
			"-0.001": 12.4502499341,
			"0.0": 13.6391376231,
			"0.001": 15.8505726531,
			"0.002": 21.0569877958,
			"0.003": 19.4170515495,
			"0.004": 9.58412020083,
			"0.005": 7.40406854124,
			"0.006": 9.61459378484,
			"0.007": 12.1328966917,
			"0.008": 11.1063930531,
			"0.009": 5.24660890978,
			"0.01": 4.74963875441,
			"0.011": 1.80588038581,
			"0.012": 0.0,
			"0.013": 0.0,
			"0.014": 0.0,
			"0.015": 0.0,
			"0.016": 0.0,
			"0.017": 0.0,
			"0.018": 0.0,
			"0.019": 0.0,
			"0.02": 0.0,
			"0.021": 0.0,
			"0.022": 0.0,
			"0.023": 0.0,
			"0.024": 0.0,
			"0.025": 0.0
		}
	}
}
