{
	 "smiles": "CC1=CC(O)=CC(O)=C1", 
	 "Tm": 380.15, 
	 "num_atms": 17, 
	 "gaussian": { 
		 "optdone": 1, 
		 "sigma_profile": "yes", 
		 "theory": "DFT", 
		 "functional": "B3LYP", 
		 "basiset": "6-31G**", 
		 "properties": { 
			 "R2extent": 1778.2312, 
			 "electric_dipole_moment_norm": 1.34029543758, 
			 "electric_quadrupole_moment_norm": 6.51704870705, 
			 "total_energy": -422.012350106, 
			 "HOMO_LUMO_gap": 0.21919, 
			 "cosmo_polarized_energy": -11.81, 
			 "cosmo_cavitation_energy": 20.8, 
			 "cosmo_dispersion_energy": -15.62, 
			 "cosmo_repulsion_energy": 1.29, 
			 "cosmo_total_nonelectrostatic_energy": 6.47, 
			 "SMD_solvation_energy": 4.37 
		},
		"coords": [
			{
				"x": -1.0641533982,
				"y": -0.616602166,
				"z": -1.7887307517,
				"element": "C" 
			},
			{
				"x": 0.1604340198,
				"y": 0.0111673111,
				"z": -1.1640866529,
				"element": "C" 
			},
			{
				"x": 0.3469602851,
				"y": 1.3999491858,
				"z": -1.2275471634,
				"element": "C" 
			},
			{
				"x": 1.4630453799,
				"y": 1.9839637777,
				"z": -0.6249902171,
				"element": "C" 
			},
			{
				"x": 1.6945773174,
				"y": 3.3311402096,
				"z": -0.6569562093,
				"element": "O" 
			},
			{
				"x": 2.4063673301,
				"y": 1.1978203429,
				"z": 0.0438734868,
				"element": "C" 
			},
			{
				"x": 2.2158421001,
				"y": -0.1826690601,
				"z": 0.1006279085,
				"element": "C" 
			},
			{
				"x": 3.0982662201,
				"y": -1.0117584714,
				"z": 0.7341895248,
				"element": "O" 
			},
			{
				"x": 1.09971581,
				"y": -0.7786413213,
				"z": -0.5002990686,
				"element": "C" 
			},
			{
				"x": -1.3108195015,
				"y": -0.146574978,
				"z": -2.7462633346,
				"element": "H" 
			},
			{
				"x": -1.940031893,
				"y": -0.5043825559,
				"z": -1.1376736779,
				"element": "H" 
			},
			{
				"x": -0.9194786167,
				"y": -1.6862302561,
				"z": -1.9629351957,
				"element": "H" 
			},
			{
				"x": -0.3776812241,
				"y": 2.0238247627,
				"z": -1.7474386794,
				"element": "H" 
			},
			{
				"x": 0.9782804847,
				"y": 3.7586592649,
				"z": -1.1438032121,
				"element": "H" 
			},
			{
				"x": 3.2680792171,
				"y": 1.6760229051,
				"z": 0.5009295793,
				"element": "H" 
			},
			{
				"x": 3.8186116713,
				"y": -0.4830680637,
				"z": 1.1009693926,
				"element": "H" 
			},
			{
				"x": 0.9853847978,
				"y": -1.8557208873,
				"z": -0.4382657294,
				"element": "H" 
			}
		],
		 "valence_orbital": [ 
			{
				"type": "occ",
				"energy": -0.3544,
				"method": "rhf"
			},
			{
				"type": "occ",
				"energy": -0.33927,
				"method": "rhf"
			},
			{
				"type": "occ",
				"energy": -0.29809,
				"method": "rhf"
			},
			{
				"type": "occ",
				"energy": -0.22526,
				"method": "rhf"
			},
			{
				"type": "occ",
				"energy": -0.20962,
				"method": "rhf"
			},
			{
				"type": "unocc",
				"energy": 0.00957,
				"method": "rhf"
			},
			{
				"type": "unocc",
				"energy": 0.02501,
				"method": "rhf"
			},
			{
				"type": "unocc",
				"energy": 0.07344,
				"method": "rhf"
			},
			{
				"type": "unocc",
				"energy": 0.07548,
				"method": "rhf"
			},
			{
				"type": "unocc",
				"energy": 0.10402,
				"method": "rhf"
			}
		],
		"cosmo_sigma_profile": { 
			"-0.025": 0.0,
			"-0.024": 0.0,
			"-0.023": 0.0,
			"-0.022": 0.0,
			"-0.021": 0.0,
			"-0.02": 0.0,
			"-0.019": 0.0,
			"-0.018": 0.26910715527,
			"-0.017": 2.30732770517,
			"-0.016": 1.65956523425,
			"-0.015": 2.09270706832,
			"-0.014": 2.41323618639,
			"-0.013": 1.55930180401,
			"-0.012": 1.80944490381,
			"-0.011": 2.13726903679,
			"-0.01": 1.48636967059,
			"-0.009": 2.43101584082,
			"-0.008": 1.90368131565,
			"-0.007": 2.12445602434,
			"-0.006": 3.20123451515,
			"-0.005": 4.56737404555,
			"-0.004": 11.154880765,
			"-0.003": 10.40697958,
			"-0.002": 10.0602326682,
			"-0.001": 10.9642393408,
			"0.0": 12.8625107654,
			"0.001": 8.62006822761,
			"0.002": 5.82753229613,
			"0.003": 8.49007365961,
			"0.004": 9.68248632237,
			"0.005": 14.2622148368,
			"0.006": 12.2115284082,
			"0.007": 4.58395144872,
			"0.008": 3.3996551603,
			"0.009": 2.50376382957,
			"0.01": 2.40242649191,
			"0.011": 4.76398357758,
			"0.012": 2.09247875855,
			"0.013": 0.0,
			"0.014": 0.0,
			"0.015": 0.0,
			"0.016": 0.0,
			"0.017": 0.0,
			"0.018": 0.0,
			"0.019": 0.0,
			"0.02": 0.0,
			"0.021": 0.0,
			"0.022": 0.0,
			"0.023": 0.0,
			"0.024": 0.0,
			"0.025": 0.0
		}
	}
}
