{
	 "smiles": "CCC1=C(C=C(N)C=C1)[N+]([O-])=O", 
	 "Tm": 318.15, 
	 "num_atms": 22, 
	 "gaussian": { 
		 "optdone": 1, 
		 "sigma_profile": "yes", 
		 "theory": "DFT", 
		 "functional": "B3LYP", 
		 "basiset": "6-31G**", 
		 "properties": { 
			 "R2extent": 2224.258, 
			 "electric_dipole_moment_norm": 5.17996737152, 
			 "electric_quadrupole_moment_norm": 11.5511701831, 
			 "total_energy": -570.738836707, 
			 "HOMO_LUMO_gap": 0.13978, 
			 "cosmo_polarized_energy": -11.9, 
			 "cosmo_cavitation_energy": 25.73, 
			 "cosmo_dispersion_energy": -18.86, 
			 "cosmo_repulsion_energy": 1.51, 
			 "cosmo_total_nonelectrostatic_energy": 8.38, 
			 "SMD_solvation_energy": 6.35 
		},
		"coords": [
			{
				"x": 1.1842098734,
				"y": 0.7029113563,
				"z": -3.2925054519,
				"element": "C" 
			},
			{
				"x": 0.1834720401,
				"y": 1.3334347189,
				"z": -2.3076275248,
				"element": "C" 
			},
			{
				"x": 0.2208314777,
				"y": 0.6989884923,
				"z": -0.9312439723,
				"element": "C" 
			},
			{
				"x": -0.5416339956,
				"y": -0.3963899568,
				"z": -0.48519217,
				"element": "C" 
			},
			{
				"x": -0.4573196293,
				"y": -0.9104521038,
				"z": 0.8101225007,
				"element": "C" 
			},
			{
				"x": 0.4330218303,
				"y": -0.3575440189,
				"z": 1.7355215794,
				"element": "C" 
			},
			{
				"x": 0.581300536,
				"y": -0.9067688219,
				"z": 3.0054215094,
				"element": "N" 
			},
			{
				"x": 1.2105876888,
				"y": 0.7383027496,
				"z": 1.3194411323,
				"element": "C" 
			},
			{
				"x": 1.0891264955,
				"y": 1.2414823016,
				"z": 0.0311419388,
				"element": "C" 
			},
			{
				"x": -1.5133504887,
				"y": -1.0765116364,
				"z": -1.3634171,
				"element": "N" 
			},
			{
				"x": -2.4082591733,
				"y": -1.7318021041,
				"z": -0.8273702771,
				"element": "O" 
			},
			{
				"x": -1.3796908888,
				"y": -0.9691356498,
				"z": -2.5836617238,
				"element": "O" 
			},
			{
				"x": 1.1476091696,
				"y": 1.2202192075,
				"z": -4.2568263532,
				"element": "H" 
			},
			{
				"x": 2.2084808545,
				"y": 0.7695175868,
				"z": -2.9105392433,
				"element": "H" 
			},
			{
				"x": 0.9445782441,
				"y": -0.3492300534,
				"z": -3.4596567269,
				"element": "H" 
			},
			{
				"x": -0.8202675631,
				"y": 1.276560587,
				"z": -2.7318631205,
				"element": "H" 
			},
			{
				"x": 0.4236670459,
				"y": 2.3964484151,
				"z": -2.1853203932,
				"element": "H" 
			},
			{
				"x": -1.0946113374,
				"y": -1.7449050866,
				"z": 1.076352708,
				"element": "H" 
			},
			{
				"x": 0.9475635678,
				"y": -0.284393947,
				"z": 3.711763094,
				"element": "H" 
			},
			{
				"x": -0.2002743674,
				"y": -1.4521642199,
				"z": 3.3406156946,
				"element": "H" 
			},
			{
				"x": 1.9094547604,
				"y": 1.1967332419,
				"z": 2.0145759174,
				"element": "H" 
			},
			{
				"x": 1.6910038594,
				"y": 2.1010989415,
				"z": -0.2517320177,
				"element": "H" 
			}
		],
		 "valence_orbital": [ 
			{
				"type": "occ",
				"energy": -0.30083,
				"method": "rhf"
			},
			{
				"type": "occ",
				"energy": -0.2979,
				"method": "rhf"
			},
			{
				"type": "occ",
				"energy": -0.28483,
				"method": "rhf"
			},
			{
				"type": "occ",
				"energy": -0.2672,
				"method": "rhf"
			},
			{
				"type": "occ",
				"energy": -0.21831,
				"method": "rhf"
			},
			{
				"type": "unocc",
				"energy": -0.07853,
				"method": "rhf"
			},
			{
				"type": "unocc",
				"energy": -0.00761,
				"method": "rhf"
			},
			{
				"type": "unocc",
				"energy": 0.00997,
				"method": "rhf"
			},
			{
				"type": "unocc",
				"energy": 0.06857,
				"method": "rhf"
			},
			{
				"type": "unocc",
				"energy": 0.09251,
				"method": "rhf"
			}
		],
		"cosmo_sigma_profile": { 
			"-0.025": 0.0,
			"-0.024": 0.0,
			"-0.023": 0.0,
			"-0.022": 0.0,
			"-0.021": 0.0,
			"-0.02": 0.0,
			"-0.019": 0.0,
			"-0.018": 0.0,
			"-0.017": 0.0,
			"-0.016": 0.0,
			"-0.015": 0.0,
			"-0.014": 0.0143010337975,
			"-0.013": 1.87825062008,
			"-0.012": 3.22719789621,
			"-0.011": 2.90274895845,
			"-0.01": 3.34844716899,
			"-0.009": 3.24100285627,
			"-0.008": 3.48725378016,
			"-0.007": 4.8137985407,
			"-0.006": 6.04454333964,
			"-0.005": 8.64681055812,
			"-0.004": 9.18981584306,
			"-0.003": 11.9994953664,
			"-0.002": 16.2572011019,
			"-0.001": 16.5494325099,
			"0.0": 18.2734673774,
			"0.001": 17.2665734654,
			"0.002": 14.8147236209,
			"0.003": 15.8995363712,
			"0.004": 9.6754405591,
			"0.005": 4.17005520694,
			"0.006": 5.08779209466,
			"0.007": 5.00538856891,
			"0.008": 8.72465759423,
			"0.009": 5.53911367693,
			"0.01": 4.16694725377,
			"0.011": 1.57784710608,
			"0.012": 0.873594041702,
			"0.013": 0.529780860027,
			"0.014": 0.16687040806,
			"0.015": 0.0,
			"0.016": 0.0,
			"0.017": 0.0,
			"0.018": 0.0,
			"0.019": 0.0,
			"0.02": 0.0,
			"0.021": 0.0,
			"0.022": 0.0,
			"0.023": 0.0,
			"0.024": 0.0,
			"0.025": 0.0
		}
	}
}
