{
	 "smiles": "CC1=NN(C(C(F)F)=C1C(O)=O)C1=CC=CC=C1", 
	 "Tm": 480.15, 
	 "num_atms": 28, 
	 "gaussian": { 
		 "optdone": 1, 
		 "sigma_profile": "yes", 
		 "theory": "DFT", 
		 "functional": "B3LYP", 
		 "basiset": "6-31G**", 
		 "properties": { 
			 "R2extent": 5512.0479, 
			 "electric_dipole_moment_norm": 6.84572590599, 
			 "electric_quadrupole_moment_norm": 7.46395867687, 
			 "total_energy": -922.925331686, 
			 "HOMO_LUMO_gap": 0.19428, 
			 "cosmo_polarized_energy": -14.86, 
			 "cosmo_cavitation_energy": 32.89, 
			 "cosmo_dispersion_energy": -23.53, 
			 "cosmo_repulsion_energy": 1.76, 
			 "cosmo_total_nonelectrostatic_energy": 11.12, 
			 "SMD_solvation_energy": 6.5 
		},
		"coords": [
			{
				"x": 3.2840125434,
				"y": 0.2882526614,
				"z": 2.701818063,
				"element": "C" 
			},
			{
				"x": 2.4201162471,
				"y": 0.0921070853,
				"z": 1.4970789611,
				"element": "C" 
			},
			{
				"x": 2.9032494641,
				"y": 0.3487694959,
				"z": 0.286439849,
				"element": "N" 
			},
			{
				"x": 1.9014913705,
				"y": 0.0628336177,
				"z": -0.5839777658,
				"element": "N" 
			},
			{
				"x": 0.7685683755,
				"y": -0.3513993521,
				"z": 0.059923335,
				"element": "C" 
			},
			{
				"x": -0.4693091809,
				"y": -0.665880605,
				"z": -0.7122576729,
				"element": "C" 
			},
			{
				"x": -1.5912645761,
				"y": -0.2191548959,
				"z": -0.0314566897,
				"element": "F" 
			},
			{
				"x": -0.6304604993,
				"y": -2.0136971998,
				"z": -0.8772052224,
				"element": "F" 
			},
			{
				"x": 1.0676763841,
				"y": -0.3629064205,
				"z": 1.4258256935,
				"element": "C" 
			},
			{
				"x": 0.2960506882,
				"y": -0.7766702995,
				"z": 2.6290642723,
				"element": "C" 
			},
			{
				"x": -1.0242648501,
				"y": -1.02232428,
				"z": 2.5077663512,
				"element": "O" 
			},
			{
				"x": 0.8381813252,
				"y": -0.9091661638,
				"z": 3.706296958,
				"element": "O" 
			},
			{
				"x": 2.1522818273,
				"y": 0.1920877097,
				"z": -1.9833993809,
				"element": "C" 
			},
			{
				"x": 2.8406543727,
				"y": 1.3208637938,
				"z": -2.4396861187,
				"element": "C" 
			},
			{
				"x": 3.1095357111,
				"y": 1.4518183367,
				"z": -3.7998759225,
				"element": "C" 
			},
			{
				"x": 2.6910051732,
				"y": 0.4696599405,
				"z": -4.7021371502,
				"element": "C" 
			},
			{
				"x": 2.0141441127,
				"y": -0.657702493,
				"z": -4.2363834402,
				"element": "C" 
			},
			{
				"x": 1.7522310177,
				"y": -0.8104054412,
				"z": -2.8736948691,
				"element": "C" 
			},
			{
				"x": 2.806581328,
				"y": 0.9563561826,
				"z": 3.4234910025,
				"element": "H" 
			},
			{
				"x": 3.444831796,
				"y": -0.6593557787,
				"z": 3.2217588489,
				"element": "H" 
			},
			{
				"x": 4.2441392772,
				"y": 0.7064332774,
				"z": 2.3923341159,
				"element": "H" 
			},
			{
				"x": -0.4863732718,
				"y": -0.1894438765,
				"z": -1.694292184,
				"element": "H" 
			},
			{
				"x": -1.3629065738,
				"y": -0.7658283581,
				"z": 1.635824564,
				"element": "H" 
			},
			{
				"x": 3.1606703383,
				"y": 2.0695240428,
				"z": -1.7245085414,
				"element": "H" 
			},
			{
				"x": 3.6434628233,
				"y": 2.327193652,
				"z": -4.1567684605,
				"element": "H" 
			},
			{
				"x": 2.8997340674,
				"y": 0.5796820902,
				"z": -5.7618112879,
				"element": "H" 
			},
			{
				"x": 1.7032147469,
				"y": -1.434038142,
				"z": -4.9286313074,
				"element": "H" 
			},
			{
				"x": 1.264645962,
				"y": -1.7062085799,
				"z": -2.5043360007,
				"element": "H" 
			}
		],
		 "valence_orbital": [ 
			{
				"type": "occ",
				"energy": -0.29563,
				"method": "rhf"
			},
			{
				"type": "occ",
				"energy": -0.27866,
				"method": "rhf"
			},
			{
				"type": "occ",
				"energy": -0.27557,
				"method": "rhf"
			},
			{
				"type": "occ",
				"energy": -0.26758,
				"method": "rhf"
			},
			{
				"type": "occ",
				"energy": -0.2507,
				"method": "rhf"
			},
			{
				"type": "unocc",
				"energy": -0.05642,
				"method": "rhf"
			},
			{
				"type": "unocc",
				"energy": -0.03001,
				"method": "rhf"
			},
			{
				"type": "unocc",
				"energy": -0.02008,
				"method": "rhf"
			},
			{
				"type": "unocc",
				"energy": 0.01028,
				"method": "rhf"
			},
			{
				"type": "unocc",
				"energy": 0.06494,
				"method": "rhf"
			}
		],
		"cosmo_sigma_profile": { 
			"-0.025": 0.0,
			"-0.024": 0.0,
			"-0.023": 0.0,
			"-0.022": 0.0,
			"-0.021": 0.0,
			"-0.02": 0.0,
			"-0.019": 0.0,
			"-0.018": 0.0,
			"-0.017": 0.0,
			"-0.016": 0.0,
			"-0.015": 0.0,
			"-0.014": 0.0,
			"-0.013": 0.0,
			"-0.012": 0.00679496672198,
			"-0.011": 1.60266682266,
			"-0.01": 1.93430213979,
			"-0.009": 2.71334217218,
			"-0.008": 4.0084838327,
			"-0.007": 8.61416035205,
			"-0.006": 14.8460943718,
			"-0.005": 17.7184606976,
			"-0.004": 19.2399789205,
			"-0.003": 19.1256678003,
			"-0.002": 18.8941040799,
			"-0.001": 22.6329425833,
			"0.0": 21.9071769068,
			"0.001": 17.4958458053,
			"0.002": 19.3119268642,
			"0.003": 22.5693528872,
			"0.004": 12.9663383233,
			"0.005": 4.3243950227,
			"0.006": 3.82121461017,
			"0.007": 4.19943737826,
			"0.008": 3.53352317369,
			"0.009": 4.00064519643,
			"0.01": 4.99436678497,
			"0.011": 5.34959091223,
			"0.012": 4.88269495271,
			"0.013": 2.89639212301,
			"0.014": 0.50233587456,
			"0.015": 0.0,
			"0.016": 0.0,
			"0.017": 0.0,
			"0.018": 0.0,
			"0.019": 0.0,
			"0.02": 0.0,
			"0.021": 0.0,
			"0.022": 0.0,
			"0.023": 0.0,
			"0.024": 0.0,
			"0.025": 0.0
		}
	}
}
