{
	 "smiles": "CCCOC1=C(OCC)C=C(C=O)C=C1", 
	 "Tm": 310.15, 
	 "num_atms": 31, 
	 "gaussian": { 
		 "optdone": 1, 
		 "sigma_profile": "yes", 
		 "theory": "DFT", 
		 "functional": "B3LYP", 
		 "basiset": "6-31G**", 
		 "properties": { 
			 "R2extent": 4199.4127, 
			 "electric_dipole_moment_norm": 4.68480418588, 
			 "electric_quadrupole_moment_norm": 18.303363071, 
			 "total_energy": -692.573819027, 
			 "HOMO_LUMO_gap": 0.17428, 
			 "cosmo_polarized_energy": -11.06, 
			 "cosmo_cavitation_energy": 34.43, 
			 "cosmo_dispersion_energy": -23.75, 
			 "cosmo_repulsion_energy": 1.91, 
			 "cosmo_total_nonelectrostatic_energy": 12.59, 
			 "SMD_solvation_energy": 7.52 
		},
		"coords": [
			{
				"x": -2.9145754985,
				"y": -1.425719637,
				"z": -3.1419577491,
				"element": "C" 
			},
			{
				"x": -3.0590266272,
				"y": -0.0618599758,
				"z": -2.4597852852,
				"element": "C" 
			},
			{
				"x": -1.7677945049,
				"y": 0.7564913961,
				"z": -2.4799896448,
				"element": "C" 
			},
			{
				"x": -0.6771072742,
				"y": 0.0853700243,
				"z": -1.83133323,
				"element": "O" 
			},
			{
				"x": -0.5825638554,
				"y": 0.0771644065,
				"z": -0.4760740985,
				"element": "C" 
			},
			{
				"x": 0.4501878425,
				"y": -0.7352413869,
				"z": 0.0571279735,
				"element": "C" 
			},
			{
				"x": 1.2334329884,
				"y": -1.5091055928,
				"z": -0.7607452722,
				"element": "O" 
			},
			{
				"x": 2.2121816359,
				"y": -0.8080003044,
				"z": -1.5503124757,
				"element": "C" 
			},
			{
				"x": 2.9620827655,
				"y": -1.8414286165,
				"z": -2.3705816196,
				"element": "C" 
			},
			{
				"x": 0.6251212751,
				"y": -0.8020494482,
				"z": 1.4324080071,
				"element": "C" 
			},
			{
				"x": -0.2044338106,
				"y": -0.0800394347,
				"z": 2.304754569,
				"element": "C" 
			},
			{
				"x": -0.0052637985,
				"y": -0.1713593782,
				"z": 3.7623202796,
				"element": "C" 
			},
			{
				"x": -0.6682891594,
				"y": 0.4219814519,
				"z": 4.5947854873,
				"element": "O" 
			},
			{
				"x": -1.2175514137,
				"y": 0.7261715335,
				"z": 1.7721583586,
				"element": "C" 
			},
			{
				"x": -1.4085075343,
				"y": 0.8041535995,
				"z": 0.3969575748,
				"element": "C" 
			},
			{
				"x": -3.8516303281,
				"y": -1.9883987134,
				"z": -3.0946680152,
				"element": "H" 
			},
			{
				"x": -2.1348459013,
				"y": -2.0222274667,
				"z": -2.6603435263,
				"element": "H" 
			},
			{
				"x": -2.6444324054,
				"y": -1.3127356702,
				"z": -4.198133788,
				"element": "H" 
			},
			{
				"x": -3.3929656485,
				"y": -0.1948541887,
				"z": -1.4243821364,
				"element": "H" 
			},
			{
				"x": -3.832419803,
				"y": 0.534945809,
				"z": -2.9609979542,
				"element": "H" 
			},
			{
				"x": -1.4205912016,
				"y": 0.8892622196,
				"z": -3.5091210807,
				"element": "H" 
			},
			{
				"x": -1.9115878478,
				"y": 1.7539888331,
				"z": -2.0479528994,
				"element": "H" 
			},
			{
				"x": 1.713965895,
				"y": -0.0776748487,
				"z": -2.1970976109,
				"element": "H" 
			},
			{
				"x": 2.8941363546,
				"y": -0.2659762949,
				"z": -0.8796169777,
				"element": "H" 
			},
			{
				"x": 3.4487659119,
				"y": -2.5736700754,
				"z": -1.7198799753,
				"element": "H" 
			},
			{
				"x": 2.2760193952,
				"y": -2.3742614516,
				"z": -3.0351254007,
				"element": "H" 
			},
			{
				"x": 3.7291869333,
				"y": -1.3543417754,
				"z": -2.9808809625,
				"element": "H" 
			},
			{
				"x": 1.4154000683,
				"y": -1.4410537762,
				"z": 1.8178880663,
				"element": "H" 
			},
			{
				"x": 0.8255035954,
				"y": -0.8452804827,
				"z": 4.0722087981,
				"element": "H" 
			},
			{
				"x": -1.8526677046,
				"y": 1.2813879497,
				"z": 2.4548009749,
				"element": "H" 
			},
			{
				"x": -2.2064303442,
				"y": 1.4238612951,
				"z": 0.0059696131,
				"element": "H" 
			}
		],
		 "valence_orbital": [ 
			{
				"type": "occ",
				"energy": -0.31886,
				"method": "rhf"
			},
			{
				"type": "occ",
				"energy": -0.27767,
				"method": "rhf"
			},
			{
				"type": "occ",
				"energy": -0.25401,
				"method": "rhf"
			},
			{
				"type": "occ",
				"energy": -0.24482,
				"method": "rhf"
			},
			{
				"type": "occ",
				"energy": -0.22467,
				"method": "rhf"
			},
			{
				"type": "unocc",
				"energy": -0.05039,
				"method": "rhf"
			},
			{
				"type": "unocc",
				"energy": -0.00794,
				"method": "rhf"
			},
			{
				"type": "unocc",
				"energy": 0.05171,
				"method": "rhf"
			},
			{
				"type": "unocc",
				"energy": 0.08093,
				"method": "rhf"
			},
			{
				"type": "unocc",
				"energy": 0.08359,
				"method": "rhf"
			}
		],
		"cosmo_sigma_profile": { 
			"-0.025": 0.0,
			"-0.024": 0.0,
			"-0.023": 0.0,
			"-0.022": 0.0,
			"-0.021": 0.0,
			"-0.02": 0.0,
			"-0.019": 0.0,
			"-0.018": 0.0,
			"-0.017": 0.0,
			"-0.016": 0.0,
			"-0.015": 0.0,
			"-0.014": 0.0,
			"-0.013": 0.0,
			"-0.012": 0.0,
			"-0.011": 0.0,
			"-0.01": 0.0,
			"-0.009": 0.0,
			"-0.008": 1.28509887386,
			"-0.007": 6.09910562358,
			"-0.006": 9.32803426903,
			"-0.005": 12.8908674602,
			"-0.004": 22.2993177633,
			"-0.003": 31.7727056297,
			"-0.002": 29.9956552184,
			"-0.001": 30.0887329402,
			"0.0": 27.2490533376,
			"0.001": 24.5125482159,
			"0.002": 17.9143230341,
			"0.003": 14.8486441758,
			"0.004": 8.30060653604,
			"0.005": 3.9435508468,
			"0.006": 3.81938148362,
			"0.007": 3.24417463115,
			"0.008": 4.24128970613,
			"0.009": 3.76581197898,
			"0.01": 3.37853179172,
			"0.011": 5.1599170772,
			"0.012": 5.10817822974,
			"0.013": 1.72161188275,
			"0.014": 0.233320259152,
			"0.015": 0.0,
			"0.016": 0.0,
			"0.017": 0.0,
			"0.018": 0.0,
			"0.019": 0.0,
			"0.02": 0.0,
			"0.021": 0.0,
			"0.022": 0.0,
			"0.023": 0.0,
			"0.024": 0.0,
			"0.025": 0.0
		}
	}
}
