{
	 "smiles": "COC1=CC=CC(CC(O)=O)=C1", 
	 "Tm": 344.15, 
	 "num_atms": 22, 
	 "gaussian": { 
		 "optdone": 1, 
		 "sigma_profile": "yes", 
		 "theory": "DFT", 
		 "functional": "B3LYP", 
		 "basiset": "6-31G**", 
		 "properties": { 
			 "R2extent": 3202.2161, 
			 "electric_dipole_moment_norm": 4.59165475727, 
			 "electric_quadrupole_moment_norm": 25.7034352661, 
			 "total_energy": -574.655267765, 
			 "HOMO_LUMO_gap": 0.21076, 
			 "cosmo_polarized_energy": -14.07, 
			 "cosmo_cavitation_energy": 26.12, 
			 "cosmo_dispersion_energy": -18.78, 
			 "cosmo_repulsion_energy": 1.51, 
			 "cosmo_total_nonelectrostatic_energy": 8.86, 
			 "SMD_solvation_energy": 6.42 
		},
		"coords": [
			{
				"x": -0.3094248495,
				"y": 2.7767476155,
				"z": -2.3455575029,
				"element": "C" 
			},
			{
				"x": 0.5515488939,
				"y": 2.9711549986,
				"z": -1.2327380474,
				"element": "O" 
			},
			{
				"x": 0.4003764546,
				"y": 2.1674758501,
				"z": -0.1444051547,
				"element": "C" 
			},
			{
				"x": 1.2835238559,
				"y": 2.4096299768,
				"z": 0.9192749716,
				"element": "C" 
			},
			{
				"x": 1.2071829826,
				"y": 1.6335316007,
				"z": 2.068813477,
				"element": "C" 
			},
			{
				"x": 0.2568608239,
				"y": 0.6134666813,
				"z": 2.1826720737,
				"element": "C" 
			},
			{
				"x": -0.6266379353,
				"y": 0.3615267265,
				"z": 1.1293104954,
				"element": "C" 
			},
			{
				"x": -1.6872658959,
				"y": -0.7096472862,
				"z": 1.2466284047,
				"element": "C" 
			},
			{
				"x": -3.0836400593,
				"y": -0.2379408133,
				"z": 1.6944016415,
				"element": "C" 
			},
			{
				"x": -3.3271375262,
				"y": 1.090566278,
				"z": 1.6350365331,
				"element": "O" 
			},
			{
				"x": -3.9363933478,
				"y": -1.0110388559,
				"z": 2.0527459962,
				"element": "O" 
			},
			{
				"x": -0.5531176552,
				"y": 1.1465984788,
				"z": -0.0374868292,
				"element": "C" 
			},
			{
				"x": -0.0146188384,
				"y": 3.5208679549,
				"z": -3.0865009762,
				"element": "H" 
			},
			{
				"x": -1.3615118855,
				"y": 2.9341158858,
				"z": -2.0756169275,
				"element": "H" 
			},
			{
				"x": -0.1941998415,
				"y": 1.773884438,
				"z": -2.7759085901,
				"element": "H" 
			},
			{
				"x": 2.015729594,
				"y": 3.2031833273,
				"z": 0.8146524831,
				"element": "H" 
			},
			{
				"x": 1.8951795948,
				"y": 1.8234618067,
				"z": 2.887459606,
				"element": "H" 
			},
			{
				"x": 0.2045416505,
				"y": 0.0135597252,
				"z": 3.086468322,
				"element": "H" 
			},
			{
				"x": -1.8386368888,
				"y": -1.2119430873,
				"z": 0.2833391999,
				"element": "H" 
			},
			{
				"x": -1.3898942183,
				"y": -1.4882839261,
				"z": 1.9535575426,
				"element": "H" 
			},
			{
				"x": -2.5199290285,
				"y": 1.5560339508,
				"z": 1.3594406586,
				"element": "H" 
			},
			{
				"x": -1.2275358798,
				"y": 0.9327486739,
				"z": -0.8598873777,
				"element": "H" 
			}
		],
		 "valence_orbital": [ 
			{
				"type": "occ",
				"energy": -0.33395,
				"method": "rhf"
			},
			{
				"type": "occ",
				"energy": -0.30697,
				"method": "rhf"
			},
			{
				"type": "occ",
				"energy": -0.27914,
				"method": "rhf"
			},
			{
				"type": "occ",
				"energy": -0.25541,
				"method": "rhf"
			},
			{
				"type": "occ",
				"energy": -0.23457,
				"method": "rhf"
			},
			{
				"type": "unocc",
				"energy": -0.02381,
				"method": "rhf"
			},
			{
				"type": "unocc",
				"energy": -0.00901,
				"method": "rhf"
			},
			{
				"type": "unocc",
				"energy": 0.01886,
				"method": "rhf"
			},
			{
				"type": "unocc",
				"energy": 0.0744,
				"method": "rhf"
			},
			{
				"type": "unocc",
				"energy": 0.09103,
				"method": "rhf"
			}
		],
		"cosmo_sigma_profile": { 
			"-0.025": 0.0,
			"-0.024": 0.0,
			"-0.023": 0.0,
			"-0.022": 0.0,
			"-0.021": 0.0,
			"-0.02": 0.0,
			"-0.019": 0.0,
			"-0.018": 0.0,
			"-0.017": 0.0,
			"-0.016": 0.0,
			"-0.015": 0.0,
			"-0.014": 0.0944583274557,
			"-0.013": 0.341010082032,
			"-0.012": 0.730174680914,
			"-0.011": 0.322239421837,
			"-0.01": 0.757902041162,
			"-0.009": 1.5001697963,
			"-0.008": 3.70421864597,
			"-0.007": 7.60025572878,
			"-0.006": 18.9110934618,
			"-0.005": 21.5392032979,
			"-0.004": 19.1134804597,
			"-0.003": 18.0179505325,
			"-0.002": 12.0552909943,
			"-0.001": 8.80781991572,
			"0.0": 8.15421895047,
			"0.001": 8.84575123626,
			"0.002": 8.93448430243,
			"0.003": 11.1028474541,
			"0.004": 11.1561404383,
			"0.005": 9.15905048119,
			"0.006": 3.92118189984,
			"0.007": 4.41797799556,
			"0.008": 3.08510657163,
			"0.009": 4.58471028814,
			"0.01": 6.49706940902,
			"0.011": 4.77029792807,
			"0.012": 5.96273795317,
			"0.013": 3.12878275454,
			"0.014": 0.221029041957,
			"0.015": 0.0,
			"0.016": 0.0,
			"0.017": 0.0,
			"0.018": 0.0,
			"0.019": 0.0,
			"0.02": 0.0,
			"0.021": 0.0,
			"0.022": 0.0,
			"0.023": 0.0,
			"0.024": 0.0,
			"0.025": 0.0
		}
	}
}
