{
	 "smiles": "O=CC1=C2CCOC(=O)C2=CC=C1", 
	 "Tm": 413.15, 
	 "num_atms": 21, 
	 "gaussian": { 
		 "optdone": 1, 
		 "sigma_profile": "yes", 
		 "theory": "DFT", 
		 "functional": "B3LYP", 
		 "basiset": "6-31G**", 
		 "properties": { 
			 "R2extent": 3036.5748, 
			 "electric_dipole_moment_norm": 2.11297711062, 
			 "electric_quadrupole_moment_norm": 25.6147945662, 
			 "total_energy": -611.556923813, 
			 "HOMO_LUMO_gap": 0.18434, 
			 "cosmo_polarized_energy": -14.69, 
			 "cosmo_cavitation_energy": 24.95, 
			 "cosmo_dispersion_energy": -18.63, 
			 "cosmo_repulsion_energy": 1.45, 
			 "cosmo_total_nonelectrostatic_energy": 7.77, 
			 "SMD_solvation_energy": 6.09 
		},
		"coords": [
			{
				"x": 0.775294089,
				"y": -1.6478174994,
				"z": -2.0154283458,
				"element": "O" 
			},
			{
				"x": -0.1963965745,
				"y": -1.0487889061,
				"z": -1.5924705921,
				"element": "C" 
			},
			{
				"x": -0.2238070679,
				"y": -0.3367121381,
				"z": -0.2893374259,
				"element": "C" 
			},
			{
				"x": -1.3678937959,
				"y": 0.3369438946,
				"z": 0.1853356866,
				"element": "C" 
			},
			{
				"x": -2.6927616644,
				"y": 0.4047638119,
				"z": -0.5446359931,
				"element": "C" 
			},
			{
				"x": -3.8231587493,
				"y": 0.5291666287,
				"z": 0.4682293092,
				"element": "C" 
			},
			{
				"x": -3.6404830707,
				"y": 1.6564803368,
				"z": 1.3415952352,
				"element": "O" 
			},
			{
				"x": -2.4331870109,
				"y": 1.8159765111,
				"z": 1.9461158591,
				"element": "C" 
			},
			{
				"x": -2.3231033764,
				"y": 2.6114296512,
				"z": 2.8515650398,
				"element": "O" 
			},
			{
				"x": -1.2866614805,
				"y": 1.0131255988,
				"z": 1.4164151614,
				"element": "C" 
			},
			{
				"x": -0.1008513586,
				"y": 1.0085979293,
				"z": 2.1613360749,
				"element": "C" 
			},
			{
				"x": 1.0185737809,
				"y": 0.3217103377,
				"z": 1.6966174628,
				"element": "C" 
			},
			{
				"x": 0.9537302661,
				"y": -0.3430718984,
				"z": 0.4767640137,
				"element": "C" 
			},
			{
				"x": -1.1261811077,
				"y": -1.0080826411,
				"z": -2.1941369103,
				"element": "H" 
			},
			{
				"x": -2.8728005319,
				"y": -0.481148225,
				"z": -1.1592431243,
				"element": "H" 
			},
			{
				"x": -2.7092302063,
				"y": 1.2713230596,
				"z": -1.2193357814,
				"element": "H" 
			},
			{
				"x": -3.8968758263,
				"y": -0.3831305446,
				"z": 1.0739778182,
				"element": "H" 
			},
			{
				"x": -4.7845007173,
				"y": 0.6973416183,
				"z": -0.0208383814,
				"element": "H" 
			},
			{
				"x": -0.0833940016,
				"y": 1.5570019369,
				"z": 3.0971955716,
				"element": "H" 
			},
			{
				"x": 1.9355138648,
				"y": 0.3138940357,
				"z": 2.2774098143,
				"element": "H" 
			},
			{
				"x": 1.8082745394,
				"y": -0.8813034979,
				"z": 0.0789695077,
				"element": "H" 
			}
		],
		 "valence_orbital": [ 
			{
				"type": "occ",
				"energy": -0.30415,
				"method": "rhf"
			},
			{
				"type": "occ",
				"energy": -0.28201,
				"method": "rhf"
			},
			{
				"type": "occ",
				"energy": -0.27548,
				"method": "rhf"
			},
			{
				"type": "occ",
				"energy": -0.27329,
				"method": "rhf"
			},
			{
				"type": "occ",
				"energy": -0.26554,
				"method": "rhf"
			},
			{
				"type": "unocc",
				"energy": -0.0812,
				"method": "rhf"
			},
			{
				"type": "unocc",
				"energy": -0.05623,
				"method": "rhf"
			},
			{
				"type": "unocc",
				"energy": 0.00742,
				"method": "rhf"
			},
			{
				"type": "unocc",
				"energy": 0.06022,
				"method": "rhf"
			},
			{
				"type": "unocc",
				"energy": 0.07695,
				"method": "rhf"
			}
		],
		"cosmo_sigma_profile": { 
			"-0.025": 0.0,
			"-0.024": 0.0,
			"-0.023": 0.0,
			"-0.022": 0.0,
			"-0.021": 0.0,
			"-0.02": 0.0,
			"-0.019": 0.0,
			"-0.018": 0.0,
			"-0.017": 0.0,
			"-0.016": 0.0,
			"-0.015": 0.0,
			"-0.014": 0.0,
			"-0.013": 0.0,
			"-0.012": 0.0,
			"-0.011": 0.0,
			"-0.01": 0.0135315083633,
			"-0.009": 1.30846763135,
			"-0.008": 3.15459932145,
			"-0.007": 12.557175672,
			"-0.006": 24.151836794,
			"-0.005": 20.024925167,
			"-0.004": 13.1373693959,
			"-0.003": 11.8237591354,
			"-0.002": 10.0100387809,
			"-0.001": 10.9069403372,
			"0.0": 12.6802388107,
			"0.001": 14.4771669511,
			"0.002": 12.5571716961,
			"0.003": 4.18406479316,
			"0.004": 4.21367282227,
			"0.005": 3.55911076107,
			"0.006": 3.5053631499,
			"0.007": 3.8630151673,
			"0.008": 4.19729879175,
			"0.009": 5.10092573014,
			"0.01": 6.24092927994,
			"0.011": 9.44300096051,
			"0.012": 6.50321122513,
			"0.013": 2.15042323079,
			"0.014": 0.116432241273,
			"0.015": 0.0,
			"0.016": 0.0,
			"0.017": 0.0,
			"0.018": 0.0,
			"0.019": 0.0,
			"0.02": 0.0,
			"0.021": 0.0,
			"0.022": 0.0,
			"0.023": 0.0,
			"0.024": 0.0,
			"0.025": 0.0
		}
	}
}
