{
	 "smiles": "O=C1C2=CC=CC=C2CCC2=CC=CC=C12", 
	 "Tm": 304.65, 
	 "num_atms": 28, 
	 "gaussian": { 
		 "optdone": 1, 
		 "sigma_profile": "yes", 
		 "theory": "DFT", 
		 "functional": "B3LYP", 
		 "basiset": "6-31G**", 
		 "properties": { 
			 "R2extent": 4155.1566, 
			 "electric_dipole_moment_norm": 3.08976720644, 
			 "electric_quadrupole_moment_norm": 10.6448905466, 
			 "total_energy": -654.06179616, 
			 "HOMO_LUMO_gap": 0.17598, 
			 "cosmo_polarized_energy": -8.56, 
			 "cosmo_cavitation_energy": 30.31, 
			 "cosmo_dispersion_energy": -22.63, 
			 "cosmo_repulsion_energy": 1.71, 
			 "cosmo_total_nonelectrostatic_energy": 9.38, 
			 "SMD_solvation_energy": 4.9 
		},
		"coords": [
			{
				"x": -0.7535511954,
				"y": 0.3962528587,
				"z": -2.5895019433,
				"element": "O" 
			},
			{
				"x": -0.811868279,
				"y": 0.6236341256,
				"z": -1.3825426151,
				"element": "C" 
			},
			{
				"x": -1.7965095818,
				"y": 1.6739330089,
				"z": -0.9130222398,
				"element": "C" 
			},
			{
				"x": -2.5191887535,
				"y": 2.2826751186,
				"z": -1.9599523296,
				"element": "C" 
			},
			{
				"x": -3.5100882503,
				"y": 3.2243755759,
				"z": -1.7214870609,
				"element": "C" 
			},
			{
				"x": -3.8089653964,
				"y": 3.5823539175,
				"z": -0.4061400283,
				"element": "C" 
			},
			{
				"x": -3.0989732957,
				"y": 2.9995920448,
				"z": 0.6391012772,
				"element": "C" 
			},
			{
				"x": -2.089006813,
				"y": 2.0500414712,
				"z": 0.4193415735,
				"element": "C" 
			},
			{
				"x": -1.3676345642,
				"y": 1.5177597822,
				"z": 1.6377556945,
				"element": "C" 
			},
			{
				"x": 0.1574384101,
				"y": 1.4229430528,
				"z": 1.469871823,
				"element": "C" 
			},
			{
				"x": 0.5699238283,
				"y": 0.1491818072,
				"z": 0.7750028882,
				"element": "C" 
			},
			{
				"x": 1.4608026207,
				"y": -0.7168163057,
				"z": 1.4237523725,
				"element": "C" 
			},
			{
				"x": 1.8487058765,
				"y": -1.9284636577,
				"z": 0.8564883772,
				"element": "C" 
			},
			{
				"x": 1.3489286875,
				"y": -2.2954254618,
				"z": -0.3939482214,
				"element": "C" 
			},
			{
				"x": 0.4815823575,
				"y": -1.4384379739,
				"z": -1.0600194668,
				"element": "C" 
			},
			{
				"x": 0.0720238992,
				"y": -0.2165661588,
				"z": -0.4929861715,
				"element": "C" 
			},
			{
				"x": -2.2764973171,
				"y": 1.978400849,
				"z": -2.9710115852,
				"element": "H" 
			},
			{
				"x": -4.0458882756,
				"y": 3.6736454022,
				"z": -2.5523526471,
				"element": "H" 
			},
			{
				"x": -4.5813443328,
				"y": 4.3164973819,
				"z": -0.1943053501,
				"element": "H" 
			},
			{
				"x": -3.3226302722,
				"y": 3.2911736549,
				"z": 1.6620922694,
				"element": "H" 
			},
			{
				"x": -1.5981129625,
				"y": 2.1770649677,
				"z": 2.4809474478,
				"element": "H" 
			},
			{
				"x": -1.7567305614,
				"y": 0.527104766,
				"z": 1.9105424903,
				"element": "H" 
			},
			{
				"x": 0.5170737072,
				"y": 2.3047704755,
				"z": 0.9238869774,
				"element": "H" 
			},
			{
				"x": 0.6328105816,
				"y": 1.4532731186,
				"z": 2.4553924591,
				"element": "H" 
			},
			{
				"x": 1.852154523,
				"y": -0.4306097381,
				"z": 2.3966265327,
				"element": "H" 
			},
			{
				"x": 2.5342442927,
				"y": -2.5815271868,
				"z": 1.3893005188,
				"element": "H" 
			},
			{
				"x": 1.6378623353,
				"y": -3.2384654447,
				"z": -0.8482952509,
				"element": "H" 
			},
			{
				"x": 0.1039387311,
				"y": -1.6887614517,
				"z": -2.0445377918,
				"element": "H" 
			}
		],
		 "valence_orbital": [ 
			{
				"type": "occ",
				"energy": -0.25714,
				"method": "rhf"
			},
			{
				"type": "occ",
				"energy": -0.25296,
				"method": "rhf"
			},
			{
				"type": "occ",
				"energy": -0.25034,
				"method": "rhf"
			},
			{
				"type": "occ",
				"energy": -0.24627,
				"method": "rhf"
			},
			{
				"type": "occ",
				"energy": -0.24284,
				"method": "rhf"
			},
			{
				"type": "unocc",
				"energy": -0.06686,
				"method": "rhf"
			},
			{
				"type": "unocc",
				"energy": -0.00855,
				"method": "rhf"
			},
			{
				"type": "unocc",
				"energy": -0.00351,
				"method": "rhf"
			},
			{
				"type": "unocc",
				"energy": -0.00086,
				"method": "rhf"
			},
			{
				"type": "unocc",
				"energy": 0.06006,
				"method": "rhf"
			}
		],
		"cosmo_sigma_profile": { 
			"-0.025": 0.0,
			"-0.024": 0.0,
			"-0.023": 0.0,
			"-0.022": 0.0,
			"-0.021": 0.0,
			"-0.02": 0.0,
			"-0.019": 0.0,
			"-0.018": 0.0,
			"-0.017": 0.0,
			"-0.016": 0.0,
			"-0.015": 0.0,
			"-0.014": 0.0,
			"-0.013": 0.0,
			"-0.012": 0.0,
			"-0.011": 0.0,
			"-0.01": 0.0,
			"-0.009": 0.0,
			"-0.008": 0.0,
			"-0.007": 0.642851211809,
			"-0.006": 11.5899877472,
			"-0.005": 18.3522507942,
			"-0.004": 27.6558735833,
			"-0.003": 22.1492509238,
			"-0.002": 23.466377146,
			"-0.001": 20.9678604841,
			"0.0": 15.4450690292,
			"0.001": 15.813477389,
			"0.002": 15.4721552619,
			"0.003": 18.7917025891,
			"0.004": 22.3822000015,
			"0.005": 13.6776198373,
			"0.006": 2.3015479833,
			"0.007": 1.66321424499,
			"0.008": 1.82350637008,
			"0.009": 1.74698493013,
			"0.01": 1.87673234069,
			"0.011": 2.68328841829,
			"0.012": 3.30134069579,
			"0.013": 0.502669534299,
			"0.014": 0.0,
			"0.015": 0.0,
			"0.016": 0.0,
			"0.017": 0.0,
			"0.018": 0.0,
			"0.019": 0.0,
			"0.02": 0.0,
			"0.021": 0.0,
			"0.022": 0.0,
			"0.023": 0.0,
			"0.024": 0.0,
			"0.025": 0.0
		}
	}
}
