{
	 "smiles": "CC1=C(CCC(O)=O)C(C)=NN1", 
	 "Tm": 443.15, 
	 "num_atms": 24, 
	 "gaussian": { 
		 "optdone": 1, 
		 "sigma_profile": "yes", 
		 "theory": "DFT", 
		 "functional": "B3LYP", 
		 "basiset": "6-31G**", 
		 "properties": { 
			 "R2extent": 2203.4775, 
			 "electric_dipole_moment_norm": 2.24475510246, 
			 "electric_quadrupole_moment_norm": 15.9686782214, 
			 "total_energy": -572.04762638, 
			 "HOMO_LUMO_gap": 0.23401, 
			 "cosmo_polarized_energy": -15.93, 
			 "cosmo_cavitation_energy": 27.54, 
			 "cosmo_dispersion_energy": -19.11, 
			 "cosmo_repulsion_energy": 1.55, 
			 "cosmo_total_nonelectrostatic_energy": 9.98, 
			 "SMD_solvation_energy": 4.84 
		},
		"coords": [
			{
				"x": -2.8826034819,
				"y": -1.3798233849,
				"z": 0.4625303516,
				"element": "C" 
			},
			{
				"x": -1.8431436122,
				"y": -0.3103594389,
				"z": 0.5837069107,
				"element": "C" 
			},
			{
				"x": -0.9528462028,
				"y": 0.2268910699,
				"z": -0.338283337,
				"element": "C" 
			},
			{
				"x": -0.7989848884,
				"y": -0.1421039011,
				"z": -1.7885504074,
				"element": "C" 
			},
			{
				"x": -0.227011307,
				"y": -1.5586642385,
				"z": -2.0319068098,
				"element": "C" 
			},
			{
				"x": 1.1247174813,
				"y": -1.802587865,
				"z": -1.3972973793,
				"element": "C" 
			},
			{
				"x": 2.0345196486,
				"y": -0.8560311277,
				"z": -1.7508123597,
				"element": "O" 
			},
			{
				"x": 1.4100240678,
				"y": -2.7318895131,
				"z": -0.6760885004,
				"element": "O" 
			},
			{
				"x": -0.2136963884,
				"y": 1.2005030633,
				"z": 0.3947368123,
				"element": "C" 
			},
			{
				"x": 0.87229519,
				"y": 2.1081905542,
				"z": -0.1000498746,
				"element": "C" 
			},
			{
				"x": -0.611325822,
				"y": 1.2616600837,
				"z": 1.6658805447,
				"element": "N" 
			},
			{
				"x": -1.5960051789,
				"y": 0.3385022953,
				"z": 1.7532386907,
				"element": "N" 
			},
			{
				"x": -2.4686297012,
				"y": -2.3783311071,
				"z": 0.6486596775,
				"element": "H" 
			},
			{
				"x": -3.7014607262,
				"y": -1.2229591176,
				"z": 1.1727009595,
				"element": "H" 
			},
			{
				"x": -3.3159401154,
				"y": -1.3849775193,
				"z": -0.5420647478,
				"element": "H" 
			},
			{
				"x": -0.1499719403,
				"y": 0.5884357279,
				"z": -2.2798402323,
				"element": "H" 
			},
			{
				"x": -1.7669277946,
				"y": -0.0877915689,
				"z": -2.3043354652,
				"element": "H" 
			},
			{
				"x": -0.1213445405,
				"y": -1.7237738217,
				"z": -3.1120740452,
				"element": "H" 
			},
			{
				"x": -0.8964965042,
				"y": -2.3284519506,
				"z": -1.6426204064,
				"element": "H" 
			},
			{
				"x": 2.8593770434,
				"y": -1.0992947509,
				"z": -1.2977124197,
				"element": "H" 
			},
			{
				"x": 1.6728826293,
				"y": 1.5430241256,
				"z": -0.5874340714,
				"element": "H" 
			},
			{
				"x": 0.4921526215,
				"y": 2.8316002819,
				"z": -0.8316224836,
				"element": "H" 
			},
			{
				"x": 1.2934459002,
				"y": 2.6660392759,
				"z": 0.739273241,
				"element": "H" 
			},
			{
				"x": -2.0553263781,
				"y": 0.1961928277,
				"z": 2.6392653516,
				"element": "H" 
			}
		],
		 "valence_orbital": [ 
			{
				"type": "occ",
				"energy": -0.31593,
				"method": "rhf"
			},
			{
				"type": "occ",
				"energy": -0.27383,
				"method": "rhf"
			},
			{
				"type": "occ",
				"energy": -0.2702,
				"method": "rhf"
			},
			{
				"type": "occ",
				"energy": -0.23346,
				"method": "rhf"
			},
			{
				"type": "occ",
				"energy": -0.22401,
				"method": "rhf"
			},
			{
				"type": "unocc",
				"energy": 0.01,
				"method": "rhf"
			},
			{
				"type": "unocc",
				"energy": 0.02878,
				"method": "rhf"
			},
			{
				"type": "unocc",
				"energy": 0.06203,
				"method": "rhf"
			},
			{
				"type": "unocc",
				"energy": 0.07544,
				"method": "rhf"
			},
			{
				"type": "unocc",
				"energy": 0.08176,
				"method": "rhf"
			}
		],
		"cosmo_sigma_profile": { 
			"-0.025": 0.0,
			"-0.024": 0.0,
			"-0.023": 0.0,
			"-0.022": 0.0,
			"-0.021": 0.0,
			"-0.02": 0.0,
			"-0.019": 0.0,
			"-0.018": 0.416058606414,
			"-0.017": 0.957563541733,
			"-0.016": 1.0380122629,
			"-0.015": 2.07707112667,
			"-0.014": 2.66324640022,
			"-0.013": 1.25462972282,
			"-0.012": 1.41881751812,
			"-0.011": 2.25185353262,
			"-0.01": 1.72278700204,
			"-0.009": 1.75774773238,
			"-0.008": 1.61161523629,
			"-0.007": 2.13614999359,
			"-0.006": 5.33135281684,
			"-0.005": 9.8100569236,
			"-0.004": 19.8165410635,
			"-0.003": 21.3407970156,
			"-0.002": 22.3049479958,
			"-0.001": 19.699603688,
			"0.0": 15.4023444704,
			"0.001": 12.0378497704,
			"0.002": 8.64050361082,
			"0.003": 7.72071178121,
			"0.004": 7.23000190934,
			"0.005": 7.18361562394,
			"0.006": 6.79302462761,
			"0.007": 3.70747410585,
			"0.008": 4.5676872112,
			"0.009": 4.72116632923,
			"0.01": 3.22784452099,
			"0.011": 3.94176391754,
			"0.012": 6.27775129268,
			"0.013": 2.86500402616,
			"0.014": 0.971516869308,
			"0.015": 1.1043987801,
			"0.016": 1.08126768438,
			"0.017": 0.700558293565,
			"0.018": 0.176670934148,
			"0.019": 0.0,
			"0.02": 0.0,
			"0.021": 0.0,
			"0.022": 0.0,
			"0.023": 0.0,
			"0.024": 0.0,
			"0.025": 0.0
		}
	}
}
