{
	 "smiles": "CCCCCCCCCCCCOC(C)=O", 
	 "Tm": 274.45, 
	 "num_atms": 44, 
	 "gaussian": { 
		 "optdone": 1, 
		 "sigma_profile": "yes", 
		 "theory": "DFT", 
		 "functional": "B3LYP", 
		 "basiset": "6-31G**", 
		 "properties": { 
			 "R2extent": 7601.072, 
			 "electric_dipole_moment_norm": 2.01096250835, 
			 "electric_quadrupole_moment_norm": 11.4981274675, 
			 "total_energy": -700.863212187, 
			 "HOMO_LUMO_gap": 0.28269, 
			 "cosmo_polarized_energy": -6.75, 
			 "cosmo_cavitation_energy": 44.39, 
			 "cosmo_dispersion_energy": -29.44, 
			 "cosmo_repulsion_energy": 2.41, 
			 "cosmo_total_nonelectrostatic_energy": 17.36, 
			 "SMD_solvation_energy": 7.49 
		},
		"coords": [
			{
				"x": 5.0381586238,
				"y": 1.343021627,
				"z": -2.2995459856,
				"element": "C" 
			},
			{
				"x": 4.1759029907,
				"y": 0.6265324506,
				"z": -1.2549238629,
				"element": "C" 
			},
			{
				"x": 3.5071895037,
				"y": 1.5938665319,
				"z": -0.2676348673,
				"element": "C" 
			},
			{
				"x": 2.6862846914,
				"y": 0.9213442789,
				"z": 0.8461010307,
				"element": "C" 
			},
			{
				"x": 1.4241819835,
				"y": 0.1940837757,
				"z": 0.3581309527,
				"element": "C" 
			},
			{
				"x": 0.6174716162,
				"y": -0.4973749051,
				"z": 1.472259087,
				"element": "C" 
			},
			{
				"x": 0.0191629967,
				"y": 0.4279875237,
				"z": 2.5486379929,
				"element": "C" 
			},
			{
				"x": -0.9581765606,
				"y": 1.5031908847,
				"z": 2.0364905989,
				"element": "C" 
			},
			{
				"x": -2.1813942104,
				"y": 0.9796931327,
				"z": 1.2626386882,
				"element": "C" 
			},
			{
				"x": -3.1015163154,
				"y": 0.064988091,
				"z": 2.0839075728,
				"element": "C" 
			},
			{
				"x": -4.3696037111,
				"y": -0.3920900515,
				"z": 1.3434315392,
				"element": "C" 
			},
			{
				"x": -4.1205660752,
				"y": -1.2740773107,
				"z": 0.127136857,
				"element": "C" 
			},
			{
				"x": -3.4204724907,
				"y": -2.4598248252,
				"z": 0.571995719,
				"element": "O" 
			},
			{
				"x": -3.1158630358,
				"y": -3.362708812,
				"z": -0.3886202696,
				"element": "C" 
			},
			{
				"x": -2.3876573946,
				"y": -4.5491534388,
				"z": 0.199339048,
				"element": "C" 
			},
			{
				"x": -3.3984865903,
				"y": -3.2185313724,
				"z": -1.5580127857,
				"element": "O" 
			},
			{
				"x": 4.438930492,
				"y": 2.039534693,
				"z": -2.8972971131,
				"element": "H" 
			},
			{
				"x": 5.8378612323,
				"y": 1.9223428777,
				"z": -1.823668454,
				"element": "H" 
			},
			{
				"x": 5.5068717046,
				"y": 0.6329377105,
				"z": -2.9888425648,
				"element": "H" 
			},
			{
				"x": 3.4135916241,
				"y": 0.0272672845,
				"z": -1.7680730128,
				"element": "H" 
			},
			{
				"x": 4.7965802138,
				"y": -0.0861846961,
				"z": -0.6940874248,
				"element": "H" 
			},
			{
				"x": 4.2874901965,
				"y": 2.213461955,
				"z": 0.1954943608,
				"element": "H" 
			},
			{
				"x": 2.8620730607,
				"y": 2.2895897716,
				"z": -0.823926094,
				"element": "H" 
			},
			{
				"x": 2.4033867862,
				"y": 1.6887368387,
				"z": 1.5775689148,
				"element": "H" 
			},
			{
				"x": 3.3264193553,
				"y": 0.2094665133,
				"z": 1.3878869301,
				"element": "H" 
			},
			{
				"x": 0.7847562151,
				"y": 0.9073440841,
				"z": -0.18024943,
				"element": "H" 
			},
			{
				"x": 1.7044302344,
				"y": -0.5684465179,
				"z": -0.3789422479,
				"element": "H" 
			},
			{
				"x": -0.1893575805,
				"y": -1.0815039501,
				"z": 1.010633392,
				"element": "H" 
			},
			{
				"x": 1.2655749319,
				"y": -1.2307399184,
				"z": 1.9717782012,
				"element": "H" 
			},
			{
				"x": 0.8291032875,
				"y": 0.9311753005,
				"z": 3.0914918804,
				"element": "H" 
			},
			{
				"x": -0.4866782213,
				"y": -0.1976082956,
				"z": 3.2948521536,
				"element": "H" 
			},
			{
				"x": -1.3076186684,
				"y": 2.0892000335,
				"z": 2.8976571425,
				"element": "H" 
			},
			{
				"x": -0.4173667571,
				"y": 2.2110646138,
				"z": 1.3954190104,
				"element": "H" 
			},
			{
				"x": -1.8425802556,
				"y": 0.4553797435,
				"z": 0.3603680368,
				"element": "H" 
			},
			{
				"x": -2.7624874111,
				"y": 1.8418211153,
				"z": 0.9065977748,
				"element": "H" 
			},
			{
				"x": -2.5532580334,
				"y": -0.8245321166,
				"z": 2.4128809126,
				"element": "H" 
			},
			{
				"x": -3.4057602836,
				"y": 0.5942650436,
				"z": 2.9968409725,
				"element": "H" 
			},
			{
				"x": -4.9398544791,
				"y": 0.4821337562,
				"z": 1.0010136888,
				"element": "H" 
			},
			{
				"x": -5.0202765599,
				"y": -0.9357605301,
				"z": 2.0391050001,
				"element": "H" 
			},
			{
				"x": -3.5163232876,
				"y": -0.7746778316,
				"z": -0.6361799573,
				"element": "H" 
			},
			{
				"x": -5.059733736,
				"y": -1.5753462914,
				"z": -0.3477467864,
				"element": "H" 
			},
			{
				"x": -2.1694869852,
				"y": -5.267727912,
				"z": -0.5899947592,
				"element": "H" 
			},
			{
				"x": -2.9988655035,
				"y": -5.0195958343,
				"z": 0.9751200357,
				"element": "H" 
			},
			{
				"x": -1.4569375944,
				"y": -4.221745021,
				"z": 0.6723681217,
				"element": "H" 
			}
		],
		 "valence_orbital": [ 
			{
				"type": "occ",
				"energy": -0.30806,
				"method": "rhf"
			},
			{
				"type": "occ",
				"energy": -0.30026,
				"method": "rhf"
			},
			{
				"type": "occ",
				"energy": -0.29637,
				"method": "rhf"
			},
			{
				"type": "occ",
				"energy": -0.29407,
				"method": "rhf"
			},
			{
				"type": "occ",
				"energy": -0.26625,
				"method": "rhf"
			},
			{
				"type": "unocc",
				"energy": 0.01644,
				"method": "rhf"
			},
			{
				"type": "unocc",
				"energy": 0.06955,
				"method": "rhf"
			},
			{
				"type": "unocc",
				"energy": 0.08805,
				"method": "rhf"
			},
			{
				"type": "unocc",
				"energy": 0.10147,
				"method": "rhf"
			},
			{
				"type": "unocc",
				"energy": 0.10259,
				"method": "rhf"
			}
		],
		"cosmo_sigma_profile": { 
			"-0.025": 0.0,
			"-0.024": 0.0,
			"-0.023": 0.0,
			"-0.022": 0.0,
			"-0.021": 0.0,
			"-0.02": 0.0,
			"-0.019": 0.0,
			"-0.018": 0.0,
			"-0.017": 0.0,
			"-0.016": 0.0,
			"-0.015": 0.0,
			"-0.014": 0.0,
			"-0.013": 0.0,
			"-0.012": 0.0,
			"-0.011": 0.0,
			"-0.01": 0.0,
			"-0.009": 0.0,
			"-0.008": 0.0,
			"-0.007": 0.202321656255,
			"-0.006": 3.58842572938,
			"-0.005": 7.95932609738,
			"-0.004": 14.017224438,
			"-0.003": 21.0135355748,
			"-0.002": 48.0651706084,
			"-0.001": 68.6230526988,
			"0.0": 66.7321903135,
			"0.001": 55.9442614532,
			"0.002": 24.6250336648,
			"0.003": 3.41110397697,
			"0.004": 3.88943884731,
			"0.005": 2.40496408184,
			"0.006": 2.19147118525,
			"0.007": 2.9679123722,
			"0.008": 2.49876043924,
			"0.009": 1.44584606716,
			"0.01": 1.68411036813,
			"0.011": 2.3931327573,
			"0.012": 4.87044017925,
			"0.013": 2.56552605974,
			"0.014": 0.109867519295,
			"0.015": 0.0,
			"0.016": 0.0,
			"0.017": 0.0,
			"0.018": 0.0,
			"0.019": 0.0,
			"0.02": 0.0,
			"0.021": 0.0,
			"0.022": 0.0,
			"0.023": 0.0,
			"0.024": 0.0,
			"0.025": 0.0
		}
	}
}
