{
	 "smiles": "CCN1C=NN=C1C1=CC=C(C=C1)C(O)=O", 
	 "Tm": 485.15, 
	 "num_atms": 27, 
	 "gaussian": { 
		 "optdone": 1, 
		 "sigma_profile": "yes", 
		 "theory": "DFT", 
		 "functional": "B3LYP", 
		 "basiset": "6-31G**", 
		 "properties": { 
			 "R2extent": 4887.8997, 
			 "electric_dipole_moment_norm": 8.45394422858, 
			 "electric_quadrupole_moment_norm": 23.0268718192, 
			 "total_energy": -740.493092825, 
			 "HOMO_LUMO_gap": 0.17733, 
			 "cosmo_polarized_energy": -27.7, 
			 "cosmo_cavitation_energy": 31.49, 
			 "cosmo_dispersion_energy": -22.72, 
			 "cosmo_repulsion_energy": 1.74, 
			 "cosmo_total_nonelectrostatic_energy": 10.51, 
			 "SMD_solvation_energy": 4.96 
		},
		"coords": [
			{
				"x": -2.0993490263,
				"y": 1.1015361718,
				"z": 3.0976401756,
				"element": "C" 
			},
			{
				"x": -0.6950167529,
				"y": 0.6438076292,
				"z": 2.6985113749,
				"element": "C" 
			},
			{
				"x": -0.0981485823,
				"y": 1.4723179438,
				"z": 1.647036062,
				"element": "N" 
			},
			{
				"x": 0.5110101537,
				"y": 2.6813238162,
				"z": 1.8501478601,
				"element": "C" 
			},
			{
				"x": 1.0356387857,
				"y": 3.145339884,
				"z": 0.7417668364,
				"element": "N" 
			},
			{
				"x": 0.7776603596,
				"y": 2.2218153166,
				"z": -0.2387901112,
				"element": "N" 
			},
			{
				"x": 0.0990501364,
				"y": 1.2233786274,
				"z": 0.3016676862,
				"element": "C" 
			},
			{
				"x": -0.3226301044,
				"y": 0.0400563655,
				"z": -0.4601418482,
				"element": "C" 
			},
			{
				"x": 0.4709003576,
				"y": -0.3519665671,
				"z": -1.5557844222,
				"element": "C" 
			},
			{
				"x": 0.1148403442,
				"y": -1.4456030718,
				"z": -2.3317406604,
				"element": "C" 
			},
			{
				"x": -1.0314038671,
				"y": -2.1949374212,
				"z": -2.0269450488,
				"element": "C" 
			},
			{
				"x": -1.8394181455,
				"y": -1.7916248365,
				"z": -0.9563602019,
				"element": "C" 
			},
			{
				"x": -1.4946929316,
				"y": -0.6830492111,
				"z": -0.1854970308,
				"element": "C" 
			},
			{
				"x": -1.354105154,
				"y": -3.3685465552,
				"z": -2.9021410108,
				"element": "C" 
			},
			{
				"x": -2.1991272408,
				"y": -4.303069432,
				"z": -2.3869866775,
				"element": "O" 
			},
			{
				"x": -0.9035701717,
				"y": -3.5095395877,
				"z": -4.014113781,
				"element": "O" 
			},
			{
				"x": -2.0839214959,
				"y": 2.1269493256,
				"z": 3.4781256531,
				"element": "H" 
			},
			{
				"x": -2.788748001,
				"y": 1.0719399188,
				"z": 2.2487216936,
				"element": "H" 
			},
			{
				"x": -2.4938734533,
				"y": 0.4522326666,
				"z": 3.8852105616,
				"element": "H" 
			},
			{
				"x": -0.0255631575,
				"y": 0.6800950578,
				"z": 3.5637438996,
				"element": "H" 
			},
			{
				"x": -0.700527002,
				"y": -0.3888018351,
				"z": 2.3445565437,
				"element": "H" 
			},
			{
				"x": 0.5491612719,
				"y": 3.1636456543,
				"z": 2.8171327411,
				"element": "H" 
			},
			{
				"x": 1.3604734124,
				"y": 0.2246124431,
				"z": -1.7826621168,
				"element": "H" 
			},
			{
				"x": 0.717336018,
				"y": -1.7467951666,
				"z": -3.1818062997,
				"element": "H" 
			},
			{
				"x": -2.7756170958,
				"y": -2.3015987112,
				"z": -0.7420003297,
				"element": "H" 
			},
			{
				"x": -2.1678864093,
				"y": -0.362456569,
				"z": 0.6012019876,
				"element": "H" 
			},
			{
				"x": -2.3380722481,
				"y": -4.1439618561,
				"z": -1.4433935366,
				"element": "H" 
			}
		],
		 "valence_orbital": [ 
			{
				"type": "occ",
				"energy": -0.29739,
				"method": "rhf"
			},
			{
				"type": "occ",
				"energy": -0.28035,
				"method": "rhf"
			},
			{
				"type": "occ",
				"energy": -0.27567,
				"method": "rhf"
			},
			{
				"type": "occ",
				"energy": -0.25652,
				"method": "rhf"
			},
			{
				"type": "occ",
				"energy": -0.24597,
				"method": "rhf"
			},
			{
				"type": "unocc",
				"energy": -0.06864,
				"method": "rhf"
			},
			{
				"type": "unocc",
				"energy": -0.03109,
				"method": "rhf"
			},
			{
				"type": "unocc",
				"energy": 0.00743,
				"method": "rhf"
			},
			{
				"type": "unocc",
				"energy": 0.02754,
				"method": "rhf"
			},
			{
				"type": "unocc",
				"energy": 0.05032,
				"method": "rhf"
			}
		],
		"cosmo_sigma_profile": { 
			"-0.025": 0.0,
			"-0.024": 0.0,
			"-0.023": 0.0,
			"-0.022": 0.0,
			"-0.021": 0.0,
			"-0.02": 0.0,
			"-0.019": 0.241801829854,
			"-0.018": 0.896289530942,
			"-0.017": 0.647073295053,
			"-0.016": 1.41802711301,
			"-0.015": 1.35367298269,
			"-0.014": 0.452962754449,
			"-0.013": 1.00286490138,
			"-0.012": 1.17778441314,
			"-0.011": 2.27654260764,
			"-0.01": 3.36300273317,
			"-0.009": 4.12583529131,
			"-0.008": 5.07100635309,
			"-0.007": 11.7021310329,
			"-0.006": 15.5299742329,
			"-0.005": 18.0566122986,
			"-0.004": 20.0737575547,
			"-0.003": 15.6949902263,
			"-0.002": 15.0300543272,
			"-0.001": 18.3491238011,
			"0.0": 15.1063417194,
			"0.001": 12.8786891956,
			"0.002": 17.1247265195,
			"0.003": 7.41804838663,
			"0.004": 4.82810803755,
			"0.005": 4.30325370236,
			"0.006": 4.13256355977,
			"0.007": 4.37894266092,
			"0.008": 5.12959808241,
			"0.009": 5.71225546917,
			"0.01": 7.06861067635,
			"0.011": 8.21972100508,
			"0.012": 6.28373028706,
			"0.013": 3.99150500183,
			"0.014": 3.94217139101,
			"0.015": 2.36421294595,
			"0.016": 2.10915717444,
			"0.017": 0.632563230592,
			"0.018": 0.0,
			"0.019": 0.0,
			"0.02": 0.0,
			"0.021": 0.0,
			"0.022": 0.0,
			"0.023": 0.0,
			"0.024": 0.0,
			"0.025": 0.0
		}
	}
}
