{
	 "smiles": "ClCCC(=O)NC1=CC=C(C=C1)N1CCCC1=O", 
	 "Tm": 468.15, 
	 "num_atms": 33, 
	 "gaussian": { 
		 "optdone": 1, 
		 "sigma_profile": "yes", 
		 "theory": "DFT", 
		 "functional": "B3LYP", 
		 "basiset": "6-31G**", 
		 "properties": { 
			 "R2extent": 8037.9854, 
			 "electric_dipole_moment_norm": 5.65913538714, 
			 "electric_quadrupole_moment_norm": 22.7426427244, 
			 "total_energy": -1224.60890055, 
			 "HOMO_LUMO_gap": 0.19038, 
			 "cosmo_polarized_energy": -19.8, 
			 "cosmo_cavitation_energy": 37.89, 
			 "cosmo_dispersion_energy": -27.36, 
			 "cosmo_repulsion_energy": 2.14, 
			 "cosmo_total_nonelectrostatic_energy": 12.67, 
			 "SMD_solvation_energy": 6.44 
		},
		"coords": [
			{
				"x": -3.191158828,
				"y": 4.1373017666,
				"z": -1.1777325051,
				"element": "Cl" 
			},
			{
				"x": -1.5165723758,
				"y": 4.7801427096,
				"z": -1.4866805939,
				"element": "C" 
			},
			{
				"x": -0.4476203133,
				"y": 3.812869598,
				"z": -1.0002992601,
				"element": "C" 
			},
			{
				"x": -0.3237421946,
				"y": 3.8489299684,
				"z": 0.5229981794,
				"element": "C" 
			},
			{
				"x": -0.5287836127,
				"y": 4.8770899176,
				"z": 1.1541245405,
				"element": "O" 
			},
			{
				"x": 0.0307575369,
				"y": 2.6909344403,
				"z": 1.1791833335,
				"element": "N" 
			},
			{
				"x": 0.3199399943,
				"y": 1.3950467095,
				"z": 0.6784369337,
				"element": "C" 
			},
			{
				"x": -0.3018743576,
				"y": 0.2819872887,
				"z": 1.2534408469,
				"element": "C" 
			},
			{
				"x": -0.0062500042,
				"y": -1.0053061013,
				"z": 0.8147074263,
				"element": "C" 
			},
			{
				"x": 0.9081841884,
				"y": -1.2172830838,
				"z": -0.2323250037,
				"element": "C" 
			},
			{
				"x": 1.5382714953,
				"y": -0.0979143609,
				"z": -0.8076508234,
				"element": "C" 
			},
			{
				"x": 1.2573489534,
				"y": 1.1819514457,
				"z": -0.3404395803,
				"element": "C" 
			},
			{
				"x": 1.1653178694,
				"y": -2.5325672227,
				"z": -0.6816116183,
				"element": "N" 
			},
			{
				"x": 0.3731450938,
				"y": -3.6732419885,
				"z": -0.2032672034,
				"element": "C" 
			},
			{
				"x": 0.7712819592,
				"y": -4.8241003681,
				"z": -1.1442501319,
				"element": "C" 
			},
			{
				"x": 2.1922990249,
				"y": -4.4550145357,
				"z": -1.5799674074,
				"element": "C" 
			},
			{
				"x": 2.2368808092,
				"y": -2.933051517,
				"z": -1.4759241237,
				"element": "C" 
			},
			{
				"x": 3.0765499066,
				"y": -2.2088184128,
				"z": -1.9829666051,
				"element": "O" 
			},
			{
				"x": -1.4462480327,
				"y": 5.7258389815,
				"z": -0.9510146979,
				"element": "H" 
			},
			{
				"x": -1.448902326,
				"y": 4.9411468978,
				"z": -2.5625186056,
				"element": "H" 
			},
			{
				"x": -0.6298554732,
				"y": 2.8045433936,
				"z": -1.3772012081,
				"element": "H" 
			},
			{
				"x": 0.5136181152,
				"y": 4.1444320274,
				"z": -1.4175432828,
				"element": "H" 
			},
			{
				"x": -0.0108977251,
				"y": 2.8012538497,
				"z": 2.185479938,
				"element": "H" 
			},
			{
				"x": -1.0295458908,
				"y": 0.4252280965,
				"z": 2.0470571462,
				"element": "H" 
			},
			{
				"x": -0.5000427659,
				"y": -1.8411508766,
				"z": 1.2953951986,
				"element": "H" 
			},
			{
				"x": 2.2662327022,
				"y": -0.2453446071,
				"z": -1.5918472282,
				"element": "H" 
			},
			{
				"x": 1.7883133432,
				"y": 2.0265432505,
				"z": -0.7671486377,
				"element": "H" 
			},
			{
				"x": 0.618965164,
				"y": -3.9003709346,
				"z": 0.8438237348,
				"element": "H" 
			},
			{
				"x": -0.6951478676,
				"y": -3.4438291905,
				"z": -0.2549472862,
				"element": "H" 
			},
			{
				"x": 0.6988970411,
				"y": -5.7962960361,
				"z": -0.651527889,
				"element": "H" 
			},
			{
				"x": 0.1034020495,
				"y": -4.8373674909,
				"z": -2.0111828922,
				"element": "H" 
			},
			{
				"x": 2.951458445,
				"y": -4.8598013965,
				"z": -0.8987323883,
				"element": "H" 
			},
			{
				"x": 2.4591780758,
				"y": -4.7704822182,
				"z": -2.5904683055,
				"element": "H" 
			}
		],
		 "valence_orbital": [ 
			{
				"type": "occ",
				"energy": -0.27021,
				"method": "rhf"
			},
			{
				"type": "occ",
				"energy": -0.2645,
				"method": "rhf"
			},
			{
				"type": "occ",
				"energy": -0.25729,
				"method": "rhf"
			},
			{
				"type": "occ",
				"energy": -0.25622,
				"method": "rhf"
			},
			{
				"type": "occ",
				"energy": -0.21637,
				"method": "rhf"
			},
			{
				"type": "unocc",
				"energy": -0.02599,
				"method": "rhf"
			},
			{
				"type": "unocc",
				"energy": -0.01552,
				"method": "rhf"
			},
			{
				"type": "unocc",
				"energy": 0.01655,
				"method": "rhf"
			},
			{
				"type": "unocc",
				"energy": 0.03111,
				"method": "rhf"
			},
			{
				"type": "unocc",
				"energy": 0.03971,
				"method": "rhf"
			}
		],
		"cosmo_sigma_profile": { 
			"-0.025": 0.0,
			"-0.024": 0.0,
			"-0.023": 0.0,
			"-0.022": 0.0,
			"-0.021": 0.0,
			"-0.02": 0.0,
			"-0.019": 0.0,
			"-0.018": 0.0,
			"-0.017": 0.0,
			"-0.016": 0.0,
			"-0.015": 0.0342526610126,
			"-0.014": 0.821292114657,
			"-0.013": 0.890110670082,
			"-0.012": 0.995401500881,
			"-0.011": 1.26846636793,
			"-0.01": 0.628848939788,
			"-0.009": 1.37740164617,
			"-0.008": 4.38100273458,
			"-0.007": 11.4973261562,
			"-0.006": 18.301417383,
			"-0.005": 28.3771215272,
			"-0.004": 33.2080247705,
			"-0.003": 24.7835030409,
			"-0.002": 19.2096957769,
			"-0.001": 17.2521206359,
			"0.0": 12.9618505585,
			"0.001": 14.7470697699,
			"0.002": 15.6796768114,
			"0.003": 15.0208672829,
			"0.004": 17.9740058163,
			"0.005": 12.4329096046,
			"0.006": 12.0745583606,
			"0.007": 8.77368730842,
			"0.008": 2.77399659356,
			"0.009": 2.95113897584,
			"0.01": 3.5224802783,
			"0.011": 3.49582653557,
			"0.012": 5.37282173396,
			"0.013": 7.80445313722,
			"0.014": 3.40175092338,
			"0.015": 0.0368752068291,
			"0.016": 0.0,
			"0.017": 0.0,
			"0.018": 0.0,
			"0.019": 0.0,
			"0.02": 0.0,
			"0.021": 0.0,
			"0.022": 0.0,
			"0.023": 0.0,
			"0.024": 0.0,
			"0.025": 0.0
		}
	}
}
