{
	 "smiles": "NNC1=C(F)C=C(F)C=C1", 
	 "Tm": 339.15, 
	 "num_atms": 16, 
	 "gaussian": { 
		 "optdone": 1, 
		 "sigma_profile": "yes", 
		 "theory": "DFT", 
		 "functional": "B3LYP", 
		 "basiset": "6-31G**", 
		 "properties": { 
			 "R2extent": 2015.9015, 
			 "electric_dipole_moment_norm": 1.23663146086, 
			 "electric_quadrupole_moment_norm": 8.93129838937, 
			 "total_energy": -541.382611086, 
			 "HOMO_LUMO_gap": 0.19704, 
			 "cosmo_polarized_energy": -8.41, 
			 "cosmo_cavitation_energy": 20.95, 
			 "cosmo_dispersion_energy": -15.4, 
			 "cosmo_repulsion_energy": 1.21, 
			 "cosmo_total_nonelectrostatic_energy": 6.76, 
			 "SMD_solvation_energy": 4.83 
		},
		"coords": [
			{
				"x": 0.8044145202,
				"y": 1.2035328551,
				"z": 2.3916704991,
				"element": "N" 
			},
			{
				"x": 1.2748774862,
				"y": 0.4507273472,
				"z": 1.2759309544,
				"element": "N" 
			},
			{
				"x": 0.6997394598,
				"y": 0.6550244407,
				"z": 0.0104628879,
				"element": "C" 
			},
			{
				"x": 0.5585898185,
				"y": 1.9448290534,
				"z": -0.5298356925,
				"element": "C" 
			},
			{
				"x": 0.957553738,
				"y": 3.0114402111,
				"z": 0.2056858531,
				"element": "F" 
			},
			{
				"x": 0.0391836213,
				"y": 2.1789687841,
				"z": -1.7937120555,
				"element": "C" 
			},
			{
				"x": -0.3285458939,
				"y": 1.0817418997,
				"z": -2.56590322,
				"element": "C" 
			},
			{
				"x": -0.8285149899,
				"y": 1.2942360629,
				"z": -3.8014355276,
				"element": "F" 
			},
			{
				"x": -0.1926908424,
				"y": -0.2172898855,
				"z": -2.0945684083,
				"element": "C" 
			},
			{
				"x": 0.3076437354,
				"y": -0.4164316786,
				"z": -0.8075632712,
				"element": "C" 
			},
			{
				"x": 1.2651214264,
				"y": 2.1079812945,
				"z": 2.3620296934,
				"element": "H" 
			},
			{
				"x": -0.1979464554,
				"y": 1.3804853342,
				"z": 2.2982462907,
				"element": "H" 
			},
			{
				"x": 1.3082833286,
				"y": -0.5292069465,
				"z": 1.5283933348,
				"element": "H" 
			},
			{
				"x": -0.0552424944,
				"y": 3.1904950011,
				"z": -2.1698728156,
				"element": "H" 
			},
			{
				"x": -0.4906364647,
				"y": -1.0515239225,
				"z": -2.7194557762,
				"element": "H" 
			},
			{
				"x": 0.4006700063,
				"y": -1.4281098511,
				"z": -0.4213727464,
				"element": "H" 
			}
		],
		 "valence_orbital": [ 
			{
				"type": "occ",
				"energy": -0.36333,
				"method": "rhf"
			},
			{
				"type": "occ",
				"energy": -0.29842,
				"method": "rhf"
			},
			{
				"type": "occ",
				"energy": -0.26458,
				"method": "rhf"
			},
			{
				"type": "occ",
				"energy": -0.26041,
				"method": "rhf"
			},
			{
				"type": "occ",
				"energy": -0.21121,
				"method": "rhf"
			},
			{
				"type": "unocc",
				"energy": -0.01417,
				"method": "rhf"
			},
			{
				"type": "unocc",
				"energy": 0.00285,
				"method": "rhf"
			},
			{
				"type": "unocc",
				"energy": 0.07318,
				"method": "rhf"
			},
			{
				"type": "unocc",
				"energy": 0.08804,
				"method": "rhf"
			},
			{
				"type": "unocc",
				"energy": 0.1009,
				"method": "rhf"
			}
		],
		"cosmo_sigma_profile": { 
			"-0.025": 0.0,
			"-0.024": 0.0,
			"-0.023": 0.0,
			"-0.022": 0.0,
			"-0.021": 0.0,
			"-0.02": 0.0,
			"-0.019": 0.0,
			"-0.018": 0.0,
			"-0.017": 0.0,
			"-0.016": 0.0,
			"-0.015": 0.0,
			"-0.014": 0.0,
			"-0.013": 0.293657546417,
			"-0.012": 1.45814539458,
			"-0.011": 1.50624038696,
			"-0.01": 3.07138106007,
			"-0.009": 4.28125611684,
			"-0.008": 6.06219407696,
			"-0.007": 7.32358237125,
			"-0.006": 6.88579835591,
			"-0.005": 9.42764131898,
			"-0.004": 7.17027956319,
			"-0.003": 6.27666107458,
			"-0.002": 6.41146955765,
			"-0.001": 7.24057892281,
			"0.0": 8.86173221731,
			"0.001": 16.5748794466,
			"0.002": 16.8202635942,
			"0.003": 16.4723072733,
			"0.004": 19.6664801839,
			"0.005": 7.4704776543,
			"0.006": 1.75966187913,
			"0.007": 1.07928023927,
			"0.008": 1.80779136733,
			"0.009": 1.62170606506,
			"0.01": 1.38712891499,
			"0.011": 1.55473267442,
			"0.012": 1.10892932844,
			"0.013": 0.758777905743,
			"0.014": 0.625125219605,
			"0.015": 0.79360136199,
			"0.016": 0.659008943648,
			"0.017": 0.531829066095,
			"0.018": 0.094482511445,
			"0.019": 0.0,
			"0.02": 0.0,
			"0.021": 0.0,
			"0.022": 0.0,
			"0.023": 0.0,
			"0.024": 0.0,
			"0.025": 0.0
		}
	}
}
