{
	 "smiles": "ClC1=NC=NC(=C1)N1CCSCC1", 
	 "Tm": 408.15, 
	 "num_atms": 23, 
	 "gaussian": { 
		 "optdone": 1, 
		 "sigma_profile": "yes", 
		 "theory": "DFT", 
		 "functional": "B3LYP", 
		 "basiset": "6-31G**", 
		 "properties": { 
			 "R2extent": 4398.7398, 
			 "electric_dipole_moment_norm": 3.58443600864, 
			 "electric_quadrupole_moment_norm": 22.6740884818, 
			 "total_energy": -1333.5120744, 
			 "HOMO_LUMO_gap": 0.19853, 
			 "cosmo_polarized_energy": -11.46, 
			 "cosmo_cavitation_energy": 28.68, 
			 "cosmo_dispersion_energy": -22.25, 
			 "cosmo_repulsion_energy": 1.71, 
			 "cosmo_total_nonelectrostatic_energy": 8.14, 
			 "SMD_solvation_energy": 0.88 
		},
		"coords": [
			{
				"x": -4.4974918652,
				"y": 1.9546893361,
				"z": 1.8280039362,
				"element": "Cl" 
			},
			{
				"x": -3.408110698,
				"y": 1.0326955512,
				"z": 0.7977913699,
				"element": "C" 
			},
			{
				"x": -3.9647480677,
				"y": 0.1107759131,
				"z": 0.0227634968,
				"element": "N" 
			},
			{
				"x": -3.0909637658,
				"y": -0.5602833263,
				"z": -0.7387515791,
				"element": "C" 
			},
			{
				"x": -1.7749003225,
				"y": -0.4042403421,
				"z": -0.7992818193,
				"element": "N" 
			},
			{
				"x": -1.227727196,
				"y": 0.542220993,
				"z": -0.0008528881,
				"element": "C" 
			},
			{
				"x": -2.0537673229,
				"y": 1.315823656,
				"z": 0.8524405315,
				"element": "C" 
			},
			{
				"x": 0.1259703746,
				"y": 0.7212476559,
				"z": -0.0533749944,
				"element": "N" 
			},
			{
				"x": 0.968448549,
				"y": -0.1090233851,
				"z": -0.9164704535,
				"element": "C" 
			},
			{
				"x": 1.9887885287,
				"y": -0.9251274156,
				"z": -0.1229479714,
				"element": "C" 
			},
			{
				"x": 3.082546114,
				"y": 0.1398472031,
				"z": 0.9300477482,
				"element": "S" 
			},
			{
				"x": 2.2772009667,
				"y": 1.7589555757,
				"z": 0.6248347171,
				"element": "C" 
			},
			{
				"x": 0.7628913326,
				"y": 1.7173359684,
				"z": 0.8148329378,
				"element": "C" 
			},
			{
				"x": -3.5142756496,
				"y": -1.3260179628,
				"z": -1.3863569049,
				"element": "H" 
			},
			{
				"x": -1.674403363,
				"y": 2.0821372479,
				"z": 1.5117629644,
				"element": "H" 
			},
			{
				"x": 1.4788700417,
				"y": 0.5196567788,
				"z": -1.6561678092,
				"element": "H" 
			},
			{
				"x": 0.3028251697,
				"y": -0.7808337188,
				"z": -1.4576745263,
				"element": "H" 
			},
			{
				"x": 2.6244454153,
				"y": -1.4867157807,
				"z": -0.8130700309,
				"element": "H" 
			},
			{
				"x": 1.4747055202,
				"y": -1.6338174876,
				"z": 0.5311895584,
				"element": "H" 
			},
			{
				"x": 2.542508456,
				"y": 2.1365536595,
				"z": -0.3664226654,
				"element": "H" 
			},
			{
				"x": 2.7073074366,
				"y": 2.4442574032,
				"z": 1.3592465581,
				"element": "H" 
			},
			{
				"x": 0.351637294,
				"y": 2.7151377663,
				"z": 0.599453336,
				"element": "H" 
			},
			{
				"x": 0.5425430519,
				"y": 1.4885247107,
				"z": 1.8660044881,
				"element": "H" 
			}
		],
		 "valence_orbital": [ 
			{
				"type": "occ",
				"energy": -0.30372,
				"method": "rhf"
			},
			{
				"type": "occ",
				"energy": -0.27956,
				"method": "rhf"
			},
			{
				"type": "occ",
				"energy": -0.26492,
				"method": "rhf"
			},
			{
				"type": "occ",
				"energy": -0.23388,
				"method": "rhf"
			},
			{
				"type": "occ",
				"energy": -0.23274,
				"method": "rhf"
			},
			{
				"type": "unocc",
				"energy": -0.03421,
				"method": "rhf"
			},
			{
				"type": "unocc",
				"energy": -0.01765,
				"method": "rhf"
			},
			{
				"type": "unocc",
				"energy": 0.02304,
				"method": "rhf"
			},
			{
				"type": "unocc",
				"energy": 0.03164,
				"method": "rhf"
			},
			{
				"type": "unocc",
				"energy": 0.04926,
				"method": "rhf"
			}
		],
		"cosmo_sigma_profile": { 
			"-0.025": 0.0,
			"-0.024": 0.0,
			"-0.023": 0.0,
			"-0.022": 0.0,
			"-0.021": 0.0,
			"-0.02": 0.0,
			"-0.019": 0.0,
			"-0.018": 0.0,
			"-0.017": 0.0,
			"-0.016": 0.0,
			"-0.015": 0.0,
			"-0.014": 0.0,
			"-0.013": 0.0,
			"-0.012": 0.0,
			"-0.011": 0.0,
			"-0.01": 0.0,
			"-0.009": 0.0732597135757,
			"-0.008": 2.44727643512,
			"-0.007": 8.49374390647,
			"-0.006": 15.5253377945,
			"-0.005": 22.8501973338,
			"-0.004": 19.462742877,
			"-0.003": 15.9566816569,
			"-0.002": 16.0828048267,
			"-0.001": 17.1571942597,
			"0.0": 19.3461803663,
			"0.001": 15.2479606193,
			"0.002": 10.3597973178,
			"0.003": 13.1001594258,
			"0.004": 14.0307789963,
			"0.005": 9.19861701698,
			"0.006": 7.57435446338,
			"0.007": 5.508769256,
			"0.008": 5.20873237494,
			"0.009": 4.20756264972,
			"0.01": 4.65106768349,
			"0.011": 2.55437003578,
			"0.012": 0.784150628448,
			"0.013": 0.824634003068,
			"0.014": 1.09938662388,
			"0.015": 0.50098993518,
			"0.016": 0.0,
			"0.017": 0.0,
			"0.018": 0.0,
			"0.019": 0.0,
			"0.02": 0.0,
			"0.021": 0.0,
			"0.022": 0.0,
			"0.023": 0.0,
			"0.024": 0.0,
			"0.025": 0.0
		}
	}
}
