{
	 "smiles": "CC1CCCCC1C", 
	 "Tm": 223.25, 
	 "num_atms": 24, 
	 "gaussian": { 
		 "optdone": 1, 
		 "sigma_profile": "yes", 
		 "theory": "DFT", 
		 "functional": "B3LYP", 
		 "basiset": "6-31G**", 
		 "properties": { 
			 "R2extent": 1641.6168, 
			 "electric_dipole_moment_norm": 0.0315784736807, 
			 "electric_quadrupole_moment_norm": 0.503981795306, 
			 "total_energy": -314.513416162, 
			 "HOMO_LUMO_gap": 0.36091, 
			 "cosmo_polarized_energy": -0.56, 
			 "cosmo_cavitation_energy": 23.15, 
			 "cosmo_dispersion_energy": -17.14, 
			 "cosmo_repulsion_energy": 1.41, 
			 "cosmo_total_nonelectrostatic_energy": 7.41, 
			 "SMD_solvation_energy": 3.34 
		},
		"coords": [
			{
				"x": 0.9468521516,
				"y": -1.7025502448,
				"z": 0.5728240741,
				"element": "C" 
			},
			{
				"x": 0.8894542772,
				"y": -0.2020492297,
				"z": 0.9035817009,
				"element": "C" 
			},
			{
				"x": 0.0525181015,
				"y": 0.5825223803,
				"z": -0.1261848922,
				"element": "C" 
			},
			{
				"x": 0.6947761024,
				"y": 0.6208106173,
				"z": -1.5292736598,
				"element": "C" 
			},
			{
				"x": 2.2347810317,
				"y": 0.7920293364,
				"z": -1.4633328504,
				"element": "C" 
			},
			{
				"x": 2.6779464786,
				"y": 1.3654032513,
				"z": -0.1115234809,
				"element": "C" 
			},
			{
				"x": 2.3206223359,
				"y": 0.4217849533,
				"z": 1.0585901936,
				"element": "C" 
			},
			{
				"x": 2.4862414381,
				"y": 1.137472797,
				"z": 2.4057633834,
				"element": "C" 
			},
			{
				"x": -0.0592726817,
				"y": -2.1319185448,
				"z": 0.5015497598,
				"element": "H" 
			},
			{
				"x": 1.4898983177,
				"y": -2.2532225704,
				"z": 1.3491646724,
				"element": "H" 
			},
			{
				"x": 1.4565999089,
				"y": -1.8926282387,
				"z": -0.3780939208,
				"element": "H" 
			},
			{
				"x": 0.378453855,
				"y": -0.1104347908,
				"z": 1.8718503909,
				"element": "H" 
			},
			{
				"x": -0.9576367856,
				"y": 0.159249073,
				"z": -0.1875404999,
				"element": "H" 
			},
			{
				"x": -0.0744562411,
				"y": 1.6091676845,
				"z": 0.2401782399,
				"element": "H" 
			},
			{
				"x": 0.4478641794,
				"y": -0.2928233953,
				"z": -2.0817822493,
				"element": "H" 
			},
			{
				"x": 0.2478828558,
				"y": 1.4452424978,
				"z": -2.0972730614,
				"element": "H" 
			},
			{
				"x": 2.5828464056,
				"y": 1.4307326271,
				"z": -2.282935387,
				"element": "H" 
			},
			{
				"x": 2.7270011483,
				"y": -0.1786765058,
				"z": -1.6072375344,
				"element": "H" 
			},
			{
				"x": 3.7589347887,
				"y": 1.5514774061,
				"z": -0.1095249747,
				"element": "H" 
			},
			{
				"x": 2.2026333945,
				"y": 2.3443578398,
				"z": 0.0441384042,
				"element": "H" 
			},
			{
				"x": 3.0442488419,
				"y": -0.4057452086,
				"z": 1.0321426127,
				"element": "H" 
			},
			{
				"x": 1.7617345113,
				"y": 1.9552455344,
				"z": 2.5059804941,
				"element": "H" 
			},
			{
				"x": 3.4881831684,
				"y": 1.5698327334,
				"z": 2.5094463465,
				"element": "H" 
			},
			{
				"x": 2.3291924159,
				"y": 0.4509199972,
				"z": 3.2451922385,
				"element": "H" 
			}
		],
		 "valence_orbital": [ 
			{
				"type": "occ",
				"energy": -0.33511,
				"method": "rhf"
			},
			{
				"type": "occ",
				"energy": -0.32361,
				"method": "rhf"
			},
			{
				"type": "occ",
				"energy": -0.29144,
				"method": "rhf"
			},
			{
				"type": "occ",
				"energy": -0.28662,
				"method": "rhf"
			},
			{
				"type": "occ",
				"energy": -0.28457,
				"method": "rhf"
			},
			{
				"type": "unocc",
				"energy": 0.07634,
				"method": "rhf"
			},
			{
				"type": "unocc",
				"energy": 0.09989,
				"method": "rhf"
			},
			{
				"type": "unocc",
				"energy": 0.11669,
				"method": "rhf"
			},
			{
				"type": "unocc",
				"energy": 0.12976,
				"method": "rhf"
			},
			{
				"type": "unocc",
				"energy": 0.14438,
				"method": "rhf"
			}
		],
		"cosmo_sigma_profile": { 
			"-0.025": 0.0,
			"-0.024": 0.0,
			"-0.023": 0.0,
			"-0.022": 0.0,
			"-0.021": 0.0,
			"-0.02": 0.0,
			"-0.019": 0.0,
			"-0.018": 0.0,
			"-0.017": 0.0,
			"-0.016": 0.0,
			"-0.015": 0.0,
			"-0.014": 0.0,
			"-0.013": 0.0,
			"-0.012": 0.0,
			"-0.011": 0.0,
			"-0.01": 0.0,
			"-0.009": 0.0,
			"-0.008": 0.0,
			"-0.007": 0.0,
			"-0.006": 0.0,
			"-0.005": 0.0,
			"-0.004": 0.0,
			"-0.003": 1.33282019829,
			"-0.002": 22.9517656729,
			"-0.001": 40.8889068064,
			"0.0": 46.7567377206,
			"0.001": 38.3405873843,
			"0.002": 25.1024546507,
			"0.003": 1.21100974475,
			"0.004": 0.0,
			"0.005": 0.0,
			"0.006": 0.0,
			"0.007": 0.0,
			"0.008": 0.0,
			"0.009": 0.0,
			"0.01": 0.0,
			"0.011": 0.0,
			"0.012": 0.0,
			"0.013": 0.0,
			"0.014": 0.0,
			"0.015": 0.0,
			"0.016": 0.0,
			"0.017": 0.0,
			"0.018": 0.0,
			"0.019": 0.0,
			"0.02": 0.0,
			"0.021": 0.0,
			"0.022": 0.0,
			"0.023": 0.0,
			"0.024": 0.0,
			"0.025": 0.0
		}
	}
}
