{
	 "smiles": "CC1(C)OC(=O)C(=NNC2=CC=C(C=C2)C(O)=O)C(=O)O1", 
	 "Tm": 496.15, 
	 "num_atms": 33, 
	 "gaussian": { 
		 "optdone": 1, 
		 "sigma_profile": "yes", 
		 "theory": "DFT", 
		 "functional": "B3LYP", 
		 "basiset": "6-31G**", 
		 "properties": { 
			 "R2extent": 10081.5247, 
			 "electric_dipole_moment_norm": 4.07035662934, 
			 "electric_quadrupole_moment_norm": 23.9788089957, 
			 "total_energy": -1063.47700009, 
			 "HOMO_LUMO_gap": 0.13988, 
			 "cosmo_polarized_energy": -21.07, 
			 "cosmo_cavitation_energy": 38.95, 
			 "cosmo_dispersion_energy": -28.05, 
			 "cosmo_repulsion_energy": 2.13, 
			 "cosmo_total_nonelectrostatic_energy": 13.04, 
			 "SMD_solvation_energy": 9.33 
		},
		"coords": [
			{
				"x": 1.6898066737,
				"y": -4.2928214992,
				"z": -2.6052643674,
				"element": "C" 
			},
			{
				"x": 2.7256493775,
				"y": -3.9268469698,
				"z": -1.5438519123,
				"element": "C" 
			},
			{
				"x": 4.0460830517,
				"y": -4.657706888,
				"z": -1.7059630391,
				"element": "C" 
			},
			{
				"x": 2.2421395926,
				"y": -4.2530432126,
				"z": -0.2419706311,
				"element": "O" 
			},
			{
				"x": 1.2667689869,
				"y": -3.4805851494,
				"z": 0.3457167564,
				"element": "C" 
			},
			{
				"x": 0.6173406621,
				"y": -3.9289061926,
				"z": 1.254922192,
				"element": "O" 
			},
			{
				"x": 1.1861737583,
				"y": -2.0970824239,
				"z": -0.1835791195,
				"element": "C" 
			},
			{
				"x": 0.2388028025,
				"y": -1.3424755403,
				"z": 0.3330767604,
				"element": "N" 
			},
			{
				"x": 0.1274237471,
				"y": -0.0879449785,
				"z": 0.0007949875,
				"element": "N" 
			},
			{
				"x": -0.8908632193,
				"y": 0.7153675233,
				"z": 0.5380046011,
				"element": "C" 
			},
			{
				"x": -1.8285953449,
				"y": 0.2034565056,
				"z": 1.4475954919,
				"element": "C" 
			},
			{
				"x": -2.8124176541,
				"y": 1.0451865158,
				"z": 1.9450929832,
				"element": "C" 
			},
			{
				"x": -2.8774481956,
				"y": 2.3908750858,
				"z": 1.5500772868,
				"element": "C" 
			},
			{
				"x": -1.9343743106,
				"y": 2.8901920667,
				"z": 0.641251531,
				"element": "C" 
			},
			{
				"x": -0.9435862544,
				"y": 2.0572602619,
				"z": 0.1351795036,
				"element": "C" 
			},
			{
				"x": -3.9562266867,
				"y": 3.235902157,
				"z": 2.1200909638,
				"element": "C" 
			},
			{
				"x": -3.9214899323,
				"y": 4.5163897356,
				"z": 1.6706361056,
				"element": "O" 
			},
			{
				"x": -4.7976743479,
				"y": 2.8505933688,
				"z": 2.9079819973,
				"element": "O" 
			},
			{
				"x": 2.1805014713,
				"y": -1.6083691016,
				"z": -1.1500515968,
				"element": "C" 
			},
			{
				"x": 2.2776140177,
				"y": -0.4351341218,
				"z": -1.4906181009,
				"element": "O" 
			},
			{
				"x": 3.0424265846,
				"y": -2.5165267867,
				"z": -1.6552996306,
				"element": "O" 
			},
			{
				"x": 2.0747130111,
				"y": -4.0575167808,
				"z": -3.6003236656,
				"element": "H" 
			},
			{
				"x": 1.4696094698,
				"y": -5.3614017844,
				"z": -2.5488434728,
				"element": "H" 
			},
			{
				"x": 0.758172163,
				"y": -3.7407175462,
				"z": -2.4519870749,
				"element": "H" 
			},
			{
				"x": 4.7359490606,
				"y": -4.3442543785,
				"z": -0.9198671011,
				"element": "H" 
			},
			{
				"x": 3.8829558548,
				"y": -5.7347366616,
				"z": -1.6279094911,
				"element": "H" 
			},
			{
				"x": 4.4837503357,
				"y": -4.4281004039,
				"z": -2.6799649567,
				"element": "H" 
			},
			{
				"x": 0.8233076092,
				"y": 0.30170217,
				"z": -0.6479407227,
				"element": "H" 
			},
			{
				"x": -1.7674687156,
				"y": -0.8358116923,
				"z": 1.7471156828,
				"element": "H" 
			},
			{
				"x": -3.5500119068,
				"y": 0.6773057826,
				"z": 2.6500864625,
				"element": "H" 
			},
			{
				"x": -1.9805460518,
				"y": 3.9284161592,
				"z": 0.3341480474,
				"element": "H" 
			},
			{
				"x": -0.2114167116,
				"y": 2.4412874653,
				"z": -0.5697718764,
				"element": "H" 
			},
			{
				"x": -4.6631688987,
				"y": 4.9681473145,
				"z": 2.1054354059,
				"element": "H" 
			}
		],
		 "valence_orbital": [ 
			{
				"type": "occ",
				"energy": -0.29265,
				"method": "rhf"
			},
			{
				"type": "occ",
				"energy": -0.28185,
				"method": "rhf"
			},
			{
				"type": "occ",
				"energy": -0.27654,
				"method": "rhf"
			},
			{
				"type": "occ",
				"energy": -0.27562,
				"method": "rhf"
			},
			{
				"type": "occ",
				"energy": -0.23893,
				"method": "rhf"
			},
			{
				"type": "unocc",
				"energy": -0.09905,
				"method": "rhf"
			},
			{
				"type": "unocc",
				"energy": -0.04042,
				"method": "rhf"
			},
			{
				"type": "unocc",
				"energy": -0.02294,
				"method": "rhf"
			},
			{
				"type": "unocc",
				"energy": -0.01276,
				"method": "rhf"
			},
			{
				"type": "unocc",
				"energy": 0.05591,
				"method": "rhf"
			}
		],
		"cosmo_sigma_profile": { 
			"-0.025": 0.0,
			"-0.024": 0.0,
			"-0.023": 0.0,
			"-0.022": 0.0,
			"-0.021": 0.0,
			"-0.02": 0.0,
			"-0.019": 0.0719675825703,
			"-0.018": 0.784147287078,
			"-0.017": 1.03282839806,
			"-0.016": 0.729311400044,
			"-0.015": 0.491864112383,
			"-0.014": 0.924189676557,
			"-0.013": 1.49877556589,
			"-0.012": 1.83355695009,
			"-0.011": 1.66616568109,
			"-0.01": 1.56964192207,
			"-0.009": 1.85539414237,
			"-0.008": 4.06511397403,
			"-0.007": 9.05684865942,
			"-0.006": 22.2460920967,
			"-0.005": 22.9842718896,
			"-0.004": 20.7975858928,
			"-0.003": 23.0826710763,
			"-0.002": 27.7957819206,
			"-0.001": 22.7139782897,
			"0.0": 20.0325431928,
			"0.001": 19.4333729744,
			"0.002": 20.0185547563,
			"0.003": 10.2654633406,
			"0.004": 6.90639331543,
			"0.005": 8.95947497929,
			"0.006": 6.43136190321,
			"0.007": 7.01761684177,
			"0.008": 7.83922481111,
			"0.009": 8.38449774699,
			"0.01": 8.22447846884,
			"0.011": 12.311738544,
			"0.012": 9.56762468038,
			"0.013": 0.61037578643,
			"0.014": 0.0,
			"0.015": 0.0,
			"0.016": 0.0,
			"0.017": 0.0,
			"0.018": 0.0,
			"0.019": 0.0,
			"0.02": 0.0,
			"0.021": 0.0,
			"0.022": 0.0,
			"0.023": 0.0,
			"0.024": 0.0,
			"0.025": 0.0
		}
	}
}
