{
	 "smiles": "CC1=NC(=CC(Cl)=N1)C1=NC=CC=C1", 
	 "Tm": 349.15, 
	 "num_atms": 22, 
	 "gaussian": { 
		 "optdone": 1, 
		 "sigma_profile": "yes", 
		 "theory": "DFT", 
		 "functional": "B3LYP", 
		 "basiset": "6-31G**", 
		 "properties": { 
			 "R2extent": 4314.5113, 
			 "electric_dipole_moment_norm": 4.00286827912, 
			 "electric_quadrupole_moment_norm": 9.22659902998, 
			 "total_energy": -1010.34483677, 
			 "HOMO_LUMO_gap": 0.18527, 
			 "cosmo_polarized_energy": -7.65, 
			 "cosmo_cavitation_energy": 28.73, 
			 "cosmo_dispersion_energy": -21.43, 
			 "cosmo_repulsion_energy": 1.69, 
			 "cosmo_total_nonelectrostatic_energy": 8.99, 
			 "SMD_solvation_energy": 1.34 
		},
		"coords": [
			{
				"x": 3.2099983843,
				"y": 2.3395415949,
				"z": -0.5952573489,
				"element": "C" 
			},
			{
				"x": 1.7094200774,
				"y": 2.2431490416,
				"z": -0.6104789603,
				"element": "C" 
			},
			{
				"x": 1.146975178,
				"y": 1.1022665131,
				"z": -0.2059811925,
				"element": "N" 
			},
			{
				"x": -0.1981678661,
				"y": 1.0323704369,
				"z": -0.2269807777,
				"element": "C" 
			},
			{
				"x": -0.9823446454,
				"y": 2.1060254638,
				"z": -0.6534081069,
				"element": "C" 
			},
			{
				"x": -0.2756633198,
				"y": 3.2380518321,
				"z": -1.0493398211,
				"element": "C" 
			},
			{
				"x": -1.168449302,
				"y": 4.6473653335,
				"z": -1.6044179862,
				"element": "Cl" 
			},
			{
				"x": 1.0401412235,
				"y": 3.3329137122,
				"z": -1.0387621207,
				"element": "N" 
			},
			{
				"x": -0.8263772862,
				"y": -0.2397287061,
				"z": 0.2239462962,
				"element": "C" 
			},
			{
				"x": -2.1697479603,
				"y": -0.2890116936,
				"z": 0.1949577457,
				"element": "N" 
			},
			{
				"x": -2.7633598109,
				"y": -1.4155712949,
				"z": 0.5929226543,
				"element": "C" 
			},
			{
				"x": -2.0636700342,
				"y": -2.541300314,
				"z": 1.0361396839,
				"element": "C" 
			},
			{
				"x": -0.6709945294,
				"y": -2.4839690454,
				"z": 1.063893336,
				"element": "C" 
			},
			{
				"x": -0.0363603784,
				"y": -1.3149042515,
				"z": 0.6515811571,
				"element": "C" 
			},
			{
				"x": 3.5280356666,
				"y": 3.1724431402,
				"z": 0.0397460591,
				"element": "H" 
			},
			{
				"x": 3.6460613904,
				"y": 1.4107822787,
				"z": -0.226597455,
				"element": "H" 
			},
			{
				"x": 3.5846346672,
				"y": 2.5456159977,
				"z": -1.6030153944,
				"element": "H" 
			},
			{
				"x": -2.0611069059,
				"y": 2.0423555363,
				"z": -0.6673450056,
				"element": "H" 
			},
			{
				"x": -3.851280572,
				"y": -1.4226501782,
				"z": 0.5572259582,
				"element": "H" 
			},
			{
				"x": -2.5998745615,
				"y": -3.4317375861,
				"z": 1.3483367087,
				"element": "H" 
			},
			{
				"x": -0.0875918536,
				"y": -3.3357940743,
				"z": 1.401183459,
				"element": "H" 
			},
			{
				"x": 1.0418224383,
				"y": -1.2113137369,
				"z": 0.6510511111,
				"element": "H" 
			}
		],
		 "valence_orbital": [ 
			{
				"type": "occ",
				"energy": -0.29727,
				"method": "rhf"
			},
			{
				"type": "occ",
				"energy": -0.27768,
				"method": "rhf"
			},
			{
				"type": "occ",
				"energy": -0.2708,
				"method": "rhf"
			},
			{
				"type": "occ",
				"energy": -0.26133,
				"method": "rhf"
			},
			{
				"type": "occ",
				"energy": -0.25757,
				"method": "rhf"
			},
			{
				"type": "unocc",
				"energy": -0.0723,
				"method": "rhf"
			},
			{
				"type": "unocc",
				"energy": -0.03901,
				"method": "rhf"
			},
			{
				"type": "unocc",
				"energy": -0.02277,
				"method": "rhf"
			},
			{
				"type": "unocc",
				"energy": 0.00911,
				"method": "rhf"
			},
			{
				"type": "unocc",
				"energy": 0.03353,
				"method": "rhf"
			}
		],
		"cosmo_sigma_profile": { 
			"-0.025": 0.0,
			"-0.024": 0.0,
			"-0.023": 0.0,
			"-0.022": 0.0,
			"-0.021": 0.0,
			"-0.02": 0.0,
			"-0.019": 0.0,
			"-0.018": 0.0,
			"-0.017": 0.0,
			"-0.016": 0.0,
			"-0.015": 0.0,
			"-0.014": 0.0,
			"-0.013": 0.0,
			"-0.012": 0.0,
			"-0.011": 0.0,
			"-0.01": 0.0,
			"-0.009": 0.0,
			"-0.008": 0.987357696682,
			"-0.007": 7.03689884684,
			"-0.006": 10.215658784,
			"-0.005": 14.8119656424,
			"-0.004": 12.7928835234,
			"-0.003": 16.1716797516,
			"-0.002": 23.8586511905,
			"-0.001": 26.2671251355,
			"0.0": 22.0694236092,
			"0.001": 24.0037653984,
			"0.002": 20.7535049368,
			"0.003": 14.1096471424,
			"0.004": 13.3636797968,
			"0.005": 6.03242905496,
			"0.006": 5.26447213268,
			"0.007": 3.88249953294,
			"0.008": 3.78085689891,
			"0.009": 3.23773430669,
			"0.01": 1.91598697477,
			"0.011": 1.65038856172,
			"0.012": 0.806194243749,
			"0.013": 0.566633940316,
			"0.014": 0.301787590659,
			"0.015": 0.0,
			"0.016": 0.0,
			"0.017": 0.0,
			"0.018": 0.0,
			"0.019": 0.0,
			"0.02": 0.0,
			"0.021": 0.0,
			"0.022": 0.0,
			"0.023": 0.0,
			"0.024": 0.0,
			"0.025": 0.0
		}
	}
}
