{
	 "smiles": "CNCC1=CN=C(N)C=C1", 
	 "Tm": 358.15, 
	 "num_atms": 21, 
	 "gaussian": { 
		 "optdone": 1, 
		 "sigma_profile": "yes", 
		 "theory": "DFT", 
		 "functional": "B3LYP", 
		 "basiset": "6-31G**", 
		 "properties": { 
			 "R2extent": 1954.7156, 
			 "electric_dipole_moment_norm": 2.63658667599, 
			 "electric_quadrupole_moment_norm": 9.12702458417, 
			 "total_energy": -437.625481258, 
			 "HOMO_LUMO_gap": 0.19165, 
			 "cosmo_polarized_energy": -11.67, 
			 "cosmo_cavitation_energy": 24.2, 
			 "cosmo_dispersion_energy": -17.67, 
			 "cosmo_repulsion_energy": 1.45, 
			 "cosmo_total_nonelectrostatic_energy": 7.99, 
			 "SMD_solvation_energy": 0.3 
		},
		"coords": [
			{
				"x": 0.09311743,
				"y": 1.4812351978,
				"z": -2.5489889106,
				"element": "C" 
			},
			{
				"x": 1.0745513237,
				"y": 0.4318142846,
				"z": -2.8058768524,
				"element": "N" 
			},
			{
				"x": 1.7567121416,
				"y": -0.067121947,
				"z": -1.6036421351,
				"element": "C" 
			},
			{
				"x": 0.8867438211,
				"y": -0.749167025,
				"z": -0.5627983748,
				"element": "C" 
			},
			{
				"x": 0.4505744941,
				"y": -0.0928429886,
				"z": 0.590022539,
				"element": "C" 
			},
			{
				"x": -0.3482521367,
				"y": -0.6249825269,
				"z": 1.523407525,
				"element": "N" 
			},
			{
				"x": -0.7559332957,
				"y": -1.8901254321,
				"z": 1.3505789031,
				"element": "C" 
			},
			{
				"x": -1.5333222389,
				"y": -2.4277519468,
				"z": 2.3616026866,
				"element": "N" 
			},
			{
				"x": -0.3759579095,
				"y": -2.6585878506,
				"z": 0.2292592072,
				"element": "C" 
			},
			{
				"x": 0.443246321,
				"y": -2.0729918705,
				"z": -0.7215794185,
				"element": "C" 
			},
			{
				"x": 0.6072620366,
				"y": 2.3656233238,
				"z": -2.1541702963,
				"element": "H" 
			},
			{
				"x": -0.7021552498,
				"y": 1.2124848908,
				"z": -1.8333985281,
				"element": "H" 
			},
			{
				"x": -0.3794316531,
				"y": 1.7697940052,
				"z": -3.4930046726,
				"element": "H" 
			},
			{
				"x": 0.6186245106,
				"y": -0.3472917654,
				"z": -3.2752551602,
				"element": "H" 
			},
			{
				"x": 2.5367038021,
				"y": -0.7618769224,
				"z": -1.9388595512,
				"element": "H" 
			},
			{
				"x": 2.2726981525,
				"y": 0.784780325,
				"z": -1.1430738115,
				"element": "H" 
			},
			{
				"x": 0.7683550552,
				"y": 0.9334231734,
				"z": 0.7771681109,
				"element": "H" 
			},
			{
				"x": -1.9237727095,
				"y": -1.7352158775,
				"z": 2.9854129599,
				"element": "H" 
			},
			{
				"x": -2.1643134901,
				"y": -3.1741830527,
				"z": 2.1109604009,
				"element": "H" 
			},
			{
				"x": -0.7097976005,
				"y": -3.6873155989,
				"z": 0.1283297826,
				"element": "H" 
			},
			{
				"x": 0.7528471951,
				"y": -2.648700396,
				"z": -1.5921944041,
				"element": "H" 
			}
		],
		 "valence_orbital": [ 
			{
				"type": "occ",
				"energy": -0.30903,
				"method": "rhf"
			},
			{
				"type": "occ",
				"energy": -0.27564,
				"method": "rhf"
			},
			{
				"type": "occ",
				"energy": -0.2533,
				"method": "rhf"
			},
			{
				"type": "occ",
				"energy": -0.21947,
				"method": "rhf"
			},
			{
				"type": "occ",
				"energy": -0.20578,
				"method": "rhf"
			},
			{
				"type": "unocc",
				"energy": -0.01413,
				"method": "rhf"
			},
			{
				"type": "unocc",
				"energy": 0.01035,
				"method": "rhf"
			},
			{
				"type": "unocc",
				"energy": 0.08672,
				"method": "rhf"
			},
			{
				"type": "unocc",
				"energy": 0.09134,
				"method": "rhf"
			},
			{
				"type": "unocc",
				"energy": 0.11472,
				"method": "rhf"
			}
		],
		"cosmo_sigma_profile": { 
			"-0.025": 0.0,
			"-0.024": 0.0,
			"-0.023": 0.0,
			"-0.022": 0.0,
			"-0.021": 0.0,
			"-0.02": 0.0,
			"-0.019": 0.0,
			"-0.018": 0.0,
			"-0.017": 0.0,
			"-0.016": 0.0,
			"-0.015": 0.0,
			"-0.014": 0.0040893345754,
			"-0.013": 0.916592210746,
			"-0.012": 2.15795447428,
			"-0.011": 2.2525592029,
			"-0.01": 2.94491271723,
			"-0.009": 3.6236841482,
			"-0.008": 3.9142406872,
			"-0.007": 5.29066745902,
			"-0.006": 7.72277109643,
			"-0.005": 8.4640529209,
			"-0.004": 14.2103158692,
			"-0.003": 15.7583901498,
			"-0.002": 13.9999167465,
			"-0.001": 14.0179262687,
			"0.0": 18.5496081318,
			"0.001": 11.0788908862,
			"0.002": 8.81882164279,
			"0.003": 9.52758568456,
			"0.004": 13.043305861,
			"0.005": 6.77122911498,
			"0.006": 3.22206937566,
			"0.007": 3.49882260219,
			"0.008": 2.49601499662,
			"0.009": 3.12236891608,
			"0.01": 2.42775876134,
			"0.011": 1.86451957956,
			"0.012": 2.96755522176,
			"0.013": 2.3237672927,
			"0.014": 1.1164115647,
			"0.015": 1.33634681551,
			"0.016": 1.07933515113,
			"0.017": 0.417933747388,
			"0.018": 1.02567510193,
			"0.019": 0.0428263653816,
			"0.02": 0.0,
			"0.021": 0.0,
			"0.022": 0.0,
			"0.023": 0.0,
			"0.024": 0.0,
			"0.025": 0.0
		}
	}
}
