{
	 "smiles": "CC(=O)OC1CCCCC1", 
	 "Tm": 208.15, 
	 "num_atms": 24, 
	 "gaussian": { 
		 "optdone": 1, 
		 "sigma_profile": "yes", 
		 "theory": "DFT", 
		 "functional": "B3LYP", 
		 "basiset": "6-31G**", 
		 "properties": { 
			 "R2extent": 1942.1013, 
			 "electric_dipole_moment_norm": 1.97572160488, 
			 "electric_quadrupole_moment_norm": 11.4981204003, 
			 "total_energy": -463.763570273, 
			 "HOMO_LUMO_gap": 0.28143, 
			 "cosmo_polarized_energy": -6.09, 
			 "cosmo_cavitation_energy": 25.13, 
			 "cosmo_dispersion_energy": -18.31, 
			 "cosmo_repulsion_energy": 1.51, 
			 "cosmo_total_nonelectrostatic_energy": 8.33, 
			 "SMD_solvation_energy": 4.73 
		},
		"coords": [
			{
				"x": -2.541823715,
				"y": -0.6129882967,
				"z": -1.7850372799,
				"element": "C" 
			},
			{
				"x": -1.0471734657,
				"y": -0.7152243561,
				"z": -1.9893385424,
				"element": "C" 
			},
			{
				"x": -0.5081431591,
				"y": -1.173407275,
				"z": -2.974564628,
				"element": "O" 
			},
			{
				"x": -0.3838015102,
				"y": -0.2299729775,
				"z": -0.9155978662,
				"element": "O" 
			},
			{
				"x": 1.0785799417,
				"y": -0.2719760237,
				"z": -0.9624104118,
				"element": "C" 
			},
			{
				"x": 1.6026106603,
				"y": 0.9544241678,
				"z": -1.7093160107,
				"element": "C" 
			},
			{
				"x": 1.1488772994,
				"y": 2.281430851,
				"z": -1.0551655247,
				"element": "C" 
			},
			{
				"x": 0.9632099063,
				"y": 2.1583173962,
				"z": 0.4765127762,
				"element": "C" 
			},
			{
				"x": 1.8978865815,
				"y": 1.0920192819,
				"z": 1.0634560755,
				"element": "C" 
			},
			{
				"x": 1.5723374103,
				"y": -0.307851951,
				"z": 0.4956769139,
				"element": "C" 
			},
			{
				"x": -3.0554354184,
				"y": -1.0166841622,
				"z": -2.6569934089,
				"element": "H" 
			},
			{
				"x": -2.8294840847,
				"y": 0.4316732525,
				"z": -1.6333557223,
				"element": "H" 
			},
			{
				"x": -2.8372604699,
				"y": -1.1650289138,
				"z": -0.8879372599,
				"element": "H" 
			},
			{
				"x": 1.351764406,
				"y": -1.1853811102,
				"z": -1.4956753778,
				"element": "H" 
			},
			{
				"x": 1.297634812,
				"y": 0.9064811485,
				"z": -2.7582906091,
				"element": "H" 
			},
			{
				"x": 2.6980699214,
				"y": 0.8854451934,
				"z": -1.700548475,
				"element": "H" 
			},
			{
				"x": 0.2109024656,
				"y": 2.6179716479,
				"z": -1.5089880196,
				"element": "H" 
			},
			{
				"x": 1.8926981552,
				"y": 3.0541654026,
				"z": -1.2819000558,
				"element": "H" 
			},
			{
				"x": 1.1342674828,
				"y": 3.1279559372,
				"z": 0.9571463075,
				"element": "H" 
			},
			{
				"x": -0.072419959,
				"y": 1.87510734,
				"z": 0.697469149,
				"element": "H" 
			},
			{
				"x": 1.8292385811,
				"y": 1.0732502043,
				"z": 2.1566451934,
				"element": "H" 
			},
			{
				"x": 2.9374635639,
				"y": 1.356500192,
				"z": 0.8278626731,
				"element": "H" 
			},
			{
				"x": 2.4605397454,
				"y": -0.947705969,
				"z": 0.5505863247,
				"element": "H" 
			},
			{
				"x": 0.7979608492,
				"y": -0.7952209801,
				"z": 1.0974637787,
				"element": "H" 
			}
		],
		 "valence_orbital": [ 
			{
				"type": "occ",
				"energy": -0.31505,
				"method": "rhf"
			},
			{
				"type": "occ",
				"energy": -0.31265,
				"method": "rhf"
			},
			{
				"type": "occ",
				"energy": -0.30035,
				"method": "rhf"
			},
			{
				"type": "occ",
				"energy": -0.28364,
				"method": "rhf"
			},
			{
				"type": "occ",
				"energy": -0.26376,
				"method": "rhf"
			},
			{
				"type": "unocc",
				"energy": 0.01767,
				"method": "rhf"
			},
			{
				"type": "unocc",
				"energy": 0.07758,
				"method": "rhf"
			},
			{
				"type": "unocc",
				"energy": 0.10202,
				"method": "rhf"
			},
			{
				"type": "unocc",
				"energy": 0.10957,
				"method": "rhf"
			},
			{
				"type": "unocc",
				"energy": 0.12983,
				"method": "rhf"
			}
		],
		"cosmo_sigma_profile": { 
			"-0.025": 0.0,
			"-0.024": 0.0,
			"-0.023": 0.0,
			"-0.022": 0.0,
			"-0.021": 0.0,
			"-0.02": 0.0,
			"-0.019": 0.0,
			"-0.018": 0.0,
			"-0.017": 0.0,
			"-0.016": 0.0,
			"-0.015": 0.0,
			"-0.014": 0.0,
			"-0.013": 0.0,
			"-0.012": 0.0,
			"-0.011": 0.0,
			"-0.01": 0.0,
			"-0.009": 0.0,
			"-0.008": 0.0,
			"-0.007": 0.259125394083,
			"-0.006": 3.9034843672,
			"-0.005": 5.50551392747,
			"-0.004": 10.2410986349,
			"-0.003": 22.9342237199,
			"-0.002": 32.7907989379,
			"-0.001": 33.3011631926,
			"0.0": 29.0556406777,
			"0.001": 20.482056667,
			"0.002": 5.82914698835,
			"0.003": 3.53568594871,
			"0.004": 3.87620534099,
			"0.005": 3.35730477869,
			"0.006": 3.07622689824,
			"0.007": 2.13583562307,
			"0.008": 2.0830684754,
			"0.009": 1.42467268402,
			"0.01": 1.69393993354,
			"0.011": 2.16380911562,
			"0.012": 4.19132439763,
			"0.013": 2.56917199708,
			"0.014": 0.14749041707,
			"0.015": 0.0,
			"0.016": 0.0,
			"0.017": 0.0,
			"0.018": 0.0,
			"0.019": 0.0,
			"0.02": 0.0,
			"0.021": 0.0,
			"0.022": 0.0,
			"0.023": 0.0,
			"0.024": 0.0,
			"0.025": 0.0
		}
	}
}
