{
	 "smiles": "FC1=CC=C(C=NN(C2=CC=CC=C2)P(=O)(N2CC2)N2CC2)C=C1", 
	 "Tm": 386.15, 
	 "num_atms": 42, 
	 "gaussian": { 
		 "optdone": 1, 
		 "sigma_profile": "yes", 
		 "theory": "DFT", 
		 "functional": "B3LYP", 
		 "basiset": "6-31G**", 
		 "properties": { 
			 "R2extent": 9866.2492, 
			 "electric_dipole_moment_norm": 2.93580360889, 
			 "electric_quadrupole_moment_norm": 16.5241773898, 
			 "total_energy": -1393.99603814, 
			 "HOMO_LUMO_gap": 0.1643, 
			 "cosmo_polarized_energy": -15.47, 
			 "cosmo_cavitation_energy": 48.32, 
			 "cosmo_dispersion_energy": -31.55, 
			 "cosmo_repulsion_energy": 2.38, 
			 "cosmo_total_nonelectrostatic_energy": 19.15, 
			 "SMD_solvation_energy": 6.6 
		},
		"coords": [
			{
				"x": 3.3507257125,
				"y": -4.9495475047,
				"z": 3.1888320773,
				"element": "F" 
			},
			{
				"x": 2.7283819388,
				"y": -3.8972809125,
				"z": 2.6165407446,
				"element": "C" 
			},
			{
				"x": 3.485428948,
				"y": -2.9555831114,
				"z": 1.9310191405,
				"element": "C" 
			},
			{
				"x": 2.8300047896,
				"y": -1.8731658217,
				"z": 1.3456714666,
				"element": "C" 
			},
			{
				"x": 1.4363060847,
				"y": -1.7294650245,
				"z": 1.4399207995,
				"element": "C" 
			},
			{
				"x": 0.7960869871,
				"y": -0.5727024613,
				"z": 0.7998529778,
				"element": "C" 
			},
			{
				"x": -0.4828661983,
				"y": -0.4544699448,
				"z": 0.83652022,
				"element": "N" 
			},
			{
				"x": -1.1592498053,
				"y": 0.6204461629,
				"z": 0.2833615978,
				"element": "N" 
			},
			{
				"x": -2.5858588645,
				"y": 0.4141184583,
				"z": 0.2586415251,
				"element": "C" 
			},
			{
				"x": -3.0863590638,
				"y": -0.8666843808,
				"z": -0.0094418743,
				"element": "C" 
			},
			{
				"x": -4.4613470848,
				"y": -1.0947187682,
				"z": -0.0027493721,
				"element": "C" 
			},
			{
				"x": -5.3503450559,
				"y": -0.0493126232,
				"z": 0.2539167409,
				"element": "C" 
			},
			{
				"x": -4.8485314798,
				"y": 1.2265043823,
				"z": 0.5143700286,
				"element": "C" 
			},
			{
				"x": -3.4737977416,
				"y": 1.4616944827,
				"z": 0.5291443248,
				"element": "C" 
			},
			{
				"x": -0.4620544282,
				"y": 1.9058790635,
				"z": -0.6238490719,
				"element": "P" 
			},
			{
				"x": -1.4595121654,
				"y": 2.9088662471,
				"z": -1.0984480559,
				"element": "O" 
			},
			{
				"x": 0.4502250014,
				"y": 1.1200424045,
				"z": -1.8215603014,
				"element": "N" 
			},
			{
				"x": -0.2295790797,
				"y": 0.7644630947,
				"z": -3.0800710999,
				"element": "C" 
			},
			{
				"x": 0.7805327687,
				"y": 1.8521364325,
				"z": -3.0593290301,
				"element": "C" 
			},
			{
				"x": 0.7642164486,
				"y": 2.4791617603,
				"z": 0.4001375201,
				"element": "N" 
			},
			{
				"x": 0.4248873871,
				"y": 3.523765372,
				"z": 1.3796363262,
				"element": "C" 
			},
			{
				"x": 1.2667985449,
				"y": 3.8511505864,
				"z": 0.2010831695,
				"element": "C" 
			},
			{
				"x": 0.7040506564,
				"y": -2.7026889305,
				"z": 2.1457745711,
				"element": "C" 
			},
			{
				"x": 1.3439612711,
				"y": -3.7870891907,
				"z": 2.7338811772,
				"element": "C" 
			},
			{
				"x": 4.5611203898,
				"y": -3.076795616,
				"z": 1.8636431607,
				"element": "H" 
			},
			{
				"x": 3.4074713741,
				"y": -1.1278831455,
				"z": 0.8050372592,
				"element": "H" 
			},
			{
				"x": 1.4572055245,
				"y": 0.1464059332,
				"z": 0.3200593301,
				"element": "H" 
			},
			{
				"x": -2.3908242565,
				"y": -1.6742832447,
				"z": -0.2049866842,
				"element": "H" 
			},
			{
				"x": -4.8370506382,
				"y": -2.0933973652,
				"z": -0.2073509498,
				"element": "H" 
			},
			{
				"x": -6.4216309641,
				"y": -0.2275705808,
				"z": 0.2533619189,
				"element": "H" 
			},
			{
				"x": -5.5284714039,
				"y": 2.0479119087,
				"z": 0.7215057436,
				"element": "H" 
			},
			{
				"x": -3.093089205,
				"y": 2.4540599289,
				"z": 0.7327452674,
				"element": "H" 
			},
			{
				"x": 0.0305134546,
				"y": -0.2171585858,
				"z": -3.4665511503,
				"element": "H" 
			},
			{
				"x": -1.2702002765,
				"y": 1.0585011051,
				"z": -3.1978478859,
				"element": "H" 
			},
			{
				"x": 0.4091825143,
				"y": 2.8689925203,
				"z": -3.164332471,
				"element": "H" 
			},
			{
				"x": 1.7858604969,
				"y": 1.6743780225,
				"z": -3.4318409308,
				"element": "H" 
			},
			{
				"x": 0.8778004283,
				"y": 3.3850655792,
				"z": 2.3574051007,
				"element": "H" 
			},
			{
				"x": -0.591697449,
				"y": 3.9109671112,
				"z": 1.3816229252,
				"element": "H" 
			},
			{
				"x": 0.8066068451,
				"y": 4.4546953309,
				"z": -0.5780279619,
				"element": "H" 
			},
			{
				"x": 2.3432122921,
				"y": 3.9562881635,
				"z": 0.3067941261,
				"element": "H" 
			},
			{
				"x": -0.3715122491,
				"y": -2.5889917156,
				"z": 2.2264029741,
				"element": "H" 
			},
			{
				"x": 0.7935975508,
				"y": -4.5443051233,
				"z": 3.2822046258,
				"element": "H" 
			}
		],
		 "valence_orbital": [ 
			{
				"type": "occ",
				"energy": -0.25812,
				"method": "rhf"
			},
			{
				"type": "occ",
				"energy": -0.25542,
				"method": "rhf"
			},
			{
				"type": "occ",
				"energy": -0.24158,
				"method": "rhf"
			},
			{
				"type": "occ",
				"energy": -0.24102,
				"method": "rhf"
			},
			{
				"type": "occ",
				"energy": -0.20026,
				"method": "rhf"
			},
			{
				"type": "unocc",
				"energy": -0.03596,
				"method": "rhf"
			},
			{
				"type": "unocc",
				"energy": -0.00678,
				"method": "rhf"
			},
			{
				"type": "unocc",
				"energy": 0.00606,
				"method": "rhf"
			},
			{
				"type": "unocc",
				"energy": 0.00797,
				"method": "rhf"
			},
			{
				"type": "unocc",
				"energy": 0.05388,
				"method": "rhf"
			}
		],
		"cosmo_sigma_profile": { 
			"-0.025": 0.0,
			"-0.024": 0.0,
			"-0.023": 0.0,
			"-0.022": 0.0,
			"-0.021": 0.0,
			"-0.02": 0.0,
			"-0.019": 0.0,
			"-0.018": 0.0,
			"-0.017": 0.0,
			"-0.016": 0.0,
			"-0.015": 0.0,
			"-0.014": 0.0,
			"-0.013": 0.0,
			"-0.012": 0.0,
			"-0.011": 0.0,
			"-0.01": 0.0,
			"-0.009": 0.0,
			"-0.008": 0.49870107841,
			"-0.007": 11.2914906958,
			"-0.006": 23.1999926994,
			"-0.005": 32.5627990578,
			"-0.004": 34.7299062855,
			"-0.003": 33.0734031503,
			"-0.002": 27.3316009698,
			"-0.001": 24.8362697234,
			"0.0": 26.0046052158,
			"0.001": 25.8035936035,
			"0.002": 25.205460719,
			"0.003": 32.1657615174,
			"0.004": 32.7126236932,
			"0.005": 19.1196001221,
			"0.006": 12.9214657277,
			"0.007": 5.77641727797,
			"0.008": 3.46759815505,
			"0.009": 3.81754384355,
			"0.01": 1.01503483194,
			"0.011": 1.3315176886,
			"0.012": 1.62891188812,
			"0.013": 1.18605846112,
			"0.014": 3.69182858319,
			"0.015": 1.2034802992,
			"0.016": 0.0,
			"0.017": 0.0,
			"0.018": 0.0,
			"0.019": 0.0,
			"0.02": 0.0,
			"0.021": 0.0,
			"0.022": 0.0,
			"0.023": 0.0,
			"0.024": 0.0,
			"0.025": 0.0
		}
	}
}
