{
	 "smiles": "FC(F)(F)C1=CN2C(C=C1)=NN=C2C1CCCNC1", 
	 "Tm": 500.15, 
	 "num_atms": 32, 
	 "gaussian": { 
		 "optdone": 1, 
		 "sigma_profile": "yes", 
		 "theory": "DFT", 
		 "functional": "B3LYP", 
		 "basiset": "6-31G**", 
		 "properties": { 
			 "R2extent": 5958.5074, 
			 "electric_dipole_moment_norm": 3.19299418728, 
			 "electric_quadrupole_moment_norm": 16.7576310596, 
			 "total_energy": -983.607193707, 
			 "HOMO_LUMO_gap": 0.15799, 
			 "cosmo_polarized_energy": -18.09, 
			 "cosmo_cavitation_energy": 35.55, 
			 "cosmo_dispersion_energy": -24.96, 
			 "cosmo_repulsion_energy": 1.85, 
			 "cosmo_total_nonelectrostatic_energy": 12.43, 
			 "SMD_solvation_energy": 1.94 
		},
		"coords": [
			{
				"x": -4.4411979401,
				"y": 1.762785338,
				"z": -0.7934124195,
				"element": "F" 
			},
			{
				"x": -3.401001006,
				"y": 1.1712992992,
				"z": -1.4200396717,
				"element": "C" 
			},
			{
				"x": -3.6408179309,
				"y": 1.2659832686,
				"z": -2.7461320754,
				"element": "F" 
			},
			{
				"x": -3.421535571,
				"y": -0.1402407114,
				"z": -1.0950438319,
				"element": "F" 
			},
			{
				"x": -2.1006111037,
				"y": 1.825395882,
				"z": -1.0533612861,
				"element": "C" 
			},
			{
				"x": -1.1099553808,
				"y": 1.093196521,
				"z": -0.4693719308,
				"element": "C" 
			},
			{
				"x": 0.0724669257,
				"y": 1.714458636,
				"z": -0.1429973236,
				"element": "N" 
			},
			{
				"x": 0.2898047569,
				"y": 3.0805167547,
				"z": -0.3934734179,
				"element": "C" 
			},
			{
				"x": -0.7450974923,
				"y": 3.8370695226,
				"z": -1.0042928035,
				"element": "C" 
			},
			{
				"x": -1.9207125692,
				"y": 3.2217359991,
				"z": -1.3286598243,
				"element": "C" 
			},
			{
				"x": 1.4985247418,
				"y": 3.4252746995,
				"z": 0.0153996494,
				"element": "N" 
			},
			{
				"x": 2.081635471,
				"y": 2.3037477598,
				"z": 0.5328193858,
				"element": "N" 
			},
			{
				"x": 1.2497625039,
				"y": 1.2809765712,
				"z": 0.4456699263,
				"element": "C" 
			},
			{
				"x": 1.5568198566,
				"y": -0.1013584827,
				"z": 0.9265615867,
				"element": "C" 
			},
			{
				"x": 1.5541323249,
				"y": -1.1895034392,
				"z": -0.1698598759,
				"element": "C" 
			},
			{
				"x": 2.1331449107,
				"y": -2.5047780252,
				"z": 0.3930819586,
				"element": "C" 
			},
			{
				"x": 1.6809662607,
				"y": -2.735559819,
				"z": 1.8639306458,
				"element": "C" 
			},
			{
				"x": 0.4662869897,
				"y": -2.0045786984,
				"z": 2.2296796986,
				"element": "N" 
			},
			{
				"x": 0.6452742459,
				"y": -0.5550842209,
				"z": 2.1239343011,
				"element": "C" 
			},
			{
				"x": -1.2038708513,
				"y": 0.0404772078,
				"z": -0.2486868449,
				"element": "H" 
			},
			{
				"x": -0.5660579029,
				"y": 4.8886608346,
				"z": -1.1938722703,
				"element": "H" 
			},
			{
				"x": -2.7276517122,
				"y": 3.775637864,
				"z": -1.7951416027,
				"element": "H" 
			},
			{
				"x": 2.5855175437,
				"y": -0.0167646803,
				"z": 1.2934663612,
				"element": "H" 
			},
			{
				"x": 0.5308814855,
				"y": -1.3629472638,
				"z": -0.5270778431,
				"element": "H" 
			},
			{
				"x": 2.1303670335,
				"y": -0.8568883339,
				"z": -1.0387495091,
				"element": "H" 
			},
			{
				"x": 3.2283505981,
				"y": -2.4763919119,
				"z": 0.3436545662,
				"element": "H" 
			},
			{
				"x": 1.8151177002,
				"y": -3.3395547,
				"z": -0.2420819698,
				"element": "H" 
			},
			{
				"x": 1.5219919957,
				"y": -3.8010927247,
				"z": 2.0576211731,
				"element": "H" 
			},
			{
				"x": 2.469833557,
				"y": -2.4112064547,
				"z": 2.5538050692,
				"element": "H" 
			},
			{
				"x": -0.3017432138,
				"y": -2.306216166,
				"z": 1.6359193472,
				"element": "H" 
			},
			{
				"x": 1.0893768328,
				"y": -0.180159749,
				"z": 3.0542677524,
				"element": "H" 
			},
			{
				"x": -0.3476030602,
				"y": -0.0982907771,
				"z": 2.0527430789,
				"element": "H" 
			}
		],
		 "valence_orbital": [ 
			{
				"type": "occ",
				"energy": -0.31462,
				"method": "rhf"
			},
			{
				"type": "occ",
				"energy": -0.28497,
				"method": "rhf"
			},
			{
				"type": "occ",
				"energy": -0.25806,
				"method": "rhf"
			},
			{
				"type": "occ",
				"energy": -0.24184,
				"method": "rhf"
			},
			{
				"type": "occ",
				"energy": -0.22191,
				"method": "rhf"
			},
			{
				"type": "unocc",
				"energy": -0.06392,
				"method": "rhf"
			},
			{
				"type": "unocc",
				"energy": -0.02816,
				"method": "rhf"
			},
			{
				"type": "unocc",
				"energy": 0.03508,
				"method": "rhf"
			},
			{
				"type": "unocc",
				"energy": 0.04254,
				"method": "rhf"
			},
			{
				"type": "unocc",
				"energy": 0.0838,
				"method": "rhf"
			}
		],
		"cosmo_sigma_profile": { 
			"-0.025": 0.0,
			"-0.024": 0.0,
			"-0.023": 0.0,
			"-0.022": 0.0,
			"-0.021": 0.0,
			"-0.02": 0.0,
			"-0.019": 0.0,
			"-0.018": 0.0,
			"-0.017": 0.0,
			"-0.016": 0.0,
			"-0.015": 0.0,
			"-0.014": 0.0,
			"-0.013": 0.0173677352825,
			"-0.012": 0.451720942122,
			"-0.011": 1.05501708821,
			"-0.01": 3.58749658725,
			"-0.009": 4.7143775481,
			"-0.008": 6.6342025372,
			"-0.007": 6.94759766211,
			"-0.006": 8.95851968773,
			"-0.005": 9.36183986733,
			"-0.004": 22.1954372166,
			"-0.003": 30.6087739009,
			"-0.002": 30.4391283466,
			"-0.001": 25.1859403098,
			"0.0": 25.7244096457,
			"0.001": 18.4817837479,
			"0.002": 27.1838430359,
			"0.003": 19.8574646749,
			"0.004": 3.08479954963,
			"0.005": 2.78612257995,
			"0.006": 2.07735373849,
			"0.007": 2.64029635159,
			"0.008": 2.53643015779,
			"0.009": 2.56519156282,
			"0.01": 2.65803343529,
			"0.011": 3.16686940964,
			"0.012": 3.00198057272,
			"0.013": 4.07604707232,
			"0.014": 3.70961418982,
			"0.015": 3.54855320652,
			"0.016": 2.46395451853,
			"0.017": 1.61472350647,
			"0.018": 0.332255508869,
			"0.019": 0.0116563048123,
			"0.02": 0.0,
			"0.021": 0.0,
			"0.022": 0.0,
			"0.023": 0.0,
			"0.024": 0.0,
			"0.025": 0.0
		}
	}
}
