{
	 "smiles": "BrCC1=CC=C(Br)C=C1", 
	 "Tm": 335.65, 
	 "num_atms": 15, 
	 "gaussian": { 
		 "optdone": 1, 
		 "sigma_profile": "yes", 
		 "theory": "DFT", 
		 "functional": "B3LYP", 
		 "basiset": "6-31G**", 
		 "properties": { 
			 "R2extent": 5703.6226, 
			 "electric_dipole_moment_norm": 1.85164064008, 
			 "electric_quadrupole_moment_norm": 10.0784421584, 
			 "total_energy": -5413.17496781, 
			 "HOMO_LUMO_gap": 0.19824, 
			 "cosmo_polarized_energy": -6.6, 
			 "cosmo_cavitation_energy": 23.78, 
			 "cosmo_dispersion_energy": -18.16, 
			 "cosmo_repulsion_energy": 1.5, 
			 "cosmo_total_nonelectrostatic_energy": 7.12, 
			 "SMD_solvation_energy": 1.66 
		},
		"coords": [
			{
				"x": 2.9033182451,
				"y": -2.0345516138,
				"z": 0.076928985,
				"element": "Br" 
			},
			{
				"x": 1.3526917242,
				"y": -1.1193723717,
				"z": -0.810810297,
				"element": "C" 
			},
			{
				"x": 0.090387598,
				"y": -1.2539117804,
				"z": -0.0244272063,
				"element": "C" 
			},
			{
				"x": -0.255758099,
				"y": -0.2982413466,
				"z": 0.9404589257,
				"element": "C" 
			},
			{
				"x": -1.4391831782,
				"y": -0.4081739188,
				"z": 1.6677515584,
				"element": "C" 
			},
			{
				"x": -2.2848233938,
				"y": -1.490371902,
				"z": 1.4266667252,
				"element": "C" 
			},
			{
				"x": -3.9118870697,
				"y": -1.6484377077,
				"z": 2.4141081106,
				"element": "Br" 
			},
			{
				"x": -1.9641569002,
				"y": -2.4573357404,
				"z": 0.4745364282,
				"element": "C" 
			},
			{
				"x": -0.7769529057,
				"y": -2.3326072865,
				"z": -0.2441605847,
				"element": "C" 
			},
			{
				"x": 1.2909260977,
				"y": -1.5898314193,
				"z": -1.7902994033,
				"element": "H" 
			},
			{
				"x": 1.6767888539,
				"y": -0.0854770162,
				"z": -0.9135277468,
				"element": "H" 
			},
			{
				"x": 0.4081356617,
				"y": 0.5411873671,
				"z": 1.1287591331,
				"element": "H" 
			},
			{
				"x": -1.7031362827,
				"y": 0.336006699,
				"z": 2.4102929857,
				"element": "H" 
			},
			{
				"x": -2.6326106707,
				"y": -3.2920554888,
				"z": 0.2977237078,
				"element": "H" 
			},
			{
				"x": -0.5212396805,
				"y": -3.0866264738,
				"z": -0.9837013215,
				"element": "H" 
			}
		],
		 "valence_orbital": [ 
			{
				"type": "occ",
				"energy": -0.29266,
				"method": "rhf"
			},
			{
				"type": "occ",
				"energy": -0.27711,
				"method": "rhf"
			},
			{
				"type": "occ",
				"energy": -0.27631,
				"method": "rhf"
			},
			{
				"type": "occ",
				"energy": -0.26982,
				"method": "rhf"
			},
			{
				"type": "occ",
				"energy": -0.24596,
				"method": "rhf"
			},
			{
				"type": "unocc",
				"energy": -0.04772,
				"method": "rhf"
			},
			{
				"type": "unocc",
				"energy": -0.02312,
				"method": "rhf"
			},
			{
				"type": "unocc",
				"energy": 0.00112,
				"method": "rhf"
			},
			{
				"type": "unocc",
				"energy": 0.01915,
				"method": "rhf"
			},
			{
				"type": "unocc",
				"energy": 0.09345,
				"method": "rhf"
			}
		],
		"cosmo_sigma_profile": { 
			"-0.025": 0.0,
			"-0.024": 0.0,
			"-0.023": 0.0,
			"-0.022": 0.0,
			"-0.021": 0.0,
			"-0.02": 0.0,
			"-0.019": 0.0,
			"-0.018": 0.0,
			"-0.017": 0.0,
			"-0.016": 0.0,
			"-0.015": 0.0,
			"-0.014": 0.0,
			"-0.013": 0.0,
			"-0.012": 0.0,
			"-0.011": 0.0,
			"-0.01": 0.0,
			"-0.009": 0.00476056929287,
			"-0.008": 4.97226015528,
			"-0.007": 12.9017791309,
			"-0.006": 12.1925602466,
			"-0.005": 10.5730569154,
			"-0.004": 10.6798137847,
			"-0.003": 9.55461424906,
			"-0.002": 9.30381510142,
			"-0.001": 11.8090433799,
			"0.0": 10.794618309,
			"0.001": 14.7308010435,
			"0.002": 20.5086681709,
			"0.003": 22.3649361143,
			"0.004": 19.7811319697,
			"0.005": 11.8424326468,
			"0.006": 11.0346494886,
			"0.007": 3.96369477166,
			"0.008": 0.0,
			"0.009": 0.0,
			"0.01": 0.0,
			"0.011": 0.0,
			"0.012": 0.0,
			"0.013": 0.0,
			"0.014": 0.0,
			"0.015": 0.0,
			"0.016": 0.0,
			"0.017": 0.0,
			"0.018": 0.0,
			"0.019": 0.0,
			"0.02": 0.0,
			"0.021": 0.0,
			"0.022": 0.0,
			"0.023": 0.0,
			"0.024": 0.0,
			"0.025": 0.0
		}
	}
}
