{
	 "smiles": "CN1CCC2=C(C1)C1=CC=CC=C1N2CC1=CC=CC=C1", 
	 "Tm": 368.15, 
	 "num_atms": 41, 
	 "gaussian": { 
		 "optdone": 1, 
		 "sigma_profile": "yes", 
		 "theory": "DFT", 
		 "functional": "B3LYP", 
		 "basiset": "6-31G**", 
		 "properties": { 
			 "R2extent": 6791.9828, 
			 "electric_dipole_moment_norm": 2.48673887853, 
			 "electric_quadrupole_moment_norm": 4.050869382, 
			 "total_energy": -845.580873479, 
			 "HOMO_LUMO_gap": 0.182, 
			 "cosmo_polarized_energy": -9.61, 
			 "cosmo_cavitation_energy": 41.76, 
			 "cosmo_dispersion_energy": -28.99, 
			 "cosmo_repulsion_energy": 2.21, 
			 "cosmo_total_nonelectrostatic_energy": 14.98, 
			 "SMD_solvation_energy": 3.17 
		},
		"coords": [
			{
				"x": 0.6422300975,
				"y": 0.8073569508,
				"z": 4.1299599144,
				"element": "C" 
			},
			{
				"x": 0.2277660684,
				"y": -0.4728068112,
				"z": 3.5644378052,
				"element": "N" 
			},
			{
				"x": 1.0933952358,
				"y": -0.9296333418,
				"z": 2.4766828523,
				"element": "C" 
			},
			{
				"x": 1.0571041659,
				"y": -0.0470081785,
				"z": 1.1989625944,
				"element": "C" 
			},
			{
				"x": -0.369069077,
				"y": 0.304943467,
				"z": 0.9162452909,
				"element": "C" 
			},
			{
				"x": -1.4050623248,
				"y": 0.1253483947,
				"z": 1.7978033024,
				"element": "C" 
			},
			{
				"x": -1.1869581813,
				"y": -0.490323637,
				"z": 3.1580023889,
				"element": "C" 
			},
			{
				"x": -2.5991668631,
				"y": 0.5937521591,
				"z": 1.1499614919,
				"element": "C" 
			},
			{
				"x": -3.9512865734,
				"y": 0.6739775812,
				"z": 1.5236900059,
				"element": "C" 
			},
			{
				"x": -4.8726005226,
				"y": 1.2032089833,
				"z": 0.6271417743,
				"element": "C" 
			},
			{
				"x": -4.4690288589,
				"y": 1.6535897395,
				"z": -0.6449278167,
				"element": "C" 
			},
			{
				"x": -3.1374668527,
				"y": 1.5867027922,
				"z": -1.0457326943,
				"element": "C" 
			},
			{
				"x": -2.2097047783,
				"y": 1.0603804794,
				"z": -0.1398872068,
				"element": "C" 
			},
			{
				"x": -0.8372594526,
				"y": 0.8844585805,
				"z": -0.2599389622,
				"element": "N" 
			},
			{
				"x": -0.0313468027,
				"y": 1.1995235529,
				"z": -1.4248536264,
				"element": "C" 
			},
			{
				"x": 0.2708651727,
				"y": 0.0221195173,
				"z": -2.3440906432,
				"element": "C" 
			},
			{
				"x": -0.6084984971,
				"y": -1.0600689771,
				"z": -2.4641167931,
				"element": "C" 
			},
			{
				"x": -0.3258352402,
				"y": -2.1050651268,
				"z": -3.3455805071,
				"element": "C" 
			},
			{
				"x": 0.8364339065,
				"y": -2.0809970283,
				"z": -4.118476933,
				"element": "C" 
			},
			{
				"x": 1.7192115072,
				"y": -1.0056050378,
				"z": -4.0026338396,
				"element": "C" 
			},
			{
				"x": 1.4379808772,
				"y": 0.0362201435,
				"z": -3.1180730262,
				"element": "C" 
			},
			{
				"x": 1.6937578942,
				"y": 0.7452890255,
				"z": 4.4306103631,
				"element": "H" 
			},
			{
				"x": 0.0512812883,
				"y": 1.0145777957,
				"z": 5.0282116457,
				"element": "H" 
			},
			{
				"x": 0.5304956399,
				"y": 1.6703832526,
				"z": 3.4504572524,
				"element": "H" 
			},
			{
				"x": 2.1208406589,
				"y": -0.9984825766,
				"z": 2.8507822536,
				"element": "H" 
			},
			{
				"x": 0.7772619863,
				"y": -1.9450800313,
				"z": 2.2080447207,
				"element": "H" 
			},
			{
				"x": 1.6620132045,
				"y": 0.8607604073,
				"z": 1.3429922585,
				"element": "H" 
			},
			{
				"x": 1.5133719935,
				"y": -0.5917775521,
				"z": 0.3627186733,
				"element": "H" 
			},
			{
				"x": -1.7723088778,
				"y": 0.0288459546,
				"z": 3.9262868327,
				"element": "H" 
			},
			{
				"x": -1.5320193522,
				"y": -1.5355707701,
				"z": 3.165050089,
				"element": "H" 
			},
			{
				"x": -4.2734311089,
				"y": 0.3248736617,
				"z": 2.5011435403,
				"element": "H" 
			},
			{
				"x": -5.9200761766,
				"y": 1.2685913317,
				"z": 0.9070803248,
				"element": "H" 
			},
			{
				"x": -5.2096451426,
				"y": 2.0579368967,
				"z": -1.3288256272,
				"element": "H" 
			},
			{
				"x": -2.8405781868,
				"y": 1.9271944114,
				"z": -2.0333939907,
				"element": "H" 
			},
			{
				"x": -0.5567713744,
				"y": 1.9828635402,
				"z": -1.9827998955,
				"element": "H" 
			},
			{
				"x": 0.9102260861,
				"y": 1.6486284589,
				"z": -1.0900843679,
				"element": "H" 
			},
			{
				"x": -1.5128457318,
				"y": -1.085300451,
				"z": -1.8639900566,
				"element": "H" 
			},
			{
				"x": -1.0160857995,
				"y": -2.9400116722,
				"z": -3.4270974475,
				"element": "H" 
			},
			{
				"x": 1.0551946928,
				"y": -2.8959144486,
				"z": -4.8024536959,
				"element": "H" 
			},
			{
				"x": 2.6303006861,
				"y": -0.9810514004,
				"z": -4.5938956496,
				"element": "H" 
			},
			{
				"x": 2.1333146137,
				"y": 0.8680699631,
				"z": -3.0267125952,
				"element": "H" 
			}
		],
		 "valence_orbital": [ 
			{
				"type": "occ",
				"energy": -0.25324,
				"method": "rhf"
			},
			{
				"type": "occ",
				"energy": -0.24834,
				"method": "rhf"
			},
			{
				"type": "occ",
				"energy": -0.20946,
				"method": "rhf"
			},
			{
				"type": "occ",
				"energy": -0.20344,
				"method": "rhf"
			},
			{
				"type": "occ",
				"energy": -0.18865,
				"method": "rhf"
			},
			{
				"type": "unocc",
				"energy": -0.00665,
				"method": "rhf"
			},
			{
				"type": "unocc",
				"energy": -0.00507,
				"method": "rhf"
			},
			{
				"type": "unocc",
				"energy": -0.00132,
				"method": "rhf"
			},
			{
				"type": "unocc",
				"energy": 0.03244,
				"method": "rhf"
			},
			{
				"type": "unocc",
				"energy": 0.06957,
				"method": "rhf"
			}
		],
		"cosmo_sigma_profile": { 
			"-0.025": 0.0,
			"-0.024": 0.0,
			"-0.023": 0.0,
			"-0.022": 0.0,
			"-0.021": 0.0,
			"-0.02": 0.0,
			"-0.019": 0.0,
			"-0.018": 0.0,
			"-0.017": 0.0,
			"-0.016": 0.0,
			"-0.015": 0.0,
			"-0.014": 0.0,
			"-0.013": 0.0,
			"-0.012": 0.0,
			"-0.011": 0.0,
			"-0.01": 0.0,
			"-0.009": 0.0,
			"-0.008": 0.305589335716,
			"-0.007": 2.52762674785,
			"-0.006": 10.0009106492,
			"-0.005": 17.6876055582,
			"-0.004": 32.3524670553,
			"-0.003": 42.8718379893,
			"-0.002": 38.5965676831,
			"-0.001": 32.8542167757,
			"0.0": 28.2056019498,
			"0.001": 18.407535068,
			"0.002": 16.870982578,
			"0.003": 18.1916071192,
			"0.004": 17.0982261509,
			"0.005": 17.522006948,
			"0.006": 17.9659630694,
			"0.007": 9.96935268558,
			"0.008": 4.13303297404,
			"0.009": 0.743791290798,
			"0.01": 0.492344216752,
			"0.011": 0.583715218939,
			"0.012": 0.468521834728,
			"0.013": 0.603231014641,
			"0.014": 0.624806073511,
			"0.015": 0.473631266457,
			"0.016": 0.529889504175,
			"0.017": 0.245930051125,
			"0.018": 0.00241330631207,
			"0.019": 0.0,
			"0.02": 0.0,
			"0.021": 0.0,
			"0.022": 0.0,
			"0.023": 0.0,
			"0.024": 0.0,
			"0.025": 0.0
		}
	}
}
