{
	 "smiles": "CCC=C=C", 
	 "Tm": 136.15, 
	 "num_atms": 13, 
	 "gaussian": { 
		 "optdone": 1, 
		 "sigma_profile": "yes", 
		 "theory": "DFT", 
		 "functional": "B3LYP", 
		 "basiset": "6-31G**", 
		 "properties": { 
			 "R2extent": 658.3727, 
			 "electric_dipole_moment_norm": 0.416172007708, 
			 "electric_quadrupole_moment_norm": 1.68709219665, 
			 "total_energy": -195.2971243, 
			 "HOMO_LUMO_gap": 0.26993, 
			 "cosmo_polarized_energy": -2.07, 
			 "cosmo_cavitation_energy": 16.7, 
			 "cosmo_dispersion_energy": -11.93, 
			 "cosmo_repulsion_energy": 1.09, 
			 "cosmo_total_nonelectrostatic_energy": 5.85, 
			 "SMD_solvation_energy": 3.97 
		},
		"coords": [
			{
				"x": -1.3102507986,
				"y": 0.4974312338,
				"z": -1.1712312954,
				"element": "C" 
			},
			{
				"x": 0.1621530993,
				"y": 0.0781268286,
				"z": -1.0397831141,
				"element": "C" 
			},
			{
				"x": 0.569030131,
				"y": -0.1688475063,
				"z": 0.3978059302,
				"element": "C" 
			},
			{
				"x": 1.0026280623,
				"y": -1.3097756831,
				"z": 0.8703378401,
				"element": "C" 
			},
			{
				"x": 1.4411330837,
				"y": -2.4508001769,
				"z": 1.3353801359,
				"element": "C" 
			},
			{
				"x": -1.566549954,
				"y": 0.7059765248,
				"z": -2.2152212287,
				"element": "H" 
			},
			{
				"x": -1.517693729,
				"y": 1.4022048907,
				"z": -0.5890500824,
				"element": "H" 
			},
			{
				"x": -1.9759776111,
				"y": -0.29158754,
				"z": -0.8075350396,
				"element": "H" 
			},
			{
				"x": 0.3515302084,
				"y": -0.823781113,
				"z": -1.6307942177,
				"element": "H" 
			},
			{
				"x": 0.7996555175,
				"y": 0.8696824105,
				"z": -1.4577685705,
				"element": "H" 
			},
			{
				"x": 0.472974227,
				"y": 0.6753013501,
				"z": 1.0837657905,
				"element": "H" 
			},
			{
				"x": 2.5018254151,
				"y": -2.6934505963,
				"z": 1.343228418,
				"element": "H" 
			},
			{
				"x": 0.7630423486,
				"y": -3.2022806229,
				"z": 1.7346654339,
				"element": "H" 
			}
		],
		 "valence_orbital": [ 
			{
				"type": "occ",
				"energy": -0.37837,
				"method": "rhf"
			},
			{
				"type": "occ",
				"energy": -0.35778,
				"method": "rhf"
			},
			{
				"type": "occ",
				"energy": -0.34179,
				"method": "rhf"
			},
			{
				"type": "occ",
				"energy": -0.25625,
				"method": "rhf"
			},
			{
				"type": "occ",
				"energy": -0.24586,
				"method": "rhf"
			},
			{
				"type": "unocc",
				"energy": 0.02407,
				"method": "rhf"
			},
			{
				"type": "unocc",
				"energy": 0.02764,
				"method": "rhf"
			},
			{
				"type": "unocc",
				"energy": 0.11526,
				"method": "rhf"
			},
			{
				"type": "unocc",
				"energy": 0.13661,
				"method": "rhf"
			},
			{
				"type": "unocc",
				"energy": 0.14319,
				"method": "rhf"
			}
		],
		"cosmo_sigma_profile": { 
			"-0.025": 0.0,
			"-0.024": 0.0,
			"-0.023": 0.0,
			"-0.022": 0.0,
			"-0.021": 0.0,
			"-0.02": 0.0,
			"-0.019": 0.0,
			"-0.018": 0.0,
			"-0.017": 0.0,
			"-0.016": 0.0,
			"-0.015": 0.0,
			"-0.014": 0.0,
			"-0.013": 0.0,
			"-0.012": 0.0,
			"-0.011": 0.0,
			"-0.01": 0.0,
			"-0.009": 0.0,
			"-0.008": 0.0,
			"-0.007": 0.232253635285,
			"-0.006": 3.45433087618,
			"-0.005": 4.97601207274,
			"-0.004": 5.22825403209,
			"-0.003": 15.1957921409,
			"-0.002": 15.2607131107,
			"-0.001": 17.398249921,
			"0.0": 17.8644550352,
			"0.001": 14.3344088588,
			"0.002": 8.36114486237,
			"0.003": 7.39543468437,
			"0.004": 8.75193344485,
			"0.005": 7.39328366752,
			"0.006": 4.99562641857,
			"0.007": 0.936030140393,
			"0.008": 0.0,
			"0.009": 0.0,
			"0.01": 0.0,
			"0.011": 0.0,
			"0.012": 0.0,
			"0.013": 0.0,
			"0.014": 0.0,
			"0.015": 0.0,
			"0.016": 0.0,
			"0.017": 0.0,
			"0.018": 0.0,
			"0.019": 0.0,
			"0.02": 0.0,
			"0.021": 0.0,
			"0.022": 0.0,
			"0.023": 0.0,
			"0.024": 0.0,
			"0.025": 0.0
		}
	}
}
