{
	 "smiles": "C1OC11C2CC3CC(C2)CC1C3", 
	 "Tm": 454.15, 
	 "num_atms": 28, 
	 "gaussian": { 
		 "optdone": 1, 
		 "sigma_profile": "yes", 
		 "theory": "DFT", 
		 "functional": "B3LYP", 
		 "basiset": "6-31G**", 
		 "properties": { 
			 "R2extent": 2195.6762, 
			 "electric_dipole_moment_norm": 1.90675916413, 
			 "electric_quadrupole_moment_norm": 8.76076506876, 
			 "total_energy": -504.025106656, 
			 "HOMO_LUMO_gap": 0.32148, 
			 "cosmo_polarized_energy": -4.72, 
			 "cosmo_cavitation_energy": 25.92, 
			 "cosmo_dispersion_energy": -19.71, 
			 "cosmo_repulsion_energy": 1.52, 
			 "cosmo_total_nonelectrostatic_energy": 7.73, 
			 "SMD_solvation_energy": 3.05 
		},
		"coords": [
			{
				"x": 2.8531077968,
				"y": -1.0959726783,
				"z": -1.9885053138,
				"element": "C" 
			},
			{
				"x": 1.9969093398,
				"y": -2.2468016759,
				"z": -2.086373329,
				"element": "O" 
			},
			{
				"x": 1.4407690373,
				"y": -1.0137924723,
				"z": -1.5928947561,
				"element": "C" 
			},
			{
				"x": 0.3987131756,
				"y": -0.3505451159,
				"z": -2.4873949482,
				"element": "C" 
			},
			{
				"x": 0.1972913524,
				"y": 1.1075940742,
				"z": -2.0169436888,
				"element": "C" 
			},
			{
				"x": -0.2632499273,
				"y": 1.1185273884,
				"z": -0.5435011695,
				"element": "C" 
			},
			{
				"x": -1.5892937621,
				"y": 0.3386414696,
				"z": -0.4130077591,
				"element": "C" 
			},
			{
				"x": -1.3861968427,
				"y": -1.1197693499,
				"z": -0.8767070838,
				"element": "C" 
			},
			{
				"x": -0.926733481,
				"y": -1.132111907,
				"z": -2.3508503885,
				"element": "C" 
			},
			{
				"x": -0.3068876576,
				"y": -1.7928983549,
				"z": -0.0013247096,
				"element": "C" 
			},
			{
				"x": 1.0216185297,
				"y": -1.0146118988,
				"z": -0.1265183942,
				"element": "C" 
			},
			{
				"x": 0.816964084,
				"y": 0.4469889626,
				"z": 0.3313859606,
				"element": "C" 
			},
			{
				"x": 3.1770560766,
				"y": -0.6733166758,
				"z": -2.9406405411,
				"element": "H" 
			},
			{
				"x": 3.6295881389,
				"y": -1.1558856133,
				"z": -1.224546118,
				"element": "H" 
			},
			{
				"x": 0.7470063646,
				"y": -0.3765457546,
				"z": -3.5265684954,
				"element": "H" 
			},
			{
				"x": -0.5495336908,
				"y": 1.6014501225,
				"z": -2.6518159984,
				"element": "H" 
			},
			{
				"x": 1.132370153,
				"y": 1.672588305,
				"z": -2.1244726517,
				"element": "H" 
			},
			{
				"x": -0.4097018502,
				"y": 2.154686326,
				"z": -0.2134027709,
				"element": "H" 
			},
			{
				"x": -2.3693881415,
				"y": 0.8211500945,
				"z": -1.016634284,
				"element": "H" 
			},
			{
				"x": -1.9353088263,
				"y": 0.358374159,
				"z": 0.6289188591,
				"element": "H" 
			},
			{
				"x": -2.3299896816,
				"y": -1.6715016771,
				"z": -0.7829003334,
				"element": "H" 
			},
			{
				"x": -0.7812719086,
				"y": -2.1625177493,
				"z": -2.6958486911,
				"element": "H" 
			},
			{
				"x": -1.6935159406,
				"y": -0.6789872017,
				"z": -2.9924573655,
				"element": "H" 
			},
			{
				"x": -0.1536294457,
				"y": -2.8315375528,
				"z": -0.3169564327,
				"element": "H" 
			},
			{
				"x": -0.6274193879,
				"y": -1.8152243343,
				"z": 1.0482951484,
				"element": "H" 
			},
			{
				"x": 1.8017703384,
				"y": -1.5008634428,
				"z": 0.470801176,
				"element": "H" 
			},
			{
				"x": 0.5163238675,
				"y": 0.4655243565,
				"z": 1.3868433938,
				"element": "H" 
			},
			{
				"x": 1.7611322891,
				"y": 1.0022581963,
				"z": 0.2580206846,
				"element": "H" 
			}
		],
		 "valence_orbital": [ 
			{
				"type": "occ",
				"energy": -0.30296,
				"method": "rhf"
			},
			{
				"type": "occ",
				"energy": -0.29062,
				"method": "rhf"
			},
			{
				"type": "occ",
				"energy": -0.28519,
				"method": "rhf"
			},
			{
				"type": "occ",
				"energy": -0.26951,
				"method": "rhf"
			},
			{
				"type": "occ",
				"energy": -0.25088,
				"method": "rhf"
			},
			{
				"type": "unocc",
				"energy": 0.0706,
				"method": "rhf"
			},
			{
				"type": "unocc",
				"energy": 0.10458,
				"method": "rhf"
			},
			{
				"type": "unocc",
				"energy": 0.10912,
				"method": "rhf"
			},
			{
				"type": "unocc",
				"energy": 0.11905,
				"method": "rhf"
			},
			{
				"type": "unocc",
				"energy": 0.11962,
				"method": "rhf"
			}
		],
		"cosmo_sigma_profile": { 
			"-0.025": 0.0,
			"-0.024": 0.0,
			"-0.023": 0.0,
			"-0.022": 0.0,
			"-0.021": 0.0,
			"-0.02": 0.0,
			"-0.019": 0.0,
			"-0.018": 0.0,
			"-0.017": 0.0,
			"-0.016": 0.0,
			"-0.015": 0.0,
			"-0.014": 0.0,
			"-0.013": 0.0,
			"-0.012": 0.0,
			"-0.011": 0.0,
			"-0.01": 0.0,
			"-0.009": 0.0,
			"-0.008": 0.0,
			"-0.007": 0.0,
			"-0.006": 0.99219928334,
			"-0.005": 4.35394417506,
			"-0.004": 5.64237186114,
			"-0.003": 12.6066042981,
			"-0.002": 40.0885536983,
			"-0.001": 43.7720501067,
			"0.0": 38.3637985483,
			"0.001": 25.335596249,
			"0.002": 5.93091408407,
			"0.003": 2.61875513286,
			"0.004": 2.05463169382,
			"0.005": 2.25239937929,
			"0.006": 1.24073410567,
			"0.007": 1.588996793,
			"0.008": 2.06561847091,
			"0.009": 1.42116545407,
			"0.01": 1.32892637413,
			"0.011": 1.77069456066,
			"0.012": 2.93843971011,
			"0.013": 2.26465199138,
			"0.014": 0.243266433077,
			"0.015": 0.0,
			"0.016": 0.0,
			"0.017": 0.0,
			"0.018": 0.0,
			"0.019": 0.0,
			"0.02": 0.0,
			"0.021": 0.0,
			"0.022": 0.0,
			"0.023": 0.0,
			"0.024": 0.0,
			"0.025": 0.0
		}
	}
}
