{
	 "smiles": "OC(=O)C1=C(I)C(Br)=CC=C1", 
	 "Tm": 413.15, 
	 "num_atms": 15, 
	 "gaussian": { 
		 "optdone": 1, 
		 "sigma_profile": "yes", 
		 "theory": "DFT", 
		 "functional": "B3LYP", 
		 "basiset": "6-31G**", 
		 "properties": { 
			 "R2extent": 2839.05, 
			 "electric_dipole_moment_norm": 3.62055450725, 
			 "electric_quadrupole_moment_norm": 19.0046102344, 
			 "total_energy": -3002.38539213, 
			 "HOMO_LUMO_gap": 0.19011, 
			 "cosmo_polarized_energy": -10.95, 
			 "cosmo_cavitation_energy": 24.69, 
			 "cosmo_dispersion_energy": -20.03, 
			 "cosmo_repulsion_energy": 1.55, 
			 "cosmo_total_nonelectrostatic_energy": 6.21, 
			 "SMD_solvation_energy": 3.6 
		},
		"coords": [
			{
				"x": -2.2188941129,
				"y": -2.5264846296,
				"z": 1.4028499538,
				"element": "O" 
			},
			{
				"x": -2.3830542034,
				"y": -1.1923151646,
				"z": 1.3217458633,
				"element": "C" 
			},
			{
				"x": -3.382365391,
				"y": -0.6782352632,
				"z": 1.7659452893,
				"element": "O" 
			},
			{
				"x": -1.2564877378,
				"y": -0.3412006286,
				"z": 0.7602308454,
				"element": "C" 
			},
			{
				"x": -0.3865070195,
				"y": -0.6407153884,
				"z": -0.3100510747,
				"element": "C" 
			},
			{
				"x": -0.5859364607,
				"y": -2.4311548556,
				"z": -1.4426369629,
				"element": "I" 
			},
			{
				"x": 0.5974460289,
				"y": 0.2926919912,
				"z": -0.6782917043,
				"element": "C" 
			},
			{
				"x": 1.8131217275,
				"y": 0.0089346315,
				"z": -2.1192100729,
				"element": "Br" 
			},
			{
				"x": 0.7264113484,
				"y": 1.5019615126,
				"z": 0.0084593825,
				"element": "C" 
			},
			{
				"x": -0.139103006,
				"y": 1.8026017283,
				"z": 1.054571543,
				"element": "C" 
			},
			{
				"x": -1.1250744612,
				"y": 0.8935425833,
				"z": 1.4149955164,
				"element": "C" 
			},
			{
				"x": -1.3979816283,
				"y": -2.81529831,
				"z": 0.9729094517,
				"element": "H" 
			},
			{
				"x": 1.4993099378,
				"y": 2.1994476302,
				"z": -0.2923281311,
				"element": "H" 
			},
			{
				"x": -0.0454053471,
				"y": 2.7470039423,
				"z": 1.5808176366,
				"element": "H" 
			},
			{
				"x": -1.8268796748,
				"y": 1.1144202206,
				"z": 2.2105924639,
				"element": "H" 
			}
		],
		 "valence_orbital": [ 
			{
				"type": "occ",
				"energy": -0.31685,
				"method": "rhf"
			},
			{
				"type": "occ",
				"energy": -0.28886,
				"method": "rhf"
			},
			{
				"type": "occ",
				"energy": -0.27926,
				"method": "rhf"
			},
			{
				"type": "occ",
				"energy": -0.26967,
				"method": "rhf"
			},
			{
				"type": "occ",
				"energy": -0.26251,
				"method": "rhf"
			},
			{
				"type": "unocc",
				"energy": -0.0724,
				"method": "rhf"
			},
			{
				"type": "unocc",
				"energy": -0.06486,
				"method": "rhf"
			},
			{
				"type": "unocc",
				"energy": -0.04339,
				"method": "rhf"
			},
			{
				"type": "unocc",
				"energy": -0.00288,
				"method": "rhf"
			},
			{
				"type": "unocc",
				"energy": 0.02617,
				"method": "rhf"
			}
		],
		"cosmo_sigma_profile": { 
			"-0.025": 0.0,
			"-0.024": 0.0,
			"-0.023": 0.0,
			"-0.022": 0.0,
			"-0.021": 0.0,
			"-0.02": 0.0,
			"-0.019": 0.0,
			"-0.018": 0.0,
			"-0.017": 0.0,
			"-0.016": 0.169890361566,
			"-0.015": 0.706264044678,
			"-0.014": 0.728040981177,
			"-0.013": 0.955184322575,
			"-0.012": 0.915739521237,
			"-0.011": 0.958479292389,
			"-0.01": 0.905140162507,
			"-0.009": 1.01964341783,
			"-0.008": 5.94871057276,
			"-0.007": 8.40144938297,
			"-0.006": 9.30240416387,
			"-0.005": 9.67323866028,
			"-0.004": 10.0207311766,
			"-0.003": 11.3026709105,
			"-0.002": 13.005974527,
			"-0.001": 16.5887710208,
			"0.0": 22.465983268,
			"0.001": 20.9955799009,
			"0.002": 17.7072995577,
			"0.003": 15.5149861793,
			"0.004": 11.032396,
			"0.005": 3.21529306624,
			"0.006": 2.53420736849,
			"0.007": 2.42987594594,
			"0.008": 2.49561174102,
			"0.009": 4.16704140977,
			"0.01": 5.00956161881,
			"0.011": 5.4787635082,
			"0.012": 2.77183760807,
			"0.013": 0.362612664805,
			"0.014": 0.0,
			"0.015": 0.0,
			"0.016": 0.0,
			"0.017": 0.0,
			"0.018": 0.0,
			"0.019": 0.0,
			"0.02": 0.0,
			"0.021": 0.0,
			"0.022": 0.0,
			"0.023": 0.0,
			"0.024": 0.0,
			"0.025": 0.0
		}
	}
}
