{
	 "smiles": "CC(Br)C(O)=O", 
	 "Tm": 298.15, 
	 "num_atms": 11, 
	 "gaussian": { 
		 "optdone": 1, 
		 "sigma_profile": "yes", 
		 "theory": "DFT", 
		 "functional": "B3LYP", 
		 "basiset": "6-31G**", 
		 "properties": { 
			 "R2extent": 1089.0051, 
			 "electric_dipole_moment_norm": 2.6769031529, 
			 "electric_quadrupole_moment_norm": 8.85677254309, 
			 "total_energy": -2839.19703058, 
			 "HOMO_LUMO_gap": 0.24839, 
			 "cosmo_polarized_energy": -9.28, 
			 "cosmo_cavitation_energy": 16.91, 
			 "cosmo_dispersion_energy": -13.09, 
			 "cosmo_repulsion_energy": 1.13, 
			 "cosmo_total_nonelectrostatic_energy": 4.96, 
			 "SMD_solvation_energy": 3.32 
		},
		"coords": [
			{
				"x": -1.9290814527,
				"y": 0.1209281566,
				"z": -0.4093045376,
				"element": "C" 
			},
			{
				"x": -0.4533249494,
				"y": -0.203349791,
				"z": -0.2189220423,
				"element": "C" 
			},
			{
				"x": -0.2449518949,
				"y": -1.8316343329,
				"z": 0.9353568735,
				"element": "Br" 
			},
			{
				"x": 0.3378712394,
				"y": 1.0095831416,
				"z": 0.3055618511,
				"element": "C" 
			},
			{
				"x": 1.1454676296,
				"y": 0.8617599463,
				"z": 1.3610304645,
				"element": "O" 
			},
			{
				"x": 0.2220214239,
				"y": 2.0625716703,
				"z": -0.2743957122,
				"element": "O" 
			},
			{
				"x": -2.0017269149,
				"y": 1.0085848767,
				"z": -1.0432656572,
				"element": "H" 
			},
			{
				"x": -2.4499009998,
				"y": -0.7097838009,
				"z": -0.8890037809,
				"element": "H" 
			},
			{
				"x": -2.4123123683,
				"y": 0.3348177435,
				"z": 0.5471901402,
				"element": "H" 
			},
			{
				"x": 0.0074208495,
				"y": -0.5056127159,
				"z": -1.1609412185,
				"element": "H" 
			},
			{
				"x": 1.0853174376,
				"y": -0.0526648942,
				"z": 1.6930936194,
				"element": "H" 
			}
		],
		 "valence_orbital": [ 
			{
				"type": "occ",
				"energy": -0.37215,
				"method": "rhf"
			},
			{
				"type": "occ",
				"energy": -0.32843,
				"method": "rhf"
			},
			{
				"type": "occ",
				"energy": -0.31975,
				"method": "rhf"
			},
			{
				"type": "occ",
				"energy": -0.30118,
				"method": "rhf"
			},
			{
				"type": "occ",
				"energy": -0.28013,
				"method": "rhf"
			},
			{
				"type": "unocc",
				"energy": -0.03174,
				"method": "rhf"
			},
			{
				"type": "unocc",
				"energy": -0.0056,
				"method": "rhf"
			},
			{
				"type": "unocc",
				"energy": 0.08186,
				"method": "rhf"
			},
			{
				"type": "unocc",
				"energy": 0.10957,
				"method": "rhf"
			},
			{
				"type": "unocc",
				"energy": 0.12431,
				"method": "rhf"
			}
		],
		"cosmo_sigma_profile": { 
			"-0.025": 0.0,
			"-0.024": 0.0,
			"-0.023": 0.0,
			"-0.022": 0.0,
			"-0.021": 0.0,
			"-0.02": 0.0,
			"-0.019": 0.0,
			"-0.018": 0.0,
			"-0.017": 0.0,
			"-0.016": 0.0,
			"-0.015": 0.0135400162725,
			"-0.014": 0.526089516133,
			"-0.013": 0.611928890881,
			"-0.012": 0.796650230434,
			"-0.011": 0.645117498535,
			"-0.01": 2.87160146645,
			"-0.009": 3.81352607223,
			"-0.008": 4.38118129911,
			"-0.007": 4.61081754072,
			"-0.006": 5.67726978784,
			"-0.005": 8.25566696599,
			"-0.004": 8.33216910191,
			"-0.003": 10.11059824,
			"-0.002": 10.804359006,
			"-0.001": 10.9295253625,
			"0.0": 6.62943920561,
			"0.001": 5.39831186534,
			"0.002": 6.94989386325,
			"0.003": 6.69205075369,
			"0.004": 8.86968002942,
			"0.005": 5.68222018925,
			"0.006": 1.95252229439,
			"0.007": 2.43797974479,
			"0.008": 3.33638376424,
			"0.009": 4.62331281435,
			"0.01": 3.69665503202,
			"0.011": 5.55947949728,
			"0.012": 2.46628279793,
			"0.013": 0.227122883417,
			"0.014": 0.0,
			"0.015": 0.0,
			"0.016": 0.0,
			"0.017": 0.0,
			"0.018": 0.0,
			"0.019": 0.0,
			"0.02": 0.0,
			"0.021": 0.0,
			"0.022": 0.0,
			"0.023": 0.0,
			"0.024": 0.0,
			"0.025": 0.0
		}
	}
}
