{
	 "smiles": "OC1=C2C(=NC(=S)C(C#N)=C2C2=CC=CC=C2)N(N1)C1=CC=CC=C1", 
	 "Tm": 415.15, 
	 "num_atms": 37, 
	 "gaussian": { 
		 "optdone": 1, 
		 "sigma_profile": "yes", 
		 "theory": "DFT", 
		 "functional": "B3LYP", 
		 "basiset": "6-31G**", 
		 "properties": { 
			 "R2extent": 10562.6911, 
			 "electric_dipole_moment_norm": 13.9299607742, 
			 "electric_quadrupole_moment_norm": 31.7432001419, 
			 "total_energy": -1423.59414987, 
			 "HOMO_LUMO_gap": 0.09652, 
			 "cosmo_polarized_energy": -49.21, 
			 "cosmo_cavitation_energy": 44.53, 
			 "cosmo_dispersion_energy": -31.2, 
			 "cosmo_repulsion_energy": 2.3, 
			 "cosmo_total_nonelectrostatic_energy": 15.63, 
			 "SMD_solvation_energy": 6.86 
		},
		"coords": [
			{
				"x": 2.1427521117,
				"y": -0.1245745528,
				"z": -0.1141795966,
				"element": "O" 
			},
			{
				"x": 0.8816592759,
				"y": 0.3134166447,
				"z": -0.0504515996,
				"element": "C" 
			},
			{
				"x": -0.2971242582,
				"y": -0.3857072048,
				"z": -0.1134800012,
				"element": "C" 
			},
			{
				"x": -1.3447243032,
				"y": 0.5755819113,
				"z": 0.138024091,
				"element": "C" 
			},
			{
				"x": -2.6251100507,
				"y": 0.3540192294,
				"z": 0.1868571981,
				"element": "N" 
			},
			{
				"x": -3.0503951099,
				"y": -0.9440776439,
				"z": 0.0051998662,
				"element": "C" 
			},
			{
				"x": -4.6729867687,
				"y": -1.3178835042,
				"z": 0.1091167327,
				"element": "S" 
			},
			{
				"x": -2.0427561279,
				"y": -1.9995047192,
				"z": -0.2812179891,
				"element": "C" 
			},
			{
				"x": -2.5243411935,
				"y": -3.3271690327,
				"z": -0.5330445473,
				"element": "C" 
			},
			{
				"x": -2.8534261963,
				"y": -4.421895116,
				"z": -0.749578101,
				"element": "N" 
			},
			{
				"x": -0.6851643366,
				"y": -1.751142042,
				"z": -0.3496958348,
				"element": "C" 
			},
			{
				"x": 0.3333083387,
				"y": -2.7899870235,
				"z": -0.6535635296,
				"element": "C" 
			},
			{
				"x": 0.4276499784,
				"y": -3.9550244789,
				"z": 0.1225225892,
				"element": "C" 
			},
			{
				"x": 1.3872169649,
				"y": -4.922269622,
				"z": -0.1720435776,
				"element": "C" 
			},
			{
				"x": 2.2562973671,
				"y": -4.7449497342,
				"z": -1.2496631858,
				"element": "C" 
			},
			{
				"x": 2.1655139204,
				"y": -3.5914866231,
				"z": -2.0314329556,
				"element": "C" 
			},
			{
				"x": 1.2160956562,
				"y": -2.6168074359,
				"z": -1.7315175659,
				"element": "C" 
			},
			{
				"x": -0.7519834355,
				"y": 1.8171235413,
				"z": 0.3125686531,
				"element": "N" 
			},
			{
				"x": 0.6365842158,
				"y": 1.6697586077,
				"z": 0.1288495921,
				"element": "N" 
			},
			{
				"x": -1.3123742124,
				"y": 3.1205389149,
				"z": 0.3324921477,
				"element": "C" 
			},
			{
				"x": -2.639040411,
				"y": 3.3054629711,
				"z": 0.7506438983,
				"element": "C" 
			},
			{
				"x": -3.1583802208,
				"y": 4.5976424439,
				"z": 0.7951045576,
				"element": "C" 
			},
			{
				"x": -2.3783921334,
				"y": 5.7021632657,
				"z": 0.4461063222,
				"element": "C" 
			},
			{
				"x": -1.0612793169,
				"y": 5.5055918302,
				"z": 0.0318957151,
				"element": "C" 
			},
			{
				"x": -0.5234634394,
				"y": 4.2206930348,
				"z": -0.0326639685,
				"element": "C" 
			},
			{
				"x": 2.7381931196,
				"y": 0.5919222084,
				"z": -0.380674781,
				"element": "H" 
			},
			{
				"x": -0.2500077536,
				"y": -4.1008765848,
				"z": 0.9568937424,
				"element": "H" 
			},
			{
				"x": 1.4502990117,
				"y": -5.8177225058,
				"z": 0.4387608564,
				"element": "H" 
			},
			{
				"x": 2.9978452968,
				"y": -5.5036015113,
				"z": -1.4822793726,
				"element": "H" 
			},
			{
				"x": 2.8309933316,
				"y": -3.4526840607,
				"z": -2.8785323026,
				"element": "H" 
			},
			{
				"x": 1.1414171704,
				"y": -1.7262879631,
				"z": -2.3484114722,
				"element": "H" 
			},
			{
				"x": 1.1664371459,
				"y": 2.1263314743,
				"z": 0.8715632309,
				"element": "H" 
			},
			{
				"x": -3.244965678,
				"y": 2.446326622,
				"z": 1.0060805989,
				"element": "H" 
			},
			{
				"x": -4.1875509227,
				"y": 4.7363100269,
				"z": 1.1120612716,
				"element": "H" 
			},
			{
				"x": -2.7944080952,
				"y": 6.7037202132,
				"z": 0.4910741883,
				"element": "H" 
			},
			{
				"x": -0.445320236,
				"y": 6.3523948204,
				"z": -0.255930047,
				"element": "H" 
			},
			{
				"x": 0.4888312952,
				"y": 4.0751535989,
				"z": -0.3927548236,
				"element": "H" 
			}
		],
		 "valence_orbital": [ 
			{
				"type": "occ",
				"energy": -0.26039,
				"method": "rhf"
			},
			{
				"type": "occ",
				"energy": -0.25746,
				"method": "rhf"
			},
			{
				"type": "occ",
				"energy": -0.23702,
				"method": "rhf"
			},
			{
				"type": "occ",
				"energy": -0.20577,
				"method": "rhf"
			},
			{
				"type": "occ",
				"energy": -0.18998,
				"method": "rhf"
			},
			{
				"type": "unocc",
				"energy": -0.09346,
				"method": "rhf"
			},
			{
				"type": "unocc",
				"energy": -0.04834,
				"method": "rhf"
			},
			{
				"type": "unocc",
				"energy": -0.02157,
				"method": "rhf"
			},
			{
				"type": "unocc",
				"energy": -0.01371,
				"method": "rhf"
			},
			{
				"type": "unocc",
				"energy": -0.01281,
				"method": "rhf"
			}
		],
		"cosmo_sigma_profile": { 
			"-0.025": 0.0,
			"-0.024": 0.0,
			"-0.023": 0.0118353421764,
			"-0.022": 1.08110570991,
			"-0.021": 2.07986579853,
			"-0.02": 2.21277910794,
			"-0.019": 2.75019673632,
			"-0.018": 2.32194998487,
			"-0.017": 1.71750860985,
			"-0.016": 1.62874384351,
			"-0.015": 2.26509303277,
			"-0.014": 1.86554668247,
			"-0.013": 1.3365117858,
			"-0.012": 1.5138996969,
			"-0.011": 0.999117777253,
			"-0.01": 2.09168091848,
			"-0.009": 1.67770617131,
			"-0.008": 2.13772660367,
			"-0.007": 7.5773092743,
			"-0.006": 22.758313523,
			"-0.005": 25.4002767919,
			"-0.004": 26.6001061889,
			"-0.003": 23.2368883907,
			"-0.002": 22.4790392915,
			"-0.001": 19.5512342692,
			"0.0": 16.0457476285,
			"0.001": 18.5491867758,
			"0.002": 18.0223541349,
			"0.003": 19.7412520445,
			"0.004": 26.4271874367,
			"0.005": 16.8584199802,
			"0.006": 8.82754246352,
			"0.007": 8.82057902,
			"0.008": 8.94260039455,
			"0.009": 10.7157320639,
			"0.01": 10.817526741,
			"0.011": 8.40245187787,
			"0.012": 6.96016446567,
			"0.013": 4.98406817813,
			"0.014": 2.34275383089,
			"0.015": 0.808251535622,
			"0.016": 0.0,
			"0.017": 0.0,
			"0.018": 0.0,
			"0.019": 0.0,
			"0.02": 0.0,
			"0.021": 0.0,
			"0.022": 0.0,
			"0.023": 0.0,
			"0.024": 0.0,
			"0.025": 0.0
		}
	}
}
