{
	 "smiles": "NNC1=NC2=C(C=CC=C2O)C=C1", 
	 "Tm": 430.15, 
	 "num_atms": 22, 
	 "gaussian": { 
		 "optdone": 1, 
		 "sigma_profile": "yes", 
		 "theory": "DFT", 
		 "functional": "B3LYP", 
		 "basiset": "6-31G**", 
		 "properties": { 
			 "R2extent": 2491.0215, 
			 "electric_dipole_moment_norm": 1.68583724303, 
			 "electric_quadrupole_moment_norm": 11.4275890589, 
			 "total_energy": -587.834976297, 
			 "HOMO_LUMO_gap": 0.15983, 
			 "cosmo_polarized_energy": -16.08, 
			 "cosmo_cavitation_energy": 26.03, 
			 "cosmo_dispersion_energy": -19.52, 
			 "cosmo_repulsion_energy": 1.54, 
			 "cosmo_total_nonelectrostatic_energy": 8.05, 
			 "SMD_solvation_energy": 4.11 
		},
		"coords": [
			{
				"x": 1.0374770517,
				"y": 1.5270631503,
				"z": -3.317628166,
				"element": "N" 
			},
			{
				"x": 1.4029900971,
				"y": 0.1834770429,
				"z": -3.0674752043,
				"element": "N" 
			},
			{
				"x": 1.1787488415,
				"y": -0.3770567047,
				"z": -1.8201351485,
				"element": "C" 
			},
			{
				"x": 0.405317926,
				"y": 0.2817831656,
				"z": -0.97869116,
				"element": "N" 
			},
			{
				"x": 0.1473216794,
				"y": -0.2781370355,
				"z": 0.236326178,
				"element": "C" 
			},
			{
				"x": 0.6828801242,
				"y": -1.5365707684,
				"z": 0.6449052897,
				"element": "C" 
			},
			{
				"x": 0.3822496038,
				"y": -2.0679882039,
				"z": 1.9234301578,
				"element": "C" 
			},
			{
				"x": -0.4326223272,
				"y": -1.3642413871,
				"z": 2.7829789631,
				"element": "C" 
			},
			{
				"x": -0.9693946726,
				"y": -0.1164073117,
				"z": 2.3977874811,
				"element": "C" 
			},
			{
				"x": -0.6928937576,
				"y": 0.4257749918,
				"z": 1.1545134861,
				"element": "C" 
			},
			{
				"x": -1.1874578372,
				"y": 1.6261061547,
				"z": 0.7408478117,
				"element": "O" 
			},
			{
				"x": 1.5209313695,
				"y": -2.2041370693,
				"z": -0.2960424706,
				"element": "C" 
			},
			{
				"x": 1.7739810031,
				"y": -1.6442806223,
				"z": -1.5159547449,
				"element": "C" 
			},
			{
				"x": 1.045414309,
				"y": 2.0135847059,
				"z": -2.4182013635,
				"element": "H" 
			},
			{
				"x": 0.056177286,
				"y": 1.5182918908,
				"z": -3.5936874139,
				"element": "H" 
			},
			{
				"x": 2.2740179945,
				"y": -0.0667113209,
				"z": -3.5152824386,
				"element": "H" 
			},
			{
				"x": 0.8005888522,
				"y": -3.0284871582,
				"z": 2.2113040379,
				"element": "H" 
			},
			{
				"x": -0.6701819878,
				"y": -1.7616582272,
				"z": 3.7650987672,
				"element": "H" 
			},
			{
				"x": -1.611082759,
				"y": 0.4292888909,
				"z": 3.0871047836,
				"element": "H" 
			},
			{
				"x": -1.7336681139,
				"y": 1.9912341111,
				"z": 1.4493975859,
				"element": "H" 
			},
			{
				"x": 1.953980022,
				"y": -3.1648873384,
				"z": -0.0290322174,
				"element": "H" 
			},
			{
				"x": 2.4023252952,
				"y": -2.1414409566,
				"z": -2.2495642142,
				"element": "H" 
			}
		],
		 "valence_orbital": [ 
			{
				"type": "occ",
				"energy": -0.28372,
				"method": "rhf"
			},
			{
				"type": "occ",
				"energy": -0.26376,
				"method": "rhf"
			},
			{
				"type": "occ",
				"energy": -0.25064,
				"method": "rhf"
			},
			{
				"type": "occ",
				"energy": -0.22019,
				"method": "rhf"
			},
			{
				"type": "occ",
				"energy": -0.19595,
				"method": "rhf"
			},
			{
				"type": "unocc",
				"energy": -0.03612,
				"method": "rhf"
			},
			{
				"type": "unocc",
				"energy": -0.00248,
				"method": "rhf"
			},
			{
				"type": "unocc",
				"energy": 0.03945,
				"method": "rhf"
			},
			{
				"type": "unocc",
				"energy": 0.07298,
				"method": "rhf"
			},
			{
				"type": "unocc",
				"energy": 0.09042,
				"method": "rhf"
			}
		],
		"cosmo_sigma_profile": { 
			"-0.025": 0.0,
			"-0.024": 0.0,
			"-0.023": 0.0,
			"-0.022": 0.0,
			"-0.021": 0.0,
			"-0.02": 0.0,
			"-0.019": 0.0,
			"-0.018": 0.0948259863601,
			"-0.017": 1.12438685906,
			"-0.016": 1.09711912908,
			"-0.015": 0.936233898658,
			"-0.014": 1.54746392097,
			"-0.013": 2.53047583591,
			"-0.012": 1.53826761444,
			"-0.011": 2.82807778335,
			"-0.01": 3.65506072957,
			"-0.009": 4.0160367238,
			"-0.008": 4.85078143453,
			"-0.007": 7.43386713532,
			"-0.006": 9.64073179498,
			"-0.005": 13.5293062081,
			"-0.004": 11.4973002579,
			"-0.003": 9.96552706125,
			"-0.002": 8.4772571531,
			"-0.001": 9.65346299043,
			"0.0": 8.24622149907,
			"0.001": 9.38158045317,
			"0.002": 13.6090316433,
			"0.003": 21.3900609342,
			"0.004": 15.4895278401,
			"0.005": 11.8264530267,
			"0.006": 7.66264597803,
			"0.007": 3.85769541086,
			"0.008": 2.50451019552,
			"0.009": 3.24371072545,
			"0.01": 3.29811293607,
			"0.011": 1.4284331787,
			"0.012": 1.79513506479,
			"0.013": 2.07523498803,
			"0.014": 2.39346402969,
			"0.015": 1.83938637488,
			"0.016": 1.57033853637,
			"0.017": 0.905451705654,
			"0.018": 0.188154422586,
			"0.019": 0.0,
			"0.02": 0.0,
			"0.021": 0.0,
			"0.022": 0.0,
			"0.023": 0.0,
			"0.024": 0.0,
			"0.025": 0.0
		}
	}
}
