{
	 "smiles": "ClC1=CC2=C(OCCC2=O)C(Cl)=C1", 
	 "Tm": 360.15, 
	 "num_atms": 19, 
	 "gaussian": { 
		 "optdone": 1, 
		 "sigma_profile": "yes", 
		 "theory": "DFT", 
		 "functional": "B3LYP", 
		 "basiset": "6-31G**", 
		 "properties": { 
			 "R2extent": 3894.0208, 
			 "electric_dipole_moment_norm": 2.60505135074, 
			 "electric_quadrupole_moment_norm": 9.31715342527, 
			 "total_energy": -1417.39944757, 
			 "HOMO_LUMO_gap": 0.16468, 
			 "cosmo_polarized_energy": -9.26, 
			 "cosmo_cavitation_energy": 26.7, 
			 "cosmo_dispersion_energy": -20.2, 
			 "cosmo_repulsion_energy": 1.61, 
			 "cosmo_total_nonelectrostatic_energy": 8.1, 
			 "SMD_solvation_energy": 4.59 
		},
		"coords": [
			{
				"x": -1.270189057,
				"y": 2.1363170752,
				"z": 3.8073487838,
				"element": "Cl" 
			},
			{
				"x": -0.4666237215,
				"y": 1.7421960198,
				"z": 2.2978713159,
				"element": "C" 
			},
			{
				"x": -0.8577025314,
				"y": 0.631700972,
				"z": 1.5694938477,
				"element": "C" 
			},
			{
				"x": -0.2048780345,
				"y": 0.3283027954,
				"z": 0.3655955332,
				"element": "C" 
			},
			{
				"x": 0.8323006383,
				"y": 1.15413125,
				"z": -0.1142292707,
				"element": "C" 
			},
			{
				"x": 1.4854996814,
				"y": 0.919406422,
				"z": -1.2750694889,
				"element": "O" 
			},
			{
				"x": 0.7981983165,
				"y": 0.0774569491,
				"z": -2.2177591991,
				"element": "C" 
			},
			{
				"x": 0.3209366185,
				"y": -1.2162868277,
				"z": -1.5707570624,
				"element": "C" 
			},
			{
				"x": -0.5620029676,
				"y": -0.9162770881,
				"z": -0.3678222113,
				"element": "C" 
			},
			{
				"x": -1.4613164693,
				"y": -1.6570038905,
				"z": -0.0087825238,
				"element": "O" 
			},
			{
				"x": 1.2184619042,
				"y": 2.2687596558,
				"z": 0.654160565,
				"element": "C" 
			},
			{
				"x": 2.5087178765,
				"y": 3.3011112762,
				"z": 0.0888462494,
				"element": "Cl" 
			},
			{
				"x": 0.5765419993,
				"y": 2.5628972639,
				"z": 1.8511389891,
				"element": "C" 
			},
			{
				"x": -1.6488219743,
				"y": -0.0278912018,
				"z": 1.9069845319,
				"element": "H" 
			},
			{
				"x": -0.0511692926,
				"y": 0.640907632,
				"z": -2.6282063544,
				"element": "H" 
			},
			{
				"x": 1.5167390162,
				"y": -0.1022433561,
				"z": -3.0189256101,
				"element": "H" 
			},
			{
				"x": 1.1841573784,
				"y": -1.7979964155,
				"z": -1.219682581,
				"element": "H" 
			},
			{
				"x": -0.2324964936,
				"y": -1.8378138139,
				"z": -2.2797199378,
				"element": "H" 
			},
			{
				"x": 0.8812471123,
				"y": 3.4288252824,
				"z": 2.4265144235,
				"element": "H" 
			}
		],
		 "valence_orbital": [ 
			{
				"type": "occ",
				"energy": -0.31967,
				"method": "rhf"
			},
			{
				"type": "occ",
				"energy": -0.31585,
				"method": "rhf"
			},
			{
				"type": "occ",
				"energy": -0.27184,
				"method": "rhf"
			},
			{
				"type": "occ",
				"energy": -0.26426,
				"method": "rhf"
			},
			{
				"type": "occ",
				"energy": -0.24109,
				"method": "rhf"
			},
			{
				"type": "unocc",
				"energy": -0.07641,
				"method": "rhf"
			},
			{
				"type": "unocc",
				"energy": -0.0242,
				"method": "rhf"
			},
			{
				"type": "unocc",
				"energy": 0.00252,
				"method": "rhf"
			},
			{
				"type": "unocc",
				"energy": 0.01797,
				"method": "rhf"
			},
			{
				"type": "unocc",
				"energy": 0.04346,
				"method": "rhf"
			}
		],
		"cosmo_sigma_profile": { 
			"-0.025": 0.0,
			"-0.024": 0.0,
			"-0.023": 0.0,
			"-0.022": 0.0,
			"-0.021": 0.0,
			"-0.02": 0.0,
			"-0.019": 0.0,
			"-0.018": 0.0,
			"-0.017": 0.0,
			"-0.016": 0.0,
			"-0.015": 0.0,
			"-0.014": 0.0,
			"-0.013": 0.0,
			"-0.012": 0.0,
			"-0.011": 0.0,
			"-0.01": 0.03444355734,
			"-0.009": 1.06197842727,
			"-0.008": 3.16201210192,
			"-0.007": 14.0654663143,
			"-0.006": 15.3285793775,
			"-0.005": 12.8398437065,
			"-0.004": 10.7149296468,
			"-0.003": 10.7628485463,
			"-0.002": 12.4072679902,
			"-0.001": 18.1234244602,
			"0.0": 23.8238484794,
			"0.001": 19.2110870875,
			"0.002": 13.0801280812,
			"0.003": 15.0168755864,
			"0.004": 19.8353759003,
			"0.005": 5.32914432858,
			"0.006": 4.6709615303,
			"0.007": 2.58264038834,
			"0.008": 3.64800200237,
			"0.009": 3.22613338622,
			"0.01": 2.78274990344,
			"0.011": 4.05967419604,
			"0.012": 2.44206802111,
			"0.013": 0.398738656545,
			"0.014": 0.0,
			"0.015": 0.0,
			"0.016": 0.0,
			"0.017": 0.0,
			"0.018": 0.0,
			"0.019": 0.0,
			"0.02": 0.0,
			"0.021": 0.0,
			"0.022": 0.0,
			"0.023": 0.0,
			"0.024": 0.0,
			"0.025": 0.0
		}
	}
}
