{
	 "smiles": "O=C1C2CC(CN3CCCCC23)C2CCCCN12", 
	 "Tm": 384.15, 
	 "num_atms": 42, 
	 "gaussian": { 
		 "optdone": 1, 
		 "sigma_profile": "yes", 
		 "theory": "DFT", 
		 "functional": "B3LYP", 
		 "basiset": "6-31G**", 
		 "properties": { 
			 "R2extent": 4854.4915, 
			 "electric_dipole_moment_norm": 3.62289626266, 
			 "electric_quadrupole_moment_norm": 11.3504327666, 
			 "total_energy": -770.813766277, 
			 "HOMO_LUMO_gap": 0.23755, 
			 "cosmo_polarized_energy": -10.84, 
			 "cosmo_cavitation_energy": 37.26, 
			 "cosmo_dispersion_energy": -27.36, 
			 "cosmo_repulsion_energy": 2.09, 
			 "cosmo_total_nonelectrostatic_energy": 11.98, 
			 "SMD_solvation_energy": 2.6 
		},
		"coords": [
			{
				"x": -1.866747823,
				"y": 2.0491856005,
				"z": -1.1556505203,
				"element": "O" 
			},
			{
				"x": -1.2692410824,
				"y": 0.974520123,
				"z": -1.1413214847,
				"element": "C" 
			},
			{
				"x": -2.0079311545,
				"y": -0.3125997679,
				"z": -0.7680768438,
				"element": "C" 
			},
			{
				"x": -1.345687295,
				"y": -1.5330459783,
				"z": -1.4085794568,
				"element": "C" 
			},
			{
				"x": 0.0791285544,
				"y": -1.5882201937,
				"z": -0.8515431533,
				"element": "C" 
			},
			{
				"x": -0.0003308523,
				"y": -1.7537381624,
				"z": 0.6725364887,
				"element": "C" 
			},
			{
				"x": -0.7401160973,
				"y": -0.684003282,
				"z": 1.3367164386,
				"element": "N" 
			},
			{
				"x": -0.7530048304,
				"y": -0.9055731631,
				"z": 2.7982824761,
				"element": "C" 
			},
			{
				"x": -2.0549953047,
				"y": -0.4356927568,
				"z": 3.4503554864,
				"element": "C" 
			},
			{
				"x": -3.2669786492,
				"y": -1.1914352986,
				"z": 2.8644480407,
				"element": "C" 
			},
			{
				"x": -3.15360053,
				"y": -1.3618345575,
				"z": 1.3217649377,
				"element": "C" 
			},
			{
				"x": -2.0794314561,
				"y": -0.4029352532,
				"z": 0.7741994444,
				"element": "C" 
			},
			{
				"x": 0.8868927048,
				"y": -0.3468777794,
				"z": -1.2954363334,
				"element": "C" 
			},
			{
				"x": 1.6672223739,
				"y": -0.604014655,
				"z": -2.6015145564,
				"element": "C" 
			},
			{
				"x": 2.466982327,
				"y": 0.628528911,
				"z": -3.047392525,
				"element": "C" 
			},
			{
				"x": 1.5671116526,
				"y": 1.8685270258,
				"z": -3.1319379417,
				"element": "C" 
			},
			{
				"x": 0.8025436103,
				"y": 2.0717363096,
				"z": -1.8205100138,
				"element": "C" 
			},
			{
				"x": 0.0596887549,
				"y": 0.8614468476,
				"z": -1.4621476887,
				"element": "N" 
			},
			{
				"x": -3.0282865029,
				"y": -0.1689353239,
				"z": -1.1355906751,
				"element": "H" 
			},
			{
				"x": -1.3469980306,
				"y": -1.4402193227,
				"z": -2.5006234295,
				"element": "H" 
			},
			{
				"x": -1.8875166429,
				"y": -2.4540322405,
				"z": -1.1640692601,
				"element": "H" 
			},
			{
				"x": 0.6035233843,
				"y": -2.4700613143,
				"z": -1.2393483606,
				"element": "H" 
			},
			{
				"x": 1.0130444438,
				"y": -1.7672984931,
				"z": 1.095791235,
				"element": "H" 
			},
			{
				"x": -0.431616984,
				"y": -2.7554728171,
				"z": 0.8829669017,
				"element": "H" 
			},
			{
				"x": 0.1145316163,
				"y": -0.4056592678,
				"z": 3.2510318103,
				"element": "H" 
			},
			{
				"x": -0.641509487,
				"y": -1.9834982704,
				"z": 3.0194130284,
				"element": "H" 
			},
			{
				"x": -2.1700156268,
				"y": 0.6448788879,
				"z": 3.3096889136,
				"element": "H" 
			},
			{
				"x": -1.9933011326,
				"y": -0.5986673295,
				"z": 4.5319107577,
				"element": "H" 
			},
			{
				"x": -3.3421960905,
				"y": -2.1761959429,
				"z": 3.3404306679,
				"element": "H" 
			},
			{
				"x": -4.1866432554,
				"y": -0.6544893521,
				"z": 3.1213748745,
				"element": "H" 
			},
			{
				"x": -2.8917510368,
				"y": -2.3971364056,
				"z": 1.0728982755,
				"element": "H" 
			},
			{
				"x": -4.1168546079,
				"y": -1.1615973434,
				"z": 0.8388499436,
				"element": "H" 
			},
			{
				"x": -2.3569413617,
				"y": 0.6072124683,
				"z": 1.097351294,
				"element": "H" 
			},
			{
				"x": 1.6249513622,
				"y": -0.1218492834,
				"z": -0.5076887633,
				"element": "H" 
			},
			{
				"x": 0.9559912648,
				"y": -0.8917333903,
				"z": -3.3875073307,
				"element": "H" 
			},
			{
				"x": 2.3409921368,
				"y": -1.4558878677,
				"z": -2.4481380016,
				"element": "H" 
			},
			{
				"x": 3.2705186322,
				"y": 0.8154858735,
				"z": -2.3205512225,
				"element": "H" 
			},
			{
				"x": 2.9555660479,
				"y": 0.4358942814,
				"z": -4.0094961949,
				"element": "H" 
			},
			{
				"x": 2.1609840715,
				"y": 2.7634029527,
				"z": -3.352570117,
				"element": "H" 
			},
			{
				"x": 0.8445729388,
				"y": 1.750155986,
				"z": -3.9494888386,
				"element": "H" 
			},
			{
				"x": 1.5089353993,
				"y": 2.3110412888,
				"z": -1.0100019815,
				"element": "H" 
			},
			{
				"x": 0.0787145581,
				"y": 2.8837882567,
				"z": -1.8859263214,
				"element": "H" 
			}
		],
		 "valence_orbital": [ 
			{
				"type": "occ",
				"energy": -0.30202,
				"method": "rhf"
			},
			{
				"type": "occ",
				"energy": -0.29607,
				"method": "rhf"
			},
			{
				"type": "occ",
				"energy": -0.23035,
				"method": "rhf"
			},
			{
				"type": "occ",
				"energy": -0.22378,
				"method": "rhf"
			},
			{
				"type": "occ",
				"energy": -0.2,
				"method": "rhf"
			},
			{
				"type": "unocc",
				"energy": 0.03755,
				"method": "rhf"
			},
			{
				"type": "unocc",
				"energy": 0.06844,
				"method": "rhf"
			},
			{
				"type": "unocc",
				"energy": 0.09162,
				"method": "rhf"
			},
			{
				"type": "unocc",
				"energy": 0.1021,
				"method": "rhf"
			},
			{
				"type": "unocc",
				"energy": 0.10455,
				"method": "rhf"
			}
		],
		"cosmo_sigma_profile": { 
			"-0.025": 0.0,
			"-0.024": 0.0,
			"-0.023": 0.0,
			"-0.022": 0.0,
			"-0.021": 0.0,
			"-0.02": 0.0,
			"-0.019": 0.0,
			"-0.018": 0.0,
			"-0.017": 0.0,
			"-0.016": 0.0,
			"-0.015": 0.0,
			"-0.014": 0.0,
			"-0.013": 0.0,
			"-0.012": 0.0,
			"-0.011": 0.0,
			"-0.01": 0.0,
			"-0.009": 0.0,
			"-0.008": 0.0,
			"-0.007": 0.0,
			"-0.006": 0.0,
			"-0.005": 0.0692479877431,
			"-0.004": 9.51881574984,
			"-0.003": 48.726994506,
			"-0.002": 59.2148127387,
			"-0.001": 64.5437051955,
			"0.0": 41.3130601588,
			"0.001": 20.2287756098,
			"0.002": 5.71984301616,
			"0.003": 2.96980896976,
			"0.004": 3.29198988296,
			"0.005": 2.33912007988,
			"0.006": 3.40038732799,
			"0.007": 2.25665687255,
			"0.008": 1.98707541228,
			"0.009": 2.54804544972,
			"0.01": 1.97634882127,
			"0.011": 2.0822057403,
			"0.012": 1.80008044251,
			"0.013": 2.56185632504,
			"0.014": 4.30494034329,
			"0.015": 3.92443634502,
			"0.016": 0.713233971811,
			"0.017": 0.0,
			"0.018": 0.0,
			"0.019": 0.0,
			"0.02": 0.0,
			"0.021": 0.0,
			"0.022": 0.0,
			"0.023": 0.0,
			"0.024": 0.0,
			"0.025": 0.0
		}
	}
}
