{
	 "smiles": "CC(=O)C1=C(C)N(N=C1)C1=CC=C(C=C1)C#N", 
	 "Tm": 426.15, 
	 "num_atms": 28, 
	 "gaussian": { 
		 "optdone": 1, 
		 "sigma_profile": "yes", 
		 "theory": "DFT", 
		 "functional": "B3LYP", 
		 "basiset": "6-31G**", 
		 "properties": { 
			 "R2extent": 5537.4559, 
			 "electric_dipole_moment_norm": 3.22475775834, 
			 "electric_quadrupole_moment_norm": 28.7330013975, 
			 "total_energy": -741.465573794, 
			 "HOMO_LUMO_gap": 0.18035, 
			 "cosmo_polarized_energy": -15.89, 
			 "cosmo_cavitation_energy": 33.64, 
			 "cosmo_dispersion_energy": -23.57, 
			 "cosmo_repulsion_energy": 1.8, 
			 "cosmo_total_nonelectrostatic_energy": 11.87, 
			 "SMD_solvation_energy": 7.21 
		},
		"coords": [
			{
				"x": 0.4379041332,
				"y": -0.3701778966,
				"z": -5.3100682912,
				"element": "C" 
			},
			{
				"x": 0.8587559101,
				"y": -0.9954219675,
				"z": -3.9897937345,
				"element": "C" 
			},
			{
				"x": 1.5759257944,
				"y": -1.9897286493,
				"z": -3.9681947602,
				"element": "O" 
			},
			{
				"x": 0.3713819575,
				"y": -0.3521188965,
				"z": -2.7569329657,
				"element": "C" 
			},
			{
				"x": 0.6453755107,
				"y": -0.7378309506,
				"z": -1.4414677879,
				"element": "C" 
			},
			{
				"x": 1.5119808913,
				"y": -1.8493101378,
				"z": -0.9433978415,
				"element": "C" 
			},
			{
				"x": -0.0066202859,
				"y": 0.1670670657,
				"z": -0.6457611249,
				"element": "N" 
			},
			{
				"x": -0.669677709,
				"y": 1.12590181,
				"z": -1.3715319408,
				"element": "N" 
			},
			{
				"x": -0.4452229296,
				"y": 0.8051885033,
				"z": -2.6309926009,
				"element": "C" 
			},
			{
				"x": -0.0424842402,
				"y": 0.2706839862,
				"z": 0.7702072543,
				"element": "C" 
			},
			{
				"x": -0.1162909166,
				"y": -0.8687593967,
				"z": 1.5802278066,
				"element": "C" 
			},
			{
				"x": -0.1506567301,
				"y": -0.7336550476,
				"z": 2.9642934894,
				"element": "C" 
			},
			{
				"x": -0.1310375989,
				"y": 0.5416948029,
				"z": 3.5503752086,
				"element": "C" 
			},
			{
				"x": -0.0821221796,
				"y": 1.682179066,
				"z": 2.7291958504,
				"element": "C" 
			},
			{
				"x": -0.035999502,
				"y": 1.5474811784,
				"z": 1.348439653,
				"element": "C" 
			},
			{
				"x": -0.1688859201,
				"y": 0.6796505842,
				"z": 4.9765118578,
				"element": "C" 
			},
			{
				"x": -0.1980759584,
				"y": 0.7913285239,
				"z": 6.1340934706,
				"element": "N" 
			},
			{
				"x": -0.6538991787,
				"y": -0.3507165761,
				"z": -5.4018254734,
				"element": "H" 
			},
			{
				"x": 0.8614578257,
				"y": -0.9521939648,
				"z": -6.1290677603,
				"element": "H" 
			},
			{
				"x": 0.7890773442,
				"y": 0.6656376371,
				"z": -5.3789617235,
				"element": "H" 
			},
			{
				"x": 2.2097849841,
				"y": -2.1221713949,
				"z": -1.734428612,
				"element": "H" 
			},
			{
				"x": 0.9254212959,
				"y": -2.7474087745,
				"z": -0.7154314782,
				"element": "H" 
			},
			{
				"x": 2.0561868153,
				"y": -1.5628546436,
				"z": -0.0393677278,
				"element": "H" 
			},
			{
				"x": -0.8774113521,
				"y": 1.4108034168,
				"z": -3.4167007687,
				"element": "H" 
			},
			{
				"x": -0.1732648841,
				"y": -1.8544986815,
				"z": 1.136555323,
				"element": "H" 
			},
			{
				"x": -0.2094413398,
				"y": -1.6142194723,
				"z": 3.594644819,
				"element": "H" 
			},
			{
				"x": -0.0738016705,
				"y": 2.6683414491,
				"z": 3.1805585756,
				"element": "H" 
			},
			{
				"x": -0.003660067,
				"y": 2.4163084268,
				"z": 0.7030212833,
				"element": "H" 
			}
		],
		 "valence_orbital": [ 
			{
				"type": "occ",
				"energy": -0.30226,
				"method": "rhf"
			},
			{
				"type": "occ",
				"energy": -0.28845,
				"method": "rhf"
			},
			{
				"type": "occ",
				"energy": -0.26272,
				"method": "rhf"
			},
			{
				"type": "occ",
				"energy": -0.25354,
				"method": "rhf"
			},
			{
				"type": "occ",
				"energy": -0.25143,
				"method": "rhf"
			},
			{
				"type": "unocc",
				"energy": -0.07108,
				"method": "rhf"
			},
			{
				"type": "unocc",
				"energy": -0.03884,
				"method": "rhf"
			},
			{
				"type": "unocc",
				"energy": -0.03691,
				"method": "rhf"
			},
			{
				"type": "unocc",
				"energy": 0.00144,
				"method": "rhf"
			},
			{
				"type": "unocc",
				"energy": 0.02998,
				"method": "rhf"
			}
		],
		"cosmo_sigma_profile": { 
			"-0.025": 0.0,
			"-0.024": 0.0,
			"-0.023": 0.0,
			"-0.022": 0.0,
			"-0.021": 0.0,
			"-0.02": 0.0,
			"-0.019": 0.0,
			"-0.018": 0.0,
			"-0.017": 0.0,
			"-0.016": 0.0,
			"-0.015": 0.0,
			"-0.014": 0.0,
			"-0.013": 0.0,
			"-0.012": 0.0,
			"-0.011": 0.0,
			"-0.01": 0.0,
			"-0.009": 2.29735898019,
			"-0.008": 9.57067562643,
			"-0.007": 12.8519523444,
			"-0.006": 16.5184158512,
			"-0.005": 18.1464071818,
			"-0.004": 17.2902221965,
			"-0.003": 18.8219176847,
			"-0.002": 23.8953558925,
			"-0.001": 26.3125770853,
			"0.0": 22.2490232886,
			"0.001": 22.4686964401,
			"0.002": 12.7943543767,
			"0.003": 7.51357350305,
			"0.004": 6.07908094014,
			"0.005": 6.05307612418,
			"0.006": 5.64045214268,
			"0.007": 7.2277255808,
			"0.008": 6.17663881817,
			"0.009": 6.20312877377,
			"0.01": 5.54549598757,
			"0.011": 6.54543552841,
			"0.012": 5.8868338147,
			"0.013": 3.93406248677,
			"0.014": 0.795715104218,
			"0.015": 0.0,
			"0.016": 0.0,
			"0.017": 0.0,
			"0.018": 0.0,
			"0.019": 0.0,
			"0.02": 0.0,
			"0.021": 0.0,
			"0.022": 0.0,
			"0.023": 0.0,
			"0.024": 0.0,
			"0.025": 0.0
		}
	}
}
