{
	 "smiles": "FC(F)(F)C1=NC2=CC=C(Br)C=C2C(Cl)=C1", 
	 "Tm": 372.15, 
	 "num_atms": 20, 
	 "gaussian": { 
		 "optdone": 1, 
		 "sigma_profile": "yes", 
		 "theory": "DFT", 
		 "functional": "B3LYP", 
		 "basiset": "6-31G**", 
		 "properties": { 
			 "R2extent": 6877.9382, 
			 "electric_dipole_moment_norm": 1.68467075122, 
			 "electric_quadrupole_moment_norm": 9.55918291697, 
			 "total_energy": -3769.35292379, 
			 "HOMO_LUMO_gap": 0.16511, 
			 "cosmo_polarized_energy": -5.64, 
			 "cosmo_cavitation_energy": 30.62, 
			 "cosmo_dispersion_energy": -22.57, 
			 "cosmo_repulsion_energy": 1.69, 
			 "cosmo_total_nonelectrostatic_energy": 9.74, 
			 "SMD_solvation_energy": 3.46 
		},
		"coords": [
			{
				"x": 1.4799563374,
				"y": -0.0277470049,
				"z": 3.8270530897,
				"element": "F" 
			},
			{
				"x": 1.6058471003,
				"y": -1.0261574544,
				"z": 2.9352820838,
				"element": "C" 
			},
			{
				"x": 1.2960491805,
				"y": -2.1816406679,
				"z": 3.5669724093,
				"element": "F" 
			},
			{
				"x": 2.8994041527,
				"y": -1.0930103486,
				"z": 2.5745392911,
				"element": "F" 
			},
			{
				"x": 0.7093990751,
				"y": -0.801571827,
				"z": 1.7282360067,
				"element": "C" 
			},
			{
				"x": 0.9441533237,
				"y": 0.3029142711,
				"z": 1.0546380111,
				"element": "N" 
			},
			{
				"x": 0.1732069487,
				"y": 0.5563680813,
				"z": -0.0345856595,
				"element": "C" 
			},
			{
				"x": 0.4220413317,
				"y": 1.7486882917,
				"z": -0.7667988415,
				"element": "C" 
			},
			{
				"x": -0.3221139012,
				"y": 2.0632602035,
				"z": -1.8776051122,
				"element": "C" 
			},
			{
				"x": -1.3515062904,
				"y": 1.1861235657,
				"z": -2.2980817638,
				"element": "C" 
			},
			{
				"x": -2.3662725883,
				"y": 1.6509687868,
				"z": -3.843131621,
				"element": "Br" 
			},
			{
				"x": -1.6324838005,
				"y": 0.0206292323,
				"z": -1.6251954166,
				"element": "C" 
			},
			{
				"x": -0.8746272051,
				"y": -0.3205077489,
				"z": -0.4761207408,
				"element": "C" 
			},
			{
				"x": -1.0733158523,
				"y": -1.4962280853,
				"z": 0.2990749938,
				"element": "C" 
			},
			{
				"x": -2.3192079762,
				"y": -2.6423448626,
				"z": -0.1376312218,
				"element": "Cl" 
			},
			{
				"x": -0.2892675462,
				"y": -1.7469800157,
				"z": 1.4009485024,
				"element": "C" 
			},
			{
				"x": 1.2181732161,
				"y": 2.3957412005,
				"z": -0.4149834344,
				"element": "H" 
			},
			{
				"x": -0.1325573447,
				"y": 2.9725215766,
				"z": -2.4361291532,
				"element": "H" 
			},
			{
				"x": -2.4236931106,
				"y": -0.6359990483,
				"z": -1.9633369252,
				"element": "H" 
			},
			{
				"x": -0.4277850506,
				"y": -2.6363281458,
				"z": 2.0007555022,
				"element": "H" 
			}
		],
		 "valence_orbital": [ 
			{
				"type": "occ",
				"energy": -0.3108,
				"method": "rhf"
			},
			{
				"type": "occ",
				"energy": -0.30327,
				"method": "rhf"
			},
			{
				"type": "occ",
				"energy": -0.2901,
				"method": "rhf"
			},
			{
				"type": "occ",
				"energy": -0.27509,
				"method": "rhf"
			},
			{
				"type": "occ",
				"energy": -0.25309,
				"method": "rhf"
			},
			{
				"type": "unocc",
				"energy": -0.08798,
				"method": "rhf"
			},
			{
				"type": "unocc",
				"energy": -0.05212,
				"method": "rhf"
			},
			{
				"type": "unocc",
				"energy": -0.00983,
				"method": "rhf"
			},
			{
				"type": "unocc",
				"energy": -0.00906,
				"method": "rhf"
			},
			{
				"type": "unocc",
				"energy": 0.00863,
				"method": "rhf"
			}
		],
		"cosmo_sigma_profile": { 
			"-0.025": 0.0,
			"-0.024": 0.0,
			"-0.023": 0.0,
			"-0.022": 0.0,
			"-0.021": 0.0,
			"-0.02": 0.0,
			"-0.019": 0.0,
			"-0.018": 0.0,
			"-0.017": 0.0,
			"-0.016": 0.0,
			"-0.015": 0.0,
			"-0.014": 0.0,
			"-0.013": 0.0,
			"-0.012": 0.0,
			"-0.011": 0.0,
			"-0.01": 0.0,
			"-0.009": 0.73610425951,
			"-0.008": 3.90552171659,
			"-0.007": 5.58247922598,
			"-0.006": 6.77568605562,
			"-0.005": 9.63572852078,
			"-0.004": 11.5208038726,
			"-0.003": 14.9282942352,
			"-0.002": 23.9377003962,
			"-0.001": 26.9410012404,
			"0.0": 27.3625000091,
			"0.001": 27.9673239184,
			"0.002": 38.5582780517,
			"0.003": 32.5122726992,
			"0.004": 13.3475859359,
			"0.005": 2.36257644811,
			"0.006": 1.57975441382,
			"0.007": 1.88501991784,
			"0.008": 1.20143111961,
			"0.009": 0.794894677883,
			"0.01": 0.806605337135,
			"0.011": 0.784883617857,
			"0.012": 0.385751559533,
			"0.013": 0.0,
			"0.014": 0.0,
			"0.015": 0.0,
			"0.016": 0.0,
			"0.017": 0.0,
			"0.018": 0.0,
			"0.019": 0.0,
			"0.02": 0.0,
			"0.021": 0.0,
			"0.022": 0.0,
			"0.023": 0.0,
			"0.024": 0.0,
			"0.025": 0.0
		}
	}
}
