{
	 "smiles": "ClS(=O)(=O)C1=CC(=CC=C1)C(=O)NCC=C", 
	 "Tm": 336.15, 
	 "num_atms": 26, 
	 "gaussian": { 
		 "optdone": 1, 
		 "sigma_profile": "yes", 
		 "theory": "DFT", 
		 "functional": "B3LYP", 
		 "basiset": "6-31G**", 
		 "properties": { 
			 "R2extent": 6682.8716, 
			 "electric_dipole_moment_norm": 4.29298353712, 
			 "electric_quadrupole_moment_norm": 26.4075629515, 
			 "total_energy": -1525.80868973, 
			 "HOMO_LUMO_gap": 0.16783, 
			 "cosmo_polarized_energy": -15.68, 
			 "cosmo_cavitation_energy": 34.83, 
			 "cosmo_dispersion_energy": -23.82, 
			 "cosmo_repulsion_energy": 1.86, 
			 "cosmo_total_nonelectrostatic_energy": 12.87, 
			 "SMD_solvation_energy": 5.23 
		},
		"coords": [
			{
				"x": -1.124379187,
				"y": 1.1325095275,
				"z": -5.2541616179,
				"element": "Cl" 
			},
			{
				"x": -2.4102718843,
				"y": 0.8197129412,
				"z": -3.5836086749,
				"element": "S" 
			},
			{
				"x": -3.5734964364,
				"y": 1.6713241778,
				"z": -3.7985713227,
				"element": "O" 
			},
			{
				"x": -2.522344183,
				"y": -0.6252623019,
				"z": -3.4221337445,
				"element": "O" 
			},
			{
				"x": -1.4299894566,
				"y": 1.4846848978,
				"z": -2.2448437789,
				"element": "C" 
			},
			{
				"x": -0.5580196923,
				"y": 0.6294575876,
				"z": -1.5712714455,
				"element": "C" 
			},
			{
				"x": 0.1945693031,
				"y": 1.1407299875,
				"z": -0.5098496342,
				"element": "C" 
			},
			{
				"x": 0.0781377219,
				"y": 2.4969757174,
				"z": -0.1734039998,
				"element": "C" 
			},
			{
				"x": -0.8116727461,
				"y": 3.3291427239,
				"z": -0.8509854994,
				"element": "C" 
			},
			{
				"x": -1.5816192598,
				"y": 2.8280301638,
				"z": -1.9013631574,
				"element": "C" 
			},
			{
				"x": 1.223300848,
				"y": 0.3204627285,
				"z": 0.2239328226,
				"element": "C" 
			},
			{
				"x": 2.30123442,
				"y": 0.8199397208,
				"z": 0.5235513978,
				"element": "O" 
			},
			{
				"x": 0.9452129979,
				"y": -1.0050171709,
				"z": 0.478689957,
				"element": "N" 
			},
			{
				"x": -0.3709403607,
				"y": -1.5694971367,
				"z": 0.8241830407,
				"element": "C" 
			},
			{
				"x": -0.8497511408,
				"y": -1.1750187336,
				"z": 2.1998179998,
				"element": "C" 
			},
			{
				"x": -2.0187990186,
				"y": -0.583976209,
				"z": 2.4438696749,
				"element": "C" 
			},
			{
				"x": -0.4581687651,
				"y": -0.4029309481,
				"z": -1.8856391714,
				"element": "H" 
			},
			{
				"x": 0.7024508972,
				"y": 2.8846548474,
				"z": 0.6244740606,
				"element": "H" 
			},
			{
				"x": -0.9045107743,
				"y": 4.3723731079,
				"z": -0.5666586598,
				"element": "H" 
			},
			{
				"x": -2.2827291989,
				"y": 3.4545395395,
				"z": -2.4410442392,
				"element": "H" 
			},
			{
				"x": 1.7292893335,
				"y": -1.4339531856,
				"z": 0.9591361261,
				"element": "H" 
			},
			{
				"x": -1.1088286457,
				"y": -1.2781408747,
				"z": 0.0752652761,
				"element": "H" 
			},
			{
				"x": -0.2663606788,
				"y": -2.6586877456,
				"z": 0.7542206532,
				"element": "H" 
			},
			{
				"x": -0.172312155,
				"y": -1.4011981214,
				"z": 3.0235082499,
				"element": "H" 
			},
			{
				"x": -2.7146858826,
				"y": -0.3430328954,
				"z": 1.6435640061,
				"element": "H" 
			},
			{
				"x": -2.3282160555,
				"y": -0.3255223457,
				"z": 3.4520216807,
				"element": "H" 
			}
		],
		 "valence_orbital": [ 
			{
				"type": "occ",
				"energy": -0.29761,
				"method": "rhf"
			},
			{
				"type": "occ",
				"energy": -0.29354,
				"method": "rhf"
			},
			{
				"type": "occ",
				"energy": -0.28777,
				"method": "rhf"
			},
			{
				"type": "occ",
				"energy": -0.27193,
				"method": "rhf"
			},
			{
				"type": "occ",
				"energy": -0.26109,
				"method": "rhf"
			},
			{
				"type": "unocc",
				"energy": -0.09326,
				"method": "rhf"
			},
			{
				"type": "unocc",
				"energy": -0.06116,
				"method": "rhf"
			},
			{
				"type": "unocc",
				"energy": -0.04782,
				"method": "rhf"
			},
			{
				"type": "unocc",
				"energy": -0.0049,
				"method": "rhf"
			},
			{
				"type": "unocc",
				"energy": 0.0177,
				"method": "rhf"
			}
		],
		"cosmo_sigma_profile": { 
			"-0.025": 0.0,
			"-0.024": 0.0,
			"-0.023": 0.0,
			"-0.022": 0.0,
			"-0.021": 0.0,
			"-0.02": 0.0,
			"-0.019": 0.0,
			"-0.018": 0.0,
			"-0.017": 0.0,
			"-0.016": 0.0,
			"-0.015": 0.0,
			"-0.014": 0.368525594387,
			"-0.013": 1.19449880545,
			"-0.012": 1.37089247082,
			"-0.011": 1.13727040424,
			"-0.01": 0.984766948569,
			"-0.009": 2.12182259458,
			"-0.008": 6.2877770684,
			"-0.007": 12.5655009796,
			"-0.006": 15.8146148146,
			"-0.005": 17.1191368148,
			"-0.004": 16.9110103634,
			"-0.003": 19.1470854564,
			"-0.002": 18.5109906555,
			"-0.001": 21.4179234914,
			"0.0": 25.2137501787,
			"0.001": 21.3574280578,
			"0.002": 17.0974629573,
			"0.003": 20.6383653412,
			"0.004": 12.3332314467,
			"0.005": 6.44212854229,
			"0.006": 6.654120774,
			"0.007": 7.86847850018,
			"0.008": 10.709237462,
			"0.009": 5.22080870957,
			"0.01": 1.55145399991,
			"0.011": 2.18611319862,
			"0.012": 2.96736992401,
			"0.013": 5.1610980548,
			"0.014": 0.801171696617,
			"0.015": 0.0,
			"0.016": 0.0,
			"0.017": 0.0,
			"0.018": 0.0,
			"0.019": 0.0,
			"0.02": 0.0,
			"0.021": 0.0,
			"0.022": 0.0,
			"0.023": 0.0,
			"0.024": 0.0,
			"0.025": 0.0
		}
	}
}
