{
	 "smiles": "OC(=O)C1=CC(=NC=C1)N1CCCC1", 
	 "Tm": 485.15, 
	 "num_atms": 26, 
	 "gaussian": { 
		 "optdone": 1, 
		 "sigma_profile": "yes", 
		 "theory": "DFT", 
		 "functional": "B3LYP", 
		 "basiset": "6-31G**", 
		 "properties": { 
			 "R2extent": 3675.941, 
			 "electric_dipole_moment_norm": 3.91917105904, 
			 "electric_quadrupole_moment_norm": 22.048003584, 
			 "total_energy": -648.25988853, 
			 "HOMO_LUMO_gap": 0.1536, 
			 "cosmo_polarized_energy": -14.44, 
			 "cosmo_cavitation_energy": 28.94, 
			 "cosmo_dispersion_energy": -21.62, 
			 "cosmo_repulsion_energy": 1.71, 
			 "cosmo_total_nonelectrostatic_energy": 9.03, 
			 "SMD_solvation_energy": 3.92 
		},
		"coords": [
			{
				"x": 1.8986657079,
				"y": -0.2631700771,
				"z": -3.3594224847,
				"element": "O" 
			},
			{
				"x": 1.8558769107,
				"y": -0.2123329003,
				"z": -2.0030505297,
				"element": "C" 
			},
			{
				"x": 2.8692483935,
				"y": -0.3352731473,
				"z": -1.3570394644,
				"element": "O" 
			},
			{
				"x": 0.501036949,
				"y": 0.0084716272,
				"z": -1.3882385225,
				"element": "C" 
			},
			{
				"x": 0.4583546019,
				"y": 0.5119032807,
				"z": -0.0962825796,
				"element": "C" 
			},
			{
				"x": -0.8048148414,
				"y": 0.7402842179,
				"z": 0.5056419123,
				"element": "C" 
			},
			{
				"x": -1.9619634757,
				"y": 0.4774694002,
				"z": -0.1434465732,
				"element": "N" 
			},
			{
				"x": -1.8895602282,
				"y": -0.0207048301,
				"z": -1.3787118909,
				"element": "C" 
			},
			{
				"x": -0.7012525483,
				"y": -0.2783683268,
				"z": -2.058013963,
				"element": "C" 
			},
			{
				"x": -0.9149067872,
				"y": 1.2408596942,
				"z": 1.7680725262,
				"element": "N" 
			},
			{
				"x": 0.2218555896,
				"y": 1.5239739823,
				"z": 2.6445437532,
				"element": "C" 
			},
			{
				"x": -0.4363221419,
				"y": 1.7977614552,
				"z": 4.0066879212,
				"element": "C" 
			},
			{
				"x": -1.8159158723,
				"y": 2.3627662733,
				"z": 3.6287743336,
				"element": "C" 
			},
			{
				"x": -2.2085382846,
				"y": 1.5444651892,
				"z": 2.3904679774,
				"element": "C" 
			},
			{
				"x": 1.0379544901,
				"y": -0.0134619351,
				"z": -3.7248460916,
				"element": "H" 
			},
			{
				"x": 1.3886459308,
				"y": 0.7243055186,
				"z": 0.4145600015,
				"element": "H" 
			},
			{
				"x": -2.8448320896,
				"y": -0.2343010353,
				"z": -1.8564621127,
				"element": "H" 
			},
			{
				"x": -0.7290985828,
				"y": -0.7342280597,
				"z": -3.0429684237,
				"element": "H" 
			},
			{
				"x": 0.9159422381,
				"y": 0.6760747181,
				"z": 2.6821198339,
				"element": "H" 
			},
			{
				"x": 0.7877356849,
				"y": 2.3981221927,
				"z": 2.2874500697,
				"element": "H" 
			},
			{
				"x": 0.1573668494,
				"y": 2.4756965099,
				"z": 4.6253503035,
				"element": "H" 
			},
			{
				"x": -0.5528477384,
				"y": 0.8576348363,
				"z": 4.557288926,
				"element": "H" 
			},
			{
				"x": -1.7292768851,
				"y": 3.4229367474,
				"z": 3.3645401992,
				"element": "H" 
			},
			{
				"x": -2.5502522514,
				"y": 2.2783180193,
				"z": 4.4341584624,
				"element": "H" 
			},
			{
				"x": -2.8521185979,
				"y": 2.0869291358,
				"z": 1.6932049822,
				"element": "H" 
			},
			{
				"x": -2.7353830212,
				"y": 0.6187675133,
				"z": 2.6613214338,
				"element": "H" 
			}
		],
		 "valence_orbital": [ 
			{
				"type": "occ",
				"energy": -0.30161,
				"method": "rhf"
			},
			{
				"type": "occ",
				"energy": -0.28639,
				"method": "rhf"
			},
			{
				"type": "occ",
				"energy": -0.27266,
				"method": "rhf"
			},
			{
				"type": "occ",
				"energy": -0.26074,
				"method": "rhf"
			},
			{
				"type": "occ",
				"energy": -0.20649,
				"method": "rhf"
			},
			{
				"type": "unocc",
				"energy": -0.05289,
				"method": "rhf"
			},
			{
				"type": "unocc",
				"energy": -0.00463,
				"method": "rhf"
			},
			{
				"type": "unocc",
				"energy": 0.05167,
				"method": "rhf"
			},
			{
				"type": "unocc",
				"energy": 0.06894,
				"method": "rhf"
			},
			{
				"type": "unocc",
				"energy": 0.07736,
				"method": "rhf"
			}
		],
		"cosmo_sigma_profile": { 
			"-0.025": 0.0,
			"-0.024": 0.0,
			"-0.023": 0.0,
			"-0.022": 0.0,
			"-0.021": 0.0,
			"-0.02": 0.0,
			"-0.019": 0.0222453524506,
			"-0.018": 0.718406553735,
			"-0.017": 0.890196819221,
			"-0.016": 0.879069454229,
			"-0.015": 1.38111794511,
			"-0.014": 0.74381847479,
			"-0.013": 0.746125656853,
			"-0.012": 1.11116307243,
			"-0.011": 1.46019456444,
			"-0.01": 1.31797297784,
			"-0.009": 0.991813487138,
			"-0.008": 1.63864266189,
			"-0.007": 2.17677397334,
			"-0.006": 5.85557627387,
			"-0.005": 7.77640655011,
			"-0.004": 19.4725120685,
			"-0.003": 29.42429286,
			"-0.002": 29.2549607309,
			"-0.001": 19.3983187438,
			"0.0": 17.0151006489,
			"0.001": 11.1435158058,
			"0.002": 16.4465534691,
			"0.003": 11.5532500373,
			"0.004": 5.08620747152,
			"0.005": 5.16120040687,
			"0.006": 4.53733099787,
			"0.007": 3.61069990573,
			"0.008": 3.99480322943,
			"0.009": 5.29149947008,
			"0.01": 6.14043835039,
			"0.011": 6.14320618782,
			"0.012": 4.81139501164,
			"0.013": 1.94740994439,
			"0.014": 0.658158700393,
			"0.015": 0.00470150818566,
			"0.016": 0.0,
			"0.017": 0.0,
			"0.018": 0.0,
			"0.019": 0.0,
			"0.02": 0.0,
			"0.021": 0.0,
			"0.022": 0.0,
			"0.023": 0.0,
			"0.024": 0.0,
			"0.025": 0.0
		}
	}
}
