{
	 "smiles": "CC(C)C1=C(C=C(C)C(=C1)N=NC1=CC=CC=C1)N=NC1=CC=CC=C1", 
	 "Tm": 381.15, 
	 "num_atms": 48, 
	 "gaussian": { 
		 "optdone": 1, 
		 "sigma_profile": "yes", 
		 "theory": "DFT", 
		 "functional": "B3LYP", 
		 "basiset": "6-31G**", 
		 "properties": { 
			 "R2extent": 10123.4697, 
			 "electric_dipole_moment_norm": 3.29139968554, 
			 "electric_quadrupole_moment_norm": 25.0396392742, 
			 "total_energy": -1070.49939683, 
			 "HOMO_LUMO_gap": 0.11777, 
			 "cosmo_polarized_energy": -14.04, 
			 "cosmo_cavitation_energy": 51.44, 
			 "cosmo_dispersion_energy": -32.15, 
			 "cosmo_repulsion_energy": 2.46, 
			 "cosmo_total_nonelectrostatic_energy": 21.76, 
			 "SMD_solvation_energy": 5.24 
		},
		"coords": [
			{
				"x": 3.17329405,
				"y": -2.3451169842,
				"z": -1.0157826118,
				"element": "C" 
			},
			{
				"x": 1.9065729916,
				"y": -1.5397668856,
				"z": -1.343441499,
				"element": "C" 
			},
			{
				"x": 0.6407967395,
				"y": -2.3682030729,
				"z": -1.0368383757,
				"element": "C" 
			},
			{
				"x": 1.8533740266,
				"y": -0.1836827533,
				"z": -0.65180371,
				"element": "C" 
			},
			{
				"x": 1.1924323358,
				"y": 0.9069867006,
				"z": -1.2646649895,
				"element": "C" 
			},
			{
				"x": 1.1900606774,
				"y": 2.1736559423,
				"z": -0.6584196192,
				"element": "C" 
			},
			{
				"x": 1.7933270887,
				"y": 2.3953365061,
				"z": 0.5760466984,
				"element": "C" 
			},
			{
				"x": 1.8150279522,
				"y": 3.7642711984,
				"z": 1.2073768836,
				"element": "C" 
			},
			{
				"x": 2.3660044286,
				"y": 1.2846373449,
				"z": 1.2336388908,
				"element": "C" 
			},
			{
				"x": 2.4052570054,
				"y": 0.0283033345,
				"z": 0.6104768404,
				"element": "C" 
			},
			{
				"x": 3.1018894542,
				"y": 1.5508312015,
				"z": 2.4283352579,
				"element": "N" 
			},
			{
				"x": 3.0858292392,
				"y": 0.8309678582,
				"z": 3.4504470947,
				"element": "N" 
			},
			{
				"x": 2.1548107272,
				"y": -0.2409267145,
				"z": 3.6572682887,
				"element": "C" 
			},
			{
				"x": 0.7709820478,
				"y": -0.1021427893,
				"z": 3.4713431258,
				"element": "C" 
			},
			{
				"x": -0.0816742296,
				"y": -1.140755803,
				"z": 3.8398960457,
				"element": "C" 
			},
			{
				"x": 0.4333534992,
				"y": -2.3242597939,
				"z": 4.376581599,
				"element": "C" 
			},
			{
				"x": 1.8102699321,
				"y": -2.4540383266,
				"z": 4.5757283504,
				"element": "C" 
			},
			{
				"x": 2.6666165731,
				"y": -1.4057707356,
				"z": 4.2451970936,
				"element": "C" 
			},
			{
				"x": 0.7502425206,
				"y": 0.7318474128,
				"z": -2.6109548994,
				"element": "N" 
			},
			{
				"x": -0.3185821822,
				"y": 1.1820401018,
				"z": -3.0787230179,
				"element": "N" 
			},
			{
				"x": -1.3738974918,
				"y": 1.7450541312,
				"z": -2.2860335541,
				"element": "C" 
			},
			{
				"x": -2.0268509593,
				"y": 2.857988936,
				"z": -2.8342876138,
				"element": "C" 
			},
			{
				"x": -3.1359340034,
				"y": 3.4040987013,
				"z": -2.1918796269,
				"element": "C" 
			},
			{
				"x": -3.6371328225,
				"y": 2.808757237,
				"z": -1.0314981936,
				"element": "C" 
			},
			{
				"x": -3.01704721,
				"y": 1.668083819,
				"z": -0.5137780991,
				"element": "C" 
			},
			{
				"x": -1.8836316438,
				"y": 1.1386861557,
				"z": -1.1273772196,
				"element": "C" 
			},
			{
				"x": 3.2209076972,
				"y": -3.2366005348,
				"z": -1.6493682192,
				"element": "H" 
			},
			{
				"x": 4.0804094744,
				"y": -1.7581836828,
				"z": -1.1897900239,
				"element": "H" 
			},
			{
				"x": 3.1855812701,
				"y": -2.6897104526,
				"z": 0.0243868639,
				"element": "H" 
			},
			{
				"x": 1.9040991243,
				"y": -1.3310895935,
				"z": -2.4199646812,
				"element": "H" 
			},
			{
				"x": 0.553636151,
				"y": -2.5677308266,
				"z": 0.0373142081,
				"element": "H" 
			},
			{
				"x": 0.6755056871,
				"y": -3.3305424456,
				"z": -1.5591369798,
				"element": "H" 
			},
			{
				"x": -0.2665513261,
				"y": -1.8489484449,
				"z": -1.3608438062,
				"element": "H" 
			},
			{
				"x": 0.7335096763,
				"y": 3.0075556897,
				"z": -1.1816090242,
				"element": "H" 
			},
			{
				"x": 1.0857430628,
				"y": 3.843976923,
				"z": 2.0227761525,
				"element": "H" 
			},
			{
				"x": 2.7969546216,
				"y": 3.9701308265,
				"z": 1.6437448691,
				"element": "H" 
			},
			{
				"x": 1.5769270033,
				"y": 4.5381354835,
				"z": 0.4730365689,
				"element": "H" 
			},
			{
				"x": 2.9088332525,
				"y": -0.7853148967,
				"z": 1.1188411991,
				"element": "H" 
			},
			{
				"x": 0.3704633689,
				"y": 0.8163451452,
				"z": 3.0560897715,
				"element": "H" 
			},
			{
				"x": -1.1537347376,
				"y": -1.0261518684,
				"z": 3.7071479367,
				"element": "H" 
			},
			{
				"x": -0.2364757173,
				"y": -3.132521731,
				"z": 4.6543534659,
				"element": "H" 
			},
			{
				"x": 2.2151598577,
				"y": -3.3643409006,
				"z": 5.0081581939,
				"element": "H" 
			},
			{
				"x": 3.7346888492,
				"y": -1.4720007965,
				"z": 4.4279851177,
				"element": "H" 
			},
			{
				"x": -1.6472941303,
				"y": 3.2802205305,
				"z": -3.7596111752,
				"element": "H" 
			},
			{
				"x": -3.6224725352,
				"y": 4.2810190954,
				"z": -2.608848459,
				"element": "H" 
			},
			{
				"x": -4.5152606169,
				"y": 3.2201420671,
				"z": -0.5428133559,
				"element": "H" 
			},
			{
				"x": -3.4178851711,
				"y": 1.1883550184,
				"z": 0.3746665903,
				"element": "H" 
			},
			{
				"x": -1.4035356085,
				"y": 0.2553726724,
				"z": -0.7210683523,
				"element": "H" 
			}
		],
		 "valence_orbital": [ 
			{
				"type": "occ",
				"energy": -0.26003,
				"method": "rhf"
			},
			{
				"type": "occ",
				"energy": -0.25532,
				"method": "rhf"
			},
			{
				"type": "occ",
				"energy": -0.24543,
				"method": "rhf"
			},
			{
				"type": "occ",
				"energy": -0.22001,
				"method": "rhf"
			},
			{
				"type": "occ",
				"energy": -0.20307,
				"method": "rhf"
			},
			{
				"type": "unocc",
				"energy": -0.0853,
				"method": "rhf"
			},
			{
				"type": "unocc",
				"energy": -0.06146,
				"method": "rhf"
			},
			{
				"type": "unocc",
				"energy": -0.01767,
				"method": "rhf"
			},
			{
				"type": "unocc",
				"energy": -0.01183,
				"method": "rhf"
			},
			{
				"type": "unocc",
				"energy": -0.00922,
				"method": "rhf"
			}
		],
		"cosmo_sigma_profile": { 
			"-0.025": 0.0,
			"-0.024": 0.0,
			"-0.023": 0.0,
			"-0.022": 0.0,
			"-0.021": 0.0,
			"-0.02": 0.0,
			"-0.019": 0.0,
			"-0.018": 0.0,
			"-0.017": 0.0,
			"-0.016": 0.0,
			"-0.015": 0.0,
			"-0.014": 0.0,
			"-0.013": 0.0,
			"-0.012": 0.0,
			"-0.011": 0.0,
			"-0.01": 0.0,
			"-0.009": 0.0,
			"-0.008": 0.0,
			"-0.007": 2.56357282978,
			"-0.006": 22.3037583715,
			"-0.005": 30.5817283908,
			"-0.004": 36.6974777112,
			"-0.003": 33.9032924136,
			"-0.002": 38.0775776328,
			"-0.001": 38.2483978981,
			"0.0": 40.6788467109,
			"0.001": 34.7891524521,
			"0.002": 28.2820233331,
			"0.003": 32.3806958227,
			"0.004": 28.0397335891,
			"0.005": 11.511630113,
			"0.006": 3.73270485908,
			"0.007": 3.85507813818,
			"0.008": 3.4414659798,
			"0.009": 3.62524433049,
			"0.01": 3.05362613256,
			"0.011": 5.12552827306,
			"0.012": 4.7297651219,
			"0.013": 2.5292145938,
			"0.014": 1.33905720357,
			"0.015": 0.0103064598845,
			"0.016": 0.0,
			"0.017": 0.0,
			"0.018": 0.0,
			"0.019": 0.0,
			"0.02": 0.0,
			"0.021": 0.0,
			"0.022": 0.0,
			"0.023": 0.0,
			"0.024": 0.0,
			"0.025": 0.0
		}
	}
}
