{
	 "smiles": "NC1=NOC(=N1)C1=COC=C1", 
	 "Tm": 453.15, 
	 "num_atms": 16, 
	 "gaussian": { 
		 "optdone": 1, 
		 "sigma_profile": "yes", 
		 "theory": "DFT", 
		 "functional": "B3LYP", 
		 "basiset": "6-31G**", 
		 "properties": { 
			 "R2extent": 2037.473, 
			 "electric_dipole_moment_norm": 1.76026719847, 
			 "electric_quadrupole_moment_norm": 15.2104332828, 
			 "total_energy": -546.288413897, 
			 "HOMO_LUMO_gap": 0.18998, 
			 "cosmo_polarized_energy": -12.37, 
			 "cosmo_cavitation_energy": 21.79, 
			 "cosmo_dispersion_energy": -16.42, 
			 "cosmo_repulsion_energy": 1.31, 
			 "cosmo_total_nonelectrostatic_energy": 6.68, 
			 "SMD_solvation_energy": 3.18 
		},
		"coords": [
			{
				"x": 2.8409465215,
				"y": -1.1039562411,
				"z": 0.5750742822,
				"element": "N" 
			},
			{
				"x": 1.5285361732,
				"y": -0.916927289,
				"z": 0.2228170386,
				"element": "C" 
			},
			{
				"x": 0.8415901421,
				"y": -1.7888322673,
				"z": -0.4901190867,
				"element": "N" 
			},
			{
				"x": -0.4056225954,
				"y": -1.1300378612,
				"z": -0.6490564273,
				"element": "O" 
			},
			{
				"x": -0.3082224016,
				"y": 0.0407901261,
				"z": -0.0017181519,
				"element": "C" 
			},
			{
				"x": 0.8566690397,
				"y": 0.2359244815,
				"z": 0.5590601004,
				"element": "N" 
			},
			{
				"x": -1.4570732613,
				"y": 0.9190491274,
				"z": -0.000401322,
				"element": "C" 
			},
			{
				"x": -1.5260537111,
				"y": 2.1496519782,
				"z": 0.5966770777,
				"element": "C" 
			},
			{
				"x": -2.7480466947,
				"y": 2.696166183,
				"z": 0.402476748,
				"element": "O" 
			},
			{
				"x": -3.4797896241,
				"y": 1.8022465708,
				"z": -0.3331226262,
				"element": "C" 
			},
			{
				"x": -2.7430770467,
				"y": 0.6966093367,
				"z": -0.6096280892,
				"element": "C" 
			},
			{
				"x": 3.165574672,
				"y": -2.0594292019,
				"z": 0.5370637328,
				"element": "H" 
			},
			{
				"x": 3.1269719302,
				"y": -0.592563318,
				"z": 1.3970106694,
				"element": "H" 
			},
			{
				"x": -0.8139173938,
				"y": 2.7282022256,
				"z": 1.1629581224,
				"element": "H" 
			},
			{
				"x": -4.4876812774,
				"y": 2.1046065618,
				"z": -0.5689421159,
				"element": "H" 
			},
			{
				"x": -3.0507044726,
				"y": -0.1732004126,
				"z": -1.1700499524,
				"element": "H" 
			}
		],
		 "valence_orbital": [ 
			{
				"type": "occ",
				"energy": -0.32773,
				"method": "rhf"
			},
			{
				"type": "occ",
				"energy": -0.29035,
				"method": "rhf"
			},
			{
				"type": "occ",
				"energy": -0.28123,
				"method": "rhf"
			},
			{
				"type": "occ",
				"energy": -0.24905,
				"method": "rhf"
			},
			{
				"type": "occ",
				"energy": -0.22925,
				"method": "rhf"
			},
			{
				"type": "unocc",
				"energy": -0.03927,
				"method": "rhf"
			},
			{
				"type": "unocc",
				"energy": 0.0104,
				"method": "rhf"
			},
			{
				"type": "unocc",
				"energy": 0.05651,
				"method": "rhf"
			},
			{
				"type": "unocc",
				"energy": 0.07302,
				"method": "rhf"
			},
			{
				"type": "unocc",
				"energy": 0.11128,
				"method": "rhf"
			}
		],
		"cosmo_sigma_profile": { 
			"-0.025": 0.0,
			"-0.024": 0.0,
			"-0.023": 0.0,
			"-0.022": 0.0,
			"-0.021": 0.0,
			"-0.02": 0.0,
			"-0.019": 0.0,
			"-0.018": 0.0,
			"-0.017": 0.0,
			"-0.016": 0.0,
			"-0.015": 0.197697411566,
			"-0.014": 2.34887107496,
			"-0.013": 2.01132486784,
			"-0.012": 2.4964916564,
			"-0.011": 2.0360943621,
			"-0.01": 4.9155343507,
			"-0.009": 5.24055139877,
			"-0.008": 6.22591304712,
			"-0.007": 5.74316082574,
			"-0.006": 5.51199107069,
			"-0.005": 5.33356780345,
			"-0.004": 5.7600275478,
			"-0.003": 7.53776127646,
			"-0.002": 9.60151525461,
			"-0.001": 12.2960242464,
			"0.0": 13.4538491763,
			"0.001": 16.3814662486,
			"0.002": 11.3274934569,
			"0.003": 9.54035312361,
			"0.004": 7.2355108773,
			"0.005": 6.38882755487,
			"0.006": 5.40804267894,
			"0.007": 8.2208083544,
			"0.008": 4.40932150108,
			"0.009": 3.15412008756,
			"0.01": 3.07457687605,
			"0.011": 3.60805534921,
			"0.012": 2.2431215306,
			"0.013": 2.2867927155,
			"0.014": 1.53668076758,
			"0.015": 0.184412520886,
			"0.016": 0.0,
			"0.017": 0.0,
			"0.018": 0.0,
			"0.019": 0.0,
			"0.02": 0.0,
			"0.021": 0.0,
			"0.022": 0.0,
			"0.023": 0.0,
			"0.024": 0.0,
			"0.025": 0.0
		}
	}
}
