{
	 "smiles": "COC(=O)C1=C(N)C(=CS1)S(C)(=O)=O", 
	 "Tm": 418.15, 
	 "num_atms": 23, 
	 "gaussian": { 
		 "optdone": 1, 
		 "sigma_profile": "yes", 
		 "theory": "DFT", 
		 "functional": "B3LYP", 
		 "basiset": "6-31G**", 
		 "properties": { 
			 "R2extent": 4215.2833, 
			 "electric_dipole_moment_norm": 3.86367028226, 
			 "electric_quadrupole_moment_norm": 17.9968794565, 
			 "total_energy": -1424.13119971, 
			 "HOMO_LUMO_gap": 0.16668, 
			 "cosmo_polarized_energy": -17.23, 
			 "cosmo_cavitation_energy": 30.02, 
			 "cosmo_dispersion_energy": -22.93, 
			 "cosmo_repulsion_energy": 1.71, 
			 "cosmo_total_nonelectrostatic_energy": 8.81, 
			 "SMD_solvation_energy": 6.32 
		},
		"coords": [
			{
				"x": 0.8895395647,
				"y": -4.8214392008,
				"z": 1.1273036762,
				"element": "C" 
			},
			{
				"x": 0.5932953291,
				"y": -3.4162324871,
				"z": 1.0435813429,
				"element": "O" 
			},
			{
				"x": 1.640903681,
				"y": -2.6301554429,
				"z": 0.6544588441,
				"element": "C" 
			},
			{
				"x": 2.741532336,
				"y": -3.0794772531,
				"z": 0.391132646,
				"element": "O" 
			},
			{
				"x": 1.2839086293,
				"y": -1.2210537272,
				"z": 0.5991989236,
				"element": "C" 
			},
			{
				"x": 0.0810541476,
				"y": -0.5782469844,
				"z": 0.8900333121,
				"element": "C" 
			},
			{
				"x": -1.103580455,
				"y": -1.1692610193,
				"z": 1.2375303699,
				"element": "N" 
			},
			{
				"x": 0.2234137344,
				"y": 0.8480662739,
				"z": 0.7209484165,
				"element": "C" 
			},
			{
				"x": 1.4788609904,
				"y": 1.2409929529,
				"z": 0.3375388895,
				"element": "C" 
			},
			{
				"x": 2.5448113825,
				"y": -0.0867339627,
				"z": 0.145489796,
				"element": "S" 
			},
			{
				"x": -1.0960491443,
				"y": 2.014786117,
				"z": 0.963703054,
				"element": "S" 
			},
			{
				"x": -2.0812985058,
				"y": 1.8673057058,
				"z": -0.5422739942,
				"element": "C" 
			},
			{
				"x": -0.5152799027,
				"y": 3.3627988933,
				"z": 1.0068622762,
				"element": "O" 
			},
			{
				"x": -1.930434465,
				"y": 1.5129003832,
				"z": 2.0756849611,
				"element": "O" 
			},
			{
				"x": -0.0402606835,
				"y": -5.2995786756,
				"z": 1.4353392044,
				"element": "H" 
			},
			{
				"x": 1.2146584476,
				"y": -5.2026968572,
				"z": 0.1566849287,
				"element": "H" 
			},
			{
				"x": 1.6775849928,
				"y": -5.0048551925,
				"z": 1.8614040415,
				"element": "H" 
			},
			{
				"x": -1.0409705246,
				"y": -2.1492376942,
				"z": 1.4756741708,
				"element": "H" 
			},
			{
				"x": -1.7242957968,
				"y": -0.5951996228,
				"z": 1.7977593155,
				"element": "H" 
			},
			{
				"x": 1.802724736,
				"y": 2.2594814138,
				"z": 0.1722923259,
				"element": "H" 
			},
			{
				"x": -1.4848649089,
				"y": 2.2027924743,
				"z": -1.3914471918,
				"element": "H" 
			},
			{
				"x": -2.3873629987,
				"y": 0.8260898342,
				"z": -0.6585963926,
				"element": "H" 
			},
			{
				"x": -2.9535905862,
				"y": 2.5100540715,
				"z": -0.4062029164,
				"element": "H" 
			}
		],
		 "valence_orbital": [ 
			{
				"type": "occ",
				"energy": -0.30845,
				"method": "rhf"
			},
			{
				"type": "occ",
				"energy": -0.3019,
				"method": "rhf"
			},
			{
				"type": "occ",
				"energy": -0.28212,
				"method": "rhf"
			},
			{
				"type": "occ",
				"energy": -0.2705,
				"method": "rhf"
			},
			{
				"type": "occ",
				"energy": -0.22714,
				"method": "rhf"
			},
			{
				"type": "unocc",
				"energy": -0.06046,
				"method": "rhf"
			},
			{
				"type": "unocc",
				"energy": -0.0073,
				"method": "rhf"
			},
			{
				"type": "unocc",
				"energy": 0.01128,
				"method": "rhf"
			},
			{
				"type": "unocc",
				"energy": 0.05452,
				"method": "rhf"
			},
			{
				"type": "unocc",
				"energy": 0.06918,
				"method": "rhf"
			}
		],
		"cosmo_sigma_profile": { 
			"-0.025": 0.0,
			"-0.024": 0.0,
			"-0.023": 0.0,
			"-0.022": 0.0,
			"-0.021": 0.0,
			"-0.02": 0.0,
			"-0.019": 0.0,
			"-0.018": 0.0,
			"-0.017": 0.0,
			"-0.016": 0.0,
			"-0.015": 0.0,
			"-0.014": 0.0,
			"-0.013": 0.0,
			"-0.012": 0.0774595067987,
			"-0.011": 1.61259326155,
			"-0.01": 3.52147940935,
			"-0.009": 5.6114533942,
			"-0.008": 7.95599188069,
			"-0.007": 9.03705466502,
			"-0.006": 12.9725563475,
			"-0.005": 17.3658766259,
			"-0.004": 19.8844507611,
			"-0.003": 18.0432146064,
			"-0.002": 12.9348950712,
			"-0.001": 15.3719229375,
			"0.0": 19.9058080315,
			"0.001": 17.4996096523,
			"0.002": 14.7254957623,
			"0.003": 8.49320621701,
			"0.004": 5.13630773316,
			"0.005": 5.15109838155,
			"0.006": 3.29044058034,
			"0.007": 4.2406590042,
			"0.008": 6.30070933393,
			"0.009": 4.5173892778,
			"0.01": 8.07526269094,
			"0.011": 10.2071054548,
			"0.012": 9.29935519917,
			"0.013": 0.49064501992,
			"0.014": 0.0,
			"0.015": 0.0,
			"0.016": 0.0,
			"0.017": 0.0,
			"0.018": 0.0,
			"0.019": 0.0,
			"0.02": 0.0,
			"0.021": 0.0,
			"0.022": 0.0,
			"0.023": 0.0,
			"0.024": 0.0,
			"0.025": 0.0
		}
	}
}
