{
	 "smiles": "CC(C)NS(=O)(=O)C1=C(Cl)C(C(O)=O)=C(Cl)C=C1", 
	 "Tm": 492.15, 
	 "num_atms": 29, 
	 "gaussian": { 
		 "optdone": 1, 
		 "sigma_profile": "yes", 
		 "theory": "DFT", 
		 "functional": "B3LYP", 
		 "basiset": "6-31G**", 
		 "properties": { 
			 "R2extent": 7604.6618, 
			 "electric_dipole_moment_norm": 4.67179719059, 
			 "electric_quadrupole_moment_norm": 20.7560170365, 
			 "total_energy": -2061.84209017, 
			 "HOMO_LUMO_gap": 0.21203, 
			 "cosmo_polarized_energy": -20.08, 
			 "cosmo_cavitation_energy": 38.05, 
			 "cosmo_dispersion_energy": -26.7, 
			 "cosmo_repulsion_energy": 2.04, 
			 "cosmo_total_nonelectrostatic_energy": 13.4, 
			 "SMD_solvation_energy": 6.27 
		},
		"coords": [
			{
				"x": -0.1475864133,
				"y": -1.2016488585,
				"z": -3.9404722357,
				"element": "C" 
			},
			{
				"x": -0.6918975882,
				"y": -0.904958775,
				"z": -2.5414386805,
				"element": "C" 
			},
			{
				"x": -1.1568865014,
				"y": 0.5454703609,
				"z": -2.4055943519,
				"element": "C" 
			},
			{
				"x": 0.4030986611,
				"y": -1.2011377685,
				"z": -1.5725965542,
				"element": "N" 
			},
			{
				"x": 0.0095524694,
				"y": -1.5027395939,
				"z": 0.0424096299,
				"element": "S" 
			},
			{
				"x": 0.7921944528,
				"y": -2.6755812298,
				"z": 0.442233506,
				"element": "O" 
			},
			{
				"x": -1.4455146573,
				"y": -1.4581759557,
				"z": 0.1970133576,
				"element": "O" 
			},
			{
				"x": 0.7048636803,
				"y": -0.0682633296,
				"z": 0.9074115465,
				"element": "C" 
			},
			{
				"x": 0.5105234611,
				"y": 0.0980729364,
				"z": 2.2879577733,
				"element": "C" 
			},
			{
				"x": -0.4120335797,
				"y": -1.0489802855,
				"z": 3.2231183513,
				"element": "Cl" 
			},
			{
				"x": 1.0667922566,
				"y": 1.1966776427,
				"z": 2.9568683968,
				"element": "C" 
			},
			{
				"x": 0.8080052223,
				"y": 1.412032538,
				"z": 4.4287717925,
				"element": "C" 
			},
			{
				"x": 1.735660054,
				"y": 0.7986131816,
				"z": 5.1858787497,
				"element": "O" 
			},
			{
				"x": -0.110422906,
				"y": 2.0610331469,
				"z": 4.8659078029,
				"element": "O" 
			},
			{
				"x": 1.8296436985,
				"y": 2.1152419083,
				"z": 2.2264156678,
				"element": "C" 
			},
			{
				"x": 2.543637974,
				"y": 3.4910721683,
				"z": 3.0374521755,
				"element": "Cl" 
			},
			{
				"x": 2.0415748854,
				"y": 1.9539946079,
				"z": 0.8603774118,
				"element": "C" 
			},
			{
				"x": 1.4777374637,
				"y": 0.861178146,
				"z": 0.2094947166,
				"element": "C" 
			},
			{
				"x": 0.717168117,
				"y": -0.5691136271,
				"z": -4.1676381101,
				"element": "H" 
			},
			{
				"x": 0.1532107854,
				"y": -2.2504792265,
				"z": -4.0415629438,
				"element": "H" 
			},
			{
				"x": -0.9200271397,
				"y": -1.0046031115,
				"z": -4.6890630316,
				"element": "H" 
			},
			{
				"x": -1.5438015275,
				"y": -1.5653222792,
				"z": -2.3404175278,
				"element": "H" 
			},
			{
				"x": -1.5358923713,
				"y": 0.747023935,
				"z": -1.4009780706,
				"element": "H" 
			},
			{
				"x": -0.3388938689,
				"y": 1.2404474393,
				"z": -2.623180642,
				"element": "H" 
			},
			{
				"x": -1.9695710229,
				"y": 0.7406746564,
				"z": -3.1122730978,
				"element": "H" 
			},
			{
				"x": 0.9940046048,
				"y": -1.9771746076,
				"z": -1.8620744957,
				"element": "H" 
			},
			{
				"x": 1.503121728,
				"y": 0.979732255,
				"z": 6.1134965059,
				"element": "H" 
			},
			{
				"x": 2.6413562484,
				"y": 2.6739032754,
				"z": 0.3161203573,
				"element": "H" 
			},
			{
				"x": 1.6320818131,
				"y": 0.7149104502,
				"z": -0.8520379996,
				"element": "H" 
			}
		],
		 "valence_orbital": [ 
			{
				"type": "occ",
				"energy": -0.31159,
				"method": "rhf"
			},
			{
				"type": "occ",
				"energy": -0.30157,
				"method": "rhf"
			},
			{
				"type": "occ",
				"energy": -0.28319,
				"method": "rhf"
			},
			{
				"type": "occ",
				"energy": -0.27531,
				"method": "rhf"
			},
			{
				"type": "occ",
				"energy": -0.26809,
				"method": "rhf"
			},
			{
				"type": "unocc",
				"energy": -0.05606,
				"method": "rhf"
			},
			{
				"type": "unocc",
				"energy": -0.04728,
				"method": "rhf"
			},
			{
				"type": "unocc",
				"energy": -0.01298,
				"method": "rhf"
			},
			{
				"type": "unocc",
				"energy": -0.00895,
				"method": "rhf"
			},
			{
				"type": "unocc",
				"energy": 0.02974,
				"method": "rhf"
			}
		],
		"cosmo_sigma_profile": { 
			"-0.025": 0.0,
			"-0.024": 0.0,
			"-0.023": 0.0,
			"-0.022": 0.0,
			"-0.021": 0.0,
			"-0.02": 0.196079261489,
			"-0.019": 1.09282533,
			"-0.018": 0.851986994858,
			"-0.017": 0.595840481661,
			"-0.016": 1.07938105165,
			"-0.015": 0.522203123448,
			"-0.014": 1.00330798485,
			"-0.013": 1.71037444345,
			"-0.012": 2.29825966734,
			"-0.011": 1.70389155084,
			"-0.01": 1.22770341325,
			"-0.009": 4.32496994877,
			"-0.008": 5.57386547729,
			"-0.007": 5.16331960835,
			"-0.006": 5.10298576021,
			"-0.005": 8.3805216722,
			"-0.004": 21.7098824422,
			"-0.003": 25.2969739058,
			"-0.002": 31.5414383498,
			"-0.001": 34.3676562405,
			"0.0": 31.525448242,
			"0.001": 20.6186137211,
			"0.002": 18.3614838621,
			"0.003": 17.2890559614,
			"0.004": 6.78410772362,
			"0.005": 6.83192029623,
			"0.006": 5.40362066381,
			"0.007": 7.58796275321,
			"0.008": 6.91615420735,
			"0.009": 7.00881500314,
			"0.01": 15.2507711695,
			"0.011": 8.55205906375,
			"0.012": 0.350218318723,
			"0.013": 0.0,
			"0.014": 0.0,
			"0.015": 0.0,
			"0.016": 0.0,
			"0.017": 0.0,
			"0.018": 0.0,
			"0.019": 0.0,
			"0.02": 0.0,
			"0.021": 0.0,
			"0.022": 0.0,
			"0.023": 0.0,
			"0.024": 0.0,
			"0.025": 0.0
		}
	}
}
