{
	 "smiles": "CN1CCC(C)(O)CC1", 
	 "Tm": 336.15, 
	 "num_atms": 24, 
	 "gaussian": { 
		 "optdone": 1, 
		 "sigma_profile": "yes", 
		 "theory": "DFT", 
		 "functional": "B3LYP", 
		 "basiset": "6-31G**", 
		 "properties": { 
			 "R2extent": 1544.7756, 
			 "electric_dipole_moment_norm": 2.04762295602, 
			 "electric_quadrupole_moment_norm": 7.89033528755, 
			 "total_energy": -405.749090861, 
			 "HOMO_LUMO_gap": 0.27673, 
			 "cosmo_polarized_energy": -7.05, 
			 "cosmo_cavitation_energy": 23.8, 
			 "cosmo_dispersion_energy": -17.62, 
			 "cosmo_repulsion_energy": 1.43, 
			 "cosmo_total_nonelectrostatic_energy": 7.61, 
			 "SMD_solvation_energy": 2.68 
		},
		"coords": [
			{
				"x": 0.9910627326,
				"y": 1.1554374935,
				"z": 1.3692165917,
				"element": "C" 
			},
			{
				"x": 0.5317794543,
				"y": 0.2153289887,
				"z": 0.3628774127,
				"element": "N" 
			},
			{
				"x": 0.5678263695,
				"y": -1.1652669054,
				"z": 0.858338853,
				"element": "C" 
			},
			{
				"x": -0.234757338,
				"y": -2.121774741,
				"z": -0.0484627171,
				"element": "C" 
			},
			{
				"x": -0.3311709086,
				"y": -1.633050431,
				"z": -1.5051300094,
				"element": "C" 
			},
			{
				"x": 1.0384805116,
				"y": -1.5990315169,
				"z": -2.1866825431,
				"element": "C" 
			},
			{
				"x": -1.0961748954,
				"y": -2.564428983,
				"z": -2.2822184797,
				"element": "O" 
			},
			{
				"x": -1.0100694468,
				"y": -0.2343184324,
				"z": -1.5080220746,
				"element": "C" 
			},
			{
				"x": -0.7712872291,
				"y": 0.5538474168,
				"z": -0.2015238813,
				"element": "C" 
			},
			{
				"x": 0.341865641,
				"y": 1.1902167616,
				"z": 2.2666269714,
				"element": "H" 
			},
			{
				"x": 1.040563755,
				"y": 2.1639535403,
				"z": 0.9460440845,
				"element": "H" 
			},
			{
				"x": 1.9980258392,
				"y": 0.8783565777,
				"z": 1.7000191772,
				"element": "H" 
			},
			{
				"x": 0.167254559,
				"y": -1.2316113428,
				"z": 1.8890493893,
				"element": "H" 
			},
			{
				"x": 1.6186796634,
				"y": -1.4764712102,
				"z": 0.9107240088,
				"element": "H" 
			},
			{
				"x": 0.2017640834,
				"y": -3.1252820788,
				"z": -0.0260336549,
				"element": "H" 
			},
			{
				"x": -1.2589157477,
				"y": -2.2182956198,
				"z": 0.3391592817,
				"element": "H" 
			},
			{
				"x": 1.5107780265,
				"y": -2.5854908973,
				"z": -2.1402558019,
				"element": "H" 
			},
			{
				"x": 1.6850904896,
				"y": -0.8607190205,
				"z": -1.7084487212,
				"element": "H" 
			},
			{
				"x": 0.9140947042,
				"y": -1.3322134913,
				"z": -3.2407794369,
				"element": "H" 
			},
			{
				"x": -1.965606501,
				"y": -2.6490855577,
				"z": -1.8678635494,
				"element": "H" 
			},
			{
				"x": -0.6506151533,
				"y": 0.3380721878,
				"z": -2.3694644581,
				"element": "H" 
			},
			{
				"x": -2.0894172983,
				"y": -0.3694929869,
				"z": -1.6516057104,
				"element": "H" 
			},
			{
				"x": -1.5913217388,
				"y": 0.3638458412,
				"z": 0.5209900735,
				"element": "H" 
			},
			{
				"x": -0.7908295721,
				"y": 1.6295744074,
				"z": -0.4055548056,
				"element": "H" 
			}
		],
		 "valence_orbital": [ 
			{
				"type": "occ",
				"energy": -0.32893,
				"method": "rhf"
			},
			{
				"type": "occ",
				"energy": -0.3232,
				"method": "rhf"
			},
			{
				"type": "occ",
				"energy": -0.30406,
				"method": "rhf"
			},
			{
				"type": "occ",
				"energy": -0.25376,
				"method": "rhf"
			},
			{
				"type": "occ",
				"energy": -0.20758,
				"method": "rhf"
			},
			{
				"type": "unocc",
				"energy": 0.06915,
				"method": "rhf"
			},
			{
				"type": "unocc",
				"energy": 0.0906,
				"method": "rhf"
			},
			{
				"type": "unocc",
				"energy": 0.11532,
				"method": "rhf"
			},
			{
				"type": "unocc",
				"energy": 0.12398,
				"method": "rhf"
			},
			{
				"type": "unocc",
				"energy": 0.1243,
				"method": "rhf"
			}
		],
		"cosmo_sigma_profile": { 
			"-0.025": 0.0,
			"-0.024": 0.0,
			"-0.023": 0.0,
			"-0.022": 0.0,
			"-0.021": 0.0,
			"-0.02": 0.0,
			"-0.019": 0.0,
			"-0.018": 0.0,
			"-0.017": 0.0,
			"-0.016": 0.0,
			"-0.015": 0.149396704396,
			"-0.014": 0.660574643061,
			"-0.013": 0.897010147047,
			"-0.012": 0.911369735351,
			"-0.011": 1.02200602006,
			"-0.01": 1.16167920924,
			"-0.009": 0.965868443996,
			"-0.008": 1.00274314196,
			"-0.007": 1.36309951235,
			"-0.006": 1.09384278067,
			"-0.005": 2.2443870501,
			"-0.004": 4.7084849934,
			"-0.003": 16.4342239587,
			"-0.002": 27.9302071591,
			"-0.001": 36.7317187891,
			"0.0": 32.3174228755,
			"0.001": 16.5631659658,
			"0.002": 7.92785282026,
			"0.003": 3.37246682698,
			"0.004": 3.11235315657,
			"0.005": 2.14406102431,
			"0.006": 2.30594385547,
			"0.007": 2.45850544301,
			"0.008": 2.31162204353,
			"0.009": 1.65550476594,
			"0.01": 1.96850006301,
			"0.011": 2.42282461274,
			"0.012": 1.24386386213,
			"0.013": 1.65789728286,
			"0.014": 1.55600472622,
			"0.015": 1.80062698014,
			"0.016": 0.00821898204333,
			"0.017": 0.0,
			"0.018": 0.0,
			"0.019": 0.0,
			"0.02": 0.0,
			"0.021": 0.0,
			"0.022": 0.0,
			"0.023": 0.0,
			"0.024": 0.0,
			"0.025": 0.0
		}
	}
}
