{
	 "smiles": "[O-][N+](=O)C1=C(CBr)C=CC(=C1)C(F)(F)F", 
	 "Tm": 310.65, 
	 "num_atms": 20, 
	 "gaussian": { 
		 "optdone": 1, 
		 "sigma_profile": "yes", 
		 "theory": "DFT", 
		 "functional": "B3LYP", 
		 "basiset": "6-31G**", 
		 "properties": { 
			 "R2extent": 6140.5926, 
			 "electric_dipole_moment_norm": 4.1901855484, 
			 "electric_quadrupole_moment_norm": 13.944808268, 
			 "total_energy": -3383.89126384, 
			 "HOMO_LUMO_gap": 0.17345, 
			 "cosmo_polarized_energy": -10.35, 
			 "cosmo_cavitation_energy": 28.95, 
			 "cosmo_dispersion_energy": -20.61, 
			 "cosmo_repulsion_energy": 1.55, 
			 "cosmo_total_nonelectrostatic_energy": 9.89, 
			 "SMD_solvation_energy": 7.01 
		},
		"coords": [
			{
				"x": -1.6858422886,
				"y": -2.5622497882,
				"z": -2.4790851086,
				"element": "O" 
			},
			{
				"x": -1.0864140937,
				"y": -1.5777881949,
				"z": -2.9033654229,
				"element": "N" 
			},
			{
				"x": -0.9257105653,
				"y": -1.3220582751,
				"z": -4.0952490774,
				"element": "O" 
			},
			{
				"x": -0.5039098396,
				"y": -0.6583996856,
				"z": -1.9000916794,
				"element": "C" 
			},
			{
				"x": -0.1364284658,
				"y": 0.6673878127,
				"z": -2.2074328269,
				"element": "C" 
			},
			{
				"x": -0.3036587226,
				"y": 1.3402150017,
				"z": -3.5378195566,
				"element": "C" 
			},
			{
				"x": -2.1939290326,
				"y": 1.9013373779,
				"z": -3.8226357915,
				"element": "Br" 
			},
			{
				"x": 0.4123233521,
				"y": 1.4226059335,
				"z": -1.1592878968,
				"element": "C" 
			},
			{
				"x": 0.6043630877,
				"y": 0.8974433015,
				"z": 0.1139830872,
				"element": "C" 
			},
			{
				"x": 0.2302910217,
				"y": -0.4205851474,
				"z": 0.38215705,
				"element": "C" 
			},
			{
				"x": -0.3311162748,
				"y": -1.1966963239,
				"z": -0.6265050662,
				"element": "C" 
			},
			{
				"x": 0.3861345247,
				"y": -0.982216049,
				"z": 1.7728984412,
				"element": "C" 
			},
			{
				"x": 1.491949442,
				"y": -0.4955225158,
				"z": 2.3762137446,
				"element": "F" 
			},
			{
				"x": -0.6667974313,
				"y": -0.6569753678,
				"z": 2.5531647389,
				"element": "F" 
			},
			{
				"x": 0.4785175446,
				"y": -2.3267664435,
				"z": 1.7617017968,
				"element": "F" 
			},
			{
				"x": -0.0732485334,
				"y": 0.6967707434,
				"z": -4.377862551,
				"element": "H" 
			},
			{
				"x": 0.2700011774,
				"y": 2.2637378844,
				"z": -3.5745273341,
				"element": "H" 
			},
			{
				"x": 0.6937283782,
				"y": 2.452294704,
				"z": -1.3570655084,
				"element": "H" 
			},
			{
				"x": 1.0473892334,
				"y": 1.5063225106,
				"z": 0.8945502429,
				"element": "H" 
			},
			{
				"x": -0.6332425141,
				"y": -2.2195574785,
				"z": -0.4451412819,
				"element": "H" 
			}
		],
		 "valence_orbital": [ 
			{
				"type": "occ",
				"energy": -0.31339,
				"method": "rhf"
			},
			{
				"type": "occ",
				"energy": -0.30191,
				"method": "rhf"
			},
			{
				"type": "occ",
				"energy": -0.29725,
				"method": "rhf"
			},
			{
				"type": "occ",
				"energy": -0.28334,
				"method": "rhf"
			},
			{
				"type": "occ",
				"energy": -0.28174,
				"method": "rhf"
			},
			{
				"type": "unocc",
				"energy": -0.10829,
				"method": "rhf"
			},
			{
				"type": "unocc",
				"energy": -0.06738,
				"method": "rhf"
			},
			{
				"type": "unocc",
				"energy": -0.02821,
				"method": "rhf"
			},
			{
				"type": "unocc",
				"energy": -0.00016,
				"method": "rhf"
			},
			{
				"type": "unocc",
				"energy": 0.06803,
				"method": "rhf"
			}
		],
		"cosmo_sigma_profile": { 
			"-0.025": 0.0,
			"-0.024": 0.0,
			"-0.023": 0.0,
			"-0.022": 0.0,
			"-0.021": 0.0,
			"-0.02": 0.0,
			"-0.019": 0.0,
			"-0.018": 0.0,
			"-0.017": 0.0,
			"-0.016": 0.0,
			"-0.015": 0.0,
			"-0.014": 0.0,
			"-0.013": 0.0,
			"-0.012": 0.0,
			"-0.011": 0.0,
			"-0.01": 1.34885279443,
			"-0.009": 4.77376419104,
			"-0.008": 6.88043898266,
			"-0.007": 8.72416788587,
			"-0.006": 9.92508300368,
			"-0.005": 11.0213877499,
			"-0.004": 11.935755611,
			"-0.003": 12.4901267927,
			"-0.002": 17.4501527952,
			"-0.001": 20.0147440497,
			"0.0": 17.9994498403,
			"0.001": 15.0375397079,
			"0.002": 29.4886045336,
			"0.003": 21.3190462892,
			"0.004": 8.37094088767,
			"0.005": 12.8338317305,
			"0.006": 10.764700558,
			"0.007": 6.89993712397,
			"0.008": 4.64217078204,
			"0.009": 3.57212241062,
			"0.01": 0.571200629031,
			"0.011": 0.0,
			"0.012": 0.0,
			"0.013": 0.0,
			"0.014": 0.0,
			"0.015": 0.0,
			"0.016": 0.0,
			"0.017": 0.0,
			"0.018": 0.0,
			"0.019": 0.0,
			"0.02": 0.0,
			"0.021": 0.0,
			"0.022": 0.0,
			"0.023": 0.0,
			"0.024": 0.0,
			"0.025": 0.0
		}
	}
}
