{
	 "smiles": "CC(CCC(O)=O)C1CCC2C3CCC4CC(O)CCC4(C)C3CCC12C", 
	 "Tm": 459.15, 
	 "num_atms": 67, 
	 "gaussian": { 
		 "optdone": 1, 
		 "sigma_profile": "yes", 
		 "theory": "DFT", 
		 "functional": "B3LYP", 
		 "basiset": "6-31G**", 
		 "properties": { 
			 "R2extent": 12704.8321, 
			 "electric_dipole_moment_norm": 2.5133742101, 
			 "electric_quadrupole_moment_norm": 14.8250951147, 
			 "total_energy": -1164.36003102, 
			 "HOMO_LUMO_gap": 0.26369, 
			 "cosmo_polarized_energy": -13.74, 
			 "cosmo_cavitation_energy": 55.53, 
			 "cosmo_dispersion_energy": -37.26, 
			 "cosmo_repulsion_energy": 2.74, 
			 "cosmo_total_nonelectrostatic_energy": 21.01, 
			 "SMD_solvation_energy": 8.42 
		},
		"coords": [
			{
				"x": -4.5815078784,
				"y": -0.095783678,
				"z": -2.3863123336,
				"element": "C" 
			},
			{
				"x": -3.4797896998,
				"y": 0.6909631115,
				"z": -1.6503663787,
				"element": "C" 
			},
			{
				"x": -3.7790213122,
				"y": 2.206821394,
				"z": -1.6968693941,
				"element": "C" 
			},
			{
				"x": -5.1399864851,
				"y": 2.6390448216,
				"z": -1.1052479629,
				"element": "C" 
			},
			{
				"x": -5.3295726299,
				"y": 2.1839095356,
				"z": 0.3235666734,
				"element": "C" 
			},
			{
				"x": -4.4226694645,
				"y": 2.7556913427,
				"z": 1.1605780881,
				"element": "O" 
			},
			{
				"x": -6.1628552581,
				"y": 1.3980132383,
				"z": 0.7185122249,
				"element": "O" 
			},
			{
				"x": -2.0712361245,
				"y": 0.3620784926,
				"z": -2.2185067303,
				"element": "C" 
			},
			{
				"x": -1.815634833,
				"y": -1.1440455093,
				"z": -2.4238617303,
				"element": "C" 
			},
			{
				"x": -0.3091415474,
				"y": -1.2312139977,
				"z": -2.6774536172,
				"element": "C" 
			},
			{
				"x": 0.3440758843,
				"y": -0.1772326478,
				"z": -1.7452068724,
				"element": "C" 
			},
			{
				"x": 1.0177458032,
				"y": -0.8136702685,
				"z": -0.4995296704,
				"element": "C" 
			},
			{
				"x": 2.0978318304,
				"y": 0.0958532508,
				"z": 0.1423439699,
				"element": "C" 
			},
			{
				"x": 2.3937202114,
				"y": -0.2745436781,
				"z": 1.6117821416,
				"element": "C" 
			},
			{
				"x": 2.2016755037,
				"y": -1.7783210008,
				"z": 1.8854061261,
				"element": "C" 
			},
			{
				"x": 3.2165553337,
				"y": -2.6105865527,
				"z": 1.0592783998,
				"element": "C" 
			},
			{
				"x": 2.9209055355,
				"y": -4.1107248408,
				"z": 0.9991018789,
				"element": "C" 
			},
			{
				"x": 3.7951522692,
				"y": -4.7795491811,
				"z": 0.091722724,
				"element": "O" 
			},
			{
				"x": 1.4911850779,
				"y": -4.339709086,
				"z": 0.5250479937,
				"element": "C" 
			},
			{
				"x": 0.517674954,
				"y": -3.6944287745,
				"z": 1.5151810195,
				"element": "C" 
			},
			{
				"x": 0.6808776843,
				"y": -2.1585718282,
				"z": 1.7260929377,
				"element": "C" 
			},
			{
				"x": -0.0047542589,
				"y": -1.8585766793,
				"z": 3.0812736403,
				"element": "C" 
			},
			{
				"x": -0.0079887157,
				"y": -1.3680238051,
				"z": 0.5190544124,
				"element": "C" 
			},
			{
				"x": -1.0582004618,
				"y": -0.2765220981,
				"z": 0.9064611405,
				"element": "C" 
			},
			{
				"x": -0.9861028071,
				"y": 1.0280254078,
				"z": 0.0886192849,
				"element": "C" 
			},
			{
				"x": -0.788998883,
				"y": 0.8895303832,
				"z": -1.4402271372,
				"element": "C" 
			},
			{
				"x": -0.3430509924,
				"y": 2.2574500749,
				"z": -2.0015066499,
				"element": "C" 
			},
			{
				"x": -5.5649364508,
				"y": 0.1033641605,
				"z": -1.9523642165,
				"element": "H" 
			},
			{
				"x": -4.6170961295,
				"y": 0.173336474,
				"z": -3.4497353661,
				"element": "H" 
			},
			{
				"x": -4.4206042873,
				"y": -1.1740915395,
				"z": -2.3204407484,
				"element": "H" 
			},
			{
				"x": -3.5062749947,
				"y": 0.3700878817,
				"z": -0.599903095,
				"element": "H" 
			},
			{
				"x": -3.7442979928,
				"y": 2.545777059,
				"z": -2.7406805736,
				"element": "H" 
			},
			{
				"x": -3.0006164451,
				"y": 2.7575742479,
				"z": -1.1653382143,
				"element": "H" 
			},
			{
				"x": -5.9798555217,
				"y": 2.2489310152,
				"z": -1.6816747519,
				"element": "H" 
			},
			{
				"x": -5.1969772329,
				"y": 3.7335370362,
				"z": -1.1246525848,
				"element": "H" 
			},
			{
				"x": -4.6054832411,
				"y": 2.3903500845,
				"z": 2.0426128809,
				"element": "H" 
			},
			{
				"x": -2.0273864534,
				"y": 0.8194123006,
				"z": -3.2200688912,
				"element": "H" 
			},
			{
				"x": -2.3967252059,
				"y": -1.5606379582,
				"z": -3.2518036581,
				"element": "H" 
			},
			{
				"x": -2.0959064869,
				"y": -1.7056722631,
				"z": -1.5235751722,
				"element": "H" 
			},
			{
				"x": -0.1082839355,
				"y": -0.9715151162,
				"z": -3.7242039085,
				"element": "H" 
			},
			{
				"x": 0.0938456233,
				"y": -2.2382965453,
				"z": -2.5231504062,
				"element": "H" 
			},
			{
				"x": 1.1506543689,
				"y": 0.3212967817,
				"z": -2.296974805,
				"element": "H" 
			},
			{
				"x": 1.5519038535,
				"y": -1.6847259743,
				"z": -0.8925373052,
				"element": "H" 
			},
			{
				"x": 3.01226832,
				"y": 0.011931447,
				"z": -0.4580957479,
				"element": "H" 
			},
			{
				"x": 1.8134988527,
				"y": 1.1508590746,
				"z": 0.0885458653,
				"element": "H" 
			},
			{
				"x": 3.4124855394,
				"y": 0.0320356482,
				"z": 1.8794678764,
				"element": "H" 
			},
			{
				"x": 1.7263990093,
				"y": 0.2910012762,
				"z": 2.2736732692,
				"element": "H" 
			},
			{
				"x": 2.4477455706,
				"y": -1.9614380193,
				"z": 2.9407014616,
				"element": "H" 
			},
			{
				"x": 4.2171167549,
				"y": -2.445463114,
				"z": 1.486038949,
				"element": "H" 
			},
			{
				"x": 3.2705801148,
				"y": -2.2645435084,
				"z": 0.0225877097,
				"element": "H" 
			},
			{
				"x": 3.0222458987,
				"y": -4.5467082965,
				"z": 2.0095272028,
				"element": "H" 
			},
			{
				"x": 4.7029644822,
				"y": -4.5975883201,
				"z": 0.3679972924,
				"element": "H" 
			},
			{
				"x": 1.3001092373,
				"y": -5.4161474189,
				"z": 0.4505949646,
				"element": "H" 
			},
			{
				"x": 1.3805295663,
				"y": -3.9287288257,
				"z": -0.4861646034,
				"element": "H" 
			},
			{
				"x": -0.5193686905,
				"y": -3.9051135102,
				"z": 1.2263425216,
				"element": "H" 
			},
			{
				"x": 0.6635595282,
				"y": -4.1935472624,
				"z": 2.4833578684,
				"element": "H" 
			},
			{
				"x": -1.0826604185,
				"y": -2.0485178958,
				"z": 3.0418395231,
				"element": "H" 
			},
			{
				"x": 0.1404025859,
				"y": -0.8276520612,
				"z": 3.4163965444,
				"element": "H" 
			},
			{
				"x": 0.4144475078,
				"y": -2.507952122,
				"z": 3.8568416061,
				"element": "H" 
			},
			{
				"x": -0.5658162423,
				"y": -2.1320145006,
				"z": -0.0328620895,
				"element": "H" 
			},
			{
				"x": -0.9630437987,
				"y": 0.0148137011,
				"z": 1.9534610123,
				"element": "H" 
			},
			{
				"x": -2.0616879417,
				"y": -0.7105545978,
				"z": 0.8201977089,
				"element": "H" 
			},
			{
				"x": -1.8779079813,
				"y": 1.6240808915,
				"z": 0.3087379894,
				"element": "H" 
			},
			{
				"x": -0.1514293043,
				"y": 1.6241151146,
				"z": 0.4737047647,
				"element": "H" 
			},
			{
				"x": 0.5960594468,
				"y": 2.5805077981,
				"z": -1.5384179373,
				"element": "H" 
			},
			{
				"x": -0.1739043009,
				"y": 2.1998665915,
				"z": -3.0829495774,
				"element": "H" 
			},
			{
				"x": -1.0807419407,
				"y": 3.0457528383,
				"z": -1.8241675367,
				"element": "H" 
			}
		],
		 "valence_orbital": [ 
			{
				"type": "occ",
				"energy": -0.27204,
				"method": "rhf"
			},
			{
				"type": "occ",
				"energy": -0.27166,
				"method": "rhf"
			},
			{
				"type": "occ",
				"energy": -0.27027,
				"method": "rhf"
			},
			{
				"type": "occ",
				"energy": -0.26535,
				"method": "rhf"
			},
			{
				"type": "occ",
				"energy": -0.25522,
				"method": "rhf"
			},
			{
				"type": "unocc",
				"energy": 0.00847,
				"method": "rhf"
			},
			{
				"type": "unocc",
				"energy": 0.06045,
				"method": "rhf"
			},
			{
				"type": "unocc",
				"energy": 0.06923,
				"method": "rhf"
			},
			{
				"type": "unocc",
				"energy": 0.07273,
				"method": "rhf"
			},
			{
				"type": "unocc",
				"energy": 0.07932,
				"method": "rhf"
			}
		],
		"cosmo_sigma_profile": { 
			"-0.025": 0.0,
			"-0.024": 0.0,
			"-0.023": 0.0,
			"-0.022": 0.0,
			"-0.021": 0.0,
			"-0.02": 0.0,
			"-0.019": 0.0,
			"-0.018": 0.362835177948,
			"-0.017": 0.901930138727,
			"-0.016": 0.860765166491,
			"-0.015": 1.0271463401,
			"-0.014": 1.53192467627,
			"-0.013": 1.43183080856,
			"-0.012": 1.84240713787,
			"-0.011": 1.93699406642,
			"-0.01": 1.41388283374,
			"-0.009": 1.42913657529,
			"-0.008": 1.39884313027,
			"-0.007": 1.44635912169,
			"-0.006": 3.63865882047,
			"-0.005": 5.32737760698,
			"-0.004": 7.05881875442,
			"-0.003": 19.7453935349,
			"-0.002": 71.2640194926,
			"-0.001": 84.697043587,
			"0.0": 73.4045457033,
			"0.001": 53.9928857642,
			"0.002": 37.1344309448,
			"0.003": 8.19505985804,
			"0.004": 4.74889538856,
			"0.005": 4.18566700076,
			"0.006": 3.42314174392,
			"0.007": 3.66878470386,
			"0.008": 3.4092484737,
			"0.009": 3.66970817044,
			"0.01": 4.52936150738,
			"0.011": 2.96292752265,
			"0.012": 6.60624172902,
			"0.013": 3.11648724441,
			"0.014": 1.77448310911,
			"0.015": 1.70392274146,
			"0.016": 0.0043975836856,
			"0.017": 0.0,
			"0.018": 0.0,
			"0.019": 0.0,
			"0.02": 0.0,
			"0.021": 0.0,
			"0.022": 0.0,
			"0.023": 0.0,
			"0.024": 0.0,
			"0.025": 0.0
		}
	}
}
