{
	 "smiles": "COC1=CC(C)=C(CCl)C=C1CCl", 
	 "Tm": 351.15, 
	 "num_atms": 25, 
	 "gaussian": { 
		 "optdone": 1, 
		 "sigma_profile": "yes", 
		 "theory": "DFT", 
		 "functional": "B3LYP", 
		 "basiset": "6-31G**", 
		 "properties": { 
			 "R2extent": 5309.8103, 
			 "electric_dipole_moment_norm": 3.05248983782, 
			 "electric_quadrupole_moment_norm": 18.5661058276, 
			 "total_energy": -1383.91384955, 
			 "HOMO_LUMO_gap": 0.19505, 
			 "cosmo_polarized_energy": -10.87, 
			 "cosmo_cavitation_energy": 31.56, 
			 "cosmo_dispersion_energy": -22.49, 
			 "cosmo_repulsion_energy": 1.82, 
			 "cosmo_total_nonelectrostatic_energy": 10.89, 
			 "SMD_solvation_energy": 5.4 
		},
		"coords": [
			{
				"x": -1.144238531,
				"y": -0.9515880011,
				"z": 1.7737540845,
				"element": "C" 
			},
			{
				"x": -0.467370504,
				"y": -0.8208634731,
				"z": 0.5313116822,
				"element": "O" 
			},
			{
				"x": 0.4965407219,
				"y": 0.1294211291,
				"z": 0.4031272069,
				"element": "C" 
			},
			{
				"x": 0.8896912692,
				"y": 0.9932210222,
				"z": 1.4310196714,
				"element": "C" 
			},
			{
				"x": 1.8915030215,
				"y": 1.9501886937,
				"z": 1.2348627266,
				"element": "C" 
			},
			{
				"x": 2.2861981189,
				"y": 2.8600825465,
				"z": 2.373952825,
				"element": "C" 
			},
			{
				"x": 2.5142164501,
				"y": 2.0396268488,
				"z": -0.0266048828,
				"element": "C" 
			},
			{
				"x": 3.586157825,
				"y": 3.0430561864,
				"z": -0.308142632,
				"element": "C" 
			},
			{
				"x": 5.2553866217,
				"y": 2.5033887032,
				"z": 0.2816175413,
				"element": "Cl" 
			},
			{
				"x": 2.1133038114,
				"y": 1.1647293285,
				"z": -1.0428391468,
				"element": "C" 
			},
			{
				"x": 1.1170711152,
				"y": 0.2082587544,
				"z": -0.8609954955,
				"element": "C" 
			},
			{
				"x": 0.7125670408,
				"y": -0.7085430044,
				"z": -1.9684494406,
				"element": "C" 
			},
			{
				"x": -0.7398355781,
				"y": -0.0783413774,
				"z": -2.9144101838,
				"element": "Cl" 
			},
			{
				"x": -1.6766563353,
				"y": -0.0302317425,
				"z": 2.0390618823,
				"element": "H" 
			},
			{
				"x": -0.4532542939,
				"y": -1.2172393511,
				"z": 2.5834303298,
				"element": "H" 
			},
			{
				"x": -1.8662162233,
				"y": -1.7574003686,
				"z": 1.6365079327,
				"element": "H" 
			},
			{
				"x": 0.4168419513,
				"y": 0.9308098384,
				"z": 2.404118585,
				"element": "H" 
			},
			{
				"x": 3.3587821265,
				"y": 2.7936679064,
				"z": 2.5829341534,
				"element": "H" 
			},
			{
				"x": 2.0669230351,
				"y": 3.9101624302,
				"z": 2.144296257,
				"element": "H" 
			},
			{
				"x": 1.7443273305,
				"y": 2.6043655363,
				"z": 3.2877599536,
				"element": "H" 
			},
			{
				"x": 3.7099888349,
				"y": 3.2110242685,
				"z": -1.3773475723,
				"element": "H" 
			},
			{
				"x": 3.4181495804,
				"y": 3.9986302407,
				"z": 0.187462008,
				"element": "H" 
			},
			{
				"x": 2.5952424055,
				"y": 1.2314622935,
				"z": -2.0157702714,
				"element": "H" 
			},
			{
				"x": 0.4037674823,
				"y": -1.684445012,
				"z": -1.599359046,
				"element": "H" 
			},
			{
				"x": 1.5059127233,
				"y": -0.8197433965,
				"z": -2.7067981683,
				"element": "H" 
			}
		],
		 "valence_orbital": [ 
			{
				"type": "occ",
				"energy": -0.29189,
				"method": "rhf"
			},
			{
				"type": "occ",
				"energy": -0.28802,
				"method": "rhf"
			},
			{
				"type": "occ",
				"energy": -0.28517,
				"method": "rhf"
			},
			{
				"type": "occ",
				"energy": -0.25596,
				"method": "rhf"
			},
			{
				"type": "occ",
				"energy": -0.22774,
				"method": "rhf"
			},
			{
				"type": "unocc",
				"energy": -0.03269,
				"method": "rhf"
			},
			{
				"type": "unocc",
				"energy": -0.01977,
				"method": "rhf"
			},
			{
				"type": "unocc",
				"energy": 0.03065,
				"method": "rhf"
			},
			{
				"type": "unocc",
				"energy": 0.0542,
				"method": "rhf"
			},
			{
				"type": "unocc",
				"energy": 0.08126,
				"method": "rhf"
			}
		],
		"cosmo_sigma_profile": { 
			"-0.025": 0.0,
			"-0.024": 0.0,
			"-0.023": 0.0,
			"-0.022": 0.0,
			"-0.021": 0.0,
			"-0.02": 0.0,
			"-0.019": 0.0,
			"-0.018": 0.0,
			"-0.017": 0.0,
			"-0.016": 0.0,
			"-0.015": 0.0,
			"-0.014": 0.0,
			"-0.013": 0.0,
			"-0.012": 0.0,
			"-0.011": 0.0,
			"-0.01": 0.0,
			"-0.009": 0.0,
			"-0.008": 2.54385792616,
			"-0.007": 11.2635404138,
			"-0.006": 18.7407403671,
			"-0.005": 21.3618885384,
			"-0.004": 21.4810111687,
			"-0.003": 18.0093385543,
			"-0.002": 14.5641936579,
			"-0.001": 15.5903436525,
			"0.0": 14.4043235726,
			"0.001": 14.0622147796,
			"0.002": 13.4543328239,
			"0.003": 15.8491241445,
			"0.004": 18.4875911349,
			"0.005": 14.6200512061,
			"0.006": 16.2103279206,
			"0.007": 19.7077709849,
			"0.008": 3.59459892585,
			"0.009": 0.148135153037,
			"0.01": 0.0,
			"0.011": 0.0,
			"0.012": 0.0,
			"0.013": 0.0,
			"0.014": 0.0,
			"0.015": 0.0,
			"0.016": 0.0,
			"0.017": 0.0,
			"0.018": 0.0,
			"0.019": 0.0,
			"0.02": 0.0,
			"0.021": 0.0,
			"0.022": 0.0,
			"0.023": 0.0,
			"0.024": 0.0,
			"0.025": 0.0
		}
	}
}
