{
	 "smiles": "CCC(C)C1CC(C(C)CC)C(=C1)C(O)CC(=O)CC(O)=O", 
	 "Tm": 456.15, 
	 "num_atms": 52, 
	 "gaussian": { 
		 "optdone": 1, 
		 "sigma_profile": "yes", 
		 "theory": "DFT", 
		 "functional": "B3LYP", 
		 "basiset": "6-31G**", 
		 "properties": { 
			 "R2extent": 8141.4669, 
			 "electric_dipole_moment_norm": 6.48466760058, 
			 "electric_quadrupole_moment_norm": 20.9061050516, 
			 "total_energy": -1004.90534316, 
			 "HOMO_LUMO_gap": 0.19527, 
			 "cosmo_polarized_energy": -17.43, 
			 "cosmo_cavitation_energy": 50.96, 
			 "cosmo_dispersion_energy": -31.6, 
			 "cosmo_repulsion_energy": 2.41, 
			 "cosmo_total_nonelectrostatic_energy": 21.78, 
			 "SMD_solvation_energy": 9.46 
		},
		"coords": [
			{
				"x": 0.3967520634,
				"y": -0.2057107123,
				"z": -4.4399011742,
				"element": "C" 
			},
			{
				"x": 0.1832461402,
				"y": -0.6713245563,
				"z": -2.9948201318,
				"element": "C" 
			},
			{
				"x": -1.2687761082,
				"y": -0.5328645653,
				"z": -2.4904382684,
				"element": "C" 
			},
			{
				"x": -2.2065655752,
				"y": -1.5608210974,
				"z": -3.1427519086,
				"element": "C" 
			},
			{
				"x": -1.3903380944,
				"y": -0.5804665538,
				"z": -0.9442960325,
				"element": "C" 
			},
			{
				"x": -0.8587309368,
				"y": -1.8569082362,
				"z": -0.2451833703,
				"element": "C" 
			},
			{
				"x": -0.3824506959,
				"y": -1.4153013293,
				"z": 1.1705705618,
				"element": "C" 
			},
			{
				"x": -1.3979184139,
				"y": -1.5950035302,
				"z": 2.3572765932,
				"element": "C" 
			},
			{
				"x": -2.3586196078,
				"y": -2.7810690882,
				"z": 2.1671080955,
				"element": "C" 
			},
			{
				"x": -0.6375053825,
				"y": -1.7435260063,
				"z": 3.6974985814,
				"element": "C" 
			},
			{
				"x": -1.4872291163,
				"y": -1.5127163477,
				"z": 4.952708162,
				"element": "C" 
			},
			{
				"x": -0.0469124963,
				"y": 0.05955122,
				"z": 0.9139600918,
				"element": "C" 
			},
			{
				"x": -0.6179221202,
				"y": 0.4967349351,
				"z": -0.2168761326,
				"element": "C" 
			},
			{
				"x": 0.7985883792,
				"y": 0.912678545,
				"z": 1.83078867,
				"element": "C" 
			},
			{
				"x": 0.7843020544,
				"y": 2.2930107752,
				"z": 1.4745824867,
				"element": "O" 
			},
			{
				"x": 2.289179045,
				"y": 0.4771559386,
				"z": 1.8456767228,
				"element": "C" 
			},
			{
				"x": 2.8807302263,
				"y": 0.3592069563,
				"z": 0.4543703557,
				"element": "C" 
			},
			{
				"x": 3.0006062483,
				"y": -0.7452526568,
				"z": -0.0699287,
				"element": "O" 
			},
			{
				"x": 3.2985908983,
				"y": 1.6382957698,
				"z": -0.2413444433,
				"element": "C" 
			},
			{
				"x": 3.62550877,
				"y": 1.6021338372,
				"z": -1.7428554096,
				"element": "C" 
			},
			{
				"x": 3.6839632323,
				"y": 0.3988809558,
				"z": -2.3290772243,
				"element": "O" 
			},
			{
				"x": 3.8239383159,
				"y": 2.6281362001,
				"z": -2.3486353003,
				"element": "O" 
			},
			{
				"x": 1.4557827266,
				"y": -0.2639680006,
				"z": -4.7084941567,
				"element": "H" 
			},
			{
				"x": 0.0820662896,
				"y": 0.8363283517,
				"z": -4.5691095341,
				"element": "H" 
			},
			{
				"x": -0.1641649699,
				"y": -0.8137439741,
				"z": -5.1575486764,
				"element": "H" 
			},
			{
				"x": 0.8499508099,
				"y": -0.0952147124,
				"z": -2.3432013055,
				"element": "H" 
			},
			{
				"x": 0.5063741615,
				"y": -1.7168780474,
				"z": -2.9044599921,
				"element": "H" 
			},
			{
				"x": -1.6190068612,
				"y": 0.4682896232,
				"z": -2.7878398127,
				"element": "H" 
			},
			{
				"x": -3.2408020991,
				"y": -1.4254759884,
				"z": -2.8062762052,
				"element": "H" 
			},
			{
				"x": -1.905874857,
				"y": -2.5848049529,
				"z": -2.8916994835,
				"element": "H" 
			},
			{
				"x": -2.2014589833,
				"y": -1.4746553294,
				"z": -4.2333337201,
				"element": "H" 
			},
			{
				"x": -2.4625313449,
				"y": -0.4547642753,
				"z": -0.7159927733,
				"element": "H" 
			},
			{
				"x": 0.0210578471,
				"y": -2.2138738343,
				"z": -0.7890016201,
				"element": "H" 
			},
			{
				"x": -1.5794141502,
				"y": -2.6753599006,
				"z": -0.231494447,
				"element": "H" 
			},
			{
				"x": 0.5186259885,
				"y": -1.9855523587,
				"z": 1.434348458,
				"element": "H" 
			},
			{
				"x": -2.0101373641,
				"y": -0.6828328169,
				"z": 2.4152636998,
				"element": "H" 
			},
			{
				"x": -3.0404122526,
				"y": -2.6292900042,
				"z": 1.3261622169,
				"element": "H" 
			},
			{
				"x": -2.9776467684,
				"y": -2.9264003367,
				"z": 3.0574703355,
				"element": "H" 
			},
			{
				"x": -1.8083927011,
				"y": -3.7133237135,
				"z": 1.9921510227,
				"element": "H" 
			},
			{
				"x": -0.1906250007,
				"y": -2.7472751461,
				"z": 3.7320734189,
				"element": "H" 
			},
			{
				"x": 0.2082687641,
				"y": -1.0466327921,
				"z": 3.7243639248,
				"element": "H" 
			},
			{
				"x": -1.9212287379,
				"y": -0.5060134301,
				"z": 4.9556368303,
				"element": "H" 
			},
			{
				"x": -0.881357668,
				"y": -1.6146368233,
				"z": 5.8590054863,
				"element": "H" 
			},
			{
				"x": -2.312182206,
				"y": -2.2272903797,
				"z": 5.0315994147,
				"element": "H" 
			},
			{
				"x": -0.5489401872,
				"y": 1.514632233,
				"z": -0.5913642339,
				"element": "H" 
			},
			{
				"x": 0.4446054994,
				"y": 0.8042634424,
				"z": 2.8674404855,
				"element": "H" 
			},
			{
				"x": -0.1396842044,
				"y": 2.5600879557,
				"z": 1.3787674803,
				"element": "H" 
			},
			{
				"x": 2.8396227013,
				"y": 1.216496803,
				"z": 2.4374800822,
				"element": "H" 
			},
			{
				"x": 2.3721167766,
				"y": -0.5015313647,
				"z": 2.3239875663,
				"element": "H" 
			},
			{
				"x": 2.5260689733,
				"y": 2.3949409062,
				"z": -0.0702087648,
				"element": "H" 
			},
			{
				"x": 4.1869260468,
				"y": 2.0248658704,
				"z": 0.2780741577,
				"element": "H" 
			},
			{
				"x": 3.4921569453,
				"y": -0.2921074574,
				"z": -1.6494320795,
				"element": "H" 
			}
		],
		 "valence_orbital": [ 
			{
				"type": "occ",
				"energy": -0.29695,
				"method": "rhf"
			},
			{
				"type": "occ",
				"energy": -0.29455,
				"method": "rhf"
			},
			{
				"type": "occ",
				"energy": -0.28287,
				"method": "rhf"
			},
			{
				"type": "occ",
				"energy": -0.25614,
				"method": "rhf"
			},
			{
				"type": "occ",
				"energy": -0.24356,
				"method": "rhf"
			},
			{
				"type": "unocc",
				"energy": -0.04829,
				"method": "rhf"
			},
			{
				"type": "unocc",
				"energy": 0.00674,
				"method": "rhf"
			},
			{
				"type": "unocc",
				"energy": 0.02215,
				"method": "rhf"
			},
			{
				"type": "unocc",
				"energy": 0.05856,
				"method": "rhf"
			},
			{
				"type": "unocc",
				"energy": 0.07328,
				"method": "rhf"
			}
		],
		"cosmo_sigma_profile": { 
			"-0.025": 0.0,
			"-0.024": 0.0,
			"-0.023": 0.0,
			"-0.022": 0.0,
			"-0.021": 0.0,
			"-0.02": 0.0,
			"-0.019": 0.0,
			"-0.018": 0.0,
			"-0.017": 0.0,
			"-0.016": 0.131188288212,
			"-0.015": 0.601567261884,
			"-0.014": 0.762233050444,
			"-0.013": 1.21852516366,
			"-0.012": 0.729332015003,
			"-0.011": 0.459323587764,
			"-0.01": 1.93165361002,
			"-0.009": 5.69426729964,
			"-0.008": 4.84184216577,
			"-0.007": 5.05257739331,
			"-0.006": 6.90878803066,
			"-0.005": 11.424922456,
			"-0.004": 17.1749587454,
			"-0.003": 24.7286867323,
			"-0.002": 49.5024266902,
			"-0.001": 59.4360784402,
			"0.0": 54.3483239824,
			"0.001": 52.3015393003,
			"0.002": 29.1986169624,
			"0.003": 14.780703692,
			"0.004": 8.3032302079,
			"0.005": 5.20380337756,
			"0.006": 4.77136587771,
			"0.007": 4.07151324285,
			"0.008": 4.08170654565,
			"0.009": 4.53433999831,
			"0.01": 5.23892324011,
			"0.011": 5.75109772088,
			"0.012": 6.21565748195,
			"0.013": 4.45445304946,
			"0.014": 0.61980153711,
			"0.015": 0.0,
			"0.016": 0.0,
			"0.017": 0.0,
			"0.018": 0.0,
			"0.019": 0.0,
			"0.02": 0.0,
			"0.021": 0.0,
			"0.022": 0.0,
			"0.023": 0.0,
			"0.024": 0.0,
			"0.025": 0.0
		}
	}
}
