{
	 "smiles": "OC(=O)C1CCCN1C(=O)C1=C(O)C2=C(C=CC=C2)C=C1", 
	 "Tm": 471.15, 
	 "num_atms": 36, 
	 "gaussian": { 
		 "optdone": 1, 
		 "sigma_profile": "yes", 
		 "theory": "DFT", 
		 "functional": "B3LYP", 
		 "basiset": "6-31G**", 
		 "properties": { 
			 "R2extent": 8016.369, 
			 "electric_dipole_moment_norm": 7.04526075671, 
			 "electric_quadrupole_moment_norm": 21.5279358056, 
			 "total_energy": -974.428107307, 
			 "HOMO_LUMO_gap": 0.15396, 
			 "cosmo_polarized_energy": -17.12, 
			 "cosmo_cavitation_energy": 37.87, 
			 "cosmo_dispersion_energy": -28.2, 
			 "cosmo_repulsion_energy": 2.1, 
			 "cosmo_total_nonelectrostatic_energy": 11.77, 
			 "SMD_solvation_energy": 6.83 
		},
		"coords": [
			{
				"x": 2.4625532374,
				"y": 2.7311643102,
				"z": -1.7779132177,
				"element": "O" 
			},
			{
				"x": 3.3969980773,
				"y": 1.9632514131,
				"z": -1.2540583919,
				"element": "C" 
			},
			{
				"x": 4.5788156996,
				"y": 2.0930280337,
				"z": -1.4973679493,
				"element": "O" 
			},
			{
				"x": 3.0501766337,
				"y": 0.744079447,
				"z": -0.3594488602,
				"element": "C" 
			},
			{
				"x": 3.3283050532,
				"y": -0.5474437208,
				"z": -1.1605259726,
				"element": "C" 
			},
			{
				"x": 2.7430275508,
				"y": -1.6808351005,
				"z": -0.2936806365,
				"element": "C" 
			},
			{
				"x": 1.8567299332,
				"y": -0.9748638846,
				"z": 0.7623777883,
				"element": "C" 
			},
			{
				"x": 1.7439371385,
				"y": 0.4286006374,
				"z": 0.3032398204,
				"element": "N" 
			},
			{
				"x": 0.6080861291,
				"y": 1.1637923151,
				"z": 0.3614551321,
				"element": "C" 
			},
			{
				"x": 0.4435815211,
				"y": 2.1809453449,
				"z": -0.376052378,
				"element": "O" 
			},
			{
				"x": -0.4966862601,
				"y": 0.7879349132,
				"z": 1.2736825929,
				"element": "C" 
			},
			{
				"x": -1.80800806,
				"y": 1.1552562059,
				"z": 0.9196587578,
				"element": "C" 
			},
			{
				"x": -2.0983504364,
				"y": 1.8633241263,
				"z": -0.1804452657,
				"element": "O" 
			},
			{
				"x": -2.918235597,
				"y": 0.7622597362,
				"z": 1.7380310065,
				"element": "C" 
			},
			{
				"x": -2.6723641748,
				"y": 0.0707336071,
				"z": 2.9625803007,
				"element": "C" 
			},
			{
				"x": -3.7814607291,
				"y": -0.3004804634,
				"z": 3.7643334048,
				"element": "C" 
			},
			{
				"x": -5.0690667179,
				"y": -0.0027158766,
				"z": 3.370564302,
				"element": "C" 
			},
			{
				"x": -5.3062480517,
				"y": 0.6864535317,
				"z": 2.159104875,
				"element": "C" 
			},
			{
				"x": -4.2498246339,
				"y": 1.0668981936,
				"z": 1.3588737019,
				"element": "C" 
			},
			{
				"x": -1.3280647184,
				"y": -0.2002464844,
				"z": 3.3508399907,
				"element": "C" 
			},
			{
				"x": -0.2873765408,
				"y": 0.1438501723,
				"z": 2.5317662296,
				"element": "C" 
			},
			{
				"x": 1.5850726506,
				"y": 2.5466659277,
				"z": -1.3260368038,
				"element": "H" 
			},
			{
				"x": 3.779405125,
				"y": 0.811343456,
				"z": 0.4573540403,
				"element": "H" 
			},
			{
				"x": 2.8108223966,
				"y": -0.4851549304,
				"z": -2.1232177789,
				"element": "H" 
			},
			{
				"x": 4.3950719658,
				"y": -0.6489347793,
				"z": -1.3603695607,
				"element": "H" 
			},
			{
				"x": 2.1562786772,
				"y": -2.3794234564,
				"z": -0.8952140938,
				"element": "H" 
			},
			{
				"x": 3.5290134226,
				"y": -2.2575068433,
				"z": 0.2009869872,
				"element": "H" 
			},
			{
				"x": 2.3402972162,
				"y": -1.0101774937,
				"z": 1.7454986969,
				"element": "H" 
			},
			{
				"x": 0.8658293857,
				"y": -1.4161080736,
				"z": 0.855809568,
				"element": "H" 
			},
			{
				"x": -1.2391585469,
				"y": 2.2071269159,
				"z": -0.5245759178,
				"element": "H" 
			},
			{
				"x": -3.5985638669,
				"y": -0.8248892551,
				"z": 4.6983917045,
				"element": "H" 
			},
			{
				"x": -5.9080317608,
				"y": -0.2953591178,
				"z": 3.9954766877,
				"element": "H" 
			},
			{
				"x": -6.3243662213,
				"y": 0.9188241285,
				"z": 1.8617512488,
				"element": "H" 
			},
			{
				"x": -4.4167188496,
				"y": 1.6009062288,
				"z": 0.4306028625,
				"element": "H" 
			},
			{
				"x": -1.1395513454,
				"y": -0.6737645198,
				"z": 4.3096268018,
				"element": "H" 
			},
			{
				"x": 0.7276746978,
				"y": -0.041934645,
				"z": 2.8618003266,
				"element": "H" 
			}
		],
		 "valence_orbital": [ 
			{
				"type": "occ",
				"energy": -0.27844,
				"method": "rhf"
			},
			{
				"type": "occ",
				"energy": -0.27333,
				"method": "rhf"
			},
			{
				"type": "occ",
				"energy": -0.25982,
				"method": "rhf"
			},
			{
				"type": "occ",
				"energy": -0.2571,
				"method": "rhf"
			},
			{
				"type": "occ",
				"energy": -0.21695,
				"method": "rhf"
			},
			{
				"type": "unocc",
				"energy": -0.06299,
				"method": "rhf"
			},
			{
				"type": "unocc",
				"energy": -0.03772,
				"method": "rhf"
			},
			{
				"type": "unocc",
				"energy": 0.00831,
				"method": "rhf"
			},
			{
				"type": "unocc",
				"energy": 0.02109,
				"method": "rhf"
			},
			{
				"type": "unocc",
				"energy": 0.03119,
				"method": "rhf"
			}
		],
		"cosmo_sigma_profile": { 
			"-0.025": 0.0,
			"-0.024": 0.0,
			"-0.023": 0.0,
			"-0.022": 0.0,
			"-0.021": 0.0,
			"-0.02": 0.0,
			"-0.019": 0.0,
			"-0.018": 0.0,
			"-0.017": 0.0,
			"-0.016": 0.0,
			"-0.015": 0.0,
			"-0.014": 0.0,
			"-0.013": 0.0,
			"-0.012": 0.0,
			"-0.011": 0.0,
			"-0.01": 0.0,
			"-0.009": 0.0,
			"-0.008": 1.51783825752,
			"-0.007": 8.16082806383,
			"-0.006": 21.4640509559,
			"-0.005": 26.1028503328,
			"-0.004": 35.3621523309,
			"-0.003": 29.4223621662,
			"-0.002": 21.0911707176,
			"-0.001": 18.4338936156,
			"0.0": 15.0770162219,
			"0.001": 16.0403146079,
			"0.002": 19.4156491347,
			"0.003": 21.1067268036,
			"0.004": 20.9053898397,
			"0.005": 10.2927323376,
			"0.006": 4.64890246144,
			"0.007": 3.23479707417,
			"0.008": 5.79490938014,
			"0.009": 4.19058761223,
			"0.01": 3.65197892502,
			"0.011": 4.61607433149,
			"0.012": 5.75423438396,
			"0.013": 4.24326411159,
			"0.014": 1.21723210109,
			"0.015": 0.0011259163183,
			"0.016": 0.0,
			"0.017": 0.0,
			"0.018": 0.0,
			"0.019": 0.0,
			"0.02": 0.0,
			"0.021": 0.0,
			"0.022": 0.0,
			"0.023": 0.0,
			"0.024": 0.0,
			"0.025": 0.0
		}
	}
}
