{
	 "smiles": "CC1=NC=C(CSSCC2=C(CO)C(O)=C(C)N=C2)C(CO)=C1O", 
	 "Tm": 492.15, 
	 "num_atms": 44, 
	 "gaussian": { 
		 "optdone": 1, 
		 "sigma_profile": "yes", 
		 "theory": "DFT", 
		 "functional": "B3LYP", 
		 "basiset": "6-31G**", 
		 "properties": { 
			 "R2extent": 12364.9562, 
			 "electric_dipole_moment_norm": 3.48079850178, 
			 "electric_quadrupole_moment_norm": 15.4823934568, 
			 "total_energy": -1828.53001528, 
			 "HOMO_LUMO_gap": 0.1778, 
			 "cosmo_polarized_energy": -23.8, 
			 "cosmo_cavitation_energy": 48.7, 
			 "cosmo_dispersion_energy": -34.04, 
			 "cosmo_repulsion_energy": 2.51, 
			 "cosmo_total_nonelectrostatic_energy": 17.17, 
			 "SMD_solvation_energy": 4.89 
		},
		"coords": [
			{
				"x": 3.8451982902,
				"y": -2.6137360012,
				"z": -3.0331676839,
				"element": "C" 
			},
			{
				"x": 3.2636516724,
				"y": -1.6602885319,
				"z": -2.025632325,
				"element": "C" 
			},
			{
				"x": 1.9702800493,
				"y": -1.7759124842,
				"z": -1.7101925725,
				"element": "N" 
			},
			{
				"x": 1.4470363031,
				"y": -0.9288529716,
				"z": -0.8164917497,
				"element": "C" 
			},
			{
				"x": 2.1728947157,
				"y": 0.0727495968,
				"z": -0.1648731395,
				"element": "C" 
			},
			{
				"x": 1.4599554484,
				"y": 0.9738466716,
				"z": 0.8072466003,
				"element": "C" 
			},
			{
				"x": 1.0977458644,
				"y": 2.5884135035,
				"z": -0.0671711184,
				"element": "S" 
			},
			{
				"x": 0.5261298849,
				"y": 3.9028354249,
				"z": 1.4412051246,
				"element": "S" 
			},
			{
				"x": -1.329039378,
				"y": 3.7548341713,
				"z": 1.5663886199,
				"element": "C" 
			},
			{
				"x": -1.8554492572,
				"y": 2.5403079937,
				"z": 2.2856428056,
				"element": "C" 
			},
			{
				"x": -2.3250589793,
				"y": 1.3790164611,
				"z": 1.6389538396,
				"element": "C" 
			},
			{
				"x": -2.4192489297,
				"y": 1.2434044364,
				"z": 0.1361205335,
				"element": "C" 
			},
			{
				"x": -1.9486193298,
				"y": -0.0687943656,
				"z": -0.2404633852,
				"element": "O" 
			},
			{
				"x": -2.7968258367,
				"y": 0.327082848,
				"z": 2.4441971384,
				"element": "C" 
			},
			{
				"x": -3.278296141,
				"y": -0.8331708443,
				"z": 1.9248900352,
				"element": "O" 
			},
			{
				"x": -2.8034158776,
				"y": 0.4571784305,
				"z": 3.8484483518,
				"element": "C" 
			},
			{
				"x": -3.3184268413,
				"y": -0.663348241,
				"z": 4.7096305142,
				"element": "C" 
			},
			{
				"x": -2.3644499807,
				"y": 1.5700400646,
				"z": 4.4441702011,
				"element": "N" 
			},
			{
				"x": -1.9066589524,
				"y": 2.5672852892,
				"z": 3.683465136,
				"element": "C" 
			},
			{
				"x": 3.5399077869,
				"y": 0.2071187249,
				"z": -0.4811224357,
				"element": "C" 
			},
			{
				"x": 4.4552872677,
				"y": 1.2080464772,
				"z": 0.1937507666,
				"element": "C" 
			},
			{
				"x": 5.357600968,
				"y": 1.8422124539,
				"z": -0.7335127819,
				"element": "O" 
			},
			{
				"x": 4.0791366824,
				"y": -0.6707638292,
				"z": -1.4343217772,
				"element": "C" 
			},
			{
				"x": 5.3818397036,
				"y": -0.6187598084,
				"z": -1.8176729094,
				"element": "O" 
			},
			{
				"x": 3.0588564714,
				"y": -3.2747809872,
				"z": -3.4002991069,
				"element": "H" 
			},
			{
				"x": 4.2929669,
				"y": -2.0729364642,
				"z": -3.8741346427,
				"element": "H" 
			},
			{
				"x": 4.6462133828,
				"y": -3.2167769041,
				"z": -2.5907225644,
				"element": "H" 
			},
			{
				"x": 0.3885569096,
				"y": -1.0469561542,
				"z": -0.5936758233,
				"element": "H" 
			},
			{
				"x": 2.0453702666,
				"y": 1.2092325121,
				"z": 1.6979588711,
				"element": "H" 
			},
			{
				"x": 0.5125529721,
				"y": 0.532566114,
				"z": 1.1161858305,
				"element": "H" 
			},
			{
				"x": -1.7393564241,
				"y": 3.8840968183,
				"z": 0.5643632328,
				"element": "H" 
			},
			{
				"x": -1.5809972786,
				"y": 4.6581882323,
				"z": 2.1321810118,
				"element": "H" 
			},
			{
				"x": -3.468276571,
				"y": 1.3585324772,
				"z": -0.1784068394,
				"element": "H" 
			},
			{
				"x": -1.8195294654,
				"y": 2.002783408,
				"z": -0.3697211265,
				"element": "H" 
			},
			{
				"x": -2.0513461473,
				"y": -0.1721603785,
				"z": -1.1957310876,
				"element": "H" 
			},
			{
				"x": -2.9374089794,
				"y": -0.9120874174,
				"z": 1.0123439852,
				"element": "H" 
			},
			{
				"x": -4.3746574036,
				"y": -0.8696047595,
				"z": 4.5023507599,
				"element": "H" 
			},
			{
				"x": -2.7754934875,
				"y": -1.5936647897,
				"z": 4.5106642302,
				"element": "H" 
			},
			{
				"x": -3.2053089727,
				"y": -0.3913109153,
				"z": 5.7599843352,
				"element": "H" 
			},
			{
				"x": -1.5554559063,
				"y": 3.4512974508,
				"z": 4.2144933768,
				"element": "H" 
			},
			{
				"x": 5.1101566816,
				"y": 0.6971690674,
				"z": 0.9088513923,
				"element": "H" 
			},
			{
				"x": 3.8892218911,
				"y": 1.9672007171,
				"z": 0.7390659514,
				"element": "H" 
			},
			{
				"x": 4.8249066122,
				"y": 2.3915622255,
				"z": -1.3263963109,
				"element": "H" 
			},
			{
				"x": 5.7336534151,
				"y": 0.2536042768,
				"z": -1.5451432638,
				"element": "H" 
			}
		],
		 "valence_orbital": [ 
			{
				"type": "occ",
				"energy": -0.25039,
				"method": "rhf"
			},
			{
				"type": "occ",
				"energy": -0.24842,
				"method": "rhf"
			},
			{
				"type": "occ",
				"energy": -0.24618,
				"method": "rhf"
			},
			{
				"type": "occ",
				"energy": -0.22505,
				"method": "rhf"
			},
			{
				"type": "occ",
				"energy": -0.22227,
				"method": "rhf"
			},
			{
				"type": "unocc",
				"energy": -0.04447,
				"method": "rhf"
			},
			{
				"type": "unocc",
				"energy": -0.03329,
				"method": "rhf"
			},
			{
				"type": "unocc",
				"energy": -0.02165,
				"method": "rhf"
			},
			{
				"type": "unocc",
				"energy": -0.01383,
				"method": "rhf"
			},
			{
				"type": "unocc",
				"energy": -0.00246,
				"method": "rhf"
			}
		],
		"cosmo_sigma_profile": { 
			"-0.025": 0.0,
			"-0.024": 0.0,
			"-0.023": 0.0,
			"-0.022": 0.0,
			"-0.021": 0.0,
			"-0.02": 0.0,
			"-0.019": 0.0,
			"-0.018": 0.185449881429,
			"-0.017": 1.28748479377,
			"-0.016": 1.73486210043,
			"-0.015": 2.16862828034,
			"-0.014": 1.94855447986,
			"-0.013": 1.22845515936,
			"-0.012": 1.61861032559,
			"-0.011": 1.88714532892,
			"-0.01": 1.99807163017,
			"-0.009": 2.54298418793,
			"-0.008": 7.0937639084,
			"-0.007": 12.7640469713,
			"-0.006": 19.8905928492,
			"-0.005": 21.6252493329,
			"-0.004": 24.5860486491,
			"-0.003": 24.2364285253,
			"-0.002": 25.7063587957,
			"-0.001": 26.3013675954,
			"0.0": 30.8549099206,
			"0.001": 32.704183279,
			"0.002": 30.9288006379,
			"0.003": 23.4644974062,
			"0.004": 19.8711240272,
			"0.005": 14.8362457816,
			"0.006": 11.626099328,
			"0.007": 9.4587753774,
			"0.008": 8.11656395885,
			"0.009": 6.90296894924,
			"0.01": 5.81837055732,
			"0.011": 5.55381235917,
			"0.012": 2.58521792966,
			"0.013": 1.59378007665,
			"0.014": 2.04761931896,
			"0.015": 1.44347083486,
			"0.016": 1.64314780404,
			"0.017": 0.328344858351,
			"0.018": 0.0,
			"0.019": 0.0,
			"0.02": 0.0,
			"0.021": 0.0,
			"0.022": 0.0,
			"0.023": 0.0,
			"0.024": 0.0,
			"0.025": 0.0
		}
	}
}
