{
	 "smiles": "CCCCCCCCCCCN", 
	 "Tm": 289.65, 
	 "num_atms": 37, 
	 "gaussian": { 
		 "optdone": 1, 
		 "sigma_profile": "yes", 
		 "theory": "DFT", 
		 "functional": "B3LYP", 
		 "basiset": "6-31G**", 
		 "properties": { 
			 "R2extent": 4099.0632, 
			 "electric_dipole_moment_norm": 1.27618027723, 
			 "electric_quadrupole_moment_norm": 7.78258245828, 
			 "total_energy": -489.011479203, 
			 "HOMO_LUMO_gap": 0.29424, 
			 "cosmo_polarized_energy": -5.15, 
			 "cosmo_cavitation_energy": 35.99, 
			 "cosmo_dispersion_energy": -24.52, 
			 "cosmo_repulsion_energy": 2.03, 
			 "cosmo_total_nonelectrostatic_energy": 13.5, 
			 "SMD_solvation_energy": 3.7 
		},
		"coords": [
			{
				"x": -1.1278869293,
				"y": -3.8543811744,
				"z": 1.0673604744,
				"element": "C" 
			},
			{
				"x": -1.6712858501,
				"y": -2.8206569751,
				"z": 2.0608306573,
				"element": "C" 
			},
			{
				"x": -0.706400581,
				"y": -2.4761454352,
				"z": 3.2094689588,
				"element": "C" 
			},
			{
				"x": 0.6282276955,
				"y": -1.8299980576,
				"z": 2.7977383542,
				"element": "C" 
			},
			{
				"x": 0.4944273933,
				"y": -0.4611517225,
				"z": 2.115486297,
				"element": "C" 
			},
			{
				"x": 1.8538638398,
				"y": 0.1964690709,
				"z": 1.8290411584,
				"element": "C" 
			},
			{
				"x": 1.7995024087,
				"y": 1.5966699844,
				"z": 1.1788565557,
				"element": "C" 
			},
			{
				"x": 1.7996132521,
				"y": 1.6317690338,
				"z": -0.3624197929,
				"element": "C" 
			},
			{
				"x": 0.5757827458,
				"y": 1.0426392512,
				"z": -1.0879279807,
				"element": "C" 
			},
			{
				"x": -0.7744681354,
				"y": 1.7223613358,
				"z": -0.7966411138,
				"element": "C" 
			},
			{
				"x": -0.8433372847,
				"y": 3.2130184651,
				"z": -1.1525555842,
				"element": "C" 
			},
			{
				"x": -0.6217217364,
				"y": 3.432309873,
				"z": -2.5878265351,
				"element": "N" 
			},
			{
				"x": -0.2427324885,
				"y": -3.4870022063,
				"z": 0.5374974091,
				"element": "H" 
			},
			{
				"x": -1.8788644816,
				"y": -4.1076064142,
				"z": 0.3117247715,
				"element": "H" 
			},
			{
				"x": -0.844515841,
				"y": -4.7822890635,
				"z": 1.5781532545,
				"element": "H" 
			},
			{
				"x": -2.6024954392,
				"y": -3.2028383223,
				"z": 2.4984991249,
				"element": "H" 
			},
			{
				"x": -1.9502395798,
				"y": -1.9068461514,
				"z": 1.520866275,
				"element": "H" 
			},
			{
				"x": -0.4915934642,
				"y": -3.3947885751,
				"z": 3.7728727588,
				"element": "H" 
			},
			{
				"x": -1.2204616679,
				"y": -1.8045051204,
				"z": 3.9109005872,
				"element": "H" 
			},
			{
				"x": 1.2483493198,
				"y": -1.7161313337,
				"z": 3.6976073405,
				"element": "H" 
			},
			{
				"x": 1.1852884638,
				"y": -2.5099009825,
				"z": 2.139017228,
				"element": "H" 
			},
			{
				"x": -0.0953374928,
				"y": 0.2067075404,
				"z": 2.7605094562,
				"element": "H" 
			},
			{
				"x": -0.0766367552,
				"y": -0.5652454118,
				"z": 1.1863487804,
				"element": "H" 
			},
			{
				"x": 2.4598828142,
				"y": -0.472611803,
				"z": 1.2009145889,
				"element": "H" 
			},
			{
				"x": 2.393547045,
				"y": 0.2737454266,
				"z": 2.7825755297,
				"element": "H" 
			},
			{
				"x": 2.6794837156,
				"y": 2.1633688463,
				"z": 1.5086825805,
				"element": "H" 
			},
			{
				"x": 0.9339008312,
				"y": 2.1474915902,
				"z": 1.5709689453,
				"element": "H" 
			},
			{
				"x": 2.6949193136,
				"y": 1.1023514704,
				"z": -0.716704668,
				"element": "H" 
			},
			{
				"x": 1.9338916335,
				"y": 2.6759994029,
				"z": -0.6768898013,
				"element": "H" 
			},
			{
				"x": 0.7623604948,
				"y": 1.0829371611,
				"z": -2.1693455527,
				"element": "H" 
			},
			{
				"x": 0.489082533,
				"y": -0.0252218257,
				"z": -0.853588742,
				"element": "H" 
			},
			{
				"x": -1.0286239903,
				"y": 1.6099518607,
				"z": 0.2649132919,
				"element": "H" 
			},
			{
				"x": -1.5539295417,
				"y": 1.2017610313,
				"z": -1.3656403716,
				"element": "H" 
			},
			{
				"x": -0.151990686,
				"y": 3.7803739301,
				"z": -0.5038439633,
				"element": "H" 
			},
			{
				"x": -1.8502184995,
				"y": 3.5772890366,
				"z": -0.9160976803,
				"element": "H" 
			},
			{
				"x": 0.3552733868,
				"y": 3.2665788802,
				"z": -2.8173118817,
				"element": "H" 
			},
			{
				"x": -0.7993564421,
				"y": 4.4068273838,
				"z": -2.8180407109,
				"element": "H" 
			}
		],
		 "valence_orbital": [ 
			{
				"type": "occ",
				"energy": -0.30993,
				"method": "rhf"
			},
			{
				"type": "occ",
				"energy": -0.30518,
				"method": "rhf"
			},
			{
				"type": "occ",
				"energy": -0.30118,
				"method": "rhf"
			},
			{
				"type": "occ",
				"energy": -0.29333,
				"method": "rhf"
			},
			{
				"type": "occ",
				"energy": -0.22807,
				"method": "rhf"
			},
			{
				"type": "unocc",
				"energy": 0.06617,
				"method": "rhf"
			},
			{
				"type": "unocc",
				"energy": 0.08127,
				"method": "rhf"
			},
			{
				"type": "unocc",
				"energy": 0.10364,
				"method": "rhf"
			},
			{
				"type": "unocc",
				"energy": 0.1067,
				"method": "rhf"
			},
			{
				"type": "unocc",
				"energy": 0.10901,
				"method": "rhf"
			}
		],
		"cosmo_sigma_profile": { 
			"-0.025": 0.0,
			"-0.024": 0.0,
			"-0.023": 0.0,
			"-0.022": 0.0,
			"-0.021": 0.0,
			"-0.02": 0.0,
			"-0.019": 0.0,
			"-0.018": 0.0,
			"-0.017": 0.0,
			"-0.016": 0.0,
			"-0.015": 0.0,
			"-0.014": 0.0,
			"-0.013": 0.0,
			"-0.012": 0.0,
			"-0.011": 0.0,
			"-0.01": 0.251310879125,
			"-0.009": 1.2266560978,
			"-0.008": 2.49165251486,
			"-0.007": 2.73743752901,
			"-0.006": 3.48347441809,
			"-0.005": 3.11044206222,
			"-0.004": 3.51803400417,
			"-0.003": 5.99111862738,
			"-0.002": 30.7280829087,
			"-0.001": 61.8503817656,
			"0.0": 66.8075425108,
			"0.001": 54.1789699419,
			"0.002": 23.9048316462,
			"0.003": 1.7495847227,
			"0.004": 1.47832668624,
			"0.005": 0.401820544497,
			"0.006": 0.474253512116,
			"0.007": 1.07924621437,
			"0.008": 1.25071550449,
			"0.009": 1.19929892909,
			"0.01": 0.377991127228,
			"0.011": 0.858818401304,
			"0.012": 0.798069499169,
			"0.013": 0.167785450867,
			"0.014": 0.624346777324,
			"0.015": 0.797887810075,
			"0.016": 0.510633626396,
			"0.017": 0.638333390343,
			"0.018": 0.744054990991,
			"0.019": 0.430171478962,
			"0.02": 0.446651758031,
			"0.021": 0.121179478933,
			"0.022": 0.0,
			"0.023": 0.0,
			"0.024": 0.0,
			"0.025": 0.0
		}
	}
}
