{
	 "smiles": "CCCCCCOC(=O)CCCCC", 
	 "Tm": 218.15, 
	 "num_atms": 38, 
	 "gaussian": { 
		 "optdone": 1, 
		 "sigma_profile": "yes", 
		 "theory": "DFT", 
		 "functional": "B3LYP", 
		 "basiset": "6-31G**", 
		 "properties": { 
			 "R2extent": 4687.2234, 
			 "electric_dipole_moment_norm": 1.69056964956, 
			 "electric_quadrupole_moment_norm": 8.98265751212, 
			 "total_energy": -622.232921529, 
			 "HOMO_LUMO_gap": 0.2815, 
			 "cosmo_polarized_energy": -5.9, 
			 "cosmo_cavitation_energy": 37.91, 
			 "cosmo_dispersion_energy": -25.4, 
			 "cosmo_repulsion_energy": 2.08, 
			 "cosmo_total_nonelectrostatic_energy": 14.59, 
			 "SMD_solvation_energy": 6.27 
		},
		"coords": [
			{
				"x": 3.1943874869,
				"y": -2.8990735927,
				"z": 0.5794648928,
				"element": "C" 
			},
			{
				"x": 1.9147540204,
				"y": -2.3353632301,
				"z": -0.0498358557,
				"element": "C" 
			},
			{
				"x": 2.1518657573,
				"y": -1.3464269475,
				"z": -1.2038616389,
				"element": "C" 
			},
			{
				"x": 2.9428990839,
				"y": -0.0743531161,
				"z": -0.844907933,
				"element": "C" 
			},
			{
				"x": 2.3473128088,
				"y": 0.8320770131,
				"z": 0.2481198227,
				"element": "C" 
			},
			{
				"x": 1.03723998,
				"y": 1.5283178513,
				"z": -0.096104469,
				"element": "C" 
			},
			{
				"x": -0.0404462517,
				"y": 0.5604774011,
				"z": -0.0569958117,
				"element": "O" 
			},
			{
				"x": -1.2838695329,
				"y": 1.0526691101,
				"z": -0.2553969405,
				"element": "C" 
			},
			{
				"x": -1.507721946,
				"y": 2.2248561652,
				"z": -0.4793076427,
				"element": "O" 
			},
			{
				"x": -2.3402213642,
				"y": -0.0259115519,
				"z": -0.102984372,
				"element": "C" 
			},
			{
				"x": -3.5814833586,
				"y": 0.1848379531,
				"z": -0.9863120715,
				"element": "C" 
			},
			{
				"x": -3.4453307507,
				"y": -0.3462507495,
				"z": -2.425038934,
				"element": "C" 
			},
			{
				"x": -2.3974497187,
				"y": 0.3366986092,
				"z": -3.3213282836,
				"element": "C" 
			},
			{
				"x": -2.6966636712,
				"y": 1.8056211157,
				"z": -3.6424039278,
				"element": "C" 
			},
			{
				"x": 2.9609865545,
				"y": -3.6464411391,
				"z": 1.345098289,
				"element": "H" 
			},
			{
				"x": 3.7947845139,
				"y": -2.1185967998,
				"z": 1.0591089079,
				"element": "H" 
			},
			{
				"x": 3.8264926084,
				"y": -3.3832923942,
				"z": -0.17441917,
				"element": "H" 
			},
			{
				"x": 1.3116523984,
				"y": -3.1681710115,
				"z": -0.4342328576,
				"element": "H" 
			},
			{
				"x": 1.3010972488,
				"y": -1.8562294049,
				"z": 0.7224750379,
				"element": "H" 
			},
			{
				"x": 1.1812057118,
				"y": -1.0624986522,
				"z": -1.6245169736,
				"element": "H" 
			},
			{
				"x": 2.6959961123,
				"y": -1.8642091866,
				"z": -2.0061646884,
				"element": "H" 
			},
			{
				"x": 3.070986001,
				"y": 0.523304908,
				"z": -1.7579627543,
				"element": "H" 
			},
			{
				"x": 3.956485267,
				"y": -0.3554581004,
				"z": -0.5326790436,
				"element": "H" 
			},
			{
				"x": 3.0730777255,
				"y": 1.6269194233,
				"z": 0.4645172677,
				"element": "H" 
			},
			{
				"x": 2.2157949807,
				"y": 0.2802239577,
				"z": 1.1865701756,
				"element": "H" 
			},
			{
				"x": 1.0659979639,
				"y": 1.9829546607,
				"z": -1.0928034024,
				"element": "H" 
			},
			{
				"x": 0.8092354337,
				"y": 2.3243491806,
				"z": 0.6195635771,
				"element": "H" 
			},
			{
				"x": -1.8842481928,
				"y": -1.0072112598,
				"z": -0.2674132619,
				"element": "H" 
			},
			{
				"x": -2.6349827161,
				"y": 0.0033673921,
				"z": 0.9549322586,
				"element": "H" 
			},
			{
				"x": -4.426443985,
				"y": -0.3304731478,
				"z": -0.5149995521,
				"element": "H" 
			},
			{
				"x": -3.8289423479,
				"y": 1.2514816154,
				"z": -0.9863833911,
				"element": "H" 
			},
			{
				"x": -3.2222006314,
				"y": -1.4213845208,
				"z": -2.3768050547,
				"element": "H" 
			},
			{
				"x": -4.4260768038,
				"y": -0.2642135421,
				"z": -2.9133583917,
				"element": "H" 
			},
			{
				"x": -2.3352893678,
				"y": -0.2314059706,
				"z": -4.2587044463,
				"element": "H" 
			},
			{
				"x": -1.4019418347,
				"y": 0.2551228591,
				"z": -2.8638709647,
				"element": "H" 
			},
			{
				"x": -2.660465815,
				"y": 2.4283345859,
				"z": -2.7447448562,
				"element": "H" 
			},
			{
				"x": -1.9648091139,
				"y": 2.2064412939,
				"z": -4.3518964094,
				"element": "H" 
			},
			{
				"x": -3.6892642551,
				"y": 1.9126092223,
				"z": -4.0962171308,
				"element": "H" 
			}
		],
		 "valence_orbital": [ 
			{
				"type": "occ",
				"energy": -0.31214,
				"method": "rhf"
			},
			{
				"type": "occ",
				"energy": -0.3115,
				"method": "rhf"
			},
			{
				"type": "occ",
				"energy": -0.31101,
				"method": "rhf"
			},
			{
				"type": "occ",
				"energy": -0.29375,
				"method": "rhf"
			},
			{
				"type": "occ",
				"energy": -0.26757,
				"method": "rhf"
			},
			{
				"type": "unocc",
				"energy": 0.01393,
				"method": "rhf"
			},
			{
				"type": "unocc",
				"energy": 0.06992,
				"method": "rhf"
			},
			{
				"type": "unocc",
				"energy": 0.08696,
				"method": "rhf"
			},
			{
				"type": "unocc",
				"energy": 0.10477,
				"method": "rhf"
			},
			{
				"type": "unocc",
				"energy": 0.10887,
				"method": "rhf"
			}
		],
		"cosmo_sigma_profile": { 
			"-0.025": 0.0,
			"-0.024": 0.0,
			"-0.023": 0.0,
			"-0.022": 0.0,
			"-0.021": 0.0,
			"-0.02": 0.0,
			"-0.019": 0.0,
			"-0.018": 0.0,
			"-0.017": 0.0,
			"-0.016": 0.0,
			"-0.015": 0.0,
			"-0.014": 0.0,
			"-0.013": 0.0,
			"-0.012": 0.0,
			"-0.011": 0.0,
			"-0.01": 0.0,
			"-0.009": 0.0,
			"-0.008": 0.0,
			"-0.007": 0.124221963757,
			"-0.006": 2.29628513854,
			"-0.005": 4.92894724284,
			"-0.004": 11.5233008923,
			"-0.003": 22.8141927856,
			"-0.002": 47.1393174538,
			"-0.001": 50.0163826169,
			"0.0": 53.9923927213,
			"0.001": 45.8135461952,
			"0.002": 21.8033676292,
			"0.003": 5.96297316979,
			"0.004": 4.7869843209,
			"0.005": 3.90201581414,
			"0.006": 3.55356378367,
			"0.007": 1.36371043209,
			"0.008": 1.90683657407,
			"0.009": 1.76366943028,
			"0.01": 1.53622031034,
			"0.011": 2.0043928959,
			"0.012": 3.32139255863,
			"0.013": 1.11942053168,
			"0.014": 0.0,
			"0.015": 0.0,
			"0.016": 0.0,
			"0.017": 0.0,
			"0.018": 0.0,
			"0.019": 0.0,
			"0.02": 0.0,
			"0.021": 0.0,
			"0.022": 0.0,
			"0.023": 0.0,
			"0.024": 0.0,
			"0.025": 0.0
		}
	}
}
