{
	 "smiles": "NC1=C(CN2CCNC2=O)C=CC=C1", 
	 "Tm": 416.15, 
	 "num_atms": 27, 
	 "gaussian": { 
		 "optdone": 1, 
		 "sigma_profile": "yes", 
		 "theory": "DFT", 
		 "functional": "B3LYP", 
		 "basiset": "6-31G**", 
		 "properties": { 
			 "R2extent": 3615.123, 
			 "electric_dipole_moment_norm": 4.1157269941, 
			 "electric_quadrupole_moment_norm": 12.8666831872, 
			 "total_energy": -628.401075711, 
			 "HOMO_LUMO_gap": 0.20462, 
			 "cosmo_polarized_energy": -17.21, 
			 "cosmo_cavitation_energy": 29.66, 
			 "cosmo_dispersion_energy": -21.5, 
			 "cosmo_repulsion_energy": 1.7, 
			 "cosmo_total_nonelectrostatic_energy": 9.86, 
			 "SMD_solvation_energy": 3.78 
		},
		"coords": [
			{
				"x": 0.647341238,
				"y": -1.099537067,
				"z": -1.3593571167,
				"element": "N" 
			},
			{
				"x": 1.2358930287,
				"y": -0.423696836,
				"z": -0.2783296302,
				"element": "C" 
			},
			{
				"x": 0.4597883369,
				"y": 0.3142966353,
				"z": 0.6436716893,
				"element": "C" 
			},
			{
				"x": -1.0436922315,
				"y": 0.4608976596,
				"z": 0.5067356895,
				"element": "C" 
			},
			{
				"x": -1.7900262147,
				"y": -0.5390478968,
				"z": 1.254359512,
				"element": "N" 
			},
			{
				"x": -1.8209427088,
				"y": -1.9500222643,
				"z": 0.897087217,
				"element": "C" 
			},
			{
				"x": -2.7709929899,
				"y": -2.5201841266,
				"z": 1.9694085773,
				"element": "C" 
			},
			{
				"x": -3.6156730866,
				"y": -1.3622252112,
				"z": 2.2450236948,
				"element": "N" 
			},
			{
				"x": -2.9221039149,
				"y": -0.1841733626,
				"z": 1.973843334,
				"element": "C" 
			},
			{
				"x": -3.2529432054,
				"y": 0.9451845233,
				"z": 2.3009120011,
				"element": "O" 
			},
			{
				"x": 1.0995840741,
				"y": 0.9096161685,
				"z": 1.7373285023,
				"element": "C" 
			},
			{
				"x": 2.472284124,
				"y": 0.7923621124,
				"z": 1.9441418087,
				"element": "C" 
			},
			{
				"x": 3.2320002628,
				"y": 0.0598064296,
				"z": 1.0295866947,
				"element": "C" 
			},
			{
				"x": 2.6219111178,
				"y": -0.5369459461,
				"z": -0.0687331715,
				"element": "C" 
			},
			{
				"x": 1.299685829,
				"y": -1.333573245,
				"z": -2.0963351473,
				"element": "H" 
			},
			{
				"x": -0.1819854815,
				"y": -0.6638076675,
				"z": -1.7393147651,
				"element": "H" 
			},
			{
				"x": -1.3557000481,
				"y": 0.4511496849,
				"z": -0.5512039082,
				"element": "H" 
			},
			{
				"x": -1.3654039424,
				"y": 1.422922396,
				"z": 0.9137786467,
				"element": "H" 
			},
			{
				"x": -0.8258166998,
				"y": -2.3996365421,
				"z": 0.9281057939,
				"element": "H" 
			},
			{
				"x": -2.23110437,
				"y": -2.0971714571,
				"z": -0.1152323667,
				"element": "H" 
			},
			{
				"x": -2.2043870714,
				"y": -2.8417764112,
				"z": 2.8556515652,
				"element": "H" 
			},
			{
				"x": -3.3500859618,
				"y": -3.3707600701,
				"z": 1.5991098792,
				"element": "H" 
			},
			{
				"x": -4.2081886081,
				"y": -1.3418911588,
				"z": 3.0629151769,
				"element": "H" 
			},
			{
				"x": 0.4933681868,
				"y": 1.4763267617,
				"z": 2.4400160735,
				"element": "H" 
			},
			{
				"x": 2.9415702605,
				"y": 1.2663990129,
				"z": 2.8003970468,
				"element": "H" 
			},
			{
				"x": 4.3051562435,
				"y": -0.0425530781,
				"z": 1.1653445945,
				"element": "H" 
			},
			{
				"x": 3.2178638326,
				"y": -1.1053590439,
				"z": -0.7795113918,
				"element": "H" 
			}
		],
		 "valence_orbital": [ 
			{
				"type": "occ",
				"energy": -0.25583,
				"method": "rhf"
			},
			{
				"type": "occ",
				"energy": -0.24801,
				"method": "rhf"
			},
			{
				"type": "occ",
				"energy": -0.24102,
				"method": "rhf"
			},
			{
				"type": "occ",
				"energy": -0.22793,
				"method": "rhf"
			},
			{
				"type": "occ",
				"energy": -0.20507,
				"method": "rhf"
			},
			{
				"type": "unocc",
				"energy": -0.00045,
				"method": "rhf"
			},
			{
				"type": "unocc",
				"energy": 0.01662,
				"method": "rhf"
			},
			{
				"type": "unocc",
				"energy": 0.05742,
				"method": "rhf"
			},
			{
				"type": "unocc",
				"energy": 0.07401,
				"method": "rhf"
			},
			{
				"type": "unocc",
				"energy": 0.09103,
				"method": "rhf"
			}
		],
		"cosmo_sigma_profile": { 
			"-0.025": 0.0,
			"-0.024": 0.0,
			"-0.023": 0.0,
			"-0.022": 0.0,
			"-0.021": 0.0,
			"-0.02": 0.0,
			"-0.019": 0.0,
			"-0.018": 0.0,
			"-0.017": 0.0,
			"-0.016": 0.0,
			"-0.015": 0.0,
			"-0.014": 0.27742886529,
			"-0.013": 1.47149353572,
			"-0.012": 3.18500018046,
			"-0.011": 3.86322865949,
			"-0.01": 4.46038809665,
			"-0.009": 4.01223623822,
			"-0.008": 3.60466556813,
			"-0.007": 3.99445528756,
			"-0.006": 5.89426558062,
			"-0.005": 16.0521537725,
			"-0.004": 26.8885104884,
			"-0.003": 23.9449348505,
			"-0.002": 17.476796799,
			"-0.001": 12.2148802127,
			"0.0": 10.0093687664,
			"0.001": 9.51347333296,
			"0.002": 8.99002230725,
			"0.003": 10.3408014314,
			"0.004": 9.51648391871,
			"0.005": 12.3496393729,
			"0.006": 11.6965339001,
			"0.007": 9.79796933335,
			"0.008": 3.30934835211,
			"0.009": 2.84612084045,
			"0.01": 2.50485291094,
			"0.011": 2.23521787765,
			"0.012": 1.99407680408,
			"0.013": 2.18439237068,
			"0.014": 6.04065403428,
			"0.015": 3.00639208493,
			"0.016": 0.0770553485208,
			"0.017": 0.0,
			"0.018": 0.0,
			"0.019": 0.0,
			"0.02": 0.0,
			"0.021": 0.0,
			"0.022": 0.0,
			"0.023": 0.0,
			"0.024": 0.0,
			"0.025": 0.0
		}
	}
}
