{
	 "smiles": "CCC(CC)(CNC(=O)OC(C)(C)C)C(O)=O", 
	 "Tm": 404.15, 
	 "num_atms": 40, 
	 "gaussian": { 
		 "optdone": 1, 
		 "sigma_profile": "yes", 
		 "theory": "DFT", 
		 "functional": "B3LYP", 
		 "basiset": "6-31G**", 
		 "properties": { 
			 "R2extent": 4694.7995, 
			 "electric_dipole_moment_norm": 3.33571203943, 
			 "electric_quadrupole_moment_norm": 11.9158460778, 
			 "total_energy": -826.852506775, 
			 "HOMO_LUMO_gap": 0.25059, 
			 "cosmo_polarized_energy": -15.77, 
			 "cosmo_cavitation_energy": 40.22, 
			 "cosmo_dispersion_energy": -26.13, 
			 "cosmo_repulsion_energy": 2.01, 
			 "cosmo_total_nonelectrostatic_energy": 16.1, 
			 "SMD_solvation_energy": 8.03 
		},
		"coords": [
			{
				"x": 0.8888162571,
				"y": 1.3633191573,
				"z": 4.0185384132,
				"element": "C" 
			},
			{
				"x": 0.1153897555,
				"y": 0.2646216128,
				"z": 3.2808636707,
				"element": "C" 
			},
			{
				"x": 0.7019221929,
				"y": -0.1635128794,
				"z": 1.909423329,
				"element": "C" 
			},
			{
				"x": 2.1441194262,
				"y": -0.7175557708,
				"z": 2.0142314143,
				"element": "C" 
			},
			{
				"x": 2.3271795649,
				"y": -1.9305995905,
				"z": 2.9342594049,
				"element": "C" 
			},
			{
				"x": -0.2789690788,
				"y": -1.2326660826,
				"z": 1.3101281021,
				"element": "C" 
			},
			{
				"x": 0.1756836504,
				"y": -1.9129471002,
				"z": 0.1138523914,
				"element": "N" 
			},
			{
				"x": -0.0647823361,
				"y": -1.5653597155,
				"z": -1.1920130509,
				"element": "C" 
			},
			{
				"x": 0.4583503746,
				"y": -2.1397973258,
				"z": -2.1324648064,
				"element": "O" 
			},
			{
				"x": -0.9578420575,
				"y": -0.5511439813,
				"z": -1.2659278135,
				"element": "O" 
			},
			{
				"x": -1.3156145638,
				"y": 0.0396408323,
				"z": -2.5659403632,
				"element": "C" 
			},
			{
				"x": -2.3047596198,
				"y": 1.1387952932,
				"z": -2.1688781863,
				"element": "C" 
			},
			{
				"x": -0.0670116647,
				"y": 0.6365055574,
				"z": -3.2245051315,
				"element": "C" 
			},
			{
				"x": -2.000904182,
				"y": -1.0066842037,
				"z": -3.4513461347,
				"element": "C" 
			},
			{
				"x": 0.7264404109,
				"y": 1.0206409568,
				"z": 0.9387680756,
				"element": "C" 
			},
			{
				"x": -0.3721811799,
				"y": 1.8119043274,
				"z": 1.0480906381,
				"element": "O" 
			},
			{
				"x": 1.5980865421,
				"y": 1.2537481923,
				"z": 0.1285636635,
				"element": "O" 
			},
			{
				"x": 0.9451169735,
				"y": 2.280939642,
				"z": 3.4245018498,
				"element": "H" 
			},
			{
				"x": 1.910248138,
				"y": 1.0557474816,
				"z": 4.2628644275,
				"element": "H" 
			},
			{
				"x": 0.3876388392,
				"y": 1.6124802842,
				"z": 4.9592347987,
				"element": "H" 
			},
			{
				"x": 0.0597809402,
				"y": -0.6274696409,
				"z": 3.9159878123,
				"element": "H" 
			},
			{
				"x": -0.916786495,
				"y": 0.5956345374,
				"z": 3.1277895284,
				"element": "H" 
			},
			{
				"x": 2.4836771779,
				"y": -0.9607863768,
				"z": 1.0038273168,
				"element": "H" 
			},
			{
				"x": 2.8039140458,
				"y": 0.0898868428,
				"z": 2.3479010803,
				"element": "H" 
			},
			{
				"x": 2.0789540303,
				"y": -1.7049903857,
				"z": 3.9762106612,
				"element": "H" 
			},
			{
				"x": 3.3706473187,
				"y": -2.259902244,
				"z": 2.913175736,
				"element": "H" 
			},
			{
				"x": 1.7141302485,
				"y": -2.7871966355,
				"z": 2.6312125785,
				"element": "H" 
			},
			{
				"x": -0.4580472492,
				"y": -1.9887325236,
				"z": 2.0821049159,
				"element": "H" 
			},
			{
				"x": -1.2366390621,
				"y": -0.7579750662,
				"z": 1.0926409874,
				"element": "H" 
			},
			{
				"x": 0.8715315948,
				"y": -2.6384451818,
				"z": 0.1977956183,
				"element": "H" 
			},
			{
				"x": -3.1760105659,
				"y": 0.7117113973,
				"z": -1.6637568581,
				"element": "H" 
			},
			{
				"x": -2.6470118662,
				"y": 1.6768635627,
				"z": -3.0576525015,
				"element": "H" 
			},
			{
				"x": -1.8346252335,
				"y": 1.8543173146,
				"z": -1.4885162754,
				"element": "H" 
			},
			{
				"x": 0.6271320487,
				"y": -0.1492898565,
				"z": -3.5232819307,
				"element": "H" 
			},
			{
				"x": 0.446003959,
				"y": 1.306892221,
				"z": -2.5281945381,
				"element": "H" 
			},
			{
				"x": -0.356713638,
				"y": 1.2096949799,
				"z": -4.1113649663,
				"element": "H" 
			},
			{
				"x": -2.3631573018,
				"y": -0.529819232,
				"z": -4.368162323,
				"element": "H" 
			},
			{
				"x": -1.3081871855,
				"y": -1.8051258084,
				"z": -3.7163920545,
				"element": "H" 
			},
			{
				"x": -2.8613513046,
				"y": -1.4401213143,
				"z": -2.9314242881,
				"element": "H" 
			},
			{
				"x": -0.2703689046,
				"y": 2.4982767223,
				"z": 0.3679548085,
				"element": "H" 
			}
		],
		 "valence_orbital": [ 
			{
				"type": "occ",
				"energy": -0.31851,
				"method": "rhf"
			},
			{
				"type": "occ",
				"energy": -0.28514,
				"method": "rhf"
			},
			{
				"type": "occ",
				"energy": -0.27305,
				"method": "rhf"
			},
			{
				"type": "occ",
				"energy": -0.25745,
				"method": "rhf"
			},
			{
				"type": "occ",
				"energy": -0.24651,
				"method": "rhf"
			},
			{
				"type": "unocc",
				"energy": 0.00408,
				"method": "rhf"
			},
			{
				"type": "unocc",
				"energy": 0.04982,
				"method": "rhf"
			},
			{
				"type": "unocc",
				"energy": 0.05784,
				"method": "rhf"
			},
			{
				"type": "unocc",
				"energy": 0.06819,
				"method": "rhf"
			},
			{
				"type": "unocc",
				"energy": 0.09344,
				"method": "rhf"
			}
		],
		"cosmo_sigma_profile": { 
			"-0.025": 0.0,
			"-0.024": 0.0,
			"-0.023": 0.0,
			"-0.022": 0.0,
			"-0.021": 0.0,
			"-0.02": 0.0,
			"-0.019": 0.0,
			"-0.018": 0.0610863701864,
			"-0.017": 0.474742812939,
			"-0.016": 0.548981291422,
			"-0.015": 0.79547623163,
			"-0.014": 0.851997996141,
			"-0.013": 0.630698395836,
			"-0.012": 0.33302652377,
			"-0.011": 1.33961355737,
			"-0.01": 2.23955845345,
			"-0.009": 2.72582762252,
			"-0.008": 4.19820658645,
			"-0.007": 3.46234499162,
			"-0.006": 4.59165127965,
			"-0.005": 6.77056042568,
			"-0.004": 19.4373084237,
			"-0.003": 34.4985887792,
			"-0.002": 35.979209384,
			"-0.001": 35.8857185322,
			"0.0": 42.4737225883,
			"0.001": 35.4551738986,
			"0.002": 13.2701780723,
			"0.003": 10.3826106413,
			"0.004": 10.6890330314,
			"0.005": 7.95814379417,
			"0.006": 5.96362693608,
			"0.007": 4.37737673657,
			"0.008": 4.59566659706,
			"0.009": 2.69033456939,
			"0.01": 3.46218216071,
			"0.011": 3.75603443496,
			"0.012": 4.29303983498,
			"0.013": 3.53286341591,
			"0.014": 2.72770834973,
			"0.015": 0.0395113398046,
			"0.016": 0.0,
			"0.017": 0.0,
			"0.018": 0.0,
			"0.019": 0.0,
			"0.02": 0.0,
			"0.021": 0.0,
			"0.022": 0.0,
			"0.023": 0.0,
			"0.024": 0.0,
			"0.025": 0.0
		}
	}
}
