{
	 "smiles": "CC1=CC(Cl)=CC=C1OCC(=O)NN", 
	 "Tm": 423.15, 
	 "num_atms": 25, 
	 "gaussian": { 
		 "optdone": 1, 
		 "sigma_profile": "yes", 
		 "theory": "DFT", 
		 "functional": "B3LYP", 
		 "basiset": "6-31G**", 
		 "properties": { 
			 "R2extent": 5095.6507, 
			 "electric_dipole_moment_norm": 2.10873511139, 
			 "electric_quadrupole_moment_norm": 9.82146449823, 
			 "total_energy": -1069.70728703, 
			 "HOMO_LUMO_gap": 0.20933, 
			 "cosmo_polarized_energy": -13.59, 
			 "cosmo_cavitation_energy": 31.1, 
			 "cosmo_dispersion_energy": -22.12, 
			 "cosmo_repulsion_energy": 1.79, 
			 "cosmo_total_nonelectrostatic_energy": 10.76, 
			 "SMD_solvation_energy": 6.35 
		},
		"coords": [
			{
				"x": 0.0627480518,
				"y": -1.9527879421,
				"z": -1.6720127583,
				"element": "C" 
			},
			{
				"x": -1.1808116033,
				"y": -1.183646076,
				"z": -1.305026154,
				"element": "C" 
			},
			{
				"x": -2.111487999,
				"y": -0.7987624165,
				"z": -2.2701756466,
				"element": "C" 
			},
			{
				"x": -3.2612845899,
				"y": -0.0926608742,
				"z": -1.9111556668,
				"element": "C" 
			},
			{
				"x": -4.4133422486,
				"y": 0.372469761,
				"z": -3.1572908324,
				"element": "Cl" 
			},
			{
				"x": -3.5035187668,
				"y": 0.2465153416,
				"z": -0.5860124863,
				"element": "C" 
			},
			{
				"x": -2.5806723447,
				"y": -0.127626458,
				"z": 0.3948796031,
				"element": "C" 
			},
			{
				"x": -1.4328257423,
				"y": -0.8385451137,
				"z": 0.0383350642,
				"element": "C" 
			},
			{
				"x": -0.4688351708,
				"y": -1.2478086575,
				"z": 0.9345721145,
				"element": "O" 
			},
			{
				"x": -0.738671676,
				"y": -1.1305212459,
				"z": 2.3268785809,
				"element": "C" 
			},
			{
				"x": -0.499060305,
				"y": 0.2670363706,
				"z": 2.9075391074,
				"element": "C" 
			},
			{
				"x": -0.9912672511,
				"y": 0.6041877978,
				"z": 3.9773663216,
				"element": "O" 
			},
			{
				"x": 0.3332292078,
				"y": 1.0552066676,
				"z": 2.1793996896,
				"element": "N" 
			},
			{
				"x": 0.7277202235,
				"y": 2.3344743005,
				"z": 2.6119191549,
				"element": "N" 
			},
			{
				"x": 0.0830360565,
				"y": -2.1730638347,
				"z": -2.7419802011,
				"element": "H" 
			},
			{
				"x": 0.1193462827,
				"y": -2.8975379089,
				"z": -1.1212933236,
				"element": "H" 
			},
			{
				"x": 0.9694350245,
				"y": -1.3907817837,
				"z": -1.421296056,
				"element": "H" 
			},
			{
				"x": -1.941692467,
				"y": -1.0557241767,
				"z": -3.3105948302,
				"element": "H" 
			},
			{
				"x": -4.3957691007,
				"y": 0.798964152,
				"z": -0.3140905577,
				"element": "H" 
			},
			{
				"x": -2.7696752691,
				"y": 0.1534885469,
				"z": 1.4243670161,
				"element": "H" 
			},
			{
				"x": -0.0505484753,
				"y": -1.8247618914,
				"z": 2.8193253714,
				"element": "H" 
			},
			{
				"x": -1.7600301538,
				"y": -1.43479475,
				"z": 2.575243306,
				"element": "H" 
			},
			{
				"x": 0.7529789015,
				"y": 0.717599246,
				"z": 1.3262484933,
				"element": "H" 
			},
			{
				"x": 0.9987308742,
				"y": 2.2485993618,
				"z": 3.5914343397,
				"element": "H" 
			},
			{
				"x": -0.0999314592,
				"y": 2.9309815836,
				"z": 2.6119203502,
				"element": "H" 
			}
		],
		 "valence_orbital": [ 
			{
				"type": "occ",
				"energy": -0.28981,
				"method": "rhf"
			},
			{
				"type": "occ",
				"energy": -0.26798,
				"method": "rhf"
			},
			{
				"type": "occ",
				"energy": -0.26312,
				"method": "rhf"
			},
			{
				"type": "occ",
				"energy": -0.26091,
				"method": "rhf"
			},
			{
				"type": "occ",
				"energy": -0.22618,
				"method": "rhf"
			},
			{
				"type": "unocc",
				"energy": -0.01685,
				"method": "rhf"
			},
			{
				"type": "unocc",
				"energy": -0.00591,
				"method": "rhf"
			},
			{
				"type": "unocc",
				"energy": 0.01259,
				"method": "rhf"
			},
			{
				"type": "unocc",
				"energy": 0.03079,
				"method": "rhf"
			},
			{
				"type": "unocc",
				"energy": 0.07282,
				"method": "rhf"
			}
		],
		"cosmo_sigma_profile": { 
			"-0.025": 0.0,
			"-0.024": 0.0,
			"-0.023": 0.0,
			"-0.022": 0.0,
			"-0.021": 0.0,
			"-0.02": 0.0,
			"-0.019": 0.0,
			"-0.018": 0.0,
			"-0.017": 0.0,
			"-0.016": 0.0,
			"-0.015": 0.0,
			"-0.014": 0.0,
			"-0.013": 0.566822562589,
			"-0.012": 1.30407812223,
			"-0.011": 2.84969001603,
			"-0.01": 3.37235493385,
			"-0.009": 3.68339793694,
			"-0.008": 5.5123946945,
			"-0.007": 11.0975580466,
			"-0.006": 12.8549075128,
			"-0.005": 13.1614572045,
			"-0.004": 15.4373426531,
			"-0.003": 16.000980983,
			"-0.002": 14.3071238143,
			"-0.001": 16.6660705339,
			"0.0": 19.9124550181,
			"0.001": 16.5836518891,
			"0.002": 16.2022472512,
			"0.003": 20.7131986068,
			"0.004": 18.3683191183,
			"0.005": 12.767978039,
			"0.006": 3.2527184742,
			"0.007": 3.36758122372,
			"0.008": 1.11116676278,
			"0.009": 2.25106063722,
			"0.01": 2.17613907657,
			"0.011": 1.39353741115,
			"0.012": 2.51427369201,
			"0.013": 5.62471240525,
			"0.014": 3.84095089223,
			"0.015": 0.89572407983,
			"0.016": 0.526022196065,
			"0.017": 0.108348083041,
			"0.018": 0.0,
			"0.019": 0.0,
			"0.02": 0.0,
			"0.021": 0.0,
			"0.022": 0.0,
			"0.023": 0.0,
			"0.024": 0.0,
			"0.025": 0.0
		}
	}
}
