{
	 "smiles": "CN1C=CC(=O)C2=CC=CC=C12", 
	 "Tm": 425.15, 
	 "num_atms": 21, 
	 "gaussian": { 
		 "optdone": 1, 
		 "sigma_profile": "yes", 
		 "theory": "DFT", 
		 "functional": "B3LYP", 
		 "basiset": "6-31G**", 
		 "properties": { 
			 "R2extent": 2098.2931, 
			 "electric_dipole_moment_norm": 6.18563373471, 
			 "electric_quadrupole_moment_norm": 15.3633041466, 
			 "total_energy": -516.469332471, 
			 "HOMO_LUMO_gap": 0.16976, 
			 "cosmo_polarized_energy": -15.96, 
			 "cosmo_cavitation_energy": 24.21, 
			 "cosmo_dispersion_energy": -18.22, 
			 "cosmo_repulsion_energy": 1.41, 
			 "cosmo_total_nonelectrostatic_energy": 7.39, 
			 "SMD_solvation_energy": 4.84 
		},
		"coords": [
			{
				"x": 1.0414186348,
				"y": 0.8155538185,
				"z": 1.6790389373,
				"element": "C" 
			},
			{
				"x": 0.1741413395,
				"y": 0.8582843062,
				"z": 0.5072107057,
				"element": "N" 
			},
			{
				"x": -0.5867973655,
				"y": 1.9738298095,
				"z": 0.2602246578,
				"element": "C" 
			},
			{
				"x": -1.4211776662,
				"y": 2.1035396059,
				"z": -0.802937947,
				"element": "C" 
			},
			{
				"x": -1.5705844514,
				"y": 1.038988512,
				"z": -1.7805720906,
				"element": "C" 
			},
			{
				"x": -2.3138664268,
				"y": 1.1090620775,
				"z": -2.7636224076,
				"element": "O" 
			},
			{
				"x": -0.7392193125,
				"y": -0.160870075,
				"z": -1.4987235221,
				"element": "C" 
			},
			{
				"x": -0.8004393566,
				"y": -1.2536664529,
				"z": -2.3767975983,
				"element": "C" 
			},
			{
				"x": -0.0450146485,
				"y": -2.3945609329,
				"z": -2.1570933082,
				"element": "C" 
			},
			{
				"x": 0.7954073775,
				"y": -2.4555733873,
				"z": -1.0357303015,
				"element": "C" 
			},
			{
				"x": 0.8783803336,
				"y": -1.3914501089,
				"z": -0.1483300225,
				"element": "C" 
			},
			{
				"x": 0.1112146716,
				"y": -0.2283428154,
				"z": -0.3682465092,
				"element": "C" 
			},
			{
				"x": 0.7607837092,
				"y": -0.0052655944,
				"z": 2.3476138928,
				"element": "H" 
			},
			{
				"x": 2.0900739552,
				"y": 0.6899015738,
				"z": 1.3891596418,
				"element": "H" 
			},
			{
				"x": 0.9438491287,
				"y": 1.7542778094,
				"z": 2.2245913125,
				"element": "H" 
			},
			{
				"x": -0.4747078219,
				"y": 2.7681295577,
				"z": 0.99106884,
				"element": "H" 
			},
			{
				"x": -1.9928853196,
				"y": 3.0141292662,
				"z": -0.9363625894,
				"element": "H" 
			},
			{
				"x": -1.4654831489,
				"y": -1.1572454024,
				"z": -3.2290901328,
				"element": "H" 
			},
			{
				"x": -0.1007631479,
				"y": -3.233786828,
				"z": -2.8434788931,
				"element": "H" 
			},
			{
				"x": 1.3928515804,
				"y": -3.3440792929,
				"z": -0.8520230149,
				"element": "H" 
			},
			{
				"x": 1.5359179353,
				"y": -1.4657554465,
				"z": 0.7095003491,
				"element": "H" 
			}
		],
		 "valence_orbital": [ 
			{
				"type": "occ",
				"energy": -0.34656,
				"method": "rhf"
			},
			{
				"type": "occ",
				"energy": -0.26514,
				"method": "rhf"
			},
			{
				"type": "occ",
				"energy": -0.2532,
				"method": "rhf"
			},
			{
				"type": "occ",
				"energy": -0.22207,
				"method": "rhf"
			},
			{
				"type": "occ",
				"energy": -0.20949,
				"method": "rhf"
			},
			{
				"type": "unocc",
				"energy": -0.03973,
				"method": "rhf"
			},
			{
				"type": "unocc",
				"energy": -0.01335,
				"method": "rhf"
			},
			{
				"type": "unocc",
				"energy": 0.01952,
				"method": "rhf"
			},
			{
				"type": "unocc",
				"energy": 0.07325,
				"method": "rhf"
			},
			{
				"type": "unocc",
				"energy": 0.08933,
				"method": "rhf"
			}
		],
		"cosmo_sigma_profile": { 
			"-0.025": 0.0,
			"-0.024": 0.0,
			"-0.023": 0.0,
			"-0.022": 0.0,
			"-0.021": 0.0,
			"-0.02": 0.0,
			"-0.019": 0.0,
			"-0.018": 0.0,
			"-0.017": 0.0,
			"-0.016": 0.0,
			"-0.015": 0.0,
			"-0.014": 0.0,
			"-0.013": 0.0,
			"-0.012": 0.0,
			"-0.011": 0.135089262074,
			"-0.01": 1.79244170145,
			"-0.009": 2.56440352656,
			"-0.008": 2.93344678666,
			"-0.007": 7.44403799333,
			"-0.006": 16.2580459917,
			"-0.005": 17.789338472,
			"-0.004": 16.7740131476,
			"-0.003": 15.6598312479,
			"-0.002": 8.5608933157,
			"-0.001": 8.64638800934,
			"0.0": 11.8545759556,
			"0.001": 12.2266654713,
			"0.002": 11.5782966896,
			"0.003": 16.0508521452,
			"0.004": 14.6299880473,
			"0.005": 5.92331189081,
			"0.006": 1.97922007011,
			"0.007": 1.47788464224,
			"0.008": 1.39661541739,
			"0.009": 1.64639412192,
			"0.01": 1.63294421288,
			"0.011": 0.961131435263,
			"0.012": 1.73445110081,
			"0.013": 2.56244938816,
			"0.014": 3.61846460692,
			"0.015": 4.7011538723,
			"0.016": 1.28679714585,
			"0.017": 0.0503084631458,
			"0.018": 0.0,
			"0.019": 0.0,
			"0.02": 0.0,
			"0.021": 0.0,
			"0.022": 0.0,
			"0.023": 0.0,
			"0.024": 0.0,
			"0.025": 0.0
		}
	}
}
