{
	 "smiles": "[O-][N+](=O)C1=CC=C(NC2=CC=CC=C2)C(=C1)[N+]([O-])=O", 
	 "Tm": 433.15, 
	 "num_atms": 28, 
	 "gaussian": { 
		 "optdone": 1, 
		 "sigma_profile": "yes", 
		 "theory": "DFT", 
		 "functional": "B3LYP", 
		 "basiset": "6-31G**", 
		 "properties": { 
			 "R2extent": 6238.9211, 
			 "electric_dipole_moment_norm": 6.86957493954, 
			 "electric_quadrupole_moment_norm": 12.5482749934, 
			 "total_energy": -927.64067346, 
			 "HOMO_LUMO_gap": 0.13294, 
			 "cosmo_polarized_energy": -19.42, 
			 "cosmo_cavitation_energy": 34.0, 
			 "cosmo_dispersion_energy": -24.07, 
			 "cosmo_repulsion_energy": 1.83, 
			 "cosmo_total_nonelectrostatic_energy": 11.76, 
			 "SMD_solvation_energy": 10.09 
		},
		"coords": [
			{
				"x": 2.4956619018,
				"y": 4.5895312687,
				"z": 0.2129361792,
				"element": "O" 
			},
			{
				"x": 2.5389847726,
				"y": 3.7031458502,
				"z": -0.6426387022,
				"element": "N" 
			},
			{
				"x": 3.2103484406,
				"y": 3.751741405,
				"z": -1.6735550869,
				"element": "O" 
			},
			{
				"x": 1.7330067744,
				"y": 2.5076060313,
				"z": -0.4115117194,
				"element": "C" 
			},
			{
				"x": 0.9597014601,
				"y": 2.4070089496,
				"z": 0.7514169119,
				"element": "C" 
			},
			{
				"x": 0.2262128694,
				"y": 1.2603151231,
				"z": 0.9738229699,
				"element": "C" 
			},
			{
				"x": 0.207206368,
				"y": 0.1792262449,
				"z": 0.0534457146,
				"element": "C" 
			},
			{
				"x": -0.516573045,
				"y": -0.9339548986,
				"z": 0.4009071301,
				"element": "N" 
			},
			{
				"x": -0.2988000769,
				"y": -2.3003579159,
				"z": 0.0942503656,
				"element": "C" 
			},
			{
				"x": 0.9762559292,
				"y": -2.8104649875,
				"z": -0.1816009557,
				"element": "C" 
			},
			{
				"x": 1.1398575454,
				"y": -4.1746368251,
				"z": -0.4146123211,
				"element": "C" 
			},
			{
				"x": 0.0486957829,
				"y": -5.0431194457,
				"z": -0.3520705309,
				"element": "C" 
			},
			{
				"x": -1.2176985463,
				"y": -4.5340412208,
				"z": -0.0583295706,
				"element": "C" 
			},
			{
				"x": -1.3951219909,
				"y": -3.1695228163,
				"z": 0.1582796603,
				"element": "C" 
			},
			{
				"x": 0.9497223361,
				"y": 0.3611150672,
				"z": -1.1453108812,
				"element": "C" 
			},
			{
				"x": 1.7313447222,
				"y": 1.493847052,
				"z": -1.3561724195,
				"element": "C" 
			},
			{
				"x": 0.850269533,
				"y": -0.5587697045,
				"z": -2.284079532,
				"element": "N" 
			},
			{
				"x": -0.2239497666,
				"y": -1.1305658563,
				"z": -2.4568785973,
				"element": "O" 
			},
			{
				"x": 1.834777232,
				"y": -0.6655896039,
				"z": -3.0156227756,
				"element": "O" 
			},
			{
				"x": 0.9707884491,
				"y": 3.2187004219,
				"z": 1.4680620714,
				"element": "H" 
			},
			{
				"x": -0.3354277601,
				"y": 1.1561804652,
				"z": 1.8980109414,
				"element": "H" 
			},
			{
				"x": -1.1607621065,
				"y": -0.7817575893,
				"z": 1.1644799378,
				"element": "H" 
			},
			{
				"x": 1.8378229572,
				"y": -2.1507727156,
				"z": -0.2051315398,
				"element": "H" 
			},
			{
				"x": 2.1311267779,
				"y": -4.5593111371,
				"z": -0.634570127,
				"element": "H" 
			},
			{
				"x": 0.1841141989,
				"y": -6.1052045038,
				"z": -0.5301047874,
				"element": "H" 
			},
			{
				"x": -2.075322454,
				"y": -5.1982106014,
				"z": -0.0079885969,
				"element": "H" 
			},
			{
				"x": -2.3843493276,
				"y": -2.7690278857,
				"z": 0.3626339964,
				"element": "H" 
			},
			{
				"x": 2.3048070232,
				"y": 1.588489828,
				"z": -2.268667735,
				"element": "H" 
			}
		],
		 "valence_orbital": [ 
			{
				"type": "occ",
				"energy": -0.29328,
				"method": "rhf"
			},
			{
				"type": "occ",
				"energy": -0.28832,
				"method": "rhf"
			},
			{
				"type": "occ",
				"energy": -0.28213,
				"method": "rhf"
			},
			{
				"type": "occ",
				"energy": -0.26729,
				"method": "rhf"
			},
			{
				"type": "occ",
				"energy": -0.22955,
				"method": "rhf"
			},
			{
				"type": "unocc",
				"energy": -0.09661,
				"method": "rhf"
			},
			{
				"type": "unocc",
				"energy": -0.08935,
				"method": "rhf"
			},
			{
				"type": "unocc",
				"energy": -0.03391,
				"method": "rhf"
			},
			{
				"type": "unocc",
				"energy": -0.01859,
				"method": "rhf"
			},
			{
				"type": "unocc",
				"energy": -0.01515,
				"method": "rhf"
			}
		],
		"cosmo_sigma_profile": { 
			"-0.025": 0.0,
			"-0.024": 0.0,
			"-0.023": 0.0,
			"-0.022": 0.0,
			"-0.021": 0.0,
			"-0.02": 0.0,
			"-0.019": 0.0,
			"-0.018": 0.0,
			"-0.017": 0.0863515285095,
			"-0.016": 1.65824196864,
			"-0.015": 1.7163312366,
			"-0.014": 0.894799252572,
			"-0.013": 1.34854298114,
			"-0.012": 1.82375121053,
			"-0.011": 1.24779178905,
			"-0.01": 1.84400987224,
			"-0.009": 2.56764056361,
			"-0.008": 4.98432776822,
			"-0.007": 8.59283591127,
			"-0.006": 16.0170469032,
			"-0.005": 17.5741090275,
			"-0.004": 19.2435008316,
			"-0.003": 17.149078628,
			"-0.002": 22.1933997358,
			"-0.001": 19.7887246877,
			"0.0": 14.7997940668,
			"0.001": 14.6397607041,
			"0.002": 9.30071424082,
			"0.003": 12.2954823873,
			"0.004": 11.4814162404,
			"0.005": 13.836838076,
			"0.006": 9.28558943181,
			"0.007": 17.0106654079,
			"0.008": 17.5569071435,
			"0.009": 8.77397676389,
			"0.01": 5.20684691228,
			"0.011": 0.334370210092,
			"0.012": 0.0,
			"0.013": 0.0,
			"0.014": 0.0,
			"0.015": 0.0,
			"0.016": 0.0,
			"0.017": 0.0,
			"0.018": 0.0,
			"0.019": 0.0,
			"0.02": 0.0,
			"0.021": 0.0,
			"0.022": 0.0,
			"0.023": 0.0,
			"0.024": 0.0,
			"0.025": 0.0
		}
	}
}
