{
	 "smiles": "CN1C(NC(C)=O)=NC(=O)C1=C/C1=COC2=CC=C(Cl)C=C2C1=O", 
	 "Tm": 549.15, 
	 "num_atms": 36, 
	 "gaussian": { 
		 "optdone": 1, 
		 "sigma_profile": "yes", 
		 "theory": "DFT", 
		 "functional": "B3LYP", 
		 "basiset": "6-31G**", 
		 "properties": { 
			 "R2extent": 14428.7098, 
			 "electric_dipole_moment_norm": 3.69714973054, 
			 "electric_quadrupole_moment_norm": 40.3133570265, 
			 "total_energy": -1542.28408821, 
			 "HOMO_LUMO_gap": 0.13602, 
			 "cosmo_polarized_energy": -23.19, 
			 "cosmo_cavitation_energy": 43.42, 
			 "cosmo_dispersion_energy": -31.64, 
			 "cosmo_repulsion_energy": 2.34, 
			 "cosmo_total_nonelectrostatic_energy": 14.12, 
			 "SMD_solvation_energy": 7.62 
		},
		"coords": [
			{
				"x": -0.1156159445,
				"y": -2.1868007916,
				"z": -2.5586668985,
				"element": "C" 
			},
			{
				"x": 1.0812885769,
				"y": -2.1616579802,
				"z": -1.7301228515,
				"element": "N" 
			},
			{
				"x": 2.0173555584,
				"y": -3.1385959429,
				"z": -1.558888768,
				"element": "C" 
			},
			{
				"x": 2.0862867634,
				"y": -4.2917579274,
				"z": -2.3334975327,
				"element": "N" 
			},
			{
				"x": 2.051828553,
				"y": -4.3611437409,
				"z": -3.7348241505,
				"element": "C" 
			},
			{
				"x": 2.5193074231,
				"y": -5.6971136391,
				"z": -4.2798655589,
				"element": "C" 
			},
			{
				"x": 1.6848506137,
				"y": -3.4371897115,
				"z": -4.4327597428,
				"element": "O" 
			},
			{
				"x": 2.859825753,
				"y": -2.9733678234,
				"z": -0.5656441689,
				"element": "N" 
			},
			{
				"x": 2.5133806122,
				"y": -1.7627458647,
				"z": 0.0270790394,
				"element": "C" 
			},
			{
				"x": 3.0805060271,
				"y": -1.2592595727,
				"z": 0.9908261215,
				"element": "O" 
			},
			{
				"x": 1.3467877851,
				"y": -1.1886662647,
				"z": -0.7385062106,
				"element": "C" 
			},
			{
				"x": 0.6263001618,
				"y": -0.0469130637,
				"z": -0.6224151209,
				"element": "C" 
			},
			{
				"x": 0.6890706374,
				"y": 1.0663570725,
				"z": 0.3085180969,
				"element": "C" 
			},
			{
				"x": 1.5877946586,
				"y": 1.2060267216,
				"z": 1.3301135327,
				"element": "C" 
			},
			{
				"x": 1.6211676346,
				"y": 2.2540459041,
				"z": 2.1769300273,
				"element": "O" 
			},
			{
				"x": 0.7156000481,
				"y": 3.2715931997,
				"z": 2.0435915151,
				"element": "C" 
			},
			{
				"x": 0.8069902595,
				"y": 4.3287185069,
				"z": 2.954603113,
				"element": "C" 
			},
			{
				"x": -0.0908435244,
				"y": 5.3813815201,
				"z": 2.856405517,
				"element": "C" 
			},
			{
				"x": -1.0720776482,
				"y": 5.3704046365,
				"z": 1.8503544009,
				"element": "C" 
			},
			{
				"x": -2.1968934024,
				"y": 6.7139561187,
				"z": 1.7469717764,
				"element": "Cl" 
			},
			{
				"x": -1.1627944784,
				"y": 4.3241487732,
				"z": 0.9483422452,
				"element": "C" 
			},
			{
				"x": -0.2582857704,
				"y": 3.2532407654,
				"z": 1.0390753879,
				"element": "C" 
			},
			{
				"x": -0.3289339994,
				"y": 2.1211073812,
				"z": 0.0920934672,
				"element": "C" 
			},
			{
				"x": -1.1731479588,
				"y": 2.0691147087,
				"z": -0.8020795868,
				"element": "O" 
			},
			{
				"x": -0.0215727705,
				"y": -1.513186649,
				"z": -3.4135627966,
				"element": "H" 
			},
			{
				"x": -0.9730744498,
				"y": -1.8909297998,
				"z": -1.9475148075,
				"element": "H" 
			},
			{
				"x": -0.2777254426,
				"y": -3.1943927404,
				"z": -2.9331294356,
				"element": "H" 
			},
			{
				"x": 2.6522758684,
				"y": -4.9916139487,
				"z": -1.867034516,
				"element": "H" 
			},
			{
				"x": 2.065346263,
				"y": -6.5340854735,
				"z": -3.7405369273,
				"element": "H" 
			},
			{
				"x": 3.6076138272,
				"y": -5.7815423398,
				"z": -4.1809140927,
				"element": "H" 
			},
			{
				"x": 2.2585942749,
				"y": -5.7526134785,
				"z": -5.3362103404,
				"element": "H" 
			},
			{
				"x": -0.1682302214,
				"y": 0.1096479454,
				"z": -1.348735683,
				"element": "H" 
			},
			{
				"x": 2.3577746636,
				"y": 0.4727440854,
				"z": 1.5453822568,
				"element": "H" 
			},
			{
				"x": 1.5751801732,
				"y": 4.3085442608,
				"z": 3.7197713143,
				"element": "H" 
			},
			{
				"x": -0.0404158728,
				"y": 6.2125148788,
				"z": 3.5507219587,
				"element": "H" 
			},
			{
				"x": -1.9130146526,
				"y": 4.2996302737,
				"z": 0.1665294189,
				"element": "H" 
			}
		],
		 "valence_orbital": [ 
			{
				"type": "occ",
				"energy": -0.26735,
				"method": "rhf"
			},
			{
				"type": "occ",
				"energy": -0.26228,
				"method": "rhf"
			},
			{
				"type": "occ",
				"energy": -0.25162,
				"method": "rhf"
			},
			{
				"type": "occ",
				"energy": -0.24994,
				"method": "rhf"
			},
			{
				"type": "occ",
				"energy": -0.21886,
				"method": "rhf"
			},
			{
				"type": "unocc",
				"energy": -0.08284,
				"method": "rhf"
			},
			{
				"type": "unocc",
				"energy": -0.06644,
				"method": "rhf"
			},
			{
				"type": "unocc",
				"energy": -0.02807,
				"method": "rhf"
			},
			{
				"type": "unocc",
				"energy": -0.01585,
				"method": "rhf"
			},
			{
				"type": "unocc",
				"energy": -0.00216,
				"method": "rhf"
			}
		],
		"cosmo_sigma_profile": { 
			"-0.025": 0.0,
			"-0.024": 0.0,
			"-0.023": 0.0,
			"-0.022": 0.0,
			"-0.021": 0.0,
			"-0.02": 0.0,
			"-0.019": 0.0,
			"-0.018": 0.0,
			"-0.017": 0.0,
			"-0.016": 0.480970633884,
			"-0.015": 1.32999795206,
			"-0.014": 1.08331455447,
			"-0.013": 1.03475891862,
			"-0.012": 1.34751490781,
			"-0.011": 1.07679780281,
			"-0.01": 1.15962334873,
			"-0.009": 2.59686961297,
			"-0.008": 7.73181527812,
			"-0.007": 12.185522037,
			"-0.006": 18.3525556849,
			"-0.005": 21.2563242303,
			"-0.004": 25.7537748204,
			"-0.003": 27.7500419608,
			"-0.002": 29.8866021543,
			"-0.001": 31.5178712845,
			"0.0": 34.2580286606,
			"0.001": 28.2866108141,
			"0.002": 12.51644618,
			"0.003": 14.8271422298,
			"0.004": 15.4108347052,
			"0.005": 8.35771706184,
			"0.006": 5.26260082056,
			"0.007": 4.46382288451,
			"0.008": 4.61719883379,
			"0.009": 5.9060648736,
			"0.01": 5.87839320661,
			"0.011": 7.78578692161,
			"0.012": 8.98675091514,
			"0.013": 5.10099316499,
			"0.014": 3.55707873658,
			"0.015": 1.42423248582,
			"0.016": 0.762996120747,
			"0.017": 0.0,
			"0.018": 0.0,
			"0.019": 0.0,
			"0.02": 0.0,
			"0.021": 0.0,
			"0.022": 0.0,
			"0.023": 0.0,
			"0.024": 0.0,
			"0.025": 0.0
		}
	}
}
