{
	 "smiles": "CC(C)(C)P(O)(O)=O", 
	 "Tm": 463.15, 
	 "num_atms": 19, 
	 "gaussian": { 
		 "optdone": 1, 
		 "sigma_profile": "yes", 
		 "theory": "DFT", 
		 "functional": "B3LYP", 
		 "basiset": "6-31G**", 
		 "properties": { 
			 "R2extent": 1191.7328, 
			 "electric_dipole_moment_norm": 1.17393908275, 
			 "electric_quadrupole_moment_norm": 10.2486893665, 
			 "total_energy": -726.16677302, 
			 "HOMO_LUMO_gap": 0.32366, 
			 "cosmo_polarized_energy": -13.87, 
			 "cosmo_cavitation_energy": 22.75, 
			 "cosmo_dispersion_energy": -16.45, 
			 "cosmo_repulsion_energy": 1.33, 
			 "cosmo_total_nonelectrostatic_energy": 7.63, 
			 "SMD_solvation_energy": 6.33 
		},
		"coords": [
			{
				"x": -0.0517538827,
				"y": -1.1786611499,
				"z": -1.4554853793,
				"element": "C" 
			},
			{
				"x": 0.4122891827,
				"y": 0.2746603994,
				"z": -1.2242298608,
				"element": "C" 
			},
			{
				"x": 1.9066324899,
				"y": 0.4259911614,
				"z": -1.5738235839,
				"element": "C" 
			},
			{
				"x": -0.4406730876,
				"y": 1.2435177582,
				"z": -2.0696901664,
				"element": "C" 
			},
			{
				"x": 0.1249530799,
				"y": 0.6764276658,
				"z": 0.541321623,
				"element": "P" 
			},
			{
				"x": 0.7726471214,
				"y": 2.1663853207,
				"z": 0.6893106522,
				"element": "O" 
			},
			{
				"x": 1.1715346813,
				"y": -0.3054293328,
				"z": 1.3170741355,
				"element": "O" 
			},
			{
				"x": -1.2652808247,
				"y": 0.5859643597,
				"z": 1.0682473904,
				"element": "O" 
			},
			{
				"x": 0.5435208338,
				"y": -1.8847027552,
				"z": -0.8696160809,
				"element": "H" 
			},
			{
				"x": 0.0638129937,
				"y": -1.4326069489,
				"z": -2.5150616967,
				"element": "H" 
			},
			{
				"x": -1.1041088084,
				"y": -1.3071460562,
				"z": -1.1857892081,
				"element": "H" 
			},
			{
				"x": 2.5280212538,
				"y": -0.2489765323,
				"z": -0.9790806244,
				"element": "H" 
			},
			{
				"x": 2.0546568541,
				"y": 0.18124506,
				"z": -2.6320097765,
				"element": "H" 
			},
			{
				"x": 2.255220244,
				"y": 1.4492836913,
				"z": -1.4101448817,
				"element": "H" 
			},
			{
				"x": -0.3257493474,
				"y": 0.9969275892,
				"z": -3.1310592832,
				"element": "H" 
			},
			{
				"x": -0.1256962385,
				"y": 2.2808282791,
				"z": -1.9253589494,
				"element": "H" 
			},
			{
				"x": -1.501333075,
				"y": 1.1657961803,
				"z": -1.8134260124,
				"element": "H" 
			},
			{
				"x": 0.2257063898,
				"y": 2.692956862,
				"z": 1.2900536893,
				"element": "H" 
			},
			{
				"x": 0.76170014,
				"y": -0.6268615517,
				"z": 2.1331680132,
				"element": "H" 
			}
		],
		 "valence_orbital": [ 
			{
				"type": "occ",
				"energy": -0.33912,
				"method": "rhf"
			},
			{
				"type": "occ",
				"energy": -0.3328,
				"method": "rhf"
			},
			{
				"type": "occ",
				"energy": -0.32851,
				"method": "rhf"
			},
			{
				"type": "occ",
				"energy": -0.28478,
				"method": "rhf"
			},
			{
				"type": "occ",
				"energy": -0.27959,
				"method": "rhf"
			},
			{
				"type": "unocc",
				"energy": 0.04407,
				"method": "rhf"
			},
			{
				"type": "unocc",
				"energy": 0.07676,
				"method": "rhf"
			},
			{
				"type": "unocc",
				"energy": 0.08511,
				"method": "rhf"
			},
			{
				"type": "unocc",
				"energy": 0.10517,
				"method": "rhf"
			},
			{
				"type": "unocc",
				"energy": 0.12367,
				"method": "rhf"
			}
		],
		"cosmo_sigma_profile": { 
			"-0.025": 0.0,
			"-0.024": 0.0,
			"-0.023": 0.0,
			"-0.022": 0.0,
			"-0.021": 0.0,
			"-0.02": 0.0,
			"-0.019": 0.251376412645,
			"-0.018": 1.87084424089,
			"-0.017": 1.60657563727,
			"-0.016": 1.76506187079,
			"-0.015": 1.75183014701,
			"-0.014": 1.54861121029,
			"-0.013": 0.567502876068,
			"-0.012": 0.654116009984,
			"-0.011": 1.64656946551,
			"-0.01": 2.58735576334,
			"-0.009": 1.86891734177,
			"-0.008": 1.29019879094,
			"-0.007": 1.15612879519,
			"-0.006": 1.64058186382,
			"-0.005": 2.03275794146,
			"-0.004": 9.12316442103,
			"-0.003": 16.4069112255,
			"-0.002": 18.3077460503,
			"-0.001": 20.2839247117,
			"0.0": 26.8987600096,
			"0.001": 11.2103561367,
			"0.002": 5.0770412423,
			"0.003": 5.33719263553,
			"0.004": 4.53519140881,
			"0.005": 2.94583093827,
			"0.006": 2.89964569009,
			"0.007": 4.0389327482,
			"0.008": 3.50481982947,
			"0.009": 3.47089218577,
			"0.01": 3.3107274655,
			"0.011": 2.24380735221,
			"0.012": 1.05328301475,
			"0.013": 1.11645674196,
			"0.014": 2.33976250655,
			"0.015": 6.57273665609,
			"0.016": 0.629988479704,
			"0.017": 0.0,
			"0.018": 0.0,
			"0.019": 0.0,
			"0.02": 0.0,
			"0.021": 0.0,
			"0.022": 0.0,
			"0.023": 0.0,
			"0.024": 0.0,
			"0.025": 0.0
		}
	}
}
