{
	 "smiles": "CCCCCC1=CC=C(C=C1)C(O)=O", 
	 "Tm": 360.65, 
	 "num_atms": 30, 
	 "gaussian": { 
		 "optdone": 1, 
		 "sigma_profile": "yes", 
		 "theory": "DFT", 
		 "functional": "B3LYP", 
		 "basiset": "6-31G**", 
		 "properties": { 
			 "R2extent": 5335.4887, 
			 "electric_dipole_moment_norm": 5.29990508689, 
			 "electric_quadrupole_moment_norm": 28.0112730189, 
			 "total_energy": -617.397633811, 
			 "HOMO_LUMO_gap": 0.20793, 
			 "cosmo_polarized_energy": -13.46, 
			 "cosmo_cavitation_energy": 32.87, 
			 "cosmo_dispersion_energy": -23.29, 
			 "cosmo_repulsion_energy": 1.86, 
			 "cosmo_total_nonelectrostatic_energy": 11.45, 
			 "SMD_solvation_energy": 6.23 
		},
		"coords": [
			{
				"x": 1.2267952495,
				"y": 3.9283035446,
				"z": 0.3703702882,
				"element": "C" 
			},
			{
				"x": 0.5821702911,
				"y": 2.8226239248,
				"z": -0.474371247,
				"element": "C" 
			},
			{
				"x": -0.233071336,
				"y": 1.7954789425,
				"z": 0.3291380217,
				"element": "C" 
			},
			{
				"x": 0.6014379069,
				"y": 0.9359382553,
				"z": 1.2878998146,
				"element": "C" 
			},
			{
				"x": -0.2177777035,
				"y": -0.1261668176,
				"z": 2.0568532978,
				"element": "C" 
			},
			{
				"x": -0.8028607229,
				"y": -1.2116012419,
				"z": 1.1787935492,
				"element": "C" 
			},
			{
				"x": -2.1649424006,
				"y": -1.228892562,
				"z": 0.8430610386,
				"element": "C" 
			},
			{
				"x": -2.6930517326,
				"y": -2.2233148704,
				"z": 0.0251285984,
				"element": "C" 
			},
			{
				"x": -1.8656075653,
				"y": -3.2254901591,
				"z": -0.4969329825,
				"element": "C" 
			},
			{
				"x": -0.5051468819,
				"y": -3.2260928602,
				"z": -0.154297791,
				"element": "C" 
			},
			{
				"x": 0.0143352533,
				"y": -2.2335631074,
				"z": 0.6724816932,
				"element": "C" 
			},
			{
				"x": -2.4956377324,
				"y": -4.2693306473,
				"z": -1.3667042519,
				"element": "C" 
			},
			{
				"x": -1.660027444,
				"y": -4.9832727614,
				"z": -2.1705966931,
				"element": "O" 
			},
			{
				"x": -3.68334153,
				"y": -4.4941551505,
				"z": -1.3840015604,
				"element": "O" 
			},
			{
				"x": 1.7439078438,
				"y": 4.6560348317,
				"z": -0.2635307548,
				"element": "H" 
			},
			{
				"x": 1.9629006914,
				"y": 3.5301768626,
				"z": 1.076443725,
				"element": "H" 
			},
			{
				"x": 0.4717931961,
				"y": 4.4717691066,
				"z": 0.9505808712,
				"element": "H" 
			},
			{
				"x": 1.360182427,
				"y": 2.2974235126,
				"z": -1.0454966479,
				"element": "H" 
			},
			{
				"x": -0.0781189622,
				"y": 3.284372806,
				"z": -1.2192741102,
				"element": "H" 
			},
			{
				"x": -0.7618466654,
				"y": 1.138339704,
				"z": -0.3722969434,
				"element": "H" 
			},
			{
				"x": -1.0119933774,
				"y": 2.3205540614,
				"z": 0.9014589034,
				"element": "H" 
			},
			{
				"x": 1.0997360303,
				"y": 1.5753496601,
				"z": 2.0262396689,
				"element": "H" 
			},
			{
				"x": 1.4010680738,
				"y": 0.434501359,
				"z": 0.7252632913,
				"element": "H" 
			},
			{
				"x": -1.0250238584,
				"y": 0.3720903982,
				"z": 2.6070247263,
				"element": "H" 
			},
			{
				"x": 0.4322069985,
				"y": -0.5893053377,
				"z": 2.8095282589,
				"element": "H" 
			},
			{
				"x": -2.8192381861,
				"y": -0.4549973198,
				"z": 1.2356101367,
				"element": "H" 
			},
			{
				"x": -3.7487310418,
				"y": -2.244298423,
				"z": -0.2235820465,
				"element": "H" 
			},
			{
				"x": 0.1536298708,
				"y": -4.024320919,
				"z": -0.4895025117,
				"element": "H" 
			},
			{
				"x": 1.0673951578,
				"y": -2.2591682122,
				"z": 0.9412256334,
				"element": "H" 
			},
			{
				"x": -0.7785418498,
				"y": -4.5856865799,
				"z": -2.1697139763,
				"element": "H" 
			}
		],
		 "valence_orbital": [ 
			{
				"type": "occ",
				"energy": -0.31988,
				"method": "rhf"
			},
			{
				"type": "occ",
				"energy": -0.31171,
				"method": "rhf"
			},
			{
				"type": "occ",
				"energy": -0.27183,
				"method": "rhf"
			},
			{
				"type": "occ",
				"energy": -0.26777,
				"method": "rhf"
			},
			{
				"type": "occ",
				"energy": -0.2554,
				"method": "rhf"
			},
			{
				"type": "unocc",
				"energy": -0.04747,
				"method": "rhf"
			},
			{
				"type": "unocc",
				"energy": -0.02012,
				"method": "rhf"
			},
			{
				"type": "unocc",
				"energy": 0.0483,
				"method": "rhf"
			},
			{
				"type": "unocc",
				"energy": 0.06458,
				"method": "rhf"
			},
			{
				"type": "unocc",
				"energy": 0.08546,
				"method": "rhf"
			}
		],
		"cosmo_sigma_profile": { 
			"-0.025": 0.0,
			"-0.024": 0.0,
			"-0.023": 0.0,
			"-0.022": 0.0,
			"-0.021": 0.0,
			"-0.02": 0.0,
			"-0.019": 0.0849426532728,
			"-0.018": 0.646095105808,
			"-0.017": 1.11328909997,
			"-0.016": 0.919482354332,
			"-0.015": 0.80941552393,
			"-0.014": 0.700926456468,
			"-0.013": 1.10508261025,
			"-0.012": 1.67884625443,
			"-0.011": 0.896939190407,
			"-0.01": 0.951668519198,
			"-0.009": 1.13844706524,
			"-0.008": 1.7761214707,
			"-0.007": 1.73736210236,
			"-0.006": 5.5077892006,
			"-0.005": 9.34631904997,
			"-0.004": 12.6041537045,
			"-0.003": 16.5097873953,
			"-0.002": 30.0332146389,
			"-0.001": 35.4848774844,
			"0.0": 34.48184102,
			"0.001": 30.4101452512,
			"0.002": 16.883962503,
			"0.003": 11.7706150453,
			"0.004": 10.9765640847,
			"0.005": 1.95222714249,
			"0.006": 2.64409803013,
			"0.007": 2.403458239,
			"0.008": 2.84391120099,
			"0.009": 2.7292382021,
			"0.01": 4.53880529659,
			"0.011": 5.30112954498,
			"0.012": 5.48030580196,
			"0.013": 2.09073718132,
			"0.014": 0.186438505145,
			"0.015": 0.0,
			"0.016": 0.0,
			"0.017": 0.0,
			"0.018": 0.0,
			"0.019": 0.0,
			"0.02": 0.0,
			"0.021": 0.0,
			"0.022": 0.0,
			"0.023": 0.0,
			"0.024": 0.0,
			"0.025": 0.0
		}
	}
}
