{
	 "smiles": "CC(CCC1=CC=C(CCC(C)=O)C=C1)NC(=O)C1=CC=CC=C1", 
	 "Tm": 395.15, 
	 "num_atms": 49, 
	 "gaussian": { 
		 "optdone": 1, 
		 "sigma_profile": "yes", 
		 "theory": "DFT", 
		 "functional": "B3LYP", 
		 "basiset": "6-31G**", 
		 "properties": { 
			 "R2extent": 9740.4636, 
			 "electric_dipole_moment_norm": 5.59136811165, 
			 "electric_quadrupole_moment_norm": 20.6511803728, 
			 "total_energy": -1020.54485358, 
			 "HOMO_LUMO_gap": 0.20869, 
			 "cosmo_polarized_energy": -17.8, 
			 "cosmo_cavitation_energy": 51.02, 
			 "cosmo_dispersion_energy": -31.71, 
			 "cosmo_repulsion_energy": 2.37, 
			 "cosmo_total_nonelectrostatic_energy": 21.68, 
			 "SMD_solvation_energy": 8.45 
		},
		"coords": [
			{
				"x": -3.1130355209,
				"y": -4.0447476557,
				"z": 1.8930302941,
				"element": "C" 
			},
			{
				"x": -1.6571192275,
				"y": -3.6806476671,
				"z": 2.2200643314,
				"element": "C" 
			},
			{
				"x": -1.5584413136,
				"y": -2.8558243606,
				"z": 3.510630818,
				"element": "C" 
			},
			{
				"x": -0.1242931354,
				"y": -2.5143040458,
				"z": 3.9848176906,
				"element": "C" 
			},
			{
				"x": 0.472027928,
				"y": -1.2401672319,
				"z": 3.4152915469,
				"element": "C" 
			},
			{
				"x": 1.6061929374,
				"y": -1.2548154979,
				"z": 2.5955011969,
				"element": "C" 
			},
			{
				"x": 2.1720144688,
				"y": -0.0667473637,
				"z": 2.1247401368,
				"element": "C" 
			},
			{
				"x": 1.6216368974,
				"y": 1.1767965816,
				"z": 2.4526778086,
				"element": "C" 
			},
			{
				"x": 2.2358185888,
				"y": 2.4726082635,
				"z": 1.962333999,
				"element": "C" 
			},
			{
				"x": 1.3934218584,
				"y": 3.2076276949,
				"z": 0.8902728122,
				"element": "C" 
			},
			{
				"x": 1.274785454,
				"y": 2.4739198197,
				"z": -0.4388800831,
				"element": "C" 
			},
			{
				"x": 2.5625437931,
				"y": 2.0990456086,
				"z": -1.1555538395,
				"element": "C" 
			},
			{
				"x": 0.186763977,
				"y": 2.2014564174,
				"z": -0.9151979717,
				"element": "O" 
			},
			{
				"x": 0.4794882456,
				"y": 1.1924000007,
				"z": 3.2674765934,
				"element": "C" 
			},
			{
				"x": -0.0821110331,
				"y": 0.0095600337,
				"z": 3.7392925711,
				"element": "C" 
			},
			{
				"x": -1.0275555293,
				"y": -2.984710307,
				"z": 1.0951125223,
				"element": "N" 
			},
			{
				"x": -0.5859452011,
				"y": -3.6732379176,
				"z": 0.0005298549,
				"element": "C" 
			},
			{
				"x": -0.6706511942,
				"y": -4.9005645608,
				"z": -0.0662637752,
				"element": "O" 
			},
			{
				"x": 0.0124996085,
				"y": -2.8705335241,
				"z": -1.1236892404,
				"element": "C" 
			},
			{
				"x": -0.1367438217,
				"y": -1.4839437291,
				"z": -1.2677611038,
				"element": "C" 
			},
			{
				"x": 0.4276002496,
				"y": -0.8196960177,
				"z": -2.3582004304,
				"element": "C" 
			},
			{
				"x": 1.1511779397,
				"y": -1.5374928751,
				"z": -3.3125879503,
				"element": "C" 
			},
			{
				"x": 1.3019828043,
				"y": -2.9206074674,
				"z": -3.1788742432,
				"element": "C" 
			},
			{
				"x": 0.7310640429,
				"y": -3.5824172503,
				"z": -2.0948303912,
				"element": "C" 
			},
			{
				"x": -3.1473420833,
				"y": -4.6475073081,
				"z": 0.9830267957,
				"element": "H" 
			},
			{
				"x": -3.7170301321,
				"y": -3.1432513328,
				"z": 1.7410428195,
				"element": "H" 
			},
			{
				"x": -3.5593512789,
				"y": -4.6255973496,
				"z": 2.7076731582,
				"element": "H" 
			},
			{
				"x": -1.0987004373,
				"y": -4.6151964841,
				"z": 2.3535236395,
				"element": "H" 
			},
			{
				"x": -2.1452078682,
				"y": -1.932746645,
				"z": 3.4054802503,
				"element": "H" 
			},
			{
				"x": -2.0573292224,
				"y": -3.4395894189,
				"z": 4.2923962153,
				"element": "H" 
			},
			{
				"x": -0.1455184588,
				"y": -2.415588254,
				"z": 5.0775178617,
				"element": "H" 
			},
			{
				"x": 0.5392166422,
				"y": -3.3595534619,
				"z": 3.7690721567,
				"element": "H" 
			},
			{
				"x": 2.0593357096,
				"y": -2.205630068,
				"z": 2.3276362405,
				"element": "H" 
			},
			{
				"x": 3.0649160714,
				"y": -0.1128766706,
				"z": 1.5056350776,
				"element": "H" 
			},
			{
				"x": 3.2425052253,
				"y": 2.2805860685,
				"z": 1.5749865188,
				"element": "H" 
			},
			{
				"x": 2.3612862877,
				"y": 3.1579688618,
				"z": 2.8091901751,
				"element": "H" 
			},
			{
				"x": 0.3795103797,
				"y": 3.3927160624,
				"z": 1.2548428018,
				"element": "H" 
			},
			{
				"x": 1.8623497885,
				"y": 4.1813347826,
				"z": 0.6883626646,
				"element": "H" 
			},
			{
				"x": 3.3950590198,
				"y": 2.7623416217,
				"z": -0.9045766116,
				"element": "H" 
			},
			{
				"x": 2.842996363,
				"y": 1.0788640399,
				"z": -0.8678126157,
				"element": "H" 
			},
			{
				"x": 2.3930498067,
				"y": 2.1019933798,
				"z": -2.2339452009,
				"element": "H" 
			},
			{
				"x": 0.034281006,
				"y": 2.143900759,
				"z": 3.5495332361,
				"element": "H" 
			},
			{
				"x": -0.9544063359,
				"y": 0.0565861633,
				"z": 4.3873322907,
				"element": "H" 
			},
			{
				"x": -0.8466669911,
				"y": -1.9960328766,
				"z": 1.1730136708,
				"element": "H" 
			},
			{
				"x": -0.7154699299,
				"y": -0.9018180892,
				"z": -0.5564508218,
				"element": "H" 
			},
			{
				"x": 0.29382603,
				"y": 0.2538097651,
				"z": -2.4448136035,
				"element": "H" 
			},
			{
				"x": 1.589420076,
				"y": -1.0221322873,
				"z": -4.1631356509,
				"element": "H" 
			},
			{
				"x": 1.859418054,
				"y": -3.4827196954,
				"z": -3.9230105976,
				"element": "H" 
			},
			{
				"x": 0.8184294609,
				"y": -4.6570185112,
				"z": -1.9764536182,
				"element": "H" 
			}
		],
		 "valence_orbital": [ 
			{
				"type": "occ",
				"energy": -0.24813,
				"method": "rhf"
			},
			{
				"type": "occ",
				"energy": -0.24576,
				"method": "rhf"
			},
			{
				"type": "occ",
				"energy": -0.24423,
				"method": "rhf"
			},
			{
				"type": "occ",
				"energy": -0.23683,
				"method": "rhf"
			},
			{
				"type": "occ",
				"energy": -0.23319,
				"method": "rhf"
			},
			{
				"type": "unocc",
				"energy": -0.0245,
				"method": "rhf"
			},
			{
				"type": "unocc",
				"energy": -0.02284,
				"method": "rhf"
			},
			{
				"type": "unocc",
				"energy": -0.01048,
				"method": "rhf"
			},
			{
				"type": "unocc",
				"energy": -0.01,
				"method": "rhf"
			},
			{
				"type": "unocc",
				"energy": 0.00413,
				"method": "rhf"
			}
		],
		"cosmo_sigma_profile": { 
			"-0.025": 0.0,
			"-0.024": 0.0,
			"-0.023": 0.0,
			"-0.022": 0.0,
			"-0.021": 0.0,
			"-0.02": 0.0,
			"-0.019": 0.0,
			"-0.018": 0.0,
			"-0.017": 0.0,
			"-0.016": 0.0,
			"-0.015": 0.0,
			"-0.014": 0.0,
			"-0.013": 0.0,
			"-0.012": 0.200821348273,
			"-0.011": 0.593993955127,
			"-0.01": 0.662120337769,
			"-0.009": 1.00243587851,
			"-0.008": 0.95995407072,
			"-0.007": 1.76049176162,
			"-0.006": 9.71535334286,
			"-0.005": 29.4482584648,
			"-0.004": 40.4591650117,
			"-0.003": 51.6398910835,
			"-0.002": 41.5795161292,
			"-0.001": 37.0441715036,
			"0.0": 33.4808920408,
			"0.001": 31.4618832192,
			"0.002": 23.1493281665,
			"0.003": 22.5256180986,
			"0.004": 19.9046144174,
			"0.005": 17.1848782935,
			"0.006": 8.86640313549,
			"0.007": 3.92367031285,
			"0.008": 3.19142564275,
			"0.009": 3.01375626055,
			"0.01": 3.32567890548,
			"0.011": 3.77534153123,
			"0.012": 3.88370761621,
			"0.013": 3.64195666758,
			"0.014": 4.62394734449,
			"0.015": 0.686211811718,
			"0.016": 0.0,
			"0.017": 0.0,
			"0.018": 0.0,
			"0.019": 0.0,
			"0.02": 0.0,
			"0.021": 0.0,
			"0.022": 0.0,
			"0.023": 0.0,
			"0.024": 0.0,
			"0.025": 0.0
		}
	}
}
