{
	 "smiles": "COC1=CC2=C(C=CC(O)=C2)C=C1", 
	 "Tm": 391.15, 
	 "num_atms": 23, 
	 "gaussian": { 
		 "optdone": 1, 
		 "sigma_profile": "yes", 
		 "theory": "DFT", 
		 "functional": "B3LYP", 
		 "basiset": "6-31G**", 
		 "properties": { 
			 "R2extent": 3405.6485, 
			 "electric_dipole_moment_norm": 0.704262969352, 
			 "electric_quadrupole_moment_norm": 14.962600525, 
			 "total_energy": -575.640512384, 
			 "HOMO_LUMO_gap": 0.17261, 
			 "cosmo_polarized_energy": -11.11, 
			 "cosmo_cavitation_energy": 26.69, 
			 "cosmo_dispersion_energy": -20.02, 
			 "cosmo_repulsion_energy": 1.56, 
			 "cosmo_total_nonelectrostatic_energy": 8.23, 
			 "SMD_solvation_energy": 5.38 
		},
		"coords": [
			{
				"x": 2.9702708318,
				"y": -0.0232347366,
				"z": -1.9044117054,
				"element": "C" 
			},
			{
				"x": 2.8786993629,
				"y": -0.853812655,
				"z": -0.7584243646,
				"element": "O" 
			},
			{
				"x": 1.6358792504,
				"y": -1.1816490797,
				"z": -0.3012153221,
				"element": "C" 
			},
			{
				"x": 0.4469171443,
				"y": -0.7671743089,
				"z": -0.8675757481,
				"element": "C" 
			},
			{
				"x": -0.7970396694,
				"y": -1.1719689649,
				"z": -0.3044605873,
				"element": "C" 
			},
			{
				"x": -0.7986830626,
				"y": -2.0138486119,
				"z": 0.8559758768,
				"element": "C" 
			},
			{
				"x": -2.0412768417,
				"y": -2.4108968252,
				"z": 1.4083216219,
				"element": "C" 
			},
			{
				"x": -3.2328482304,
				"y": -2.0034038154,
				"z": 0.8514142993,
				"element": "C" 
			},
			{
				"x": -3.2270162022,
				"y": -1.1708665194,
				"z": -0.2962069812,
				"element": "C" 
			},
			{
				"x": -4.3914875079,
				"y": -0.7473306516,
				"z": -0.8754436273,
				"element": "O" 
			},
			{
				"x": -2.0342158265,
				"y": -0.7644048755,
				"z": -0.8612570847,
				"element": "C" 
			},
			{
				"x": 0.4487437165,
				"y": -2.4179197465,
				"z": 1.4078974155,
				"element": "C" 
			},
			{
				"x": 1.63549555,
				"y": -2.017651271,
				"z": 0.851228243,
				"element": "C" 
			},
			{
				"x": 4.0358108602,
				"y": 0.1123390842,
				"z": -2.0959415427,
				"element": "H" 
			},
			{
				"x": 2.505355703,
				"y": 0.9560076041,
				"z": -1.7312836427,
				"element": "H" 
			},
			{
				"x": 2.50089432,
				"y": -0.490370969,
				"z": -2.7799167112,
				"element": "H" 
			},
			{
				"x": 0.432366328,
				"y": -0.1307188202,
				"z": -1.7447924473,
				"element": "H" 
			},
			{
				"x": -2.0451579797,
				"y": -3.0492241081,
				"z": 2.2882937579,
				"element": "H" 
			},
			{
				"x": -4.180404868,
				"y": -2.3157426293,
				"z": 1.2857997948,
				"element": "H" 
			},
			{
				"x": -5.1386144668,
				"y": -1.1050969906,
				"z": -0.3793009949,
				"element": "H" 
			},
			{
				"x": -2.0573037102,
				"y": -0.1270596961,
				"z": -1.7397854564,
				"element": "H" 
			},
			{
				"x": 0.4498689122,
				"y": -3.0562988392,
				"z": 2.2879697235,
				"element": "H" 
			},
			{
				"x": 2.592446386,
				"y": -2.319572574,
				"z": 1.2635154833,
				"element": "H" 
			}
		],
		 "valence_orbital": [ 
			{
				"type": "occ",
				"energy": -0.32375,
				"method": "rhf"
			},
			{
				"type": "occ",
				"energy": -0.27999,
				"method": "rhf"
			},
			{
				"type": "occ",
				"energy": -0.27559,
				"method": "rhf"
			},
			{
				"type": "occ",
				"energy": -0.21115,
				"method": "rhf"
			},
			{
				"type": "occ",
				"energy": -0.20026,
				"method": "rhf"
			},
			{
				"type": "unocc",
				"energy": -0.02765,
				"method": "rhf"
			},
			{
				"type": "unocc",
				"energy": 0.00619,
				"method": "rhf"
			},
			{
				"type": "unocc",
				"energy": 0.04075,
				"method": "rhf"
			},
			{
				"type": "unocc",
				"energy": 0.07205,
				"method": "rhf"
			},
			{
				"type": "unocc",
				"energy": 0.09737,
				"method": "rhf"
			}
		],
		"cosmo_sigma_profile": { 
			"-0.025": 0.0,
			"-0.024": 0.0,
			"-0.023": 0.0,
			"-0.022": 0.0,
			"-0.021": 0.0,
			"-0.02": 0.0,
			"-0.019": 0.0,
			"-0.018": 0.272286020193,
			"-0.017": 1.3952047597,
			"-0.016": 0.717348166409,
			"-0.015": 1.14725841114,
			"-0.014": 0.851530019191,
			"-0.013": 1.35394909592,
			"-0.012": 1.05075489499,
			"-0.011": 0.727328254057,
			"-0.01": 0.854084391618,
			"-0.009": 1.22795777284,
			"-0.008": 1.22513714766,
			"-0.007": 1.13099998098,
			"-0.006": 11.8756603666,
			"-0.005": 20.898083006,
			"-0.004": 18.2268160313,
			"-0.003": 16.5105551664,
			"-0.002": 11.759663159,
			"-0.001": 10.0217695775,
			"0.0": 7.34585513862,
			"0.001": 8.35135155321,
			"0.002": 11.5479966604,
			"0.003": 13.1527784504,
			"0.004": 21.5152738393,
			"0.005": 28.8279219564,
			"0.006": 6.13967618063,
			"0.007": 2.61015439327,
			"0.008": 2.40054006645,
			"0.009": 3.25308323625,
			"0.01": 2.96702449388,
			"0.011": 2.34041143548,
			"0.012": 1.03078461118,
			"0.013": 0.0,
			"0.014": 0.0,
			"0.015": 0.0,
			"0.016": 0.0,
			"0.017": 0.0,
			"0.018": 0.0,
			"0.019": 0.0,
			"0.02": 0.0,
			"0.021": 0.0,
			"0.022": 0.0,
			"0.023": 0.0,
			"0.024": 0.0,
			"0.025": 0.0
		}
	}
}
