{
	 "smiles": "CC(C)(C)C(=O)NNCC1=CC=CC=C1", 
	 "Tm": 341.65, 
	 "num_atms": 33, 
	 "gaussian": { 
		 "optdone": 1, 
		 "sigma_profile": "yes", 
		 "theory": "DFT", 
		 "functional": "B3LYP", 
		 "basiset": "6-31G**", 
		 "properties": { 
			 "R2extent": 4349.9242, 
			 "electric_dipole_moment_norm": 2.38171056596, 
			 "electric_quadrupole_moment_norm": 7.24198439863, 
			 "total_energy": -652.849865621, 
			 "HOMO_LUMO_gap": 0.22952, 
			 "cosmo_polarized_energy": -11.31, 
			 "cosmo_cavitation_energy": 35.33, 
			 "cosmo_dispersion_energy": -23.93, 
			 "cosmo_repulsion_energy": 1.9, 
			 "cosmo_total_nonelectrostatic_energy": 13.31, 
			 "SMD_solvation_energy": 5.82 
		},
		"coords": [
			{
				"x": -2.7071049944,
				"y": 2.0308261304,
				"z": -2.778042056,
				"element": "C" 
			},
			{
				"x": -2.4867165334,
				"y": 1.0945685023,
				"z": -1.5705650592,
				"element": "C" 
			},
			{
				"x": -3.6318945097,
				"y": 1.2868750744,
				"z": -0.5523842156,
				"element": "C" 
			},
			{
				"x": -2.4546529691,
				"y": -0.3703578817,
				"z": -2.0424016595,
				"element": "C" 
			},
			{
				"x": -1.1920219047,
				"y": 1.5583017584,
				"z": -0.8702779703,
				"element": "C" 
			},
			{
				"x": -1.0665362613,
				"y": 2.7061223744,
				"z": -0.4452824046,
				"element": "O" 
			},
			{
				"x": -0.1800225468,
				"y": 0.6500920004,
				"z": -0.7359240931,
				"element": "N" 
			},
			{
				"x": 1.0697522833,
				"y": 1.046078008,
				"z": -0.2129583418,
				"element": "N" 
			},
			{
				"x": 1.1228708035,
				"y": 0.8569245991,
				"z": 1.2496352803,
				"element": "C" 
			},
			{
				"x": 1.2305536215,
				"y": -0.6054387737,
				"z": 1.6331030356,
				"element": "C" 
			},
			{
				"x": 2.0893640099,
				"y": -1.4671423181,
				"z": 0.9362315211,
				"element": "C" 
			},
			{
				"x": 2.2092251219,
				"y": -2.805294323,
				"z": 1.3105060041,
				"element": "C" 
			},
			{
				"x": 1.4737990217,
				"y": -3.3027563369,
				"z": 2.3897091448,
				"element": "C" 
			},
			{
				"x": 0.6152752373,
				"y": -2.453160305,
				"z": 3.0880958432,
				"element": "C" 
			},
			{
				"x": 0.4930808789,
				"y": -1.1148206843,
				"z": 2.7073578524,
				"element": "C" 
			},
			{
				"x": -2.6996398118,
				"y": 3.0739480574,
				"z": -2.4543884818,
				"element": "H" 
			},
			{
				"x": -3.6692991545,
				"y": 1.8145175024,
				"z": -3.2545805103,
				"element": "H" 
			},
			{
				"x": -1.9209793276,
				"y": 1.9013627233,
				"z": -3.5303895029,
				"element": "H" 
			},
			{
				"x": -3.6424473103,
				"y": 2.3151586232,
				"z": -0.1843004064,
				"element": "H" 
			},
			{
				"x": -3.5148204703,
				"y": 0.6169225551,
				"z": 0.306549545,
				"element": "H" 
			},
			{
				"x": -4.5967498965,
				"y": 1.0690007558,
				"z": -1.0227856221,
				"element": "H" 
			},
			{
				"x": -1.6815705778,
				"y": -0.5427237834,
				"z": -2.8008294291,
				"element": "H" 
			},
			{
				"x": -2.2942028815,
				"y": -1.0655886042,
				"z": -1.2110337193,
				"element": "H" 
			},
			{
				"x": -3.4136822647,
				"y": -0.6298407486,
				"z": -2.5020209975,
				"element": "H" 
			},
			{
				"x": -0.1790020763,
				"y": -0.2261995096,
				"z": -1.2322605034,
				"element": "H" 
			},
			{
				"x": 1.1293083969,
				"y": 2.0470780732,
				"z": -0.4009874151,
				"element": "H" 
			},
			{
				"x": 2.0196409509,
				"y": 1.3960380768,
				"z": 1.5838566254,
				"element": "H" 
			},
			{
				"x": 0.2608132001,
				"y": 1.3158473254,
				"z": 1.7533065427,
				"element": "H" 
			},
			{
				"x": 2.6545535638,
				"y": -1.0776624657,
				"z": 0.0945572868,
				"element": "H" 
			},
			{
				"x": 2.8789905874,
				"y": -3.4614952582,
				"z": 0.7611562742,
				"element": "H" 
			},
			{
				"x": 1.5678868656,
				"y": -4.3450603951,
				"z": 2.6811073329,
				"element": "H" 
			},
			{
				"x": 0.0346970128,
				"y": -2.8318370299,
				"z": 3.9247855236,
				"element": "H" 
			},
			{
				"x": -0.1836680648,
				"y": -0.4583837227,
				"z": 3.2493545759,
				"element": "H" 
			}
		],
		 "valence_orbital": [ 
			{
				"type": "occ",
				"energy": -0.28287,
				"method": "rhf"
			},
			{
				"type": "occ",
				"energy": -0.24918,
				"method": "rhf"
			},
			{
				"type": "occ",
				"energy": -0.24723,
				"method": "rhf"
			},
			{
				"type": "occ",
				"energy": -0.24283,
				"method": "rhf"
			},
			{
				"type": "occ",
				"energy": -0.23207,
				"method": "rhf"
			},
			{
				"type": "unocc",
				"energy": -0.00255,
				"method": "rhf"
			},
			{
				"type": "unocc",
				"energy": 0.0008,
				"method": "rhf"
			},
			{
				"type": "unocc",
				"energy": 0.0281,
				"method": "rhf"
			},
			{
				"type": "unocc",
				"energy": 0.07297,
				"method": "rhf"
			},
			{
				"type": "unocc",
				"energy": 0.09721,
				"method": "rhf"
			}
		],
		"cosmo_sigma_profile": { 
			"-0.025": 0.0,
			"-0.024": 0.0,
			"-0.023": 0.0,
			"-0.022": 0.0,
			"-0.021": 0.0,
			"-0.02": 0.0,
			"-0.019": 0.0,
			"-0.018": 0.0,
			"-0.017": 0.0,
			"-0.016": 0.0,
			"-0.015": 0.0,
			"-0.014": 0.0,
			"-0.013": 0.169203328658,
			"-0.012": 0.691314154887,
			"-0.011": 0.68215021262,
			"-0.01": 1.8284354797,
			"-0.009": 2.09917366951,
			"-0.008": 1.52516364972,
			"-0.007": 2.92524551528,
			"-0.006": 5.25934735254,
			"-0.005": 15.170527155,
			"-0.004": 22.9888657845,
			"-0.003": 35.322728863,
			"-0.002": 27.8489167012,
			"-0.001": 26.3646305668,
			"0.0": 29.4593141478,
			"0.001": 26.1082538755,
			"0.002": 12.3643193699,
			"0.003": 11.3638616984,
			"0.004": 10.7975200374,
			"0.005": 11.2632251079,
			"0.006": 10.4269401633,
			"0.007": 5.12378287308,
			"0.008": 2.11431353589,
			"0.009": 1.54683266201,
			"0.01": 2.15148017984,
			"0.011": 1.82202858081,
			"0.012": 2.13746584888,
			"0.013": 2.53462190064,
			"0.014": 3.89086490835,
			"0.015": 0.44833221886,
			"0.016": 0.0,
			"0.017": 0.0,
			"0.018": 0.0,
			"0.019": 0.0,
			"0.02": 0.0,
			"0.021": 0.0,
			"0.022": 0.0,
			"0.023": 0.0,
			"0.024": 0.0,
			"0.025": 0.0
		}
	}
}
