{
	 "smiles": "ClCC1=NOC(=N1)C1=CSC=C1", 
	 "Tm": 342.65, 
	 "num_atms": 17, 
	 "gaussian": { 
		 "optdone": 1, 
		 "sigma_profile": "yes", 
		 "theory": "DFT", 
		 "functional": "B3LYP", 
		 "basiset": "6-31G**", 
		 "properties": { 
			 "R2extent": 3987.9031, 
			 "electric_dipole_moment_norm": 3.03071721215, 
			 "electric_quadrupole_moment_norm": 11.1340742525, 
			 "total_energy": -1312.81286011, 
			 "HOMO_LUMO_gap": 0.18845, 
			 "cosmo_polarized_energy": -9.35, 
			 "cosmo_cavitation_energy": 26.09, 
			 "cosmo_dispersion_energy": -19.98, 
			 "cosmo_repulsion_energy": 1.55, 
			 "cosmo_total_nonelectrostatic_energy": 7.65, 
			 "SMD_solvation_energy": 2.38 
		},
		"coords": [
			{
				"x": 1.2718629894,
				"y": 4.5797204007,
				"z": 1.487243522,
				"element": "Cl" 
			},
			{
				"x": 2.3107324168,
				"y": 3.0904413554,
				"z": 1.419336376,
				"element": "C" 
			},
			{
				"x": 1.4937863942,
				"y": 1.8456342963,
				"z": 1.4591583766,
				"element": "C" 
			},
			{
				"x": 1.4810711629,
				"y": 1.0802780409,
				"z": 2.5243086659,
				"element": "N" 
			},
			{
				"x": 0.6235974819,
				"y": 0.0353873892,
				"z": 2.1527799884,
				"element": "O" 
			},
			{
				"x": 0.2154606905,
				"y": 0.2985338698,
				"z": 0.8924064102,
				"element": "C" 
			},
			{
				"x": 0.7245186806,
				"y": 1.4027744911,
				"z": 0.412265591,
				"element": "N" 
			},
			{
				"x": -0.691625778,
				"y": -0.624224093,
				"z": 0.2382137917,
				"element": "C" 
			},
			{
				"x": -1.1731190434,
				"y": -1.780364283,
				"z": 0.8110543449,
				"element": "C" 
			},
			{
				"x": -2.2253147055,
				"y": -2.6219609988,
				"z": -0.2609665831,
				"element": "S" 
			},
			{
				"x": -2.0225639255,
				"y": -1.4143745714,
				"z": -1.4956888208,
				"element": "C" 
			},
			{
				"x": -1.1852221419,
				"y": -0.417147995,
				"z": -1.0936047872,
				"element": "C" 
			},
			{
				"x": 2.9838576904,
				"y": 3.126725937,
				"z": 2.2744033374,
				"element": "H" 
			},
			{
				"x": 2.8728134049,
				"y": 3.149906052,
				"z": 0.4875022366,
				"element": "H" 
			},
			{
				"x": -0.9598103834,
				"y": -2.166577286,
				"z": 1.7974671471,
				"element": "H" 
			},
			{
				"x": -2.5366817453,
				"y": -1.5174802767,
				"z": -2.4408457573,
				"element": "H" 
			},
			{
				"x": -0.9144631887,
				"y": 0.4407276713,
				"z": -1.6959338395,
				"element": "H" 
			}
		],
		 "valence_orbital": [ 
			{
				"type": "occ",
				"energy": -0.30771,
				"method": "rhf"
			},
			{
				"type": "occ",
				"energy": -0.30369,
				"method": "rhf"
			},
			{
				"type": "occ",
				"energy": -0.30115,
				"method": "rhf"
			},
			{
				"type": "occ",
				"energy": -0.2668,
				"method": "rhf"
			},
			{
				"type": "occ",
				"energy": -0.25234,
				"method": "rhf"
			},
			{
				"type": "unocc",
				"energy": -0.06389,
				"method": "rhf"
			},
			{
				"type": "unocc",
				"energy": -0.02346,
				"method": "rhf"
			},
			{
				"type": "unocc",
				"energy": -0.00676,
				"method": "rhf"
			},
			{
				"type": "unocc",
				"energy": 0.01229,
				"method": "rhf"
			},
			{
				"type": "unocc",
				"energy": 0.051,
				"method": "rhf"
			}
		],
		"cosmo_sigma_profile": { 
			"-0.025": 0.0,
			"-0.024": 0.0,
			"-0.023": 0.0,
			"-0.022": 0.0,
			"-0.021": 0.0,
			"-0.02": 0.0,
			"-0.019": 0.0,
			"-0.018": 0.0,
			"-0.017": 0.0,
			"-0.016": 0.0,
			"-0.015": 0.0,
			"-0.014": 0.0,
			"-0.013": 0.0,
			"-0.012": 0.0,
			"-0.011": 0.00474548069946,
			"-0.01": 1.50301194635,
			"-0.009": 7.51157073609,
			"-0.008": 8.73559386586,
			"-0.007": 7.58263747733,
			"-0.006": 9.87776427465,
			"-0.005": 9.56554670732,
			"-0.004": 9.55685582732,
			"-0.003": 9.50352157608,
			"-0.002": 14.0973626923,
			"-0.001": 13.6919978723,
			"0.0": 17.7215048192,
			"0.001": 19.0876874353,
			"0.002": 23.0507035939,
			"0.003": 13.4230723828,
			"0.004": 11.4277096365,
			"0.005": 14.0378809823,
			"0.006": 10.7053413039,
			"0.007": 2.63606195009,
			"0.008": 3.07182553587,
			"0.009": 1.6390985827,
			"0.01": 2.75349261959,
			"0.011": 1.70784291378,
			"0.012": 1.93416371839,
			"0.013": 0.347124137287,
			"0.014": 0.0,
			"0.015": 0.0,
			"0.016": 0.0,
			"0.017": 0.0,
			"0.018": 0.0,
			"0.019": 0.0,
			"0.02": 0.0,
			"0.021": 0.0,
			"0.022": 0.0,
			"0.023": 0.0,
			"0.024": 0.0,
			"0.025": 0.0
		}
	}
}
