{
	 "smiles": "CCOC(=O)C(=O)CC(=O)C1=CC=C(OC)C=C1", 
	 "Tm": 325.15, 
	 "num_atms": 32, 
	 "gaussian": { 
		 "optdone": 1, 
		 "sigma_profile": "yes", 
		 "theory": "DFT", 
		 "functional": "B3LYP", 
		 "basiset": "6-31G**", 
		 "properties": { 
			 "R2extent": 6516.6272, 
			 "electric_dipole_moment_norm": 2.25378219001, 
			 "electric_quadrupole_moment_norm": 28.5808999988, 
			 "total_energy": -879.925748288, 
			 "HOMO_LUMO_gap": 0.15402, 
			 "cosmo_polarized_energy": -16.18, 
			 "cosmo_cavitation_energy": 37.49, 
			 "cosmo_dispersion_energy": -25.88, 
			 "cosmo_repulsion_energy": 2.02, 
			 "cosmo_total_nonelectrostatic_energy": 13.63, 
			 "SMD_solvation_energy": 9.55 
		},
		"coords": [
			{
				"x": -1.7775539981,
				"y": -1.5512142523,
				"z": -4.8469427315,
				"element": "C" 
			},
			{
				"x": -0.3340457721,
				"y": -1.1397427506,
				"z": -4.6358989823,
				"element": "C" 
			},
			{
				"x": -0.3165384377,
				"y": -0.1798648416,
				"z": -3.5480158281,
				"element": "O" 
			},
			{
				"x": 0.8890308439,
				"y": 0.1947424678,
				"z": -3.0989252908,
				"element": "C" 
			},
			{
				"x": 1.9519770649,
				"y": -0.1510083747,
				"z": -3.5562860016,
				"element": "O" 
			},
			{
				"x": 0.760692851,
				"y": 1.1422791271,
				"z": -1.8786126997,
				"element": "C" 
			},
			{
				"x": 1.744277566,
				"y": 1.7481373946,
				"z": -1.514185874,
				"element": "O" 
			},
			{
				"x": -0.588254905,
				"y": 1.2341929343,
				"z": -1.1805941707,
				"element": "C" 
			},
			{
				"x": -0.8937377767,
				"y": -0.0092790362,
				"z": -0.3077195513,
				"element": "C" 
			},
			{
				"x": -1.6766708599,
				"y": -0.8505036607,
				"z": -0.7219248206,
				"element": "O" 
			},
			{
				"x": -0.2333222458,
				"y": -0.1354225601,
				"z": 1.0153466796,
				"element": "C" 
			},
			{
				"x": 0.7364498049,
				"y": 0.7624706144,
				"z": 1.4857665855,
				"element": "C" 
			},
			{
				"x": 1.3298011995,
				"y": 0.5895144768,
				"z": 2.7353991386,
				"element": "C" 
			},
			{
				"x": 0.9485522088,
				"y": -0.49273749,
				"z": 3.5407628058,
				"element": "C" 
			},
			{
				"x": 1.4547842669,
				"y": -0.7529700835,
				"z": 4.7718963657,
				"element": "O" 
			},
			{
				"x": 2.4505200032,
				"y": 0.1159231922,
				"z": 5.2980284637,
				"element": "C" 
			},
			{
				"x": -0.0239748932,
				"y": -1.4006107876,
				"z": 3.0795921135,
				"element": "C" 
			},
			{
				"x": -0.5991894585,
				"y": -1.2230106384,
				"z": 1.8362596957,
				"element": "C" 
			},
			{
				"x": -1.8358619065,
				"y": -2.3076115422,
				"z": -5.635670545,
				"element": "H" 
			},
			{
				"x": -2.193043051,
				"y": -1.9694604031,
				"z": -3.9263107213,
				"element": "H" 
			},
			{
				"x": -2.3904217375,
				"y": -0.6956379766,
				"z": -5.1448043056,
				"element": "H" 
			},
			{
				"x": 0.3042069448,
				"y": -1.9836875278,
				"z": -4.3584656199,
				"element": "H" 
			},
			{
				"x": 0.1037255927,
				"y": -0.6676124324,
				"z": -5.5213967217,
				"element": "H" 
			},
			{
				"x": -1.3855785153,
				"y": 1.2786152841,
				"z": -1.9227287088,
				"element": "H" 
			},
			{
				"x": -0.5831292007,
				"y": 2.1405293807,
				"z": -0.5714559576,
				"element": "H" 
			},
			{
				"x": 1.0634396452,
				"y": 1.5934915335,
				"z": 0.8703404084,
				"element": "H" 
			},
			{
				"x": 2.0826655492,
				"y": 1.2941116706,
				"z": 3.0668378038,
				"element": "H" 
			},
			{
				"x": 2.706808424,
				"y": -0.2834306217,
				"z": 6.2799755627,
				"element": "H" 
			},
			{
				"x": 2.0722184744,
				"y": 1.1393028102,
				"z": 5.4104086344,
				"element": "H" 
			},
			{
				"x": 3.3469429735,
				"y": 0.1286567237,
				"z": 4.6663244179,
				"element": "H" 
			},
			{
				"x": -0.3001681561,
				"y": -2.2309054962,
				"z": 3.7210708785,
				"element": "H" 
			},
			{
				"x": -1.3462024989,
				"y": -1.9165571344,
				"z": 1.4653289769,
				"element": "H" 
			}
		],
		 "valence_orbital": [ 
			{
				"type": "occ",
				"energy": -0.29896,
				"method": "rhf"
			},
			{
				"type": "occ",
				"energy": -0.26626,
				"method": "rhf"
			},
			{
				"type": "occ",
				"energy": -0.26401,
				"method": "rhf"
			},
			{
				"type": "occ",
				"energy": -0.25044,
				"method": "rhf"
			},
			{
				"type": "occ",
				"energy": -0.2343,
				"method": "rhf"
			},
			{
				"type": "unocc",
				"energy": -0.08028,
				"method": "rhf"
			},
			{
				"type": "unocc",
				"energy": -0.04958,
				"method": "rhf"
			},
			{
				"type": "unocc",
				"energy": -0.01209,
				"method": "rhf"
			},
			{
				"type": "unocc",
				"energy": 0.04132,
				"method": "rhf"
			},
			{
				"type": "unocc",
				"energy": 0.0581,
				"method": "rhf"
			}
		],
		"cosmo_sigma_profile": { 
			"-0.025": 0.0,
			"-0.024": 0.0,
			"-0.023": 0.0,
			"-0.022": 0.0,
			"-0.021": 0.0,
			"-0.02": 0.0,
			"-0.019": 0.0,
			"-0.018": 0.0,
			"-0.017": 0.0,
			"-0.016": 0.0,
			"-0.015": 0.0,
			"-0.014": 0.0,
			"-0.013": 0.0,
			"-0.012": 0.0,
			"-0.011": 0.0,
			"-0.01": 0.0798195670022,
			"-0.009": 0.612163082086,
			"-0.008": 2.29693578508,
			"-0.007": 9.76996655999,
			"-0.006": 23.2522020598,
			"-0.005": 30.0919776288,
			"-0.004": 32.6435441121,
			"-0.003": 23.7915209621,
			"-0.002": 18.3711545387,
			"-0.001": 18.2819225453,
			"0.0": 17.4451332283,
			"0.001": 15.0542065397,
			"0.002": 18.1845180521,
			"0.003": 19.8847424882,
			"0.004": 11.0439603164,
			"0.005": 6.95553389539,
			"0.006": 5.57752149432,
			"0.007": 6.55124018417,
			"0.008": 7.04735302842,
			"0.009": 10.3802181073,
			"0.01": 8.45019399883,
			"0.011": 8.13854110681,
			"0.012": 3.59498916615,
			"0.013": 0.450753962792,
			"0.014": 0.0,
			"0.015": 0.0,
			"0.016": 0.0,
			"0.017": 0.0,
			"0.018": 0.0,
			"0.019": 0.0,
			"0.02": 0.0,
			"0.021": 0.0,
			"0.022": 0.0,
			"0.023": 0.0,
			"0.024": 0.0,
			"0.025": 0.0
		}
	}
}
