{
	 "smiles": "OCC1COC2=CC=CC=C2O1", 
	 "Tm": 362.15, 
	 "num_atms": 22, 
	 "gaussian": { 
		 "optdone": 1, 
		 "sigma_profile": "yes", 
		 "theory": "DFT", 
		 "functional": "B3LYP", 
		 "basiset": "6-31G**", 
		 "properties": { 
			 "R2extent": 2425.7297, 
			 "electric_dipole_moment_norm": 2.07922374457, 
			 "electric_quadrupole_moment_norm": 14.4608726473, 
			 "total_energy": -574.625437172, 
			 "HOMO_LUMO_gap": 0.21356, 
			 "cosmo_polarized_energy": -10.94, 
			 "cosmo_cavitation_energy": 24.84, 
			 "cosmo_dispersion_energy": -18.74, 
			 "cosmo_repulsion_energy": 1.5, 
			 "cosmo_total_nonelectrostatic_energy": 7.6, 
			 "SMD_solvation_energy": 4.43 
		},
		"coords": [
			{
				"x": -3.0922572858,
				"y": 0.3295176665,
				"z": -3.0803010639,
				"element": "O" 
			},
			{
				"x": -1.9136717327,
				"y": 0.6192902646,
				"z": -2.3418477156,
				"element": "C" 
			},
			{
				"x": -2.0444379804,
				"y": 0.1644793504,
				"z": -0.8796225634,
				"element": "C" 
			},
			{
				"x": -2.1976729386,
				"y": -1.3467036873,
				"z": -0.7457871484,
				"element": "C" 
			},
			{
				"x": -1.0139619004,
				"y": -2.0145435927,
				"z": -1.1831576045,
				"element": "O" 
			},
			{
				"x": 0.1346130234,
				"y": -1.5057361165,
				"z": -0.6244307744,
				"element": "C" 
			},
			{
				"x": 1.280875141,
				"y": -2.3005810581,
				"z": -0.6017987726,
				"element": "C" 
			},
			{
				"x": 2.4640075472,
				"y": -1.8071741988,
				"z": -0.0533325238,
				"element": "C" 
			},
			{
				"x": 2.499241726,
				"y": -0.5176603461,
				"z": 0.4847850464,
				"element": "C" 
			},
			{
				"x": 1.3576775372,
				"y": 0.2823732992,
				"z": 0.4586577157,
				"element": "C" 
			},
			{
				"x": 0.1750727066,
				"y": -0.2028198023,
				"z": -0.1018465501,
				"element": "C" 
			},
			{
				"x": -0.923505676,
				"y": 0.6256637575,
				"z": -0.1151054893,
				"element": "O" 
			},
			{
				"x": -3.7756909557,
				"y": 0.9583460558,
				"z": -2.8147141239,
				"element": "H" 
			},
			{
				"x": -1.101797184,
				"y": 0.0716045046,
				"z": -2.8279982184,
				"element": "H" 
			},
			{
				"x": -1.6590103399,
				"y": 1.6877872717,
				"z": -2.3588322878,
				"element": "H" 
			},
			{
				"x": -2.9210827593,
				"y": 0.6518102362,
				"z": -0.433191575,
				"element": "H" 
			},
			{
				"x": -3.0089137733,
				"y": -1.6969936349,
				"z": -1.3862126695,
				"element": "H" 
			},
			{
				"x": -2.4102779097,
				"y": -1.6111526723,
				"z": 0.2989457534,
				"element": "H" 
			},
			{
				"x": 1.2186467235,
				"y": -3.3011540729,
				"z": -1.0178691777,
				"element": "H" 
			},
			{
				"x": 3.3518095992,
				"y": -2.4316941591,
				"z": -0.0395776636,
				"element": "H" 
			},
			{
				"x": 3.4152788644,
				"y": -0.130572544,
				"z": 0.9202744457,
				"element": "H" 
			},
			{
				"x": 1.3600575673,
				"y": 1.2908134787,
				"z": 0.8601629605,
				"element": "H" 
			}
		],
		 "valence_orbital": [ 
			{
				"type": "occ",
				"energy": -0.31674,
				"method": "rhf"
			},
			{
				"type": "occ",
				"energy": -0.29924,
				"method": "rhf"
			},
			{
				"type": "occ",
				"energy": -0.28108,
				"method": "rhf"
			},
			{
				"type": "occ",
				"energy": -0.23139,
				"method": "rhf"
			},
			{
				"type": "occ",
				"energy": -0.20802,
				"method": "rhf"
			},
			{
				"type": "unocc",
				"energy": 0.00554,
				"method": "rhf"
			},
			{
				"type": "unocc",
				"energy": 0.01876,
				"method": "rhf"
			},
			{
				"type": "unocc",
				"energy": 0.05908,
				"method": "rhf"
			},
			{
				"type": "unocc",
				"energy": 0.08118,
				"method": "rhf"
			},
			{
				"type": "unocc",
				"energy": 0.10668,
				"method": "rhf"
			}
		],
		"cosmo_sigma_profile": { 
			"-0.025": 0.0,
			"-0.024": 0.0,
			"-0.023": 0.0,
			"-0.022": 0.0,
			"-0.021": 0.0,
			"-0.02": 0.0,
			"-0.019": 0.0,
			"-0.018": 0.0,
			"-0.017": 0.0273888796727,
			"-0.016": 0.857496227238,
			"-0.015": 1.39416589601,
			"-0.014": 0.724388322399,
			"-0.013": 1.23346695676,
			"-0.012": 1.2327799378,
			"-0.011": 1.19041881167,
			"-0.01": 1.04358961959,
			"-0.009": 1.26893782691,
			"-0.008": 1.72813330477,
			"-0.007": 2.94907923765,
			"-0.006": 11.412827494,
			"-0.005": 16.8360857813,
			"-0.004": 16.4005420326,
			"-0.003": 15.8616601777,
			"-0.002": 12.3405261972,
			"-0.001": 11.0181343192,
			"0.0": 8.85945910804,
			"0.001": 9.27644628302,
			"0.002": 10.4880642127,
			"0.003": 13.4644995943,
			"0.004": 13.4435263778,
			"0.005": 12.4806539471,
			"0.006": 10.0176618843,
			"0.007": 4.184116956,
			"0.008": 3.24248890124,
			"0.009": 3.26583910128,
			"0.01": 3.70872368389,
			"0.011": 2.44000353611,
			"0.012": 1.00727520131,
			"0.013": 1.72190886639,
			"0.014": 1.13299355504,
			"0.015": 0.0,
			"0.016": 0.0,
			"0.017": 0.0,
			"0.018": 0.0,
			"0.019": 0.0,
			"0.02": 0.0,
			"0.021": 0.0,
			"0.022": 0.0,
			"0.023": 0.0,
			"0.024": 0.0,
			"0.025": 0.0
		}
	}
}
