{
	 "smiles": "CN(C)C1=C(C)C=CC=C1C", 
	 "Tm": 237.15, 
	 "num_atms": 26, 
	 "gaussian": { 
		 "optdone": 1, 
		 "sigma_profile": "yes", 
		 "theory": "DFT", 
		 "functional": "B3LYP", 
		 "basiset": "6-31G**", 
		 "properties": { 
			 "R2extent": 2035.331, 
			 "electric_dipole_moment_norm": 0.782004322239, 
			 "electric_quadrupole_moment_norm": 3.13730841806, 
			 "total_energy": -444.852103596, 
			 "HOMO_LUMO_gap": 0.20423, 
			 "cosmo_polarized_energy": -3.56, 
			 "cosmo_cavitation_energy": 27.05, 
			 "cosmo_dispersion_energy": -19.26, 
			 "cosmo_repulsion_energy": 1.53, 
			 "cosmo_total_nonelectrostatic_energy": 9.31, 
			 "SMD_solvation_energy": 5.22 
		},
		"coords": [
			{
				"x": 0.3335084391,
				"y": 2.5669327317,
				"z": 0.703307778,
				"element": "C" 
			},
			{
				"x": 0.3813999759,
				"y": 1.1420852767,
				"z": 0.9898296653,
				"element": "N" 
			},
			{
				"x": 0.9034710157,
				"y": 0.8105010151,
				"z": 2.304582622,
				"element": "C" 
			},
			{
				"x": -0.6650210208,
				"y": 0.3379658736,
				"z": 0.4268628479,
				"element": "C" 
			},
			{
				"x": -1.8795864823,
				"y": 0.0689832839,
				"z": 1.0975767486,
				"element": "C" 
			},
			{
				"x": -2.1982244131,
				"y": 0.6505930643,
				"z": 2.4577400667,
				"element": "C" 
			},
			{
				"x": -2.8315854026,
				"y": -0.7491208296,
				"z": 0.4744973134,
				"element": "C" 
			},
			{
				"x": -2.6103461469,
				"y": -1.2786842526,
				"z": -0.7934711047,
				"element": "C" 
			},
			{
				"x": -1.4204111741,
				"y": -0.9929482731,
				"z": -1.4586209724,
				"element": "C" 
			},
			{
				"x": -0.4382033922,
				"y": -0.1929491649,
				"z": -0.8648693964,
				"element": "C" 
			},
			{
				"x": 0.8517323901,
				"y": 0.0856626497,
				"z": -1.5984825029,
				"element": "C" 
			},
			{
				"x": 0.0563976592,
				"y": 2.7286901426,
				"z": -0.3418254251,
				"element": "H" 
			},
			{
				"x": -0.3849972854,
				"y": 3.125530801,
				"z": 1.3311310179,
				"element": "H" 
			},
			{
				"x": 1.3245849838,
				"y": 3.0097220087,
				"z": 0.8636051488,
				"element": "H" 
			},
			{
				"x": 0.3585386045,
				"y": 1.2658847567,
				"z": 3.1488490776,
				"element": "H" 
			},
			{
				"x": 0.8946365926,
				"y": -0.2743017785,
				"z": 2.4394971324,
				"element": "H" 
			},
			{
				"x": 1.9461496456,
				"y": 1.1482725576,
				"z": 2.373275335,
				"element": "H" 
			},
			{
				"x": -3.2722759763,
				"y": 0.5896938887,
				"z": 2.6544773113,
				"element": "H" 
			},
			{
				"x": -1.6887408342,
				"y": 0.1152815077,
				"z": 3.2675902648,
				"element": "H" 
			},
			{
				"x": -1.9043950929,
				"y": 1.7011284104,
				"z": 2.5324048384,
				"element": "H" 
			},
			{
				"x": -3.7655523406,
				"y": -0.9559275787,
				"z": 0.9916993246,
				"element": "H" 
			},
			{
				"x": -3.3624989273,
				"y": -1.9072299986,
				"z": -1.262034548,
				"element": "H" 
			},
			{
				"x": -1.239881349,
				"y": -1.4049449225,
				"z": -2.4483731544,
				"element": "H" 
			},
			{
				"x": 0.9697704809,
				"y": -0.5922108504,
				"z": -2.4486992084,
				"element": "H" 
			},
			{
				"x": 0.8855263308,
				"y": 1.1102426544,
				"z": -1.9898535468,
				"element": "H" 
			},
			{
				"x": 1.7121037195,
				"y": -0.0201529738,
				"z": -0.9326966336,
				"element": "H" 
			}
		],
		 "valence_orbital": [ 
			{
				"type": "occ",
				"energy": -0.33186,
				"method": "rhf"
			},
			{
				"type": "occ",
				"energy": -0.32764,
				"method": "rhf"
			},
			{
				"type": "occ",
				"energy": -0.237,
				"method": "rhf"
			},
			{
				"type": "occ",
				"energy": -0.22804,
				"method": "rhf"
			},
			{
				"type": "occ",
				"energy": -0.19786,
				"method": "rhf"
			},
			{
				"type": "unocc",
				"energy": 0.00637,
				"method": "rhf"
			},
			{
				"type": "unocc",
				"energy": 0.01175,
				"method": "rhf"
			},
			{
				"type": "unocc",
				"energy": 0.08169,
				"method": "rhf"
			},
			{
				"type": "unocc",
				"energy": 0.10654,
				"method": "rhf"
			},
			{
				"type": "unocc",
				"energy": 0.11975,
				"method": "rhf"
			}
		],
		"cosmo_sigma_profile": { 
			"-0.025": 0.0,
			"-0.024": 0.0,
			"-0.023": 0.0,
			"-0.022": 0.0,
			"-0.021": 0.0,
			"-0.02": 0.0,
			"-0.019": 0.0,
			"-0.018": 0.0,
			"-0.017": 0.0,
			"-0.016": 0.0,
			"-0.015": 0.0,
			"-0.014": 0.0,
			"-0.013": 0.0,
			"-0.012": 0.0,
			"-0.011": 0.0,
			"-0.01": 0.0,
			"-0.009": 0.0,
			"-0.008": 0.0,
			"-0.007": 0.0,
			"-0.006": 0.0888810001398,
			"-0.005": 3.55967568944,
			"-0.004": 14.4964879926,
			"-0.003": 26.8221417359,
			"-0.002": 30.9496216929,
			"-0.001": 29.9104993465,
			"0.0": 32.4424807503,
			"0.001": 20.1915480897,
			"0.002": 12.2040722682,
			"0.003": 9.27639420853,
			"0.004": 7.97975492097,
			"0.005": 8.37658266796,
			"0.006": 7.21494341399,
			"0.007": 7.0359386336,
			"0.008": 1.08174221221,
			"0.009": 0.0,
			"0.01": 0.0,
			"0.011": 0.0,
			"0.012": 0.0,
			"0.013": 0.0,
			"0.014": 0.0,
			"0.015": 0.0,
			"0.016": 0.0,
			"0.017": 0.0,
			"0.018": 0.0,
			"0.019": 0.0,
			"0.02": 0.0,
			"0.021": 0.0,
			"0.022": 0.0,
			"0.023": 0.0,
			"0.024": 0.0,
			"0.025": 0.0
		}
	}
}
