{
	 "smiles": "COC1=CC=C(CC#N)C=C1F", 
	 "Tm": 321.15, 
	 "num_atms": 20, 
	 "gaussian": { 
		 "optdone": 1, 
		 "sigma_profile": "yes", 
		 "theory": "DFT", 
		 "functional": "B3LYP", 
		 "basiset": "6-31G**", 
		 "properties": { 
			 "R2extent": 2678.5933, 
			 "electric_dipole_moment_norm": 3.59827365552, 
			 "electric_quadrupole_moment_norm": 18.4690107033, 
			 "total_energy": -577.551507783, 
			 "HOMO_LUMO_gap": 0.21406, 
			 "cosmo_polarized_energy": -10.75, 
			 "cosmo_cavitation_energy": 25.51, 
			 "cosmo_dispersion_energy": -18.1, 
			 "cosmo_repulsion_energy": 1.43, 
			 "cosmo_total_nonelectrostatic_energy": 8.85, 
			 "SMD_solvation_energy": 6.89 
		},
		"coords": [
			{
				"x": -1.3803076153,
				"y": 2.5386658312,
				"z": 2.9100424283,
				"element": "C" 
			},
			{
				"x": -0.8884658612,
				"y": 1.2374846912,
				"z": 3.2452766854,
				"element": "O" 
			},
			{
				"x": -0.4701944132,
				"y": 0.3905504529,
				"z": 2.2670592414,
				"element": "C" 
			},
			{
				"x": -0.5234234191,
				"y": -0.9796495698,
				"z": 2.5586269271,
				"element": "C" 
			},
			{
				"x": -0.0946401387,
				"y": -1.9322922742,
				"z": 1.6404771049,
				"element": "C" 
			},
			{
				"x": 0.3990451295,
				"y": -1.5476797548,
				"z": 0.388294196,
				"element": "C" 
			},
			{
				"x": 0.9029728091,
				"y": -2.609892058,
				"z": -0.580789204,
				"element": "C" 
			},
			{
				"x": 0.8251255757,
				"y": -2.2230321507,
				"z": -1.9923956061,
				"element": "C" 
			},
			{
				"x": 0.7740497973,
				"y": -1.9057667499,
				"z": -3.1074931826,
				"element": "N" 
			},
			{
				"x": 0.45942455,
				"y": -0.186707291,
				"z": 0.0838376637,
				"element": "C" 
			},
			{
				"x": 0.040257012,
				"y": 0.7566856798,
				"z": 1.0130121159,
				"element": "C" 
			},
			{
				"x": 0.144033815,
				"y": 2.0656458805,
				"z": 0.6765478255,
				"element": "F" 
			},
			{
				"x": -0.5722157082,
				"y": 3.2192344932,
				"z": 2.6325737315,
				"element": "H" 
			},
			{
				"x": -2.1085333921,
				"y": 2.4902571938,
				"z": 2.0933479346,
				"element": "H" 
			},
			{
				"x": -1.8732391191,
				"y": 2.901530759,
				"z": 3.8136313807,
				"element": "H" 
			},
			{
				"x": -0.9191344301,
				"y": -1.2706213859,
				"z": 3.5260011376,
				"element": "H" 
			},
			{
				"x": -0.155833428,
				"y": -2.9856499595,
				"z": 1.9002020804,
				"element": "H" 
			},
			{
				"x": 0.3333529328,
				"y": -3.5369592608,
				"z": -0.4492433956,
				"element": "H" 
			},
			{
				"x": 1.9506996317,
				"y": -2.8608119174,
				"z": -0.3639987056,
				"element": "H" 
			},
			{
				"x": 0.8298262719,
				"y": 0.1666073904,
				"z": -0.8731103589,
				"element": "H" 
			}
		],
		 "valence_orbital": [ 
			{
				"type": "occ",
				"energy": -0.32991,
				"method": "rhf"
			},
			{
				"type": "occ",
				"energy": -0.32692,
				"method": "rhf"
			},
			{
				"type": "occ",
				"energy": -0.3162,
				"method": "rhf"
			},
			{
				"type": "occ",
				"energy": -0.26037,
				"method": "rhf"
			},
			{
				"type": "occ",
				"energy": -0.23025,
				"method": "rhf"
			},
			{
				"type": "unocc",
				"energy": -0.01619,
				"method": "rhf"
			},
			{
				"type": "unocc",
				"energy": -0.00881,
				"method": "rhf"
			},
			{
				"type": "unocc",
				"energy": 0.02783,
				"method": "rhf"
			},
			{
				"type": "unocc",
				"energy": 0.03936,
				"method": "rhf"
			},
			{
				"type": "unocc",
				"energy": 0.07568,
				"method": "rhf"
			}
		],
		"cosmo_sigma_profile": { 
			"-0.025": 0.0,
			"-0.024": 0.0,
			"-0.023": 0.0,
			"-0.022": 0.0,
			"-0.021": 0.0,
			"-0.02": 0.0,
			"-0.019": 0.0,
			"-0.018": 0.0,
			"-0.017": 0.0,
			"-0.016": 0.0,
			"-0.015": 0.0,
			"-0.014": 0.0,
			"-0.013": 0.0,
			"-0.012": 0.0,
			"-0.011": 0.0,
			"-0.01": 0.0361771086455,
			"-0.009": 4.61154789584,
			"-0.008": 5.96204885123,
			"-0.007": 8.0024588398,
			"-0.006": 11.6619338022,
			"-0.005": 16.1884067352,
			"-0.004": 15.0213256348,
			"-0.003": 15.4282430958,
			"-0.002": 11.1080230202,
			"-0.001": 11.4204063501,
			"0.0": 12.4972571702,
			"0.001": 14.0490975325,
			"0.002": 13.5358061043,
			"0.003": 16.8260556538,
			"0.004": 14.7382687648,
			"0.005": 5.77606788883,
			"0.006": 3.77453327959,
			"0.007": 3.23459660193,
			"0.008": 4.54461594986,
			"0.009": 4.9482761211,
			"0.01": 3.87347002584,
			"0.011": 3.1986469496,
			"0.012": 2.5476335508,
			"0.013": 1.72103026001,
			"0.014": 0.0872117959404,
			"0.015": 0.0,
			"0.016": 0.0,
			"0.017": 0.0,
			"0.018": 0.0,
			"0.019": 0.0,
			"0.02": 0.0,
			"0.021": 0.0,
			"0.022": 0.0,
			"0.023": 0.0,
			"0.024": 0.0,
			"0.025": 0.0
		}
	}
}
