{
	 "smiles": "ClC1=C(Cl)C=C(C=C1)C(=O)NC1=CC2=NN(N=C2C=C1)C1CCCCC1", 
	 "Tm": 464.15, 
	 "num_atms": 44, 
	 "gaussian": { 
		 "optdone": 1, 
		 "sigma_profile": "yes", 
		 "theory": "DFT", 
		 "functional": "B3LYP", 
		 "basiset": "6-31G**", 
		 "properties": { 
			 "R2extent": 23323.1942, 
			 "electric_dipole_moment_norm": 6.17759130487, 
			 "electric_quadrupole_moment_norm": 20.2406833163, 
			 "total_energy": -1949.47822458, 
			 "HOMO_LUMO_gap": 0.16719, 
			 "cosmo_polarized_energy": -14.88, 
			 "cosmo_cavitation_energy": 50.64, 
			 "cosmo_dispersion_energy": -36.06, 
			 "cosmo_repulsion_energy": 2.75, 
			 "cosmo_total_nonelectrostatic_energy": 17.33, 
			 "SMD_solvation_energy": 5.33 
		},
		"coords": [
			{
				"x": 5.9233742091,
				"y": 3.7559918671,
				"z": -3.898859144,
				"element": "Cl" 
			},
			{
				"x": 5.4182761202,
				"y": 2.0880245645,
				"z": -3.8315450684,
				"element": "C" 
			},
			{
				"x": 6.2898969203,
				"y": 1.0432862918,
				"z": -4.1748388592,
				"element": "C" 
			},
			{
				"x": 7.9279167045,
				"y": 1.3567064916,
				"z": -4.6918778993,
				"element": "Cl" 
			},
			{
				"x": 5.8449714807,
				"y": -0.2751135145,
				"z": -4.1135040906,
				"element": "C" 
			},
			{
				"x": 4.5470847229,
				"y": -0.5712314138,
				"z": -3.6843185938,
				"element": "C" 
			},
			{
				"x": 3.6777820177,
				"y": 0.4763763197,
				"z": -3.3525078117,
				"element": "C" 
			},
			{
				"x": 4.1117758832,
				"y": 1.795843819,
				"z": -3.4318720647,
				"element": "C" 
			},
			{
				"x": 4.137958334,
				"y": -2.0165829572,
				"z": -3.7241082516,
				"element": "C" 
			},
			{
				"x": 4.6357619929,
				"y": -2.7847526759,
				"z": -4.5394295563,
				"element": "O" 
			},
			{
				"x": 3.1421264908,
				"y": -2.4608347226,
				"z": -2.8745953014,
				"element": "N" 
			},
			{
				"x": 2.7037771056,
				"y": -1.9604785736,
				"z": -1.6176579817,
				"element": "C" 
			},
			{
				"x": 1.3626545106,
				"y": -2.0663483679,
				"z": -1.2946247591,
				"element": "C" 
			},
			{
				"x": 0.9699301728,
				"y": -1.6250557516,
				"z": -0.0124392005,
				"element": "C" 
			},
			{
				"x": -0.249512959,
				"y": -1.6075052992,
				"z": 0.574004403,
				"element": "N" 
			},
			{
				"x": 0.0032184444,
				"y": -1.0713252736,
				"z": 1.7642994803,
				"element": "N" 
			},
			{
				"x": 1.2571294692,
				"y": -0.7251223406,
				"z": 2.0323839154,
				"element": "N" 
			},
			{
				"x": 1.9130221032,
				"y": -1.0718665552,
				"z": 0.9004073839,
				"element": "C" 
			},
			{
				"x": 3.2800825917,
				"y": -0.97334097,
				"z": 0.5561775774,
				"element": "C" 
			},
			{
				"x": 3.6559866719,
				"y": -1.4288813011,
				"z": -0.6865975664,
				"element": "C" 
			},
			{
				"x": -1.0715124554,
				"y": -0.8258782031,
				"z": 2.7379855342,
				"element": "C" 
			},
			{
				"x": -1.7922858504,
				"y": -2.1448279707,
				"z": 3.1075137111,
				"element": "C" 
			},
			{
				"x": -3.2357118647,
				"y": -1.8920522784,
				"z": 3.6014909404,
				"element": "C" 
			},
			{
				"x": -3.3552127348,
				"y": -0.5359461593,
				"z": 4.3094466618,
				"element": "C" 
			},
			{
				"x": -3.0522538004,
				"y": 0.62871703,
				"z": 3.3349143977,
				"element": "C" 
			},
			{
				"x": -2.0617954988,
				"y": 0.2254631393,
				"z": 2.2162453572,
				"element": "C" 
			},
			{
				"x": 6.5005523821,
				"y": -1.0852891569,
				"z": -4.410340065,
				"element": "H" 
			},
			{
				"x": 2.6589089287,
				"y": 0.2707223858,
				"z": -3.0462176013,
				"element": "H" 
			},
			{
				"x": 3.4425103255,
				"y": 2.6126261266,
				"z": -3.1860222463,
				"element": "H" 
			},
			{
				"x": 2.8572425529,
				"y": -3.4047974952,
				"z": -3.1081321445,
				"element": "H" 
			},
			{
				"x": 0.6420935035,
				"y": -2.466879195,
				"z": -1.9997453692,
				"element": "H" 
			},
			{
				"x": 4.0059810589,
				"y": -0.5731950661,
				"z": 1.2556556713,
				"element": "H" 
			},
			{
				"x": 4.6998397594,
				"y": -1.401497146,
				"z": -0.978111059,
				"element": "H" 
			},
			{
				"x": -0.5406710297,
				"y": -0.4228643463,
				"z": 3.6036862393,
				"element": "H" 
			},
			{
				"x": -1.8060135322,
				"y": -2.7913153885,
				"z": 2.2257602623,
				"element": "H" 
			},
			{
				"x": -1.2075675816,
				"y": -2.6608202916,
				"z": 3.8771883466,
				"element": "H" 
			},
			{
				"x": -3.5438910965,
				"y": -2.7062144072,
				"z": 4.2657829857,
				"element": "H" 
			},
			{
				"x": -3.9277700197,
				"y": -1.912556807,
				"z": 2.7502920182,
				"element": "H" 
			},
			{
				"x": -2.6517426891,
				"y": -0.5114474317,
				"z": 5.1522885313,
				"element": "H" 
			},
			{
				"x": -4.3529526246,
				"y": -0.4127534793,
				"z": 4.7437711809,
				"element": "H" 
			},
			{
				"x": -2.6516105306,
				"y": 1.480573172,
				"z": 3.8959809094,
				"element": "H" 
			},
			{
				"x": -3.9808437297,
				"y": 0.9767076649,
				"z": 2.8690548572,
				"element": "H" 
			},
			{
				"x": -1.5168981507,
				"y": 1.1011747534,
				"z": 1.8495789262,
				"element": "H" 
			},
			{
				"x": -2.5934083089,
				"y": -0.1992390866,
				"z": 1.3581353433,
				"element": "H" 
			}
		],
		 "valence_orbital": [ 
			{
				"type": "occ",
				"energy": -0.2735,
				"method": "rhf"
			},
			{
				"type": "occ",
				"energy": -0.26253,
				"method": "rhf"
			},
			{
				"type": "occ",
				"energy": -0.25537,
				"method": "rhf"
			},
			{
				"type": "occ",
				"energy": -0.24579,
				"method": "rhf"
			},
			{
				"type": "occ",
				"energy": -0.22996,
				"method": "rhf"
			},
			{
				"type": "unocc",
				"energy": -0.06277,
				"method": "rhf"
			},
			{
				"type": "unocc",
				"energy": -0.05045,
				"method": "rhf"
			},
			{
				"type": "unocc",
				"energy": -0.02679,
				"method": "rhf"
			},
			{
				"type": "unocc",
				"energy": 0.00032,
				"method": "rhf"
			},
			{
				"type": "unocc",
				"energy": 0.00486,
				"method": "rhf"
			}
		],
		"cosmo_sigma_profile": { 
			"-0.025": 0.0,
			"-0.024": 0.0,
			"-0.023": 0.0,
			"-0.022": 0.0,
			"-0.021": 0.0,
			"-0.02": 0.0,
			"-0.019": 0.0,
			"-0.018": 0.0,
			"-0.017": 0.0,
			"-0.016": 0.0,
			"-0.015": 0.340229155174,
			"-0.014": 0.847005728664,
			"-0.013": 1.04839966501,
			"-0.012": 1.23817220318,
			"-0.011": 1.01921499239,
			"-0.01": 0.944085353279,
			"-0.009": 1.41725083898,
			"-0.008": 3.78722412031,
			"-0.007": 10.5152822388,
			"-0.006": 11.1558009013,
			"-0.005": 14.3438813651,
			"-0.004": 18.0786404157,
			"-0.003": 35.8268199409,
			"-0.002": 45.1268019175,
			"-0.001": 46.9429447945,
			"0.0": 52.8353521697,
			"0.001": 42.2225574655,
			"0.002": 29.85826823,
			"0.003": 27.8442579084,
			"0.004": 19.3431547933,
			"0.005": 8.23240160115,
			"0.006": 4.9694655754,
			"0.007": 3.27194861054,
			"0.008": 3.28598425239,
			"0.009": 3.11030741872,
			"0.01": 3.10036325415,
			"0.011": 3.88568548974,
			"0.012": 5.36308736407,
			"0.013": 5.83829543974,
			"0.014": 0.813460839492,
			"0.015": 0.0,
			"0.016": 0.0,
			"0.017": 0.0,
			"0.018": 0.0,
			"0.019": 0.0,
			"0.02": 0.0,
			"0.021": 0.0,
			"0.022": 0.0,
			"0.023": 0.0,
			"0.024": 0.0,
			"0.025": 0.0
		}
	}
}
