{
	 "smiles": "ClC1=CC2=C(CC(=O)N2)C=C1", 
	 "Tm": 323.15, 
	 "num_atms": 17, 
	 "gaussian": { 
		 "optdone": 1, 
		 "sigma_profile": "yes", 
		 "theory": "DFT", 
		 "functional": "B3LYP", 
		 "basiset": "6-31G**", 
		 "properties": { 
			 "R2extent": 3943.5298, 
			 "electric_dipole_moment_norm": 1.18741383687, 
			 "electric_quadrupole_moment_norm": 18.202585785, 
			 "total_energy": -898.65658363, 
			 "HOMO_LUMO_gap": 0.20155, 
			 "cosmo_polarized_energy": -11.63, 
			 "cosmo_cavitation_energy": 23.09, 
			 "cosmo_dispersion_energy": -17.59, 
			 "cosmo_repulsion_energy": 1.42, 
			 "cosmo_total_nonelectrostatic_energy": 6.92, 
			 "SMD_solvation_energy": 4.06 
		},
		"coords": [
			{
				"x": -1.9701385747,
				"y": -1.0112289169,
				"z": -0.5973703983,
				"element": "Cl" 
			},
			{
				"x": -1.3490256328,
				"y": 0.6335163144,
				"z": -0.5699196007,
				"element": "C" 
			},
			{
				"x": -0.219801251,
				"y": 0.9312390371,
				"z": -1.3408332703,
				"element": "C" 
			},
			{
				"x": 0.2422956356,
				"y": 2.2415126717,
				"z": -1.2939992902,
				"element": "C" 
			},
			{
				"x": -0.3835110581,
				"y": 3.2323852838,
				"z": -0.5143495886,
				"element": "C" 
			},
			{
				"x": 0.3710098009,
				"y": 4.5248130377,
				"z": -0.6959933387,
				"element": "C" 
			},
			{
				"x": 1.5021825348,
				"y": 4.1530175744,
				"z": -1.6725650893,
				"element": "C" 
			},
			{
				"x": 2.374354615,
				"y": 4.8675697743,
				"z": -2.1201298426,
				"element": "O" 
			},
			{
				"x": 1.3368704196,
				"y": 2.8021928514,
				"z": -1.9583226033,
				"element": "N" 
			},
			{
				"x": -1.500241039,
				"y": 2.9026103743,
				"z": 0.237256607,
				"element": "C" 
			},
			{
				"x": -1.9931927984,
				"y": 1.5900096075,
				"z": 0.213229731,
				"element": "C" 
			},
			{
				"x": 0.2614217208,
				"y": 0.1675589917,
				"z": -1.9408810125,
				"element": "H" 
			},
			{
				"x": -0.2296340818,
				"y": 5.3314665408,
				"z": -1.1311316058,
				"element": "H" 
			},
			{
				"x": 0.8084289675,
				"y": 4.9166041321,
				"z": 0.2291942385,
				"element": "H" 
			},
			{
				"x": 1.9599074616,
				"y": 2.3119808873,
				"z": -2.5831807678,
				"element": "H" 
			},
			{
				"x": -1.9990521297,
				"y": 3.6513489522,
				"z": 0.8461900622,
				"element": "H" 
			},
			{
				"x": -2.8650745906,
				"y": 1.3140028863,
				"z": 0.7944057695,
				"element": "H" 
			}
		],
		 "valence_orbital": [ 
			{
				"type": "occ",
				"energy": -0.31739,
				"method": "rhf"
			},
			{
				"type": "occ",
				"energy": -0.30906,
				"method": "rhf"
			},
			{
				"type": "occ",
				"energy": -0.26476,
				"method": "rhf"
			},
			{
				"type": "occ",
				"energy": -0.2586,
				"method": "rhf"
			},
			{
				"type": "occ",
				"energy": -0.22772,
				"method": "rhf"
			},
			{
				"type": "unocc",
				"energy": -0.02617,
				"method": "rhf"
			},
			{
				"type": "unocc",
				"energy": -0.01731,
				"method": "rhf"
			},
			{
				"type": "unocc",
				"energy": 0.02415,
				"method": "rhf"
			},
			{
				"type": "unocc",
				"energy": 0.02494,
				"method": "rhf"
			},
			{
				"type": "unocc",
				"energy": 0.08119,
				"method": "rhf"
			}
		],
		"cosmo_sigma_profile": { 
			"-0.025": 0.0,
			"-0.024": 0.0,
			"-0.023": 0.0,
			"-0.022": 0.0,
			"-0.021": 0.0,
			"-0.02": 0.0,
			"-0.019": 0.0,
			"-0.018": 0.0,
			"-0.017": 0.0,
			"-0.016": 0.589922239299,
			"-0.015": 1.57078706143,
			"-0.014": 1.36861091855,
			"-0.013": 1.35137261955,
			"-0.012": 1.03787712631,
			"-0.011": 0.619926398234,
			"-0.01": 1.55140471648,
			"-0.009": 1.27712576676,
			"-0.008": 2.98221642542,
			"-0.007": 9.04891571537,
			"-0.006": 10.5995387136,
			"-0.005": 12.1455605773,
			"-0.004": 10.3973517044,
			"-0.003": 10.7840421602,
			"-0.002": 8.9700963067,
			"-0.001": 9.75120671572,
			"0.0": 11.1664912226,
			"0.001": 13.2165753242,
			"0.002": 15.6990341349,
			"0.003": 17.7002517572,
			"0.004": 16.4880732017,
			"0.005": 9.51112371233,
			"0.006": 0.945570792763,
			"0.007": 1.40172192248,
			"0.008": 1.10593506676,
			"0.009": 1.60928065502,
			"0.01": 1.24271232979,
			"0.011": 2.29562897308,
			"0.012": 4.21185803289,
			"0.013": 5.44316686263,
			"0.014": 1.26409382435,
			"0.015": 0.0,
			"0.016": 0.0,
			"0.017": 0.0,
			"0.018": 0.0,
			"0.019": 0.0,
			"0.02": 0.0,
			"0.021": 0.0,
			"0.022": 0.0,
			"0.023": 0.0,
			"0.024": 0.0,
			"0.025": 0.0
		}
	}
}
