{
	 "smiles": "ClC(Cl)(Cl)COP(Cl)(=O)OCC(Cl)(Cl)Cl", 
	 "Tm": 319.15, 
	 "num_atms": 19, 
	 "gaussian": { 
		 "optdone": 1, 
		 "sigma_profile": "yes", 
		 "theory": "DFT", 
		 "functional": "B3LYP", 
		 "basiset": "6-31G**", 
		 "properties": { 
			 "R2extent": 8205.5258, 
			 "electric_dipole_moment_norm": 1.19767530241, 
			 "electric_quadrupole_moment_norm": 6.8248844503, 
			 "total_energy": -3943.24101729, 
			 "HOMO_LUMO_gap": 0.26277, 
			 "cosmo_polarized_energy": -11.4, 
			 "cosmo_cavitation_energy": 38.72, 
			 "cosmo_dispersion_energy": -26.14, 
			 "cosmo_repulsion_energy": 2.06, 
			 "cosmo_total_nonelectrostatic_energy": 14.64, 
			 "SMD_solvation_energy": 5.22 
		},
		"coords": [
			{
				"x": 2.9120256245,
				"y": -1.19752468,
				"z": 3.7770173598,
				"element": "Cl" 
			},
			{
				"x": 1.7430947785,
				"y": -0.2627707658,
				"z": 2.7702890374,
				"element": "C" 
			},
			{
				"x": 0.32143536,
				"y": 0.1928659588,
				"z": 3.7617764885,
				"element": "Cl" 
			},
			{
				"x": 2.5382067525,
				"y": 1.2094704814,
				"z": 2.1310656095,
				"element": "Cl" 
			},
			{
				"x": 1.3264886308,
				"y": -1.1941812888,
				"z": 1.6252602918,
				"element": "C" 
			},
			{
				"x": 0.3776136444,
				"y": -0.5124685685,
				"z": 0.7991748875,
				"element": "O" 
			},
			{
				"x": 0.0398093042,
				"y": -1.1010861682,
				"z": -0.6562119859,
				"element": "P" 
			},
			{
				"x": -1.3265185592,
				"y": -2.572816434,
				"z": -0.2623717737,
				"element": "Cl" 
			},
			{
				"x": 1.1695630066,
				"y": -1.5540932622,
				"z": -1.4899680721,
				"element": "O" 
			},
			{
				"x": -0.8764838727,
				"y": 0.0873215747,
				"z": -1.2215776632,
				"element": "O" 
			},
			{
				"x": -0.6926004697,
				"y": 0.5761646852,
				"z": -2.5543779633,
				"element": "C" 
			},
			{
				"x": -0.4659202346,
				"y": 2.0956263855,
				"z": -2.5296508781,
				"element": "C" 
			},
			{
				"x": 1.0342775546,
				"y": 2.4926491497,
				"z": -1.6353599344,
				"element": "Cl" 
			},
			{
				"x": -0.3081571239,
				"y": 2.608665965,
				"z": -4.2513591924,
				"element": "Cl" 
			},
			{
				"x": -1.8626552299,
				"y": 2.9297471175,
				"z": -1.7764097235,
				"element": "Cl" 
			},
			{
				"x": 2.2150469743,
				"y": -1.4625663451,
				"z": 1.0482540067,
				"element": "H" 
			},
			{
				"x": 0.8727383525,
				"y": -2.0898172999,
				"z": 2.0599219104,
				"element": "H" 
			},
			{
				"x": -1.6039049117,
				"y": 0.3739835815,
				"z": -3.1212730525,
				"element": "H" 
			},
			{
				"x": 0.1665404188,
				"y": 0.0987299133,
				"z": -3.0306993526,
				"element": "H" 
			}
		],
		 "valence_orbital": [ 
			{
				"type": "occ",
				"energy": -0.33174,
				"method": "rhf"
			},
			{
				"type": "occ",
				"energy": -0.33109,
				"method": "rhf"
			},
			{
				"type": "occ",
				"energy": -0.3236,
				"method": "rhf"
			},
			{
				"type": "occ",
				"energy": -0.31934,
				"method": "rhf"
			},
			{
				"type": "occ",
				"energy": -0.31854,
				"method": "rhf"
			},
			{
				"type": "unocc",
				"energy": -0.05577,
				"method": "rhf"
			},
			{
				"type": "unocc",
				"energy": -0.05207,
				"method": "rhf"
			},
			{
				"type": "unocc",
				"energy": -0.03516,
				"method": "rhf"
			},
			{
				"type": "unocc",
				"energy": -0.01698,
				"method": "rhf"
			},
			{
				"type": "unocc",
				"energy": -0.00968,
				"method": "rhf"
			}
		],
		"cosmo_sigma_profile": { 
			"-0.025": 0.0,
			"-0.024": 0.0,
			"-0.023": 0.0,
			"-0.022": 0.0,
			"-0.021": 0.0,
			"-0.02": 0.0,
			"-0.019": 0.0,
			"-0.018": 0.0,
			"-0.017": 0.0,
			"-0.016": 0.0,
			"-0.015": 0.0,
			"-0.014": 0.0,
			"-0.013": 0.0,
			"-0.012": 0.0,
			"-0.011": 0.146888745902,
			"-0.01": 3.80226015479,
			"-0.009": 10.1500019324,
			"-0.008": 9.68739876519,
			"-0.007": 8.82871448857,
			"-0.006": 4.91153298397,
			"-0.005": 6.85220415344,
			"-0.004": 13.163953327,
			"-0.003": 17.3504037629,
			"-0.002": 19.2299313476,
			"-0.001": 24.4399546708,
			"0.0": 26.115700616,
			"0.001": 38.5080331898,
			"0.002": 65.0245316107,
			"0.003": 46.5109801538,
			"0.004": 6.84631225532,
			"0.005": 5.2333613665,
			"0.006": 2.75831176876,
			"0.007": 0.819690549415,
			"0.008": 1.6472197038,
			"0.009": 1.23290031843,
			"0.01": 1.24238668549,
			"0.011": 4.03658135904,
			"0.012": 3.11965621668,
			"0.013": 0.034606364615,
			"0.014": 0.0,
			"0.015": 0.0,
			"0.016": 0.0,
			"0.017": 0.0,
			"0.018": 0.0,
			"0.019": 0.0,
			"0.02": 0.0,
			"0.021": 0.0,
			"0.022": 0.0,
			"0.023": 0.0,
			"0.024": 0.0,
			"0.025": 0.0
		}
	}
}
