{
	 "smiles": "CCCCCC(C)OC(=O)COC1=CC=C(Cl)C2=CC=CN=C12", 
	 "Tm": 342.55, 
	 "num_atms": 45, 
	 "gaussian": { 
		 "optdone": 1, 
		 "sigma_profile": "yes", 
		 "theory": "DFT", 
		 "functional": "B3LYP", 
		 "basiset": "6-31G**", 
		 "properties": { 
			 "R2extent": 12083.056, 
			 "electric_dipole_moment_norm": 2.98509573213, 
			 "electric_quadrupole_moment_norm": 7.87033599473, 
			 "total_energy": -1439.81339512, 
			 "HOMO_LUMO_gap": 0.15197, 
			 "cosmo_polarized_energy": -10.78, 
			 "cosmo_cavitation_energy": 49.34, 
			 "cosmo_dispersion_energy": -33.15, 
			 "cosmo_repulsion_energy": 2.57, 
			 "cosmo_total_nonelectrostatic_energy": 18.76, 
			 "SMD_solvation_energy": 8.17 
		},
		"coords": [
			{
				"x": 3.1719216001,
				"y": 2.7812323608,
				"z": -5.3977868457,
				"element": "C" 
			},
			{
				"x": 2.9478982466,
				"y": 1.2947053258,
				"z": -5.1008098165,
				"element": "C" 
			},
			{
				"x": 3.4508032693,
				"y": 0.8814458335,
				"z": -3.7103629992,
				"element": "C" 
			},
			{
				"x": 3.3385294495,
				"y": -0.621951956,
				"z": -3.4013363494,
				"element": "C" 
			},
			{
				"x": 1.913552442,
				"y": -1.2018368198,
				"z": -3.3745676178,
				"element": "C" 
			},
			{
				"x": 0.992283825,
				"y": -0.6102766256,
				"z": -2.3091175465,
				"element": "C" 
			},
			{
				"x": -0.4079087791,
				"y": -1.2141873926,
				"z": -2.3139500967,
				"element": "C" 
			},
			{
				"x": 1.6161772129,
				"y": -0.8850314386,
				"z": -1.01611671,
				"element": "O" 
			},
			{
				"x": 1.4062112421,
				"y": 0.0044021818,
				"z": -0.0266775139,
				"element": "C" 
			},
			{
				"x": 0.7618387793,
				"y": 1.0236626024,
				"z": -0.1229261646,
				"element": "O" 
			},
			{
				"x": 2.1266630103,
				"y": -0.4655898357,
				"z": 1.2304970952,
				"element": "C" 
			},
			{
				"x": 1.9567182411,
				"y": 0.4159201855,
				"z": 2.3269181268,
				"element": "O" 
			},
			{
				"x": 0.752459876,
				"y": 0.7426954338,
				"z": 2.8751026832,
				"element": "C" 
			},
			{
				"x": 0.7628408591,
				"y": 1.903776442,
				"z": 3.6283991214,
				"element": "C" 
			},
			{
				"x": -0.3785676777,
				"y": 2.3504148158,
				"z": 4.3162007262,
				"element": "C" 
			},
			{
				"x": -1.5503936702,
				"y": 1.6324996671,
				"z": 4.2506792376,
				"element": "C" 
			},
			{
				"x": -2.9637314558,
				"y": 2.2222447961,
				"z": 5.1235106037,
				"element": "Cl" 
			},
			{
				"x": -1.6248535064,
				"y": 0.430786906,
				"z": 3.4989474993,
				"element": "C" 
			},
			{
				"x": -2.7943288601,
				"y": -0.3667622979,
				"z": 3.3988183305,
				"element": "C" 
			},
			{
				"x": -2.7728044134,
				"y": -1.5280424018,
				"z": 2.6656671398,
				"element": "C" 
			},
			{
				"x": -1.5707959719,
				"y": -1.8981428306,
				"z": 2.0206849923,
				"element": "C" 
			},
			{
				"x": -0.4631459653,
				"y": -1.1883741981,
				"z": 2.0808397196,
				"element": "N" 
			},
			{
				"x": -0.4526796509,
				"y": -0.0323909077,
				"z": 2.8005582659,
				"element": "C" 
			},
			{
				"x": 4.2366923856,
				"y": 3.0374088124,
				"z": -5.3542230166,
				"element": "H" 
			},
			{
				"x": 2.651455751,
				"y": 3.4131061474,
				"z": -4.6691345067,
				"element": "H" 
			},
			{
				"x": 2.8052211903,
				"y": 3.0511542981,
				"z": -6.3935522933,
				"element": "H" 
			},
			{
				"x": 3.4557068653,
				"y": 0.6871622323,
				"z": -5.8629123548,
				"element": "H" 
			},
			{
				"x": 1.8781129199,
				"y": 1.0680064707,
				"z": -5.1964459466,
				"element": "H" 
			},
			{
				"x": 4.5070562993,
				"y": 1.1692036029,
				"z": -3.6201604564,
				"element": "H" 
			},
			{
				"x": 2.9212921922,
				"y": 1.4655070318,
				"z": -2.9452215198,
				"element": "H" 
			},
			{
				"x": 3.8112182509,
				"y": -0.8227024204,
				"z": -2.4329797249,
				"element": "H" 
			},
			{
				"x": 3.919713741,
				"y": -1.1809173793,
				"z": -4.1466825464,
				"element": "H" 
			},
			{
				"x": 1.4254302481,
				"y": -1.0592093742,
				"z": -4.3464068581,
				"element": "H" 
			},
			{
				"x": 1.971649595,
				"y": -2.2864227249,
				"z": -3.2167740199,
				"element": "H" 
			},
			{
				"x": 0.9205145614,
				"y": 0.4758944801,
				"z": -2.408468645,
				"element": "H" 
			},
			{
				"x": -0.362411388,
				"y": -2.2981490668,
				"z": -2.1668920567,
				"element": "H" 
			},
			{
				"x": -0.9011539924,
				"y": -1.016332824,
				"z": -3.2712069589,
				"element": "H" 
			},
			{
				"x": -1.0159808083,
				"y": -0.7754541091,
				"z": -1.5189600044,
				"element": "H" 
			},
			{
				"x": 1.806819046,
				"y": -1.4824828448,
				"z": 1.4575191134,
				"element": "H" 
			},
			{
				"x": 3.2037338058,
				"y": -0.4629671999,
				"z": 1.0344330744,
				"element": "H" 
			},
			{
				"x": 1.6844364031,
				"y": 2.4731699124,
				"z": 3.673305918,
				"element": "H" 
			},
			{
				"x": -0.3355158387,
				"y": 3.2664748101,
				"z": 4.8946331026,
				"element": "H" 
			},
			{
				"x": -3.6950653989,
				"y": -0.0448751595,
				"z": 3.9092445291,
				"element": "H" 
			},
			{
				"x": -3.6544820773,
				"y": -2.1543507571,
				"z": 2.5766285184,
				"element": "H" 
			},
			{
				"x": -1.5276318539,
				"y": -2.8140237846,
				"z": 1.4327847715,
				"element": "H" 
			}
		],
		 "valence_orbital": [ 
			{
				"type": "occ",
				"energy": -0.29322,
				"method": "rhf"
			},
			{
				"type": "occ",
				"energy": -0.27291,
				"method": "rhf"
			},
			{
				"type": "occ",
				"energy": -0.26203,
				"method": "rhf"
			},
			{
				"type": "occ",
				"energy": -0.25967,
				"method": "rhf"
			},
			{
				"type": "occ",
				"energy": -0.2094,
				"method": "rhf"
			},
			{
				"type": "unocc",
				"energy": -0.05743,
				"method": "rhf"
			},
			{
				"type": "unocc",
				"energy": -0.02392,
				"method": "rhf"
			},
			{
				"type": "unocc",
				"energy": 0.01224,
				"method": "rhf"
			},
			{
				"type": "unocc",
				"energy": 0.02562,
				"method": "rhf"
			},
			{
				"type": "unocc",
				"energy": 0.03232,
				"method": "rhf"
			}
		],
		"cosmo_sigma_profile": { 
			"-0.025": 0.0,
			"-0.024": 0.0,
			"-0.023": 0.0,
			"-0.022": 0.0,
			"-0.021": 0.0,
			"-0.02": 0.0,
			"-0.019": 0.0,
			"-0.018": 0.0,
			"-0.017": 0.0,
			"-0.016": 0.0,
			"-0.015": 0.0,
			"-0.014": 0.0,
			"-0.013": 0.0,
			"-0.012": 0.0,
			"-0.011": 0.0,
			"-0.01": 0.0,
			"-0.009": 0.0,
			"-0.008": 2.44003835073,
			"-0.007": 9.75623886169,
			"-0.006": 14.0068334197,
			"-0.005": 12.1162620682,
			"-0.004": 18.9588533016,
			"-0.003": 28.2057377015,
			"-0.002": 38.6866123882,
			"-0.001": 48.5729936667,
			"0.0": 56.1430229716,
			"0.001": 53.1626775854,
			"0.002": 37.396111721,
			"0.003": 18.5623331772,
			"0.004": 16.8353924218,
			"0.005": 10.7735948929,
			"0.006": 5.08042050379,
			"0.007": 4.66061122067,
			"0.008": 3.92566205526,
			"0.009": 3.02856278883,
			"0.01": 2.57159835928,
			"0.011": 3.55420097895,
			"0.012": 2.45088629987,
			"0.013": 0.0,
			"0.014": 0.0,
			"0.015": 0.0,
			"0.016": 0.0,
			"0.017": 0.0,
			"0.018": 0.0,
			"0.019": 0.0,
			"0.02": 0.0,
			"0.021": 0.0,
			"0.022": 0.0,
			"0.023": 0.0,
			"0.024": 0.0,
			"0.025": 0.0
		}
	}
}
