{
	 "smiles": "C1=CC=C2N=C(C=NC2=C1)C1=CC(=CC=C1)C1=NC2=CC=CC=C2N=C1", 
	 "Tm": 475.15, 
	 "num_atms": 40, 
	 "gaussian": { 
		 "optdone": 1, 
		 "sigma_profile": "yes", 
		 "theory": "DFT", 
		 "functional": "B3LYP", 
		 "basiset": "6-31G**", 
		 "properties": { 
			 "R2extent": 14497.0687, 
			 "electric_dipole_moment_norm": 0.380005749956, 
			 "electric_quadrupole_moment_norm": 22.4700885492, 
			 "total_energy": -1065.80155919, 
			 "HOMO_LUMO_gap": 0.15251, 
			 "cosmo_polarized_energy": -12.44, 
			 "cosmo_cavitation_energy": 45.19, 
			 "cosmo_dispersion_energy": -33.17, 
			 "cosmo_repulsion_energy": 2.4, 
			 "cosmo_total_nonelectrostatic_energy": 14.42, 
			 "SMD_solvation_energy": 1.65 
		},
		"coords": [
			{
				"x": -2.558318329,
				"y": 5.5120790133,
				"z": 5.1385370666,
				"element": "C" 
			},
			{
				"x": -1.7158226189,
				"y": 4.7269878796,
				"z": 5.9670277107,
				"element": "C" 
			},
			{
				"x": -1.1542730352,
				"y": 3.5609170796,
				"z": 5.4959927749,
				"element": "C" 
			},
			{
				"x": -1.4167980347,
				"y": 3.1347358461,
				"z": 4.1678626583,
				"element": "C" 
			},
			{
				"x": -0.8508515794,
				"y": 1.9873200004,
				"z": 3.7051318917,
				"element": "N" 
			},
			{
				"x": -1.1161790342,
				"y": 1.627492578,
				"z": 2.4589162575,
				"element": "C" 
			},
			{
				"x": -1.9932505199,
				"y": 2.4184569348,
				"z": 1.6450785667,
				"element": "C" 
			},
			{
				"x": -2.552245845,
				"y": 3.5316726851,
				"z": 2.0596016281,
				"element": "N" 
			},
			{
				"x": -2.2685162715,
				"y": 3.9249498656,
				"z": 3.3361160805,
				"element": "C" 
			},
			{
				"x": -2.8324396739,
				"y": 5.1205549863,
				"z": 3.8462358484,
				"element": "C" 
			},
			{
				"x": -0.4991915235,
				"y": 0.3757006278,
				"z": 1.9508093109,
				"element": "C" 
			},
			{
				"x": -0.3889480716,
				"y": 0.1124665258,
				"z": 0.5806752818,
				"element": "C" 
			},
			{
				"x": 0.2004158456,
				"y": -1.0706636041,
				"z": 0.1082029724,
				"element": "C" 
			},
			{
				"x": 0.6744555538,
				"y": -2.0071292849,
				"z": 1.0398826278,
				"element": "C" 
			},
			{
				"x": 0.5747453742,
				"y": -1.7503124082,
				"z": 2.4080941971,
				"element": "C" 
			},
			{
				"x": 0.0009090125,
				"y": -0.5690270633,
				"z": 2.8650482771,
				"element": "C" 
			},
			{
				"x": 0.2984304757,
				"y": -1.2952017123,
				"z": -1.3563031293,
				"element": "C" 
			},
			{
				"x": -0.4853419934,
				"y": -0.5793776459,
				"z": -2.1481471983,
				"element": "N" 
			},
			{
				"x": -0.3938659237,
				"y": -0.7879487462,
				"z": -3.4892351179,
				"element": "C" 
			},
			{
				"x": -1.2193474305,
				"y": -0.0453628729,
				"z": -4.3733722057,
				"element": "C" 
			},
			{
				"x": -1.139405933,
				"y": -0.2606089062,
				"z": -5.7313441353,
				"element": "C" 
			},
			{
				"x": -0.2380626292,
				"y": -1.2192040815,
				"z": -6.2618611824,
				"element": "C" 
			},
			{
				"x": 0.5771837399,
				"y": -1.9518592214,
				"z": -5.4270664188,
				"element": "C" 
			},
			{
				"x": 0.5163235861,
				"y": -1.7501460858,
				"z": -4.0258890977,
				"element": "C" 
			},
			{
				"x": 1.33519052,
				"y": -2.4664734607,
				"z": -3.2009786051,
				"element": "N" 
			},
			{
				"x": 1.2253777171,
				"y": -2.2370389871,
				"z": -1.9131032955,
				"element": "C" 
			},
			{
				"x": -2.9890885906,
				"y": 6.4282174553,
				"z": 5.5315917207,
				"element": "H" 
			},
			{
				"x": -1.5138034697,
				"y": 5.0536553069,
				"z": 6.9829537824,
				"element": "H" 
			},
			{
				"x": -0.5049723594,
				"y": 2.945076462,
				"z": 6.1099739581,
				"element": "H" 
			},
			{
				"x": -2.2438397435,
				"y": 2.0947857087,
				"z": 0.6377141102,
				"element": "H" 
			},
			{
				"x": -3.4754894786,
				"y": 5.7002230902,
				"z": 3.1918013043,
				"element": "H" 
			},
			{
				"x": -0.7378964502,
				"y": 0.8226727286,
				"z": -0.1590730491,
				"element": "H" 
			},
			{
				"x": 1.1019616638,
				"y": -2.9475701878,
				"z": 0.7083227214,
				"element": "H" 
			},
			{
				"x": 0.9414884137,
				"y": -2.4836104647,
				"z": 3.1202886644,
				"element": "H" 
			},
			{
				"x": -0.0746896781,
				"y": -0.356940149,
				"z": 3.9254270697,
				"element": "H" 
			},
			{
				"x": -1.9026139656,
				"y": 0.6806400243,
				"z": -3.944616218,
				"element": "H" 
			},
			{
				"x": -1.7719736103,
				"y": 0.3068732318,
				"z": -6.4076449117,
				"element": "H" 
			},
			{
				"x": -0.1935538546,
				"y": -1.3719816699,
				"z": -7.3360958618,
				"element": "H" 
			},
			{
				"x": 1.2778534221,
				"y": -2.6889797312,
				"z": -5.8058722706,
				"element": "H" 
			},
			{
				"x": 1.9011443229,
				"y": -2.7885417473,
				"z": -1.2635837843,
				"element": "H" 
			}
		],
		 "valence_orbital": [ 
			{
				"type": "occ",
				"energy": -0.24897,
				"method": "rhf"
			},
			{
				"type": "occ",
				"energy": -0.24752,
				"method": "rhf"
			},
			{
				"type": "occ",
				"energy": -0.24457,
				"method": "rhf"
			},
			{
				"type": "occ",
				"energy": -0.23852,
				"method": "rhf"
			},
			{
				"type": "occ",
				"energy": -0.22994,
				"method": "rhf"
			},
			{
				"type": "unocc",
				"energy": -0.07743,
				"method": "rhf"
			},
			{
				"type": "unocc",
				"energy": -0.0738,
				"method": "rhf"
			},
			{
				"type": "unocc",
				"energy": -0.04195,
				"method": "rhf"
			},
			{
				"type": "unocc",
				"energy": -0.03547,
				"method": "rhf"
			},
			{
				"type": "unocc",
				"energy": 0.00019,
				"method": "rhf"
			}
		],
		"cosmo_sigma_profile": { 
			"-0.025": 0.0,
			"-0.024": 0.0,
			"-0.023": 0.0,
			"-0.022": 0.0,
			"-0.021": 0.0,
			"-0.02": 0.0,
			"-0.019": 0.0,
			"-0.018": 0.0,
			"-0.017": 0.0,
			"-0.016": 0.0,
			"-0.015": 0.0,
			"-0.014": 0.0,
			"-0.013": 0.0,
			"-0.012": 0.0,
			"-0.011": 0.0,
			"-0.01": 0.010678980826,
			"-0.009": 1.44187859374,
			"-0.008": 4.53761126104,
			"-0.007": 9.82276420203,
			"-0.006": 23.9332729062,
			"-0.005": 26.0931201434,
			"-0.004": 23.8110855059,
			"-0.003": 20.3796192841,
			"-0.002": 28.0894739189,
			"-0.001": 25.9202231466,
			"0.0": 28.6269644374,
			"0.001": 33.3837207293,
			"0.002": 40.5040153565,
			"0.003": 41.3412527168,
			"0.004": 20.7213519859,
			"0.005": 7.38001320907,
			"0.006": 6.88904824882,
			"0.007": 4.6773962194,
			"0.008": 3.74212594873,
			"0.009": 4.6326701042,
			"0.01": 2.40718927301,
			"0.011": 2.54379029992,
			"0.012": 1.49955234978,
			"0.013": 1.82911899469,
			"0.014": 1.26263917971,
			"0.015": 0.943181687955,
			"0.016": 0.0,
			"0.017": 0.0,
			"0.018": 0.0,
			"0.019": 0.0,
			"0.02": 0.0,
			"0.021": 0.0,
			"0.022": 0.0,
			"0.023": 0.0,
			"0.024": 0.0,
			"0.025": 0.0
		}
	}
}
