{
	 "smiles": "CC1=CCC(C(O)=O)C1(C)C", 
	 "Tm": 313.65, 
	 "num_atms": 25, 
	 "gaussian": { 
		 "optdone": 1, 
		 "sigma_profile": "yes", 
		 "theory": "DFT", 
		 "functional": "B3LYP", 
		 "basiset": "6-31G**", 
		 "properties": { 
			 "R2extent": 2145.7772, 
			 "electric_dipole_moment_norm": 4.27363324936, 
			 "electric_quadrupole_moment_norm": 15.3176082399, 
			 "total_energy": -501.84813805, 
			 "HOMO_LUMO_gap": 0.24412, 
			 "cosmo_polarized_energy": -12.7, 
			 "cosmo_cavitation_energy": 26.22, 
			 "cosmo_dispersion_energy": -18.51, 
			 "cosmo_repulsion_energy": 1.47, 
			 "cosmo_total_nonelectrostatic_energy": 9.17, 
			 "SMD_solvation_energy": 5.42 
		},
		"coords": [
			{
				"x": -0.7784812735,
				"y": 1.7060075397,
				"z": -1.0451854385,
				"element": "C" 
			},
			{
				"x": -0.1180018321,
				"y": 1.11619029,
				"z": 0.1665996517,
				"element": "C" 
			},
			{
				"x": 0.2877224339,
				"y": 1.7838094076,
				"z": 1.2521723636,
				"element": "C" 
			},
			{
				"x": 0.9618260742,
				"y": 0.9006573791,
				"z": 2.2692659776,
				"element": "C" 
			},
			{
				"x": 0.5772574961,
				"y": -0.5150519389,
				"z": 1.7919393043,
				"element": "C" 
			},
			{
				"x": 1.6299764779,
				"y": -1.5707997984,
				"z": 2.0973239774,
				"element": "C" 
			},
			{
				"x": 1.185897058,
				"y": -2.8611967548,
				"z": 2.0873043273,
				"element": "O" 
			},
			{
				"x": 2.7968559934,
				"y": -1.3455846101,
				"z": 2.3045874764,
				"element": "O" 
			},
			{
				"x": 0.2471334902,
				"y": -0.372646046,
				"z": 0.2506132482,
				"element": "C" 
			},
			{
				"x": 1.4805615352,
				"y": -0.6562468837,
				"z": -0.6383542597,
				"element": "C" 
			},
			{
				"x": -0.9075018093,
				"y": -1.2995780856,
				"z": -0.1681910487,
				"element": "C" 
			},
			{
				"x": -0.2026250587,
				"y": 1.5084144016,
				"z": -1.9581134194,
				"element": "H" 
			},
			{
				"x": -1.7786018776,
				"y": 1.2851867691,
				"z": -1.2079709938,
				"element": "H" 
			},
			{
				"x": -0.883931547,
				"y": 2.7898149042,
				"z": -0.9455339992,
				"element": "H" 
			},
			{
				"x": 0.1860191173,
				"y": 2.8574778069,
				"z": 1.3852963996,
				"element": "H" 
			},
			{
				"x": 2.0523377696,
				"y": 1.0224615941,
				"z": 2.2662323079,
				"element": "H" 
			},
			{
				"x": 0.6289794041,
				"y": 1.0870865172,
				"z": 3.2971136235,
				"element": "H" 
			},
			{
				"x": -0.3586334872,
				"y": -0.802699141,
				"z": 2.2907812881,
				"element": "H" 
			},
			{
				"x": 0.2285875374,
				"y": -2.8780669674,
				"z": 1.9488942561,
				"element": "H" 
			},
			{
				"x": 2.3454267159,
				"y": -0.0690229296,
				"z": -0.3192623183,
				"element": "H" 
			},
			{
				"x": 1.264869165,
				"y": -0.406923118,
				"z": -1.6822591876,
				"element": "H" 
			},
			{
				"x": 1.7594627621,
				"y": -1.7149540564,
				"z": -0.6036843664,
				"element": "H" 
			},
			{
				"x": -1.1591113028,
				"y": -1.1668261158,
				"z": -1.2254332027,
				"element": "H" 
			},
			{
				"x": -1.812159236,
				"y": -1.1067991232,
				"z": 0.4192368252,
				"element": "H" 
			},
			{
				"x": -0.630365606,
				"y": -2.3537110404,
				"z": -0.0434727925,
				"element": "H" 
			}
		],
		 "valence_orbital": [ 
			{
				"type": "occ",
				"energy": -0.33073,
				"method": "rhf"
			},
			{
				"type": "occ",
				"energy": -0.32549,
				"method": "rhf"
			},
			{
				"type": "occ",
				"energy": -0.30968,
				"method": "rhf"
			},
			{
				"type": "occ",
				"energy": -0.26714,
				"method": "rhf"
			},
			{
				"type": "occ",
				"energy": -0.23649,
				"method": "rhf"
			},
			{
				"type": "unocc",
				"energy": 0.00763,
				"method": "rhf"
			},
			{
				"type": "unocc",
				"energy": 0.02339,
				"method": "rhf"
			},
			{
				"type": "unocc",
				"energy": 0.04886,
				"method": "rhf"
			},
			{
				"type": "unocc",
				"energy": 0.09406,
				"method": "rhf"
			},
			{
				"type": "unocc",
				"energy": 0.10077,
				"method": "rhf"
			}
		],
		"cosmo_sigma_profile": { 
			"-0.025": 0.0,
			"-0.024": 0.0,
			"-0.023": 0.0,
			"-0.022": 0.0,
			"-0.021": 0.0,
			"-0.02": 0.0,
			"-0.019": 0.0,
			"-0.018": 0.0714476652979,
			"-0.017": 0.722325077494,
			"-0.016": 0.631619111324,
			"-0.015": 0.90669084259,
			"-0.014": 1.30998030288,
			"-0.013": 1.68300699606,
			"-0.012": 0.861440545689,
			"-0.011": 0.876463185587,
			"-0.01": 1.30262026423,
			"-0.009": 1.15556871601,
			"-0.008": 0.926086748371,
			"-0.007": 1.88314690655,
			"-0.006": 2.99295603981,
			"-0.005": 4.50365467685,
			"-0.004": 14.1486943928,
			"-0.003": 24.1007305063,
			"-0.002": 23.6588734766,
			"-0.001": 23.8276962723,
			"0.0": 26.3096264525,
			"0.001": 19.3383247512,
			"0.002": 7.18020234817,
			"0.003": 6.20048879106,
			"0.004": 5.15292387072,
			"0.005": 4.50389159316,
			"0.006": 4.44625131175,
			"0.007": 2.13316715146,
			"0.008": 2.7734589263,
			"0.009": 2.92985980588,
			"0.01": 4.28099786281,
			"0.011": 5.32458080652,
			"0.012": 5.39774977272,
			"0.013": 2.04460552678,
			"0.014": 0.174551642275,
			"0.015": 0.0,
			"0.016": 0.0,
			"0.017": 0.0,
			"0.018": 0.0,
			"0.019": 0.0,
			"0.02": 0.0,
			"0.021": 0.0,
			"0.022": 0.0,
			"0.023": 0.0,
			"0.024": 0.0,
			"0.025": 0.0
		}
	}
}
