{
	 "smiles": "O=C1CN2C=CN=C2CN1", 
	 "Tm": 453.15, 
	 "num_atms": 17, 
	 "gaussian": { 
		 "optdone": 1, 
		 "sigma_profile": "yes", 
		 "theory": "DFT", 
		 "functional": "B3LYP", 
		 "basiset": "6-31G**", 
		 "properties": { 
			 "R2extent": 1498.3472, 
			 "electric_dipole_moment_norm": 0.666007695151, 
			 "electric_quadrupole_moment_norm": 17.210328697, 
			 "total_energy": -472.33602073, 
			 "HOMO_LUMO_gap": 0.23995, 
			 "cosmo_polarized_energy": -15.95, 
			 "cosmo_cavitation_energy": 20.61, 
			 "cosmo_dispersion_energy": -15.86, 
			 "cosmo_repulsion_energy": 1.29, 
			 "cosmo_total_nonelectrostatic_energy": 6.04, 
			 "SMD_solvation_energy": 1.84 
		},
		"coords": [
			{
				"x": -0.7000625854,
				"y": -1.7872474642,
				"z": -3.0669767629,
				"element": "O" 
			},
			{
				"x": -0.5066435237,
				"y": -1.0837677279,
				"z": -2.0861160951,
				"element": "C" 
			},
			{
				"x": 0.2795431273,
				"y": 0.2190250628,
				"z": -2.2378548456,
				"element": "C" 
			},
			{
				"x": 0.6212901351,
				"y": 0.8473448568,
				"z": -0.9730129026,
				"element": "N" 
			},
			{
				"x": 1.5021049368,
				"y": 1.8891926725,
				"z": -0.7457457356,
				"element": "C" 
			},
			{
				"x": 1.4551541506,
				"y": 2.1128275265,
				"z": 0.6083503018,
				"element": "C" 
			},
			{
				"x": 0.5793557139,
				"y": 1.243597371,
				"z": 1.2190080001,
				"element": "N" 
			},
			{
				"x": 0.0998330604,
				"y": 0.50391415,
				"z": 0.2403788917,
				"element": "C" 
			},
			{
				"x": -0.9192848937,
				"y": -0.5828988045,
				"z": 0.3660428373,
				"element": "C" 
			},
			{
				"x": -0.9622406493,
				"y": -1.4029842573,
				"z": -0.8417930895,
				"element": "N" 
			},
			{
				"x": -0.320798735,
				"y": 0.8948466899,
				"z": -2.8592253478,
				"element": "H" 
			},
			{
				"x": 1.1871690371,
				"y": -0.0209023198,
				"z": -2.7987520578,
				"element": "H" 
			},
			{
				"x": 2.0638914979,
				"y": 2.3461844195,
				"z": -1.5459576596,
				"element": "H" 
			},
			{
				"x": 2.0090874346,
				"y": 2.8459365603,
				"z": 1.1781707954,
				"element": "H" 
			},
			{
				"x": -1.9098607088,
				"y": -0.1498531161,
				"z": 0.5718606676,
				"element": "H" 
			},
			{
				"x": -0.6623590453,
				"y": -1.2102337191,
				"z": 1.2261027802,
				"element": "H" 
			},
			{
				"x": -1.5087789525,
				"y": -2.2541819004,
				"z": -0.8188797776,
				"element": "H" 
			}
		],
		 "valence_orbital": [ 
			{
				"type": "occ",
				"energy": -0.27985,
				"method": "rhf"
			},
			{
				"type": "occ",
				"energy": -0.27254,
				"method": "rhf"
			},
			{
				"type": "occ",
				"energy": -0.26678,
				"method": "rhf"
			},
			{
				"type": "occ",
				"energy": -0.25998,
				"method": "rhf"
			},
			{
				"type": "occ",
				"energy": -0.22814,
				"method": "rhf"
			},
			{
				"type": "unocc",
				"energy": 0.01181,
				"method": "rhf"
			},
			{
				"type": "unocc",
				"energy": 0.02059,
				"method": "rhf"
			},
			{
				"type": "unocc",
				"energy": 0.05984,
				"method": "rhf"
			},
			{
				"type": "unocc",
				"energy": 0.07047,
				"method": "rhf"
			},
			{
				"type": "unocc",
				"energy": 0.10203,
				"method": "rhf"
			}
		],
		"cosmo_sigma_profile": { 
			"-0.025": 0.0,
			"-0.024": 0.0,
			"-0.023": 0.0,
			"-0.022": 0.0,
			"-0.021": 0.0,
			"-0.02": 0.0,
			"-0.019": 0.0,
			"-0.018": 0.0,
			"-0.017": 0.0,
			"-0.016": 0.0,
			"-0.015": 0.467865310145,
			"-0.014": 1.50343129037,
			"-0.013": 0.99282160409,
			"-0.012": 1.07955600779,
			"-0.011": 0.831706458652,
			"-0.01": 0.852654596563,
			"-0.009": 2.10172377083,
			"-0.008": 9.71738488835,
			"-0.007": 12.9180384667,
			"-0.006": 15.4161090471,
			"-0.005": 12.9501317303,
			"-0.004": 9.3710707441,
			"-0.003": 8.60691570779,
			"-0.002": 7.18872398657,
			"-0.001": 7.27258778117,
			"0.0": 5.56536410618,
			"0.001": 6.57307493004,
			"0.002": 6.02637329299,
			"0.003": 5.84501432185,
			"0.004": 4.93344081037,
			"0.005": 6.90779055136,
			"0.006": 4.45829634478,
			"0.007": 3.59672823853,
			"0.008": 2.40329182128,
			"0.009": 2.30701533674,
			"0.01": 3.35440016183,
			"0.011": 2.16681573376,
			"0.012": 2.79011477208,
			"0.013": 6.47609908727,
			"0.014": 5.56881937047,
			"0.015": 1.32481863851,
			"0.016": 0.759607836702,
			"0.017": 1.14834590262,
			"0.018": 0.676834044974,
			"0.019": 0.0,
			"0.02": 0.0,
			"0.021": 0.0,
			"0.022": 0.0,
			"0.023": 0.0,
			"0.024": 0.0,
			"0.025": 0.0
		}
	}
}
