{
	 "smiles": "CC(=O)N1CCCCC1", 
	 "Tm": 259.75, 
	 "num_atms": 22, 
	 "gaussian": { 
		 "optdone": 1, 
		 "sigma_profile": "yes", 
		 "theory": "DFT", 
		 "functional": "B3LYP", 
		 "basiset": "6-31G**", 
		 "properties": { 
			 "R2extent": 1669.5115, 
			 "electric_dipole_moment_norm": 3.95857596365, 
			 "electric_quadrupole_moment_norm": 15.2567547922, 
			 "total_energy": -404.574559521, 
			 "HOMO_LUMO_gap": 0.26464, 
			 "cosmo_polarized_energy": -9.56, 
			 "cosmo_cavitation_energy": 22.88, 
			 "cosmo_dispersion_energy": -17.23, 
			 "cosmo_repulsion_energy": 1.42, 
			 "cosmo_total_nonelectrostatic_energy": 7.07, 
			 "SMD_solvation_energy": 3.53 
		},
		"coords": [
			{
				"x": -3.1129992533,
				"y": -1.7603933831,
				"z": 1.3980996952,
				"element": "C" 
			},
			{
				"x": -2.7072926673,
				"y": -0.99351329,
				"z": 0.1455464799,
				"element": "C" 
			},
			{
				"x": -3.5338969618,
				"y": -0.709816496,
				"z": -0.7178991945,
				"element": "O" 
			},
			{
				"x": -1.383971432,
				"y": -0.6426145413,
				"z": 0.0279103903,
				"element": "N" 
			},
			{
				"x": -0.9802539661,
				"y": 0.1694507061,
				"z": -1.1299239312,
				"element": "C" 
			},
			{
				"x": 0.0958334041,
				"y": 1.1787617571,
				"z": -0.7241195786,
				"element": "C" 
			},
			{
				"x": 1.3645713048,
				"y": 0.4814330482,
				"z": -0.1768115567,
				"element": "C" 
			},
			{
				"x": 1.0320117036,
				"y": -0.9024692675,
				"z": 0.4218041277,
				"element": "C" 
			},
			{
				"x": -0.3672395624,
				"y": -0.9374729863,
				"z": 1.0450357619,
				"element": "C" 
			},
			{
				"x": -2.6709927854,
				"y": -2.7631217873,
				"z": 1.4122355659,
				"element": "H" 
			},
			{
				"x": -4.1981557718,
				"y": -1.8575530617,
				"z": 1.3836725385,
				"element": "H" 
			},
			{
				"x": -2.8058737787,
				"y": -1.2507873985,
				"z": 2.3171067302,
				"element": "H" 
			},
			{
				"x": -1.8795072305,
				"y": 0.6613820206,
				"z": -1.5030774735,
				"element": "H" 
			},
			{
				"x": -0.6121022968,
				"y": -0.477936807,
				"z": -1.93953227,
				"element": "H" 
			},
			{
				"x": -0.3270877971,
				"y": 1.8422102678,
				"z": 0.0397355519,
				"element": "H" 
			},
			{
				"x": 0.3417461011,
				"y": 1.8120208581,
				"z": -1.5830438713,
				"element": "H" 
			},
			{
				"x": 2.1061841377,
				"y": 0.3578454286,
				"z": -0.9737854292,
				"element": "H" 
			},
			{
				"x": 1.8326065822,
				"y": 1.117387514,
				"z": 0.5831447359,
				"element": "H" 
			},
			{
				"x": 1.0770010601,
				"y": -1.6708106478,
				"z": -0.3589191615,
				"element": "H" 
			},
			{
				"x": 1.7697087802,
				"y": -1.1850067812,
				"z": 1.1803372579,
				"element": "H" 
			},
			{
				"x": -0.5526373746,
				"y": -1.927251365,
				"z": 1.4706819006,
				"element": "H" 
			},
			{
				"x": -0.4197521959,
				"y": -0.2162437879,
				"z": 1.8769017307,
				"element": "H" 
			}
		],
		 "valence_orbital": [ 
			{
				"type": "occ",
				"energy": -0.33075,
				"method": "rhf"
			},
			{
				"type": "occ",
				"energy": -0.32571,
				"method": "rhf"
			},
			{
				"type": "occ",
				"energy": -0.3219,
				"method": "rhf"
			},
			{
				"type": "occ",
				"energy": -0.23453,
				"method": "rhf"
			},
			{
				"type": "occ",
				"energy": -0.22621,
				"method": "rhf"
			},
			{
				"type": "unocc",
				"energy": 0.03843,
				"method": "rhf"
			},
			{
				"type": "unocc",
				"energy": 0.06895,
				"method": "rhf"
			},
			{
				"type": "unocc",
				"energy": 0.10291,
				"method": "rhf"
			},
			{
				"type": "unocc",
				"energy": 0.10741,
				"method": "rhf"
			},
			{
				"type": "unocc",
				"energy": 0.13151,
				"method": "rhf"
			}
		],
		"cosmo_sigma_profile": { 
			"-0.025": 0.0,
			"-0.024": 0.0,
			"-0.023": 0.0,
			"-0.022": 0.0,
			"-0.021": 0.0,
			"-0.02": 0.0,
			"-0.019": 0.0,
			"-0.018": 0.0,
			"-0.017": 0.0,
			"-0.016": 0.0,
			"-0.015": 0.0,
			"-0.014": 0.0,
			"-0.013": 0.0,
			"-0.012": 0.0,
			"-0.011": 0.0,
			"-0.01": 0.0,
			"-0.009": 0.0,
			"-0.008": 0.0,
			"-0.007": 0.0594024016851,
			"-0.006": 2.81124899316,
			"-0.005": 6.0876395484,
			"-0.004": 12.8281309709,
			"-0.003": 31.321946403,
			"-0.002": 36.4675217448,
			"-0.001": 27.964532607,
			"0.0": 18.8720459405,
			"0.001": 10.136983541,
			"0.002": 2.61093140251,
			"0.003": 2.10851714926,
			"0.004": 1.57759130234,
			"0.005": 2.71429625783,
			"0.006": 1.54451110761,
			"0.007": 1.75397019967,
			"0.008": 1.21463921851,
			"0.009": 1.66707225993,
			"0.01": 1.24635845962,
			"0.011": 1.77160762942,
			"0.012": 1.4270561186,
			"0.013": 1.73248370262,
			"0.014": 4.76947793499,
			"0.015": 3.85414164258,
			"0.016": 0.674764740261,
			"0.017": 0.0,
			"0.018": 0.0,
			"0.019": 0.0,
			"0.02": 0.0,
			"0.021": 0.0,
			"0.022": 0.0,
			"0.023": 0.0,
			"0.024": 0.0,
			"0.025": 0.0
		}
	}
}
