{
	 "smiles": "CC(=O)CC(=O)NC1=CC=C(C=C1C)C1=CC(C)=C(NC(=O)CC(C)=O)C=C1", 
	 "Tm": 485.15, 
	 "num_atms": 52, 
	 "gaussian": { 
		 "optdone": 1, 
		 "sigma_profile": "yes", 
		 "theory": "DFT", 
		 "functional": "B3LYP", 
		 "basiset": "6-31G**", 
		 "properties": { 
			 "R2extent": 20732.7533, 
			 "electric_dipole_moment_norm": 4.14170396818, 
			 "electric_quadrupole_moment_norm": 30.220626746, 
			 "total_energy": -1263.25982504, 
			 "HOMO_LUMO_gap": 0.17696, 
			 "cosmo_polarized_energy": -24.14, 
			 "cosmo_cavitation_energy": 55.65, 
			 "cosmo_dispersion_energy": -37.84, 
			 "cosmo_repulsion_energy": 2.85, 
			 "cosmo_total_nonelectrostatic_energy": 20.66, 
			 "SMD_solvation_energy": 12.18 
		},
		"coords": [
			{
				"x": 2.9200622738,
				"y": 5.0387944896,
				"z": 6.4018991254,
				"element": "C" 
			},
			{
				"x": 2.8311058753,
				"y": 4.1738124901,
				"z": 5.16870597,
				"element": "C" 
			},
			{
				"x": 3.809463921,
				"y": 3.8053908919,
				"z": 4.5451804723,
				"element": "O" 
			},
			{
				"x": 1.4246870344,
				"y": 3.736525186,
				"z": 4.7369606781,
				"element": "C" 
			},
			{
				"x": 0.9706916989,
				"y": 2.5412894221,
				"z": 5.5807194468,
				"element": "C" 
			},
			{
				"x": 0.934651877,
				"y": 2.59530984,
				"z": 6.8044206424,
				"element": "O" 
			},
			{
				"x": 0.6081544825,
				"y": 1.4015052042,
				"z": 4.9089412798,
				"element": "N" 
			},
			{
				"x": 0.5135438871,
				"y": 1.1769707057,
				"z": 3.4955690858,
				"element": "C" 
			},
			{
				"x": -0.7300036452,
				"y": 1.3158463326,
				"z": 2.8702464237,
				"element": "C" 
			},
			{
				"x": -0.8742537823,
				"y": 1.0685271935,
				"z": 1.5090833833,
				"element": "C" 
			},
			{
				"x": 0.2327819591,
				"y": 0.6765012637,
				"z": 0.7390335552,
				"element": "C" 
			},
			{
				"x": 1.4718596538,
				"y": 0.5392444166,
				"z": 1.3844687013,
				"element": "C" 
			},
			{
				"x": 1.6415260126,
				"y": 0.7740593671,
				"z": 2.7536262722,
				"element": "C" 
			},
			{
				"x": 2.9974086405,
				"y": 0.6227249622,
				"z": 3.3969488381,
				"element": "C" 
			},
			{
				"x": 0.0976552988,
				"y": 0.4088862453,
				"z": -0.7150031563,
				"element": "C" 
			},
			{
				"x": -0.7435126084,
				"y": 1.1954696919,
				"z": -1.5184224744,
				"element": "C" 
			},
			{
				"x": -0.9048690001,
				"y": 0.9660151882,
				"z": -2.8857130811,
				"element": "C" 
			},
			{
				"x": -1.823619933,
				"y": 1.8378642712,
				"z": -3.7077964791,
				"element": "C" 
			},
			{
				"x": -0.1829131599,
				"y": -0.0930270704,
				"z": -3.478069999,
				"element": "C" 
			},
			{
				"x": -0.3184691587,
				"y": -0.2980326013,
				"z": -4.8764637341,
				"element": "N" 
			},
			{
				"x": -0.4543348045,
				"y": -1.4360124186,
				"z": -5.6380880598,
				"element": "C" 
			},
			{
				"x": -0.5078023777,
				"y": -1.3570214071,
				"z": -6.8601660369,
				"element": "O" 
			},
			{
				"x": -0.5553570178,
				"y": -2.7897700007,
				"z": -4.9354160491,
				"element": "C" 
			},
			{
				"x": 0.7244877886,
				"y": -3.5985914285,
				"z": -5.2036614006,
				"element": "C" 
			},
			{
				"x": 0.7859238562,
				"y": -4.3248344859,
				"z": -6.5249944077,
				"element": "C" 
			},
			{
				"x": 1.6352212731,
				"y": -3.6089627269,
				"z": -4.3963613593,
				"element": "O" 
			},
			{
				"x": 0.6840920217,
				"y": -0.8714252144,
				"z": -2.7002910587,
				"element": "C" 
			},
			{
				"x": 0.8052358357,
				"y": -0.631569608,
				"z": -1.3341575562,
				"element": "C" 
			},
			{
				"x": 2.3874704496,
				"y": 4.5372148625,
				"z": 7.2172993307,
				"element": "H" 
			},
			{
				"x": 3.9637301225,
				"y": 5.2161340269,
				"z": 6.6645061576,
				"element": "H" 
			},
			{
				"x": 2.4139083033,
				"y": 5.9958549486,
				"z": 6.226227181,
				"element": "H" 
			},
			{
				"x": 0.7066941188,
				"y": 4.5415753489,
				"z": 4.9272778041,
				"element": "H" 
			},
			{
				"x": 1.4388091749,
				"y": 3.5080927127,
				"z": 3.671389283,
				"element": "H" 
			},
			{
				"x": 0.2919417312,
				"y": 0.6672814443,
				"z": 5.5328884153,
				"element": "H" 
			},
			{
				"x": -1.5868374341,
				"y": 1.6110323054,
				"z": 3.4690508637,
				"element": "H" 
			},
			{
				"x": -1.8529805259,
				"y": 1.1540121722,
				"z": 1.0475018889,
				"element": "H" 
			},
			{
				"x": 2.3418155663,
				"y": 0.2560666021,
				"z": 0.7988035943,
				"element": "H" 
			},
			{
				"x": 2.9335206971,
				"y": 0.0633161144,
				"z": 4.3354507878,
				"element": "H" 
			},
			{
				"x": 3.4368454774,
				"y": 1.5990981615,
				"z": 3.6338615281,
				"element": "H" 
			},
			{
				"x": 3.6847219307,
				"y": 0.0970531429,
				"z": 2.7292142085,
				"element": "H" 
			},
			{
				"x": -1.2808021665,
				"y": 2.0252269945,
				"z": -1.067400626,
				"element": "H" 
			},
			{
				"x": -2.5404865056,
				"y": 1.2394868509,
				"z": -4.2807561628,
				"element": "H" 
			},
			{
				"x": -2.3862991437,
				"y": 2.5213080801,
				"z": -3.0675450791,
				"element": "H" 
			},
			{
				"x": -1.2713952075,
				"y": 2.4550166104,
				"z": -4.4296297929,
				"element": "H" 
			},
			{
				"x": -0.3638976932,
				"y": 0.5313064107,
				"z": -5.4573670965,
				"element": "H" 
			},
			{
				"x": -0.705272169,
				"y": -2.6986742611,
				"z": -3.8604168022,
				"element": "H" 
			},
			{
				"x": -1.4133436187,
				"y": -3.293061198,
				"z": -5.390145096,
				"element": "H" 
			},
			{
				"x": 0.527343208,
				"y": -3.6255317316,
				"z": -7.3277928553,
				"element": "H" 
			},
			{
				"x": 1.7785362575,
				"y": -4.7501500578,
				"z": -6.6777765178,
				"element": "H" 
			},
			{
				"x": 0.0352119045,
				"y": -5.124398502,
				"z": -6.5435115402,
				"element": "H" 
			},
			{
				"x": 1.2589028379,
				"y": -1.6703432043,
				"z": -3.1577590117,
				"element": "H" 
			},
			{
				"x": 1.4560447823,
				"y": -1.2693080339,
				"z": -0.7442694842,
				"element": "H" 
			}
		],
		 "valence_orbital": [ 
			{
				"type": "occ",
				"energy": -0.25753,
				"method": "rhf"
			},
			{
				"type": "occ",
				"energy": -0.25627,
				"method": "rhf"
			},
			{
				"type": "occ",
				"energy": -0.255,
				"method": "rhf"
			},
			{
				"type": "occ",
				"energy": -0.24792,
				"method": "rhf"
			},
			{
				"type": "occ",
				"energy": -0.22274,
				"method": "rhf"
			},
			{
				"type": "unocc",
				"energy": -0.04578,
				"method": "rhf"
			},
			{
				"type": "unocc",
				"energy": -0.02902,
				"method": "rhf"
			},
			{
				"type": "unocc",
				"energy": -0.02215,
				"method": "rhf"
			},
			{
				"type": "unocc",
				"energy": -0.01471,
				"method": "rhf"
			},
			{
				"type": "unocc",
				"energy": -0.01074,
				"method": "rhf"
			}
		],
		"cosmo_sigma_profile": { 
			"-0.025": 0.0,
			"-0.024": 0.0,
			"-0.023": 0.0,
			"-0.022": 0.0,
			"-0.021": 0.0,
			"-0.02": 0.0,
			"-0.019": 0.0,
			"-0.018": 0.0,
			"-0.017": 0.0,
			"-0.016": 0.0,
			"-0.015": 0.0,
			"-0.014": 1.1657405098,
			"-0.013": 1.83100956755,
			"-0.012": 1.85380135811,
			"-0.011": 2.16939697907,
			"-0.01": 2.38337746511,
			"-0.009": 1.67601000284,
			"-0.008": 4.57431138077,
			"-0.007": 12.5927514026,
			"-0.006": 17.9287280208,
			"-0.005": 30.4846842862,
			"-0.004": 39.1418211298,
			"-0.003": 41.2295656959,
			"-0.002": 37.9251960376,
			"-0.001": 43.8965601956,
			"0.0": 32.9323797392,
			"0.001": 27.8921759924,
			"0.002": 22.1828404903,
			"0.003": 22.2947789753,
			"0.004": 24.2243679151,
			"0.005": 12.8766832039,
			"0.006": 4.36838417375,
			"0.007": 6.69507656194,
			"0.008": 5.38798908234,
			"0.009": 5.60426619592,
			"0.01": 8.02444812755,
			"0.011": 10.1161477024,
			"0.012": 7.69106366462,
			"0.013": 9.55592609309,
			"0.014": 2.31177318848,
			"0.015": 0.0,
			"0.016": 0.0,
			"0.017": 0.0,
			"0.018": 0.0,
			"0.019": 0.0,
			"0.02": 0.0,
			"0.021": 0.0,
			"0.022": 0.0,
			"0.023": 0.0,
			"0.024": 0.0,
			"0.025": 0.0
		}
	}
}
