{
	 "smiles": "CCC1=CC=C(NC(N)=S)C=C1", 
	 "Tm": 411.15, 
	 "num_atms": 24, 
	 "gaussian": { 
		 "optdone": 1, 
		 "sigma_profile": "yes", 
		 "theory": "DFT", 
		 "functional": "B3LYP", 
		 "basiset": "6-31G**", 
		 "properties": { 
			 "R2extent": 4035.0595, 
			 "electric_dipole_moment_norm": 5.99074337374, 
			 "electric_quadrupole_moment_norm": 15.8475867002, 
			 "total_energy": -857.910084336, 
			 "HOMO_LUMO_gap": 0.17509, 
			 "cosmo_polarized_energy": -16.45, 
			 "cosmo_cavitation_energy": 29.2, 
			 "cosmo_dispersion_energy": -21.63, 
			 "cosmo_repulsion_energy": 1.71, 
			 "cosmo_total_nonelectrostatic_energy": 9.27, 
			 "SMD_solvation_energy": 4.04 
		},
		"coords": [
			{
				"x": -4.4720261361,
				"y": -2.2622936293,
				"z": 2.6740458474,
				"element": "C" 
			},
			{
				"x": -3.8975463465,
				"y": -2.4648548266,
				"z": 1.2600441894,
				"element": "C" 
			},
			{
				"x": -2.5824005336,
				"y": -1.745553926,
				"z": 1.049478109,
				"element": "C" 
			},
			{
				"x": -2.5475711715,
				"y": -0.4107517441,
				"z": 0.6210507614,
				"element": "C" 
			},
			{
				"x": -1.3428823792,
				"y": 0.2646199587,
				"z": 0.4490783984,
				"element": "C" 
			},
			{
				"x": -0.1257662452,
				"y": -0.3776454872,
				"z": 0.719772888,
				"element": "C" 
			},
			{
				"x": 1.076428185,
				"y": 0.3589991826,
				"z": 0.5765424332,
				"element": "N" 
			},
			{
				"x": 2.2828990378,
				"y": -0.0203326931,
				"z": 0.0525568785,
				"element": "C" 
			},
			{
				"x": 2.372340577,
				"y": -1.2844655973,
				"z": -0.441250393,
				"element": "N" 
			},
			{
				"x": 3.5864656368,
				"y": 1.0420903648,
				"z": 0.0420444809,
				"element": "S" 
			},
			{
				"x": -0.1445576221,
				"y": -1.705122291,
				"z": 1.1731750347,
				"element": "C" 
			},
			{
				"x": -1.360120563,
				"y": -2.3737872007,
				"z": 1.3180161248,
				"element": "C" 
			},
			{
				"x": -3.7791376669,
				"y": -2.6334098031,
				"z": 3.4360821752,
				"element": "H" 
			},
			{
				"x": -5.4218985469,
				"y": -2.7943955214,
				"z": 2.7899788266,
				"element": "H" 
			},
			{
				"x": -4.6501815801,
				"y": -1.2013579886,
				"z": 2.8772671841,
				"element": "H" 
			},
			{
				"x": -3.760623437,
				"y": -3.5370427401,
				"z": 1.0762718863,
				"element": "H" 
			},
			{
				"x": -4.6276859571,
				"y": -2.1141478626,
				"z": 0.5207904317,
				"element": "H" 
			},
			{
				"x": -3.479465214,
				"y": 0.1052705009,
				"z": 0.4028979783,
				"element": "H" 
			},
			{
				"x": -1.3368463368,
				"y": 1.2910805155,
				"z": 0.0925816907,
				"element": "H" 
			},
			{
				"x": 1.0528310085,
				"y": 1.3382801211,
				"z": 0.8253603767,
				"element": "H" 
			},
			{
				"x": 1.5372975237,
				"y": -1.8004204806,
				"z": -0.6830331974,
				"element": "H" 
			},
			{
				"x": 3.2179987032,
				"y": -1.489750267,
				"z": -0.9498203222,
				"element": "H" 
			},
			{
				"x": 0.7835803557,
				"y": -2.2017333992,
				"z": 1.4344467741,
				"element": "H" 
			},
			{
				"x": -1.3547312915,
				"y": -3.404075186,
				"z": 1.6657214432,
				"element": "H" 
			}
		],
		 "valence_orbital": [ 
			{
				"type": "occ",
				"energy": -0.29908,
				"method": "rhf"
			},
			{
				"type": "occ",
				"energy": -0.26734,
				"method": "rhf"
			},
			{
				"type": "occ",
				"energy": -0.24325,
				"method": "rhf"
			},
			{
				"type": "occ",
				"energy": -0.20707,
				"method": "rhf"
			},
			{
				"type": "occ",
				"energy": -0.20315,
				"method": "rhf"
			},
			{
				"type": "unocc",
				"energy": -0.02806,
				"method": "rhf"
			},
			{
				"type": "unocc",
				"energy": -0.02059,
				"method": "rhf"
			},
			{
				"type": "unocc",
				"energy": 0.01772,
				"method": "rhf"
			},
			{
				"type": "unocc",
				"energy": 0.07106,
				"method": "rhf"
			},
			{
				"type": "unocc",
				"energy": 0.08304,
				"method": "rhf"
			}
		],
		"cosmo_sigma_profile": { 
			"-0.025": 0.0,
			"-0.024": 0.0,
			"-0.023": 0.0,
			"-0.022": 0.0,
			"-0.021": 0.0,
			"-0.02": 0.0,
			"-0.019": 0.0,
			"-0.018": 0.0,
			"-0.017": 0.0,
			"-0.016": 0.0,
			"-0.015": 0.426253666978,
			"-0.014": 2.05453229979,
			"-0.013": 2.95192141008,
			"-0.012": 2.79714202925,
			"-0.011": 3.82791461578,
			"-0.01": 3.1673601464,
			"-0.009": 1.99473215555,
			"-0.008": 2.54438105217,
			"-0.007": 3.97404658263,
			"-0.006": 7.67680954606,
			"-0.005": 10.9984078247,
			"-0.004": 14.6699014839,
			"-0.003": 17.9375462905,
			"-0.002": 20.263507533,
			"-0.001": 18.5742596731,
			"0.0": 21.4433131316,
			"0.001": 18.6126402893,
			"0.002": 12.3511853544,
			"0.003": 9.16297624366,
			"0.004": 11.8824002744,
			"0.005": 10.4924047059,
			"0.006": 4.09862780517,
			"0.007": 3.19223003009,
			"0.008": 3.93661383606,
			"0.009": 4.12328574676,
			"0.01": 4.53324304467,
			"0.011": 7.46126769311,
			"0.012": 6.93899391956,
			"0.013": 1.41903351557,
			"0.014": 0.0,
			"0.015": 0.0,
			"0.016": 0.0,
			"0.017": 0.0,
			"0.018": 0.0,
			"0.019": 0.0,
			"0.02": 0.0,
			"0.021": 0.0,
			"0.022": 0.0,
			"0.023": 0.0,
			"0.024": 0.0,
			"0.025": 0.0
		}
	}
}
