{
	 "smiles": "NCCS(O)(=O)=O", 
	 "Tm": 601.15, 
	 "num_atms": 14, 
	 "gaussian": { 
		 "optdone": 1, 
		 "sigma_profile": "yes", 
		 "theory": "DFT", 
		 "functional": "B3LYP", 
		 "basiset": "6-31G**", 
		 "properties": { 
			 "R2extent": 1154.9181, 
			 "electric_dipole_moment_norm": 2.27822144885, 
			 "electric_quadrupole_moment_norm": 11.6147586716, 
			 "total_energy": -758.972855904, 
			 "HOMO_LUMO_gap": 0.27364, 
			 "cosmo_polarized_energy": -16.35, 
			 "cosmo_cavitation_energy": 18.55, 
			 "cosmo_dispersion_energy": -14.71, 
			 "cosmo_repulsion_energy": 1.21, 
			 "cosmo_total_nonelectrostatic_energy": 5.05, 
			 "SMD_solvation_energy": 0.91 
		},
		"coords": [
			{
				"x": -1.6584389234,
				"y": -0.6545500254,
				"z": 1.6676818113,
				"element": "N" 
			},
			{
				"x": -2.3366575834,
				"y": -0.0706278754,
				"z": 0.5231962545,
				"element": "C" 
			},
			{
				"x": -1.5287021262,
				"y": 0.9053433914,
				"z": -0.360534233,
				"element": "C" 
			},
			{
				"x": -0.2144592525,
				"y": 0.1227305376,
				"z": -1.3186230662,
				"element": "S" 
			},
			{
				"x": -1.1602509887,
				"y": -0.7275110191,
				"z": -2.3692207302,
				"element": "O" 
			},
			{
				"x": 0.5168309168,
				"y": 1.1452595594,
				"z": -2.0543370359,
				"element": "O" 
			},
			{
				"x": 0.5071418653,
				"y": -0.8693602303,
				"z": -0.5122189812,
				"element": "O" 
			},
			{
				"x": -1.3521198805,
				"y": 0.0692134477,
				"z": 2.3127174212,
				"element": "H" 
			},
			{
				"x": -0.8275704136,
				"y": -1.1553346227,
				"z": 1.3633635541,
				"element": "H" 
			},
			{
				"x": -3.2112955773,
				"y": 0.4864860751,
				"z": 0.8788771619,
				"element": "H" 
			},
			{
				"x": -2.7233183313,
				"y": -0.8759085569,
				"z": -0.1104644157,
				"element": "H" 
			},
			{
				"x": -2.1541536836,
				"y": 1.4128835338,
				"z": -1.1013307,
				"element": "H" 
			},
			{
				"x": -1.0136832168,
				"y": 1.6666231564,
				"z": 0.2340722423,
				"element": "H" 
			},
			{
				"x": -0.7335228049,
				"y": -1.5933473714,
				"z": -2.4870792832,
				"element": "H" 
			}
		],
		 "valence_orbital": [ 
			{
				"type": "occ",
				"energy": -0.35446,
				"method": "rhf"
			},
			{
				"type": "occ",
				"energy": -0.32894,
				"method": "rhf"
			},
			{
				"type": "occ",
				"energy": -0.32295,
				"method": "rhf"
			},
			{
				"type": "occ",
				"energy": -0.30894,
				"method": "rhf"
			},
			{
				"type": "occ",
				"energy": -0.24759,
				"method": "rhf"
			},
			{
				"type": "unocc",
				"energy": 0.02605,
				"method": "rhf"
			},
			{
				"type": "unocc",
				"energy": 0.05854,
				"method": "rhf"
			},
			{
				"type": "unocc",
				"energy": 0.06792,
				"method": "rhf"
			},
			{
				"type": "unocc",
				"energy": 0.08457,
				"method": "rhf"
			},
			{
				"type": "unocc",
				"energy": 0.09185,
				"method": "rhf"
			}
		],
		"cosmo_sigma_profile": { 
			"-0.025": 0.0,
			"-0.024": 0.0,
			"-0.023": 0.0,
			"-0.022": 0.0,
			"-0.021": 0.0,
			"-0.02": 0.626608243455,
			"-0.019": 1.0849402884,
			"-0.018": 0.499438778231,
			"-0.017": 1.28473021769,
			"-0.016": 0.822835160193,
			"-0.015": 0.427469990213,
			"-0.014": 0.536400014554,
			"-0.013": 0.751753676212,
			"-0.012": 0.826985235813,
			"-0.011": 0.845702176946,
			"-0.01": 2.42644948217,
			"-0.009": 7.30803306315,
			"-0.008": 7.49656669915,
			"-0.007": 6.27682382838,
			"-0.006": 8.4959410289,
			"-0.005": 10.1669493528,
			"-0.004": 7.96448462833,
			"-0.003": 7.31118719848,
			"-0.002": 6.6201000092,
			"-0.001": 5.01005542766,
			"0.0": 4.81719601939,
			"0.001": 4.75772981323,
			"0.002": 3.48807309569,
			"0.003": 3.05930853412,
			"0.004": 3.54541553181,
			"0.005": 3.03020612469,
			"0.006": 5.02596466542,
			"0.007": 5.58195239035,
			"0.008": 5.94978343677,
			"0.009": 6.35141674674,
			"0.01": 10.603324994,
			"0.011": 7.10888582566,
			"0.012": 0.906660722224,
			"0.013": 0.593901040352,
			"0.014": 0.185804356822,
			"0.015": 0.687054114515,
			"0.016": 0.991268688228,
			"0.017": 0.587573908031,
			"0.018": 0.540024500752,
			"0.019": 0.491053806725,
			"0.02": 0.0673237865808,
			"0.021": 0.0,
			"0.022": 0.0,
			"0.023": 0.0,
			"0.024": 0.0,
			"0.025": 0.0
		}
	}
}
