{
	 "smiles": "NNC(=O)C1=CC2=C(CCCCC2)S1", 
	 "Tm": 527.15, 
	 "num_atms": 28, 
	 "gaussian": { 
		 "optdone": 1, 
		 "sigma_profile": "yes", 
		 "theory": "DFT", 
		 "functional": "B3LYP", 
		 "basiset": "6-31G**", 
		 "properties": { 
			 "R2extent": 3845.711, 
			 "electric_dipole_moment_norm": 4.11840448353, 
			 "electric_quadrupole_moment_norm": 8.9879221186, 
			 "total_energy": -972.395775611, 
			 "HOMO_LUMO_gap": 0.18727, 
			 "cosmo_polarized_energy": -12.78, 
			 "cosmo_cavitation_energy": 30.77, 
			 "cosmo_dispersion_energy": -23.48, 
			 "cosmo_repulsion_energy": 1.81, 
			 "cosmo_total_nonelectrostatic_energy": 9.11, 
			 "SMD_solvation_energy": 5.17 
		},
		"coords": [
			{
				"x": 3.3056620253,
				"y": -1.4616679603,
				"z": 0.8376923079,
				"element": "N" 
			},
			{
				"x": 2.9967397755,
				"y": -1.7678545072,
				"z": -0.490438141,
				"element": "N" 
			},
			{
				"x": 1.8993936993,
				"y": -1.4218556574,
				"z": -1.2459882092,
				"element": "C" 
			},
			{
				"x": 1.8366189067,
				"y": -1.7864111208,
				"z": -2.4181057116,
				"element": "O" 
			},
			{
				"x": 0.8007341915,
				"y": -0.617595999,
				"z": -0.6522599389,
				"element": "C" 
			},
			{
				"x": -0.3064324749,
				"y": -0.2631770907,
				"z": -1.3829458913,
				"element": "C" 
			},
			{
				"x": -1.2785673054,
				"y": 0.5009491883,
				"z": -0.6725901099,
				"element": "C" 
			},
			{
				"x": -0.9014368068,
				"y": 0.7316913425,
				"z": 0.6345031838,
				"element": "C" 
			},
			{
				"x": -1.6120495692,
				"y": 1.5032515255,
				"z": 1.7206763903,
				"element": "C" 
			},
			{
				"x": -2.4320330457,
				"y": 2.688609573,
				"z": 1.1763941418,
				"element": "C" 
			},
			{
				"x": -3.7835332828,
				"y": 2.3001561773,
				"z": 0.5481018471,
				"element": "C" 
			},
			{
				"x": -3.7645051402,
				"y": 1.0502368497,
				"z": -0.3515049099,
				"element": "C" 
			},
			{
				"x": -2.5698937248,
				"y": 0.9645856731,
				"z": -1.3175725741,
				"element": "C" 
			},
			{
				"x": 0.6499482863,
				"y": 0.0103846941,
				"z": 0.9771289627,
				"element": "S" 
			},
			{
				"x": 2.6177751369,
				"y": -1.8520692064,
				"z": 1.4759403276,
				"element": "H" 
			},
			{
				"x": 3.3692299286,
				"y": -0.457376377,
				"z": 0.9806819354,
				"element": "H" 
			},
			{
				"x": 3.6896135548,
				"y": -2.3097342804,
				"z": -0.9893250258,
				"element": "H" 
			},
			{
				"x": -0.4038538372,
				"y": -0.5638059745,
				"z": -2.4198012093,
				"element": "H" 
			},
			{
				"x": -2.2640154143,
				"y": 0.8327316814,
				"z": 2.299526239,
				"element": "H" 
			},
			{
				"x": -0.8666171712,
				"y": 1.8775513747,
				"z": 2.4318636469,
				"element": "H" 
			},
			{
				"x": -2.6167965046,
				"y": 3.3981635984,
				"z": 1.9915953402,
				"element": "H" 
			},
			{
				"x": -1.8161807609,
				"y": 3.2226265771,
				"z": 0.443109616,
				"element": "H" 
			},
			{
				"x": -4.5199322524,
				"y": 2.1370840674,
				"z": 1.3456502357,
				"element": "H" 
			},
			{
				"x": -4.1495464433,
				"y": 3.1581241267,
				"z": -0.0304196085,
				"element": "H" 
			},
			{
				"x": -4.6963915819,
				"y": 1.0271573483,
				"z": -0.9286571068,
				"element": "H" 
			},
			{
				"x": -3.7715234824,
				"y": 0.1445411241,
				"z": 0.2674132953,
				"element": "H" 
			},
			{
				"x": -2.4191135426,
				"y": 1.936670153,
				"z": -1.8098003906,
				"element": "H" 
			},
			{
				"x": -2.8095931645,
				"y": 0.2621330991,
				"z": -2.1239686429,
				"element": "H" 
			}
		],
		 "valence_orbital": [ 
			{
				"type": "occ",
				"energy": -0.28369,
				"method": "rhf"
			},
			{
				"type": "occ",
				"energy": -0.2528,
				"method": "rhf"
			},
			{
				"type": "occ",
				"energy": -0.24936,
				"method": "rhf"
			},
			{
				"type": "occ",
				"energy": -0.24462,
				"method": "rhf"
			},
			{
				"type": "occ",
				"energy": -0.22687,
				"method": "rhf"
			},
			{
				"type": "unocc",
				"energy": -0.0396,
				"method": "rhf"
			},
			{
				"type": "unocc",
				"energy": 0.02137,
				"method": "rhf"
			},
			{
				"type": "unocc",
				"energy": 0.03664,
				"method": "rhf"
			},
			{
				"type": "unocc",
				"energy": 0.077,
				"method": "rhf"
			},
			{
				"type": "unocc",
				"energy": 0.07935,
				"method": "rhf"
			}
		],
		"cosmo_sigma_profile": { 
			"-0.025": 0.0,
			"-0.024": 0.0,
			"-0.023": 0.0,
			"-0.022": 0.0,
			"-0.021": 0.0,
			"-0.02": 0.0,
			"-0.019": 0.0,
			"-0.018": 0.0,
			"-0.017": 0.0,
			"-0.016": 0.0,
			"-0.015": 0.0,
			"-0.014": 0.0845480309694,
			"-0.013": 1.08279760636,
			"-0.012": 1.0817450568,
			"-0.011": 2.84990255257,
			"-0.01": 3.06441734869,
			"-0.009": 3.66083706816,
			"-0.008": 3.6163628771,
			"-0.007": 3.48902900262,
			"-0.006": 3.91157581573,
			"-0.005": 6.30348544987,
			"-0.004": 11.2373198175,
			"-0.003": 22.3835870174,
			"-0.002": 33.5063954519,
			"-0.001": 34.4646817222,
			"0.0": 26.2794782053,
			"0.001": 17.8721642778,
			"0.002": 10.8493529853,
			"0.003": 12.2439679854,
			"0.004": 13.5478838989,
			"0.005": 4.50612984302,
			"0.006": 2.24231294505,
			"0.007": 1.91495905819,
			"0.008": 2.11123270825,
			"0.009": 2.36640220134,
			"0.01": 1.81061507421,
			"0.011": 2.56149753677,
			"0.012": 2.39880009365,
			"0.013": 3.38839657427,
			"0.014": 6.67988688352,
			"0.015": 0.80855240429,
			"0.016": 0.0,
			"0.017": 0.0,
			"0.018": 0.0,
			"0.019": 0.0,
			"0.02": 0.0,
			"0.021": 0.0,
			"0.022": 0.0,
			"0.023": 0.0,
			"0.024": 0.0,
			"0.025": 0.0
		}
	}
}
