{
	 "smiles": "NC1=CC(=CC=C1)C(=O)N1CCC(CO)CC1", 
	 "Tm": 429.15, 
	 "num_atms": 35, 
	 "gaussian": { 
		 "optdone": 1, 
		 "sigma_profile": "yes", 
		 "theory": "DFT", 
		 "functional": "B3LYP", 
		 "basiset": "6-31G**", 
		 "properties": { 
			 "R2extent": 5573.4928, 
			 "electric_dipole_moment_norm": 2.59607298048, 
			 "electric_quadrupole_moment_norm": 25.6938009958, 
			 "total_energy": -766.188352425, 
			 "HOMO_LUMO_gap": 0.18547, 
			 "cosmo_polarized_energy": -19.25, 
			 "cosmo_cavitation_energy": 36.08, 
			 "cosmo_dispersion_energy": -25.69, 
			 "cosmo_repulsion_energy": 2.01, 
			 "cosmo_total_nonelectrostatic_energy": 12.4, 
			 "SMD_solvation_energy": 6.06 
		},
		"coords": [
			{
				"x": 0.6092290737,
				"y": -5.4347635227,
				"z": -1.9761452531,
				"element": "N" 
			},
			{
				"x": 0.2834911012,
				"y": -4.0807060856,
				"z": -1.9027807362,
				"element": "C" 
			},
			{
				"x": 1.1369924937,
				"y": -3.173633007,
				"z": -1.2567937972,
				"element": "C" 
			},
			{
				"x": 0.8378676842,
				"y": -1.8096911044,
				"z": -1.2126413262,
				"element": "C" 
			},
			{
				"x": -0.3121320268,
				"y": -1.3251442932,
				"z": -1.8532439241,
				"element": "C" 
			},
			{
				"x": -1.1555401511,
				"y": -2.222255123,
				"z": -2.5104640228,
				"element": "C" 
			},
			{
				"x": -0.8742156441,
				"y": -3.5854533851,
				"z": -2.5303262239,
				"element": "C" 
			},
			{
				"x": 1.855407035,
				"y": -0.9111203418,
				"z": -0.5574915364,
				"element": "C" 
			},
			{
				"x": 3.0582471463,
				"y": -1.1124328835,
				"z": -0.7297999314,
				"element": "O" 
			},
			{
				"x": 1.4236612518,
				"y": 0.1560803646,
				"z": 0.1955976891,
				"element": "N" 
			},
			{
				"x": 2.4711198694,
				"y": 1.0501279426,
				"z": 0.7134464703,
				"element": "C" 
			},
			{
				"x": 1.8501497698,
				"y": 2.3043526222,
				"z": 1.3557809475,
				"element": "C" 
			},
			{
				"x": 0.5911775658,
				"y": 2.7892875082,
				"z": 0.6129039912,
				"element": "C" 
			},
			{
				"x": 0.9208949061,
				"y": 3.2626100815,
				"z": -0.8058951234,
				"element": "C" 
			},
			{
				"x": -0.2587380047,
				"y": 3.8409756157,
				"z": -1.3567318018,
				"element": "O" 
			},
			{
				"x": -0.4889852837,
				"y": 1.6706086899,
				"z": 0.6114659138,
				"element": "C" 
			},
			{
				"x": 0.1214683915,
				"y": 0.2796157873,
				"z": 0.8554774527,
				"element": "C" 
			},
			{
				"x": 1.245825018,
				"y": -5.7663139721,
				"z": -1.265183642,
				"element": "H" 
			},
			{
				"x": -0.16905759,
				"y": -6.063443665,
				"z": -2.116527978,
				"element": "H" 
			},
			{
				"x": 2.0579999075,
				"y": -3.519170218,
				"z": -0.7964501958,
				"element": "H" 
			},
			{
				"x": -0.5294588454,
				"y": -0.2624051057,
				"z": -1.8636694001,
				"element": "H" 
			},
			{
				"x": -2.0435927417,
				"y": -1.8549947582,
				"z": -3.0174912755,
				"element": "H" 
			},
			{
				"x": -1.5404647986,
				"y": -4.2731763084,
				"z": -3.0455827705,
				"element": "H" 
			},
			{
				"x": 3.1234007235,
				"y": 1.3124922803,
				"z": -0.1236789202,
				"element": "H" 
			},
			{
				"x": 3.1054015212,
				"y": 0.517146344,
				"z": 1.4352030306,
				"element": "H" 
			},
			{
				"x": 1.5814031145,
				"y": 2.0973801679,
				"z": 2.3982456218,
				"element": "H" 
			},
			{
				"x": 2.6098213787,
				"y": 3.0936434585,
				"z": 1.390165988,
				"element": "H" 
			},
			{
				"x": 0.1926401714,
				"y": 3.6662351982,
				"z": 1.1367299893,
				"element": "H" 
			},
			{
				"x": 1.267379968,
				"y": 2.416401686,
				"z": -1.4176522793,
				"element": "H" 
			},
			{
				"x": 1.7387306222,
				"y": 4.0009473322,
				"z": -0.762818323,
				"element": "H" 
			},
			{
				"x": -0.0955825501,
				"y": 4.0254380599,
				"z": -2.2895506165,
				"element": "H" 
			},
			{
				"x": -1.0227512141,
				"y": 1.6963552193,
				"z": -0.3438905739,
				"element": "H" 
			},
			{
				"x": -1.2373927435,
				"y": 1.8615310951,
				"z": 1.3889057453,
				"element": "H" 
			},
			{
				"x": 0.2611534558,
				"y": 0.1147811418,
				"z": 1.9345889296,
				"element": "H" 
			},
			{
				"x": -0.5396505756,
				"y": -0.5101068217,
				"z": 0.5024978824,
				"element": "H" 
			}
		],
		 "valence_orbital": [ 
			{
				"type": "occ",
				"energy": -0.26685,
				"method": "rhf"
			},
			{
				"type": "occ",
				"energy": -0.2538,
				"method": "rhf"
			},
			{
				"type": "occ",
				"energy": -0.23328,
				"method": "rhf"
			},
			{
				"type": "occ",
				"energy": -0.22497,
				"method": "rhf"
			},
			{
				"type": "occ",
				"energy": -0.20328,
				"method": "rhf"
			},
			{
				"type": "unocc",
				"energy": -0.01781,
				"method": "rhf"
			},
			{
				"type": "unocc",
				"energy": 0.01255,
				"method": "rhf"
			},
			{
				"type": "unocc",
				"energy": 0.05863,
				"method": "rhf"
			},
			{
				"type": "unocc",
				"energy": 0.07188,
				"method": "rhf"
			},
			{
				"type": "unocc",
				"energy": 0.07826,
				"method": "rhf"
			}
		],
		"cosmo_sigma_profile": { 
			"-0.025": 0.0,
			"-0.024": 0.0,
			"-0.023": 0.0,
			"-0.022": 0.0,
			"-0.021": 0.0,
			"-0.02": 0.0,
			"-0.019": 0.0,
			"-0.018": 0.0,
			"-0.017": 0.0,
			"-0.016": 0.322647018338,
			"-0.015": 0.950953138399,
			"-0.014": 0.964465215904,
			"-0.013": 1.19679500641,
			"-0.012": 3.36152600331,
			"-0.011": 4.46482646282,
			"-0.01": 3.25081291938,
			"-0.009": 3.86589034984,
			"-0.008": 4.20899934845,
			"-0.007": 3.74334138492,
			"-0.006": 5.84769655366,
			"-0.005": 7.48997848094,
			"-0.004": 22.4442013832,
			"-0.003": 38.0620170905,
			"-0.002": 35.7186578551,
			"-0.001": 27.3525306462,
			"0.0": 18.6031098267,
			"0.001": 10.4273693601,
			"0.002": 10.029275891,
			"0.003": 8.77769515128,
			"0.004": 9.21160285988,
			"0.005": 12.9151135728,
			"0.006": 11.1162239592,
			"0.007": 4.85914139834,
			"0.008": 3.42240625627,
			"0.009": 3.27890723777,
			"0.01": 4.35175301484,
			"0.011": 3.81544757004,
			"0.012": 3.40048026649,
			"0.013": 4.15845545513,
			"0.014": 7.20004467559,
			"0.015": 2.62887308771,
			"0.016": 0.110107191541,
			"0.017": 0.0,
			"0.018": 0.0,
			"0.019": 0.0,
			"0.02": 0.0,
			"0.021": 0.0,
			"0.022": 0.0,
			"0.023": 0.0,
			"0.024": 0.0,
			"0.025": 0.0
		}
	}
}
