{
	 "smiles": "OC(=O)C1=CSC(CC2=CC=C(F)C=C2)=N1", 
	 "Tm": 423.15, 
	 "num_atms": 24, 
	 "gaussian": { 
		 "optdone": 1, 
		 "sigma_profile": "yes", 
		 "theory": "DFT", 
		 "functional": "B3LYP", 
		 "basiset": "6-31G**", 
		 "properties": { 
			 "R2extent": 5748.188, 
			 "electric_dipole_moment_norm": 5.03601915505, 
			 "electric_quadrupole_moment_norm": 30.8830248891, 
			 "total_energy": -1127.22304334, 
			 "HOMO_LUMO_gap": 0.19359, 
			 "cosmo_polarized_energy": -13.75, 
			 "cosmo_cavitation_energy": 31.84, 
			 "cosmo_dispersion_energy": -22.94, 
			 "cosmo_repulsion_energy": 1.73, 
			 "cosmo_total_nonelectrostatic_energy": 10.64, 
			 "SMD_solvation_energy": 5.8 
		},
		"coords": [
			{
				"x": 1.6226803695,
				"y": -4.9807187938,
				"z": 0.2807399155,
				"element": "O" 
			},
			{
				"x": 1.7634246101,
				"y": -4.2126563671,
				"z": -0.8193154426,
				"element": "C" 
			},
			{
				"x": 1.9905692884,
				"y": -4.6741490999,
				"z": -1.9136706932,
				"element": "O" 
			},
			{
				"x": 1.6129160195,
				"y": -2.7526087202,
				"z": -0.5537362137,
				"element": "C" 
			},
			{
				"x": 1.7096223466,
				"y": -1.7689577043,
				"z": -1.496484954,
				"element": "C" 
			},
			{
				"x": 1.4560040227,
				"y": -0.229513907,
				"z": -0.759845402,
				"element": "S" 
			},
			{
				"x": 1.2442041582,
				"y": -1.0297428792,
				"z": 0.7995003354,
				"element": "C" 
			},
			{
				"x": 0.9952411339,
				"y": -0.259713449,
				"z": 2.0708889335,
				"element": "C" 
			},
			{
				"x": -0.1377317951,
				"y": 0.7478713308,
				"z": 1.9855893419,
				"element": "C" 
			},
			{
				"x": 0.1139775344,
				"y": 2.1217649207,
				"z": 2.0739478784,
				"element": "C" 
			},
			{
				"x": -0.9244609468,
				"y": 3.0521360645,
				"z": 1.9981492992,
				"element": "C" 
			},
			{
				"x": -2.2224720795,
				"y": 2.5871001436,
				"z": 1.8325584206,
				"element": "C" 
			},
			{
				"x": -3.2334572166,
				"y": 3.4755981111,
				"z": 1.7595210757,
				"element": "F" 
			},
			{
				"x": -2.5111226761,
				"y": 1.2283431135,
				"z": 1.7420193856,
				"element": "C" 
			},
			{
				"x": -1.4621880633,
				"y": 0.3156052466,
				"z": 1.8191009919,
				"element": "C" 
			},
			{
				"x": 1.3497708118,
				"y": -2.3261505457,
				"z": 0.7332166259,
				"element": "N" 
			},
			{
				"x": 1.4485281411,
				"y": -4.3862475345,
				"z": 1.0343740157,
				"element": "H" 
			},
			{
				"x": 1.9011236745,
				"y": -1.8896145316,
				"z": -2.5526894518,
				"element": "H" 
			},
			{
				"x": 0.7950495697,
				"y": -1.0096877749,
				"z": 2.8431554851,
				"element": "H" 
			},
			{
				"x": 1.9190883533,
				"y": 0.2541909864,
				"z": 2.3629093089,
				"element": "H" 
			},
			{
				"x": 1.132990632,
				"y": 2.4748288246,
				"z": 2.2089914615,
				"element": "H" 
			},
			{
				"x": -0.7402278632,
				"y": 4.1186257007,
				"z": 2.0671211383,
				"element": "H" 
			},
			{
				"x": -3.5390488569,
				"y": 0.9062827573,
				"z": 1.6159035629,
				"element": "H" 
			},
			{
				"x": -1.6752811681,
				"y": -0.7477858924,
				"z": 1.7487549813,
				"element": "H" 
			}
		],
		 "valence_orbital": [ 
			{
				"type": "occ",
				"energy": -0.30895,
				"method": "rhf"
			},
			{
				"type": "occ",
				"energy": -0.27584,
				"method": "rhf"
			},
			{
				"type": "occ",
				"energy": -0.27176,
				"method": "rhf"
			},
			{
				"type": "occ",
				"energy": -0.26748,
				"method": "rhf"
			},
			{
				"type": "occ",
				"energy": -0.25211,
				"method": "rhf"
			},
			{
				"type": "unocc",
				"energy": -0.05852,
				"method": "rhf"
			},
			{
				"type": "unocc",
				"energy": -0.03035,
				"method": "rhf"
			},
			{
				"type": "unocc",
				"energy": -0.02416,
				"method": "rhf"
			},
			{
				"type": "unocc",
				"energy": -0.01113,
				"method": "rhf"
			},
			{
				"type": "unocc",
				"energy": 0.00371,
				"method": "rhf"
			}
		],
		"cosmo_sigma_profile": { 
			"-0.025": 0.0,
			"-0.024": 0.0,
			"-0.023": 0.0,
			"-0.022": 0.0,
			"-0.021": 0.0,
			"-0.02": 0.0,
			"-0.019": 0.0,
			"-0.018": 0.0,
			"-0.017": 0.0,
			"-0.016": 0.0,
			"-0.015": 0.0,
			"-0.014": 0.239815196175,
			"-0.013": 0.351503966375,
			"-0.012": 0.934988502505,
			"-0.011": 0.897000271062,
			"-0.01": 2.28534769693,
			"-0.009": 2.13747415411,
			"-0.008": 3.17860098234,
			"-0.007": 10.9941593573,
			"-0.006": 15.4329414201,
			"-0.005": 15.9951235469,
			"-0.004": 16.5250456089,
			"-0.003": 14.9453828347,
			"-0.002": 15.7336249196,
			"-0.001": 19.0227243677,
			"0.0": 23.5653086877,
			"0.001": 24.8500172819,
			"0.002": 18.3544095955,
			"0.003": 16.0943541841,
			"0.004": 19.7605405649,
			"0.005": 8.27656007185,
			"0.006": 3.59578788627,
			"0.007": 1.81094744297,
			"0.008": 2.72539603321,
			"0.009": 3.87555016636,
			"0.01": 5.27862896346,
			"0.011": 4.62426657212,
			"0.012": 4.92266834613,
			"0.013": 1.61919905043,
			"0.014": 0.0747979183849,
			"0.015": 0.0,
			"0.016": 0.0,
			"0.017": 0.0,
			"0.018": 0.0,
			"0.019": 0.0,
			"0.02": 0.0,
			"0.021": 0.0,
			"0.022": 0.0,
			"0.023": 0.0,
			"0.024": 0.0,
			"0.025": 0.0
		}
	}
}
