{
	 "smiles": "ClC(Cl)C(=O)C1=CC=C(C=C1)C(=O)C(Cl)Cl", 
	 "Tm": 416.15, 
	 "num_atms": 22, 
	 "gaussian": { 
		 "optdone": 1, 
		 "sigma_profile": "yes", 
		 "theory": "DFT", 
		 "functional": "B3LYP", 
		 "basiset": "6-31G**", 
		 "properties": { 
			 "R2extent": 8838.8253, 
			 "electric_dipole_moment_norm": 1.71682259421, 
			 "electric_quadrupole_moment_norm": 22.2632344577, 
			 "total_energy": -2375.86806472, 
			 "HOMO_LUMO_gap": 0.17191, 
			 "cosmo_polarized_energy": -15.31, 
			 "cosmo_cavitation_energy": 34.47, 
			 "cosmo_dispersion_energy": -25.07, 
			 "cosmo_repulsion_energy": 1.96, 
			 "cosmo_total_nonelectrostatic_energy": 11.37, 
			 "SMD_solvation_energy": 5.54 
		},
		"coords": [
			{
				"x": -0.846437027,
				"y": 5.1722236014,
				"z": 1.0656177479,
				"element": "Cl" 
			},
			{
				"x": -0.0693243534,
				"y": 3.5750051727,
				"z": 1.1179161438,
				"element": "C" 
			},
			{
				"x": 0.0609312257,
				"y": 2.9480583102,
				"z": 2.8120814881,
				"element": "Cl" 
			},
			{
				"x": -0.8476893712,
				"y": 2.5290218116,
				"z": 0.2779544546,
				"element": "C" 
			},
			{
				"x": -2.0083426681,
				"y": 2.7177250126,
				"z": -0.0150440858,
				"element": "O" 
			},
			{
				"x": -0.1114001004,
				"y": 1.2995142878,
				"z": -0.1633005943,
				"element": "C" 
			},
			{
				"x": -0.8197576885,
				"y": 0.3935490561,
				"z": -0.9682727798,
				"element": "C" 
			},
			{
				"x": -0.2071897471,
				"y": -0.7588546122,
				"z": -1.4449488825,
				"element": "C" 
			},
			{
				"x": 1.133385179,
				"y": -1.0308651619,
				"z": -1.1246486324,
				"element": "C" 
			},
			{
				"x": 1.8392327725,
				"y": -0.1290775799,
				"z": -0.3128087292,
				"element": "C" 
			},
			{
				"x": 1.226743653,
				"y": 1.0234650267,
				"z": 0.1636519097,
				"element": "C" 
			},
			{
				"x": 1.8875819882,
				"y": -2.2305814886,
				"z": -1.6149747046,
				"element": "C" 
			},
			{
				"x": 3.0399831976,
				"y": -2.4330134371,
				"z": -1.2994393597,
				"element": "O" 
			},
			{
				"x": 1.1485607822,
				"y": -3.2111281379,
				"z": -2.5625416672,
				"element": "C" 
			},
			{
				"x": 0.0305717991,
				"y": -4.2235596434,
				"z": -1.5598735373,
				"element": "Cl" 
			},
			{
				"x": 2.2854317875,
				"y": -4.2111594643,
				"z": -3.4926641622,
				"element": "Cl" 
			},
			{
				"x": 0.9501073229,
				"y": 3.7051615084,
				"z": 0.7599002237,
				"element": "H" 
			},
			{
				"x": -1.8536565219,
				"y": 0.614965677,
				"z": -1.207999485,
				"element": "H" 
			},
			{
				"x": -0.7889346148,
				"y": -1.4469608393,
				"z": -2.0477650178,
				"element": "H" 
			},
			{
				"x": 2.8711638058,
				"y": -0.3537602942,
				"z": -0.0676985063,
				"element": "H" 
			},
			{
				"x": 1.7946001441,
				"y": 1.6884655625,
				"z": 0.8044579939,
				"element": "H" 
			},
			{
				"x": 0.5239384348,
				"y": -2.685894368,
				"z": -3.2824998174,
				"element": "H" 
			}
		],
		 "valence_orbital": [ 
			{
				"type": "occ",
				"energy": -0.32097,
				"method": "rhf"
			},
			{
				"type": "occ",
				"energy": -0.29636,
				"method": "rhf"
			},
			{
				"type": "occ",
				"energy": -0.29184,
				"method": "rhf"
			},
			{
				"type": "occ",
				"energy": -0.29084,
				"method": "rhf"
			},
			{
				"type": "occ",
				"energy": -0.28966,
				"method": "rhf"
			},
			{
				"type": "unocc",
				"energy": -0.11775,
				"method": "rhf"
			},
			{
				"type": "unocc",
				"energy": -0.0673,
				"method": "rhf"
			},
			{
				"type": "unocc",
				"energy": -0.04314,
				"method": "rhf"
			},
			{
				"type": "unocc",
				"energy": -0.02865,
				"method": "rhf"
			},
			{
				"type": "unocc",
				"energy": -0.0162,
				"method": "rhf"
			}
		],
		"cosmo_sigma_profile": { 
			"-0.025": 0.0,
			"-0.024": 0.0,
			"-0.023": 0.0,
			"-0.022": 0.0,
			"-0.021": 0.0,
			"-0.02": 0.0,
			"-0.019": 0.0,
			"-0.018": 0.0,
			"-0.017": 0.0,
			"-0.016": 0.0,
			"-0.015": 0.0,
			"-0.014": 0.0,
			"-0.013": 1.5964989295,
			"-0.012": 6.45311049199,
			"-0.011": 4.97647276683,
			"-0.01": 3.72878486839,
			"-0.009": 3.75273666501,
			"-0.008": 5.74833314673,
			"-0.007": 8.01420935422,
			"-0.006": 7.88077458097,
			"-0.005": 6.87955341898,
			"-0.004": 7.78493078717,
			"-0.003": 14.5045521541,
			"-0.002": 19.1148519108,
			"-0.001": 22.3325671802,
			"0.0": 30.0367698117,
			"0.001": 28.2754909184,
			"0.002": 24.7775890335,
			"0.003": 29.4632918368,
			"0.004": 26.1297036741,
			"0.005": 5.7607810074,
			"0.006": 4.73200211845,
			"0.007": 3.70668257177,
			"0.008": 5.82487664922,
			"0.009": 7.00847772593,
			"0.01": 6.00099270871,
			"0.011": 1.64658893611,
			"0.012": 0.0,
			"0.013": 0.0,
			"0.014": 0.0,
			"0.015": 0.0,
			"0.016": 0.0,
			"0.017": 0.0,
			"0.018": 0.0,
			"0.019": 0.0,
			"0.02": 0.0,
			"0.021": 0.0,
			"0.022": 0.0,
			"0.023": 0.0,
			"0.024": 0.0,
			"0.025": 0.0
		}
	}
}
