{
	 "smiles": "C[Si](C)(C)C#CC1=CC=C(C=C1)C#C[Si](C)(C)C", 
	 "Tm": 393.15, 
	 "num_atms": 40, 
	 "gaussian": { 
		 "optdone": 1, 
		 "sigma_profile": "yes", 
		 "theory": "DFT", 
		 "functional": "B3LYP", 
		 "basiset": "6-31G**", 
		 "properties": { 
			 "R2extent": 14293.3798, 
			 "electric_dipole_moment_norm": 0.00203469899494, 
			 "electric_quadrupole_moment_norm": 11.8389702436, 
			 "total_energy": -1201.95735324, 
			 "HOMO_LUMO_gap": 0.16299, 
			 "cosmo_polarized_energy": -6.58, 
			 "cosmo_cavitation_energy": 48.98, 
			 "cosmo_dispersion_energy": -29.12, 
			 "cosmo_repulsion_energy": 2.61, 
			 "cosmo_total_nonelectrostatic_energy": 22.47, 
			 "SMD_solvation_energy": 12.89 
		},
		"coords": [
			{
				"x": -5.0117729018,
				"y": -4.0091803276,
				"z": -1.6298879237,
				"element": "C" 
			},
			{
				"x": -5.0293453468,
				"y": -2.7098352786,
				"z": -0.2580712383,
				"element": "Si" 
			},
			{
				"x": -6.4413439396,
				"y": -1.4861646015,
				"z": -0.5388603672,
				"element": "C" 
			},
			{
				"x": -5.2109612754,
				"y": -3.5427612695,
				"z": 1.4278351691,
				"element": "C" 
			},
			{
				"x": -3.4347368255,
				"y": -1.7904415517,
				"z": -0.2923484553,
				"element": "C" 
			},
			{
				"x": -2.3766314935,
				"y": -1.1800434266,
				"z": -0.3155062838,
				"element": "C" 
			},
			{
				"x": -1.141864573,
				"y": -0.4676570228,
				"z": -0.3419623116,
				"element": "C" 
			},
			{
				"x": -0.8551190086,
				"y": 0.4358845782,
				"z": -1.3856156092,
				"element": "C" 
			},
			{
				"x": 0.3467044643,
				"y": 1.1294630257,
				"z": -1.4112996553,
				"element": "C" 
			},
			{
				"x": 1.3055206146,
				"y": 0.9447239646,
				"z": -0.3942620337,
				"element": "C" 
			},
			{
				"x": 1.0188105922,
				"y": 0.0411233951,
				"z": 0.6493600999,
				"element": "C" 
			},
			{
				"x": -0.1830186964,
				"y": -0.6524538045,
				"z": 0.6750479556,
				"element": "C" 
			},
			{
				"x": 2.5401335395,
				"y": 1.6573848566,
				"z": -0.4205928664,
				"element": "C" 
			},
			{
				"x": 3.5981816776,
				"y": 2.2678985461,
				"z": -0.4433120007,
				"element": "C" 
			},
			{
				"x": 5.1915628764,
				"y": 3.1894313032,
				"z": -0.4770459736,
				"element": "Si" 
			},
			{
				"x": 5.7450953069,
				"y": 3.3768619566,
				"z": -2.2737261827,
				"element": "C" 
			},
			{
				"x": 6.4764221707,
				"y": 2.2130211792,
				"z": 0.5053111784,
				"element": "C" 
			},
			{
				"x": 4.9276191587,
				"y": 4.8897218153,
				"z": 0.3039492676,
				"element": "C" 
			},
			{
				"x": -4.1915782106,
				"y": -4.721186136,
				"z": -1.4926153044,
				"element": "H" 
			},
			{
				"x": -5.9501342965,
				"y": -4.575675002,
				"z": -1.6388357184,
				"element": "H" 
			},
			{
				"x": -4.8907134417,
				"y": -3.5460783221,
				"z": -2.6145136545,
				"element": "H" 
			},
			{
				"x": -6.343990221,
				"y": -0.9819445781,
				"z": -1.505789233,
				"element": "H" 
			},
			{
				"x": -6.4607840185,
				"y": -0.7161283063,
				"z": 0.2390703073,
				"element": "H" 
			},
			{
				"x": -7.4087997807,
				"y": -2.0012455864,
				"z": -0.5255178105,
				"element": "H" 
			},
			{
				"x": -5.2096602049,
				"y": -2.8059032635,
				"z": 2.2375573236,
				"element": "H" 
			},
			{
				"x": -4.3926352355,
				"y": -4.2458672172,
				"z": 1.6140190571,
				"element": "H" 
			},
			{
				"x": -6.1521203966,
				"y": -4.1016253035,
				"z": 1.4847691869,
				"element": "H" 
			},
			{
				"x": -1.5873845517,
				"y": 0.584236692,
				"z": -2.1724253798,
				"element": "H" 
			},
			{
				"x": 0.5591181118,
				"y": 1.8229150326,
				"z": -2.2183291961,
				"element": "H" 
			},
			{
				"x": 1.7510818354,
				"y": -0.1072344973,
				"z": 1.4361659456,
				"element": "H" 
			},
			{
				"x": -0.3954335903,
				"y": -1.3459046576,
				"z": 1.4820819722,
				"element": "H" 
			},
			{
				"x": 6.6936979134,
				"y": 3.9229138385,
				"z": -2.3320232954,
				"element": "H" 
			},
			{
				"x": 5.0048308324,
				"y": 3.9285766149,
				"z": -2.8622095827,
				"element": "H" 
			},
			{
				"x": 5.8902514053,
				"y": 2.4013503244,
				"z": -2.7489556878,
				"element": "H" 
			},
			{
				"x": 7.4408960594,
				"y": 2.7337572589,
				"z": 0.5068349907,
				"element": "H" 
			},
			{
				"x": 6.6335046472,
				"y": 1.2183136126,
				"z": 0.0758323681,
				"element": "H" 
			},
			{
				"x": 6.1652514429,
				"y": 2.0822858141,
				"z": 1.5468337853,
				"element": "H" 
			},
			{
				"x": 4.1746548446,
				"y": 5.4659804557,
				"z": -0.2433559414,
				"element": "H" 
			},
			{
				"x": 4.5916013502,
				"y": 4.8024956604,
				"z": 1.3422286952,
				"element": "H" 
			},
			{
				"x": 5.8596891651,
				"y": 5.466590228,
				"z": 0.3001644028,
				"element": "H" 
			}
		],
		 "valence_orbital": [ 
			{
				"type": "occ",
				"energy": -0.26663,
				"method": "rhf"
			},
			{
				"type": "occ",
				"energy": -0.26305,
				"method": "rhf"
			},
			{
				"type": "occ",
				"energy": -0.26196,
				"method": "rhf"
			},
			{
				"type": "occ",
				"energy": -0.26077,
				"method": "rhf"
			},
			{
				"type": "occ",
				"energy": -0.21709,
				"method": "rhf"
			},
			{
				"type": "unocc",
				"energy": -0.0541,
				"method": "rhf"
			},
			{
				"type": "unocc",
				"energy": -0.00869,
				"method": "rhf"
			},
			{
				"type": "unocc",
				"energy": 0.02113,
				"method": "rhf"
			},
			{
				"type": "unocc",
				"energy": 0.02753,
				"method": "rhf"
			},
			{
				"type": "unocc",
				"energy": 0.03045,
				"method": "rhf"
			}
		],
		"cosmo_sigma_profile": { 
			"-0.025": 0.0,
			"-0.024": 0.0,
			"-0.023": 0.0,
			"-0.022": 0.0,
			"-0.021": 0.0,
			"-0.02": 0.0,
			"-0.019": 0.0,
			"-0.018": 0.0,
			"-0.017": 0.0,
			"-0.016": 0.0,
			"-0.015": 0.0,
			"-0.014": 0.0,
			"-0.013": 0.0,
			"-0.012": 0.0,
			"-0.011": 0.0,
			"-0.01": 0.0,
			"-0.009": 0.0,
			"-0.008": 0.0,
			"-0.007": 4.37003848244,
			"-0.006": 7.92870066491,
			"-0.005": 7.76139702335,
			"-0.004": 23.5895760329,
			"-0.003": 43.4459184013,
			"-0.002": 42.9700167031,
			"-0.001": 41.091825653,
			"0.0": 38.4367521035,
			"0.001": 56.4613251714,
			"0.002": 39.0747443674,
			"0.003": 31.9717463094,
			"0.004": 11.7904121933,
			"0.005": 12.2089364339,
			"0.006": 13.8088950828,
			"0.007": 6.5865622943,
			"0.008": 0.0,
			"0.009": 0.0,
			"0.01": 0.0,
			"0.011": 0.0,
			"0.012": 0.0,
			"0.013": 0.0,
			"0.014": 0.0,
			"0.015": 0.0,
			"0.016": 0.0,
			"0.017": 0.0,
			"0.018": 0.0,
			"0.019": 0.0,
			"0.02": 0.0,
			"0.021": 0.0,
			"0.022": 0.0,
			"0.023": 0.0,
			"0.024": 0.0,
			"0.025": 0.0
		}
	}
}
