{
	 "smiles": "C[Si](C)(C)N=C=S", 
	 "Tm": 240.35, 
	 "num_atms": 16, 
	 "gaussian": { 
		 "optdone": 1, 
		 "sigma_profile": "yes", 
		 "theory": "DFT", 
		 "functional": "B3LYP", 
		 "basiset": "6-31G**", 
		 "properties": { 
			 "R2extent": 1982.8718, 
			 "electric_dipole_moment_norm": 3.98311905295, 
			 "electric_quadrupole_moment_norm": 9.89555091847, 
			 "total_energy": -900.364718015, 
			 "HOMO_LUMO_gap": 0.24429, 
			 "cosmo_polarized_energy": -4.44, 
			 "cosmo_cavitation_energy": 23.75, 
			 "cosmo_dispersion_energy": -15.0, 
			 "cosmo_repulsion_energy": 1.38, 
			 "cosmo_total_nonelectrostatic_energy": 10.13, 
			 "SMD_solvation_energy": 6.66 
		},
		"coords": [
			{
				"x": -0.7410935215,
				"y": 0.6223658101,
				"z": 1.4026884658,
				"element": "C" 
			},
			{
				"x": -0.2111214576,
				"y": 0.0724863879,
				"z": -0.3150353759,
				"element": "Si" 
			},
			{
				"x": 0.052588985,
				"y": -1.7868995929,
				"z": -0.3982610052,
				"element": "C" 
			},
			{
				"x": -1.4128765777,
				"y": 0.6628189402,
				"z": -1.6345474076,
				"element": "C" 
			},
			{
				"x": 1.3357550114,
				"y": 0.830187529,
				"z": -0.6468596537,
				"element": "N" 
			},
			{
				"x": 2.3882828793,
				"y": 1.345743604,
				"z": -0.8726399917,
				"element": "C" 
			},
			{
				"x": 3.792264683,
				"y": 2.033819774,
				"z": -1.1740764341,
				"element": "S" 
			},
			{
				"x": -0.0153263788,
				"y": 0.3124760998,
				"z": 2.1612692668,
				"element": "H" 
			},
			{
				"x": -0.8420689903,
				"y": 1.710902732,
				"z": 1.4584332259,
				"element": "H" 
			},
			{
				"x": -1.7097075722,
				"y": 0.1821971348,
				"z": 1.6661718954,
				"element": "H" 
			},
			{
				"x": 0.7860081546,
				"y": -2.1183761894,
				"z": 0.3436457087,
				"element": "H" 
			},
			{
				"x": 0.4106642079,
				"y": -2.0941103679,
				"z": -1.3859953404,
				"element": "H" 
			},
			{
				"x": -0.8859199822,
				"y": -2.3180322006,
				"z": -0.202096157,
				"element": "H" 
			},
			{
				"x": -1.0737032343,
				"y": 0.3807692559,
				"z": -2.6363636304,
				"element": "H" 
			},
			{
				"x": -2.4033631776,
				"y": 0.2199700578,
				"z": -1.4791131495,
				"element": "H" 
			},
			{
				"x": -1.5256830288,
				"y": 1.7513810253,
				"z": -1.611620417,
				"element": "H" 
			}
		],
		 "valence_orbital": [ 
			{
				"type": "occ",
				"energy": -0.39104,
				"method": "rhf"
			},
			{
				"type": "occ",
				"energy": -0.31972,
				"method": "rhf"
			},
			{
				"type": "occ",
				"energy": -0.31972,
				"method": "rhf"
			},
			{
				"type": "occ",
				"energy": -0.24677,
				"method": "rhf"
			},
			{
				"type": "occ",
				"energy": -0.24677,
				"method": "rhf"
			},
			{
				"type": "unocc",
				"energy": -0.00248,
				"method": "rhf"
			},
			{
				"type": "unocc",
				"energy": -0.00246,
				"method": "rhf"
			},
			{
				"type": "unocc",
				"energy": 0.06115,
				"method": "rhf"
			},
			{
				"type": "unocc",
				"energy": 0.07396,
				"method": "rhf"
			},
			{
				"type": "unocc",
				"energy": 0.10069,
				"method": "rhf"
			}
		],
		"cosmo_sigma_profile": { 
			"-0.025": 0.0,
			"-0.024": 0.0,
			"-0.023": 0.0,
			"-0.022": 0.0,
			"-0.021": 0.0,
			"-0.02": 0.0,
			"-0.019": 0.0,
			"-0.018": 0.0,
			"-0.017": 0.0,
			"-0.016": 0.0,
			"-0.015": 0.0,
			"-0.014": 0.0,
			"-0.013": 0.0,
			"-0.012": 0.0,
			"-0.011": 0.0,
			"-0.01": 0.0,
			"-0.009": 0.0,
			"-0.008": 0.0,
			"-0.007": 0.0,
			"-0.006": 0.0,
			"-0.005": 6.12278477625,
			"-0.004": 20.9944263517,
			"-0.003": 18.5404840698,
			"-0.002": 18.5746156671,
			"-0.001": 17.509569813,
			"0.0": 32.2332061469,
			"0.001": 28.067975921,
			"0.002": 10.4004105292,
			"0.003": 6.354963121,
			"0.004": 5.60362524203,
			"0.005": 7.72137025368,
			"0.006": 13.4106076343,
			"0.007": 2.22393698994,
			"0.008": 0.0,
			"0.009": 0.0,
			"0.01": 0.0,
			"0.011": 0.0,
			"0.012": 0.0,
			"0.013": 0.0,
			"0.014": 0.0,
			"0.015": 0.0,
			"0.016": 0.0,
			"0.017": 0.0,
			"0.018": 0.0,
			"0.019": 0.0,
			"0.02": 0.0,
			"0.021": 0.0,
			"0.022": 0.0,
			"0.023": 0.0,
			"0.024": 0.0,
			"0.025": 0.0
		}
	}
}
