{
	 "smiles": "CN(C)S(=O)(=O)C1=CC2=C(NC(CO)=N2)C=C1", 
	 "Tm": 506.15, 
	 "num_atms": 30, 
	 "gaussian": { 
		 "optdone": 1, 
		 "sigma_profile": "yes", 
		 "theory": "DFT", 
		 "functional": "B3LYP", 
		 "basiset": "6-31G**", 
		 "properties": { 
			 "R2extent": 5980.7762, 
			 "electric_dipole_moment_norm": 6.99754120674, 
			 "electric_quadrupole_moment_norm": 28.0676185773, 
			 "total_energy": -1176.94268435, 
			 "HOMO_LUMO_gap": 0.20235, 
			 "cosmo_polarized_energy": -24.64, 
			 "cosmo_cavitation_energy": 34.71, 
			 "cosmo_dispersion_energy": -25.52, 
			 "cosmo_repulsion_energy": 1.93, 
			 "cosmo_total_nonelectrostatic_energy": 11.12, 
			 "SMD_solvation_energy": 2.09 
		},
		"coords": [
			{
				"x": -2.5537544506,
				"y": 0.0611101143,
				"z": -2.3708544356,
				"element": "C" 
			},
			{
				"x": -3.0778220207,
				"y": 0.713019248,
				"z": -1.1691982454,
				"element": "N" 
			},
			{
				"x": -3.5881640713,
				"y": -0.2006848551,
				"z": -0.1457047397,
				"element": "C" 
			},
			{
				"x": -2.1978083856,
				"y": 2.0464283987,
				"z": -0.6045672742,
				"element": "S" 
			},
			{
				"x": -2.9584777184,
				"y": 2.5817919583,
				"z": 0.527557039,
				"element": "O" 
			},
			{
				"x": -1.8883572295,
				"y": 2.8548307729,
				"z": -1.7857400227,
				"element": "O" 
			},
			{
				"x": -0.6453321185,
				"y": 1.4120092378,
				"z": 0.0411197562,
				"element": "C" 
			},
			{
				"x": 0.4385783905,
				"y": 1.2782404416,
				"z": -0.8256204869,
				"element": "C" 
			},
			{
				"x": 1.6167505782,
				"y": 0.7408378523,
				"z": -0.2993918663,
				"element": "C" 
			},
			{
				"x": 1.6730413944,
				"y": 0.3618592793,
				"z": 1.0681256824,
				"element": "C" 
			},
			{
				"x": 2.958516624,
				"y": -0.1083680804,
				"z": 1.2397617249,
				"element": "N" 
			},
			{
				"x": 3.5984702287,
				"y": 0.0095215201,
				"z": 0.0241234836,
				"element": "C" 
			},
			{
				"x": 5.0185280247,
				"y": -0.4581320378,
				"z": -0.1239243671,
				"element": "C" 
			},
			{
				"x": 5.7324490253,
				"y": -0.3624163165,
				"z": 1.1040718252,
				"element": "O" 
			},
			{
				"x": 2.8391730954,
				"y": 0.5116135988,
				"z": -0.9176953736,
				"element": "N" 
			},
			{
				"x": 0.5884900363,
				"y": 0.5093660427,
				"z": 1.9359219436,
				"element": "C" 
			},
			{
				"x": -0.580503604,
				"y": 1.0395918734,
				"z": 1.4006514787,
				"element": "C" 
			},
			{
				"x": -3.3534069628,
				"y": -0.5498074798,
				"z": -2.8000884025,
				"element": "H" 
			},
			{
				"x": -2.2694862258,
				"y": 0.8205403229,
				"z": -3.0986860248,
				"element": "H" 
			},
			{
				"x": -1.6908021889,
				"y": -0.5903584937,
				"z": -2.1617819692,
				"element": "H" 
			},
			{
				"x": -2.8135820427,
				"y": -0.8770732703,
				"z": 0.2486972603,
				"element": "H" 
			},
			{
				"x": -4.0192333536,
				"y": 0.3771957096,
				"z": 0.6714072795,
				"element": "H" 
			},
			{
				"x": -4.3790100342,
				"y": -0.8068133177,
				"z": -0.5975179182,
				"element": "H" 
			},
			{
				"x": 0.3794689331,
				"y": 1.6050383287,
				"z": -1.8571090655,
				"element": "H" 
			},
			{
				"x": 3.4055518766,
				"y": -0.4349540335,
				"z": 2.0834748275,
				"element": "H" 
			},
			{
				"x": 5.4900193427,
				"y": 0.0953740676,
				"z": -0.9446142893,
				"element": "H" 
			},
			{
				"x": 5.0338677125,
				"y": -1.5201438583,
				"z": -0.3948830194,
				"element": "H" 
			},
			{
				"x": 5.9292425473,
				"y": 0.5707860228,
				"z": 1.26073047,
				"element": "H" 
			},
			{
				"x": 0.6477649769,
				"y": 0.2336978081,
				"z": 2.9841051284,
				"element": "H" 
			},
			{
				"x": -1.4469723798,
				"y": 1.2035991452,
				"z": 2.030729601,
				"element": "H" 
			}
		],
		 "valence_orbital": [ 
			{
				"type": "occ",
				"energy": -0.2918,
				"method": "rhf"
			},
			{
				"type": "occ",
				"energy": -0.28677,
				"method": "rhf"
			},
			{
				"type": "occ",
				"energy": -0.26151,
				"method": "rhf"
			},
			{
				"type": "occ",
				"energy": -0.24262,
				"method": "rhf"
			},
			{
				"type": "occ",
				"energy": -0.24011,
				"method": "rhf"
			},
			{
				"type": "unocc",
				"energy": -0.03776,
				"method": "rhf"
			},
			{
				"type": "unocc",
				"energy": -0.01518,
				"method": "rhf"
			},
			{
				"type": "unocc",
				"energy": 0.02904,
				"method": "rhf"
			},
			{
				"type": "unocc",
				"energy": 0.05315,
				"method": "rhf"
			},
			{
				"type": "unocc",
				"energy": 0.06886,
				"method": "rhf"
			}
		],
		"cosmo_sigma_profile": { 
			"-0.025": 0.0,
			"-0.024": 0.0,
			"-0.023": 0.0,
			"-0.022": 0.0,
			"-0.021": 0.0,
			"-0.02": 0.0,
			"-0.019": 0.0,
			"-0.018": 0.0,
			"-0.017": 0.521651355893,
			"-0.016": 1.83989866883,
			"-0.015": 2.20176812,
			"-0.014": 2.26945896684,
			"-0.013": 1.51837532585,
			"-0.012": 1.99957264683,
			"-0.011": 1.5220558322,
			"-0.01": 2.43878289533,
			"-0.009": 2.04609235615,
			"-0.008": 4.25082294486,
			"-0.007": 8.48644347239,
			"-0.006": 15.6940821931,
			"-0.005": 17.1064407644,
			"-0.004": 22.4154713089,
			"-0.003": 26.1341982304,
			"-0.002": 26.3200243892,
			"-0.001": 10.4835697534,
			"0.0": 13.5813029146,
			"0.001": 12.6109046407,
			"0.002": 16.7391925543,
			"0.003": 13.9628533006,
			"0.004": 6.7584463732,
			"0.005": 6.46659254612,
			"0.006": 6.88785418143,
			"0.007": 6.72296522195,
			"0.008": 5.80635490914,
			"0.009": 6.27531354285,
			"0.01": 8.79900697922,
			"0.011": 10.000812171,
			"0.012": 7.44236877841,
			"0.013": 2.43115196094,
			"0.014": 1.1495403249,
			"0.015": 0.914027111657,
			"0.016": 1.00704307982,
			"0.017": 0.396717445528,
			"0.018": 0.0,
			"0.019": 0.0,
			"0.02": 0.0,
			"0.021": 0.0,
			"0.022": 0.0,
			"0.023": 0.0,
			"0.024": 0.0,
			"0.025": 0.0
		}
	}
}
