{
	 "smiles": "OC1=C(F)C(Cl)=CC=C1", 
	 "Tm": 309.15, 
	 "num_atms": 13, 
	 "gaussian": { 
		 "optdone": 1, 
		 "sigma_profile": "yes", 
		 "theory": "DFT", 
		 "functional": "B3LYP", 
		 "basiset": "6-31G**", 
		 "properties": { 
			 "R2extent": 2009.6925, 
			 "electric_dipole_moment_norm": 1.20022778671, 
			 "electric_quadrupole_moment_norm": 8.75038132141, 
			 "total_energy": -866.290141313, 
			 "HOMO_LUMO_gap": 0.22016, 
			 "cosmo_polarized_energy": -5.93, 
			 "cosmo_cavitation_energy": 19.48, 
			 "cosmo_dispersion_energy": -14.82, 
			 "cosmo_repulsion_energy": 1.2, 
			 "cosmo_total_nonelectrostatic_energy": 5.86, 
			 "SMD_solvation_energy": 3.93 
		},
		"coords": [
			{
				"x": -0.2436011843,
				"y": 2.1184445793,
				"z": 0.5577254862,
				"element": "O" 
			},
			{
				"x": -0.9475691957,
				"y": 0.9657112274,
				"z": 0.7077846977,
				"element": "C" 
			},
			{
				"x": -0.3576541271,
				"y": -0.157789404,
				"z": 1.2963269973,
				"element": "C" 
			},
			{
				"x": 0.9293658076,
				"y": -0.0362658942,
				"z": 1.7009139474,
				"element": "F" 
			},
			{
				"x": -1.0612074695,
				"y": -1.3453215359,
				"z": 1.4584013334,
				"element": "C" 
			},
			{
				"x": -0.2677031008,
				"y": -2.7126016106,
				"z": 2.2008418896,
				"element": "Cl" 
			},
			{
				"x": -2.386734217,
				"y": -1.4261102464,
				"z": 1.0265815469,
				"element": "C" 
			},
			{
				"x": -2.9783426547,
				"y": -0.3069023005,
				"z": 0.4389370035,
				"element": "C" 
			},
			{
				"x": -2.2724208735,
				"y": 0.8851896893,
				"z": 0.2761065063,
				"element": "C" 
			},
			{
				"x": 0.6457650163,
				"y": 1.9775388848,
				"z": 0.9141483592,
				"element": "H" 
			},
			{
				"x": -2.9336542238,
				"y": -2.3528520875,
				"z": 1.1538197077,
				"element": "H" 
			},
			{
				"x": -4.0084573142,
				"y": -0.3669047715,
				"z": 0.1023951203,
				"element": "H" 
			},
			{
				"x": -2.7244864631,
				"y": 1.7592634699,
				"z": -0.1793825956,
				"element": "H" 
			}
		],
		 "valence_orbital": [ 
			{
				"type": "occ",
				"energy": -0.36571,
				"method": "rhf"
			},
			{
				"type": "occ",
				"energy": -0.32583,
				"method": "rhf"
			},
			{
				"type": "occ",
				"energy": -0.32006,
				"method": "rhf"
			},
			{
				"type": "occ",
				"energy": -0.25282,
				"method": "rhf"
			},
			{
				"type": "occ",
				"energy": -0.23693,
				"method": "rhf"
			},
			{
				"type": "unocc",
				"energy": -0.01677,
				"method": "rhf"
			},
			{
				"type": "unocc",
				"energy": -0.0049,
				"method": "rhf"
			},
			{
				"type": "unocc",
				"energy": 0.01538,
				"method": "rhf"
			},
			{
				"type": "unocc",
				"energy": 0.07212,
				"method": "rhf"
			},
			{
				"type": "unocc",
				"energy": 0.11028,
				"method": "rhf"
			}
		],
		"cosmo_sigma_profile": { 
			"-0.025": 0.0,
			"-0.024": 0.0,
			"-0.023": 0.0,
			"-0.022": 0.0,
			"-0.021": 0.0,
			"-0.02": 0.0,
			"-0.019": 0.0,
			"-0.018": 0.0,
			"-0.017": 0.335104515203,
			"-0.016": 0.64125567285,
			"-0.015": 1.29487406532,
			"-0.014": 0.118314120628,
			"-0.013": 0.288326781784,
			"-0.012": 0.701799188303,
			"-0.011": 1.53808406403,
			"-0.01": 1.08697153724,
			"-0.009": 0.920470484915,
			"-0.008": 1.27455520141,
			"-0.007": 5.99623563441,
			"-0.006": 7.07326342572,
			"-0.005": 7.17162737194,
			"-0.004": 6.27584527081,
			"-0.003": 6.56189111564,
			"-0.002": 6.96258018147,
			"-0.001": 11.1299849957,
			"0.0": 12.9777370399,
			"0.001": 17.0460208335,
			"0.002": 16.8861020361,
			"0.003": 20.076543395,
			"0.004": 19.450228006,
			"0.005": 4.87688365424,
			"0.006": 1.32791079071,
			"0.007": 1.37652881544,
			"0.008": 1.5220410372,
			"0.009": 1.32372081429,
			"0.01": 2.05001921726,
			"0.011": 0.704768557042,
			"0.012": 0.0,
			"0.013": 0.0,
			"0.014": 0.0,
			"0.015": 0.0,
			"0.016": 0.0,
			"0.017": 0.0,
			"0.018": 0.0,
			"0.019": 0.0,
			"0.02": 0.0,
			"0.021": 0.0,
			"0.022": 0.0,
			"0.023": 0.0,
			"0.024": 0.0,
			"0.025": 0.0
		}
	}
}
