{
	 "smiles": "COC(=O)C1(C)CCC(CCC2=CC=CC=C2)C1(C)C", 
	 "Tm": 317.15, 
	 "num_atms": 46, 
	 "gaussian": { 
		 "optdone": 1, 
		 "sigma_profile": "yes", 
		 "theory": "DFT", 
		 "functional": "B3LYP", 
		 "basiset": "6-31G**", 
		 "properties": { 
			 "R2extent": 7557.9618, 
			 "electric_dipole_moment_norm": 1.44967360809, 
			 "electric_quadrupole_moment_norm": 13.0572603038, 
			 "total_energy": -852.056092331, 
			 "HOMO_LUMO_gap": 0.23923, 
			 "cosmo_polarized_energy": -8.69, 
			 "cosmo_cavitation_energy": 44.3, 
			 "cosmo_dispersion_energy": -29.52, 
			 "cosmo_repulsion_energy": 2.24, 
			 "cosmo_total_nonelectrostatic_energy": 17.02, 
			 "SMD_solvation_energy": 8.07 
		},
		"coords": [
			{
				"x": -2.4003029323,
				"y": 3.5301182239,
				"z": -0.1203076218,
				"element": "C" 
			},
			{
				"x": -1.2691433531,
				"y": 2.9363099403,
				"z": 0.5387851011,
				"element": "O" 
			},
			{
				"x": -0.0592830371,
				"y": 3.4241751068,
				"z": 0.1661015554,
				"element": "C" 
			},
			{
				"x": 0.0453424964,
				"y": 4.299400844,
				"z": -0.6678787108,
				"element": "O" 
			},
			{
				"x": 1.1210775152,
				"y": 2.7602572085,
				"z": 0.894012438,
				"element": "C" 
			},
			{
				"x": 2.3546567375,
				"y": 3.6247428629,
				"z": 0.581099994,
				"element": "C" 
			},
			{
				"x": 0.8613296653,
				"y": 2.6771644453,
				"z": 2.4204096731,
				"element": "C" 
			},
			{
				"x": 0.0146637061,
				"y": 1.421318024,
				"z": 2.644785942,
				"element": "C" 
			},
			{
				"x": 0.4455747711,
				"y": 0.4035658561,
				"z": 1.5545473164,
				"element": "C" 
			},
			{
				"x": -0.7508946738,
				"y": -0.4577062291,
				"z": 1.1015219069,
				"element": "C" 
			},
			{
				"x": -0.389568099,
				"y": -1.8237478008,
				"z": 0.4787724227,
				"element": "C" 
			},
			{
				"x": -1.6129986599,
				"y": -2.6426261923,
				"z": 0.1244844389,
				"element": "C" 
			},
			{
				"x": -2.2077764736,
				"y": -3.4922897925,
				"z": 1.0677229395,
				"element": "C" 
			},
			{
				"x": -3.358003845,
				"y": -4.2189966176,
				"z": 0.7570654632,
				"element": "C" 
			},
			{
				"x": -3.9362638673,
				"y": -4.1081689315,
				"z": -0.5088733322,
				"element": "C" 
			},
			{
				"x": -3.3543110708,
				"y": -3.2670284613,
				"z": -1.4591328297,
				"element": "C" 
			},
			{
				"x": -2.2040107998,
				"y": -2.5427413589,
				"z": -1.14281077,
				"element": "C" 
			},
			{
				"x": 1.2593886524,
				"y": 1.2253976654,
				"z": 0.4587202775,
				"element": "C" 
			},
			{
				"x": 2.7348922411,
				"y": 0.7729354666,
				"z": 0.5465226404,
				"element": "C" 
			},
			{
				"x": 0.8150803272,
				"y": 1.0251605328,
				"z": -1.0035190622,
				"element": "C" 
			},
			{
				"x": -2.3406937368,
				"y": 3.3781923691,
				"z": -1.2008774259,
				"element": "H" 
			},
			{
				"x": -3.2763453414,
				"y": 3.0279647304,
				"z": 0.2902062647,
				"element": "H" 
			},
			{
				"x": -2.4425006019,
				"y": 4.6034679191,
				"z": 0.0799210851,
				"element": "H" 
			},
			{
				"x": 2.5853421985,
				"y": 3.6342405976,
				"z": -0.4870466699,
				"element": "H" 
			},
			{
				"x": 3.2296317751,
				"y": 3.2690367681,
				"z": 1.1285263672,
				"element": "H" 
			},
			{
				"x": 2.1697408964,
				"y": 4.6616717739,
				"z": 0.8744096154,
				"element": "H" 
			},
			{
				"x": 0.3953654465,
				"y": 3.5857471269,
				"z": 2.8166891686,
				"element": "H" 
			},
			{
				"x": 1.8325282718,
				"y": 2.577777225,
				"z": 2.920059329,
				"element": "H" 
			},
			{
				"x": -1.0441795886,
				"y": 1.6620979917,
				"z": 2.5289960916,
				"element": "H" 
			},
			{
				"x": 0.1455295208,
				"y": 1.0100226738,
				"z": 3.6517667404,
				"element": "H" 
			},
			{
				"x": 1.1642792034,
				"y": -0.2881607368,
				"z": 2.0132451226,
				"element": "H" 
			},
			{
				"x": -1.3949552482,
				"y": 0.1076427102,
				"z": 0.4192538709,
				"element": "H" 
			},
			{
				"x": -1.3687823312,
				"y": -0.657588962,
				"z": 1.9870276863,
				"element": "H" 
			},
			{
				"x": 0.2296962452,
				"y": -2.3803880232,
				"z": 1.1942239747,
				"element": "H" 
			},
			{
				"x": 0.2238302578,
				"y": -1.6835067873,
				"z": -0.41706444,
				"element": "H" 
			},
			{
				"x": -1.7601539151,
				"y": -3.5884768895,
				"z": 2.0544972298,
				"element": "H" 
			},
			{
				"x": -3.7996844679,
				"y": -4.8754608765,
				"z": 1.501908123,
				"element": "H" 
			},
			{
				"x": -4.8293944402,
				"y": -4.6757732394,
				"z": -0.7541543491,
				"element": "H" 
			},
			{
				"x": -3.7932195261,
				"y": -3.1780992724,
				"z": -2.4492329815,
				"element": "H" 
			},
			{
				"x": -1.7537540247,
				"y": -1.893580453,
				"z": -1.890480444,
				"element": "H" 
			},
			{
				"x": 2.7947755941,
				"y": -0.301857994,
				"z": 0.34351589,
				"element": "H" 
			},
			{
				"x": 3.1609242134,
				"y": 0.9397104568,
				"z": 1.541566628,
				"element": "H" 
			},
			{
				"x": 3.3694419242,
				"y": 1.2815882551,
				"z": -0.1851436763,
				"element": "H" 
			},
			{
				"x": 1.0668860321,
				"y": 0.0229592433,
				"z": -1.3614505802,
				"element": "H" 
			},
			{
				"x": -0.2582636485,
				"y": 1.1711474374,
				"z": -1.1454215811,
				"element": "H" 
			},
			{
				"x": 1.333305991,
				"y": 1.737685163,
				"z": -1.6543708218,
				"element": "H" 
			}
		],
		 "valence_orbital": [ 
			{
				"type": "occ",
				"energy": -0.2995,
				"method": "rhf"
			},
			{
				"type": "occ",
				"energy": -0.29314,
				"method": "rhf"
			},
			{
				"type": "occ",
				"energy": -0.26197,
				"method": "rhf"
			},
			{
				"type": "occ",
				"energy": -0.24471,
				"method": "rhf"
			},
			{
				"type": "occ",
				"energy": -0.23576,
				"method": "rhf"
			},
			{
				"type": "unocc",
				"energy": 0.00347,
				"method": "rhf"
			},
			{
				"type": "unocc",
				"energy": 0.00416,
				"method": "rhf"
			},
			{
				"type": "unocc",
				"energy": 0.01381,
				"method": "rhf"
			},
			{
				"type": "unocc",
				"energy": 0.07225,
				"method": "rhf"
			},
			{
				"type": "unocc",
				"energy": 0.09202,
				"method": "rhf"
			}
		],
		"cosmo_sigma_profile": { 
			"-0.025": 0.0,
			"-0.024": 0.0,
			"-0.023": 0.0,
			"-0.022": 0.0,
			"-0.021": 0.0,
			"-0.02": 0.0,
			"-0.019": 0.0,
			"-0.018": 0.0,
			"-0.017": 0.0,
			"-0.016": 0.0,
			"-0.015": 0.0,
			"-0.014": 0.0,
			"-0.013": 0.0,
			"-0.012": 0.0,
			"-0.011": 0.0,
			"-0.01": 0.0,
			"-0.009": 0.0,
			"-0.008": 0.0,
			"-0.007": 0.156361722652,
			"-0.006": 3.74621384665,
			"-0.005": 14.0506637492,
			"-0.004": 23.1632671894,
			"-0.003": 43.940716243,
			"-0.002": 48.9634859717,
			"-0.001": 47.4662943303,
			"0.0": 41.2880627606,
			"0.001": 34.6893539587,
			"0.002": 22.0380674905,
			"0.003": 12.7248433949,
			"0.004": 11.7902946439,
			"0.005": 11.0104634299,
			"0.006": 9.42678774579,
			"0.007": 6.93429722597,
			"0.008": 1.42202689028,
			"0.009": 1.76769131308,
			"0.01": 1.30576032477,
			"0.011": 2.25464108075,
			"0.012": 4.19250881971,
			"0.013": 1.94138270722,
			"0.014": 0.0,
			"0.015": 0.0,
			"0.016": 0.0,
			"0.017": 0.0,
			"0.018": 0.0,
			"0.019": 0.0,
			"0.02": 0.0,
			"0.021": 0.0,
			"0.022": 0.0,
			"0.023": 0.0,
			"0.024": 0.0,
			"0.025": 0.0
		}
	}
}
