{
	 "smiles": "CCOC1=CC=C(C=C1)N1CC(CC1=O)C(O)=O", 
	 "Tm": 408.15, 
	 "num_atms": 33, 
	 "gaussian": { 
		 "optdone": 1, 
		 "sigma_profile": "yes", 
		 "theory": "DFT", 
		 "functional": "B3LYP", 
		 "basiset": "6-31G**", 
		 "properties": { 
			 "R2extent": 7289.9402, 
			 "electric_dipole_moment_norm": 2.70508915934, 
			 "electric_quadrupole_moment_norm": 18.7824615381, 
			 "total_energy": -860.087959136, 
			 "HOMO_LUMO_gap": 0.19196, 
			 "cosmo_polarized_energy": -22.36, 
			 "cosmo_cavitation_energy": 36.2, 
			 "cosmo_dispersion_energy": -26.43, 
			 "cosmo_repulsion_energy": 2.04, 
			 "cosmo_total_nonelectrostatic_energy": 11.82, 
			 "SMD_solvation_energy": 7.6 
		},
		"coords": [
			{
				"x": 4.6516325904,
				"y": 2.6593573377,
				"z": -2.3835465488,
				"element": "C" 
			},
			{
				"x": 4.8310581929,
				"y": 1.4924502598,
				"z": -1.4173943397,
				"element": "C" 
			},
			{
				"x": 3.901930468,
				"y": 0.4326688513,
				"z": -1.6554517181,
				"element": "O" 
			},
			{
				"x": 2.6229990837,
				"y": 0.5308997063,
				"z": -1.184647461,
				"element": "C" 
			},
			{
				"x": 1.7734657016,
				"y": -0.5331081828,
				"z": -1.5129216016,
				"element": "C" 
			},
			{
				"x": 0.4562142084,
				"y": -0.5518085867,
				"z": -1.0721377661,
				"element": "C" 
			},
			{
				"x": -0.0543443305,
				"y": 0.4950828876,
				"z": -0.2843783989,
				"element": "C" 
			},
			{
				"x": 0.7964748469,
				"y": 1.5614610233,
				"z": 0.0411977573,
				"element": "C" 
			},
			{
				"x": 2.1175749851,
				"y": 1.5797402052,
				"z": -0.4069592925,
				"element": "C" 
			},
			{
				"x": -1.4010692182,
				"y": 0.4425962613,
				"z": 0.1672735754,
				"element": "N" 
			},
			{
				"x": -2.2004019797,
				"y": -0.7781786576,
				"z": 0.0186299311,
				"element": "C" 
			},
			{
				"x": -3.4435762345,
				"y": -0.5186796537,
				"z": 0.8848101647,
				"element": "C" 
			},
			{
				"x": -3.5705231894,
				"y": 1.0175088465,
				"z": 0.8812301773,
				"element": "C" 
			},
			{
				"x": -2.1379580869,
				"y": 1.5062513917,
				"z": 0.6529654978,
				"element": "C" 
			},
			{
				"x": -1.7513730554,
				"y": 2.6454976969,
				"z": 0.8551306652,
				"element": "O" 
			},
			{
				"x": -4.6772286667,
				"y": -1.2599815677,
				"z": 0.3865960834,
				"element": "C" 
			},
			{
				"x": -5.8027810871,
				"y": -1.0638958017,
				"z": 1.121487296,
				"element": "O" 
			},
			{
				"x": -4.7028509777,
				"y": -1.9758833816,
				"z": -0.5830103193,
				"element": "O" 
			},
			{
				"x": 5.42488459,
				"y": 3.4146867745,
				"z": -2.2070607058,
				"element": "H" 
			},
			{
				"x": 4.7390347072,
				"y": 2.3113628365,
				"z": -3.4167338455,
				"element": "H" 
			},
			{
				"x": 3.6750399557,
				"y": 3.1365425054,
				"z": -2.2662579157,
				"element": "H" 
			},
			{
				"x": 5.812034658,
				"y": 1.0303934049,
				"z": -1.5607330249,
				"element": "H" 
			},
			{
				"x": 4.7750030838,
				"y": 1.8216806267,
				"z": -0.3718564793,
				"element": "H" 
			},
			{
				"x": 2.1656424907,
				"y": -1.3426901612,
				"z": -2.11943984,
				"element": "H" 
			},
			{
				"x": -0.1720279491,
				"y": -1.3873170991,
				"z": -1.3585143078,
				"element": "H" 
			},
			{
				"x": 0.4168387517,
				"y": 2.3833402086,
				"z": 0.6308902674,
				"element": "H" 
			},
			{
				"x": 2.7382380413,
				"y": 2.4258513263,
				"z": -0.1371247159,
				"element": "H" 
			},
			{
				"x": -1.636984693,
				"y": -1.650103254,
				"z": 0.3616339834,
				"element": "H" 
			},
			{
				"x": -2.4911870058,
				"y": -0.9526037298,
				"z": -1.0236080817,
				"element": "H" 
			},
			{
				"x": -3.2431199153,
				"y": -0.8524612088,
				"z": 1.9117195032,
				"element": "H" 
			},
			{
				"x": -4.1885511424,
				"y": 1.3750210976,
				"z": 0.0482461668,
				"element": "H" 
			},
			{
				"x": -3.9676639563,
				"y": 1.4528823032,
				"z": 1.8014125031,
				"element": "H" 
			},
			{
				"x": -5.6260248674,
				"y": -0.4639642667,
				"z": 1.8603527908,
				"element": "H" 
			}
		],
		 "valence_orbital": [ 
			{
				"type": "occ",
				"energy": -0.28964,
				"method": "rhf"
			},
			{
				"type": "occ",
				"energy": -0.27472,
				"method": "rhf"
			},
			{
				"type": "occ",
				"energy": -0.25706,
				"method": "rhf"
			},
			{
				"type": "occ",
				"energy": -0.25157,
				"method": "rhf"
			},
			{
				"type": "occ",
				"energy": -0.20177,
				"method": "rhf"
			},
			{
				"type": "unocc",
				"energy": -0.00981,
				"method": "rhf"
			},
			{
				"type": "unocc",
				"energy": -0.00617,
				"method": "rhf"
			},
			{
				"type": "unocc",
				"energy": -0.0036,
				"method": "rhf"
			},
			{
				"type": "unocc",
				"energy": 0.03702,
				"method": "rhf"
			},
			{
				"type": "unocc",
				"energy": 0.04395,
				"method": "rhf"
			}
		],
		"cosmo_sigma_profile": { 
			"-0.025": 0.0,
			"-0.024": 0.0,
			"-0.023": 0.0,
			"-0.022": 0.0,
			"-0.021": 0.0,
			"-0.02": 0.0299360673334,
			"-0.019": 0.673370467304,
			"-0.018": 0.748042982411,
			"-0.017": 1.3361963536,
			"-0.016": 1.31878486779,
			"-0.015": 0.986866506502,
			"-0.014": 0.874452657066,
			"-0.013": 1.29010961546,
			"-0.012": 1.23258222324,
			"-0.011": 1.55073869585,
			"-0.01": 1.57680764034,
			"-0.009": 1.74365473304,
			"-0.008": 6.55056896851,
			"-0.007": 13.4460837031,
			"-0.006": 18.5196522486,
			"-0.005": 17.8304629143,
			"-0.004": 22.0250426475,
			"-0.003": 21.754300166,
			"-0.002": 18.1722319019,
			"-0.001": 14.8239876597,
			"0.0": 16.8403988426,
			"0.001": 13.6939963087,
			"0.002": 12.0826403638,
			"0.003": 12.5533125494,
			"0.004": 14.2940215651,
			"0.005": 16.9721177065,
			"0.006": 7.3927217256,
			"0.007": 6.72045999326,
			"0.008": 4.15422900805,
			"0.009": 6.98405807787,
			"0.01": 8.4740194492,
			"0.011": 8.15233781862,
			"0.012": 6.40321867958,
			"0.013": 3.87381022229,
			"0.014": 1.26260069031,
			"0.015": 0.00705676460163,
			"0.016": 0.0,
			"0.017": 0.0,
			"0.018": 0.0,
			"0.019": 0.0,
			"0.02": 0.0,
			"0.021": 0.0,
			"0.022": 0.0,
			"0.023": 0.0,
			"0.024": 0.0,
			"0.025": 0.0
		}
	}
}
