{
	 "smiles": "NC1=C(NCC2=CC=CC=C2)C=CC(=C1)C(F)(F)F", 
	 "Tm": 345.65, 
	 "num_atms": 32, 
	 "gaussian": { 
		 "optdone": 1, 
		 "sigma_profile": "yes", 
		 "theory": "DFT", 
		 "functional": "B3LYP", 
		 "basiset": "6-31G**", 
		 "properties": { 
			 "R2extent": 7788.5186, 
			 "electric_dipole_moment_norm": 4.41747662359, 
			 "electric_quadrupole_moment_norm": 20.2035455366, 
			 "total_energy": -950.363971142, 
			 "HOMO_LUMO_gap": 0.19342, 
			 "cosmo_polarized_energy": -11.71, 
			 "cosmo_cavitation_energy": 37.02, 
			 "cosmo_dispersion_energy": -25.87, 
			 "cosmo_repulsion_energy": 1.94, 
			 "cosmo_total_nonelectrostatic_energy": 13.1, 
			 "SMD_solvation_energy": 6.97 
		},
		"coords": [
			{
				"x": -1.8687498831,
				"y": -1.440661057,
				"z": -3.293322788,
				"element": "N" 
			},
			{
				"x": -0.6865465759,
				"y": -1.6759297668,
				"z": -2.5554021543,
				"element": "C" 
			},
			{
				"x": -0.7680778534,
				"y": -1.5821424582,
				"z": -1.1395307488,
				"element": "C" 
			},
			{
				"x": -2.010656894,
				"y": -1.2425827426,
				"z": -0.5973530282,
				"element": "N" 
			},
			{
				"x": -2.2666530656,
				"y": -1.3789182854,
				"z": 0.8313249215,
				"element": "C" 
			},
			{
				"x": -1.7373737347,
				"y": -0.2287307931,
				"z": 1.6758617464,
				"element": "C" 
			},
			{
				"x": -1.3466749129,
				"y": -0.4606203018,
				"z": 3.0002715385,
				"element": "C" 
			},
			{
				"x": -0.9140910017,
				"y": 0.5901716132,
				"z": 3.8108737919,
				"element": "C" 
			},
			{
				"x": -0.8604859198,
				"y": 1.8887785508,
				"z": 3.3019297055,
				"element": "C" 
			},
			{
				"x": -1.2426734568,
				"y": 2.1272328755,
				"z": 1.9800476115,
				"element": "C" 
			},
			{
				"x": -1.6798377127,
				"y": 1.0760698037,
				"z": 1.1734148883,
				"element": "C" 
			},
			{
				"x": 0.3833553552,
				"y": -1.8086943598,
				"z": -0.3765679102,
				"element": "C" 
			},
			{
				"x": 1.5858767583,
				"y": -2.1649884391,
				"z": -0.989410956,
				"element": "C" 
			},
			{
				"x": 1.6509465096,
				"y": -2.2977823329,
				"z": -2.3740635746,
				"element": "C" 
			},
			{
				"x": 0.5141905077,
				"y": -2.0411848425,
				"z": -3.152506565,
				"element": "C" 
			},
			{
				"x": 2.9131873514,
				"y": -2.7512409808,
				"z": -3.0420774871,
				"element": "C" 
			},
			{
				"x": 3.0924285711,
				"y": -2.1541885518,
				"z": -4.2464783577,
				"element": "F" 
			},
			{
				"x": 4.0100606752,
				"y": -2.4895684167,
				"z": -2.2955462591,
				"element": "F" 
			},
			{
				"x": 2.9153425112,
				"y": -4.0877450625,
				"z": -3.2790308137,
				"element": "F" 
			},
			{
				"x": -1.7233444134,
				"y": -1.5015865547,
				"z": -4.2941728849,
				"element": "H" 
			},
			{
				"x": -2.2912101022,
				"y": -0.5441426134,
				"z": -3.0661614604,
				"element": "H" 
			},
			{
				"x": -2.7659718749,
				"y": -1.5878546696,
				"z": -1.179257181,
				"element": "H" 
			},
			{
				"x": -1.8696074713,
				"y": -2.3280195599,
				"z": 1.2257891795,
				"element": "H" 
			},
			{
				"x": -3.3561148532,
				"y": -1.4287365609,
				"z": 0.9477287377,
				"element": "H" 
			},
			{
				"x": -1.3797778333,
				"y": -1.4719457725,
				"z": 3.4001727244,
				"element": "H" 
			},
			{
				"x": -0.6122625571,
				"y": 0.3927245672,
				"z": 4.8356566084,
				"element": "H" 
			},
			{
				"x": -0.5185251167,
				"y": 2.7075284648,
				"z": 3.9284614584,
				"element": "H" 
			},
			{
				"x": -1.1984301357,
				"y": 3.1345231388,
				"z": 1.5750874944,
				"element": "H" 
			},
			{
				"x": -1.9697597535,
				"y": 1.255637178,
				"z": 0.1428268582,
				"element": "H" 
			},
			{
				"x": 0.3463633151,
				"y": -1.701071924,
				"z": 0.7009430072,
				"element": "H" 
			},
			{
				"x": 2.4694978578,
				"y": -2.33809801,
				"z": -0.3857620464,
				"element": "H" 
			},
			{
				"x": 0.5755757094,
				"y": -2.1095321361,
				"z": -4.2348460563,
				"element": "H" 
			}
		],
		 "valence_orbital": [ 
			{
				"type": "occ",
				"energy": -0.30262,
				"method": "rhf"
			},
			{
				"type": "occ",
				"energy": -0.25172,
				"method": "rhf"
			},
			{
				"type": "occ",
				"energy": -0.24507,
				"method": "rhf"
			},
			{
				"type": "occ",
				"energy": -0.23379,
				"method": "rhf"
			},
			{
				"type": "occ",
				"energy": -0.20004,
				"method": "rhf"
			},
			{
				"type": "unocc",
				"energy": -0.00662,
				"method": "rhf"
			},
			{
				"type": "unocc",
				"energy": -0.00423,
				"method": "rhf"
			},
			{
				"type": "unocc",
				"energy": -0.00188,
				"method": "rhf"
			},
			{
				"type": "unocc",
				"energy": 0.00768,
				"method": "rhf"
			},
			{
				"type": "unocc",
				"energy": 0.06741,
				"method": "rhf"
			}
		],
		"cosmo_sigma_profile": { 
			"-0.025": 0.0,
			"-0.024": 0.0,
			"-0.023": 0.0,
			"-0.022": 0.0,
			"-0.021": 0.0,
			"-0.02": 0.0,
			"-0.019": 0.0,
			"-0.018": 0.0,
			"-0.017": 0.0,
			"-0.016": 0.0,
			"-0.015": 0.0,
			"-0.014": 0.0,
			"-0.013": 0.212907925936,
			"-0.012": 1.85506028347,
			"-0.011": 3.13694882431,
			"-0.01": 3.82844513813,
			"-0.009": 4.74775184049,
			"-0.008": 3.92624711774,
			"-0.007": 4.42790292279,
			"-0.006": 8.94628250963,
			"-0.005": 16.3738024029,
			"-0.004": 21.7161797072,
			"-0.003": 23.4974651412,
			"-0.002": 17.4154324284,
			"-0.001": 15.80250321,
			"0.0": 15.0754366599,
			"0.001": 17.5432401522,
			"0.002": 22.2266889955,
			"0.003": 43.5066192795,
			"0.004": 35.2484936483,
			"0.005": 18.300791849,
			"0.006": 11.1087266653,
			"0.007": 2.54174778479,
			"0.008": 0.530297244194,
			"0.009": 0.490069973266,
			"0.01": 0.38741785763,
			"0.011": 0.508573381921,
			"0.012": 0.830384822235,
			"0.013": 0.438401636434,
			"0.014": 0.135957193817,
			"0.015": 0.0,
			"0.016": 0.0,
			"0.017": 0.0,
			"0.018": 0.0,
			"0.019": 0.0,
			"0.02": 0.0,
			"0.021": 0.0,
			"0.022": 0.0,
			"0.023": 0.0,
			"0.024": 0.0,
			"0.025": 0.0
		}
	}
}
