{
	 "smiles": "CCOC(C(O)=O)(C1=CC=CC=C1)C1=CC=CC=C1", 
	 "Tm": 387.15, 
	 "num_atms": 35, 
	 "gaussian": { 
		 "optdone": 1, 
		 "sigma_profile": "yes", 
		 "theory": "DFT", 
		 "functional": "B3LYP", 
		 "basiset": "6-31G**", 
		 "properties": { 
			 "R2extent": 4798.4474, 
			 "electric_dipole_moment_norm": 1.16323661394, 
			 "electric_quadrupole_moment_norm": 5.99005976681, 
			 "total_energy": -845.017440941, 
			 "HOMO_LUMO_gap": 0.21679, 
			 "cosmo_polarized_energy": -11.57, 
			 "cosmo_cavitation_energy": 37.83, 
			 "cosmo_dispersion_energy": -25.62, 
			 "cosmo_repulsion_energy": 2.02, 
			 "cosmo_total_nonelectrostatic_energy": 14.23, 
			 "SMD_solvation_energy": 7.67 
		},
		"coords": [
			{
				"x": 2.0007676271,
				"y": -0.9897912222,
				"z": -3.0923647592,
				"element": "C" 
			},
			{
				"x": 0.844098287,
				"y": -1.0014551204,
				"z": -2.1072467716,
				"element": "C" 
			},
			{
				"x": 1.3675071927,
				"y": -0.6080694064,
				"z": -0.8361267875,
				"element": "O" 
			},
			{
				"x": 0.4830053174,
				"y": -0.6599545408,
				"z": 0.2731591054,
				"element": "C" 
			},
			{
				"x": 0.153214152,
				"y": -2.1251642178,
				"z": 0.6530538037,
				"element": "C" 
			},
			{
				"x": 1.0583150089,
				"y": -2.997671547,
				"z": 0.1620227599,
				"element": "O" 
			},
			{
				"x": -0.7576974745,
				"y": -2.4754572988,
				"z": 1.3733424163,
				"element": "O" 
			},
			{
				"x": -0.7604836368,
				"y": 0.2100174614,
				"z": 0.008409779,
				"element": "C" 
			},
			{
				"x": -2.0729390055,
				"y": -0.2688330018,
				"z": -0.0624847722,
				"element": "C" 
			},
			{
				"x": -3.1254400348,
				"y": 0.5981302659,
				"z": -0.3744608771,
				"element": "C" 
			},
			{
				"x": -2.8820632773,
				"y": 1.9466217659,
				"z": -0.625396192,
				"element": "C" 
			},
			{
				"x": -1.5723172021,
				"y": 2.4310241429,
				"z": -0.563412093,
				"element": "C" 
			},
			{
				"x": -0.5242985256,
				"y": 1.5703577652,
				"z": -0.2493885772,
				"element": "C" 
			},
			{
				"x": 1.2736696522,
				"y": -0.1316285534,
				"z": 1.4905043727,
				"element": "C" 
			},
			{
				"x": 0.612060077,
				"y": 0.0860695717,
				"z": 2.7065427387,
				"element": "C" 
			},
			{
				"x": 1.3165705835,
				"y": 0.5472716812,
				"z": 3.8169542313,
				"element": "C" 
			},
			{
				"x": 2.6885584717,
				"y": 0.7950479395,
				"z": 3.725899876,
				"element": "C" 
			},
			{
				"x": 3.3499788201,
				"y": 0.5717894801,
				"z": 2.5184949082,
				"element": "C" 
			},
			{
				"x": 2.6492470401,
				"y": 0.1036402298,
				"z": 1.4041705016,
				"element": "C" 
			},
			{
				"x": 2.7752899825,
				"y": -1.6979758659,
				"z": -2.784649501,
				"element": "H" 
			},
			{
				"x": 1.649737125,
				"y": -1.2685858812,
				"z": -4.0910179743,
				"element": "H" 
			},
			{
				"x": 2.447586438,
				"y": 0.007228518,
				"z": -3.1492927329,
				"element": "H" 
			},
			{
				"x": 0.4064230259,
				"y": -2.0066659197,
				"z": -2.0439973957,
				"element": "H" 
			},
			{
				"x": 0.0547540924,
				"y": -0.3069689707,
				"z": -2.4216292673,
				"element": "H" 
			},
			{
				"x": 0.8031366473,
				"y": -3.864141309,
				"z": 0.5226365571,
				"element": "H" 
			},
			{
				"x": -2.285006788,
				"y": -1.3097041779,
				"z": 0.1449214694,
				"element": "H" 
			},
			{
				"x": -4.1390006442,
				"y": 0.209576188,
				"z": -0.4195643273,
				"element": "H" 
			},
			{
				"x": -3.7026559009,
				"y": 2.6164832108,
				"z": -0.8661922143,
				"element": "H" 
			},
			{
				"x": -1.3679672808,
				"y": 3.4802217298,
				"z": -0.7575231651,
				"element": "H" 
			},
			{
				"x": 0.4928518375,
				"y": 1.947185866,
				"z": -0.2050133133,
				"element": "H" 
			},
			{
				"x": -0.4526186982,
				"y": -0.1101786718,
				"z": 2.7802746328,
				"element": "H" 
			},
			{
				"x": 0.7924359003,
				"y": 0.7149604126,
				"z": 4.7535142235,
				"element": "H" 
			},
			{
				"x": 3.2365188975,
				"y": 1.1579816159,
				"z": 4.5908732272,
				"element": "H" 
			},
			{
				"x": 4.4173175983,
				"y": 0.7589579002,
				"z": 2.4392276001,
				"element": "H" 
			},
			{
				"x": 3.1595446945,
				"y": -0.0752200399,
				"z": 0.4662585179,
				"element": "H" 
			}
		],
		 "valence_orbital": [ 
			{
				"type": "occ",
				"energy": -0.2656,
				"method": "rhf"
			},
			{
				"type": "occ",
				"energy": -0.24961,
				"method": "rhf"
			},
			{
				"type": "occ",
				"energy": -0.24574,
				"method": "rhf"
			},
			{
				"type": "occ",
				"energy": -0.24359,
				"method": "rhf"
			},
			{
				"type": "occ",
				"energy": -0.23638,
				"method": "rhf"
			},
			{
				"type": "unocc",
				"energy": -0.01959,
				"method": "rhf"
			},
			{
				"type": "unocc",
				"energy": -0.00826,
				"method": "rhf"
			},
			{
				"type": "unocc",
				"energy": -0.00028,
				"method": "rhf"
			},
			{
				"type": "unocc",
				"energy": 0.00721,
				"method": "rhf"
			},
			{
				"type": "unocc",
				"energy": 0.02519,
				"method": "rhf"
			}
		],
		"cosmo_sigma_profile": { 
			"-0.025": 0.0,
			"-0.024": 0.0,
			"-0.023": 0.0,
			"-0.022": 0.0,
			"-0.021": 0.0,
			"-0.02": 0.0,
			"-0.019": 0.271917319658,
			"-0.018": 0.823156370998,
			"-0.017": 0.838193935879,
			"-0.016": 0.93521150397,
			"-0.015": 0.830108328923,
			"-0.014": 0.619226713246,
			"-0.013": 0.561563012585,
			"-0.012": 0.996120052371,
			"-0.011": 0.816485987103,
			"-0.01": 0.68776378904,
			"-0.009": 0.379057916643,
			"-0.008": 0.517819087313,
			"-0.007": 1.18735898361,
			"-0.006": 8.9023749147,
			"-0.005": 17.8338175645,
			"-0.004": 26.3625402806,
			"-0.003": 32.0824086211,
			"-0.002": 23.6226700458,
			"-0.001": 24.8267590482,
			"0.0": 23.3212660185,
			"0.001": 20.7048837637,
			"0.002": 20.3938792499,
			"0.003": 20.8481900954,
			"0.004": 23.7962370612,
			"0.005": 21.5512631505,
			"0.006": 8.89901118845,
			"0.007": 3.75673875952,
			"0.008": 3.26510008537,
			"0.009": 3.17626819619,
			"0.01": 2.89035729488,
			"0.011": 3.93334142255,
			"0.012": 0.669007983609,
			"0.013": 0.0,
			"0.014": 0.0,
			"0.015": 0.0,
			"0.016": 0.0,
			"0.017": 0.0,
			"0.018": 0.0,
			"0.019": 0.0,
			"0.02": 0.0,
			"0.021": 0.0,
			"0.022": 0.0,
			"0.023": 0.0,
			"0.024": 0.0,
			"0.025": 0.0
		}
	}
}
