{
	 "smiles": "C[Si](C)(C)C#CC(O)=O", 
	 "Tm": 321.15, 
	 "num_atms": 19, 
	 "gaussian": { 
		 "optdone": 1, 
		 "sigma_profile": "yes", 
		 "theory": "DFT", 
		 "functional": "B3LYP", 
		 "basiset": "6-31G**", 
		 "properties": { 
			 "R2extent": 2780.0466, 
			 "electric_dipole_moment_norm": 5.25431999026, 
			 "electric_quadrupole_moment_norm": 16.9827805162, 
			 "total_energy": -674.599185927, 
			 "HOMO_LUMO_gap": 0.22215, 
			 "cosmo_polarized_energy": -11.81, 
			 "cosmo_cavitation_energy": 26.0, 
			 "cosmo_dispersion_energy": -15.89, 
			 "cosmo_repulsion_energy": 1.5, 
			 "cosmo_total_nonelectrostatic_energy": 11.62, 
			 "SMD_solvation_energy": 8.5 
		},
		"coords": [
			{
				"x": 2.6112720142,
				"y": 2.5088415899,
				"z": 0.29831561,
				"element": "C" 
			},
			{
				"x": 1.4248258225,
				"y": 1.2941194975,
				"z": -0.5214619099,
				"element": "Si" 
			},
			{
				"x": -0.3272526676,
				"y": 1.9925537085,
				"z": -0.5720582995,
				"element": "C" 
			},
			{
				"x": 2.0133454865,
				"y": 0.8240640932,
				"z": -2.2500239313,
				"element": "C" 
			},
			{
				"x": 1.4035062826,
				"y": -0.2520912853,
				"z": 0.505771512,
				"element": "C" 
			},
			{
				"x": 1.4162038096,
				"y": -1.270896976,
				"z": 1.1762239515,
				"element": "C" 
			},
			{
				"x": 1.4591521364,
				"y": -2.4875392273,
				"z": 1.9704831288,
				"element": "C" 
			},
			{
				"x": 0.2626106582,
				"y": -2.8579543655,
				"z": 2.4959323382,
				"element": "O" 
			},
			{
				"x": 2.4569189702,
				"y": -3.1366076462,
				"z": 2.1655609867,
				"element": "O" 
			},
			{
				"x": 2.6618069302,
				"y": 3.440758452,
				"z": -0.2762107896,
				"element": "H" 
			},
			{
				"x": 3.6230216438,
				"y": 2.095928607,
				"z": 0.3588635416,
				"element": "H" 
			},
			{
				"x": 2.2892583654,
				"y": 2.758912422,
				"z": 1.314151627,
				"element": "H" 
			},
			{
				"x": -1.0293945525,
				"y": 1.2809338889,
				"z": -1.0183336715,
				"element": "H" 
			},
			{
				"x": -0.6891367385,
				"y": 2.2393777425,
				"z": 0.431281452,
				"element": "H" 
			},
			{
				"x": -0.3564591127,
				"y": 2.9095519626,
				"z": -1.1714721104,
				"element": "H" 
			},
			{
				"x": 1.3436309679,
				"y": 0.0944168019,
				"z": -2.7161216164,
				"element": "H" 
			},
			{
				"x": 3.0172442308,
				"y": 0.3890284645,
				"z": -2.222951734,
				"element": "H" 
			},
			{
				"x": 2.047070432,
				"y": 1.7086373462,
				"z": -2.8961619739,
				"element": "H" 
			},
			{
				"x": -0.4159246788,
				"y": -2.2184350761,
				"z": 2.2323118886,
				"element": "H" 
			}
		],
		 "valence_orbital": [ 
			{
				"type": "occ",
				"energy": -0.32761,
				"method": "rhf"
			},
			{
				"type": "occ",
				"energy": -0.32147,
				"method": "rhf"
			},
			{
				"type": "occ",
				"energy": -0.30112,
				"method": "rhf"
			},
			{
				"type": "occ",
				"energy": -0.28941,
				"method": "rhf"
			},
			{
				"type": "occ",
				"energy": -0.27495,
				"method": "rhf"
			},
			{
				"type": "unocc",
				"energy": -0.0528,
				"method": "rhf"
			},
			{
				"type": "unocc",
				"energy": -0.00196,
				"method": "rhf"
			},
			{
				"type": "unocc",
				"energy": 0.06291,
				"method": "rhf"
			},
			{
				"type": "unocc",
				"energy": 0.06676,
				"method": "rhf"
			},
			{
				"type": "unocc",
				"energy": 0.07527,
				"method": "rhf"
			}
		],
		"cosmo_sigma_profile": { 
			"-0.025": 0.0,
			"-0.024": 0.0,
			"-0.023": 0.0,
			"-0.022": 0.0,
			"-0.021": 0.0,
			"-0.02": 0.0578501579606,
			"-0.019": 0.686463639903,
			"-0.018": 0.94326175925,
			"-0.017": 0.994158568737,
			"-0.016": 0.732824799226,
			"-0.015": 1.01485787971,
			"-0.014": 0.50432536232,
			"-0.013": 0.97747792571,
			"-0.012": 0.880230116371,
			"-0.011": 0.818604375387,
			"-0.01": 1.0692634827,
			"-0.009": 0.54105851573,
			"-0.008": 0.856444491364,
			"-0.007": 0.753890400988,
			"-0.006": 1.35172791777,
			"-0.005": 4.18535626316,
			"-0.004": 20.0786895136,
			"-0.003": 23.6665832234,
			"-0.002": 18.7416244909,
			"-0.001": 19.4616468241,
			"0.0": 24.2772213878,
			"0.001": 19.3494049988,
			"0.002": 14.5019996118,
			"0.003": 6.88256362868,
			"0.004": 7.15433789694,
			"0.005": 3.67615809866,
			"0.006": 3.04293897847,
			"0.007": 3.18330001314,
			"0.008": 3.61189350952,
			"0.009": 4.92288973179,
			"0.01": 5.3090221444,
			"0.011": 6.13632368613,
			"0.012": 2.18898461375,
			"0.013": 0.0247242648106,
			"0.014": 0.0,
			"0.015": 0.0,
			"0.016": 0.0,
			"0.017": 0.0,
			"0.018": 0.0,
			"0.019": 0.0,
			"0.02": 0.0,
			"0.021": 0.0,
			"0.022": 0.0,
			"0.023": 0.0,
			"0.024": 0.0,
			"0.025": 0.0
		}
	}
}
