{
	 "smiles": "OC(=O)CN(CC1=CC=CO1)C1=CC(Cl)=CC=C1", 
	 "Tm": 389.15, 
	 "num_atms": 30, 
	 "gaussian": { 
		 "optdone": 1, 
		 "sigma_profile": "yes", 
		 "theory": "DFT", 
		 "functional": "B3LYP", 
		 "basiset": "6-31G**", 
		 "properties": { 
			 "R2extent": 6391.4455, 
			 "electric_dipole_moment_norm": 3.30810853661, 
			 "electric_quadrupole_moment_norm": 14.4130948606, 
			 "total_energy": -1243.20495146, 
			 "HOMO_LUMO_gap": 0.19053, 
			 "cosmo_polarized_energy": -13.7, 
			 "cosmo_cavitation_energy": 36.3, 
			 "cosmo_dispersion_energy": -25.34, 
			 "cosmo_repulsion_energy": 1.97, 
			 "cosmo_total_nonelectrostatic_energy": 12.93, 
			 "SMD_solvation_energy": 6.91 
		},
		"coords": [
			{
				"x": 0.0602389396,
				"y": 1.3880020972,
				"z": 2.5921928969,
				"element": "O" 
			},
			{
				"x": 0.3450042264,
				"y": 2.4734970571,
				"z": 1.835260588,
				"element": "C" 
			},
			{
				"x": 0.6163889111,
				"y": 3.555602439,
				"z": 2.3032348787,
				"element": "O" 
			},
			{
				"x": 0.2282081625,
				"y": 2.1798733301,
				"z": 0.33955885,
				"element": "C" 
			},
			{
				"x": 0.615600727,
				"y": 0.8510717057,
				"z": -0.0833322995,
				"element": "N" 
			},
			{
				"x": -0.4110459764,
				"y": -0.2038220864,
				"z": -0.1265895142,
				"element": "C" 
			},
			{
				"x": -1.7763346484,
				"y": 0.2763215299,
				"z": -0.4771869412,
				"element": "C" 
			},
			{
				"x": -2.9399683843,
				"y": 0.3749251235,
				"z": 0.2300128481,
				"element": "C" 
			},
			{
				"x": -3.933158961,
				"y": 0.8681359831,
				"z": -0.6787273905,
				"element": "C" 
			},
			{
				"x": -3.2989716502,
				"y": 1.0355612146,
				"z": -1.8714344636,
				"element": "C" 
			},
			{
				"x": -1.9871984384,
				"y": 0.6801455755,
				"z": -1.7702638099,
				"element": "O" 
			},
			{
				"x": 1.9556128395,
				"y": 0.4707474191,
				"z": 0.0487489081,
				"element": "C" 
			},
			{
				"x": 2.3479468761,
				"y": -0.8817602793,
				"z": -0.0601115478,
				"element": "C" 
			},
			{
				"x": 3.6934704234,
				"y": -1.2263190764,
				"z": 0.0267948045,
				"element": "C" 
			},
			{
				"x": 4.1292577258,
				"y": -2.9284676428,
				"z": -0.1210641788,
				"element": "Cl" 
			},
			{
				"x": 4.697392576,
				"y": -0.2860720998,
				"z": 0.2355933052,
				"element": "C" 
			},
			{
				"x": 4.304946711,
				"y": 1.0462713703,
				"z": 0.3660554876,
				"element": "C" 
			},
			{
				"x": 2.9698604331,
				"y": 1.4285704451,
				"z": 0.2820139109,
				"element": "C" 
			},
			{
				"x": 0.1525068322,
				"y": 1.6699851153,
				"z": 3.5180842837,
				"element": "H" 
			},
			{
				"x": -0.8203324171,
				"y": 2.3376910815,
				"z": 0.0723163939,
				"element": "H" 
			},
			{
				"x": 0.7999160803,
				"y": 2.9485331166,
				"z": -0.1852551574,
				"element": "H" 
			},
			{
				"x": -0.4748015772,
				"y": -0.7354013989,
				"z": 0.8336148288,
				"element": "H" 
			},
			{
				"x": -0.1076204063,
				"y": -0.9294153956,
				"z": -0.888097855,
				"element": "H" 
			},
			{
				"x": -3.0694566285,
				"y": 0.1271037324,
				"z": 1.2739329149,
				"element": "H" 
			},
			{
				"x": -4.9738994573,
				"y": 1.0677831647,
				"z": -0.468697375,
				"element": "H" 
			},
			{
				"x": -3.6187995544,
				"y": 1.3800399604,
				"z": -2.8427096053,
				"element": "H" 
			},
			{
				"x": 1.6270466016,
				"y": -1.673615269,
				"z": -0.2020576207,
				"element": "H" 
			},
			{
				"x": 5.7362159265,
				"y": -0.5853622645,
				"z": 0.3026915766,
				"element": "H" 
			},
			{
				"x": 5.058164993,
				"y": 1.8088298587,
				"z": 0.5423417773,
				"element": "H" 
			},
			{
				"x": 2.7270091145,
				"y": 2.4759441928,
				"z": 0.4052795056,
				"element": "H" 
			}
		],
		 "valence_orbital": [ 
			{
				"type": "occ",
				"energy": -0.289,
				"method": "rhf"
			},
			{
				"type": "occ",
				"energy": -0.27887,
				"method": "rhf"
			},
			{
				"type": "occ",
				"energy": -0.24368,
				"method": "rhf"
			},
			{
				"type": "occ",
				"energy": -0.23728,
				"method": "rhf"
			},
			{
				"type": "occ",
				"energy": -0.2049,
				"method": "rhf"
			},
			{
				"type": "unocc",
				"energy": -0.01437,
				"method": "rhf"
			},
			{
				"type": "unocc",
				"energy": -0.00395,
				"method": "rhf"
			},
			{
				"type": "unocc",
				"energy": 0.00566,
				"method": "rhf"
			},
			{
				"type": "unocc",
				"energy": 0.00816,
				"method": "rhf"
			},
			{
				"type": "unocc",
				"energy": 0.03473,
				"method": "rhf"
			}
		],
		"cosmo_sigma_profile": { 
			"-0.025": 0.0,
			"-0.024": 0.0,
			"-0.023": 0.0,
			"-0.022": 0.0,
			"-0.021": 0.0,
			"-0.02": 0.0,
			"-0.019": 0.177463468481,
			"-0.018": 1.06420996756,
			"-0.017": 0.872160740092,
			"-0.016": 0.596655834061,
			"-0.015": 0.517447553261,
			"-0.014": 0.995417079397,
			"-0.013": 0.831238344822,
			"-0.012": 0.642861380462,
			"-0.011": 0.983462898034,
			"-0.01": 0.528116485547,
			"-0.009": 1.69879379337,
			"-0.008": 4.91248128911,
			"-0.007": 12.3659052244,
			"-0.006": 16.2476849975,
			"-0.005": 18.3367946273,
			"-0.004": 19.909604504,
			"-0.003": 15.1692681726,
			"-0.002": 16.4591634772,
			"-0.001": 16.0533181578,
			"0.0": 17.3834721162,
			"0.001": 18.4741205029,
			"0.002": 21.3474338007,
			"0.003": 25.8999747082,
			"0.004": 28.5306161187,
			"0.005": 27.5533155202,
			"0.006": 7.08779282071,
			"0.007": 3.3594073301,
			"0.008": 1.46447807974,
			"0.009": 1.99590719422,
			"0.01": 2.77852339414,
			"0.011": 4.37297117777,
			"0.012": 3.36227329898,
			"0.013": 0.294546570506,
			"0.014": 0.0,
			"0.015": 0.0,
			"0.016": 0.0,
			"0.017": 0.0,
			"0.018": 0.0,
			"0.019": 0.0,
			"0.02": 0.0,
			"0.021": 0.0,
			"0.022": 0.0,
			"0.023": 0.0,
			"0.024": 0.0,
			"0.025": 0.0
		}
	}
}
