{
	 "smiles": "CCCCCN1N=C(C(O)=O)C2=C(C=CC=C2)C1=O", 
	 "Tm": 418.15, 
	 "num_atms": 35, 
	 "gaussian": { 
		 "optdone": 1, 
		 "sigma_profile": "yes", 
		 "theory": "DFT", 
		 "functional": "B3LYP", 
		 "basiset": "6-31G**", 
		 "properties": { 
			 "R2extent": 5731.2105, 
			 "electric_dipole_moment_norm": 2.37287451206, 
			 "electric_quadrupole_moment_norm": 25.1323546905, 
			 "total_energy": -878.335958764, 
			 "HOMO_LUMO_gap": 0.16379, 
			 "cosmo_polarized_energy": -13.08, 
			 "cosmo_cavitation_energy": 37.85, 
			 "cosmo_dispersion_energy": -26.08, 
			 "cosmo_repulsion_energy": 2.02, 
			 "cosmo_total_nonelectrostatic_energy": 13.79, 
			 "SMD_solvation_energy": 7.22 
		},
		"coords": [
			{
				"x": -2.8098886667,
				"y": 0.7953679146,
				"z": 2.0914705953,
				"element": "C" 
			},
			{
				"x": -1.9757167836,
				"y": 0.8408308149,
				"z": 0.8074531702,
				"element": "C" 
			},
			{
				"x": -1.1542398766,
				"y": 2.1336601397,
				"z": 0.682948817,
				"element": "C" 
			},
			{
				"x": -0.3282974848,
				"y": 2.265220585,
				"z": -0.6126745288,
				"element": "C" 
			},
			{
				"x": 1.0776859947,
				"y": 1.6503811248,
				"z": -0.5835643974,
				"element": "C" 
			},
			{
				"x": 1.1045236619,
				"y": 0.1837850032,
				"z": -0.4460339909,
				"element": "N" 
			},
			{
				"x": 0.7763092193,
				"y": -0.5013215165,
				"z": -1.5485306952,
				"element": "N" 
			},
			{
				"x": 0.7665912656,
				"y": -1.8079275426,
				"z": -1.5537550731,
				"element": "C" 
			},
			{
				"x": 0.3720910676,
				"y": -2.3926957583,
				"z": -2.8907372808,
				"element": "C" 
			},
			{
				"x": 0.1038144962,
				"y": -1.4778063684,
				"z": -3.8366932407,
				"element": "O" 
			},
			{
				"x": 0.2960056089,
				"y": -3.5809042319,
				"z": -3.1153551523,
				"element": "O" 
			},
			{
				"x": 1.1093736462,
				"y": -2.5959165863,
				"z": -0.3851387736,
				"element": "C" 
			},
			{
				"x": 1.4595346859,
				"y": -1.871569509,
				"z": 0.7797715637,
				"element": "C" 
			},
			{
				"x": 1.8111212606,
				"y": -2.5431543802,
				"z": 1.9600576969,
				"element": "C" 
			},
			{
				"x": 1.817444759,
				"y": -3.9292488211,
				"z": 1.9871166155,
				"element": "C" 
			},
			{
				"x": 1.4703270205,
				"y": -4.6549000872,
				"z": 0.835353838,
				"element": "C" 
			},
			{
				"x": 1.1192987991,
				"y": -4.0067416418,
				"z": -0.3400952495,
				"element": "C" 
			},
			{
				"x": 1.4572800253,
				"y": -0.4013887044,
				"z": 0.784686705,
				"element": "C" 
			},
			{
				"x": 1.7294304701,
				"y": 0.2960244211,
				"z": 1.7559330777,
				"element": "O" 
			},
			{
				"x": -3.3998549629,
				"y": -0.1248352847,
				"z": 2.1522256999,
				"element": "H" 
			},
			{
				"x": -3.5056813656,
				"y": 1.6409094619,
				"z": 2.1420269527,
				"element": "H" 
			},
			{
				"x": -2.1695045501,
				"y": 0.840259324,
				"z": 2.9793818563,
				"element": "H" 
			},
			{
				"x": -1.3175914989,
				"y": -0.0348138984,
				"z": 0.7760722856,
				"element": "H" 
			},
			{
				"x": -2.6382250696,
				"y": 0.7538803617,
				"z": -0.0646870602,
				"element": "H" 
			},
			{
				"x": -1.8504138412,
				"y": 2.9810539941,
				"z": 0.7348234049,
				"element": "H" 
			},
			{
				"x": -0.4894341271,
				"y": 2.2306590203,
				"z": 1.5507801688,
				"element": "H" 
			},
			{
				"x": -0.1782735848,
				"y": 3.3282545085,
				"z": -0.8396395147,
				"element": "H" 
			},
			{
				"x": -0.8868648111,
				"y": 1.8499955202,
				"z": -1.4617561315,
				"element": "H" 
			},
			{
				"x": 1.6073083747,
				"y": 1.8855180414,
				"z": -1.5113079982,
				"element": "H" 
			},
			{
				"x": 1.6510102752,
				"y": 2.0380622603,
				"z": 0.2589654255,
				"element": "H" 
			},
			{
				"x": 0.2301970691,
				"y": -0.5990746887,
				"z": -3.4281515889,
				"element": "H" 
			},
			{
				"x": 2.0711685154,
				"y": -1.9498065376,
				"z": 2.8296040584,
				"element": "H" 
			},
			{
				"x": 2.0896120402,
				"y": -4.4544494611,
				"z": 2.8976810779,
				"element": "H" 
			},
			{
				"x": 1.4757404983,
				"y": -5.7405980677,
				"z": 0.8618886941,
				"element": "H" 
			},
			{
				"x": 0.8513178694,
				"y": -4.5601094096,
				"z": -1.2298210277,
				"element": "H" 
			}
		],
		 "valence_orbital": [ 
			{
				"type": "occ",
				"energy": -0.29451,
				"method": "rhf"
			},
			{
				"type": "occ",
				"energy": -0.27883,
				"method": "rhf"
			},
			{
				"type": "occ",
				"energy": -0.27389,
				"method": "rhf"
			},
			{
				"type": "occ",
				"energy": -0.26876,
				"method": "rhf"
			},
			{
				"type": "occ",
				"energy": -0.24489,
				"method": "rhf"
			},
			{
				"type": "unocc",
				"energy": -0.0811,
				"method": "rhf"
			},
			{
				"type": "unocc",
				"energy": -0.05761,
				"method": "rhf"
			},
			{
				"type": "unocc",
				"energy": -0.01559,
				"method": "rhf"
			},
			{
				"type": "unocc",
				"energy": 0.04772,
				"method": "rhf"
			},
			{
				"type": "unocc",
				"energy": 0.07765,
				"method": "rhf"
			}
		],
		"cosmo_sigma_profile": { 
			"-0.025": 0.0,
			"-0.024": 0.0,
			"-0.023": 0.0,
			"-0.022": 0.0,
			"-0.021": 0.0,
			"-0.02": 0.0,
			"-0.019": 0.0,
			"-0.018": 0.0,
			"-0.017": 0.0,
			"-0.016": 0.0,
			"-0.015": 0.0,
			"-0.014": 0.26639328844,
			"-0.013": 0.202004411347,
			"-0.012": 0.451454788889,
			"-0.011": 1.17003924488,
			"-0.01": 0.430896391542,
			"-0.009": 0.608590592061,
			"-0.008": 1.15703708544,
			"-0.007": 5.46743593196,
			"-0.006": 9.97207237535,
			"-0.005": 17.3647165351,
			"-0.004": 20.59456736,
			"-0.003": 27.9403268554,
			"-0.002": 35.3826039852,
			"-0.001": 35.9446132104,
			"0.0": 33.1943728287,
			"0.001": 30.5665882529,
			"0.002": 22.4722931734,
			"0.003": 9.55365234509,
			"0.004": 4.01611747806,
			"0.005": 4.89751939152,
			"0.006": 4.53094887957,
			"0.007": 3.98846310339,
			"0.008": 3.87571588138,
			"0.009": 5.740440456,
			"0.01": 6.84313928147,
			"0.011": 4.99970615788,
			"0.012": 6.15843662807,
			"0.013": 1.93229431551,
			"0.014": 0.0,
			"0.015": 0.0,
			"0.016": 0.0,
			"0.017": 0.0,
			"0.018": 0.0,
			"0.019": 0.0,
			"0.02": 0.0,
			"0.021": 0.0,
			"0.022": 0.0,
			"0.023": 0.0,
			"0.024": 0.0,
			"0.025": 0.0
		}
	}
}
