{
	 "smiles": "CC1(CC(C1)C(=N/O)C1=CC2=C(O1)C=CC=C2)C1=CC=CC=C1", 
	 "Tm": 473.15, 
	 "num_atms": 42, 
	 "gaussian": { 
		 "optdone": 1, 
		 "sigma_profile": "yes", 
		 "theory": "DFT", 
		 "functional": "B3LYP", 
		 "basiset": "6-31G**", 
		 "properties": { 
			 "R2extent": 9177.4574, 
			 "electric_dipole_moment_norm": 0.455102724668, 
			 "electric_quadrupole_moment_norm": 11.3525011451, 
			 "total_energy": -978.694576152, 
			 "HOMO_LUMO_gap": 0.16331, 
			 "cosmo_polarized_energy": -11.0, 
			 "cosmo_cavitation_energy": 44.96, 
			 "cosmo_dispersion_energy": -31.16, 
			 "cosmo_repulsion_energy": 2.38, 
			 "cosmo_total_nonelectrostatic_energy": 16.18, 
			 "SMD_solvation_energy": 7.23 
		},
		"coords": [
			{
				"x": 2.3423626719,
				"y": 2.787845717,
				"z": 0.8989404336,
				"element": "C" 
			},
			{
				"x": 1.6888147733,
				"y": 1.3980982911,
				"z": 1.0148183899,
				"element": "C" 
			},
			{
				"x": 0.6443415407,
				"y": 1.152184687,
				"z": -0.1197300724,
				"element": "C" 
			},
			{
				"x": 1.747043658,
				"y": 0.439979668,
				"z": -0.9505491569,
				"element": "C" 
			},
			{
				"x": 2.5738908868,
				"y": 0.2891231076,
				"z": 0.3628754277,
				"element": "C" 
			},
			{
				"x": 1.427220161,
				"y": -0.8023495288,
				"z": -1.7484000742,
				"element": "C" 
			},
			{
				"x": 2.30200811,
				"y": -1.6726913413,
				"z": -2.1304874861,
				"element": "N" 
			},
			{
				"x": 3.5917992588,
				"y": -1.3398883338,
				"z": -1.6971934373,
				"element": "O" 
			},
			{
				"x": 0.061217514,
				"y": -1.114953366,
				"z": -2.1749913589,
				"element": "C" 
			},
			{
				"x": -0.5381118038,
				"y": -2.2912697586,
				"z": -2.5240126301,
				"element": "C" 
			},
			{
				"x": -1.8875048434,
				"y": -1.9697679555,
				"z": -2.898187123,
				"element": "C" 
			},
			{
				"x": -1.9994721685,
				"y": -0.5742150712,
				"z": -2.7362281985,
				"element": "C" 
			},
			{
				"x": -0.8145764549,
				"y": -0.0520857401,
				"z": -2.2958024542,
				"element": "O" 
			},
			{
				"x": -3.1617598021,
				"y": 0.1428546959,
				"z": -2.9926577914,
				"element": "C" 
			},
			{
				"x": -4.2599308979,
				"y": -0.5940817385,
				"z": -3.4346282135,
				"element": "C" 
			},
			{
				"x": -4.1830014578,
				"y": -1.990201923,
				"z": -3.6063466069,
				"element": "C" 
			},
			{
				"x": -3.0095142918,
				"y": -2.6894101747,
				"z": -3.3426839341,
				"element": "C" 
			},
			{
				"x": 1.2261329808,
				"y": 1.1641094349,
				"z": 2.4410808324,
				"element": "C" 
			},
			{
				"x": -0.0573195147,
				"y": 1.5477216807,
				"z": 2.8545357982,
				"element": "C" 
			},
			{
				"x": -0.4699388039,
				"y": 1.3700523663,
				"z": 4.1760557228,
				"element": "C" 
			},
			{
				"x": 0.3976922954,
				"y": 0.8048986575,
				"z": 5.1122138733,
				"element": "C" 
			},
			{
				"x": 1.6798196687,
				"y": 0.4210732096,
				"z": 4.7151798459,
				"element": "C" 
			},
			{
				"x": 2.0879677194,
				"y": 0.6006692735,
				"z": 3.3926436607,
				"element": "C" 
			},
			{
				"x": 1.6312838506,
				"y": 3.5747371556,
				"z": 1.1724600485,
				"element": "H" 
			},
			{
				"x": 2.6881775182,
				"y": 2.9843698571,
				"z": -0.1223520537,
				"element": "H" 
			},
			{
				"x": 3.2049387608,
				"y": 2.8679867865,
				"z": 1.5690576045,
				"element": "H" 
			},
			{
				"x": 0.1650780133,
				"y": 2.0253504601,
				"z": -0.5703915566,
				"element": "H" 
			},
			{
				"x": -0.1325212396,
				"y": 0.4543528848,
				"z": 0.2013393067,
				"element": "H" 
			},
			{
				"x": 2.2484349721,
				"y": 1.1488527599,
				"z": -1.6201614626,
				"element": "H" 
			},
			{
				"x": 3.6482677102,
				"y": 0.4708295274,
				"z": 0.2901843835,
				"element": "H" 
			},
			{
				"x": 2.4112334092,
				"y": -0.6868241315,
				"z": 0.8276874819,
				"element": "H" 
			},
			{
				"x": 4.1177115569,
				"y": -2.0677427172,
				"z": -2.0543386613,
				"element": "H" 
			},
			{
				"x": -0.0630295525,
				"y": -3.2604547718,
				"z": -2.5070372489,
				"element": "H" 
			},
			{
				"x": -3.2042343528,
				"y": 1.2177980036,
				"z": -2.8547160428,
				"element": "H" 
			},
			{
				"x": -5.1923754293,
				"y": -0.0811728117,
				"z": -3.6500315392,
				"element": "H" 
			},
			{
				"x": -5.0603093382,
				"y": -2.5288092424,
				"z": -3.9522409641,
				"element": "H" 
			},
			{
				"x": -2.9607173489,
				"y": -3.7655907377,
				"z": -3.4789608485,
				"element": "H" 
			},
			{
				"x": -0.7431867068,
				"y": 1.9865495906,
				"z": 2.1342541081,
				"element": "H" 
			},
			{
				"x": -1.4711002184,
				"y": 1.6704251462,
				"z": 4.4732410984,
				"element": "H" 
			},
			{
				"x": 0.0769604296,
				"y": 0.6623834963,
				"z": 6.140219273,
				"element": "H" 
			},
			{
				"x": 2.3629506357,
				"y": -0.0219507076,
				"z": 5.4348833684,
				"element": "H" 
			},
			{
				"x": 3.0879561298,
				"y": 0.2954135941,
				"z": 3.0947582576,
				"element": "H" 
			}
		],
		 "valence_orbital": [ 
			{
				"type": "occ",
				"energy": -0.26549,
				"method": "rhf"
			},
			{
				"type": "occ",
				"energy": -0.24359,
				"method": "rhf"
			},
			{
				"type": "occ",
				"energy": -0.2362,
				"method": "rhf"
			},
			{
				"type": "occ",
				"energy": -0.23371,
				"method": "rhf"
			},
			{
				"type": "occ",
				"energy": -0.20724,
				"method": "rhf"
			},
			{
				"type": "unocc",
				"energy": -0.04393,
				"method": "rhf"
			},
			{
				"type": "unocc",
				"energy": 0.00418,
				"method": "rhf"
			},
			{
				"type": "unocc",
				"energy": 0.0056,
				"method": "rhf"
			},
			{
				"type": "unocc",
				"energy": 0.00896,
				"method": "rhf"
			},
			{
				"type": "unocc",
				"energy": 0.0204,
				"method": "rhf"
			}
		],
		"cosmo_sigma_profile": { 
			"-0.025": 0.0,
			"-0.024": 0.0,
			"-0.023": 0.0,
			"-0.022": 0.0,
			"-0.021": 0.0,
			"-0.02": 0.0,
			"-0.019": 0.0,
			"-0.018": 0.11676792805,
			"-0.017": 0.858902686666,
			"-0.016": 1.22914710004,
			"-0.015": 0.932348996247,
			"-0.014": 0.372895373999,
			"-0.013": 0.689922111179,
			"-0.012": 0.808359325987,
			"-0.011": 1.02027400288,
			"-0.01": 0.887385223621,
			"-0.009": 0.296587669418,
			"-0.008": 0.69521753985,
			"-0.007": 3.38236031381,
			"-0.006": 8.50075915258,
			"-0.005": 21.396142739,
			"-0.004": 25.9235291434,
			"-0.003": 35.2202067048,
			"-0.002": 36.2574009027,
			"-0.001": 30.6075630032,
			"0.0": 28.330943038,
			"0.001": 27.1859465894,
			"0.002": 26.7572241051,
			"0.003": 23.6403436527,
			"0.004": 25.8513728473,
			"0.005": 23.2492878348,
			"0.006": 16.0647457835,
			"0.007": 8.3110577547,
			"0.008": 3.23479043936,
			"0.009": 2.05111127888,
			"0.01": 1.27110972671,
			"0.011": 0.989496661313,
			"0.012": 0.43798536707,
			"0.013": 0.0312504287345,
			"0.014": 0.0,
			"0.015": 0.0,
			"0.016": 0.0,
			"0.017": 0.0,
			"0.018": 0.0,
			"0.019": 0.0,
			"0.02": 0.0,
			"0.021": 0.0,
			"0.022": 0.0,
			"0.023": 0.0,
			"0.024": 0.0,
			"0.025": 0.0
		}
	}
}
