{
	 "smiles": "NC(CC1=CC=CC=C1)C(O)=O", 
	 "Tm": 545.15, 
	 "num_atms": 23, 
	 "gaussian": { 
		 "optdone": 1, 
		 "sigma_profile": "yes", 
		 "theory": "DFT", 
		 "functional": "B3LYP", 
		 "basiset": "6-31G**", 
		 "properties": { 
			 "R2extent": 3145.0585, 
			 "electric_dipole_moment_norm": 5.55001054143, 
			 "electric_quadrupole_moment_norm": 21.6509622303, 
			 "total_energy": -554.803990925, 
			 "HOMO_LUMO_gap": 0.23014, 
			 "cosmo_polarized_energy": -14.6, 
			 "cosmo_cavitation_energy": 26.48, 
			 "cosmo_dispersion_energy": -19.11, 
			 "cosmo_repulsion_energy": 1.54, 
			 "cosmo_total_nonelectrostatic_energy": 8.9, 
			 "SMD_solvation_energy": 5.06 
		},
		"coords": [
			{
				"x": 2.6055341919,
				"y": 1.3086052049,
				"z": 1.1563777747,
				"element": "N" 
			},
			{
				"x": 1.3998533796,
				"y": 1.2843849724,
				"z": 1.999903467,
				"element": "C" 
			},
			{
				"x": 0.1180416908,
				"y": 1.1725060272,
				"z": 1.1385833419,
				"element": "C" 
			},
			{
				"x": 0.0323584522,
				"y": -0.1238173693,
				"z": 0.3623607272,
				"element": "C" 
			},
			{
				"x": 0.3108908717,
				"y": -0.1628953331,
				"z": -1.0110112544,
				"element": "C" 
			},
			{
				"x": 0.2622978169,
				"y": -1.3666954663,
				"z": -1.7197229813,
				"element": "C" 
			},
			{
				"x": -0.0690957988,
				"y": -2.5510651841,
				"z": -1.0625177406,
				"element": "C" 
			},
			{
				"x": -0.3544546738,
				"y": -2.5249909517,
				"z": 0.3056197603,
				"element": "C" 
			},
			{
				"x": -0.3032347354,
				"y": -1.3230241674,
				"z": 1.0097534139,
				"element": "C" 
			},
			{
				"x": 1.3227444403,
				"y": 2.5944218805,
				"z": 2.8112072082,
				"element": "C" 
			},
			{
				"x": 2.1363023003,
				"y": 3.5570488078,
				"z": 2.35394395,
				"element": "O" 
			},
			{
				"x": 0.5678076623,
				"y": 2.7402195684,
				"z": 3.7443020557,
				"element": "O" 
			},
			{
				"x": 3.3984982525,
				"y": 0.9036722065,
				"z": 1.6467400179,
				"element": "H" 
			},
			{
				"x": 2.4671735846,
				"y": 0.7584846572,
				"z": 0.3122741894,
				"element": "H" 
			},
			{
				"x": 1.3989012408,
				"y": 0.4612445602,
				"z": 2.7255543945,
				"element": "H" 
			},
			{
				"x": -0.7318941228,
				"y": 1.2764816344,
				"z": 1.8195520345,
				"element": "H" 
			},
			{
				"x": 0.0877086984,
				"y": 2.0254738376,
				"z": 0.4502821126,
				"element": "H" 
			},
			{
				"x": 0.5506781429,
				"y": 0.7605045814,
				"z": -1.5337283831,
				"element": "H" 
			},
			{
				"x": 0.4768081957,
				"y": -1.3747594319,
				"z": -2.7846214187,
				"element": "H" 
			},
			{
				"x": -0.111738227,
				"y": -3.4873683487,
				"z": -1.6111847669,
				"element": "H" 
			},
			{
				"x": -0.622525572,
				"y": -3.442063663,
				"z": 0.8225954162,
				"element": "H" 
			},
			{
				"x": -0.5341158678,
				"y": -1.3102580972,
				"z": 2.0724325547,
				"element": "H" 
			},
			{
				"x": 2.6234600767,
				"y": 3.1308900743,
				"z": 1.6068041262,
				"element": "H" 
			}
		],
		 "valence_orbital": [ 
			{
				"type": "occ",
				"energy": -0.29919,
				"method": "rhf"
			},
			{
				"type": "occ",
				"energy": -0.29251,
				"method": "rhf"
			},
			{
				"type": "occ",
				"energy": -0.26297,
				"method": "rhf"
			},
			{
				"type": "occ",
				"energy": -0.25731,
				"method": "rhf"
			},
			{
				"type": "occ",
				"energy": -0.24897,
				"method": "rhf"
			},
			{
				"type": "unocc",
				"energy": -0.01883,
				"method": "rhf"
			},
			{
				"type": "unocc",
				"energy": -0.01436,
				"method": "rhf"
			},
			{
				"type": "unocc",
				"energy": 0.02441,
				"method": "rhf"
			},
			{
				"type": "unocc",
				"energy": 0.06542,
				"method": "rhf"
			},
			{
				"type": "unocc",
				"energy": 0.08451,
				"method": "rhf"
			}
		],
		"cosmo_sigma_profile": { 
			"-0.025": 0.0,
			"-0.024": 0.0,
			"-0.023": 0.0,
			"-0.022": 0.0,
			"-0.021": 0.0,
			"-0.02": 0.0,
			"-0.019": 0.0,
			"-0.018": 0.0,
			"-0.017": 0.0,
			"-0.016": 0.0,
			"-0.015": 0.0,
			"-0.014": 0.0,
			"-0.013": 0.0382615336968,
			"-0.012": 1.51808538278,
			"-0.011": 2.05531955802,
			"-0.01": 2.09351216067,
			"-0.009": 2.81601749042,
			"-0.008": 4.45719051685,
			"-0.007": 3.09665975958,
			"-0.006": 11.6496392535,
			"-0.005": 24.0689502349,
			"-0.004": 19.8116244553,
			"-0.003": 17.5358934116,
			"-0.002": 12.3521884158,
			"-0.001": 12.6567229122,
			"0.0": 8.26818558042,
			"0.001": 9.65735204988,
			"0.002": 9.97011658951,
			"0.003": 9.84679212484,
			"0.004": 9.79511105768,
			"0.005": 10.6385388872,
			"0.006": 8.12388710407,
			"0.007": 3.08191739105,
			"0.008": 2.45301809427,
			"0.009": 3.34047895005,
			"0.01": 4.07979266095,
			"0.011": 4.89696024622,
			"0.012": 5.29468294912,
			"0.013": 4.35061968751,
			"0.014": 1.13211370886,
			"0.015": 0.0,
			"0.016": 0.0,
			"0.017": 0.0,
			"0.018": 0.0,
			"0.019": 0.0,
			"0.02": 0.0,
			"0.021": 0.0,
			"0.022": 0.0,
			"0.023": 0.0,
			"0.024": 0.0,
			"0.025": 0.0
		}
	}
}
