{
	 "smiles": "CN1NC(N)=C2C1=NC=CC2=O", 
	 "Tm": 491.15, 
	 "num_atms": 20, 
	 "gaussian": { 
		 "optdone": 1, 
		 "sigma_profile": "yes", 
		 "theory": "DFT", 
		 "functional": "B3LYP", 
		 "basiset": "6-31G**", 
		 "properties": { 
			 "R2extent": 2567.962, 
			 "electric_dipole_moment_norm": 6.68468164089, 
			 "electric_quadrupole_moment_norm": 16.4942440566, 
			 "total_energy": -565.765896572, 
			 "HOMO_LUMO_gap": 0.15359, 
			 "cosmo_polarized_energy": -23.55, 
			 "cosmo_cavitation_energy": 23.76, 
			 "cosmo_dispersion_energy": -18.11, 
			 "cosmo_repulsion_energy": 1.44, 
			 "cosmo_total_nonelectrostatic_energy": 7.08, 
			 "SMD_solvation_energy": 2.57 
		},
		"coords": [
			{
				"x": -0.1368838237,
				"y": 0.909849864,
				"z": 2.6259917939,
				"element": "C" 
			},
			{
				"x": -0.0185613681,
				"y": 0.047418112,
				"z": 1.4552659897,
				"element": "N" 
			},
			{
				"x": 0.4364659464,
				"y": -1.2849075331,
				"z": 1.7097085837,
				"element": "N" 
			},
			{
				"x": -0.176917467,
				"y": -2.1202565924,
				"z": 0.7953696698,
				"element": "C" 
			},
			{
				"x": 0.1544921413,
				"y": -3.4076842535,
				"z": 0.5832707977,
				"element": "N" 
			},
			{
				"x": -1.1492116071,
				"y": -1.4122816633,
				"z": 0.1117479571,
				"element": "C" 
			},
			{
				"x": -1.0944902705,
				"y": -0.0760640053,
				"z": 0.5656134005,
				"element": "C" 
			},
			{
				"x": -1.9248860413,
				"y": 0.8891825697,
				"z": 0.2430849629,
				"element": "N" 
			},
			{
				"x": -2.8796314196,
				"y": 0.4714036195,
				"z": -0.6565340686,
				"element": "C" 
			},
			{
				"x": -3.0357490335,
				"y": -0.7893262617,
				"z": -1.1965148443,
				"element": "C" 
			},
			{
				"x": -2.1471240433,
				"y": -1.876010456,
				"z": -0.8302522207,
				"element": "C" 
			},
			{
				"x": -2.1834883712,
				"y": -3.0646070647,
				"z": -1.2195053491,
				"element": "O" 
			},
			{
				"x": -0.7582663283,
				"y": 0.4576915164,
				"z": 3.4088349333,
				"element": "H" 
			},
			{
				"x": -0.6054299569,
				"y": 1.8322730944,
				"z": 2.2805622997,
				"element": "H" 
			},
			{
				"x": 0.8541351707,
				"y": 1.1364499509,
				"z": 3.028303394,
				"element": "H" 
			},
			{
				"x": 1.4470990479,
				"y": -1.34094623,
				"z": 1.7966223621,
				"element": "H" 
			},
			{
				"x": -0.5003608104,
				"y": -3.865342318,
				"z": -0.0537762534,
				"element": "H" 
			},
			{
				"x": 0.599018039,
				"y": -3.9542383303,
				"z": 1.3051795414,
				"element": "H" 
			},
			{
				"x": -3.5769202181,
				"y": 1.2535423372,
				"z": -0.9522063075,
				"element": "H" 
			},
			{
				"x": -3.8422895864,
				"y": -0.9853463557,
				"z": -1.8949666425,
				"element": "H" 
			}
		],
		 "valence_orbital": [ 
			{
				"type": "occ",
				"energy": -0.2724,
				"method": "rhf"
			},
			{
				"type": "occ",
				"energy": -0.2573,
				"method": "rhf"
			},
			{
				"type": "occ",
				"energy": -0.24064,
				"method": "rhf"
			},
			{
				"type": "occ",
				"energy": -0.22046,
				"method": "rhf"
			},
			{
				"type": "occ",
				"energy": -0.1974,
				"method": "rhf"
			},
			{
				"type": "unocc",
				"energy": -0.04381,
				"method": "rhf"
			},
			{
				"type": "unocc",
				"energy": 0.02984,
				"method": "rhf"
			},
			{
				"type": "unocc",
				"energy": 0.04223,
				"method": "rhf"
			},
			{
				"type": "unocc",
				"energy": 0.05353,
				"method": "rhf"
			},
			{
				"type": "unocc",
				"energy": 0.07586,
				"method": "rhf"
			}
		],
		"cosmo_sigma_profile": { 
			"-0.025": 0.0,
			"-0.024": 0.0,
			"-0.023": 0.0,
			"-0.022": 0.0,
			"-0.021": 0.0,
			"-0.02": 0.0,
			"-0.019": 0.0,
			"-0.018": 0.0855053571262,
			"-0.017": 1.5091769695,
			"-0.016": 3.32576067854,
			"-0.015": 4.20977669544,
			"-0.014": 2.19655247908,
			"-0.013": 1.6209185296,
			"-0.012": 2.47228959191,
			"-0.011": 3.74840370725,
			"-0.01": 1.97405757624,
			"-0.009": 1.96718438816,
			"-0.008": 2.72494853208,
			"-0.007": 2.50381922097,
			"-0.006": 6.09314696206,
			"-0.005": 10.8985346907,
			"-0.004": 10.9496667034,
			"-0.003": 14.1895566548,
			"-0.002": 11.8551405203,
			"-0.001": 8.90319377191,
			"0.0": 8.55446108857,
			"0.001": 9.40051194101,
			"0.002": 11.9412462781,
			"0.003": 10.721057177,
			"0.004": 10.3544555111,
			"0.005": 10.2079573524,
			"0.006": 6.59048520278,
			"0.007": 3.4394607459,
			"0.008": 3.26656833427,
			"0.009": 2.93254502549,
			"0.01": 2.12740667016,
			"0.011": 2.45425783944,
			"0.012": 2.45639562803,
			"0.013": 2.98736110036,
			"0.014": 3.42098685237,
			"0.015": 3.79370297251,
			"0.016": 2.42000709751,
			"0.017": 0.988968127989,
			"0.018": 0.0120454930068,
			"0.019": 0.0,
			"0.02": 0.0,
			"0.021": 0.0,
			"0.022": 0.0,
			"0.023": 0.0,
			"0.024": 0.0,
			"0.025": 0.0
		}
	}
}
