{
	 "smiles": "OC1=CC=CC2=C1C(=O)C1=C(O)C=CC=C1C2=O", 
	 "Tm": 466.15, 
	 "num_atms": 26, 
	 "gaussian": { 
		 "optdone": 1, 
		 "sigma_profile": "yes", 
		 "theory": "DFT", 
		 "functional": "B3LYP", 
		 "basiset": "6-31G**", 
		 "properties": { 
			 "R2extent": 4401.8692, 
			 "electric_dipole_moment_norm": 0.43268378754, 
			 "electric_quadrupole_moment_norm": 14.5005497441, 
			 "total_energy": -839.243431448, 
			 "HOMO_LUMO_gap": 0.12362, 
			 "cosmo_polarized_energy": -9.25, 
			 "cosmo_cavitation_energy": 29.8, 
			 "cosmo_dispersion_energy": -23.0, 
			 "cosmo_repulsion_energy": 1.68, 
			 "cosmo_total_nonelectrostatic_energy": 8.48, 
			 "SMD_solvation_energy": 6.02 
		},
		"coords": [
			{
				"x": 2.3284654648,
				"y": -1.3091222826,
				"z": 0.6422409607,
				"element": "O" 
			},
			{
				"x": 1.92740859,
				"y": -0.6496301787,
				"z": -0.4502129741,
				"element": "C" 
			},
			{
				"x": 2.7338983987,
				"y": -0.7331292956,
				"z": -1.6016106041,
				"element": "C" 
			},
			{
				"x": 2.3669326419,
				"y": -0.0699059494,
				"z": -2.7620816371,
				"element": "C" 
			},
			{
				"x": 1.1919130499,
				"y": 0.6937461,
				"z": -2.8141170729,
				"element": "C" 
			},
			{
				"x": 0.3830772039,
				"y": 0.7883669559,
				"z": -1.6887612193,
				"element": "C" 
			},
			{
				"x": 0.7345860924,
				"y": 0.1199527724,
				"z": -0.4879305923,
				"element": "C" 
			},
			{
				"x": -0.1133965701,
				"y": 0.2170747284,
				"z": 0.6972008169,
				"element": "C" 
			},
			{
				"x": 0.2107829829,
				"y": -0.384698318,
				"z": 1.7633035087,
				"element": "O" 
			},
			{
				"x": -1.3379997924,
				"y": 1.0112539803,
				"z": 0.6453527236,
				"element": "C" 
			},
			{
				"x": -2.1711140441,
				"y": 1.1129091795,
				"z": 1.7908220464,
				"element": "C" 
			},
			{
				"x": -1.8877179545,
				"y": 0.5041808104,
				"z": 2.9477020941,
				"element": "O" 
			},
			{
				"x": -3.3485984789,
				"y": 1.8824543972,
				"z": 1.7241476184,
				"element": "C" 
			},
			{
				"x": -3.6918328658,
				"y": 2.5353946367,
				"z": 0.5506595309,
				"element": "C" 
			},
			{
				"x": -2.8788691849,
				"y": 2.444209276,
				"z": -0.5883363855,
				"element": "C" 
			},
			{
				"x": -1.7133412911,
				"y": 1.6898680636,
				"z": -0.5424827325,
				"element": "C" 
			},
			{
				"x": -0.8629817959,
				"y": 1.6063691389,
				"z": -1.7662973906,
				"element": "C" 
			},
			{
				"x": -1.1772057256,
				"y": 2.1885483435,
				"z": -2.798864214,
				"element": "O" 
			},
			{
				"x": 1.6505153137,
				"y": -1.1395982922,
				"z": 1.3430834835,
				"element": "H" 
			},
			{
				"x": 3.6395500865,
				"y": -1.3276749622,
				"z": -1.54542734,
				"element": "H" 
			},
			{
				"x": 2.9995440068,
				"y": -0.1441017764,
				"z": -3.6418487347,
				"element": "H" 
			},
			{
				"x": 0.8920803387,
				"y": 1.2177891612,
				"z": -3.714322983,
				"element": "H" 
			},
			{
				"x": -1.0371176737,
				"y": 0.0165030416,
				"z": 2.8129023406,
				"element": "H" 
			},
			{
				"x": -3.9667712352,
				"y": 1.9432130993,
				"z": 2.6135359909,
				"element": "H" 
			},
			{
				"x": -4.6032405148,
				"y": 3.1251098864,
				"z": 0.5150976297,
				"element": "H" 
			},
			{
				"x": -3.1342670431,
				"y": 2.9491174839,
				"z": -1.5128548644,
				"element": "H" 
			}
		],
		 "valence_orbital": [ 
			{
				"type": "occ",
				"energy": -0.28842,
				"method": "rhf"
			},
			{
				"type": "occ",
				"energy": -0.27387,
				"method": "rhf"
			},
			{
				"type": "occ",
				"energy": -0.26393,
				"method": "rhf"
			},
			{
				"type": "occ",
				"energy": -0.24562,
				"method": "rhf"
			},
			{
				"type": "occ",
				"energy": -0.23828,
				"method": "rhf"
			},
			{
				"type": "unocc",
				"energy": -0.11466,
				"method": "rhf"
			},
			{
				"type": "unocc",
				"energy": -0.05511,
				"method": "rhf"
			},
			{
				"type": "unocc",
				"energy": -0.02973,
				"method": "rhf"
			},
			{
				"type": "unocc",
				"energy": -0.00217,
				"method": "rhf"
			},
			{
				"type": "unocc",
				"energy": 0.0431,
				"method": "rhf"
			}
		],
		"cosmo_sigma_profile": { 
			"-0.025": 0.0,
			"-0.024": 0.0,
			"-0.023": 0.0,
			"-0.022": 0.0,
			"-0.021": 0.0,
			"-0.02": 0.0,
			"-0.019": 0.0,
			"-0.018": 0.0,
			"-0.017": 0.0,
			"-0.016": 0.0,
			"-0.015": 0.0,
			"-0.014": 0.0,
			"-0.013": 0.0,
			"-0.012": 0.0,
			"-0.011": 0.0,
			"-0.01": 0.0,
			"-0.009": 0.0193753945047,
			"-0.008": 2.45057085038,
			"-0.007": 10.6794749916,
			"-0.006": 13.2847158951,
			"-0.005": 15.5615442961,
			"-0.004": 16.623928163,
			"-0.003": 19.7303027535,
			"-0.002": 14.7670938249,
			"-0.001": 17.6363112428,
			"0.0": 24.7761742835,
			"0.001": 30.2027700843,
			"0.002": 25.1982964969,
			"0.003": 8.37728881155,
			"0.004": 5.90265202662,
			"0.005": 6.61122718693,
			"0.006": 3.94769270136,
			"0.007": 3.71460756989,
			"0.008": 4.67232707172,
			"0.009": 4.73164517274,
			"0.01": 6.41407241567,
			"0.011": 4.97791076479,
			"0.012": 1.00646143419,
			"0.013": 0.0,
			"0.014": 0.0,
			"0.015": 0.0,
			"0.016": 0.0,
			"0.017": 0.0,
			"0.018": 0.0,
			"0.019": 0.0,
			"0.02": 0.0,
			"0.021": 0.0,
			"0.022": 0.0,
			"0.023": 0.0,
			"0.024": 0.0,
			"0.025": 0.0
		}
	}
}
