{
	 "smiles": "CCCCCC1COC(OC1)C1=CC=C(C=C1)C#N", 
	 "Tm": 330.15, 
	 "num_atms": 40, 
	 "gaussian": { 
		 "optdone": 1, 
		 "sigma_profile": "yes", 
		 "theory": "DFT", 
		 "functional": "B3LYP", 
		 "basiset": "6-31G**", 
		 "properties": { 
			 "R2extent": 9905.9613, 
			 "electric_dipole_moment_norm": 6.17444949287, 
			 "electric_quadrupole_moment_norm": 27.751619765, 
			 "total_energy": -827.540048788, 
			 "HOMO_LUMO_gap": 0.20962, 
			 "cosmo_polarized_energy": -10.71, 
			 "cosmo_cavitation_energy": 42.45, 
			 "cosmo_dispersion_energy": -29.66, 
			 "cosmo_repulsion_energy": 2.33, 
			 "cosmo_total_nonelectrostatic_energy": 15.12, 
			 "SMD_solvation_energy": 7.8 
		},
		"coords": [
			{
				"x": 3.8856197182,
				"y": 0.5103765256,
				"z": -5.4018810005,
				"element": "C" 
			},
			{
				"x": 3.6847744195,
				"y": 1.2191676062,
				"z": -4.0587310245,
				"element": "C" 
			},
			{
				"x": 2.2116394508,
				"y": 1.5068182055,
				"z": -3.7399995339,
				"element": "C" 
			},
			{
				"x": 2.0113876192,
				"y": 2.2239249794,
				"z": -2.3972123613,
				"element": "C" 
			},
			{
				"x": 0.5508843027,
				"y": 2.5765475976,
				"z": -2.0679109874,
				"element": "C" 
			},
			{
				"x": -0.3660423748,
				"y": 1.3834308327,
				"z": -1.7422280186,
				"element": "C" 
			},
			{
				"x": -0.0963082438,
				"y": 0.7625021919,
				"z": -0.3539842522,
				"element": "C" 
			},
			{
				"x": -0.8735746209,
				"y": 1.4505284389,
				"z": 0.6350999599,
				"element": "O" 
			},
			{
				"x": -2.2623349781,
				"y": 1.2010926716,
				"z": 0.481262008,
				"element": "C" 
			},
			{
				"x": -2.61151045,
				"y": 0.9896326221,
				"z": -0.8687712989,
				"element": "O" 
			},
			{
				"x": -1.8464715451,
				"y": 1.8261753196,
				"z": -1.7403098763,
				"element": "C" 
			},
			{
				"x": -2.7309287539,
				"y": -0.0005222582,
				"z": 1.2915271099,
				"element": "C" 
			},
			{
				"x": -3.8141581945,
				"y": -0.7788105931,
				"z": 0.8660829279,
				"element": "C" 
			},
			{
				"x": -4.2639691574,
				"y": -1.8437866755,
				"z": 1.6406818179,
				"element": "C" 
			},
			{
				"x": -3.6301846112,
				"y": -2.1413540701,
				"z": 2.8588623537,
				"element": "C" 
			},
			{
				"x": -2.5431476695,
				"y": -1.3615379001,
				"z": 3.2883569838,
				"element": "C" 
			},
			{
				"x": -2.1024615483,
				"y": -0.2987398237,
				"z": 2.506211509,
				"element": "C" 
			},
			{
				"x": -4.0894938899,
				"y": -3.2388535179,
				"z": 3.6599006488,
				"element": "C" 
			},
			{
				"x": -4.4617219117,
				"y": -4.129281262,
				"z": 4.3096723841,
				"element": "N" 
			},
			{
				"x": 3.4958252729,
				"y": 1.1128458661,
				"z": -6.2303497792,
				"element": "H" 
			},
			{
				"x": 3.3657971824,
				"y": -0.4543467939,
				"z": -5.4231437015,
				"element": "H" 
			},
			{
				"x": 4.9455508954,
				"y": 0.3204555034,
				"z": -5.5996320454,
				"element": "H" 
			},
			{
				"x": 4.1159531056,
				"y": 0.6080741676,
				"z": -3.25401733,
				"element": "H" 
			},
			{
				"x": 4.2459033939,
				"y": 2.1635506069,
				"z": -4.0547693178,
				"element": "H" 
			},
			{
				"x": 1.6549514508,
				"y": 0.5597702899,
				"z": -3.751149132,
				"element": "H" 
			},
			{
				"x": 1.7803395476,
				"y": 2.1205024547,
				"z": -4.5441438298,
				"element": "H" 
			},
			{
				"x": 2.5972888932,
				"y": 3.15245037,
				"z": -2.4047976089,
				"element": "H" 
			},
			{
				"x": 2.4406855225,
				"y": 1.612034976,
				"z": -1.5913002935,
				"element": "H" 
			},
			{
				"x": 0.5236190755,
				"y": 3.2626754866,
				"z": -1.2108247795,
				"element": "H" 
			},
			{
				"x": 0.1252730536,
				"y": 3.1330711154,
				"z": -2.9155113101,
				"element": "H" 
			},
			{
				"x": -0.2336464625,
				"y": 0.5988293259,
				"z": -2.4971847821,
				"element": "H" 
			},
			{
				"x": 0.9452969279,
				"y": 0.8785041441,
				"z": -0.0453888469,
				"element": "H" 
			},
			{
				"x": -0.3370173602,
				"y": -0.3080976806,
				"z": -0.3484762669,
				"element": "H" 
			},
			{
				"x": -2.7468632341,
				"y": 2.1184278206,
				"z": 0.858183642,
				"element": "H" 
			},
			{
				"x": -1.931632734,
				"y": 2.8756585987,
				"z": -1.4203076189,
				"element": "H" 
			},
			{
				"x": -2.3020278996,
				"y": 1.734392534,
				"z": -2.7289658246,
				"element": "H" 
			},
			{
				"x": -4.2937492787,
				"y": -0.5512343589,
				"z": -0.0788615322,
				"element": "H" 
			},
			{
				"x": -5.1002561068,
				"y": -2.4506761035,
				"z": 1.309808558,
				"element": "H" 
			},
			{
				"x": -2.0530971321,
				"y": -1.5956755971,
				"z": 4.2275663168,
				"element": "H" 
			},
			{
				"x": -1.2579916745,
				"y": 0.3024763835,
				"z": 2.8253361333,
				"element": "H" 
			}
		],
		 "valence_orbital": [ 
			{
				"type": "occ",
				"energy": -0.30271,
				"method": "rhf"
			},
			{
				"type": "occ",
				"energy": -0.29038,
				"method": "rhf"
			},
			{
				"type": "occ",
				"energy": -0.27044,
				"method": "rhf"
			},
			{
				"type": "occ",
				"energy": -0.26177,
				"method": "rhf"
			},
			{
				"type": "occ",
				"energy": -0.25929,
				"method": "rhf"
			},
			{
				"type": "unocc",
				"energy": -0.04967,
				"method": "rhf"
			},
			{
				"type": "unocc",
				"energy": -0.01996,
				"method": "rhf"
			},
			{
				"type": "unocc",
				"energy": 0.04099,
				"method": "rhf"
			},
			{
				"type": "unocc",
				"energy": 0.07101,
				"method": "rhf"
			},
			{
				"type": "unocc",
				"energy": 0.07844,
				"method": "rhf"
			}
		],
		"cosmo_sigma_profile": { 
			"-0.025": 0.0,
			"-0.024": 0.0,
			"-0.023": 0.0,
			"-0.022": 0.0,
			"-0.021": 0.0,
			"-0.02": 0.0,
			"-0.019": 0.0,
			"-0.018": 0.0,
			"-0.017": 0.0,
			"-0.016": 0.0,
			"-0.015": 0.0,
			"-0.014": 0.0,
			"-0.013": 0.0,
			"-0.012": 0.0,
			"-0.011": 0.0,
			"-0.01": 0.0,
			"-0.009": 0.0,
			"-0.008": 2.6912816882,
			"-0.007": 4.60443328309,
			"-0.006": 9.99613539264,
			"-0.005": 14.887715689,
			"-0.004": 18.7006114589,
			"-0.003": 30.1951777888,
			"-0.002": 42.73336909,
			"-0.001": 45.3444339142,
			"0.0": 43.7854017424,
			"0.001": 35.8618076583,
			"0.002": 27.4173855052,
			"0.003": 12.0407644375,
			"0.004": 5.07332883164,
			"0.005": 5.55156503698,
			"0.006": 5.06538131043,
			"0.007": 4.07725608297,
			"0.008": 6.30039124358,
			"0.009": 6.18048141404,
			"0.01": 4.22593264974,
			"0.011": 3.21363338177,
			"0.012": 3.48429020905,
			"0.013": 1.72627921067,
			"0.014": 0.0927302498138,
			"0.015": 0.0,
			"0.016": 0.0,
			"0.017": 0.0,
			"0.018": 0.0,
			"0.019": 0.0,
			"0.02": 0.0,
			"0.021": 0.0,
			"0.022": 0.0,
			"0.023": 0.0,
			"0.024": 0.0,
			"0.025": 0.0
		}
	}
}
