{
	 "smiles": "NS(=O)(=O)C1=C(Cl)C(=CC(=C1)C(O)=O)[N+]([O-])=O", 
	 "Tm": 418.15, 
	 "num_atms": 22, 
	 "gaussian": { 
		 "optdone": 1, 
		 "sigma_profile": "yes", 
		 "theory": "DFT", 
		 "functional": "B3LYP", 
		 "basiset": "6-31G**", 
		 "properties": { 
			 "R2extent": 5187.7403, 
			 "electric_dipole_moment_norm": 6.11799240029, 
			 "electric_quadrupole_moment_norm": 27.3461090304, 
			 "total_energy": -1688.78839106, 
			 "HOMO_LUMO_gap": 0.18191, 
			 "cosmo_polarized_energy": -29.31, 
			 "cosmo_cavitation_energy": 31.55, 
			 "cosmo_dispersion_energy": -23.23, 
			 "cosmo_repulsion_energy": 1.76, 
			 "cosmo_total_nonelectrostatic_energy": 10.07, 
			 "SMD_solvation_energy": 8.43 
		},
		"coords": [
			{
				"x": -1.2127746579,
				"y": 2.8536615762,
				"z": -2.4780089727,
				"element": "N" 
			},
			{
				"x": -2.0176626193,
				"y": 2.0842728945,
				"z": -1.2039203826,
				"element": "S" 
			},
			{
				"x": -2.4891996004,
				"y": 3.1207025904,
				"z": -0.2889799756,
				"element": "O" 
			},
			{
				"x": -2.906138257,
				"y": 1.0886046611,
				"z": -1.7995408133,
				"element": "O" 
			},
			{
				"x": -0.6598797453,
				"y": 1.1960078218,
				"z": -0.3830626288,
				"element": "C" 
			},
			{
				"x": -0.918949672,
				"y": 0.4470312369,
				"z": 0.7811206922,
				"element": "C" 
			},
			{
				"x": -2.5255230348,
				"y": 0.3070540237,
				"z": 1.4024993312,
				"element": "Cl" 
			},
			{
				"x": 0.1629777207,
				"y": -0.218955581,
				"z": 1.3814477575,
				"element": "C" 
			},
			{
				"x": 1.4430213558,
				"y": -0.1685342771,
				"z": 0.8449467916,
				"element": "C" 
			},
			{
				"x": 1.6865376274,
				"y": 0.5717900867,
				"z": -0.3107999607,
				"element": "C" 
			},
			{
				"x": 0.6284832699,
				"y": 1.2613585264,
				"z": -0.9112095838,
				"element": "C" 
			},
			{
				"x": 3.0999029032,
				"y": 0.6173653029,
				"z": -0.8228991434,
				"element": "C" 
			},
			{
				"x": 3.2739244701,
				"y": 0.9842735608,
				"z": -2.1161479982,
				"element": "O" 
			},
			{
				"x": 4.0477285115,
				"y": 0.3497690886,
				"z": -0.1263614506,
				"element": "O" 
			},
			{
				"x": 0.0147905294,
				"y": -1.0099362965,
				"z": 2.6235563678,
				"element": "N" 
			},
			{
				"x": 0.6434816141,
				"y": -2.0639880047,
				"z": 2.67047704,
				"element": "O" 
			},
			{
				"x": -0.6811680503,
				"y": -0.5452557092,
				"z": 3.5169496269,
				"element": "O" 
			},
			{
				"x": -1.2737124037,
				"y": 3.8612996603,
				"z": -2.3534098623,
				"element": "H" 
			},
			{
				"x": -1.6326146957,
				"y": 2.5580088341,
				"z": -3.3559124802,
				"element": "H" 
			},
			{
				"x": 2.2529526542,
				"y": -0.7029505993,
				"z": 1.3266946044,
				"element": "H" 
			},
			{
				"x": 0.7766966628,
				"y": 1.8859831955,
				"z": -1.7848291166,
				"element": "H" 
			},
			{
				"x": 2.4329254171,
				"y": 0.9901374078,
				"z": -2.5936098427,
				"element": "H" 
			}
		],
		 "valence_orbital": [ 
			{
				"type": "occ",
				"energy": -0.32722,
				"method": "rhf"
			},
			{
				"type": "occ",
				"energy": -0.31525,
				"method": "rhf"
			},
			{
				"type": "occ",
				"energy": -0.30565,
				"method": "rhf"
			},
			{
				"type": "occ",
				"energy": -0.30269,
				"method": "rhf"
			},
			{
				"type": "occ",
				"energy": -0.29364,
				"method": "rhf"
			},
			{
				"type": "unocc",
				"energy": -0.11173,
				"method": "rhf"
			},
			{
				"type": "unocc",
				"energy": -0.09282,
				"method": "rhf"
			},
			{
				"type": "unocc",
				"energy": -0.05983,
				"method": "rhf"
			},
			{
				"type": "unocc",
				"energy": -0.01946,
				"method": "rhf"
			},
			{
				"type": "unocc",
				"energy": 0.00518,
				"method": "rhf"
			}
		],
		"cosmo_sigma_profile": { 
			"-0.025": 0.0,
			"-0.024": 0.0,
			"-0.023": 0.0,
			"-0.022": 0.0,
			"-0.021": 0.0,
			"-0.02": 0.658128953209,
			"-0.019": 1.05973794221,
			"-0.018": 0.996096335126,
			"-0.017": 1.19627947064,
			"-0.016": 1.74614751593,
			"-0.015": 3.78087854094,
			"-0.014": 3.44829008558,
			"-0.013": 3.98643088233,
			"-0.012": 3.21089816106,
			"-0.011": 3.57840620914,
			"-0.01": 2.96052995508,
			"-0.009": 5.30995566197,
			"-0.008": 6.6627840487,
			"-0.007": 7.44583176149,
			"-0.006": 9.5903627985,
			"-0.005": 14.2174796644,
			"-0.004": 15.2365091952,
			"-0.003": 15.6637369576,
			"-0.002": 11.0965456485,
			"-0.001": 9.31316627376,
			"0.0": 9.64277460774,
			"0.001": 10.3402747925,
			"0.002": 10.2725424088,
			"0.003": 7.82132197881,
			"0.004": 8.67587665826,
			"0.005": 10.4168592989,
			"0.006": 15.3494227808,
			"0.007": 14.4594040583,
			"0.008": 10.6228438172,
			"0.009": 12.6550560068,
			"0.01": 16.7364239468,
			"0.011": 6.18136167143,
			"0.012": 1.18173931989,
			"0.013": 0.0128850274494,
			"0.014": 0.0,
			"0.015": 0.0,
			"0.016": 0.0,
			"0.017": 0.0,
			"0.018": 0.0,
			"0.019": 0.0,
			"0.02": 0.0,
			"0.021": 0.0,
			"0.022": 0.0,
			"0.023": 0.0,
			"0.024": 0.0,
			"0.025": 0.0
		}
	}
}
