{
	 "smiles": "CCCCCC(C)Br", 
	 "Tm": 320.15, 
	 "num_atms": 23, 
	 "gaussian": { 
		 "optdone": 1, 
		 "sigma_profile": "yes", 
		 "theory": "DFT", 
		 "functional": "B3LYP", 
		 "basiset": "6-31G**", 
		 "properties": { 
			 "R2extent": 3394.6125, 
			 "electric_dipole_moment_norm": 2.27904939832, 
			 "electric_quadrupole_moment_norm": 10.760075489, 
			 "total_energy": -2847.2164764, 
			 "HOMO_LUMO_gap": 0.26714, 
			 "cosmo_polarized_energy": -3.94, 
			 "cosmo_cavitation_energy": 26.22, 
			 "cosmo_dispersion_energy": -19.1, 
			 "cosmo_repulsion_energy": 1.62, 
			 "cosmo_total_nonelectrostatic_energy": 8.73, 
			 "SMD_solvation_energy": 2.97 
		},
		"coords": [
			{
				"x": -2.4690820222,
				"y": 1.7205563511,
				"z": 1.7262013828,
				"element": "C" 
			},
			{
				"x": -2.388728982,
				"y": 0.8684742835,
				"z": 0.4555659381,
				"element": "C" 
			},
			{
				"x": -1.0880809919,
				"y": 0.0618946404,
				"z": 0.3485396227,
				"element": "C" 
			},
			{
				"x": -1.0233096509,
				"y": -0.8075883765,
				"z": -0.9168431344,
				"element": "C" 
			},
			{
				"x": 0.2488050764,
				"y": -1.6685712053,
				"z": -1.0603145325,
				"element": "C" 
			},
			{
				"x": 1.4350856131,
				"y": -1.0566653838,
				"z": -1.8117945736,
				"element": "C" 
			},
			{
				"x": 1.9715875025,
				"y": 0.266628691,
				"z": -1.2868166075,
				"element": "C" 
			},
			{
				"x": 0.959578865,
				"y": -0.8240025956,
				"z": -3.7571823985,
				"element": "Br" 
			},
			{
				"x": -2.4098547572,
				"y": 1.0975254639,
				"z": 2.6260767119,
				"element": "H" 
			},
			{
				"x": -3.4075759781,
				"y": 2.2825190322,
				"z": 1.7728482521,
				"element": "H" 
			},
			{
				"x": -1.6466372518,
				"y": 2.4437198324,
				"z": 1.7717721123,
				"element": "H" 
			},
			{
				"x": -3.2441634229,
				"y": 0.180023367,
				"z": 0.4209147013,
				"element": "H" 
			},
			{
				"x": -2.4858823474,
				"y": 1.5153788437,
				"z": -0.4268245705,
				"element": "H" 
			},
			{
				"x": -0.9902623484,
				"y": -0.5837047243,
				"z": 1.2335364698,
				"element": "H" 
			},
			{
				"x": -0.2358912516,
				"y": 0.7522257777,
				"z": 0.384687316,
				"element": "H" 
			},
			{
				"x": -1.1392849161,
				"y": -0.1829058453,
				"z": -1.8112174169,
				"element": "H" 
			},
			{
				"x": -1.8917058076,
				"y": -1.4781708305,
				"z": -0.9114395495,
				"element": "H" 
			},
			{
				"x": 0.0004313116,
				"y": -2.6112338207,
				"z": -1.5577761021,
				"element": "H" 
			},
			{
				"x": 0.6215605352,
				"y": -1.941893013,
				"z": -0.0610606269,
				"element": "H" 
			},
			{
				"x": 2.2386671557,
				"y": -1.7930612739,
				"z": -1.865130237,
				"element": "H" 
			},
			{
				"x": 2.8533693863,
				"y": 0.5807860587,
				"z": -1.8500905699,
				"element": "H" 
			},
			{
				"x": 1.225151256,
				"y": 1.0611375484,
				"z": -1.3549841179,
				"element": "H" 
			},
			{
				"x": 2.2579230262,
				"y": 0.1511271791,
				"z": -0.23386807,
				"element": "H" 
			}
		],
		 "valence_orbital": [ 
			{
				"type": "occ",
				"energy": -0.32417,
				"method": "rhf"
			},
			{
				"type": "occ",
				"energy": -0.31838,
				"method": "rhf"
			},
			{
				"type": "occ",
				"energy": -0.3149,
				"method": "rhf"
			},
			{
				"type": "occ",
				"energy": -0.26539,
				"method": "rhf"
			},
			{
				"type": "occ",
				"energy": -0.26403,
				"method": "rhf"
			},
			{
				"type": "unocc",
				"energy": 0.00311,
				"method": "rhf"
			},
			{
				"type": "unocc",
				"energy": 0.07941,
				"method": "rhf"
			},
			{
				"type": "unocc",
				"energy": 0.09378,
				"method": "rhf"
			},
			{
				"type": "unocc",
				"energy": 0.11437,
				"method": "rhf"
			},
			{
				"type": "unocc",
				"energy": 0.12175,
				"method": "rhf"
			}
		],
		"cosmo_sigma_profile": { 
			"-0.025": 0.0,
			"-0.024": 0.0,
			"-0.023": 0.0,
			"-0.022": 0.0,
			"-0.021": 0.0,
			"-0.02": 0.0,
			"-0.019": 0.0,
			"-0.018": 0.0,
			"-0.017": 0.0,
			"-0.016": 0.0,
			"-0.015": 0.0,
			"-0.014": 0.0,
			"-0.013": 0.0,
			"-0.012": 0.0,
			"-0.011": 0.0,
			"-0.01": 0.0,
			"-0.009": 0.0,
			"-0.008": 0.0,
			"-0.007": 0.236284890082,
			"-0.006": 2.0785942793,
			"-0.005": 4.50070889643,
			"-0.004": 11.4371690726,
			"-0.003": 16.5287108202,
			"-0.002": 31.1369954029,
			"-0.001": 36.6833719155,
			"0.0": 30.7263654606,
			"0.001": 23.5511118757,
			"0.002": 15.1651794593,
			"0.003": 5.42887666786,
			"0.004": 4.97569314158,
			"0.005": 5.62906252531,
			"0.006": 8.55393185531,
			"0.007": 8.45082713041,
			"0.008": 0.25779828786,
			"0.009": 0.0,
			"0.01": 0.0,
			"0.011": 0.0,
			"0.012": 0.0,
			"0.013": 0.0,
			"0.014": 0.0,
			"0.015": 0.0,
			"0.016": 0.0,
			"0.017": 0.0,
			"0.018": 0.0,
			"0.019": 0.0,
			"0.02": 0.0,
			"0.021": 0.0,
			"0.022": 0.0,
			"0.023": 0.0,
			"0.024": 0.0,
			"0.025": 0.0
		}
	}
}
