{
	 "smiles": "C(COC1=CC=CC=C1)OCCOC1=CC=CC=C1", 
	 "Tm": 339.15, 
	 "num_atms": 37, 
	 "gaussian": { 
		 "optdone": 1, 
		 "sigma_profile": "yes", 
		 "theory": "DFT", 
		 "functional": "B3LYP", 
		 "basiset": "6-31G**", 
		 "properties": { 
			 "R2extent": 9219.721, 
			 "electric_dipole_moment_norm": 1.87740063386, 
			 "electric_quadrupole_moment_norm": 7.84851612026, 
			 "total_energy": -846.180044585, 
			 "HOMO_LUMO_gap": 0.21095, 
			 "cosmo_polarized_energy": -12.25, 
			 "cosmo_cavitation_energy": 40.56, 
			 "cosmo_dispersion_energy": -28.67, 
			 "cosmo_repulsion_energy": 2.22, 
			 "cosmo_total_nonelectrostatic_energy": 14.12, 
			 "SMD_solvation_energy": 7.08 
		},
		"coords": [
			{
				"x": -1.0745048293,
				"y": 0.7369577758,
				"z": -0.3513645074,
				"element": "C" 
			},
			{
				"x": -2.6048358152,
				"y": 0.7917280828,
				"z": -0.4401064086,
				"element": "C" 
			},
			{
				"x": -3.0558735876,
				"y": 2.0318407481,
				"z": -0.9746027511,
				"element": "O" 
			},
			{
				"x": -3.1891949376,
				"y": 3.1275307766,
				"z": -0.1626709828,
				"element": "C" 
			},
			{
				"x": -2.9484282937,
				"y": 3.1457382014,
				"z": 1.2164714335,
				"element": "C" 
			},
			{
				"x": -3.13949991,
				"y": 4.3312099544,
				"z": 1.9340691687,
				"element": "C" 
			},
			{
				"x": -3.5631606189,
				"y": 5.495100027,
				"z": 1.2970637823,
				"element": "C" 
			},
			{
				"x": -3.7995158072,
				"y": 5.4687870495,
				"z": -0.0816641595,
				"element": "C" 
			},
			{
				"x": -3.6156885207,
				"y": 4.2977046746,
				"z": -0.8084641351,
				"element": "C" 
			},
			{
				"x": -0.6533259423,
				"y": -0.5644494349,
				"z": 0.0387678778,
				"element": "O" 
			},
			{
				"x": -0.4700711493,
				"y": -0.7484914532,
				"z": 1.4379940363,
				"element": "C" 
			},
			{
				"x": 0.9559101454,
				"y": -0.4822612647,
				"z": 1.9235264839,
				"element": "C" 
			},
			{
				"x": 1.8337225901,
				"y": -1.5903486645,
				"z": 1.7353764788,
				"element": "O" 
			},
			{
				"x": 2.7448306483,
				"y": -1.58892757,
				"z": 0.7071255897,
				"element": "C" 
			},
			{
				"x": 2.5178021321,
				"y": -0.9949321046,
				"z": -0.5386821,
				"element": "C" 
			},
			{
				"x": 3.5091627829,
				"y": -1.0646013922,
				"z": -1.521134775,
				"element": "C" 
			},
			{
				"x": 4.7113520655,
				"y": -1.7292889029,
				"z": -1.2800351953,
				"element": "C" 
			},
			{
				"x": 4.9202770036,
				"y": -2.3361269129,
				"z": -0.0380221369,
				"element": "C" 
			},
			{
				"x": 3.9469274724,
				"y": -2.263913169,
				"z": 0.9552933569,
				"element": "C" 
			},
			{
				"x": -0.6566819059,
				"y": 0.9351946246,
				"z": -1.3434747844,
				"element": "H" 
			},
			{
				"x": -0.6915335722,
				"y": 1.5101153693,
				"z": 0.3284245154,
				"element": "H" 
			},
			{
				"x": -3.0713052663,
				"y": 0.5803589393,
				"z": 0.5301437534,
				"element": "H" 
			},
			{
				"x": -2.942840576,
				"y": 0.0261919899,
				"z": -1.14296008,
				"element": "H" 
			},
			{
				"x": -2.6164105572,
				"y": 2.2571969445,
				"z": 1.7404160838,
				"element": "H" 
			},
			{
				"x": -2.9501232836,
				"y": 4.3344966558,
				"z": 3.0039760219,
				"element": "H" 
			},
			{
				"x": -3.7067458916,
				"y": 6.4103267455,
				"z": 1.8626597847,
				"element": "H" 
			},
			{
				"x": -4.1310304607,
				"y": 6.3670914227,
				"z": -0.5948701244,
				"element": "H" 
			},
			{
				"x": -3.7974744655,
				"y": 4.2590928835,
				"z": -1.8775728814,
				"element": "H" 
			},
			{
				"x": -0.7238695708,
				"y": -1.7900444685,
				"z": 1.6610404808,
				"element": "H" 
			},
			{
				"x": -1.1592977685,
				"y": -0.1062592098,
				"z": 2.0068579699,
				"element": "H" 
			},
			{
				"x": 0.92157068,
				"y": -0.3206958399,
				"z": 3.0083856367,
				"element": "H" 
			},
			{
				"x": 1.3639518811,
				"y": 0.4237654672,
				"z": 1.4580663945,
				"element": "H" 
			},
			{
				"x": 1.5609743334,
				"y": -0.5317438664,
				"z": -0.7467633752,
				"element": "H" 
			},
			{
				"x": 3.3274760688,
				"y": -0.6043649317,
				"z": -2.4886376784,
				"element": "H" 
			},
			{
				"x": 5.4738769292,
				"y": -1.7814358223,
				"z": -2.0511973528,
				"element": "H" 
			},
			{
				"x": 5.8503916338,
				"y": -2.860536969,
				"z": 0.1629762864,
				"element": "H" 
			},
			{
				"x": 4.0962863636,
				"y": -2.7182063558,
				"z": 1.9294882927,
				"element": "H" 
			}
		],
		 "valence_orbital": [ 
			{
				"type": "occ",
				"energy": -0.26776,
				"method": "rhf"
			},
			{
				"type": "occ",
				"energy": -0.25307,
				"method": "rhf"
			},
			{
				"type": "occ",
				"energy": -0.2435,
				"method": "rhf"
			},
			{
				"type": "occ",
				"energy": -0.221,
				"method": "rhf"
			},
			{
				"type": "occ",
				"energy": -0.21539,
				"method": "rhf"
			},
			{
				"type": "unocc",
				"energy": -0.00444,
				"method": "rhf"
			},
			{
				"type": "unocc",
				"energy": 0.00489,
				"method": "rhf"
			},
			{
				"type": "unocc",
				"energy": 0.01033,
				"method": "rhf"
			},
			{
				"type": "unocc",
				"energy": 0.01642,
				"method": "rhf"
			},
			{
				"type": "unocc",
				"energy": 0.05366,
				"method": "rhf"
			}
		],
		"cosmo_sigma_profile": { 
			"-0.025": 0.0,
			"-0.024": 0.0,
			"-0.023": 0.0,
			"-0.022": 0.0,
			"-0.021": 0.0,
			"-0.02": 0.0,
			"-0.019": 0.0,
			"-0.018": 0.0,
			"-0.017": 0.0,
			"-0.016": 0.0,
			"-0.015": 0.0,
			"-0.014": 0.0,
			"-0.013": 0.0,
			"-0.012": 0.0,
			"-0.011": 0.0,
			"-0.01": 0.0,
			"-0.009": 0.0598591291622,
			"-0.008": 1.56658275215,
			"-0.007": 3.99947708946,
			"-0.006": 16.3903977287,
			"-0.005": 33.1640752778,
			"-0.004": 33.7762439022,
			"-0.003": 35.8972264697,
			"-0.002": 25.189084716,
			"-0.001": 18.718900885,
			"0.0": 15.3483972012,
			"0.001": 13.1369277733,
			"0.002": 18.0711980096,
			"0.003": 18.4789818676,
			"0.004": 22.8573574263,
			"0.005": 24.0463619998,
			"0.006": 22.6507855774,
			"0.007": 6.66821454735,
			"0.008": 2.81923534229,
			"0.009": 2.5794747691,
			"0.01": 3.34189572661,
			"0.011": 2.09131584651,
			"0.012": 0.827911280068,
			"0.013": 0.24290549158,
			"0.014": 0.0,
			"0.015": 0.0,
			"0.016": 0.0,
			"0.017": 0.0,
			"0.018": 0.0,
			"0.019": 0.0,
			"0.02": 0.0,
			"0.021": 0.0,
			"0.022": 0.0,
			"0.023": 0.0,
			"0.024": 0.0,
			"0.025": 0.0
		}
	}
}
