{
	 "smiles": "COC(=O)C(N)C1=CC=C(OC)C=C1", 
	 "Tm": 333.15, 
	 "num_atms": 27, 
	 "gaussian": { 
		 "optdone": 1, 
		 "sigma_profile": "no", 
		 "theory": "DFT", 
		 "functional": "B3LYP", 
		 "basiset": "6-31G**", 
		 "properties": { 
			 "R2extent": 3753.1358, 
			 "electric_dipole_moment_norm": 2.57259997085, 
			 "electric_quadrupole_moment_norm": 19.9248086156, 
			 "total_energy": -669.309392543, 
			 "HOMO_LUMO_gap": 0.20886, 
			 "cosmo_polarized_energy": -11.46, 
			 "cosmo_cavitation_energy": 30.97, 
			 "cosmo_dispersion_energy": -21.94, 
			 "cosmo_repulsion_energy": 1.76, 
			 "cosmo_total_nonelectrostatic_energy": 10.79, 
			 "SMD_solvation_energy": 6.43 
		},
		"coords": [
			{
				"x": -0.5522004257,
				"y": -2.8733210369,
				"z": -2.7792833106,
				"element": "C" 
			},
			{
				"x": 0.1623357944,
				"y": -2.1910803956,
				"z": -1.7348716039,
				"element": "O" 
			},
			{
				"x": 0.6870607176,
				"y": -0.9917097042,
				"z": -2.0807381672,
				"element": "C" 
			},
			{
				"x": 0.5715508595,
				"y": -0.5042932213,
				"z": -3.1819630439,
				"element": "O" 
			},
			{
				"x": 1.386004415,
				"y": -0.3232442401,
				"z": -0.8962499895,
				"element": "C" 
			},
			{
				"x": 2.1902562981,
				"y": -1.3113176481,
				"z": -0.1688294742,
				"element": "N" 
			},
			{
				"x": 0.3589402904,
				"y": 0.4557019156,
				"z": -0.0699044677,
				"element": "C" 
			},
			{
				"x": 0.3561698713,
				"y": 1.8512683297,
				"z": -0.076006413,
				"element": "C" 
			},
			{
				"x": -0.559627735,
				"y": 2.5877926307,
				"z": 0.6821069593,
				"element": "C" 
			},
			{
				"x": -1.5018158187,
				"y": 1.9148951267,
				"z": 1.4667265013,
				"element": "C" 
			},
			{
				"x": -2.4412294152,
				"y": 2.5220971381,
				"z": 2.2481462699,
				"element": "O" 
			},
			{
				"x": -2.4846781192,
				"y": 3.9399955043,
				"z": 2.2651261349,
				"element": "C" 
			},
			{
				"x": -1.5144931275,
				"y": 0.5105404322,
				"z": 1.4800942909,
				"element": "C" 
			},
			{
				"x": -0.5980680649,
				"y": -0.203001905,
				"z": 0.7212850213,
				"element": "C" 
			},
			{
				"x": 0.1066226249,
				"y": -3.067735917,
				"z": -3.6288639973,
				"element": "H" 
			},
			{
				"x": -0.8965162692,
				"y": -3.8091993362,
				"z": -2.3393161576,
				"element": "H" 
			},
			{
				"x": -1.3995272094,
				"y": -2.2727138082,
				"z": -3.1189886558,
				"element": "H" 
			},
			{
				"x": 2.066750305,
				"y": 0.4028144756,
				"z": -1.3510406103,
				"element": "H" 
			},
			{
				"x": 2.5564399248,
				"y": -0.882007856,
				"z": 0.6774220943,
				"element": "H" 
			},
			{
				"x": 1.599767952,
				"y": -2.085898894,
				"z": 0.1210766069,
				"element": "H" 
			},
			{
				"x": 1.0830372663,
				"y": 2.384239263,
				"z": -0.6841193409,
				"element": "H" 
			},
			{
				"x": -0.5256817721,
				"y": 3.6704140905,
				"z": 0.6528042501,
				"element": "H" 
			},
			{
				"x": -3.3002092937,
				"y": 4.2089214444,
				"z": 2.9382337661,
				"element": "H" 
			},
			{
				"x": -2.6893913009,
				"y": 4.3511628715,
				"z": 1.268182883,
				"element": "H" 
			},
			{
				"x": -1.5483602918,
				"y": 4.3700126204,
				"z": 2.643920885,
				"element": "H" 
			},
			{
				"x": -2.2557985501,
				"y": 0.0065656324,
				"z": 2.0918797475,
				"element": "H" 
			},
			{
				"x": -0.6286389258,
				"y": -1.2887975124,
				"z": 0.7366698214,
				"element": "H" 
			}
		],
		 "valence_orbital": [ 
			{
				"type": "occ",
				"energy": -0.30091,
				"method": "rhf"
			},
			{
				"type": "occ",
				"energy": -0.27238,
				"method": "rhf"
			},
			{
				"type": "occ",
				"energy": -0.25377,
				"method": "rhf"
			},
			{
				"type": "occ",
				"energy": -0.24097,
				"method": "rhf"
			},
			{
				"type": "occ",
				"energy": -0.21573,
				"method": "rhf"
			},
			{
				"type": "unocc",
				"energy": -0.00687,
				"method": "rhf"
			},
			{
				"type": "unocc",
				"energy": -0.00299,
				"method": "rhf"
			},
			{
				"type": "unocc",
				"energy": 0.0322,
				"method": "rhf"
			},
			{
				"type": "unocc",
				"energy": 0.08448,
				"method": "rhf"
			},
			{
				"type": "unocc",
				"energy": 0.0969,
				"method": "rhf"
			}
		],
		"cosmo_sigma_profile": { 
			"0.0": 0.0,
			"0.0": 0.0,
			"0.0": 0.0,
			"0.0": 0.0,
			"0.0": 0.0,
			"0.0": 0.0,
			"0.0": 0.0,
			"0.0": 0.0,
			"0.0": 0.0,
			"0.0": 0.0,
			"0.0": 0.0,
			"0.0": 0.0,
			"0.0": 0.0,
			"0.0": 0.0,
			"0.0": 0.0,
			"0.0": 0.0,
			"0.0": 0.0,
			"0.0": 0.0,
			"0.0": 0.0,
			"0.0": 0.0,
			"0.0": 0.0,
			"0.0": 0.0,
			"0.0": 0.0,
			"0.0": 0.0,
			"0.0": 0.0,
			"0.0": 0.0,
			"0.0": 0.0,
			"0.0": 0.0,
			"0.0": 0.0,
			"0.0": 0.0,
			"0.0": 0.0,
			"0.0": 0.0,
			"0.0": 0.0,
			"0.0": 0.0,
			"0.0": 0.0,
			"0.0": 0.0,
			"0.0": 0.0,
			"0.0": 0.0,
			"0.0": 0.0,
			"0.0": 0.0,
			"0.0": 0.0,
			"0.0": 0.0,
			"0.0": 0.0,
			"0.0": 0.0,
			"0.0": 0.0,
			"0.0": 0.0,
			"0.0": 0.0,
			"0.0": 0.0,
			"0.0": 0.0,
			"0.0": 0.0,
			"0.0": 0.0
		}
	}
}
