{
	 "smiles": "CC(O)C1=NC2=C(C=CC=C2)N1C(F)F", 
	 "Tm": 370.15, 
	 "num_atms": 25, 
	 "gaussian": { 
		 "optdone": 1, 
		 "sigma_profile": "yes", 
		 "theory": "DFT", 
		 "functional": "B3LYP", 
		 "basiset": "6-31G**", 
		 "properties": { 
			 "R2extent": 3160.3727, 
			 "electric_dipole_moment_norm": 1.09838084925, 
			 "electric_quadrupole_moment_norm": 5.84813807806, 
			 "total_energy": -771.502723976, 
			 "HOMO_LUMO_gap": 0.20369, 
			 "cosmo_polarized_energy": -10.7, 
			 "cosmo_cavitation_energy": 29.29, 
			 "cosmo_dispersion_energy": -20.92, 
			 "cosmo_repulsion_energy": 1.59, 
			 "cosmo_total_nonelectrostatic_energy": 9.96, 
			 "SMD_solvation_energy": 3.97 
		},
		"coords": [
			{
				"x": -0.077625224,
				"y": 3.7203250173,
				"z": 0.6349716836,
				"element": "C" 
			},
			{
				"x": 0.3791038363,
				"y": 2.3037877491,
				"z": 0.9674729323,
				"element": "C" 
			},
			{
				"x": 0.1256641039,
				"y": 1.9631417528,
				"z": 2.3383402441,
				"element": "O" 
			},
			{
				"x": -0.2258270277,
				"y": 1.2783868782,
				"z": 0.0353446547,
				"element": "C" 
			},
			{
				"x": -0.983942569,
				"y": 1.5546836071,
				"z": -0.9913659571,
				"element": "N" 
			},
			{
				"x": -1.2880796181,
				"y": 0.3304796512,
				"z": -1.5774006848,
				"element": "C" 
			},
			{
				"x": -0.6836648514,
				"y": -0.7232220809,
				"z": -0.8591380204,
				"element": "C" 
			},
			{
				"x": -0.8273331373,
				"y": -2.0624283527,
				"z": -1.2252183672,
				"element": "C" 
			},
			{
				"x": -1.599688539,
				"y": -2.3169925014,
				"z": -2.3561545609,
				"element": "C" 
			},
			{
				"x": -2.2108997401,
				"y": -1.2779235295,
				"z": -3.0858463483,
				"element": "C" 
			},
			{
				"x": -2.066132834,
				"y": 0.052818376,
				"z": -2.7076026632,
				"element": "C" 
			},
			{
				"x": -0.0081001959,
				"y": -0.0948434183,
				"z": 0.1904721288,
				"element": "N" 
			},
			{
				"x": 0.8302477975,
				"y": -0.7354325816,
				"z": 1.1482999161,
				"element": "C" 
			},
			{
				"x": 1.97454938,
				"y": -1.1863179004,
				"z": 0.5565984232,
				"element": "F" 
			},
			{
				"x": 0.1924305935,
				"y": -1.8335513016,
				"z": 1.6427575736,
				"element": "F" 
			},
			{
				"x": 0.202279162,
				"y": 3.9923884373,
				"z": -0.3849813303,
				"element": "H" 
			},
			{
				"x": 0.3834822192,
				"y": 4.4185076409,
				"z": 1.3379028244,
				"element": "H" 
			},
			{
				"x": -1.1664296732,
				"y": 3.8024481536,
				"z": 0.7064673903,
				"element": "H" 
			},
			{
				"x": 1.4724526654,
				"y": 2.2504830902,
				"z": 0.8839106678,
				"element": "H" 
			},
			{
				"x": -0.829451765,
				"y": 2.0250683703,
				"z": 2.4826471163,
				"element": "H" 
			},
			{
				"x": -0.3623115836,
				"y": -2.861353545,
				"z": -0.6605645275,
				"element": "H" 
			},
			{
				"x": -1.7353445669,
				"y": -3.3441118003,
				"z": -2.6814968557,
				"element": "H" 
			},
			{
				"x": -2.8061772435,
				"y": -1.5252132228,
				"z": -3.9596943628,
				"element": "H" 
			},
			{
				"x": -2.5331540248,
				"y": 0.8603914771,
				"z": -3.2617055697,
				"element": "H" 
			},
			{
				"x": 1.0725528357,
				"y": -0.0537199667,
				"z": 1.9631836923,
				"element": "H" 
			}
		],
		 "valence_orbital": [ 
			{
				"type": "occ",
				"energy": -0.31188,
				"method": "rhf"
			},
			{
				"type": "occ",
				"energy": -0.30062,
				"method": "rhf"
			},
			{
				"type": "occ",
				"energy": -0.27935,
				"method": "rhf"
			},
			{
				"type": "occ",
				"energy": -0.23547,
				"method": "rhf"
			},
			{
				"type": "occ",
				"energy": -0.2318,
				"method": "rhf"
			},
			{
				"type": "unocc",
				"energy": -0.02811,
				"method": "rhf"
			},
			{
				"type": "unocc",
				"energy": 0.00787,
				"method": "rhf"
			},
			{
				"type": "unocc",
				"energy": 0.03508,
				"method": "rhf"
			},
			{
				"type": "unocc",
				"energy": 0.07527,
				"method": "rhf"
			},
			{
				"type": "unocc",
				"energy": 0.09511,
				"method": "rhf"
			}
		],
		"cosmo_sigma_profile": { 
			"-0.025": 0.0,
			"-0.024": 0.0,
			"-0.023": 0.0,
			"-0.022": 0.0,
			"-0.021": 0.0,
			"-0.02": 0.0,
			"-0.019": 0.0,
			"-0.018": 0.0,
			"-0.017": 0.0974117311082,
			"-0.016": 0.879639770875,
			"-0.015": 1.08159429085,
			"-0.014": 0.69551639786,
			"-0.013": 0.905287007797,
			"-0.012": 1.65540954765,
			"-0.011": 0.421991686479,
			"-0.01": 0.840814382672,
			"-0.009": 3.0288409111,
			"-0.008": 3.48417185495,
			"-0.007": 5.34925885261,
			"-0.006": 9.88656808379,
			"-0.005": 12.5345170957,
			"-0.004": 16.169115948,
			"-0.003": 17.5830224896,
			"-0.002": 15.501405478,
			"-0.001": 15.740418394,
			"0.0": 16.5576117243,
			"0.001": 14.0541812408,
			"0.002": 16.0070594243,
			"0.003": 23.8424301541,
			"0.004": 25.4970404718,
			"0.005": 11.3960909036,
			"0.006": 3.96787861247,
			"0.007": 2.69377485241,
			"0.008": 1.94120685665,
			"0.009": 2.18901343975,
			"0.01": 2.06939027182,
			"0.011": 2.10918767358,
			"0.012": 2.01283493022,
			"0.013": 1.27623995143,
			"0.014": 0.865999766742,
			"0.015": 0.679370090877,
			"0.016": 0.175808885082,
			"0.017": 0.0,
			"0.018": 0.0,
			"0.019": 0.0,
			"0.02": 0.0,
			"0.021": 0.0,
			"0.022": 0.0,
			"0.023": 0.0,
			"0.024": 0.0,
			"0.025": 0.0
		}
	}
}
