{
	 "smiles": "COC1=CC(=CC(OC)=C1OC)C1=NN=C2SCC(=NN12)C1=CC=CC=C1", 
	 "Tm": 470.15, 
	 "num_atms": 45, 
	 "gaussian": { 
		 "optdone": 1, 
		 "sigma_profile": "yes", 
		 "theory": "DFT", 
		 "functional": "B3LYP", 
		 "basiset": "6-31G**", 
		 "properties": { 
			 "R2extent": 13120.4118, 
			 "electric_dipole_moment_norm": 6.74249691212, 
			 "electric_quadrupole_moment_norm": 34.3953656137, 
			 "total_energy": -1577.62821533, 
			 "HOMO_LUMO_gap": 0.12195, 
			 "cosmo_polarized_energy": -24.03, 
			 "cosmo_cavitation_energy": 50.72, 
			 "cosmo_dispersion_energy": -35.11, 
			 "cosmo_repulsion_energy": 2.59, 
			 "cosmo_total_nonelectrostatic_energy": 18.2, 
			 "SMD_solvation_energy": 7.76 
		},
		"coords": [
			{
				"x": -4.002069509,
				"y": -4.2905711546,
				"z": -1.0502979031,
				"element": "C" 
			},
			{
				"x": -2.5822791223,
				"y": -4.3091209074,
				"z": -1.0054456426,
				"element": "O" 
			},
			{
				"x": -1.9309458879,
				"y": -3.1166759024,
				"z": -0.8893126476,
				"element": "C" 
			},
			{
				"x": -2.5655784205,
				"y": -1.8809807652,
				"z": -0.7672323029,
				"element": "C" 
			},
			{
				"x": -1.7982107516,
				"y": -0.7099092035,
				"z": -0.6533288682,
				"element": "C" 
			},
			{
				"x": -0.3977303089,
				"y": -0.7766674583,
				"z": -0.6636302249,
				"element": "C" 
			},
			{
				"x": 0.2338662231,
				"y": -2.0207987114,
				"z": -0.7741998374,
				"element": "C" 
			},
			{
				"x": 1.5864906304,
				"y": -2.1949181869,
				"z": -0.7756891881,
				"element": "O" 
			},
			{
				"x": 2.4079738009,
				"y": -1.0409076576,
				"z": -0.7220042619,
				"element": "C" 
			},
			{
				"x": -0.5242022972,
				"y": -3.1979657356,
				"z": -0.8982041048,
				"element": "C" 
			},
			{
				"x": 0.1118902934,
				"y": -4.3959443929,
				"z": -1.081547635,
				"element": "O" 
			},
			{
				"x": 0.1763491358,
				"y": -5.229526056,
				"z": 0.0770619759,
				"element": "C" 
			},
			{
				"x": -2.5366109359,
				"y": 0.5526778118,
				"z": -0.5488477297,
				"element": "C" 
			},
			{
				"x": -3.8268454706,
				"y": 0.6771001161,
				"z": -0.786273866,
				"element": "N" 
			},
			{
				"x": -4.1955254742,
				"y": 1.9994618037,
				"z": -0.6156664997,
				"element": "N" 
			},
			{
				"x": -3.1146854718,
				"y": 2.6572679783,
				"z": -0.292475511,
				"element": "C" 
			},
			{
				"x": -2.9498060209,
				"y": 4.3405115252,
				"z": 0.1554933454,
				"element": "S" 
			},
			{
				"x": -1.1776173344,
				"y": 4.431800566,
				"z": -0.3329682975,
				"element": "C" 
			},
			{
				"x": -0.3789666101,
				"y": 3.3047396277,
				"z": 0.2906426348,
				"element": "C" 
			},
			{
				"x": -0.7769781015,
				"y": 2.0734213635,
				"z": 0.2809621571,
				"element": "N" 
			},
			{
				"x": -2.0201638637,
				"y": 1.8092376149,
				"z": -0.2369567726,
				"element": "N" 
			},
			{
				"x": 0.9344496486,
				"y": 3.5723549436,
				"z": 0.9217334165,
				"element": "C" 
			},
			{
				"x": 1.4693631255,
				"y": 2.6543705497,
				"z": 1.8453130997,
				"element": "C" 
			},
			{
				"x": 2.7136341914,
				"y": 2.879325012,
				"z": 2.4252670494,
				"element": "C" 
			},
			{
				"x": 3.4491220018,
				"y": 4.0221034173,
				"z": 2.0960828427,
				"element": "C" 
			},
			{
				"x": 2.9296096061,
				"y": 4.938466701,
				"z": 1.1816567003,
				"element": "C" 
			},
			{
				"x": 1.6803357163,
				"y": 4.7190027241,
				"z": 0.6014748628,
				"element": "C" 
			},
			{
				"x": -4.3105246687,
				"y": -5.3303479668,
				"z": -1.1692505564,
				"element": "H" 
			},
			{
				"x": -4.3703710357,
				"y": -3.7029314009,
				"z": -1.9000096775,
				"element": "H" 
			},
			{
				"x": -4.4322398285,
				"y": -3.8881475862,
				"z": -0.1245108029,
				"element": "H" 
			},
			{
				"x": -3.6432134268,
				"y": -1.791921184,
				"z": -0.7638109248,
				"element": "H" 
			},
			{
				"x": 0.182991277,
				"y": 0.1278992602,
				"z": -0.569479436,
				"element": "H" 
			},
			{
				"x": 2.2528436921,
				"y": -0.4683963068,
				"z": 0.2019061702,
				"element": "H" 
			},
			{
				"x": 3.4365335411,
				"y": -1.4045572423,
				"z": -0.7501890447,
				"element": "H" 
			},
			{
				"x": 2.235809847,
				"y": -0.3800142862,
				"z": -1.5814307112,
				"element": "H" 
			},
			{
				"x": -0.8252879189,
				"y": -5.5046281533,
				"z": 0.4248229829,
				"element": "H" 
			},
			{
				"x": 0.7258473212,
				"y": -4.7347200563,
				"z": 0.8877313135,
				"element": "H" 
			},
			{
				"x": 0.7152546368,
				"y": -6.130518744,
				"z": -0.223959082,
				"element": "H" 
			},
			{
				"x": -1.1066990592,
				"y": 4.392428449,
				"z": -1.4258990453,
				"element": "H" 
			},
			{
				"x": -0.825413635,
				"y": 5.4049867487,
				"z": 0.0052593285,
				"element": "H" 
			},
			{
				"x": 0.8886564038,
				"y": 1.7765048388,
				"z": 2.1053330419,
				"element": "H" 
			},
			{
				"x": 3.1077399387,
				"y": 2.1672735591,
				"z": 3.1443624463,
				"element": "H" 
			},
			{
				"x": 4.4180038957,
				"y": 4.1982477266,
				"z": 2.5538159132,
				"element": "H" 
			},
			{
				"x": 3.4958501297,
				"y": 5.8262139383,
				"z": 0.9165309329,
				"element": "H" 
			},
			{
				"x": 1.3044500969,
				"y": 5.4371727831,
				"z": -0.1204296402,
				"element": "H" 
			}
		],
		 "valence_orbital": [ 
			{
				"type": "occ",
				"energy": -0.25273,
				"method": "rhf"
			},
			{
				"type": "occ",
				"energy": -0.25103,
				"method": "rhf"
			},
			{
				"type": "occ",
				"energy": -0.2394,
				"method": "rhf"
			},
			{
				"type": "occ",
				"energy": -0.21562,
				"method": "rhf"
			},
			{
				"type": "occ",
				"energy": -0.20122,
				"method": "rhf"
			},
			{
				"type": "unocc",
				"energy": -0.07927,
				"method": "rhf"
			},
			{
				"type": "unocc",
				"energy": -0.02613,
				"method": "rhf"
			},
			{
				"type": "unocc",
				"energy": -0.02485,
				"method": "rhf"
			},
			{
				"type": "unocc",
				"energy": -0.00874,
				"method": "rhf"
			},
			{
				"type": "unocc",
				"energy": 0.02285,
				"method": "rhf"
			}
		],
		"cosmo_sigma_profile": { 
			"-0.025": 0.0,
			"-0.024": 0.0,
			"-0.023": 0.0,
			"-0.022": 0.0,
			"-0.021": 0.0,
			"-0.02": 0.0,
			"-0.019": 0.0,
			"-0.018": 0.0,
			"-0.017": 0.0,
			"-0.016": 0.0,
			"-0.015": 0.0,
			"-0.014": 0.0,
			"-0.013": 0.0,
			"-0.012": 0.0,
			"-0.011": 0.0151926775619,
			"-0.01": 2.31015016333,
			"-0.009": 5.65426003482,
			"-0.008": 6.61320514871,
			"-0.007": 8.3230671054,
			"-0.006": 20.4406715054,
			"-0.005": 32.2766095475,
			"-0.004": 36.5529856335,
			"-0.003": 42.2797799118,
			"-0.002": 31.6369259161,
			"-0.001": 26.0684177895,
			"0.0": 24.3164857642,
			"0.001": 25.8102138996,
			"0.002": 28.3504072828,
			"0.003": 28.3393354572,
			"0.004": 29.0649134969,
			"0.005": 12.009475123,
			"0.006": 6.58470524908,
			"0.007": 4.39331094357,
			"0.008": 5.33435115286,
			"0.009": 4.90938822345,
			"0.01": 4.53620786765,
			"0.011": 5.6814719871,
			"0.012": 6.26016256492,
			"0.013": 4.44714023248,
			"0.014": 3.34072649908,
			"0.015": 2.15279213906,
			"0.016": 0.570640641577,
			"0.017": 0.0,
			"0.018": 0.0,
			"0.019": 0.0,
			"0.02": 0.0,
			"0.021": 0.0,
			"0.022": 0.0,
			"0.023": 0.0,
			"0.024": 0.0,
			"0.025": 0.0
		}
	}
}
