{
	 "smiles": "OC1=C(C2CC(CC3=CC=CC=C23)C2=CC=C(C=C2)C2=CC=C(Br)C=C2)C(=O)C2=CC=CC=C2O1", 
	 "Tm": 503.15, 
	 "num_atms": 58, 
	 "gaussian": { 
		 "optdone": 1, 
		 "sigma_profile": "yes", 
		 "theory": "DFT", 
		 "functional": "B3LYP", 
		 "basiset": "6-31G**", 
		 "properties": { 
			 "R2extent": 31219.1436, 
			 "electric_dipole_moment_norm": 4.96577674186, 
			 "electric_quadrupole_moment_norm": 35.344556865, 
			 "total_energy": -3992.25961693, 
			 "HOMO_LUMO_gap": 0.16562, 
			 "cosmo_polarized_energy": -20.92, 
			 "cosmo_cavitation_energy": 62.69, 
			 "cosmo_dispersion_energy": -43.31, 
			 "cosmo_repulsion_energy": 3.2, 
			 "cosmo_total_nonelectrostatic_energy": 22.58, 
			 "SMD_solvation_energy": 9.58 
		},
		"coords": [
			{
				"x": 0.8591110294,
				"y": -2.6693050073,
				"z": 0.0254459173,
				"element": "O" 
			},
			{
				"x": -0.2344278842,
				"y": -3.1894087176,
				"z": -0.5544756778,
				"element": "C" 
			},
			{
				"x": -1.3499181631,
				"y": -2.4633057034,
				"z": -0.8367444687,
				"element": "C" 
			},
			{
				"x": -1.419920005,
				"y": -0.9785818722,
				"z": -0.5218312714,
				"element": "C" 
			},
			{
				"x": -1.5182167206,
				"y": -0.1530612429,
				"z": -1.8221348914,
				"element": "C" 
			},
			{
				"x": -1.7368967716,
				"y": 1.3523245772,
				"z": -1.5494087345,
				"element": "C" 
			},
			{
				"x": -3.0678557582,
				"y": 1.5184107021,
				"z": -0.7953348328,
				"element": "C" 
			},
			{
				"x": -3.2579952395,
				"y": 0.5646468698,
				"z": 0.3711306328,
				"element": "C" 
			},
			{
				"x": -4.2086700345,
				"y": 0.8763083555,
				"z": 1.3545266912,
				"element": "C" 
			},
			{
				"x": -4.4464244687,
				"y": 0.0282921328,
				"z": 2.4326512072,
				"element": "C" 
			},
			{
				"x": -3.717378997,
				"y": -1.1569016622,
				"z": 2.5435842375,
				"element": "C" 
			},
			{
				"x": -2.7685355933,
				"y": -1.4738560492,
				"z": 1.5750960677,
				"element": "C" 
			},
			{
				"x": -2.5285156743,
				"y": -0.6336578797,
				"z": 0.4787562432,
				"element": "C" 
			},
			{
				"x": -0.5261196903,
				"y": 2.0054839366,
				"z": -0.891656506,
				"element": "C" 
			},
			{
				"x": 0.5955814585,
				"y": 2.3037238626,
				"z": -1.6821258939,
				"element": "C" 
			},
			{
				"x": 1.7361052261,
				"y": 2.8876064676,
				"z": -1.1406729552,
				"element": "C" 
			},
			{
				"x": 1.8053431637,
				"y": 3.2047893691,
				"z": 0.2269712069,
				"element": "C" 
			},
			{
				"x": 0.6840699694,
				"y": 2.9128045764,
				"z": 1.0179631319,
				"element": "C" 
			},
			{
				"x": -0.4573171348,
				"y": 2.3259423931,
				"z": 0.4709804411,
				"element": "C" 
			},
			{
				"x": 3.0182568116,
				"y": 3.8291782224,
				"z": 0.8107202231,
				"element": "C" 
			},
			{
				"x": 3.4613227414,
				"y": 3.4874665872,
				"z": 2.0999932087,
				"element": "C" 
			},
			{
				"x": 4.5993026122,
				"y": 4.0688072047,
				"z": 2.6560178765,
				"element": "C" 
			},
			{
				"x": 5.3147211272,
				"y": 5.0077206514,
				"z": 1.9154324187,
				"element": "C" 
			},
			{
				"x": 6.8797310215,
				"y": 5.8096602117,
				"z": 2.6675437236,
				"element": "Br" 
			},
			{
				"x": 4.904554062,
				"y": 5.3696463215,
				"z": 0.6338185017,
				"element": "C" 
			},
			{
				"x": 3.7629015594,
				"y": 4.7809367008,
				"z": 0.0931887833,
				"element": "C" 
			},
			{
				"x": -2.4761033045,
				"y": -3.1407429624,
				"z": -1.4800422668,
				"element": "C" 
			},
			{
				"x": -3.5199573735,
				"y": -2.5683344875,
				"z": -1.7990795303,
				"element": "O" 
			},
			{
				"x": -2.2849297024,
				"y": -4.5925245329,
				"z": -1.7379744156,
				"element": "C" 
			},
			{
				"x": -3.293801044,
				"y": -5.365449902,
				"z": -2.3336317838,
				"element": "C" 
			},
			{
				"x": -3.0971600774,
				"y": -6.7189307133,
				"z": -2.5712482828,
				"element": "C" 
			},
			{
				"x": -1.8810765702,
				"y": -7.3244465386,
				"z": -2.2168618468,
				"element": "C" 
			},
			{
				"x": -0.865384464,
				"y": -6.5803638304,
				"z": -1.6263057848,
				"element": "C" 
			},
			{
				"x": -1.0869708013,
				"y": -5.2221675638,
				"z": -1.3960637121,
				"element": "C" 
			},
			{
				"x": -0.0604424677,
				"y": -4.5087843365,
				"z": -0.808793077,
				"element": "O" 
			},
			{
				"x": 1.5147763067,
				"y": -3.374126675,
				"z": 0.1332008706,
				"element": "H" 
			},
			{
				"x": -0.474020205,
				"y": -0.7064103285,
				"z": -0.038145844,
				"element": "H" 
			},
			{
				"x": -2.3585707227,
				"y": -0.524618668,
				"z": -2.4152114016,
				"element": "H" 
			},
			{
				"x": -0.6041267548,
				"y": -0.3038732122,
				"z": -2.4070925007,
				"element": "H" 
			},
			{
				"x": -1.8536428273,
				"y": 1.8367738354,
				"z": -2.5277371224,
				"element": "H" 
			},
			{
				"x": -3.1863176949,
				"y": 2.5525674322,
				"z": -0.4509005271,
				"element": "H" 
			},
			{
				"x": -3.8791225262,
				"y": 1.3445697536,
				"z": -1.5154165639,
				"element": "H" 
			},
			{
				"x": -4.770364906,
				"y": 1.8038194489,
				"z": 1.2648256135,
				"element": "H" 
			},
			{
				"x": -5.1888487007,
				"y": 0.2914742426,
				"z": 3.1808186845,
				"element": "H" 
			},
			{
				"x": -3.8851077035,
				"y": -1.8296246235,
				"z": 3.3800903541,
				"element": "H" 
			},
			{
				"x": -2.2014523926,
				"y": -2.3961171876,
				"z": 1.6658164478,
				"element": "H" 
			},
			{
				"x": 0.5734101711,
				"y": 2.0706595418,
				"z": -2.7445707412,
				"element": "H" 
			},
			{
				"x": 2.5920810316,
				"y": 3.0816630056,
				"z": -1.7807749671,
				"element": "H" 
			},
			{
				"x": 0.6905039394,
				"y": 3.173169515,
				"z": 2.0725759118,
				"element": "H" 
			},
			{
				"x": -1.3032977454,
				"y": 2.1233091087,
				"z": 1.1191031447,
				"element": "H" 
			},
			{
				"x": 2.9221597199,
				"y": 2.7366835906,
				"z": 2.6695882689,
				"element": "H" 
			},
			{
				"x": 4.9320931031,
				"y": 3.7885007023,
				"z": 3.6490633099,
				"element": "H" 
			},
			{
				"x": 5.4631147921,
				"y": 6.1084407524,
				"z": 0.0702205096,
				"element": "H" 
			},
			{
				"x": 3.4314083863,
				"y": 5.0863874018,
				"z": -0.894554014,
				"element": "H" 
			},
			{
				"x": -4.2187663011,
				"y": -4.8615529768,
				"z": -2.5941683311,
				"element": "H" 
			},
			{
				"x": -3.8817332825,
				"y": -7.31158526,
				"z": -3.0312196088,
				"element": "H" 
			},
			{
				"x": -1.7267570707,
				"y": -8.3829981572,
				"z": -2.403145087,
				"element": "H" 
			},
			{
				"x": 0.0826985408,
				"y": -7.0255373831,
				"z": -1.3440009868,
				"element": "H" 
			}
		],
		 "valence_orbital": [ 
			{
				"type": "occ",
				"energy": -0.24476,
				"method": "rhf"
			},
			{
				"type": "occ",
				"energy": -0.23507,
				"method": "rhf"
			},
			{
				"type": "occ",
				"energy": -0.23064,
				"method": "rhf"
			},
			{
				"type": "occ",
				"energy": -0.22144,
				"method": "rhf"
			},
			{
				"type": "occ",
				"energy": -0.21609,
				"method": "rhf"
			},
			{
				"type": "unocc",
				"energy": -0.05047,
				"method": "rhf"
			},
			{
				"type": "unocc",
				"energy": -0.03124,
				"method": "rhf"
			},
			{
				"type": "unocc",
				"energy": -0.01786,
				"method": "rhf"
			},
			{
				"type": "unocc",
				"energy": -0.01191,
				"method": "rhf"
			},
			{
				"type": "unocc",
				"energy": -0.00318,
				"method": "rhf"
			}
		],
		"cosmo_sigma_profile": { 
			"-0.025": 0.0,
			"-0.024": 0.0,
			"-0.023": 0.0,
			"-0.022": 0.0,
			"-0.021": 0.0,
			"-0.02": 0.205175026581,
			"-0.019": 0.835983045565,
			"-0.018": 0.92105781478,
			"-0.017": 0.873181926106,
			"-0.016": 1.26549286555,
			"-0.015": 0.262038487853,
			"-0.014": 0.20069673414,
			"-0.013": 1.34891836158,
			"-0.012": 0.732909144516,
			"-0.011": 0.843734049311,
			"-0.01": 0.595282893841,
			"-0.009": 0.58001231412,
			"-0.008": 2.06086338987,
			"-0.007": 8.0191438914,
			"-0.006": 18.9777088966,
			"-0.005": 30.4724271846,
			"-0.004": 38.10548709,
			"-0.003": 46.1296161641,
			"-0.002": 39.7253035796,
			"-0.001": 39.3721815465,
			"0.0": 40.5816095575,
			"0.001": 41.0236365173,
			"0.002": 45.8468754635,
			"0.003": 42.865188636,
			"0.004": 40.6054732954,
			"0.005": 24.0954242325,
			"0.006": 13.0434194527,
			"0.007": 6.91105684129,
			"0.008": 2.82723556086,
			"0.009": 2.70983009359,
			"0.01": 1.8063942256,
			"0.011": 2.34749915312,
			"0.012": 2.33323164526,
			"0.013": 3.73040587876,
			"0.014": 2.21382560902,
			"0.015": 0.0,
			"0.016": 0.0,
			"0.017": 0.0,
			"0.018": 0.0,
			"0.019": 0.0,
			"0.02": 0.0,
			"0.021": 0.0,
			"0.022": 0.0,
			"0.023": 0.0,
			"0.024": 0.0,
			"0.025": 0.0
		}
	}
}
