{
	 "smiles": "COC(=O)C1=CC=CC=C1C(=O)C1=CC(C)=C(O)C(C)=C1", 
	 "Tm": 429.15, 
	 "num_atms": 37, 
	 "gaussian": { 
		 "optdone": 1, 
		 "sigma_profile": "yes", 
		 "theory": "DFT", 
		 "functional": "B3LYP", 
		 "basiset": "6-31G**", 
		 "properties": { 
			 "R2extent": 7351.5829, 
			 "electric_dipole_moment_norm": 5.31126755963, 
			 "electric_quadrupole_moment_norm": 15.2481930838, 
			 "total_energy": -958.36710476, 
			 "HOMO_LUMO_gap": 0.16822, 
			 "cosmo_polarized_energy": -19.36, 
			 "cosmo_cavitation_energy": 41.35, 
			 "cosmo_dispersion_energy": -28.35, 
			 "cosmo_repulsion_energy": 2.21, 
			 "cosmo_total_nonelectrostatic_energy": 15.21, 
			 "SMD_solvation_energy": 9.18 
		},
		"coords": [
			{
				"x": -1.5281044923,
				"y": 1.5986220525,
				"z": -4.1005693103,
				"element": "C" 
			},
			{
				"x": -1.4433515471,
				"y": 2.4917409729,
				"z": -2.9793515989,
				"element": "O" 
			},
			{
				"x": -1.6725930972,
				"y": 1.9216244331,
				"z": -1.7734434927,
				"element": "C" 
			},
			{
				"x": -1.9161766378,
				"y": 0.7381249512,
				"z": -1.6409870435,
				"element": "O" 
			},
			{
				"x": -1.5966869388,
				"y": 2.9019028052,
				"z": -0.6531570838,
				"element": "C" 
			},
			{
				"x": -1.3904613116,
				"y": 4.2672122759,
				"z": -0.9057934789,
				"element": "C" 
			},
			{
				"x": -1.3492962396,
				"y": 5.1837878269,
				"z": 0.1406586113,
				"element": "C" 
			},
			{
				"x": -1.5243012076,
				"y": 4.7421429006,
				"z": 1.4535862197,
				"element": "C" 
			},
			{
				"x": -1.7354771352,
				"y": 3.3883226742,
				"z": 1.7120447171,
				"element": "C" 
			},
			{
				"x": -1.7644844272,
				"y": 2.4519785525,
				"z": 0.67206714,
				"element": "C" 
			},
			{
				"x": -2.0513729691,
				"y": 1.0090267797,
				"z": 1.0640069273,
				"element": "C" 
			},
			{
				"x": -3.1944427469,
				"y": 0.7122819169,
				"z": 1.3812981884,
				"element": "O" 
			},
			{
				"x": -0.9199186234,
				"y": 0.054184294,
				"z": 1.1893369341,
				"element": "C" 
			},
			{
				"x": -1.2006778665,
				"y": -1.2658084191,
				"z": 1.5761995074,
				"element": "C" 
			},
			{
				"x": -0.1942370428,
				"y": -2.2109559849,
				"z": 1.7329478544,
				"element": "C" 
			},
			{
				"x": -0.4808571124,
				"y": -3.6333271832,
				"z": 2.1413653048,
				"element": "C" 
			},
			{
				"x": 1.1339731214,
				"y": -1.8039346354,
				"z": 1.4962278915,
				"element": "C" 
			},
			{
				"x": 2.0967668036,
				"y": -2.7595036761,
				"z": 1.6623760484,
				"element": "O" 
			},
			{
				"x": 1.4542705562,
				"y": -0.4890268362,
				"z": 1.1129797477,
				"element": "C" 
			},
			{
				"x": 2.893081289,
				"y": -0.093742622,
				"z": 0.8739239511,
				"element": "C" 
			},
			{
				"x": 0.4107183625,
				"y": 0.4254287484,
				"z": 0.9646433743,
				"element": "C" 
			},
			{
				"x": -1.3270116096,
				"y": 2.2110429867,
				"z": -4.979518894,
				"element": "H" 
			},
			{
				"x": -0.7893411152,
				"y": 0.7981302479,
				"z": -4.0119933114,
				"element": "H" 
			},
			{
				"x": -2.5235253656,
				"y": 1.1518886989,
				"z": -4.1621236869,
				"element": "H" 
			},
			{
				"x": -1.2706194974,
				"y": 4.597702745,
				"z": -1.930746139,
				"element": "H" 
			},
			{
				"x": -1.1890007926,
				"y": 6.2374075466,
				"z": -0.0670976839,
				"element": "H" 
			},
			{
				"x": -1.5021355971,
				"y": 5.4511880172,
				"z": 2.2762481925,
				"element": "H" 
			},
			{
				"x": -1.8835858629,
				"y": 3.0468128676,
				"z": 2.732130436,
				"element": "H" 
			},
			{
				"x": -2.2375513406,
				"y": -1.536326845,
				"z": 1.7493687955,
				"element": "H" 
			},
			{
				"x": -0.1310193025,
				"y": -4.3424747785,
				"z": 1.3829898771,
				"element": "H" 
			},
			{
				"x": -1.552970083,
				"y": -3.7853069152,
				"z": 2.2872992341,
				"element": "H" 
			},
			{
				"x": 0.0359881425,
				"y": -3.8923458978,
				"z": 3.0721151366,
				"element": "H" 
			},
			{
				"x": 2.9644983404,
				"y": -2.381785746,
				"z": 1.4716221896,
				"element": "H" 
			},
			{
				"x": 3.3541348302,
				"y": -0.6759600746,
				"z": 0.0638194522,
				"element": "H" 
			},
			{
				"x": 3.5146145624,
				"y": -0.2249474706,
				"z": 1.7707183716,
				"element": "H" 
			},
			{
				"x": 2.9635001213,
				"y": 0.9584954114,
				"z": 0.5889910635,
				"element": "H" 
			},
			{
				"x": 0.6461538324,
				"y": 1.4445973789,
				"z": 0.6723165574,
				"element": "H" 
			}
		],
		 "valence_orbital": [ 
			{
				"type": "occ",
				"energy": -0.26312,
				"method": "rhf"
			},
			{
				"type": "occ",
				"energy": -0.26244,
				"method": "rhf"
			},
			{
				"type": "occ",
				"energy": -0.24001,
				"method": "rhf"
			},
			{
				"type": "occ",
				"energy": -0.23374,
				"method": "rhf"
			},
			{
				"type": "occ",
				"energy": -0.21786,
				"method": "rhf"
			},
			{
				"type": "unocc",
				"energy": -0.04964,
				"method": "rhf"
			},
			{
				"type": "unocc",
				"energy": -0.03562,
				"method": "rhf"
			},
			{
				"type": "unocc",
				"energy": -0.01197,
				"method": "rhf"
			},
			{
				"type": "unocc",
				"energy": 0.00486,
				"method": "rhf"
			},
			{
				"type": "unocc",
				"energy": 0.0553,
				"method": "rhf"
			}
		],
		"cosmo_sigma_profile": { 
			"-0.025": 0.0,
			"-0.024": 0.0,
			"-0.023": 0.0,
			"-0.022": 0.0,
			"-0.021": 0.0,
			"-0.02": 0.0,
			"-0.019": 0.0,
			"-0.018": 0.0,
			"-0.017": 0.107921005757,
			"-0.016": 0.705189074096,
			"-0.015": 0.875913872661,
			"-0.014": 0.774906444199,
			"-0.013": 0.990905730606,
			"-0.012": 0.638607164451,
			"-0.011": 1.69890527128,
			"-0.01": 1.66514197108,
			"-0.009": 0.981716588138,
			"-0.008": 1.31021481024,
			"-0.007": 6.2800291743,
			"-0.006": 18.0157296211,
			"-0.005": 24.8443281225,
			"-0.004": 27.1969498882,
			"-0.003": 28.1593325937,
			"-0.002": 25.7621823069,
			"-0.001": 25.8593176401,
			"0.0": 26.2275010298,
			"0.001": 21.5113369445,
			"0.002": 21.986092358,
			"0.003": 23.5570537592,
			"0.004": 16.9393894903,
			"0.005": 8.43372477313,
			"0.006": 5.67381126053,
			"0.007": 6.01358908751,
			"0.008": 4.50514805759,
			"0.009": 6.06465569865,
			"0.01": 7.27702382352,
			"0.011": 6.16257229143,
			"0.012": 6.23365359141,
			"0.013": 2.0487546212,
			"0.014": 0.234109236145,
			"0.015": 0.0,
			"0.016": 0.0,
			"0.017": 0.0,
			"0.018": 0.0,
			"0.019": 0.0,
			"0.02": 0.0,
			"0.021": 0.0,
			"0.022": 0.0,
			"0.023": 0.0,
			"0.024": 0.0,
			"0.025": 0.0
		}
	}
}
