{
	 "smiles": "CC1=NN2C(S1)=NC(CCl)=CC2=O", 
	 "Tm": 484.15, 
	 "num_atms": 19, 
	 "gaussian": { 
		 "optdone": 1, 
		 "sigma_profile": "yes", 
		 "theory": "DFT", 
		 "functional": "B3LYP", 
		 "basiset": "6-31G**", 
		 "properties": { 
			 "R2extent": 5058.8068, 
			 "electric_dipole_moment_norm": 4.13959179872, 
			 "electric_quadrupole_moment_norm": 22.9925758931, 
			 "total_energy": -1368.20136869, 
			 "HOMO_LUMO_gap": 0.16994, 
			 "cosmo_polarized_energy": -16.26, 
			 "cosmo_cavitation_energy": 27.6, 
			 "cosmo_dispersion_energy": -20.92, 
			 "cosmo_repulsion_energy": 1.63, 
			 "cosmo_total_nonelectrostatic_energy": 8.31, 
			 "SMD_solvation_energy": 2.71 
		},
		"coords": [
			{
				"x": 2.2081796015,
				"y": -1.0785586426,
				"z": 3.3962528896,
				"element": "C" 
			},
			{
				"x": 1.9303421673,
				"y": -0.9328161748,
				"z": 1.9358252542,
				"element": "C" 
			},
			{
				"x": 2.2799697415,
				"y": 0.1073665568,
				"z": 1.2573992309,
				"element": "N" 
			},
			{
				"x": 1.9048129495,
				"y": -0.0189035236,
				"z": -0.0535474195,
				"element": "N" 
			},
			{
				"x": 1.2501662551,
				"y": -1.1758578724,
				"z": -0.4160686779,
				"element": "C" 
			},
			{
				"x": 1.0898598849,
				"y": -2.1942432144,
				"z": 1.0124163966,
				"element": "S" 
			},
			{
				"x": 0.8191533985,
				"y": -1.4682465816,
				"z": -1.6030086753,
				"element": "N" 
			},
			{
				"x": 1.0647955907,
				"y": -0.5183629621,
				"z": -2.5654191496,
				"element": "C" 
			},
			{
				"x": 0.570265245,
				"y": -0.8661381976,
				"z": -3.9406827649,
				"element": "C" 
			},
			{
				"x": 1.672880675,
				"y": -2.0650931261,
				"z": -4.7591072412,
				"element": "Cl" 
			},
			{
				"x": 1.7016892751,
				"y": 0.6696265321,
				"z": -2.3211562608,
				"element": "C" 
			},
			{
				"x": 2.187659854,
				"y": 1.0348374604,
				"z": -1.0069456422,
				"element": "C" 
			},
			{
				"x": 2.7588017487,
				"y": 2.050494344,
				"z": -0.6678342979,
				"element": "O" 
			},
			{
				"x": 2.8294888047,
				"y": -1.9584186507,
				"z": 3.5917639278,
				"element": "H" 
			},
			{
				"x": 2.7331542932,
				"y": -0.1868162414,
				"z": 3.742750323,
				"element": "H" 
			},
			{
				"x": 1.2786207013,
				"y": -1.1899986454,
				"z": 3.9637204545,
				"element": "H" 
			},
			{
				"x": -0.406445709,
				"y": -1.3464986418,
				"z": -3.8840009959,
				"element": "H" 
			},
			{
				"x": 0.5277751651,
				"y": 0.0083753518,
				"z": -4.5884486896,
				"element": "H" 
			},
			{
				"x": 1.877130358,
				"y": 1.3912522294,
				"z": -3.1098086617,
				"element": "H" 
			}
		],
		 "valence_orbital": [ 
			{
				"type": "occ",
				"energy": -0.30053,
				"method": "rhf"
			},
			{
				"type": "occ",
				"energy": -0.29509,
				"method": "rhf"
			},
			{
				"type": "occ",
				"energy": -0.29279,
				"method": "rhf"
			},
			{
				"type": "occ",
				"energy": -0.27026,
				"method": "rhf"
			},
			{
				"type": "occ",
				"energy": -0.2408,
				"method": "rhf"
			},
			{
				"type": "unocc",
				"energy": -0.07086,
				"method": "rhf"
			},
			{
				"type": "unocc",
				"energy": -0.02605,
				"method": "rhf"
			},
			{
				"type": "unocc",
				"energy": -0.02564,
				"method": "rhf"
			},
			{
				"type": "unocc",
				"energy": -0.01945,
				"method": "rhf"
			},
			{
				"type": "unocc",
				"energy": 0.03475,
				"method": "rhf"
			}
		],
		"cosmo_sigma_profile": { 
			"-0.025": 0.0,
			"-0.024": 0.0,
			"-0.023": 0.0,
			"-0.022": 0.0,
			"-0.021": 0.0,
			"-0.02": 0.0,
			"-0.019": 0.0,
			"-0.018": 0.0,
			"-0.017": 0.0,
			"-0.016": 0.0,
			"-0.015": 0.0,
			"-0.014": 0.0,
			"-0.013": 0.0,
			"-0.012": 0.0,
			"-0.011": 0.0,
			"-0.01": 0.152835385415,
			"-0.009": 2.93029871778,
			"-0.008": 8.70164628652,
			"-0.007": 14.9194983749,
			"-0.006": 15.2200639372,
			"-0.005": 16.1432822429,
			"-0.004": 16.2104662108,
			"-0.003": 17.5819954818,
			"-0.002": 16.2400519679,
			"-0.001": 15.502691659,
			"0.0": 14.0824532115,
			"0.001": 12.4820928363,
			"0.002": 7.62720130838,
			"0.003": 7.48815662254,
			"0.004": 7.34899000572,
			"0.005": 9.45291401877,
			"0.006": 12.2926164703,
			"0.007": 5.7905502091,
			"0.008": 2.75342524212,
			"0.009": 2.44433518743,
			"0.01": 3.3226312445,
			"0.011": 3.89802443344,
			"0.012": 6.15405122437,
			"0.013": 4.56343929318,
			"0.014": 1.87020225741,
			"0.015": 1.03944348184,
			"0.016": 0.0315518457209,
			"0.017": 0.0,
			"0.018": 0.0,
			"0.019": 0.0,
			"0.02": 0.0,
			"0.021": 0.0,
			"0.022": 0.0,
			"0.023": 0.0,
			"0.024": 0.0,
			"0.025": 0.0
		}
	}
}
