{
	 "smiles": "NC1=CC=CC(=N1)C(F)(F)F", 
	 "Tm": 361.15, 
	 "num_atms": 16, 
	 "gaussian": { 
		 "optdone": 1, 
		 "sigma_profile": "yes", 
		 "theory": "DFT", 
		 "functional": "B3LYP", 
		 "basiset": "6-31G**", 
		 "properties": { 
			 "R2extent": 2662.9985, 
			 "electric_dipole_moment_norm": 4.3630128455, 
			 "electric_quadrupole_moment_norm": 15.1468961913, 
			 "total_energy": -640.687249611, 
			 "HOMO_LUMO_gap": 0.19205, 
			 "cosmo_polarized_energy": -9.83, 
			 "cosmo_cavitation_energy": 21.91, 
			 "cosmo_dispersion_energy": -15.91, 
			 "cosmo_repulsion_energy": 1.24, 
			 "cosmo_total_nonelectrostatic_energy": 7.24, 
			 "SMD_solvation_energy": 3.82 
		},
		"coords": [
			{
				"x": -2.4077086115,
				"y": -0.6522643583,
				"z": -2.5209434255,
				"element": "N" 
			},
			{
				"x": -2.2638785413,
				"y": -0.7074528382,
				"z": -1.1522279469,
				"element": "C" 
			},
			{
				"x": -3.1509669934,
				"y": -0.0212036617,
				"z": -0.2901313941,
				"element": "C" 
			},
			{
				"x": -2.9222010658,
				"y": -0.0797789892,
				"z": 1.0731702669,
				"element": "C" 
			},
			{
				"x": -1.8280350699,
				"y": -0.8042779143,
				"z": 1.5657300596,
				"element": "C" 
			},
			{
				"x": -1.0217896375,
				"y": -1.4393601349,
				"z": 0.6299259897,
				"element": "C" 
			},
			{
				"x": -1.2198673219,
				"y": -1.4078208472,
				"z": -0.6918353874,
				"element": "N" 
			},
			{
				"x": 0.1831809655,
				"y": -2.2524084124,
				"z": 1.0587176017,
				"element": "C" 
			},
			{
				"x": 0.0755221143,
				"y": -3.5372199082,
				"z": 0.6651999698,
				"element": "F" 
			},
			{
				"x": 0.329062752,
				"y": -2.25232265,
				"z": 2.4039986887,
				"element": "F" 
			},
			{
				"x": 1.321652625,
				"y": -1.7635502808,
				"z": 0.52949957,
				"element": "F" 
			},
			{
				"x": -3.3234376301,
				"y": -0.4570103178,
				"z": -2.8947386473,
				"element": "H" 
			},
			{
				"x": -1.8630601239,
				"y": -1.3331249247,
				"z": -3.0305777691,
				"element": "H" 
			},
			{
				"x": -3.9857730591,
				"y": 0.541148331,
				"z": -0.6972879362,
				"element": "H" 
			},
			{
				"x": -3.5884898113,
				"y": 0.4364733344,
				"z": 1.7581162028,
				"element": "H" 
			},
			{
				"x": -1.6159105911,
				"y": -0.8729264276,
				"z": 2.6243841574,
				"element": "H" 
			}
		],
		 "valence_orbital": [ 
			{
				"type": "occ",
				"energy": -0.36688,
				"method": "rhf"
			},
			{
				"type": "occ",
				"energy": -0.32953,
				"method": "rhf"
			},
			{
				"type": "occ",
				"energy": -0.29127,
				"method": "rhf"
			},
			{
				"type": "occ",
				"energy": -0.27228,
				"method": "rhf"
			},
			{
				"type": "occ",
				"energy": -0.22714,
				"method": "rhf"
			},
			{
				"type": "unocc",
				"energy": -0.03509,
				"method": "rhf"
			},
			{
				"type": "unocc",
				"energy": -0.00464,
				"method": "rhf"
			},
			{
				"type": "unocc",
				"energy": 0.07591,
				"method": "rhf"
			},
			{
				"type": "unocc",
				"energy": 0.09784,
				"method": "rhf"
			},
			{
				"type": "unocc",
				"energy": 0.1304,
				"method": "rhf"
			}
		],
		"cosmo_sigma_profile": { 
			"-0.025": 0.0,
			"-0.024": 0.0,
			"-0.023": 0.0,
			"-0.022": 0.0,
			"-0.021": 0.0,
			"-0.02": 0.0,
			"-0.019": 0.0,
			"-0.018": 0.0,
			"-0.017": 0.0,
			"-0.016": 0.0,
			"-0.015": 0.0,
			"-0.014": 0.56258923042,
			"-0.013": 2.04312060209,
			"-0.012": 2.72796342187,
			"-0.011": 2.49365226009,
			"-0.01": 2.95480120357,
			"-0.009": 2.25363071447,
			"-0.008": 3.11721362095,
			"-0.007": 6.55954671617,
			"-0.006": 6.54372462941,
			"-0.005": 7.26498522615,
			"-0.004": 5.11071435946,
			"-0.003": 6.42874952677,
			"-0.002": 7.14177209747,
			"-0.001": 8.72890675966,
			"0.0": 9.64974267323,
			"0.001": 15.5712473009,
			"0.002": 22.8834983948,
			"0.003": 36.3888495076,
			"0.004": 7.30833259106,
			"0.005": 4.11739093583,
			"0.006": 3.33433432259,
			"0.007": 3.10252491081,
			"0.008": 2.14471032163,
			"0.009": 2.49405086895,
			"0.01": 1.46329642747,
			"0.011": 1.55671569376,
			"0.012": 1.16741677762,
			"0.013": 0.341125696163,
			"0.014": 0.0,
			"0.015": 0.0,
			"0.016": 0.0,
			"0.017": 0.0,
			"0.018": 0.0,
			"0.019": 0.0,
			"0.02": 0.0,
			"0.021": 0.0,
			"0.022": 0.0,
			"0.023": 0.0,
			"0.024": 0.0,
			"0.025": 0.0
		}
	}
}
