{
	 "smiles": "CC1=CC=C2C=C3C(C=CC4=C3C=CC=C4)=C3CCC1=C23", 
	 "Tm": 453.15, 
	 "num_atms": 37, 
	 "gaussian": { 
		 "optdone": 1, 
		 "sigma_profile": "yes", 
		 "theory": "DFT", 
		 "functional": "B3LYP", 
		 "basiset": "6-31G**", 
		 "properties": { 
			 "R2extent": 7185.3412, 
			 "electric_dipole_moment_norm": 1.20115090642, 
			 "electric_quadrupole_moment_norm": 13.6003029132, 
			 "total_energy": -809.925188882, 
			 "HOMO_LUMO_gap": 0.13373, 
			 "cosmo_polarized_energy": -7.39, 
			 "cosmo_cavitation_energy": 38.34, 
			 "cosmo_dispersion_energy": -28.46, 
			 "cosmo_repulsion_energy": 2.08, 
			 "cosmo_total_nonelectrostatic_energy": 11.95, 
			 "SMD_solvation_energy": 4.92 
		},
		"coords": [
			{
				"x": -3.5360125954,
				"y": -3.2906402181,
				"z": -1.8552918386,
				"element": "C" 
			},
			{
				"x": -2.9500364134,
				"y": -1.9623085086,
				"z": -1.4409800023,
				"element": "C" 
			},
			{
				"x": -3.7326671429,
				"y": -0.7627391419,
				"z": -1.5084824948,
				"element": "C" 
			},
			{
				"x": -3.2556422147,
				"y": 0.479332692,
				"z": -1.1449224679,
				"element": "C" 
			},
			{
				"x": -1.9183063373,
				"y": 0.6232176762,
				"z": -0.6711202262,
				"element": "C" 
			},
			{
				"x": -1.2758432419,
				"y": 1.8076572598,
				"z": -0.2611753593,
				"element": "C" 
			},
			{
				"x": 0.0516581283,
				"y": 1.8098929268,
				"z": 0.1862798998,
				"element": "C" 
			},
			{
				"x": 0.8007809588,
				"y": 0.565587124,
				"z": 0.2353172755,
				"element": "C" 
			},
			{
				"x": 2.1639737128,
				"y": 0.5730994652,
				"z": 0.6957796256,
				"element": "C" 
			},
			{
				"x": 2.7724389949,
				"y": 1.7201686031,
				"z": 1.0881194345,
				"element": "C" 
			},
			{
				"x": 2.0795946324,
				"y": 2.9822628031,
				"z": 1.0608182463,
				"element": "C" 
			},
			{
				"x": 0.7264763645,
				"y": 3.0413202263,
				"z": 0.6146658543,
				"element": "C" 
			},
			{
				"x": 0.0939362493,
				"y": 4.3044781781,
				"z": 0.6078281444,
				"element": "C" 
			},
			{
				"x": 0.7542391493,
				"y": 5.4518027153,
				"z": 1.0175056535,
				"element": "C" 
			},
			{
				"x": 2.0870765846,
				"y": 5.3854668993,
				"z": 1.4556035725,
				"element": "C" 
			},
			{
				"x": 2.7341529141,
				"y": 4.1633478973,
				"z": 1.4740864289,
				"element": "C" 
			},
			{
				"x": 0.1680458921,
				"y": -0.6107348263,
				"z": -0.1700158108,
				"element": "C" 
			},
			{
				"x": 0.6668355608,
				"y": -2.0443615692,
				"z": -0.2359976732,
				"element": "C" 
			},
			{
				"x": -0.5533013369,
				"y": -2.866221655,
				"z": -0.7815803972,
				"element": "C" 
			},
			{
				"x": -1.6544270369,
				"y": -1.8411545134,
				"z": -0.9849469664,
				"element": "C" 
			},
			{
				"x": -1.1575942997,
				"y": -0.5703585541,
				"z": -0.6099900898,
				"element": "C" 
			},
			{
				"x": -4.5727007083,
				"y": -3.1849869112,
				"z": -2.1866556139,
				"element": "H" 
			},
			{
				"x": -3.5230483131,
				"y": -4.0119356936,
				"z": -1.0288599274,
				"element": "H" 
			},
			{
				"x": -2.9683304822,
				"y": -3.7421635696,
				"z": -2.6782639918,
				"element": "H" 
			},
			{
				"x": -4.7563022292,
				"y": -0.8463851175,
				"z": -1.866789594,
				"element": "H" 
			},
			{
				"x": -3.8992107147,
				"y": 1.3521834134,
				"z": -1.21897489,
				"element": "H" 
			},
			{
				"x": -1.8392932406,
				"y": 2.7336518606,
				"z": -0.2996170062,
				"element": "H" 
			},
			{
				"x": 2.7028528596,
				"y": -0.369616439,
				"z": 0.7233677246,
				"element": "H" 
			},
			{
				"x": 3.8030906796,
				"y": 1.7087531556,
				"z": 1.433438924,
				"element": "H" 
			},
			{
				"x": -0.9343035914,
				"y": 4.3929911444,
				"z": 0.275991127,
				"element": "H" 
			},
			{
				"x": 0.2353070055,
				"y": 6.4058788073,
				"z": 0.9984713697,
				"element": "H" 
			},
			{
				"x": 2.6035432191,
				"y": 6.28537616,
				"z": 1.7764495976,
				"element": "H" 
			},
			{
				"x": 3.7658090067,
				"y": 4.0939703565,
				"z": 1.8102323233,
				"element": "H" 
			},
			{
				"x": 0.9843614021,
				"y": -2.4080477837,
				"z": 0.7486526595,
				"element": "H" 
			},
			{
				"x": 1.5384551837,
				"y": -2.1397485279,
				"z": -0.8946364165,
				"element": "H" 
			},
			{
				"x": -0.8565108334,
				"y": -3.6492267893,
				"z": -0.0756895552,
				"element": "H" 
			},
			{
				"x": -0.3031977664,
				"y": -3.3806095461,
				"z": -1.7176175396,
				"element": "H" 
			}
		],
		 "valence_orbital": [ 
			{
				"type": "occ",
				"energy": -0.27636,
				"method": "rhf"
			},
			{
				"type": "occ",
				"energy": -0.25508,
				"method": "rhf"
			},
			{
				"type": "occ",
				"energy": -0.23919,
				"method": "rhf"
			},
			{
				"type": "occ",
				"energy": -0.2126,
				"method": "rhf"
			},
			{
				"type": "occ",
				"energy": -0.18464,
				"method": "rhf"
			},
			{
				"type": "unocc",
				"energy": -0.05091,
				"method": "rhf"
			},
			{
				"type": "unocc",
				"energy": -0.02953,
				"method": "rhf"
			},
			{
				"type": "unocc",
				"energy": 0.00319,
				"method": "rhf"
			},
			{
				"type": "unocc",
				"energy": 0.01748,
				"method": "rhf"
			},
			{
				"type": "unocc",
				"energy": 0.04477,
				"method": "rhf"
			}
		],
		"cosmo_sigma_profile": { 
			"-0.025": 0.0,
			"-0.024": 0.0,
			"-0.023": 0.0,
			"-0.022": 0.0,
			"-0.021": 0.0,
			"-0.02": 0.0,
			"-0.019": 0.0,
			"-0.018": 0.0,
			"-0.017": 0.0,
			"-0.016": 0.0,
			"-0.015": 0.0,
			"-0.014": 0.0,
			"-0.013": 0.0,
			"-0.012": 0.0,
			"-0.011": 0.0,
			"-0.01": 0.0,
			"-0.009": 0.0,
			"-0.008": 0.705683986008,
			"-0.007": 1.60488075506,
			"-0.006": 7.81399122811,
			"-0.005": 19.3560325435,
			"-0.004": 32.4384316155,
			"-0.003": 33.9426269215,
			"-0.002": 28.0003850636,
			"-0.001": 24.145170105,
			"0.0": 24.3912773159,
			"0.001": 19.5478530623,
			"0.002": 15.2741161282,
			"0.003": 22.9879944956,
			"0.004": 38.5891944323,
			"0.005": 29.2502539812,
			"0.006": 8.21794335036,
			"0.007": 0.094957120026,
			"0.008": 0.0,
			"0.009": 0.0,
			"0.01": 0.0,
			"0.011": 0.0,
			"0.012": 0.0,
			"0.013": 0.0,
			"0.014": 0.0,
			"0.015": 0.0,
			"0.016": 0.0,
			"0.017": 0.0,
			"0.018": 0.0,
			"0.019": 0.0,
			"0.02": 0.0,
			"0.021": 0.0,
			"0.022": 0.0,
			"0.023": 0.0,
			"0.024": 0.0,
			"0.025": 0.0
		}
	}
}
