{
	 "smiles": "CC1=C(Cl)C=C(CCC(O)=O)C=C1", 
	 "Tm": 358.15, 
	 "num_atms": 24, 
	 "gaussian": { 
		 "optdone": 1, 
		 "sigma_profile": "yes", 
		 "theory": "DFT", 
		 "functional": "B3LYP", 
		 "basiset": "6-31G**", 
		 "properties": { 
			 "R2extent": 3404.3726, 
			 "electric_dipole_moment_norm": 2.92914113009, 
			 "electric_quadrupole_moment_norm": 7.53871548674, 
			 "total_energy": -998.367176225, 
			 "HOMO_LUMO_gap": 0.22671, 
			 "cosmo_polarized_energy": -10.31, 
			 "cosmo_cavitation_energy": 29.54, 
			 "cosmo_dispersion_energy": -21.13, 
			 "cosmo_repulsion_energy": 1.7, 
			 "cosmo_total_nonelectrostatic_energy": 10.11, 
			 "SMD_solvation_energy": 5.66 
		},
		"coords": [
			{
				"x": 3.0864534388,
				"y": -1.9322189467,
				"z": 0.4155348792,
				"element": "C" 
			},
			{
				"x": 1.7162848734,
				"y": -1.3416932626,
				"z": 0.205666528,
				"element": "C" 
			},
			{
				"x": 1.3014922971,
				"y": -0.1578118852,
				"z": 0.8337083616,
				"element": "C" 
			},
			{
				"x": 2.4138102429,
				"y": 0.6859877781,
				"z": 1.914317115,
				"element": "Cl" 
			},
			{
				"x": 0.0344379928,
				"y": 0.3896423572,
				"z": 0.6453908521,
				"element": "C" 
			},
			{
				"x": -0.8858642791,
				"y": -0.2446579209,
				"z": -0.1987710735,
				"element": "C" 
			},
			{
				"x": -2.2629734009,
				"y": 0.3433149184,
				"z": -0.4361404159,
				"element": "C" 
			},
			{
				"x": -2.3144964135,
				"y": 1.3493874796,
				"z": -1.6003161021,
				"element": "C" 
			},
			{
				"x": -1.7100998299,
				"y": 2.6952041567,
				"z": -1.2559878505,
				"element": "C" 
			},
			{
				"x": -1.4171053114,
				"y": 3.4088481163,
				"z": -2.3677055377,
				"element": "O" 
			},
			{
				"x": -1.5306706495,
				"y": 3.1297939513,
				"z": -0.1381819974,
				"element": "O" 
			},
			{
				"x": -0.4931060029,
				"y": -1.4282401421,
				"z": -0.8346791112,
				"element": "C" 
			},
			{
				"x": 0.7796816971,
				"y": -1.9588372179,
				"z": -0.6341623083,
				"element": "C" 
			},
			{
				"x": 3.2042601473,
				"y": -2.8504069171,
				"z": -0.1654758387,
				"element": "H" 
			},
			{
				"x": 3.8734899291,
				"y": -1.2322630589,
				"z": 0.1148192539,
				"element": "H" 
			},
			{
				"x": 3.2622780473,
				"y": -2.1687433097,
				"z": 1.4705119674,
				"element": "H" 
			},
			{
				"x": -0.2353057667,
				"y": 1.312708004,
				"z": 1.1457962723,
				"element": "H" 
			},
			{
				"x": -2.6195787572,
				"y": 0.844643505,
				"z": 0.468471987,
				"element": "H" 
			},
			{
				"x": -2.9650086007,
				"y": -0.4679200048,
				"z": -0.6561408155,
				"element": "H" 
			},
			{
				"x": -3.3575519117,
				"y": 1.5447126481,
				"z": -1.8843197275,
				"element": "H" 
			},
			{
				"x": -1.822011037,
				"y": 0.9582364716,
				"z": -2.4958963561,
				"element": "H" 
			},
			{
				"x": -1.0697418343,
				"y": 4.2626091122,
				"z": -2.0581024298,
				"element": "H" 
			},
			{
				"x": -1.1912558059,
				"y": -1.9453695578,
				"z": -1.4884781034,
				"element": "H" 
			},
			{
				"x": 1.0605809348,
				"y": -2.881426275,
				"z": -1.1355595489,
				"element": "H" 
			}
		],
		 "valence_orbital": [ 
			{
				"type": "occ",
				"energy": -0.32219,
				"method": "rhf"
			},
			{
				"type": "occ",
				"energy": -0.30334,
				"method": "rhf"
			},
			{
				"type": "occ",
				"energy": -0.28073,
				"method": "rhf"
			},
			{
				"type": "occ",
				"energy": -0.24666,
				"method": "rhf"
			},
			{
				"type": "occ",
				"energy": -0.23562,
				"method": "rhf"
			},
			{
				"type": "unocc",
				"energy": -0.00891,
				"method": "rhf"
			},
			{
				"type": "unocc",
				"energy": -0.00544,
				"method": "rhf"
			},
			{
				"type": "unocc",
				"energy": 0.00544,
				"method": "rhf"
			},
			{
				"type": "unocc",
				"energy": 0.03977,
				"method": "rhf"
			},
			{
				"type": "unocc",
				"energy": 0.0768,
				"method": "rhf"
			}
		],
		"cosmo_sigma_profile": { 
			"-0.025": 0.0,
			"-0.024": 0.0,
			"-0.023": 0.0,
			"-0.022": 0.0,
			"-0.021": 0.0,
			"-0.02": 0.0,
			"-0.019": 0.00665579247287,
			"-0.018": 0.578710602544,
			"-0.017": 0.798858773055,
			"-0.016": 1.05629700881,
			"-0.015": 0.986764612619,
			"-0.014": 0.608399472581,
			"-0.013": 0.499905632558,
			"-0.012": 0.549371045646,
			"-0.011": 1.24879743537,
			"-0.01": 0.788411248781,
			"-0.009": 0.316553710786,
			"-0.008": 0.294262780736,
			"-0.007": 3.22013770997,
			"-0.006": 6.88668422958,
			"-0.005": 13.9156723064,
			"-0.004": 19.2876558759,
			"-0.003": 20.1971425585,
			"-0.002": 20.6121386893,
			"-0.001": 20.2120569849,
			"0.0": 19.5103540153,
			"0.001": 15.086025375,
			"0.002": 16.6830398316,
			"0.003": 17.681543546,
			"0.004": 18.4672168147,
			"0.005": 15.8282504416,
			"0.006": 3.6567490292,
			"0.007": 2.70622547579,
			"0.008": 3.08586756568,
			"0.009": 3.07974228992,
			"0.01": 1.76593417507,
			"0.011": 3.21647084689,
			"0.012": 2.65206028368,
			"0.013": 0.0999135180695,
			"0.014": 0.0,
			"0.015": 0.0,
			"0.016": 0.0,
			"0.017": 0.0,
			"0.018": 0.0,
			"0.019": 0.0,
			"0.02": 0.0,
			"0.021": 0.0,
			"0.022": 0.0,
			"0.023": 0.0,
			"0.024": 0.0,
			"0.025": 0.0
		}
	}
}
