{
	 "smiles": "ClC1=NC2=C(C=CC=C2)N1CC(=O)C1=CC=CC=C1", 
	 "Tm": 442.15, 
	 "num_atms": 30, 
	 "gaussian": { 
		 "optdone": 1, 
		 "sigma_profile": "yes", 
		 "theory": "DFT", 
		 "functional": "B3LYP", 
		 "basiset": "6-31G**", 
		 "properties": { 
			 "R2extent": 5470.626, 
			 "electric_dipole_moment_norm": 2.64447210044, 
			 "electric_quadrupole_moment_norm": 14.8929010304, 
			 "total_energy": -1223.14519154, 
			 "HOMO_LUMO_gap": 0.15433, 
			 "cosmo_polarized_energy": -11.88, 
			 "cosmo_cavitation_energy": 35.76, 
			 "cosmo_dispersion_energy": -25.28, 
			 "cosmo_repulsion_energy": 1.92, 
			 "cosmo_total_nonelectrostatic_energy": 12.4, 
			 "SMD_solvation_energy": 4.11 
		},
		"coords": [
			{
				"x": 1.8170141453,
				"y": 2.3045873784,
				"z": 2.4809517894,
				"element": "Cl" 
			},
			{
				"x": 0.3255290467,
				"y": 1.4936568733,
				"z": 2.1310494521,
				"element": "C" 
			},
			{
				"x": -0.8342706186,
				"y": 2.0730069581,
				"z": 2.1691057811,
				"element": "N" 
			},
			{
				"x": -1.7304063241,
				"y": 1.054583114,
				"z": 1.8593448697,
				"element": "C" 
			},
			{
				"x": -1.0414905216,
				"y": -0.1590243249,
				"z": 1.6364482371,
				"element": "C" 
			},
			{
				"x": -1.6992254518,
				"y": -1.3543649582,
				"z": 1.336112234,
				"element": "C" 
			},
			{
				"x": -3.0888927058,
				"y": -1.2913527248,
				"z": 1.2537704987,
				"element": "C" 
			},
			{
				"x": -3.7908681977,
				"y": -0.0876399456,
				"z": 1.462341532,
				"element": "C" 
			},
			{
				"x": -3.1260390301,
				"y": 1.0959346185,
				"z": 1.7674116023,
				"element": "C" 
			},
			{
				"x": 0.3102463914,
				"y": 0.1498022253,
				"z": 1.8024097148,
				"element": "N" 
			},
			{
				"x": 1.4142085238,
				"y": -0.796725389,
				"z": 1.7494399347,
				"element": "C" 
			},
			{
				"x": 1.5098935452,
				"y": -1.5585547603,
				"z": 0.4078459521,
				"element": "C" 
			},
			{
				"x": 1.3276504449,
				"y": -2.7667931399,
				"z": 0.4250595263,
				"element": "O" 
			},
			{
				"x": 1.822457026,
				"y": -0.8346104578,
				"z": -0.8562470944,
				"element": "C" 
			},
			{
				"x": 2.2078413299,
				"y": 0.514677198,
				"z": -0.8945219278,
				"element": "C" 
			},
			{
				"x": 2.5057914094,
				"y": 1.1245015927,
				"z": -2.1125383265,
				"element": "C" 
			},
			{
				"x": 2.4179846969,
				"y": 0.3961386863,
				"z": -3.300172666,
				"element": "C" 
			},
			{
				"x": 2.0361592736,
				"y": -0.9492533935,
				"z": -3.2708950276,
				"element": "C" 
			},
			{
				"x": 1.7431615618,
				"y": -1.5611722589,
				"z": -2.0574937584,
				"element": "C" 
			},
			{
				"x": -1.1623233725,
				"y": -2.2823348532,
				"z": 1.1744856021,
				"element": "H" 
			},
			{
				"x": -3.6439493508,
				"y": -2.1956231981,
				"z": 1.0229119218,
				"element": "H" 
			},
			{
				"x": -4.8740350794,
				"y": -0.0881120779,
				"z": 1.3858624995,
				"element": "H" 
			},
			{
				"x": -3.6577861873,
				"y": 2.0263171143,
				"z": 1.936569522,
				"element": "H" 
			},
			{
				"x": 1.287398356,
				"y": -1.5607587808,
				"z": 2.5218911479,
				"element": "H" 
			},
			{
				"x": 2.3390338909,
				"y": -0.2508548669,
				"z": 1.9491759816,
				"element": "H" 
			},
			{
				"x": 2.2853776082,
				"y": 1.096187428,
				"z": 0.0166584291,
				"element": "H" 
			},
			{
				"x": 2.8045816652,
				"y": 2.1680556411,
				"z": -2.1331358629,
				"element": "H" 
			},
			{
				"x": 2.6469229265,
				"y": 0.8751249567,
				"z": -4.247848653,
				"element": "H" 
			},
			{
				"x": 1.9688060777,
				"y": -1.5161882275,
				"z": -4.1946202275,
				"element": "H" 
			},
			{
				"x": 1.4496289204,
				"y": -2.6042104271,
				"z": -2.0087726842,
				"element": "H" 
			}
		],
		 "valence_orbital": [ 
			{
				"type": "occ",
				"energy": -0.27168,
				"method": "rhf"
			},
			{
				"type": "occ",
				"energy": -0.26979,
				"method": "rhf"
			},
			{
				"type": "occ",
				"energy": -0.26675,
				"method": "rhf"
			},
			{
				"type": "occ",
				"energy": -0.23224,
				"method": "rhf"
			},
			{
				"type": "occ",
				"energy": -0.22914,
				"method": "rhf"
			},
			{
				"type": "unocc",
				"energy": -0.07481,
				"method": "rhf"
			},
			{
				"type": "unocc",
				"energy": -0.02179,
				"method": "rhf"
			},
			{
				"type": "unocc",
				"energy": -0.01837,
				"method": "rhf"
			},
			{
				"type": "unocc",
				"energy": 0.01224,
				"method": "rhf"
			},
			{
				"type": "unocc",
				"energy": 0.02019,
				"method": "rhf"
			}
		],
		"cosmo_sigma_profile": { 
			"-0.025": 0.0,
			"-0.024": 0.0,
			"-0.023": 0.0,
			"-0.022": 0.0,
			"-0.021": 0.0,
			"-0.02": 0.0,
			"-0.019": 0.0,
			"-0.018": 0.0,
			"-0.017": 0.0,
			"-0.016": 0.0,
			"-0.015": 0.0,
			"-0.014": 0.0,
			"-0.013": 0.0,
			"-0.012": 0.0,
			"-0.011": 0.0,
			"-0.01": 0.311225922111,
			"-0.009": 2.18474526083,
			"-0.008": 2.53460332257,
			"-0.007": 7.04498461538,
			"-0.006": 18.4152673679,
			"-0.005": 23.007645806,
			"-0.004": 24.2273746898,
			"-0.003": 20.4283560113,
			"-0.002": 19.4838646997,
			"-0.001": 22.743072854,
			"0.0": 20.0527748608,
			"0.001": 20.3955162468,
			"0.002": 24.0026021343,
			"0.003": 28.2662180849,
			"0.004": 20.0943878128,
			"0.005": 11.1524698941,
			"0.006": 4.56758514881,
			"0.007": 3.00003429666,
			"0.008": 2.93461382426,
			"0.009": 3.28759882558,
			"0.01": 3.05517116292,
			"0.011": 4.28955815524,
			"0.012": 1.91407480939,
			"0.013": 0.929985905177,
			"0.014": 1.03422180273,
			"0.015": 0.93753340848,
			"0.016": 0.272498159663,
			"0.017": 0.0,
			"0.018": 0.0,
			"0.019": 0.0,
			"0.02": 0.0,
			"0.021": 0.0,
			"0.022": 0.0,
			"0.023": 0.0,
			"0.024": 0.0,
			"0.025": 0.0
		}
	}
}
