{
	 "smiles": "CC1C2CCC(C)(C1=O)C2(C)C", 
	 "Tm": 311.15, 
	 "num_atms": 30, 
	 "gaussian": { 
		 "optdone": 1, 
		 "sigma_profile": "yes", 
		 "theory": "DFT", 
		 "functional": "B3LYP", 
		 "basiset": "6-31G**", 
		 "properties": { 
			 "R2extent": 2118.5014, 
			 "electric_dipole_moment_norm": 2.81260315544, 
			 "electric_quadrupole_moment_norm": 8.87705064422, 
			 "total_energy": -505.250880318, 
			 "HOMO_LUMO_gap": 0.2202, 
			 "cosmo_polarized_energy": -6.43, 
			 "cosmo_cavitation_energy": 28.17, 
			 "cosmo_dispersion_energy": -20.21, 
			 "cosmo_repulsion_energy": 1.56, 
			 "cosmo_total_nonelectrostatic_energy": 9.53, 
			 "SMD_solvation_energy": 5.15 
		},
		"coords": [
			{
				"x": -2.6454430244,
				"y": 0.8071185922,
				"z": 1.2096276121,
				"element": "C" 
			},
			{
				"x": -1.4843838274,
				"y": 0.1211505933,
				"z": 0.4786794809,
				"element": "C" 
			},
			{
				"x": -0.026679718,
				"y": 0.4923020909,
				"z": 0.8697526852,
				"element": "C" 
			},
			{
				"x": 0.8442976767,
				"y": -0.7168712709,
				"z": 0.4508726783,
				"element": "C" 
			},
			{
				"x": 0.7978778193,
				"y": -0.641616856,
				"z": -1.1073754747,
				"element": "C" 
			},
			{
				"x": 0.0117342702,
				"y": 0.6771186545,
				"z": -1.4141012394,
				"element": "C" 
			},
			{
				"x": 0.1850967615,
				"y": 1.2188931553,
				"z": -2.8221281571,
				"element": "C" 
			},
			{
				"x": -1.4455568115,
				"y": 0.3578740114,
				"z": -1.0455665614,
				"element": "C" 
			},
			{
				"x": -2.3933859333,
				"y": 0.3071261027,
				"z": -1.8008568318,
				"element": "O" 
			},
			{
				"x": 0.3937604402,
				"y": 1.5790949267,
				"z": -0.1839174107,
				"element": "C" 
			},
			{
				"x": 1.8824144345,
				"y": 1.9619620457,
				"z": -0.1110786669,
				"element": "C" 
			},
			{
				"x": -0.4120620549,
				"y": 2.8914740722,
				"z": -0.1307640428,
				"element": "C" 
			},
			{
				"x": -2.5239346382,
				"y": 1.8903325414,
				"z": 1.2751600301,
				"element": "H" 
			},
			{
				"x": -2.7356199487,
				"y": 0.4211204355,
				"z": 2.2299769889,
				"element": "H" 
			},
			{
				"x": -3.5817884141,
				"y": 0.6025982438,
				"z": 0.6816213392,
				"element": "H" 
			},
			{
				"x": -1.6339708568,
				"y": -0.9600767105,
				"z": 0.6086523818,
				"element": "H" 
			},
			{
				"x": 0.0903844715,
				"y": 0.7932949184,
				"z": 1.9157301125,
				"element": "H" 
			},
			{
				"x": 0.4410140863,
				"y": -1.6577270976,
				"z": 0.8373973603,
				"element": "H" 
			},
			{
				"x": 1.8673218284,
				"y": -0.6333325054,
				"z": 0.8268799076,
				"element": "H" 
			},
			{
				"x": 1.7998822549,
				"y": -0.5800594932,
				"z": -1.5433223978,
				"element": "H" 
			},
			{
				"x": 0.3121241679,
				"y": -1.5116741775,
				"z": -1.5609394448,
				"element": "H" 
			},
			{
				"x": 1.2391971617,
				"y": 1.4115968786,
				"z": -3.0475390692,
				"element": "H" 
			},
			{
				"x": -0.195953807,
				"y": 0.5016232135,
				"z": -3.5556503657,
				"element": "H" 
			},
			{
				"x": -0.3740857601,
				"y": 2.1486061396,
				"z": -2.9642168949,
				"element": "H" 
			},
			{
				"x": 2.5637316365,
				"y": 1.1136267398,
				"z": -0.1961118103,
				"element": "H" 
			},
			{
				"x": 2.1358238316,
				"y": 2.6673277308,
				"z": -0.9096419697,
				"element": "H" 
			},
			{
				"x": 2.0948057573,
				"y": 2.4609296339,
				"z": 0.8419142339,
				"element": "H" 
			},
			{
				"x": -0.3179840006,
				"y": 3.366316629,
				"z": 0.8523317992,
				"element": "H" 
			},
			{
				"x": -0.0270770608,
				"y": 3.6000890557,
				"z": -0.8718160963,
				"element": "H" 
			},
			{
				"x": -1.4759407428,
				"y": 2.7622817064,
				"z": -0.3415701765,
				"element": "H" 
			}
		],
		 "valence_orbital": [ 
			{
				"type": "occ",
				"energy": -0.32357,
				"method": "rhf"
			},
			{
				"type": "occ",
				"energy": -0.31569,
				"method": "rhf"
			},
			{
				"type": "occ",
				"energy": -0.30531,
				"method": "rhf"
			},
			{
				"type": "occ",
				"energy": -0.29228,
				"method": "rhf"
			},
			{
				"type": "occ",
				"energy": -0.22808,
				"method": "rhf"
			},
			{
				"type": "unocc",
				"energy": -0.00788,
				"method": "rhf"
			},
			{
				"type": "unocc",
				"energy": 0.07149,
				"method": "rhf"
			},
			{
				"type": "unocc",
				"energy": 0.09958,
				"method": "rhf"
			},
			{
				"type": "unocc",
				"energy": 0.10309,
				"method": "rhf"
			},
			{
				"type": "unocc",
				"energy": 0.11706,
				"method": "rhf"
			}
		],
		"cosmo_sigma_profile": { 
			"-0.025": 0.0,
			"-0.024": 0.0,
			"-0.023": 0.0,
			"-0.022": 0.0,
			"-0.021": 0.0,
			"-0.02": 0.0,
			"-0.019": 0.0,
			"-0.018": 0.0,
			"-0.017": 0.0,
			"-0.016": 0.0,
			"-0.015": 0.0,
			"-0.014": 0.0,
			"-0.013": 0.0,
			"-0.012": 0.0,
			"-0.011": 0.0,
			"-0.01": 0.0,
			"-0.009": 0.0,
			"-0.008": 0.0,
			"-0.007": 0.0,
			"-0.006": 0.0,
			"-0.005": 2.04032510838,
			"-0.004": 9.52320300079,
			"-0.003": 29.9447512914,
			"-0.002": 39.7227972725,
			"-0.001": 40.267814815,
			"0.0": 33.8969427018,
			"0.001": 29.7896951595,
			"0.002": 7.34866739606,
			"0.003": 1.78067342332,
			"0.004": 1.63017363296,
			"0.005": 1.78756863505,
			"0.006": 1.87000961521,
			"0.007": 2.08737793744,
			"0.008": 1.44030053193,
			"0.009": 1.41645742915,
			"0.01": 2.21215101653,
			"0.011": 2.67815641953,
			"0.012": 4.50156665667,
			"0.013": 2.74141103802,
			"0.014": 0.166892277821,
			"0.015": 0.0,
			"0.016": 0.0,
			"0.017": 0.0,
			"0.018": 0.0,
			"0.019": 0.0,
			"0.02": 0.0,
			"0.021": 0.0,
			"0.022": 0.0,
			"0.023": 0.0,
			"0.024": 0.0,
			"0.025": 0.0
		}
	}
}
