{
	 "smiles": "[O-][N+](=O)C1=CC=CC(C=NNC2=CC=CC=C2)=C1", 
	 "Tm": 396.15, 
	 "num_atms": 29, 
	 "gaussian": { 
		 "optdone": 1, 
		 "sigma_profile": "yes", 
		 "theory": "DFT", 
		 "functional": "B3LYP", 
		 "basiset": "6-31G**", 
		 "properties": { 
			 "R2extent": 4347.0805, 
			 "electric_dipole_moment_norm": 3.50537471606, 
			 "electric_quadrupole_moment_norm": 18.7066615937, 
			 "total_energy": -816.564677736, 
			 "HOMO_LUMO_gap": 0.11812, 
			 "cosmo_polarized_energy": -13.4, 
			 "cosmo_cavitation_energy": 33.97, 
			 "cosmo_dispersion_energy": -23.35, 
			 "cosmo_repulsion_energy": 1.81, 
			 "cosmo_total_nonelectrostatic_energy": 12.43, 
			 "SMD_solvation_energy": 7.38 
		},
		"coords": [
			{
				"x": -1.2688303527,
				"y": -2.7983338857,
				"z": -2.4524877032,
				"element": "O" 
			},
			{
				"x": -0.8176487903,
				"y": -2.3655483174,
				"z": -1.392311949,
				"element": "N" 
			},
			{
				"x": -1.3584576778,
				"y": -2.4943461392,
				"z": -0.2957955066,
				"element": "O" 
			},
			{
				"x": 0.4679133627,
				"y": -1.643523486,
				"z": -1.4437541918,
				"element": "C" 
			},
			{
				"x": 1.1222228077,
				"y": -1.5332316249,
				"z": -2.6695564215,
				"element": "C" 
			},
			{
				"x": 2.346974377,
				"y": -0.8696034959,
				"z": -2.70164498,
				"element": "C" 
			},
			{
				"x": 2.8848523699,
				"y": -0.3373780552,
				"z": -1.5313109403,
				"element": "C" 
			},
			{
				"x": 2.2056653434,
				"y": -0.4281045032,
				"z": -0.3009202177,
				"element": "C" 
			},
			{
				"x": 2.8894249729,
				"y": 0.0991415743,
				"z": 0.8939638815,
				"element": "C" 
			},
			{
				"x": 2.5034521739,
				"y": 0.3681444267,
				"z": 2.0945651249,
				"element": "N" 
			},
			{
				"x": 1.1737243865,
				"y": 0.2757003999,
				"z": 2.4628292461,
				"element": "N" 
			},
			{
				"x": 0.1145758391,
				"y": 1.0305441851,
				"z": 1.8811362698,
				"element": "C" 
			},
			{
				"x": -1.1659077978,
				"y": 0.8454891783,
				"z": 2.4289448022,
				"element": "C" 
			},
			{
				"x": -2.2502769456,
				"y": 1.5690036833,
				"z": 1.9428328951,
				"element": "C" 
			},
			{
				"x": -2.081622255,
				"y": 2.4804570459,
				"z": 0.8966782081,
				"element": "C" 
			},
			{
				"x": -0.8113176874,
				"y": 2.6598154817,
				"z": 0.3510634428,
				"element": "C" 
			},
			{
				"x": 0.2861649171,
				"y": 1.9438805688,
				"z": 0.8340512308,
				"element": "C" 
			},
			{
				"x": 0.9716343498,
				"y": -1.100736709,
				"z": -0.2672069377,
				"element": "C" 
			},
			{
				"x": 0.6739748027,
				"y": -1.9634907708,
				"z": -3.5559480602,
				"element": "H" 
			},
			{
				"x": 2.8850785911,
				"y": -0.7744949052,
				"z": -3.6393500478,
				"element": "H" 
			},
			{
				"x": 3.8497763672,
				"y": 0.1618295165,
				"z": -1.5637667867,
				"element": "H" 
			},
			{
				"x": 3.9640893723,
				"y": 0.2368567339,
				"z": 0.7645271079,
				"element": "H" 
			},
			{
				"x": 1.1364634095,
				"y": 0.3303123375,
				"z": 3.4735855244,
				"element": "H" 
			},
			{
				"x": -1.3025683882,
				"y": 0.1246717322,
				"z": 3.2309008214,
				"element": "H" 
			},
			{
				"x": -3.2331572162,
				"y": 1.4116067442,
				"z": 2.3773676432,
				"element": "H" 
			},
			{
				"x": -2.9296237434,
				"y": 3.0377750681,
				"z": 0.5113578124,
				"element": "H" 
			},
			{
				"x": -0.6624384841,
				"y": 3.3689032552,
				"z": -0.4584609714,
				"element": "H" 
			},
			{
				"x": 1.2686743599,
				"y": 2.1128574124,
				"z": 0.4112496219,
				"element": "H" 
			},
			{
				"x": 0.4181875356,
				"y": -1.2276974515,
				"z": 0.6512610814,
				"element": "H" 
			}
		],
		 "valence_orbital": [ 
			{
				"type": "occ",
				"energy": -0.28411,
				"method": "rhf"
			},
			{
				"type": "occ",
				"energy": -0.27975,
				"method": "rhf"
			},
			{
				"type": "occ",
				"energy": -0.2623,
				"method": "rhf"
			},
			{
				"type": "occ",
				"energy": -0.25238,
				"method": "rhf"
			},
			{
				"type": "occ",
				"energy": -0.20677,
				"method": "rhf"
			},
			{
				"type": "unocc",
				"energy": -0.08865,
				"method": "rhf"
			},
			{
				"type": "unocc",
				"energy": -0.06204,
				"method": "rhf"
			},
			{
				"type": "unocc",
				"energy": -0.01121,
				"method": "rhf"
			},
			{
				"type": "unocc",
				"energy": -0.00197,
				"method": "rhf"
			},
			{
				"type": "unocc",
				"energy": 0.00581,
				"method": "rhf"
			}
		],
		"cosmo_sigma_profile": { 
			"-0.025": 0.0,
			"-0.024": 0.0,
			"-0.023": 0.0,
			"-0.022": 0.0,
			"-0.021": 0.0,
			"-0.02": 0.0,
			"-0.019": 0.0,
			"-0.018": 0.0,
			"-0.017": 0.0,
			"-0.016": 0.0,
			"-0.015": 0.0,
			"-0.014": 0.626797611883,
			"-0.013": 1.28749415575,
			"-0.012": 0.577481466674,
			"-0.011": 1.10412615833,
			"-0.01": 1.21430710028,
			"-0.009": 1.72759584899,
			"-0.008": 5.694529857,
			"-0.007": 10.8697679435,
			"-0.006": 14.7100744496,
			"-0.005": 17.7401975896,
			"-0.004": 18.1817161262,
			"-0.003": 19.2985128598,
			"-0.002": 16.0684418155,
			"-0.001": 18.8246711678,
			"0.0": 22.2679328616,
			"0.001": 21.9191888544,
			"0.002": 18.3129500955,
			"0.003": 13.7124503218,
			"0.004": 12.5345419465,
			"0.005": 13.5998566878,
			"0.006": 12.3725189779,
			"0.007": 9.9522821755,
			"0.008": 7.91938328727,
			"0.009": 4.96933271217,
			"0.01": 3.54618494541,
			"0.011": 1.09318079289,
			"0.012": 0.803820441657,
			"0.013": 0.548238574391,
			"0.014": 1.07638117057,
			"0.015": 0.129701242741,
			"0.016": 0.0,
			"0.017": 0.0,
			"0.018": 0.0,
			"0.019": 0.0,
			"0.02": 0.0,
			"0.021": 0.0,
			"0.022": 0.0,
			"0.023": 0.0,
			"0.024": 0.0,
			"0.025": 0.0
		}
	}
}
