{
	 "smiles": "NC(=O)CNC1=CC=C(C=C1)C(O)=O", 
	 "Tm": 523.15, 
	 "num_atms": 24, 
	 "gaussian": { 
		 "optdone": 1, 
		 "sigma_profile": "yes", 
		 "theory": "DFT", 
		 "functional": "B3LYP", 
		 "basiset": "6-31G**", 
		 "properties": { 
			 "R2extent": 4787.6997, 
			 "electric_dipole_moment_norm": 5.17002951055, 
			 "electric_quadrupole_moment_norm": 39.4074349274, 
			 "total_energy": -684.186226069, 
			 "HOMO_LUMO_gap": 0.18477, 
			 "cosmo_polarized_energy": -26.62, 
			 "cosmo_cavitation_energy": 28.74, 
			 "cosmo_dispersion_energy": -20.91, 
			 "cosmo_repulsion_energy": 1.67, 
			 "cosmo_total_nonelectrostatic_energy": 9.49, 
			 "SMD_solvation_energy": 6.49 
		},
		"coords": [
			{
				"x": -2.6056183845,
				"y": -0.6112479485,
				"z": 0.3707927649,
				"element": "N" 
			},
			{
				"x": -2.3856296288,
				"y": -1.950917995,
				"z": 0.4416918356,
				"element": "C" 
			},
			{
				"x": -2.9821458674,
				"y": -2.711212543,
				"z": 1.1890597406,
				"element": "O" 
			},
			{
				"x": -1.3469776099,
				"y": -2.4884953445,
				"z": -0.5597092891,
				"element": "C" 
			},
			{
				"x": -0.3779731697,
				"y": -1.5080402122,
				"z": -1.0255349587,
				"element": "N" 
			},
			{
				"x": 0.7627565989,
				"y": -1.2003456623,
				"z": -0.2873135079,
				"element": "C" 
			},
			{
				"x": 0.8702400484,
				"y": -1.5096706915,
				"z": 1.0814293978,
				"element": "C" 
			},
			{
				"x": 2.0115828278,
				"y": -1.1455039931,
				"z": 1.7903521026,
				"element": "C" 
			},
			{
				"x": 3.0714793324,
				"y": -0.4685854819,
				"z": 1.1727263601,
				"element": "C" 
			},
			{
				"x": 2.9667715236,
				"y": -0.1826201284,
				"z": -0.1990666581,
				"element": "C" 
			},
			{
				"x": 1.8350083236,
				"y": -0.5313020689,
				"z": -0.914886265,
				"element": "C" 
			},
			{
				"x": 4.3262780526,
				"y": -0.0662872327,
				"z": 1.8726261592,
				"element": "C" 
			},
			{
				"x": 4.2950700111,
				"y": -0.0420864359,
				"z": 3.235016478,
				"element": "O" 
			},
			{
				"x": 5.3456449742,
				"y": 0.2346195133,
				"z": 1.2937006183,
				"element": "O" 
			},
			{
				"x": -3.2425086617,
				"y": -0.1939867343,
				"z": 1.0317449762,
				"element": "H" 
			},
			{
				"x": -1.9943896784,
				"y": -0.0292249721,
				"z": -0.181104804,
				"element": "H" 
			},
			{
				"x": -0.8779886104,
				"y": -3.3613893926,
				"z": -0.0898864369,
				"element": "H" 
			},
			{
				"x": -1.9068958047,
				"y": -2.8530199767,
				"z": -1.4267069834,
				"element": "H" 
			},
			{
				"x": -0.2341100265,
				"y": -1.4924042468,
				"z": -2.0252951898,
				"element": "H" 
			},
			{
				"x": 0.0733220504,
				"y": -2.0373967279,
				"z": 1.592924258,
				"element": "H" 
			},
			{
				"x": 2.0715910176,
				"y": -1.4394532507,
				"z": 2.8360030881,
				"element": "H" 
			},
			{
				"x": 3.7980562255,
				"y": 0.3181824922,
				"z": -0.6835836649,
				"element": "H" 
			},
			{
				"x": 1.7682530717,
				"y": -0.2933159662,
				"z": -1.9739677042,
				"element": "H" 
			},
			{
				"x": 3.3861833844,
				"y": -0.1385950002,
				"z": 3.5498876826,
				"element": "H" 
			}
		],
		 "valence_orbital": [ 
			{
				"type": "occ",
				"energy": -0.27781,
				"method": "rhf"
			},
			{
				"type": "occ",
				"energy": -0.27202,
				"method": "rhf"
			},
			{
				"type": "occ",
				"energy": -0.26684,
				"method": "rhf"
			},
			{
				"type": "occ",
				"energy": -0.26048,
				"method": "rhf"
			},
			{
				"type": "occ",
				"energy": -0.22599,
				"method": "rhf"
			},
			{
				"type": "unocc",
				"energy": -0.04122,
				"method": "rhf"
			},
			{
				"type": "unocc",
				"energy": -0.02191,
				"method": "rhf"
			},
			{
				"type": "unocc",
				"energy": 0.01451,
				"method": "rhf"
			},
			{
				"type": "unocc",
				"energy": 0.05468,
				"method": "rhf"
			},
			{
				"type": "unocc",
				"energy": 0.05926,
				"method": "rhf"
			}
		],
		"cosmo_sigma_profile": { 
			"-0.025": 0.0,
			"-0.024": 0.0,
			"-0.023": 0.0,
			"-0.022": 0.0,
			"-0.021": 0.0,
			"-0.02": 0.0,
			"-0.019": 0.0,
			"-0.018": 0.694648619029,
			"-0.017": 1.11567292459,
			"-0.016": 0.982017154695,
			"-0.015": 0.789165173241,
			"-0.014": 2.77919626354,
			"-0.013": 3.98148369409,
			"-0.012": 4.59269057968,
			"-0.011": 4.53406310443,
			"-0.01": 5.12092111315,
			"-0.009": 5.15449202048,
			"-0.008": 7.36460290435,
			"-0.007": 6.11569815603,
			"-0.006": 9.96441194792,
			"-0.005": 12.8523386953,
			"-0.004": 12.4805597609,
			"-0.003": 12.8677148987,
			"-0.002": 11.6562401356,
			"-0.001": 10.037970028,
			"0.0": 9.99124291446,
			"0.001": 10.6164880255,
			"0.002": 11.972101814,
			"0.003": 11.4404503874,
			"0.004": 15.4105862011,
			"0.005": 6.38105537707,
			"0.006": 3.84526741498,
			"0.007": 3.32210780975,
			"0.008": 3.7528982493,
			"0.009": 4.16268133389,
			"0.01": 4.97383301876,
			"0.011": 6.53905015167,
			"0.012": 7.3673198663,
			"0.013": 7.1264364142,
			"0.014": 6.50607769121,
			"0.015": 1.6174296836,
			"0.016": 0.0,
			"0.017": 0.0,
			"0.018": 0.0,
			"0.019": 0.0,
			"0.02": 0.0,
			"0.021": 0.0,
			"0.022": 0.0,
			"0.023": 0.0,
			"0.024": 0.0,
			"0.025": 0.0
		}
	}
}
