{
	 "smiles": "BrC1=CC=CC(=C1)C1=NN=NN1", 
	 "Tm": 424.15, 
	 "num_atms": 17, 
	 "gaussian": { 
		 "optdone": 1, 
		 "sigma_profile": "yes", 
		 "theory": "DFT", 
		 "functional": "B3LYP", 
		 "basiset": "6-31G**", 
		 "properties": { 
			 "R2extent": 4717.4183, 
			 "electric_dipole_moment_norm": 4.31736589832, 
			 "electric_quadrupole_moment_norm": 15.971494086, 
			 "total_energy": -3060.11490538, 
			 "HOMO_LUMO_gap": 0.19094, 
			 "cosmo_polarized_energy": -17.33, 
			 "cosmo_cavitation_energy": 24.68, 
			 "cosmo_dispersion_energy": -18.82, 
			 "cosmo_repulsion_energy": 1.48, 
			 "cosmo_total_nonelectrostatic_energy": 7.34, 
			 "SMD_solvation_energy": 1.27 
		},
		"coords": [
			{
				"x": 4.2162645517,
				"y": -0.4444327515,
				"z": -1.9398918568,
				"element": "Br" 
			},
			{
				"x": 2.5025112426,
				"y": -1.1809723895,
				"z": -1.5328138378,
				"element": "C" 
			},
			{
				"x": 2.0972128116,
				"y": -2.3623753214,
				"z": -2.1514149029,
				"element": "C" 
			},
			{
				"x": 0.8403803527,
				"y": -2.8884832506,
				"z": -1.8431571313,
				"element": "C" 
			},
			{
				"x": 0.0036267887,
				"y": -2.2476695855,
				"z": -0.9345758234,
				"element": "C" 
			},
			{
				"x": 0.4212584867,
				"y": -1.0582403091,
				"z": -0.3169068689,
				"element": "C" 
			},
			{
				"x": 1.6818668565,
				"y": -0.5233256471,
				"z": -0.6209860121,
				"element": "C" 
			},
			{
				"x": -0.480269187,
				"y": -0.4059547498,
				"z": 0.6349830808,
				"element": "C" 
			},
			{
				"x": -1.6854832051,
				"y": -0.8350317632,
				"z": 0.983791796,
				"element": "N" 
			},
			{
				"x": -2.1710644588,
				"y": 0.0582612421,
				"z": 1.8815753216,
				"element": "N" 
			},
			{
				"x": -1.3255049181,
				"y": 1.01197646,
				"z": 2.0994244867,
				"element": "N" 
			},
			{
				"x": -0.2516136321,
				"y": 0.737790002,
				"z": 1.3229390692,
				"element": "N" 
			},
			{
				"x": 2.7509235253,
				"y": -2.8594078445,
				"z": -2.858719877,
				"element": "H" 
			},
			{
				"x": 0.5157991983,
				"y": -3.8082048524,
				"z": -2.31984615,
				"element": "H" 
			},
			{
				"x": -0.973108917,
				"y": -2.6490136442,
				"z": -0.689686144,
				"element": "H" 
			},
			{
				"x": 2.0348475661,
				"y": 0.393440466,
				"z": -0.1619078526,
				"element": "H" 
			},
			{
				"x": 0.5437529381,
				"y": 1.3588439388,
				"z": 1.3325927025,
				"element": "H" 
			}
		],
		 "valence_orbital": [ 
			{
				"type": "occ",
				"energy": -0.30599,
				"method": "rhf"
			},
			{
				"type": "occ",
				"energy": -0.30348,
				"method": "rhf"
			},
			{
				"type": "occ",
				"energy": -0.28987,
				"method": "rhf"
			},
			{
				"type": "occ",
				"energy": -0.27408,
				"method": "rhf"
			},
			{
				"type": "occ",
				"energy": -0.25839,
				"method": "rhf"
			},
			{
				"type": "unocc",
				"energy": -0.06745,
				"method": "rhf"
			},
			{
				"type": "unocc",
				"energy": -0.03619,
				"method": "rhf"
			},
			{
				"type": "unocc",
				"energy": -0.01193,
				"method": "rhf"
			},
			{
				"type": "unocc",
				"energy": -0.00647,
				"method": "rhf"
			},
			{
				"type": "unocc",
				"energy": 0.0424,
				"method": "rhf"
			}
		],
		"cosmo_sigma_profile": { 
			"-0.025": 0.0,
			"-0.024": 0.0,
			"-0.023": 0.0,
			"-0.022": 0.0,
			"-0.021": 0.0,
			"-0.02": 0.180721519697,
			"-0.019": 1.58928139189,
			"-0.018": 1.81243126499,
			"-0.017": 1.63402705095,
			"-0.016": 0.888902026496,
			"-0.015": 1.58021582013,
			"-0.014": 1.53904788803,
			"-0.013": 1.025341422,
			"-0.012": 1.04026218715,
			"-0.011": 1.05273356161,
			"-0.01": 1.58423118495,
			"-0.009": 1.12518212419,
			"-0.008": 2.89393876099,
			"-0.007": 7.05665884238,
			"-0.006": 7.53783829763,
			"-0.005": 7.96389562896,
			"-0.004": 11.3608364043,
			"-0.003": 11.2800609436,
			"-0.002": 9.47755742399,
			"-0.001": 11.5491631717,
			"0.0": 14.9537703221,
			"0.001": 22.8783016919,
			"0.002": 18.2139867895,
			"0.003": 11.906976618,
			"0.004": 13.9572536936,
			"0.005": 4.5617840468,
			"0.006": 2.71787793683,
			"0.007": 4.27352871361,
			"0.008": 5.49074247402,
			"0.009": 3.91039852482,
			"0.01": 5.09384532997,
			"0.011": 4.53007824795,
			"0.012": 3.03921100939,
			"0.013": 2.43295586406,
			"0.014": 0.863266775774,
			"0.015": 0.0,
			"0.016": 0.0,
			"0.017": 0.0,
			"0.018": 0.0,
			"0.019": 0.0,
			"0.02": 0.0,
			"0.021": 0.0,
			"0.022": 0.0,
			"0.023": 0.0,
			"0.024": 0.0,
			"0.025": 0.0
		}
	}
}
