{
	 "smiles": "NC(CSCC(O)=O)C(O)=O", 
	 "Tm": 479.15, 
	 "num_atms": 20, 
	 "gaussian": { 
		 "optdone": 1, 
		 "sigma_profile": "yes", 
		 "theory": "DFT", 
		 "functional": "B3LYP", 
		 "basiset": "6-31G**", 
		 "properties": { 
			 "R2extent": 3927.3973, 
			 "electric_dipole_moment_norm": 6.73328071374, 
			 "electric_quadrupole_moment_norm": 18.0440207562, 
			 "total_energy": -949.807464002, 
			 "HOMO_LUMO_gap": 0.25103, 
			 "cosmo_polarized_energy": -24.65, 
			 "cosmo_cavitation_energy": 26.12, 
			 "cosmo_dispersion_energy": -18.87, 
			 "cosmo_repulsion_energy": 1.52, 
			 "cosmo_total_nonelectrostatic_energy": 8.76, 
			 "SMD_solvation_energy": 6.13 
		},
		"coords": [
			{
				"x": -1.3848854915,
				"y": -0.6316383962,
				"z": -0.2298377135,
				"element": "N" 
			},
			{
				"x": -0.4859586013,
				"y": -1.3460638596,
				"z": 0.6833108557,
				"element": "C" 
			},
			{
				"x": 0.7371031578,
				"y": -2.0217246128,
				"z": 0.0483451377,
				"element": "C" 
			},
			{
				"x": 1.8837989806,
				"y": -0.8521502398,
				"z": -0.7885568586,
				"element": "S" 
			},
			{
				"x": 2.8113747849,
				"y": -0.1746266601,
				"z": 0.6390413973,
				"element": "C" 
			},
			{
				"x": 3.8568815821,
				"y": -1.1022590232,
				"z": 1.280942718,
				"element": "C" 
			},
			{
				"x": 4.2925169741,
				"y": -2.1305567207,
				"z": 0.532767593,
				"element": "O" 
			},
			{
				"x": 4.2817224903,
				"y": -0.8830932564,
				"z": 2.3872348452,
				"element": "O" 
			},
			{
				"x": -1.3044823078,
				"y": -2.3880533276,
				"z": 1.4868001367,
				"element": "C" 
			},
			{
				"x": -2.6175708322,
				"y": -2.1280183141,
				"z": 1.5088028495,
				"element": "O" 
			},
			{
				"x": -0.797005045,
				"y": -3.3229635037,
				"z": 2.05950947,
				"element": "O" 
			},
			{
				"x": -1.5016078568,
				"y": -1.1488721575,
				"z": -1.0993719079,
				"element": "H" 
			},
			{
				"x": -1.0084353305,
				"y": 0.2783158148,
				"z": -0.4775021667,
				"element": "H" 
			},
			{
				"x": -0.1441068642,
				"y": -0.6173597716,
				"z": 1.4299680816,
				"element": "H" 
			},
			{
				"x": 0.4176120994,
				"y": -2.7169218375,
				"z": -0.7354487438,
				"element": "H" 
			},
			{
				"x": 1.2737021083,
				"y": -2.6080624382,
				"z": 0.7972950745,
				"element": "H" 
			},
			{
				"x": 3.3378066889,
				"y": 0.7053976959,
				"z": 0.254688479,
				"element": "H" 
			},
			{
				"x": 2.1426899148,
				"y": 0.1739742348,
				"z": 1.4284931943,
				"element": "H" 
			},
			{
				"x": 3.8079831036,
				"y": -2.1297689444,
				"z": -0.3153039161,
				"element": "H" 
			},
			{
				"x": -2.7349395552,
				"y": -1.3409546819,
				"z": 0.927821474,
				"element": "H" 
			}
		],
		 "valence_orbital": [ 
			{
				"type": "occ",
				"energy": -0.31705,
				"method": "rhf"
			},
			{
				"type": "occ",
				"energy": -0.31074,
				"method": "rhf"
			},
			{
				"type": "occ",
				"energy": -0.29518,
				"method": "rhf"
			},
			{
				"type": "occ",
				"energy": -0.27193,
				"method": "rhf"
			},
			{
				"type": "occ",
				"energy": -0.26047,
				"method": "rhf"
			},
			{
				"type": "unocc",
				"energy": -0.00944,
				"method": "rhf"
			},
			{
				"type": "unocc",
				"energy": -0.00466,
				"method": "rhf"
			},
			{
				"type": "unocc",
				"energy": 0.00935,
				"method": "rhf"
			},
			{
				"type": "unocc",
				"energy": 0.04503,
				"method": "rhf"
			},
			{
				"type": "unocc",
				"energy": 0.0462,
				"method": "rhf"
			}
		],
		"cosmo_sigma_profile": { 
			"-0.025": 0.0,
			"-0.024": 0.0,
			"-0.023": 0.0,
			"-0.022": 0.0,
			"-0.021": 0.0,
			"-0.02": 0.0,
			"-0.019": 0.0,
			"-0.018": 0.0,
			"-0.017": 0.0,
			"-0.016": 0.0,
			"-0.015": 0.0,
			"-0.014": 0.0,
			"-0.013": 0.469205312657,
			"-0.012": 2.99714983804,
			"-0.011": 4.48229682146,
			"-0.01": 6.5329685831,
			"-0.009": 12.8180026587,
			"-0.008": 13.167117591,
			"-0.007": 12.5600490851,
			"-0.006": 11.827781339,
			"-0.005": 12.3566437753,
			"-0.004": 10.4002455961,
			"-0.003": 7.69413841925,
			"-0.002": 6.22293784812,
			"-0.001": 6.37619882543,
			"0.0": 6.2153406363,
			"0.001": 7.15161129988,
			"0.002": 6.42763506815,
			"0.003": 5.72437338964,
			"0.004": 7.84599018188,
			"0.005": 7.26765265025,
			"0.006": 6.78322595858,
			"0.007": 5.2471149064,
			"0.008": 5.81673863744,
			"0.009": 7.53034314499,
			"0.01": 9.57172273731,
			"0.011": 10.0496584676,
			"0.012": 10.274187293,
			"0.013": 3.33854776571,
			"0.014": 0.176126231621,
			"0.015": 0.0,
			"0.016": 0.0,
			"0.017": 0.0,
			"0.018": 0.0,
			"0.019": 0.0,
			"0.02": 0.0,
			"0.021": 0.0,
			"0.022": 0.0,
			"0.023": 0.0,
			"0.024": 0.0,
			"0.025": 0.0
		}
	}
}
