{
	 "smiles": "NS(=O)(=O)C1=CC(=C(Br)C=C1)[N+]([O-])=O", 
	 "Tm": 459.15, 
	 "num_atms": 19, 
	 "gaussian": { 
		 "optdone": 1, 
		 "sigma_profile": "yes", 
		 "theory": "DFT", 
		 "functional": "B3LYP", 
		 "basiset": "6-31G**", 
		 "properties": { 
			 "R2extent": 5812.9376, 
			 "electric_dipole_moment_norm": 4.64405643161, 
			 "electric_quadrupole_moment_norm": 17.3396860147, 
			 "total_energy": -3611.45340676, 
			 "HOMO_LUMO_gap": 0.17494, 
			 "cosmo_polarized_energy": -18.01, 
			 "cosmo_cavitation_energy": 28.44, 
			 "cosmo_dispersion_energy": -21.65, 
			 "cosmo_repulsion_energy": 1.67, 
			 "cosmo_total_nonelectrostatic_energy": 8.45, 
			 "SMD_solvation_energy": 5.72 
		},
		"coords": [
			{
				"x": 1.1512952344,
				"y": 3.0213411168,
				"z": -1.4818857986,
				"element": "N" 
			},
			{
				"x": -0.3981754321,
				"y": 2.529102851,
				"z": -1.9403775694,
				"element": "S" 
			},
			{
				"x": -1.3422902641,
				"y": 3.2986487363,
				"z": -1.1279009796,
				"element": "O" 
			},
			{
				"x": -0.4516694454,
				"y": 2.4912663196,
				"z": -3.4026329221,
				"element": "O" 
			},
			{
				"x": -0.468045881,
				"y": 0.8279291644,
				"z": -1.3656497923,
				"element": "C" 
			},
			{
				"x": -0.095199098,
				"y": -0.1963362294,
				"z": -2.2255581242,
				"element": "C" 
			},
			{
				"x": -0.1674218942,
				"y": -1.5180701211,
				"z": -1.7852809676,
				"element": "C" 
			},
			{
				"x": -0.5901256066,
				"y": -1.8190892865,
				"z": -0.4820616754,
				"element": "C" 
			},
			{
				"x": -0.6421005041,
				"y": -3.5667832564,
				"z": 0.2456530445,
				"element": "Br" 
			},
			{
				"x": -0.9544506459,
				"y": -0.7674007002,
				"z": 0.3666639957,
				"element": "C" 
			},
			{
				"x": -0.9079945923,
				"y": 0.5522370448,
				"z": -0.0701122073,
				"element": "C" 
			},
			{
				"x": 0.2131681857,
				"y": -2.5451623438,
				"z": -2.776209935,
				"element": "N" 
			},
			{
				"x": 1.0741920751,
				"y": -2.2239339473,
				"z": -3.5936301659,
				"element": "O" 
			},
			{
				"x": -0.3647778154,
				"y": -3.6247352626,
				"z": -2.7382656808,
				"element": "O" 
			},
			{
				"x": 1.7299245359,
				"y": 3.1723444776,
				"z": -2.3041182602,
				"element": "H" 
			},
			{
				"x": 1.0841554885,
				"y": 3.8581664673,
				"z": -0.9085161143,
				"element": "H" 
			},
			{
				"x": 0.2345455113,
				"y": 0.00926095,
				"z": -3.2364854485,
				"element": "H" 
			},
			{
				"x": -1.2775061107,
				"y": -0.9976612867,
				"z": 1.374951759,
				"element": "H" 
			},
			{
				"x": -1.2188237411,
				"y": 1.3609753062,
				"z": 0.581916842,
				"element": "H" 
			}
		],
		 "valence_orbital": [ 
			{
				"type": "occ",
				"energy": -0.32077,
				"method": "rhf"
			},
			{
				"type": "occ",
				"energy": -0.31207,
				"method": "rhf"
			},
			{
				"type": "occ",
				"energy": -0.30301,
				"method": "rhf"
			},
			{
				"type": "occ",
				"energy": -0.29027,
				"method": "rhf"
			},
			{
				"type": "occ",
				"energy": -0.27832,
				"method": "rhf"
			},
			{
				"type": "unocc",
				"energy": -0.10338,
				"method": "rhf"
			},
			{
				"type": "unocc",
				"energy": -0.06666,
				"method": "rhf"
			},
			{
				"type": "unocc",
				"energy": -0.03512,
				"method": "rhf"
			},
			{
				"type": "unocc",
				"energy": -0.02352,
				"method": "rhf"
			},
			{
				"type": "unocc",
				"energy": 0.03777,
				"method": "rhf"
			}
		],
		"cosmo_sigma_profile": { 
			"-0.025": 0.0,
			"-0.024": 0.0,
			"-0.023": 0.0,
			"-0.022": 0.0,
			"-0.021": 0.0,
			"-0.02": 0.0,
			"-0.019": 0.0,
			"-0.018": 0.0,
			"-0.017": 0.0,
			"-0.016": 0.185305345134,
			"-0.015": 2.06704853759,
			"-0.014": 2.93726857907,
			"-0.013": 1.87657166679,
			"-0.012": 2.83471627476,
			"-0.011": 2.02281056744,
			"-0.01": 2.43242595501,
			"-0.009": 6.32127259633,
			"-0.008": 7.2915450423,
			"-0.007": 8.52913782086,
			"-0.006": 9.22294609905,
			"-0.005": 9.2405049596,
			"-0.004": 11.0144011108,
			"-0.003": 14.4303101159,
			"-0.002": 18.6430181435,
			"-0.001": 17.2484445984,
			"0.0": 11.0195165277,
			"0.001": 11.3005059364,
			"0.002": 11.8273096863,
			"0.003": 10.4884209355,
			"0.004": 6.74908462888,
			"0.005": 7.7852153915,
			"0.006": 8.91840622906,
			"0.007": 13.7451609994,
			"0.008": 9.41201701814,
			"0.009": 8.0128619715,
			"0.01": 9.07136662985,
			"0.011": 6.67446784443,
			"0.012": 0.306328265727,
			"0.013": 0.0,
			"0.014": 0.0,
			"0.015": 0.0,
			"0.016": 0.0,
			"0.017": 0.0,
			"0.018": 0.0,
			"0.019": 0.0,
			"0.02": 0.0,
			"0.021": 0.0,
			"0.022": 0.0,
			"0.023": 0.0,
			"0.024": 0.0,
			"0.025": 0.0
		}
	}
}
