{
	 "smiles": "COC(=O)CCC1=CC(CCC(=O)OC)=CC=C1", 
	 "Tm": 324.15, 
	 "num_atms": 36, 
	 "gaussian": { 
		 "optdone": 1, 
		 "sigma_profile": "yes", 
		 "theory": "DFT", 
		 "functional": "B3LYP", 
		 "basiset": "6-31G**", 
		 "properties": { 
			 "R2extent": 4933.9748, 
			 "electric_dipole_moment_norm": 2.74184173686, 
			 "electric_quadrupole_moment_norm": 14.0042954339, 
			 "total_energy": -845.264977458, 
			 "HOMO_LUMO_gap": 0.23418, 
			 "cosmo_polarized_energy": -14.01, 
			 "cosmo_cavitation_energy": 39.63, 
			 "cosmo_dispersion_energy": -25.35, 
			 "cosmo_repulsion_energy": 1.99, 
			 "cosmo_total_nonelectrostatic_energy": 16.26, 
			 "SMD_solvation_energy": 9.13 
		},
		"coords": [
			{
				"x": -3.1765083996,
				"y": 2.8541353481,
				"z": 1.1633224239,
				"element": "C" 
			},
			{
				"x": -2.5132765735,
				"y": 1.9429353694,
				"z": 2.0570030668,
				"element": "O" 
			},
			{
				"x": -2.5825327702,
				"y": 0.6401607881,
				"z": 1.7096192895,
				"element": "C" 
			},
			{
				"x": -3.1853921213,
				"y": 0.2446449391,
				"z": 0.7333533965,
				"element": "O" 
			},
			{
				"x": -1.8513301385,
				"y": -0.2445687814,
				"z": 2.7006802473,
				"element": "C" 
			},
			{
				"x": -0.437200797,
				"y": 0.2455128579,
				"z": 3.0770276358,
				"element": "C" 
			},
			{
				"x": 0.502241677,
				"y": 0.3911782485,
				"z": 1.8949049544,
				"element": "C" 
			},
			{
				"x": 0.8193096185,
				"y": -0.7122298882,
				"z": 1.0893420124,
				"element": "C" 
			},
			{
				"x": 1.6815888977,
				"y": -0.602729801,
				"z": -0.006138805,
				"element": "C" 
			},
			{
				"x": 1.9744481116,
				"y": -1.8029011021,
				"z": -0.8839613698,
				"element": "C" 
			},
			{
				"x": 1.2834246235,
				"y": -1.7371658478,
				"z": -2.2631096096,
				"element": "C" 
			},
			{
				"x": -0.2332035507,
				"y": -1.6585260311,
				"z": -2.2202624922,
				"element": "C" 
			},
			{
				"x": -0.9039732661,
				"y": -0.9262244244,
				"z": -2.9141076065,
				"element": "O" 
			},
			{
				"x": -0.7541186573,
				"y": -2.5389084281,
				"z": -1.3369378141,
				"element": "O" 
			},
			{
				"x": -2.1927189682,
				"y": -2.5295128609,
				"z": -1.2273706455,
				"element": "C" 
			},
			{
				"x": 2.2483957414,
				"y": 0.6488616657,
				"z": -0.2892441277,
				"element": "C" 
			},
			{
				"x": 1.9448786535,
				"y": 1.7559771804,
				"z": 0.4994010636,
				"element": "C" 
			},
			{
				"x": 1.0719254237,
				"y": 1.629900777,
				"z": 1.5824611027,
				"element": "C" 
			},
			{
				"x": -2.753902664,
				"y": 2.7793384576,
				"z": 0.158731114,
				"element": "H" 
			},
			{
				"x": -4.2458228375,
				"y": 2.6342156567,
				"z": 1.1142028594,
				"element": "H" 
			},
			{
				"x": -3.0086203125,
				"y": 3.8478207426,
				"z": 1.5784616792,
				"element": "H" 
			},
			{
				"x": -2.4641807587,
				"y": -0.3008946433,
				"z": 3.609671597,
				"element": "H" 
			},
			{
				"x": -1.8247359028,
				"y": -1.245831097,
				"z": 2.2654242765,
				"element": "H" 
			},
			{
				"x": -0.019455229,
				"y": -0.4694799518,
				"z": 3.7973674379,
				"element": "H" 
			},
			{
				"x": -0.5199748849,
				"y": 1.2041497222,
				"z": 3.5963677435,
				"element": "H" 
			},
			{
				"x": 0.383572047,
				"y": -1.6831529665,
				"z": 1.3130081581,
				"element": "H" 
			},
			{
				"x": 3.0550409347,
				"y": -1.8823648002,
				"z": -1.0547615912,
				"element": "H" 
			},
			{
				"x": 1.6636080703,
				"y": -2.7187357516,
				"z": -0.3739029198,
				"element": "H" 
			},
			{
				"x": 1.5508089094,
				"y": -2.6319562727,
				"z": -2.8405251824,
				"element": "H" 
			},
			{
				"x": 1.6216748559,
				"y": -0.8690602803,
				"z": -2.8337939911,
				"element": "H" 
			},
			{
				"x": -2.5326010169,
				"y": -1.611742881,
				"z": -0.7413611049,
				"element": "H" 
			},
			{
				"x": -2.6504315784,
				"y": -2.609499644,
				"z": -2.2156795566,
				"element": "H" 
			},
			{
				"x": -2.4430658747,
				"y": -3.3986640349,
				"z": -0.6178234572,
				"element": "H" 
			},
			{
				"x": 2.9295111092,
				"y": 0.7541492699,
				"z": -1.1304826679,
				"element": "H" 
			},
			{
				"x": 2.3880866883,
				"y": 2.7215378552,
				"z": 0.2718292955,
				"element": "H" 
			},
			{
				"x": 0.83393094,
				"y": 2.4977306098,
				"z": 2.1918835875,
				"element": "H" 
			}
		],
		 "valence_orbital": [ 
			{
				"type": "occ",
				"energy": -0.28872,
				"method": "rhf"
			},
			{
				"type": "occ",
				"energy": -0.27047,
				"method": "rhf"
			},
			{
				"type": "occ",
				"energy": -0.25789,
				"method": "rhf"
			},
			{
				"type": "occ",
				"energy": -0.24308,
				"method": "rhf"
			},
			{
				"type": "occ",
				"energy": -0.23717,
				"method": "rhf"
			},
			{
				"type": "unocc",
				"energy": -0.00299,
				"method": "rhf"
			},
			{
				"type": "unocc",
				"energy": 0.00037,
				"method": "rhf"
			},
			{
				"type": "unocc",
				"energy": 0.01112,
				"method": "rhf"
			},
			{
				"type": "unocc",
				"energy": 0.02311,
				"method": "rhf"
			},
			{
				"type": "unocc",
				"energy": 0.08216,
				"method": "rhf"
			}
		],
		"cosmo_sigma_profile": { 
			"-0.025": 0.0,
			"-0.024": 0.0,
			"-0.023": 0.0,
			"-0.022": 0.0,
			"-0.021": 0.0,
			"-0.02": 0.0,
			"-0.019": 0.0,
			"-0.018": 0.0,
			"-0.017": 0.0,
			"-0.016": 0.0,
			"-0.015": 0.0,
			"-0.014": 0.0,
			"-0.013": 0.0,
			"-0.012": 0.0,
			"-0.011": 0.0,
			"-0.01": 0.0,
			"-0.009": 0.0,
			"-0.008": 0.0,
			"-0.007": 1.44997837737,
			"-0.006": 13.7075710395,
			"-0.005": 27.8883137513,
			"-0.004": 38.6151146686,
			"-0.003": 40.2698191313,
			"-0.002": 31.5514158289,
			"-0.001": 21.1170391749,
			"0.0": 15.4162994086,
			"0.001": 17.4389865274,
			"0.002": 18.9752650333,
			"0.003": 17.2150359241,
			"0.004": 14.3627202684,
			"0.005": 12.0308890723,
			"0.006": 10.7111123709,
			"0.007": 5.88193904234,
			"0.008": 5.60629133773,
			"0.009": 2.67321153146,
			"0.01": 3.68364138213,
			"0.011": 5.22184679492,
			"0.012": 5.95020496288,
			"0.013": 2.01157324807,
			"0.014": 0.0891140893759,
			"0.015": 0.0,
			"0.016": 0.0,
			"0.017": 0.0,
			"0.018": 0.0,
			"0.019": 0.0,
			"0.02": 0.0,
			"0.021": 0.0,
			"0.022": 0.0,
			"0.023": 0.0,
			"0.024": 0.0,
			"0.025": 0.0
		}
	}
}
