{
	 "smiles": "CC1=C(N)C=CC(Br)=C1", 
	 "Tm": 332.65, 
	 "num_atms": 17, 
	 "gaussian": { 
		 "optdone": 1, 
		 "sigma_profile": "yes", 
		 "theory": "DFT", 
		 "functional": "B3LYP", 
		 "basiset": "6-31G**", 
		 "properties": { 
			 "R2extent": 2974.1353, 
			 "electric_dipole_moment_norm": 3.70101695484, 
			 "electric_quadrupole_moment_norm": 10.1019015789, 
			 "total_energy": -2897.73272778, 
			 "HOMO_LUMO_gap": 0.19844, 
			 "cosmo_polarized_energy": -8.63, 
			 "cosmo_cavitation_energy": 22.59, 
			 "cosmo_dispersion_energy": -17.31, 
			 "cosmo_repulsion_energy": 1.42, 
			 "cosmo_total_nonelectrostatic_energy": 6.7, 
			 "SMD_solvation_energy": 2.66 
		},
		"coords": [
			{
				"x": -1.9110548743,
				"y": 1.2454100202,
				"z": -1.3315876858,
				"element": "C" 
			},
			{
				"x": -1.1035973825,
				"y": 0.9428612098,
				"z": -0.0939239116,
				"element": "C" 
			},
			{
				"x": -1.5615505643,
				"y": -0.017305394,
				"z": 0.8384315876,
				"element": "C" 
			},
			{
				"x": -2.7423591934,
				"y": -0.7245930037,
				"z": 0.5971464677,
				"element": "N" 
			},
			{
				"x": -0.7861394875,
				"y": -0.2951388285,
				"z": 1.9748326688,
				"element": "C" 
			},
			{
				"x": 0.4238908281,
				"y": 0.3562404087,
				"z": 2.2001519312,
				"element": "C" 
			},
			{
				"x": 0.8639511021,
				"y": 1.303569463,
				"z": 1.2810289261,
				"element": "C" 
			},
			{
				"x": 2.5209306936,
				"y": 2.21790809,
				"z": 1.5741346969,
				"element": "Br" 
			},
			{
				"x": 0.1086044965,
				"y": 1.5932978449,
				"z": 0.1467033903,
				"element": "C" 
			},
			{
				"x": -1.3947030236,
				"y": 1.9632617086,
				"z": -1.9731970057,
				"element": "H" 
			},
			{
				"x": -2.0959225478,
				"y": 0.3376580987,
				"z": -1.9191481697,
				"element": "H" 
			},
			{
				"x": -2.8924098379,
				"y": 1.676843012,
				"z": -1.0872605825,
				"element": "H" 
			},
			{
				"x": -3.1369060066,
				"y": -1.179646334,
				"z": 1.408882522,
				"element": "H" 
			},
			{
				"x": -3.4466629271,
				"y": -0.2313755581,
				"z": 0.0664187976,
				"element": "H" 
			},
			{
				"x": -1.1350533763,
				"y": -1.0354993975,
				"z": 2.6907573718,
				"element": "H" 
			},
			{
				"x": 1.0116070071,
				"y": 0.1308229985,
				"z": 3.082758507,
				"element": "H" 
			},
			{
				"x": 0.4659750939,
				"y": 2.3321856614,
				"z": -0.5630295118,
				"element": "H" 
			}
		],
		 "valence_orbital": [ 
			{
				"type": "occ",
				"energy": -0.33313,
				"method": "rhf"
			},
			{
				"type": "occ",
				"energy": -0.2759,
				"method": "rhf"
			},
			{
				"type": "occ",
				"energy": -0.27541,
				"method": "rhf"
			},
			{
				"type": "occ",
				"energy": -0.24869,
				"method": "rhf"
			},
			{
				"type": "occ",
				"energy": -0.20117,
				"method": "rhf"
			},
			{
				"type": "unocc",
				"energy": -0.00273,
				"method": "rhf"
			},
			{
				"type": "unocc",
				"energy": 0.00928,
				"method": "rhf"
			},
			{
				"type": "unocc",
				"energy": 0.01818,
				"method": "rhf"
			},
			{
				"type": "unocc",
				"energy": 0.07079,
				"method": "rhf"
			},
			{
				"type": "unocc",
				"energy": 0.10567,
				"method": "rhf"
			}
		],
		"cosmo_sigma_profile": { 
			"-0.025": 0.0,
			"-0.024": 0.0,
			"-0.023": 0.0,
			"-0.022": 0.0,
			"-0.021": 0.0,
			"-0.02": 0.0,
			"-0.019": 0.0,
			"-0.018": 0.0,
			"-0.017": 0.0,
			"-0.016": 0.0,
			"-0.015": 0.0,
			"-0.014": 0.0,
			"-0.013": 0.243786156404,
			"-0.012": 2.00730248164,
			"-0.011": 2.68838979789,
			"-0.01": 2.81251153722,
			"-0.009": 3.83144084934,
			"-0.008": 2.69651331023,
			"-0.007": 3.62087460784,
			"-0.006": 6.93302296715,
			"-0.005": 8.97940743809,
			"-0.004": 11.1381462382,
			"-0.003": 11.4810998451,
			"-0.002": 11.7923095708,
			"-0.001": 12.006179252,
			"0.0": 13.4239309177,
			"0.001": 9.59282572392,
			"0.002": 10.3931666246,
			"0.003": 14.3056190192,
			"0.004": 17.8710269294,
			"0.005": 23.7345364068,
			"0.006": 7.43662743279,
			"0.007": 0.942583308539,
			"0.008": 0.628279094701,
			"0.009": 0.810199819696,
			"0.01": 0.56512355734,
			"0.011": 0.785275176001,
			"0.012": 0.788399124934,
			"0.013": 0.283705301782,
			"0.014": 0.499186382355,
			"0.015": 0.122775576241,
			"0.016": 0.0,
			"0.017": 0.0,
			"0.018": 0.0,
			"0.019": 0.0,
			"0.02": 0.0,
			"0.021": 0.0,
			"0.022": 0.0,
			"0.023": 0.0,
			"0.024": 0.0,
			"0.025": 0.0
		}
	}
}
