{
	 "smiles": "COC1=C(OC)C=C(C=C1)S(N)(=O)=O", 
	 "Tm": 409.15, 
	 "num_atms": 25, 
	 "gaussian": { 
		 "optdone": 1, 
		 "sigma_profile": "yes", 
		 "theory": "DFT", 
		 "functional": "B3LYP", 
		 "basiset": "6-31G**", 
		 "properties": { 
			 "R2extent": 4181.6528, 
			 "electric_dipole_moment_norm": 6.50674475141, 
			 "electric_quadrupole_moment_norm": 15.5226840972, 
			 "total_energy": -1065.21009452, 
			 "HOMO_LUMO_gap": 0.21196, 
			 "cosmo_polarized_energy": -19.56, 
			 "cosmo_cavitation_energy": 30.33, 
			 "cosmo_dispersion_energy": -22.27, 
			 "cosmo_repulsion_energy": 1.73, 
			 "cosmo_total_nonelectrostatic_energy": 9.79, 
			 "SMD_solvation_energy": 6.4 
		},
		"coords": [
			{
				"x": 2.4416573504,
				"y": -0.5084353701,
				"z": -3.5405941171,
				"element": "C" 
			},
			{
				"x": 2.4592452567,
				"y": -0.9802616083,
				"z": -2.18486069,
				"element": "O" 
			},
			{
				"x": 1.2418511591,
				"y": -1.0243043164,
				"z": -1.5560654846,
				"element": "C" 
			},
			{
				"x": 0.5156199564,
				"y": 0.1498617738,
				"z": -1.2603690082,
				"element": "C" 
			},
			{
				"x": 0.9755111848,
				"y": 1.3904008685,
				"z": -1.6311654129,
				"element": "O" 
			},
			{
				"x": 2.1169581949,
				"y": 1.8537535791,
				"z": -0.8929775567,
				"element": "C" 
			},
			{
				"x": -0.7096770969,
				"y": 0.0559082573,
				"z": -0.6028443526,
				"element": "C" 
			},
			{
				"x": -1.1992321926,
				"y": -1.1974353566,
				"z": -0.2278925958,
				"element": "C" 
			},
			{
				"x": -0.4709105534,
				"y": -2.3619974565,
				"z": -0.4766464509,
				"element": "C" 
			},
			{
				"x": 0.7470953922,
				"y": -2.2656511256,
				"z": -1.1474189525,
				"element": "C" 
			},
			{
				"x": -2.7945552618,
				"y": -1.3064486141,
				"z": 0.5926167619,
				"element": "S" 
			},
			{
				"x": -3.9582973648,
				"y": -1.4277892851,
				"z": -0.6176143885,
				"element": "N" 
			},
			{
				"x": -2.8338483418,
				"y": -2.583469019,
				"z": 1.3031176712,
				"element": "O" 
			},
			{
				"x": -3.042868032,
				"y": -0.0218868056,
				"z": 1.2447416979,
				"element": "O" 
			},
			{
				"x": 2.0442779779,
				"y": 0.5080984644,
				"z": -3.6053919743,
				"element": "H" 
			},
			{
				"x": 1.8442057737,
				"y": -1.1777747427,
				"z": -4.171488083,
				"element": "H" 
			},
			{
				"x": 3.4790929216,
				"y": -0.5253972629,
				"z": -3.8787013781,
				"element": "H" 
			},
			{
				"x": 2.968765872,
				"y": 1.1771994701,
				"z": -1.012320297,
				"element": "H" 
			},
			{
				"x": 2.363443308,
				"y": 2.835690845,
				"z": -1.3005910193,
				"element": "H" 
			},
			{
				"x": 1.8724830359,
				"y": 1.9523351086,
				"z": 0.171226787,
				"element": "H" 
			},
			{
				"x": -1.253033673,
				"y": 0.9633869624,
				"z": -0.3632070131,
				"element": "H" 
			},
			{
				"x": -0.8496248696,
				"y": -3.320392609,
				"z": -0.1392958894,
				"element": "H" 
			},
			{
				"x": 1.3402405027,
				"y": -3.1482858111,
				"z": -1.3636228874,
				"element": "H" 
			},
			{
				"x": -3.8720814572,
				"y": -2.2815676287,
				"z": -1.1600170786,
				"element": "H" 
			},
			{
				"x": -4.0113190432,
				"y": -0.5945383175,
				"z": -1.195118288,
				"element": "H" 
			}
		],
		 "valence_orbital": [ 
			{
				"type": "occ",
				"energy": -0.30244,
				"method": "rhf"
			},
			{
				"type": "occ",
				"energy": -0.2995,
				"method": "rhf"
			},
			{
				"type": "occ",
				"energy": -0.28144,
				"method": "rhf"
			},
			{
				"type": "occ",
				"energy": -0.2642,
				"method": "rhf"
			},
			{
				"type": "occ",
				"energy": -0.24897,
				"method": "rhf"
			},
			{
				"type": "unocc",
				"energy": -0.03701,
				"method": "rhf"
			},
			{
				"type": "unocc",
				"energy": -0.02208,
				"method": "rhf"
			},
			{
				"type": "unocc",
				"energy": 0.05143,
				"method": "rhf"
			},
			{
				"type": "unocc",
				"energy": 0.07179,
				"method": "rhf"
			},
			{
				"type": "unocc",
				"energy": 0.08613,
				"method": "rhf"
			}
		],
		"cosmo_sigma_profile": { 
			"-0.025": 0.0,
			"-0.024": 0.0,
			"-0.023": 0.0,
			"-0.022": 0.0,
			"-0.021": 0.0,
			"-0.02": 0.0,
			"-0.019": 0.0,
			"-0.018": 0.0,
			"-0.017": 0.0,
			"-0.016": 0.131060150488,
			"-0.015": 2.09973378347,
			"-0.014": 2.62140270634,
			"-0.013": 2.52489237487,
			"-0.012": 3.79813973807,
			"-0.011": 2.36149609666,
			"-0.01": 1.48997376186,
			"-0.009": 2.30312504257,
			"-0.008": 2.01219273283,
			"-0.007": 5.14752110844,
			"-0.006": 10.6139304095,
			"-0.005": 14.5097926942,
			"-0.004": 18.1690309291,
			"-0.003": 24.4760151295,
			"-0.002": 20.9916895986,
			"-0.001": 14.6270917898,
			"0.0": 11.3273002777,
			"0.001": 15.6043586974,
			"0.002": 15.1931959699,
			"0.003": 8.50265581801,
			"0.004": 5.18128462789,
			"0.005": 4.90811960998,
			"0.006": 6.07052213423,
			"0.007": 6.07325718164,
			"0.008": 6.06810656597,
			"0.009": 5.91865035492,
			"0.01": 10.3463493248,
			"0.011": 12.0033392884,
			"0.012": 5.37819478046,
			"0.013": 0.221665043425,
			"0.014": 0.0,
			"0.015": 0.0,
			"0.016": 0.0,
			"0.017": 0.0,
			"0.018": 0.0,
			"0.019": 0.0,
			"0.02": 0.0,
			"0.021": 0.0,
			"0.022": 0.0,
			"0.023": 0.0,
			"0.024": 0.0,
			"0.025": 0.0
		}
	}
}
