{
	 "smiles": "BrC1=CC2=C(COCO2)C=C1", 
	 "Tm": 323.15, 
	 "num_atms": 18, 
	 "gaussian": { 
		 "optdone": 1, 
		 "sigma_profile": "yes", 
		 "theory": "DFT", 
		 "functional": "B3LYP", 
		 "basiset": "6-31G**", 
		 "properties": { 
			 "R2extent": 5697.1258, 
			 "electric_dipole_moment_norm": 2.51804848841, 
			 "electric_quadrupole_moment_norm": 9.16074271771, 
			 "total_energy": -3030.90100668, 
			 "HOMO_LUMO_gap": 0.21105, 
			 "cosmo_polarized_energy": -7.2, 
			 "cosmo_cavitation_energy": 23.68, 
			 "cosmo_dispersion_energy": -18.63, 
			 "cosmo_repulsion_energy": 1.49, 
			 "cosmo_total_nonelectrostatic_energy": 6.53, 
			 "SMD_solvation_energy": 3.22 
		},
		"coords": [
			{
				"x": -2.7697926299,
				"y": -3.7680805604,
				"z": 3.0975160897,
				"element": "Br" 
			},
			{
				"x": -1.4898571974,
				"y": -2.8223950872,
				"z": 2.037395863,
				"element": "C" 
			},
			{
				"x": -1.3785330522,
				"y": -1.4453171202,
				"z": 2.1828600877,
				"element": "C" 
			},
			{
				"x": -0.4426417117,
				"y": -0.7602500071,
				"z": 1.400708681,
				"element": "C" 
			},
			{
				"x": 0.3851019033,
				"y": -1.4439516397,
				"z": 0.4972347897,
				"element": "C" 
			},
			{
				"x": 1.4161891459,
				"y": -0.6609175985,
				"z": -0.284933038,
				"element": "C" 
			},
			{
				"x": 1.5949829386,
				"y": 0.6436973721,
				"z": 0.267949762,
				"element": "O" 
			},
			{
				"x": 0.3673342026,
				"y": 1.2512909835,
				"z": 0.5239761059,
				"element": "C" 
			},
			{
				"x": -0.3606027524,
				"y": 0.5954696639,
				"z": 1.5613428185,
				"element": "O" 
			},
			{
				"x": 0.2392299671,
				"y": -2.8280723453,
				"z": 0.3765278904,
				"element": "C" 
			},
			{
				"x": -0.6947833981,
				"y": -3.531267378,
				"z": 1.1351287298,
				"element": "C" 
			},
			{
				"x": -1.9978928766,
				"y": -0.8923300735,
				"z": 2.8783313542,
				"element": "H" 
			},
			{
				"x": 1.1331853719,
				"y": -0.5828050648,
				"z": -1.3479318231,
				"element": "H" 
			},
			{
				"x": 2.3960390432,
				"y": -1.1449719828,
				"z": -0.2369631173,
				"element": "H" 
			},
			{
				"x": 0.5612211239,
				"y": 2.2622781869,
				"z": 0.8826800041,
				"element": "H" 
			},
			{
				"x": -0.2611895248,
				"y": 1.2724319693,
				"z": -0.382329562,
				"element": "H" 
			},
			{
				"x": 0.8765887541,
				"y": -3.3721720638,
				"z": -0.3167508305,
				"element": "H" 
			},
			{
				"x": -0.7977793076,
				"y": -4.6051372546,
				"z": 1.037156195,
				"element": "H" 
			}
		],
		 "valence_orbital": [ 
			{
				"type": "occ",
				"energy": -0.3033,
				"method": "rhf"
			},
			{
				"type": "occ",
				"energy": -0.28689,
				"method": "rhf"
			},
			{
				"type": "occ",
				"energy": -0.28505,
				"method": "rhf"
			},
			{
				"type": "occ",
				"energy": -0.24769,
				"method": "rhf"
			},
			{
				"type": "occ",
				"energy": -0.23076,
				"method": "rhf"
			},
			{
				"type": "unocc",
				"energy": -0.01971,
				"method": "rhf"
			},
			{
				"type": "unocc",
				"energy": -0.00496,
				"method": "rhf"
			},
			{
				"type": "unocc",
				"energy": 0.00674,
				"method": "rhf"
			},
			{
				"type": "unocc",
				"energy": 0.09215,
				"method": "rhf"
			},
			{
				"type": "unocc",
				"energy": 0.11006,
				"method": "rhf"
			}
		],
		"cosmo_sigma_profile": { 
			"-0.025": 0.0,
			"-0.024": 0.0,
			"-0.023": 0.0,
			"-0.022": 0.0,
			"-0.021": 0.0,
			"-0.02": 0.0,
			"-0.019": 0.0,
			"-0.018": 0.0,
			"-0.017": 0.0,
			"-0.016": 0.0,
			"-0.015": 0.0,
			"-0.014": 0.0,
			"-0.013": 0.0,
			"-0.012": 0.0,
			"-0.011": 0.0,
			"-0.01": 0.0,
			"-0.009": 0.0,
			"-0.008": 1.48095760416,
			"-0.007": 9.41068022116,
			"-0.006": 17.7652020178,
			"-0.005": 16.2806425801,
			"-0.004": 12.9793694553,
			"-0.003": 8.92368756832,
			"-0.002": 9.60200582307,
			"-0.001": 8.89170332417,
			"0.0": 9.62283535897,
			"0.001": 11.8260179,
			"0.002": 19.2694179737,
			"0.003": 22.2691465205,
			"0.004": 19.1281997083,
			"0.005": 10.4056923833,
			"0.006": 1.88982916692,
			"0.007": 2.79744495725,
			"0.008": 2.29309276534,
			"0.009": 3.39725169832,
			"0.01": 1.83482167102,
			"0.011": 1.85385401504,
			"0.012": 0.442237203246,
			"0.013": 0.0,
			"0.014": 0.0,
			"0.015": 0.0,
			"0.016": 0.0,
			"0.017": 0.0,
			"0.018": 0.0,
			"0.019": 0.0,
			"0.02": 0.0,
			"0.021": 0.0,
			"0.022": 0.0,
			"0.023": 0.0,
			"0.024": 0.0,
			"0.025": 0.0
		}
	}
}
