{
	 "smiles": "CC1CS1", 
	 "Tm": 182.15, 
	 "num_atms": 10, 
	 "gaussian": { 
		 "optdone": 1, 
		 "sigma_profile": "yes", 
		 "theory": "DFT", 
		 "functional": "B3LYP", 
		 "basiset": "6-31G**", 
		 "properties": { 
			 "R2extent": 597.6387, 
			 "electric_dipole_moment_norm": 2.29456540112, 
			 "electric_quadrupole_moment_norm": 4.69446217793, 
			 "total_energy": -516.105809484, 
			 "HOMO_LUMO_gap": 0.23303, 
			 "cosmo_polarized_energy": -4.6, 
			 "cosmo_cavitation_energy": 14.43, 
			 "cosmo_dispersion_energy": -11.4, 
			 "cosmo_repulsion_energy": 0.98, 
			 "cosmo_total_nonelectrostatic_energy": 4.01, 
			 "SMD_solvation_energy": 2.07 
		},
		"coords": [
			{
				"x": -0.2088223336,
				"y": 1.0144623009,
				"z": 0.0998872098,
				"element": "C" 
			},
			{
				"x": -0.2354813205,
				"y": 0.0547306107,
				"z": 1.2675667272,
				"element": "C" 
			},
			{
				"x": 0.4019449639,
				"y": -1.2791068214,
				"z": 1.1662900366,
				"element": "C" 
			},
			{
				"x": -1.4341825967,
				"y": -1.352735241,
				"z": 1.2323170617,
				"element": "S" 
			},
			{
				"x": -0.2798250977,
				"y": 0.4766780577,
				"z": -0.8495940035,
				"element": "H" 
			},
			{
				"x": 0.7264896684,
				"y": 1.5885307501,
				"z": 0.1071367338,
				"element": "H" 
			},
			{
				"x": -1.0400523355,
				"y": 1.7235226212,
				"z": 0.152686876,
				"element": "H" 
			},
			{
				"x": -0.1870706132,
				"y": 0.5265298068,
				"z": 2.2475644386,
				"element": "H" 
			},
			{
				"x": 0.8369614095,
				"y": -1.5634858797,
				"z": 0.210993125,
				"element": "H" 
			},
			{
				"x": 0.9133382554,
				"y": -1.6845262051,
				"z": 2.0353517947,
				"element": "H" 
			}
		],
		 "valence_orbital": [ 
			{
				"type": "occ",
				"energy": -0.395,
				"method": "rhf"
			},
			{
				"type": "occ",
				"energy": -0.37172,
				"method": "rhf"
			},
			{
				"type": "occ",
				"energy": -0.31372,
				"method": "rhf"
			},
			{
				"type": "occ",
				"energy": -0.29749,
				"method": "rhf"
			},
			{
				"type": "occ",
				"energy": -0.22246,
				"method": "rhf"
			},
			{
				"type": "unocc",
				"energy": 0.01057,
				"method": "rhf"
			},
			{
				"type": "unocc",
				"energy": 0.06005,
				"method": "rhf"
			},
			{
				"type": "unocc",
				"energy": 0.10228,
				"method": "rhf"
			},
			{
				"type": "unocc",
				"energy": 0.11837,
				"method": "rhf"
			},
			{
				"type": "unocc",
				"energy": 0.1321,
				"method": "rhf"
			}
		],
		"cosmo_sigma_profile": { 
			"-0.025": 0.0,
			"-0.024": 0.0,
			"-0.023": 0.0,
			"-0.022": 0.0,
			"-0.021": 0.0,
			"-0.02": 0.0,
			"-0.019": 0.0,
			"-0.018": 0.0,
			"-0.017": 0.0,
			"-0.016": 0.0,
			"-0.015": 0.0,
			"-0.014": 0.0,
			"-0.013": 0.0,
			"-0.012": 0.0,
			"-0.011": 0.0,
			"-0.01": 0.0,
			"-0.009": 0.0,
			"-0.008": 0.0,
			"-0.007": 2.35397954865,
			"-0.006": 6.05016632391,
			"-0.005": 6.7787386881,
			"-0.004": 12.658368975,
			"-0.003": 12.5596624992,
			"-0.002": 12.0590465842,
			"-0.001": 11.6601912643,
			"0.0": 9.14298703038,
			"0.001": 3.23855117033,
			"0.002": 7.24566577796,
			"0.003": 7.58346821498,
			"0.004": 5.87460175541,
			"0.005": 3.67187897903,
			"0.006": 2.27690261758,
			"0.007": 3.28704691162,
			"0.008": 2.58857758085,
			"0.009": 2.17637453134,
			"0.01": 2.4789896763,
			"0.011": 1.81854494278,
			"0.012": 0.51196537012,
			"0.013": 0.0,
			"0.014": 0.0,
			"0.015": 0.0,
			"0.016": 0.0,
			"0.017": 0.0,
			"0.018": 0.0,
			"0.019": 0.0,
			"0.02": 0.0,
			"0.021": 0.0,
			"0.022": 0.0,
			"0.023": 0.0,
			"0.024": 0.0,
			"0.025": 0.0
		}
	}
}
