{
	 "smiles": "BrC1=CC=C(C=C1)C1C2=C(NC(C(=O)C3=CC=C(Br)C=C3)C2=O)OC2=C1C(=O)OC1=C2C=CC=C1", 
	 "Tm": 503.15, 
	 "num_atms": 50, 
	 "gaussian": { 
		 "optdone": 1, 
		 "sigma_profile": "yes", 
		 "theory": "DFT", 
		 "functional": "B3LYP", 
		 "basiset": "6-31G**", 
		 "properties": { 
			 "R2extent": 28667.5411, 
			 "electric_dipole_moment_norm": 8.52950725951, 
			 "electric_quadrupole_moment_norm": 21.3298807024, 
			 "total_energy": -6611.58221575, 
			 "HOMO_LUMO_gap": 0.14979, 
			 "cosmo_polarized_energy": -29.57, 
			 "cosmo_cavitation_energy": 60.72, 
			 "cosmo_dispersion_energy": -41.83, 
			 "cosmo_repulsion_energy": 3.14, 
			 "cosmo_total_nonelectrostatic_energy": 22.03, 
			 "SMD_solvation_energy": 9.16 
		},
		"coords": [
			{
				"x": -6.4731654607,
				"y": 1.2887325105,
				"z": -3.2660489542,
				"element": "Br" 
			},
			{
				"x": -4.676521016,
				"y": 1.126026799,
				"z": -2.6324660618,
				"element": "C" 
			},
			{
				"x": -3.799098795,
				"y": 2.1990968779,
				"z": -2.770372281,
				"element": "C" 
			},
			{
				"x": -2.4901003248,
				"y": 2.0705399752,
				"z": -2.3060271731,
				"element": "C" 
			},
			{
				"x": -2.0532378052,
				"y": 0.8878008744,
				"z": -1.7029865173,
				"element": "C" 
			},
			{
				"x": -2.9546426122,
				"y": -0.1755916122,
				"z": -1.5786495005,
				"element": "C" 
			},
			{
				"x": -4.2656992182,
				"y": -0.0667938809,
				"z": -2.0396712539,
				"element": "C" 
			},
			{
				"x": -0.6110484725,
				"y": 0.7587558592,
				"z": -1.1952996343,
				"element": "C" 
			},
			{
				"x": -0.5408931285,
				"y": 0.3037235367,
				"z": 0.2353603301,
				"element": "C" 
			},
			{
				"x": -0.0123959664,
				"y": -0.8931238454,
				"z": 0.6041372606,
				"element": "C" 
			},
			{
				"x": 0.0433533371,
				"y": -1.136099053,
				"z": 1.9518027531,
				"element": "N" 
			},
			{
				"x": -0.7362764111,
				"y": -0.0750031001,
				"z": 2.606036014,
				"element": "C" 
			},
			{
				"x": -0.1147311772,
				"y": 0.4920719465,
				"z": 3.8933145424,
				"element": "C" 
			},
			{
				"x": -0.8063317147,
				"y": 0.49619047,
				"z": 4.8990219509,
				"element": "O" 
			},
			{
				"x": 1.28216746,
				"y": 1.0157688554,
				"z": 3.9142642586,
				"element": "C" 
			},
			{
				"x": 1.81772152,
				"y": 1.3714009893,
				"z": 5.163506851,
				"element": "C" 
			},
			{
				"x": 3.1081295642,
				"y": 1.87597021,
				"z": 5.2706963898,
				"element": "C" 
			},
			{
				"x": 3.8709362948,
				"y": 2.0339491348,
				"z": 4.1115221333,
				"element": "C" 
			},
			{
				"x": 5.6430160946,
				"y": 2.7246061747,
				"z": 4.244531455,
				"element": "Br" 
			},
			{
				"x": 3.3606797274,
				"y": 1.6979561799,
				"z": 2.8579689513,
				"element": "C" 
			},
			{
				"x": 2.0680197345,
				"y": 1.1865974567,
				"z": 2.7651641612,
				"element": "C" 
			},
			{
				"x": -0.9759070362,
				"y": 0.9678510925,
				"z": 1.4538706973,
				"element": "C" 
			},
			{
				"x": -1.4386070619,
				"y": 2.0806797288,
				"z": 1.6181957134,
				"element": "O" 
			},
			{
				"x": 0.5103565949,
				"y": -1.8238424471,
				"z": -0.223313906,
				"element": "O" 
			},
			{
				"x": 0.6432845859,
				"y": -1.4336639804,
				"z": -1.5468048323,
				"element": "C" 
			},
			{
				"x": 0.182582723,
				"y": -0.245928179,
				"z": -2.0235171974,
				"element": "C" 
			},
			{
				"x": 0.4698799032,
				"y": 0.1208151614,
				"z": -3.4120117784,
				"element": "C" 
			},
			{
				"x": 0.198616957,
				"y": 1.18541479,
				"z": -3.915604543,
				"element": "O" 
			},
			{
				"x": 1.1153936158,
				"y": -0.8249923536,
				"z": -4.2027597141,
				"element": "O" 
			},
			{
				"x": 1.5293051317,
				"y": -2.0303268973,
				"z": -3.7201602636,
				"element": "C" 
			},
			{
				"x": 1.3325543786,
				"y": -2.3926233624,
				"z": -2.3757449259,
				"element": "C" 
			},
			{
				"x": 1.8011531443,
				"y": -3.6424707155,
				"z": -1.9297479333,
				"element": "C" 
			},
			{
				"x": 2.4401360193,
				"y": -4.5014930066,
				"z": -2.8122367427,
				"element": "C" 
			},
			{
				"x": 2.6227629383,
				"y": -4.1252821154,
				"z": -4.1519379662,
				"element": "C" 
			},
			{
				"x": 2.1715813265,
				"y": -2.8930806026,
				"z": -4.6107061211,
				"element": "C" 
			},
			{
				"x": -4.1311306724,
				"y": 3.1206314991,
				"z": -3.2344417437,
				"element": "H" 
			},
			{
				"x": -1.7994410385,
				"y": 2.8993882595,
				"z": -2.4237718766,
				"element": "H" 
			},
			{
				"x": -2.6368461272,
				"y": -1.1041017365,
				"z": -1.1114140783,
				"element": "H" 
			},
			{
				"x": -4.9590520876,
				"y": -0.894029656,
				"z": -1.9389578653,
				"element": "H" 
			},
			{
				"x": -0.1418832876,
				"y": 1.7432429286,
				"z": -1.3072387461,
				"element": "H" 
			},
			{
				"x": -0.0539523011,
				"y": -2.0915338525,
				"z": 2.2727288827,
				"element": "H" 
			},
			{
				"x": -1.7213956849,
				"y": -0.4484486938,
				"z": 2.9085150897,
				"element": "H" 
			},
			{
				"x": 1.1976134407,
				"y": 1.2454295205,
				"z": 6.044447824,
				"element": "H" 
			},
			{
				"x": 3.5201497026,
				"y": 2.147330125,
				"z": 6.235816535,
				"element": "H" 
			},
			{
				"x": 3.9647418965,
				"y": 1.8364524773,
				"z": 1.9688671941,
				"element": "H" 
			},
			{
				"x": 1.678024941,
				"y": 0.93750994,
				"z": 1.7857143789,
				"element": "H" 
			},
			{
				"x": 1.6539872786,
				"y": -3.9207861896,
				"z": -0.8926051803,
				"element": "H" 
			},
			{
				"x": 2.7989185567,
				"y": -5.4648855619,
				"z": -2.4650767953,
				"element": "H" 
			},
			{
				"x": 3.123064574,
				"y": -4.7997677787,
				"z": -4.8399326339,
				"element": "H" 
			},
			{
				"x": 2.3049259586,
				"y": -2.5782647523,
				"z": -5.6396771467,
				"element": "H" 
			}
		],
		 "valence_orbital": [ 
			{
				"type": "occ",
				"energy": -0.2569,
				"method": "rhf"
			},
			{
				"type": "occ",
				"energy": -0.25313,
				"method": "rhf"
			},
			{
				"type": "occ",
				"energy": -0.25097,
				"method": "rhf"
			},
			{
				"type": "occ",
				"energy": -0.24302,
				"method": "rhf"
			},
			{
				"type": "occ",
				"energy": -0.23381,
				"method": "rhf"
			},
			{
				"type": "unocc",
				"energy": -0.08402,
				"method": "rhf"
			},
			{
				"type": "unocc",
				"energy": -0.07594,
				"method": "rhf"
			},
			{
				"type": "unocc",
				"energy": -0.04083,
				"method": "rhf"
			},
			{
				"type": "unocc",
				"energy": -0.02768,
				"method": "rhf"
			},
			{
				"type": "unocc",
				"energy": -0.02596,
				"method": "rhf"
			}
		],
		"cosmo_sigma_profile": { 
			"-0.025": 0.0287294980555,
			"-0.024": 0.168342402523,
			"-0.023": 0.00367426642104,
			"-0.022": 0.0,
			"-0.021": 0.0,
			"-0.02": 0.174942874909,
			"-0.019": 0.409566591436,
			"-0.018": 0.0245368446549,
			"-0.017": 0.185862857271,
			"-0.016": 1.80170082809,
			"-0.015": 1.88191436085,
			"-0.014": 1.70273086082,
			"-0.013": 1.52558368297,
			"-0.012": 1.06539733029,
			"-0.011": 1.86262999841,
			"-0.01": 1.76421699546,
			"-0.009": 3.11007284119,
			"-0.008": 6.00305691389,
			"-0.007": 19.5456227099,
			"-0.006": 28.7680535758,
			"-0.005": 31.536121681,
			"-0.004": 28.5790236947,
			"-0.003": 29.9804233643,
			"-0.002": 28.900259197,
			"-0.001": 30.2936389919,
			"0.0": 37.2856290587,
			"0.001": 46.9403072224,
			"0.002": 47.1151267697,
			"0.003": 38.5603435426,
			"0.004": 35.539873953,
			"0.005": 16.2634450609,
			"0.006": 7.09438796102,
			"0.007": 6.35983666622,
			"0.008": 5.26568100895,
			"0.009": 6.3562064719,
			"0.01": 7.66874776266,
			"0.011": 9.56035221741,
			"0.012": 9.00529170735,
			"0.013": 3.85700726726,
			"0.014": 0.0143459810554,
			"0.015": 0.0,
			"0.016": 0.0,
			"0.017": 0.0,
			"0.018": 0.0,
			"0.019": 0.0,
			"0.02": 0.0,
			"0.021": 0.0,
			"0.022": 0.0,
			"0.023": 0.0,
			"0.024": 0.0,
			"0.025": 0.0
		}
	}
}
