{
	 "smiles": "CCN(CC)C(C(N)=O)C1=CC=CC=C1", 
	 "Tm": 415.15, 
	 "num_atms": 33, 
	 "gaussian": { 
		 "optdone": 1, 
		 "sigma_profile": "yes", 
		 "theory": "DFT", 
		 "functional": "B3LYP", 
		 "basiset": "6-31G**", 
		 "properties": { 
			 "R2extent": 4309.0592, 
			 "electric_dipole_moment_norm": 3.44765131358, 
			 "electric_quadrupole_moment_norm": 18.2132939802, 
			 "total_energy": -652.863380834, 
			 "HOMO_LUMO_gap": 0.20979, 
			 "cosmo_polarized_energy": -13.08, 
			 "cosmo_cavitation_energy": 34.07, 
			 "cosmo_dispersion_energy": -23.27, 
			 "cosmo_repulsion_energy": 1.86, 
			 "cosmo_total_nonelectrostatic_energy": 12.66, 
			 "SMD_solvation_energy": 6.2 
		},
		"coords": [
			{
				"x": 1.9950107667,
				"y": -1.1766530978,
				"z": 2.0133246323,
				"element": "C" 
			},
			{
				"x": 1.0662269469,
				"y": -0.0542429811,
				"z": 1.5204645967,
				"element": "C" 
			},
			{
				"x": 0.5035081858,
				"y": -0.1884953358,
				"z": 0.1579649139,
				"element": "N" 
			},
			{
				"x": -0.2807234617,
				"y": -1.4238857186,
				"z": -0.0174354338,
				"element": "C" 
			},
			{
				"x": -1.4937928077,
				"y": -1.4940849288,
				"z": 0.9121989179,
				"element": "C" 
			},
			{
				"x": 1.5360404198,
				"y": 0.0419669399,
				"z": -0.8770670917,
				"element": "C" 
			},
			{
				"x": 2.0177076405,
				"y": 1.5159243128,
				"z": -0.8528441186,
				"element": "C" 
			},
			{
				"x": 1.0492489808,
				"y": 2.4173635124,
				"z": -0.5215657636,
				"element": "N" 
			},
			{
				"x": 3.1577307611,
				"y": 1.8208226313,
				"z": -1.1665144359,
				"element": "O" 
			},
			{
				"x": 1.0791323839,
				"y": -0.2736207928,
				"z": -2.2988218633,
				"element": "C" 
			},
			{
				"x": 1.7984199948,
				"y": -1.1957426284,
				"z": -3.0676382423,
				"element": "C" 
			},
			{
				"x": 1.423828173,
				"y": -1.4800032349,
				"z": -4.3824662895,
				"element": "C" 
			},
			{
				"x": 0.317926473,
				"y": -0.8449995326,
				"z": -4.9469639896,
				"element": "C" 
			},
			{
				"x": -0.4064240431,
				"y": 0.0792903183,
				"z": -4.1898478984,
				"element": "C" 
			},
			{
				"x": -0.026191489,
				"y": 0.3668676192,
				"z": -2.879832598,
				"element": "C" 
			},
			{
				"x": 2.8638398183,
				"y": -1.3118608117,
				"z": 1.3621047089,
				"element": "H" 
			},
			{
				"x": 1.4775986703,
				"y": -2.1377425827,
				"z": 2.0904016712,
				"element": "H" 
			},
			{
				"x": 2.3705942722,
				"y": -0.9246892324,
				"z": 3.0105283301,
				"element": "H" 
			},
			{
				"x": 0.2281403966,
				"y": 0.0471704203,
				"z": 2.2178599941,
				"element": "H" 
			},
			{
				"x": 1.6061671884,
				"y": 0.8964152522,
				"z": 1.5613788561,
				"element": "H" 
			},
			{
				"x": -0.6352691553,
				"y": -1.4439081684,
				"z": -1.0486650774,
				"element": "H" 
			},
			{
				"x": 0.3366825058,
				"y": -2.3296523969,
				"z": 0.1132028468,
				"element": "H" 
			},
			{
				"x": -2.1209540633,
				"y": -2.3471504518,
				"z": 0.6344129851,
				"element": "H" 
			},
			{
				"x": -2.0962770994,
				"y": -0.5838966035,
				"z": 0.8263731334,
				"element": "H" 
			},
			{
				"x": -1.217953397,
				"y": -1.6224592578,
				"z": 1.9632679278,
				"element": "H" 
			},
			{
				"x": 2.4468475026,
				"y": -0.5466274009,
				"z": -0.6947672075,
				"element": "H" 
			},
			{
				"x": 0.1895545285,
				"y": 2.0715262385,
				"z": -0.1193221501,
				"element": "H" 
			},
			{
				"x": 1.3045301826,
				"y": 3.3896540677,
				"z": -0.4424271347,
				"element": "H" 
			},
			{
				"x": 2.661987052,
				"y": -1.6922355481,
				"z": -2.6335473426,
				"element": "H" 
			},
			{
				"x": 1.9971635938,
				"y": -2.1972867729,
				"z": -4.9628645009,
				"element": "H" 
			},
			{
				"x": 0.023306191,
				"y": -1.0645346632,
				"z": -5.9691708724,
				"element": "H" 
			},
			{
				"x": -1.2661324846,
				"y": 0.5828168941,
				"z": -4.623181171,
				"element": "H" 
			},
			{
				"x": -0.5871746272,
				"y": 1.0956539343,
				"z": -2.3040403327,
				"element": "H" 
			}
		],
		 "valence_orbital": [ 
			{
				"type": "occ",
				"energy": -0.26089,
				"method": "rhf"
			},
			{
				"type": "occ",
				"energy": -0.25364,
				"method": "rhf"
			},
			{
				"type": "occ",
				"energy": -0.24908,
				"method": "rhf"
			},
			{
				"type": "occ",
				"energy": -0.23464,
				"method": "rhf"
			},
			{
				"type": "occ",
				"energy": -0.21913,
				"method": "rhf"
			},
			{
				"type": "unocc",
				"energy": -0.00934,
				"method": "rhf"
			},
			{
				"type": "unocc",
				"energy": -0.00161,
				"method": "rhf"
			},
			{
				"type": "unocc",
				"energy": 0.04339,
				"method": "rhf"
			},
			{
				"type": "unocc",
				"energy": 0.07574,
				"method": "rhf"
			},
			{
				"type": "unocc",
				"energy": 0.09098,
				"method": "rhf"
			}
		],
		"cosmo_sigma_profile": { 
			"-0.025": 0.0,
			"-0.024": 0.0,
			"-0.023": 0.0,
			"-0.022": 0.0,
			"-0.021": 0.0,
			"-0.02": 0.0,
			"-0.019": 0.0,
			"-0.018": 0.0,
			"-0.017": 0.0,
			"-0.016": 0.0,
			"-0.015": 0.00421679867013,
			"-0.014": 0.623339528086,
			"-0.013": 0.965712228913,
			"-0.012": 1.22614464921,
			"-0.011": 1.5354391213,
			"-0.01": 1.51477953351,
			"-0.009": 1.95729103008,
			"-0.008": 1.97836835346,
			"-0.007": 2.06209137277,
			"-0.006": 5.52310567256,
			"-0.005": 13.94285589,
			"-0.004": 17.3755085879,
			"-0.003": 27.7064338219,
			"-0.002": 33.3830256115,
			"-0.001": 32.3187478132,
			"0.0": 26.2625848667,
			"0.001": 23.6767095218,
			"0.002": 13.3031424208,
			"0.003": 10.6558468003,
			"0.004": 11.9071129385,
			"0.005": 12.7948459852,
			"0.006": 5.9228711626,
			"0.007": 1.37997945558,
			"0.008": 2.01326591977,
			"0.009": 1.29894201931,
			"0.01": 0.877802847816,
			"0.011": 1.5327733303,
			"0.012": 1.67956973762,
			"0.013": 3.36402614715,
			"0.014": 5.93973985664,
			"0.015": 2.08178666611,
			"0.016": 0.0077761097443,
			"0.017": 0.0,
			"0.018": 0.0,
			"0.019": 0.0,
			"0.02": 0.0,
			"0.021": 0.0,
			"0.022": 0.0,
			"0.023": 0.0,
			"0.024": 0.0,
			"0.025": 0.0
		}
	}
}
