{
	 "smiles": "COC(=O)C1=CC=C(C=C1)C(Cl)=O", 
	 "Tm": 329.15, 
	 "num_atms": 20, 
	 "gaussian": { 
		 "optdone": 1, 
		 "sigma_profile": "yes", 
		 "theory": "DFT", 
		 "functional": "B3LYP", 
		 "basiset": "6-31G**", 
		 "properties": { 
			 "R2extent": 4574.1198, 
			 "electric_dipole_moment_norm": 3.84762174206, 
			 "electric_quadrupole_moment_norm": 13.3977178064, 
			 "total_energy": -1033.05847471, 
			 "HOMO_LUMO_gap": 0.18546, 
			 "cosmo_polarized_energy": -8.51, 
			 "cosmo_cavitation_energy": 27.33, 
			 "cosmo_dispersion_energy": -20.11, 
			 "cosmo_repulsion_energy": 1.59, 
			 "cosmo_total_nonelectrostatic_energy": 8.81, 
			 "SMD_solvation_energy": 6.95 
		},
		"coords": [
			{
				"x": -3.2936971263,
				"y": 2.2854003476,
				"z": 0.0800898917,
				"element": "C" 
			},
			{
				"x": -1.9652296822,
				"y": 1.7870035032,
				"z": -0.1535815413,
				"element": "O" 
			},
			{
				"x": -1.3424426668,
				"y": 1.2780796335,
				"z": 0.9293744025,
				"element": "C" 
			},
			{
				"x": -1.8457221311,
				"y": 1.2322935873,
				"z": 2.0339642718,
				"element": "O" 
			},
			{
				"x": 0.0318083691,
				"y": 0.7799125156,
				"z": 0.6133796154,
				"element": "C" 
			},
			{
				"x": 0.5779019469,
				"y": 0.8508681314,
				"z": -0.6763590312,
				"element": "C" 
			},
			{
				"x": 1.8606286997,
				"y": 0.3721440943,
				"z": -0.9113459338,
				"element": "C" 
			},
			{
				"x": 2.6119855058,
				"y": -0.1828034712,
				"z": 0.1399577275,
				"element": "C" 
			},
			{
				"x": 2.0642726267,
				"y": -0.2529018878,
				"z": 1.4288505654,
				"element": "C" 
			},
			{
				"x": 0.7798957388,
				"y": 0.2272433886,
				"z": 1.6604403453,
				"element": "C" 
			},
			{
				"x": 3.9718707733,
				"y": -0.6666055931,
				"z": -0.2118547389,
				"element": "C" 
			},
			{
				"x": 4.9295730244,
				"y": -1.3827100236,
				"z": 1.1700140516,
				"element": "Cl" 
			},
			{
				"x": 4.4702074383,
				"y": -0.6238837603,
				"z": -1.2962495628,
				"element": "O" 
			},
			{
				"x": -3.2754444607,
				"y": 3.0919826024,
				"z": 0.816915926,
				"element": "H" 
			},
			{
				"x": -3.6426400786,
				"y": 2.6530394798,
				"z": -0.8843998668,
				"element": "H" 
			},
			{
				"x": -3.9429236263,
				"y": 1.4865938686,
				"z": 0.446467643,
				"element": "H" 
			},
			{
				"x": -0.0045204171,
				"y": 1.2792712066,
				"z": -1.4833126966,
				"element": "H" 
			},
			{
				"x": 2.2991823942,
				"y": 0.4186405792,
				"z": -1.9017417307,
				"element": "H" 
			},
			{
				"x": 2.6412435387,
				"y": -0.679911459,
				"z": 2.239702523,
				"element": "H" 
			},
			{
				"x": 0.3363501332,
				"y": 0.1832432566,
				"z": 2.6488881391,
				"element": "H" 
			}
		],
		 "valence_orbital": [ 
			{
				"type": "occ",
				"energy": -0.31715,
				"method": "rhf"
			},
			{
				"type": "occ",
				"energy": -0.29886,
				"method": "rhf"
			},
			{
				"type": "occ",
				"energy": -0.29029,
				"method": "rhf"
			},
			{
				"type": "occ",
				"energy": -0.28579,
				"method": "rhf"
			},
			{
				"type": "occ",
				"energy": -0.28172,
				"method": "rhf"
			},
			{
				"type": "unocc",
				"energy": -0.09626,
				"method": "rhf"
			},
			{
				"type": "unocc",
				"energy": -0.02996,
				"method": "rhf"
			},
			{
				"type": "unocc",
				"energy": -0.01743,
				"method": "rhf"
			},
			{
				"type": "unocc",
				"energy": 0.01527,
				"method": "rhf"
			},
			{
				"type": "unocc",
				"energy": 0.05989,
				"method": "rhf"
			}
		],
		"cosmo_sigma_profile": { 
			"-0.025": 0.0,
			"-0.024": 0.0,
			"-0.023": 0.0,
			"-0.022": 0.0,
			"-0.021": 0.0,
			"-0.02": 0.0,
			"-0.019": 0.0,
			"-0.018": 0.0,
			"-0.017": 0.0,
			"-0.016": 0.0,
			"-0.015": 0.0,
			"-0.014": 0.0,
			"-0.013": 0.0,
			"-0.012": 0.0,
			"-0.011": 0.0,
			"-0.01": 0.0,
			"-0.009": 0.0,
			"-0.008": 1.08393065313,
			"-0.007": 7.09720583402,
			"-0.006": 12.0102918592,
			"-0.005": 15.1306978483,
			"-0.004": 17.8522831332,
			"-0.003": 18.2761296333,
			"-0.002": 18.069709746,
			"-0.001": 18.5509502455,
			"0.0": 22.8150875959,
			"0.001": 23.6004328665,
			"0.002": 11.2306742197,
			"0.003": 10.1590598872,
			"0.004": 12.0581051588,
			"0.005": 7.93751879677,
			"0.006": 4.57969530266,
			"0.007": 3.60982520879,
			"0.008": 6.0108394291,
			"0.009": 3.8984006472,
			"0.01": 2.17708143157,
			"0.011": 4.2952710541,
			"0.012": 1.56137892595,
			"0.013": 0.0,
			"0.014": 0.0,
			"0.015": 0.0,
			"0.016": 0.0,
			"0.017": 0.0,
			"0.018": 0.0,
			"0.019": 0.0,
			"0.02": 0.0,
			"0.021": 0.0,
			"0.022": 0.0,
			"0.023": 0.0,
			"0.024": 0.0,
			"0.025": 0.0
		}
	}
}
