{
	 "smiles": "CC1=CC2=C(C=CC3=NON=C23)N=N1", 
	 "Tm": 441.15, 
	 "num_atms": 20, 
	 "gaussian": { 
		 "optdone": 1, 
		 "sigma_profile": "yes", 
		 "theory": "DFT", 
		 "functional": "B3LYP", 
		 "basiset": "6-31G**", 
		 "properties": { 
			 "R2extent": 3015.5435, 
			 "electric_dipole_moment_norm": 1.06266523892, 
			 "electric_quadrupole_moment_norm": 20.0468038295, 
			 "total_energy": -640.685245164, 
			 "HOMO_LUMO_gap": 0.14824, 
			 "cosmo_polarized_energy": -11.67, 
			 "cosmo_cavitation_energy": 25.27, 
			 "cosmo_dispersion_energy": -19.04, 
			 "cosmo_repulsion_energy": 1.45, 
			 "cosmo_total_nonelectrostatic_energy": 7.68, 
			 "SMD_solvation_energy": 1.74 
		},
		"coords": [
			{
				"x": -3.1316562419,
				"y": -1.9117368828,
				"z": -2.0647405514,
				"element": "C" 
			},
			{
				"x": -1.7480880982,
				"y": -1.8990573047,
				"z": -1.4740138751,
				"element": "C" 
			},
			{
				"x": -1.3120095275,
				"y": -0.8773406298,
				"z": -0.626579439,
				"element": "C" 
			},
			{
				"x": -0.0164194873,
				"y": -0.9558107538,
				"z": -0.1321779135,
				"element": "C" 
			},
			{
				"x": 0.767101021,
				"y": -2.0729073547,
				"z": -0.5281862556,
				"element": "C" 
			},
			{
				"x": 2.1358625709,
				"y": -2.2457000251,
				"z": -0.0642379614,
				"element": "C" 
			},
			{
				"x": 2.7422755234,
				"y": -1.359984667,
				"z": 0.7665689982,
				"element": "C" 
			},
			{
				"x": 1.9783292273,
				"y": -0.2156529544,
				"z": 1.1884937036,
				"element": "C" 
			},
			{
				"x": 2.3187244449,
				"y": 0.780639326,
				"z": 1.9793215473,
				"element": "N" 
			},
			{
				"x": 1.2044479293,
				"y": 1.5838576442,
				"z": 2.0314517815,
				"element": "O" 
			},
			{
				"x": 0.1676090242,
				"y": 1.0983394181,
				"z": 1.280207344,
				"element": "N" 
			},
			{
				"x": 0.6286427789,
				"y": -0.0130596088,
				"z": 0.7519378676,
				"element": "C" 
			},
			{
				"x": 0.2819386382,
				"y": -3.0249205713,
				"z": -1.3509607501,
				"element": "N" 
			},
			{
				"x": -0.9515330522,
				"y": -2.9381414663,
				"z": -1.8138236215,
				"element": "N" 
			},
			{
				"x": -3.2515923088,
				"y": -2.7972849307,
				"z": -2.6903902637,
				"element": "H" 
			},
			{
				"x": -3.8956975482,
				"y": -1.9261175975,
				"z": -1.2796625862,
				"element": "H" 
			},
			{
				"x": -3.3079911135,
				"y": -1.0194961706,
				"z": -2.6755869887,
				"element": "H" 
			},
			{
				"x": -1.9615539653,
				"y": -0.0486158752,
				"z": -0.3615690524,
				"element": "H" 
			},
			{
				"x": 2.6481232186,
				"y": -3.1316202405,
				"z": -0.4241591223,
				"element": "H" 
			},
			{
				"x": 3.7614869659,
				"y": -1.4898893552,
				"z": 1.1113071386,
				"element": "H" 
			}
		],
		 "valence_orbital": [ 
			{
				"type": "occ",
				"energy": -0.3258,
				"method": "rhf"
			},
			{
				"type": "occ",
				"energy": -0.31715,
				"method": "rhf"
			},
			{
				"type": "occ",
				"energy": -0.29536,
				"method": "rhf"
			},
			{
				"type": "occ",
				"energy": -0.26267,
				"method": "rhf"
			},
			{
				"type": "occ",
				"energy": -0.24484,
				"method": "rhf"
			},
			{
				"type": "unocc",
				"energy": -0.0966,
				"method": "rhf"
			},
			{
				"type": "unocc",
				"energy": -0.08103,
				"method": "rhf"
			},
			{
				"type": "unocc",
				"energy": -0.02539,
				"method": "rhf"
			},
			{
				"type": "unocc",
				"energy": 0.00967,
				"method": "rhf"
			},
			{
				"type": "unocc",
				"energy": 0.06644,
				"method": "rhf"
			}
		],
		"cosmo_sigma_profile": { 
			"-0.025": 0.0,
			"-0.024": 0.0,
			"-0.023": 0.0,
			"-0.022": 0.0,
			"-0.021": 0.0,
			"-0.02": 0.0,
			"-0.019": 0.0,
			"-0.018": 0.0,
			"-0.017": 0.0,
			"-0.016": 0.0,
			"-0.015": 0.0,
			"-0.014": 0.0,
			"-0.013": 0.0,
			"-0.012": 0.0,
			"-0.011": 0.0,
			"-0.01": 0.0379492365259,
			"-0.009": 2.88089164248,
			"-0.008": 5.12864428345,
			"-0.007": 5.83083795328,
			"-0.006": 9.7521880727,
			"-0.005": 15.6268110579,
			"-0.004": 17.1573234585,
			"-0.003": 21.043915453,
			"-0.002": 23.5882868709,
			"-0.001": 18.9479101612,
			"0.0": 11.378867147,
			"0.001": 9.76203333329,
			"0.002": 5.61596939153,
			"0.003": 5.78183340241,
			"0.004": 9.31739783389,
			"0.005": 9.2886476257,
			"0.006": 5.86569190964,
			"0.007": 4.24209003842,
			"0.008": 3.56584627595,
			"0.009": 4.48934590433,
			"0.01": 3.89654792728,
			"0.011": 3.37029683064,
			"0.012": 1.91463934184,
			"0.013": 2.76060313101,
			"0.014": 2.1711110041,
			"0.015": 1.17681558073,
			"0.016": 0.0752872313467,
			"0.017": 0.0,
			"0.018": 0.0,
			"0.019": 0.0,
			"0.02": 0.0,
			"0.021": 0.0,
			"0.022": 0.0,
			"0.023": 0.0,
			"0.024": 0.0,
			"0.025": 0.0
		}
	}
}
