{
	 "smiles": "COC1=CC=C(SCC(O)=O)C=C1OC", 
	 "Tm": 375.15, 
	 "num_atms": 27, 
	 "gaussian": { 
		 "optdone": 1, 
		 "sigma_profile": "yes", 
		 "theory": "DFT", 
		 "functional": "B3LYP", 
		 "basiset": "6-31G**", 
		 "properties": { 
			 "R2extent": 5094.1813, 
			 "electric_dipole_moment_norm": 2.6871401266, 
			 "electric_quadrupole_moment_norm": 14.3694629207, 
			 "total_energy": -1087.35551683, 
			 "HOMO_LUMO_gap": 0.18398, 
			 "cosmo_polarized_energy": -14.14, 
			 "cosmo_cavitation_energy": 32.8, 
			 "cosmo_dispersion_energy": -23.93, 
			 "cosmo_repulsion_energy": 1.86, 
			 "cosmo_total_nonelectrostatic_energy": 10.73, 
			 "SMD_solvation_energy": 8.02 
		},
		"coords": [
			{
				"x": 2.691246145,
				"y": 2.6688918502,
				"z": 1.2143481429,
				"element": "C" 
			},
			{
				"x": 2.9280269783,
				"y": 1.5221327389,
				"z": 0.3945587967,
				"element": "O" 
			},
			{
				"x": 1.8278795121,
				"y": 0.7558756076,
				"z": 0.0997833445,
				"element": "C" 
			},
			{
				"x": 1.7551182011,
				"y": -0.5409854475,
				"z": 0.5981639628,
				"element": "C" 
			},
			{
				"x": 0.7004309223,
				"y": -1.3962592506,
				"z": 0.2663719938,
				"element": "C" 
			},
			{
				"x": -0.3261940187,
				"y": -0.9170081103,
				"z": -0.5493187572,
				"element": "C" 
			},
			{
				"x": -1.7187183021,
				"y": -1.9181661397,
				"z": -1.0780679295,
				"element": "S" 
			},
			{
				"x": -2.150598264,
				"y": -2.8657511631,
				"z": 0.4451124956,
				"element": "C" 
			},
			{
				"x": -1.4995805011,
				"y": -4.2321417465,
				"z": 0.4634134024,
				"element": "C" 
			},
			{
				"x": -2.2716224678,
				"y": -5.1566011863,
				"z": -0.1482231798,
				"element": "O" 
			},
			{
				"x": -0.4169220345,
				"y": -4.4927563349,
				"z": 0.9434880743,
				"element": "O" 
			},
			{
				"x": -0.277186249,
				"y": 0.3928047097,
				"z": -1.0542417303,
				"element": "C" 
			},
			{
				"x": 0.8031686231,
				"y": 1.2255035019,
				"z": -0.7538196136,
				"element": "C" 
			},
			{
				"x": 0.946881839,
				"y": 2.4995705519,
				"z": -1.2228778395,
				"element": "O" 
			},
			{
				"x": -0.0287996309,
				"y": 2.9970561033,
				"z": -2.1257891597,
				"element": "C" 
			},
			{
				"x": 2.2566040248,
				"y": 2.3771505062,
				"z": 2.1795663817,
				"element": "H" 
			},
			{
				"x": 2.0323519072,
				"y": 3.3886349061,
				"z": 0.7198563422,
				"element": "H" 
			},
			{
				"x": 3.6679971625,
				"y": 3.1264214986,
				"z": 1.3851522578,
				"element": "H" 
			},
			{
				"x": 2.5641284547,
				"y": -0.8824365274,
				"z": 1.2363643408,
				"element": "H" 
			},
			{
				"x": 0.6852654752,
				"y": -2.4132500698,
				"z": 0.6423960898,
				"element": "H" 
			},
			{
				"x": -3.2374884206,
				"y": -2.9671018563,
				"z": 0.4443988909,
				"element": "H" 
			},
			{
				"x": -1.8280044278,
				"y": -2.2958767186,
				"z": 1.3166364451,
				"element": "H" 
			},
			{
				"x": -1.7656612821,
				"y": -5.986821965,
				"z": -0.1389263001,
				"element": "H" 
			},
			{
				"x": -1.0904497469,
				"y": 0.7509400265,
				"z": -1.6736915322,
				"element": "H" 
			},
			{
				"x": -0.0944469817,
				"y": 2.3771011162,
				"z": -3.0286443409,
				"element": "H" 
			},
			{
				"x": 0.3007059604,
				"y": 4.0000332465,
				"z": -2.4008732817,
				"element": "H" 
			},
			{
				"x": -1.0206328786,
				"y": 3.0583401523,
				"z": -1.6594372967,
				"element": "H" 
			}
		],
		 "valence_orbital": [ 
			{
				"type": "occ",
				"energy": -0.29005,
				"method": "rhf"
			},
			{
				"type": "occ",
				"energy": -0.27247,
				"method": "rhf"
			},
			{
				"type": "occ",
				"energy": -0.25855,
				"method": "rhf"
			},
			{
				"type": "occ",
				"energy": -0.23251,
				"method": "rhf"
			},
			{
				"type": "occ",
				"energy": -0.20562,
				"method": "rhf"
			},
			{
				"type": "unocc",
				"energy": -0.02164,
				"method": "rhf"
			},
			{
				"type": "unocc",
				"energy": -0.00162,
				"method": "rhf"
			},
			{
				"type": "unocc",
				"energy": 0.00865,
				"method": "rhf"
			},
			{
				"type": "unocc",
				"energy": 0.04172,
				"method": "rhf"
			},
			{
				"type": "unocc",
				"energy": 0.07007,
				"method": "rhf"
			}
		],
		"cosmo_sigma_profile": { 
			"-0.025": 0.0,
			"-0.024": 0.0,
			"-0.023": 0.0,
			"-0.022": 0.0,
			"-0.021": 0.0,
			"-0.02": 0.0,
			"-0.019": 0.263290400308,
			"-0.018": 0.910020829476,
			"-0.017": 1.18532105815,
			"-0.016": 0.406520170675,
			"-0.015": 0.851934565519,
			"-0.014": 0.594943901549,
			"-0.013": 0.432815956054,
			"-0.012": 1.20509483853,
			"-0.011": 1.22782567099,
			"-0.01": 0.379455591061,
			"-0.009": 0.583999245168,
			"-0.008": 3.05942794311,
			"-0.007": 6.09645635175,
			"-0.006": 14.7787106695,
			"-0.005": 19.6523197753,
			"-0.004": 20.9127201956,
			"-0.003": 23.6110655224,
			"-0.002": 19.1433889887,
			"-0.001": 13.8671624737,
			"0.0": 13.6360717789,
			"0.001": 14.6849957113,
			"0.002": 15.4156933217,
			"0.003": 19.3831370535,
			"0.004": 19.3421028376,
			"0.005": 12.142483718,
			"0.006": 7.21592423747,
			"0.007": 7.33056619636,
			"0.008": 6.10183265519,
			"0.009": 5.00504865214,
			"0.01": 4.63566678499,
			"0.011": 6.17707949982,
			"0.012": 2.08149270858,
			"0.013": 0.0121822589393,
			"0.014": 0.0,
			"0.015": 0.0,
			"0.016": 0.0,
			"0.017": 0.0,
			"0.018": 0.0,
			"0.019": 0.0,
			"0.02": 0.0,
			"0.021": 0.0,
			"0.022": 0.0,
			"0.023": 0.0,
			"0.024": 0.0,
			"0.025": 0.0
		}
	}
}
