{
	 "smiles": "NC1=NC=C(CC2=CC=C(C=C2)S(N)(=O)=O)S1", 
	 "Tm": 451.15, 
	 "num_atms": 28, 
	 "gaussian": { 
		 "optdone": 1, 
		 "sigma_profile": "yes", 
		 "theory": "DFT", 
		 "functional": "B3LYP", 
		 "basiset": "6-31G**", 
		 "properties": { 
			 "R2extent": 8097.7868, 
			 "electric_dipole_moment_norm": 4.40751703457, 
			 "electric_quadrupole_moment_norm": 20.77133697, 
			 "total_energy": -1498.70048863, 
			 "HOMO_LUMO_gap": 0.1758, 
			 "cosmo_polarized_energy": -22.88, 
			 "cosmo_cavitation_energy": 36.05, 
			 "cosmo_dispersion_energy": -26.67, 
			 "cosmo_repulsion_energy": 2.01, 
			 "cosmo_total_nonelectrostatic_energy": 11.39, 
			 "SMD_solvation_energy": 3.48 
		},
		"coords": [
			{
				"x": -4.4580950045,
				"y": 4.7090955417,
				"z": -1.4608761393,
				"element": "N" 
			},
			{
				"x": -4.1899640964,
				"y": 3.3896626077,
				"z": -1.1742406896,
				"element": "C" 
			},
			{
				"x": -4.5275662407,
				"y": 2.3947331018,
				"z": -1.942801882,
				"element": "N" 
			},
			{
				"x": -4.193341186,
				"y": 1.1960493568,
				"z": -1.3484380032,
				"element": "C" 
			},
			{
				"x": -3.5892300218,
				"y": 1.2382883976,
				"z": -0.1279014239,
				"element": "C" 
			},
			{
				"x": -3.1173457685,
				"y": 0.1010434184,
				"z": 0.7306655858,
				"element": "C" 
			},
			{
				"x": -1.6129246756,
				"y": 0.0401552394,
				"z": 0.9594745791,
				"element": "C" 
			},
			{
				"x": -0.7213281675,
				"y": 0.1391779849,
				"z": -0.1192389176,
				"element": "C" 
			},
			{
				"x": 0.6526733531,
				"y": 0.0484453032,
				"z": 0.0790536316,
				"element": "C" 
			},
			{
				"x": 1.1415729708,
				"y": -0.1359735047,
				"z": 1.3749878157,
				"element": "C" 
			},
			{
				"x": 0.2778951226,
				"y": -0.2436444809,
				"z": 2.4632263013,
				"element": "C" 
			},
			{
				"x": -1.0974663938,
				"y": -0.1523748463,
				"z": 2.2461331424,
				"element": "C" 
			},
			{
				"x": 2.9083799306,
				"y": -0.2511348716,
				"z": 1.6402122695,
				"element": "S" 
			},
			{
				"x": 3.4007272087,
				"y": 1.3710923969,
				"z": 1.7323481823,
				"element": "N" 
			},
			{
				"x": 3.120305716,
				"y": -0.8609737858,
				"z": 2.9572526105,
				"element": "O" 
			},
			{
				"x": 3.517079007,
				"y": -0.7907811702,
				"z": 0.4204854426,
				"element": "O" 
			},
			{
				"x": -3.4257525361,
				"y": 2.92846933,
				"z": 0.3554780815,
				"element": "S" 
			},
			{
				"x": -4.7202845422,
				"y": 4.8533067284,
				"z": -2.4275959952,
				"element": "H" 
			},
			{
				"x": -3.8089535185,
				"y": 5.3962637543,
				"z": -1.1051951824,
				"element": "H" 
			},
			{
				"x": -4.4192952809,
				"y": 0.2733334118,
				"z": -1.8733907598,
				"element": "H" 
			},
			{
				"x": -3.6235074648,
				"y": 0.1170421224,
				"z": 1.7037497264,
				"element": "H" 
			},
			{
				"x": -3.4412528996,
				"y": -0.8252544692,
				"z": 0.2375953656,
				"element": "H" 
			},
			{
				"x": -1.1130340849,
				"y": 0.2904297239,
				"z": -1.1210186931,
				"element": "H" 
			},
			{
				"x": 1.3414567833,
				"y": 0.1036752576,
				"z": -0.7568939338,
				"element": "H" 
			},
			{
				"x": 0.6790326579,
				"y": -0.409836197,
				"z": 3.4568792936,
				"element": "H" 
			},
			{
				"x": -1.7775475455,
				"y": -0.2384850323,
				"z": 3.0895431994,
				"element": "H" 
			},
			{
				"x": 4.1607123449,
				"y": 1.5155554338,
				"z": 1.0722935709,
				"element": "H" 
			},
			{
				"x": 3.6943543325,
				"y": 1.5838392472,
				"z": 2.6823128214,
				"element": "H" 
			}
		],
		 "valence_orbital": [ 
			{
				"type": "occ",
				"energy": -0.27792,
				"method": "rhf"
			},
			{
				"type": "occ",
				"energy": -0.27534,
				"method": "rhf"
			},
			{
				"type": "occ",
				"energy": -0.2678,
				"method": "rhf"
			},
			{
				"type": "occ",
				"energy": -0.25811,
				"method": "rhf"
			},
			{
				"type": "occ",
				"energy": -0.21283,
				"method": "rhf"
			},
			{
				"type": "unocc",
				"energy": -0.03703,
				"method": "rhf"
			},
			{
				"type": "unocc",
				"energy": -0.02018,
				"method": "rhf"
			},
			{
				"type": "unocc",
				"energy": -0.00914,
				"method": "rhf"
			},
			{
				"type": "unocc",
				"energy": 0.00829,
				"method": "rhf"
			},
			{
				"type": "unocc",
				"energy": 0.05532,
				"method": "rhf"
			}
		],
		"cosmo_sigma_profile": { 
			"-0.025": 0.0,
			"-0.024": 0.0,
			"-0.023": 0.0,
			"-0.022": 0.0,
			"-0.021": 0.0,
			"-0.02": 0.0,
			"-0.019": 0.0,
			"-0.018": 0.0,
			"-0.017": 0.0,
			"-0.016": 0.0,
			"-0.015": 1.02518309512,
			"-0.014": 4.72592375659,
			"-0.013": 4.19953060305,
			"-0.012": 4.96458497202,
			"-0.011": 5.21849961025,
			"-0.01": 4.37618563327,
			"-0.009": 4.0391333577,
			"-0.008": 2.97220484958,
			"-0.007": 8.47287404393,
			"-0.006": 18.2189809136,
			"-0.005": 15.4471588648,
			"-0.004": 16.1893767378,
			"-0.003": 15.9977116914,
			"-0.002": 14.9919993136,
			"-0.001": 13.5099932004,
			"0.0": 13.9988509265,
			"0.001": 16.3329705538,
			"0.002": 21.6312188377,
			"0.003": 24.8115102466,
			"0.004": 14.4193822942,
			"0.005": 10.0911714122,
			"0.006": 6.71114109371,
			"0.007": 4.77658273068,
			"0.008": 6.26785951513,
			"0.009": 6.59427559276,
			"0.01": 9.21249646226,
			"0.011": 11.2752160892,
			"0.012": 5.10567844119,
			"0.013": 0.917898486226,
			"0.014": 1.28935219516,
			"0.015": 1.18261568294,
			"0.016": 0.343650097628,
			"0.017": 0.0,
			"0.018": 0.0,
			"0.019": 0.0,
			"0.02": 0.0,
			"0.021": 0.0,
			"0.022": 0.0,
			"0.023": 0.0,
			"0.024": 0.0,
			"0.025": 0.0
		}
	}
}
