{
	 "smiles": "CC(=O)N(C1=NC(CCl)=CS1)C1=CC=C(Cl)C=C1", 
	 "Tm": 419.15, 
	 "num_atms": 28, 
	 "gaussian": { 
		 "optdone": 1, 
		 "sigma_profile": "yes", 
		 "theory": "DFT", 
		 "functional": "B3LYP", 
		 "basiset": "6-31G**", 
		 "properties": { 
			 "R2extent": 7798.2579, 
			 "electric_dipole_moment_norm": 5.28485949577, 
			 "electric_quadrupole_moment_norm": 16.8269404379, 
			 "total_energy": -1966.60043949, 
			 "HOMO_LUMO_gap": 0.17364, 
			 "cosmo_polarized_energy": -16.13, 
			 "cosmo_cavitation_energy": 38.36, 
			 "cosmo_dispersion_energy": -26.84, 
			 "cosmo_repulsion_energy": 2.09, 
			 "cosmo_total_nonelectrostatic_energy": 13.62, 
			 "SMD_solvation_energy": 4.73 
		},
		"coords": [
			{
				"x": 1.2431898181,
				"y": -3.0034388939,
				"z": -1.4293401765,
				"element": "C" 
			},
			{
				"x": -0.0416836889,
				"y": -2.483145119,
				"z": -0.8106185721,
				"element": "C" 
			},
			{
				"x": -0.9103948715,
				"y": -3.2263698542,
				"z": -0.3966095229,
				"element": "O" 
			},
			{
				"x": -0.1934842897,
				"y": -1.0827268204,
				"z": -0.7447672583,
				"element": "N" 
			},
			{
				"x": 0.7935208662,
				"y": -0.1910973217,
				"z": -1.2031088064,
				"element": "C" 
			},
			{
				"x": 0.6918035576,
				"y": 0.5229850905,
				"z": -2.2840316824,
				"element": "N" 
			},
			{
				"x": 1.7860872527,
				"y": 1.3420634468,
				"z": -2.4519580406,
				"element": "C" 
			},
			{
				"x": 1.8551064287,
				"y": 2.2347960108,
				"z": -3.645328945,
				"element": "C" 
			},
			{
				"x": 0.9253002976,
				"y": 3.7918109898,
				"z": -3.4004938454,
				"element": "Cl" 
			},
			{
				"x": 2.7482796192,
				"y": 1.2482383652,
				"z": -1.4801591523,
				"element": "C" 
			},
			{
				"x": 2.2697898705,
				"y": 0.1103479566,
				"z": -0.2730271148,
				"element": "S" 
			},
			{
				"x": -1.4369622593,
				"y": -0.5063040952,
				"z": -0.2952542256,
				"element": "C" 
			},
			{
				"x": -1.4160894249,
				"y": 0.5124806329,
				"z": 0.6602318803,
				"element": "C" 
			},
			{
				"x": -2.6039289816,
				"y": 1.1056251442,
				"z": 1.0852970664,
				"element": "C" 
			},
			{
				"x": -3.81320981,
				"y": 0.6589185315,
				"z": 0.5570701718,
				"element": "C" 
			},
			{
				"x": -5.3162461813,
				"y": 1.3936914631,
				"z": 1.0932820955,
				"element": "Cl" 
			},
			{
				"x": -3.8481274418,
				"y": -0.3630793905,
				"z": -0.3918885456,
				"element": "C" 
			},
			{
				"x": -2.6566919101,
				"y": -0.9406015513,
				"z": -0.8229647711,
				"element": "C" 
			},
			{
				"x": 1.4991841331,
				"y": -2.4791176227,
				"z": -2.3537604621,
				"element": "H" 
			},
			{
				"x": 2.0842976435,
				"y": -2.8940177059,
				"z": -0.7379834064,
				"element": "H" 
			},
			{
				"x": 1.0961754464,
				"y": -4.0641307475,
				"z": -1.6320480525,
				"element": "H" 
			},
			{
				"x": 2.8801517026,
				"y": 2.5279850092,
				"z": -3.8696325679,
				"element": "H" 
			},
			{
				"x": 1.4043523631,
				"y": 1.7547264004,
				"z": -4.5132100578,
				"element": "H" 
			},
			{
				"x": 3.6893799596,
				"y": 1.7770376646,
				"z": -1.4184072197,
				"element": "H" 
			},
			{
				"x": -0.4717651806,
				"y": 0.8489119488,
				"z": 1.0755092545,
				"element": "H" 
			},
			{
				"x": -2.5897608409,
				"y": 1.8994524487,
				"z": 1.8234063713,
				"element": "H" 
			},
			{
				"x": -4.796897966,
				"y": -0.698132286,
				"z": -0.7954925266,
				"element": "H" 
			},
			{
				"x": -2.6765761123,
				"y": -1.7343096951,
				"z": -1.5588118877,
				"element": "H" 
			}
		],
		 "valence_orbital": [ 
			{
				"type": "occ",
				"energy": -0.29256,
				"method": "rhf"
			},
			{
				"type": "occ",
				"energy": -0.27897,
				"method": "rhf"
			},
			{
				"type": "occ",
				"energy": -0.26565,
				"method": "rhf"
			},
			{
				"type": "occ",
				"energy": -0.26099,
				"method": "rhf"
			},
			{
				"type": "occ",
				"energy": -0.23321,
				"method": "rhf"
			},
			{
				"type": "unocc",
				"energy": -0.05957,
				"method": "rhf"
			},
			{
				"type": "unocc",
				"energy": -0.02563,
				"method": "rhf"
			},
			{
				"type": "unocc",
				"energy": -0.01789,
				"method": "rhf"
			},
			{
				"type": "unocc",
				"energy": -0.01616,
				"method": "rhf"
			},
			{
				"type": "unocc",
				"energy": -0.00664,
				"method": "rhf"
			}
		],
		"cosmo_sigma_profile": { 
			"-0.025": 0.0,
			"-0.024": 0.0,
			"-0.023": 0.0,
			"-0.022": 0.0,
			"-0.021": 0.0,
			"-0.02": 0.0,
			"-0.019": 0.0,
			"-0.018": 0.0,
			"-0.017": 0.0,
			"-0.016": 0.0,
			"-0.015": 0.0,
			"-0.014": 0.0,
			"-0.013": 0.0,
			"-0.012": 0.0,
			"-0.011": 0.16278769487,
			"-0.01": 2.62945725775,
			"-0.009": 4.04728138743,
			"-0.008": 7.23402239743,
			"-0.007": 13.2111864727,
			"-0.006": 18.5678223232,
			"-0.005": 20.8184842131,
			"-0.004": 20.5126962551,
			"-0.003": 19.6557681781,
			"-0.002": 20.8462041565,
			"-0.001": 20.7986197968,
			"0.0": 22.9480339837,
			"0.001": 22.7026007421,
			"0.002": 21.8448482428,
			"0.003": 23.5734001894,
			"0.004": 18.9093956536,
			"0.005": 15.0001503447,
			"0.006": 14.2588455076,
			"0.007": 6.96078497862,
			"0.008": 2.68918947066,
			"0.009": 2.5462524899,
			"0.01": 2.9253857515,
			"0.011": 3.11071629584,
			"0.012": 5.53704965758,
			"0.013": 2.54731860637,
			"0.014": 0.119252019389,
			"0.015": 0.0,
			"0.016": 0.0,
			"0.017": 0.0,
			"0.018": 0.0,
			"0.019": 0.0,
			"0.02": 0.0,
			"0.021": 0.0,
			"0.022": 0.0,
			"0.023": 0.0,
			"0.024": 0.0,
			"0.025": 0.0
		}
	}
}
