{
	 "smiles": "COC1=CC(C=CC(O)=O)=CC=C1O", 
	 "Tm": 446.15, 
	 "num_atms": 24, 
	 "gaussian": { 
		 "optdone": 1, 
		 "sigma_profile": "yes", 
		 "theory": "DFT", 
		 "functional": "B3LYP", 
		 "basiset": "6-31G**", 
		 "properties": { 
			 "R2extent": 4158.6838, 
			 "electric_dipole_moment_norm": 5.32603025714, 
			 "electric_quadrupole_moment_norm": 33.4500996704, 
			 "total_energy": -687.964867272, 
			 "HOMO_LUMO_gap": 0.15217, 
			 "cosmo_polarized_energy": -19.27, 
			 "cosmo_cavitation_energy": 29.08, 
			 "cosmo_dispersion_energy": -21.23, 
			 "cosmo_repulsion_energy": 1.68, 
			 "cosmo_total_nonelectrostatic_energy": 9.53, 
			 "SMD_solvation_energy": 7.39 
		},
		"coords": [
			{
				"x": -2.0673020991,
				"y": 2.8956606687,
				"z": 2.1089167153,
				"element": "C" 
			},
			{
				"x": -1.4092043595,
				"y": 1.9584456574,
				"z": 2.9517522209,
				"element": "O" 
			},
			{
				"x": -0.7738856487,
				"y": 0.892067538,
				"z": 2.3691503037,
				"element": "C" 
			},
			{
				"x": -0.713049332,
				"y": 0.6159258319,
				"z": 1.0139328754,
				"element": "C" 
			},
			{
				"x": -0.0188484241,
				"y": -0.5258663669,
				"z": 0.5500275262,
				"element": "C" 
			},
			{
				"x": 0.0763293563,
				"y": -0.86523019,
				"z": -0.8664746625,
				"element": "C" 
			},
			{
				"x": -0.4093427377,
				"y": -0.1772054656,
				"z": -1.9199667056,
				"element": "C" 
			},
			{
				"x": -0.2284162785,
				"y": -0.5520663526,
				"z": -3.3418520591,
				"element": "C" 
			},
			{
				"x": 0.077550445,
				"y": -1.8536446953,
				"z": -3.6196235035,
				"element": "O" 
			},
			{
				"x": -0.3334327352,
				"y": 0.2470526458,
				"z": -4.2451405542,
				"element": "O" 
			},
			{
				"x": 0.5976593815,
				"y": -1.3629879256,
				"z": 1.4924420723,
				"element": "C" 
			},
			{
				"x": 0.5374372639,
				"y": -1.0881323276,
				"z": 2.8580274373,
				"element": "C" 
			},
			{
				"x": -0.1454946352,
				"y": 0.0367765032,
				"z": 3.3070384032,
				"element": "C" 
			},
			{
				"x": -0.2131566952,
				"y": 0.3169087234,
				"z": 4.6306184808,
				"element": "O" 
			},
			{
				"x": -2.8729978129,
				"y": 2.4185703225,
				"z": 1.5379065725,
				"element": "H" 
			},
			{
				"x": -2.4909592526,
				"y": 3.6529361665,
				"z": 2.7694543482,
				"element": "H" 
			},
			{
				"x": -1.3618641461,
				"y": 3.3695822438,
				"z": 1.4157981105,
				"element": "H" 
			},
			{
				"x": -1.1990550895,
				"y": 1.2750594424,
				"z": 0.3053088725,
				"element": "H" 
			},
			{
				"x": 0.6384388948,
				"y": -1.7803272172,
				"z": -1.0596059275,
				"element": "H" 
			},
			{
				"x": -0.9095315339,
				"y": 0.7778165038,
				"z": -1.7962399368,
				"element": "H" 
			},
			{
				"x": -0.0600632808,
				"y": -2.3977499089,
				"z": -2.8322123285,
				"element": "H" 
			},
			{
				"x": 1.1356491285,
				"y": -2.2430609543,
				"z": 1.1514378433,
				"element": "H" 
			},
			{
				"x": 1.0141419741,
				"y": -1.7336788049,
				"z": 3.5876914776,
				"element": "H" 
			},
			{
				"x": -0.7268023832,
				"y": 1.1347479615,
				"z": 4.725712418,
				"element": "H" 
			}
		],
		 "valence_orbital": [ 
			{
				"type": "occ",
				"energy": -0.30904,
				"method": "rhf"
			},
			{
				"type": "occ",
				"energy": -0.29119,
				"method": "rhf"
			},
			{
				"type": "occ",
				"energy": -0.26301,
				"method": "rhf"
			},
			{
				"type": "occ",
				"energy": -0.25328,
				"method": "rhf"
			},
			{
				"type": "occ",
				"energy": -0.21711,
				"method": "rhf"
			},
			{
				"type": "unocc",
				"energy": -0.06494,
				"method": "rhf"
			},
			{
				"type": "unocc",
				"energy": -0.00817,
				"method": "rhf"
			},
			{
				"type": "unocc",
				"energy": 0.02337,
				"method": "rhf"
			},
			{
				"type": "unocc",
				"energy": 0.06247,
				"method": "rhf"
			},
			{
				"type": "unocc",
				"energy": 0.06498,
				"method": "rhf"
			}
		],
		"cosmo_sigma_profile": { 
			"-0.025": 0.0,
			"-0.024": 0.0,
			"-0.023": 0.0,
			"-0.022": 0.0,
			"-0.021": 0.0,
			"-0.02": 0.0,
			"-0.019": 0.0460581833944,
			"-0.018": 0.806867434996,
			"-0.017": 0.797015535627,
			"-0.016": 1.16226040235,
			"-0.015": 1.0585635812,
			"-0.014": 1.06973084679,
			"-0.013": 1.63008876451,
			"-0.012": 1.73091918459,
			"-0.011": 1.37310893461,
			"-0.01": 2.31440476543,
			"-0.009": 2.7982937059,
			"-0.008": 5.50239776119,
			"-0.007": 8.03389810689,
			"-0.006": 15.3992176312,
			"-0.005": 15.2624347189,
			"-0.004": 16.2184578831,
			"-0.003": 13.7273279702,
			"-0.002": 11.2287068806,
			"-0.001": 10.8218772292,
			"0.0": 10.781117562,
			"0.001": 14.521429877,
			"0.002": 16.6068242598,
			"0.003": 19.0530761979,
			"0.004": 15.0480338146,
			"0.005": 5.72614613499,
			"0.006": 3.33590060863,
			"0.007": 3.93868179352,
			"0.008": 3.60733757021,
			"0.009": 4.69592620369,
			"0.01": 5.15408551734,
			"0.011": 6.88201277786,
			"0.012": 5.75751035736,
			"0.013": 4.54901519118,
			"0.014": 1.32395412038,
			"0.015": 0.0,
			"0.016": 0.0,
			"0.017": 0.0,
			"0.018": 0.0,
			"0.019": 0.0,
			"0.02": 0.0,
			"0.021": 0.0,
			"0.022": 0.0,
			"0.023": 0.0,
			"0.024": 0.0,
			"0.025": 0.0
		}
	}
}
