{
	 "smiles": "OC(=O)C1CCN(CC1)S(=O)(=O)C1=CC=C(Br)S1", 
	 "Tm": 440.15, 
	 "num_atms": 30, 
	 "gaussian": { 
		 "optdone": 1, 
		 "sigma_profile": "yes", 
		 "theory": "DFT", 
		 "functional": "B3LYP", 
		 "basiset": "6-31G**", 
		 "properties": { 
			 "R2extent": 12598.697, 
			 "electric_dipole_moment_norm": 4.18491537071, 
			 "electric_quadrupole_moment_norm": 19.1064723997, 
			 "total_energy": -4111.64382442, 
			 "HOMO_LUMO_gap": 0.18823, 
			 "cosmo_polarized_energy": -18.23, 
			 "cosmo_cavitation_energy": 38.56, 
			 "cosmo_dispersion_energy": -28.28, 
			 "cosmo_repulsion_energy": 2.12, 
			 "cosmo_total_nonelectrostatic_energy": 12.4, 
			 "SMD_solvation_energy": 4.07 
		},
		"coords": [
			{
				"x": -3.562135742,
				"y": 2.0162270462,
				"z": -0.7750551148,
				"element": "O" 
			},
			{
				"x": -3.1113122672,
				"y": 0.7379907251,
				"z": -0.7243139466,
				"element": "C" 
			},
			{
				"x": -3.7739085651,
				"y": -0.1670248164,
				"z": -0.2668910937,
				"element": "O" 
			},
			{
				"x": -1.7101459259,
				"y": 0.6174981522,
				"z": -1.294090296,
				"element": "C" 
			},
			{
				"x": -0.6972734515,
				"y": 1.4307271749,
				"z": -0.4574349313,
				"element": "C" 
			},
			{
				"x": 0.7207297634,
				"y": 1.2689293067,
				"z": -1.0110619785,
				"element": "C" 
			},
			{
				"x": 1.0688819538,
				"y": -0.1641133218,
				"z": -1.0643451974,
				"element": "N" 
			},
			{
				"x": 0.1631044587,
				"y": -0.9547453696,
				"z": -1.928924951,
				"element": "C" 
			},
			{
				"x": -1.2653532754,
				"y": -0.846764847,
				"z": -1.3919417381,
				"element": "C" 
			},
			{
				"x": 2.7215434567,
				"y": -0.4738515913,
				"z": -1.2929874118,
				"element": "S" 
			},
			{
				"x": 2.8359742725,
				"y": -1.9116919145,
				"z": -1.5422193718,
				"element": "O" 
			},
			{
				"x": 3.3349482157,
				"y": 0.5004868973,
				"z": -2.2066184601,
				"element": "O" 
			},
			{
				"x": 3.3768691373,
				"y": -0.1036315477,
				"z": 0.315445523,
				"element": "C" 
			},
			{
				"x": 3.1467256056,
				"y": -0.7921121972,
				"z": 1.4790741925,
				"element": "C" 
			},
			{
				"x": 3.8875872381,
				"y": -0.2745718273,
				"z": 2.5767935341,
				"element": "C" 
			},
			{
				"x": 4.6666570499,
				"y": 0.7921739882,
				"z": 2.2070392163,
				"element": "C" 
			},
			{
				"x": 5.8090348954,
				"y": 1.7853954103,
				"z": 3.3272577455,
				"element": "Br" 
			},
			{
				"x": 4.5245717313,
				"y": 1.1921277079,
				"z": 0.5240649891,
				"element": "S" 
			},
			{
				"x": -4.4519808137,
				"y": 2.0058519096,
				"z": -0.3837906532,
				"element": "H" 
			},
			{
				"x": -1.7408183287,
				"y": 1.0611162814,
				"z": -2.2999943783,
				"element": "H" 
			},
			{
				"x": -0.9679039239,
				"y": 2.490520372,
				"z": -0.4581728637,
				"element": "H" 
			},
			{
				"x": -0.7183227697,
				"y": 1.0804774943,
				"z": 0.5813800486,
				"element": "H" 
			},
			{
				"x": 1.4324847412,
				"y": 1.7793554731,
				"z": -0.3566113844,
				"element": "H" 
			},
			{
				"x": 0.8008264314,
				"y": 1.7265456472,
				"z": -2.0085647569,
				"element": "H" 
			},
			{
				"x": 0.2054576204,
				"y": -0.5937384773,
				"z": -2.9693590567,
				"element": "H" 
			},
			{
				"x": 0.503436139,
				"y": -1.9901913111,
				"z": -1.9187810957,
				"element": "H" 
			},
			{
				"x": -1.939192511,
				"y": -1.4075635746,
				"z": -2.0473600885,
				"element": "H" 
			},
			{
				"x": -1.3244757331,
				"y": -1.3102937422,
				"z": -0.4021408732,
				"element": "H" 
			},
			{
				"x": 2.4737199811,
				"y": -1.6388912957,
				"z": 1.5409392911,
				"element": "H" 
			},
			{
				"x": 3.8525706157,
				"y": -0.6683377528,
				"z": 3.5845651015,
				"element": "H" 
			}
		],
		 "valence_orbital": [ 
			{
				"type": "occ",
				"energy": -0.30716,
				"method": "rhf"
			},
			{
				"type": "occ",
				"energy": -0.28353,
				"method": "rhf"
			},
			{
				"type": "occ",
				"energy": -0.2821,
				"method": "rhf"
			},
			{
				"type": "occ",
				"energy": -0.26779,
				"method": "rhf"
			},
			{
				"type": "occ",
				"energy": -0.24742,
				"method": "rhf"
			},
			{
				"type": "unocc",
				"energy": -0.05919,
				"method": "rhf"
			},
			{
				"type": "unocc",
				"energy": -0.02125,
				"method": "rhf"
			},
			{
				"type": "unocc",
				"energy": -0.00234,
				"method": "rhf"
			},
			{
				"type": "unocc",
				"energy": 0.0017,
				"method": "rhf"
			},
			{
				"type": "unocc",
				"energy": 0.02357,
				"method": "rhf"
			}
		],
		"cosmo_sigma_profile": { 
			"-0.025": 0.0,
			"-0.024": 0.0,
			"-0.023": 0.0,
			"-0.022": 0.0,
			"-0.021": 0.0,
			"-0.02": 0.0,
			"-0.019": 0.0352566069484,
			"-0.018": 0.744408330508,
			"-0.017": 1.00445337143,
			"-0.016": 0.630546221699,
			"-0.015": 0.838949586692,
			"-0.014": 1.05105505652,
			"-0.013": 0.268741120073,
			"-0.012": 0.533776064443,
			"-0.011": 0.893357504572,
			"-0.01": 0.560752220036,
			"-0.009": 3.25748708472,
			"-0.008": 5.00506185698,
			"-0.007": 4.63076244101,
			"-0.006": 11.7165649174,
			"-0.005": 23.9160094243,
			"-0.004": 30.4701856434,
			"-0.003": 25.9688074211,
			"-0.002": 22.7155765697,
			"-0.001": 23.4666472594,
			"0.0": 23.9844564635,
			"0.001": 26.0235680522,
			"0.002": 21.7608073365,
			"0.003": 16.1122347031,
			"0.004": 7.31103318499,
			"0.005": 6.76259242055,
			"0.006": 5.56406909773,
			"0.007": 4.98701394767,
			"0.008": 6.76305103162,
			"0.009": 7.25820129137,
			"0.01": 10.3760843831,
			"0.011": 10.78575426,
			"0.012": 5.00522530302,
			"0.013": 0.277376130601,
			"0.014": 0.0,
			"0.015": 0.0,
			"0.016": 0.0,
			"0.017": 0.0,
			"0.018": 0.0,
			"0.019": 0.0,
			"0.02": 0.0,
			"0.021": 0.0,
			"0.022": 0.0,
			"0.023": 0.0,
			"0.024": 0.0,
			"0.025": 0.0
		}
	}
}
