{
	 "smiles": "OC(=O)CNC(=O)C=CC1=CC=CC=C1", 
	 "Tm": 465.15, 
	 "num_atms": 26, 
	 "gaussian": { 
		 "optdone": 1, 
		 "sigma_profile": "yes", 
		 "theory": "DFT", 
		 "functional": "B3LYP", 
		 "basiset": "6-31G**", 
		 "properties": { 
			 "R2extent": 6151.7768, 
			 "electric_dipole_moment_norm": 7.8451308606, 
			 "electric_quadrupole_moment_norm": 19.4181404535, 
			 "total_energy": -706.238845915, 
			 "HOMO_LUMO_gap": 0.16516, 
			 "cosmo_polarized_energy": -19.6, 
			 "cosmo_cavitation_energy": 31.12, 
			 "cosmo_dispersion_energy": -22.75, 
			 "cosmo_repulsion_energy": 1.78, 
			 "cosmo_total_nonelectrostatic_energy": 10.15, 
			 "SMD_solvation_energy": 6.59 
		},
		"coords": [
			{
				"x": 2.0133907875,
				"y": 2.6663894501,
				"z": 3.4652507739,
				"element": "O" 
			},
			{
				"x": 2.4079670316,
				"y": 2.993599437,
				"z": 2.2301416807,
				"element": "C" 
			},
			{
				"x": 2.5034667616,
				"y": 4.1385241037,
				"z": 1.8537177666,
				"element": "O" 
			},
			{
				"x": 2.768682648,
				"y": 1.8023963534,
				"z": 1.3181746461,
				"element": "C" 
			},
			{
				"x": 1.6903971259,
				"y": 0.8380385534,
				"z": 1.115298809,
				"element": "N" 
			},
			{
				"x": 1.3190885905,
				"y": -0.0492791547,
				"z": 2.0811778294,
				"element": "C" 
			},
			{
				"x": 1.7990924124,
				"y": 0.0088927083,
				"z": 3.2266774892,
				"element": "O" 
			},
			{
				"x": 0.331833305,
				"y": -1.0923135709,
				"z": 1.7294348539,
				"element": "C" 
			},
			{
				"x": 0.1158569905,
				"y": -1.5632412213,
				"z": 0.4859997018,
				"element": "C" 
			},
			{
				"x": -0.8226739938,
				"y": -2.6134461617,
				"z": 0.0825434137,
				"element": "C" 
			},
			{
				"x": -1.732441257,
				"y": -3.2148285634,
				"z": 0.9737880883,
				"element": "C" 
			},
			{
				"x": -2.5998001593,
				"y": -4.2099847216,
				"z": 0.5364680276,
				"element": "C" 
			},
			{
				"x": -2.5819374002,
				"y": -4.6266262654,
				"z": -0.7989347174,
				"element": "C" 
			},
			{
				"x": -1.6894622401,
				"y": -4.0380156764,
				"z": -1.6956223049,
				"element": "C" 
			},
			{
				"x": -0.8204729436,
				"y": -3.0407062926,
				"z": -1.2576926445,
				"element": "C" 
			},
			{
				"x": 2.0115376537,
				"y": 1.680224704,
				"z": 3.5686963683,
				"element": "H" 
			},
			{
				"x": 3.6234907631,
				"y": 1.2743799474,
				"z": 1.75642623,
				"element": "H" 
			},
			{
				"x": 3.0624835799,
				"y": 2.2069288525,
				"z": 0.35011923,
				"element": "H" 
			},
			{
				"x": 1.1217735109,
				"y": 0.9246886971,
				"z": 0.2870507389,
				"element": "H" 
			},
			{
				"x": -0.166963286,
				"y": -1.5130426679,
				"z": 2.596524747,
				"element": "H" 
			},
			{
				"x": 0.7110908386,
				"y": -1.1548599136,
				"z": -0.3307384051,
				"element": "H" 
			},
			{
				"x": -1.7653426693,
				"y": -2.8985157701,
				"z": 2.0114998302,
				"element": "H" 
			},
			{
				"x": -3.2955392645,
				"y": -4.662323824,
				"z": 1.2369344499,
				"element": "H" 
			},
			{
				"x": -3.2619619551,
				"y": -5.4032805184,
				"z": -1.1359883953,
				"element": "H" 
			},
			{
				"x": -1.6700576786,
				"y": -4.3542612363,
				"z": -2.7342625839,
				"element": "H" 
			},
			{
				"x": -0.1254991518,
				"y": -2.5849372484,
				"z": -1.9585856235,
				"element": "H" 
			}
		],
		 "valence_orbital": [ 
			{
				"type": "occ",
				"energy": -0.29545,
				"method": "rhf"
			},
			{
				"type": "occ",
				"energy": -0.27902,
				"method": "rhf"
			},
			{
				"type": "occ",
				"energy": -0.27252,
				"method": "rhf"
			},
			{
				"type": "occ",
				"energy": -0.25457,
				"method": "rhf"
			},
			{
				"type": "occ",
				"energy": -0.24564,
				"method": "rhf"
			},
			{
				"type": "unocc",
				"energy": -0.08048,
				"method": "rhf"
			},
			{
				"type": "unocc",
				"energy": -0.02154,
				"method": "rhf"
			},
			{
				"type": "unocc",
				"energy": 0.00099,
				"method": "rhf"
			},
			{
				"type": "unocc",
				"energy": 0.01751,
				"method": "rhf"
			},
			{
				"type": "unocc",
				"energy": 0.06085,
				"method": "rhf"
			}
		],
		"cosmo_sigma_profile": { 
			"-0.025": 0.0,
			"-0.024": 0.0,
			"-0.023": 0.0,
			"-0.022": 0.0,
			"-0.021": 0.0,
			"-0.02": 0.0,
			"-0.019": 0.0,
			"-0.018": 0.0,
			"-0.017": 0.0,
			"-0.016": 0.341835593628,
			"-0.015": 1.41437630446,
			"-0.014": 0.839550606051,
			"-0.013": 1.8192773733,
			"-0.012": 1.7473435074,
			"-0.011": 1.13379191874,
			"-0.01": 1.68146747638,
			"-0.009": 3.00805718137,
			"-0.008": 7.2251840955,
			"-0.007": 10.561421761,
			"-0.006": 15.8010642957,
			"-0.005": 17.2231143076,
			"-0.004": 18.4190726557,
			"-0.003": 16.074971485,
			"-0.002": 14.7386397421,
			"-0.001": 13.4642545798,
			"0.0": 13.6211435257,
			"0.001": 13.5590693059,
			"0.002": 15.8978148907,
			"0.003": 15.0550979297,
			"0.004": 14.668053274,
			"0.005": 9.75846199316,
			"0.006": 3.70893395006,
			"0.007": 2.15751553773,
			"0.008": 4.20133804851,
			"0.009": 4.25037340603,
			"0.01": 5.25315253127,
			"0.011": 7.42819236307,
			"0.012": 8.25501766756,
			"0.013": 4.40139576031,
			"0.014": 1.01187363752,
			"0.015": 0.0,
			"0.016": 0.0,
			"0.017": 0.0,
			"0.018": 0.0,
			"0.019": 0.0,
			"0.02": 0.0,
			"0.021": 0.0,
			"0.022": 0.0,
			"0.023": 0.0,
			"0.024": 0.0,
			"0.025": 0.0
		}
	}
}
