{
	 "smiles": "OC(=O)C1=CN=C2SCCN2C1=O", 
	 "Tm": 511.15, 
	 "num_atms": 19, 
	 "gaussian": { 
		 "optdone": 1, 
		 "sigma_profile": "yes", 
		 "theory": "DFT", 
		 "functional": "B3LYP", 
		 "basiset": "6-31G**", 
		 "properties": { 
			 "R2extent": 3063.1692, 
			 "electric_dipole_moment_norm": 8.23448167221, 
			 "electric_quadrupole_moment_norm": 15.2481987595, 
			 "total_energy": -1003.75149351, 
			 "HOMO_LUMO_gap": 0.17656, 
			 "cosmo_polarized_energy": -18.58, 
			 "cosmo_cavitation_energy": 24.76, 
			 "cosmo_dispersion_energy": -19.53, 
			 "cosmo_repulsion_energy": 1.47, 
			 "cosmo_total_nonelectrostatic_energy": 6.69, 
			 "SMD_solvation_energy": 3.55 
		},
		"coords": [
			{
				"x": 2.591094632,
				"y": 2.0344187966,
				"z": 2.5112772124,
				"element": "O" 
			},
			{
				"x": 2.6113667522,
				"y": 1.9623625343,
				"z": 1.1736924716,
				"element": "C" 
			},
			{
				"x": 3.5688295842,
				"y": 2.3167643732,
				"z": 0.5191151884,
				"element": "O" 
			},
			{
				"x": 1.3714447177,
				"y": 1.4142669126,
				"z": 0.527318791,
				"element": "C" 
			},
			{
				"x": 1.3215555055,
				"y": 1.2832690563,
				"z": -0.8413873189,
				"element": "C" 
			},
			{
				"x": 0.2535013127,
				"y": 0.8083882975,
				"z": -1.5408622507,
				"element": "N" 
			},
			{
				"x": -0.7745058827,
				"y": 0.4519340432,
				"z": -0.8223571211,
				"element": "C" 
			},
			{
				"x": -2.2545244897,
				"y": -0.2019623301,
				"z": -1.5269516417,
				"element": "S" 
			},
			{
				"x": -3.1324425694,
				"y": -0.0167444543,
				"z": 0.0871558936,
				"element": "C" 
			},
			{
				"x": -2.0437191538,
				"y": -0.0388846531,
				"z": 1.1660822414,
				"element": "C" 
			},
			{
				"x": -0.8404217344,
				"y": 0.5264315603,
				"z": 0.5418967382,
				"element": "N" 
			},
			{
				"x": 0.2336466053,
				"y": 0.9973793834,
				"z": 1.3150222979,
				"element": "C" 
			},
			{
				"x": 0.1357539791,
				"y": 1.0140340415,
				"z": 2.5508551603,
				"element": "O" 
			},
			{
				"x": 1.7260005415,
				"y": 1.6927444735,
				"z": 2.8429970683,
				"element": "H" 
			},
			{
				"x": 2.1895572136,
				"y": 1.5815728808,
				"z": -1.4224363373,
				"element": "H" 
			},
			{
				"x": -3.8398671961,
				"y": -0.8374804812,
				"z": 0.2075388287,
				"element": "H" 
			},
			{
				"x": -3.6775396335,
				"y": 0.9298437816,
				"z": 0.0804914845,
				"element": "H" 
			},
			{
				"x": -2.3038688316,
				"y": 0.5567812487,
				"z": 2.0421145042,
				"element": "H" 
			},
			{
				"x": -1.8213613523,
				"y": -1.0591194648,
				"z": 1.4978367892,
				"element": "H" 
			}
		],
		 "valence_orbital": [ 
			{
				"type": "occ",
				"energy": -0.30162,
				"method": "rhf"
			},
			{
				"type": "occ",
				"energy": -0.29855,
				"method": "rhf"
			},
			{
				"type": "occ",
				"energy": -0.29183,
				"method": "rhf"
			},
			{
				"type": "occ",
				"energy": -0.26482,
				"method": "rhf"
			},
			{
				"type": "occ",
				"energy": -0.25784,
				"method": "rhf"
			},
			{
				"type": "unocc",
				"energy": -0.08128,
				"method": "rhf"
			},
			{
				"type": "unocc",
				"energy": -0.03441,
				"method": "rhf"
			},
			{
				"type": "unocc",
				"energy": -0.02665,
				"method": "rhf"
			},
			{
				"type": "unocc",
				"energy": 0.02672,
				"method": "rhf"
			},
			{
				"type": "unocc",
				"energy": 0.04528,
				"method": "rhf"
			}
		],
		"cosmo_sigma_profile": { 
			"-0.025": 0.0,
			"-0.024": 0.0,
			"-0.023": 0.0,
			"-0.022": 0.0,
			"-0.021": 0.0,
			"-0.02": 0.0,
			"-0.019": 0.0,
			"-0.018": 0.0,
			"-0.017": 0.0,
			"-0.016": 0.0,
			"-0.015": 0.0,
			"-0.014": 0.0,
			"-0.013": 0.0,
			"-0.012": 0.0,
			"-0.011": 0.0,
			"-0.01": 0.0,
			"-0.009": 2.42493093648,
			"-0.008": 16.8825385236,
			"-0.007": 15.8488962629,
			"-0.006": 15.8911960646,
			"-0.005": 13.7402445605,
			"-0.004": 11.2210646606,
			"-0.003": 10.7175977676,
			"-0.002": 10.6253000994,
			"-0.001": 9.88599668776,
			"0.0": 10.5481749964,
			"0.001": 9.1680707956,
			"0.002": 8.09764182018,
			"0.003": 8.10863427969,
			"0.004": 8.54136907221,
			"0.005": 5.66446537744,
			"0.006": 3.18545604703,
			"0.007": 5.3161066771,
			"0.008": 4.9718397451,
			"0.009": 5.8653657549,
			"0.01": 6.31579789097,
			"0.011": 7.94024268101,
			"0.012": 6.63699719412,
			"0.013": 2.99902409519,
			"0.014": 0.569521228628,
			"0.015": 0.0,
			"0.016": 0.0,
			"0.017": 0.0,
			"0.018": 0.0,
			"0.019": 0.0,
			"0.02": 0.0,
			"0.021": 0.0,
			"0.022": 0.0,
			"0.023": 0.0,
			"0.024": 0.0,
			"0.025": 0.0
		}
	}
}
