{
	 "smiles": "CC1=CN(CC(O)=O)C2=C1C=CC=C2", 
	 "Tm": 449.15, 
	 "num_atms": 25, 
	 "gaussian": { 
		 "optdone": 1, 
		 "sigma_profile": "yes", 
		 "theory": "DFT", 
		 "functional": "B3LYP", 
		 "basiset": "6-31G**", 
		 "properties": { 
			 "R2extent": 3099.7341, 
			 "electric_dipole_moment_norm": 3.75135499387, 
			 "electric_quadrupole_moment_norm": 19.1362935743, 
			 "total_energy": -631.013937383, 
			 "HOMO_LUMO_gap": 0.19088, 
			 "cosmo_polarized_energy": -14.19, 
			 "cosmo_cavitation_energy": 28.98, 
			 "cosmo_dispersion_energy": -20.54, 
			 "cosmo_repulsion_energy": 1.61, 
			 "cosmo_total_nonelectrostatic_energy": 10.05, 
			 "SMD_solvation_energy": 6.38 
		},
		"coords": [
			{
				"x": -1.3624722141,
				"y": -2.5013716649,
				"z": 0.4406834935,
				"element": "C" 
			},
			{
				"x": -0.6503951642,
				"y": -1.2058606668,
				"z": 0.195249189,
				"element": "C" 
			},
			{
				"x": -0.0509113212,
				"y": -0.4040409486,
				"z": 1.1278772867,
				"element": "C" 
			},
			{
				"x": 0.5008752662,
				"y": 0.7288096175,
				"z": 0.5248836266,
				"element": "N" 
			},
			{
				"x": 1.291833518,
				"y": 1.7401557489,
				"z": 1.1911947546,
				"element": "C" 
			},
			{
				"x": 0.5454779394,
				"y": 3.0405825073,
				"z": 1.5466970155,
				"element": "C" 
			},
			{
				"x": -0.769273208,
				"y": 3.0709643483,
				"z": 1.2614487153,
				"element": "O" 
			},
			{
				"x": 1.1168361367,
				"y": 3.9683116879,
				"z": 2.0615810524,
				"element": "O" 
			},
			{
				"x": 0.2697586449,
				"y": 0.641125479,
				"z": -0.8449183098,
				"element": "C" 
			},
			{
				"x": -0.4578768227,
				"y": -0.5559942942,
				"z": -1.0804638434,
				"element": "C" 
			},
			{
				"x": -0.82981964,
				"y": -0.8774449686,
				"z": -2.3964663461,
				"element": "C" 
			},
			{
				"x": -0.4713955401,
				"y": -0.0175105746,
				"z": -3.4277900359,
				"element": "C" 
			},
			{
				"x": 0.2519657893,
				"y": 1.1640333141,
				"z": -3.170607799,
				"element": "C" 
			},
			{
				"x": 0.630439842,
				"y": 1.513272185,
				"z": -1.877926124,
				"element": "C" 
			},
			{
				"x": -0.8944872932,
				"y": -3.3269394652,
				"z": -0.1088362095,
				"element": "H" 
			},
			{
				"x": -2.4094678902,
				"y": -2.4542872717,
				"z": 0.1176156617,
				"element": "H" 
			},
			{
				"x": -1.3546248909,
				"y": -2.763052803,
				"z": 1.5026237304,
				"element": "H" 
			},
			{
				"x": 0.0343633561,
				"y": -0.5371032281,
				"z": 2.1982047144,
				"element": "H" 
			},
			{
				"x": 2.1534837332,
				"y": 2.0171741764,
				"z": 0.5762615839,
				"element": "H" 
			},
			{
				"x": 1.6903648693,
				"y": 1.3326691209,
				"z": 2.1243622639,
				"element": "H" 
			},
			{
				"x": -1.0220354463,
				"y": 2.2318312964,
				"z": 0.8408468181,
				"element": "H" 
			},
			{
				"x": -1.3882268192,
				"y": -1.7858604583,
				"z": -2.6043002814,
				"element": "H" 
			},
			{
				"x": -0.7525779347,
				"y": -0.2555905568,
				"z": -4.4492778204,
				"element": "H" 
			},
			{
				"x": 0.5166950619,
				"y": 1.8181682126,
				"z": -3.9958746699,
				"element": "H" 
			},
			{
				"x": 1.1787700279,
				"y": 2.4309592065,
				"z": -1.6872684666,
				"element": "H" 
			}
		],
		 "valence_orbital": [ 
			{
				"type": "occ",
				"energy": -0.31809,
				"method": "rhf"
			},
			{
				"type": "occ",
				"energy": -0.2866,
				"method": "rhf"
			},
			{
				"type": "occ",
				"energy": -0.27282,
				"method": "rhf"
			},
			{
				"type": "occ",
				"energy": -0.23242,
				"method": "rhf"
			},
			{
				"type": "occ",
				"energy": -0.21204,
				"method": "rhf"
			},
			{
				"type": "unocc",
				"energy": -0.02116,
				"method": "rhf"
			},
			{
				"type": "unocc",
				"energy": 0.00316,
				"method": "rhf"
			},
			{
				"type": "unocc",
				"energy": 0.01256,
				"method": "rhf"
			},
			{
				"type": "unocc",
				"energy": 0.05536,
				"method": "rhf"
			},
			{
				"type": "unocc",
				"energy": 0.07314,
				"method": "rhf"
			}
		],
		"cosmo_sigma_profile": { 
			"-0.025": 0.0,
			"-0.024": 0.0,
			"-0.023": 0.0,
			"-0.022": 0.0,
			"-0.021": 0.0,
			"-0.02": 0.0,
			"-0.019": 0.0,
			"-0.018": 0.0,
			"-0.017": 0.0,
			"-0.016": 0.0,
			"-0.015": 0.262855082931,
			"-0.014": 0.413809672057,
			"-0.013": 0.432937088099,
			"-0.012": 0.801315740755,
			"-0.011": 0.621119739305,
			"-0.01": 3.08300494419,
			"-0.009": 7.02267607421,
			"-0.008": 8.54169033772,
			"-0.007": 7.93314722836,
			"-0.006": 8.22913203318,
			"-0.005": 13.1945689771,
			"-0.004": 15.3425339716,
			"-0.003": 18.0816099873,
			"-0.002": 18.1731647961,
			"-0.001": 15.2940414892,
			"0.0": 14.8558165562,
			"0.001": 12.6960973397,
			"0.002": 9.66376591176,
			"0.003": 11.1176240835,
			"0.004": 11.9290417314,
			"0.005": 12.2256592027,
			"0.006": 11.0603998308,
			"0.007": 6.88030925337,
			"0.008": 3.3431792937,
			"0.009": 3.02232945539,
			"0.01": 5.05616443095,
			"0.011": 4.69118987975,
			"0.012": 5.25706392875,
			"0.013": 1.52405569829,
			"0.014": 0.00135295171565,
			"0.015": 0.0,
			"0.016": 0.0,
			"0.017": 0.0,
			"0.018": 0.0,
			"0.019": 0.0,
			"0.02": 0.0,
			"0.021": 0.0,
			"0.022": 0.0,
			"0.023": 0.0,
			"0.024": 0.0,
			"0.025": 0.0
		}
	}
}
