{
	 "smiles": "CN(C)C(=S)SC1=CC=C(C=C1N(=O)=O)N(=O)=O", 
	 "Tm": 425.15, 
	 "num_atms": 27, 
	 "gaussian": { 
		 "optdone": 1, 
		 "sigma_profile": "yes", 
		 "theory": "DFT", 
		 "functional": "B3LYP", 
		 "basiset": "6-31G**", 
		 "properties": { 
			 "R2extent": 6546.7141, 
			 "electric_dipole_moment_norm": 6.74813836476, 
			 "electric_quadrupole_moment_norm": 5.78716273402, 
			 "total_energy": -1609.68125041, 
			 "HOMO_LUMO_gap": 0.10961, 
			 "cosmo_polarized_energy": -17.28, 
			 "cosmo_cavitation_energy": 35.4, 
			 "cosmo_dispersion_energy": -25.32, 
			 "cosmo_repulsion_energy": 1.86, 
			 "cosmo_total_nonelectrostatic_energy": 11.94, 
			 "SMD_solvation_energy": 9.24 
		},
		"coords": [
			{
				"x": 2.6153946667,
				"y": 3.5034456674,
				"z": 0.6498125044,
				"element": "C" 
			},
			{
				"x": 2.5574772735,
				"y": 2.0488372099,
				"z": 0.4728186605,
				"element": "N" 
			},
			{
				"x": 3.2501851651,
				"y": 1.2691691647,
				"z": 1.5045879274,
				"element": "C" 
			},
			{
				"x": 1.7911112478,
				"y": 1.5366078985,
				"z": -0.5103788555,
				"element": "C" 
			},
			{
				"x": 0.7613647862,
				"y": 2.4115522105,
				"z": -1.4784046906,
				"element": "S" 
			},
			{
				"x": 2.101459555,
				"y": -0.2449996205,
				"z": -0.7974552011,
				"element": "S" 
			},
			{
				"x": 0.5529845642,
				"y": -0.8424305678,
				"z": -1.4225819318,
				"element": "C" 
			},
			{
				"x": 0.6363805302,
				"y": -1.5993253941,
				"z": -2.6030089244,
				"element": "C" 
			},
			{
				"x": -0.4831976683,
				"y": -2.1956237342,
				"z": -3.1719114192,
				"element": "C" 
			},
			{
				"x": -1.7202764163,
				"y": -2.0036564262,
				"z": -2.5643390155,
				"element": "C" 
			},
			{
				"x": -1.8570397683,
				"y": -1.2486319303,
				"z": -1.4073324552,
				"element": "C" 
			},
			{
				"x": -0.7200129657,
				"y": -0.6918424336,
				"z": -0.8320897953,
				"element": "C" 
			},
			{
				"x": -0.9482789039,
				"y": 0.0261081781,
				"z": 0.4413113997,
				"element": "N" 
			},
			{
				"x": -2.0683737466,
				"y": 0.4918395921,
				"z": 0.622392633,
				"element": "O" 
			},
			{
				"x": -0.027586876,
				"y": 0.0764334262,
				"z": 1.2539379232,
				"element": "O" 
			},
			{
				"x": -2.9204221603,
				"y": -2.6113958592,
				"z": -3.16262269,
				"element": "N" 
			},
			{
				"x": -3.9942835788,
				"y": -2.4233765414,
				"z": -2.5958696362,
				"element": "O" 
			},
			{
				"x": -2.7649931787,
				"y": -3.2700994724,
				"z": -4.1893472418,
				"element": "O" 
			},
			{
				"x": 1.7290605081,
				"y": 3.8639909757,
				"z": 1.1834254218,
				"element": "H" 
			},
			{
				"x": 2.6512310913,
				"y": 3.9950191565,
				"z": -0.3226523226,
				"element": "H" 
			},
			{
				"x": 3.5122398768,
				"y": 3.7449611213,
				"z": 1.2240026416,
				"element": "H" 
			},
			{
				"x": 4.3293007303,
				"y": 1.2347718062,
				"z": 1.3141306232,
				"element": "H" 
			},
			{
				"x": 2.8544060051,
				"y": 0.2565980611,
				"z": 1.5466153015,
				"element": "H" 
			},
			{
				"x": 3.0802761896,
				"y": 1.7465442934,
				"z": 2.4734666921,
				"element": "H" 
			},
			{
				"x": 1.6017408098,
				"y": -1.6992878746,
				"z": -3.0864049661,
				"element": "H" 
			},
			{
				"x": -0.4161000219,
				"y": -2.7801527005,
				"z": -4.0808041676,
				"element": "H" 
			},
			{
				"x": -2.8275477147,
				"y": -1.1025562068,
				"z": -0.9532984155,
				"element": "H" 
			}
		],
		 "valence_orbital": [ 
			{
				"type": "occ",
				"energy": -0.3049,
				"method": "rhf"
			},
			{
				"type": "occ",
				"energy": -0.29682,
				"method": "rhf"
			},
			{
				"type": "occ",
				"energy": -0.26234,
				"method": "rhf"
			},
			{
				"type": "occ",
				"energy": -0.23874,
				"method": "rhf"
			},
			{
				"type": "occ",
				"energy": -0.22292,
				"method": "rhf"
			},
			{
				"type": "unocc",
				"energy": -0.11331,
				"method": "rhf"
			},
			{
				"type": "unocc",
				"energy": -0.09779,
				"method": "rhf"
			},
			{
				"type": "unocc",
				"energy": -0.0496,
				"method": "rhf"
			},
			{
				"type": "unocc",
				"energy": -0.03737,
				"method": "rhf"
			},
			{
				"type": "unocc",
				"energy": -0.02213,
				"method": "rhf"
			}
		],
		"cosmo_sigma_profile": { 
			"-0.025": 0.0,
			"-0.024": 0.0,
			"-0.023": 0.0,
			"-0.022": 0.0,
			"-0.021": 0.0,
			"-0.02": 0.0,
			"-0.019": 0.0,
			"-0.018": 0.0,
			"-0.017": 0.0,
			"-0.016": 0.0,
			"-0.015": 0.0,
			"-0.014": 0.0,
			"-0.013": 0.0,
			"-0.012": 0.0,
			"-0.011": 0.0,
			"-0.01": 0.639216059393,
			"-0.009": 4.35523709867,
			"-0.008": 5.90751902575,
			"-0.007": 14.1930691722,
			"-0.006": 19.0658605894,
			"-0.005": 21.543396626,
			"-0.004": 26.3283057687,
			"-0.003": 28.3693343926,
			"-0.002": 18.1414044643,
			"-0.001": 11.3846610174,
			"0.0": 11.0600000751,
			"0.001": 11.7818300564,
			"0.002": 13.6777485837,
			"0.003": 13.4066677458,
			"0.004": 13.1093631141,
			"0.005": 11.4699247388,
			"0.006": 18.3143800953,
			"0.007": 19.8097205606,
			"0.008": 13.1318738594,
			"0.009": 9.55346110693,
			"0.01": 2.17789613658,
			"0.011": 0.0,
			"0.012": 0.0,
			"0.013": 0.0,
			"0.014": 0.0,
			"0.015": 0.0,
			"0.016": 0.0,
			"0.017": 0.0,
			"0.018": 0.0,
			"0.019": 0.0,
			"0.02": 0.0,
			"0.021": 0.0,
			"0.022": 0.0,
			"0.023": 0.0,
			"0.024": 0.0,
			"0.025": 0.0
		}
	}
}
