{
	 "smiles": "COC1=CC=C(C=C1O)C(O)C(O)=O", 
	 "Tm": 401.15, 
	 "num_atms": 24, 
	 "gaussian": { 
		 "optdone": 1, 
		 "sigma_profile": "yes", 
		 "theory": "DFT", 
		 "functional": "B3LYP", 
		 "basiset": "6-31G**", 
		 "properties": { 
			 "R2extent": 4062.4507, 
			 "electric_dipole_moment_norm": 3.0718364198, 
			 "electric_quadrupole_moment_norm": 20.4603108449, 
			 "total_energy": -725.082276964, 
			 "HOMO_LUMO_gap": 0.21073, 
			 "cosmo_polarized_energy": -17.67, 
			 "cosmo_cavitation_energy": 28.17, 
			 "cosmo_dispersion_energy": -20.66, 
			 "cosmo_repulsion_energy": 1.65, 
			 "cosmo_total_nonelectrostatic_energy": 9.15, 
			 "SMD_solvation_energy": 7.13 
		},
		"coords": [
			{
				"x": 2.8522262311,
				"y": -0.3863659212,
				"z": 0.8419524994,
				"element": "C" 
			},
			{
				"x": 1.92043715,
				"y": -0.8610783423,
				"z": -0.1369289497,
				"element": "O" 
			},
			{
				"x": 0.6557027876,
				"y": -0.3400169164,
				"z": -0.0857006352,
				"element": "C" 
			},
			{
				"x": 0.1777718982,
				"y": 0.3648864503,
				"z": -1.1876439075,
				"element": "C" 
			},
			{
				"x": -1.1274515293,
				"y": 0.8669082917,
				"z": -1.2135967827,
				"element": "C" 
			},
			{
				"x": -1.9754765773,
				"y": 0.6630021745,
				"z": -0.1195304547,
				"element": "C" 
			},
			{
				"x": -1.5020902498,
				"y": -0.0409772304,
				"z": 0.9922169259,
				"element": "C" 
			},
			{
				"x": -0.2027433853,
				"y": -0.5447237485,
				"z": 1.0189690947,
				"element": "C" 
			},
			{
				"x": 0.2859558186,
				"y": -1.2544747287,
				"z": 2.0769990983,
				"element": "O" 
			},
			{
				"x": -3.4173589269,
				"y": 1.1338385941,
				"z": -0.1588607537,
				"element": "C" 
			},
			{
				"x": -3.8950822328,
				"y": 1.4761551138,
				"z": 1.1153136873,
				"element": "O" 
			},
			{
				"x": -4.3611202839,
				"y": 0.06149141,
				"z": -0.75642078,
				"element": "C" 
			},
			{
				"x": -3.9439507617,
				"y": -0.5919371939,
				"z": -1.8482989247,
				"element": "O" 
			},
			{
				"x": -5.4531491931,
				"y": -0.1346119152,
				"z": -0.270154036,
				"element": "O" 
			},
			{
				"x": 2.5514482514,
				"y": -0.6660180154,
				"z": 1.8548295912,
				"element": "H" 
			},
			{
				"x": 3.8063429168,
				"y": -0.8576584513,
				"z": 0.598996756,
				"element": "H" 
			},
			{
				"x": 2.9613017374,
				"y": 0.7037760805,
				"z": 0.7779412576,
				"element": "H" 
			},
			{
				"x": 0.8555707133,
				"y": 0.519605028,
				"z": -2.0208236936,
				"element": "H" 
			},
			{
				"x": -1.4596296014,
				"y": 1.4583924348,
				"z": -2.064150717,
				"element": "H" 
			},
			{
				"x": -2.1625040031,
				"y": -0.1787335816,
				"z": 1.8445215457,
				"element": "H" 
			},
			{
				"x": -0.3997383677,
				"y": -1.3193228351,
				"z": 2.7549134565,
				"element": "H" 
			},
			{
				"x": -3.4800077342,
				"y": 1.9946356581,
				"z": -0.8504253876,
				"element": "H" 
			},
			{
				"x": -4.8045345775,
				"y": 1.126662114,
				"z": 1.1448902644,
				"element": "H" 
			},
			{
				"x": -3.0008200805,
				"y": -0.4010344697,
				"z": -1.9976091546,
				"element": "H" 
			}
		],
		 "valence_orbital": [ 
			{
				"type": "occ",
				"energy": -0.2993,
				"method": "rhf"
			},
			{
				"type": "occ",
				"energy": -0.29055,
				"method": "rhf"
			},
			{
				"type": "occ",
				"energy": -0.28139,
				"method": "rhf"
			},
			{
				"type": "occ",
				"energy": -0.25296,
				"method": "rhf"
			},
			{
				"type": "occ",
				"energy": -0.22988,
				"method": "rhf"
			},
			{
				"type": "unocc",
				"energy": -0.01915,
				"method": "rhf"
			},
			{
				"type": "unocc",
				"energy": -0.01747,
				"method": "rhf"
			},
			{
				"type": "unocc",
				"energy": 0.00504,
				"method": "rhf"
			},
			{
				"type": "unocc",
				"energy": 0.05611,
				"method": "rhf"
			},
			{
				"type": "unocc",
				"energy": 0.07961,
				"method": "rhf"
			}
		],
		"cosmo_sigma_profile": { 
			"-0.025": 0.0,
			"-0.024": 0.0,
			"-0.023": 0.0,
			"-0.022": 0.0,
			"-0.021": 0.0,
			"-0.02": 0.0,
			"-0.019": 0.0434552108915,
			"-0.018": 0.887145733484,
			"-0.017": 1.10342691294,
			"-0.016": 1.38866775783,
			"-0.015": 0.95655666002,
			"-0.014": 1.83343395986,
			"-0.013": 2.03797611914,
			"-0.012": 1.38024537411,
			"-0.011": 3.85354768458,
			"-0.01": 3.99951997696,
			"-0.009": 2.94689414072,
			"-0.008": 5.56771738751,
			"-0.007": 6.86542182636,
			"-0.006": 8.1733337289,
			"-0.005": 11.5459672604,
			"-0.004": 12.5425033222,
			"-0.003": 17.9185970276,
			"-0.002": 14.9859667177,
			"-0.001": 11.0791252537,
			"0.0": 9.90914075438,
			"0.001": 10.5749102064,
			"0.002": 13.819409038,
			"0.003": 12.4939911122,
			"0.004": 10.9550962287,
			"0.005": 7.66322803252,
			"0.006": 7.37885892834,
			"0.007": 6.8444836231,
			"0.008": 7.35084592953,
			"0.009": 8.36587581152,
			"0.01": 7.76779430777,
			"0.011": 6.01590205832,
			"0.012": 3.25406194546,
			"0.013": 1.51699216565,
			"0.014": 0.24457818707,
			"0.015": 0.0,
			"0.016": 0.0,
			"0.017": 0.0,
			"0.018": 0.0,
			"0.019": 0.0,
			"0.02": 0.0,
			"0.021": 0.0,
			"0.022": 0.0,
			"0.023": 0.0,
			"0.024": 0.0,
			"0.025": 0.0
		}
	}
}
