{
	 "smiles": "[O-][N+](=O)C1=CC(=CC(=C1)[N+]([O-])=O)[N+]([O-])=O", 
	 "Tm": 395.15, 
	 "num_atms": 18, 
	 "gaussian": { 
		 "optdone": 1, 
		 "sigma_profile": "yes", 
		 "theory": "DFT", 
		 "functional": "B3LYP", 
		 "basiset": "6-31G**", 
		 "properties": { 
			 "R2extent": 3665.0125, 
			 "electric_dipole_moment_norm": 0.000583095189485, 
			 "electric_quadrupole_moment_norm": 15.0872897941, 
			 "total_energy": -845.725628712, 
			 "HOMO_LUMO_gap": 0.19269, 
			 "cosmo_polarized_energy": -14.1, 
			 "cosmo_cavitation_energy": 26.0, 
			 "cosmo_dispersion_energy": -18.75, 
			 "cosmo_repulsion_energy": 1.45, 
			 "cosmo_total_nonelectrostatic_energy": 8.71, 
			 "SMD_solvation_energy": 11.44 
		},
		"coords": [
			{
				"x": 0.119693607,
				"y": -3.2793954192,
				"z": 0.8840444074,
				"element": "O" 
			},
			{
				"x": -0.7850819174,
				"y": -2.5626429037,
				"z": 1.3000416239,
				"element": "N" 
			},
			{
				"x": -1.7356306229,
				"y": -2.929198165,
				"z": 1.9837821959,
				"element": "O" 
			},
			{
				"x": -0.7247781007,
				"y": -1.1279236114,
				"z": 0.9449142913,
				"element": "C" 
			},
			{
				"x": -1.7336759717,
				"y": -0.2844476995,
				"z": 1.3983262798,
				"element": "C" 
			},
			{
				"x": -1.6502853348,
				"y": 1.059319068,
				"z": 1.0486799923,
				"element": "C" 
			},
			{
				"x": -0.6113542933,
				"y": 1.569660142,
				"z": 0.2772554096,
				"element": "C" 
			},
			{
				"x": 0.3686632412,
				"y": 0.6784389927,
				"z": -0.1472650801,
				"element": "C" 
			},
			{
				"x": 0.3386177951,
				"y": -0.6754013321,
				"z": 0.1707597712,
				"element": "C" 
			},
			{
				"x": 1.486771717,
				"y": 1.1905686166,
				"z": -0.9693061358,
				"element": "N" 
			},
			{
				"x": 1.4835112451,
				"y": 2.3890454246,
				"z": -1.2319878883,
				"element": "O" 
			},
			{
				"x": 2.3343196996,
				"y": 0.378798319,
				"z": -1.327145706,
				"element": "O" 
			},
			{
				"x": -2.7080861545,
				"y": 1.9819416341,
				"z": 1.5155988133,
				"element": "N" 
			},
			{
				"x": -3.6099588346,
				"y": 1.5001037823,
				"z": 2.1937064792,
				"element": "O" 
			},
			{
				"x": -2.6050055292,
				"y": 3.1603378736,
				"z": 1.1898270977,
				"element": "O" 
			},
			{
				"x": -2.5513904679,
				"y": -0.6589776767,
				"z": 1.9995291168,
				"element": "H" 
			},
			{
				"x": -0.567265261,
				"y": 2.6189344115,
				"z": 0.0175425749,
				"element": "H" 
			},
			{
				"x": 1.1122351831,
				"y": -1.3501614569,
				"z": -0.1707032431,
				"element": "H" 
			}
		],
		 "valence_orbital": [ 
			{
				"type": "occ",
				"energy": -0.33615,
				"method": "rhf"
			},
			{
				"type": "occ",
				"energy": -0.33615,
				"method": "rhf"
			},
			{
				"type": "occ",
				"energy": -0.32771,
				"method": "rhf"
			},
			{
				"type": "occ",
				"energy": -0.3277,
				"method": "rhf"
			},
			{
				"type": "occ",
				"energy": -0.32764,
				"method": "rhf"
			},
			{
				"type": "unocc",
				"energy": -0.13495,
				"method": "rhf"
			},
			{
				"type": "unocc",
				"energy": -0.13495,
				"method": "rhf"
			},
			{
				"type": "unocc",
				"energy": -0.11145,
				"method": "rhf"
			},
			{
				"type": "unocc",
				"energy": -0.03266,
				"method": "rhf"
			},
			{
				"type": "unocc",
				"energy": -0.03265,
				"method": "rhf"
			}
		],
		"cosmo_sigma_profile": { 
			"-0.025": 0.0,
			"-0.024": 0.0,
			"-0.023": 0.0,
			"-0.022": 0.0,
			"-0.021": 0.0,
			"-0.02": 0.0,
			"-0.019": 0.0,
			"-0.018": 0.0,
			"-0.017": 0.0,
			"-0.016": 0.0,
			"-0.015": 0.0,
			"-0.014": 0.0,
			"-0.013": 0.0,
			"-0.012": 0.0,
			"-0.011": 0.0,
			"-0.01": 0.848083425753,
			"-0.009": 4.81092674751,
			"-0.008": 8.94286461262,
			"-0.007": 11.6913411219,
			"-0.006": 20.8705216548,
			"-0.005": 25.7876430189,
			"-0.004": 11.7289976663,
			"-0.003": 7.50296498477,
			"-0.002": 6.10754902848,
			"-0.001": 5.87118205743,
			"0.0": 5.78271289984,
			"0.001": 6.09606492888,
			"0.002": 7.14722423153,
			"0.003": 7.54428279746,
			"0.004": 8.97305519678,
			"0.005": 12.6273887618,
			"0.006": 25.0531064546,
			"0.007": 17.7840681725,
			"0.008": 11.2142816311,
			"0.009": 4.09021547807,
			"0.01": 0.0,
			"0.011": 0.0,
			"0.012": 0.0,
			"0.013": 0.0,
			"0.014": 0.0,
			"0.015": 0.0,
			"0.016": 0.0,
			"0.017": 0.0,
			"0.018": 0.0,
			"0.019": 0.0,
			"0.02": 0.0,
			"0.021": 0.0,
			"0.022": 0.0,
			"0.023": 0.0,
			"0.024": 0.0,
			"0.025": 0.0
		}
	}
}
