{
	 "smiles": "COC1=C(C=CC=C1)C1=NN=C(S)N1N", 
	 "Tm": 488.15, 
	 "num_atms": 25, 
	 "gaussian": { 
		 "optdone": 1, 
		 "sigma_profile": "yes", 
		 "theory": "DFT", 
		 "functional": "B3LYP", 
		 "basiset": "6-31G**", 
		 "properties": { 
			 "R2extent": 4023.6097, 
			 "electric_dipole_moment_norm": 4.65935681076, 
			 "electric_quadrupole_moment_norm": 12.0401677501, 
			 "total_energy": -1041.32921743, 
			 "HOMO_LUMO_gap": 0.18347, 
			 "cosmo_polarized_energy": -17.59, 
			 "cosmo_cavitation_energy": 30.95, 
			 "cosmo_dispersion_energy": -22.39, 
			 "cosmo_repulsion_energy": 1.72, 
			 "cosmo_total_nonelectrostatic_energy": 10.28, 
			 "SMD_solvation_energy": 3.82 
		},
		"coords": [
			{
				"x": 2.3268041378,
				"y": 1.9613320295,
				"z": 0.6901794172,
				"element": "C" 
			},
			{
				"x": 1.7062038061,
				"y": 0.6758490753,
				"z": 0.8510277583,
				"element": "O" 
			},
			{
				"x": 0.3806858007,
				"y": 0.7326409666,
				"z": 1.2600412813,
				"element": "C" 
			},
			{
				"x": -0.656044054,
				"y": 0.7917554098,
				"z": 0.3098677327,
				"element": "C" 
			},
			{
				"x": -1.9793384504,
				"y": 0.881240367,
				"z": 0.7748315801,
				"element": "C" 
			},
			{
				"x": -2.2612524292,
				"y": 0.8861769476,
				"z": 2.1382868542,
				"element": "C" 
			},
			{
				"x": -1.2217670761,
				"y": 0.7936452535,
				"z": 3.0671552163,
				"element": "C" 
			},
			{
				"x": 0.099140461,
				"y": 0.7208809042,
				"z": 2.6262752619,
				"element": "C" 
			},
			{
				"x": -0.4159425528,
				"y": 0.8091535758,
				"z": -1.1401647003,
				"element": "C" 
			},
			{
				"x": -1.0365827102,
				"y": 1.5912859346,
				"z": -1.9978712686,
				"element": "N" 
			},
			{
				"x": -0.5802569282,
				"y": 1.2928704052,
				"z": -3.2697679427,
				"element": "N" 
			},
			{
				"x": 0.3093968589,
				"y": 0.334930938,
				"z": -3.1413757265,
				"element": "C" 
			},
			{
				"x": 1.2291425693,
				"y": -0.4607639283,
				"z": -4.4163610787,
				"element": "S" 
			},
			{
				"x": 0.4590998944,
				"y": -0.016846998,
				"z": -1.8287546043,
				"element": "N" 
			},
			{
				"x": 1.2816891002,
				"y": -1.0643442076,
				"z": -1.3938012913,
				"element": "N" 
			},
			{
				"x": 2.3387683903,
				"y": 2.5055989871,
				"z": 1.6413983868,
				"element": "H" 
			},
			{
				"x": 3.3510145241,
				"y": 1.7719712314,
				"z": 0.3643485125,
				"element": "H" 
			},
			{
				"x": 1.8038342047,
				"y": 2.5601396727,
				"z": -0.0639070806,
				"element": "H" 
			},
			{
				"x": -2.7758241068,
				"y": 0.9472174178,
				"z": 0.0413965935,
				"element": "H" 
			},
			{
				"x": -3.2910568398,
				"y": 0.9513187329,
				"z": 2.4755327916,
				"element": "H" 
			},
			{
				"x": -1.4369844318,
				"y": 0.7822482927,
				"z": 4.1314640313,
				"element": "H" 
			},
			{
				"x": 0.9262283113,
				"y": 0.6587403336,
				"z": 3.3265814168,
				"element": "H" 
			},
			{
				"x": 0.6439895496,
				"y": 0.2815046548,
				"z": -5.3767796534,
				"element": "H" 
			},
			{
				"x": 1.8242178282,
				"y": -0.708642745,
				"z": -0.606559605,
				"element": "H" 
			},
			{
				"x": 0.6904341427,
				"y": -1.8255032512,
				"z": -1.064643883,
				"element": "H" 
			}
		],
		 "valence_orbital": [ 
			{
				"type": "occ",
				"energy": -0.28694,
				"method": "rhf"
			},
			{
				"type": "occ",
				"energy": -0.26896,
				"method": "rhf"
			},
			{
				"type": "occ",
				"energy": -0.26015,
				"method": "rhf"
			},
			{
				"type": "occ",
				"energy": -0.24505,
				"method": "rhf"
			},
			{
				"type": "occ",
				"energy": -0.21927,
				"method": "rhf"
			},
			{
				"type": "unocc",
				"energy": -0.0358,
				"method": "rhf"
			},
			{
				"type": "unocc",
				"energy": -0.01548,
				"method": "rhf"
			},
			{
				"type": "unocc",
				"energy": 0.02136,
				"method": "rhf"
			},
			{
				"type": "unocc",
				"energy": 0.03168,
				"method": "rhf"
			},
			{
				"type": "unocc",
				"energy": 0.04974,
				"method": "rhf"
			}
		],
		"cosmo_sigma_profile": { 
			"-0.025": 0.0,
			"-0.024": 0.0,
			"-0.023": 0.0,
			"-0.022": 0.0,
			"-0.021": 0.0,
			"-0.02": 0.0,
			"-0.019": 0.0,
			"-0.018": 0.0,
			"-0.017": 0.0,
			"-0.016": 0.0,
			"-0.015": 0.0,
			"-0.014": 0.546054267363,
			"-0.013": 1.91135378086,
			"-0.012": 2.11605541365,
			"-0.011": 2.96587789646,
			"-0.01": 3.57798354559,
			"-0.009": 3.06545171182,
			"-0.008": 3.03399960085,
			"-0.007": 4.95178716686,
			"-0.006": 13.1140753888,
			"-0.005": 20.3726896186,
			"-0.004": 21.5367993159,
			"-0.003": 23.1354147182,
			"-0.002": 16.4185612806,
			"-0.001": 12.784166776,
			"0.0": 12.8215537608,
			"0.001": 13.0063143716,
			"0.002": 14.8873030128,
			"0.003": 16.902008024,
			"0.004": 15.5039915153,
			"0.005": 8.33636378575,
			"0.006": 6.80005837527,
			"0.007": 5.00141751402,
			"0.008": 4.30845840762,
			"0.009": 2.35599370296,
			"0.01": 3.03911294706,
			"0.011": 3.2708664696,
			"0.012": 2.98812073975,
			"0.013": 3.11181948778,
			"0.014": 3.2343960427,
			"0.015": 2.14878891919,
			"0.016": 2.08982957722,
			"0.017": 0.528336647882,
			"0.018": 0.0,
			"0.019": 0.0,
			"0.02": 0.0,
			"0.021": 0.0,
			"0.022": 0.0,
			"0.023": 0.0,
			"0.024": 0.0,
			"0.025": 0.0
		}
	}
}
