{
	 "smiles": "CN1N(C(=O)C(NC(=O)C(F)(F)C(F)(F)C(F)(F)C(F)(F)C(F)(F)C(F)(F)C(F)(F)C(F)(F)F)=C1C)C1=CC=CC=C1", 
	 "Tm": 450.15, 
	 "num_atms": 54, 
	 "gaussian": { 
		 "optdone": 1, 
		 "sigma_profile": "yes", 
		 "theory": "DFT", 
		 "functional": "B3LYP", 
		 "basiset": "6-31G**", 
		 "properties": { 
			 "R2extent": 21201.2311, 
			 "electric_dipole_moment_norm": 4.90355307609, 
			 "electric_quadrupole_moment_norm": 19.2112892652, 
			 "total_energy": -2781.26412772, 
			 "HOMO_LUMO_gap": 0.1806, 
			 "cosmo_polarized_energy": -15.28, 
			 "cosmo_cavitation_energy": 62.7, 
			 "cosmo_dispersion_energy": -37.87, 
			 "cosmo_repulsion_energy": 2.48, 
			 "cosmo_total_nonelectrostatic_energy": 27.31, 
			 "SMD_solvation_energy": 15.5 
		},
		"coords": [
			{
				"x": -0.3301854247,
				"y": -4.0890966561,
				"z": -0.6115631633,
				"element": "C" 
			},
			{
				"x": -0.6400458582,
				"y": -3.3732735523,
				"z": 0.6375308948,
				"element": "N" 
			},
			{
				"x": 0.3341031842,
				"y": -2.408923585,
				"z": 0.9886171915,
				"element": "N" 
			},
			{
				"x": -0.2880156953,
				"y": -1.2288440734,
				"z": 1.4179460011,
				"element": "C" 
			},
			{
				"x": 0.2537007181,
				"y": -0.2463408609,
				"z": 1.9146206563,
				"element": "O" 
			},
			{
				"x": -1.706191407,
				"y": -1.4697676312,
				"z": 1.1946185841,
				"element": "C" 
			},
			{
				"x": -2.617635911,
				"y": -0.4429439818,
				"z": 1.4912369917,
				"element": "N" 
			},
			{
				"x": -3.5143835745,
				"y": 0.0240644054,
				"z": 0.5702165682,
				"element": "C" 
			},
			{
				"x": -3.8664830732,
				"y": -0.5595338785,
				"z": -0.435346024,
				"element": "O" 
			},
			{
				"x": -4.1403554192,
				"y": 1.4045263965,
				"z": 0.9278965356,
				"element": "C" 
			},
			{
				"x": -4.9681214119,
				"y": 1.7722048667,
				"z": -0.0677753694,
				"element": "F" 
			},
			{
				"x": -4.861079831,
				"y": 1.272842589,
				"z": 2.0800763422,
				"element": "F" 
			},
			{
				"x": -3.1647379677,
				"y": 2.5937198655,
				"z": 1.1825221797,
				"element": "C" 
			},
			{
				"x": -2.4477433784,
				"y": 2.3147923684,
				"z": 2.3101533593,
				"element": "F" 
			},
			{
				"x": -3.9063249901,
				"y": 3.695897424,
				"z": 1.4138938569,
				"element": "F" 
			},
			{
				"x": -2.1773497881,
				"y": 2.891249193,
				"z": 0.0176410405,
				"element": "C" 
			},
			{
				"x": -2.8865307881,
				"y": 3.4003288534,
				"z": -1.0112171031,
				"element": "F" 
			},
			{
				"x": -1.6182853269,
				"y": 1.7150513776,
				"z": -0.3698755106,
				"element": "F" 
			},
			{
				"x": -1.0291332486,
				"y": 3.8720738216,
				"z": 0.3916565686,
				"element": "C" 
			},
			{
				"x": -1.5949894691,
				"y": 4.9678172297,
				"z": 0.9538855944,
				"element": "F" 
			},
			{
				"x": -0.2212683556,
				"y": 3.2795973075,
				"z": 1.2975858975,
				"element": "F" 
			},
			{
				"x": -0.1317831413,
				"y": 4.4077567045,
				"z": -0.7674897539,
				"element": "C" 
			},
			{
				"x": -0.9230009064,
				"y": 5.0539871683,
				"z": -1.6538250215,
				"element": "F" 
			},
			{
				"x": 0.7064388744,
				"y": 5.3058948279,
				"z": -0.2018526277,
				"element": "F" 
			},
			{
				"x": 0.7355601238,
				"y": 3.4151374735,
				"z": -1.6027891845,
				"element": "C" 
			},
			{
				"x": 1.4462955019,
				"y": 4.1924157104,
				"z": -2.4591543557,
				"element": "F" 
			},
			{
				"x": -0.0916349972,
				"y": 2.6258059788,
				"z": -2.3236485589,
				"element": "F" 
			},
			{
				"x": 1.7423150125,
				"y": 2.5138337267,
				"z": -0.8341723258,
				"element": "C" 
			},
			{
				"x": 2.371386809,
				"y": 3.2442142399,
				"z": 0.1136029009,
				"element": "F" 
			},
			{
				"x": 1.0676139735,
				"y": 1.5016375786,
				"z": -0.250777129,
				"element": "F" 
			},
			{
				"x": 2.8363277552,
				"y": 1.8818983828,
				"z": -1.7371546098,
				"element": "C" 
			},
			{
				"x": 2.2831844551,
				"y": 1.3060368679,
				"z": -2.8128589673,
				"element": "F" 
			},
			{
				"x": 3.4866386465,
				"y": 0.9436992873,
				"z": -1.0328359587,
				"element": "F" 
			},
			{
				"x": 3.7173618223,
				"y": 2.8034490078,
				"z": -2.1348057898,
				"element": "F" 
			},
			{
				"x": -1.8838134776,
				"y": -2.732630987,
				"z": 0.7267033493,
				"element": "C" 
			},
			{
				"x": -3.1330837753,
				"y": -3.4502286084,
				"z": 0.3346096894,
				"element": "C" 
			},
			{
				"x": 1.6469521936,
				"y": -2.8128538469,
				"z": 1.3420965472,
				"element": "C" 
			},
			{
				"x": 2.6978135142,
				"y": -1.9019317145,
				"z": 1.1695278361,
				"element": "C" 
			},
			{
				"x": 3.9917370345,
				"y": -2.2805992996,
				"z": 1.5220780733,
				"element": "C" 
			},
			{
				"x": 4.2506787117,
				"y": -3.5594574404,
				"z": 2.0209982119,
				"element": "C" 
			},
			{
				"x": 3.1988644875,
				"y": -4.4627617666,
				"z": 2.1808098044,
				"element": "C" 
			},
			{
				"x": 1.8942235018,
				"y": -4.0929227967,
				"z": 1.8538921507,
				"element": "C" 
			},
			{
				"x": 0.6301052072,
				"y": -4.5940351163,
				"z": -0.5027809991,
				"element": "H" 
			},
			{
				"x": -0.2893975552,
				"y": -3.4068705466,
				"z": -1.4700049202,
				"element": "H" 
			},
			{
				"x": -1.1012031646,
				"y": -4.8424340708,
				"z": -0.7768519738,
				"element": "H" 
			},
			{
				"x": -2.2636551026,
				"y": 0.2174968932,
				"z": 2.1765688607,
				"element": "H" 
			},
			{
				"x": -3.3203964764,
				"y": -3.3757602151,
				"z": -0.741534318,
				"element": "H" 
			},
			{
				"x": -3.9887718854,
				"y": -2.997373774,
				"z": 0.8367951833,
				"element": "H" 
			},
			{
				"x": -3.0780492762,
				"y": -4.5065459163,
				"z": 0.6134126284,
				"element": "H" 
			},
			{
				"x": 2.4931937055,
				"y": -0.9165838043,
				"z": 0.7700605226,
				"element": "H" 
			},
			{
				"x": 4.8045525647,
				"y": -1.571993392,
				"z": 1.393264052,
				"element": "H" 
			},
			{
				"x": 5.2637649165,
				"y": -3.849047739,
				"z": 2.2830118227,
				"element": "H" 
			},
			{
				"x": 3.3880104114,
				"y": -5.4571924652,
				"z": 2.574633095,
				"element": "H" 
			},
			{
				"x": 1.0669275517,
				"y": -4.7777818271,
				"z": 2.0060506734,
				"element": "H" 
			}
		],
		 "valence_orbital": [ 
			{
				"type": "occ",
				"energy": -0.28309,
				"method": "rhf"
			},
			{
				"type": "occ",
				"energy": -0.26419,
				"method": "rhf"
			},
			{
				"type": "occ",
				"energy": -0.25484,
				"method": "rhf"
			},
			{
				"type": "occ",
				"energy": -0.23837,
				"method": "rhf"
			},
			{
				"type": "occ",
				"energy": -0.2174,
				"method": "rhf"
			},
			{
				"type": "unocc",
				"energy": -0.0368,
				"method": "rhf"
			},
			{
				"type": "unocc",
				"energy": -0.02009,
				"method": "rhf"
			},
			{
				"type": "unocc",
				"energy": -0.00937,
				"method": "rhf"
			},
			{
				"type": "unocc",
				"energy": 0.00062,
				"method": "rhf"
			},
			{
				"type": "unocc",
				"energy": 0.00711,
				"method": "rhf"
			}
		],
		"cosmo_sigma_profile": { 
			"-0.025": 0.0,
			"-0.024": 0.0,
			"-0.023": 0.0,
			"-0.022": 0.0,
			"-0.021": 0.0,
			"-0.02": 0.0,
			"-0.019": 0.0,
			"-0.018": 0.0,
			"-0.017": 0.0,
			"-0.016": 0.0,
			"-0.015": 0.0,
			"-0.014": 0.0,
			"-0.013": 0.0553327481365,
			"-0.012": 0.202246854409,
			"-0.011": 0.870133578038,
			"-0.01": 0.782474964966,
			"-0.009": 0.762688510667,
			"-0.008": 0.922915199102,
			"-0.007": 4.58772280756,
			"-0.006": 15.532694509,
			"-0.005": 23.7708818201,
			"-0.004": 27.1032854558,
			"-0.003": 31.2929109896,
			"-0.002": 38.7234960785,
			"-0.001": 53.0194456546,
			"0.0": 88.7150168221,
			"0.001": 113.94969672,
			"0.002": 29.443735107,
			"0.003": 14.7781114589,
			"0.004": 13.1342411979,
			"0.005": 14.2196860176,
			"0.006": 5.37151153325,
			"0.007": 3.47838611338,
			"0.008": 4.92020783399,
			"0.009": 2.92579490931,
			"0.01": 4.3020238595,
			"0.011": 4.49077913613,
			"0.012": 2.23080698923,
			"0.013": 2.36506698719,
			"0.014": 0.592579265999,
			"0.015": 0.0,
			"0.016": 0.0,
			"0.017": 0.0,
			"0.018": 0.0,
			"0.019": 0.0,
			"0.02": 0.0,
			"0.021": 0.0,
			"0.022": 0.0,
			"0.023": 0.0,
			"0.024": 0.0,
			"0.025": 0.0
		}
	}
}
