{
	 "smiles": "OC(=O)CSC(=S)SCC(O)=O", 
	 "Tm": 445.15, 
	 "num_atms": 18, 
	 "gaussian": { 
		 "optdone": 1, 
		 "sigma_profile": "yes", 
		 "theory": "DFT", 
		 "functional": "B3LYP", 
		 "basiset": "6-31G**", 
		 "properties": { 
			 "R2extent": 4453.5654, 
			 "electric_dipole_moment_norm": 3.37194095737, 
			 "electric_quadrupole_moment_norm": 21.5284661411, 
			 "total_energy": -1689.61187888, 
			 "HOMO_LUMO_gap": 0.15892, 
			 "cosmo_polarized_energy": -20.41, 
			 "cosmo_cavitation_energy": 28.7, 
			 "cosmo_dispersion_energy": -21.59, 
			 "cosmo_repulsion_energy": 1.65, 
			 "cosmo_total_nonelectrostatic_energy": 8.77, 
			 "SMD_solvation_energy": 6.19 
		},
		"coords": [
			{
				"x": -1.6948934764,
				"y": 2.9062785324,
				"z": -0.3928784656,
				"element": "O" 
			},
			{
				"x": -1.8647939544,
				"y": 1.9997432398,
				"z": 0.5964253082,
				"element": "C" 
			},
			{
				"x": -2.629404794,
				"y": 1.0698696981,
				"z": 0.5295926255,
				"element": "O" 
			},
			{
				"x": -0.9698877267,
				"y": 2.3649182473,
				"z": 1.7754635158,
				"element": "C" 
			},
			{
				"x": -0.988551782,
				"y": 1.1833298021,
				"z": 3.1681715663,
				"element": "S" 
			},
			{
				"x": 0.0353948287,
				"y": -0.1790322044,
				"z": 2.7055044647,
				"element": "C" 
			},
			{
				"x": 0.2021992887,
				"y": -1.4037878537,
				"z": 3.8004190605,
				"element": "S" 
			},
			{
				"x": 0.7888475334,
				"y": -0.0749537821,
				"z": 1.1127702203,
				"element": "S" 
			},
			{
				"x": 1.7358016647,
				"y": -1.6310532578,
				"z": 1.0707581907,
				"element": "C" 
			},
			{
				"x": 2.489431204,
				"y": -1.7131404279,
				"z": -0.2404396186,
				"element": "C" 
			},
			{
				"x": 3.1906646904,
				"y": -2.8636970872,
				"z": -0.3048984202,
				"element": "O" 
			},
			{
				"x": 2.4823917488,
				"y": -0.8817759348,
				"z": -1.119323831,
				"element": "O" 
			},
			{
				"x": -2.2854661907,
				"y": 2.6378223718,
				"z": -1.1171548878,
				"element": "H" 
			},
			{
				"x": 0.0462200454,
				"y": 2.564748005,
				"z": 1.4254104844,
				"element": "H" 
			},
			{
				"x": -1.3382989186,
				"y": 3.3026932441,
				"z": 2.2057161256,
				"element": "H" 
			},
			{
				"x": 2.4322389469,
				"y": -1.6730629697,
				"z": 1.9125152118,
				"element": "H" 
			},
			{
				"x": 1.0606649361,
				"y": -2.4846207559,
				"z": 1.1750207726,
				"element": "H" 
			},
			{
				"x": 3.6501419553,
				"y": -2.8603788669,
				"z": -1.1618723232,
				"element": "H" 
			}
		],
		 "valence_orbital": [ 
			{
				"type": "occ",
				"energy": -0.30273,
				"method": "rhf"
			},
			{
				"type": "occ",
				"energy": -0.29403,
				"method": "rhf"
			},
			{
				"type": "occ",
				"energy": -0.26722,
				"method": "rhf"
			},
			{
				"type": "occ",
				"energy": -0.24567,
				"method": "rhf"
			},
			{
				"type": "occ",
				"energy": -0.23132,
				"method": "rhf"
			},
			{
				"type": "unocc",
				"energy": -0.0724,
				"method": "rhf"
			},
			{
				"type": "unocc",
				"energy": -0.0128,
				"method": "rhf"
			},
			{
				"type": "unocc",
				"energy": -0.01152,
				"method": "rhf"
			},
			{
				"type": "unocc",
				"energy": 0.00347,
				"method": "rhf"
			},
			{
				"type": "unocc",
				"energy": 0.00724,
				"method": "rhf"
			}
		],
		"cosmo_sigma_profile": { 
			"-0.025": 0.0,
			"-0.024": 0.0,
			"-0.023": 0.0,
			"-0.022": 0.0,
			"-0.021": 0.0,
			"-0.02": 0.0,
			"-0.019": 1.09283627769,
			"-0.018": 2.54687977563,
			"-0.017": 1.39822248106,
			"-0.016": 1.58057532017,
			"-0.015": 1.38978741742,
			"-0.014": 1.17621389384,
			"-0.013": 1.59312637453,
			"-0.012": 1.98924144822,
			"-0.011": 3.91941429543,
			"-0.01": 4.2324710548,
			"-0.009": 7.06463988115,
			"-0.008": 8.90166994298,
			"-0.007": 9.31016968239,
			"-0.006": 8.70261700923,
			"-0.005": 7.09386081742,
			"-0.004": 9.9775821888,
			"-0.003": 9.3080694698,
			"-0.002": 8.26935004653,
			"-0.001": 9.55949826715,
			"0.0": 9.8765993308,
			"0.001": 11.2866377739,
			"0.002": 12.4524121148,
			"0.003": 18.1778806239,
			"0.004": 16.3757293377,
			"0.005": 16.9906237341,
			"0.006": 10.6165344297,
			"0.007": 8.40063632514,
			"0.008": 8.14265921213,
			"0.009": 6.52344966521,
			"0.01": 7.2782437332,
			"0.011": 7.98792652638,
			"0.012": 1.12776227182,
			"0.013": 0.0,
			"0.014": 0.0,
			"0.015": 0.0,
			"0.016": 0.0,
			"0.017": 0.0,
			"0.018": 0.0,
			"0.019": 0.0,
			"0.02": 0.0,
			"0.021": 0.0,
			"0.022": 0.0,
			"0.023": 0.0,
			"0.024": 0.0,
			"0.025": 0.0
		}
	}
}
