{
	 "smiles": "CC1=NN=C(NN)NC1=O", 
	 "Tm": 511.15, 
	 "num_atms": 17, 
	 "gaussian": { 
		 "optdone": 1, 
		 "sigma_profile": "yes", 
		 "theory": "DFT", 
		 "functional": "B3LYP", 
		 "basiset": "6-31G**", 
		 "properties": { 
			 "R2extent": 1639.6173, 
			 "electric_dipole_moment_norm": 3.99661896357, 
			 "electric_quadrupole_moment_norm": 9.65719591496, 
			 "total_energy": -505.570121742, 
			 "HOMO_LUMO_gap": 0.18201, 
			 "cosmo_polarized_energy": -22.49, 
			 "cosmo_cavitation_energy": 21.71, 
			 "cosmo_dispersion_energy": -16.28, 
			 "cosmo_repulsion_energy": 1.34, 
			 "cosmo_total_nonelectrostatic_energy": 6.77, 
			 "SMD_solvation_energy": 3.35 
		},
		"coords": [
			{
				"x": -0.7927725821,
				"y": 3.0300493557,
				"z": -2.1226946953,
				"element": "C" 
			},
			{
				"x": -0.5875976486,
				"y": 1.933605465,
				"z": -1.1213133168,
				"element": "C" 
			},
			{
				"x": -1.0095877747,
				"y": 2.0980128979,
				"z": 0.104339723,
				"element": "N" 
			},
			{
				"x": -0.8413255275,
				"y": 1.135833638,
				"z": 1.0606407891,
				"element": "N" 
			},
			{
				"x": -0.2653845393,
				"y": 0.0091701129,
				"z": 0.711263026,
				"element": "C" 
			},
			{
				"x": -0.1609747006,
				"y": -0.9887101318,
				"z": 1.651612591,
				"element": "N" 
			},
			{
				"x": 0.7647393872,
				"y": -2.0331174535,
				"z": 1.5766615069,
				"element": "N" 
			},
			{
				"x": 0.2043940669,
				"y": -0.2342328149,
				"z": -0.5472405759,
				"element": "N" 
			},
			{
				"x": 0.086737752,
				"y": 0.7104631971,
				"z": -1.5777440595,
				"element": "C" 
			},
			{
				"x": 0.5123701381,
				"y": 0.4799332426,
				"z": -2.6998323203,
				"element": "O" 
			},
			{
				"x": 0.1657741386,
				"y": 3.3647737871,
				"z": -2.5341989311,
				"element": "H" 
			},
			{
				"x": -1.2993137777,
				"y": 3.8695072477,
				"z": -1.6446375798,
				"element": "H" 
			},
			{
				"x": -1.3893937172,
				"y": 2.6756241236,
				"z": -2.9703992972,
				"element": "H" 
			},
			{
				"x": -0.3876426889,
				"y": -0.6813202605,
				"z": 2.5887297449,
				"element": "H" 
			},
			{
				"x": 0.4331970838,
				"y": -2.7752853709,
				"z": 0.9688648351,
				"element": "H" 
			},
			{
				"x": 1.6932040685,
				"y": -1.7208631348,
				"z": 1.2996383541,
				"element": "H" 
			},
			{
				"x": 0.6346763215,
				"y": -1.1196439011,
				"z": -0.7884897941,
				"element": "H" 
			}
		],
		 "valence_orbital": [ 
			{
				"type": "occ",
				"energy": -0.30411,
				"method": "rhf"
			},
			{
				"type": "occ",
				"energy": -0.29516,
				"method": "rhf"
			},
			{
				"type": "occ",
				"energy": -0.27947,
				"method": "rhf"
			},
			{
				"type": "occ",
				"energy": -0.23751,
				"method": "rhf"
			},
			{
				"type": "occ",
				"energy": -0.23219,
				"method": "rhf"
			},
			{
				"type": "unocc",
				"energy": -0.05018,
				"method": "rhf"
			},
			{
				"type": "unocc",
				"energy": -0.00087,
				"method": "rhf"
			},
			{
				"type": "unocc",
				"energy": 0.03232,
				"method": "rhf"
			},
			{
				"type": "unocc",
				"energy": 0.09263,
				"method": "rhf"
			},
			{
				"type": "unocc",
				"energy": 0.10064,
				"method": "rhf"
			}
		],
		"cosmo_sigma_profile": { 
			"-0.025": 0.0,
			"-0.024": 0.0,
			"-0.023": 0.0,
			"-0.022": 0.0,
			"-0.021": 0.0,
			"-0.02": 0.0,
			"-0.019": 0.0,
			"-0.018": 0.0,
			"-0.017": 0.573593203237,
			"-0.016": 2.14341390167,
			"-0.015": 2.15086898241,
			"-0.014": 3.27626165105,
			"-0.013": 4.59415345248,
			"-0.012": 5.09336708322,
			"-0.011": 3.72999940826,
			"-0.01": 4.07361114214,
			"-0.009": 2.7699760327,
			"-0.008": 2.13468391847,
			"-0.007": 2.65909683999,
			"-0.006": 2.95726540727,
			"-0.005": 8.0413273488,
			"-0.004": 12.3474890732,
			"-0.003": 12.8800902015,
			"-0.002": 10.3757164719,
			"-0.001": 11.000705997,
			"0.0": 9.98726650044,
			"0.001": 6.28536247988,
			"0.002": 4.24772626541,
			"0.003": 5.39401101775,
			"0.004": 5.12588697161,
			"0.005": 4.69099163569,
			"0.006": 4.89148731744,
			"0.007": 2.81197308937,
			"0.008": 3.71860828945,
			"0.009": 3.75661093175,
			"0.01": 4.55346065683,
			"0.011": 3.92880856669,
			"0.012": 7.67808605066,
			"0.013": 6.63420631673,
			"0.014": 3.69465710128,
			"0.015": 2.61247897795,
			"0.016": 0.880014286821,
			"0.017": 0.0,
			"0.018": 0.0,
			"0.019": 0.0,
			"0.02": 0.0,
			"0.021": 0.0,
			"0.022": 0.0,
			"0.023": 0.0,
			"0.024": 0.0,
			"0.025": 0.0
		}
	}
}
