{
	 "smiles": "CC12CCC3C(CCC4=C3C=CC(OC(=O)CC3=CC=C(C=C3)N(CCCl)CCCl)=C4)C1CCC2OC(=O)CC1=CC=C(C=C1)N(CCCl)CCCl", 
	 "Tm": 325.65, 
	 "num_atms": 102, 
	 "gaussian": { 
		 "optdone": 1, 
		 "sigma_profile": "yes", 
		 "theory": "DFT", 
		 "functional": "B3LYP", 
		 "basiset": "6-31G**", 
		 "properties": { 
			 "R2extent": 87206.1143, 
			 "electric_dipole_moment_norm": 6.46687848038, 
			 "electric_quadrupole_moment_norm": 57.023048321, 
			 "total_energy": -3881.81771075, 
			 "HOMO_LUMO_gap": 0.20474, 
			 "cosmo_polarized_energy": -30.05, 
			 "cosmo_cavitation_energy": 106.24, 
			 "cosmo_dispersion_energy": -69.04, 
			 "cosmo_repulsion_energy": 5.26, 
			 "cosmo_total_nonelectrostatic_energy": 42.46, 
			 "SMD_solvation_energy": 14.22 
		},
		"coords": [
			{
				"x": -0.1031342575,
				"y": -5.85680615,
				"z": 1.5821785673,
				"element": "C" 
			},
			{
				"x": -0.4398756249,
				"y": -4.3523218859,
				"z": 1.5229185001,
				"element": "C" 
			},
			{
				"x": 0.7786017662,
				"y": -3.569474901,
				"z": 0.9779198697,
				"element": "C" 
			},
			{
				"x": 1.785227764,
				"y": -3.2194478388,
				"z": 2.0845509219,
				"element": "C" 
			},
			{
				"x": 1.1810664102,
				"y": -2.4024147845,
				"z": 3.2825033964,
				"element": "C" 
			},
			{
				"x": -0.3730364696,
				"y": -2.4346550879,
				"z": 3.3065985534,
				"element": "C" 
			},
			{
				"x": -0.9760357361,
				"y": -1.26902968,
				"z": 2.499582316,
				"element": "C" 
			},
			{
				"x": -0.5466556127,
				"y": 0.0672026673,
				"z": 3.1109026399,
				"element": "C" 
			},
			{
				"x": 0.9548841996,
				"y": 0.1643793414,
				"z": 3.2850942576,
				"element": "C" 
			},
			{
				"x": 1.7527412324,
				"y": -0.9892268814,
				"z": 3.3741490436,
				"element": "C" 
			},
			{
				"x": 3.1342193887,
				"y": -0.8329166593,
				"z": 3.5775889335,
				"element": "C" 
			},
			{
				"x": 3.734984429,
				"y": 0.4168964473,
				"z": 3.6807963436,
				"element": "C" 
			},
			{
				"x": 2.9251560621,
				"y": 1.5469308155,
				"z": 3.572628319,
				"element": "C" 
			},
			{
				"x": 3.4198886665,
				"y": 2.8479215268,
				"z": 3.7361449521,
				"element": "O" 
			},
			{
				"x": 4.5111268962,
				"y": 3.2676614844,
				"z": 3.0347616299,
				"element": "C" 
			},
			{
				"x": 5.1397780402,
				"y": 2.5871675747,
				"z": 2.2596222995,
				"element": "O" 
			},
			{
				"x": 4.7978724731,
				"y": 4.7296483471,
				"z": 3.3363995278,
				"element": "C" 
			},
			{
				"x": 4.1134423942,
				"y": 5.6438516024,
				"z": 2.3311120717,
				"element": "C" 
			},
			{
				"x": 3.1875245712,
				"y": 6.604233068,
				"z": 2.7491222936,
				"element": "C" 
			},
			{
				"x": 2.5669207279,
				"y": 7.4478390171,
				"z": 1.8251209381,
				"element": "C" 
			},
			{
				"x": 2.8598362135,
				"y": 7.3449971237,
				"z": 0.4618297742,
				"element": "C" 
			},
			{
				"x": 3.7882964334,
				"y": 6.3803253106,
				"z": 0.0400099094,
				"element": "C" 
			},
			{
				"x": 4.4050436389,
				"y": 5.5392686019,
				"z": 0.9630027737,
				"element": "C" 
			},
			{
				"x": 2.2068047502,
				"y": 8.2391979713,
				"z": -0.4644117886,
				"element": "N" 
			},
			{
				"x": 1.3846617584,
				"y": 7.5700391019,
				"z": -1.4766998233,
				"element": "C" 
			},
			{
				"x": 0.1180664944,
				"y": 7.0150681477,
				"z": -0.8281237361,
				"element": "C" 
			},
			{
				"x": -0.9200437293,
				"y": 6.1858771205,
				"z": -2.0651355673,
				"element": "Cl" 
			},
			{
				"x": 3.0807239425,
				"y": 9.285935053,
				"z": -0.9942372865,
				"element": "C" 
			},
			{
				"x": 3.5642238482,
				"y": 10.2706145602,
				"z": 0.0622551805,
				"element": "C" 
			},
			{
				"x": 2.2124591615,
				"y": 11.2478635153,
				"z": 0.7806412763,
				"element": "Cl" 
			},
			{
				"x": 1.5564238996,
				"y": 1.4271851395,
				"z": 3.3797386742,
				"element": "C" 
			},
			{
				"x": -0.8660367918,
				"y": -3.8577923363,
				"z": 2.9491013275,
				"element": "C" 
			},
			{
				"x": -2.4159184793,
				"y": -4.0447985216,
				"z": 3.0282860524,
				"element": "C" 
			},
			{
				"x": -2.8853964817,
				"y": -4.511170395,
				"z": 1.6303124141,
				"element": "C" 
			},
			{
				"x": -1.7347866264,
				"y": -4.1138873463,
				"z": 0.7046372656,
				"element": "C" 
			},
			{
				"x": -1.7911895894,
				"y": -4.8949497517,
				"z": -0.5156416991,
				"element": "O" 
			},
			{
				"x": -1.5688564352,
				"y": -4.2620935694,
				"z": -1.6869819122,
				"element": "C" 
			},
			{
				"x": -1.29998663,
				"y": -3.0841378372,
				"z": -1.7989120634,
				"element": "O" 
			},
			{
				"x": -1.7236989628,
				"y": -5.2150078553,
				"z": -2.864230682,
				"element": "C" 
			},
			{
				"x": -3.0194459362,
				"y": -4.9706795395,
				"z": -3.6214502146,
				"element": "C" 
			},
			{
				"x": -3.9835539803,
				"y": -5.9799537054,
				"z": -3.7264250829,
				"element": "C" 
			},
			{
				"x": -5.1690174027,
				"y": -5.7666180587,
				"z": -4.4301785103,
				"element": "C" 
			},
			{
				"x": -5.4135014055,
				"y": -4.5343229637,
				"z": -5.0512571958,
				"element": "C" 
			},
			{
				"x": -4.4517544858,
				"y": -3.5218442709,
				"z": -4.943024707,
				"element": "C" 
			},
			{
				"x": -3.2703076609,
				"y": -3.7354110324,
				"z": -4.2338098031,
				"element": "C" 
			},
			{
				"x": -6.6275376047,
				"y": -4.2721750691,
				"z": -5.7870877285,
				"element": "N" 
			},
			{
				"x": -7.7951339522,
				"y": -4.0348693902,
				"z": -4.9376698574,
				"element": "C" 
			},
			{
				"x": -7.7034301744,
				"y": -2.7581831821,
				"z": -4.1119978981,
				"element": "C" 
			},
			{
				"x": -7.6959551008,
				"y": -1.2607262524,
				"z": -5.1386951743,
				"element": "Cl" 
			},
			{
				"x": -6.8718573679,
				"y": -5.1837551372,
				"z": -6.9074660494,
				"element": "C" 
			},
			{
				"x": -5.8845812284,
				"y": -4.8905895451,
				"z": -8.0354105953,
				"element": "C" 
			},
			{
				"x": -6.1651437468,
				"y": -6.0145831926,
				"z": -9.4339431941,
				"element": "Cl" 
			},
			{
				"x": 0.8154248551,
				"y": -6.0160183534,
				"z": 2.1565547326,
				"element": "H" 
			},
			{
				"x": -0.8937762955,
				"y": -6.4394219958,
				"z": 2.0660260336,
				"element": "H" 
			},
			{
				"x": 0.0484196746,
				"y": -6.2662046498,
				"z": 0.5796101234,
				"element": "H" 
			},
			{
				"x": 1.2867054426,
				"y": -4.1675949354,
				"z": 0.2114315112,
				"element": "H" 
			},
			{
				"x": 0.4510907312,
				"y": -2.660215,
				"z": 0.4664238,
				"element": "H" 
			},
			{
				"x": 2.6218162806,
				"y": -2.6671017489,
				"z": 1.6464644314,
				"element": "H" 
			},
			{
				"x": 2.2117008359,
				"y": -4.1513580731,
				"z": 2.4749092613,
				"element": "H" 
			},
			{
				"x": 1.5071991365,
				"y": -2.9187992365,
				"z": 4.1955583542,
				"element": "H" 
			},
			{
				"x": -0.6797814325,
				"y": -2.2617411523,
				"z": 4.3496033942,
				"element": "H" 
			},
			{
				"x": -2.0699388237,
				"y": -1.3267117722,
				"z": 2.492885855,
				"element": "H" 
			},
			{
				"x": -0.6535127731,
				"y": -1.2991620942,
				"z": 1.4545999344,
				"element": "H" 
			},
			{
				"x": -1.030215471,
				"y": 0.186193685,
				"z": 4.0921685559,
				"element": "H" 
			},
			{
				"x": -0.9023830037,
				"y": 0.9018562685,
				"z": 2.4958559969,
				"element": "H" 
			},
			{
				"x": 3.7585770062,
				"y": -1.7190625238,
				"z": 3.6625618097,
				"element": "H" 
			},
			{
				"x": 4.8025338165,
				"y": 0.5131735576,
				"z": 3.8325174561,
				"element": "H" 
			},
			{
				"x": 4.4655810026,
				"y": 4.9677426343,
				"z": 4.3490313018,
				"element": "H" 
			},
			{
				"x": 5.8837349954,
				"y": 4.8559136239,
				"z": 3.2831405056,
				"element": "H" 
			},
			{
				"x": 2.9466293757,
				"y": 6.6959685402,
				"z": 3.8049031281,
				"element": "H" 
			},
			{
				"x": 1.8493025758,
				"y": 8.1959325261,
				"z": 2.1468746588,
				"element": "H" 
			},
			{
				"x": 4.0290303737,
				"y": 6.2845028364,
				"z": -1.0153603451,
				"element": "H" 
			},
			{
				"x": 5.112498497,
				"y": 4.7871292849,
				"z": 0.6256954293,
				"element": "H" 
			},
			{
				"x": 1.0959962702,
				"y": 8.3105329712,
				"z": -2.2280406131,
				"element": "H" 
			},
			{
				"x": 1.9099422037,
				"y": 6.759365792,
				"z": -2.0070201447,
				"element": "H" 
			},
			{
				"x": -0.4756756497,
				"y": 7.8168634821,
				"z": -0.3889053723,
				"element": "H" 
			},
			{
				"x": 0.3464598424,
				"y": 6.272101045,
				"z": -0.0634801031,
				"element": "H" 
			},
			{
				"x": 2.5281058746,
				"y": 9.8350021855,
				"z": -1.7622797417,
				"element": "H" 
			},
			{
				"x": 3.9896213514,
				"y": 8.8777109095,
				"z": -1.477881111,
				"element": "H" 
			},
			{
				"x": 4.2601817277,
				"y": 10.9836571473,
				"z": -0.3826850736,
				"element": "H" 
			},
			{
				"x": 4.0535367939,
				"y": 9.7640093274,
				"z": 0.8947113686,
				"element": "H" 
			},
			{
				"x": 0.9559082179,
				"y": 2.3292849568,
				"z": 3.3055880742,
				"element": "H" 
			},
			{
				"x": -0.3904417073,
				"y": -4.5186584265,
				"z": 3.6846676947,
				"element": "H" 
			},
			{
				"x": -2.6898150165,
				"y": -4.7708073822,
				"z": 3.7990527294,
				"element": "H" 
			},
			{
				"x": -2.9042756291,
				"y": -3.1062571933,
				"z": 3.3071992288,
				"element": "H" 
			},
			{
				"x": -3.835038808,
				"y": -4.0634203999,
				"z": 1.323112949,
				"element": "H" 
			},
			{
				"x": -3.0149518118,
				"y": -5.5976575033,
				"z": 1.5949712088,
				"element": "H" 
			},
			{
				"x": -1.803898997,
				"y": -3.0615938383,
				"z": 0.4219936465,
				"element": "H" 
			},
			{
				"x": -0.8677778069,
				"y": -5.0382045762,
				"z": -3.524712274,
				"element": "H" 
			},
			{
				"x": -1.679616084,
				"y": -6.2465732872,
				"z": -2.5098199544,
				"element": "H" 
			},
			{
				"x": -3.8063975838,
				"y": -6.9427547856,
				"z": -3.2539057757,
				"element": "H" 
			},
			{
				"x": -5.9037163371,
				"y": -6.5645157073,
				"z": -4.4960875329,
				"element": "H" 
			},
			{
				"x": -4.6464892283,
				"y": -2.568928324,
				"z": -5.4251989079,
				"element": "H" 
			},
			{
				"x": -2.5377620107,
				"y": -2.9392178722,
				"z": -4.1447079638,
				"element": "H" 
			},
			{
				"x": -8.6784838392,
				"y": -3.9757521846,
				"z": -5.5802716019,
				"element": "H" 
			},
			{
				"x": -7.9706383691,
				"y": -4.8592243444,
				"z": -4.2191480396,
				"element": "H" 
			},
			{
				"x": -8.5689052346,
				"y": -2.6780172365,
				"z": -3.4520918802,
				"element": "H" 
			},
			{
				"x": -6.7923799718,
				"y": -2.7262412986,
				"z": -3.5136515983,
				"element": "H" 
			},
			{
				"x": -7.8859766392,
				"y": -5.0077245775,
				"z": -7.2771948232,
				"element": "H" 
			},
			{
				"x": -6.8091440272,
				"y": -6.2497192199,
				"z": -6.634484598,
				"element": "H" 
			},
			{
				"x": -6.008522594,
				"y": -3.8728412944,
				"z": -8.4054869807,
				"element": "H" 
			},
			{
				"x": -4.8516854254,
				"y": -5.0381005032,
				"z": -7.7190181915,
				"element": "H" 
			}
		],
		 "valence_orbital": [ 
			{
				"type": "occ",
				"energy": -0.25048,
				"method": "rhf"
			},
			{
				"type": "occ",
				"energy": -0.24406,
				"method": "rhf"
			},
			{
				"type": "occ",
				"energy": -0.23088,
				"method": "rhf"
			},
			{
				"type": "occ",
				"energy": -0.23071,
				"method": "rhf"
			},
			{
				"type": "occ",
				"energy": -0.22881,
				"method": "rhf"
			},
			{
				"type": "unocc",
				"energy": -0.02407,
				"method": "rhf"
			},
			{
				"type": "unocc",
				"energy": -0.02032,
				"method": "rhf"
			},
			{
				"type": "unocc",
				"energy": -0.01582,
				"method": "rhf"
			},
			{
				"type": "unocc",
				"energy": -0.01256,
				"method": "rhf"
			},
			{
				"type": "unocc",
				"energy": -0.00797,
				"method": "rhf"
			}
		],
		"cosmo_sigma_profile": { 
			"-0.025": 0.0,
			"-0.024": 0.0,
			"-0.023": 0.0,
			"-0.022": 0.0,
			"-0.021": 0.0,
			"-0.02": 0.0,
			"-0.019": 0.0,
			"-0.018": 0.0,
			"-0.017": 0.0,
			"-0.016": 0.0,
			"-0.015": 0.0,
			"-0.014": 0.0,
			"-0.013": 0.0,
			"-0.012": 0.0,
			"-0.011": 0.0,
			"-0.01": 0.0,
			"-0.009": 0.0,
			"-0.008": 0.416122555535,
			"-0.007": 11.2710921234,
			"-0.006": 41.2605042869,
			"-0.005": 56.7347845446,
			"-0.004": 73.0096758141,
			"-0.003": 87.6310789684,
			"-0.002": 96.4922753067,
			"-0.001": 73.3082975371,
			"0.0": 65.0356839486,
			"0.001": 57.9572807148,
			"0.002": 44.9010583921,
			"0.003": 45.1945420149,
			"0.004": 46.7301110156,
			"0.005": 40.4111008804,
			"0.006": 41.9084739423,
			"0.007": 30.1548752277,
			"0.008": 5.84349901425,
			"0.009": 6.15817167557,
			"0.01": 4.78579438063,
			"0.011": 7.91323035865,
			"0.012": 4.97160519153,
			"0.013": 0.201627556021,
			"0.014": 0.0,
			"0.015": 0.0,
			"0.016": 0.0,
			"0.017": 0.0,
			"0.018": 0.0,
			"0.019": 0.0,
			"0.02": 0.0,
			"0.021": 0.0,
			"0.022": 0.0,
			"0.023": 0.0,
			"0.024": 0.0,
			"0.025": 0.0
		}
	}
}
