{
	 "smiles": "CC1=CC=CC2=NC(CSC3=C(C=CC=C3)C(O)=O)=CC(=O)N12", 
	 "Tm": 485.15, 
	 "num_atms": 37, 
	 "gaussian": { 
		 "optdone": 1, 
		 "sigma_profile": "yes", 
		 "theory": "DFT", 
		 "functional": "B3LYP", 
		 "basiset": "6-31G**", 
		 "properties": { 
			 "R2extent": 9806.017, 
			 "electric_dipole_moment_norm": 2.86020462555, 
			 "electric_quadrupole_moment_norm": 20.8808236588, 
			 "total_energy": -1389.62713915, 
			 "HOMO_LUMO_gap": 0.14821, 
			 "cosmo_polarized_energy": -21.11, 
			 "cosmo_cavitation_energy": 42.51, 
			 "cosmo_dispersion_energy": -30.99, 
			 "cosmo_repulsion_energy": 2.29, 
			 "cosmo_total_nonelectrostatic_energy": 13.81, 
			 "SMD_solvation_energy": 7.23 
		},
		"coords": [
			{
				"x": 1.9991734139,
				"y": 2.4210127,
				"z": -3.8601630945,
				"element": "C" 
			},
			{
				"x": 2.4199238075,
				"y": 1.7460205718,
				"z": -2.5782826853,
				"element": "C" 
			},
			{
				"x": 3.5216765926,
				"y": 2.2204517505,
				"z": -1.9130934558,
				"element": "C" 
			},
			{
				"x": 3.9571389026,
				"y": 1.6589050897,
				"z": -0.6888150023,
				"element": "C" 
			},
			{
				"x": 3.2522062121,
				"y": 0.6296107223,
				"z": -0.1421733867,
				"element": "C" 
			},
			{
				"x": 2.0953055078,
				"y": 0.1065651498,
				"z": -0.7916394807,
				"element": "C" 
			},
			{
				"x": 1.4486066489,
				"y": -0.8812692705,
				"z": -0.1922011371,
				"element": "N" 
			},
			{
				"x": 0.3499225261,
				"y": -1.3917048349,
				"z": -0.7842109493,
				"element": "C" 
			},
			{
				"x": -0.3369629783,
				"y": -2.520433474,
				"z": -0.0493506333,
				"element": "C" 
			},
			{
				"x": -0.7498257445,
				"y": -2.2284364237,
				"z": 1.7236374844,
				"element": "S" 
			},
			{
				"x": -2.274056783,
				"y": -1.3046477597,
				"z": 1.6605663921,
				"element": "C" 
			},
			{
				"x": -2.9940840942,
				"y": -1.0282827512,
				"z": 2.8565048113,
				"element": "C" 
			},
			{
				"x": -4.2070171668,
				"y": -0.3207866796,
				"z": 2.7967693237,
				"element": "C" 
			},
			{
				"x": -4.7260790085,
				"y": 0.1269835366,
				"z": 1.5897408365,
				"element": "C" 
			},
			{
				"x": -4.015475893,
				"y": -0.1304509736,
				"z": 0.4165079334,
				"element": "C" 
			},
			{
				"x": -2.8126527142,
				"y": -0.8301536478,
				"z": 0.4518885852,
				"element": "C" 
			},
			{
				"x": -2.4833113899,
				"y": -1.4686560982,
				"z": 4.1726580143,
				"element": "C" 
			},
			{
				"x": -3.3172493948,
				"y": -1.1759271857,
				"z": 5.2058367243,
				"element": "O" 
			},
			{
				"x": -1.4236165097,
				"y": -2.0384155107,
				"z": 4.3629435557,
				"element": "O" 
			},
			{
				"x": -0.096087673,
				"y": -0.961309739,
				"z": -2.0112549901,
				"element": "C" 
			},
			{
				"x": 0.5647517113,
				"y": 0.0738773116,
				"z": -2.7420401168,
				"element": "C" 
			},
			{
				"x": 0.2475086994,
				"y": 0.4663662134,
				"z": -3.8563180126,
				"element": "O" 
			},
			{
				"x": 1.7096002194,
				"y": 0.6659303718,
				"z": -2.029821853,
				"element": "N" 
			},
			{
				"x": 2.6676959389,
				"y": 3.2700487399,
				"z": -4.0242326788,
				"element": "H" 
			},
			{
				"x": 0.9703715188,
				"y": 2.7810974298,
				"z": -3.8151206679,
				"element": "H" 
			},
			{
				"x": 2.0507946325,
				"y": 1.7493639392,
				"z": -4.7174235905,
				"element": "H" 
			},
			{
				"x": 4.0574514647,
				"y": 3.0556884305,
				"z": -2.3481052038,
				"element": "H" 
			},
			{
				"x": 4.8363604233,
				"y": 2.0568776037,
				"z": -0.1918624751,
				"element": "H" 
			},
			{
				"x": 3.512316413,
				"y": 0.1609448416,
				"z": 0.7985806749,
				"element": "H" 
			},
			{
				"x": -1.2104002219,
				"y": -2.8843696607,
				"z": -0.5951307255,
				"element": "H" 
			},
			{
				"x": 0.3705112697,
				"y": -3.3527999921,
				"z": 0.0315624475,
				"element": "H" 
			},
			{
				"x": -4.7339339986,
				"y": -0.129339653,
				"z": 3.7238185455,
				"element": "H" 
			},
			{
				"x": -5.6637353134,
				"y": 0.6726231317,
				"z": 1.5633668033,
				"element": "H" 
			},
			{
				"x": -4.3928521566,
				"y": 0.219994306,
				"z": -0.5402380011,
				"element": "H" 
			},
			{
				"x": -2.2819001956,
				"y": -0.9833844751,
				"z": -0.4769525458,
				"element": "H" 
			},
			{
				"x": -2.8659277007,
				"y": -1.5066870026,
				"z": 5.9992372131,
				"element": "H" 
			},
			{
				"x": -0.9542469657,
				"y": -1.4024067079,
				"z": -2.5046886591,
				"element": "H" 
			}
		],
		 "valence_orbital": [ 
			{
				"type": "occ",
				"energy": -0.26286,
				"method": "rhf"
			},
			{
				"type": "occ",
				"energy": -0.26054,
				"method": "rhf"
			},
			{
				"type": "occ",
				"energy": -0.25767,
				"method": "rhf"
			},
			{
				"type": "occ",
				"energy": -0.21602,
				"method": "rhf"
			},
			{
				"type": "occ",
				"energy": -0.20967,
				"method": "rhf"
			},
			{
				"type": "unocc",
				"energy": -0.06146,
				"method": "rhf"
			},
			{
				"type": "unocc",
				"energy": -0.04694,
				"method": "rhf"
			},
			{
				"type": "unocc",
				"energy": -0.04459,
				"method": "rhf"
			},
			{
				"type": "unocc",
				"energy": -0.00623,
				"method": "rhf"
			},
			{
				"type": "unocc",
				"energy": 0.00957,
				"method": "rhf"
			}
		],
		"cosmo_sigma_profile": { 
			"-0.025": 0.0,
			"-0.024": 0.0,
			"-0.023": 0.0,
			"-0.022": 0.0,
			"-0.021": 0.0,
			"-0.02": 0.0,
			"-0.019": 0.0267839185184,
			"-0.018": 0.878606219719,
			"-0.017": 0.54618324418,
			"-0.016": 1.07017367844,
			"-0.015": 0.917002064787,
			"-0.014": 0.717983487067,
			"-0.013": 0.331356863013,
			"-0.012": 0.846146466104,
			"-0.011": 0.678031178814,
			"-0.01": 1.10098152029,
			"-0.009": 1.34281386072,
			"-0.008": 6.4685876987,
			"-0.007": 15.8072607945,
			"-0.006": 19.5491475709,
			"-0.005": 19.4055991645,
			"-0.004": 24.2896642877,
			"-0.003": 24.343749348,
			"-0.002": 25.2914640294,
			"-0.001": 26.6766288171,
			"0.0": 26.6195498563,
			"0.001": 26.1665294159,
			"0.002": 25.300953082,
			"0.003": 20.6942087115,
			"0.004": 13.742580991,
			"0.005": 7.27902754014,
			"0.006": 6.5953217564,
			"0.007": 6.91199181146,
			"0.008": 5.08356353518,
			"0.009": 6.27016280496,
			"0.01": 5.84586079396,
			"0.011": 7.30240614173,
			"0.012": 7.22935274253,
			"0.013": 4.07557044895,
			"0.014": 2.77322615855,
			"0.015": 0.261772757912,
			"0.016": 0.0,
			"0.017": 0.0,
			"0.018": 0.0,
			"0.019": 0.0,
			"0.02": 0.0,
			"0.021": 0.0,
			"0.022": 0.0,
			"0.023": 0.0,
			"0.024": 0.0,
			"0.025": 0.0
		}
	}
}
