{
	 "smiles": "CC(C)(C)OC(=O)NC1=C(O)C=C(C=C1)C(O)=O", 
	 "Tm": 453.15, 
	 "num_atms": 33, 
	 "gaussian": { 
		 "optdone": 1, 
		 "sigma_profile": "yes", 
		 "theory": "DFT", 
		 "functional": "B3LYP", 
		 "basiset": "6-31G**", 
		 "properties": { 
			 "R2extent": 6713.8139, 
			 "electric_dipole_moment_norm": 1.02862029437, 
			 "electric_quadrupole_moment_norm": 29.0354064075, 
			 "total_energy": -897.246071775, 
			 "HOMO_LUMO_gap": 0.17201, 
			 "cosmo_polarized_energy": -17.41, 
			 "cosmo_cavitation_energy": 36.91, 
			 "cosmo_dispersion_energy": -26.11, 
			 "cosmo_repulsion_energy": 2.01, 
			 "cosmo_total_nonelectrostatic_energy": 12.8, 
			 "SMD_solvation_energy": 8.87 
		},
		"coords": [
			{
				"x": -4.3620136885,
				"y": -1.0413063459,
				"z": -1.2730134637,
				"element": "C" 
			},
			{
				"x": -3.5324087414,
				"y": -1.6611206785,
				"z": -0.1446846473,
				"element": "C" 
			},
			{
				"x": -3.7609681898,
				"y": -0.9156043295,
				"z": 1.1722224482,
				"element": "C" 
			},
			{
				"x": -3.7984748087,
				"y": -3.1598729213,
				"z": 0.0241221698,
				"element": "C" 
			},
			{
				"x": -2.0921439117,
				"y": -1.4319411389,
				"z": -0.395958728,
				"element": "O" 
			},
			{
				"x": -1.4982069461,
				"y": -1.9430142718,
				"z": -1.487960255,
				"element": "C" 
			},
			{
				"x": -2.0283798716,
				"y": -2.6150681957,
				"z": -2.3560099271,
				"element": "O" 
			},
			{
				"x": -0.1520582326,
				"y": -1.6313926224,
				"z": -1.5623369083,
				"element": "N" 
			},
			{
				"x": 0.7201693429,
				"y": -0.9025080401,
				"z": -0.7487756712,
				"element": "C" 
			},
			{
				"x": 2.0593375945,
				"y": -0.8299663565,
				"z": -1.2095534712,
				"element": "C" 
			},
			{
				"x": 2.3194030415,
				"y": -1.483151431,
				"z": -2.3893826971,
				"element": "O" 
			},
			{
				"x": 3.0248649145,
				"y": -0.1384661403,
				"z": -0.4972998866,
				"element": "C" 
			},
			{
				"x": 2.6847676215,
				"y": 0.5062278075,
				"z": 0.7031886285,
				"element": "C" 
			},
			{
				"x": 1.3672432779,
				"y": 0.4396047554,
				"z": 1.1642103261,
				"element": "C" 
			},
			{
				"x": 0.3940672154,
				"y": -0.2546240386,
				"z": 0.45086595,
				"element": "C" 
			},
			{
				"x": 3.6788864885,
				"y": 1.2574561892,
				"z": 1.5006714441,
				"element": "C" 
			},
			{
				"x": 4.9230575234,
				"y": 1.2486489584,
				"z": 0.9481894455,
				"element": "O" 
			},
			{
				"x": 3.4484512217,
				"y": 1.8359561314,
				"z": 2.545508046,
				"element": "O" 
			},
			{
				"x": -5.4254391277,
				"y": -1.1101202881,
				"z": -1.0222153744,
				"element": "H" 
			},
			{
				"x": -4.1885319484,
				"y": -1.557693989,
				"z": -2.2171196721,
				"element": "H" 
			},
			{
				"x": -4.1099336958,
				"y": 0.0169407772,
				"z": -1.3936480122,
				"element": "H" 
			},
			{
				"x": -3.1343365296,
				"y": -1.3303661214,
				"z": 1.9672736596,
				"element": "H" 
			},
			{
				"x": -3.5271606305,
				"y": 0.147456758,
				"z": 1.0625067738,
				"element": "H" 
			},
			{
				"x": -4.8078208958,
				"y": -1.0080212363,
				"z": 1.4757616924,
				"element": "H" 
			},
			{
				"x": -3.6188890739,
				"y": -3.6977355104,
				"z": -0.90676208,
				"element": "H" 
			},
			{
				"x": -4.8397361292,
				"y": -3.3124409286,
				"z": 0.3257844637,
				"element": "H" 
			},
			{
				"x": -3.1546924571,
				"y": -3.5750501583,
				"z": 0.805891421,
				"element": "H" 
			},
			{
				"x": 0.2731524442,
				"y": -2.0258815323,
				"z": -2.3911569091,
				"element": "H" 
			},
			{
				"x": 3.2506503332,
				"y": -1.3775656817,
				"z": -2.6196514671,
				"element": "H" 
			},
			{
				"x": 4.0453830669,
				"y": -0.0935798585,
				"z": -0.8653841587,
				"element": "H" 
			},
			{
				"x": 1.1152389959,
				"y": 0.9407393787,
				"z": 2.0920405536,
				"element": "H" 
			},
			{
				"x": -0.620683475,
				"y": -0.3000625565,
				"z": 0.8156398384,
				"element": "H" 
			},
			{
				"x": 5.4782052713,
				"y": 1.7662236159,
				"z": 1.5537364683,
				"element": "H" 
			}
		],
		 "valence_orbital": [ 
			{
				"type": "occ",
				"energy": -0.29754,
				"method": "rhf"
			},
			{
				"type": "occ",
				"energy": -0.27425,
				"method": "rhf"
			},
			{
				"type": "occ",
				"energy": -0.27294,
				"method": "rhf"
			},
			{
				"type": "occ",
				"energy": -0.24866,
				"method": "rhf"
			},
			{
				"type": "occ",
				"energy": -0.217,
				"method": "rhf"
			},
			{
				"type": "unocc",
				"energy": -0.04499,
				"method": "rhf"
			},
			{
				"type": "unocc",
				"energy": -0.00053,
				"method": "rhf"
			},
			{
				"type": "unocc",
				"energy": 0.03917,
				"method": "rhf"
			},
			{
				"type": "unocc",
				"energy": 0.05331,
				"method": "rhf"
			},
			{
				"type": "unocc",
				"energy": 0.0774,
				"method": "rhf"
			}
		],
		"cosmo_sigma_profile": { 
			"-0.025": 0.0,
			"-0.024": 0.0,
			"-0.023": 0.0,
			"-0.022": 0.0,
			"-0.021": 0.0,
			"-0.02": 0.0,
			"-0.019": 0.373194959064,
			"-0.018": 1.70239048956,
			"-0.017": 2.23698852899,
			"-0.016": 1.87095411256,
			"-0.015": 1.86150910704,
			"-0.014": 1.58789787287,
			"-0.013": 0.976121061714,
			"-0.012": 1.55051702007,
			"-0.011": 2.45584607994,
			"-0.01": 2.77167151124,
			"-0.009": 1.99267725866,
			"-0.008": 1.48451834596,
			"-0.007": 2.45973280422,
			"-0.006": 4.77462823503,
			"-0.005": 6.23825351461,
			"-0.004": 18.6290328827,
			"-0.003": 20.3169115552,
			"-0.002": 25.2814854608,
			"-0.001": 30.0913795503,
			"0.0": 36.8101085279,
			"0.001": 29.7714974964,
			"0.002": 21.8201052209,
			"0.003": 18.7927376342,
			"0.004": 11.0447786003,
			"0.005": 6.01439097461,
			"0.006": 6.74058598709,
			"0.007": 5.90400215772,
			"0.008": 4.05764832724,
			"0.009": 2.69582615545,
			"0.01": 2.92783030374,
			"0.011": 4.89731004351,
			"0.012": 8.04880411115,
			"0.013": 3.00257650899,
			"0.014": 0.0988365013266,
			"0.015": 0.0,
			"0.016": 0.0,
			"0.017": 0.0,
			"0.018": 0.0,
			"0.019": 0.0,
			"0.02": 0.0,
			"0.021": 0.0,
			"0.022": 0.0,
			"0.023": 0.0,
			"0.024": 0.0,
			"0.025": 0.0
		}
	}
}
