{
	 "smiles": "OC(=O)C1CCCNC1", 
	 "Tm": 523.15, 
	 "num_atms": 20, 
	 "gaussian": { 
		 "optdone": 1, 
		 "sigma_profile": "yes", 
		 "theory": "DFT", 
		 "functional": "B3LYP", 
		 "basiset": "6-31G**", 
		 "properties": { 
			 "R2extent": 1619.2553, 
			 "electric_dipole_moment_norm": 2.28071347828, 
			 "electric_quadrupole_moment_norm": 8.42779950699, 
			 "total_energy": -440.471884227, 
			 "HOMO_LUMO_gap": 0.22132, 
			 "cosmo_polarized_energy": -10.8, 
			 "cosmo_cavitation_energy": 21.89, 
			 "cosmo_dispersion_energy": -16.44, 
			 "cosmo_repulsion_energy": 1.36, 
			 "cosmo_total_nonelectrostatic_energy": 6.81, 
			 "SMD_solvation_energy": 1.97 
		},
		"coords": [
			{
				"x": 0.9520701925,
				"y": 0.7298366058,
				"z": 1.535501359,
				"element": "O" 
			},
			{
				"x": 1.481842495,
				"y": -0.1442170966,
				"z": 0.6413356185,
				"element": "C" 
			},
			{
				"x": 2.5239884978,
				"y": -0.7279480213,
				"z": 0.8500624431,
				"element": "O" 
			},
			{
				"x": 0.6127406204,
				"y": -0.2844372156,
				"z": -0.5881736819,
				"element": "C" 
			},
			{
				"x": -0.7767834282,
				"y": -0.893566302,
				"z": -0.228246588,
				"element": "C" 
			},
			{
				"x": -1.3799431951,
				"y": -1.6510677753,
				"z": -1.4341879564,
				"element": "C" 
			},
			{
				"x": -0.9430168098,
				"y": -1.0274055534,
				"z": -2.7604587872,
				"element": "C" 
			},
			{
				"x": 0.512576358,
				"y": -1.176129512,
				"z": -2.9273403186,
				"element": "N" 
			},
			{
				"x": 1.288849854,
				"y": -1.1327319502,
				"z": -1.6787302378,
				"element": "C" 
			},
			{
				"x": 1.5611301297,
				"y": 0.7398592718,
				"z": 2.2933409489,
				"element": "H" 
			},
			{
				"x": 0.4529106884,
				"y": 0.7301514322,
				"z": -0.9766684498,
				"element": "H" 
			},
			{
				"x": -1.4450667269,
				"y": -0.0918685867,
				"z": 0.1006977402,
				"element": "H" 
			},
			{
				"x": -0.6754664623,
				"y": -1.5813320348,
				"z": 0.6188692211,
				"element": "H" 
			},
			{
				"x": -2.4725886556,
				"y": -1.658850611,
				"z": -1.3649298952,
				"element": "H" 
			},
			{
				"x": -1.0566295106,
				"y": -2.6983575401,
				"z": -1.4228801659,
				"element": "H" 
			},
			{
				"x": -1.2716851842,
				"y": 0.0281837062,
				"z": -2.7751133168,
				"element": "H" 
			},
			{
				"x": -1.4496900716,
				"y": -1.5224116165,
				"z": -3.5984838448,
				"element": "H" 
			},
			{
				"x": 0.8547432476,
				"y": -0.4683921494,
				"z": -3.5681069193,
				"element": "H" 
			},
			{
				"x": 2.2904445724,
				"y": -0.7529642919,
				"z": -1.8968592021,
				"element": "H" 
			},
			{
				"x": 1.4331733884,
				"y": -2.1484507594,
				"z": -1.2893279671,
				"element": "H" 
			}
		],
		 "valence_orbital": [ 
			{
				"type": "occ",
				"energy": -0.32699,
				"method": "rhf"
			},
			{
				"type": "occ",
				"energy": -0.31838,
				"method": "rhf"
			},
			{
				"type": "occ",
				"energy": -0.3156,
				"method": "rhf"
			},
			{
				"type": "occ",
				"energy": -0.27209,
				"method": "rhf"
			},
			{
				"type": "occ",
				"energy": -0.21123,
				"method": "rhf"
			},
			{
				"type": "unocc",
				"energy": 0.01009,
				"method": "rhf"
			},
			{
				"type": "unocc",
				"energy": 0.07021,
				"method": "rhf"
			},
			{
				"type": "unocc",
				"energy": 0.08248,
				"method": "rhf"
			},
			{
				"type": "unocc",
				"energy": 0.10239,
				"method": "rhf"
			},
			{
				"type": "unocc",
				"energy": 0.11873,
				"method": "rhf"
			}
		],
		"cosmo_sigma_profile": { 
			"-0.025": 0.0,
			"-0.024": 0.0,
			"-0.023": 0.0,
			"-0.022": 0.0,
			"-0.021": 0.0,
			"-0.02": 0.0,
			"-0.019": 0.00717241470188,
			"-0.018": 0.568467352538,
			"-0.017": 0.896306171086,
			"-0.016": 0.746113087157,
			"-0.015": 1.01280720866,
			"-0.014": 0.25781648445,
			"-0.013": 0.541339202955,
			"-0.012": 0.83181680341,
			"-0.011": 1.09969602498,
			"-0.01": 1.57835576068,
			"-0.009": 1.98309050463,
			"-0.008": 1.67712185997,
			"-0.007": 1.68758862269,
			"-0.006": 2.98063175582,
			"-0.005": 6.90283674973,
			"-0.004": 13.2250194798,
			"-0.003": 19.5988520675,
			"-0.002": 23.507842101,
			"-0.001": 19.1524280176,
			"0.0": 16.8986099763,
			"0.001": 6.20802487231,
			"0.002": 4.46397973069,
			"0.003": 3.97545813739,
			"0.004": 5.06361794631,
			"0.005": 3.17387499961,
			"0.006": 3.49456352694,
			"0.007": 3.51240599471,
			"0.008": 3.33457990064,
			"0.009": 4.2768245683,
			"0.01": 2.59655885917,
			"0.011": 4.2913182856,
			"0.012": 5.19177109784,
			"0.013": 1.18074674504,
			"0.014": 1.05716016188,
			"0.015": 0.706996873003,
			"0.016": 0.211698127989,
			"0.017": 0.657548632868,
			"0.018": 0.275511545977,
			"0.019": 0.249556332006,
			"0.02": 0.0,
			"0.021": 0.0,
			"0.022": 0.0,
			"0.023": 0.0,
			"0.024": 0.0,
			"0.025": 0.0
		}
	}
}
