{
	 "smiles": "COC(=O)C1=CN=C(N)N=C1", 
	 "Tm": 483.15, 
	 "num_atms": 18, 
	 "gaussian": { 
		 "optdone": 1, 
		 "sigma_profile": "yes", 
		 "theory": "DFT", 
		 "functional": "B3LYP", 
		 "basiset": "6-31G**", 
		 "properties": { 
			 "R2extent": 2215.2206, 
			 "electric_dipole_moment_norm": 2.21150689576, 
			 "electric_quadrupole_moment_norm": 17.8479183478, 
			 "total_energy": -547.579198486, 
			 "HOMO_LUMO_gap": 0.19669, 
			 "cosmo_polarized_energy": -12.17, 
			 "cosmo_cavitation_energy": 23.17, 
			 "cosmo_dispersion_energy": -17.37, 
			 "cosmo_repulsion_energy": 1.41, 
			 "cosmo_total_nonelectrostatic_energy": 7.21, 
			 "SMD_solvation_energy": 2.82 
		},
		"coords": [
			{
				"x": 2.1898728907,
				"y": -1.3019602947,
				"z": -2.6740096005,
				"element": "C" 
			},
			{
				"x": 1.4832204474,
				"y": -0.7088752235,
				"z": -1.5741348256,
				"element": "O" 
			},
			{
				"x": 0.5803628275,
				"y": -1.5168358098,
				"z": -0.9663558241,
				"element": "C" 
			},
			{
				"x": 0.3717039378,
				"y": -2.663930971,
				"z": -1.3148841422,
				"element": "O" 
			},
			{
				"x": -0.1065983081,
				"y": -0.8426061236,
				"z": 0.152355798,
				"element": "C" 
			},
			{
				"x": -1.0758742507,
				"y": -1.5361500151,
				"z": 0.8927741425,
				"element": "C" 
			},
			{
				"x": -1.7351753814,
				"y": -0.9977265689,
				"z": 1.9106881116,
				"element": "N" 
			},
			{
				"x": -1.4147858356,
				"y": 0.2846383622,
				"z": 2.202043897,
				"element": "C" 
			},
			{
				"x": -2.0755894972,
				"y": 0.8536905541,
				"z": 3.2360692895,
				"element": "N" 
			},
			{
				"x": -0.5030422034,
				"y": 1.0556462647,
				"z": 1.5666048765,
				"element": "N" 
			},
			{
				"x": 0.1347760141,
				"y": 0.4792975702,
				"z": 0.5535492091,
				"element": "C" 
			},
			{
				"x": 2.8641046624,
				"y": -0.5284317072,
				"z": -3.0417129633,
				"element": "H" 
			},
			{
				"x": 2.7543645616,
				"y": -2.1773275836,
				"z": -2.3429511651,
				"element": "H" 
			},
			{
				"x": 1.4941380981,
				"y": -1.6093544884,
				"z": -3.4588484517,
				"element": "H" 
			},
			{
				"x": -1.3108978169,
				"y": -2.5662819862,
				"z": 0.6335365791,
				"element": "H" 
			},
			{
				"x": -2.7603514816,
				"y": 0.3153617947,
				"z": 3.7391377819,
				"element": "H" 
			},
			{
				"x": -1.8682448589,
				"y": 1.8042758721,
				"z": 3.4911121904,
				"element": "H" 
			},
			{
				"x": 0.8712161942,
				"y": 1.085770354,
				"z": 0.0319250969,
				"element": "H" 
			}
		],
		 "valence_orbital": [ 
			{
				"type": "occ",
				"energy": -0.31918,
				"method": "rhf"
			},
			{
				"type": "occ",
				"energy": -0.30028,
				"method": "rhf"
			},
			{
				"type": "occ",
				"energy": -0.27207,
				"method": "rhf"
			},
			{
				"type": "occ",
				"energy": -0.25196,
				"method": "rhf"
			},
			{
				"type": "occ",
				"energy": -0.23601,
				"method": "rhf"
			},
			{
				"type": "unocc",
				"energy": -0.03932,
				"method": "rhf"
			},
			{
				"type": "unocc",
				"energy": -0.03583,
				"method": "rhf"
			},
			{
				"type": "unocc",
				"energy": 0.05536,
				"method": "rhf"
			},
			{
				"type": "unocc",
				"energy": 0.08407,
				"method": "rhf"
			},
			{
				"type": "unocc",
				"energy": 0.11084,
				"method": "rhf"
			}
		],
		"cosmo_sigma_profile": { 
			"-0.025": 0.0,
			"-0.024": 0.0,
			"-0.023": 0.0,
			"-0.022": 0.0,
			"-0.021": 0.0,
			"-0.02": 0.0,
			"-0.019": 0.0,
			"-0.018": 0.0,
			"-0.017": 0.0,
			"-0.016": 0.0,
			"-0.015": 0.665417940186,
			"-0.014": 2.01735530761,
			"-0.013": 2.83008336431,
			"-0.012": 1.58751200484,
			"-0.011": 1.43563418449,
			"-0.01": 2.16175202287,
			"-0.009": 1.65497821351,
			"-0.008": 2.165550144,
			"-0.007": 4.42712073227,
			"-0.006": 7.54156212143,
			"-0.005": 10.2621933433,
			"-0.004": 11.7886454702,
			"-0.003": 13.9207770972,
			"-0.002": 15.3008804602,
			"-0.001": 19.1670339913,
			"0.0": 13.8427606177,
			"0.001": 9.18483111356,
			"0.002": 10.5330013654,
			"0.003": 8.82483276936,
			"0.004": 7.71413468846,
			"0.005": 5.14312574013,
			"0.006": 5.2972297327,
			"0.007": 3.5626797136,
			"0.008": 2.73112109025,
			"0.009": 3.91426168814,
			"0.01": 3.25670994451,
			"0.011": 3.90085967993,
			"0.012": 6.72753605782,
			"0.013": 1.70198149166,
			"0.014": 1.52607634118,
			"0.015": 0.210778351857,
			"0.016": 0.0,
			"0.017": 0.0,
			"0.018": 0.0,
			"0.019": 0.0,
			"0.02": 0.0,
			"0.021": 0.0,
			"0.022": 0.0,
			"0.023": 0.0,
			"0.024": 0.0,
			"0.025": 0.0
		}
	}
}
