{
	 "smiles": "COC1=CC(CO)=CC=C1F", 
	 "Tm": 322.15, 
	 "num_atms": 20, 
	 "gaussian": { 
		 "optdone": 1, 
		 "sigma_profile": "yes", 
		 "theory": "DFT", 
		 "functional": "B3LYP", 
		 "basiset": "6-31G**", 
		 "properties": { 
			 "R2extent": 2447.2558, 
			 "electric_dipole_moment_norm": 1.31415957174, 
			 "electric_quadrupole_moment_norm": 12.027813655, 
			 "total_energy": -560.529504669, 
			 "HOMO_LUMO_gap": 0.21564, 
			 "cosmo_polarized_energy": -9.54, 
			 "cosmo_cavitation_energy": 24.24, 
			 "cosmo_dispersion_energy": -17.67, 
			 "cosmo_repulsion_energy": 1.42, 
			 "cosmo_total_nonelectrostatic_energy": 7.99, 
			 "SMD_solvation_energy": 5.53 
		},
		"coords": [
			{
				"x": -2.6050962683,
				"y": -3.4807980991,
				"z": -0.1089477683,
				"element": "C" 
			},
			{
				"x": -1.2480215767,
				"y": -3.3433301077,
				"z": 0.2844925502,
				"element": "O" 
			},
			{
				"x": -0.6840482813,
				"y": -2.1092363712,
				"z": 0.1920043825,
				"element": "C" 
			},
			{
				"x": -1.3246561677,
				"y": -0.949405518,
				"z": -0.2475925825,
				"element": "C" 
			},
			{
				"x": -0.6394451251,
				"y": 0.2753198377,
				"z": -0.2989764142,
				"element": "C" 
			},
			{
				"x": -1.3569880595,
				"y": 1.507307217,
				"z": -0.8174082071,
				"element": "C" 
			},
			{
				"x": -2.7423512407,
				"y": 1.5375693274,
				"z": -0.497897363,
				"element": "O" 
			},
			{
				"x": 0.6952795561,
				"y": 0.3365381989,
				"z": 0.1004583644,
				"element": "C" 
			},
			{
				"x": 1.3520398153,
				"y": -0.8193807198,
				"z": 0.5372642452,
				"element": "C" 
			},
			{
				"x": 0.6653907191,
				"y": -2.0187566911,
				"z": 0.5795459397,
				"element": "C" 
			},
			{
				"x": 1.285804369,
				"y": -3.1356085246,
				"z": 1.0070070274,
				"element": "F" 
			},
			{
				"x": -2.8527467809,
				"y": -4.5334471029,
				"z": 0.0341412569,
				"element": "H" 
			},
			{
				"x": -3.2700983279,
				"y": -2.8648551969,
				"z": 0.5098550717,
				"element": "H" 
			},
			{
				"x": -2.7491386841,
				"y": -3.2138598528,
				"z": -1.1635672173,
				"element": "H" 
			},
			{
				"x": -2.3649312812,
				"y": -0.969369106,
				"z": -0.5495982862,
				"element": "H" 
			},
			{
				"x": -1.3200454883,
				"y": 1.5334323487,
				"z": -1.9131983615,
				"element": "H" 
			},
			{
				"x": -0.8389932503,
				"y": 2.4111842119,
				"z": -0.4605732914,
				"element": "H" 
			},
			{
				"x": -2.8164548044,
				"y": 1.4905817953,
				"z": 0.4648604787,
				"element": "H" 
			},
			{
				"x": 1.2303624339,
				"y": 1.2817866969,
				"z": 0.0751118516,
				"element": "H" 
			},
			{
				"x": 2.389038443,
				"y": -0.8013723438,
				"z": 0.8557183232,
				"element": "H" 
			}
		],
		 "valence_orbital": [ 
			{
				"type": "occ",
				"energy": -0.32972,
				"method": "rhf"
			},
			{
				"type": "occ",
				"energy": -0.32063,
				"method": "rhf"
			},
			{
				"type": "occ",
				"energy": -0.27977,
				"method": "rhf"
			},
			{
				"type": "occ",
				"energy": -0.24592,
				"method": "rhf"
			},
			{
				"type": "occ",
				"energy": -0.21931,
				"method": "rhf"
			},
			{
				"type": "unocc",
				"energy": -0.00367,
				"method": "rhf"
			},
			{
				"type": "unocc",
				"energy": 0.00447,
				"method": "rhf"
			},
			{
				"type": "unocc",
				"energy": 0.0812,
				"method": "rhf"
			},
			{
				"type": "unocc",
				"energy": 0.08851,
				"method": "rhf"
			},
			{
				"type": "unocc",
				"energy": 0.10342,
				"method": "rhf"
			}
		],
		"cosmo_sigma_profile": { 
			"-0.025": 0.0,
			"-0.024": 0.0,
			"-0.023": 0.0,
			"-0.022": 0.0,
			"-0.021": 0.0,
			"-0.02": 0.0,
			"-0.019": 0.0,
			"-0.018": 0.0,
			"-0.017": 0.0,
			"-0.016": 0.218354057981,
			"-0.015": 0.987698392753,
			"-0.014": 0.642050410571,
			"-0.013": 0.811906122882,
			"-0.012": 0.883498674916,
			"-0.011": 1.13942923846,
			"-0.01": 0.612056139038,
			"-0.009": 0.576215636284,
			"-0.008": 0.429068009493,
			"-0.007": 2.64207718625,
			"-0.006": 10.0588110377,
			"-0.005": 18.9445628588,
			"-0.004": 18.107078004,
			"-0.003": 17.4144919272,
			"-0.002": 13.0101113713,
			"-0.001": 8.08405731635,
			"0.0": 8.39070365744,
			"0.001": 12.6226610461,
			"0.002": 13.2500250019,
			"0.003": 12.278940983,
			"0.004": 17.1523083913,
			"0.005": 11.7490840787,
			"0.006": 4.4835765839,
			"0.007": 2.66577237072,
			"0.008": 2.75086542599,
			"0.009": 2.80421299092,
			"0.01": 2.8012096361,
			"0.011": 1.68380597447,
			"0.012": 1.31841591153,
			"0.013": 1.55875289668,
			"0.014": 1.88711831971,
			"0.015": 0.101393973624,
			"0.016": 0.0,
			"0.017": 0.0,
			"0.018": 0.0,
			"0.019": 0.0,
			"0.02": 0.0,
			"0.021": 0.0,
			"0.022": 0.0,
			"0.023": 0.0,
			"0.024": 0.0,
			"0.025": 0.0
		}
	}
}
