{
	 "smiles": "NC1=C(C=C(F)C=C1C(O)=O)[N+]([O-])=O", 
	 "Tm": 493.15, 
	 "num_atms": 19, 
	 "gaussian": { 
		 "optdone": 1, 
		 "sigma_profile": "yes", 
		 "theory": "DFT", 
		 "functional": "B3LYP", 
		 "basiset": "6-31G**", 
		 "properties": { 
			 "R2extent": 2958.304, 
			 "electric_dipole_moment_norm": 1.53207476645, 
			 "electric_quadrupole_moment_norm": 21.4178725729, 
			 "total_energy": -779.900461012, 
			 "HOMO_LUMO_gap": 0.14652, 
			 "cosmo_polarized_energy": -16.08, 
			 "cosmo_cavitation_energy": 24.74, 
			 "cosmo_dispersion_energy": -18.55, 
			 "cosmo_repulsion_energy": 1.41, 
			 "cosmo_total_nonelectrostatic_energy": 7.61, 
			 "SMD_solvation_energy": 8.11 
		},
		"coords": [
			{
				"x": 1.3364716772,
				"y": 0.1016612008,
				"z": 1.57597302,
				"element": "N" 
			},
			{
				"x": 0.441361165,
				"y": 0.49966786,
				"z": 0.5744844531,
				"element": "C" 
			},
			{
				"x": 0.3014119681,
				"y": 1.8374115603,
				"z": 0.12739735,
				"element": "C" 
			},
			{
				"x": -0.6050630658,
				"y": 2.1918194203,
				"z": -0.8788656403,
				"element": "C" 
			},
			{
				"x": -1.3765993127,
				"y": 1.2059779849,
				"z": -1.4599292885,
				"element": "C" 
			},
			{
				"x": -2.2411771431,
				"y": 1.5348649686,
				"z": -2.4344368881,
				"element": "F" 
			},
			{
				"x": -1.2879333824,
				"y": -0.1167822304,
				"z": -1.0440289639,
				"element": "C" 
			},
			{
				"x": -0.4109340556,
				"y": -0.468930939,
				"z": -0.0194202395,
				"element": "C" 
			},
			{
				"x": -0.4924960114,
				"y": -1.9132595739,
				"z": 0.4284665329,
				"element": "C" 
			},
			{
				"x": -0.058727228,
				"y": -2.2009898131,
				"z": 1.6708453533,
				"element": "O" 
			},
			{
				"x": -0.9694348381,
				"y": -2.7702912545,
				"z": -0.2788020416,
				"element": "O" 
			},
			{
				"x": 1.111471476,
				"y": 2.9361396484,
				"z": 0.6644641157,
				"element": "N" 
			},
			{
				"x": 1.8456172752,
				"y": 2.7198457291,
				"z": 1.6420728884,
				"element": "O" 
			},
			{
				"x": 1.0241531968,
				"y": 4.032834595,
				"z": 0.1221516259,
				"element": "O" 
			},
			{
				"x": 1.8583507386,
				"y": 0.8879601407,
				"z": 1.9530247494,
				"element": "H" 
			},
			{
				"x": 1.9389176215,
				"y": -0.6679458012,
				"z": 1.3020194314,
				"element": "H" 
			},
			{
				"x": -0.6795622728,
				"y": 3.2237521243,
				"z": -1.1943633884,
				"element": "H" 
			},
			{
				"x": -1.9095120301,
				"y": -0.8853011048,
				"z": -1.4890514246,
				"element": "H" 
			},
			{
				"x": 0.2607842215,
				"y": -1.3883345154,
				"z": 2.1150983547,
				"element": "H" 
			}
		],
		 "valence_orbital": [ 
			{
				"type": "occ",
				"energy": -0.32757,
				"method": "rhf"
			},
			{
				"type": "occ",
				"energy": -0.31721,
				"method": "rhf"
			},
			{
				"type": "occ",
				"energy": -0.30563,
				"method": "rhf"
			},
			{
				"type": "occ",
				"energy": -0.28664,
				"method": "rhf"
			},
			{
				"type": "occ",
				"energy": -0.26206,
				"method": "rhf"
			},
			{
				"type": "unocc",
				"energy": -0.11554,
				"method": "rhf"
			},
			{
				"type": "unocc",
				"energy": -0.06989,
				"method": "rhf"
			},
			{
				"type": "unocc",
				"energy": -0.02,
				"method": "rhf"
			},
			{
				"type": "unocc",
				"energy": 0.0327,
				"method": "rhf"
			},
			{
				"type": "unocc",
				"energy": 0.05635,
				"method": "rhf"
			}
		],
		"cosmo_sigma_profile": { 
			"-0.025": 0.0,
			"-0.024": 0.0,
			"-0.023": 0.0,
			"-0.022": 0.0,
			"-0.021": 0.0,
			"-0.02": 0.0,
			"-0.019": 0.0,
			"-0.018": 0.0,
			"-0.017": 0.0,
			"-0.016": 0.288412086298,
			"-0.015": 1.26095257508,
			"-0.014": 2.00215146855,
			"-0.013": 1.56342540758,
			"-0.012": 1.59510837015,
			"-0.011": 2.28033366744,
			"-0.01": 3.73192654562,
			"-0.009": 4.63124074991,
			"-0.008": 5.54868106287,
			"-0.007": 7.90844247077,
			"-0.006": 6.78659377627,
			"-0.005": 8.12372022945,
			"-0.004": 10.1715254492,
			"-0.003": 14.6858241292,
			"-0.002": 19.8196550741,
			"-0.001": 14.9026983801,
			"0.0": 8.20804016761,
			"0.001": 6.95937053511,
			"0.002": 6.89987358174,
			"0.003": 13.1975805584,
			"0.004": 9.15188352067,
			"0.005": 4.61828947227,
			"0.006": 6.44557658789,
			"0.007": 8.69373540232,
			"0.008": 7.25157348662,
			"0.009": 7.24615665553,
			"0.01": 5.34849182153,
			"0.011": 5.95235654609,
			"0.012": 3.23364688474,
			"0.013": 0.863386588923,
			"0.014": 0.0,
			"0.015": 0.0,
			"0.016": 0.0,
			"0.017": 0.0,
			"0.018": 0.0,
			"0.019": 0.0,
			"0.02": 0.0,
			"0.021": 0.0,
			"0.022": 0.0,
			"0.023": 0.0,
			"0.024": 0.0,
			"0.025": 0.0
		}
	}
}
