{
	 "smiles": "CC(C)(C(O)=O)C1=CC2=CCC3C4CC[C@@](O)(C#C)[C@@]4(C)CCC3[C@@]2(C)CC1", 
	 "Tm": 531.15, 
	 "num_atms": 62, 
	 "gaussian": { 
		 "optdone": 1, 
		 "sigma_profile": "yes", 
		 "theory": "DFT", 
		 "functional": "B3LYP", 
		 "basiset": "6-31G**", 
		 "properties": { 
			 "R2extent": 14642.6561, 
			 "electric_dipole_moment_norm": 1.30277441639, 
			 "electric_quadrupole_moment_norm": 17.8792115081, 
			 "total_energy": -1198.74693149, 
			 "HOMO_LUMO_gap": 0.19227, 
			 "cosmo_polarized_energy": -15.57, 
			 "cosmo_cavitation_energy": 55.86, 
			 "cosmo_dispersion_energy": -36.87, 
			 "cosmo_repulsion_energy": 2.71, 
			 "cosmo_total_nonelectrostatic_energy": 21.7, 
			 "SMD_solvation_energy": 10.7 
		},
		"coords": [
			{
				"x": 4.8255470387,
				"y": -1.1849373837,
				"z": -2.8618519694,
				"element": "C" 
			},
			{
				"x": 3.8840554879,
				"y": 0.0426520701,
				"z": -2.8003870179,
				"element": "C" 
			},
			{
				"x": 3.4231122834,
				"y": 0.4185440012,
				"z": -4.2264209978,
				"element": "C" 
			},
			{
				"x": 4.6587477035,
				"y": 1.229140969,
				"z": -2.2164096963,
				"element": "C" 
			},
			{
				"x": 5.4256203948,
				"y": 0.8826042285,
				"z": -1.1533826331,
				"element": "O" 
			},
			{
				"x": 4.6121865547,
				"y": 2.3722370043,
				"z": -2.6198766583,
				"element": "O" 
			},
			{
				"x": 2.6498753971,
				"y": -0.2317366019,
				"z": -1.9201561444,
				"element": "C" 
			},
			{
				"x": 2.0863135112,
				"y": 0.7209026989,
				"z": -1.1497750711,
				"element": "C" 
			},
			{
				"x": 0.9280505668,
				"y": 0.5155938681,
				"z": -0.2805364713,
				"element": "C" 
			},
			{
				"x": 0.4549496987,
				"y": 1.5197355093,
				"z": 0.4772185498,
				"element": "C" 
			},
			{
				"x": -0.6980181238,
				"y": 1.4154184888,
				"z": 1.4283425758,
				"element": "C" 
			},
			{
				"x": -1.4694521674,
				"y": 0.060952932,
				"z": 1.4438171207,
				"element": "C" 
			},
			{
				"x": -2.982527028,
				"y": 0.3582395624,
				"z": 1.532622734,
				"element": "C" 
			},
			{
				"x": -3.5580220615,
				"y": 0.801518889,
				"z": 2.8928804056,
				"element": "C" 
			},
			{
				"x": -5.0874354256,
				"y": 0.5520908866,
				"z": 2.7667247085,
				"element": "C" 
			},
			{
				"x": -5.3139861945,
				"y": -0.1148560613,
				"z": 1.3637335031,
				"element": "C" 
			},
			{
				"x": -6.3228960431,
				"y": -1.1268954207,
				"z": 1.3844997749,
				"element": "O" 
			},
			{
				"x": -5.6873732844,
				"y": 0.9167762994,
				"z": 0.3780794378,
				"element": "C" 
			},
			{
				"x": -6.0529633424,
				"y": 1.7722504694,
				"z": -0.3945629611,
				"element": "C" 
			},
			{
				"x": -3.9191464156,
				"y": -0.770297869,
				"z": 1.0491550355,
				"element": "C" 
			},
			{
				"x": -3.8080967919,
				"y": -2.0630383217,
				"z": 1.888834998,
				"element": "C" 
			},
			{
				"x": -3.6260223277,
				"y": -1.0638646135,
				"z": -0.4489791545,
				"element": "C" 
			},
			{
				"x": -2.2106752609,
				"y": -0.6038537437,
				"z": -0.8928076054,
				"element": "C" 
			},
			{
				"x": -1.1708827452,
				"y": -0.8706158689,
				"z": 0.2181309539,
				"element": "C" 
			},
			{
				"x": 0.3417859536,
				"y": -0.8860771873,
				"z": -0.1838951925,
				"element": "C" 
			},
			{
				"x": 1.1230821172,
				"y": -1.6567564499,
				"z": 0.9150280883,
				"element": "C" 
			},
			{
				"x": 0.5589633651,
				"y": -1.5939468935,
				"z": -1.5425210309,
				"element": "C" 
			},
			{
				"x": 2.0261365589,
				"y": -1.6093063982,
				"z": -1.9926722829,
				"element": "C" 
			},
			{
				"x": 5.1356635147,
				"y": -1.5051241819,
				"z": -1.8653231263,
				"element": "H" 
			},
			{
				"x": 5.7259512472,
				"y": -0.9420473806,
				"z": -3.4349754521,
				"element": "H" 
			},
			{
				"x": 4.333719815,
				"y": -2.0224278581,
				"z": -3.3627926778,
				"element": "H" 
			},
			{
				"x": 2.8055151942,
				"y": -0.3811668143,
				"z": -4.6461242202,
				"element": "H" 
			},
			{
				"x": 4.283088137,
				"y": 0.5670612414,
				"z": -4.8877541311,
				"element": "H" 
			},
			{
				"x": 2.8421969779,
				"y": 1.3418230934,
				"z": -4.2117781735,
				"element": "H" 
			},
			{
				"x": 5.8462387547,
				"y": 1.7060813581,
				"z": -0.8540977993,
				"element": "H" 
			},
			{
				"x": 2.5115786593,
				"y": 1.7227939796,
				"z": -1.1319622388,
				"element": "H" 
			},
			{
				"x": 0.9321287732,
				"y": 2.4979206056,
				"z": 0.4117380328,
				"element": "H" 
			},
			{
				"x": -1.3945627768,
				"y": 2.2352603546,
				"z": 1.1976669517,
				"element": "H" 
			},
			{
				"x": -0.3433893866,
				"y": 1.6419617673,
				"z": 2.4451020825,
				"element": "H" 
			},
			{
				"x": -1.1694876109,
				"y": -0.4830668301,
				"z": 2.3476618749,
				"element": "H" 
			},
			{
				"x": -3.1705983176,
				"y": 1.1869418789,
				"z": 0.8361970842,
				"element": "H" 
			},
			{
				"x": -3.3251275286,
				"y": 1.8470989805,
				"z": 3.1162990339,
				"element": "H" 
			},
			{
				"x": -3.1345372931,
				"y": 0.201882744,
				"z": 3.7064977038,
				"element": "H" 
			},
			{
				"x": -5.673772288,
				"y": 1.4693075396,
				"z": 2.8646448697,
				"element": "H" 
			},
			{
				"x": -5.447625706,
				"y": -0.1501778803,
				"z": 3.5235559892,
				"element": "H" 
			},
			{
				"x": -7.1804752699,
				"y": -0.6835640625,
				"z": 1.4266133677,
				"element": "H" 
			},
			{
				"x": -6.3630008339,
				"y": 2.5205758426,
				"z": -1.0869113545,
				"element": "H" 
			},
			{
				"x": -2.8177702224,
				"y": -2.513017112,
				"z": 1.789109726,
				"element": "H" 
			},
			{
				"x": -3.9875497926,
				"y": -1.8928565213,
				"z": 2.953902189,
				"element": "H" 
			},
			{
				"x": -4.5475029147,
				"y": -2.7902571517,
				"z": 1.5462700445,
				"element": "H" 
			},
			{
				"x": -3.7201548198,
				"y": -2.1411500952,
				"z": -0.6283229784,
				"element": "H" 
			},
			{
				"x": -4.3724090972,
				"y": -0.579691697,
				"z": -1.0860237483,
				"element": "H" 
			},
			{
				"x": -1.9613206664,
				"y": -1.1408950028,
				"z": -1.810833971,
				"element": "H" 
			},
			{
				"x": -2.2163099892,
				"y": 0.4611564545,
				"z": -1.1564963261,
				"element": "H" 
			},
			{
				"x": -1.3647333931,
				"y": -1.8982613947,
				"z": 0.5511855698,
				"element": "H" 
			},
			{
				"x": 0.8201666397,
				"y": -2.7107920339,
				"z": 0.9401038871,
				"element": "H" 
			},
			{
				"x": 0.9413767311,
				"y": -1.2270515285,
				"z": 1.9037776567,
				"element": "H" 
			},
			{
				"x": 2.2019668141,
				"y": -1.6157728478,
				"z": 0.7426396939,
				"element": "H" 
			},
			{
				"x": 0.1701142155,
				"y": -2.6192667867,
				"z": -1.494832886,
				"element": "H" 
			},
			{
				"x": -0.0116559824,
				"y": -1.0702861028,
				"z": -2.3154292911,
				"element": "H" 
			},
			{
				"x": 2.6117325942,
				"y": -2.3215437823,
				"z": -1.3942470415,
				"element": "H" 
			},
			{
				"x": 2.0728164022,
				"y": -1.9902238393,
				"z": -3.0207933403,
				"element": "H" 
			}
		],
		 "valence_orbital": [ 
			{
				"type": "occ",
				"energy": -0.27448,
				"method": "rhf"
			},
			{
				"type": "occ",
				"energy": -0.26765,
				"method": "rhf"
			},
			{
				"type": "occ",
				"energy": -0.26505,
				"method": "rhf"
			},
			{
				"type": "occ",
				"energy": -0.25617,
				"method": "rhf"
			},
			{
				"type": "occ",
				"energy": -0.20205,
				"method": "rhf"
			},
			{
				"type": "unocc",
				"energy": -0.00978,
				"method": "rhf"
			},
			{
				"type": "unocc",
				"energy": 0.01251,
				"method": "rhf"
			},
			{
				"type": "unocc",
				"energy": 0.03213,
				"method": "rhf"
			},
			{
				"type": "unocc",
				"energy": 0.05097,
				"method": "rhf"
			},
			{
				"type": "unocc",
				"energy": 0.07098,
				"method": "rhf"
			}
		],
		"cosmo_sigma_profile": { 
			"-0.025": 0.0,
			"-0.024": 0.0,
			"-0.023": 0.0,
			"-0.022": 0.0,
			"-0.021": 0.0,
			"-0.02": 0.0,
			"-0.019": 0.0,
			"-0.018": 0.590286693702,
			"-0.017": 0.707804210568,
			"-0.016": 1.09271798546,
			"-0.015": 1.90915141508,
			"-0.014": 1.69805988292,
			"-0.013": 1.00937219786,
			"-0.012": 1.36820419618,
			"-0.011": 2.45893672585,
			"-0.01": 3.28951763955,
			"-0.009": 1.41710924108,
			"-0.008": 3.16209321793,
			"-0.007": 3.13098975905,
			"-0.006": 2.42460692106,
			"-0.005": 6.3560660104,
			"-0.004": 16.1864178424,
			"-0.003": 38.6911663714,
			"-0.002": 61.4567136453,
			"-0.001": 66.1932779744,
			"0.0": 57.8269889324,
			"0.001": 45.0443393595,
			"0.002": 24.5947414282,
			"0.003": 14.692485267,
			"0.004": 15.4475440206,
			"0.005": 17.8417109369,
			"0.006": 12.5790245666,
			"0.007": 7.01146455437,
			"0.008": 4.79846579457,
			"0.009": 3.64894755613,
			"0.01": 3.74384815972,
			"0.011": 4.97104783739,
			"0.012": 6.04596588944,
			"0.013": 0.835428144982,
			"0.014": 0.0,
			"0.015": 0.0,
			"0.016": 0.0,
			"0.017": 0.0,
			"0.018": 0.0,
			"0.019": 0.0,
			"0.02": 0.0,
			"0.021": 0.0,
			"0.022": 0.0,
			"0.023": 0.0,
			"0.024": 0.0,
			"0.025": 0.0
		}
	}
}
