{
	 "smiles": "OCC1=CC(=NC=C1)N1C=CN=C1", 
	 "Tm": 429.15, 
	 "num_atms": 22, 
	 "gaussian": { 
		 "optdone": 1, 
		 "sigma_profile": "yes", 
		 "theory": "DFT", 
		 "functional": "B3LYP", 
		 "basiset": "6-31G**", 
		 "properties": { 
			 "R2extent": 2879.7724, 
			 "electric_dipole_moment_norm": 6.27677300291, 
			 "electric_quadrupole_moment_norm": 10.9826300575, 
			 "total_energy": -587.836409957, 
			 "HOMO_LUMO_gap": 0.18512, 
			 "cosmo_polarized_energy": -15.16, 
			 "cosmo_cavitation_energy": 26.29, 
			 "cosmo_dispersion_energy": -19.64, 
			 "cosmo_repulsion_energy": 1.53, 
			 "cosmo_total_nonelectrostatic_energy": 8.18, 
			 "SMD_solvation_energy": 2.86 
		},
		"coords": [
			{
				"x": 1.7264504069,
				"y": 0.0187045069,
				"z": -2.5939042416,
				"element": "O" 
			},
			{
				"x": 1.4494718771,
				"y": 1.3680009855,
				"z": -2.2690392616,
				"element": "C" 
			},
			{
				"x": 0.4573740245,
				"y": 1.4271437761,
				"z": -1.1308707635,
				"element": "C" 
			},
			{
				"x": -0.0459354091,
				"y": 0.2665006627,
				"z": -0.5537198514,
				"element": "C" 
			},
			{
				"x": -0.9643715387,
				"y": 0.39201915,
				"z": 0.4994316442,
				"element": "C" 
			},
			{
				"x": -1.3805930978,
				"y": 1.5634417911,
				"z": 0.9812789474,
				"element": "N" 
			},
			{
				"x": -0.8855095291,
				"y": 2.671684103,
				"z": 0.4160080886,
				"element": "C" 
			},
			{
				"x": 0.0256928811,
				"y": 2.6642427948,
				"z": -0.6327314522,
				"element": "C" 
			},
			{
				"x": -1.5123836714,
				"y": -0.751380175,
				"z": 1.1249906929,
				"element": "N" 
			},
			{
				"x": -2.4063767223,
				"y": -0.739541798,
				"z": 2.1896063854,
				"element": "C" 
			},
			{
				"x": -2.6645129274,
				"y": -2.0527947203,
				"z": 2.4652999652,
				"element": "C" 
			},
			{
				"x": -1.964766896,
				"y": -2.8858393527,
				"z": 1.6100631712,
				"element": "N" 
			},
			{
				"x": -1.2901096294,
				"y": -2.0825500681,
				"z": 0.8264815602,
				"element": "C" 
			},
			{
				"x": 2.3616933646,
				"y": 0.0042687046,
				"z": -3.3190930347,
				"element": "H" 
			},
			{
				"x": 2.3625700098,
				"y": 1.9071148405,
				"z": -1.9669161773,
				"element": "H" 
			},
			{
				"x": 1.0286309746,
				"y": 1.9133550034,
				"z": -3.1299407205,
				"element": "H" 
			},
			{
				"x": 0.2808604536,
				"y": -0.6944263357,
				"z": -0.9259788147,
				"element": "H" 
			},
			{
				"x": -1.2419762492,
				"y": 3.6131318971,
				"z": 0.8292019767,
				"element": "H" 
			},
			{
				"x": 0.3900687113,
				"y": 3.5985540631,
				"z": -1.0499048766,
				"element": "H" 
			},
			{
				"x": -2.7440368173,
				"y": 0.1900766353,
				"z": 2.6140808387,
				"element": "H" 
			},
			{
				"x": -3.3145883347,
				"y": -2.453378153,
				"z": 3.2306547442,
				"element": "H" 
			},
			{
				"x": -0.6319518811,
				"y": -2.3965283115,
				"z": 0.0303011794,
				"element": "H" 
			}
		],
		 "valence_orbital": [ 
			{
				"type": "occ",
				"energy": -0.28023,
				"method": "rhf"
			},
			{
				"type": "occ",
				"energy": -0.27643,
				"method": "rhf"
			},
			{
				"type": "occ",
				"energy": -0.25852,
				"method": "rhf"
			},
			{
				"type": "occ",
				"energy": -0.24262,
				"method": "rhf"
			},
			{
				"type": "occ",
				"energy": -0.22108,
				"method": "rhf"
			},
			{
				"type": "unocc",
				"energy": -0.03596,
				"method": "rhf"
			},
			{
				"type": "unocc",
				"energy": -0.0244,
				"method": "rhf"
			},
			{
				"type": "unocc",
				"energy": 0.04609,
				"method": "rhf"
			},
			{
				"type": "unocc",
				"energy": 0.05615,
				"method": "rhf"
			},
			{
				"type": "unocc",
				"energy": 0.07798,
				"method": "rhf"
			}
		],
		"cosmo_sigma_profile": { 
			"-0.025": 0.0,
			"-0.024": 0.0,
			"-0.023": 0.0,
			"-0.022": 0.0,
			"-0.021": 0.0,
			"-0.02": 0.0,
			"-0.019": 0.0,
			"-0.018": 0.0,
			"-0.017": 0.241654000008,
			"-0.016": 1.1230033474,
			"-0.015": 1.1135268701,
			"-0.014": 1.18145762198,
			"-0.013": 1.13853395236,
			"-0.012": 0.596273742838,
			"-0.011": 1.60331434526,
			"-0.01": 1.89471339318,
			"-0.009": 2.73322752601,
			"-0.008": 2.78284092202,
			"-0.007": 8.35554553909,
			"-0.006": 15.3516355325,
			"-0.005": 16.193728785,
			"-0.004": 11.6780292572,
			"-0.003": 10.5390121081,
			"-0.002": 10.2085046258,
			"-0.001": 11.1520993859,
			"0.0": 14.0297094157,
			"0.001": 15.3838159865,
			"0.002": 20.1215429175,
			"0.003": 10.8836029532,
			"0.004": 9.21256844673,
			"0.005": 9.32307961151,
			"0.006": 5.97502228695,
			"0.007": 3.30574801614,
			"0.008": 4.40600193107,
			"0.009": 4.87027264689,
			"0.01": 4.53474399678,
			"0.011": 2.83318574109,
			"0.012": 2.49344420564,
			"0.013": 1.00054664911,
			"0.014": 0.481863835734,
			"0.015": 1.64119021142,
			"0.016": 1.19854811437,
			"0.017": 0.932485391106,
			"0.018": 0.253809490837,
			"0.019": 0.0,
			"0.02": 0.0,
			"0.021": 0.0,
			"0.022": 0.0,
			"0.023": 0.0,
			"0.024": 0.0,
			"0.025": 0.0
		}
	}
}
