{
	 "smiles": "ClC1=CC=C(C=C1)C1=NC(=CS1)S(Cl)(=O)=O", 
	 "Tm": 367.15, 
	 "num_atms": 21, 
	 "gaussian": { 
		 "optdone": 1, 
		 "sigma_profile": "yes", 
		 "theory": "DFT", 
		 "functional": "B3LYP", 
		 "basiset": "6-31G**", 
		 "properties": { 
			 "R2extent": 7878.5757, 
			 "electric_dipole_moment_norm": 4.97060064177, 
			 "electric_quadrupole_moment_norm": 20.9528461854, 
			 "total_energy": -2267.84263334, 
			 "HOMO_LUMO_gap": 0.16107, 
			 "cosmo_polarized_energy": -12.12, 
			 "cosmo_cavitation_energy": 33.51, 
			 "cosmo_dispersion_energy": -25.52, 
			 "cosmo_repulsion_energy": 1.89, 
			 "cosmo_total_nonelectrostatic_energy": 9.88, 
			 "SMD_solvation_energy": 2.99 
		},
		"coords": [
			{
				"x": 6.2438992792,
				"y": 0.6111864167,
				"z": -0.8307460111,
				"element": "Cl" 
			},
			{
				"x": 4.5899892662,
				"y": 0.0763795628,
				"z": -0.616230553,
				"element": "C" 
			},
			{
				"x": 3.5526097584,
				"y": 0.7841699036,
				"z": -1.2272313287,
				"element": "C" 
			},
			{
				"x": 2.2413149916,
				"y": 0.3563950664,
				"z": -1.0544357971,
				"element": "C" 
			},
			{
				"x": 1.95415295,
				"y": -0.777283598,
				"z": -0.2733316452,
				"element": "C" 
			},
			{
				"x": 3.0139287776,
				"y": -1.4721031218,
				"z": 0.3306477466,
				"element": "C" 
			},
			{
				"x": 4.3295876534,
				"y": -1.051536325,
				"z": 0.1634494216,
				"element": "C" 
			},
			{
				"x": 0.5578688358,
				"y": -1.194458693,
				"z": -0.116648768,
				"element": "C" 
			},
			{
				"x": -0.4556832503,
				"y": -0.5702015852,
				"z": -0.6658341417,
				"element": "N" 
			},
			{
				"x": -1.6248325937,
				"y": -1.177003036,
				"z": -0.3504662789,
				"element": "C" 
			},
			{
				"x": -1.5745774872,
				"y": -2.2861122037,
				"z": 0.4477754458,
				"element": "C" 
			},
			{
				"x": 0.0755248453,
				"y": -2.6021128759,
				"z": 0.8411156649,
				"element": "S" 
			},
			{
				"x": -3.2147668829,
				"y": -0.5667812651,
				"z": -0.9481854606,
				"element": "S" 
			},
			{
				"x": -2.6425217519,
				"y": 1.1058928366,
				"z": -2.0858108628,
				"element": "Cl" 
			},
			{
				"x": -3.7745237075,
				"y": -1.5488067008,
				"z": -1.8681516777,
				"element": "O" 
			},
			{
				"x": -3.9835109404,
				"y": -0.0778983926,
				"z": 0.1893803725,
				"element": "O" 
			},
			{
				"x": 3.772519157,
				"y": 1.6583131615,
				"z": -1.8296426229,
				"element": "H" 
			},
			{
				"x": 1.4235986426,
				"y": 0.8937558556,
				"z": -1.5213141037,
				"element": "H" 
			},
			{
				"x": 2.8219965202,
				"y": -2.3512772005,
				"z": 0.9394683108,
				"element": "H" 
			},
			{
				"x": 5.1456636753,
				"y": -1.590278201,
				"z": 0.6311626738,
				"element": "H" 
			},
			{
				"x": -2.3821377387,
				"y": -2.9059396046,
				"z": 0.8091296155,
				"element": "H" 
			}
		],
		 "valence_orbital": [ 
			{
				"type": "occ",
				"energy": -0.31552,
				"method": "rhf"
			},
			{
				"type": "occ",
				"energy": -0.31147,
				"method": "rhf"
			},
			{
				"type": "occ",
				"energy": -0.30086,
				"method": "rhf"
			},
			{
				"type": "occ",
				"energy": -0.28701,
				"method": "rhf"
			},
			{
				"type": "occ",
				"energy": -0.25094,
				"method": "rhf"
			},
			{
				"type": "unocc",
				"energy": -0.08987,
				"method": "rhf"
			},
			{
				"type": "unocc",
				"energy": -0.0838,
				"method": "rhf"
			},
			{
				"type": "unocc",
				"energy": -0.03898,
				"method": "rhf"
			},
			{
				"type": "unocc",
				"energy": -0.02947,
				"method": "rhf"
			},
			{
				"type": "unocc",
				"energy": -0.01494,
				"method": "rhf"
			}
		],
		"cosmo_sigma_profile": { 
			"-0.025": 0.0,
			"-0.024": 0.0,
			"-0.023": 0.0,
			"-0.022": 0.0,
			"-0.021": 0.0,
			"-0.02": 0.0,
			"-0.019": 0.0,
			"-0.018": 0.0,
			"-0.017": 0.0,
			"-0.016": 0.0,
			"-0.015": 0.0,
			"-0.014": 0.0,
			"-0.013": 0.375143467983,
			"-0.012": 2.78016628202,
			"-0.011": 1.94954547487,
			"-0.01": 1.92904931756,
			"-0.009": 2.6767978889,
			"-0.008": 5.99702774442,
			"-0.007": 9.10618256652,
			"-0.006": 9.43792121085,
			"-0.005": 8.80539001807,
			"-0.004": 12.1589462881,
			"-0.003": 17.4287370639,
			"-0.002": 21.3090208938,
			"-0.001": 23.82048532,
			"0.0": 26.754187128,
			"0.001": 28.9880542877,
			"0.002": 31.6955309153,
			"0.003": 19.7071265478,
			"0.004": 15.8138219841,
			"0.005": 7.16638507198,
			"0.006": 5.24554280574,
			"0.007": 6.87346799739,
			"0.008": 13.742300358,
			"0.009": 4.44726594493,
			"0.01": 0.0,
			"0.011": 0.0,
			"0.012": 0.0,
			"0.013": 0.0,
			"0.014": 0.0,
			"0.015": 0.0,
			"0.016": 0.0,
			"0.017": 0.0,
			"0.018": 0.0,
			"0.019": 0.0,
			"0.02": 0.0,
			"0.021": 0.0,
			"0.022": 0.0,
			"0.023": 0.0,
			"0.024": 0.0,
			"0.025": 0.0
		}
	}
}
