{
	 "smiles": "CN1C(=O)NC(C2=CC=CC=C2)C(C(=O)OCC2=CC=CC=C2)=C1C", 
	 "Tm": 391.15, 
	 "num_atms": 45, 
	 "gaussian": { 
		 "optdone": 1, 
		 "sigma_profile": "yes", 
		 "theory": "DFT", 
		 "functional": "B3LYP", 
		 "basiset": "6-31G**", 
		 "properties": { 
			 "R2extent": 11562.7726, 
			 "electric_dipole_moment_norm": 3.90489895004, 
			 "electric_quadrupole_moment_norm": 13.0130097264, 
			 "total_energy": -1109.38632266, 
			 "HOMO_LUMO_gap": 0.1802, 
			 "cosmo_polarized_energy": -16.28, 
			 "cosmo_cavitation_energy": 47.7, 
			 "cosmo_dispersion_energy": -32.76, 
			 "cosmo_repulsion_energy": 2.49, 
			 "cosmo_total_nonelectrostatic_energy": 17.42, 
			 "SMD_solvation_energy": 8.63 
		},
		"coords": [
			{
				"x": -3.0161246305,
				"y": 0.9995582856,
				"z": -3.0706889428,
				"element": "C" 
			},
			{
				"x": -1.9627546816,
				"y": 1.7631000658,
				"z": -2.3968860821,
				"element": "N" 
			},
			{
				"x": -1.9713974281,
				"y": 3.1580846108,
				"z": -2.6342931886,
				"element": "C" 
			},
			{
				"x": -2.7639190267,
				"y": 3.6814619103,
				"z": -3.4084482158,
				"element": "O" 
			},
			{
				"x": -1.0081556246,
				"y": 3.8511977989,
				"z": -1.9611419073,
				"element": "N" 
			},
			{
				"x": -0.4081583993,
				"y": 3.3538732972,
				"z": -0.7293294297,
				"element": "C" 
			},
			{
				"x": -1.2765689223,
				"y": 3.5898783132,
				"z": 0.5194266075,
				"element": "C" 
			},
			{
				"x": -0.6867374724,
				"y": 3.5000682542,
				"z": 1.790543744,
				"element": "C" 
			},
			{
				"x": -1.4470161811,
				"y": 3.6968444769,
				"z": 2.942230634,
				"element": "C" 
			},
			{
				"x": -2.8093938824,
				"y": 3.9914063336,
				"z": 2.8472237529,
				"element": "C" 
			},
			{
				"x": -3.4007439713,
				"y": 4.093223874,
				"z": 1.5890541974,
				"element": "C" 
			},
			{
				"x": -2.6400738779,
				"y": 3.8969602305,
				"z": 0.4329423687,
				"element": "C" 
			},
			{
				"x": -0.0670435533,
				"y": 1.8815727252,
				"z": -0.9511314375,
				"element": "C" 
			},
			{
				"x": 1.1917875283,
				"y": 1.4673124328,
				"z": -0.3097500619,
				"element": "C" 
			},
			{
				"x": 1.8782302697,
				"y": 2.23449859,
				"z": 0.3549418292,
				"element": "O" 
			},
			{
				"x": 1.5805434369,
				"y": 0.1826896977,
				"z": -0.5126744442,
				"element": "O" 
			},
			{
				"x": 2.8296633448,
				"y": -0.194666243,
				"z": 0.1245535985,
				"element": "C" 
			},
			{
				"x": 3.0879188523,
				"y": -1.64352406,
				"z": -0.1882745611,
				"element": "C" 
			},
			{
				"x": 2.6059346079,
				"y": -2.6506173539,
				"z": 0.6573759823,
				"element": "C" 
			},
			{
				"x": 2.8302574061,
				"y": -3.9953019742,
				"z": 0.3606221172,
				"element": "C" 
			},
			{
				"x": 3.5412885126,
				"y": -4.3473588473,
				"z": -0.7884965694,
				"element": "C" 
			},
			{
				"x": 4.0264473172,
				"y": -3.3507912426,
				"z": -1.6380773748,
				"element": "C" 
			},
			{
				"x": 3.8000379099,
				"y": -2.0073253874,
				"z": -1.3381062054,
				"element": "C" 
			},
			{
				"x": -0.9093250099,
				"y": 1.1316407336,
				"z": -1.7261904811,
				"element": "C" 
			},
			{
				"x": -0.8285634728,
				"y": -0.355782849,
				"z": -1.9473509655,
				"element": "C" 
			},
			{
				"x": -3.5449805027,
				"y": 0.3607761485,
				"z": -2.3585456128,
				"element": "H" 
			},
			{
				"x": -2.6168298695,
				"y": 0.3800477652,
				"z": -3.879269211,
				"element": "H" 
			},
			{
				"x": -3.7076464079,
				"y": 1.7229875318,
				"z": -3.49627315,
				"element": "H" 
			},
			{
				"x": -1.0970407684,
				"y": 4.8513554171,
				"z": -2.0787722296,
				"element": "H" 
			},
			{
				"x": 0.5341305587,
				"y": 3.8861599291,
				"z": -0.5836426059,
				"element": "H" 
			},
			{
				"x": 0.3721061633,
				"y": 3.2750295329,
				"z": 1.8660601275,
				"element": "H" 
			},
			{
				"x": -0.9720088211,
				"y": 3.6268762352,
				"z": 3.9171166983,
				"element": "H" 
			},
			{
				"x": -3.4007464466,
				"y": 4.1475668451,
				"z": 3.7450483246,
				"element": "H" 
			},
			{
				"x": -4.4570675069,
				"y": 4.3319355068,
				"z": 1.5002272943,
				"element": "H" 
			},
			{
				"x": -3.1201596939,
				"y": 4.0032048119,
				"z": -0.5343209059,
				"element": "H" 
			},
			{
				"x": 3.6246764751,
				"y": 0.453476448,
				"z": -0.2544675388,
				"element": "H" 
			},
			{
				"x": 2.7420867644,
				"y": -0.0178184243,
				"z": 1.2001485564,
				"element": "H" 
			},
			{
				"x": 2.0551865813,
				"y": -2.3772929574,
				"z": 1.5540102246,
				"element": "H" 
			},
			{
				"x": 2.4548772591,
				"y": -4.7667481048,
				"z": 1.0268457899,
				"element": "H" 
			},
			{
				"x": 3.7205803488,
				"y": -5.3937151411,
				"z": -1.0185904158,
				"element": "H" 
			},
			{
				"x": 4.58369487,
				"y": -3.6197574026,
				"z": -2.530835415,
				"element": "H" 
			},
			{
				"x": 4.179941282,
				"y": -1.2320821134,
				"z": -1.9987915356,
				"element": "H" 
			},
			{
				"x": -0.6873513622,
				"y": -0.5805187921,
				"z": -3.0105908516,
				"element": "H" 
			},
			{
				"x": -1.7643595265,
				"y": -0.8335428328,
				"z": -1.6391232234,
				"element": "H" 
			},
			{
				"x": -0.0123224486,
				"y": -0.794844076,
				"z": -1.3872092847,
				"element": "H" 
			}
		],
		 "valence_orbital": [ 
			{
				"type": "occ",
				"energy": -0.25589,
				"method": "rhf"
			},
			{
				"type": "occ",
				"energy": -0.25402,
				"method": "rhf"
			},
			{
				"type": "occ",
				"energy": -0.24373,
				"method": "rhf"
			},
			{
				"type": "occ",
				"energy": -0.23743,
				"method": "rhf"
			},
			{
				"type": "occ",
				"energy": -0.21958,
				"method": "rhf"
			},
			{
				"type": "unocc",
				"energy": -0.03938,
				"method": "rhf"
			},
			{
				"type": "unocc",
				"energy": -0.01677,
				"method": "rhf"
			},
			{
				"type": "unocc",
				"energy": -0.00895,
				"method": "rhf"
			},
			{
				"type": "unocc",
				"energy": 0.00204,
				"method": "rhf"
			},
			{
				"type": "unocc",
				"energy": 0.00574,
				"method": "rhf"
			}
		],
		"cosmo_sigma_profile": { 
			"-0.025": 0.0,
			"-0.024": 0.0,
			"-0.023": 0.0,
			"-0.022": 0.0,
			"-0.021": 0.0,
			"-0.02": 0.0,
			"-0.019": 0.0,
			"-0.018": 0.0,
			"-0.017": 0.0,
			"-0.016": 0.0,
			"-0.015": 0.19262976086,
			"-0.014": 1.01341610605,
			"-0.013": 1.08661458027,
			"-0.012": 0.601608253286,
			"-0.011": 0.926471727945,
			"-0.01": 1.16367004698,
			"-0.009": 0.835447925024,
			"-0.008": 1.15882795834,
			"-0.007": 3.93957770287,
			"-0.006": 23.5769560331,
			"-0.005": 31.3619693432,
			"-0.004": 32.3585994275,
			"-0.003": 35.5276357285,
			"-0.002": 30.8571445688,
			"-0.001": 30.6101734506,
			"0.0": 25.2051143085,
			"0.001": 23.2630467678,
			"0.002": 25.004617359,
			"0.003": 22.4697792359,
			"0.004": 23.1783120434,
			"0.005": 22.8344744631,
			"0.006": 15.3062251431,
			"0.007": 3.5080425676,
			"0.008": 3.09843989059,
			"0.009": 2.5639073867,
			"0.01": 2.73410992063,
			"0.011": 2.56771383282,
			"0.012": 5.26430019294,
			"0.013": 5.42001365735,
			"0.014": 2.08497770626,
			"0.015": 0.0243740049113,
			"0.016": 0.0,
			"0.017": 0.0,
			"0.018": 0.0,
			"0.019": 0.0,
			"0.02": 0.0,
			"0.021": 0.0,
			"0.022": 0.0,
			"0.023": 0.0,
			"0.024": 0.0,
			"0.025": 0.0
		}
	}
}
