{
	 "smiles": "S=C1SC2=CC=CC=C2N1CN1CCCCC1", 
	 "Tm": 550.15, 
	 "num_atms": 33, 
	 "gaussian": { 
		 "optdone": 1, 
		 "sigma_profile": "yes", 
		 "theory": "DFT", 
		 "functional": "B3LYP", 
		 "basiset": "6-31G**", 
		 "properties": { 
			 "R2extent": 5606.6922, 
			 "electric_dipole_moment_norm": 4.69008066135, 
			 "electric_quadrupole_moment_norm": 14.4555464705, 
			 "total_energy": -1410.92026897, 
			 "HOMO_LUMO_gap": 0.16557, 
			 "cosmo_polarized_energy": -10.61, 
			 "cosmo_cavitation_energy": 36.61, 
			 "cosmo_dispersion_energy": -26.86, 
			 "cosmo_repulsion_energy": 1.97, 
			 "cosmo_total_nonelectrostatic_energy": 11.73, 
			 "SMD_solvation_energy": 2.89 
		},
		"coords": [
			{
				"x": -2.5929940408,
				"y": 1.9393128244,
				"z": -1.7040794092,
				"element": "S" 
			},
			{
				"x": -0.9764736263,
				"y": 1.5497998972,
				"z": -1.7351332702,
				"element": "C" 
			},
			{
				"x": 0.1192368344,
				"y": 2.1308808265,
				"z": -3.0048156106,
				"element": "S" 
			},
			{
				"x": 1.4955973009,
				"y": 1.3038240666,
				"z": -2.2860210624,
				"element": "C" 
			},
			{
				"x": 2.8210486879,
				"y": 1.2804280316,
				"z": -2.7165398,
				"element": "C" 
			},
			{
				"x": 3.7499192078,
				"y": 0.5528592737,
				"z": -1.9722614112,
				"element": "C" 
			},
			{
				"x": 3.3519948057,
				"y": -0.1410993046,
				"z": -0.8229831961,
				"element": "C" 
			},
			{
				"x": 2.0261856005,
				"y": -0.1248215202,
				"z": -0.3913172102,
				"element": "C" 
			},
			{
				"x": 1.0958588222,
				"y": 0.6125258583,
				"z": -1.1301689023,
				"element": "C" 
			},
			{
				"x": -0.2686626078,
				"y": 0.7725084575,
				"z": -0.8483618941,
				"element": "N" 
			},
			{
				"x": -0.8815382176,
				"y": 0.2062405064,
				"z": 0.3654049004,
				"element": "C" 
			},
			{
				"x": -0.870522634,
				"y": -1.2444106966,
				"z": 0.3347744623,
				"element": "N" 
			},
			{
				"x": -0.945294754,
				"y": -1.8697390722,
				"z": 1.6618604551,
				"element": "C" 
			},
			{
				"x": -2.354771272,
				"y": -1.8670843945,
				"z": 2.2811698476,
				"element": "C" 
			},
			{
				"x": -3.3627018587,
				"y": -2.5096815118,
				"z": 1.3146984512,
				"element": "C" 
			},
			{
				"x": -3.2875055653,
				"y": -1.8491120418,
				"z": -0.0712223094,
				"element": "C" 
			},
			{
				"x": -1.8419188611,
				"y": -1.8425034295,
				"z": -0.5982383272,
				"element": "C" 
			},
			{
				"x": 3.1220314861,
				"y": 1.8191381389,
				"z": -3.6092940378,
				"element": "H" 
			},
			{
				"x": 4.7870875203,
				"y": 0.5230817953,
				"z": -2.2910647669,
				"element": "H" 
			},
			{
				"x": 4.0840252855,
				"y": -0.7108338311,
				"z": -0.2589517993,
				"element": "H" 
			},
			{
				"x": 1.7136793952,
				"y": -0.6929054969,
				"z": 0.4750553973,
				"element": "H" 
			},
			{
				"x": -0.2836205758,
				"y": 0.5362697934,
				"z": 1.2223032454,
				"element": "H" 
			},
			{
				"x": -1.8707426341,
				"y": 0.6733850514,
				"z": 0.4305893624,
				"element": "H" 
			},
			{
				"x": -0.6083660332,
				"y": -2.909823523,
				"z": 1.548908737,
				"element": "H" 
			},
			{
				"x": -0.2259360776,
				"y": -1.3738210754,
				"z": 2.3249107951,
				"element": "H" 
			},
			{
				"x": -2.3369319527,
				"y": -2.402905419,
				"z": 3.2382613148,
				"element": "H" 
			},
			{
				"x": -2.6598584902,
				"y": -0.8355630953,
				"z": 2.5040319851,
				"element": "H" 
			},
			{
				"x": -3.1319826807,
				"y": -3.5808006615,
				"z": 1.2188969734,
				"element": "H" 
			},
			{
				"x": -4.3792734766,
				"y": -2.4446781139,
				"z": 1.7189755792,
				"element": "H" 
			},
			{
				"x": -3.6620216068,
				"y": -0.8191059019,
				"z": -0.0186756395,
				"element": "H" 
			},
			{
				"x": -3.9309445279,
				"y": -2.3753842254,
				"z": -0.7864510442,
				"element": "H" 
			},
			{
				"x": -1.5147529869,
				"y": -2.8746623883,
				"z": -0.7844008094,
				"element": "H" 
			},
			{
				"x": -1.7801504665,
				"y": -1.3116188181,
				"z": -1.5525610065,
				"element": "H" 
			}
		],
		 "valence_orbital": [ 
			{
				"type": "occ",
				"energy": -0.28069,
				"method": "rhf"
			},
			{
				"type": "occ",
				"energy": -0.24851,
				"method": "rhf"
			},
			{
				"type": "occ",
				"energy": -0.2277,
				"method": "rhf"
			},
			{
				"type": "occ",
				"energy": -0.20909,
				"method": "rhf"
			},
			{
				"type": "occ",
				"energy": -0.20866,
				"method": "rhf"
			},
			{
				"type": "unocc",
				"energy": -0.04309,
				"method": "rhf"
			},
			{
				"type": "unocc",
				"energy": -0.01501,
				"method": "rhf"
			},
			{
				"type": "unocc",
				"energy": 0.00241,
				"method": "rhf"
			},
			{
				"type": "unocc",
				"energy": 0.00577,
				"method": "rhf"
			},
			{
				"type": "unocc",
				"energy": 0.0694,
				"method": "rhf"
			}
		],
		"cosmo_sigma_profile": { 
			"-0.025": 0.0,
			"-0.024": 0.0,
			"-0.023": 0.0,
			"-0.022": 0.0,
			"-0.021": 0.0,
			"-0.02": 0.0,
			"-0.019": 0.0,
			"-0.018": 0.0,
			"-0.017": 0.0,
			"-0.016": 0.0,
			"-0.015": 0.0,
			"-0.014": 0.0,
			"-0.013": 0.0,
			"-0.012": 0.0,
			"-0.011": 0.0,
			"-0.01": 0.0,
			"-0.009": 0.0387159660157,
			"-0.008": 2.04575297002,
			"-0.007": 7.86978442841,
			"-0.006": 11.526302897,
			"-0.005": 14.2286223356,
			"-0.004": 14.2434385708,
			"-0.003": 29.0736294258,
			"-0.002": 32.8905813861,
			"-0.001": 32.5113636692,
			"0.0": 29.6571411224,
			"0.001": 27.1960519553,
			"0.002": 20.4127518038,
			"0.003": 19.6516364849,
			"0.004": 17.0505446075,
			"0.005": 6.47466715198,
			"0.006": 6.88603057563,
			"0.007": 5.65822907959,
			"0.008": 6.36891196818,
			"0.009": 6.13878786869,
			"0.01": 3.04960501127,
			"0.011": 0.905926674843,
			"0.012": 0.0,
			"0.013": 0.0,
			"0.014": 0.0,
			"0.015": 0.0,
			"0.016": 0.0,
			"0.017": 0.0,
			"0.018": 0.0,
			"0.019": 0.0,
			"0.02": 0.0,
			"0.021": 0.0,
			"0.022": 0.0,
			"0.023": 0.0,
			"0.024": 0.0,
			"0.025": 0.0
		}
	}
}
