{
	 "smiles": "CN1COCN(CC2=CN=C(Cl)S2)C1=N[N+]([O-])=O", 
	 "Tm": 412.15, 
	 "num_atms": 28, 
	 "gaussian": { 
		 "optdone": 1, 
		 "sigma_profile": "yes", 
		 "theory": "DFT", 
		 "functional": "B3LYP", 
		 "basiset": "6-31G**", 
		 "properties": { 
			 "R2extent": 7227.818, 
			 "electric_dipole_moment_norm": 6.90265468425, 
			 "electric_quadrupole_moment_norm": 18.6738575712, 
			 "total_energy": -1668.51478631, 
			 "HOMO_LUMO_gap": 0.19562, 
			 "cosmo_polarized_energy": -22.26, 
			 "cosmo_cavitation_energy": 35.86, 
			 "cosmo_dispersion_energy": -25.76, 
			 "cosmo_repulsion_energy": 1.95, 
			 "cosmo_total_nonelectrostatic_energy": 12.04, 
			 "SMD_solvation_energy": 5.48 
		},
		"coords": [
			{
				"x": 2.2740383065,
				"y": 1.2529132962,
				"z": -1.5543960759,
				"element": "C" 
			},
			{
				"x": 1.7670042988,
				"y": 0.1761557911,
				"z": -0.7126900718,
				"element": "N" 
			},
			{
				"x": 2.8023128528,
				"y": -0.5999056845,
				"z": -0.0098348974,
				"element": "C" 
			},
			{
				"x": 2.2539990465,
				"y": -1.5847611613,
				"z": 0.8232076767,
				"element": "O" 
			},
			{
				"x": 1.0501516625,
				"y": -1.1247634067,
				"z": 1.4097881908,
				"element": "C" 
			},
			{
				"x": 0.065897613,
				"y": -0.9408767836,
				"z": 0.364487741,
				"element": "N" 
			},
			{
				"x": -1.2611474287,
				"y": -1.5612916054,
				"z": 0.4234503167,
				"element": "C" 
			},
			{
				"x": -2.2879956293,
				"y": -0.7344140664,
				"z": 1.1536389459,
				"element": "C" 
			},
			{
				"x": -3.02981168,
				"y": 0.3084931198,
				"z": 0.6706645738,
				"element": "C" 
			},
			{
				"x": -3.8818685865,
				"y": 0.9248638894,
				"z": 1.5610874484,
				"element": "N" 
			},
			{
				"x": -3.7961296924,
				"y": 0.367720204,
				"z": 2.7218746354,
				"element": "C" 
			},
			{
				"x": -4.7195091844,
				"y": 0.8596545996,
				"z": 4.1004138422,
				"element": "Cl" 
			},
			{
				"x": -2.6703315861,
				"y": -0.9706781666,
				"z": 2.8471663265,
				"element": "S" 
			},
			{
				"x": 0.4574172585,
				"y": -0.2022663947,
				"z": -0.716433622,
				"element": "C" 
			},
			{
				"x": -0.4930865106,
				"y": 0.1852837203,
				"z": -1.5585752068,
				"element": "N" 
			},
			{
				"x": -0.142524666,
				"y": 0.3383955816,
				"z": -2.8925494212,
				"element": "N" 
			},
			{
				"x": -0.8546947627,
				"y": 1.0975481409,
				"z": -3.5418666266,
				"element": "O" 
			},
			{
				"x": 0.7867611129,
				"y": -0.3346214372,
				"z": -3.3672744187,
				"element": "O" 
			},
			{
				"x": 2.6499999046,
				"y": 0.8800043239,
				"z": -2.5115082748,
				"element": "H" 
			},
			{
				"x": 1.4752969752,
				"y": 1.9706583209,
				"z": -1.7464882006,
				"element": "H" 
			},
			{
				"x": 3.0753482842,
				"y": 1.7640579903,
				"z": -1.0107034904,
				"element": "H" 
			},
			{
				"x": 3.4181040781,
				"y": 0.1174637284,
				"z": 0.5584360584,
				"element": "H" 
			},
			{
				"x": 3.4401501794,
				"y": -1.1214393455,
				"z": -0.7338063989,
				"element": "H" 
			},
			{
				"x": 0.7066080088,
				"y": -1.893817053,
				"z": 2.102119162,
				"element": "H" 
			},
			{
				"x": 1.2253783164,
				"y": -0.1864764292,
				"z": 1.9576743239,
				"element": "H" 
			},
			{
				"x": -1.5958644246,
				"y": -1.7065359926,
				"z": -0.6045594847,
				"element": "H" 
			},
			{
				"x": -1.1511225384,
				"y": -2.5467115961,
				"z": 0.8875903399,
				"element": "H" 
			},
			{
				"x": -2.9647812085,
				"y": 0.6708464166,
				"z": -0.3485133917,
				"element": "H" 
			}
		],
		 "valence_orbital": [ 
			{
				"type": "occ",
				"energy": -0.28604,
				"method": "rhf"
			},
			{
				"type": "occ",
				"energy": -0.27535,
				"method": "rhf"
			},
			{
				"type": "occ",
				"energy": -0.26903,
				"method": "rhf"
			},
			{
				"type": "occ",
				"energy": -0.25209,
				"method": "rhf"
			},
			{
				"type": "occ",
				"energy": -0.24823,
				"method": "rhf"
			},
			{
				"type": "unocc",
				"energy": -0.05261,
				"method": "rhf"
			},
			{
				"type": "unocc",
				"energy": -0.04385,
				"method": "rhf"
			},
			{
				"type": "unocc",
				"energy": -0.01898,
				"method": "rhf"
			},
			{
				"type": "unocc",
				"energy": 0.01216,
				"method": "rhf"
			},
			{
				"type": "unocc",
				"energy": 0.01835,
				"method": "rhf"
			}
		],
		"cosmo_sigma_profile": { 
			"-0.025": 0.0,
			"-0.024": 0.0,
			"-0.023": 0.0,
			"-0.022": 0.0,
			"-0.021": 0.0,
			"-0.02": 0.0,
			"-0.019": 0.0,
			"-0.018": 0.0,
			"-0.017": 0.0,
			"-0.016": 0.0,
			"-0.015": 0.0,
			"-0.014": 0.0,
			"-0.013": 0.0,
			"-0.012": 0.229466265909,
			"-0.011": 1.10871237517,
			"-0.01": 2.72841496833,
			"-0.009": 3.96882117226,
			"-0.008": 8.34149889779,
			"-0.007": 18.1531593182,
			"-0.006": 19.8066003327,
			"-0.005": 18.2679875468,
			"-0.004": 17.6563925979,
			"-0.003": 20.1368928688,
			"-0.002": 18.7727929167,
			"-0.001": 19.7832218329,
			"0.0": 19.3399964126,
			"0.001": 19.212685293,
			"0.002": 18.9793910323,
			"0.003": 14.7593243051,
			"0.004": 7.5709372705,
			"0.005": 6.74269303281,
			"0.006": 5.61433579818,
			"0.007": 7.20853405164,
			"0.008": 5.26755090921,
			"0.009": 12.0889950252,
			"0.01": 11.105354937,
			"0.011": 7.46599172125,
			"0.012": 4.38148448211,
			"0.013": 1.02970633856,
			"0.014": 0.457277927979,
			"0.015": 0.0,
			"0.016": 0.0,
			"0.017": 0.0,
			"0.018": 0.0,
			"0.019": 0.0,
			"0.02": 0.0,
			"0.021": 0.0,
			"0.022": 0.0,
			"0.023": 0.0,
			"0.024": 0.0,
			"0.025": 0.0
		}
	}
}
