{
	 "smiles": "CC1=C(F)C(=CC(=C1)[N+]([O-])=O)S(Cl)(=O)=O", 
	 "Tm": 347.15, 
	 "num_atms": 20, 
	 "gaussian": { 
		 "optdone": 1, 
		 "sigma_profile": "yes", 
		 "theory": "DFT", 
		 "functional": "B3LYP", 
		 "basiset": "6-31G**", 
		 "properties": { 
			 "R2extent": 6843.9208, 
			 "electric_dipole_moment_norm": 5.0200913906, 
			 "electric_quadrupole_moment_norm": 23.6323058149, 
			 "total_energy": -1583.44543, 
			 "HOMO_LUMO_gap": 0.187, 
			 "cosmo_polarized_energy": -12.19, 
			 "cosmo_cavitation_energy": 29.44, 
			 "cosmo_dispersion_energy": -21.62, 
			 "cosmo_repulsion_energy": 1.64, 
			 "cosmo_total_nonelectrostatic_energy": 9.46, 
			 "SMD_solvation_energy": 6.51 
		},
		"coords": [
			{
				"x": 1.5386717422,
				"y": 1.0108751855,
				"z": -3.1686283279,
				"element": "C" 
			},
			{
				"x": 1.0171388165,
				"y": 1.2490428827,
				"z": -1.7756049862,
				"element": "C" 
			},
			{
				"x": 1.1945231283,
				"y": 2.4971890478,
				"z": -1.1677939241,
				"element": "C" 
			},
			{
				"x": 1.8423095129,
				"y": 3.4459691803,
				"z": -1.8478305492,
				"element": "F" 
			},
			{
				"x": 0.7310587213,
				"y": 2.7668397308,
				"z": 0.1235197494,
				"element": "C" 
			},
			{
				"x": 0.0704786057,
				"y": 1.7843071651,
				"z": 0.8566346749,
				"element": "C" 
			},
			{
				"x": -0.1068495527,
				"y": 0.5464514705,
				"z": 0.2517876804,
				"element": "C" 
			},
			{
				"x": 0.3503001392,
				"y": 0.2708591288,
				"z": -1.0369819659,
				"element": "C" 
			},
			{
				"x": -0.8050640362,
				"y": -0.5126446556,
				"z": 1.0017607319,
				"element": "N" 
			},
			{
				"x": -1.1988982042,
				"y": -0.2382566149,
				"z": 2.1321639354,
				"element": "O" 
			},
			{
				"x": -0.945072829,
				"y": -1.5992133599,
				"z": 0.4441730491,
				"element": "O" 
			},
			{
				"x": 0.9111174251,
				"y": 4.3934327653,
				"z": 0.8554210224,
				"element": "S" 
			},
			{
				"x": 3.0056777874,
				"y": 4.4674392598,
				"z": 1.1564269473,
				"element": "Cl" 
			},
			{
				"x": 0.5861799389,
				"y": 5.4143021831,
				"z": -0.127947298,
				"element": "O" 
			},
			{
				"x": 0.2982889096,
				"y": 4.3596150281,
				"z": 2.1757132859,
				"element": "O" 
			},
			{
				"x": 2.6218250291,
				"y": 1.1626331725,
				"z": -3.2136136421,
				"element": "H" 
			},
			{
				"x": 1.0870796457,
				"y": 1.7080501918,
				"z": -3.88153429,
				"element": "H" 
			},
			{
				"x": 1.3185638629,
				"y": -0.0074146198,
				"z": -3.4943653876,
				"element": "H" 
			},
			{
				"x": -0.292867074,
				"y": 1.9761770051,
				"z": 1.858152869,
				"element": "H" 
			},
			{
				"x": 0.1804384312,
				"y": -0.7158541468,
				"z": -1.4510535747,
				"element": "H" 
			}
		],
		 "valence_orbital": [ 
			{
				"type": "occ",
				"energy": -0.32884,
				"method": "rhf"
			},
			{
				"type": "occ",
				"energy": -0.32753,
				"method": "rhf"
			},
			{
				"type": "occ",
				"energy": -0.31395,
				"method": "rhf"
			},
			{
				"type": "occ",
				"energy": -0.31379,
				"method": "rhf"
			},
			{
				"type": "occ",
				"energy": -0.30091,
				"method": "rhf"
			},
			{
				"type": "unocc",
				"energy": -0.11391,
				"method": "rhf"
			},
			{
				"type": "unocc",
				"energy": -0.10152,
				"method": "rhf"
			},
			{
				"type": "unocc",
				"energy": -0.06873,
				"method": "rhf"
			},
			{
				"type": "unocc",
				"energy": -0.03203,
				"method": "rhf"
			},
			{
				"type": "unocc",
				"energy": 0.0262,
				"method": "rhf"
			}
		],
		"cosmo_sigma_profile": { 
			"-0.025": 0.0,
			"-0.024": 0.0,
			"-0.023": 0.0,
			"-0.022": 0.0,
			"-0.021": 0.0,
			"-0.02": 0.0,
			"-0.019": 0.0,
			"-0.018": 0.0,
			"-0.017": 0.0,
			"-0.016": 0.0,
			"-0.015": 0.0,
			"-0.014": 0.0,
			"-0.013": 0.0,
			"-0.012": 0.0,
			"-0.011": 0.0,
			"-0.01": 0.239033525752,
			"-0.009": 1.68358934114,
			"-0.008": 3.72898021313,
			"-0.007": 6.34488491883,
			"-0.006": 13.4962468657,
			"-0.005": 17.5261226874,
			"-0.004": 23.4789324867,
			"-0.003": 24.3736816534,
			"-0.002": 21.0772043852,
			"-0.001": 10.8991983841,
			"0.0": 10.0344611993,
			"0.001": 14.0360262469,
			"0.002": 22.6822310057,
			"0.003": 12.5105898614,
			"0.004": 5.15319085336,
			"0.005": 7.128692107,
			"0.006": 11.2076920931,
			"0.007": 17.3433717198,
			"0.008": 12.3060541824,
			"0.009": 3.72851865656,
			"0.01": 0.454179417925,
			"0.011": 0.0,
			"0.012": 0.0,
			"0.013": 0.0,
			"0.014": 0.0,
			"0.015": 0.0,
			"0.016": 0.0,
			"0.017": 0.0,
			"0.018": 0.0,
			"0.019": 0.0,
			"0.02": 0.0,
			"0.021": 0.0,
			"0.022": 0.0,
			"0.023": 0.0,
			"0.024": 0.0,
			"0.025": 0.0
		}
	}
}
