{
	 "smiles": "OC1(CCC(=O)CC1)C1=CC(Cl)=CC=C1", 
	 "Tm": 393.15, 
	 "num_atms": 28, 
	 "gaussian": { 
		 "optdone": 1, 
		 "sigma_profile": "yes", 
		 "theory": "DFT", 
		 "functional": "B3LYP", 
		 "basiset": "6-31G**", 
		 "properties": { 
			 "R2extent": 5181.9065, 
			 "electric_dipole_moment_norm": 2.4170883331, 
			 "electric_quadrupole_moment_norm": 18.9332038065, 
			 "total_energy": -1075.74997921, 
			 "HOMO_LUMO_gap": 0.21899, 
			 "cosmo_polarized_energy": -13.77, 
			 "cosmo_cavitation_energy": 31.85, 
			 "cosmo_dispersion_energy": -23.05, 
			 "cosmo_repulsion_energy": 1.8, 
			 "cosmo_total_nonelectrostatic_energy": 10.61, 
			 "SMD_solvation_energy": 5.25 
		},
		"coords": [
			{
				"x": -1.4572520097,
				"y": 0.6140452629,
				"z": 0.9592985161,
				"element": "O" 
			},
			{
				"x": -0.6103802619,
				"y": 0.0206350833,
				"z": -0.0351404314,
				"element": "C" 
			},
			{
				"x": -0.8919037551,
				"y": 0.8636807154,
				"z": -1.3213686808,
				"element": "C" 
			},
			{
				"x": 0.3725893068,
				"y": 1.2647787278,
				"z": -2.0952496783,
				"element": "C" 
			},
			{
				"x": 1.3635476745,
				"y": 2.0266387842,
				"z": -1.2194584198,
				"element": "C" 
			},
			{
				"x": 2.108885814,
				"y": 2.8784357592,
				"z": -1.6606661886,
				"element": "O" 
			},
			{
				"x": 1.3463533819,
				"y": 1.6257617895,
				"z": 0.2516705005,
				"element": "C" 
			},
			{
				"x": 0.8629949054,
				"y": 0.1801399383,
				"z": 0.4210148942,
				"element": "C" 
			},
			{
				"x": -0.9876341621,
				"y": -1.4527043138,
				"z": -0.254644762,
				"element": "C" 
			},
			{
				"x": -2.2107773731,
				"y": -1.9291804149,
				"z": 0.2347292336,
				"element": "C" 
			},
			{
				"x": -2.5820319919,
				"y": -3.2541937309,
				"z": 0.0143068678,
				"element": "C" 
			},
			{
				"x": -4.1197969559,
				"y": -3.8271513822,
				"z": 0.650311962,
				"element": "Cl" 
			},
			{
				"x": -1.7691230576,
				"y": -4.1329858673,
				"z": -0.6976077546,
				"element": "C" 
			},
			{
				"x": -0.5589756394,
				"y": -3.6528750034,
				"z": -1.1988819675,
				"element": "C" 
			},
			{
				"x": -0.1698997071,
				"y": -2.3312372228,
				"z": -0.9816796771,
				"element": "C" 
			},
			{
				"x": -1.3193189152,
				"y": 0.1355754067,
				"z": 1.7895490634,
				"element": "H" 
			},
			{
				"x": -1.58390795,
				"y": 0.3292467981,
				"z": -1.9769750696,
				"element": "H" 
			},
			{
				"x": -1.4104783827,
				"y": 1.7672782462,
				"z": -0.9858431498,
				"element": "H" 
			},
			{
				"x": 0.8890281029,
				"y": 0.3716607997,
				"z": -2.476957634,
				"element": "H" 
			},
			{
				"x": 0.1354502202,
				"y": 1.8792651987,
				"z": -2.9679492878,
				"element": "H" 
			},
			{
				"x": 0.6541850059,
				"y": 2.3002190573,
				"z": 0.7742699319,
				"element": "H" 
			},
			{
				"x": 2.3410044562,
				"y": 1.7927578304,
				"z": 0.6739830143,
				"element": "H" 
			},
			{
				"x": 1.5193175524,
				"y": -0.4893356149,
				"z": -0.1434993038,
				"element": "H" 
			},
			{
				"x": 0.9401544463,
				"y": -0.1387191343,
				"z": 1.4675911173,
				"element": "H" 
			},
			{
				"x": -2.8729156943,
				"y": -1.2610864159,
				"z": 0.7713068538,
				"element": "H" 
			},
			{
				"x": -2.0768554043,
				"y": -5.1602992215,
				"z": -0.856246232,
				"element": "H" 
			},
			{
				"x": 0.0877639599,
				"y": -4.3195249929,
				"z": -1.761795301,
				"element": "H" 
			},
			{
				"x": 0.7771764338,
				"y": -1.9930260828,
				"z": -1.3890684165,
				"element": "H" 
			}
		],
		 "valence_orbital": [ 
			{
				"type": "occ",
				"energy": -0.31502,
				"method": "rhf"
			},
			{
				"type": "occ",
				"energy": -0.28972,
				"method": "rhf"
			},
			{
				"type": "occ",
				"energy": -0.26391,
				"method": "rhf"
			},
			{
				"type": "occ",
				"energy": -0.25117,
				"method": "rhf"
			},
			{
				"type": "occ",
				"energy": -0.24092,
				"method": "rhf"
			},
			{
				"type": "unocc",
				"energy": -0.02193,
				"method": "rhf"
			},
			{
				"type": "unocc",
				"energy": -0.02144,
				"method": "rhf"
			},
			{
				"type": "unocc",
				"energy": -0.01434,
				"method": "rhf"
			},
			{
				"type": "unocc",
				"energy": 0.02653,
				"method": "rhf"
			},
			{
				"type": "unocc",
				"energy": 0.06285,
				"method": "rhf"
			}
		],
		"cosmo_sigma_profile": { 
			"-0.025": 0.0,
			"-0.024": 0.0,
			"-0.023": 0.0,
			"-0.022": 0.0,
			"-0.021": 0.0,
			"-0.02": 0.0,
			"-0.019": 0.0,
			"-0.018": 0.0,
			"-0.017": 0.0,
			"-0.016": 0.0365149631952,
			"-0.015": 0.640332531871,
			"-0.014": 0.845957155604,
			"-0.013": 1.07751998572,
			"-0.012": 1.07796516923,
			"-0.011": 1.34954122451,
			"-0.01": 0.798008361385,
			"-0.009": 1.20248787618,
			"-0.008": 3.20555373951,
			"-0.007": 7.26562556988,
			"-0.006": 12.1404532012,
			"-0.005": 17.3058183214,
			"-0.004": 20.188325192,
			"-0.003": 21.3797896649,
			"-0.002": 22.6718525125,
			"-0.001": 19.5916966358,
			"0.0": 13.4552604678,
			"0.001": 13.9439167139,
			"0.002": 17.1195752098,
			"0.003": 17.3733214181,
			"0.004": 19.8462789616,
			"0.005": 12.9677734968,
			"0.006": 3.29405019698,
			"0.007": 2.56403534909,
			"0.008": 2.01338866695,
			"0.009": 2.58852764496,
			"0.01": 2.53262139079,
			"0.011": 4.61855117207,
			"0.012": 5.34547201731,
			"0.013": 4.37007071881,
			"0.014": 0.560986745377,
			"0.015": 0.0,
			"0.016": 0.0,
			"0.017": 0.0,
			"0.018": 0.0,
			"0.019": 0.0,
			"0.02": 0.0,
			"0.021": 0.0,
			"0.022": 0.0,
			"0.023": 0.0,
			"0.024": 0.0,
			"0.025": 0.0
		}
	}
}
