{
	 "smiles": "CC1=CC2=C(NC(S)=N2)C=C1", 
	 "Tm": 565.15, 
	 "num_atms": 19, 
	 "gaussian": { 
		 "optdone": 1, 
		 "sigma_profile": "yes", 
		 "theory": "DFT", 
		 "functional": "B3LYP", 
		 "basiset": "6-31G**", 
		 "properties": { 
			 "R2extent": 3347.5261, 
			 "electric_dipole_moment_norm": 2.13899192144, 
			 "electric_quadrupole_moment_norm": 7.89233919697, 
			 "total_energy": -817.374978443, 
			 "HOMO_LUMO_gap": 0.19908, 
			 "cosmo_polarized_energy": -11.99, 
			 "cosmo_cavitation_energy": 24.67, 
			 "cosmo_dispersion_energy": -19.12, 
			 "cosmo_repulsion_energy": 1.48, 
			 "cosmo_total_nonelectrostatic_energy": 7.03, 
			 "SMD_solvation_energy": 1.58 
		},
		"coords": [
			{
				"x": -0.4390597672,
				"y": -2.6995295689,
				"z": 1.5809136034,
				"element": "C" 
			},
			{
				"x": 0.107588646,
				"y": -1.5056880039,
				"z": 0.8299828695,
				"element": "C" 
			},
			{
				"x": 1.4830068419,
				"y": -1.2900945287,
				"z": 0.7361395795,
				"element": "C" 
			},
			{
				"x": 1.9496333154,
				"y": -0.1737272756,
				"z": 0.0317481505,
				"element": "C" 
			},
			{
				"x": 1.0289452107,
				"y": 0.712926932,
				"z": -0.5700344005,
				"element": "C" 
			},
			{
				"x": 1.820154002,
				"y": 1.6848022188,
				"z": -1.1706391288,
				"element": "N" 
			},
			{
				"x": 3.1278306267,
				"y": 1.341042253,
				"z": -0.9059742269,
				"element": "C" 
			},
			{
				"x": 4.452610311,
				"y": 2.3462397638,
				"z": -1.5104029065,
				"element": "S" 
			},
			{
				"x": 3.256106036,
				"y": 0.2488608593,
				"z": -0.1978290918,
				"element": "N" 
			},
			{
				"x": -0.3495424131,
				"y": 0.5198080302,
				"z": -0.4907077224,
				"element": "C" 
			},
			{
				"x": -0.7866354624,
				"y": -0.5978791029,
				"z": 0.2155065947,
				"element": "C" 
			},
			{
				"x": -1.0350144012,
				"y": -3.3467380045,
				"z": 0.9265806251,
				"element": "H" 
			},
			{
				"x": -1.0911378602,
				"y": -2.3903822939,
				"z": 2.4063407066,
				"element": "H" 
			},
			{
				"x": 0.3664586653,
				"y": -3.3061932857,
				"z": 2.0034469928,
				"element": "H" 
			},
			{
				"x": 2.1905637366,
				"y": -1.971541414,
				"z": 1.1986929799,
				"element": "H" 
			},
			{
				"x": 1.5042993242,
				"y": 2.4850019302,
				"z": -1.6958018729,
				"element": "H" 
			},
			{
				"x": 5.399608809,
				"y": 1.5574197045,
				"z": -0.9709206194,
				"element": "H" 
			},
			{
				"x": -1.0555526531,
				"y": 1.2026185722,
				"z": -0.9539238489,
				"element": "H" 
			},
			{
				"x": -1.8550629676,
				"y": -0.7804467861,
				"z": 0.2982817161,
				"element": "H" 
			}
		],
		 "valence_orbital": [ 
			{
				"type": "occ",
				"energy": -0.30877,
				"method": "rhf"
			},
			{
				"type": "occ",
				"energy": -0.27962,
				"method": "rhf"
			},
			{
				"type": "occ",
				"energy": -0.27565,
				"method": "rhf"
			},
			{
				"type": "occ",
				"energy": -0.22301,
				"method": "rhf"
			},
			{
				"type": "occ",
				"energy": -0.21017,
				"method": "rhf"
			},
			{
				"type": "unocc",
				"energy": -0.01109,
				"method": "rhf"
			},
			{
				"type": "unocc",
				"energy": 0.00259,
				"method": "rhf"
			},
			{
				"type": "unocc",
				"energy": 0.0222,
				"method": "rhf"
			},
			{
				"type": "unocc",
				"energy": 0.05268,
				"method": "rhf"
			},
			{
				"type": "unocc",
				"energy": 0.06722,
				"method": "rhf"
			}
		],
		"cosmo_sigma_profile": { 
			"-0.025": 0.0,
			"-0.024": 0.0,
			"-0.023": 0.0,
			"-0.022": 0.0,
			"-0.021": 0.0,
			"-0.02": 0.0,
			"-0.019": 0.0,
			"-0.018": 0.0,
			"-0.017": 0.970891346233,
			"-0.016": 1.49590621045,
			"-0.015": 1.34391138837,
			"-0.014": 1.55489494792,
			"-0.013": 0.83014224084,
			"-0.012": 2.45208008058,
			"-0.011": 2.75316616906,
			"-0.01": 1.92263343122,
			"-0.009": 2.55034284183,
			"-0.008": 2.78733544671,
			"-0.007": 2.68012857787,
			"-0.006": 4.90164391923,
			"-0.005": 7.36854795968,
			"-0.004": 11.4468723793,
			"-0.003": 13.3121351643,
			"-0.002": 14.8774566006,
			"-0.001": 12.8375737218,
			"0.0": 15.7532816826,
			"0.001": 16.8322201772,
			"0.002": 14.4758812134,
			"0.003": 14.0015667948,
			"0.004": 11.9510062155,
			"0.005": 14.2952939278,
			"0.006": 11.487895976,
			"0.007": 4.61888647977,
			"0.008": 1.53488704221,
			"0.009": 1.5766868464,
			"0.01": 0.966743625652,
			"0.011": 0.641719939982,
			"0.012": 0.963265077918,
			"0.013": 1.43964978554,
			"0.014": 1.05424872582,
			"0.015": 0.714611393872,
			"0.016": 0.66145226079,
			"0.017": 0.478878790858,
			"0.018": 0.0,
			"0.019": 0.0,
			"0.02": 0.0,
			"0.021": 0.0,
			"0.022": 0.0,
			"0.023": 0.0,
			"0.024": 0.0,
			"0.025": 0.0
		}
	}
}
