{
	 "smiles": "CC(Cl)C(=O)NC(C)C1=CC2=C(OCCO2)C=C1", 
	 "Tm": 384.15, 
	 "num_atms": 34, 
	 "gaussian": { 
		 "optdone": 1, 
		 "sigma_profile": "yes", 
		 "theory": "DFT", 
		 "functional": "B3LYP", 
		 "basiset": "6-31G**", 
		 "properties": { 
			 "R2extent": 5624.7137, 
			 "electric_dipole_moment_norm": 4.56628128131, 
			 "electric_quadrupole_moment_norm": 23.2334346159, 
			 "total_energy": -1245.63955626, 
			 "HOMO_LUMO_gap": 0.20328, 
			 "cosmo_polarized_energy": -18.27, 
			 "cosmo_cavitation_energy": 37.65, 
			 "cosmo_dispersion_energy": -25.99, 
			 "cosmo_repulsion_energy": 2.02, 
			 "cosmo_total_nonelectrostatic_energy": 13.67, 
			 "SMD_solvation_energy": 6.84 
		},
		"coords": [
			{
				"x": -0.4168769539,
				"y": -1.3748509985,
				"z": -3.1210396054,
				"element": "C" 
			},
			{
				"x": 0.0516141234,
				"y": -0.5892774576,
				"z": -1.9052001118,
				"element": "C" 
			},
			{
				"x": -0.1125830063,
				"y": 1.2062355206,
				"z": -2.227788544,
				"element": "Cl" 
			},
			{
				"x": 1.5331389222,
				"y": -0.8739967335,
				"z": -1.6114711595,
				"element": "C" 
			},
			{
				"x": 2.3616201695,
				"y": -0.8453357416,
				"z": -2.5106736529,
				"element": "O" 
			},
			{
				"x": 1.9063484632,
				"y": -1.1484616269,
				"z": -0.3184777066,
				"element": "N" 
			},
			{
				"x": 1.1106174907,
				"y": -1.5423982947,
				"z": 0.8623741154,
				"element": "C" 
			},
			{
				"x": 0.4565403707,
				"y": -2.9209255277,
				"z": 0.6753111156,
				"element": "C" 
			},
			{
				"x": 0.1714278636,
				"y": -0.4362991406,
				"z": 1.3484904898,
				"element": "C" 
			},
			{
				"x": 0.6601311756,
				"y": 0.8725882388,
				"z": 1.4439675744,
				"element": "C" 
			},
			{
				"x": -0.1363209435,
				"y": 1.9028448716,
				"z": 1.9340839532,
				"element": "C" 
			},
			{
				"x": -1.4522228801,
				"y": 1.6342441095,
				"z": 2.3550257063,
				"element": "C" 
			},
			{
				"x": -2.2707457339,
				"y": 2.6152120109,
				"z": 2.8549398914,
				"element": "O" 
			},
			{
				"x": -1.5872499356,
				"y": 3.8173655595,
				"z": 3.213241642,
				"element": "C" 
			},
			{
				"x": -0.5853931195,
				"y": 4.1947400553,
				"z": 2.1342360545,
				"element": "C" 
			},
			{
				"x": 0.3955492306,
				"y": 3.1663982534,
				"z": 1.9956386936,
				"element": "O" 
			},
			{
				"x": -1.9480649668,
				"y": 0.3370715428,
				"z": 2.2539314806,
				"element": "C" 
			},
			{
				"x": -1.1459888621,
				"y": -0.6895506794,
				"z": 1.7539081675,
				"element": "C" 
			},
			{
				"x": 0.2443004738,
				"y": -1.1758201754,
				"z": -3.9660083587,
				"element": "H" 
			},
			{
				"x": -0.3804967547,
				"y": -2.4484843003,
				"z": -2.9003219748,
				"element": "H" 
			},
			{
				"x": -1.4430288711,
				"y": -1.1077341671,
				"z": -3.3825254922,
				"element": "H" 
			},
			{
				"x": -0.5826562038,
				"y": -0.7616977939,
				"z": -1.0381419336,
				"element": "H" 
			},
			{
				"x": 2.8941714497,
				"y": -1.3674962321,
				"z": -0.2757835636,
				"element": "H" 
			},
			{
				"x": 1.871209325,
				"y": -1.6637733406,
				"z": 1.6442483643,
				"element": "H" 
			},
			{
				"x": 1.2083572653,
				"y": -3.6395443083,
				"z": 0.3380536217,
				"element": "H" 
			},
			{
				"x": -0.3465225339,
				"y": -2.8980492861,
				"z": -0.0681083866,
				"element": "H" 
			},
			{
				"x": 0.037204749,
				"y": -3.2880652515,
				"z": 1.6164598394,
				"element": "H" 
			},
			{
				"x": 1.6638897772,
				"y": 1.1175106119,
				"z": 1.1128716355,
				"element": "H" 
			},
			{
				"x": -2.3548305034,
				"y": 4.5865016975,
				"z": 3.3308106163,
				"element": "H" 
			},
			{
				"x": -1.069001125,
				"y": 3.6796470379,
				"z": 4.1721215105,
				"element": "H" 
			},
			{
				"x": -0.0437612758,
				"y": 5.1067040972,
				"z": 2.3972056244,
				"element": "H" 
			},
			{
				"x": -1.102846737,
				"y": 4.3479379457,
				"z": 1.1776735758,
				"element": "H" 
			},
			{
				"x": -2.9668881358,
				"y": 0.1483152049,
				"z": 2.5765470836,
				"element": "H" 
			},
			{
				"x": -1.5618423074,
				"y": -1.6887557018,
				"z": 1.6931997342,
				"element": "H" 
			}
		],
		 "valence_orbital": [ 
			{
				"type": "occ",
				"energy": -0.28735,
				"method": "rhf"
			},
			{
				"type": "occ",
				"energy": -0.25709,
				"method": "rhf"
			},
			{
				"type": "occ",
				"energy": -0.25017,
				"method": "rhf"
			},
			{
				"type": "occ",
				"energy": -0.23483,
				"method": "rhf"
			},
			{
				"type": "occ",
				"energy": -0.21443,
				"method": "rhf"
			},
			{
				"type": "unocc",
				"energy": -0.01115,
				"method": "rhf"
			},
			{
				"type": "unocc",
				"energy": -0.00701,
				"method": "rhf"
			},
			{
				"type": "unocc",
				"energy": 0.00552,
				"method": "rhf"
			},
			{
				"type": "unocc",
				"energy": 0.0622,
				"method": "rhf"
			},
			{
				"type": "unocc",
				"energy": 0.07382,
				"method": "rhf"
			}
		],
		"cosmo_sigma_profile": { 
			"-0.025": 0.0,
			"-0.024": 0.0,
			"-0.023": 0.0,
			"-0.022": 0.0,
			"-0.021": 0.0,
			"-0.02": 0.0,
			"-0.019": 0.0,
			"-0.018": 0.0,
			"-0.017": 0.0,
			"-0.016": 0.0,
			"-0.015": 0.0,
			"-0.014": 0.523178223353,
			"-0.013": 1.39627490592,
			"-0.012": 0.991301056848,
			"-0.011": 1.24223264832,
			"-0.01": 1.00260493194,
			"-0.009": 1.14651651041,
			"-0.008": 1.81107989256,
			"-0.007": 8.96145818336,
			"-0.006": 19.2673814361,
			"-0.005": 28.3528660642,
			"-0.004": 28.748768213,
			"-0.003": 23.6710105997,
			"-0.002": 19.59649152,
			"-0.001": 21.3857962964,
			"0.0": 18.3241705559,
			"0.001": 11.8495079167,
			"0.002": 12.9715804135,
			"0.003": 16.1494646664,
			"0.004": 17.5488720646,
			"0.005": 17.3918771007,
			"0.006": 13.5641779025,
			"0.007": 5.29881178312,
			"0.008": 5.10685274398,
			"0.009": 4.96332653463,
			"0.01": 4.48119760212,
			"0.011": 2.73039106348,
			"0.012": 2.30049313463,
			"0.013": 5.38091131814,
			"0.014": 2.35678820751,
			"0.015": 0.0,
			"0.016": 0.0,
			"0.017": 0.0,
			"0.018": 0.0,
			"0.019": 0.0,
			"0.02": 0.0,
			"0.021": 0.0,
			"0.022": 0.0,
			"0.023": 0.0,
			"0.024": 0.0,
			"0.025": 0.0
		}
	}
}
