{
	 "smiles": "CC1=CNC(=O)N1C1=CC(=CC=C1)[N+]([O-])=O", 
	 "Tm": 475.15, 
	 "num_atms": 25, 
	 "gaussian": { 
		 "optdone": 1, 
		 "sigma_profile": "yes", 
		 "theory": "DFT", 
		 "functional": "B3LYP", 
		 "basiset": "6-31G**", 
		 "properties": { 
			 "R2extent": 4208.3275, 
			 "electric_dipole_moment_norm": 5.1535188163, 
			 "electric_quadrupole_moment_norm": 22.1345769128, 
			 "total_energy": -776.328567381, 
			 "HOMO_LUMO_gap": 0.11603, 
			 "cosmo_polarized_energy": -16.44, 
			 "cosmo_cavitation_energy": 30.03, 
			 "cosmo_dispersion_energy": -21.66, 
			 "cosmo_repulsion_energy": 1.67, 
			 "cosmo_total_nonelectrostatic_energy": 10.04, 
			 "SMD_solvation_energy": 8.5 
		},
		"coords": [
			{
				"x": -1.0825620736,
				"y": -1.2337780495,
				"z": -3.0144440043,
				"element": "C" 
			},
			{
				"x": -1.7021666525,
				"y": 0.0522260409,
				"z": -2.5760030381,
				"element": "C" 
			},
			{
				"x": -2.2971889629,
				"y": 1.0005447034,
				"z": -3.3337834743,
				"element": "C" 
			},
			{
				"x": -2.8117160793,
				"y": 1.9809669069,
				"z": -2.4866226016,
				"element": "N" 
			},
			{
				"x": -2.578156128,
				"y": 1.6697004774,
				"z": -1.1626898813,
				"element": "C" 
			},
			{
				"x": -2.9102952395,
				"y": 2.2956188653,
				"z": -0.166504814,
				"element": "O" 
			},
			{
				"x": -1.8588994522,
				"y": 0.4537185663,
				"z": -1.2252703441,
				"element": "N" 
			},
			{
				"x": -1.3632571205,
				"y": -0.1870336711,
				"z": -0.0644954273,
				"element": "C" 
			},
			{
				"x": -0.0734806316,
				"y": -0.724074603,
				"z": -0.0438101734,
				"element": "C" 
			},
			{
				"x": 0.3691268555,
				"y": -1.3603645623,
				"z": 1.1128394346,
				"element": "C" 
			},
			{
				"x": -0.4080262371,
				"y": -1.4531890104,
				"z": 2.2637325668,
				"element": "C" 
			},
			{
				"x": -1.6805724773,
				"y": -0.8845376555,
				"z": 2.2376928994,
				"element": "C" 
			},
			{
				"x": -2.1640630213,
				"y": -0.2624741632,
				"z": 1.0878220275,
				"element": "C" 
			},
			{
				"x": 1.722759075,
				"y": -1.9401360921,
				"z": 1.1151526207,
				"element": "N" 
			},
			{
				"x": 2.1122841514,
				"y": -2.4752737669,
				"z": 2.1518270943,
				"element": "O" 
			},
			{
				"x": 2.3826146548,
				"y": -1.8572921203,
				"z": 0.0788034773,
				"element": "O" 
			},
			{
				"x": -1.4763863263,
				"y": -2.084564095,
				"z": -2.4478232704,
				"element": "H" 
			},
			{
				"x": -1.3151472591,
				"y": -1.3964798603,
				"z": -4.0699002088,
				"element": "H" 
			},
			{
				"x": 0.0077876678,
				"y": -1.2497379961,
				"z": -2.9121277008,
				"element": "H" 
			},
			{
				"x": -2.4181251505,
				"y": 1.0419468541,
				"z": -4.4043633422,
				"element": "H" 
			},
			{
				"x": -3.3219277181,
				"y": 2.8074920728,
				"z": -2.7503915313,
				"element": "H" 
			},
			{
				"x": 0.5958718191,
				"y": -0.6440716227,
				"z": -0.8879951172,
				"element": "H" 
			},
			{
				"x": -0.0140347507,
				"y": -1.9519845521,
				"z": 3.1396481066,
				"element": "H" 
			},
			{
				"x": -2.308893207,
				"y": -0.9337981812,
				"z": 3.1211252617,
				"element": "H" 
			},
			{
				"x": -3.1491457362,
				"y": 0.1853755149,
				"z": 1.0758814402,
				"element": "H" 
			}
		],
		 "valence_orbital": [ 
			{
				"type": "occ",
				"energy": -0.29155,
				"method": "rhf"
			},
			{
				"type": "occ",
				"energy": -0.28335,
				"method": "rhf"
			},
			{
				"type": "occ",
				"energy": -0.26801,
				"method": "rhf"
			},
			{
				"type": "occ",
				"energy": -0.2657,
				"method": "rhf"
			},
			{
				"type": "occ",
				"energy": -0.20513,
				"method": "rhf"
			},
			{
				"type": "unocc",
				"energy": -0.0891,
				"method": "rhf"
			},
			{
				"type": "unocc",
				"energy": -0.03139,
				"method": "rhf"
			},
			{
				"type": "unocc",
				"energy": -0.0008,
				"method": "rhf"
			},
			{
				"type": "unocc",
				"energy": 0.03156,
				"method": "rhf"
			},
			{
				"type": "unocc",
				"energy": 0.06056,
				"method": "rhf"
			}
		],
		"cosmo_sigma_profile": { 
			"-0.025": 0.0,
			"-0.024": 0.0,
			"-0.023": 0.0,
			"-0.022": 0.0,
			"-0.021": 0.0,
			"-0.02": 0.0,
			"-0.019": 0.0,
			"-0.018": 0.0,
			"-0.017": 0.042049250993,
			"-0.016": 1.31914347478,
			"-0.015": 1.14470915774,
			"-0.014": 1.0749486124,
			"-0.013": 1.29762131867,
			"-0.012": 0.511035952845,
			"-0.011": 0.892227282211,
			"-0.01": 1.43291274946,
			"-0.009": 2.60392155062,
			"-0.008": 5.1336062033,
			"-0.007": 9.30546679758,
			"-0.006": 13.8088674392,
			"-0.005": 13.7917445486,
			"-0.004": 13.8498229209,
			"-0.003": 16.7147810722,
			"-0.002": 17.2951350447,
			"-0.001": 23.0247885809,
			"0.0": 19.1651135159,
			"0.001": 18.3988633576,
			"0.002": 14.1908161075,
			"0.003": 8.0966967995,
			"0.004": 8.18218204778,
			"0.005": 4.78397357432,
			"0.006": 4.45973019605,
			"0.007": 9.63645011526,
			"0.008": 8.57449808532,
			"0.009": 6.02209073498,
			"0.01": 3.32296987838,
			"0.011": 1.6230349371,
			"0.012": 2.00500740025,
			"0.013": 2.4953844245,
			"0.014": 5.51034296765,
			"0.015": 0.94747822468,
			"0.016": 0.0,
			"0.017": 0.0,
			"0.018": 0.0,
			"0.019": 0.0,
			"0.02": 0.0,
			"0.021": 0.0,
			"0.022": 0.0,
			"0.023": 0.0,
			"0.024": 0.0,
			"0.025": 0.0
		}
	}
}
