{
	 "smiles": "CC(=O)C1=CC(F)=C(Cl)C=C1Cl", 
	 "Tm": 308.15, 
	 "num_atms": 17, 
	 "gaussian": { 
		 "optdone": 1, 
		 "sigma_profile": "yes", 
		 "theory": "DFT", 
		 "functional": "B3LYP", 
		 "basiset": "6-31G**", 
		 "properties": { 
			 "R2extent": 3872.2261, 
			 "electric_dipole_moment_norm": 2.07673362038, 
			 "electric_quadrupole_moment_norm": 2.56835459195, 
			 "total_energy": -1403.29800998, 
			 "HOMO_LUMO_gap": 0.18387, 
			 "cosmo_polarized_energy": -5.97, 
			 "cosmo_cavitation_energy": 25.49, 
			 "cosmo_dispersion_energy": -18.9, 
			 "cosmo_repulsion_energy": 1.47, 
			 "cosmo_total_nonelectrostatic_energy": 8.06, 
			 "SMD_solvation_energy": 5.08 
		},
		"coords": [
			{
				"x": 1.3400896965,
				"y": -0.2224362831,
				"z": 1.9514583157,
				"element": "C" 
			},
			{
				"x": 0.1728941363,
				"y": 0.4089531459,
				"z": 1.2258403945,
				"element": "C" 
			},
			{
				"x": -0.8161827503,
				"y": 0.7458944949,
				"z": 1.8575435766,
				"element": "O" 
			},
			{
				"x": 0.1688200127,
				"y": 0.6327631182,
				"z": -0.2783606282,
				"element": "C" 
			},
			{
				"x": -1.047821442,
				"y": 1.1326160325,
				"z": -0.7777356466,
				"element": "C" 
			},
			{
				"x": -1.2361506158,
				"y": 1.3908417752,
				"z": -2.1205941859,
				"element": "C" 
			},
			{
				"x": -2.4133009276,
				"y": 1.862722106,
				"z": -2.5502270753,
				"element": "F" 
			},
			{
				"x": -0.2048367182,
				"y": 1.1625650457,
				"z": -3.0358770532,
				"element": "C" 
			},
			{
				"x": -0.4478085338,
				"y": 1.4891735054,
				"z": -4.7256087024,
				"element": "Cl" 
			},
			{
				"x": 1.0130277237,
				"y": 0.6739200057,
				"z": -2.5747212712,
				"element": "C" 
			},
			{
				"x": 1.1980605,
				"y": 0.4115710585,
				"z": -1.2144125826,
				"element": "C" 
			},
			{
				"x": 2.7968257979,
				"y": -0.1894841918,
				"z": -0.791421979,
				"element": "Cl" 
			},
			{
				"x": 1.5955964803,
				"y": -1.1989544352,
				"z": 1.530892342,
				"element": "H" 
			},
			{
				"x": 1.0542194997,
				"y": -0.3298640016,
				"z": 2.9983787542,
				"element": "H" 
			},
			{
				"x": 2.2359758944,
				"y": 0.4007005492,
				"z": 1.8770707481,
				"element": "H" 
			},
			{
				"x": -1.8509424393,
				"y": 1.3155919098,
				"z": -0.0732330898,
				"element": "H" 
			},
			{
				"x": 1.8205336855,
				"y": 0.4979261647,
				"z": -3.2744919168,
				"element": "H" 
			}
		],
		 "valence_orbital": [ 
			{
				"type": "occ",
				"energy": -0.33272,
				"method": "rhf"
			},
			{
				"type": "occ",
				"energy": -0.32895,
				"method": "rhf"
			},
			{
				"type": "occ",
				"energy": -0.27858,
				"method": "rhf"
			},
			{
				"type": "occ",
				"energy": -0.26832,
				"method": "rhf"
			},
			{
				"type": "occ",
				"energy": -0.2625,
				"method": "rhf"
			},
			{
				"type": "unocc",
				"energy": -0.07863,
				"method": "rhf"
			},
			{
				"type": "unocc",
				"energy": -0.0345,
				"method": "rhf"
			},
			{
				"type": "unocc",
				"energy": -0.00825,
				"method": "rhf"
			},
			{
				"type": "unocc",
				"energy": 0.01494,
				"method": "rhf"
			},
			{
				"type": "unocc",
				"energy": 0.02955,
				"method": "rhf"
			}
		],
		"cosmo_sigma_profile": { 
			"-0.025": 0.0,
			"-0.024": 0.0,
			"-0.023": 0.0,
			"-0.022": 0.0,
			"-0.021": 0.0,
			"-0.02": 0.0,
			"-0.019": 0.0,
			"-0.018": 0.0,
			"-0.017": 0.0,
			"-0.016": 0.0,
			"-0.015": 0.0,
			"-0.014": 0.0,
			"-0.013": 0.0,
			"-0.012": 0.0,
			"-0.011": 0.0,
			"-0.01": 0.0704490080333,
			"-0.009": 1.27367070456,
			"-0.008": 1.26864669629,
			"-0.007": 3.03693524113,
			"-0.006": 7.73130791102,
			"-0.005": 8.36181131516,
			"-0.004": 11.7357106799,
			"-0.003": 14.4355428158,
			"-0.002": 24.5994214705,
			"-0.001": 31.9299545721,
			"0.0": 25.4480549846,
			"0.001": 11.797961725,
			"0.002": 16.1907984066,
			"0.003": 24.8015988672,
			"0.004": 10.7518992697,
			"0.005": 2.58029741132,
			"0.006": 1.18540303515,
			"0.007": 1.07821886307,
			"0.008": 1.25499924441,
			"0.009": 2.2512892214,
			"0.01": 2.65380976488,
			"0.011": 3.22384121535,
			"0.012": 1.50777418959,
			"0.013": 0.243550159287,
			"0.014": 0.0,
			"0.015": 0.0,
			"0.016": 0.0,
			"0.017": 0.0,
			"0.018": 0.0,
			"0.019": 0.0,
			"0.02": 0.0,
			"0.021": 0.0,
			"0.022": 0.0,
			"0.023": 0.0,
			"0.024": 0.0,
			"0.025": 0.0
		}
	}
}
