{
	 "smiles": "CCCSC1=NC=CC=C1C(Cl)=O", 
	 "Tm": 316.55, 
	 "num_atms": 23, 
	 "gaussian": { 
		 "optdone": 1, 
		 "sigma_profile": "yes", 
		 "theory": "DFT", 
		 "functional": "B3LYP", 
		 "basiset": "6-31G**", 
		 "properties": { 
			 "R2extent": 3574.3915, 
			 "electric_dipole_moment_norm": 4.00354343676, 
			 "electric_quadrupole_moment_norm": 13.1765568909, 
			 "total_energy": -1337.34172849, 
			 "HOMO_LUMO_gap": 0.15306, 
			 "cosmo_polarized_energy": -7.49, 
			 "cosmo_cavitation_energy": 29.87, 
			 "cosmo_dispersion_energy": -21.98, 
			 "cosmo_repulsion_energy": 1.73, 
			 "cosmo_total_nonelectrostatic_energy": 9.62, 
			 "SMD_solvation_energy": 5.12 
		},
		"coords": [
			{
				"x": 2.0355781147,
				"y": 0.6371783717,
				"z": -3.0203187528,
				"element": "C" 
			},
			{
				"x": 1.3599838426,
				"y": -0.6027836508,
				"z": -2.4291323125,
				"element": "C" 
			},
			{
				"x": -0.123396954,
				"y": -0.4158434984,
				"z": -2.0941066673,
				"element": "C" 
			},
			{
				"x": -0.4796745526,
				"y": 0.8254473793,
				"z": -0.7812345862,
				"element": "S" 
			},
			{
				"x": -0.2694683755,
				"y": -0.1361659348,
				"z": 0.7018315676,
				"element": "C" 
			},
			{
				"x": 0.1521055732,
				"y": -1.3970628151,
				"z": 0.5401048652,
				"element": "N" 
			},
			{
				"x": 0.2633208853,
				"y": -2.2044810955,
				"z": 1.5965839873,
				"element": "C" 
			},
			{
				"x": -0.0650735108,
				"y": -1.8218718638,
				"z": 2.8948023054,
				"element": "C" 
			},
			{
				"x": -0.5100996245,
				"y": -0.5200192288,
				"z": 3.0792266324,
				"element": "C" 
			},
			{
				"x": -0.5964132744,
				"y": 0.3672135017,
				"z": 1.9946387976,
				"element": "C" 
			},
			{
				"x": -1.0834970689,
				"y": 1.7209598692,
				"z": 2.3722257791,
				"element": "C" 
			},
			{
				"x": -0.4214449866,
				"y": 3.117738728,
				"z": 1.427969241,
				"element": "Cl" 
			},
			{
				"x": -1.8028765508,
				"y": 1.9455067305,
				"z": 3.3015641535,
				"element": "O" 
			},
			{
				"x": 1.5453738555,
				"y": 0.9527492626,
				"z": -3.9488275533,
				"element": "H" 
			},
			{
				"x": 3.0863531269,
				"y": 0.4358949375,
				"z": -3.2515334204,
				"element": "H" 
			},
			{
				"x": 2.0024591613,
				"y": 1.4792196105,
				"z": -2.3219209761,
				"element": "H" 
			},
			{
				"x": 1.4240009738,
				"y": -1.4320350472,
				"z": -3.14731758,
				"element": "H" 
			},
			{
				"x": 1.8846354346,
				"y": -0.934394195,
				"z": -1.5278790263,
				"element": "H" 
			},
			{
				"x": -0.6743367673,
				"y": -0.0253524867,
				"z": -2.9569650196,
				"element": "H" 
			},
			{
				"x": -0.5797005673,
				"y": -1.3577413424,
				"z": -1.7873323217,
				"element": "H" 
			},
			{
				"x": 0.6302700148,
				"y": -3.2077923153,
				"z": 1.3873694,
				"element": "H" 
			},
			{
				"x": 0.0254459698,
				"y": -2.5140430878,
				"z": 3.7243311246,
				"element": "H" 
			},
			{
				"x": -0.7910447196,
				"y": -0.1567218296,
				"z": 4.0618203626,
				"element": "H" 
			}
		],
		 "valence_orbital": [ 
			{
				"type": "occ",
				"energy": -0.30861,
				"method": "rhf"
			},
			{
				"type": "occ",
				"energy": -0.30269,
				"method": "rhf"
			},
			{
				"type": "occ",
				"energy": -0.29147,
				"method": "rhf"
			},
			{
				"type": "occ",
				"energy": -0.275,
				"method": "rhf"
			},
			{
				"type": "occ",
				"energy": -0.2327,
				"method": "rhf"
			},
			{
				"type": "unocc",
				"energy": -0.07964,
				"method": "rhf"
			},
			{
				"type": "unocc",
				"energy": -0.03978,
				"method": "rhf"
			},
			{
				"type": "unocc",
				"energy": -0.00264,
				"method": "rhf"
			},
			{
				"type": "unocc",
				"energy": 0.02487,
				"method": "rhf"
			},
			{
				"type": "unocc",
				"energy": 0.04139,
				"method": "rhf"
			}
		],
		"cosmo_sigma_profile": { 
			"-0.025": 0.0,
			"-0.024": 0.0,
			"-0.023": 0.0,
			"-0.022": 0.0,
			"-0.021": 0.0,
			"-0.02": 0.0,
			"-0.019": 0.0,
			"-0.018": 0.0,
			"-0.017": 0.0,
			"-0.016": 0.0,
			"-0.015": 0.0,
			"-0.014": 0.0,
			"-0.013": 0.0,
			"-0.012": 0.0,
			"-0.011": 0.0,
			"-0.01": 0.0,
			"-0.009": 0.137032980638,
			"-0.008": 3.84818834699,
			"-0.007": 8.09273582438,
			"-0.006": 7.62985355529,
			"-0.005": 9.74804615262,
			"-0.004": 11.4249934735,
			"-0.003": 18.5210565468,
			"-0.002": 22.0339487958,
			"-0.001": 27.2195100555,
			"0.0": 30.9617527214,
			"0.001": 27.8857950732,
			"0.002": 15.5356849429,
			"0.003": 12.6055558404,
			"0.004": 14.1778564243,
			"0.005": 10.997248571,
			"0.006": 7.06983818896,
			"0.007": 4.87776045109,
			"0.008": 5.40464566718,
			"0.009": 3.06136177751,
			"0.01": 0.261335468471,
			"0.011": 0.0,
			"0.012": 0.0,
			"0.013": 0.0,
			"0.014": 0.0,
			"0.015": 0.0,
			"0.016": 0.0,
			"0.017": 0.0,
			"0.018": 0.0,
			"0.019": 0.0,
			"0.02": 0.0,
			"0.021": 0.0,
			"0.022": 0.0,
			"0.023": 0.0,
			"0.024": 0.0,
			"0.025": 0.0
		}
	}
}
