{
	 "smiles": "OC(=O)CCN1C(=O)CCC2=C1C=CC(F)=C2", 
	 "Tm": 423.15, 
	 "num_atms": 29, 
	 "gaussian": { 
		 "optdone": 1, 
		 "sigma_profile": "yes", 
		 "theory": "DFT", 
		 "functional": "B3LYP", 
		 "basiset": "6-31G**", 
		 "properties": { 
			 "R2extent": 5575.5127, 
			 "electric_dipole_moment_norm": 3.885805762, 
			 "electric_quadrupole_moment_norm": 11.675987318, 
			 "total_energy": -844.799983916, 
			 "HOMO_LUMO_gap": 0.1966, 
			 "cosmo_polarized_energy": -19.8, 
			 "cosmo_cavitation_energy": 32.9, 
			 "cosmo_dispersion_energy": -23.39, 
			 "cosmo_repulsion_energy": 1.79, 
			 "cosmo_total_nonelectrostatic_energy": 11.31, 
			 "SMD_solvation_energy": 7.18 
		},
		"coords": [
			{
				"x": -0.2059797018,
				"y": 1.2793161621,
				"z": -3.1157813056,
				"element": "O" 
			},
			{
				"x": -0.9236823163,
				"y": 0.6818842663,
				"z": -2.132019034,
				"element": "C" 
			},
			{
				"x": -1.8810553085,
				"y": 0.0009143311,
				"z": -2.4089956413,
				"element": "O" 
			},
			{
				"x": -0.4120817999,
				"y": 0.8826115386,
				"z": -0.7096982782,
				"element": "C" 
			},
			{
				"x": -1.5423919685,
				"y": 0.7384051429,
				"z": 0.3210986322,
				"element": "C" 
			},
			{
				"x": -1.048761116,
				"y": 0.4153603814,
				"z": 1.6609427708,
				"element": "N" 
			},
			{
				"x": -1.132406178,
				"y": 1.4133847196,
				"z": 2.6288033896,
				"element": "C" 
			},
			{
				"x": -1.528157294,
				"y": 2.5402203648,
				"z": 2.3633765414,
				"element": "O" 
			},
			{
				"x": -0.7328595172,
				"y": 1.0025010756,
				"z": 4.0352296745,
				"element": "C" 
			},
			{
				"x": 0.466628934,
				"y": 0.0533761584,
				"z": 4.0305171834,
				"element": "C" 
			},
			{
				"x": 0.189049492,
				"y": -1.1158878057,
				"z": 3.1193663886,
				"element": "C" 
			},
			{
				"x": -0.5614394359,
				"y": -0.8919012478,
				"z": 1.9441810686,
				"element": "C" 
			},
			{
				"x": -0.7890749469,
				"y": -1.9604744522,
				"z": 1.0623666964,
				"element": "C" 
			},
			{
				"x": -0.298717429,
				"y": -3.2361913199,
				"z": 1.3450380222,
				"element": "C" 
			},
			{
				"x": 0.4174040123,
				"y": -3.4380254014,
				"z": 2.5147000904,
				"element": "C" 
			},
			{
				"x": 0.8910480461,
				"y": -4.6691896846,
				"z": 2.8017108673,
				"element": "F" 
			},
			{
				"x": 0.6641706695,
				"y": -2.3957370651,
				"z": 3.4003456825,
				"element": "C" 
			},
			{
				"x": 0.5137611898,
				"y": 1.8026493293,
				"z": -2.7358575523,
				"element": "H" 
			},
			{
				"x": 0.3508523154,
				"y": 0.1110985924,
				"z": -0.5402923082,
				"element": "H" 
			},
			{
				"x": 0.0851951913,
				"y": 1.8526190689,
				"z": -0.5936790328,
				"element": "H" 
			},
			{
				"x": -2.2473510795,
				"y": -0.0224655089,
				"z": -0.0180120703,
				"element": "H" 
			},
			{
				"x": -2.0853138066,
				"y": 1.6778614094,
				"z": 0.4144953661,
				"element": "H" 
			},
			{
				"x": -0.5404131677,
				"y": 1.9190930161,
				"z": 4.5954248339,
				"element": "H" 
			},
			{
				"x": -1.5984311272,
				"y": 0.5072566752,
				"z": 4.4959938873,
				"element": "H" 
			},
			{
				"x": 1.3564040594,
				"y": 0.5940466306,
				"z": 3.6755858606,
				"element": "H" 
			},
			{
				"x": 0.6947170822,
				"y": -0.2916171567,
				"z": 5.0434944212,
				"element": "H" 
			},
			{
				"x": -1.3452733257,
				"y": -1.8160254557,
				"z": 0.144341674,
				"element": "H" 
			},
			{
				"x": -0.4744937061,
				"y": -4.0644438355,
				"z": 0.6677396151,
				"element": "H" 
			},
			{
				"x": 1.2334522328,
				"y": -2.5873399291,
				"z": 4.3044825566,
				"element": "H" 
			}
		],
		 "valence_orbital": [ 
			{
				"type": "occ",
				"energy": -0.30125,
				"method": "rhf"
			},
			{
				"type": "occ",
				"energy": -0.28142,
				"method": "rhf"
			},
			{
				"type": "occ",
				"energy": -0.26544,
				"method": "rhf"
			},
			{
				"type": "occ",
				"energy": -0.26037,
				"method": "rhf"
			},
			{
				"type": "occ",
				"energy": -0.22045,
				"method": "rhf"
			},
			{
				"type": "unocc",
				"energy": -0.02385,
				"method": "rhf"
			},
			{
				"type": "unocc",
				"energy": -0.01681,
				"method": "rhf"
			},
			{
				"type": "unocc",
				"energy": 2e-05,
				"method": "rhf"
			},
			{
				"type": "unocc",
				"energy": 0.02701,
				"method": "rhf"
			},
			{
				"type": "unocc",
				"energy": 0.04737,
				"method": "rhf"
			}
		],
		"cosmo_sigma_profile": { 
			"-0.025": 0.0,
			"-0.024": 0.0,
			"-0.023": 0.0,
			"-0.022": 0.0,
			"-0.021": 0.0,
			"-0.02": 0.0,
			"-0.019": 0.76211246705,
			"-0.018": 1.35258344002,
			"-0.017": 1.20125955364,
			"-0.016": 0.940047983914,
			"-0.015": 1.14334665173,
			"-0.014": 1.22406801917,
			"-0.013": 0.964810280808,
			"-0.012": 0.893232849126,
			"-0.011": 1.46890701892,
			"-0.01": 1.51287989567,
			"-0.009": 0.973815110995,
			"-0.008": 2.61164377007,
			"-0.007": 7.70007193055,
			"-0.006": 13.8702944817,
			"-0.005": 22.4303816542,
			"-0.004": 20.6258460022,
			"-0.003": 20.8498370262,
			"-0.002": 20.6127553992,
			"-0.001": 15.4638678615,
			"0.0": 10.6245041554,
			"0.001": 14.9385890823,
			"0.002": 13.8361164073,
			"0.003": 16.5418906399,
			"0.004": 16.5096056154,
			"0.005": 9.00939360609,
			"0.006": 3.73212373256,
			"0.007": 3.69598150002,
			"0.008": 4.06544288952,
			"0.009": 3.98176125895,
			"0.01": 6.54861659823,
			"0.011": 6.78143694765,
			"0.012": 6.72334616843,
			"0.013": 5.72741279007,
			"0.014": 1.74050050356,
			"0.015": 0.0729798319509,
			"0.016": 0.0,
			"0.017": 0.0,
			"0.018": 0.0,
			"0.019": 0.0,
			"0.02": 0.0,
			"0.021": 0.0,
			"0.022": 0.0,
			"0.023": 0.0,
			"0.024": 0.0,
			"0.025": 0.0
		}
	}
}
