{
	 "smiles": "OC(=O)CC1=CSC(NC(=O)NC2CC2)=N1", 
	 "Tm": 462.15, 
	 "num_atms": 27, 
	 "gaussian": { 
		 "optdone": 1, 
		 "sigma_profile": "yes", 
		 "theory": "DFT", 
		 "functional": "B3LYP", 
		 "basiset": "6-31G**", 
		 "properties": { 
			 "R2extent": 5711.0329, 
			 "electric_dipole_moment_norm": 4.89705769723, 
			 "electric_quadrupole_moment_norm": 21.3465343618, 
			 "total_energy": -1137.68787439, 
			 "HOMO_LUMO_gap": 0.19869, 
			 "cosmo_polarized_energy": -28.03, 
			 "cosmo_cavitation_energy": 34.81, 
			 "cosmo_dispersion_energy": -24.78, 
			 "cosmo_repulsion_energy": 1.96, 
			 "cosmo_total_nonelectrostatic_energy": 11.98, 
			 "SMD_solvation_energy": 5.63 
		},
		"coords": [
			{
				"x": -1.4883114744,
				"y": 2.225973075,
				"z": 2.6575657626,
				"element": "O" 
			},
			{
				"x": -0.3393878475,
				"y": 2.0417731047,
				"z": 3.3455593953,
				"element": "C" 
			},
			{
				"x": -0.3054522254,
				"y": 1.5805703942,
				"z": 4.4631658405,
				"element": "O" 
			},
			{
				"x": 0.8769751376,
				"y": 2.5289613985,
				"z": 2.5698084126,
				"element": "C" 
			},
			{
				"x": 0.8920669141,
				"y": 2.1165995261,
				"z": 1.1245450639,
				"element": "C" 
			},
			{
				"x": 0.9115030289,
				"y": 2.9625929206,
				"z": 0.0548511458,
				"element": "C" 
			},
			{
				"x": 0.9243626907,
				"y": 2.0532125076,
				"z": -1.4294600434,
				"element": "S" 
			},
			{
				"x": 0.9424362723,
				"y": 0.5729258521,
				"z": -0.4523459113,
				"element": "C" 
			},
			{
				"x": 0.9834985705,
				"y": -0.6654873384,
				"z": -1.0761104603,
				"element": "N" 
			},
			{
				"x": 0.2350475158,
				"y": -1.7902451536,
				"z": -0.6483367071,
				"element": "C" 
			},
			{
				"x": -0.6077238124,
				"y": -1.7601172448,
				"z": 0.221204388,
				"element": "O" 
			},
			{
				"x": 0.5705783721,
				"y": -2.9169405914,
				"z": -1.3851149881,
				"element": "N" 
			},
			{
				"x": -0.023651947,
				"y": -4.178819183,
				"z": -1.0305830606,
				"element": "C" 
			},
			{
				"x": -0.1536878443,
				"y": -5.2083380875,
				"z": -2.123263454,
				"element": "C" 
			},
			{
				"x": -1.3802545922,
				"y": -4.510677939,
				"z": -1.5888408509,
				"element": "C" 
			},
			{
				"x": 0.9271726645,
				"y": 0.7676761787,
				"z": 0.8281459881,
				"element": "N" 
			},
			{
				"x": -2.1982274208,
				"y": 1.8746296134,
				"z": 3.2207455166,
				"element": "H" 
			},
			{
				"x": 1.7529822837,
				"y": 2.1399768413,
				"z": 3.0949909182,
				"element": "H" 
			},
			{
				"x": 0.898092842,
				"y": 3.6222957357,
				"z": 2.642634505,
				"element": "H" 
			},
			{
				"x": 0.9262026131,
				"y": 4.0427393372,
				"z": 0.0466914785,
				"element": "H" 
			},
			{
				"x": 1.3050200246,
				"y": -0.6789111277,
				"z": -2.0335670796,
				"element": "H" 
			},
			{
				"x": 1.5251760381,
				"y": -2.9595150773,
				"z": -1.7200268353,
				"element": "H" 
			},
			{
				"x": 0.1932616212,
				"y": -4.5312716736,
				"z": -0.0235178228,
				"element": "H" 
			},
			{
				"x": 0.188787451,
				"y": -4.9306907644,
				"z": -3.1157491959,
				"element": "H" 
			},
			{
				"x": 0.0159952489,
				"y": -6.2480252256,
				"z": -1.8620765402,
				"element": "H" 
			},
			{
				"x": -2.0631590947,
				"y": -5.0634390659,
				"z": -0.952372106,
				"element": "H" 
			},
			{
				"x": -1.8490030302,
				"y": -3.7619480131,
				"z": -2.2181433598,
				"element": "H" 
			}
		],
		 "valence_orbital": [ 
			{
				"type": "occ",
				"energy": -0.28187,
				"method": "rhf"
			},
			{
				"type": "occ",
				"energy": -0.26683,
				"method": "rhf"
			},
			{
				"type": "occ",
				"energy": -0.26494,
				"method": "rhf"
			},
			{
				"type": "occ",
				"energy": -0.25506,
				"method": "rhf"
			},
			{
				"type": "occ",
				"energy": -0.22193,
				"method": "rhf"
			},
			{
				"type": "unocc",
				"energy": -0.02324,
				"method": "rhf"
			},
			{
				"type": "unocc",
				"energy": 0.00201,
				"method": "rhf"
			},
			{
				"type": "unocc",
				"energy": 0.01821,
				"method": "rhf"
			},
			{
				"type": "unocc",
				"energy": 0.03671,
				"method": "rhf"
			},
			{
				"type": "unocc",
				"energy": 0.05562,
				"method": "rhf"
			}
		],
		"cosmo_sigma_profile": { 
			"-0.025": 0.0,
			"-0.024": 0.0,
			"-0.023": 0.0,
			"-0.022": 0.0,
			"-0.021": 0.0,
			"-0.02": 0.0,
			"-0.019": 0.0389736161864,
			"-0.018": 0.876888850299,
			"-0.017": 1.31538312629,
			"-0.016": 2.33856610434,
			"-0.015": 3.27042588709,
			"-0.014": 3.54490728434,
			"-0.013": 2.4331830581,
			"-0.012": 3.68025962862,
			"-0.011": 2.12892040113,
			"-0.01": 2.04364487472,
			"-0.009": 4.12879146663,
			"-0.008": 7.93991407692,
			"-0.007": 6.82534026465,
			"-0.006": 8.52222452337,
			"-0.005": 15.0638416311,
			"-0.004": 19.2716014319,
			"-0.003": 18.7198986692,
			"-0.002": 16.8665159536,
			"-0.001": 16.0860405973,
			"0.0": 16.7672531096,
			"0.001": 19.6322773744,
			"0.002": 16.0799851719,
			"0.003": 15.8876770084,
			"0.004": 11.5439451292,
			"0.005": 7.75870968968,
			"0.006": 5.64928839009,
			"0.007": 5.85722523577,
			"0.008": 5.89654654202,
			"0.009": 5.81226871765,
			"0.01": 4.96245879668,
			"0.011": 6.92719229555,
			"0.012": 7.64530684973,
			"0.013": 6.874453905,
			"0.014": 3.70743865751,
			"0.015": 1.67392456848,
			"0.016": 0.515285544239,
			"0.017": 0.0134922903039,
			"0.018": 0.0,
			"0.019": 0.0,
			"0.02": 0.0,
			"0.021": 0.0,
			"0.022": 0.0,
			"0.023": 0.0,
			"0.024": 0.0,
			"0.025": 0.0
		}
	}
}
