{
	 "smiles": "NCCCCCCCCCCN", 
	 "Tm": 335.65, 
	 "num_atms": 36, 
	 "gaussian": { 
		 "optdone": 1, 
		 "sigma_profile": "yes", 
		 "theory": "DFT", 
		 "functional": "B3LYP", 
		 "basiset": "6-31G**", 
		 "properties": { 
			 "R2extent": 3952.004, 
			 "electric_dipole_moment_norm": 2.36498931499, 
			 "electric_quadrupole_moment_norm": 6.53691361347, 
			 "total_energy": -505.039685727, 
			 "HOMO_LUMO_gap": 0.29847, 
			 "cosmo_polarized_energy": -8.52, 
			 "cosmo_cavitation_energy": 35.81, 
			 "cosmo_dispersion_energy": -24.24, 
			 "cosmo_repulsion_energy": 2.01, 
			 "cosmo_total_nonelectrostatic_energy": 13.58, 
			 "SMD_solvation_energy": 3.3 
		},
		"coords": [
			{
				"x": 2.8873411919,
				"y": 1.6951674549,
				"z": -2.5870852069,
				"element": "N" 
			},
			{
				"x": 3.1820836307,
				"y": 0.2788885886,
				"z": -2.8508682237,
				"element": "C" 
			},
			{
				"x": 1.9222291519,
				"y": -0.600471983,
				"z": -2.8600747534,
				"element": "C" 
			},
			{
				"x": 1.3712335622,
				"y": -1.0370324749,
				"z": -1.4885469445,
				"element": "C" 
			},
			{
				"x": 0.8409303116,
				"y": 0.0580999739,
				"z": -0.5424189146,
				"element": "C" 
			},
			{
				"x": -0.2499074307,
				"y": 0.977537768,
				"z": -1.1232104229,
				"element": "C" 
			},
			{
				"x": -1.5322262632,
				"y": 0.2638358622,
				"z": -1.5923998582,
				"element": "C" 
			},
			{
				"x": -2.2540171697,
				"y": -0.5742924731,
				"z": -0.5228235582,
				"element": "C" 
			},
			{
				"x": -2.816407154,
				"y": 0.2436250368,
				"z": 0.6503456473,
				"element": "C" 
			},
			{
				"x": -3.487939945,
				"y": -0.5979825908,
				"z": 1.7537690922,
				"element": "C" 
			},
			{
				"x": -2.5450135155,
				"y": -1.1337772298,
				"z": 2.8394087397,
				"element": "C" 
			},
			{
				"x": -1.5055976156,
				"y": -2.0202656018,
				"z": 2.299194053,
				"element": "N" 
			},
			{
				"x": 2.6443733706,
				"y": 1.8289721861,
				"z": -1.609777434,
				"element": "H" 
			},
			{
				"x": 3.7224713048,
				"y": 2.253121508,
				"z": -2.7482882823,
				"element": "H" 
			},
			{
				"x": 3.6359650641,
				"y": 0.2343030432,
				"z": -3.8483034818,
				"element": "H" 
			},
			{
				"x": 3.9218980119,
				"y": -0.1615321381,
				"z": -2.1561539104,
				"element": "H" 
			},
			{
				"x": 2.1626792347,
				"y": -1.5161047923,
				"z": -3.4169534617,
				"element": "H" 
			},
			{
				"x": 1.1516336768,
				"y": -0.0800525507,
				"z": -3.4409337605,
				"element": "H" 
			},
			{
				"x": 0.5682334739,
				"y": -1.7639244825,
				"z": -1.667285219,
				"element": "H" 
			},
			{
				"x": 2.1574470401,
				"y": -1.5943204515,
				"z": -0.9596586783,
				"element": "H" 
			},
			{
				"x": 0.4605779093,
				"y": -0.4346480262,
				"z": 0.3614237314,
				"element": "H" 
			},
			{
				"x": 1.6773234146,
				"y": 0.6822912139,
				"z": -0.1971091781,
				"element": "H" 
			},
			{
				"x": 0.1653711744,
				"y": 1.5446764373,
				"z": -1.9647295533,
				"element": "H" 
			},
			{
				"x": -0.5085267038,
				"y": 1.7241377508,
				"z": -0.3610269006,
				"element": "H" 
			},
			{
				"x": -2.2247113371,
				"y": 1.0211148549,
				"z": -1.9864530839,
				"element": "H" 
			},
			{
				"x": -1.2921765284,
				"y": -0.3878938175,
				"z": -2.4426138283,
				"element": "H" 
			},
			{
				"x": -3.0862221918,
				"y": -1.1096880285,
				"z": -1.0021734193,
				"element": "H" 
			},
			{
				"x": -1.5803889815,
				"y": -1.3401981569,
				"z": -0.1269029614,
				"element": "H" 
			},
			{
				"x": -3.5469852891,
				"y": 0.9627623936,
				"z": 0.2545760133,
				"element": "H" 
			},
			{
				"x": -2.018832392,
				"y": 0.843986711,
				"z": 1.1064838077,
				"element": "H" 
			},
			{
				"x": -4.2474517293,
				"y": 0.0076075373,
				"z": 2.2648962773,
				"element": "H" 
			},
			{
				"x": -4.0353186189,
				"y": -1.4373440358,
				"z": 1.2989918325,
				"element": "H" 
			},
			{
				"x": -2.0353942841,
				"y": -0.2840649635,
				"z": 3.3120738936,
				"element": "H" 
			},
			{
				"x": -3.157719825,
				"y": -1.606408111,
				"z": 3.6284833794,
				"element": "H" 
			},
			{
				"x": -0.8831588639,
				"y": -2.3198609469,
				"z": 3.0457412764,
				"element": "H" 
			},
			{
				"x": -1.934995685,
				"y": -2.8664654656,
				"z": 1.9302032911,
				"element": "H" 
			}
		],
		 "valence_orbital": [ 
			{
				"type": "occ",
				"energy": -0.29499,
				"method": "rhf"
			},
			{
				"type": "occ",
				"energy": -0.2902,
				"method": "rhf"
			},
			{
				"type": "occ",
				"energy": -0.2885,
				"method": "rhf"
			},
			{
				"type": "occ",
				"energy": -0.23121,
				"method": "rhf"
			},
			{
				"type": "occ",
				"energy": -0.22432,
				"method": "rhf"
			},
			{
				"type": "unocc",
				"energy": 0.07415,
				"method": "rhf"
			},
			{
				"type": "unocc",
				"energy": 0.0818,
				"method": "rhf"
			},
			{
				"type": "unocc",
				"energy": 0.10434,
				"method": "rhf"
			},
			{
				"type": "unocc",
				"energy": 0.11244,
				"method": "rhf"
			},
			{
				"type": "unocc",
				"energy": 0.12034,
				"method": "rhf"
			}
		],
		"cosmo_sigma_profile": { 
			"-0.025": 0.0,
			"-0.024": 0.0,
			"-0.023": 0.0,
			"-0.022": 0.0,
			"-0.021": 0.0,
			"-0.02": 0.0,
			"-0.019": 0.0,
			"-0.018": 0.0,
			"-0.017": 0.0,
			"-0.016": 0.0,
			"-0.015": 0.0,
			"-0.014": 0.0,
			"-0.013": 0.0,
			"-0.012": 0.0,
			"-0.011": 0.0,
			"-0.01": 0.551950823039,
			"-0.009": 3.65419621783,
			"-0.008": 5.07372958082,
			"-0.007": 4.80208384109,
			"-0.006": 6.57807141787,
			"-0.005": 5.55986217883,
			"-0.004": 5.17588775196,
			"-0.003": 9.89842758316,
			"-0.002": 23.6827198595,
			"-0.001": 51.7181716047,
			"0.0": 61.5845861853,
			"0.001": 43.8600274051,
			"0.002": 21.2922082416,
			"0.003": 4.11222749953,
			"0.004": 3.46190377796,
			"0.005": 3.09609128424,
			"0.006": 2.11390107841,
			"0.007": 3.13135195353,
			"0.008": 2.60920676555,
			"0.009": 3.35307710043,
			"0.01": 3.01722448881,
			"0.011": 0.583253627885,
			"0.012": 0.983080389512,
			"0.013": 0.494391980668,
			"0.014": 0.666478329415,
			"0.015": 0.54672379307,
			"0.016": 0.482128928385,
			"0.017": 0.435200950757,
			"0.018": 0.401949812214,
			"0.019": 0.656098448028,
			"0.02": 0.0436226428489,
			"0.021": 0.0,
			"0.022": 0.0,
			"0.023": 0.0,
			"0.024": 0.0,
			"0.025": 0.0
		}
	}
}
