{
	 "smiles": "NC1=C(C#N)C2=C(CCCC2)S1", 
	 "Tm": 415.65, 
	 "num_atms": 22, 
	 "gaussian": { 
		 "optdone": 1, 
		 "sigma_profile": "yes", 
		 "theory": "DFT", 
		 "functional": "B3LYP", 
		 "basiset": "6-31G**", 
		 "properties": { 
			 "R2extent": 3543.5243, 
			 "electric_dipole_moment_norm": 3.88477762555, 
			 "electric_quadrupole_moment_norm": 17.2313195861, 
			 "total_energy": -856.666383154, 
			 "HOMO_LUMO_gap": 0.18277, 
			 "cosmo_polarized_energy": -12.15, 
			 "cosmo_cavitation_energy": 26.73, 
			 "cosmo_dispersion_energy": -19.93, 
			 "cosmo_repulsion_energy": 1.56, 
			 "cosmo_total_nonelectrostatic_energy": 8.35, 
			 "SMD_solvation_energy": 4.5 
		},
		"coords": [
			{
				"x": -2.0915650246,
				"y": 0.2636826518,
				"z": 4.4142312059,
				"element": "N" 
			},
			{
				"x": -1.8101471008,
				"y": -0.1061415473,
				"z": 3.1202289905,
				"element": "C" 
			},
			{
				"x": -0.5648363249,
				"y": -0.1913674487,
				"z": 2.5159616688,
				"element": "C" 
			},
			{
				"x": 0.6297179197,
				"y": 0.0137332199,
				"z": 3.2530278182,
				"element": "C" 
			},
			{
				"x": 1.5877725156,
				"y": 0.1811793286,
				"z": 3.8976991426,
				"element": "N" 
			},
			{
				"x": -0.6370900587,
				"y": -0.5312980819,
				"z": 1.109904934,
				"element": "C" 
			},
			{
				"x": -1.9144392428,
				"y": -0.6980598635,
				"z": 0.6712973889,
				"element": "C" 
			},
			{
				"x": -2.3262251105,
				"y": -1.0783581734,
				"z": -0.7233294291,
				"element": "C" 
			},
			{
				"x": -1.1399675618,
				"y": -0.8759687341,
				"z": -1.6869497111,
				"element": "C" 
			},
			{
				"x": 0.1661495089,
				"y": -1.4287075135,
				"z": -1.0964673008,
				"element": "C" 
			},
			{
				"x": 0.5544525985,
				"y": -0.6974182349,
				"z": 0.2004337119,
				"element": "C" 
			},
			{
				"x": -3.0830648201,
				"y": -0.4312935694,
				"z": 1.9687770337,
				"element": "S" 
			},
			{
				"x": -1.290894554,
				"y": 0.2781245821,
				"z": 5.0339063062,
				"element": "H" 
			},
			{
				"x": -2.9206888071,
				"y": -0.1300808705,
				"z": 4.8359152463,
				"element": "H" 
			},
			{
				"x": -3.185141729,
				"y": -0.4823169315,
				"z": -1.055773761,
				"element": "H" 
			},
			{
				"x": -2.6530478191,
				"y": -2.1283320524,
				"z": -0.7498452218,
				"element": "H" 
			},
			{
				"x": -1.0200795101,
				"y": 0.1959822415,
				"z": -1.8898643911,
				"element": "H" 
			},
			{
				"x": -1.3619105058,
				"y": -1.3583739026,
				"z": -2.6451427086,
				"element": "H" 
			},
			{
				"x": 0.9787469528,
				"y": -1.3437313707,
				"z": -1.8260341792,
				"element": "H" 
			},
			{
				"x": 0.0412306704,
				"y": -2.4989463139,
				"z": -0.8856055021,
				"element": "H" 
			},
			{
				"x": 0.9707459956,
				"y": 0.2923426346,
				"z": -0.0362473571,
				"element": "H" 
			},
			{
				"x": 1.3523820078,
				"y": -1.2391500503,
				"z": 0.7222761148,
				"element": "H" 
			}
		],
		 "valence_orbital": [ 
			{
				"type": "occ",
				"energy": -0.3228,
				"method": "rhf"
			},
			{
				"type": "occ",
				"energy": -0.31938,
				"method": "rhf"
			},
			{
				"type": "occ",
				"energy": -0.30989,
				"method": "rhf"
			},
			{
				"type": "occ",
				"energy": -0.24931,
				"method": "rhf"
			},
			{
				"type": "occ",
				"energy": -0.20314,
				"method": "rhf"
			},
			{
				"type": "unocc",
				"energy": -0.02037,
				"method": "rhf"
			},
			{
				"type": "unocc",
				"energy": -0.00176,
				"method": "rhf"
			},
			{
				"type": "unocc",
				"energy": 0.0216,
				"method": "rhf"
			},
			{
				"type": "unocc",
				"energy": 0.04738,
				"method": "rhf"
			},
			{
				"type": "unocc",
				"energy": 0.06646,
				"method": "rhf"
			}
		],
		"cosmo_sigma_profile": { 
			"-0.025": 0.0,
			"-0.024": 0.0,
			"-0.023": 0.0,
			"-0.022": 0.0,
			"-0.021": 0.0,
			"-0.02": 0.0,
			"-0.019": 0.0,
			"-0.018": 0.0,
			"-0.017": 0.0,
			"-0.016": 0.0,
			"-0.015": 0.777429351918,
			"-0.014": 1.75038228687,
			"-0.013": 2.25441355452,
			"-0.012": 3.25333953632,
			"-0.011": 2.80208894747,
			"-0.01": 1.60339002911,
			"-0.009": 2.1678341246,
			"-0.008": 1.81802435749,
			"-0.007": 2.57006502744,
			"-0.006": 1.89462949688,
			"-0.005": 2.26752116716,
			"-0.004": 9.90544989456,
			"-0.003": 21.0460483032,
			"-0.002": 29.2866615743,
			"-0.001": 27.4505776661,
			"0.0": 20.1855325305,
			"0.001": 13.9162437574,
			"0.002": 13.4533410621,
			"0.003": 12.66563586,
			"0.004": 10.9236158616,
			"0.005": 4.98591543066,
			"0.006": 2.43032042652,
			"0.007": 2.81185625507,
			"0.008": 3.24690910364,
			"0.009": 3.74378536612,
			"0.01": 3.74583397338,
			"0.011": 3.86779650503,
			"0.012": 2.86153841748,
			"0.013": 2.61992820009,
			"0.014": 1.3614724411,
			"0.015": 0.0183245343354,
			"0.016": 0.0,
			"0.017": 0.0,
			"0.018": 0.0,
			"0.019": 0.0,
			"0.02": 0.0,
			"0.021": 0.0,
			"0.022": 0.0,
			"0.023": 0.0,
			"0.024": 0.0,
			"0.025": 0.0
		}
	}
}
