{
	 "smiles": "NN1C(=O)NC(C1=O)(C1=CC=CC=C1)C1=CC=CC=C1", 
	 "Tm": 463.15, 
	 "num_atms": 33, 
	 "gaussian": { 
		 "optdone": 1, 
		 "sigma_profile": "yes", 
		 "theory": "DFT", 
		 "functional": "B3LYP", 
		 "basiset": "6-31G**", 
		 "properties": { 
			 "R2extent": 6043.6037, 
			 "electric_dipole_moment_norm": 2.57948915291, 
			 "electric_quadrupole_moment_norm": 12.6531457899, 
			 "total_energy": -894.132520354, 
			 "HOMO_LUMO_gap": 0.21997, 
			 "cosmo_polarized_energy": -19.24, 
			 "cosmo_cavitation_energy": 37.11, 
			 "cosmo_dispersion_energy": -25.54, 
			 "cosmo_repulsion_energy": 1.98, 
			 "cosmo_total_nonelectrostatic_energy": 13.56, 
			 "SMD_solvation_energy": 8.21 
		},
		"coords": [
			{
				"x": 3.8876512735,
				"y": -2.163512017,
				"z": 2.0679579743,
				"element": "N" 
			},
			{
				"x": 2.8959126696,
				"y": -1.2173544373,
				"z": 1.7837000677,
				"element": "N" 
			},
			{
				"x": 1.9318561705,
				"y": -0.8175813561,
				"z": 2.7351765881,
				"element": "C" 
			},
			{
				"x": 1.8603709846,
				"y": -1.2575843368,
				"z": 3.8660022686,
				"element": "O" 
			},
			{
				"x": 1.1397951259,
				"y": 0.1096758371,
				"z": 2.1108758679,
				"element": "N" 
			},
			{
				"x": 1.4207339612,
				"y": 0.2283827485,
				"z": 0.6691556792,
				"element": "C" 
			},
			{
				"x": 2.6558971154,
				"y": -0.7111034613,
				"z": 0.5204025503,
				"element": "C" 
			},
			{
				"x": 3.2824335956,
				"y": -0.9286373306,
				"z": -0.4911716092,
				"element": "O" 
			},
			{
				"x": 1.8345545376,
				"y": 1.6511056127,
				"z": 0.2673276972,
				"element": "C" 
			},
			{
				"x": 1.9670809414,
				"y": 2.6727542659,
				"z": 1.2123701649,
				"element": "C" 
			},
			{
				"x": 2.3568775871,
				"y": 3.9549855261,
				"z": 0.8157663172,
				"element": "C" 
			},
			{
				"x": 2.6276645558,
				"y": 4.2234575916,
				"z": -0.5250796864,
				"element": "C" 
			},
			{
				"x": 2.5072958486,
				"y": 3.2019110443,
				"z": -1.4711915529,
				"element": "C" 
			},
			{
				"x": 2.1109065577,
				"y": 1.9248614875,
				"z": -1.0803526471,
				"element": "C" 
			},
			{
				"x": 0.2126442451,
				"y": -0.2704601967,
				"z": -0.1395754361,
				"element": "C" 
			},
			{
				"x": -0.9387595559,
				"y": 0.5313038921,
				"z": -0.1743389279,
				"element": "C" 
			},
			{
				"x": -2.0926249393,
				"y": 0.0918580741,
				"z": -0.8203842465,
				"element": "C" 
			},
			{
				"x": -2.1092923008,
				"y": -1.1532024875,
				"z": -1.4535086481,
				"element": "C" 
			},
			{
				"x": -0.9649103422,
				"y": -1.9492638141,
				"z": -1.4355211344,
				"element": "C" 
			},
			{
				"x": 0.1903882197,
				"y": -1.5142190213,
				"z": -0.780849304,
				"element": "C" 
			},
			{
				"x": 3.4807495655,
				"y": -2.8028393211,
				"z": 2.7496062413,
				"element": "H" 
			},
			{
				"x": 4.6565521797,
				"y": -1.6851182169,
				"z": 2.5360020918,
				"element": "H" 
			},
			{
				"x": 0.2104929735,
				"y": 0.2660701232,
				"z": 2.4749144892,
				"element": "H" 
			},
			{
				"x": 1.7694533257,
				"y": 2.4639658305,
				"z": 2.2582095082,
				"element": "H" 
			},
			{
				"x": 2.4503799164,
				"y": 4.7408137685,
				"z": 1.5599982074,
				"element": "H" 
			},
			{
				"x": 2.9320085198,
				"y": 5.2197216587,
				"z": -0.8327653329,
				"element": "H" 
			},
			{
				"x": 2.722060488,
				"y": 3.3999222718,
				"z": -2.517347297,
				"element": "H" 
			},
			{
				"x": 2.0265333586,
				"y": 1.1320100692,
				"z": -1.8154726475,
				"element": "H" 
			},
			{
				"x": -0.9247977652,
				"y": 1.5117835587,
				"z": 0.2943849196,
				"element": "H" 
			},
			{
				"x": -2.9748409626,
				"y": 0.7253056004,
				"z": -0.8368521546,
				"element": "H" 
			},
			{
				"x": -3.0054888913,
				"y": -1.49502548,
				"z": -1.9629165506,
				"element": "H" 
			},
			{
				"x": -0.9640508737,
				"y": -2.9141451512,
				"z": -1.9341700524,
				"element": "H" 
			},
			{
				"x": 1.0765719146,
				"y": -2.138742333,
				"z": -0.7951534053,
				"element": "H" 
			}
		],
		 "valence_orbital": [ 
			{
				"type": "occ",
				"energy": -0.26562,
				"method": "rhf"
			},
			{
				"type": "occ",
				"energy": -0.26062,
				"method": "rhf"
			},
			{
				"type": "occ",
				"energy": -0.25813,
				"method": "rhf"
			},
			{
				"type": "occ",
				"energy": -0.25098,
				"method": "rhf"
			},
			{
				"type": "occ",
				"energy": -0.24395,
				"method": "rhf"
			},
			{
				"type": "unocc",
				"energy": -0.02398,
				"method": "rhf"
			},
			{
				"type": "unocc",
				"energy": -0.01825,
				"method": "rhf"
			},
			{
				"type": "unocc",
				"energy": -0.01391,
				"method": "rhf"
			},
			{
				"type": "unocc",
				"energy": -0.00135,
				"method": "rhf"
			},
			{
				"type": "unocc",
				"energy": 0.0052,
				"method": "rhf"
			}
		],
		"cosmo_sigma_profile": { 
			"-0.025": 0.0,
			"-0.024": 0.0,
			"-0.023": 0.0,
			"-0.022": 0.0,
			"-0.021": 0.0,
			"-0.02": 0.0,
			"-0.019": 0.0,
			"-0.018": 0.0,
			"-0.017": 0.0,
			"-0.016": 0.00190926701889,
			"-0.015": 0.693330747704,
			"-0.014": 1.00214959888,
			"-0.013": 2.88875279112,
			"-0.012": 4.4118113683,
			"-0.011": 3.90971847322,
			"-0.01": 2.77984393394,
			"-0.009": 3.70901575425,
			"-0.008": 3.3768674592,
			"-0.007": 3.46902657625,
			"-0.006": 15.5193295301,
			"-0.005": 24.8340570706,
			"-0.004": 27.1532095325,
			"-0.003": 20.6693479849,
			"-0.002": 17.6230808168,
			"-0.001": 17.2846895505,
			"0.0": 13.9169277978,
			"0.001": 16.8662865543,
			"0.002": 15.8722648866,
			"0.003": 18.9452035427,
			"0.004": 18.5738169075,
			"0.005": 20.3978540993,
			"0.006": 6.49357004002,
			"0.007": 2.75019125117,
			"0.008": 3.88764776117,
			"0.009": 2.90959031302,
			"0.01": 3.92191779927,
			"0.011": 7.04419802607,
			"0.012": 8.7077439039,
			"0.013": 3.74142434407,
			"0.014": 1.14255714324,
			"0.015": 1.21830745266,
			"0.016": 0.694177084936,
			"0.017": 0.0,
			"0.018": 0.0,
			"0.019": 0.0,
			"0.02": 0.0,
			"0.021": 0.0,
			"0.022": 0.0,
			"0.023": 0.0,
			"0.024": 0.0,
			"0.025": 0.0
		}
	}
}
