{
	 "smiles": "C[Si](C)(C)C#C[Si](C)(C)C", 
	 "Tm": 297.15, 
	 "num_atms": 28, 
	 "gaussian": { 
		 "optdone": 1, 
		 "sigma_profile": "yes", 
		 "theory": "DFT", 
		 "functional": "B3LYP", 
		 "basiset": "6-31G**", 
		 "properties": { 
			 "R2extent": 3517.1692, 
			 "electric_dipole_moment_norm": 0.00111803398875, 
			 "electric_quadrupole_moment_norm": 5.29229647601, 
			 "total_energy": -894.742953828, 
			 "HOMO_LUMO_gap": 0.2635, 
			 "cosmo_polarized_energy": -4.12, 
			 "cosmo_cavitation_energy": 34.5, 
			 "cosmo_dispersion_energy": -19.28, 
			 "cosmo_repulsion_energy": 1.9, 
			 "cosmo_total_nonelectrostatic_energy": 17.12, 
			 "SMD_solvation_energy": 10.53 
		},
		"coords": [
			{
				"x": -0.194581329,
				"y": 3.0070878892,
				"z": -0.4761028295,
				"element": "C" 
			},
			{
				"x": -1.2033597127,
				"y": 1.6431535043,
				"z": 0.355530077,
				"element": "Si" 
			},
			{
				"x": -1.3236219032,
				"y": 1.9591355918,
				"z": 2.2143660032,
				"element": "C" 
			},
			{
				"x": -2.9302776842,
				"y": 1.5501196473,
				"z": -0.4052451666,
				"element": "C" 
			},
			{
				"x": -0.3510636019,
				"y": 0.0291475846,
				"z": 0.084498181,
				"element": "C" 
			},
			{
				"x": 0.2146737714,
				"y": -1.0432294495,
				"z": -0.0954387744,
				"element": "C" 
			},
			{
				"x": 1.0654041469,
				"y": -2.6582077616,
				"z": -0.3655485662,
				"element": "Si" 
			},
			{
				"x": 1.4272848809,
				"y": -3.439287086,
				"z": 1.3163013119,
				"element": "C" 
			},
			{
				"x": -0.071249125,
				"y": -3.7788739579,
				"z": -1.3763771265,
				"element": "C" 
			},
			{
				"x": 2.6762095122,
				"y": -2.344652988,
				"z": -1.301759045,
				"element": "C" 
			},
			{
				"x": -0.6722049254,
				"y": 3.9835762575,
				"z": -0.3355651166,
				"element": "H" 
			},
			{
				"x": 0.8156288546,
				"y": 3.0647246163,
				"z": -0.0581128746,
				"element": "H" 
			},
			{
				"x": -0.1010632759,
				"y": 2.8314409111,
				"z": -1.5526563834,
				"element": "H" 
			},
			{
				"x": -0.3313798433,
				"y": 2.0005007553,
				"z": 2.675137166,
				"element": "H" 
			},
			{
				"x": -1.8264711974,
				"y": 2.9123632702,
				"z": 2.414134978,
				"element": "H" 
			},
			{
				"x": -1.8918828162,
				"y": 1.168845005,
				"z": 2.71544515,
				"element": "H" 
			},
			{
				"x": -3.4683285168,
				"y": 2.494444918,
				"z": -0.2632758029,
				"element": "H" 
			},
			{
				"x": -2.8801601914,
				"y": 1.3512051097,
				"z": -1.4806442385,
				"element": "H" 
			},
			{
				"x": -3.5241496344,
				"y": 0.7535119163,
				"z": 0.0544284776,
				"element": "H" 
			},
			{
				"x": 1.9337432242,
				"y": -4.4038097703,
				"z": 1.1954880563,
				"element": "H" 
			},
			{
				"x": 2.0725911773,
				"y": -2.7953391157,
				"z": 1.922499064,
				"element": "H" 
			},
			{
				"x": 0.5049113042,
				"y": -3.6132199333,
				"z": 1.8798063033,
				"element": "H" 
			},
			{
				"x": -0.304737423,
				"y": -3.3340190942,
				"z": -2.3490843357,
				"element": "H" 
			},
			{
				"x": -1.0173074229,
				"y": -3.9584475872,
				"z": -0.8555241681,
				"element": "H" 
			},
			{
				"x": 0.4023536133,
				"y": -4.7507593377,
				"z": -1.5567796088,
				"element": "H" 
			},
			{
				"x": 3.2104965053,
				"y": -3.2849077087,
				"z": -1.480251636,
				"element": "H" 
			},
			{
				"x": 3.3412410283,
				"y": -1.6830912309,
				"z": -0.737286275,
				"element": "H" 
			},
			{
				"x": 2.4862005841,
				"y": -1.8773119556,
				"z": -2.2733828206,
				"element": "H" 
			}
		],
		 "valence_orbital": [ 
			{
				"type": "occ",
				"energy": -0.31008,
				"method": "rhf"
			},
			{
				"type": "occ",
				"energy": -0.3008,
				"method": "rhf"
			},
			{
				"type": "occ",
				"energy": -0.3008,
				"method": "rhf"
			},
			{
				"type": "occ",
				"energy": -0.25457,
				"method": "rhf"
			},
			{
				"type": "occ",
				"energy": -0.25456,
				"method": "rhf"
			},
			{
				"type": "unocc",
				"energy": 0.00894,
				"method": "rhf"
			},
			{
				"type": "unocc",
				"energy": 0.00894,
				"method": "rhf"
			},
			{
				"type": "unocc",
				"energy": 0.07815,
				"method": "rhf"
			},
			{
				"type": "unocc",
				"energy": 0.07972,
				"method": "rhf"
			},
			{
				"type": "unocc",
				"energy": 0.10762,
				"method": "rhf"
			}
		],
		"cosmo_sigma_profile": { 
			"-0.025": 0.0,
			"-0.024": 0.0,
			"-0.023": 0.0,
			"-0.022": 0.0,
			"-0.021": 0.0,
			"-0.02": 0.0,
			"-0.019": 0.0,
			"-0.018": 0.0,
			"-0.017": 0.0,
			"-0.016": 0.0,
			"-0.015": 0.0,
			"-0.014": 0.0,
			"-0.013": 0.0,
			"-0.012": 0.0,
			"-0.011": 0.0,
			"-0.01": 0.0,
			"-0.009": 0.0,
			"-0.008": 0.0,
			"-0.007": 0.0,
			"-0.006": 0.0,
			"-0.005": 0.176094547433,
			"-0.004": 16.940389932,
			"-0.003": 37.3602683074,
			"-0.002": 36.0676297865,
			"-0.001": 36.2940503789,
			"0.0": 31.8948356309,
			"0.001": 44.6366847156,
			"0.002": 22.0636801821,
			"0.003": 10.8351856968,
			"0.004": 4.9747310192,
			"0.005": 5.34338384861,
			"0.006": 3.50604595365,
			"0.007": 5.98399789387,
			"0.008": 7.16249166027,
			"0.009": 0.0783347418236,
			"0.01": 0.0,
			"0.011": 0.0,
			"0.012": 0.0,
			"0.013": 0.0,
			"0.014": 0.0,
			"0.015": 0.0,
			"0.016": 0.0,
			"0.017": 0.0,
			"0.018": 0.0,
			"0.019": 0.0,
			"0.02": 0.0,
			"0.021": 0.0,
			"0.022": 0.0,
			"0.023": 0.0,
			"0.024": 0.0,
			"0.025": 0.0
		}
	}
}
