{
	 "smiles": "CCN(C(C)=O)C1=NC(C=O)=CS1", 
	 "Tm": 395.15, 
	 "num_atms": 23, 
	 "gaussian": { 
		 "optdone": 1, 
		 "sigma_profile": "yes", 
		 "theory": "DFT", 
		 "functional": "B3LYP", 
		 "basiset": "6-31G**", 
		 "properties": { 
			 "R2extent": 3624.2413, 
			 "electric_dipole_moment_norm": 1.51784110499, 
			 "electric_quadrupole_moment_norm": 23.0063200697, 
			 "total_energy": -969.008616794, 
			 "HOMO_LUMO_gap": 0.16915, 
			 "cosmo_polarized_energy": -12.25, 
			 "cosmo_cavitation_energy": 29.06, 
			 "cosmo_dispersion_energy": -20.74, 
			 "cosmo_repulsion_energy": 1.61, 
			 "cosmo_total_nonelectrostatic_energy": 9.93, 
			 "SMD_solvation_energy": 5.54 
		},
		"coords": [
			{
				"x": 3.6823077735,
				"y": 1.1307769253,
				"z": 1.0270303624,
				"element": "C" 
			},
			{
				"x": 2.7048969835,
				"y": 0.7281511904,
				"z": -0.0756633077,
				"element": "C" 
			},
			{
				"x": 1.2917705631,
				"y": 0.9928773716,
				"z": 0.2980174446,
				"element": "N" 
			},
			{
				"x": 0.7672519343,
				"y": 2.248065694,
				"z": -0.0348402105,
				"element": "C" 
			},
			{
				"x": -0.7194722691,
				"y": 2.4961811538,
				"z": 0.1503245592,
				"element": "C" 
			},
			{
				"x": 1.4986819095,
				"y": 3.1082237671,
				"z": -0.4987652645,
				"element": "O" 
			},
			{
				"x": 0.6093892744,
				"y": -0.0273055222,
				"z": 0.957971817,
				"element": "C" 
			},
			{
				"x": 0.7267692334,
				"y": -1.2854558359,
				"z": 0.6476905266,
				"element": "N" 
			},
			{
				"x": 0.0376149037,
				"y": -2.0904810473,
				"z": 1.5276743129,
				"element": "C" 
			},
			{
				"x": 0.0249970696,
				"y": -3.5542024691,
				"z": 1.3246423895,
				"element": "C" 
			},
			{
				"x": -0.5782553389,
				"y": -4.3309281921,
				"z": 2.039879434,
				"element": "O" 
			},
			{
				"x": -0.6229224248,
				"y": -1.4462472248,
				"z": 2.5426526591,
				"element": "C" 
			},
			{
				"x": -0.3553051095,
				"y": 0.2503620196,
				"z": 2.4334638161,
				"element": "S" 
			},
			{
				"x": 3.6102513976,
				"y": 2.202229641,
				"z": 1.2299663138,
				"element": "H" 
			},
			{
				"x": 4.7077134971,
				"y": 0.9097458086,
				"z": 0.7129822859,
				"element": "H" 
			},
			{
				"x": 3.488562715,
				"y": 0.581094312,
				"z": 1.9538641898,
				"element": "H" 
			},
			{
				"x": 2.7756598591,
				"y": -0.3352412249,
				"z": -0.3063768219,
				"element": "H" 
			},
			{
				"x": 2.897137159,
				"y": 1.3013595886,
				"z": -0.9827128859,
				"element": "H" 
			},
			{
				"x": -0.9856714597,
				"y": 3.3078824721,
				"z": -0.5274022604,
				"element": "H" 
			},
			{
				"x": -1.3339601082,
				"y": 1.6186153363,
				"z": -0.0613058685,
				"element": "H" 
			},
			{
				"x": -0.9368608694,
				"y": 2.8283661958,
				"z": 1.1704345089,
				"element": "H" 
			},
			{
				"x": 0.6207841808,
				"y": -3.8916072684,
				"z": 0.452143789,
				"element": "H" 
			},
			{
				"x": -1.250140874,
				"y": -1.8922626916,
				"z": 3.3012282105,
				"element": "H" 
			}
		],
		 "valence_orbital": [ 
			{
				"type": "occ",
				"energy": -0.30516,
				"method": "rhf"
			},
			{
				"type": "occ",
				"energy": -0.29651,
				"method": "rhf"
			},
			{
				"type": "occ",
				"energy": -0.26924,
				"method": "rhf"
			},
			{
				"type": "occ",
				"energy": -0.26383,
				"method": "rhf"
			},
			{
				"type": "occ",
				"energy": -0.24346,
				"method": "rhf"
			},
			{
				"type": "unocc",
				"energy": -0.07431,
				"method": "rhf"
			},
			{
				"type": "unocc",
				"energy": -0.03841,
				"method": "rhf"
			},
			{
				"type": "unocc",
				"energy": -0.01363,
				"method": "rhf"
			},
			{
				"type": "unocc",
				"energy": 0.01901,
				"method": "rhf"
			},
			{
				"type": "unocc",
				"energy": 0.06921,
				"method": "rhf"
			}
		],
		"cosmo_sigma_profile": { 
			"-0.025": 0.0,
			"-0.024": 0.0,
			"-0.023": 0.0,
			"-0.022": 0.0,
			"-0.021": 0.0,
			"-0.02": 0.0,
			"-0.019": 0.0,
			"-0.018": 0.0,
			"-0.017": 0.0,
			"-0.016": 0.0,
			"-0.015": 0.0,
			"-0.014": 0.0,
			"-0.013": 0.0,
			"-0.012": 0.0,
			"-0.011": 0.408424989767,
			"-0.01": 1.90368585502,
			"-0.009": 1.89449237117,
			"-0.008": 2.64545779942,
			"-0.007": 5.17540895208,
			"-0.006": 10.2536813335,
			"-0.005": 11.1923457451,
			"-0.004": 19.5199463569,
			"-0.003": 27.4332961625,
			"-0.002": 29.2332557539,
			"-0.001": 25.0827488127,
			"0.0": 24.5123280512,
			"0.001": 13.9429234061,
			"0.002": 6.77987733754,
			"0.003": 5.28647172568,
			"0.004": 5.08370980598,
			"0.005": 4.25232865433,
			"0.006": 4.23101011491,
			"0.007": 4.34850900948,
			"0.008": 3.43082574499,
			"0.009": 4.17109969866,
			"0.01": 6.28396037539,
			"0.011": 6.7807210528,
			"0.012": 5.67367062871,
			"0.013": 3.26390616979,
			"0.014": 0.409085370461,
			"0.015": 0.0,
			"0.016": 0.0,
			"0.017": 0.0,
			"0.018": 0.0,
			"0.019": 0.0,
			"0.02": 0.0,
			"0.021": 0.0,
			"0.022": 0.0,
			"0.023": 0.0,
			"0.024": 0.0,
			"0.025": 0.0
		}
	}
}
