{
	 "smiles": "COC1=CC=C(OC)C(C)=C1", 
	 "Tm": 290.65, 
	 "num_atms": 23, 
	 "gaussian": { 
		 "optdone": 1, 
		 "sigma_profile": "yes", 
		 "theory": "DFT", 
		 "functional": "B3LYP", 
		 "basiset": "6-31G**", 
		 "properties": { 
			 "R2extent": 2222.7114, 
			 "electric_dipole_moment_norm": 2.06154624978, 
			 "electric_quadrupole_moment_norm": 7.25419946445, 
			 "total_energy": -500.618302319, 
			 "HOMO_LUMO_gap": 0.19952, 
			 "cosmo_polarized_energy": -7.02, 
			 "cosmo_cavitation_energy": 25.92, 
			 "cosmo_dispersion_energy": -19.18, 
			 "cosmo_repulsion_energy": 1.54, 
			 "cosmo_total_nonelectrostatic_energy": 8.28, 
			 "SMD_solvation_energy": 6.02 
		},
		"coords": [
			{
				"x": 0.8111077237,
				"y": -1.5829427771,
				"z": -3.9711331996,
				"element": "C" 
			},
			{
				"x": -0.2922304775,
				"y": -1.1149248611,
				"z": -3.2182547452,
				"element": "O" 
			},
			{
				"x": -0.0536549424,
				"y": -0.6693630247,
				"z": -1.943938564,
				"element": "C" 
			},
			{
				"x": 1.194799084,
				"y": -0.6396488293,
				"z": -1.3271897449,
				"element": "C" 
			},
			{
				"x": 1.3088784582,
				"y": -0.1588973109,
				"z": -0.0137003314,
				"element": "C" 
			},
			{
				"x": 0.185749332,
				"y": 0.2880369079,
				"z": 0.6771591813,
				"element": "C" 
			},
			{
				"x": 0.2034200315,
				"y": 0.7734917552,
				"z": 1.961496245,
				"element": "O" 
			},
			{
				"x": 1.4463971151,
				"y": 0.8260434873,
				"z": 2.6360424321,
				"element": "C" 
			},
			{
				"x": -1.0865580942,
				"y": 0.2624612191,
				"z": 0.0607741878,
				"element": "C" 
			},
			{
				"x": -2.2968098893,
				"y": 0.7484122898,
				"z": 0.8163852007,
				"element": "C" 
			},
			{
				"x": -1.1813281119,
				"y": -0.2164434834,
				"z": -1.2396017626,
				"element": "C" 
			},
			{
				"x": 1.2929069254,
				"y": -2.4475185369,
				"z": -3.4943990475,
				"element": "H" 
			},
			{
				"x": 1.564047656,
				"y": -0.7974814885,
				"z": -4.1229161416,
				"element": "H" 
			},
			{
				"x": 0.411844961,
				"y": -1.8865720647,
				"z": -4.9405645414,
				"element": "H" 
			},
			{
				"x": 2.0860694043,
				"y": -0.9809169402,
				"z": -1.8400593471,
				"element": "H" 
			},
			{
				"x": 2.2880948646,
				"y": -0.1430973482,
				"z": 0.4502453908,
				"element": "H" 
			},
			{
				"x": 2.1630029542,
				"y": 1.4787461971,
				"z": 2.1192365578,
				"element": "H" 
			},
			{
				"x": 1.8922513464,
				"y": -0.1717473318,
				"z": 2.7467668789,
				"element": "H" 
			},
			{
				"x": 1.2389181049,
				"y": 1.2364654131,
				"z": 3.6260007621,
				"element": "H" 
			},
			{
				"x": -2.1798368853,
				"y": 1.7943442729,
				"z": 1.120644816,
				"element": "H" 
			},
			{
				"x": -2.4460968801,
				"y": 0.1732335882,
				"z": 1.7367765401,
				"element": "H" 
			},
			{
				"x": -3.1989677418,
				"y": 0.6642758454,
				"z": 0.2051738512,
				"element": "H" 
			},
			{
				"x": -2.1442049389,
				"y": -0.2489569795,
				"z": -1.7407446185,
				"element": "H" 
			}
		],
		 "valence_orbital": [ 
			{
				"type": "occ",
				"energy": -0.32967,
				"method": "rhf"
			},
			{
				"type": "occ",
				"energy": -0.3126,
				"method": "rhf"
			},
			{
				"type": "occ",
				"energy": -0.28172,
				"method": "rhf"
			},
			{
				"type": "occ",
				"energy": -0.23649,
				"method": "rhf"
			},
			{
				"type": "occ",
				"energy": -0.19176,
				"method": "rhf"
			},
			{
				"type": "unocc",
				"energy": 0.00776,
				"method": "rhf"
			},
			{
				"type": "unocc",
				"energy": 0.03128,
				"method": "rhf"
			},
			{
				"type": "unocc",
				"energy": 0.09604,
				"method": "rhf"
			},
			{
				"type": "unocc",
				"energy": 0.10675,
				"method": "rhf"
			},
			{
				"type": "unocc",
				"energy": 0.11719,
				"method": "rhf"
			}
		],
		"cosmo_sigma_profile": { 
			"-0.025": 0.0,
			"-0.024": 0.0,
			"-0.023": 0.0,
			"-0.022": 0.0,
			"-0.021": 0.0,
			"-0.02": 0.0,
			"-0.019": 0.0,
			"-0.018": 0.0,
			"-0.017": 0.0,
			"-0.016": 0.0,
			"-0.015": 0.0,
			"-0.014": 0.0,
			"-0.013": 0.0,
			"-0.012": 0.0,
			"-0.011": 0.0,
			"-0.01": 0.0,
			"-0.009": 0.0,
			"-0.008": 0.0,
			"-0.007": 0.0212603511433,
			"-0.006": 5.56113066507,
			"-0.005": 19.8655595721,
			"-0.004": 25.4633347163,
			"-0.003": 26.246623076,
			"-0.002": 17.7328529026,
			"-0.001": 13.5855763582,
			"0.0": 13.3798633828,
			"0.001": 13.1444576451,
			"0.002": 9.61313147073,
			"0.003": 9.0735937621,
			"0.004": 12.2663522272,
			"0.005": 13.1109769164,
			"0.006": 11.6434347482,
			"0.007": 4.99393261648,
			"0.008": 2.12630205367,
			"0.009": 2.83472908354,
			"0.01": 2.40121004878,
			"0.011": 1.37136839902,
			"0.012": 0.0504318826832,
			"0.013": 0.0,
			"0.014": 0.0,
			"0.015": 0.0,
			"0.016": 0.0,
			"0.017": 0.0,
			"0.018": 0.0,
			"0.019": 0.0,
			"0.02": 0.0,
			"0.021": 0.0,
			"0.022": 0.0,
			"0.023": 0.0,
			"0.024": 0.0,
			"0.025": 0.0
		}
	}
}
