{
	 "smiles": "NC1=C(NS(=O)(=O)C2=CC=CC=C2)C=CC=C1", 
	 "Tm": 443.15, 
	 "num_atms": 29, 
	 "gaussian": { 
		 "optdone": 1, 
		 "sigma_profile": "yes", 
		 "theory": "DFT", 
		 "functional": "B3LYP", 
		 "basiset": "6-31G**", 
		 "properties": { 
			 "R2extent": 4136.5558, 
			 "electric_dipole_moment_norm": 6.64014265284, 
			 "electric_quadrupole_moment_norm": 15.6751957816, 
			 "total_energy": -1122.5805008, 
			 "HOMO_LUMO_gap": 0.1704, 
			 "cosmo_polarized_energy": -18.65, 
			 "cosmo_cavitation_energy": 33.85, 
			 "cosmo_dispersion_energy": -24.0, 
			 "cosmo_repulsion_energy": 1.82, 
			 "cosmo_total_nonelectrostatic_energy": 11.67, 
			 "SMD_solvation_energy": 4.64 
		},
		"coords": [
			{
				"x": -2.1086531485,
				"y": 1.4164058061,
				"z": 1.3065099995,
				"element": "N" 
			},
			{
				"x": -1.7675761114,
				"y": 0.063722512,
				"z": 1.4920986426,
				"element": "C" 
			},
			{
				"x": -1.5893215087,
				"y": -0.768505706,
				"z": 0.3637661779,
				"element": "C" 
			},
			{
				"x": -1.794655726,
				"y": -0.2270339633,
				"z": -0.938908172,
				"element": "N" 
			},
			{
				"x": -0.5320233607,
				"y": -0.0006986626,
				"z": -2.0409177613,
				"element": "S" 
			},
			{
				"x": -1.1574846673,
				"y": 0.6651856994,
				"z": -3.1845869949,
				"element": "O" 
			},
			{
				"x": 0.1728270016,
				"y": -1.2760703394,
				"z": -2.1550136986,
				"element": "O" 
			},
			{
				"x": 0.6017094344,
				"y": 1.1686050717,
				"z": -1.2754140085,
				"element": "C" 
			},
			{
				"x": 1.5972469548,
				"y": 0.6983739729,
				"z": -0.4147072107,
				"element": "C" 
			},
			{
				"x": 2.4401765911,
				"y": 1.619090885,
				"z": 0.2094838541,
				"element": "C" 
			},
			{
				"x": 2.2880185216,
				"y": 2.9868265942,
				"z": -0.0300424748,
				"element": "C" 
			},
			{
				"x": 1.2952844453,
				"y": 3.4436925931,
				"z": -0.9014974175,
				"element": "C" 
			},
			{
				"x": 0.4437499657,
				"y": 2.5346988861,
				"z": -1.5307724055,
				"element": "C" 
			},
			{
				"x": -1.2775876419,
				"y": -2.1210711376,
				"z": 0.5245446044,
				"element": "C" 
			},
			{
				"x": -1.1480280813,
				"y": -2.6669433243,
				"z": 1.8007898782,
				"element": "C" 
			},
			{
				"x": -1.3643048967,
				"y": -1.860807397,
				"z": 2.9201463493,
				"element": "C" 
			},
			{
				"x": -1.6710655041,
				"y": -0.5097701634,
				"z": 2.7672316124,
				"element": "C" 
			},
			{
				"x": -1.5040608154,
				"y": 1.9000827685,
				"z": 0.6504661828,
				"element": "H" 
			},
			{
				"x": -2.152827325,
				"y": 1.9341035134,
				"z": 2.1755827828,
				"element": "H" 
			},
			{
				"x": -2.4553549231,
				"y": 0.5446695269,
				"z": -0.9835690119,
				"element": "H" 
			},
			{
				"x": 1.7136528956,
				"y": -0.3677286932,
				"z": -0.2564290327,
				"element": "H" 
			},
			{
				"x": 3.2199350051,
				"y": 1.26628288,
				"z": 0.8776363354,
				"element": "H" 
			},
			{
				"x": 2.9501609271,
				"y": 3.6978540331,
				"z": 0.4552598563,
				"element": "H" 
			},
			{
				"x": 1.191036738,
				"y": 4.5060628623,
				"z": -1.1008033381,
				"element": "H" 
			},
			{
				"x": -0.3158397783,
				"y": 2.8652486641,
				"z": -2.2315115703,
				"element": "H" 
			},
			{
				"x": -1.1472941217,
				"y": -2.7277405237,
				"z": -0.364216455,
				"element": "H" 
			},
			{
				"x": -0.9036186963,
				"y": -3.7178083388,
				"z": 1.9179484848,
				"element": "H" 
			},
			{
				"x": -1.2858732801,
				"y": -2.2801298016,
				"z": 3.9190222343,
				"element": "H" 
			},
			{
				"x": -1.820528894,
				"y": 0.1184017819,
				"z": 3.6423025569,
				"element": "H" 
			}
		],
		 "valence_orbital": [ 
			{
				"type": "occ",
				"energy": -0.30248,
				"method": "rhf"
			},
			{
				"type": "occ",
				"energy": -0.27693,
				"method": "rhf"
			},
			{
				"type": "occ",
				"energy": -0.27333,
				"method": "rhf"
			},
			{
				"type": "occ",
				"energy": -0.24163,
				"method": "rhf"
			},
			{
				"type": "occ",
				"energy": -0.21472,
				"method": "rhf"
			},
			{
				"type": "unocc",
				"energy": -0.04432,
				"method": "rhf"
			},
			{
				"type": "unocc",
				"energy": -0.02785,
				"method": "rhf"
			},
			{
				"type": "unocc",
				"energy": -0.009,
				"method": "rhf"
			},
			{
				"type": "unocc",
				"energy": 0.00538,
				"method": "rhf"
			},
			{
				"type": "unocc",
				"energy": 0.05886,
				"method": "rhf"
			}
		],
		"cosmo_sigma_profile": { 
			"-0.025": 0.0,
			"-0.024": 0.0,
			"-0.023": 0.0,
			"-0.022": 0.0,
			"-0.021": 0.0,
			"-0.02": 0.0,
			"-0.019": 0.0,
			"-0.018": 0.0,
			"-0.017": 0.0,
			"-0.016": 0.0490936247441,
			"-0.015": 0.222448398862,
			"-0.014": 0.49922913373,
			"-0.013": 1.19555799624,
			"-0.012": 3.08189700888,
			"-0.011": 2.84896864937,
			"-0.01": 2.57682052253,
			"-0.009": 3.14059454045,
			"-0.008": 4.05046803769,
			"-0.007": 11.1585635636,
			"-0.006": 15.9706793194,
			"-0.005": 20.2104463352,
			"-0.004": 18.1376426292,
			"-0.003": 16.2318248445,
			"-0.002": 14.2499706991,
			"-0.001": 14.7495263242,
			"0.0": 15.159237248,
			"0.001": 15.2427832111,
			"0.002": 20.6967191188,
			"0.003": 20.0950676342,
			"0.004": 14.1990097805,
			"0.005": 14.3198029304,
			"0.006": 9.42863239532,
			"0.007": 4.41188966621,
			"0.008": 4.60864428553,
			"0.009": 5.26927903416,
			"0.01": 7.05669542215,
			"0.011": 9.00010556728,
			"0.012": 2.25583221012,
			"0.013": 0.357701332952,
			"0.014": 0.130148610535,
			"0.015": 0.0,
			"0.016": 0.0,
			"0.017": 0.0,
			"0.018": 0.0,
			"0.019": 0.0,
			"0.02": 0.0,
			"0.021": 0.0,
			"0.022": 0.0,
			"0.023": 0.0,
			"0.024": 0.0,
			"0.025": 0.0
		}
	}
}
