{
	 "smiles": "CC1CCCCC1=O", 
	 "Tm": 259.15, 
	 "num_atms": 20, 
	 "gaussian": { 
		 "optdone": 1, 
		 "sigma_profile": "yes", 
		 "theory": "DFT", 
		 "functional": "B3LYP", 
		 "basiset": "6-31G**", 
		 "properties": { 
			 "R2extent": 1342.2785, 
			 "electric_dipole_moment_norm": 2.88554278603, 
			 "electric_quadrupole_moment_norm": 9.3631738887, 
			 "total_energy": -349.211419044, 
			 "HOMO_LUMO_gap": 0.22451, 
			 "cosmo_polarized_energy": -6.51, 
			 "cosmo_cavitation_energy": 21.13, 
			 "cosmo_dispersion_energy": -15.82, 
			 "cosmo_repulsion_energy": 1.32, 
			 "cosmo_total_nonelectrostatic_energy": 6.63, 
			 "SMD_solvation_energy": 3.69 
		},
		"coords": [
			{
				"x": 1.8570601471,
				"y": 0.0376579292,
				"z": 0.4986164415,
				"element": "C" 
			},
			{
				"x": 0.6703887461,
				"y": 0.4024226585,
				"z": -0.3949163021,
				"element": "C" 
			},
			{
				"x": -0.6196639378,
				"y": -0.3724977429,
				"z": -0.0545725161,
				"element": "C" 
			},
			{
				"x": -1.8514002433,
				"y": 0.1111556099,
				"z": -0.8591017509,
				"element": "C" 
			},
			{
				"x": -1.4687108096,
				"y": 0.7337990939,
				"z": -2.2222769737,
				"element": "C" 
			},
			{
				"x": -0.2064909323,
				"y": 0.0914767969,
				"z": -2.8120810431,
				"element": "C" 
			},
			{
				"x": 0.9980371186,
				"y": 0.2206075087,
				"z": -1.8816364976,
				"element": "C" 
			},
			{
				"x": 2.1391121995,
				"y": 0.1711012702,
				"z": -2.3007496811,
				"element": "O" 
			},
			{
				"x": 1.6510460344,
				"y": 0.2951982638,
				"z": 1.5422561316,
				"element": "H" 
			},
			{
				"x": 2.7592679046,
				"y": 0.5609232091,
				"z": 0.1755548546,
				"element": "H" 
			},
			{
				"x": 2.0651702449,
				"y": -1.0366845371,
				"z": 0.4480979016,
				"element": "H" 
			},
			{
				"x": 0.4585084026,
				"y": 1.478443957,
				"z": -0.2735890157,
				"element": "H" 
			},
			{
				"x": -0.8172081893,
				"y": -0.2987468147,
				"z": 1.0204638036,
				"element": "H" 
			},
			{
				"x": -0.4381685337,
				"y": -1.43723513,
				"z": -0.252313021,
				"element": "H" 
			},
			{
				"x": -2.5303751312,
				"y": -0.7350849846,
				"z": -1.0143240941,
				"element": "H" 
			},
			{
				"x": -2.4142320827,
				"y": 0.8489918756,
				"z": -0.2762514529,
				"element": "H" 
			},
			{
				"x": -1.2879955224,
				"y": 1.8089767862,
				"z": -2.0998973678,
				"element": "H" 
			},
			{
				"x": -2.3027490106,
				"y": 0.6478444484,
				"z": -2.9267437543,
				"element": "H" 
			},
			{
				"x": -0.3701023828,
				"y": -0.9844320213,
				"z": -2.9754711485,
				"element": "H" 
			},
			{
				"x": 0.0664059781,
				"y": 0.5113818231,
				"z": -3.7849645137,
				"element": "H" 
			}
		],
		 "valence_orbital": [ 
			{
				"type": "occ",
				"energy": -0.35168,
				"method": "rhf"
			},
			{
				"type": "occ",
				"energy": -0.32532,
				"method": "rhf"
			},
			{
				"type": "occ",
				"energy": -0.32098,
				"method": "rhf"
			},
			{
				"type": "occ",
				"energy": -0.31187,
				"method": "rhf"
			},
			{
				"type": "occ",
				"energy": -0.23373,
				"method": "rhf"
			},
			{
				"type": "unocc",
				"energy": -0.00922,
				"method": "rhf"
			},
			{
				"type": "unocc",
				"energy": 0.07283,
				"method": "rhf"
			},
			{
				"type": "unocc",
				"energy": 0.10457,
				"method": "rhf"
			},
			{
				"type": "unocc",
				"energy": 0.11561,
				"method": "rhf"
			},
			{
				"type": "unocc",
				"energy": 0.13217,
				"method": "rhf"
			}
		],
		"cosmo_sigma_profile": { 
			"-0.025": 0.0,
			"-0.024": 0.0,
			"-0.023": 0.0,
			"-0.022": 0.0,
			"-0.021": 0.0,
			"-0.02": 0.0,
			"-0.019": 0.0,
			"-0.018": 0.0,
			"-0.017": 0.0,
			"-0.016": 0.0,
			"-0.015": 0.0,
			"-0.014": 0.0,
			"-0.013": 0.0,
			"-0.012": 0.0,
			"-0.011": 0.0,
			"-0.01": 0.0,
			"-0.009": 0.0,
			"-0.008": 0.0,
			"-0.007": 0.0,
			"-0.006": 1.10712818843,
			"-0.005": 7.7147026144,
			"-0.004": 10.466023016,
			"-0.003": 22.2951110552,
			"-0.002": 30.4005544028,
			"-0.001": 27.9085304005,
			"0.0": 19.2235485304,
			"0.001": 15.5584238154,
			"0.002": 4.33001597252,
			"0.003": 1.51910078137,
			"0.004": 1.55504571932,
			"0.005": 1.39190868104,
			"0.006": 2.04705502123,
			"0.007": 1.63587472402,
			"0.008": 1.4368617614,
			"0.009": 1.9361348652,
			"0.01": 1.86474271464,
			"0.011": 2.63704427141,
			"0.012": 3.73312412162,
			"0.013": 3.72759727822,
			"0.014": 0.642894337023,
			"0.015": 0.0,
			"0.016": 0.0,
			"0.017": 0.0,
			"0.018": 0.0,
			"0.019": 0.0,
			"0.02": 0.0,
			"0.021": 0.0,
			"0.022": 0.0,
			"0.023": 0.0,
			"0.024": 0.0,
			"0.025": 0.0
		}
	}
}
