{
	 "smiles": "ClC1=C(Cl)C2=C(OC3=C(O2)C=CC=C3)C(Cl)=C1Cl", 
	 "Tm": 461.15, 
	 "num_atms": 22, 
	 "gaussian": { 
		 "optdone": 1, 
		 "sigma_profile": "yes", 
		 "theory": "DFT", 
		 "functional": "B3LYP", 
		 "basiset": "6-31G**", 
		 "properties": { 
			 "R2extent": 8133.3937, 
			 "electric_dipole_moment_norm": 3.49096188177, 
			 "electric_quadrupole_moment_norm": 3.53523803725, 
			 "total_energy": -2450.86356063, 
			 "HOMO_LUMO_gap": 0.17443, 
			 "cosmo_polarized_energy": -5.36, 
			 "cosmo_cavitation_energy": 33.73, 
			 "cosmo_dispersion_energy": -25.65, 
			 "cosmo_repulsion_energy": 1.95, 
			 "cosmo_total_nonelectrostatic_energy": 10.02, 
			 "SMD_solvation_energy": 5.21 
		},
		"coords": [
			{
				"x": -0.0685312965,
				"y": -3.7433227409,
				"z": -4.017079541,
				"element": "Cl" 
			},
			{
				"x": 0.2232219229,
				"y": -2.4530668881,
				"z": -2.893577756,
				"element": "C" 
			},
			{
				"x": -0.85492453,
				"y": -1.8684371024,
				"z": -2.2056750409,
				"element": "C" 
			},
			{
				"x": -2.487560523,
				"y": -2.4040955718,
				"z": -2.4488092347,
				"element": "Cl" 
			},
			{
				"x": -0.628049542,
				"y": -0.8298304379,
				"z": -1.3000002703,
				"element": "C" 
			},
			{
				"x": 0.6731747922,
				"y": -0.3674941247,
				"z": -1.0740893302,
				"element": "C" 
			},
			{
				"x": 0.9337731041,
				"y": 0.6472405898,
				"z": -0.1948436075,
				"element": "O" 
			},
			{
				"x": -0.1525259296,
				"y": 1.1983971008,
				"z": 0.4641098917,
				"element": "C" 
			},
			{
				"x": -1.4498223397,
				"y": 0.7374712143,
				"z": 0.2388607442,
				"element": "C" 
			},
			{
				"x": -1.7057475604,
				"y": -0.2905695997,
				"z": -0.6531278977,
				"element": "O" 
			},
			{
				"x": -2.5240501306,
				"y": 1.3057123972,
				"z": 0.9114485366,
				"element": "C" 
			},
			{
				"x": -2.2950689129,
				"y": 2.3446355225,
				"z": 1.8172472361,
				"element": "C" 
			},
			{
				"x": -0.9975636644,
				"y": 2.8056495799,
				"z": 2.0425345331,
				"element": "C" 
			},
			{
				"x": 0.0799435762,
				"y": 2.230926943,
				"z": 1.3636018798,
				"element": "C" 
			},
			{
				"x": 1.7488773888,
				"y": -0.943253761,
				"z": -1.7536402359,
				"element": "C" 
			},
			{
				"x": 3.3421112186,
				"y": -0.3327168685,
				"z": -1.4367687018,
				"element": "Cl" 
			},
			{
				"x": 1.5281734154,
				"y": -1.9893703795,
				"z": -2.6670560509,
				"element": "C" 
			},
			{
				"x": 2.8712233372,
				"y": -2.6986643517,
				"z": -3.5068413905,
				"element": "Cl" 
			},
			{
				"x": -3.52078522,
				"y": 0.9254737008,
				"z": 0.7147744959,
				"element": "H" 
			},
			{
				"x": -3.1335646647,
				"y": 2.7891906092,
				"z": 2.3431546208,
				"element": "H" 
			},
			{
				"x": -0.816994656,
				"y": 3.6122983027,
				"z": 2.7453829826,
				"element": "H" 
			},
			{
				"x": 1.0997902145,
				"y": 2.5672258658,
				"z": 1.5170941366,
				"element": "H" 
			}
		],
		 "valence_orbital": [ 
			{
				"type": "occ",
				"energy": -0.3069,
				"method": "rhf"
			},
			{
				"type": "occ",
				"energy": -0.2744,
				"method": "rhf"
			},
			{
				"type": "occ",
				"energy": -0.27322,
				"method": "rhf"
			},
			{
				"type": "occ",
				"energy": -0.2491,
				"method": "rhf"
			},
			{
				"type": "occ",
				"energy": -0.21975,
				"method": "rhf"
			},
			{
				"type": "unocc",
				"energy": -0.04532,
				"method": "rhf"
			},
			{
				"type": "unocc",
				"energy": -0.04121,
				"method": "rhf"
			},
			{
				"type": "unocc",
				"energy": -0.03822,
				"method": "rhf"
			},
			{
				"type": "unocc",
				"energy": -0.02146,
				"method": "rhf"
			},
			{
				"type": "unocc",
				"energy": 0.00216,
				"method": "rhf"
			}
		],
		"cosmo_sigma_profile": { 
			"-0.025": 0.0,
			"-0.024": 0.0,
			"-0.023": 0.0,
			"-0.022": 0.0,
			"-0.021": 0.0,
			"-0.02": 0.0,
			"-0.019": 0.0,
			"-0.018": 0.0,
			"-0.017": 0.0,
			"-0.016": 0.0,
			"-0.015": 0.0,
			"-0.014": 0.0,
			"-0.013": 0.0,
			"-0.012": 0.0,
			"-0.011": 0.0,
			"-0.01": 0.0,
			"-0.009": 0.0,
			"-0.008": 1.09470848949,
			"-0.007": 6.15308488198,
			"-0.006": 9.2522049809,
			"-0.005": 11.9974249939,
			"-0.004": 15.4756162831,
			"-0.003": 18.4270662313,
			"-0.002": 31.4549436549,
			"-0.001": 27.0580065789,
			"0.0": 23.2745598634,
			"0.001": 28.3210814565,
			"0.002": 31.6217339297,
			"0.003": 43.2819124218,
			"0.004": 24.1299125113,
			"0.005": 4.66631703604,
			"0.006": 3.74429323457,
			"0.007": 2.24994877,
			"0.008": 0.00922709418154,
			"0.009": 0.0,
			"0.01": 0.0,
			"0.011": 0.0,
			"0.012": 0.0,
			"0.013": 0.0,
			"0.014": 0.0,
			"0.015": 0.0,
			"0.016": 0.0,
			"0.017": 0.0,
			"0.018": 0.0,
			"0.019": 0.0,
			"0.02": 0.0,
			"0.021": 0.0,
			"0.022": 0.0,
			"0.023": 0.0,
			"0.024": 0.0,
			"0.025": 0.0
		}
	}
}
