{
	 "smiles": "OC(C1=CN=CC=C1)C1=C(C=CC=C1)[N+]([O-])=O", 
	 "Tm": 376.15, 
	 "num_atms": 27, 
	 "gaussian": { 
		 "optdone": 1, 
		 "sigma_profile": "yes", 
		 "theory": "DFT", 
		 "functional": "B3LYP", 
		 "basiset": "6-31G**", 
		 "properties": { 
			 "R2extent": 4374.3283, 
			 "electric_dipole_moment_norm": 5.10358729327, 
			 "electric_quadrupole_moment_norm": 7.97003048928, 
			 "total_energy": -798.357357136, 
			 "HOMO_LUMO_gap": 0.15305, 
			 "cosmo_polarized_energy": -14.86, 
			 "cosmo_cavitation_energy": 31.48, 
			 "cosmo_dispersion_energy": -22.56, 
			 "cosmo_repulsion_energy": 1.74, 
			 "cosmo_total_nonelectrostatic_energy": 10.66, 
			 "SMD_solvation_energy": 5.95 
		},
		"coords": [
			{
				"x": -2.948336301,
				"y": -1.7414100838,
				"z": 0.0251835491,
				"element": "O" 
			},
			{
				"x": -1.6958112399,
				"y": -1.0923670641,
				"z": 0.2399439642,
				"element": "C" 
			},
			{
				"x": -1.9469303924,
				"y": 0.4114223015,
				"z": 0.1950239114,
				"element": "C" 
			},
			{
				"x": -0.8905441515,
				"y": 1.3254883656,
				"z": 0.3218632777,
				"element": "C" 
			},
			{
				"x": -1.0428828625,
				"y": 2.6530760066,
				"z": 0.2954188953,
				"element": "N" 
			},
			{
				"x": -2.285390046,
				"y": 3.1292215913,
				"z": 0.1385905366,
				"element": "C" 
			},
			{
				"x": -3.4067253933,
				"y": 2.3123812482,
				"z": 0.0088979996,
				"element": "C" 
			},
			{
				"x": -3.2347968974,
				"y": 0.928345482,
				"z": 0.0391881391,
				"element": "C" 
			},
			{
				"x": -0.6988603411,
				"y": -1.5318841208,
				"z": -0.8437409566,
				"element": "C" 
			},
			{
				"x": 0.6241488909,
				"y": -1.9616066131,
				"z": -0.6428784777,
				"element": "C" 
			},
			{
				"x": 1.4301956121,
				"y": -2.4159658369,
				"z": -1.6933061163,
				"element": "C" 
			},
			{
				"x": 0.9322091154,
				"y": -2.4218111187,
				"z": -2.988805837,
				"element": "C" 
			},
			{
				"x": -0.3797496507,
				"y": -1.998451038,
				"z": -3.2218282504,
				"element": "C" 
			},
			{
				"x": -1.1767461679,
				"y": -1.57602693,
				"z": -2.1628830353,
				"element": "C" 
			},
			{
				"x": 1.2529511689,
				"y": -1.9728746437,
				"z": 0.6900280696,
				"element": "N" 
			},
			{
				"x": 2.1620362877,
				"y": -2.7777939058,
				"z": 0.881561898,
				"element": "O" 
			},
			{
				"x": 0.8485568222,
				"y": -1.1717666788,
				"z": 1.5378755726,
				"element": "O" 
			},
			{
				"x": -2.8187134863,
				"y": -2.6873199535,
				"z": 0.1692655373,
				"element": "H" 
			},
			{
				"x": -1.3019886474,
				"y": -1.3491373541,
				"z": 1.2266575382,
				"element": "H" 
			},
			{
				"x": 0.1249584335,
				"y": 0.9633777863,
				"z": 0.4621600468,
				"element": "H" 
			},
			{
				"x": -2.3849572957,
				"y": 4.213216774,
				"z": 0.1182240411,
				"element": "H" 
			},
			{
				"x": -4.3938283715,
				"y": 2.7485274277,
				"z": -0.1112394759,
				"element": "H" 
			},
			{
				"x": -4.0787776311,
				"y": 0.2549009944,
				"z": -0.0514295269,
				"element": "H" 
			},
			{
				"x": 2.4348701624,
				"y": -2.7513608383,
				"z": -1.468779022,
				"element": "H" 
			},
			{
				"x": 1.560049931,
				"y": -2.7554250472,
				"z": -3.8086218377,
				"element": "H" 
			},
			{
				"x": -0.7827462019,
				"y": -2.0021017883,
				"z": -4.230189757,
				"element": "H" 
			},
			{
				"x": -2.2047913465,
				"y": -1.2777549628,
				"z": -2.3375806836,
				"element": "H" 
			}
		],
		 "valence_orbital": [ 
			{
				"type": "occ",
				"energy": -0.28232,
				"method": "rhf"
			},
			{
				"type": "occ",
				"energy": -0.27881,
				"method": "rhf"
			},
			{
				"type": "occ",
				"energy": -0.27176,
				"method": "rhf"
			},
			{
				"type": "occ",
				"energy": -0.25123,
				"method": "rhf"
			},
			{
				"type": "occ",
				"energy": -0.24743,
				"method": "rhf"
			},
			{
				"type": "unocc",
				"energy": -0.09438,
				"method": "rhf"
			},
			{
				"type": "unocc",
				"energy": -0.03623,
				"method": "rhf"
			},
			{
				"type": "unocc",
				"energy": -0.01909,
				"method": "rhf"
			},
			{
				"type": "unocc",
				"energy": -0.01437,
				"method": "rhf"
			},
			{
				"type": "unocc",
				"energy": -0.00516,
				"method": "rhf"
			}
		],
		"cosmo_sigma_profile": { 
			"-0.025": 0.0,
			"-0.024": 0.0,
			"-0.023": 0.0,
			"-0.022": 0.0,
			"-0.021": 0.0,
			"-0.02": 0.0,
			"-0.019": 0.0,
			"-0.018": 0.0,
			"-0.017": 0.369576057895,
			"-0.016": 1.18539431192,
			"-0.015": 1.03486993811,
			"-0.014": 0.736418670866,
			"-0.013": 0.993368554788,
			"-0.012": 1.29374537699,
			"-0.011": 1.11693750942,
			"-0.01": 1.45445847101,
			"-0.009": 1.53315832511,
			"-0.008": 2.52398326475,
			"-0.007": 9.54578733917,
			"-0.006": 15.9341158094,
			"-0.005": 18.0253914815,
			"-0.004": 16.4463702906,
			"-0.003": 13.817969536,
			"-0.002": 13.9776953194,
			"-0.001": 14.2982208834,
			"0.0": 16.4869103309,
			"0.001": 21.4859214276,
			"0.002": 28.6781331658,
			"0.003": 17.3702607969,
			"0.004": 7.24289783391,
			"0.005": 6.57490908456,
			"0.006": 6.50410280384,
			"0.007": 9.14820963466,
			"0.008": 8.26477055737,
			"0.009": 6.84804591916,
			"0.01": 3.27542358349,
			"0.011": 1.38242518277,
			"0.012": 0.780126861763,
			"0.013": 1.3574433484,
			"0.014": 0.797803704036,
			"0.015": 0.675078398129,
			"0.016": 0.999177637044,
			"0.017": 0.393851966267,
			"0.018": 0.0,
			"0.019": 0.0,
			"0.02": 0.0,
			"0.021": 0.0,
			"0.022": 0.0,
			"0.023": 0.0,
			"0.024": 0.0,
			"0.025": 0.0
		}
	}
}
