{
	 "smiles": "OC(=O)C1=CC(Br)=C(C=C1)S(Cl)(=O)=O", 
	 "Tm": 480.15, 
	 "num_atms": 18, 
	 "gaussian": { 
		 "optdone": 1, 
		 "sigma_profile": "yes", 
		 "theory": "DFT", 
		 "functional": "B3LYP", 
		 "basiset": "6-31G**", 
		 "properties": { 
			 "R2extent": 6028.281, 
			 "electric_dipole_moment_norm": 2.89344259318, 
			 "electric_quadrupole_moment_norm": 22.6990495711, 
			 "total_energy": -3999.75618542, 
			 "HOMO_LUMO_gap": 0.17559, 
			 "cosmo_polarized_energy": -18.09, 
			 "cosmo_cavitation_energy": 28.86, 
			 "cosmo_dispersion_energy": -21.95, 
			 "cosmo_repulsion_energy": 1.67, 
			 "cosmo_total_nonelectrostatic_energy": 8.58, 
			 "SMD_solvation_energy": 3.95 
		},
		"coords": [
			{
				"x": -0.2776966923,
				"y": 3.8550638919,
				"z": 1.4576463444,
				"element": "O" 
			},
			{
				"x": -0.2806711972,
				"y": 2.541537162,
				"z": 1.7898505513,
				"element": "C" 
			},
			{
				"x": -0.4994364436,
				"y": 2.1940734235,
				"z": 2.9241150486,
				"element": "O" 
			},
			{
				"x": -0.0057271844,
				"y": 1.5547935661,
				"z": 0.68487782,
				"element": "C" 
			},
			{
				"x": -0.2297457911,
				"y": 1.8538655484,
				"z": -0.6628013632,
				"element": "C" 
			},
			{
				"x": 0.0165132016,
				"y": 0.9050326584,
				"z": -1.6572303211,
				"element": "C" 
			},
			{
				"x": -0.3117520944,
				"y": 1.4208927704,
				"z": -3.4518416982,
				"element": "Br" 
			},
			{
				"x": 0.4976449252,
				"y": -0.3569564452,
				"z": -1.2817429468,
				"element": "C" 
			},
			{
				"x": 0.7158515756,
				"y": -0.6637918365,
				"z": 0.0668057871,
				"element": "C" 
			},
			{
				"x": 0.4529567443,
				"y": 0.2839734321,
				"z": 1.0477819002,
				"element": "C" 
			},
			{
				"x": 0.8249397649,
				"y": -1.703147343,
				"z": -2.4408346701,
				"element": "S" 
			},
			{
				"x": 2.55791999,
				"y": -0.9855925235,
				"z": -3.4277017859,
				"element": "Cl" 
			},
			{
				"x": -0.2351249106,
				"y": -1.792796221,
				"z": -3.4321478809,
				"element": "O" 
			},
			{
				"x": 1.2503143869,
				"y": -2.8615271568,
				"z": -1.6665355524,
				"element": "O" 
			},
			{
				"x": 0.0817111689,
				"y": 3.988934781,
				"z": 0.5696019083,
				"element": "H" 
			},
			{
				"x": -0.6332073982,
				"y": 2.8138771667,
				"z": -0.9673052232,
				"element": "H" 
			},
			{
				"x": 1.0853404913,
				"y": -1.6482705729,
				"z": 0.3278692147,
				"element": "H" 
			},
			{
				"x": 0.5978694632,
				"y": 0.0574376984,
				"z": 2.0977928672,
				"element": "H" 
			}
		],
		 "valence_orbital": [ 
			{
				"type": "occ",
				"energy": -0.32657,
				"method": "rhf"
			},
			{
				"type": "occ",
				"energy": -0.31834,
				"method": "rhf"
			},
			{
				"type": "occ",
				"energy": -0.31374,
				"method": "rhf"
			},
			{
				"type": "occ",
				"energy": -0.30099,
				"method": "rhf"
			},
			{
				"type": "occ",
				"energy": -0.28661,
				"method": "rhf"
			},
			{
				"type": "unocc",
				"energy": -0.11102,
				"method": "rhf"
			},
			{
				"type": "unocc",
				"energy": -0.08257,
				"method": "rhf"
			},
			{
				"type": "unocc",
				"energy": -0.06526,
				"method": "rhf"
			},
			{
				"type": "unocc",
				"energy": -0.03312,
				"method": "rhf"
			},
			{
				"type": "unocc",
				"energy": 0.00197,
				"method": "rhf"
			}
		],
		"cosmo_sigma_profile": { 
			"-0.025": 0.0,
			"-0.024": 0.0,
			"-0.023": 0.0,
			"-0.022": 0.0,
			"-0.021": 0.0332075634063,
			"-0.02": 0.811536694357,
			"-0.019": 0.845931076938,
			"-0.018": 1.3775939979,
			"-0.017": 1.03631787204,
			"-0.016": 0.841697604737,
			"-0.015": 1.23526995318,
			"-0.014": 0.96348434624,
			"-0.013": 1.11929534648,
			"-0.012": 1.80088757663,
			"-0.011": 0.924849418353,
			"-0.01": 1.40801826912,
			"-0.009": 3.6059623105,
			"-0.008": 5.68134094702,
			"-0.007": 5.85550092478,
			"-0.006": 8.44563072302,
			"-0.005": 10.7911601457,
			"-0.004": 9.8273178123,
			"-0.003": 16.7385114349,
			"-0.002": 22.2712391221,
			"-0.001": 17.2324548646,
			"0.0": 13.0407934482,
			"0.001": 12.3152798964,
			"0.002": 21.8168571155,
			"0.003": 19.1192441351,
			"0.004": 6.53360399035,
			"0.005": 6.27126478867,
			"0.006": 6.19037404355,
			"0.007": 11.3899943354,
			"0.008": 12.0644985428,
			"0.009": 5.62839574175,
			"0.01": 5.16274517671,
			"0.011": 4.43508186445,
			"0.012": 1.52774057593,
			"0.013": 0.0555688529606,
			"0.014": 0.0,
			"0.015": 0.0,
			"0.016": 0.0,
			"0.017": 0.0,
			"0.018": 0.0,
			"0.019": 0.0,
			"0.02": 0.0,
			"0.021": 0.0,
			"0.022": 0.0,
			"0.023": 0.0,
			"0.024": 0.0,
			"0.025": 0.0
		}
	}
}
