{
	 "smiles": "OC(=O)CC1=CNC2=C1C=C(F)C=C2", 
	 "Tm": 413.15, 
	 "num_atms": 22, 
	 "gaussian": { 
		 "optdone": 1, 
		 "sigma_profile": "yes", 
		 "theory": "DFT", 
		 "functional": "B3LYP", 
		 "basiset": "6-31G**", 
		 "properties": { 
			 "R2extent": 3245.9857, 
			 "electric_dipole_moment_norm": 4.92671591529, 
			 "electric_quadrupole_moment_norm": 6.86698780179, 
			 "total_energy": -690.938103354, 
			 "HOMO_LUMO_gap": 0.18928, 
			 "cosmo_polarized_energy": -15.49, 
			 "cosmo_cavitation_energy": 27.29, 
			 "cosmo_dispersion_energy": -19.6, 
			 "cosmo_repulsion_energy": 1.53, 
			 "cosmo_total_nonelectrostatic_energy": 9.21, 
			 "SMD_solvation_energy": 6.1 
		},
		"coords": [
			{
				"x": 1.0122947381,
				"y": -3.0250124687,
				"z": 2.7697841949,
				"element": "O" 
			},
			{
				"x": -0.1878880118,
				"y": -2.846945613,
				"z": 2.1690964629,
				"element": "C" 
			},
			{
				"x": -0.7371107737,
				"y": -3.7219151888,
				"z": 1.535507931,
				"element": "O" 
			},
			{
				"x": -0.7204064692,
				"y": -1.4370041053,
				"z": 2.3645279908,
				"element": "C" 
			},
			{
				"x": -0.1929358575,
				"y": -0.4916434456,
				"z": 1.3181083045,
				"element": "C" 
			},
			{
				"x": 0.6168573139,
				"y": 0.5963001619,
				"z": 1.5342111372,
				"element": "C" 
			},
			{
				"x": 0.8724411828,
				"y": 1.2380192875,
				"z": 0.3400356097,
				"element": "N" 
			},
			{
				"x": 0.2263201372,
				"y": 0.5684119518,
				"z": -0.6825725314,
				"element": "C" 
			},
			{
				"x": -0.4535138652,
				"y": -0.5361667013,
				"z": -0.0991540827,
				"element": "C" 
			},
			{
				"x": -1.1964096738,
				"y": -1.4041990644,
				"z": -0.9209593441,
				"element": "C" 
			},
			{
				"x": -1.2311628797,
				"y": -1.1212151937,
				"z": -2.2733560829,
				"element": "C" 
			},
			{
				"x": -1.9361858406,
				"y": -1.9345006545,
				"z": -3.0958397214,
				"element": "F" 
			},
			{
				"x": -0.5656659818,
				"y": -0.0286420957,
				"z": -2.8531747796,
				"element": "C" 
			},
			{
				"x": 0.1779017041,
				"y": 0.8324280008,
				"z": -2.0550843723,
				"element": "C" 
			},
			{
				"x": 1.2887391245,
				"y": -3.9318721254,
				"z": 2.5540404579,
				"element": "H" 
			},
			{
				"x": -1.811923816,
				"y": -1.5031260784,
				"z": 2.3118499727,
				"element": "H" 
			},
			{
				"x": -0.4402497604,
				"y": -1.0833838243,
				"z": 3.3606531995,
				"element": "H" 
			},
			{
				"x": 1.0313597963,
				"y": 0.9686077848,
				"z": 2.4607300151,
				"element": "H" 
			},
			{
				"x": 1.4312408552,
				"y": 2.0684060602,
				"z": 0.2343271197,
				"element": "H" 
			},
			{
				"x": -1.7045775807,
				"y": -2.2758629595,
				"z": -0.5244140362,
				"element": "H" 
			},
			{
				"x": -0.6427005212,
				"y": 0.1211691411,
				"z": -3.9243603077,
				"element": "H" 
			},
			{
				"x": 0.7003761795,
				"y": 1.6795471305,
				"z": -2.4897571375,
				"element": "H" 
			}
		],
		 "valence_orbital": [ 
			{
				"type": "occ",
				"energy": -0.31677,
				"method": "rhf"
			},
			{
				"type": "occ",
				"energy": -0.28349,
				"method": "rhf"
			},
			{
				"type": "occ",
				"energy": -0.27015,
				"method": "rhf"
			},
			{
				"type": "occ",
				"energy": -0.21815,
				"method": "rhf"
			},
			{
				"type": "occ",
				"energy": -0.20621,
				"method": "rhf"
			},
			{
				"type": "unocc",
				"energy": -0.01693,
				"method": "rhf"
			},
			{
				"type": "unocc",
				"energy": 0.00934,
				"method": "rhf"
			},
			{
				"type": "unocc",
				"energy": 0.0312,
				"method": "rhf"
			},
			{
				"type": "unocc",
				"energy": 0.06532,
				"method": "rhf"
			},
			{
				"type": "unocc",
				"energy": 0.07459,
				"method": "rhf"
			}
		],
		"cosmo_sigma_profile": { 
			"-0.025": 0.0,
			"-0.024": 0.0,
			"-0.023": 0.0,
			"-0.022": 0.0,
			"-0.021": 0.0,
			"-0.02": 0.0,
			"-0.019": 0.0527506402105,
			"-0.018": 0.598280963466,
			"-0.017": 0.886552102366,
			"-0.016": 1.89965237768,
			"-0.015": 2.65668592427,
			"-0.014": 1.63239721328,
			"-0.013": 1.52525287742,
			"-0.012": 2.26551353231,
			"-0.011": 1.83366359752,
			"-0.01": 2.60265649773,
			"-0.009": 2.19955167454,
			"-0.008": 3.90322944895,
			"-0.007": 7.33147290403,
			"-0.006": 11.0304371107,
			"-0.005": 8.94712050398,
			"-0.004": 10.7103732454,
			"-0.003": 11.3110232539,
			"-0.002": 11.1789243894,
			"-0.001": 9.58710729771,
			"0.0": 8.64452081662,
			"0.001": 10.2654901994,
			"0.002": 13.4907454593,
			"0.003": 17.2269006715,
			"0.004": 24.6412309662,
			"0.005": 28.6878239007,
			"0.006": 4.65169177777,
			"0.007": 3.42191181421,
			"0.008": 2.2765619714,
			"0.009": 3.08941655422,
			"0.01": 2.79781030559,
			"0.011": 3.55748012926,
			"0.012": 3.03033677458,
			"0.013": 0.0774647843003,
			"0.014": 0.0,
			"0.015": 0.0,
			"0.016": 0.0,
			"0.017": 0.0,
			"0.018": 0.0,
			"0.019": 0.0,
			"0.02": 0.0,
			"0.021": 0.0,
			"0.022": 0.0,
			"0.023": 0.0,
			"0.024": 0.0,
			"0.025": 0.0
		}
	}
}
