{
	 "smiles": "NC1=CC(Br)=CC=C1", 
	 "Tm": 290.35, 
	 "num_atms": 14, 
	 "gaussian": { 
		 "optdone": 1, 
		 "sigma_profile": "yes", 
		 "theory": "DFT", 
		 "functional": "B3LYP", 
		 "basiset": "6-31G**", 
		 "properties": { 
			 "R2extent": 3141.559, 
			 "electric_dipole_moment_norm": 3.10577112003, 
			 "electric_quadrupole_moment_norm": 6.7932788166, 
			 "total_energy": -2858.4131682, 
			 "HOMO_LUMO_gap": 0.2035, 
			 "cosmo_polarized_energy": -8.43, 
			 "cosmo_cavitation_energy": 20.14, 
			 "cosmo_dispersion_energy": -15.6, 
			 "cosmo_repulsion_energy": 1.3, 
			 "cosmo_total_nonelectrostatic_energy": 5.84, 
			 "SMD_solvation_energy": 2.31 
		},
		"coords": [
			{
				"x": -0.2268757795,
				"y": 0.6048636707,
				"z": 1.2446102501,
				"element": "N" 
			},
			{
				"x": -0.3361360048,
				"y": 0.3346949344,
				"z": -0.1179034479,
				"element": "C" 
			},
			{
				"x": 0.5527268464,
				"y": 0.9270888685,
				"z": -1.0327091037,
				"element": "C" 
			},
			{
				"x": 0.4646328157,
				"y": 0.6015946305,
				"z": -2.3814948847,
				"element": "C" 
			},
			{
				"x": 1.6868897143,
				"y": 1.4267743497,
				"z": -3.6052109008,
				"element": "Br" 
			},
			{
				"x": -0.4803365423,
				"y": -0.2973361608,
				"z": -2.8707307449,
				"element": "C" 
			},
			{
				"x": -1.3587661756,
				"y": -0.8796562107,
				"z": -1.9538244436,
				"element": "C" 
			},
			{
				"x": -1.2958406891,
				"y": -0.5746787889,
				"z": -0.5974994049,
				"element": "C" 
			},
			{
				"x": 0.2226512419,
				"y": 1.4781947128,
				"z": 1.481543392,
				"element": "H" 
			},
			{
				"x": -1.0650705274,
				"y": 0.4477853985,
				"z": 1.7864575137,
				"element": "H" 
			},
			{
				"x": 1.3046833878,
				"y": 1.6292492342,
				"z": -0.6886109526,
				"element": "H" 
			},
			{
				"x": -0.5281885328,
				"y": -0.5323369829,
				"z": -3.9267332423,
				"element": "H" 
			},
			{
				"x": -2.1071485989,
				"y": -1.583198617,
				"z": -2.3075550394,
				"element": "H" 
			},
			{
				"x": -1.9857211557,
				"y": -1.042239039,
				"z": 0.100061009,
				"element": "H" 
			}
		],
		 "valence_orbital": [ 
			{
				"type": "occ",
				"energy": -0.3334,
				"method": "rhf"
			},
			{
				"type": "occ",
				"energy": -0.29171,
				"method": "rhf"
			},
			{
				"type": "occ",
				"energy": -0.28,
				"method": "rhf"
			},
			{
				"type": "occ",
				"energy": -0.24012,
				"method": "rhf"
			},
			{
				"type": "occ",
				"energy": -0.21029,
				"method": "rhf"
			},
			{
				"type": "unocc",
				"energy": -0.00679,
				"method": "rhf"
			},
			{
				"type": "unocc",
				"energy": 0.00846,
				"method": "rhf"
			},
			{
				"type": "unocc",
				"energy": 0.0133,
				"method": "rhf"
			},
			{
				"type": "unocc",
				"energy": 0.07522,
				"method": "rhf"
			},
			{
				"type": "unocc",
				"energy": 0.10894,
				"method": "rhf"
			}
		],
		"cosmo_sigma_profile": { 
			"-0.025": 0.0,
			"-0.024": 0.0,
			"-0.023": 0.0,
			"-0.022": 0.0,
			"-0.021": 0.0,
			"-0.02": 0.0,
			"-0.019": 0.0,
			"-0.018": 0.0,
			"-0.017": 0.0,
			"-0.016": 0.0,
			"-0.015": 0.0,
			"-0.014": 0.0,
			"-0.013": 0.956777310643,
			"-0.012": 3.12604134281,
			"-0.011": 2.83733932379,
			"-0.01": 3.0408528216,
			"-0.009": 3.36250140676,
			"-0.008": 3.35699805767,
			"-0.007": 3.62057906871,
			"-0.006": 7.40611782952,
			"-0.005": 6.6932829982,
			"-0.004": 9.47794640772,
			"-0.003": 9.38342765471,
			"-0.002": 6.76247343504,
			"-0.001": 8.22095283329,
			"0.0": 7.37631266962,
			"0.001": 8.74692922729,
			"0.002": 11.1871929822,
			"0.003": 15.8450661102,
			"0.004": 18.5895850652,
			"0.005": 23.5114312795,
			"0.006": 4.56778522657,
			"0.007": 0.73851294141,
			"0.008": 1.12775666505,
			"0.009": 0.853145004027,
			"0.01": 0.650099577105,
			"0.011": 0.844920545844,
			"0.012": 0.164652384532,
			"0.013": 0.920887408364,
			"0.014": 0.447259315636,
			"0.015": 0.0,
			"0.016": 0.0,
			"0.017": 0.0,
			"0.018": 0.0,
			"0.019": 0.0,
			"0.02": 0.0,
			"0.021": 0.0,
			"0.022": 0.0,
			"0.023": 0.0,
			"0.024": 0.0,
			"0.025": 0.0
		}
	}
}
