{
	 "smiles": "CC1=NOC(=N1)C1=CC=CC=C1C(O)=O", 
	 "Tm": 425.15, 
	 "num_atms": 23, 
	 "gaussian": { 
		 "optdone": 1, 
		 "sigma_profile": "yes", 
		 "theory": "DFT", 
		 "functional": "B3LYP", 
		 "basiset": "6-31G**", 
		 "properties": { 
			 "R2extent": 3651.3743, 
			 "electric_dipole_moment_norm": 5.45799769238, 
			 "electric_quadrupole_moment_norm": 21.7241892521, 
			 "total_energy": -721.032573943, 
			 "HOMO_LUMO_gap": 0.18756, 
			 "cosmo_polarized_energy": -14.02, 
			 "cosmo_cavitation_energy": 28.16, 
			 "cosmo_dispersion_energy": -20.87, 
			 "cosmo_repulsion_energy": 1.61, 
			 "cosmo_total_nonelectrostatic_energy": 8.9, 
			 "SMD_solvation_energy": 3.94 
		},
		"coords": [
			{
				"x": -3.1994309201,
				"y": 0.180417727,
				"z": -2.0777959959,
				"element": "C" 
			},
			{
				"x": -2.3151042628,
				"y": 0.0030011599,
				"z": -0.890596067,
				"element": "C" 
			},
			{
				"x": -2.7934388936,
				"y": -0.2642740743,
				"z": 0.2994730341,
				"element": "N" 
			},
			{
				"x": -1.6248374322,
				"y": -0.3507306624,
				"z": 1.0919314187,
				"element": "O" 
			},
			{
				"x": -0.5728999987,
				"y": -0.096783556,
				"z": 0.2804234609,
				"element": "C" 
			},
			{
				"x": -0.9411112047,
				"y": 0.1138076248,
				"z": -0.9513882206,
				"element": "N" 
			},
			{
				"x": 0.8012042484,
				"y": -0.1818007567,
				"z": 0.7994200094,
				"element": "C" 
			},
			{
				"x": 1.7141633118,
				"y": -0.74530924,
				"z": -0.1125144511,
				"element": "C" 
			},
			{
				"x": 3.0507468375,
				"y": -0.9270209258,
				"z": 0.2196575586,
				"element": "C" 
			},
			{
				"x": 3.5048788244,
				"y": -0.5247382258,
				"z": 1.4753678,
				"element": "C" 
			},
			{
				"x": 2.6225799352,
				"y": 0.0730644169,
				"z": 2.3686972541,
				"element": "C" 
			},
			{
				"x": 1.2629146465,
				"y": 0.2556283432,
				"z": 2.0694010768,
				"element": "C" 
			},
			{
				"x": 0.5223101492,
				"y": 1.0325481234,
				"z": 3.1536467599,
				"element": "C" 
			},
			{
				"x": -0.8044747992,
				"y": 0.9146689653,
				"z": 3.2979012144,
				"element": "O" 
			},
			{
				"x": 1.1445786707,
				"y": 1.7512625818,
				"z": 3.9050636585,
				"element": "O" 
			},
			{
				"x": -2.9421172944,
				"y": -0.5500890593,
				"z": -2.8504642279,
				"element": "H" 
			},
			{
				"x": -4.2454764033,
				"y": 0.0541432152,
				"z": -1.7952671243,
				"element": "H" 
			},
			{
				"x": -3.0572044409,
				"y": 1.1776128666,
				"z": -2.5045165809,
				"element": "H" 
			},
			{
				"x": 1.345006958,
				"y": -1.0413316241,
				"z": -1.0878686708,
				"element": "H" 
			},
			{
				"x": 3.72953417,
				"y": -1.3772300185,
				"z": -0.4979528777,
				"element": "H" 
			},
			{
				"x": 4.5457011993,
				"y": -0.6587387423,
				"z": 1.7537105937,
				"element": "H" 
			},
			{
				"x": 2.9724122928,
				"y": 0.4416188568,
				"z": 3.3254652535,
				"element": "H" 
			},
			{
				"x": -1.2060355941,
				"y": 0.2821730044,
				"z": 2.6791051236,
				"element": "H" 
			}
		],
		 "valence_orbital": [ 
			{
				"type": "occ",
				"energy": -0.31397,
				"method": "rhf"
			},
			{
				"type": "occ",
				"energy": -0.31076,
				"method": "rhf"
			},
			{
				"type": "occ",
				"energy": -0.28385,
				"method": "rhf"
			},
			{
				"type": "occ",
				"energy": -0.27172,
				"method": "rhf"
			},
			{
				"type": "occ",
				"energy": -0.26628,
				"method": "rhf"
			},
			{
				"type": "unocc",
				"energy": -0.07872,
				"method": "rhf"
			},
			{
				"type": "unocc",
				"energy": -0.04402,
				"method": "rhf"
			},
			{
				"type": "unocc",
				"energy": -0.01192,
				"method": "rhf"
			},
			{
				"type": "unocc",
				"energy": 0.02739,
				"method": "rhf"
			},
			{
				"type": "unocc",
				"energy": 0.04201,
				"method": "rhf"
			}
		],
		"cosmo_sigma_profile": { 
			"-0.025": 0.0,
			"-0.024": 0.0,
			"-0.023": 0.0,
			"-0.022": 0.0,
			"-0.021": 0.0,
			"-0.02": 0.0,
			"-0.019": 0.0,
			"-0.018": 0.0,
			"-0.017": 0.0,
			"-0.016": 0.0,
			"-0.015": 0.0,
			"-0.014": 0.0,
			"-0.013": 0.0990161387306,
			"-0.012": 0.447161234986,
			"-0.011": 0.521994119422,
			"-0.01": 1.05002694196,
			"-0.009": 1.73583650398,
			"-0.008": 2.82248844508,
			"-0.007": 10.6575122972,
			"-0.006": 17.4169864873,
			"-0.005": 17.1889188978,
			"-0.004": 18.5806470205,
			"-0.003": 20.0797201487,
			"-0.002": 18.9099570407,
			"-0.001": 13.7036371369,
			"0.0": 12.3107175659,
			"0.001": 16.0671473253,
			"0.002": 17.2658287541,
			"0.003": 7.33087405476,
			"0.004": 4.65873152221,
			"0.005": 5.15628951226,
			"0.006": 4.25448368168,
			"0.007": 4.59208287905,
			"0.008": 4.52894708855,
			"0.009": 5.44811124555,
			"0.01": 6.21763377763,
			"0.011": 7.47149508002,
			"0.012": 6.12570545099,
			"0.013": 2.24547891133,
			"0.014": 0.142560312415,
			"0.015": 0.0,
			"0.016": 0.0,
			"0.017": 0.0,
			"0.018": 0.0,
			"0.019": 0.0,
			"0.02": 0.0,
			"0.021": 0.0,
			"0.022": 0.0,
			"0.023": 0.0,
			"0.024": 0.0,
			"0.025": 0.0
		}
	}
}
