{
	 "smiles": "OC(=O)CC1=C(Cl)C(Cl)=CC=C1Cl", 
	 "Tm": 431.15, 
	 "num_atms": 18, 
	 "gaussian": { 
		 "optdone": 1, 
		 "sigma_profile": "yes", 
		 "theory": "DFT", 
		 "functional": "B3LYP", 
		 "basiset": "6-31G**", 
		 "properties": { 
			 "R2extent": 5757.554, 
			 "electric_dipole_moment_norm": 1.54369616181, 
			 "electric_quadrupole_moment_norm": 16.2082387492, 
			 "total_energy": -1838.89957493, 
			 "HOMO_LUMO_gap": 0.21493, 
			 "cosmo_polarized_energy": -10.68, 
			 "cosmo_cavitation_energy": 28.12, 
			 "cosmo_dispersion_energy": -20.41, 
			 "cosmo_repulsion_energy": 1.63, 
			 "cosmo_total_nonelectrostatic_energy": 9.34, 
			 "SMD_solvation_energy": 5.19 
		},
		"coords": [
			{
				"x": -0.1087525111,
				"y": 2.4226004033,
				"z": 0.1569558892,
				"element": "O" 
			},
			{
				"x": -0.5710636334,
				"y": 1.3420197456,
				"z": -0.5141726178,
				"element": "C" 
			},
			{
				"x": -0.5692375854,
				"y": 1.2589212443,
				"z": -1.7193115966,
				"element": "O" 
			},
			{
				"x": -1.0681314858,
				"y": 0.2857416239,
				"z": 0.4634748475,
				"element": "C" 
			},
			{
				"x": -1.6373941714,
				"y": -0.9289142236,
				"z": -0.221932102,
				"element": "C" 
			},
			{
				"x": -2.9905148306,
				"y": -0.9818437568,
				"z": -0.6111142354,
				"element": "C" 
			},
			{
				"x": -4.0198853313,
				"y": 0.3996387655,
				"z": -0.3128012319,
				"element": "Cl" 
			},
			{
				"x": -3.5230283563,
				"y": -2.1169407045,
				"z": -1.2378838332,
				"element": "C" 
			},
			{
				"x": -5.1993644466,
				"y": -2.1968652722,
				"z": -1.7161278456,
				"element": "Cl" 
			},
			{
				"x": -2.7058272679,
				"y": -3.2174445559,
				"z": -1.4929485389,
				"element": "C" 
			},
			{
				"x": -1.3658579837,
				"y": -3.1874590522,
				"z": -1.1290774138,
				"element": "C" 
			},
			{
				"x": -0.8488617927,
				"y": -2.0542275224,
				"z": -0.5050894131,
				"element": "C" 
			},
			{
				"x": 0.8575542407,
				"y": -2.0706556457,
				"z": -0.0815684833,
				"element": "Cl" 
			},
			{
				"x": 0.1955916188,
				"y": 3.0519503554,
				"z": -0.5183626869,
				"element": "H" 
			},
			{
				"x": -0.2258057093,
				"y": 0.0093172063,
				"z": 1.1027784956,
				"element": "H" 
			},
			{
				"x": -1.8111510299,
				"y": 0.7564548255,
				"z": 1.1119691811,
				"element": "H" 
			},
			{
				"x": -3.1254421886,
				"y": -4.0906476809,
				"z": -1.9790178535,
				"element": "H" 
			},
			{
				"x": -0.7221275356,
				"y": -4.0358457555,
				"z": -1.3289705614,
				"element": "H" 
			}
		],
		 "valence_orbital": [ 
			{
				"type": "occ",
				"energy": -0.32384,
				"method": "rhf"
			},
			{
				"type": "occ",
				"energy": -0.31555,
				"method": "rhf"
			},
			{
				"type": "occ",
				"energy": -0.2852,
				"method": "rhf"
			},
			{
				"type": "occ",
				"energy": -0.26951,
				"method": "rhf"
			},
			{
				"type": "occ",
				"energy": -0.25278,
				"method": "rhf"
			},
			{
				"type": "unocc",
				"energy": -0.03785,
				"method": "rhf"
			},
			{
				"type": "unocc",
				"energy": -0.03528,
				"method": "rhf"
			},
			{
				"type": "unocc",
				"energy": -0.01366,
				"method": "rhf"
			},
			{
				"type": "unocc",
				"energy": 0.00366,
				"method": "rhf"
			},
			{
				"type": "unocc",
				"energy": 0.02604,
				"method": "rhf"
			}
		],
		"cosmo_sigma_profile": { 
			"-0.025": 0.0,
			"-0.024": 0.0,
			"-0.023": 0.0,
			"-0.022": 0.0,
			"-0.021": 0.0,
			"-0.02": 0.0,
			"-0.019": 0.0822715695081,
			"-0.018": 1.07786867337,
			"-0.017": 0.766731860297,
			"-0.016": 0.971317832172,
			"-0.015": 0.502601790492,
			"-0.014": 1.4514594652,
			"-0.013": 0.242753600095,
			"-0.012": 0.354286782193,
			"-0.011": 1.08217686802,
			"-0.01": 0.594300424142,
			"-0.009": 1.78866793336,
			"-0.008": 4.88955292897,
			"-0.007": 6.95054808215,
			"-0.006": 7.69309024046,
			"-0.005": 8.14306407986,
			"-0.004": 11.1351278785,
			"-0.003": 12.0629387359,
			"-0.002": 13.9196160733,
			"-0.001": 20.6213076048,
			"0.0": 26.1107180544,
			"0.001": 24.9036889448,
			"0.002": 19.0373833708,
			"0.003": 22.7361236117,
			"0.004": 18.6435959195,
			"0.005": 5.4461538641,
			"0.006": 2.62289907732,
			"0.007": 2.51101475451,
			"0.008": 3.5326537613,
			"0.009": 2.83828378695,
			"0.01": 2.32745167319,
			"0.011": 4.97413470186,
			"0.012": 1.90135842465,
			"0.013": 0.0,
			"0.014": 0.0,
			"0.015": 0.0,
			"0.016": 0.0,
			"0.017": 0.0,
			"0.018": 0.0,
			"0.019": 0.0,
			"0.02": 0.0,
			"0.021": 0.0,
			"0.022": 0.0,
			"0.023": 0.0,
			"0.024": 0.0,
			"0.025": 0.0
		}
	}
}
