{
	 "smiles": "OC(=O)C=CC1=CC=CC=C1C(F)(F)F", 
	 "Tm": 477.15, 
	 "num_atms": 22, 
	 "gaussian": { 
		 "optdone": 1, 
		 "sigma_profile": "yes", 
		 "theory": "DFT", 
		 "functional": "B3LYP", 
		 "basiset": "6-31G**", 
		 "properties": { 
			 "R2extent": 4491.6479, 
			 "electric_dipole_moment_norm": 5.60158607807, 
			 "electric_quadrupole_moment_norm": 25.5526406655, 
			 "total_energy": -835.247702211, 
			 "HOMO_LUMO_gap": 0.17795, 
			 "cosmo_polarized_energy": -14.25, 
			 "cosmo_cavitation_energy": 28.38, 
			 "cosmo_dispersion_energy": -19.9, 
			 "cosmo_repulsion_energy": 1.49, 
			 "cosmo_total_nonelectrostatic_energy": 9.97, 
			 "SMD_solvation_energy": 7.26 
		},
		"coords": [
			{
				"x": 2.4755451007,
				"y": 3.0813303107,
				"z": 2.9463563922,
				"element": "O" 
			},
			{
				"x": 1.8348279972,
				"y": 3.9353583095,
				"z": 2.1028005351,
				"element": "C" 
			},
			{
				"x": 1.7050054438,
				"y": 5.1012030576,
				"z": 2.3950791891,
				"element": "O" 
			},
			{
				"x": 1.2979838164,
				"y": 3.3720520679,
				"z": 0.8337955575,
				"element": "C" 
			},
			{
				"x": 0.9605283146,
				"y": 2.0832784203,
				"z": 0.6573863476,
				"element": "C" 
			},
			{
				"x": 0.3567993835,
				"y": 1.5164107617,
				"z": -0.5606129983,
				"element": "C" 
			},
			{
				"x": -0.4117832105,
				"y": 2.3166131055,
				"z": -1.4217588171,
				"element": "C" 
			},
			{
				"x": -0.9791095769,
				"y": 1.7963777919,
				"z": -2.5822255652,
				"element": "C" 
			},
			{
				"x": -0.7959494034,
				"y": 0.4529150865,
				"z": -2.9082407379,
				"element": "C" 
			},
			{
				"x": -0.0450902736,
				"y": -0.3647258727,
				"z": -2.0644074948,
				"element": "C" 
			},
			{
				"x": 0.5240865435,
				"y": 0.1525976795,
				"z": -0.9003755458,
				"element": "C" 
			},
			{
				"x": 1.3408536683,
				"y": -0.762470968,
				"z": -0.0210389214,
				"element": "C" 
			},
			{
				"x": 0.7865796116,
				"y": -0.9036641368,
				"z": 1.2115250915,
				"element": "F" 
			},
			{
				"x": 2.5939248223,
				"y": -0.2855655938,
				"z": 0.178084326,
				"element": "F" 
			},
			{
				"x": 1.4631860326,
				"y": -1.9988871113,
				"z": -0.5394414452,
				"element": "F" 
			},
			{
				"x": 2.653614359,
				"y": 2.241610217,
				"z": 2.4996885816,
				"element": "H" 
			},
			{
				"x": 1.1333207341,
				"y": 4.1186605346,
				"z": 0.0632736272,
				"element": "H" 
			},
			{
				"x": 1.1223326654,
				"y": 1.3823343007,
				"z": 1.4713810957,
				"element": "H" 
			},
			{
				"x": -0.5870119699,
				"y": 3.354654647,
				"z": -1.1596307107,
				"element": "H" 
			},
			{
				"x": -1.5727107386,
				"y": 2.4392215057,
				"z": -3.2251054687,
				"element": "H" 
			},
			{
				"x": -1.2385705362,
				"y": 0.0394831039,
				"z": -3.8088720278,
				"element": "H" 
			},
			{
				"x": 0.1050372163,
				"y": -1.4095872173,
				"z": -2.3084610107,
				"element": "H" 
			}
		],
		 "valence_orbital": [ 
			{
				"type": "occ",
				"energy": -0.32955,
				"method": "rhf"
			},
			{
				"type": "occ",
				"energy": -0.3126,
				"method": "rhf"
			},
			{
				"type": "occ",
				"energy": -0.28575,
				"method": "rhf"
			},
			{
				"type": "occ",
				"energy": -0.27654,
				"method": "rhf"
			},
			{
				"type": "occ",
				"energy": -0.25847,
				"method": "rhf"
			},
			{
				"type": "unocc",
				"energy": -0.08052,
				"method": "rhf"
			},
			{
				"type": "unocc",
				"energy": -0.03971,
				"method": "rhf"
			},
			{
				"type": "unocc",
				"energy": -0.00588,
				"method": "rhf"
			},
			{
				"type": "unocc",
				"energy": 0.06133,
				"method": "rhf"
			},
			{
				"type": "unocc",
				"energy": 0.06755,
				"method": "rhf"
			}
		],
		"cosmo_sigma_profile": { 
			"-0.025": 0.0,
			"-0.024": 0.0,
			"-0.023": 0.0,
			"-0.022": 0.0,
			"-0.021": 0.0,
			"-0.02": 0.0,
			"-0.019": 0.0,
			"-0.018": 0.0,
			"-0.017": 0.181545099097,
			"-0.016": 1.24357520937,
			"-0.015": 1.05767355899,
			"-0.014": 1.21313717559,
			"-0.013": 1.0630536902,
			"-0.012": 1.67388231595,
			"-0.011": 0.77213456573,
			"-0.01": 1.14200388487,
			"-0.009": 1.36784835148,
			"-0.008": 4.35236320711,
			"-0.007": 9.69686244522,
			"-0.006": 11.6337983279,
			"-0.005": 11.2300142822,
			"-0.004": 10.6090309516,
			"-0.003": 12.7248969126,
			"-0.002": 12.8693012006,
			"-0.001": 13.8275767708,
			"0.0": 18.6394902875,
			"0.001": 23.1907782402,
			"0.002": 33.1189630457,
			"0.003": 24.0411138774,
			"0.004": 1.87584132506,
			"0.005": 1.90019965726,
			"0.006": 2.53210394224,
			"0.007": 2.24098364599,
			"0.008": 2.34306410696,
			"0.009": 3.87330084263,
			"0.01": 4.55804245017,
			"0.011": 4.96934356311,
			"0.012": 6.15048566841,
			"0.013": 2.13313498442,
			"0.014": 0.0499056326612,
			"0.015": 0.0,
			"0.016": 0.0,
			"0.017": 0.0,
			"0.018": 0.0,
			"0.019": 0.0,
			"0.02": 0.0,
			"0.021": 0.0,
			"0.022": 0.0,
			"0.023": 0.0,
			"0.024": 0.0,
			"0.025": 0.0
		}
	}
}
