{
	 "smiles": "CC1=CC(=CC=C1)C1=NN=C(S)O1", 
	 "Tm": 432.15, 
	 "num_atms": 21, 
	 "gaussian": { 
		 "optdone": 1, 
		 "sigma_profile": "yes", 
		 "theory": "DFT", 
		 "functional": "B3LYP", 
		 "basiset": "6-31G**", 
		 "properties": { 
			 "R2extent": 3785.1856, 
			 "electric_dipole_moment_norm": 4.85309070181, 
			 "electric_quadrupole_moment_norm": 18.0087694083, 
			 "total_energy": -930.662829256, 
			 "HOMO_LUMO_gap": 0.17928, 
			 "cosmo_polarized_energy": -11.93, 
			 "cosmo_cavitation_energy": 27.83, 
			 "cosmo_dispersion_energy": -21.05, 
			 "cosmo_repulsion_energy": 1.61, 
			 "cosmo_total_nonelectrostatic_energy": 8.4, 
			 "SMD_solvation_energy": 2.84 
		},
		"coords": [
			{
				"x": -0.8186397342,
				"y": 2.9066644841,
				"z": -1.5760503828,
				"element": "C" 
			},
			{
				"x": -0.7152552049,
				"y": 1.4110759633,
				"z": -1.7641643939,
				"element": "C" 
			},
			{
				"x": -0.1444304033,
				"y": 0.6010951906,
				"z": -0.7788326432,
				"element": "C" 
			},
			{
				"x": -0.0658240936,
				"y": -0.7903843676,
				"z": -0.9440284878,
				"element": "C" 
			},
			{
				"x": -0.5635320956,
				"y": -1.3858813921,
				"z": -2.1131350301,
				"element": "C" 
			},
			{
				"x": -1.1304740127,
				"y": -0.5832303077,
				"z": -3.0983720373,
				"element": "C" 
			},
			{
				"x": -1.2053701233,
				"y": 0.8001607102,
				"z": -2.9275381922,
				"element": "C" 
			},
			{
				"x": 0.5303048061,
				"y": -1.6374061674,
				"z": 0.0814720629,
				"element": "C" 
			},
			{
				"x": 0.684097972,
				"y": -2.9275012733,
				"z": 0.0864785187,
				"element": "N" 
			},
			{
				"x": 1.3050620496,
				"y": -3.2629398931,
				"z": 1.2903013422,
				"element": "N" 
			},
			{
				"x": 1.4782678254,
				"y": -2.144634219,
				"z": 1.9194537044,
				"element": "C" 
			},
			{
				"x": 2.2194270316,
				"y": -1.9368546868,
				"z": 3.4983305381,
				"element": "S" 
			},
			{
				"x": 1.0200028476,
				"y": -1.061579916,
				"z": 1.2337387609,
				"element": "O" 
			},
			{
				"x": -0.5093005514,
				"y": 3.4443800773,
				"z": -2.4782637148,
				"element": "H" 
			},
			{
				"x": -0.1935728465,
				"y": 3.2503618591,
				"z": -0.7473836879,
				"element": "H" 
			},
			{
				"x": -1.8506132441,
				"y": 3.2076384171,
				"z": -1.3587193753,
				"element": "H" 
			},
			{
				"x": 0.2452406058,
				"y": 1.0532960761,
				"z": 0.1279235188,
				"element": "H" 
			},
			{
				"x": -0.4960578972,
				"y": -2.461688893,
				"z": -2.2317167235,
				"element": "H" 
			},
			{
				"x": -1.5144667881,
				"y": -1.0373889317,
				"z": -4.0070283535,
				"element": "H" 
			},
			{
				"x": -1.6484913572,
				"y": 1.4152782593,
				"z": -3.7068588515,
				"element": "H" 
			},
			{
				"x": 2.0591252141,
				"y": -0.5998609896,
				"z": 3.5163934278,
				"element": "H" 
			}
		],
		 "valence_orbital": [ 
			{
				"type": "occ",
				"energy": -0.32474,
				"method": "rhf"
			},
			{
				"type": "occ",
				"energy": -0.28038,
				"method": "rhf"
			},
			{
				"type": "occ",
				"energy": -0.27838,
				"method": "rhf"
			},
			{
				"type": "occ",
				"energy": -0.2569,
				"method": "rhf"
			},
			{
				"type": "occ",
				"energy": -0.23093,
				"method": "rhf"
			},
			{
				"type": "unocc",
				"energy": -0.05165,
				"method": "rhf"
			},
			{
				"type": "unocc",
				"energy": -0.01089,
				"method": "rhf"
			},
			{
				"type": "unocc",
				"energy": -0.0051,
				"method": "rhf"
			},
			{
				"type": "unocc",
				"energy": 0.01183,
				"method": "rhf"
			},
			{
				"type": "unocc",
				"energy": 0.04833,
				"method": "rhf"
			}
		],
		"cosmo_sigma_profile": { 
			"-0.025": 0.0,
			"-0.024": 0.0,
			"-0.023": 0.0,
			"-0.022": 0.0,
			"-0.021": 0.0,
			"-0.02": 0.0,
			"-0.019": 0.0,
			"-0.018": 0.0,
			"-0.017": 0.0,
			"-0.016": 0.0,
			"-0.015": 0.0,
			"-0.014": 0.320823353335,
			"-0.013": 1.78430943671,
			"-0.012": 1.78498853043,
			"-0.011": 1.07485285772,
			"-0.01": 1.63064527087,
			"-0.009": 1.18674897913,
			"-0.008": 1.83043606634,
			"-0.007": 2.0331038199,
			"-0.006": 8.01139992668,
			"-0.005": 13.0313826944,
			"-0.004": 19.1743589385,
			"-0.003": 17.0935904943,
			"-0.002": 19.9196539156,
			"-0.001": 20.5365432128,
			"0.0": 22.264960717,
			"0.001": 19.8170867535,
			"0.002": 15.9297937003,
			"0.003": 15.0337991324,
			"0.004": 15.4830582503,
			"0.005": 5.99548467127,
			"0.006": 2.11810119893,
			"0.007": 2.12381298567,
			"0.008": 1.88039990904,
			"0.009": 2.74376189621,
			"0.01": 2.50528766185,
			"0.011": 3.43945863915,
			"0.012": 2.81615437493,
			"0.013": 2.60976883365,
			"0.014": 1.74144679554,
			"0.015": 0.276732317544,
			"0.016": 0.0,
			"0.017": 0.0,
			"0.018": 0.0,
			"0.019": 0.0,
			"0.02": 0.0,
			"0.021": 0.0,
			"0.022": 0.0,
			"0.023": 0.0,
			"0.024": 0.0,
			"0.025": 0.0
		}
	}
}
