{
	 "smiles": "CC1=C(C)C=C(C=C1)C1=NN(CCC#N)C=C1C(O)=O", 
	 "Tm": 448.15, 
	 "num_atms": 35, 
	 "gaussian": { 
		 "optdone": 1, 
		 "sigma_profile": "yes", 
		 "theory": "DFT", 
		 "functional": "B3LYP", 
		 "basiset": "6-31G**", 
		 "properties": { 
			 "R2extent": 6880.3302, 
			 "electric_dipole_moment_norm": 2.96711151796, 
			 "electric_quadrupole_moment_norm": 35.2868424987, 
			 "total_energy": -895.336291226, 
			 "HOMO_LUMO_gap": 0.18761, 
			 "cosmo_polarized_energy": -24.49, 
			 "cosmo_cavitation_energy": 40.65, 
			 "cosmo_dispersion_energy": -27.27, 
			 "cosmo_repulsion_energy": 2.11, 
			 "cosmo_total_nonelectrostatic_energy": 15.48, 
			 "SMD_solvation_energy": 8.7 
		},
		"coords": [
			{
				"x": 4.6005051261,
				"y": -0.1653054886,
				"z": -0.5431795798,
				"element": "C" 
			},
			{
				"x": 3.1113153254,
				"y": 0.0776699148,
				"z": -0.5002124067,
				"element": "C" 
			},
			{
				"x": 2.2176687884,
				"y": -0.9527447284,
				"z": -0.1334892362,
				"element": "C" 
			},
			{
				"x": 2.7262726147,
				"y": -2.3288068289,
				"z": 0.2266656764,
				"element": "C" 
			},
			{
				"x": 0.8475901471,
				"y": -0.6874650457,
				"z": -0.1088535116,
				"element": "C" 
			},
			{
				"x": 0.3283231307,
				"y": 0.5740732891,
				"z": -0.4441421246,
				"element": "C" 
			},
			{
				"x": 1.2211837664,
				"y": 1.5910215465,
				"z": -0.7995869142,
				"element": "C" 
			},
			{
				"x": 2.5904078322,
				"y": 1.3348170462,
				"z": -0.8244497438,
				"element": "C" 
			},
			{
				"x": -1.1301321574,
				"y": 0.7887912675,
				"z": -0.3452960853,
				"element": "C" 
			},
			{
				"x": -1.7842717928,
				"y": 0.1830437396,
				"z": 0.64982901,
				"element": "N" 
			},
			{
				"x": -3.0876338764,
				"y": 0.5338868928,
				"z": 0.5087310485,
				"element": "N" 
			},
			{
				"x": -4.0725626572,
				"y": -0.0386967495,
				"z": 1.4057063866,
				"element": "C" 
			},
			{
				"x": -4.5928204185,
				"y": -1.4187959823,
				"z": 0.9442013405,
				"element": "C" 
			},
			{
				"x": -3.5782757948,
				"y": -2.4762265288,
				"z": 0.9505471963,
				"element": "C" 
			},
			{
				"x": -2.7960196801,
				"y": -3.3328939441,
				"z": 0.9577336717,
				"element": "N" 
			},
			{
				"x": -3.2881093184,
				"y": 1.3486836268,
				"z": -0.5459473763,
				"element": "C" 
			},
			{
				"x": -2.0517793994,
				"y": 1.5513659405,
				"z": -1.1435301875,
				"element": "C" 
			},
			{
				"x": -1.9540188348,
				"y": 2.3473392793,
				"z": -2.372920754,
				"element": "C" 
			},
			{
				"x": -0.7236914438,
				"y": 2.366521074,
				"z": -2.9369482884,
				"element": "O" 
			},
			{
				"x": -2.8982860393,
				"y": 2.933969471,
				"z": -2.8735296236,
				"element": "O" 
			},
			{
				"x": 4.8609178246,
				"y": -0.9593448667,
				"z": -1.2539509692,
				"element": "H" 
			},
			{
				"x": 5.1396678068,
				"y": 0.738077481,
				"z": -0.8405343757,
				"element": "H" 
			},
			{
				"x": 4.9883293226,
				"y": -0.4805010112,
				"z": 0.4333419699,
				"element": "H" 
			},
			{
				"x": 3.2820493607,
				"y": -2.7853317338,
				"z": -0.6017107871,
				"element": "H" 
			},
			{
				"x": 3.4104000464,
				"y": -2.2960415325,
				"z": 1.0835889359,
				"element": "H" 
			},
			{
				"x": 1.9012774533,
				"y": -2.9976336356,
				"z": 0.4839387633,
				"element": "H" 
			},
			{
				"x": 0.1558700139,
				"y": -1.4747064081,
				"z": 0.1755919302,
				"element": "H" 
			},
			{
				"x": 0.8517968686,
				"y": 2.5773414056,
				"z": -1.0520098565,
				"element": "H" 
			},
			{
				"x": 3.2745868528,
				"y": 2.1343901702,
				"z": -1.0982599934,
				"element": "H" 
			},
			{
				"x": -3.6109608517,
				"y": -0.1154323122,
				"z": 2.3918307582,
				"element": "H" 
			},
			{
				"x": -4.9197274861,
				"y": 0.6491798192,
				"z": 1.4679107136,
				"element": "H" 
			},
			{
				"x": -5.0106686868,
				"y": -1.3387921774,
				"z": -0.0656439336,
				"element": "H" 
			},
			{
				"x": -5.4106206847,
				"y": -1.7226900944,
				"z": 1.608322303,
				"element": "H" 
			},
			{
				"x": -4.2578484543,
				"y": 1.7327056855,
				"z": -0.8262535826,
				"element": "H" 
			},
			{
				"x": -0.816734704,
				"y": 2.9038314187,
				"z": -3.741390374,
				"element": "H" 
			}
		],
		 "valence_orbital": [ 
			{
				"type": "occ",
				"energy": -0.27748,
				"method": "rhf"
			},
			{
				"type": "occ",
				"energy": -0.27041,
				"method": "rhf"
			},
			{
				"type": "occ",
				"energy": -0.26073,
				"method": "rhf"
			},
			{
				"type": "occ",
				"energy": -0.23298,
				"method": "rhf"
			},
			{
				"type": "occ",
				"energy": -0.21814,
				"method": "rhf"
			},
			{
				"type": "unocc",
				"energy": -0.03053,
				"method": "rhf"
			},
			{
				"type": "unocc",
				"energy": -0.01558,
				"method": "rhf"
			},
			{
				"type": "unocc",
				"energy": 0.0129,
				"method": "rhf"
			},
			{
				"type": "unocc",
				"energy": 0.02068,
				"method": "rhf"
			},
			{
				"type": "unocc",
				"energy": 0.02984,
				"method": "rhf"
			}
		],
		"cosmo_sigma_profile": { 
			"-0.025": 0.0,
			"-0.024": 0.0,
			"-0.023": 0.0,
			"-0.022": 0.0,
			"-0.021": 0.0,
			"-0.02": 0.0,
			"-0.019": 0.00925131949059,
			"-0.018": 0.587650698614,
			"-0.017": 0.805296144212,
			"-0.016": 1.15883280058,
			"-0.015": 0.572281611746,
			"-0.014": 0.770446603666,
			"-0.013": 0.262401550688,
			"-0.012": 0.368991872327,
			"-0.011": 2.44330062522,
			"-0.01": 5.49780774813,
			"-0.009": 12.7530259843,
			"-0.008": 12.6202850679,
			"-0.007": 10.1697024009,
			"-0.006": 9.6939778504,
			"-0.005": 10.2940065057,
			"-0.004": 21.6319236288,
			"-0.003": 22.0379029537,
			"-0.002": 21.7673448917,
			"-0.001": 21.6716717741,
			"0.0": 27.2760438961,
			"0.001": 22.8123384796,
			"0.002": 17.889250795,
			"0.003": 12.6220978733,
			"0.004": 12.1844563375,
			"0.005": 13.4671352977,
			"0.006": 15.3114718242,
			"0.007": 7.04771970664,
			"0.008": 8.14790238047,
			"0.009": 6.96445862341,
			"0.01": 6.45374919499,
			"0.011": 6.09966811431,
			"0.012": 8.21918352282,
			"0.013": 3.54673270661,
			"0.014": 0.445324411903,
			"0.015": 0.0,
			"0.016": 0.0,
			"0.017": 0.0,
			"0.018": 0.0,
			"0.019": 0.0,
			"0.02": 0.0,
			"0.021": 0.0,
			"0.022": 0.0,
			"0.023": 0.0,
			"0.024": 0.0,
			"0.025": 0.0
		}
	}
}
