{
	 "smiles": "OC(=O)COC1=CC=CC(CBr)=C1", 
	 "Tm": 399.15, 
	 "num_atms": 22, 
	 "gaussian": { 
		 "optdone": 1, 
		 "sigma_profile": "yes", 
		 "theory": "DFT", 
		 "functional": "B3LYP", 
		 "basiset": "6-31G**", 
		 "properties": { 
			 "R2extent": 5657.8679, 
			 "electric_dipole_moment_norm": 5.66932896911, 
			 "electric_quadrupole_moment_norm": 15.0185007667, 
			 "total_energy": -3145.44749077, 
			 "HOMO_LUMO_gap": 0.20606, 
			 "cosmo_polarized_energy": -20.55, 
			 "cosmo_cavitation_energy": 29.3, 
			 "cosmo_dispersion_energy": -21.14, 
			 "cosmo_repulsion_energy": 1.71, 
			 "cosmo_total_nonelectrostatic_energy": 9.87, 
			 "SMD_solvation_energy": 5.06 
		},
		"coords": [
			{
				"x": 0.3902206917,
				"y": -2.7987039046,
				"z": -3.4245819737,
				"element": "O" 
			},
			{
				"x": 0.8934723599,
				"y": -2.3901463554,
				"z": -2.2290248435,
				"element": "C" 
			},
			{
				"x": 0.8315695886,
				"y": -3.0978611758,
				"z": -1.2602873268,
				"element": "O" 
			},
			{
				"x": 1.5283902922,
				"y": -0.9924577541,
				"z": -2.2587791651,
				"element": "C" 
			},
			{
				"x": 2.0466229459,
				"y": -0.6000801253,
				"z": -1.013014495,
				"element": "O" 
			},
			{
				"x": 1.1384538308,
				"y": -0.0833197855,
				"z": -0.0986236509,
				"element": "C" 
			},
			{
				"x": 0.6307386419,
				"y": 1.2070108742,
				"z": -0.2646163524,
				"element": "C" 
			},
			{
				"x": -0.2350332671,
				"y": 1.7279673965,
				"z": 0.6990723888,
				"element": "C" 
			},
			{
				"x": -0.5792869095,
				"y": 0.9718761919,
				"z": 1.8178669314,
				"element": "C" 
			},
			{
				"x": -0.0616041986,
				"y": -0.3206738435,
				"z": 1.9863577117,
				"element": "C" 
			},
			{
				"x": -0.4429584212,
				"y": -1.1434785589,
				"z": 3.1745590376,
				"element": "C" 
			},
			{
				"x": 0.7410438436,
				"y": -0.7871111261,
				"z": 4.7553498664,
				"element": "Br" 
			},
			{
				"x": 0.8007365231,
				"y": -0.8467862335,
				"z": 1.0170778674,
				"element": "C" 
			},
			{
				"x": 0.5099677876,
				"y": -2.1176177688,
				"z": -4.103021789,
				"element": "H" 
			},
			{
				"x": 2.3686945944,
				"y": -1.0088393177,
				"z": -2.9640406208,
				"element": "H" 
			},
			{
				"x": 0.7859623849,
				"y": -0.27444475,
				"z": -2.641197672,
				"element": "H" 
			},
			{
				"x": 0.9264234757,
				"y": 1.7967260338,
				"z": -1.1272424664,
				"element": "H" 
			},
			{
				"x": -0.633349097,
				"y": 2.7310566748,
				"z": 0.5789227591,
				"element": "H" 
			},
			{
				"x": -1.2454129423,
				"y": 1.3855744619,
				"z": 2.5697671392,
				"element": "H" 
			},
			{
				"x": -0.3393731124,
				"y": -2.2117337624,
				"z": 2.9956774138,
				"element": "H" 
			},
			{
				"x": -1.4439337365,
				"y": -0.9191123762,
				"z": 3.5385386591,
				"element": "H" 
			},
			{
				"x": 1.2037547243,
				"y": -1.8496447955,
				"z": 1.1000405812,
				"element": "H" 
			}
		],
		 "valence_orbital": [ 
			{
				"type": "occ",
				"energy": -0.28218,
				"method": "rhf"
			},
			{
				"type": "occ",
				"energy": -0.27153,
				"method": "rhf"
			},
			{
				"type": "occ",
				"energy": -0.26676,
				"method": "rhf"
			},
			{
				"type": "occ",
				"energy": -0.25424,
				"method": "rhf"
			},
			{
				"type": "occ",
				"energy": -0.24479,
				"method": "rhf"
			},
			{
				"type": "unocc",
				"energy": -0.03873,
				"method": "rhf"
			},
			{
				"type": "unocc",
				"energy": -0.00952,
				"method": "rhf"
			},
			{
				"type": "unocc",
				"energy": -0.00184,
				"method": "rhf"
			},
			{
				"type": "unocc",
				"energy": 0.02787,
				"method": "rhf"
			},
			{
				"type": "unocc",
				"energy": 0.03873,
				"method": "rhf"
			}
		],
		"cosmo_sigma_profile": { 
			"-0.025": 0.0,
			"-0.024": 0.0,
			"-0.023": 0.0,
			"-0.022": 0.0,
			"-0.021": 0.0,
			"-0.02": 0.599566413073,
			"-0.019": 1.32391559495,
			"-0.018": 1.44010916963,
			"-0.017": 1.49379997852,
			"-0.016": 0.980111030682,
			"-0.015": 0.710898982286,
			"-0.014": 1.22996441816,
			"-0.013": 1.38409709888,
			"-0.012": 1.3767761954,
			"-0.011": 1.68567891132,
			"-0.01": 1.78706150254,
			"-0.009": 3.03540017114,
			"-0.008": 6.47160989405,
			"-0.007": 12.6172187069,
			"-0.006": 15.0786741604,
			"-0.005": 12.9090803741,
			"-0.004": 13.3217432905,
			"-0.003": 10.0378400876,
			"-0.002": 8.97050827695,
			"-0.001": 10.5501428607,
			"0.0": 9.23153942193,
			"0.001": 9.72705345168,
			"0.002": 11.604511324,
			"0.003": 16.3970670472,
			"0.004": 18.2192265628,
			"0.005": 13.976989037,
			"0.006": 15.6211917983,
			"0.007": 8.34527811247,
			"0.008": 4.90909575424,
			"0.009": 6.13744971775,
			"0.01": 7.87421209264,
			"0.011": 4.33680829528,
			"0.012": 2.55432891619,
			"0.013": 0.437660472814,
			"0.014": 0.0,
			"0.015": 0.0,
			"0.016": 0.0,
			"0.017": 0.0,
			"0.018": 0.0,
			"0.019": 0.0,
			"0.02": 0.0,
			"0.021": 0.0,
			"0.022": 0.0,
			"0.023": 0.0,
			"0.024": 0.0,
			"0.025": 0.0
		}
	}
}
