{
	 "smiles": "ClC1=CC=C(SCSC2=CC=C(Cl)C=C2)C=C1", 
	 "Tm": 320.15, 
	 "num_atms": 27, 
	 "gaussian": { 
		 "optdone": 1, 
		 "sigma_profile": "yes", 
		 "theory": "DFT", 
		 "functional": "B3LYP", 
		 "basiset": "6-31G**", 
		 "properties": { 
			 "R2extent": 10109.3696, 
			 "electric_dipole_moment_norm": 1.33050009771, 
			 "electric_quadrupole_moment_norm": 15.9493320227, 
			 "total_energy": -2218.16482127, 
			 "HOMO_LUMO_gap": 0.19762, 
			 "cosmo_polarized_energy": -8.34, 
			 "cosmo_cavitation_energy": 38.91, 
			 "cosmo_dispersion_energy": -28.1, 
			 "cosmo_repulsion_energy": 2.12, 
			 "cosmo_total_nonelectrostatic_energy": 12.94, 
			 "SMD_solvation_energy": 5.1 
		},
		"coords": [
			{
				"x": 3.5678016509,
				"y": 5.4094038005,
				"z": -0.8181510125,
				"element": "Cl" 
			},
			{
				"x": 2.9597774014,
				"y": 3.8452242686,
				"z": -0.3005325646,
				"element": "C" 
			},
			{
				"x": 3.4825301035,
				"y": 3.2546584237,
				"z": 0.8499547606,
				"element": "C" 
			},
			{
				"x": 2.9944899822,
				"y": 2.0131448458,
				"z": 1.2565281578,
				"element": "C" 
			},
			{
				"x": 1.9950197595,
				"y": 1.3625987529,
				"z": 0.520113748,
				"element": "C" 
			},
			{
				"x": 1.4123333112,
				"y": -0.2513861333,
				"z": 1.043744736,
				"element": "S" 
			},
			{
				"x": -0.1017315258,
				"y": 0.2066650949,
				"z": 1.9869681346,
				"element": "C" 
			},
			{
				"x": -1.6158685624,
				"y": 0.6640335098,
				"z": 1.0435274401,
				"element": "S" 
			},
			{
				"x": -2.1988184334,
				"y": -0.9503574934,
				"z": 0.5214427708,
				"element": "C" 
			},
			{
				"x": -1.6960675453,
				"y": -1.557901149,
				"z": -0.6372151692,
				"element": "C" 
			},
			{
				"x": -2.1711808721,
				"y": -2.8036471825,
				"z": -1.0469558217,
				"element": "C" 
			},
			{
				"x": -3.1640010513,
				"y": -3.4336059357,
				"z": -0.2968160053,
				"element": "C" 
			},
			{
				"x": -3.7722930668,
				"y": -4.9981780309,
				"z": -0.8129306357,
				"element": "Cl" 
			},
			{
				"x": -3.6865677334,
				"y": -2.8418996215,
				"z": 0.8531693613,
				"element": "C" 
			},
			{
				"x": -3.1983139375,
				"y": -1.6000797974,
				"z": 1.2585496039,
				"element": "C" 
			},
			{
				"x": 1.4920777775,
				"y": 1.9689984305,
				"z": -0.639060078,
				"element": "C" 
			},
			{
				"x": 1.9669797248,
				"y": 3.2144303363,
				"z": -1.0499995851,
				"element": "C" 
			},
			{
				"x": 4.2576702657,
				"y": 3.7583975905,
				"z": 1.4167355133,
				"element": "H" 
			},
			{
				"x": 3.3948479293,
				"y": 1.5427704919,
				"z": 2.1489123925,
				"element": "H" 
			},
			{
				"x": 0.121547009,
				"y": 1.0657592544,
				"z": 2.6226502964,
				"element": "H" 
			},
			{
				"x": -0.3249589368,
				"y": -0.6519561385,
				"z": 2.6233071763,
				"element": "H" 
			},
			{
				"x": -0.9284855424,
				"y": -1.057856746,
				"z": -1.2168142104,
				"element": "H" 
			},
			{
				"x": -1.7807408766,
				"y": -3.2781103809,
				"z": -1.9403896373,
				"element": "H" 
			},
			{
				"x": -4.4617278275,
				"y": -3.3450038617,
				"z": 1.4204865899,
				"element": "H" 
			},
			{
				"x": -3.5985219663,
				"y": -1.1288241173,
				"z": 2.1505359298,
				"element": "H" 
			},
			{
				"x": 0.7245115707,
				"y": 1.4683106453,
				"z": -1.2181252229,
				"element": "H" 
			},
			{
				"x": 1.5763913921,
				"y": 3.6880111431,
				"z": -1.9438366685,
				"element": "H" 
			}
		],
		 "valence_orbital": [ 
			{
				"type": "occ",
				"energy": -0.27326,
				"method": "rhf"
			},
			{
				"type": "occ",
				"energy": -0.26457,
				"method": "rhf"
			},
			{
				"type": "occ",
				"energy": -0.25179,
				"method": "rhf"
			},
			{
				"type": "occ",
				"energy": -0.24386,
				"method": "rhf"
			},
			{
				"type": "occ",
				"energy": -0.23522,
				"method": "rhf"
			},
			{
				"type": "unocc",
				"energy": -0.0376,
				"method": "rhf"
			},
			{
				"type": "unocc",
				"energy": -0.0324,
				"method": "rhf"
			},
			{
				"type": "unocc",
				"energy": -0.02363,
				"method": "rhf"
			},
			{
				"type": "unocc",
				"energy": -0.02321,
				"method": "rhf"
			},
			{
				"type": "unocc",
				"energy": 0.01637,
				"method": "rhf"
			}
		],
		"cosmo_sigma_profile": { 
			"-0.025": 0.0,
			"-0.024": 0.0,
			"-0.023": 0.0,
			"-0.022": 0.0,
			"-0.021": 0.0,
			"-0.02": 0.0,
			"-0.019": 0.0,
			"-0.018": 0.0,
			"-0.017": 0.0,
			"-0.016": 0.0,
			"-0.015": 0.0,
			"-0.014": 0.0,
			"-0.013": 0.0,
			"-0.012": 0.0,
			"-0.011": 0.0,
			"-0.01": 0.0,
			"-0.009": 0.0,
			"-0.008": 3.93215933016,
			"-0.007": 14.9300151412,
			"-0.006": 18.0096929473,
			"-0.005": 18.1617579473,
			"-0.004": 15.8844113883,
			"-0.003": 17.3640139981,
			"-0.002": 16.020110727,
			"-0.001": 20.9662224246,
			"0.0": 27.24023968,
			"0.001": 34.2133130744,
			"0.002": 37.9587621909,
			"0.003": 41.061183377,
			"0.004": 28.1029435059,
			"0.005": 15.1332705631,
			"0.006": 5.1027376021,
			"0.007": 3.45231510211,
			"0.008": 2.3036708095,
			"0.009": 0.675682736994,
			"0.01": 0.0,
			"0.011": 0.0,
			"0.012": 0.0,
			"0.013": 0.0,
			"0.014": 0.0,
			"0.015": 0.0,
			"0.016": 0.0,
			"0.017": 0.0,
			"0.018": 0.0,
			"0.019": 0.0,
			"0.02": 0.0,
			"0.021": 0.0,
			"0.022": 0.0,
			"0.023": 0.0,
			"0.024": 0.0,
			"0.025": 0.0
		}
	}
}
