{
	 "smiles": "CC1=CC(=CC=C1)C(N)C(O)=O", 
	 "Tm": 503.15, 
	 "num_atms": 23, 
	 "gaussian": { 
		 "optdone": 1, 
		 "sigma_profile": "yes", 
		 "theory": "DFT", 
		 "functional": "B3LYP", 
		 "basiset": "6-31G**", 
		 "properties": { 
			 "R2extent": 2345.8586, 
			 "electric_dipole_moment_norm": 2.35007307759, 
			 "electric_quadrupole_moment_norm": 8.21067910651, 
			 "total_energy": -554.80356941, 
			 "HOMO_LUMO_gap": 0.21375, 
			 "cosmo_polarized_energy": -11.97, 
			 "cosmo_cavitation_energy": 26.99, 
			 "cosmo_dispersion_energy": -19.17, 
			 "cosmo_repulsion_energy": 1.56, 
			 "cosmo_total_nonelectrostatic_energy": 9.38, 
			 "SMD_solvation_energy": 4.54 
		},
		"coords": [
			{
				"x": -3.508776626,
				"y": -0.5439510982,
				"z": -0.2921718188,
				"element": "C" 
			},
			{
				"x": -2.1154166242,
				"y": -0.5814354064,
				"z": 0.2912475907,
				"element": "C" 
			},
			{
				"x": -1.0167191219,
				"y": -0.1230055819,
				"z": -0.4487594459,
				"element": "C" 
			},
			{
				"x": 0.2842100217,
				"y": -0.1808291645,
				"z": 0.0583810302,
				"element": "C" 
			},
			{
				"x": 0.4938702594,
				"y": -0.7019111654,
				"z": 1.3425280214,
				"element": "C" 
			},
			{
				"x": -0.5884394146,
				"y": -1.1559499976,
				"z": 2.09313343,
				"element": "C" 
			},
			{
				"x": -1.8827599621,
				"y": -1.0968647886,
				"z": 1.5719163218,
				"element": "C" 
			},
			{
				"x": 1.4682121419,
				"y": 0.3013882124,
				"z": -0.7885036379,
				"element": "C" 
			},
			{
				"x": 2.5150580152,
				"y": -0.6871244217,
				"z": -1.0388196336,
				"element": "N" 
			},
			{
				"x": 2.1130629384,
				"y": 1.4903558778,
				"z": -0.0839828315,
				"element": "C" 
			},
			{
				"x": 1.4713721463,
				"y": 2.647378529,
				"z": -0.3436332158,
				"element": "O" 
			},
			{
				"x": 3.0678520945,
				"y": 1.413968349,
				"z": 0.6600360548,
				"element": "O" 
			},
			{
				"x": -4.2677890421,
				"y": -0.4539385415,
				"z": 0.4906617656,
				"element": "H" 
			},
			{
				"x": -3.6318001472,
				"y": 0.296364255,
				"z": -0.9821298383,
				"element": "H" 
			},
			{
				"x": -3.7282005427,
				"y": -1.4605270636,
				"z": -0.8542407805,
				"element": "H" 
			},
			{
				"x": -1.1797506546,
				"y": 0.2874292665,
				"z": -1.4434395186,
				"element": "H" 
			},
			{
				"x": 1.4992397703,
				"y": -0.7386239593,
				"z": 1.7526252784,
				"element": "H" 
			},
			{
				"x": -0.4259114404,
				"y": -1.5519505073,
				"z": 3.0917796095,
				"element": "H" 
			},
			{
				"x": -2.720787583,
				"y": -1.4528227007,
				"z": 2.1661803785,
				"element": "H" 
			},
			{
				"x": 1.0707300532,
				"y": 0.6631296323,
				"z": -1.7438080026,
				"element": "H" 
			},
			{
				"x": 2.1016496053,
				"y": -1.607699236,
				"z": -1.1532280346,
				"element": "H" 
			},
			{
				"x": 3.1371765689,
				"y": -0.7193060154,
				"z": -0.234605889,
				"element": "H" 
			},
			{
				"x": 1.9133175438,
				"y": 3.331025526,
				"z": 0.1880331663,
				"element": "H" 
			}
		],
		 "valence_orbital": [ 
			{
				"type": "occ",
				"energy": -0.32287,
				"method": "rhf"
			},
			{
				"type": "occ",
				"energy": -0.28618,
				"method": "rhf"
			},
			{
				"type": "occ",
				"energy": -0.25378,
				"method": "rhf"
			},
			{
				"type": "occ",
				"energy": -0.24687,
				"method": "rhf"
			},
			{
				"type": "occ",
				"energy": -0.22961,
				"method": "rhf"
			},
			{
				"type": "unocc",
				"energy": -0.01586,
				"method": "rhf"
			},
			{
				"type": "unocc",
				"energy": -0.00437,
				"method": "rhf"
			},
			{
				"type": "unocc",
				"energy": 0.02057,
				"method": "rhf"
			},
			{
				"type": "unocc",
				"energy": 0.07666,
				"method": "rhf"
			},
			{
				"type": "unocc",
				"energy": 0.09397,
				"method": "rhf"
			}
		],
		"cosmo_sigma_profile": { 
			"-0.025": 0.0,
			"-0.024": 0.0,
			"-0.023": 0.0,
			"-0.022": 0.0,
			"-0.021": 0.0,
			"-0.02": 0.0,
			"-0.019": 0.184262613218,
			"-0.018": 1.0407013763,
			"-0.017": 1.07950472265,
			"-0.016": 0.462421632993,
			"-0.015": 0.684425304331,
			"-0.014": 0.600203565849,
			"-0.013": 0.581590043347,
			"-0.012": 0.888067397327,
			"-0.011": 1.55221491598,
			"-0.01": 1.37905348717,
			"-0.009": 1.99624512541,
			"-0.008": 2.48260435775,
			"-0.007": 3.59692727504,
			"-0.006": 7.3803474874,
			"-0.005": 13.7367094679,
			"-0.004": 18.1111493227,
			"-0.003": 19.3527085716,
			"-0.002": 16.1570263651,
			"-0.001": 15.6381806021,
			"0.0": 16.6429614773,
			"0.001": 13.0880754136,
			"0.002": 10.1384743754,
			"0.003": 10.5120546764,
			"0.004": 10.2385624989,
			"0.005": 12.0357011614,
			"0.006": 8.86913319797,
			"0.007": 3.86497763247,
			"0.008": 3.85626503737,
			"0.009": 3.48645901433,
			"0.01": 2.56732789191,
			"0.011": 5.00725961835,
			"0.012": 1.42393667227,
			"0.013": 0.654350696727,
			"0.014": 0.998140998779,
			"0.015": 0.508463482843,
			"0.016": 0.620553536387,
			"0.017": 0.591086925415,
			"0.018": 0.402713302828,
			"0.019": 0.227855901172,
			"0.02": 0.0,
			"0.021": 0.0,
			"0.022": 0.0,
			"0.023": 0.0,
			"0.024": 0.0,
			"0.025": 0.0
		}
	}
}
