{
	 "smiles": "CN1C2=C(NC=N2)C(=O)N(C)C1=O", 
	 "Tm": 543.15, 
	 "num_atms": 21, 
	 "gaussian": { 
		 "optdone": 1, 
		 "sigma_profile": "yes", 
		 "theory": "DFT", 
		 "functional": "B3LYP", 
		 "basiset": "6-31G**", 
		 "properties": { 
			 "R2extent": 2297.2209, 
			 "electric_dipole_moment_norm": 3.48896346355, 
			 "electric_quadrupole_moment_norm": 8.23117217594, 
			 "total_energy": -641.063141299, 
			 "HOMO_LUMO_gap": 0.18824, 
			 "cosmo_polarized_energy": -16.34, 
			 "cosmo_cavitation_energy": 24.99, 
			 "cosmo_dispersion_energy": -18.83, 
			 "cosmo_repulsion_energy": 1.46, 
			 "cosmo_total_nonelectrostatic_energy": 7.61, 
			 "SMD_solvation_energy": 4.55 
		},
		"coords": [
			{
				"x": 1.6319865002,
				"y": -0.5189565084,
				"z": 2.6389112475,
				"element": "C" 
			},
			{
				"x": 0.9532799233,
				"y": 0.027100409,
				"z": 1.4646000713,
				"element": "N" 
			},
			{
				"x": -0.3864267038,
				"y": 0.331400994,
				"z": 1.5082749836,
				"element": "C" 
			},
			{
				"x": -1.0456369071,
				"y": 0.8472517088,
				"z": 0.4130928984,
				"element": "C" 
			},
			{
				"x": -2.3497969383,
				"y": 1.0189148351,
				"z": 0.8359532714,
				"element": "N" 
			},
			{
				"x": -2.3943736472,
				"y": 0.6055803915,
				"z": 2.1291990246,
				"element": "C" 
			},
			{
				"x": -1.219076299,
				"y": 0.1790665546,
				"z": 2.5773154412,
				"element": "N" 
			},
			{
				"x": -0.4205381226,
				"y": 1.1122734208,
				"z": -0.8487395404,
				"element": "C" 
			},
			{
				"x": -0.9690638846,
				"y": 1.5696724201,
				"z": -1.8459669996,
				"element": "O" 
			},
			{
				"x": 0.9547592035,
				"y": 0.7720204662,
				"z": -0.808689379,
				"element": "N" 
			},
			{
				"x": 1.7475735202,
				"y": 0.9823807425,
				"z": -2.0250218428,
				"element": "C" 
			},
			{
				"x": 1.6699894612,
				"y": 0.2432099538,
				"z": 0.2853325708,
				"element": "C" 
			},
			{
				"x": 2.8625116743,
				"y": -0.0090049522,
				"z": 0.189887011,
				"element": "O" 
			},
			{
				"x": 1.5592491341,
				"y": 0.182609986,
				"z": 3.4739967295,
				"element": "H" 
			},
			{
				"x": 2.6734990229,
				"y": -0.677460766,
				"z": 2.3680771593,
				"element": "H" 
			},
			{
				"x": 1.1683939878,
				"y": -1.4637356588,
				"z": 2.9344262663,
				"element": "H" 
			},
			{
				"x": -3.1020075878,
				"y": 1.3834233384,
				"z": 0.2700851791,
				"element": "H" 
			},
			{
				"x": -3.3038137743,
				"y": 0.6305415077,
				"z": 2.7131589683,
				"element": "H" 
			},
			{
				"x": 2.5661521508,
				"y": 1.6760939781,
				"z": -1.8223724799,
				"element": "H" 
			},
			{
				"x": 1.0779319707,
				"y": 1.3893460327,
				"z": -2.7795880101,
				"element": "H" 
			},
			{
				"x": 2.1757073158,
				"y": 0.035571146,
				"z": -2.3606325702,
				"element": "H" 
			}
		],
		 "valence_orbital": [ 
			{
				"type": "occ",
				"energy": -0.28866,
				"method": "rhf"
			},
			{
				"type": "occ",
				"energy": -0.28724,
				"method": "rhf"
			},
			{
				"type": "occ",
				"energy": -0.26766,
				"method": "rhf"
			},
			{
				"type": "occ",
				"energy": -0.26035,
				"method": "rhf"
			},
			{
				"type": "occ",
				"energy": -0.22356,
				"method": "rhf"
			},
			{
				"type": "unocc",
				"energy": -0.03532,
				"method": "rhf"
			},
			{
				"type": "unocc",
				"energy": 0.02202,
				"method": "rhf"
			},
			{
				"type": "unocc",
				"energy": 0.03276,
				"method": "rhf"
			},
			{
				"type": "unocc",
				"energy": 0.06784,
				"method": "rhf"
			},
			{
				"type": "unocc",
				"energy": 0.11231,
				"method": "rhf"
			}
		],
		"cosmo_sigma_profile": { 
			"-0.025": 0.0,
			"-0.024": 0.0,
			"-0.023": 0.0,
			"-0.022": 0.0,
			"-0.021": 0.0,
			"-0.02": 0.0,
			"-0.019": 0.0,
			"-0.018": 0.445711975159,
			"-0.017": 1.53206508998,
			"-0.016": 0.954541736495,
			"-0.015": 1.56712074272,
			"-0.014": 1.00514756421,
			"-0.013": 0.801493180379,
			"-0.012": 1.0532864739,
			"-0.011": 2.03065925353,
			"-0.01": 3.48748519738,
			"-0.009": 2.59483447225,
			"-0.008": 2.58037718615,
			"-0.007": 2.23520693618,
			"-0.006": 5.17992570943,
			"-0.005": 11.38069834,
			"-0.004": 14.971439891,
			"-0.003": 22.8488278734,
			"-0.002": 25.7155715315,
			"-0.001": 15.4867547234,
			"0.0": 14.0315042849,
			"0.001": 7.53039590643,
			"0.002": 5.79270508346,
			"0.003": 4.99405397836,
			"0.004": 5.18235794012,
			"0.005": 3.14765300534,
			"0.006": 5.20477827481,
			"0.007": 4.69007918873,
			"0.008": 3.21800544791,
			"0.009": 3.50553404214,
			"0.01": 4.21753262682,
			"0.011": 3.90604054569,
			"0.012": 8.14894895162,
			"0.013": 8.42847709326,
			"0.014": 1.12606753734,
			"0.015": 0.621333708595,
			"0.016": 0.0531955193528,
			"0.017": 0.0,
			"0.018": 0.0,
			"0.019": 0.0,
			"0.02": 0.0,
			"0.021": 0.0,
			"0.022": 0.0,
			"0.023": 0.0,
			"0.024": 0.0,
			"0.025": 0.0
		}
	}
}
