{
	 "smiles": "CSC1=NN=C(C(=O)N1N=CC(C)C)C(C)(C)C", 
	 "Tm": 432.15, 
	 "num_atms": 38, 
	 "gaussian": { 
		 "optdone": 1, 
		 "sigma_profile": "yes", 
		 "theory": "DFT", 
		 "functional": "B3LYP", 
		 "basiset": "6-31G**", 
		 "properties": { 
			 "R2extent": 6208.4123, 
			 "electric_dipole_moment_norm": 2.65373734382, 
			 "electric_quadrupole_moment_norm": 2.62658883916, 
			 "total_energy": -1161.69831439, 
			 "HOMO_LUMO_gap": 0.16416, 
			 "cosmo_polarized_energy": -9.89, 
			 "cosmo_cavitation_energy": 41.11, 
			 "cosmo_dispersion_energy": -29.05, 
			 "cosmo_repulsion_energy": 2.24, 
			 "cosmo_total_nonelectrostatic_energy": 14.31, 
			 "SMD_solvation_energy": 6.66 
		},
		"coords": [
			{
				"x": 0.8993756999,
				"y": -3.2577869996,
				"z": 2.3822720706,
				"element": "C" 
			},
			{
				"x": 1.4427360654,
				"y": -2.5164558954,
				"z": 0.8024788554,
				"element": "S" 
			},
			{
				"x": 0.4316943623,
				"y": -1.0632765116,
				"z": 0.8216305632,
				"element": "C" 
			},
			{
				"x": -0.3811067116,
				"y": -0.8422969639,
				"z": 1.8138693083,
				"element": "N" 
			},
			{
				"x": -1.1533767591,
				"y": 0.2872325205,
				"z": 1.8098291723,
				"element": "N" 
			},
			{
				"x": -1.0971617912,
				"y": 1.1508142123,
				"z": 0.835483807,
				"element": "C" 
			},
			{
				"x": -0.2029091967,
				"y": 0.9754436838,
				"z": -0.3283832814,
				"element": "C" 
			},
			{
				"x": -0.1069126554,
				"y": 1.7518020411,
				"z": -1.2741620925,
				"element": "O" 
			},
			{
				"x": 0.5674954515,
				"y": -0.2094673381,
				"z": -0.2633045819,
				"element": "N" 
			},
			{
				"x": 1.4986773808,
				"y": -0.6580879701,
				"z": -1.1957401467,
				"element": "N" 
			},
			{
				"x": 1.7657368602,
				"y": -0.0101552134,
				"z": -2.2691504579,
				"element": "C" 
			},
			{
				"x": 2.7828565442,
				"y": -0.5632791545,
				"z": -3.2347600044,
				"element": "C" 
			},
			{
				"x": 3.4421161706,
				"y": -1.8669293976,
				"z": -2.7777373336,
				"element": "C" 
			},
			{
				"x": 2.1327483757,
				"y": -0.6984212622,
				"z": -4.6288928561,
				"element": "C" 
			},
			{
				"x": -1.9977190873,
				"y": 2.3891465808,
				"z": 0.9125494502,
				"element": "C" 
			},
			{
				"x": -2.8336121496,
				"y": 2.3558567333,
				"z": 2.204896498,
				"element": "C" 
			},
			{
				"x": -1.1252432062,
				"y": 3.6685613478,
				"z": 0.9152330838,
				"element": "C" 
			},
			{
				"x": -2.9577587145,
				"y": 2.4114984162,
				"z": -0.302374519,
				"element": "C" 
			},
			{
				"x": 1.1172973886,
				"y": -2.5943581336,
				"z": 3.2188063878,
				"element": "H" 
			},
			{
				"x": -0.1677425012,
				"y": -3.4775326276,
				"z": 2.3624710503,
				"element": "H" 
			},
			{
				"x": 1.4753502502,
				"y": -4.1819303417,
				"z": 2.4710602658,
				"element": "H" 
			},
			{
				"x": 1.2820779939,
				"y": 0.9277335244,
				"z": -2.5249664276,
				"element": "H" 
			},
			{
				"x": 3.5578477906,
				"y": 0.2162292847,
				"z": -3.3171775241,
				"element": "H" 
			},
			{
				"x": 4.2001130178,
				"y": -2.1778977455,
				"z": -3.5034037988,
				"element": "H" 
			},
			{
				"x": 3.9217572186,
				"y": -1.7524519812,
				"z": -1.8024807229,
				"element": "H" 
			},
			{
				"x": 2.7033329232,
				"y": -2.6689166685,
				"z": -2.6881955105,
				"element": "H" 
			},
			{
				"x": 1.3542016123,
				"y": -1.4686108996,
				"z": -4.6202976974,
				"element": "H" 
			},
			{
				"x": 2.8844049518,
				"y": -0.9848599267,
				"z": -5.3706318498,
				"element": "H" 
			},
			{
				"x": 1.6760787695,
				"y": 0.241353361,
				"z": -4.9562951396,
				"element": "H" 
			},
			{
				"x": -2.199474538,
				"y": 2.3442866953,
				"z": 3.094871257,
				"element": "H" 
			},
			{
				"x": -3.4727888117,
				"y": 1.4705189492,
				"z": 2.2487883119,
				"element": "H" 
			},
			{
				"x": -3.4692173948,
				"y": 3.2470393232,
				"z": 2.2411441663,
				"element": "H" 
			},
			{
				"x": -0.5324535111,
				"y": 3.7534071232,
				"z": 0.0031273591,
				"element": "H" 
			},
			{
				"x": -1.7714533103,
				"y": 4.5498840572,
				"z": 0.9901717053,
				"element": "H" 
			},
			{
				"x": -0.4487983003,
				"y": 3.6773399659,
				"z": 1.7769159392,
				"element": "H" 
			},
			{
				"x": -3.612437987,
				"y": 3.2870305832,
				"z": -0.2331913198,
				"element": "H" 
			},
			{
				"x": -2.4119172794,
				"y": 2.4640185997,
				"z": -1.2456909831,
				"element": "H" 
			},
			{
				"x": -3.5941149217,
				"y": 1.5198180277,
				"z": -0.3128630043,
				"element": "H" 
			}
		],
		 "valence_orbital": [ 
			{
				"type": "occ",
				"energy": -0.30875,
				"method": "rhf"
			},
			{
				"type": "occ",
				"energy": -0.26555,
				"method": "rhf"
			},
			{
				"type": "occ",
				"energy": -0.26474,
				"method": "rhf"
			},
			{
				"type": "occ",
				"energy": -0.23836,
				"method": "rhf"
			},
			{
				"type": "occ",
				"energy": -0.23475,
				"method": "rhf"
			},
			{
				"type": "unocc",
				"energy": -0.07059,
				"method": "rhf"
			},
			{
				"type": "unocc",
				"energy": -0.01396,
				"method": "rhf"
			},
			{
				"type": "unocc",
				"energy": -0.00711,
				"method": "rhf"
			},
			{
				"type": "unocc",
				"energy": 0.0334,
				"method": "rhf"
			},
			{
				"type": "unocc",
				"energy": 0.06794,
				"method": "rhf"
			}
		],
		"cosmo_sigma_profile": { 
			"-0.025": 0.0,
			"-0.024": 0.0,
			"-0.023": 0.0,
			"-0.022": 0.0,
			"-0.021": 0.0,
			"-0.02": 0.0,
			"-0.019": 0.0,
			"-0.018": 0.0,
			"-0.017": 0.0,
			"-0.016": 0.0,
			"-0.015": 0.0,
			"-0.014": 0.0,
			"-0.013": 0.0,
			"-0.012": 0.0,
			"-0.011": 0.0,
			"-0.01": 0.0,
			"-0.009": 0.0,
			"-0.008": 0.312803805938,
			"-0.007": 3.76061774092,
			"-0.006": 7.47846426747,
			"-0.005": 13.2805386786,
			"-0.004": 18.1905221615,
			"-0.003": 40.2652676218,
			"-0.002": 47.6023007643,
			"-0.001": 37.8911276574,
			"0.0": 37.5974676064,
			"0.001": 38.0624113849,
			"0.002": 18.1515215489,
			"0.003": 9.25225467901,
			"0.004": 10.2719979408,
			"0.005": 8.56687257188,
			"0.006": 9.57409836373,
			"0.007": 6.40870789144,
			"0.008": 3.44205995293,
			"0.009": 3.77204542156,
			"0.01": 2.62630937158,
			"0.011": 2.24077049584,
			"0.012": 2.40301239398,
			"0.013": 2.07110335262,
			"0.014": 0.837461671715,
			"0.015": 0.0125601816863,
			"0.016": 0.0,
			"0.017": 0.0,
			"0.018": 0.0,
			"0.019": 0.0,
			"0.02": 0.0,
			"0.021": 0.0,
			"0.022": 0.0,
			"0.023": 0.0,
			"0.024": 0.0,
			"0.025": 0.0
		}
	}
}
