{
	 "smiles": "C1CCC=C/C=CC1", 
	 "Tm": 220.15, 
	 "num_atms": 20, 
	 "gaussian": { 
		 "optdone": 1, 
		 "sigma_profile": "yes", 
		 "theory": "DFT", 
		 "functional": "B3LYP", 
		 "basiset": "6-31G**", 
		 "properties": { 
			 "R2extent": 1058.6088, 
			 "electric_dipole_moment_norm": 0.478665394613, 
			 "electric_quadrupole_moment_norm": 2.79753836256, 
			 "total_energy": -312.050219139, 
			 "HOMO_LUMO_gap": 0.20474, 
			 "cosmo_polarized_energy": -1.95, 
			 "cosmo_cavitation_energy": 20.68, 
			 "cosmo_dispersion_energy": -15.84, 
			 "cosmo_repulsion_energy": 1.32, 
			 "cosmo_total_nonelectrostatic_energy": 6.16, 
			 "SMD_solvation_energy": 2.94 
		},
		"coords": [
			{
				"x": -1.0503391164,
				"y": -1.0089031885,
				"z": 1.0994980479,
				"element": "C" 
			},
			{
				"x": 0.136746082,
				"y": -0.0745006742,
				"z": 1.3785619147,
				"element": "C" 
			},
			{
				"x": 0.7923752125,
				"y": 0.4983286899,
				"z": 0.1037596432,
				"element": "C" 
			},
			{
				"x": -0.1971517486,
				"y": 1.1817202792,
				"z": -0.7986409477,
				"element": "C" 
			},
			{
				"x": -0.9335604994,
				"y": 0.5584358291,
				"z": -1.7337487339,
				"element": "C" 
			},
			{
				"x": -0.8729234247,
				"y": -0.8633857303,
				"z": -2.1014210485,
				"element": "C" 
			},
			{
				"x": -0.7435478704,
				"y": -1.9670568236,
				"z": -1.3416599851,
				"element": "C" 
			},
			{
				"x": -0.750965665,
				"y": -2.1866067754,
				"z": 0.155296683,
				"element": "C" 
			},
			{
				"x": -1.3884772431,
				"y": -1.4216530603,
				"z": 2.058102842,
				"element": "H" 
			},
			{
				"x": -1.8924632042,
				"y": -0.4336042085,
				"z": 0.7012702862,
				"element": "H" 
			},
			{
				"x": 0.9007157068,
				"y": -0.6137285752,
				"z": 1.954564568,
				"element": "H" 
			},
			{
				"x": -0.2054374646,
				"y": 0.7500521204,
				"z": 2.0173936909,
				"element": "H" 
			},
			{
				"x": 1.2704939882,
				"y": -0.3214010142,
				"z": -0.4462798449,
				"element": "H" 
			},
			{
				"x": 1.5862530242,
				"y": 1.1978080428,
				"z": 0.3918582884,
				"element": "H" 
			},
			{
				"x": -0.3381635745,
				"y": 2.2533272374,
				"z": -0.662792871,
				"element": "H" 
			},
			{
				"x": -1.593743762,
				"y": 1.1668906913,
				"z": -2.3524817373,
				"element": "H" 
			},
			{
				"x": -0.9478372859,
				"y": -1.0395409097,
				"z": -3.1760044458,
				"element": "H" 
			},
			{
				"x": -0.6764491531,
				"y": -2.9063962194,
				"z": -1.8931629469,
				"element": "H" 
			},
			{
				"x": -1.5031814294,
				"y": -2.9683794547,
				"z": 0.3376309328,
				"element": "H" 
			},
			{
				"x": 0.2026574276,
				"y": -2.6588062563,
				"z": 0.4417556637,
				"element": "H" 
			}
		],
		 "valence_orbital": [ 
			{
				"type": "occ",
				"energy": -0.32129,
				"method": "rhf"
			},
			{
				"type": "occ",
				"energy": -0.31683,
				"method": "rhf"
			},
			{
				"type": "occ",
				"energy": -0.30826,
				"method": "rhf"
			},
			{
				"type": "occ",
				"energy": -0.27687,
				"method": "rhf"
			},
			{
				"type": "occ",
				"energy": -0.21425,
				"method": "rhf"
			},
			{
				"type": "unocc",
				"energy": -0.00951,
				"method": "rhf"
			},
			{
				"type": "unocc",
				"energy": 0.07618,
				"method": "rhf"
			},
			{
				"type": "unocc",
				"energy": 0.08764,
				"method": "rhf"
			},
			{
				"type": "unocc",
				"energy": 0.11765,
				"method": "rhf"
			},
			{
				"type": "unocc",
				"energy": 0.12764,
				"method": "rhf"
			}
		],
		"cosmo_sigma_profile": { 
			"-0.025": 0.0,
			"-0.024": 0.0,
			"-0.023": 0.0,
			"-0.022": 0.0,
			"-0.021": 0.0,
			"-0.02": 0.0,
			"-0.019": 0.0,
			"-0.018": 0.0,
			"-0.017": 0.0,
			"-0.016": 0.0,
			"-0.015": 0.0,
			"-0.014": 0.0,
			"-0.013": 0.0,
			"-0.012": 0.0,
			"-0.011": 0.0,
			"-0.01": 0.0,
			"-0.009": 0.0,
			"-0.008": 0.0,
			"-0.007": 0.0,
			"-0.006": 0.0,
			"-0.005": 0.658793662215,
			"-0.004": 7.38224694998,
			"-0.003": 16.3000757477,
			"-0.002": 25.8978433864,
			"-0.001": 29.7222127563,
			"0.0": 24.9355053377,
			"0.001": 19.5219538176,
			"0.002": 9.04943543569,
			"0.003": 6.92077943603,
			"0.004": 7.22455797293,
			"0.005": 6.03575075223,
			"0.006": 4.6038690217,
			"0.007": 2.43771244922,
			"0.008": 0.155243942149,
			"0.009": 0.0,
			"0.01": 0.0,
			"0.011": 0.0,
			"0.012": 0.0,
			"0.013": 0.0,
			"0.014": 0.0,
			"0.015": 0.0,
			"0.016": 0.0,
			"0.017": 0.0,
			"0.018": 0.0,
			"0.019": 0.0,
			"0.02": 0.0,
			"0.021": 0.0,
			"0.022": 0.0,
			"0.023": 0.0,
			"0.024": 0.0,
			"0.025": 0.0
		}
	}
}
