{
	 "smiles": "COC(=O)C1=C(C=CC=C1F)S(Cl)(=O)=O", 
	 "Tm": 320.15, 
	 "num_atms": 21, 
	 "gaussian": { 
		 "optdone": 1, 
		 "sigma_profile": "yes", 
		 "theory": "DFT", 
		 "functional": "B3LYP", 
		 "basiset": "6-31G**", 
		 "properties": { 
			 "R2extent": 4034.4254, 
			 "electric_dipole_moment_norm": 4.69366711005, 
			 "electric_quadrupole_moment_norm": 18.8239719961, 
			 "total_energy": -1567.49861679, 
			 "HOMO_LUMO_gap": 0.18552, 
			 "cosmo_polarized_energy": -12.71, 
			 "cosmo_cavitation_energy": 30.11, 
			 "cosmo_dispersion_energy": -21.44, 
			 "cosmo_repulsion_energy": 1.62, 
			 "cosmo_total_nonelectrostatic_energy": 10.3, 
			 "SMD_solvation_energy": 5.75 
		},
		"coords": [
			{
				"x": 1.2486541489,
				"y": -2.4474354159,
				"z": -0.4492947148,
				"element": "C" 
			},
			{
				"x": 0.2731035583,
				"y": -1.4270168947,
				"z": -0.7475709698,
				"element": "O" 
			},
			{
				"x": 0.126543389,
				"y": -0.4911628368,
				"z": 0.1953866404,
				"element": "C" 
			},
			{
				"x": 0.6916098087,
				"y": -0.4682240586,
				"z": 1.2628037659,
				"element": "O" 
			},
			{
				"x": -0.8985417476,
				"y": 0.5381002623,
				"z": -0.2235333606,
				"element": "C" 
			},
			{
				"x": -0.6023506864,
				"y": 1.8581368286,
				"z": -0.5904073505,
				"element": "C" 
			},
			{
				"x": -1.5931688815,
				"y": 2.7886425575,
				"z": -0.9042464193,
				"element": "C" 
			},
			{
				"x": -2.9308031188,
				"y": 2.3970703267,
				"z": -0.8455865928,
				"element": "C" 
			},
			{
				"x": -3.2661406408,
				"y": 1.0937732236,
				"z": -0.4841162895,
				"element": "C" 
			},
			{
				"x": -2.2494750603,
				"y": 0.1937811723,
				"z": -0.185074286,
				"element": "C" 
			},
			{
				"x": -2.5760138065,
				"y": -1.0607305365,
				"z": 0.1697131354,
				"element": "F" 
			},
			{
				"x": 1.1035467768,
				"y": 2.4049078787,
				"z": -0.755198684,
				"element": "S" 
			},
			{
				"x": 1.5725919591,
				"y": 2.9781577728,
				"z": 1.2258611135,
				"element": "Cl" 
			},
			{
				"x": 1.1214676153,
				"y": 3.6286246979,
				"z": -1.5468404611,
				"element": "O" 
			},
			{
				"x": 1.9462555684,
				"y": 1.2623677724,
				"z": -1.0845716573,
				"element": "O" 
			},
			{
				"x": 1.2341620157,
				"y": -3.1206407023,
				"z": -1.3052580591,
				"element": "H" 
			},
			{
				"x": 0.9777515539,
				"y": -2.9773085077,
				"z": 0.4665488236,
				"element": "H" 
			},
			{
				"x": 2.234935324,
				"y": -1.9944756664,
				"z": -0.3284839421,
				"element": "H" 
			},
			{
				"x": -1.3126416004,
				"y": 3.7920116407,
				"z": -1.2008150612,
				"element": "H" 
			},
			{
				"x": -3.7125621159,
				"y": 3.109309797,
				"z": -1.0874902748,
				"element": "H" 
			},
			{
				"x": -4.29662406,
				"y": 0.7603106884,
				"z": -0.4311253558,
				"element": "H" 
			}
		],
		 "valence_orbital": [ 
			{
				"type": "occ",
				"energy": -0.31623,
				"method": "rhf"
			},
			{
				"type": "occ",
				"energy": -0.31542,
				"method": "rhf"
			},
			{
				"type": "occ",
				"energy": -0.30747,
				"method": "rhf"
			},
			{
				"type": "occ",
				"energy": -0.29261,
				"method": "rhf"
			},
			{
				"type": "occ",
				"energy": -0.279,
				"method": "rhf"
			},
			{
				"type": "unocc",
				"energy": -0.09348,
				"method": "rhf"
			},
			{
				"type": "unocc",
				"energy": -0.05679,
				"method": "rhf"
			},
			{
				"type": "unocc",
				"energy": -0.04163,
				"method": "rhf"
			},
			{
				"type": "unocc",
				"energy": -0.00496,
				"method": "rhf"
			},
			{
				"type": "unocc",
				"energy": 0.044,
				"method": "rhf"
			}
		],
		"cosmo_sigma_profile": { 
			"-0.025": 0.0,
			"-0.024": 0.0,
			"-0.023": 0.0,
			"-0.022": 0.0,
			"-0.021": 0.0,
			"-0.02": 0.0,
			"-0.019": 0.0,
			"-0.018": 0.0,
			"-0.017": 0.0,
			"-0.016": 0.0,
			"-0.015": 0.0,
			"-0.014": 0.0,
			"-0.013": 0.0,
			"-0.012": 0.0,
			"-0.011": 0.0,
			"-0.01": 0.389910711495,
			"-0.009": 4.7408803865,
			"-0.008": 7.44411556369,
			"-0.007": 9.0464722897,
			"-0.006": 12.5944471831,
			"-0.005": 12.7735610675,
			"-0.004": 15.1863388804,
			"-0.003": 16.8909037422,
			"-0.002": 19.9967668755,
			"-0.001": 19.8646157824,
			"0.0": 17.7626479921,
			"0.001": 13.3972688877,
			"0.002": 18.4618693105,
			"0.003": 21.2827112229,
			"0.004": 9.52083408647,
			"0.005": 8.39900427348,
			"0.006": 8.14778598915,
			"0.007": 9.11517916433,
			"0.008": 9.39406244011,
			"0.009": 3.97701991021,
			"0.01": 3.92772175209,
			"0.011": 2.25854363655,
			"0.012": 0.0,
			"0.013": 0.0,
			"0.014": 0.0,
			"0.015": 0.0,
			"0.016": 0.0,
			"0.017": 0.0,
			"0.018": 0.0,
			"0.019": 0.0,
			"0.02": 0.0,
			"0.021": 0.0,
			"0.022": 0.0,
			"0.023": 0.0,
			"0.024": 0.0,
			"0.025": 0.0
		}
	}
}
