{
	 "smiles": "O=CC1=CC=C(O1)C1=NN(C=C1C=O)C1=CC=CC=C1", 
	 "Tm": 420.15, 
	 "num_atms": 30, 
	 "gaussian": { 
		 "optdone": 1, 
		 "sigma_profile": "yes", 
		 "theory": "DFT", 
		 "functional": "B3LYP", 
		 "basiset": "6-31G**", 
		 "properties": { 
			 "R2extent": 8252.9571, 
			 "electric_dipole_moment_norm": 6.12744683698, 
			 "electric_quadrupole_moment_norm": 11.316498014, 
			 "total_energy": -912.740013447, 
			 "HOMO_LUMO_gap": 0.14858, 
			 "cosmo_polarized_energy": -14.86, 
			 "cosmo_cavitation_energy": 37.01, 
			 "cosmo_dispersion_energy": -26.2, 
			 "cosmo_repulsion_energy": 1.96, 
			 "cosmo_total_nonelectrostatic_energy": 12.77, 
			 "SMD_solvation_energy": 8.43 
		},
		"coords": [
			{
				"x": 0.1715094484,
				"y": 3.9334281291,
				"z": -6.2967631766,
				"element": "O" 
			},
			{
				"x": 0.3536240344,
				"y": 2.9779449248,
				"z": -5.5608105355,
				"element": "C" 
			},
			{
				"x": 0.1028073333,
				"y": 3.012580077,
				"z": -4.1287286211,
				"element": "C" 
			},
			{
				"x": -0.3532099651,
				"y": 3.9954039499,
				"z": -3.2812174886,
				"element": "C" 
			},
			{
				"x": -0.3898457888,
				"y": 3.4306639133,
				"z": -1.9844685691,
				"element": "C" 
			},
			{
				"x": 0.0476991121,
				"y": 2.1293534538,
				"z": -2.1135334992,
				"element": "C" 
			},
			{
				"x": 0.3493921835,
				"y": 1.8657057023,
				"z": -3.4121513143,
				"element": "O" 
			},
			{
				"x": 0.223791689,
				"y": 1.0697742038,
				"z": -1.1421679859,
				"element": "C" 
			},
			{
				"x": -0.0696312168,
				"y": 1.3167715674,
				"z": 0.1355855267,
				"element": "N" 
			},
			{
				"x": 0.1899401874,
				"y": 0.1589688687,
				"z": 0.7977039641,
				"element": "N" 
			},
			{
				"x": 0.6399821532,
				"y": -0.8101533307,
				"z": -0.0361633924,
				"element": "C" 
			},
			{
				"x": 0.6834087858,
				"y": -0.2758937979,
				"z": -1.3143447776,
				"element": "C" 
			},
			{
				"x": 1.1209513473,
				"y": -1.020944028,
				"z": -2.5006424383,
				"element": "C" 
			},
			{
				"x": 1.4844883574,
				"y": -2.1850917145,
				"z": -2.449104322,
				"element": "O" 
			},
			{
				"x": -0.0237938881,
				"y": 0.0884487653,
				"z": 2.2064962305,
				"element": "C" 
			},
			{
				"x": 0.2403664588,
				"y": -1.0947468084,
				"z": 2.9053635074,
				"element": "C" 
			},
			{
				"x": 0.0244367415,
				"y": -1.1418544394,
				"z": 4.2815534046,
				"element": "C" 
			},
			{
				"x": -0.4514113236,
				"y": -0.0214779545,
				"z": 4.9642275108,
				"element": "C" 
			},
			{
				"x": -0.7115296867,
				"y": 1.1537111056,
				"z": 4.2571466323,
				"element": "C" 
			},
			{
				"x": -0.5009529135,
				"y": 1.2171130395,
				"z": 2.8813488336,
				"element": "C" 
			},
			{
				"x": 0.7282409262,
				"y": 2.0028416078,
				"z": -5.9368041051,
				"element": "H" 
			},
			{
				"x": -0.6233981551,
				"y": 4.9975138922,
				"z": -3.5802685728,
				"element": "H" 
			},
			{
				"x": -0.6942140744,
				"y": 3.8991186977,
				"z": -1.0608474501,
				"element": "H" 
			},
			{
				"x": 0.9037277547,
				"y": -1.803806173,
				"z": 0.2864447532,
				"element": "H" 
			},
			{
				"x": 1.1035587466,
				"y": -0.4659961106,
				"z": -3.4557919041,
				"element": "H" 
			},
			{
				"x": 0.61052289,
				"y": -1.9762660343,
				"z": 2.3947985406,
				"element": "H" 
			},
			{
				"x": 0.2311268932,
				"y": -2.0624808088,
				"z": 4.8185552357,
				"element": "H" 
			},
			{
				"x": -0.6174866644,
				"y": -0.0645939703,
				"z": 6.0360508313,
				"element": "H" 
			},
			{
				"x": -1.0819957758,
				"y": 2.032037385,
				"z": 4.7770256952,
				"element": "H" 
			},
			{
				"x": -0.6987055905,
				"y": 2.1219258872,
				"z": 2.3217074865,
				"element": "H" 
			}
		],
		 "valence_orbital": [ 
			{
				"type": "occ",
				"energy": -0.27334,
				"method": "rhf"
			},
			{
				"type": "occ",
				"energy": -0.26065,
				"method": "rhf"
			},
			{
				"type": "occ",
				"energy": -0.25968,
				"method": "rhf"
			},
			{
				"type": "occ",
				"energy": -0.25663,
				"method": "rhf"
			},
			{
				"type": "occ",
				"energy": -0.22799,
				"method": "rhf"
			},
			{
				"type": "unocc",
				"energy": -0.07941,
				"method": "rhf"
			},
			{
				"type": "unocc",
				"energy": -0.06323,
				"method": "rhf"
			},
			{
				"type": "unocc",
				"energy": -0.03274,
				"method": "rhf"
			},
			{
				"type": "unocc",
				"energy": -0.02243,
				"method": "rhf"
			},
			{
				"type": "unocc",
				"energy": 0.0082,
				"method": "rhf"
			}
		],
		"cosmo_sigma_profile": { 
			"-0.025": 0.0,
			"-0.024": 0.0,
			"-0.023": 0.0,
			"-0.022": 0.0,
			"-0.021": 0.0,
			"-0.02": 0.0,
			"-0.019": 0.0,
			"-0.018": 0.0,
			"-0.017": 0.0,
			"-0.016": 0.0,
			"-0.015": 0.0,
			"-0.014": 0.0,
			"-0.013": 0.0297865119049,
			"-0.012": 1.34024692101,
			"-0.011": 1.67078665615,
			"-0.01": 1.37995432457,
			"-0.009": 2.97201213293,
			"-0.008": 4.62537785183,
			"-0.007": 8.13470070064,
			"-0.006": 16.4298437574,
			"-0.005": 19.4771426838,
			"-0.004": 22.6418756363,
			"-0.003": 19.9347501988,
			"-0.002": 22.6896855271,
			"-0.001": 27.2120279272,
			"0.0": 26.9023547403,
			"0.001": 25.255511949,
			"0.002": 21.0050182449,
			"0.003": 15.9541060414,
			"0.004": 15.8132981607,
			"0.005": 7.84111914018,
			"0.006": 3.55917197943,
			"0.007": 4.67696891464,
			"0.008": 4.01737984684,
			"0.009": 3.71555093734,
			"0.01": 5.40473813457,
			"0.011": 8.1879612611,
			"0.012": 6.91729222075,
			"0.013": 2.02177329195,
			"0.014": 0.0199866551778,
			"0.015": 0.0,
			"0.016": 0.0,
			"0.017": 0.0,
			"0.018": 0.0,
			"0.019": 0.0,
			"0.02": 0.0,
			"0.021": 0.0,
			"0.022": 0.0,
			"0.023": 0.0,
			"0.024": 0.0,
			"0.025": 0.0
		}
	}
}
