{
	 "smiles": "COC(=O)C1=CC=C(OC)C(=C1)[N+]([O-])=O", 
	 "Tm": 384.15, 
	 "num_atms": 24, 
	 "gaussian": { 
		 "optdone": 1, 
		 "sigma_profile": "yes", 
		 "theory": "DFT", 
		 "functional": "B3LYP", 
		 "basiset": "6-31G**", 
		 "properties": { 
			 "R2extent": 4224.6777, 
			 "electric_dipole_moment_norm": 7.0280969814, 
			 "electric_quadrupole_moment_norm": 11.1036319414, 
			 "total_energy": -779.141236449, 
			 "HOMO_LUMO_gap": 0.17262, 
			 "cosmo_polarized_energy": -15.43, 
			 "cosmo_cavitation_energy": 29.75, 
			 "cosmo_dispersion_energy": -21.55, 
			 "cosmo_repulsion_energy": 1.69, 
			 "cosmo_total_nonelectrostatic_energy": 9.9, 
			 "SMD_solvation_energy": 9.89 
		},
		"coords": [
			{
				"x": -5.5077913141,
				"y": -1.5298686912,
				"z": 0.4517629092,
				"element": "C" 
			},
			{
				"x": -4.2576941134,
				"y": -0.9630350587,
				"z": 0.0268816665,
				"element": "O" 
			},
			{
				"x": -3.2553044864,
				"y": -1.0393899192,
				"z": 0.9323055393,
				"element": "C" 
			},
			{
				"x": -3.3828874425,
				"y": -1.5463303553,
				"z": 2.0290989998,
				"element": "O" 
			},
			{
				"x": -1.9937357393,
				"y": -0.4345719979,
				"z": 0.4272783834,
				"element": "C" 
			},
			{
				"x": -1.875400241,
				"y": 0.1353155454,
				"z": -0.8467573098,
				"element": "C" 
			},
			{
				"x": -0.6738361816,
				"y": 0.6920200499,
				"z": -1.2694873484,
				"element": "C" 
			},
			{
				"x": 0.4600393006,
				"y": 0.6842381661,
				"z": -0.43785738,
				"element": "C" 
			},
			{
				"x": 1.6376489359,
				"y": 1.235331278,
				"z": -0.774871046,
				"element": "O" 
			},
			{
				"x": 1.7678112802,
				"y": 1.8770777382,
				"z": -2.0407039089,
				"element": "C" 
			},
			{
				"x": 0.3283984087,
				"y": 0.0941652735,
				"z": 0.8444669778,
				"element": "C" 
			},
			{
				"x": -0.8802911518,
				"y": -0.4385904273,
				"z": 1.2703428253,
				"element": "C" 
			},
			{
				"x": 1.4600298787,
				"y": 0.0101973404,
				"z": 1.7798376185,
				"element": "N" 
			},
			{
				"x": 1.1873702644,
				"y": -0.0018236787,
				"z": 2.981395613,
				"element": "O" 
			},
			{
				"x": 2.5933329754,
				"y": -0.0713328465,
				"z": 1.3151800982,
				"element": "O" 
			},
			{
				"x": -5.3909419273,
				"y": -2.5928925162,
				"z": 0.6763049788,
				"element": "H" 
			},
			{
				"x": -5.876733462,
				"y": -1.0200415434,
				"z": 1.3450926325,
				"element": "H" 
			},
			{
				"x": -6.1939875488,
				"y": -1.3869255676,
				"z": -0.3827911922,
				"element": "H" 
			},
			{
				"x": -2.7342056957,
				"y": 0.146364052,
				"z": -1.5079534798,
				"element": "H" 
			},
			{
				"x": -0.6155794594,
				"y": 1.1386045298,
				"z": -2.2538387886,
				"element": "H" 
			},
			{
				"x": 2.7929433094,
				"y": 2.2454506483,
				"z": -2.0737622903,
				"element": "H" 
			},
			{
				"x": 1.0724317233,
				"y": 2.719094927,
				"z": -2.1366249826,
				"element": "H" 
			},
			{
				"x": 1.6078825657,
				"y": 1.1714729668,
				"z": -2.8639648229,
				"element": "H" 
			},
			{
				"x": -0.9546998788,
				"y": -0.8629299137,
				"z": 2.2639643074,
				"element": "H" 
			}
		],
		 "valence_orbital": [ 
			{
				"type": "occ",
				"energy": -0.30016,
				"method": "rhf"
			},
			{
				"type": "occ",
				"energy": -0.29261,
				"method": "rhf"
			},
			{
				"type": "occ",
				"energy": -0.28208,
				"method": "rhf"
			},
			{
				"type": "occ",
				"energy": -0.27414,
				"method": "rhf"
			},
			{
				"type": "occ",
				"energy": -0.25271,
				"method": "rhf"
			},
			{
				"type": "unocc",
				"energy": -0.08009,
				"method": "rhf"
			},
			{
				"type": "unocc",
				"energy": -0.05157,
				"method": "rhf"
			},
			{
				"type": "unocc",
				"energy": -0.01279,
				"method": "rhf"
			},
			{
				"type": "unocc",
				"energy": 0.05215,
				"method": "rhf"
			},
			{
				"type": "unocc",
				"energy": 0.06871,
				"method": "rhf"
			}
		],
		"cosmo_sigma_profile": { 
			"-0.025": 0.0,
			"-0.024": 0.0,
			"-0.023": 0.0,
			"-0.022": 0.0,
			"-0.021": 0.0,
			"-0.02": 0.0,
			"-0.019": 0.0,
			"-0.018": 0.0,
			"-0.017": 0.0,
			"-0.016": 0.0,
			"-0.015": 0.0,
			"-0.014": 0.0,
			"-0.013": 0.0,
			"-0.012": 0.0,
			"-0.011": 0.0,
			"-0.01": 0.0,
			"-0.009": 0.297452266383,
			"-0.008": 3.77621489391,
			"-0.007": 11.4765750419,
			"-0.006": 18.8685219765,
			"-0.005": 19.4296148919,
			"-0.004": 20.7629378444,
			"-0.003": 19.1523212229,
			"-0.002": 17.3848927212,
			"-0.001": 18.5079296707,
			"0.0": 18.2079661519,
			"0.001": 14.1354626492,
			"0.002": 8.85052256869,
			"0.003": 6.50848358859,
			"0.004": 6.50746935516,
			"0.005": 6.108443959,
			"0.006": 6.24376632826,
			"0.007": 7.96537721296,
			"0.008": 10.9538225429,
			"0.009": 8.15431618475,
			"0.01": 6.35449847054,
			"0.011": 4.69321772664,
			"0.012": 3.40884494323,
			"0.013": 0.0311868462428,
			"0.014": 0.0,
			"0.015": 0.0,
			"0.016": 0.0,
			"0.017": 0.0,
			"0.018": 0.0,
			"0.019": 0.0,
			"0.02": 0.0,
			"0.021": 0.0,
			"0.022": 0.0,
			"0.023": 0.0,
			"0.024": 0.0,
			"0.025": 0.0
		}
	}
}
