{
	 "smiles": "CN1C=CC=C1", 
	 "Tm": 216.15, 
	 "num_atms": 13, 
	 "gaussian": { 
		 "optdone": 1, 
		 "sigma_profile": "yes", 
		 "theory": "DFT", 
		 "functional": "B3LYP", 
		 "basiset": "6-31G**", 
		 "properties": { 
			 "R2extent": 702.9162, 
			 "electric_dipole_moment_norm": 2.0893431743, 
			 "electric_quadrupole_moment_norm": 5.07483450962, 
			 "total_energy": -249.48352342, 
			 "HOMO_LUMO_gap": 0.24566, 
			 "cosmo_polarized_energy": -5.28, 
			 "cosmo_cavitation_energy": 16.16, 
			 "cosmo_dispersion_energy": -12.15, 
			 "cosmo_repulsion_energy": 1.03, 
			 "cosmo_total_nonelectrostatic_energy": 5.04, 
			 "SMD_solvation_energy": 3.78 
		},
		"coords": [
			{
				"x": 1.8623785294,
				"y": 0.5991329685,
				"z": 1.0190546651,
				"element": "C" 
			},
			{
				"x": 0.7936987097,
				"y": 0.9330903318,
				"z": 0.0972999738,
				"element": "N" 
			},
			{
				"x": 0.6323050588,
				"y": 0.4042388509,
				"z": -1.1637235776,
				"element": "C" 
			},
			{
				"x": -0.5526122975,
				"y": 0.8788779027,
				"z": -1.6853375451,
				"element": "C" 
			},
			{
				"x": -1.138143456,
				"y": 1.7237452736,
				"z": -0.700303287,
				"element": "C" 
			},
			{
				"x": -0.288758452,
				"y": 1.7336580348,
				"z": 0.3859041298,
				"element": "C" 
			},
			{
				"x": 1.6185414935,
				"y": -0.2798699679,
				"z": 1.6279007745,
				"element": "H" 
			},
			{
				"x": 2.0505276503,
				"y": 1.4444133654,
				"z": 1.6857331663,
				"element": "H" 
			},
			{
				"x": 2.7790013253,
				"y": 0.3937027186,
				"z": 0.4605194516,
				"element": "H" 
			},
			{
				"x": 1.3755915471,
				"y": -0.2604124044,
				"z": -1.5802933681,
				"element": "H" 
			},
			{
				"x": -0.9454320874,
				"y": 0.6559937014,
				"z": -2.6676301879,
				"element": "H" 
			},
			{
				"x": -2.0658869278,
				"y": 2.272732319,
				"z": -0.7826857066,
				"element": "H" 
			},
			{
				"x": -0.3583110934,
				"y": 2.2421969056,
				"z": 1.3368615112,
				"element": "H" 
			}
		],
		 "valence_orbital": [ 
			{
				"type": "occ",
				"energy": -0.368,
				"method": "rhf"
			},
			{
				"type": "occ",
				"energy": -0.36377,
				"method": "rhf"
			},
			{
				"type": "occ",
				"energy": -0.36175,
				"method": "rhf"
			},
			{
				"type": "occ",
				"energy": -0.22345,
				"method": "rhf"
			},
			{
				"type": "occ",
				"energy": -0.1997,
				"method": "rhf"
			},
			{
				"type": "unocc",
				"energy": 0.04596,
				"method": "rhf"
			},
			{
				"type": "unocc",
				"energy": 0.09313,
				"method": "rhf"
			},
			{
				"type": "unocc",
				"energy": 0.09765,
				"method": "rhf"
			},
			{
				"type": "unocc",
				"energy": 0.12436,
				"method": "rhf"
			},
			{
				"type": "unocc",
				"energy": 0.14072,
				"method": "rhf"
			}
		],
		"cosmo_sigma_profile": { 
			"-0.025": 0.0,
			"-0.024": 0.0,
			"-0.023": 0.0,
			"-0.022": 0.0,
			"-0.021": 0.0,
			"-0.02": 0.0,
			"-0.019": 0.0,
			"-0.018": 0.0,
			"-0.017": 0.0,
			"-0.016": 0.0,
			"-0.015": 0.0,
			"-0.014": 0.0,
			"-0.013": 0.0,
			"-0.012": 0.0,
			"-0.011": 0.0,
			"-0.01": 0.0,
			"-0.009": 0.0,
			"-0.008": 0.0,
			"-0.007": 1.69546700325,
			"-0.006": 10.1257213844,
			"-0.005": 11.1215497665,
			"-0.004": 12.5986200229,
			"-0.003": 13.5444709702,
			"-0.002": 14.0632665808,
			"-0.001": 8.39837507325,
			"0.0": 6.88583121696,
			"0.001": 6.94172084946,
			"0.002": 5.20210915193,
			"0.003": 5.02536889463,
			"0.004": 4.05922122444,
			"0.005": 6.53054253228,
			"0.006": 4.49793447539,
			"0.007": 5.03645000422,
			"0.008": 5.54125640448,
			"0.009": 4.824169248,
			"0.01": 2.36871424586,
			"0.011": 0.0204523549778,
			"0.012": 0.0,
			"0.013": 0.0,
			"0.014": 0.0,
			"0.015": 0.0,
			"0.016": 0.0,
			"0.017": 0.0,
			"0.018": 0.0,
			"0.019": 0.0,
			"0.02": 0.0,
			"0.021": 0.0,
			"0.022": 0.0,
			"0.023": 0.0,
			"0.024": 0.0,
			"0.025": 0.0
		}
	}
}
