{
	 "smiles": "NS(=O)(=O)C1=CC=C(OC2=CC=CC=C2)C=C1", 
	 "Tm": 404.15, 
	 "num_atms": 28, 
	 "gaussian": { 
		 "optdone": 1, 
		 "sigma_profile": "yes", 
		 "theory": "DFT", 
		 "functional": "B3LYP", 
		 "basiset": "6-31G**", 
		 "properties": { 
			 "R2extent": 6721.8712, 
			 "electric_dipole_moment_norm": 4.60227238329, 
			 "electric_quadrupole_moment_norm": 27.5202496466, 
			 "total_energy": -1142.43952863, 
			 "HOMO_LUMO_gap": 0.20743, 
			 "cosmo_polarized_energy": -16.52, 
			 "cosmo_cavitation_energy": 34.29, 
			 "cosmo_dispersion_energy": -25.33, 
			 "cosmo_repulsion_energy": 1.93, 
			 "cosmo_total_nonelectrostatic_energy": 10.88, 
			 "SMD_solvation_energy": 5.66 
		},
		"coords": [
			{
				"x": 2.2750890887,
				"y": 0.2982844967,
				"z": 4.0293141079,
				"element": "N" 
			},
			{
				"x": 3.2233135279,
				"y": 0.583406704,
				"z": 2.6478773799,
				"element": "S" 
			},
			{
				"x": 3.3284306008,
				"y": 2.0338568151,
				"z": 2.4522300387,
				"element": "O" 
			},
			{
				"x": 4.4053173461,
				"y": -0.2704660344,
				"z": 2.801491461,
				"element": "O" 
			},
			{
				"x": 2.2282603838,
				"y": -0.0686940702,
				"z": 1.3175915933,
				"element": "C" 
			},
			{
				"x": 2.2304295225,
				"y": -1.4447765403,
				"z": 1.0647835745,
				"element": "C" 
			},
			{
				"x": 1.4541728168,
				"y": -1.9498550616,
				"z": 0.0311771803,
				"element": "C" 
			},
			{
				"x": 0.6813394712,
				"y": -1.0796795986,
				"z": -0.7517029443,
				"element": "C" 
			},
			{
				"x": -0.0228732709,
				"y": -1.668372578,
				"z": -1.7693208576,
				"element": "O" 
			},
			{
				"x": -1.0233442465,
				"y": -0.9682817093,
				"z": -2.4331782138,
				"element": "C" 
			},
			{
				"x": -0.8559937903,
				"y": -0.7208162421,
				"z": -3.79461111,
				"element": "C" 
			},
			{
				"x": -1.883660066,
				"y": -0.0980230544,
				"z": -4.5055309484,
				"element": "C" 
			},
			{
				"x": -3.0619393412,
				"y": 0.2774789108,
				"z": -3.8575435983,
				"element": "C" 
			},
			{
				"x": -3.2158727358,
				"y": 0.0220791261,
				"z": -2.4924452365,
				"element": "C" 
			},
			{
				"x": -2.1993083353,
				"y": -0.6063738964,
				"z": -1.7726270298,
				"element": "C" 
			},
			{
				"x": 0.6932371701,
				"y": 0.2983511941,
				"z": -0.507790467,
				"element": "C" 
			},
			{
				"x": 1.4718784165,
				"y": 0.8014252482,
				"z": 0.5333462847,
				"element": "C" 
			},
			{
				"x": 2.8697782145,
				"y": -0.1236522058,
				"z": 4.7385694805,
				"element": "H" 
			},
			{
				"x": 1.8813622304,
				"y": 1.1754936482,
				"z": 4.3607967816,
				"element": "H" 
			},
			{
				"x": 2.8444839695,
				"y": -2.105834642,
				"z": 1.6664423456,
				"element": "H" 
			},
			{
				"x": 1.4349011641,
				"y": -3.0106543245,
				"z": -0.1939733568,
				"element": "H" 
			},
			{
				"x": 0.0670892635,
				"y": -1.0236616078,
				"z": -4.2776289399,
				"element": "H" 
			},
			{
				"x": -1.7596716164,
				"y": 0.094622931,
				"z": -5.5670492782,
				"element": "H" 
			},
			{
				"x": -3.8582954519,
				"y": 0.7629045794,
				"z": -4.4132871805,
				"element": "H" 
			},
			{
				"x": -4.1336527789,
				"y": 0.3049045082,
				"z": -1.9853192663,
				"element": "H" 
			},
			{
				"x": -2.3109125572,
				"y": -0.8226271525,
				"z": -0.7150608118,
				"element": "H" 
			},
			{
				"x": 0.1112167483,
				"y": 0.9692139443,
				"z": -1.1282716431,
				"element": "H" 
			},
			{
				"x": 1.5101242559,
				"y": 1.8678466118,
				"z": 0.7263206544,
				"element": "H" 
			}
		],
		 "valence_orbital": [ 
			{
				"type": "occ",
				"energy": -0.2905,
				"method": "rhf"
			},
			{
				"type": "occ",
				"energy": -0.27181,
				"method": "rhf"
			},
			{
				"type": "occ",
				"energy": -0.26553,
				"method": "rhf"
			},
			{
				"type": "occ",
				"energy": -0.25927,
				"method": "rhf"
			},
			{
				"type": "occ",
				"energy": -0.23679,
				"method": "rhf"
			},
			{
				"type": "unocc",
				"energy": -0.02936,
				"method": "rhf"
			},
			{
				"type": "unocc",
				"energy": -0.0246,
				"method": "rhf"
			},
			{
				"type": "unocc",
				"energy": -0.01174,
				"method": "rhf"
			},
			{
				"type": "unocc",
				"energy": -0.00937,
				"method": "rhf"
			},
			{
				"type": "unocc",
				"energy": 0.05759,
				"method": "rhf"
			}
		],
		"cosmo_sigma_profile": { 
			"-0.025": 0.0,
			"-0.024": 0.0,
			"-0.023": 0.0,
			"-0.022": 0.0,
			"-0.021": 0.0,
			"-0.02": 0.0,
			"-0.019": 0.0,
			"-0.018": 0.0,
			"-0.017": 0.0,
			"-0.016": 0.0,
			"-0.015": 0.78264965593,
			"-0.014": 2.50494057382,
			"-0.013": 2.56833973279,
			"-0.012": 2.1617684618,
			"-0.011": 2.89931864847,
			"-0.01": 1.41918519093,
			"-0.009": 0.909805796641,
			"-0.008": 3.48977788037,
			"-0.007": 9.90476968175,
			"-0.006": 16.9558340296,
			"-0.005": 18.0438567996,
			"-0.004": 18.9967039016,
			"-0.003": 15.3164761122,
			"-0.002": 16.1163344734,
			"-0.001": 15.8629426364,
			"0.0": 16.014911459,
			"0.001": 19.9025331806,
			"0.002": 24.5140217311,
			"0.003": 21.1350633266,
			"0.004": 15.2522486408,
			"0.005": 9.44830800103,
			"0.006": 4.41202658419,
			"0.007": 4.60969825747,
			"0.008": 5.59901657066,
			"0.009": 4.21952757545,
			"0.01": 6.97500605059,
			"0.011": 9.78621652434,
			"0.012": 4.73306786211,
			"0.013": 0.188099882544,
			"0.014": 0.0,
			"0.015": 0.0,
			"0.016": 0.0,
			"0.017": 0.0,
			"0.018": 0.0,
			"0.019": 0.0,
			"0.02": 0.0,
			"0.021": 0.0,
			"0.022": 0.0,
			"0.023": 0.0,
			"0.024": 0.0,
			"0.025": 0.0
		}
	}
}
