{
	 "smiles": "COC1=CC=C(C=C1)S(=O)(=O)NC(CCC(N)=O)C(O)=O", 
	 "Tm": 445.15, 
	 "num_atms": 37, 
	 "gaussian": { 
		 "optdone": 1, 
		 "sigma_profile": "yes", 
		 "theory": "DFT", 
		 "functional": "B3LYP", 
		 "basiset": "6-31G**", 
		 "properties": { 
			 "R2extent": 9550.4937, 
			 "electric_dipole_moment_norm": 2.8623941535, 
			 "electric_quadrupole_moment_norm": 58.4196570973, 
			 "total_energy": -1425.90484956, 
			 "HOMO_LUMO_gap": 0.21153, 
			 "cosmo_polarized_energy": -28.89, 
			 "cosmo_cavitation_energy": 42.03, 
			 "cosmo_dispersion_energy": -30.18, 
			 "cosmo_repulsion_energy": 2.28, 
			 "cosmo_total_nonelectrostatic_energy": 14.14, 
			 "SMD_solvation_energy": 8.5 
		},
		"coords": [
			{
				"x": 6.0505115177,
				"y": -1.5410697007,
				"z": -0.6546178026,
				"element": "C" 
			},
			{
				"x": 4.8522614593,
				"y": -1.4921382086,
				"z": -1.4163121129,
				"element": "O" 
			},
			{
				"x": 3.708166957,
				"y": -1.0907142383,
				"z": -0.8014426057,
				"element": "C" 
			},
			{
				"x": 2.5607739094,
				"y": -1.0677807568,
				"z": -1.6155246869,
				"element": "C" 
			},
			{
				"x": 1.3382877974,
				"y": -0.6763118273,
				"z": -1.0945241614,
				"element": "C" 
			},
			{
				"x": 1.2625316901,
				"y": -0.2964576035,
				"z": 0.2534695149,
				"element": "C" 
			},
			{
				"x": 2.3908334591,
				"y": -0.3129361791,
				"z": 1.0691416818,
				"element": "C" 
			},
			{
				"x": 3.6219599953,
				"y": -0.7106113724,
				"z": 0.5442228309,
				"element": "C" 
			},
			{
				"x": -0.309367651,
				"y": 0.1436332545,
				"z": 0.9736113744,
				"element": "S" 
			},
			{
				"x": -0.0388346385,
				"y": 0.7268865782,
				"z": 2.2963370889,
				"element": "O" 
			},
			{
				"x": -1.2571249031,
				"y": -0.9706161794,
				"z": 0.8334468513,
				"element": "O" 
			},
			{
				"x": -0.8667307779,
				"y": 1.3536644048,
				"z": -0.0784328206,
				"element": "N" 
			},
			{
				"x": -2.2870763578,
				"y": 1.3604614947,
				"z": -0.4483316885,
				"element": "C" 
			},
			{
				"x": -3.277749846,
				"y": 1.4347135094,
				"z": 0.74358018,
				"element": "C" 
			},
			{
				"x": -4.5700081934,
				"y": 2.2027075247,
				"z": 0.4453259984,
				"element": "C" 
			},
			{
				"x": -4.3345249062,
				"y": 3.6966256384,
				"z": 0.2214031536,
				"element": "C" 
			},
			{
				"x": -5.4634932914,
				"y": 4.4625715457,
				"z": 0.1946082308,
				"element": "N" 
			},
			{
				"x": -3.2201931896,
				"y": 4.1835352598,
				"z": 0.0546140718,
				"element": "O" 
			},
			{
				"x": -2.5616002998,
				"y": 0.2427153145,
				"z": -1.4564263864,
				"element": "C" 
			},
			{
				"x": -3.8734272438,
				"y": -0.0956606633,
				"z": -1.4844256207,
				"element": "O" 
			},
			{
				"x": -1.7592209511,
				"y": -0.2472486537,
				"z": -2.2174602425,
				"element": "O" 
			},
			{
				"x": 6.3241425667,
				"y": -0.5510131795,
				"z": -0.2688555059,
				"element": "H" 
			},
			{
				"x": 6.8265299016,
				"y": -1.8873032805,
				"z": -1.3385257363,
				"element": "H" 
			},
			{
				"x": 5.9672317681,
				"y": -2.2440991352,
				"z": 0.1835711655,
				"element": "H" 
			},
			{
				"x": 2.659864527,
				"y": -1.3612651608,
				"z": -2.6551922823,
				"element": "H" 
			},
			{
				"x": 0.4506427712,
				"y": -0.6426291011,
				"z": -1.7181402629,
				"element": "H" 
			},
			{
				"x": 2.3049603499,
				"y": -0.0113173628,
				"z": 2.1071081946,
				"element": "H" 
			},
			{
				"x": 4.4942851283,
				"y": -0.718104036,
				"z": 1.1861197126,
				"element": "H" 
			},
			{
				"x": -0.5672927251,
				"y": 2.2624043784,
				"z": 0.2663926823,
				"element": "H" 
			},
			{
				"x": -2.3971164423,
				"y": 2.2900288829,
				"z": -1.0190514217,
				"element": "H" 
			},
			{
				"x": -3.514113935,
				"y": 0.4259249117,
				"z": 1.0871347376,
				"element": "H" 
			},
			{
				"x": -2.7553285259,
				"y": 1.9382559675,
				"z": 1.561760812,
				"element": "H" 
			},
			{
				"x": -5.2720253115,
				"y": 2.0760494339,
				"z": 1.2790321897,
				"element": "H" 
			},
			{
				"x": -5.070501614,
				"y": 1.7893455026,
				"z": -0.4381453137,
				"element": "H" 
			},
			{
				"x": -5.3619932255,
				"y": 5.4565542941,
				"z": 0.0559270094,
				"element": "H" 
			},
			{
				"x": -6.3771307376,
				"y": 4.0865493446,
				"z": 0.3888491018,
				"element": "H" 
			},
			{
				"x": -3.9551290318,
				"y": -0.7757506016,
				"z": -2.1741479311,
				"element": "H" 
			}
		],
		 "valence_orbital": [ 
			{
				"type": "occ",
				"energy": -0.27412,
				"method": "rhf"
			},
			{
				"type": "occ",
				"energy": -0.26559,
				"method": "rhf"
			},
			{
				"type": "occ",
				"energy": -0.25769,
				"method": "rhf"
			},
			{
				"type": "occ",
				"energy": -0.25458,
				"method": "rhf"
			},
			{
				"type": "occ",
				"energy": -0.22715,
				"method": "rhf"
			},
			{
				"type": "unocc",
				"energy": -0.01562,
				"method": "rhf"
			},
			{
				"type": "unocc",
				"energy": -0.00688,
				"method": "rhf"
			},
			{
				"type": "unocc",
				"energy": 0.00795,
				"method": "rhf"
			},
			{
				"type": "unocc",
				"energy": 0.02108,
				"method": "rhf"
			},
			{
				"type": "unocc",
				"energy": 0.06516,
				"method": "rhf"
			}
		],
		"cosmo_sigma_profile": { 
			"-0.025": 0.0,
			"-0.024": 0.0,
			"-0.023": 0.0,
			"-0.022": 0.0,
			"-0.021": 0.0,
			"-0.02": 0.0,
			"-0.019": 0.238179053948,
			"-0.018": 0.88602175069,
			"-0.017": 1.02592694337,
			"-0.016": 0.89208629072,
			"-0.015": 1.29409194617,
			"-0.014": 2.28339316606,
			"-0.013": 4.34667573346,
			"-0.012": 3.81903339356,
			"-0.011": 3.62937300908,
			"-0.01": 3.71255511768,
			"-0.009": 5.40740754825,
			"-0.008": 5.07376369853,
			"-0.007": 11.1490084811,
			"-0.006": 18.5420536989,
			"-0.005": 21.920353063,
			"-0.004": 23.0677114076,
			"-0.003": 22.5654167513,
			"-0.002": 16.2957560652,
			"-0.001": 16.5634483024,
			"0.0": 13.9139332005,
			"0.001": 17.4083128195,
			"0.002": 21.0776126743,
			"0.003": 25.1387269345,
			"0.004": 14.0473090904,
			"0.005": 10.0230157747,
			"0.006": 8.03838359812,
			"0.007": 7.83534912304,
			"0.008": 8.68986567881,
			"0.009": 9.55647788842,
			"0.01": 11.2606235539,
			"0.011": 11.4129829072,
			"0.012": 5.26709033475,
			"0.013": 2.64568295671,
			"0.014": 2.4995060069,
			"0.015": 0.488728655094,
			"0.016": 0.0,
			"0.017": 0.0,
			"0.018": 0.0,
			"0.019": 0.0,
			"0.02": 0.0,
			"0.021": 0.0,
			"0.022": 0.0,
			"0.023": 0.0,
			"0.024": 0.0,
			"0.0": 0.0
		}
	}
}
