{
	 "smiles": "CC1=NC2=C(C=C(F)C(F)=C2F)C(Cl)=C1", 
	 "Tm": 347.15, 
	 "num_atms": 20, 
	 "gaussian": { 
		 "optdone": 1, 
		 "sigma_profile": "yes", 
		 "theory": "DFT", 
		 "functional": "B3LYP", 
		 "basiset": "6-31G**", 
		 "properties": { 
			 "R2extent": 3791.7241, 
			 "electric_dipole_moment_norm": 2.84502214578, 
			 "electric_quadrupole_moment_norm": 5.53048278544, 
			 "total_energy": -1198.51994475, 
			 "HOMO_LUMO_gap": 0.17332, 
			 "cosmo_polarized_energy": -6.03, 
			 "cosmo_cavitation_energy": 27.99, 
			 "cosmo_dispersion_energy": -20.36, 
			 "cosmo_repulsion_energy": 1.52, 
			 "cosmo_total_nonelectrostatic_energy": 9.14, 
			 "SMD_solvation_energy": 4.63 
		},
		"coords": [
			{
				"x": 3.5643971303,
				"y": -1.1151397161,
				"z": 1.1445208208,
				"element": "C" 
			},
			{
				"x": 2.2885298983,
				"y": -0.9681125314,
				"z": 0.355461413,
				"element": "C" 
			},
			{
				"x": 1.3315137017,
				"y": -0.2167312376,
				"z": 0.8667716824,
				"element": "N" 
			},
			{
				"x": 0.1773292717,
				"y": -0.0767362566,
				"z": 0.1651020722,
				"element": "C" 
			},
			{
				"x": -0.0783609955,
				"y": -0.6931610523,
				"z": -1.1043850347,
				"element": "C" 
			},
			{
				"x": -1.314353051,
				"y": -0.4910361364,
				"z": -1.7658825097,
				"element": "C" 
			},
			{
				"x": -2.2654091404,
				"y": 0.3017388682,
				"z": -1.1782995313,
				"element": "C" 
			},
			{
				"x": -3.4476231792,
				"y": 0.5181759071,
				"z": -1.7711587466,
				"element": "F" 
			},
			{
				"x": -2.0443631546,
				"y": 0.9229241912,
				"z": 0.0710668883,
				"element": "C" 
			},
			{
				"x": -3.0033408216,
				"y": 1.6871489976,
				"z": 0.6030088888,
				"element": "F" 
			},
			{
				"x": -0.848490947,
				"y": 0.7352271727,
				"z": 0.724560809,
				"element": "C" 
			},
			{
				"x": -0.653138928,
				"y": 1.3275967989,
				"z": 1.9033351722,
				"element": "F" 
			},
			{
				"x": 0.9877999296,
				"y": -1.4914927692,
				"z": -1.6074063435,
				"element": "C" 
			},
			{
				"x": 0.8162280539,
				"y": -2.3060358282,
				"z": -3.1491444135,
				"element": "Cl" 
			},
			{
				"x": 2.1525480341,
				"y": -1.6318664828,
				"z": -0.8977176791,
				"element": "C" 
			},
			{
				"x": 3.7561238085,
				"y": -2.1659847941,
				"z": 1.3901416716,
				"element": "H" 
			},
			{
				"x": 3.4903595186,
				"y": -0.542453304,
				"z": 2.0695722769,
				"element": "H" 
			},
			{
				"x": 4.4257686149,
				"y": -0.7550815777,
				"z": 0.5702717415,
				"element": "H" 
			},
			{
				"x": -1.5186070297,
				"y": -0.9510556666,
				"z": -2.724236197,
				"element": "H" 
			},
			{
				"x": 2.9620892854,
				"y": -2.2407245827,
				"z": -1.2842829814,
				"element": "H" 
			}
		],
		 "valence_orbital": [ 
			{
				"type": "occ",
				"energy": -0.33362,
				"method": "rhf"
			},
			{
				"type": "occ",
				"energy": -0.29756,
				"method": "rhf"
			},
			{
				"type": "occ",
				"energy": -0.27466,
				"method": "rhf"
			},
			{
				"type": "occ",
				"energy": -0.26128,
				"method": "rhf"
			},
			{
				"type": "occ",
				"energy": -0.24348,
				"method": "rhf"
			},
			{
				"type": "unocc",
				"energy": -0.07016,
				"method": "rhf"
			},
			{
				"type": "unocc",
				"energy": -0.03621,
				"method": "rhf"
			},
			{
				"type": "unocc",
				"energy": 0.00548,
				"method": "rhf"
			},
			{
				"type": "unocc",
				"energy": 0.01301,
				"method": "rhf"
			},
			{
				"type": "unocc",
				"energy": 0.04856,
				"method": "rhf"
			}
		],
		"cosmo_sigma_profile": { 
			"-0.025": 0.0,
			"-0.024": 0.0,
			"-0.023": 0.0,
			"-0.022": 0.0,
			"-0.021": 0.0,
			"-0.02": 0.0,
			"-0.019": 0.0,
			"-0.018": 0.0,
			"-0.017": 0.0,
			"-0.016": 0.0,
			"-0.015": 0.0,
			"-0.014": 0.0,
			"-0.013": 0.0,
			"-0.012": 0.0,
			"-0.011": 0.0,
			"-0.01": 0.0,
			"-0.009": 0.286262881725,
			"-0.008": 2.75127684758,
			"-0.007": 2.64491477359,
			"-0.006": 5.33705399537,
			"-0.005": 9.18212160889,
			"-0.004": 10.1882994752,
			"-0.003": 21.3638970837,
			"-0.002": 22.592679176,
			"-0.001": 33.704000461,
			"0.0": 27.850121191,
			"0.001": 15.4141368079,
			"0.002": 19.7357444721,
			"0.003": 36.4377336441,
			"0.004": 8.48578720996,
			"0.005": 2.09431588229,
			"0.006": 1.71549240449,
			"0.007": 1.67456535191,
			"0.008": 1.05524130528,
			"0.009": 1.40366685268,
			"0.01": 0.947282944003,
			"0.011": 1.25594937189,
			"0.012": 0.946168871043,
			"0.013": 0.975447921248,
			"0.014": 0.405995712211,
			"0.015": 0.0,
			"0.016": 0.0,
			"0.017": 0.0,
			"0.018": 0.0,
			"0.019": 0.0,
			"0.02": 0.0,
			"0.021": 0.0,
			"0.022": 0.0,
			"0.023": 0.0,
			"0.024": 0.0,
			"0.025": 0.0
		}
	}
}
