{
	 "smiles": "CC(C)(C)S(=O)(=O)CC(O)=O", 
	 "Tm": 363.15, 
	 "num_atms": 23, 
	 "gaussian": { 
		 "optdone": 1, 
		 "sigma_profile": "yes", 
		 "theory": "DFT", 
		 "functional": "B3LYP", 
		 "basiset": "6-31G**", 
		 "properties": { 
			 "R2extent": 2632.0915, 
			 "electric_dipole_moment_norm": 7.08979636238, 
			 "electric_quadrupole_moment_norm": 14.0564577017, 
			 "total_energy": -934.914893563, 
			 "HOMO_LUMO_gap": 0.26824, 
			 "cosmo_polarized_energy": -18.77, 
			 "cosmo_cavitation_energy": 26.46, 
			 "cosmo_dispersion_energy": -19.24, 
			 "cosmo_repulsion_energy": 1.48, 
			 "cosmo_total_nonelectrostatic_energy": 8.69, 
			 "SMD_solvation_energy": 5.45 
		},
		"coords": [
			{
				"x": -0.4108496301,
				"y": 1.4897057334,
				"z": 0.8712589467,
				"element": "C" 
			},
			{
				"x": 0.4333090774,
				"y": 0.3264980464,
				"z": 0.334870958,
				"element": "C" 
			},
			{
				"x": 1.2126585935,
				"y": -0.3655548585,
				"z": 1.4670359774,
				"element": "C" 
			},
			{
				"x": 1.3725451986,
				"y": 0.7578404149,
				"z": -0.7974494037,
				"element": "C" 
			},
			{
				"x": -0.725003674,
				"y": -0.9948341055,
				"z": -0.2933421756,
				"element": "S" 
			},
			{
				"x": 0.1125221513,
				"y": -2.0323826398,
				"z": -0.9653455873,
				"element": "O" 
			},
			{
				"x": -1.6258152922,
				"y": -1.3909372868,
				"z": 0.7998447558,
				"element": "O" 
			},
			{
				"x": -1.7279622353,
				"y": -0.2643366543,
				"z": -1.6353445022,
				"element": "C" 
			},
			{
				"x": -2.4782814052,
				"y": -1.2991734395,
				"z": -2.5067294189,
				"element": "C" 
			},
			{
				"x": -1.8659684219,
				"y": -2.4589379006,
				"z": -2.7461273135,
				"element": "O" 
			},
			{
				"x": -3.5441231274,
				"y": -1.0051138135,
				"z": -2.9858633644,
				"element": "O" 
			},
			{
				"x": -1.1225001528,
				"y": 1.1484338847,
				"z": 1.6267709228,
				"element": "H" 
			},
			{
				"x": -0.9590892601,
				"y": 2.004832559,
				"z": 0.0762751704,
				"element": "H" 
			},
			{
				"x": 0.2570310577,
				"y": 2.2226012288,
				"z": 1.3354523866,
				"element": "H" 
			},
			{
				"x": 0.5414465417,
				"y": -0.7103477765,
				"z": 2.2567450529,
				"element": "H" 
			},
			{
				"x": 1.781342881,
				"y": -1.2196415259,
				"z": 1.0910986174,
				"element": "H" 
			},
			{
				"x": 1.9143117748,
				"y": 0.3566475119,
				"z": 1.8961797406,
				"element": "H" 
			},
			{
				"x": 0.8463936128,
				"y": 1.2879446734,
				"z": -1.5973258249,
				"element": "H" 
			},
			{
				"x": 1.8970480368,
				"y": -0.0988142126,
				"z": -1.2262309968,
				"element": "H" 
			},
			{
				"x": 2.1172249858,
				"y": 1.4483130191,
				"z": -0.3881889287,
				"element": "H" 
			},
			{
				"x": -2.4629183275,
				"y": 0.4098673935,
				"z": -1.1981689237,
				"element": "H" 
			},
			{
				"x": -1.0483336723,
				"y": 0.2952416539,
				"z": -2.2848109094,
				"element": "H" 
			},
			{
				"x": -1.0270887128,
				"y": -2.5296519055,
				"z": -2.2320051794,
				"element": "H" 
			}
		],
		 "valence_orbital": [ 
			{
				"type": "occ",
				"energy": -0.33411,
				"method": "rhf"
			},
			{
				"type": "occ",
				"energy": -0.32174,
				"method": "rhf"
			},
			{
				"type": "occ",
				"energy": -0.31478,
				"method": "rhf"
			},
			{
				"type": "occ",
				"energy": -0.3047,
				"method": "rhf"
			},
			{
				"type": "occ",
				"energy": -0.27773,
				"method": "rhf"
			},
			{
				"type": "unocc",
				"energy": -0.00949,
				"method": "rhf"
			},
			{
				"type": "unocc",
				"energy": 0.03362,
				"method": "rhf"
			},
			{
				"type": "unocc",
				"energy": 0.03737,
				"method": "rhf"
			},
			{
				"type": "unocc",
				"energy": 0.05077,
				"method": "rhf"
			},
			{
				"type": "unocc",
				"energy": 0.06679,
				"method": "rhf"
			}
		],
		"cosmo_sigma_profile": { 
			"-0.025": 0.0,
			"-0.024": 0.0,
			"-0.023": 0.0,
			"-0.022": 0.0,
			"-0.021": 0.0,
			"-0.02": 0.0,
			"-0.019": 0.0,
			"-0.018": 0.0,
			"-0.017": 0.0,
			"-0.016": 0.0,
			"-0.015": 0.0,
			"-0.014": 0.0,
			"-0.013": 0.0,
			"-0.012": 0.25937351996,
			"-0.011": 3.02312342771,
			"-0.01": 3.89410889003,
			"-0.009": 6.14553915641,
			"-0.008": 5.51004390196,
			"-0.007": 5.26507541558,
			"-0.006": 10.5634366366,
			"-0.005": 14.0658699075,
			"-0.004": 16.7409886603,
			"-0.003": 19.3119420759,
			"-0.002": 20.0654867283,
			"-0.001": 21.1475460473,
			"0.0": 8.77543481881,
			"0.001": 5.71480276148,
			"0.002": 4.32629931459,
			"0.003": 3.68836683644,
			"0.004": 3.69626971715,
			"0.005": 4.13761384255,
			"0.006": 5.82840448563,
			"0.007": 5.54661499623,
			"0.008": 5.76848985194,
			"0.009": 6.8193618264,
			"0.01": 11.2387493612,
			"0.011": 11.7047057922,
			"0.012": 3.65056883723,
			"0.013": 0.170049912732,
			"0.014": 0.0,
			"0.015": 0.0,
			"0.016": 0.0,
			"0.017": 0.0,
			"0.018": 0.0,
			"0.019": 0.0,
			"0.02": 0.0,
			"0.021": 0.0,
			"0.022": 0.0,
			"0.023": 0.0,
			"0.024": 0.0,
			"0.025": 0.0
		}
	}
}
