{
	 "smiles": "COC(=O)C1=C(SC2=CC=CC=C2)C2=C(C(Cl)=NC(Cl)=C2)C(C2=CC=CC=C2)=C1C(=O)OC", 
	 "Tm": 451.5, 
	 "num_atms": 50, 
	 "gaussian": { 
		 "optdone": 1, 
		 "sigma_profile": "yes", 
		 "theory": "DFT", 
		 "functional": "B3LYP", 
		 "basiset": "6-31G**", 
		 "properties": { 
			 "R2extent": 16979.6206, 
			 "electric_dipole_moment_norm": 3.85683318929, 
			 "electric_quadrupole_moment_norm": 22.8666550051, 
			 "total_energy": -2637.12008773, 
			 "HOMO_LUMO_gap": 0.14725, 
			 "cosmo_polarized_energy": -16.75, 
			 "cosmo_cavitation_energy": 59.98, 
			 "cosmo_dispersion_energy": -38.37, 
			 "cosmo_repulsion_energy": 2.9, 
			 "cosmo_total_nonelectrostatic_energy": 24.5, 
			 "SMD_solvation_energy": 9.91 
		},
		"coords": [
			{
				"x": 2.9063842522,
				"y": 1.0187962833,
				"z": -4.5933044669,
				"element": "C" 
			},
			{
				"x": 1.9504628363,
				"y": 0.2374081667,
				"z": -3.8499436318,
				"element": "O" 
			},
			{
				"x": 1.621399591,
				"y": 0.7256363519,
				"z": -2.6523960011,
				"element": "C" 
			},
			{
				"x": 2.0558225261,
				"y": 1.7514493255,
				"z": -2.1700590368,
				"element": "O" 
			},
			{
				"x": 0.6452290311,
				"y": -0.1715894738,
				"z": -1.9297147532,
				"element": "C" 
			},
			{
				"x": -0.6996824637,
				"y": -0.1342736122,
				"z": -2.2310526945,
				"element": "C" 
			},
			{
				"x": -1.2729979907,
				"y": 0.9602367093,
				"z": -3.5422333552,
				"element": "S" 
			},
			{
				"x": -2.0019773304,
				"y": 2.3177631828,
				"z": -2.6014809082,
				"element": "C" 
			},
			{
				"x": -3.3159193543,
				"y": 2.7011380874,
				"z": -2.8937832656,
				"element": "C" 
			},
			{
				"x": -3.8846980293,
				"y": 3.7923965934,
				"z": -2.2332498103,
				"element": "C" 
			},
			{
				"x": -3.1514613312,
				"y": 4.4896772773,
				"z": -1.2728592779,
				"element": "C" 
			},
			{
				"x": -1.83970096,
				"y": 4.1038612424,
				"z": -0.9842291994,
				"element": "C" 
			},
			{
				"x": -1.2548379035,
				"y": 3.0285071789,
				"z": -1.6528892,
				"element": "C" 
			},
			{
				"x": -1.6033684049,
				"y": -0.9970250296,
				"z": -1.5264762022,
				"element": "C" 
			},
			{
				"x": -1.0961056444,
				"y": -1.8947882115,
				"z": -0.5182011373,
				"element": "C" 
			},
			{
				"x": -2.0687400299,
				"y": -2.832194072,
				"z": -0.0185109778,
				"element": "C" 
			},
			{
				"x": -1.6175568347,
				"y": -4.2226827379,
				"z": 0.9571048171,
				"element": "Cl" 
			},
			{
				"x": -3.3443218342,
				"y": -2.8005508503,
				"z": -0.2981224709,
				"element": "N" 
			},
			{
				"x": -3.7963443496,
				"y": -1.8749292921,
				"z": -1.1496715185,
				"element": "C" 
			},
			{
				"x": -5.5275327274,
				"y": -1.8646173286,
				"z": -1.4294182063,
				"element": "Cl" 
			},
			{
				"x": -2.9877061907,
				"y": -0.9942934664,
				"z": -1.8209609725,
				"element": "C" 
			},
			{
				"x": 0.2852259196,
				"y": -1.7999888857,
				"z": -0.1245489162,
				"element": "C" 
			},
			{
				"x": 0.8711777321,
				"y": -2.5288134599,
				"z": 1.0425991353,
				"element": "C" 
			},
			{
				"x": 0.5094480134,
				"y": -2.1749174891,
				"z": 2.3500157022,
				"element": "C" 
			},
			{
				"x": 1.1044895796,
				"y": -2.8058286407,
				"z": 3.439950839,
				"element": "C" 
			},
			{
				"x": 2.068042499,
				"y": -3.7974063417,
				"z": 3.2381250976,
				"element": "C" 
			},
			{
				"x": 2.4404488493,
				"y": -4.1471738794,
				"z": 1.9395005759,
				"element": "C" 
			},
			{
				"x": 1.8506604966,
				"y": -3.5115534793,
				"z": 0.8458956275,
				"element": "C" 
			},
			{
				"x": 1.1214914846,
				"y": -0.9512293752,
				"z": -0.8392740491,
				"element": "C" 
			},
			{
				"x": 2.5859578199,
				"y": -0.8076194635,
				"z": -0.5058584008,
				"element": "C" 
			},
			{
				"x": 3.473052715,
				"y": -1.0622211965,
				"z": -1.2942539231,
				"element": "O" 
			},
			{
				"x": 2.7813776673,
				"y": -0.3183502257,
				"z": 0.7251981418,
				"element": "O" 
			},
			{
				"x": 4.158762511,
				"y": -0.1561514763,
				"z": 1.1120990663,
				"element": "C" 
			},
			{
				"x": 3.8423566564,
				"y": 1.0937798157,
				"z": -4.0356726357,
				"element": "H" 
			},
			{
				"x": 2.5129744082,
				"y": 2.0202243416,
				"z": -4.7816616781,
				"element": "H" 
			},
			{
				"x": 3.056233838,
				"y": 0.4804431006,
				"z": -5.528135919,
				"element": "H" 
			},
			{
				"x": -3.8892782369,
				"y": 2.1492898464,
				"z": -3.6326846885,
				"element": "H" 
			},
			{
				"x": -4.9043843196,
				"y": 4.087090041,
				"z": -2.4635917679,
				"element": "H" 
			},
			{
				"x": -3.5978896432,
				"y": 5.3323161574,
				"z": -0.7531511654,
				"element": "H" 
			},
			{
				"x": -1.261703227,
				"y": 4.650532811,
				"z": -0.2446471343,
				"element": "H" 
			},
			{
				"x": -0.2253241782,
				"y": 2.7507070913,
				"z": -1.449387267,
				"element": "H" 
			},
			{
				"x": -3.3856482976,
				"y": -0.3181569463,
				"z": -2.5632324301,
				"element": "H" 
			},
			{
				"x": -0.2363607623,
				"y": -1.401797221,
				"z": 2.5092688325,
				"element": "H" 
			},
			{
				"x": 0.8165176634,
				"y": -2.5231276469,
				"z": 4.4483428734,
				"element": "H" 
			},
			{
				"x": 2.5272243254,
				"y": -4.2921057884,
				"z": 4.0890776978,
				"element": "H" 
			},
			{
				"x": 3.1888752314,
				"y": -4.9168095286,
				"z": 1.774444389,
				"element": "H" 
			},
			{
				"x": 2.1393890384,
				"y": -3.7872176859,
				"z": -0.1640583498,
				"element": "H" 
			},
			{
				"x": 4.6717833161,
				"y": 0.5130945352,
				"z": 0.4180762996,
				"element": "H" 
			},
			{
				"x": 4.6653208264,
				"y": -1.1242207878,
				"z": 1.1217254738,
				"element": "H" 
			},
			{
				"x": 4.1302312161,
				"y": 0.2714854531,
				"z": 2.1134908423,
				"element": "H" 
			}
		],
		 "valence_orbital": [ 
			{
				"type": "occ",
				"energy": -0.26027,
				"method": "rhf"
			},
			{
				"type": "occ",
				"energy": -0.25888,
				"method": "rhf"
			},
			{
				"type": "occ",
				"energy": -0.25178,
				"method": "rhf"
			},
			{
				"type": "occ",
				"energy": -0.24213,
				"method": "rhf"
			},
			{
				"type": "occ",
				"energy": -0.23251,
				"method": "rhf"
			},
			{
				"type": "unocc",
				"energy": -0.08526,
				"method": "rhf"
			},
			{
				"type": "unocc",
				"energy": -0.05862,
				"method": "rhf"
			},
			{
				"type": "unocc",
				"energy": -0.0259,
				"method": "rhf"
			},
			{
				"type": "unocc",
				"energy": -0.02008,
				"method": "rhf"
			},
			{
				"type": "unocc",
				"energy": -0.01304,
				"method": "rhf"
			}
		],
		"cosmo_sigma_profile": { 
			"-0.025": 0.0,
			"-0.024": 0.0,
			"-0.023": 0.0,
			"-0.022": 0.0,
			"-0.021": 0.0,
			"-0.02": 0.0,
			"-0.019": 0.0,
			"-0.018": 0.0,
			"-0.017": 0.0,
			"-0.016": 0.0,
			"-0.015": 0.0,
			"-0.014": 0.0,
			"-0.013": 0.0,
			"-0.012": 0.0,
			"-0.011": 0.0,
			"-0.01": 0.0,
			"-0.009": 0.0,
			"-0.008": 0.126134682566,
			"-0.007": 8.13256198038,
			"-0.006": 32.2053014547,
			"-0.005": 36.022388286,
			"-0.004": 44.9948402175,
			"-0.003": 39.8677241814,
			"-0.002": 41.4571952184,
			"-0.001": 35.8792641508,
			"0.0": 32.0557046912,
			"0.001": 32.6859139459,
			"0.002": 34.8823696007,
			"0.003": 42.2430643966,
			"0.004": 44.6667196816,
			"0.005": 21.3951795449,
			"0.006": 9.40971081746,
			"0.007": 8.31881864972,
			"0.008": 5.14159107616,
			"0.009": 4.62742039004,
			"0.01": 6.16019957697,
			"0.011": 6.40686624653,
			"0.012": 0.907812931523,
			"0.013": 0.0,
			"0.014": 0.0,
			"0.015": 0.0,
			"0.016": 0.0,
			"0.017": 0.0,
			"0.018": 0.0,
			"0.019": 0.0,
			"0.02": 0.0,
			"0.021": 0.0,
			"0.022": 0.0,
			"0.023": 0.0,
			"0.024": 0.0,
			"0.025": 0.0
		}
	}
}
