{
	 "smiles": "OC(=O)C1=NN(C2=C1CCCC2)C1=CC=C(F)C=C1", 
	 "Tm": 483.15, 
	 "num_atms": 32, 
	 "gaussian": { 
		 "optdone": 1, 
		 "sigma_profile": "yes", 
		 "theory": "DFT", 
		 "functional": "B3LYP", 
		 "basiset": "6-31G**", 
		 "properties": { 
			 "R2extent": 6614.4889, 
			 "electric_dipole_moment_norm": 5.79571051382, 
			 "electric_quadrupole_moment_norm": 32.032254719, 
			 "total_energy": -901.123839713, 
			 "HOMO_LUMO_gap": 0.19395, 
			 "cosmo_polarized_energy": -13.8, 
			 "cosmo_cavitation_energy": 35.63, 
			 "cosmo_dispersion_energy": -25.77, 
			 "cosmo_repulsion_energy": 1.96, 
			 "cosmo_total_nonelectrostatic_energy": 11.82, 
			 "SMD_solvation_energy": 6.27 
		},
		"coords": [
			{
				"x": 0.7456924146,
				"y": 1.0245681929,
				"z": 3.7199448264,
				"element": "O" 
			},
			{
				"x": 1.0264571865,
				"y": -0.2924085781,
				"z": 3.5996530158,
				"element": "C" 
			},
			{
				"x": 1.3009250874,
				"y": -0.9804190013,
				"z": 4.5582816673,
				"element": "O" 
			},
			{
				"x": 0.9691490592,
				"y": -0.810800475,
				"z": 2.2124628967,
				"element": "C" 
			},
			{
				"x": 0.6400181899,
				"y": 0.0153716555,
				"z": 1.2151452465,
				"element": "N" 
			},
			{
				"x": 0.6930172879,
				"y": -0.7384719772,
				"z": 0.0946246984,
				"element": "N" 
			},
			{
				"x": 1.045247791,
				"y": -2.041913167,
				"z": 0.3778085013,
				"element": "C" 
			},
			{
				"x": 1.2366135028,
				"y": -2.1189130282,
				"z": 1.7446449103,
				"element": "C" 
			},
			{
				"x": 1.604814823,
				"y": -3.3833819732,
				"z": 2.4645598477,
				"element": "C" 
			},
			{
				"x": 2.0385819827,
				"y": -4.4635443851,
				"z": 1.4541874704,
				"element": "C" 
			},
			{
				"x": 1.1080857234,
				"y": -4.5122349542,
				"z": 0.2294010629,
				"element": "C" 
			},
			{
				"x": 1.1507348171,
				"y": -3.1950315876,
				"z": -0.5752437917,
				"element": "C" 
			},
			{
				"x": 0.339216032,
				"y": -0.1539153075,
				"z": -1.1539338895,
				"element": "C" 
			},
			{
				"x": 1.0507365909,
				"y": -0.4661875824,
				"z": -2.3167982288,
				"element": "C" 
			},
			{
				"x": 0.6869804682,
				"y": 0.1115939381,
				"z": -3.5326507637,
				"element": "C" 
			},
			{
				"x": -0.3718646753,
				"y": 1.0112799626,
				"z": -3.5597611518,
				"element": "C" 
			},
			{
				"x": -0.7212223207,
				"y": 1.5757335704,
				"z": -4.7317072063,
				"element": "F" 
			},
			{
				"x": -1.0786399628,
				"y": 1.3491609012,
				"z": -2.409450033,
				"element": "C" 
			},
			{
				"x": -0.7232590094,
				"y": 0.7568576138,
				"z": -1.201302984,
				"element": "C" 
			},
			{
				"x": 0.5660806905,
				"y": 1.373188724,
				"z": 2.8282705533,
				"element": "H" 
			},
			{
				"x": 2.3915682219,
				"y": -3.1881925891,
				"z": 3.1995551115,
				"element": "H" 
			},
			{
				"x": 0.7422419807,
				"y": -3.7348305164,
				"z": 3.0463200843,
				"element": "H" 
			},
			{
				"x": 2.0623320739,
				"y": -5.4417821939,
				"z": 1.9457117284,
				"element": "H" 
			},
			{
				"x": 3.0630842138,
				"y": -4.2575233285,
				"z": 1.1158768912,
				"element": "H" 
			},
			{
				"x": 1.3836791043,
				"y": -5.3440901983,
				"z": -0.4273395093,
				"element": "H" 
			},
			{
				"x": 0.0786787812,
				"y": -4.697299394,
				"z": 0.5621665503,
				"element": "H" 
			},
			{
				"x": 0.3466893198,
				"y": -3.1663619778,
				"z": -1.3198096665,
				"element": "H" 
			},
			{
				"x": 2.0944219688,
				"y": -3.1463784202,
				"z": -1.1365695142,
				"element": "H" 
			},
			{
				"x": 1.899388105,
				"y": -1.1382543922,
				"z": -2.2740529699,
				"element": "H" 
			},
			{
				"x": 1.2241835192,
				"y": -0.1136544099,
				"z": -4.4471022377,
				"element": "H" 
			},
			{
				"x": -1.8974205396,
				"y": 2.0573272995,
				"z": -2.4718055449,
				"element": "H" 
			},
			{
				"x": -1.2570124279,
				"y": 0.9945075792,
				"z": -0.2889875713,
				"element": "H" 
			}
		],
		 "valence_orbital": [ 
			{
				"type": "occ",
				"energy": -0.28989,
				"method": "rhf"
			},
			{
				"type": "occ",
				"energy": -0.28134,
				"method": "rhf"
			},
			{
				"type": "occ",
				"energy": -0.26419,
				"method": "rhf"
			},
			{
				"type": "occ",
				"energy": -0.25264,
				"method": "rhf"
			},
			{
				"type": "occ",
				"energy": -0.23887,
				"method": "rhf"
			},
			{
				"type": "unocc",
				"energy": -0.04492,
				"method": "rhf"
			},
			{
				"type": "unocc",
				"energy": -0.032,
				"method": "rhf"
			},
			{
				"type": "unocc",
				"energy": -0.00926,
				"method": "rhf"
			},
			{
				"type": "unocc",
				"energy": 0.02619,
				"method": "rhf"
			},
			{
				"type": "unocc",
				"energy": 0.06692,
				"method": "rhf"
			}
		],
		"cosmo_sigma_profile": { 
			"-0.025": 0.0,
			"-0.024": 0.0,
			"-0.023": 0.0,
			"-0.022": 0.0,
			"-0.021": 0.0,
			"-0.02": 0.0,
			"-0.019": 0.0,
			"-0.018": 0.0,
			"-0.017": 0.0,
			"-0.016": 0.0,
			"-0.015": 0.0446939414082,
			"-0.014": 0.553331614126,
			"-0.013": 0.552062222465,
			"-0.012": 0.11971349314,
			"-0.011": 0.723507681597,
			"-0.01": 1.21154072597,
			"-0.009": 0.390045741101,
			"-0.008": 4.49387421941,
			"-0.007": 8.29198918355,
			"-0.006": 9.68398758859,
			"-0.005": 11.5272727131,
			"-0.004": 14.788224246,
			"-0.003": 27.9730968697,
			"-0.002": 32.1794489157,
			"-0.001": 29.7926298936,
			"0.0": 30.7206711467,
			"0.001": 22.1193171728,
			"0.002": 23.1673725869,
			"0.003": 15.1442374672,
			"0.004": 13.5574592504,
			"0.005": 5.52673342887,
			"0.006": 3.51623724952,
			"0.007": 4.12601731162,
			"0.008": 2.87285564887,
			"0.009": 4.04149045146,
			"0.01": 4.36256201098,
			"0.011": 4.89438306075,
			"0.012": 4.73555407224,
			"0.013": 1.91328740157,
			"0.014": 0.327971376707,
			"0.015": 0.0,
			"0.016": 0.0,
			"0.017": 0.0,
			"0.018": 0.0,
			"0.019": 0.0,
			"0.02": 0.0,
			"0.021": 0.0,
			"0.022": 0.0,
			"0.023": 0.0,
			"0.024": 0.0,
			"0.025": 0.0
		}
	}
}
