{
	 "smiles": "OCC(CO)(CO)COCC(CO)(CO)COCC(CO)(CO)CO", 
	 "Tm": 522.15, 
	 "num_atms": 57, 
	 "gaussian": { 
		 "optdone": 1, 
		 "sigma_profile": "yes", 
		 "theory": "DFT", 
		 "functional": "B3LYP", 
		 "basiset": "6-31G**", 
		 "properties": { 
			 "R2extent": 10867.5772, 
			 "electric_dipole_moment_norm": 4.15255133502, 
			 "electric_quadrupole_moment_norm": 36.2405997336, 
			 "total_energy": -1343.02442844, 
			 "HOMO_LUMO_gap": 0.29301, 
			 "cosmo_polarized_energy": -31.09, 
			 "cosmo_cavitation_energy": 52.95, 
			 "cosmo_dispersion_energy": -34.26, 
			 "cosmo_repulsion_energy": 2.6, 
			 "cosmo_total_nonelectrostatic_energy": 21.29, 
			 "SMD_solvation_energy": 8.55 
		},
		"coords": [
			{
				"x": 0.9389818716,
				"y": -0.1103938275,
				"z": 3.3122929948,
				"element": "O" 
			},
			{
				"x": 1.603784888,
				"y": 1.0512998326,
				"z": 2.8462768714,
				"element": "C" 
			},
			{
				"x": 2.9625966534,
				"y": 0.6512936966,
				"z": 2.2446409939,
				"element": "C" 
			},
			{
				"x": 3.8723039991,
				"y": 0.0815845069,
				"z": 3.3671496978,
				"element": "C" 
			},
			{
				"x": 4.4370747025,
				"y": 1.0939459217,
				"z": 4.1861513236,
				"element": "O" 
			},
			{
				"x": 3.5987748952,
				"y": 1.9092917033,
				"z": 1.6274178384,
				"element": "C" 
			},
			{
				"x": 5.0138469611,
				"y": 1.6940923326,
				"z": 1.4997944888,
				"element": "O" 
			},
			{
				"x": 2.8111115252,
				"y": -0.4244639397,
				"z": 1.1583650987,
				"element": "C" 
			},
			{
				"x": 1.8986579879,
				"y": 0.0171617629,
				"z": 0.1606559645,
				"element": "O" 
			},
			{
				"x": 2.0524281037,
				"y": -0.6488612913,
				"z": -1.0758740471,
				"element": "C" 
			},
			{
				"x": 1.0676974936,
				"y": -0.1076524685,
				"z": -2.1391045469,
				"element": "C" 
			},
			{
				"x": 0.9554517327,
				"y": 1.4210995966,
				"z": -2.0407448216,
				"element": "C" 
			},
			{
				"x": 2.251852076,
				"y": 1.9957854824,
				"z": -2.2083657665,
				"element": "O" 
			},
			{
				"x": 1.6029747884,
				"y": -0.4836745773,
				"z": -3.5423333648,
				"element": "C" 
			},
			{
				"x": 1.7943134981,
				"y": -1.8852836943,
				"z": -3.7210584512,
				"element": "O" 
			},
			{
				"x": -0.3300599545,
				"y": -0.7355652029,
				"z": -1.992915219,
				"element": "C" 
			},
			{
				"x": -0.8095780238,
				"y": -0.5223108494,
				"z": -0.6813176886,
				"element": "O" 
			},
			{
				"x": -2.0276795614,
				"y": -1.1612243493,
				"z": -0.3503032097,
				"element": "C" 
			},
			{
				"x": -2.123193154,
				"y": -1.2166299756,
				"z": 1.1847355252,
				"element": "C" 
			},
			{
				"x": -1.8669956473,
				"y": 0.1950065989,
				"z": 1.7583591847,
				"element": "C" 
			},
			{
				"x": -1.855280928,
				"y": 0.2354833807,
				"z": 3.1864286957,
				"element": "O" 
			},
			{
				"x": -1.0661085487,
				"y": -2.2006052503,
				"z": 1.729456412,
				"element": "C" 
			},
			{
				"x": -1.6138829617,
				"y": -3.5300203537,
				"z": 1.6722573853,
				"element": "O" 
			},
			{
				"x": -3.539003535,
				"y": -1.6864430868,
				"z": 1.5838920117,
				"element": "C" 
			},
			{
				"x": -3.6272954911,
				"y": -1.9622271678,
				"z": 2.9862468045,
				"element": "O" 
			},
			{
				"x": 0.0094797141,
				"y": 0.1077318639,
				"z": 3.5115466297,
				"element": "H" 
			},
			{
				"x": 1.7957969968,
				"y": 1.7560214349,
				"z": 3.6705296055,
				"element": "H" 
			},
			{
				"x": 1.0083725041,
				"y": 1.5756472602,
				"z": 2.0840620668,
				"element": "H" 
			},
			{
				"x": 3.264803196,
				"y": -0.5535672075,
				"z": 4.016962796,
				"element": "H" 
			},
			{
				"x": 4.6598660296,
				"y": -0.5439218732,
				"z": 2.9217109485,
				"element": "H" 
			},
			{
				"x": 5.0797847147,
				"y": 1.5438153398,
				"z": 3.6167781708,
				"element": "H" 
			},
			{
				"x": 3.4075972456,
				"y": 2.7769324881,
				"z": 2.2749003792,
				"element": "H" 
			},
			{
				"x": 3.1466857808,
				"y": 2.0940290902,
				"z": 0.6452029875,
				"element": "H" 
			},
			{
				"x": 5.3789792268,
				"y": 2.4096757202,
				"z": 0.9658935004,
				"element": "H" 
			},
			{
				"x": 2.4579955754,
				"y": -1.3656371374,
				"z": 1.6032866857,
				"element": "H" 
			},
			{
				"x": 3.8008854015,
				"y": -0.6019594512,
				"z": 0.7096338996,
				"element": "H" 
			},
			{
				"x": 1.896203489,
				"y": -1.7333486694,
				"z": -0.9560200441,
				"element": "H" 
			},
			{
				"x": 3.084157687,
				"y": -0.5006083174,
				"z": -1.4386296721,
				"element": "H" 
			},
			{
				"x": 0.5272063622,
				"y": 1.6798532288,
				"z": -1.0673997363,
				"element": "H" 
			},
			{
				"x": 0.2682881634,
				"y": 1.7764325345,
				"z": -2.8269373924,
				"element": "H" 
			},
			{
				"x": 2.1744098964,
				"y": 2.945273783,
				"z": -2.0580583762,
				"element": "H" 
			},
			{
				"x": 2.5246917796,
				"y": 0.0776040426,
				"z": -3.7349695652,
				"element": "H" 
			},
			{
				"x": 0.8701637714,
				"y": -0.1821291943,
				"z": -4.3000291008,
				"element": "H" 
			},
			{
				"x": 2.6359104529,
				"y": -2.1267173335,
				"z": -3.3157041865,
				"element": "H" 
			},
			{
				"x": -0.2617291293,
				"y": -1.8113000969,
				"z": -2.2131149285,
				"element": "H" 
			},
			{
				"x": -1.0153982636,
				"y": -0.2907889798,
				"z": -2.7363687002,
				"element": "H" 
			},
			{
				"x": -2.0544545202,
				"y": -2.1868347263,
				"z": -0.7508810237,
				"element": "H" 
			},
			{
				"x": -2.8828310592,
				"y": -0.6115298419,
				"z": -0.7809042811,
				"element": "H" 
			},
			{
				"x": -2.6365012597,
				"y": 0.8783960306,
				"z": 1.3645101775,
				"element": "H" 
			},
			{
				"x": -0.8947047891,
				"y": 0.5538438277,
				"z": 1.4209911311,
				"element": "H" 
			},
			{
				"x": -2.5322173877,
				"y": -0.3936372766,
				"z": 3.4973354446,
				"element": "H" 
			},
			{
				"x": -0.804347234,
				"y": -1.9422638691,
				"z": 2.7588293443,
				"element": "H" 
			},
			{
				"x": -0.1554742427,
				"y": -2.1128095573,
				"z": 1.1274278196,
				"element": "H" 
			},
			{
				"x": -0.9194757917,
				"y": -4.1461634236,
				"z": 1.9356659612,
				"element": "H" 
			},
			{
				"x": -3.8298016866,
				"y": -2.5702790455,
				"z": 1.0042168212,
				"element": "H" 
			},
			{
				"x": -4.2663023736,
				"y": -0.8933269189,
				"z": 1.3797936118,
				"element": "H" 
			},
			{
				"x": -3.1274136211,
				"y": -2.7857225054,
				"z": 3.1059348506,
				"element": "H" 
			}
		],
		 "valence_orbital": [ 
			{
				"type": "occ",
				"energy": -0.26527,
				"method": "rhf"
			},
			{
				"type": "occ",
				"energy": -0.25864,
				"method": "rhf"
			},
			{
				"type": "occ",
				"energy": -0.24676,
				"method": "rhf"
			},
			{
				"type": "occ",
				"energy": -0.24358,
				"method": "rhf"
			},
			{
				"type": "occ",
				"energy": -0.24131,
				"method": "rhf"
			},
			{
				"type": "unocc",
				"energy": 0.0517,
				"method": "rhf"
			},
			{
				"type": "unocc",
				"energy": 0.05482,
				"method": "rhf"
			},
			{
				"type": "unocc",
				"energy": 0.06222,
				"method": "rhf"
			},
			{
				"type": "unocc",
				"energy": 0.06966,
				"method": "rhf"
			},
			{
				"type": "unocc",
				"energy": 0.08204,
				"method": "rhf"
			}
		],
		"cosmo_sigma_profile": { 
			"-0.025": 0.0,
			"-0.024": 0.0,
			"-0.023": 0.0,
			"-0.022": 0.0,
			"-0.021": 0.0,
			"-0.02": 0.0,
			"-0.019": 0.0,
			"-0.018": 0.0,
			"-0.017": 0.0302190419435,
			"-0.016": 1.85094533247,
			"-0.015": 4.4339331535,
			"-0.014": 3.90808735736,
			"-0.013": 2.63495811171,
			"-0.012": 4.5106327232,
			"-0.011": 4.39165956342,
			"-0.01": 4.3039225565,
			"-0.009": 4.05155347037,
			"-0.008": 4.02293313162,
			"-0.007": 5.39975466826,
			"-0.006": 8.07137595049,
			"-0.005": 15.3570563378,
			"-0.004": 31.6466441193,
			"-0.003": 50.7418564124,
			"-0.002": 48.9888872698,
			"-0.001": 35.2998435812,
			"0.0": 22.6694117254,
			"0.001": 14.7807342686,
			"0.002": 15.4713373011,
			"0.003": 13.4714484138,
			"0.004": 12.8666995517,
			"0.005": 13.6987294138,
			"0.006": 12.9825028427,
			"0.007": 12.1043989194,
			"0.008": 10.71021999,
			"0.009": 9.66187346976,
			"0.01": 10.1879997744,
			"0.011": 8.74286893306,
			"0.012": 6.99434440938,
			"0.013": 5.31195242824,
			"0.014": 3.90921520738,
			"0.015": 1.76819353264,
			"0.016": 0.0118770543607,
			"0.017": 0.0,
			"0.018": 0.0,
			"0.019": 0.0,
			"0.02": 0.0,
			"0.021": 0.0,
			"0.022": 0.0,
			"0.023": 0.0,
			"0.024": 0.0,
			"0.025": 0.0
		}
	}
}
