{
	 "smiles": "CC(C)(C)C(O)CN", 
	 "Tm": 338.15, 
	 "num_atms": 23, 
	 "gaussian": { 
		 "optdone": 1, 
		 "sigma_profile": "yes", 
		 "theory": "DFT", 
		 "functional": "B3LYP", 
		 "basiset": "6-31G**", 
		 "properties": { 
			 "R2extent": 1124.8548, 
			 "electric_dipole_moment_norm": 3.09502011948, 
			 "electric_quadrupole_moment_norm": 5.84364512098, 
			 "total_energy": -367.657892359, 
			 "HOMO_LUMO_gap": 0.29978, 
			 "cosmo_polarized_energy": -7.92, 
			 "cosmo_cavitation_energy": 22.84, 
			 "cosmo_dispersion_energy": -16.84, 
			 "cosmo_repulsion_energy": 1.39, 
			 "cosmo_total_nonelectrostatic_energy": 7.39, 
			 "SMD_solvation_energy": 3.45 
		},
		"coords": [
			{
				"x": 1.5105487142,
				"y": -1.5133579651,
				"z": -1.0545367723,
				"element": "C" 
			},
			{
				"x": 0.3357072129,
				"y": -0.5451036544,
				"z": -0.8194529583,
				"element": "C" 
			},
			{
				"x": -0.9516380203,
				"y": -1.1807968861,
				"z": -1.3821698191,
				"element": "C" 
			},
			{
				"x": 0.5974950953,
				"y": 0.7832396684,
				"z": -1.5537103392,
				"element": "C" 
			},
			{
				"x": 0.1182528487,
				"y": -0.3275567334,
				"z": 0.7130012364,
				"element": "C" 
			},
			{
				"x": -1.0708429614,
				"y": 0.3970924319,
				"z": 0.9737322263,
				"element": "O" 
			},
			{
				"x": 1.2779900817,
				"y": 0.3579293996,
				"z": 1.4863785135,
				"element": "C" 
			},
			{
				"x": 1.1189224474,
				"y": 1.8218816929,
				"z": 1.444374091,
				"element": "N" 
			},
			{
				"x": 1.3621943279,
				"y": -2.4567988484,
				"z": -0.5156765309,
				"element": "H" 
			},
			{
				"x": 1.600541128,
				"y": -1.7542731956,
				"z": -2.1196340367,
				"element": "H" 
			},
			{
				"x": 2.4707560063,
				"y": -1.0928956292,
				"z": -0.7362467111,
				"element": "H" 
			},
			{
				"x": -1.1558031965,
				"y": -2.1452048105,
				"z": -0.9021186552,
				"element": "H" 
			},
			{
				"x": -0.8577961332,
				"y": -1.3568869887,
				"z": -2.4598048877,
				"element": "H" 
			},
			{
				"x": -1.8113424252,
				"y": -0.5313758438,
				"z": -1.2037978702,
				"element": "H" 
			},
			{
				"x": 1.5787181937,
				"y": 1.2047282308,
				"z": -1.3016539176,
				"element": "H" 
			},
			{
				"x": -0.1743811191,
				"y": 1.5199232533,
				"z": -1.3109437188,
				"element": "H" 
			},
			{
				"x": 0.5886557797,
				"y": 0.6336062395,
				"z": -2.639014779,
				"element": "H" 
			},
			{
				"x": -0.0067244807,
				"y": -1.3328795553,
				"z": 1.1437621748,
				"element": "H" 
			},
			{
				"x": -0.7541029695,
				"y": 1.295563595,
				"z": 1.1948315906,
				"element": "H" 
			},
			{
				"x": 1.1927898562,
				"y": 0.0615899183,
				"z": 2.5366681979,
				"element": "H" 
			},
			{
				"x": 2.2558671666,
				"y": 0.0070416796,
				"z": 1.1315565774,
				"element": "H" 
			},
			{
				"x": 1.5630724275,
				"y": 2.2590734315,
				"z": 2.2446164803,
				"element": "H" 
			},
			{
				"x": 1.5350200199,
				"y": 2.2194605694,
				"z": 0.6085399077,
				"element": "H" 
			}
		],
		 "valence_orbital": [ 
			{
				"type": "occ",
				"energy": -0.32289,
				"method": "rhf"
			},
			{
				"type": "occ",
				"energy": -0.31553,
				"method": "rhf"
			},
			{
				"type": "occ",
				"energy": -0.29649,
				"method": "rhf"
			},
			{
				"type": "occ",
				"energy": -0.25984,
				"method": "rhf"
			},
			{
				"type": "occ",
				"energy": -0.23979,
				"method": "rhf"
			},
			{
				"type": "unocc",
				"energy": 0.05999,
				"method": "rhf"
			},
			{
				"type": "unocc",
				"energy": 0.09998,
				"method": "rhf"
			},
			{
				"type": "unocc",
				"energy": 0.10647,
				"method": "rhf"
			},
			{
				"type": "unocc",
				"energy": 0.12698,
				"method": "rhf"
			},
			{
				"type": "unocc",
				"energy": 0.13692,
				"method": "rhf"
			}
		],
		"cosmo_sigma_profile": { 
			"-0.025": 0.0,
			"-0.024": 0.0,
			"-0.023": 0.0,
			"-0.022": 0.0,
			"-0.021": 0.0,
			"-0.02": 0.0,
			"-0.019": 0.0,
			"-0.018": 0.0,
			"-0.017": 0.0,
			"-0.016": 0.0,
			"-0.015": 0.0,
			"-0.014": 0.0,
			"-0.013": 0.0,
			"-0.012": 0.0,
			"-0.011": 0.719012994011,
			"-0.01": 1.57322703322,
			"-0.009": 2.65032226142,
			"-0.008": 3.50814617234,
			"-0.007": 3.09167899197,
			"-0.006": 2.84699492613,
			"-0.005": 3.70422065348,
			"-0.004": 7.66948802206,
			"-0.003": 11.3281743603,
			"-0.002": 26.4961258838,
			"-0.001": 24.6178573446,
			"0.0": 19.4988292983,
			"0.001": 20.3578758904,
			"0.002": 19.0304485773,
			"0.003": 5.12687149177,
			"0.004": 2.51330401701,
			"0.005": 1.79824648452,
			"0.006": 2.28835827006,
			"0.007": 2.52977900952,
			"0.008": 1.74839744476,
			"0.009": 2.40129912875,
			"0.01": 1.21431580614,
			"0.011": 1.51082213901,
			"0.012": 1.32821294663,
			"0.013": 1.53580117662,
			"0.014": 1.10362703003,
			"0.015": 1.45725765656,
			"0.016": 0.834597259329,
			"0.017": 0.0,
			"0.018": 0.0,
			"0.019": 0.0,
			"0.02": 0.0,
			"0.021": 0.0,
			"0.022": 0.0,
			"0.023": 0.0,
			"0.024": 0.0,
			"0.025": 0.0
		}
	}
}
