{
	 "smiles": "OC1=C(Cl)C=C(F)C=C1Cl", 
	 "Tm": 323.65, 
	 "num_atms": 13, 
	 "gaussian": { 
		 "optdone": 1, 
		 "sigma_profile": "yes", 
		 "theory": "DFT", 
		 "functional": "B3LYP", 
		 "basiset": "6-31G**", 
		 "properties": { 
			 "R2extent": 3003.3078, 
			 "electric_dipole_moment_norm": 1.35729777868, 
			 "electric_quadrupole_moment_norm": 5.84074290823, 
			 "total_energy": -1325.87902313, 
			 "HOMO_LUMO_gap": 0.20098, 
			 "cosmo_polarized_energy": -6.14, 
			 "cosmo_cavitation_energy": 21.57, 
			 "cosmo_dispersion_energy": -16.43, 
			 "cosmo_repulsion_energy": 1.31, 
			 "cosmo_total_nonelectrostatic_energy": 6.45, 
			 "SMD_solvation_energy": 4.11 
		},
		"coords": [
			{
				"x": -1.1816085645,
				"y": 2.9543534288,
				"z": 0.5197454694,
				"element": "O" 
			},
			{
				"x": -0.9009826822,
				"y": 1.7229565193,
				"z": 0.9977218433,
				"element": "C" 
			},
			{
				"x": 0.1332747628,
				"y": 0.9776810685,
				"z": 0.4034860618,
				"element": "C" 
			},
			{
				"x": 1.0145563323,
				"y": 1.6755296449,
				"z": -0.9307654725,
				"element": "Cl" 
			},
			{
				"x": 0.4655506353,
				"y": -0.2968212041,
				"z": 0.8554705895,
				"element": "C" 
			},
			{
				"x": -0.247541582,
				"y": -0.8359610076,
				"z": 1.9191608576,
				"element": "C" 
			},
			{
				"x": 0.0701451694,
				"y": -2.0689414528,
				"z": 2.3602428091,
				"element": "F" 
			},
			{
				"x": -1.2771305715,
				"y": -0.1446253953,
				"z": 2.5421063025,
				"element": "C" 
			},
			{
				"x": -1.5873976695,
				"y": 1.1275141445,
				"z": 2.0691239226,
				"element": "C" 
			},
			{
				"x": -2.8842321868,
				"y": 2.0444021253,
				"z": 2.8251582344,
				"element": "Cl" 
			},
			{
				"x": -1.912660015,
				"y": 3.3302192491,
				"z": 1.0335096798,
				"element": "H" 
			},
			{
				"x": 1.2641366718,
				"y": -0.860166523,
				"z": 0.3891429556,
				"element": "H" 
			},
			{
				"x": -1.8186103001,
				"y": -0.5857405977,
				"z": 3.369496747,
				"element": "H" 
			}
		],
		 "valence_orbital": [ 
			{
				"type": "occ",
				"energy": -0.34813,
				"method": "rhf"
			},
			{
				"type": "occ",
				"energy": -0.32639,
				"method": "rhf"
			},
			{
				"type": "occ",
				"energy": -0.32025,
				"method": "rhf"
			},
			{
				"type": "occ",
				"energy": -0.26455,
				"method": "rhf"
			},
			{
				"type": "occ",
				"energy": -0.23769,
				"method": "rhf"
			},
			{
				"type": "unocc",
				"energy": -0.03671,
				"method": "rhf"
			},
			{
				"type": "unocc",
				"energy": -0.01039,
				"method": "rhf"
			},
			{
				"type": "unocc",
				"energy": -0.00869,
				"method": "rhf"
			},
			{
				"type": "unocc",
				"energy": 0.04187,
				"method": "rhf"
			},
			{
				"type": "unocc",
				"energy": 0.0774,
				"method": "rhf"
			}
		],
		"cosmo_sigma_profile": { 
			"-0.025": 0.0,
			"-0.024": 0.0,
			"-0.023": 0.0,
			"-0.022": 0.0,
			"-0.021": 0.0,
			"-0.02": 0.0,
			"-0.019": 0.0,
			"-0.018": 0.0,
			"-0.017": 0.0,
			"-0.016": 0.489151415853,
			"-0.015": 0.633218147409,
			"-0.014": 0.512321897673,
			"-0.013": 0.608453758235,
			"-0.012": 1.24527282017,
			"-0.011": 0.84068390168,
			"-0.01": 0.943586957783,
			"-0.009": 3.52128958658,
			"-0.008": 3.7274758654,
			"-0.007": 4.16698071504,
			"-0.006": 4.20191780176,
			"-0.005": 4.08908950314,
			"-0.004": 5.05969772387,
			"-0.003": 7.60133350184,
			"-0.002": 10.0490352061,
			"-0.001": 15.493810732,
			"0.0": 27.7764538856,
			"0.001": 22.4344526312,
			"0.002": 14.2554935622,
			"0.003": 17.9725007423,
			"0.004": 19.7987712821,
			"0.005": 3.36623361263,
			"0.006": 1.95819411122,
			"0.007": 1.83777167607,
			"0.008": 1.79684435501,
			"0.009": 2.15651081462,
			"0.01": 1.8578721266,
			"0.011": 0.0652697588822,
			"0.012": 0.0,
			"0.013": 0.0,
			"0.014": 0.0,
			"0.015": 0.0,
			"0.016": 0.0,
			"0.017": 0.0,
			"0.018": 0.0,
			"0.019": 0.0,
			"0.02": 0.0,
			"0.021": 0.0,
			"0.022": 0.0,
			"0.023": 0.0,
			"0.024": 0.0,
			"0.025": 0.0
		}
	}
}
