{
	 "smiles": "N1C(=CC2=C1C=CC=C2)C1=CC=NC=C1", 
	 "Tm": 482.15, 
	 "num_atms": 25, 
	 "gaussian": { 
		 "optdone": 1, 
		 "sigma_profile": "yes", 
		 "theory": "DFT", 
		 "functional": "B3LYP", 
		 "basiset": "6-31G**", 
		 "properties": { 
			 "R2extent": 4233.4582, 
			 "electric_dipole_moment_norm": 1.97202700539, 
			 "electric_quadrupole_moment_norm": 16.3912208285, 
			 "total_energy": -610.920187596, 
			 "HOMO_LUMO_gap": 0.15459, 
			 "cosmo_polarized_energy": -11.95, 
			 "cosmo_cavitation_energy": 29.16, 
			 "cosmo_dispersion_energy": -21.76, 
			 "cosmo_repulsion_energy": 1.65, 
			 "cosmo_total_nonelectrostatic_energy": 9.05, 
			 "SMD_solvation_energy": 2.96 
		},
		"coords": [
			{
				"x": 0.8743532033,
				"y": 0.398379082,
				"z": -0.7285140613,
				"element": "N" 
			},
			{
				"x": -0.5027354525,
				"y": 0.441958987,
				"z": -0.9248943898,
				"element": "C" 
			},
			{
				"x": -1.089813331,
				"y": 0.9519202502,
				"z": 0.2161275339,
				"element": "C" 
			},
			{
				"x": -0.0495421105,
				"y": 1.217163461,
				"z": 1.1619163901,
				"element": "C" 
			},
			{
				"x": 1.1757503617,
				"y": 0.839713439,
				"z": 0.5424443087,
				"element": "C" 
			},
			{
				"x": 2.4078798808,
				"y": 0.9449848547,
				"z": 1.1971339227,
				"element": "C" 
			},
			{
				"x": 2.4027600786,
				"y": 1.4500859913,
				"z": 2.4917981601,
				"element": "C" 
			},
			{
				"x": 1.2019259489,
				"y": 1.8433502913,
				"z": 3.121565366,
				"element": "C" 
			},
			{
				"x": -0.0188008765,
				"y": 1.7335849752,
				"z": 2.4711397043,
				"element": "C" 
			},
			{
				"x": -1.1103562688,
				"y": 0.0261101006,
				"z": -2.1861899288,
				"element": "C" 
			},
			{
				"x": -2.4665579636,
				"y": -0.3370334446,
				"z": -2.2555745227,
				"element": "C" 
			},
			{
				"x": -3.0073500109,
				"y": -0.7230424423,
				"z": -3.4778417052,
				"element": "C" 
			},
			{
				"x": -2.3121948739,
				"y": -0.7866738434,
				"z": -4.623166322,
				"element": "N" 
			},
			{
				"x": -1.0205121524,
				"y": -0.4423479219,
				"z": -4.5548914906,
				"element": "C" 
			},
			{
				"x": -0.3814290078,
				"y": -0.032600147,
				"z": -3.3864170722,
				"element": "C" 
			},
			{
				"x": 1.5199460428,
				"y": -0.0737295912,
				"z": -1.3408591821,
				"element": "H" 
			},
			{
				"x": -2.1436119336,
				"y": 1.1550713172,
				"z": 0.3431684291,
				"element": "H" 
			},
			{
				"x": 3.3336021226,
				"y": 0.6472109138,
				"z": 0.7128870781,
				"element": "H" 
			},
			{
				"x": 3.3417018694,
				"y": 1.5469364322,
				"z": 3.0288247289,
				"element": "H" 
			},
			{
				"x": 1.2391778063,
				"y": 2.2369525755,
				"z": 4.133014623,
				"element": "H" 
			},
			{
				"x": -0.938438554,
				"y": 2.0363109233,
				"z": 2.9638982176,
				"element": "H" 
			},
			{
				"x": -3.0835611015,
				"y": -0.3367496423,
				"z": -1.363151855,
				"element": "H" 
			},
			{
				"x": -4.056717768,
				"y": -1.0064917272,
				"z": -3.5397727106,
				"element": "H" 
			},
			{
				"x": -0.4620013073,
				"y": -0.4889171203,
				"z": -5.4885320516,
				"element": "H" 
			},
			{
				"x": 0.6617253978,
				"y": 0.2667522857,
				"z": -3.4256131707,
				"element": "H" 
			}
		],
		 "valence_orbital": [ 
			{
				"type": "occ",
				"energy": -0.27779,
				"method": "rhf"
			},
			{
				"type": "occ",
				"energy": -0.26542,
				"method": "rhf"
			},
			{
				"type": "occ",
				"energy": -0.25554,
				"method": "rhf"
			},
			{
				"type": "occ",
				"energy": -0.2232,
				"method": "rhf"
			},
			{
				"type": "occ",
				"energy": -0.2063,
				"method": "rhf"
			},
			{
				"type": "unocc",
				"energy": -0.05171,
				"method": "rhf"
			},
			{
				"type": "unocc",
				"energy": -0.01399,
				"method": "rhf"
			},
			{
				"type": "unocc",
				"energy": 0.00659,
				"method": "rhf"
			},
			{
				"type": "unocc",
				"energy": 0.02458,
				"method": "rhf"
			},
			{
				"type": "unocc",
				"energy": 0.06677,
				"method": "rhf"
			}
		],
		"cosmo_sigma_profile": { 
			"-0.025": 0.0,
			"-0.024": 0.0,
			"-0.023": 0.0,
			"-0.022": 0.0,
			"-0.021": 0.0,
			"-0.02": 0.0,
			"-0.019": 0.0,
			"-0.018": 0.0,
			"-0.017": 0.0,
			"-0.016": 0.221188099262,
			"-0.015": 1.24629168714,
			"-0.014": 1.21124030392,
			"-0.013": 1.39815059402,
			"-0.012": 1.59930052644,
			"-0.011": 1.2048520349,
			"-0.01": 1.66691273525,
			"-0.009": 1.40832094201,
			"-0.008": 2.21823357011,
			"-0.007": 5.31516871098,
			"-0.006": 13.3659179589,
			"-0.005": 16.9497427404,
			"-0.004": 16.5667278146,
			"-0.003": 16.3266468561,
			"-0.002": 13.7539550457,
			"-0.001": 11.4223366395,
			"0.0": 12.2927261091,
			"0.001": 14.7578671256,
			"0.002": 24.4023074165,
			"0.003": 18.3156906778,
			"0.004": 15.8395659128,
			"0.005": 15.2878474752,
			"0.006": 13.0835145985,
			"0.007": 4.86833099248,
			"0.008": 1.43091889989,
			"0.009": 1.54203637522,
			"0.01": 1.15322655167,
			"0.011": 0.92670257535,
			"0.012": 0.995809235848,
			"0.013": 0.684027628442,
			"0.014": 1.01992947837,
			"0.015": 0.955889589887,
			"0.016": 0.776549571576,
			"0.017": 0.582584204757,
			"0.018": 0.0,
			"0.019": 0.0,
			"0.02": 0.0,
			"0.021": 0.0,
			"0.022": 0.0,
			"0.023": 0.0,
			"0.024": 0.0,
			"0.025": 0.0
		}
	}
}
