{
	 "smiles": "OC1=CC=C(SC2=CC=C(O)C=C2)C=C1", 
	 "Tm": 427.15, 
	 "num_atms": 25, 
	 "gaussian": { 
		 "optdone": 1, 
		 "sigma_profile": "yes", 
		 "theory": "DFT", 
		 "functional": "B3LYP", 
		 "basiset": "6-31G**", 
		 "properties": { 
			 "R2extent": 5374.9417, 
			 "electric_dipole_moment_norm": 0.59109719167, 
			 "electric_quadrupole_moment_norm": 23.1492246635, 
			 "total_energy": -1011.92651495, 
			 "HOMO_LUMO_gap": 0.18528, 
			 "cosmo_polarized_energy": -15.43, 
			 "cosmo_cavitation_energy": 31.46, 
			 "cosmo_dispersion_energy": -23.0, 
			 "cosmo_repulsion_energy": 1.77, 
			 "cosmo_total_nonelectrostatic_energy": 10.22, 
			 "SMD_solvation_energy": 5.53 
		},
		"coords": [
			{
				"x": -0.6028492994,
				"y": 4.2676323146,
				"z": 1.5337591407,
				"element": "O" 
			},
			{
				"x": 0.0769813998,
				"y": 3.083795987,
				"z": 1.5007248675,
				"element": "C" 
			},
			{
				"x": -0.0197081386,
				"y": 2.1247502835,
				"z": 2.5126564707,
				"element": "C" 
			},
			{
				"x": 0.692504142,
				"y": 0.9285328927,
				"z": 2.4100694004,
				"element": "C" 
			},
			{
				"x": 1.5233873416,
				"y": 0.6864288827,
				"z": 1.3113729617,
				"element": "C" 
			},
			{
				"x": 2.4974615544,
				"y": -0.8199599851,
				"z": 1.2750305052,
				"element": "S" 
			},
			{
				"x": 2.1302581843,
				"y": -1.4982087167,
				"z": -0.3450856449,
				"element": "C" 
			},
			{
				"x": 3.189479554,
				"y": -1.8875005842,
				"z": -1.1712859999,
				"element": "C" 
			},
			{
				"x": 2.9432742873,
				"y": -2.4922431145,
				"z": -2.4051376084,
				"element": "C" 
			},
			{
				"x": 1.6284947562,
				"y": -2.6930294852,
				"z": -2.8342614119,
				"element": "C" 
			},
			{
				"x": 1.3196588742,
				"y": -3.2661274451,
				"z": -4.0346751923,
				"element": "O" 
			},
			{
				"x": 0.5613124478,
				"y": -2.2961013348,
				"z": -2.0171789515,
				"element": "C" 
			},
			{
				"x": 0.8132194616,
				"y": -1.717152193,
				"z": -0.7793831801,
				"element": "C" 
			},
			{
				"x": 1.624280826,
				"y": 1.6623404869,
				"z": 0.3070718252,
				"element": "C" 
			},
			{
				"x": 0.8990054543,
				"y": 2.8445690534,
				"z": 0.3911623624,
				"element": "C" 
			},
			{
				"x": -1.1236883444,
				"y": 4.3119381577,
				"z": 2.3460913497,
				"element": "H" 
			},
			{
				"x": -0.6610427444,
				"y": 2.3022195001,
				"z": 3.3736456178,
				"element": "H" 
			},
			{
				"x": 0.5988993781,
				"y": 0.1782931696,
				"z": 3.189074437,
				"element": "H" 
			},
			{
				"x": 4.2124397503,
				"y": -1.715648043,
				"z": -0.8511226149,
				"element": "H" 
			},
			{
				"x": 3.7760338995,
				"y": -2.7927278223,
				"z": -3.0378545499,
				"element": "H" 
			},
			{
				"x": 2.1365568722,
				"y": -3.4976801896,
				"z": -4.4952988797,
				"element": "H" 
			},
			{
				"x": -0.4534622409,
				"y": -2.4620340695,
				"z": -2.3637922663,
				"element": "H" 
			},
			{
				"x": -0.016929826,
				"y": -1.4239750274,
				"z": -0.1446652576,
				"element": "H" 
			},
			{
				"x": 2.2698762543,
				"y": 1.4879477811,
				"z": -0.5477782791,
				"element": "H" 
			},
			{
				"x": 0.9653561557,
				"y": 3.600839501,
				"z": -0.3841391017,
				"element": "H" 
			}
		],
		 "valence_orbital": [ 
			{
				"type": "occ",
				"energy": -0.25851,
				"method": "rhf"
			},
			{
				"type": "occ",
				"energy": -0.25769,
				"method": "rhf"
			},
			{
				"type": "occ",
				"energy": -0.25458,
				"method": "rhf"
			},
			{
				"type": "occ",
				"energy": -0.22867,
				"method": "rhf"
			},
			{
				"type": "occ",
				"energy": -0.19675,
				"method": "rhf"
			},
			{
				"type": "unocc",
				"energy": -0.01147,
				"method": "rhf"
			},
			{
				"type": "unocc",
				"energy": -0.00583,
				"method": "rhf"
			},
			{
				"type": "unocc",
				"energy": -0.00364,
				"method": "rhf"
			},
			{
				"type": "unocc",
				"energy": 0.00566,
				"method": "rhf"
			},
			{
				"type": "unocc",
				"energy": 0.06211,
				"method": "rhf"
			}
		],
		"cosmo_sigma_profile": { 
			"-0.025": 0.0,
			"-0.024": 0.0,
			"-0.023": 0.0,
			"-0.022": 0.0,
			"-0.021": 0.0,
			"-0.02": 0.0,
			"-0.019": 0.0,
			"-0.018": 0.943091700354,
			"-0.017": 2.656892208,
			"-0.016": 1.79409288102,
			"-0.015": 2.46039337909,
			"-0.014": 1.93271255544,
			"-0.013": 2.13877375161,
			"-0.012": 1.76506051667,
			"-0.011": 1.74264963115,
			"-0.01": 1.82404741159,
			"-0.009": 2.9643845895,
			"-0.008": 2.48642474299,
			"-0.007": 3.76055543989,
			"-0.006": 12.1466049424,
			"-0.005": 13.7337313688,
			"-0.004": 14.7645012542,
			"-0.003": 11.3734407208,
			"-0.002": 11.1872471877,
			"-0.001": 12.77919649,
			"0.0": 14.8074710356,
			"0.001": 14.499199051,
			"0.002": 18.8803718314,
			"0.003": 25.3098237467,
			"0.004": 27.960718518,
			"0.005": 20.915222407,
			"0.006": 5.87949228537,
			"0.007": 5.86632980227,
			"0.008": 5.28765043673,
			"0.009": 3.51857219751,
			"0.01": 3.38330459999,
			"0.011": 3.93231099133,
			"0.012": 0.601609284921,
			"0.013": 0.0,
			"0.014": 0.0,
			"0.015": 0.0,
			"0.016": 0.0,
			"0.017": 0.0,
			"0.018": 0.0,
			"0.019": 0.0,
			"0.02": 0.0,
			"0.021": 0.0,
			"0.022": 0.0,
			"0.023": 0.0,
			"0.024": 0.0,
			"0.025": 0.0
		}
	}
}
