{
	 "smiles": "CC(=O)NC1=NC=C(Cl)S1", 
	 "Tm": 483.15, 
	 "num_atms": 15, 
	 "gaussian": { 
		 "optdone": 1, 
		 "sigma_profile": "yes", 
		 "theory": "DFT", 
		 "functional": "B3LYP", 
		 "basiset": "6-31G**", 
		 "properties": { 
			 "R2extent": 2479.7284, 
			 "electric_dipole_moment_norm": 1.87738748797, 
			 "electric_quadrupole_moment_norm": 10.2557267227, 
			 "total_energy": -1236.64483781, 
			 "HOMO_LUMO_gap": 0.18577, 
			 "cosmo_polarized_energy": -9.9, 
			 "cosmo_cavitation_energy": 23.04, 
			 "cosmo_dispersion_energy": -17.88, 
			 "cosmo_repulsion_energy": 1.41, 
			 "cosmo_total_nonelectrostatic_energy": 6.57, 
			 "SMD_solvation_energy": 3.13 
		},
		"coords": [
			{
				"x": -0.3711726572,
				"y": -3.2374832313,
				"z": 1.3188791331,
				"element": "C" 
			},
			{
				"x": 1.0053309498,
				"y": -2.6422368615,
				"z": 1.5087026838,
				"element": "C" 
			},
			{
				"x": 1.9170281115,
				"y": -3.2387325184,
				"z": 2.0539249694,
				"element": "O" 
			},
			{
				"x": 1.2456662958,
				"y": -1.3497545388,
				"z": 1.0384818403,
				"element": "N" 
			},
			{
				"x": 0.4899265104,
				"y": -0.3902931697,
				"z": 0.3895862163,
				"element": "C" 
			},
			{
				"x": 1.0275893977,
				"y": 0.7572508351,
				"z": 0.0763822073,
				"element": "N" 
			},
			{
				"x": 0.1271942424,
				"y": 1.5766196883,
				"z": -0.5596638037,
				"element": "C" 
			},
			{
				"x": -1.1173036887,
				"y": 1.0577278737,
				"z": -0.7396107663,
				"element": "C" 
			},
			{
				"x": -2.4868140295,
				"y": 1.7921761564,
				"z": -1.4903739391,
				"element": "Cl" 
			},
			{
				"x": -1.2052960666,
				"y": -0.5676150901,
				"z": -0.0797076852,
				"element": "S" 
			},
			{
				"x": -0.6362178083,
				"y": -3.3054467886,
				"z": 0.2586377204,
				"element": "H" 
			},
			{
				"x": -1.1388474053,
				"y": -2.6423884109,
				"z": 1.8243660325,
				"element": "H" 
			},
			{
				"x": -0.3565857,
				"y": -4.239030336,
				"z": 1.7476896427,
				"element": "H" 
			},
			{
				"x": 2.1965430396,
				"y": -1.0385302263,
				"z": 1.2119598301,
				"element": "H" 
			},
			{
				"x": 0.4328588083,
				"y": 2.5649366183,
				"z": -0.8799540817,
				"element": "H" 
			}
		],
		 "valence_orbital": [ 
			{
				"type": "occ",
				"energy": -0.31537,
				"method": "rhf"
			},
			{
				"type": "occ",
				"energy": -0.30033,
				"method": "rhf"
			},
			{
				"type": "occ",
				"energy": -0.29887,
				"method": "rhf"
			},
			{
				"type": "occ",
				"energy": -0.27434,
				"method": "rhf"
			},
			{
				"type": "occ",
				"energy": -0.2309,
				"method": "rhf"
			},
			{
				"type": "unocc",
				"energy": -0.04513,
				"method": "rhf"
			},
			{
				"type": "unocc",
				"energy": -0.01167,
				"method": "rhf"
			},
			{
				"type": "unocc",
				"energy": 0.00714,
				"method": "rhf"
			},
			{
				"type": "unocc",
				"energy": 0.00913,
				"method": "rhf"
			},
			{
				"type": "unocc",
				"energy": 0.04774,
				"method": "rhf"
			}
		],
		"cosmo_sigma_profile": { 
			"-0.025": 0.0,
			"-0.024": 0.0,
			"-0.023": 0.0,
			"-0.022": 0.0,
			"-0.021": 0.0,
			"-0.02": 0.0,
			"-0.019": 0.0,
			"-0.018": 0.0,
			"-0.017": 0.0,
			"-0.016": 0.0,
			"-0.015": 0.34256129168,
			"-0.014": 1.15706945364,
			"-0.013": 0.83709752691,
			"-0.012": 0.0858464323095,
			"-0.011": 0.618437371475,
			"-0.01": 0.955776961622,
			"-0.009": 2.03375541693,
			"-0.008": 4.28981197336,
			"-0.007": 6.9554499838,
			"-0.006": 8.17676365177,
			"-0.005": 8.12304525495,
			"-0.004": 11.7857677097,
			"-0.003": 14.5875408358,
			"-0.002": 16.5540936061,
			"-0.001": 18.7441191954,
			"0.0": 15.4730318828,
			"0.001": 16.1610716591,
			"0.002": 16.7183309238,
			"0.003": 11.9586746279,
			"0.004": 4.97685770698,
			"0.005": 2.74799075953,
			"0.006": 2.72502744134,
			"0.007": 2.1206404189,
			"0.008": 2.39527568704,
			"0.009": 2.55464872691,
			"0.01": 2.44746166945,
			"0.011": 3.62505952771,
			"0.012": 6.35193675277,
			"0.013": 3.20055297846,
			"0.014": 0.322526377883,
			"0.015": 0.0,
			"0.016": 0.0,
			"0.017": 0.0,
			"0.018": 0.0,
			"0.019": 0.0,
			"0.02": 0.0,
			"0.021": 0.0,
			"0.022": 0.0,
			"0.023": 0.0,
			"0.024": 0.0,
			"0.025": 0.0
		}
	}
}
