{
	 "smiles": "NCCCCCCC(O)=O", 
	 "Tm": 468.15, 
	 "num_atms": 25, 
	 "gaussian": { 
		 "optdone": 1, 
		 "sigma_profile": "yes", 
		 "theory": "DFT", 
		 "functional": "B3LYP", 
		 "basiset": "6-31G**", 
		 "properties": { 
			 "R2extent": 3020.861, 
			 "electric_dipole_moment_norm": 3.49265221572, 
			 "electric_quadrupole_moment_norm": 29.376171889, 
			 "total_energy": -480.995046067, 
			 "HOMO_LUMO_gap": 0.24735, 
			 "cosmo_polarized_energy": -17.65, 
			 "cosmo_cavitation_energy": 27.46, 
			 "cosmo_dispersion_energy": -19.49, 
			 "cosmo_repulsion_energy": 1.65, 
			 "cosmo_total_nonelectrostatic_energy": 9.62, 
			 "SMD_solvation_energy": 3.92 
		},
		"coords": [
			{
				"x": -1.2633029257,
				"y": 3.3775719523,
				"z": -1.0130843469,
				"element": "N" 
			},
			{
				"x": -1.668448458,
				"y": 2.0285773681,
				"z": -0.6157343694,
				"element": "C" 
			},
			{
				"x": -0.5323673287,
				"y": 1.0425933777,
				"z": -0.2886923207,
				"element": "C" 
			},
			{
				"x": -1.0493502019,
				"y": -0.3484139338,
				"z": 0.1067040317,
				"element": "C" 
			},
			{
				"x": -0.0108570069,
				"y": -1.3497501397,
				"z": 0.6444584607,
				"element": "C" 
			},
			{
				"x": 1.0680280688,
				"y": -1.8303350292,
				"z": -0.3494464383,
				"element": "C" 
			},
			{
				"x": 2.3200948065,
				"y": -0.9316389696,
				"z": -0.4267877692,
				"element": "C" 
			},
			{
				"x": 3.4350010095,
				"y": -1.4896760368,
				"z": -1.3025526978,
				"element": "C" 
			},
			{
				"x": 3.0860274739,
				"y": -1.7940332078,
				"z": -2.5853057671,
				"element": "O" 
			},
			{
				"x": 4.5696487226,
				"y": -1.6603752993,
				"z": -0.9347533544,
				"element": "O" 
			},
			{
				"x": -0.6980861216,
				"y": 3.7999993001,
				"z": -0.2795036698,
				"element": "H" 
			},
			{
				"x": -0.6684493392,
				"y": 3.3337894842,
				"z": -1.8378412584,
				"element": "H" 
			},
			{
				"x": -2.2887383507,
				"y": 1.6133805801,
				"z": -1.4209447731,
				"element": "H" 
			},
			{
				"x": -2.3280805912,
				"y": 2.1193686565,
				"z": 0.2571091039,
				"element": "H" 
			},
			{
				"x": 0.0779228752,
				"y": 1.4578710552,
				"z": 0.5267232466,
				"element": "H" 
			},
			{
				"x": 0.1271581832,
				"y": 0.9735079315,
				"z": -1.1649086319,
				"element": "H" 
			},
			{
				"x": -1.5658177554,
				"y": -0.7983513726,
				"z": -0.7534399076,
				"element": "H" 
			},
			{
				"x": -1.8190151095,
				"y": -0.2215522355,
				"z": 0.8803577749,
				"element": "H" 
			},
			{
				"x": -0.5599783425,
				"y": -2.2321524403,
				"z": 0.99446834,
				"element": "H" 
			},
			{
				"x": 0.4788784344,
				"y": -0.9314306865,
				"z": 1.5343987083,
				"element": "H" 
			},
			{
				"x": 1.3953523648,
				"y": -2.8348854184,
				"z": -0.0568815576,
				"element": "H" 
			},
			{
				"x": 0.6060583069,
				"y": -1.9442828428,
				"z": -1.3417656457,
				"element": "H" 
			},
			{
				"x": 2.0590968272,
				"y": 0.0653356489,
				"z": -0.8018417753,
				"element": "H" 
			},
			{
				"x": 2.7487271455,
				"y": -0.7989899447,
				"z": 0.5691710447,
				"element": "H" 
			},
			{
				"x": 2.1485973128,
				"y": -1.6042277975,
				"z": -2.7305064275,
				"element": "H" 
			}
		],
		 "valence_orbital": [ 
			{
				"type": "occ",
				"energy": -0.33972,
				"method": "rhf"
			},
			{
				"type": "occ",
				"energy": -0.3358,
				"method": "rhf"
			},
			{
				"type": "occ",
				"energy": -0.31246,
				"method": "rhf"
			},
			{
				"type": "occ",
				"energy": -0.26519,
				"method": "rhf"
			},
			{
				"type": "occ",
				"energy": -0.23699,
				"method": "rhf"
			},
			{
				"type": "unocc",
				"energy": 0.01036,
				"method": "rhf"
			},
			{
				"type": "unocc",
				"energy": 0.04178,
				"method": "rhf"
			},
			{
				"type": "unocc",
				"energy": 0.07466,
				"method": "rhf"
			},
			{
				"type": "unocc",
				"energy": 0.08093,
				"method": "rhf"
			},
			{
				"type": "unocc",
				"energy": 0.10094,
				"method": "rhf"
			}
		],
		"cosmo_sigma_profile": { 
			"-0.025": 0.0,
			"-0.024": 0.0,
			"-0.023": 0.0,
			"-0.022": 0.0,
			"-0.021": 0.0,
			"-0.02": 0.0,
			"-0.019": 0.0,
			"-0.018": 0.19417584883,
			"-0.017": 1.24853934751,
			"-0.016": 0.628384116877,
			"-0.015": 1.09724188035,
			"-0.014": 1.27309156884,
			"-0.013": 0.724533927404,
			"-0.012": 0.755368307271,
			"-0.011": 1.44272378962,
			"-0.01": 1.4273559755,
			"-0.009": 2.63893701259,
			"-0.008": 3.58846901223,
			"-0.007": 5.13696414526,
			"-0.006": 6.56299422223,
			"-0.005": 7.52824864685,
			"-0.004": 12.7778840653,
			"-0.003": 19.0666148857,
			"-0.002": 34.2466108184,
			"-0.001": 30.3482481617,
			"0.0": 18.8281441982,
			"0.001": 9.28506253306,
			"0.002": 3.27227628884,
			"0.003": 3.56673416947,
			"0.004": 3.14011679879,
			"0.005": 3.01439399484,
			"0.006": 3.06309063876,
			"0.007": 2.77929172484,
			"0.008": 3.02966404454,
			"0.009": 3.38065950056,
			"0.01": 5.15324489911,
			"0.011": 6.70159111883,
			"0.012": 6.5417181058,
			"0.013": 4.14840737921,
			"0.014": 1.4353994385,
			"0.015": 0.318683244208,
			"0.016": 0.488323576012,
			"0.017": 0.883127601998,
			"0.018": 0.673215376925,
			"0.019": 0.703298650194,
			"0.02": 0.419341796961,
			"0.021": 0.112831002867,
			"0.022": 0.0,
			"0.023": 0.0,
			"0.024": 0.0,
			"0.025": 0.0
		}
	}
}
