{
	 "smiles": "CC1=C(C=CC2=NC3=C(C=C(Br)C=C3)C(=C2)C(O)=O)C=CC=C1", 
	 "Tm": 563.15, 
	 "num_atms": 37, 
	 "gaussian": { 
		 "optdone": 1, 
		 "sigma_profile": "yes", 
		 "theory": "DFT", 
		 "functional": "B3LYP", 
		 "basiset": "6-31G**", 
		 "properties": { 
			 "R2extent": 12776.7644, 
			 "electric_dipole_moment_norm": 1.16155508264, 
			 "electric_quadrupole_moment_norm": 8.40611141551, 
			 "total_energy": -3509.0749014, 
			 "HOMO_LUMO_gap": 0.13848, 
			 "cosmo_polarized_energy": -12.39, 
			 "cosmo_cavitation_energy": 43.61, 
			 "cosmo_dispersion_energy": -30.45, 
			 "cosmo_repulsion_energy": 2.32, 
			 "cosmo_total_nonelectrostatic_energy": 15.47, 
			 "SMD_solvation_energy": 5.68 
		},
		"coords": [
			{
				"x": -2.9921124519,
				"y": -0.9090076901,
				"z": 0.5242546951,
				"element": "C" 
			},
			{
				"x": -2.8708159266,
				"y": -0.6137053419,
				"z": -0.9531811288,
				"element": "C" 
			},
			{
				"x": -2.045509175,
				"y": -1.3735226212,
				"z": -1.8156205699,
				"element": "C" 
			},
			{
				"x": -1.2575275998,
				"y": -2.547022336,
				"z": -1.3609115589,
				"element": "C" 
			},
			{
				"x": -0.2680636352,
				"y": -2.6394255075,
				"z": -0.4512701395,
				"element": "C" 
			},
			{
				"x": 0.415626958,
				"y": -1.5954495443,
				"z": 0.3288898348,
				"element": "C" 
			},
			{
				"x": 1.1086405593,
				"y": -2.0365033106,
				"z": 1.3733354237,
				"element": "N" 
			},
			{
				"x": 1.7938152825,
				"y": -1.1468817988,
				"z": 2.1363310111,
				"element": "C" 
			},
			{
				"x": 1.8284369505,
				"y": 0.2676958738,
				"z": 1.8799826355,
				"element": "C" 
			},
			{
				"x": 2.5922121844,
				"y": 1.0911285683,
				"z": 2.7500932501,
				"element": "C" 
			},
			{
				"x": 3.2699495429,
				"y": 0.5291507185,
				"z": 3.8082578555,
				"element": "C" 
			},
			{
				"x": 4.2912544693,
				"y": 1.6538564418,
				"z": 4.9675558042,
				"element": "Br" 
			},
			{
				"x": 3.2414439611,
				"y": -0.8580069123,
				"z": 4.0733646951,
				"element": "C" 
			},
			{
				"x": 2.5132943928,
				"y": -1.6746169343,
				"z": 3.2435728154,
				"element": "C" 
			},
			{
				"x": 1.0934994168,
				"y": 0.711728892,
				"z": 0.7276129214,
				"element": "C" 
			},
			{
				"x": 0.4102259195,
				"y": -0.2180417577,
				"z": -0.0287226884,
				"element": "C" 
			},
			{
				"x": 0.9962165814,
				"y": 2.1197341044,
				"z": 0.2167323729,
				"element": "C" 
			},
			{
				"x": 1.413471748,
				"y": 3.0730618794,
				"z": 1.0831369683,
				"element": "O" 
			},
			{
				"x": 0.5586616833,
				"y": 2.4096066219,
				"z": -0.8776692831,
				"element": "O" 
			},
			{
				"x": -2.0261173591,
				"y": -1.0712558284,
				"z": -3.1893802563,
				"element": "C" 
			},
			{
				"x": -2.7624935655,
				"y": -0.0120255065,
				"z": -3.7113684546,
				"element": "C" 
			},
			{
				"x": -3.5608166367,
				"y": 0.7518912088,
				"z": -2.8592370507,
				"element": "C" 
			},
			{
				"x": -3.6146585355,
				"y": 0.4404354234,
				"z": -1.5023783018,
				"element": "C" 
			},
			{
				"x": -3.9461892019,
				"y": -0.5410905509,
				"z": 0.9122411306,
				"element": "H" 
			},
			{
				"x": -2.92419558,
				"y": -1.9796742859,
				"z": 0.7328971072,
				"element": "H" 
			},
			{
				"x": -2.1968275417,
				"y": -0.4208177492,
				"z": 1.1001250273,
				"element": "H" 
			},
			{
				"x": -1.5213889292,
				"y": -3.4803899023,
				"z": -1.8600118663,
				"element": "H" 
			},
			{
				"x": 0.1253085109,
				"y": -3.6300307933,
				"z": -0.2357018442,
				"element": "H" 
			},
			{
				"x": 2.6392469927,
				"y": 2.1559670268,
				"z": 2.583665687,
				"element": "H" 
			},
			{
				"x": 3.7893943978,
				"y": -1.2594283816,
				"z": 4.9179251783,
				"element": "H" 
			},
			{
				"x": 2.4622397371,
				"y": -2.7462363844,
				"z": 3.403459702,
				"element": "H" 
			},
			{
				"x": -0.120885651,
				"y": 0.1192441173,
				"z": -0.9092811868,
				"element": "H" 
			},
			{
				"x": 1.2858778672,
				"y": 3.9191945724,
				"z": 0.6215123938,
				"element": "H" 
			},
			{
				"x": -1.4090554039,
				"y": -1.6760412153,
				"z": -3.848979038,
				"element": "H" 
			},
			{
				"x": -2.7178012748,
				"y": 0.2107925697,
				"z": -4.7733029125,
				"element": "H" 
			},
			{
				"x": -4.1483365835,
				"y": 1.5775879689,
				"z": -3.2501857964,
				"element": "H" 
			},
			{
				"x": -4.2557221041,
				"y": 1.0229983649,
				"z": -0.8452444332,
				"element": "H" 
			}
		],
		 "valence_orbital": [ 
			{
				"type": "occ",
				"energy": -0.26755,
				"method": "rhf"
			},
			{
				"type": "occ",
				"energy": -0.25624,
				"method": "rhf"
			},
			{
				"type": "occ",
				"energy": -0.24611,
				"method": "rhf"
			},
			{
				"type": "occ",
				"energy": -0.24188,
				"method": "rhf"
			},
			{
				"type": "occ",
				"energy": -0.22456,
				"method": "rhf"
			},
			{
				"type": "unocc",
				"energy": -0.08608,
				"method": "rhf"
			},
			{
				"type": "unocc",
				"energy": -0.04848,
				"method": "rhf"
			},
			{
				"type": "unocc",
				"energy": -0.01722,
				"method": "rhf"
			},
			{
				"type": "unocc",
				"energy": -0.00866,
				"method": "rhf"
			},
			{
				"type": "unocc",
				"energy": -0.00078,
				"method": "rhf"
			}
		],
		"cosmo_sigma_profile": { 
			"-0.025": 0.0,
			"-0.024": 0.0,
			"-0.023": 0.0,
			"-0.022": 0.0,
			"-0.021": 0.0,
			"-0.02": 0.0,
			"-0.019": 0.382919973086,
			"-0.018": 0.856340575693,
			"-0.017": 0.87679100262,
			"-0.016": 1.09891254269,
			"-0.015": 0.418083584907,
			"-0.014": 0.751004793802,
			"-0.013": 0.745494322498,
			"-0.012": 1.12128011558,
			"-0.011": 0.667683584365,
			"-0.01": 0.307960273046,
			"-0.009": 0.308617623841,
			"-0.008": 2.00954085901,
			"-0.007": 4.15485510905,
			"-0.006": 9.33626807395,
			"-0.005": 18.1185175933,
			"-0.004": 24.4121584247,
			"-0.003": 27.8875638746,
			"-0.002": 29.6403194642,
			"-0.001": 29.8576902841,
			"0.0": 40.540159087,
			"0.001": 41.7146630395,
			"0.002": 31.4617491496,
			"0.003": 22.7330240784,
			"0.004": 23.929219178,
			"0.005": 13.3734857695,
			"0.006": 7.4688423486,
			"0.007": 3.04496205103,
			"0.008": 2.28246657218,
			"0.009": 2.61019549891,
			"0.01": 3.48232886391,
			"0.011": 5.23430833868,
			"0.012": 1.53725822628,
			"0.013": 0.840440862039,
			"0.014": 0.108678660264,
			"0.015": 0.0,
			"0.016": 0.0,
			"0.017": 0.0,
			"0.018": 0.0,
			"0.019": 0.0,
			"0.02": 0.0,
			"0.021": 0.0,
			"0.022": 0.0,
			"0.023": 0.0,
			"0.024": 0.0,
			"0.025": 0.0
		}
	}
}
