{
	 "smiles": "CNC(=O)ON=CC(C)(C)S(C)(=O)=O", 
	 "Tm": 414.15, 
	 "num_atms": 28, 
	 "gaussian": { 
		 "optdone": 1, 
		 "sigma_profile": "yes", 
		 "theory": "DFT", 
		 "functional": "B3LYP", 
		 "basiset": "6-31G**", 
		 "properties": { 
			 "R2extent": 4830.7134, 
			 "electric_dipole_moment_norm": 7.89109719494, 
			 "electric_quadrupole_moment_norm": 17.5005736637, 
			 "total_energy": -1083.67047086, 
			 "HOMO_LUMO_gap": 0.21242, 
			 "cosmo_polarized_energy": -24.11, 
			 "cosmo_cavitation_energy": 33.0, 
			 "cosmo_dispersion_energy": -23.48, 
			 "cosmo_repulsion_energy": 1.83, 
			 "cosmo_total_nonelectrostatic_energy": 11.36, 
			 "SMD_solvation_energy": 6.81 
		},
		"coords": [
			{
				"x": -2.0254689372,
				"y": 3.080936927,
				"z": 2.1252425578,
				"element": "C" 
			},
			{
				"x": -0.9342112301,
				"y": 2.2137830733,
				"z": 1.7222268043,
				"element": "N" 
			},
			{
				"x": 0.0768211055,
				"y": 1.9145150503,
				"z": 2.5692576553,
				"element": "C" 
			},
			{
				"x": 0.2335430586,
				"y": 2.315166913,
				"z": 3.7003249554,
				"element": "O" 
			},
			{
				"x": 1.0471023963,
				"y": 1.0401582836,
				"z": 2.0655419994,
				"element": "O" 
			},
			{
				"x": 0.8458714507,
				"y": 0.6373034632,
				"z": 0.7354632634,
				"element": "N" 
			},
			{
				"x": 1.7439306544,
				"y": -0.1951468155,
				"z": 0.3819104923,
				"element": "C" 
			},
			{
				"x": 1.7713081553,
				"y": -0.7257015943,
				"z": -1.032491835,
				"element": "C" 
			},
			{
				"x": 0.6114434692,
				"y": -0.2204173126,
				"z": -1.892770875,
				"element": "C" 
			},
			{
				"x": 3.1482472911,
				"y": -0.4190120617,
				"z": -1.6493156533,
				"element": "C" 
			},
			{
				"x": 1.6108289188,
				"y": -2.5861373526,
				"z": -0.7947801188,
				"element": "S" 
			},
			{
				"x": 1.8014763334,
				"y": -3.3238961806,
				"z": -2.4392130925,
				"element": "C" 
			},
			{
				"x": 0.2361414044,
				"y": -2.8605156993,
				"z": -0.3483118352,
				"element": "O" 
			},
			{
				"x": 2.7654978332,
				"y": -3.0152059204,
				"z": 0.0137760847,
				"element": "O" 
			},
			{
				"x": -2.976895443,
				"y": 2.5376163917,
				"z": 2.1503996487,
				"element": "H" 
			},
			{
				"x": -2.1232909941,
				"y": 3.9311917581,
				"z": 1.4414735372,
				"element": "H" 
			},
			{
				"x": -1.8063411641,
				"y": 3.4539960553,
				"z": 3.1259449154,
				"element": "H" 
			},
			{
				"x": -0.9246486874,
				"y": 1.7735793166,
				"z": 0.8146261904,
				"element": "H" 
			},
			{
				"x": 2.5196801469,
				"y": -0.5240950827,
				"z": 1.0742947009,
				"element": "H" 
			},
			{
				"x": 0.6453822712,
				"y": 0.8713210466,
				"z": -1.9398634938,
				"element": "H" 
			},
			{
				"x": 0.6888494033,
				"y": -0.6025898011,
				"z": -2.9146154027,
				"element": "H" 
			},
			{
				"x": -0.3496137967,
				"y": -0.5188409164,
				"z": -1.471465578,
				"element": "H" 
			},
			{
				"x": 3.291936345,
				"y": 0.6654076722,
				"z": -1.6801714417,
				"element": "H" 
			},
			{
				"x": 3.9551702727,
				"y": -0.8601667112,
				"z": -1.0596190019,
				"element": "H" 
			},
			{
				"x": 3.2162687427,
				"y": -0.7907711198,
				"z": -2.6757871951,
				"element": "H" 
			},
			{
				"x": 2.7937258197,
				"y": -3.110730358,
				"z": -2.8360760975,
				"element": "H" 
			},
			{
				"x": 1.6902228856,
				"y": -4.3970440593,
				"z": -2.2712006981,
				"element": "H" 
			},
			{
				"x": 1.0138222947,
				"y": -2.9687049654,
				"z": -3.1038004868,
				"element": "H" 
			}
		],
		 "valence_orbital": [ 
			{
				"type": "occ",
				"energy": -0.30368,
				"method": "rhf"
			},
			{
				"type": "occ",
				"energy": -0.295,
				"method": "rhf"
			},
			{
				"type": "occ",
				"energy": -0.27652,
				"method": "rhf"
			},
			{
				"type": "occ",
				"energy": -0.27383,
				"method": "rhf"
			},
			{
				"type": "occ",
				"energy": -0.25601,
				"method": "rhf"
			},
			{
				"type": "unocc",
				"energy": -0.04359,
				"method": "rhf"
			},
			{
				"type": "unocc",
				"energy": 0.04663,
				"method": "rhf"
			},
			{
				"type": "unocc",
				"energy": 0.05495,
				"method": "rhf"
			},
			{
				"type": "unocc",
				"energy": 0.06111,
				"method": "rhf"
			},
			{
				"type": "unocc",
				"energy": 0.06341,
				"method": "rhf"
			}
		],
		"cosmo_sigma_profile": { 
			"-0.025": 0.0,
			"-0.024": 0.0,
			"-0.023": 0.0,
			"-0.022": 0.0,
			"-0.021": 0.0,
			"-0.02": 0.0,
			"-0.019": 0.0,
			"-0.018": 0.0,
			"-0.017": 0.0,
			"-0.016": 0.0,
			"-0.015": 0.0,
			"-0.014": 0.0,
			"-0.013": 0.0,
			"-0.012": 0.529964514564,
			"-0.011": 0.87390845117,
			"-0.01": 1.04751231019,
			"-0.009": 5.38082929812,
			"-0.008": 11.1071827,
			"-0.007": 9.90239088273,
			"-0.006": 13.9920478015,
			"-0.005": 22.6365400667,
			"-0.004": 23.0149364474,
			"-0.003": 22.2680552142,
			"-0.002": 25.0643576022,
			"-0.001": 19.8257460146,
			"0.0": 13.9115639883,
			"0.001": 9.97772138114,
			"0.002": 7.99898901459,
			"0.003": 6.08506691573,
			"0.004": 5.08488484962,
			"0.005": 4.76854057117,
			"0.006": 4.37115604973,
			"0.007": 4.13024283193,
			"0.008": 5.37927573,
			"0.009": 5.34870701821,
			"0.01": 6.62417269013,
			"0.011": 12.4695602662,
			"0.012": 10.6483476517,
			"0.013": 6.00328771066,
			"0.014": 1.1233424466,
			"0.015": 0.0,
			"0.016": 0.0,
			"0.017": 0.0,
			"0.018": 0.0,
			"0.019": 0.0,
			"0.02": 0.0,
			"0.021": 0.0,
			"0.022": 0.0,
			"0.023": 0.0,
			"0.024": 0.0,
			"0.025": 0.0
		}
	}
}
