{
	 "smiles": "NC1=NC2=C(N1)C=C(F)C(F)=C2", 
	 "Tm": 418.15, 
	 "num_atms": 17, 
	 "gaussian": { 
		 "optdone": 1, 
		 "sigma_profile": "yes", 
		 "theory": "DFT", 
		 "functional": "B3LYP", 
		 "basiset": "6-31G**", 
		 "properties": { 
			 "R2extent": 2971.3464, 
			 "electric_dipole_moment_norm": 5.72641709361, 
			 "electric_quadrupole_moment_norm": 6.41383951156, 
			 "total_energy": -633.687133246, 
			 "HOMO_LUMO_gap": 0.19442, 
			 "cosmo_polarized_energy": -16.75, 
			 "cosmo_cavitation_energy": 22.74, 
			 "cosmo_dispersion_energy": -17.02, 
			 "cosmo_repulsion_energy": 1.31, 
			 "cosmo_total_nonelectrostatic_energy": 7.03, 
			 "SMD_solvation_energy": 2.63 
		},
		"coords": [
			{
				"x": 0.8782577902,
				"y": -2.5429127577,
				"z": 0.2108246999,
				"element": "N" 
			},
			{
				"x": 0.7398036516,
				"y": -1.180702988,
				"z": 0.400462977,
				"element": "C" 
			},
			{
				"x": 1.7188276651,
				"y": -0.3470106427,
				"z": 0.6530080209,
				"element": "N" 
			},
			{
				"x": 1.0930543568,
				"y": 0.876474346,
				"z": 0.8616403389,
				"element": "C" 
			},
			{
				"x": -0.3092795539,
				"y": 0.7530010116,
				"z": 0.7082187426,
				"element": "C" 
			},
			{
				"x": -0.5094396785,
				"y": -0.5881098772,
				"z": 0.3931677877,
				"element": "N" 
			},
			{
				"x": -1.1837410362,
				"y": 1.8269383669,
				"z": 0.8505847395,
				"element": "C" 
			},
			{
				"x": -0.6045807056,
				"y": 3.0512788427,
				"z": 1.1625548238,
				"element": "C" 
			},
			{
				"x": -1.3851322921,
				"y": 4.1384531533,
				"z": 1.3236074626,
				"element": "F" 
			},
			{
				"x": 0.7825272023,
				"y": 3.1948112729,
				"z": 1.3154789241,
				"element": "C" 
			},
			{
				"x": 1.2630833468,
				"y": 4.4188272927,
				"z": 1.6145341344,
				"element": "F" 
			},
			{
				"x": 1.6500508283,
				"y": 2.1226984096,
				"z": 1.1681054614,
				"element": "C" 
			},
			{
				"x": 1.8545737082,
				"y": -2.8006487946,
				"z": 0.1387655005,
				"element": "H" 
			},
			{
				"x": 0.3291526552,
				"y": -2.9308665946,
				"z": -0.5465993413,
				"element": "H" 
			},
			{
				"x": -1.3907724076,
				"y": -1.0771524584,
				"z": 0.3953881564,
				"element": "H" 
			},
			{
				"x": -2.2592097123,
				"y": 1.7515692131,
				"z": 0.7357666412,
				"element": "H" 
			},
			{
				"x": 2.7178241816,
				"y": 2.2600522043,
				"z": 1.2912909303,
				"element": "H" 
			}
		],
		 "valence_orbital": [ 
			{
				"type": "occ",
				"energy": -0.31482,
				"method": "rhf"
			},
			{
				"type": "occ",
				"energy": -0.28901,
				"method": "rhf"
			},
			{
				"type": "occ",
				"energy": -0.27833,
				"method": "rhf"
			},
			{
				"type": "occ",
				"energy": -0.23026,
				"method": "rhf"
			},
			{
				"type": "occ",
				"energy": -0.20514,
				"method": "rhf"
			},
			{
				"type": "unocc",
				"energy": -0.01072,
				"method": "rhf"
			},
			{
				"type": "unocc",
				"energy": 0.02396,
				"method": "rhf"
			},
			{
				"type": "unocc",
				"energy": 0.05462,
				"method": "rhf"
			},
			{
				"type": "unocc",
				"energy": 0.06057,
				"method": "rhf"
			},
			{
				"type": "unocc",
				"energy": 0.08004,
				"method": "rhf"
			}
		],
		"cosmo_sigma_profile": { 
			"-0.025": 0.0,
			"-0.024": 0.0,
			"-0.023": 0.0,
			"-0.022": 0.0,
			"-0.021": 0.0,
			"-0.02": 0.0,
			"-0.019": 0.0,
			"-0.018": 0.0,
			"-0.017": 0.354715266888,
			"-0.016": 1.64158338515,
			"-0.015": 2.44653333717,
			"-0.014": 3.6274604173,
			"-0.013": 3.5784178548,
			"-0.012": 3.6305989629,
			"-0.011": 3.50535140279,
			"-0.01": 3.67202730334,
			"-0.009": 2.9270419647,
			"-0.008": 4.16183257663,
			"-0.007": 5.46766228976,
			"-0.006": 4.99292046316,
			"-0.005": 4.12954890462,
			"-0.004": 3.90942380002,
			"-0.003": 4.48965139922,
			"-0.002": 4.10182525811,
			"-0.001": 5.82971275981,
			"0.0": 9.41293393931,
			"0.001": 15.9318424571,
			"0.002": 18.6266856903,
			"0.003": 19.2489094058,
			"0.004": 25.2427161402,
			"0.005": 12.8669379431,
			"0.006": 2.52307990194,
			"0.007": 2.12924464602,
			"0.008": 1.66214834559,
			"0.009": 1.98091958134,
			"0.01": 1.93041296339,
			"0.011": 1.83727383703,
			"0.012": 1.5630636482,
			"0.013": 0.898880862693,
			"0.014": 1.46063412736,
			"0.015": 0.933679300975,
			"0.016": 0.958947067193,
			"0.017": 0.766393965494,
			"0.018": 0.180887218573,
			"0.019": 0.0,
			"0.02": 0.0,
			"0.021": 0.0,
			"0.022": 0.0,
			"0.023": 0.0,
			"0.024": 0.0,
			"0.025": 0.0
		}
	}
}
