{
	 "smiles": "CN(C)S(=O)(=O)C1=CC(N)=C(C)C(C)=C1", 
	 "Tm": 452.15, 
	 "num_atms": 31, 
	 "gaussian": { 
		 "optdone": 1, 
		 "sigma_profile": "yes", 
		 "theory": "DFT", 
		 "functional": "B3LYP", 
		 "basiset": "6-31G**", 
		 "properties": { 
			 "R2extent": 4434.0682, 
			 "electric_dipole_moment_norm": 5.07542601266, 
			 "electric_quadrupole_moment_norm": 16.1548790305, 
			 "total_energy": -1048.78762094, 
			 "HOMO_LUMO_gap": 0.18825, 
			 "cosmo_polarized_energy": -17.2, 
			 "cosmo_cavitation_energy": 34.19, 
			 "cosmo_dispersion_energy": -24.64, 
			 "cosmo_repulsion_energy": 1.89, 
			 "cosmo_total_nonelectrostatic_energy": 11.44, 
			 "SMD_solvation_energy": 4.5 
		},
		"coords": [
			{
				"x": -2.3437296626,
				"y": -4.3585572169,
				"z": -0.453357462,
				"element": "C" 
			},
			{
				"x": -1.5886690571,
				"y": -3.1343533862,
				"z": -0.7568783078,
				"element": "N" 
			},
			{
				"x": -1.0763605845,
				"y": -3.0879797591,
				"z": -2.1308791157,
				"element": "C" 
			},
			{
				"x": -0.4154940289,
				"y": -2.7396692682,
				"z": 0.4212803894,
				"element": "S" 
			},
			{
				"x": 0.8852885871,
				"y": -3.3444136143,
				"z": 0.0935591033,
				"element": "O" 
			},
			{
				"x": -1.0471585117,
				"y": -3.0069884521,
				"z": 1.719052266,
				"element": "O" 
			},
			{
				"x": -0.2698645318,
				"y": -0.9668925817,
				"z": 0.1959241791,
				"element": "C" 
			},
			{
				"x": -1.3154456684,
				"y": -0.1510402691,
				"z": 0.6140341753,
				"element": "C" 
			},
			{
				"x": -1.1935766452,
				"y": 1.2367606263,
				"z": 0.4746789101,
				"element": "C" 
			},
			{
				"x": -2.2567595106,
				"y": 2.0676476314,
				"z": 0.838150931,
				"element": "N" 
			},
			{
				"x": -0.017668354,
				"y": 1.7949707261,
				"z": -0.0872270369,
				"element": "C" 
			},
			{
				"x": 0.0561108498,
				"y": 3.2953116888,
				"z": -0.239055264,
				"element": "C" 
			},
			{
				"x": 1.03316996,
				"y": 0.9476694477,
				"z": -0.4830784903,
				"element": "C" 
			},
			{
				"x": 2.3162859882,
				"y": 1.4996794572,
				"z": -1.0660668376,
				"element": "C" 
			},
			{
				"x": 0.9021064781,
				"y": -0.4407938476,
				"z": -0.3387016792,
				"element": "C" 
			},
			{
				"x": -3.218137973,
				"y": -4.3803137294,
				"z": -1.1105771349,
				"element": "H" 
			},
			{
				"x": -2.6782258179,
				"y": -4.3296220648,
				"z": 0.5830144025,
				"element": "H" 
			},
			{
				"x": -1.7563896821,
				"y": -5.2737401298,
				"z": -0.6182296865,
				"element": "H" 
			},
			{
				"x": -0.3749932835,
				"y": -3.9042492319,
				"z": -2.3508273871,
				"element": "H" 
			},
			{
				"x": -1.9305471252,
				"y": -3.1544528274,
				"z": -2.8108492992,
				"element": "H" 
			},
			{
				"x": -0.5756734226,
				"y": -2.1336880182,
				"z": -2.3089912669,
				"element": "H" 
			},
			{
				"x": -2.2082893835,
				"y": -0.5866659026,
				"z": 1.0509302737,
				"element": "H" 
			},
			{
				"x": -2.9433265902,
				"y": 1.6313691404,
				"z": 1.4384292991,
				"element": "H" 
			},
			{
				"x": -2.000594526,
				"y": 2.985842474,
				"z": 1.1731036667,
				"element": "H" 
			},
			{
				"x": 0.9243075604,
				"y": 3.6124466949,
				"z": -0.8164773076,
				"element": "H" 
			},
			{
				"x": 0.11876004,
				"y": 3.8000616197,
				"z": 0.736288109,
				"element": "H" 
			},
			{
				"x": -0.8400283102,
				"y": 3.6794809637,
				"z": -0.741003845,
				"element": "H" 
			},
			{
				"x": 2.8129990605,
				"y": 2.1923150848,
				"z": -0.3774238075,
				"element": "H" 
			},
			{
				"x": 2.1399262228,
				"y": 2.0445650564,
				"z": -2.0009091067,
				"element": "H" 
			},
			{
				"x": 3.0182374132,
				"y": 0.691348125,
				"z": -1.2841133508,
				"element": "H" 
			},
			{
				"x": 1.706240509,
				"y": -1.1090484373,
				"z": -0.6247993193,
				"element": "H" 
			}
		],
		 "valence_orbital": [ 
			{
				"type": "occ",
				"energy": -0.29425,
				"method": "rhf"
			},
			{
				"type": "occ",
				"energy": -0.2871,
				"method": "rhf"
			},
			{
				"type": "occ",
				"energy": -0.25458,
				"method": "rhf"
			},
			{
				"type": "occ",
				"energy": -0.23745,
				"method": "rhf"
			},
			{
				"type": "occ",
				"energy": -0.21434,
				"method": "rhf"
			},
			{
				"type": "unocc",
				"energy": -0.02609,
				"method": "rhf"
			},
			{
				"type": "unocc",
				"energy": 0.00557,
				"method": "rhf"
			},
			{
				"type": "unocc",
				"energy": 0.06683,
				"method": "rhf"
			},
			{
				"type": "unocc",
				"energy": 0.07242,
				"method": "rhf"
			},
			{
				"type": "unocc",
				"energy": 0.08574,
				"method": "rhf"
			}
		],
		"cosmo_sigma_profile": { 
			"-0.025": 0.0,
			"-0.024": 0.0,
			"-0.023": 0.0,
			"-0.022": 0.0,
			"-0.021": 0.0,
			"-0.02": 0.0,
			"-0.019": 0.0,
			"-0.018": 0.0,
			"-0.017": 0.0,
			"-0.016": 0.0,
			"-0.015": 0.0,
			"-0.014": 0.0,
			"-0.013": 0.707708020957,
			"-0.012": 2.28268121271,
			"-0.011": 3.09856185077,
			"-0.01": 3.05757144084,
			"-0.009": 3.28051092529,
			"-0.008": 3.06562645166,
			"-0.007": 3.21139924579,
			"-0.006": 7.71758948083,
			"-0.005": 12.7302862009,
			"-0.004": 28.7453081103,
			"-0.003": 27.3888564772,
			"-0.002": 32.5873920326,
			"-0.001": 21.1959214529,
			"0.0": 19.662095656,
			"0.001": 12.216566639,
			"0.002": 10.3825348037,
			"0.003": 12.0818146517,
			"0.004": 16.3218123867,
			"0.005": 7.26482595982,
			"0.006": 4.22127221035,
			"0.007": 4.67146157471,
			"0.008": 4.38879665657,
			"0.009": 4.73277150815,
			"0.01": 6.07338584999,
			"0.011": 9.30767117916,
			"0.012": 6.98692828595,
			"0.013": 0.699075860104,
			"0.014": 0.446740743864,
			"0.015": 0.0273868833847,
			"0.016": 0.0,
			"0.017": 0.0,
			"0.018": 0.0,
			"0.019": 0.0,
			"0.02": 0.0,
			"0.021": 0.0,
			"0.022": 0.0,
			"0.023": 0.0,
			"0.024": 0.0,
			"0.025": 0.0
		}
	}
}
