{
	 "smiles": "CC12CSCC(=O)N1C(CS2)C(O)=O", 
	 "Tm": 476.15, 
	 "num_atms": 25, 
	 "gaussian": { 
		 "optdone": 1, 
		 "sigma_profile": "yes", 
		 "theory": "DFT", 
		 "functional": "B3LYP", 
		 "basiset": "6-31G**", 
		 "properties": { 
			 "R2extent": 3642.7133, 
			 "electric_dipole_moment_norm": 4.96997464883, 
			 "electric_quadrupole_moment_norm": 20.9863016149, 
			 "total_energy": -1388.28939201, 
			 "HOMO_LUMO_gap": 0.21551, 
			 "cosmo_polarized_energy": -16.28, 
			 "cosmo_cavitation_energy": 28.94, 
			 "cosmo_dispersion_energy": -22.44, 
			 "cosmo_repulsion_energy": 1.63, 
			 "cosmo_total_nonelectrostatic_energy": 8.13, 
			 "SMD_solvation_energy": 5.04 
		},
		"coords": [
			{
				"x": 0.7309092495,
				"y": -0.9645201333,
				"z": 1.8046633242,
				"element": "C" 
			},
			{
				"x": 0.3706821146,
				"y": -0.2866802056,
				"z": 0.4742456255,
				"element": "C" 
			},
			{
				"x": 0.9630458034,
				"y": 1.1216228101,
				"z": 0.3703677843,
				"element": "C" 
			},
			{
				"x": 0.2463199037,
				"y": 2.2507991006,
				"z": 1.6095025123,
				"element": "S" 
			},
			{
				"x": -1.4331295414,
				"y": 2.1063785786,
				"z": 0.9272068765,
				"element": "C" 
			},
			{
				"x": -1.9379907628,
				"y": 0.7397680845,
				"z": 0.4657400586,
				"element": "C" 
			},
			{
				"x": -3.1647233686,
				"y": 0.7050882996,
				"z": 0.2705193631,
				"element": "O" 
			},
			{
				"x": -1.1071431151,
				"y": -0.308704009,
				"z": 0.2418833146,
				"element": "N" 
			},
			{
				"x": -1.4877767519,
				"y": -1.6620459619,
				"z": -0.2949474356,
				"element": "C" 
			},
			{
				"x": -0.559635455,
				"y": -1.8660851249,
				"z": -1.5015094472,
				"element": "C" 
			},
			{
				"x": 1.0860913468,
				"y": -1.279651259,
				"z": -0.9572486002,
				"element": "S" 
			},
			{
				"x": -2.9079557138,
				"y": -2.1952867992,
				"z": -0.6935358796,
				"element": "C" 
			},
			{
				"x": -3.9941375078,
				"y": -1.4689004774,
				"z": -0.6003119142,
				"element": "O" 
			},
			{
				"x": -2.9009201943,
				"y": -3.3446926365,
				"z": -1.084531675,
				"element": "O" 
			},
			{
				"x": 0.3606713535,
				"y": -0.3728625932,
				"z": 2.6459739947,
				"element": "H" 
			},
			{
				"x": 1.8179539364,
				"y": -1.0514902524,
				"z": 1.8885061498,
				"element": "H" 
			},
			{
				"x": 0.3186047785,
				"y": -1.972787508,
				"z": 1.8666009656,
				"element": "H" 
			},
			{
				"x": 2.0387855757,
				"y": 1.0711341809,
				"z": 0.5519352766,
				"element": "H" 
			},
			{
				"x": 0.8088061212,
				"y": 1.5283079319,
				"z": -0.6326888046,
				"element": "H" 
			},
			{
				"x": -2.1423121043,
				"y": 2.4472519264,
				"z": 1.6831526577,
				"element": "H" 
			},
			{
				"x": -1.5457621324,
				"y": 2.7700465338,
				"z": 0.0621048271,
				"element": "H" 
			},
			{
				"x": -1.1887148925,
				"y": -2.3769731193,
				"z": 0.4770870479,
				"element": "H" 
			},
			{
				"x": -0.9060998859,
				"y": -1.2887690693,
				"z": -2.3628334317,
				"element": "H" 
			},
			{
				"x": -0.5156378196,
				"y": -2.9212566265,
				"z": -1.7641667519,
				"element": "H" 
			},
			{
				"x": -3.7619309377,
				"y": -0.549391671,
				"z": -0.2494158383,
				"element": "H" 
			}
		],
		 "valence_orbital": [ 
			{
				"type": "occ",
				"energy": -0.29776,
				"method": "rhf"
			},
			{
				"type": "occ",
				"energy": -0.29079,
				"method": "rhf"
			},
			{
				"type": "occ",
				"energy": -0.26877,
				"method": "rhf"
			},
			{
				"type": "occ",
				"energy": -0.25442,
				"method": "rhf"
			},
			{
				"type": "occ",
				"energy": -0.2452,
				"method": "rhf"
			},
			{
				"type": "unocc",
				"energy": -0.02969,
				"method": "rhf"
			},
			{
				"type": "unocc",
				"energy": -0.01072,
				"method": "rhf"
			},
			{
				"type": "unocc",
				"energy": 0.00576,
				"method": "rhf"
			},
			{
				"type": "unocc",
				"energy": 0.0165,
				"method": "rhf"
			},
			{
				"type": "unocc",
				"energy": 0.04035,
				"method": "rhf"
			}
		],
		"cosmo_sigma_profile": { 
			"-0.025": 0.0,
			"-0.024": 0.0,
			"-0.023": 0.0,
			"-0.022": 0.0,
			"-0.021": 0.0,
			"-0.02": 0.0,
			"-0.019": 0.0,
			"-0.018": 0.0,
			"-0.017": 0.0,
			"-0.016": 0.0,
			"-0.015": 0.0,
			"-0.014": 0.0,
			"-0.013": 0.0,
			"-0.012": 0.0,
			"-0.011": 0.0,
			"-0.01": 0.121599928278,
			"-0.009": 3.68174164228,
			"-0.008": 13.943949308,
			"-0.007": 14.9207431075,
			"-0.006": 14.1573785782,
			"-0.005": 16.1209700413,
			"-0.004": 15.7679296192,
			"-0.003": 17.472172,
			"-0.002": 14.5862681216,
			"-0.001": 15.2061956492,
			"0.0": 12.0108924182,
			"0.001": 8.84203615294,
			"0.002": 9.06821179615,
			"0.003": 9.56975552643,
			"0.004": 10.5018578528,
			"0.005": 9.2489922746,
			"0.006": 6.92164432062,
			"0.007": 7.49279265374,
			"0.008": 6.8257300987,
			"0.009": 6.14682757143,
			"0.01": 5.10523908493,
			"0.011": 5.80400709287,
			"0.012": 5.99038312174,
			"0.013": 2.39874311992,
			"0.014": 0.538667402488,
			"0.015": 0.0,
			"0.016": 0.0,
			"0.017": 0.0,
			"0.018": 0.0,
			"0.019": 0.0,
			"0.02": 0.0,
			"0.021": 0.0,
			"0.022": 0.0,
			"0.023": 0.0,
			"0.024": 0.0,
			"0.025": 0.0
		}
	}
}
