{
	 "smiles": "ClC1=CC(NC(=O)C2CCCCN2)=C(Cl)C=C1", 
	 "Tm": 401.15, 
	 "num_atms": 31, 
	 "gaussian": { 
		 "optdone": 1, 
		 "sigma_profile": "yes", 
		 "theory": "DFT", 
		 "functional": "B3LYP", 
		 "basiset": "6-31G**", 
		 "properties": { 
			 "R2extent": 6704.0512, 
			 "electric_dipole_moment_norm": 2.23385204971, 
			 "electric_quadrupole_moment_norm": 13.3477724595, 
			 "total_energy": -1570.84157292, 
			 "HOMO_LUMO_gap": 0.17858, 
			 "cosmo_polarized_energy": -11.59, 
			 "cosmo_cavitation_energy": 36.56, 
			 "cosmo_dispersion_energy": -26.09, 
			 "cosmo_repulsion_energy": 2.05, 
			 "cosmo_total_nonelectrostatic_energy": 12.52, 
			 "SMD_solvation_energy": 3.15 
		},
		"coords": [
			{
				"x": 3.9997382384,
				"y": -1.2885836427,
				"z": -1.0835737324,
				"element": "Cl" 
			},
			{
				"x": 3.0039420359,
				"y": -1.3851082967,
				"z": 0.3583291402,
				"element": "C" 
			},
			{
				"x": 1.6801881236,
				"y": -1.7970532769,
				"z": 0.2351609732,
				"element": "C" 
			},
			{
				"x": 0.8527340999,
				"y": -1.8686226626,
				"z": 1.3665458193,
				"element": "C" 
			},
			{
				"x": -0.4836242761,
				"y": -2.28761501,
				"z": 1.2862898608,
				"element": "N" 
			},
			{
				"x": -1.5089515483,
				"y": -1.9618366164,
				"z": 0.4096686689,
				"element": "C" 
			},
			{
				"x": -2.6169671637,
				"y": -2.4463965107,
				"z": 0.592752453,
				"element": "O" 
			},
			{
				"x": -1.2722329192,
				"y": -1.0003922356,
				"z": -0.754092229,
				"element": "C" 
			},
			{
				"x": -1.2538790606,
				"y": -1.7849139384,
				"z": -2.0913095483,
				"element": "C" 
			},
			{
				"x": -1.2247338109,
				"y": -0.8200909128,
				"z": -3.2863984024,
				"element": "C" 
			},
			{
				"x": -2.3726891785,
				"y": 0.1961427951,
				"z": -3.1967101905,
				"element": "C" 
			},
			{
				"x": -2.3537662795,
				"y": 0.9065392446,
				"z": -1.8329584669,
				"element": "C" 
			},
			{
				"x": -2.3422575089,
				"y": 0.0001532688,
				"z": -0.6824814452,
				"element": "N" 
			},
			{
				"x": 1.4253386569,
				"y": -1.5726782139,
				"z": 2.6202685044,
				"element": "C" 
			},
			{
				"x": 0.4513115511,
				"y": -1.6933630651,
				"z": 4.0753503206,
				"element": "Cl" 
			},
			{
				"x": 2.7585816506,
				"y": -1.1884451675,
				"z": 2.7331078872,
				"element": "C" 
			},
			{
				"x": 3.5596213046,
				"y": -1.0773104374,
				"z": 1.5983018752,
				"element": "C" 
			},
			{
				"x": 1.2958956243,
				"y": -2.0899706433,
				"z": -0.7327307837,
				"element": "H" 
			},
			{
				"x": -0.8418206402,
				"y": -2.7899922652,
				"z": 2.0914899534,
				"element": "H" 
			},
			{
				"x": -0.3213194148,
				"y": -0.4682658613,
				"z": -0.6367338621,
				"element": "H" 
			},
			{
				"x": -2.1588745832,
				"y": -2.4042559451,
				"z": -2.126200677,
				"element": "H" 
			},
			{
				"x": -0.3993457375,
				"y": -2.4734824146,
				"z": -2.1326179258,
				"element": "H" 
			},
			{
				"x": -1.2772880757,
				"y": -1.3841104349,
				"z": -4.2247051891,
				"element": "H" 
			},
			{
				"x": -0.2649276999,
				"y": -0.2837684571,
				"z": -3.2982000577,
				"element": "H" 
			},
			{
				"x": -2.3022248524,
				"y": 0.931263767,
				"z": -4.0080720893,
				"element": "H" 
			},
			{
				"x": -3.3328339119,
				"y": -0.3241387351,
				"z": -3.3198846247,
				"element": "H" 
			},
			{
				"x": -3.216878802,
				"y": 1.5727680316,
				"z": -1.7277970129,
				"element": "H" 
			},
			{
				"x": -1.4582942254,
				"y": 1.5418685035,
				"z": -1.7692588494,
				"element": "H" 
			},
			{
				"x": -3.2272209516,
				"y": -0.4971178837,
				"z": -0.6025278373,
				"element": "H" 
			},
			{
				"x": 3.1650028229,
				"y": -0.9647694386,
				"z": 3.7130511956,
				"element": "H" 
			},
			{
				"x": 4.5943765322,
				"y": -0.766253545,
				"z": 1.6784362719,
				"element": "H" 
			}
		],
		 "valence_orbital": [ 
			{
				"type": "occ",
				"energy": -0.31078,
				"method": "rhf"
			},
			{
				"type": "occ",
				"energy": -0.26823,
				"method": "rhf"
			},
			{
				"type": "occ",
				"energy": -0.26322,
				"method": "rhf"
			},
			{
				"type": "occ",
				"energy": -0.24239,
				"method": "rhf"
			},
			{
				"type": "occ",
				"energy": -0.21637,
				"method": "rhf"
			},
			{
				"type": "unocc",
				"energy": -0.03779,
				"method": "rhf"
			},
			{
				"type": "unocc",
				"energy": -0.03547,
				"method": "rhf"
			},
			{
				"type": "unocc",
				"energy": 0.00449,
				"method": "rhf"
			},
			{
				"type": "unocc",
				"energy": 0.01671,
				"method": "rhf"
			},
			{
				"type": "unocc",
				"energy": 0.02675,
				"method": "rhf"
			}
		],
		"cosmo_sigma_profile": { 
			"-0.025": 0.0,
			"-0.024": 0.0,
			"-0.023": 0.0,
			"-0.022": 0.0,
			"-0.021": 0.0,
			"-0.02": 0.0,
			"-0.019": 0.0,
			"-0.018": 0.0,
			"-0.017": 0.0,
			"-0.016": 0.0,
			"-0.015": 0.0,
			"-0.014": 0.0,
			"-0.013": 0.273740674053,
			"-0.012": 0.782342242397,
			"-0.011": 0.493087004072,
			"-0.01": 1.19739047946,
			"-0.009": 2.03847921653,
			"-0.008": 6.22013965639,
			"-0.007": 7.67925677877,
			"-0.006": 8.34041644848,
			"-0.005": 8.26963316937,
			"-0.004": 13.5866147856,
			"-0.003": 24.9448950131,
			"-0.002": 32.1565543293,
			"-0.001": 34.079559434,
			"0.0": 37.6534326394,
			"0.001": 33.1870211864,
			"0.002": 20.1980365337,
			"0.003": 16.0883429544,
			"0.004": 17.5148694169,
			"0.005": 4.69919282599,
			"0.006": 2.34719319299,
			"0.007": 2.2393713282,
			"0.008": 1.98308691816,
			"0.009": 2.38321901028,
			"0.01": 1.53625220849,
			"0.011": 2.97541390894,
			"0.012": 4.46416120223,
			"0.013": 3.89790003592,
			"0.014": 0.707186463179,
			"0.015": 0.08511198824,
			"0.016": 0.562981902786,
			"0.017": 0.698156505214,
			"0.018": 0.0,
			"0.019": 0.0,
			"0.02": 0.0,
			"0.021": 0.0,
			"0.022": 0.0,
			"0.023": 0.0,
			"0.024": 0.0,
			"0.025": 0.0
		}
	}
}
