{
	 "smiles": "NC(C#N)C(N)=O", 
	 "Tm": 395.15, 
	 "num_atms": 12, 
	 "gaussian": { 
		 "optdone": 1, 
		 "sigma_profile": "yes", 
		 "theory": "DFT", 
		 "functional": "B3LYP", 
		 "basiset": "6-31G**", 
		 "properties": { 
			 "R2extent": 1086.2382, 
			 "electric_dipole_moment_norm": 5.9522744468, 
			 "electric_quadrupole_moment_norm": 9.4091045355, 
			 "total_energy": -356.796884679, 
			 "HOMO_LUMO_gap": 0.26517, 
			 "cosmo_polarized_energy": -20.27, 
			 "cosmo_cavitation_energy": 17.25, 
			 "cosmo_dispersion_energy": -12.29, 
			 "cosmo_repulsion_energy": 1.09, 
			 "cosmo_total_nonelectrostatic_energy": 6.06, 
			 "SMD_solvation_energy": 4.9 
		},
		"coords": [
			{
				"x": 0.7636681015,
				"y": -1.381547269,
				"z": 0.1359357662,
				"element": "N" 
			},
			{
				"x": 1.2876743019,
				"y": -0.0140534543,
				"z": 0.0717558958,
				"element": "C" 
			},
			{
				"x": 0.2935207498,
				"y": 1.0213297005,
				"z": 0.4187781028,
				"element": "C" 
			},
			{
				"x": -0.549080964,
				"y": 1.7548765308,
				"z": 0.7332097828,
				"element": "N" 
			},
			{
				"x": 1.9401618683,
				"y": 0.3080781237,
				"z": -1.3052287205,
				"element": "C" 
			},
			{
				"x": 2.3087314144,
				"y": -0.8027611268,
				"z": -1.9865750433,
				"element": "N" 
			},
			{
				"x": 2.123058499,
				"y": 1.4571323378,
				"z": -1.6640760985,
				"element": "O" 
			},
			{
				"x": -0.134355015,
				"y": -1.4338844047,
				"z": -0.3396253941,
				"element": "H" 
			},
			{
				"x": 0.6035007759,
				"y": -1.6558439224,
				"z": 1.1012091193,
				"element": "H" 
			},
			{
				"x": 2.1074208167,
				"y": 0.063241954,
				"z": 0.7976209356,
				"element": "H" 
			},
			{
				"x": 2.1065448193,
				"y": -1.7133968077,
				"z": -1.5993805064,
				"element": "H" 
			},
			{
				"x": 2.7799546322,
				"y": -0.695371662,
				"z": -2.8712238397,
				"element": "H" 
			}
		],
		 "valence_orbital": [ 
			{
				"type": "occ",
				"energy": -0.33898,
				"method": "rhf"
			},
			{
				"type": "occ",
				"energy": -0.33199,
				"method": "rhf"
			},
			{
				"type": "occ",
				"energy": -0.29883,
				"method": "rhf"
			},
			{
				"type": "occ",
				"energy": -0.2812,
				"method": "rhf"
			},
			{
				"type": "occ",
				"energy": -0.2618,
				"method": "rhf"
			},
			{
				"type": "unocc",
				"energy": 0.00337,
				"method": "rhf"
			},
			{
				"type": "unocc",
				"energy": 0.02379,
				"method": "rhf"
			},
			{
				"type": "unocc",
				"energy": 0.03632,
				"method": "rhf"
			},
			{
				"type": "unocc",
				"energy": 0.06824,
				"method": "rhf"
			},
			{
				"type": "unocc",
				"energy": 0.09454,
				"method": "rhf"
			}
		],
		"cosmo_sigma_profile": { 
			"-0.025": 0.0,
			"-0.024": 0.0,
			"-0.023": 0.0,
			"-0.022": 0.0,
			"-0.021": 0.0,
			"-0.02": 0.0,
			"-0.019": 0.0,
			"-0.018": 0.0,
			"-0.017": 0.0,
			"-0.016": 0.0,
			"-0.015": 0.483872059271,
			"-0.014": 1.19084147431,
			"-0.013": 3.02481310182,
			"-0.012": 5.81952048618,
			"-0.011": 6.17201688152,
			"-0.01": 9.76008497798,
			"-0.009": 5.62562847029,
			"-0.008": 4.69447061109,
			"-0.007": 5.41251699324,
			"-0.006": 3.64057221213,
			"-0.005": 3.9285434064,
			"-0.004": 3.94258182196,
			"-0.003": 4.20710776358,
			"-0.002": 4.72774770675,
			"-0.001": 4.14324837379,
			"0.0": 3.83631117166,
			"0.001": 4.57795779211,
			"0.002": 4.40605639722,
			"0.003": 5.2933561894,
			"0.004": 3.07279318475,
			"0.005": 3.86466606965,
			"0.006": 3.93838279579,
			"0.007": 5.34102841092,
			"0.008": 6.24662899141,
			"0.009": 5.54747217551,
			"0.01": 5.00015876592,
			"0.011": 4.88498949952,
			"0.012": 5.11453435402,
			"0.013": 7.35803993371,
			"0.014": 1.63523621008,
			"0.015": 0.0,
			"0.016": 0.0,
			"0.017": 0.0,
			"0.018": 0.0,
			"0.019": 0.0,
			"0.02": 0.0,
			"0.021": 0.0,
			"0.022": 0.0,
			"0.023": 0.0,
			"0.024": 0.0,
			"0.025": 0.0
		}
	}
}
