{
	 "smiles": "COC1=C(NC(C)=O)C=C(C=C1)S(N)(=O)=O", 
	 "Tm": 491.15, 
	 "num_atms": 28, 
	 "gaussian": { 
		 "optdone": 1, 
		 "sigma_profile": "yes", 
		 "theory": "DFT", 
		 "functional": "B3LYP", 
		 "basiset": "6-31G**", 
		 "properties": { 
			 "R2extent": 5100.6295, 
			 "electric_dipole_moment_norm": 3.02678473797, 
			 "electric_quadrupole_moment_norm": 27.2530677359, 
			 "total_energy": -1158.70471855, 
			 "HOMO_LUMO_gap": 0.20174, 
			 "cosmo_polarized_energy": -21.99, 
			 "cosmo_cavitation_energy": 33.69, 
			 "cosmo_dispersion_energy": -24.08, 
			 "cosmo_repulsion_energy": 1.87, 
			 "cosmo_total_nonelectrostatic_energy": 11.47, 
			 "SMD_solvation_energy": 7.48 
		},
		"coords": [
			{
				"x": 0.7584420262,
				"y": 4.0112098288,
				"z": 1.6882911596,
				"element": "C" 
			},
			{
				"x": 0.5524453516,
				"y": 2.6485359168,
				"z": 2.0910531991,
				"element": "O" 
			},
			{
				"x": 0.4233325964,
				"y": 1.743532545,
				"z": 1.0685719653,
				"element": "C" 
			},
			{
				"x": -0.7540968278,
				"y": 1.6629136231,
				"z": 0.2922293919,
				"element": "C" 
			},
			{
				"x": -1.8432285021,
				"y": 2.5449947291,
				"z": 0.5035197299,
				"element": "N" 
			},
			{
				"x": -2.6933475032,
				"y": 2.630827518,
				"z": 1.6053757678,
				"element": "C" 
			},
			{
				"x": -2.3752259898,
				"y": 1.7569935042,
				"z": 2.7999299799,
				"element": "C" 
			},
			{
				"x": -3.6499408475,
				"y": 3.3870415624,
				"z": 1.5632473692,
				"element": "O" 
			},
			{
				"x": -0.8158308647,
				"y": 0.7201724777,
				"z": -0.7399494394,
				"element": "C" 
			},
			{
				"x": 0.2593527343,
				"y": -0.1345950781,
				"z": -0.9727912998,
				"element": "C" 
			},
			{
				"x": 1.4112401825,
				"y": -0.0828429504,
				"z": -0.1870889423,
				"element": "C" 
			},
			{
				"x": 1.4809485016,
				"y": 0.8593607184,
				"z": 0.8349013668,
				"element": "C" 
			},
			{
				"x": 0.1506112951,
				"y": -1.3277242785,
				"z": -2.3049769921,
				"element": "S" 
			},
			{
				"x": -0.5331827425,
				"y": -2.6909114421,
				"z": -1.564283322,
				"element": "N" 
			},
			{
				"x": -0.8325726963,
				"y": -0.825699203,
				"z": -3.2695453001,
				"element": "O" 
			},
			{
				"x": 1.5189713348,
				"y": -1.6869043468,
				"z": -2.6882584572,
				"element": "O" 
			},
			{
				"x": -0.0823185539,
				"y": 4.3854972954,
				"z": 1.0965783448,
				"element": "H" 
			},
			{
				"x": 1.6869454358,
				"y": 4.1056127799,
				"z": 1.1127484607,
				"element": "H" 
			},
			{
				"x": 0.8415319486,
				"y": 4.5888796877,
				"z": 2.6100290221,
				"element": "H" 
			},
			{
				"x": -2.2238996769,
				"y": 3.0175416981,
				"z": -0.3078463576,
				"element": "H" 
			},
			{
				"x": -1.4470125989,
				"y": 2.0832454621,
				"z": 3.2761992498,
				"element": "H" 
			},
			{
				"x": -3.2026257531,
				"y": 1.8395985805,
				"z": 3.5039671633,
				"element": "H" 
			},
			{
				"x": -2.244369556,
				"y": 0.7114853413,
				"z": 2.5031840291,
				"element": "H" 
			},
			{
				"x": -1.7027610161,
				"y": 0.6606336567,
				"z": -1.3620319651,
				"element": "H" 
			},
			{
				"x": 2.2420517946,
				"y": -0.7477105658,
				"z": -0.3942360872,
				"element": "H" 
			},
			{
				"x": 2.3649067077,
				"y": 0.9460227421,
				"z": 1.4580041255,
				"element": "H" 
			},
			{
				"x": -1.4167747708,
				"y": -2.9097011136,
				"z": -2.0172830043,
				"element": "H" 
			},
			{
				"x": 0.1180079904,
				"y": -3.469110689,
				"z": -1.6284391578,
				"element": "H" 
			}
		],
		 "valence_orbital": [ 
			{
				"type": "occ",
				"energy": -0.29879,
				"method": "rhf"
			},
			{
				"type": "occ",
				"energy": -0.29276,
				"method": "rhf"
			},
			{
				"type": "occ",
				"energy": -0.26881,
				"method": "rhf"
			},
			{
				"type": "occ",
				"energy": -0.25758,
				"method": "rhf"
			},
			{
				"type": "occ",
				"energy": -0.24551,
				"method": "rhf"
			},
			{
				"type": "unocc",
				"energy": -0.04377,
				"method": "rhf"
			},
			{
				"type": "unocc",
				"energy": -0.0361,
				"method": "rhf"
			},
			{
				"type": "unocc",
				"energy": 0.02231,
				"method": "rhf"
			},
			{
				"type": "unocc",
				"energy": 0.04645,
				"method": "rhf"
			},
			{
				"type": "unocc",
				"energy": 0.07634,
				"method": "rhf"
			}
		],
		"cosmo_sigma_profile": { 
			"-0.025": 0.0,
			"-0.024": 0.0,
			"-0.023": 0.0,
			"-0.022": 0.0,
			"-0.021": 0.0,
			"-0.02": 0.0,
			"-0.019": 0.0,
			"-0.018": 0.0,
			"-0.017": 0.0,
			"-0.016": 0.0,
			"-0.015": 1.06764345982,
			"-0.014": 3.53604124007,
			"-0.013": 3.55495957301,
			"-0.012": 4.62190258301,
			"-0.011": 2.99776873236,
			"-0.01": 2.12383979892,
			"-0.009": 3.08639424007,
			"-0.008": 4.27475325568,
			"-0.007": 7.7086080095,
			"-0.006": 10.6742927362,
			"-0.005": 16.2176178798,
			"-0.004": 18.4762960957,
			"-0.003": 24.1581089229,
			"-0.002": 22.755003752,
			"-0.001": 21.9078950652,
			"0.0": 13.9836674777,
			"0.001": 16.2365809228,
			"0.002": 13.1709351669,
			"0.003": 7.06447113831,
			"0.004": 5.41147559534,
			"0.005": 5.27001657214,
			"0.006": 5.65425746975,
			"0.007": 5.762565304,
			"0.008": 5.4271088955,
			"0.009": 5.92148325352,
			"0.01": 11.0073770186,
			"0.011": 10.5439251905,
			"0.012": 5.3578922062,
			"0.013": 5.91410870494,
			"0.014": 3.02493638396,
			"0.015": 0.251751098705,
			"0.016": 0.0,
			"0.017": 0.0,
			"0.018": 0.0,
			"0.019": 0.0,
			"0.02": 0.0,
			"0.021": 0.0,
			"0.022": 0.0,
			"0.023": 0.0,
			"0.024": 0.0,
			"0.025": 0.0
		}
	}
}
