{
	 "smiles": "CC1=C(C)C(=O)NC1=O", 
	 "Tm": 387.15, 
	 "num_atms": 16, 
	 "gaussian": { 
		 "optdone": 1, 
		 "sigma_profile": "yes", 
		 "theory": "DFT", 
		 "functional": "B3LYP", 
		 "basiset": "6-31G**", 
		 "properties": { 
			 "R2extent": 1400.1401, 
			 "electric_dipole_moment_norm": 2.16766147034, 
			 "electric_quadrupole_moment_norm": 13.568863647, 
			 "total_energy": -438.079917519, 
			 "HOMO_LUMO_gap": 0.18088, 
			 "cosmo_polarized_energy": -10.89, 
			 "cosmo_cavitation_energy": 20.47, 
			 "cosmo_dispersion_energy": -14.94, 
			 "cosmo_repulsion_energy": 1.25, 
			 "cosmo_total_nonelectrostatic_energy": 6.78, 
			 "SMD_solvation_energy": 5.28 
		},
		"coords": [
			{
				"x": -1.0506044803,
				"y": -2.3492579829,
				"z": -2.1005767029,
				"element": "C" 
			},
			{
				"x": -0.3605900921,
				"y": -1.401260076,
				"z": -1.1787791144,
				"element": "C" 
			},
			{
				"x": 0.5693970962,
				"y": -1.6034757046,
				"z": -0.2245548865,
				"element": "C" 
			},
			{
				"x": 1.2409566573,
				"y": -2.8475238369,
				"z": 0.2507202182,
				"element": "C" 
			},
			{
				"x": 0.9101971661,
				"y": -0.2739663397,
				"z": 0.3983045501,
				"element": "C" 
			},
			{
				"x": 1.7043450652,
				"y": -0.0530101722,
				"z": 1.2896407569,
				"element": "O" 
			},
			{
				"x": 0.1228476093,
				"y": 0.6725576835,
				"z": -0.2587300931,
				"element": "N" 
			},
			{
				"x": -0.6776553889,
				"y": 0.0713045714,
				"z": -1.2309562957,
				"element": "C" 
			},
			{
				"x": -1.4650130185,
				"y": 0.6361619571,
				"z": -1.9623757763,
				"element": "O" 
			},
			{
				"x": -0.7201511249,
				"y": -3.3786253469,
				"z": -1.9477096822,
				"element": "H" 
			},
			{
				"x": -0.8660936314,
				"y": -2.0726216928,
				"z": -3.1445155545,
				"element": "H" 
			},
			{
				"x": -2.1357500423,
				"y": -2.3037675287,
				"z": -1.956451886,
				"element": "H" 
			},
			{
				"x": 2.3271502721,
				"y": -2.7668819469,
				"z": 0.1321344617,
				"element": "H" 
			},
			{
				"x": 1.0576687302,
				"y": -2.9982376732,
				"z": 1.3203320206,
				"element": "H" 
			},
			{
				"x": 0.8943010817,
				"y": -3.7296227882,
				"z": -0.2914014458,
				"element": "H" 
			},
			{
				"x": 0.1312941002,
				"y": 1.6615268771,
				"z": -0.0573805702,
				"element": "H" 
			}
		],
		 "valence_orbital": [ 
			{
				"type": "occ",
				"energy": -0.38911,
				"method": "rhf"
			},
			{
				"type": "occ",
				"energy": -0.29324,
				"method": "rhf"
			},
			{
				"type": "occ",
				"energy": -0.29273,
				"method": "rhf"
			},
			{
				"type": "occ",
				"energy": -0.27175,
				"method": "rhf"
			},
			{
				"type": "occ",
				"energy": -0.26364,
				"method": "rhf"
			},
			{
				"type": "unocc",
				"energy": -0.08276,
				"method": "rhf"
			},
			{
				"type": "unocc",
				"energy": 0.05774,
				"method": "rhf"
			},
			{
				"type": "unocc",
				"energy": 0.07126,
				"method": "rhf"
			},
			{
				"type": "unocc",
				"energy": 0.08473,
				"method": "rhf"
			},
			{
				"type": "unocc",
				"energy": 0.0923,
				"method": "rhf"
			}
		],
		"cosmo_sigma_profile": { 
			"-0.025": 0.0,
			"-0.024": 0.0,
			"-0.023": 0.0,
			"-0.022": 0.0,
			"-0.021": 0.0,
			"-0.02": 0.0,
			"-0.019": 0.0,
			"-0.018": 0.0,
			"-0.017": 0.172720278497,
			"-0.016": 1.14832656256,
			"-0.015": 1.18126060891,
			"-0.014": 0.889489624967,
			"-0.013": 0.95661077885,
			"-0.012": 0.503379261459,
			"-0.011": 0.746555487331,
			"-0.01": 1.14498807836,
			"-0.009": 0.88053587378,
			"-0.008": 0.817033336723,
			"-0.007": 1.49114052575,
			"-0.006": 5.24452626398,
			"-0.005": 11.6363909869,
			"-0.004": 13.8337785909,
			"-0.003": 19.7181644149,
			"-0.002": 18.6959087849,
			"-0.001": 23.0407848907,
			"0.0": 9.87578091576,
			"0.001": 4.80372406741,
			"0.002": 3.60092976099,
			"0.003": 2.24392363703,
			"0.004": 3.30886278206,
			"0.005": 2.99619225184,
			"0.006": 2.40938333616,
			"0.007": 2.1771822085,
			"0.008": 3.72028355488,
			"0.009": 3.56320448889,
			"0.01": 4.76925202249,
			"0.011": 10.2374606043,
			"0.012": 6.30016911301,
			"0.013": 0.385251045284,
			"0.014": 0.0,
			"0.015": 0.0,
			"0.016": 0.0,
			"0.017": 0.0,
			"0.018": 0.0,
			"0.019": 0.0,
			"0.02": 0.0,
			"0.021": 0.0,
			"0.022": 0.0,
			"0.023": 0.0,
			"0.024": 0.0,
			"0.025": 0.0
		}
	}
}
