{
	 "smiles": "[O-][N+](=O)C1=CC=CC(OCCCCBr)=C1", 
	 "Tm": 335.65, 
	 "num_atms": 27, 
	 "gaussian": { 
		 "optdone": 1, 
		 "sigma_profile": "yes", 
		 "theory": "DFT", 
		 "functional": "B3LYP", 
		 "basiset": "6-31G**", 
		 "properties": { 
			 "R2extent": 6176.2381, 
			 "electric_dipole_moment_norm": 5.72901650024, 
			 "electric_quadrupole_moment_norm": 18.4030041735, 
			 "total_energy": -3240.02517517, 
			 "HOMO_LUMO_gap": 0.1558, 
			 "cosmo_polarized_energy": -12.58, 
			 "cosmo_cavitation_energy": 33.73, 
			 "cosmo_dispersion_energy": -23.95, 
			 "cosmo_repulsion_energy": 1.92, 
			 "cosmo_total_nonelectrostatic_energy": 11.69, 
			 "SMD_solvation_energy": 6.77 
		},
		"coords": [
			{
				"x": 0.560139689,
				"y": -3.3160557523,
				"z": 0.6124263954,
				"element": "O" 
			},
			{
				"x": 1.7436908388,
				"y": -3.1738143599,
				"z": 0.3047735841,
				"element": "N" 
			},
			{
				"x": 2.5220295772,
				"y": -4.0985506139,
				"z": 0.0759164617,
				"element": "O" 
			},
			{
				"x": 2.2667725975,
				"y": -1.7986561412,
				"z": 0.2065097779,
				"element": "C" 
			},
			{
				"x": 3.6043567674,
				"y": -1.6132085532,
				"z": -0.1211757235,
				"element": "C" 
			},
			{
				"x": 4.0729773771,
				"y": -0.2999846975,
				"z": -0.2056822834,
				"element": "C" 
			},
			{
				"x": 3.2242851902,
				"y": 0.7751377221,
				"z": 0.0327922901,
				"element": "C" 
			},
			{
				"x": 1.8741928601,
				"y": 0.56076442,
				"z": 0.3639655492,
				"element": "C" 
			},
			{
				"x": 1.1450762987,
				"y": 1.6862419947,
				"z": 0.5941185074,
				"element": "O" 
			},
			{
				"x": -0.2447676349,
				"y": 1.5886855013,
				"z": 0.9224017334,
				"element": "C" 
			},
			{
				"x": -1.1262409822,
				"y": 1.4296916909,
				"z": -0.3163279509,
				"element": "C" 
			},
			{
				"x": -2.6162249213,
				"y": 1.4140736111,
				"z": 0.0440886612,
				"element": "C" 
			},
			{
				"x": -3.5513682044,
				"y": 1.3332383414,
				"z": -1.1544398862,
				"element": "C" 
			},
			{
				"x": -3.3779280262,
				"y": -0.3791117743,
				"z": -2.1420567956,
				"element": "Br" 
			},
			{
				"x": 1.3840108829,
				"y": -0.745318915,
				"z": 0.4490246966,
				"element": "C" 
			},
			{
				"x": 4.2402421645,
				"y": -2.469636179,
				"z": -0.300956382,
				"element": "H" 
			},
			{
				"x": 5.1122152258,
				"y": -0.1156053792,
				"z": -0.4589146918,
				"element": "H" 
			},
			{
				"x": 3.58034791,
				"y": 1.7981953425,
				"z": -0.0272437593,
				"element": "H" 
			},
			{
				"x": -0.4695005143,
				"y": 2.5306509005,
				"z": 1.4319400802,
				"element": "H" 
			},
			{
				"x": -0.4120309332,
				"y": 0.7781472882,
				"z": 1.643390059,
				"element": "H" 
			},
			{
				"x": -0.869824625,
				"y": 0.5078551517,
				"z": -0.8477052416,
				"element": "H" 
			},
			{
				"x": -0.9133352544,
				"y": 2.2606013726,
				"z": -1.0002335184,
				"element": "H" 
			},
			{
				"x": -2.8343907944,
				"y": 0.585434266,
				"z": 0.7281498195,
				"element": "H" 
			},
			{
				"x": -2.8756653072,
				"y": 2.3393451379,
				"z": 0.5808105429,
				"element": "H" 
			},
			{
				"x": -4.5981580852,
				"y": 1.379355189,
				"z": -0.8566229462,
				"element": "H" 
			},
			{
				"x": -3.3479484144,
				"y": 2.1102639974,
				"z": -1.892134797,
				"element": "H" 
			},
			{
				"x": 0.3567463178,
				"y": -0.9794395618,
				"z": 0.6884858173,
				"element": "H" 
			}
		],
		 "valence_orbital": [ 
			{
				"type": "occ",
				"energy": -0.28729,
				"method": "rhf"
			},
			{
				"type": "occ",
				"energy": -0.27844,
				"method": "rhf"
			},
			{
				"type": "occ",
				"energy": -0.27749,
				"method": "rhf"
			},
			{
				"type": "occ",
				"energy": -0.2751,
				"method": "rhf"
			},
			{
				"type": "occ",
				"energy": -0.24143,
				"method": "rhf"
			},
			{
				"type": "unocc",
				"energy": -0.08563,
				"method": "rhf"
			},
			{
				"type": "unocc",
				"energy": -0.01474,
				"method": "rhf"
			},
			{
				"type": "unocc",
				"energy": -0.00243,
				"method": "rhf"
			},
			{
				"type": "unocc",
				"energy": 0.00829,
				"method": "rhf"
			},
			{
				"type": "unocc",
				"energy": 0.06728,
				"method": "rhf"
			}
		],
		"cosmo_sigma_profile": { 
			"-0.025": 0.0,
			"-0.024": 0.0,
			"-0.023": 0.0,
			"-0.022": 0.0,
			"-0.021": 0.0,
			"-0.02": 0.0,
			"-0.019": 0.0,
			"-0.018": 0.0,
			"-0.017": 0.0,
			"-0.016": 0.0,
			"-0.015": 0.0,
			"-0.014": 0.0,
			"-0.013": 0.0,
			"-0.012": 0.0,
			"-0.011": 0.0,
			"-0.01": 0.0,
			"-0.009": 0.244270212004,
			"-0.008": 1.84011309269,
			"-0.007": 9.68577319445,
			"-0.006": 17.8545309579,
			"-0.005": 24.4875610969,
			"-0.004": 24.6423210154,
			"-0.003": 21.4738947835,
			"-0.002": 16.5837694241,
			"-0.001": 16.5228770602,
			"0.0": 18.964895883,
			"0.001": 20.5662871483,
			"0.002": 19.7215721627,
			"0.003": 12.1782401323,
			"0.004": 9.65708514309,
			"0.005": 10.9108693431,
			"0.006": 14.5259968361,
			"0.007": 11.7354948416,
			"0.008": 10.0396728094,
			"0.009": 5.48561998741,
			"0.01": 3.3164451469,
			"0.011": 0.185063431907,
			"0.012": 0.0,
			"0.013": 0.0,
			"0.014": 0.0,
			"0.015": 0.0,
			"0.016": 0.0,
			"0.017": 0.0,
			"0.018": 0.0,
			"0.019": 0.0,
			"0.02": 0.0,
			"0.021": 0.0,
			"0.022": 0.0,
			"0.023": 0.0,
			"0.024": 0.0,
			"0.025": 0.0
		}
	}
}
