{
	 "smiles": "COC1=CC(=O)C=C(OC)C1=O", 
	 "Tm": 527.15, 
	 "num_atms": 20, 
	 "gaussian": { 
		 "optdone": 1, 
		 "sigma_profile": "yes", 
		 "theory": "DFT", 
		 "functional": "B3LYP", 
		 "basiset": "6-31G**", 
		 "properties": { 
			 "R2extent": 2151.7713, 
			 "electric_dipole_moment_norm": 4.25655444462, 
			 "electric_quadrupole_moment_norm": 9.27832842542, 
			 "total_energy": -610.493559415, 
			 "HOMO_LUMO_gap": 0.12361, 
			 "cosmo_polarized_energy": -10.51, 
			 "cosmo_cavitation_energy": 24.79, 
			 "cosmo_dispersion_energy": -18.17, 
			 "cosmo_repulsion_energy": 1.46, 
			 "cosmo_total_nonelectrostatic_energy": 8.08, 
			 "SMD_solvation_energy": 7.18 
		},
		"coords": [
			{
				"x": 0.0974379973,
				"y": 1.7524727666,
				"z": -2.6876523383,
				"element": "C" 
			},
			{
				"x": 0.5361364031,
				"y": 2.0841856245,
				"z": -1.3599279354,
				"element": "O" 
			},
			{
				"x": 0.4386664022,
				"y": 1.2183007643,
				"z": -0.3313203248,
				"element": "C" 
			},
			{
				"x": 1.3016124974,
				"y": 1.3311900347,
				"z": 0.7032033163,
				"element": "C" 
			},
			{
				"x": 1.2151576497,
				"y": 0.4595522282,
				"z": 1.8870861895,
				"element": "C" 
			},
			{
				"x": 2.0124249632,
				"y": 0.5739829825,
				"z": 2.8168670844,
				"element": "O" 
			},
			{
				"x": 0.1707284309,
				"y": -0.5784851658,
				"z": 1.9079055962,
				"element": "C" 
			},
			{
				"x": -0.7116770439,
				"y": -0.7241525249,
				"z": 0.8941028757,
				"element": "C" 
			},
			{
				"x": -1.6793726476,
				"y": -1.65667958,
				"z": 1.0000168932,
				"element": "O" 
			},
			{
				"x": -2.2851050484,
				"y": -2.2691485938,
				"z": -0.1503321998,
				"element": "C" 
			},
			{
				"x": -0.6962358153,
				"y": 0.2330363939,
				"z": -0.2662762093,
				"element": "C" 
			},
			{
				"x": -1.5919869894,
				"y": 0.2366781076,
				"z": -1.1012044704,
				"element": "O" 
			},
			{
				"x": 0.6363256758,
				"y": 2.4420120793,
				"z": -3.3401894362,
				"element": "H" 
			},
			{
				"x": -0.9784858228,
				"y": 1.889098193,
				"z": -2.7958250265,
				"element": "H" 
			},
			{
				"x": 0.3600795262,
				"y": 0.723926307,
				"z": -2.9517203471,
				"element": "H" 
			},
			{
				"x": 2.0911231291,
				"y": 2.0741904936,
				"z": 0.6879345164,
				"element": "H" 
			},
			{
				"x": 0.1337682791,
				"y": -1.2310499194,
				"z": 2.7730165828,
				"element": "H" 
			},
			{
				"x": -1.544181368,
				"y": -2.4894414604,
				"z": -0.9243601947,
				"element": "H" 
			},
			{
				"x": -3.068175766,
				"y": -1.6376950235,
				"z": -0.5699329526,
				"element": "H" 
			},
			{
				"x": -2.7083404524,
				"y": -3.2041737073,
				"z": 0.2215083805,
				"element": "H" 
			}
		],
		 "valence_orbital": [ 
			{
				"type": "occ",
				"energy": -0.34037,
				"method": "rhf"
			},
			{
				"type": "occ",
				"energy": -0.27723,
				"method": "rhf"
			},
			{
				"type": "occ",
				"energy": -0.26378,
				"method": "rhf"
			},
			{
				"type": "occ",
				"energy": -0.25713,
				"method": "rhf"
			},
			{
				"type": "occ",
				"energy": -0.24347,
				"method": "rhf"
			},
			{
				"type": "unocc",
				"energy": -0.11986,
				"method": "rhf"
			},
			{
				"type": "unocc",
				"energy": -0.00225,
				"method": "rhf"
			},
			{
				"type": "unocc",
				"energy": 0.01824,
				"method": "rhf"
			},
			{
				"type": "unocc",
				"energy": 0.08011,
				"method": "rhf"
			},
			{
				"type": "unocc",
				"energy": 0.10816,
				"method": "rhf"
			}
		],
		"cosmo_sigma_profile": { 
			"-0.025": 0.0,
			"-0.024": 0.0,
			"-0.023": 0.0,
			"-0.022": 0.0,
			"-0.021": 0.0,
			"-0.02": 0.0,
			"-0.019": 0.0,
			"-0.018": 0.0,
			"-0.017": 0.0,
			"-0.016": 0.0,
			"-0.015": 0.0,
			"-0.014": 0.0,
			"-0.013": 0.0,
			"-0.012": 0.0,
			"-0.011": 0.0,
			"-0.01": 0.0,
			"-0.009": 0.00192962780652,
			"-0.008": 2.54551035394,
			"-0.007": 7.49303329379,
			"-0.006": 13.8430525294,
			"-0.005": 16.0904753554,
			"-0.004": 19.8964138546,
			"-0.003": 20.7615727624,
			"-0.002": 12.4791751797,
			"-0.001": 12.7418291039,
			"0.0": 15.6517885934,
			"0.001": 14.0111626198,
			"0.002": 8.05121851727,
			"0.003": 7.70960963194,
			"0.004": 6.15687793317,
			"0.005": 6.38215061541,
			"0.006": 5.65662167726,
			"0.007": 5.39830973835,
			"0.008": 5.45312507755,
			"0.009": 4.96022788355,
			"0.01": 2.02696251208,
			"0.011": 3.51745382108,
			"0.012": 4.49831575852,
			"0.013": 2.38780493123,
			"0.014": 0.178980295344,
			"0.015": 0.0,
			"0.016": 0.0,
			"0.017": 0.0,
			"0.018": 0.0,
			"0.019": 0.0,
			"0.02": 0.0,
			"0.021": 0.0,
			"0.022": 0.0,
			"0.023": 0.0,
			"0.024": 0.0,
			"0.025": 0.0
		}
	}
}
