{
	 "smiles": "CN(C)CCOC1=C(N)C=CC(C)=C1", 
	 "Tm": 325.15, 
	 "num_atms": 32, 
	 "gaussian": { 
		 "optdone": 1, 
		 "sigma_profile": "yes", 
		 "theory": "DFT", 
		 "functional": "B3LYP", 
		 "basiset": "6-31G**", 
		 "properties": { 
			 "R2extent": 3919.9141, 
			 "electric_dipole_moment_norm": 1.94515494756, 
			 "electric_quadrupole_moment_norm": 8.73022994142, 
			 "total_energy": -614.729402915, 
			 "HOMO_LUMO_gap": 0.19718, 
			 "cosmo_polarized_energy": -10.09, 
			 "cosmo_cavitation_energy": 33.76, 
			 "cosmo_dispersion_energy": -23.66, 
			 "cosmo_repulsion_energy": 1.87, 
			 "cosmo_total_nonelectrostatic_energy": 11.97, 
			 "SMD_solvation_energy": 3.46 
		},
		"coords": [
			{
				"x": -3.5462253094,
				"y": 0.8231960579,
				"z": -0.1798228112,
				"element": "C" 
			},
			{
				"x": -2.8171911855,
				"y": 2.0515581837,
				"z": 0.1027126754,
				"element": "N" 
			},
			{
				"x": -2.2797788261,
				"y": 2.6808977729,
				"z": -1.0882485022,
				"element": "C" 
			},
			{
				"x": -1.8992358474,
				"y": 2.0009730929,
				"z": 1.2328760522,
				"element": "C" 
			},
			{
				"x": -0.5439007352,
				"y": 1.3090072094,
				"z": 1.0527245194,
				"element": "C" 
			},
			{
				"x": -0.7496540252,
				"y": -0.0831413233,
				"z": 0.7863201739,
				"element": "O" 
			},
			{
				"x": 0.3911865282,
				"y": -0.8708321668,
				"z": 0.7298471803,
				"element": "C" 
			},
			{
				"x": 0.6520591098,
				"y": -1.5347257917,
				"z": -0.4873392924,
				"element": "C" 
			},
			{
				"x": -0.2353474144,
				"y": -1.4048754426,
				"z": -1.5553734902,
				"element": "N" 
			},
			{
				"x": 1.7868384213,
				"y": -2.3544713175,
				"z": -0.5506090013,
				"element": "C" 
			},
			{
				"x": 2.626404939,
				"y": -2.5059309889,
				"z": 0.5526927476,
				"element": "C" 
			},
			{
				"x": 2.3619051048,
				"y": -1.8602423754,
				"z": 1.7650613279,
				"element": "C" 
			},
			{
				"x": 3.2470238683,
				"y": -2.0533602763,
				"z": 2.9746261688,
				"element": "C" 
			},
			{
				"x": 1.2254552325,
				"y": -1.0415293254,
				"z": 1.8302199607,
				"element": "C" 
			},
			{
				"x": -4.3774151649,
				"y": 1.048511568,
				"z": -0.8587430746,
				"element": "H" 
			},
			{
				"x": -2.9391939445,
				"y": 0.0230401827,
				"z": -0.6349827997,
				"element": "H" 
			},
			{
				"x": -3.9678722849,
				"y": 0.4250408575,
				"z": 0.7479873994,
				"element": "H" 
			},
			{
				"x": -1.522836337,
				"y": 2.076142838,
				"z": -1.6260325587,
				"element": "H" 
			},
			{
				"x": -1.8162438653,
				"y": 3.6392853632,
				"z": -0.8286334152,
				"element": "H" 
			},
			{
				"x": -3.0934064413,
				"y": 2.8822957908,
				"z": -1.7941481098,
				"element": "H" 
			},
			{
				"x": -2.4205521898,
				"y": 1.5218631228,
				"z": 2.0695017848,
				"element": "H" 
			},
			{
				"x": -1.6798108687,
				"y": 3.0341339513,
				"z": 1.5404927575,
				"element": "H" 
			},
			{
				"x": 0.0314199611,
				"y": 1.7616096886,
				"z": 0.2318338287,
				"element": "H" 
			},
			{
				"x": 0.0412495246,
				"y": 1.4442751731,
				"z": 1.9728125578,
				"element": "H" 
			},
			{
				"x": -0.8435419858,
				"y": -0.6010442179,
				"z": -1.4805809086,
				"element": "H" 
			},
			{
				"x": 0.1764629955,
				"y": -1.5089258936,
				"z": -2.4720067948,
				"element": "H" 
			},
			{
				"x": 2.0103502033,
				"y": -2.875893879,
				"z": -1.4783272295,
				"element": "H" 
			},
			{
				"x": 3.501681204,
				"y": -3.1449821828,
				"z": 0.4665317433,
				"element": "H" 
			},
			{
				"x": 2.7682735825,
				"y": -2.6897357488,
				"z": 3.7297847267,
				"element": "H" 
			},
			{
				"x": 3.4815810362,
				"y": -1.0999758105,
				"z": 3.46146163,
				"element": "H" 
			},
			{
				"x": 4.193612855,
				"y": -2.5286007598,
				"z": 2.7008288542,
				"element": "H" 
			},
			{
				"x": 0.9778018592,
				"y": -0.5303633527,
				"z": 2.7572318997,
				"element": "H" 
			}
		],
		 "valence_orbital": [ 
			{
				"type": "occ",
				"energy": -0.29366,
				"method": "rhf"
			},
			{
				"type": "occ",
				"energy": -0.27803,
				"method": "rhf"
			},
			{
				"type": "occ",
				"energy": -0.22781,
				"method": "rhf"
			},
			{
				"type": "occ",
				"energy": -0.20258,
				"method": "rhf"
			},
			{
				"type": "occ",
				"energy": -0.18772,
				"method": "rhf"
			},
			{
				"type": "unocc",
				"energy": 0.00946,
				"method": "rhf"
			},
			{
				"type": "unocc",
				"energy": 0.02666,
				"method": "rhf"
			},
			{
				"type": "unocc",
				"energy": 0.06063,
				"method": "rhf"
			},
			{
				"type": "unocc",
				"energy": 0.09634,
				"method": "rhf"
			},
			{
				"type": "unocc",
				"energy": 0.10569,
				"method": "rhf"
			}
		],
		"cosmo_sigma_profile": { 
			"-0.025": 0.0,
			"-0.024": 0.0,
			"-0.023": 0.0,
			"-0.022": 0.0,
			"-0.021": 0.0,
			"-0.02": 0.0,
			"-0.019": 0.0,
			"-0.018": 0.0,
			"-0.017": 0.0,
			"-0.016": 0.0,
			"-0.015": 0.0,
			"-0.014": 0.0,
			"-0.013": 0.0621408118988,
			"-0.012": 0.840755395174,
			"-0.011": 1.42672794926,
			"-0.01": 1.39892684818,
			"-0.009": 1.26719286601,
			"-0.008": 1.37064057382,
			"-0.007": 2.82519023615,
			"-0.006": 3.96895859662,
			"-0.005": 9.28576601403,
			"-0.004": 25.1545028009,
			"-0.003": 39.2751260764,
			"-0.002": 30.0209775044,
			"-0.001": 26.0079565559,
			"0.0": 30.4128694867,
			"0.001": 16.9084776386,
			"0.002": 9.62260924093,
			"0.003": 8.48247080182,
			"0.004": 8.2894372885,
			"0.005": 9.38021726456,
			"0.006": 11.9254052846,
			"0.007": 9.99991544989,
			"0.008": 3.9844203652,
			"0.009": 2.56370129991,
			"0.01": 2.20692210174,
			"0.011": 2.2954877633,
			"0.012": 1.33573306688,
			"0.013": 0.508559513522,
			"0.014": 1.38551266014,
			"0.015": 1.10952576476,
			"0.016": 0.254958826233,
			"0.017": 0.0,
			"0.018": 0.0,
			"0.019": 0.0,
			"0.02": 0.0,
			"0.021": 0.0,
			"0.022": 0.0,
			"0.023": 0.0,
			"0.024": 0.0,
			"0.025": 0.0
		}
	}
}
