{
	 "smiles": "NC1=CC=C(O)C=C1", 
	 "Tm": 461.15, 
	 "num_atms": 15, 
	 "gaussian": { 
		 "optdone": 1, 
		 "sigma_profile": "yes", 
		 "theory": "DFT", 
		 "functional": "B3LYP", 
		 "basiset": "6-31G**", 
		 "properties": { 
			 "R2extent": 1759.5957, 
			 "electric_dipole_moment_norm": 2.07393942776, 
			 "electric_quadrupole_moment_norm": 10.2013533141, 
			 "total_energy": -362.826344882, 
			 "HOMO_LUMO_gap": 0.18713, 
			 "cosmo_polarized_energy": -12.08, 
			 "cosmo_cavitation_energy": 18.75, 
			 "cosmo_dispersion_energy": -14.26, 
			 "cosmo_repulsion_energy": 1.19, 
			 "cosmo_total_nonelectrostatic_energy": 5.68, 
			 "SMD_solvation_energy": 3.51 
		},
		"coords": [
			{
				"x": -0.4821393235,
				"y": 1.4911013146,
				"z": 1.4829195442,
				"element": "N" 
			},
			{
				"x": -0.448184502,
				"y": 1.4183073662,
				"z": 0.0789070627,
				"element": "C" 
			},
			{
				"x": -1.0219462305,
				"y": 2.4302013057,
				"z": -0.7094383823,
				"element": "C" 
			},
			{
				"x": -0.9375497857,
				"y": 2.396305804,
				"z": -2.0978674182,
				"element": "C" 
			},
			{
				"x": -0.2739024544,
				"y": 1.3458347167,
				"z": -2.7385005489,
				"element": "C" 
			},
			{
				"x": -0.224751508,
				"y": 1.3633000917,
				"z": -4.1109884641,
				"element": "O" 
			},
			{
				"x": 0.3009839617,
				"y": 0.3335864763,
				"z": -1.9670539229,
				"element": "C" 
			},
			{
				"x": 0.214621903,
				"y": 0.3701802874,
				"z": -0.5748101435,
				"element": "C" 
			},
			{
				"x": -0.4139877802,
				"y": 0.5921447351,
				"z": 1.9424208173,
				"element": "H" 
			},
			{
				"x": -1.2673747878,
				"y": 2.0153728667,
				"z": 1.8468928786,
				"element": "H" 
			},
			{
				"x": -1.5372083785,
				"y": 3.2568658053,
				"z": -0.2260220124,
				"element": "H" 
			},
			{
				"x": -1.3847708748,
				"y": 3.1797459338,
				"z": -2.7011437526,
				"element": "H" 
			},
			{
				"x": 0.2668123964,
				"y": 0.5898332762,
				"z": -4.414552182,
				"element": "H" 
			},
			{
				"x": 0.8188180872,
				"y": -0.4927869016,
				"z": -2.4505192551,
				"element": "H" 
			},
			{
				"x": 0.672679277,
				"y": -0.4240930781,
				"z": 0.0096557791,
				"element": "H" 
			}
		],
		 "valence_orbital": [ 
			{
				"type": "occ",
				"energy": -0.35103,
				"method": "rhf"
			},
			{
				"type": "occ",
				"energy": -0.33109,
				"method": "rhf"
			},
			{
				"type": "occ",
				"energy": -0.27739,
				"method": "rhf"
			},
			{
				"type": "occ",
				"energy": -0.24423,
				"method": "rhf"
			},
			{
				"type": "occ",
				"energy": -0.183,
				"method": "rhf"
			},
			{
				"type": "unocc",
				"energy": 0.00413,
				"method": "rhf"
			},
			{
				"type": "unocc",
				"energy": 0.03487,
				"method": "rhf"
			},
			{
				"type": "unocc",
				"energy": 0.07706,
				"method": "rhf"
			},
			{
				"type": "unocc",
				"energy": 0.08698,
				"method": "rhf"
			},
			{
				"type": "unocc",
				"energy": 0.10765,
				"method": "rhf"
			}
		],
		"cosmo_sigma_profile": { 
			"-0.025": 0.0,
			"-0.024": 0.0,
			"-0.023": 0.0,
			"-0.022": 0.0,
			"-0.021": 0.0,
			"-0.02": 0.0,
			"-0.019": 0.0,
			"-0.018": 0.0,
			"-0.017": 0.708007385652,
			"-0.016": 1.09141744134,
			"-0.015": 0.894201577759,
			"-0.014": 1.30419496128,
			"-0.013": 0.930694426258,
			"-0.012": 2.04767840059,
			"-0.011": 3.44806494907,
			"-0.01": 4.43336424811,
			"-0.009": 3.34344077168,
			"-0.008": 3.82384720698,
			"-0.007": 4.4488226447,
			"-0.006": 7.26990375863,
			"-0.005": 7.93557450772,
			"-0.004": 8.59188328495,
			"-0.003": 7.84927959054,
			"-0.002": 5.87103269024,
			"-0.001": 5.05722722483,
			"0.0": 5.94444102271,
			"0.001": 6.40504543676,
			"0.002": 5.57315656229,
			"0.003": 5.80908686103,
			"0.004": 7.81199795056,
			"0.005": 11.2519729129,
			"0.006": 10.9907870669,
			"0.007": 10.4725354604,
			"0.008": 1.89576557169,
			"0.009": 2.8777959158,
			"0.01": 2.01031510933,
			"0.011": 2.59688899271,
			"0.012": 2.62519771104,
			"0.013": 1.18257102938,
			"0.014": 0.814878747481,
			"0.015": 0.588170172655,
			"0.016": 0.427278547843,
			"0.017": 0.020077213117,
			"0.018": 0.0,
			"0.019": 0.0,
			"0.02": 0.0,
			"0.021": 0.0,
			"0.022": 0.0,
			"0.023": 0.0,
			"0.024": 0.0,
			"0.025": 0.0
		}
	}
}
