{
	 "smiles": "NNC(N)=S", 
	 "Tm": 456.15, 
	 "num_atms": 10, 
	 "gaussian": { 
		 "optdone": 1, 
		 "sigma_profile": "yes", 
		 "theory": "DFT", 
		 "functional": "B3LYP", 
		 "basiset": "6-31G**", 
		 "properties": { 
			 "R2extent": 1000.902, 
			 "electric_dipole_moment_norm": 5.59168057832, 
			 "electric_quadrupole_moment_norm": 11.650530269, 
			 "total_energy": -603.539996299, 
			 "HOMO_LUMO_gap": 0.2045, 
			 "cosmo_polarized_energy": -21.39, 
			 "cosmo_cavitation_energy": 15.54, 
			 "cosmo_dispersion_energy": -12.29, 
			 "cosmo_repulsion_energy": 1.06, 
			 "cosmo_total_nonelectrostatic_energy": 4.3, 
			 "SMD_solvation_energy": 2.51 
		},
		"coords": [
			{
				"x": 1.1936432002,
				"y": -1.0122532792,
				"z": -0.3788890867,
				"element": "N" 
			},
			{
				"x": 1.5288241414,
				"y": -0.0617331017,
				"z": 0.5927569458,
				"element": "N" 
			},
			{
				"x": 0.6497167436,
				"y": 0.668030172,
				"z": 1.3388875948,
				"element": "C" 
			},
			{
				"x": -0.6569331226,
				"y": 0.2987891357,
				"z": 1.2396847018,
				"element": "N" 
			},
			{
				"x": 1.1682390758,
				"y": 1.9508696125,
				"z": 2.289158353,
				"element": "S" 
			},
			{
				"x": 0.4909186129,
				"y": -0.6506898525,
				"z": -1.0205362601,
				"element": "H" 
			},
			{
				"x": 0.8683218192,
				"y": -1.8753942734,
				"z": 0.0497882299,
				"element": "H" 
			},
			{
				"x": 2.4769960799,
				"y": 0.2849825368,
				"z": 0.5622956388,
				"element": "H" 
			},
			{
				"x": -1.2879129524,
				"y": 0.7351960758,
				"z": 1.8932427383,
				"element": "H" 
			},
			{
				"x": -0.9092135981,
				"y": -0.6077970259,
				"z": 0.8735111445,
				"element": "H" 
			}
		],
		 "valence_orbital": [ 
			{
				"type": "occ",
				"energy": -0.36712,
				"method": "rhf"
			},
			{
				"type": "occ",
				"energy": -0.29879,
				"method": "rhf"
			},
			{
				"type": "occ",
				"energy": -0.28302,
				"method": "rhf"
			},
			{
				"type": "occ",
				"energy": -0.2128,
				"method": "rhf"
			},
			{
				"type": "occ",
				"energy": -0.20521,
				"method": "rhf"
			},
			{
				"type": "unocc",
				"energy": -0.00071,
				"method": "rhf"
			},
			{
				"type": "unocc",
				"energy": 0.03763,
				"method": "rhf"
			},
			{
				"type": "unocc",
				"energy": 0.07774,
				"method": "rhf"
			},
			{
				"type": "unocc",
				"energy": 0.10094,
				"method": "rhf"
			},
			{
				"type": "unocc",
				"energy": 0.12561,
				"method": "rhf"
			}
		],
		"cosmo_sigma_profile": { 
			"-0.025": 0.0,
			"-0.024": 0.0,
			"-0.023": 0.0,
			"-0.022": 0.0,
			"-0.021": 0.0,
			"-0.02": 0.0,
			"-0.019": 0.0,
			"-0.018": 0.0,
			"-0.017": 0.0,
			"-0.016": 0.0837450759615,
			"-0.015": 2.15307307537,
			"-0.014": 3.79897822204,
			"-0.013": 6.01174214813,
			"-0.012": 7.13524126573,
			"-0.011": 4.59860433176,
			"-0.01": 3.81806287574,
			"-0.009": 3.75841493657,
			"-0.008": 3.65766929649,
			"-0.007": 3.48541971797,
			"-0.006": 3.66298977236,
			"-0.005": 2.91773622723,
			"-0.004": 2.61953782198,
			"-0.003": 3.48236313291,
			"-0.002": 3.31454491964,
			"-0.001": 3.77184709845,
			"0.0": 3.25441965059,
			"0.001": 3.39973837753,
			"0.002": 4.55175192031,
			"0.003": 3.13750060884,
			"0.004": 4.27245139548,
			"0.005": 4.8276430808,
			"0.006": 4.39589656323,
			"0.007": 3.90494184112,
			"0.008": 4.57496908795,
			"0.009": 4.2497771068,
			"0.01": 5.48511999932,
			"0.011": 6.47147147623,
			"0.012": 8.93543500104,
			"0.013": 3.93806172881,
			"0.014": 0.403454476015,
			"0.015": 0.439171976433,
			"0.016": 0.0798606221761,
			"0.017": 0.0,
			"0.018": 0.0,
			"0.019": 0.0,
			"0.02": 0.0,
			"0.021": 0.0,
			"0.022": 0.0,
			"0.023": 0.0,
			"0.024": 0.0,
			"0.025": 0.0
		}
	}
}
