{
	 "smiles": "OC(=O)C(C(F)(F)F)C(F)(F)F", 
	 "Tm": 325.15, 
	 "num_atms": 14, 
	 "gaussian": { 
		 "optdone": 1, 
		 "sigma_profile": "yes", 
		 "theory": "DFT", 
		 "functional": "B3LYP", 
		 "basiset": "6-31G**", 
		 "properties": { 
			 "R2extent": 1772.1487, 
			 "electric_dipole_moment_norm": 1.08305204861, 
			 "electric_quadrupole_moment_norm": 8.05719657201, 
			 "total_energy": -903.135036553, 
			 "HOMO_LUMO_gap": 0.27926, 
			 "cosmo_polarized_energy": -8.81, 
			 "cosmo_cavitation_energy": 21.44, 
			 "cosmo_dispersion_energy": -14.68, 
			 "cosmo_repulsion_energy": 1.09, 
			 "cosmo_total_nonelectrostatic_energy": 7.85, 
			 "SMD_solvation_energy": 7.22 
		},
		"coords": [
			{
				"x": 1.8927812379,
				"y": 1.8040031098,
				"z": 0.3169255184,
				"element": "O" 
			},
			{
				"x": 1.0194018285,
				"y": 1.8743838682,
				"z": -0.7022063286,
				"element": "C" 
			},
			{
				"x": 0.990955152,
				"y": 2.7620754887,
				"z": -1.517782831,
				"element": "O" 
			},
			{
				"x": 0.0519105672,
				"y": 0.6869844114,
				"z": -0.7133368182,
				"element": "C" 
			},
			{
				"x": 0.7786382577,
				"y": -0.6418829381,
				"z": -0.9512290843,
				"element": "C" 
			},
			{
				"x": 1.5877292555,
				"y": -0.5188854924,
				"z": -2.0241654892,
				"element": "F" 
			},
			{
				"x": -0.1038272687,
				"y": -1.6234963127,
				"z": -1.2084714289,
				"element": "F" 
			},
			{
				"x": 1.52879653,
				"y": -1.0218063673,
				"z": 0.0915679229,
				"element": "F" 
			},
			{
				"x": -0.8441378705,
				"y": 0.6660322352,
				"z": 0.5305945945,
				"element": "C" 
			},
			{
				"x": -1.3955713285,
				"y": 1.8858605774,
				"z": 0.7003921959,
				"element": "F" 
			},
			{
				"x": -1.8424526022,
				"y": -0.2221398086,
				"z": 0.3787367508,
				"element": "F" 
			},
			{
				"x": -0.1780943757,
				"y": 0.3534313665,
				"z": 1.6500358583,
				"element": "F" 
			},
			{
				"x": 2.4649378637,
				"y": 2.5880516537,
				"z": 0.251007825,
				"element": "H" 
			},
			{
				"x": -0.604867247,
				"y": 0.8436882082,
				"z": -1.5707686856,
				"element": "H" 
			}
		],
		 "valence_orbital": [ 
			{
				"type": "occ",
				"energy": -0.41561,
				"method": "rhf"
			},
			{
				"type": "occ",
				"energy": -0.40786,
				"method": "rhf"
			},
			{
				"type": "occ",
				"energy": -0.38978,
				"method": "rhf"
			},
			{
				"type": "occ",
				"energy": -0.34873,
				"method": "rhf"
			},
			{
				"type": "occ",
				"energy": -0.30812,
				"method": "rhf"
			},
			{
				"type": "unocc",
				"energy": -0.02886,
				"method": "rhf"
			},
			{
				"type": "unocc",
				"energy": 0.05173,
				"method": "rhf"
			},
			{
				"type": "unocc",
				"energy": 0.08446,
				"method": "rhf"
			},
			{
				"type": "unocc",
				"energy": 0.09651,
				"method": "rhf"
			},
			{
				"type": "unocc",
				"energy": 0.13058,
				"method": "rhf"
			}
		],
		"cosmo_sigma_profile": { 
			"-0.025": 0.0,
			"-0.024": 0.0,
			"-0.023": 0.0,
			"-0.022": 0.0,
			"-0.021": 0.0,
			"-0.02": 0.464762054633,
			"-0.019": 1.23610325133,
			"-0.018": 1.01421114278,
			"-0.017": 0.771199377684,
			"-0.016": 0.858846544016,
			"-0.015": 0.365512099981,
			"-0.014": 0.519343557081,
			"-0.013": 1.18517659159,
			"-0.012": 2.95862138452,
			"-0.011": 2.5817891151,
			"-0.01": 1.75065488484,
			"-0.009": 2.31438773062,
			"-0.008": 2.11396741344,
			"-0.007": 2.07892435293,
			"-0.006": 1.61128181611,
			"-0.005": 1.99252440307,
			"-0.004": 3.51734521289,
			"-0.003": 5.59668717319,
			"-0.002": 7.50535060717,
			"-0.001": 9.1192874024,
			"0.0": 12.8747844716,
			"0.001": 33.3183574732,
			"0.002": 46.0163492024,
			"0.003": 5.64224770901,
			"0.004": 3.6502753948,
			"0.005": 3.20460329564,
			"0.006": 3.82456680472,
			"0.007": 2.66624451485,
			"0.008": 1.54854903798,
			"0.009": 3.11365034584,
			"0.01": 4.88629793323,
			"0.011": 0.897152920259,
			"0.012": 0.0,
			"0.013": 0.0,
			"0.014": 0.0,
			"0.015": 0.0,
			"0.016": 0.0,
			"0.017": 0.0,
			"0.018": 0.0,
			"0.019": 0.0,
			"0.02": 0.0,
			"0.021": 0.0,
			"0.022": 0.0,
			"0.023": 0.0,
			"0.024": 0.0,
			"0.025": 0.0
		}
	}
}
