{
	 "smiles": "CC(C)CN1C(S)=NC2=C(C(=CS2)C2=CC=CS2)C1=O", 
	 "Tm": 510.15, 
	 "num_atms": 34, 
	 "gaussian": { 
		 "optdone": 1, 
		 "sigma_profile": "yes", 
		 "theory": "DFT", 
		 "functional": "B3LYP", 
		 "basiset": "6-31G**", 
		 "properties": { 
			 "R2extent": 8026.2239, 
			 "electric_dipole_moment_norm": 1.89521315424, 
			 "electric_quadrupole_moment_norm": 11.4394239081, 
			 "total_energy": -1921.21973902, 
			 "HOMO_LUMO_gap": 0.15454, 
			 "cosmo_polarized_energy": -10.32, 
			 "cosmo_cavitation_energy": 40.37, 
			 "cosmo_dispersion_energy": -30.32, 
			 "cosmo_repulsion_energy": 2.16, 
			 "cosmo_total_nonelectrostatic_energy": 12.22, 
			 "SMD_solvation_energy": 4.81 
		},
		"coords": [
			{
				"x": 1.3846234835,
				"y": 2.4321780511,
				"z": -1.6151134659,
				"element": "C" 
			},
			{
				"x": 1.1740964751,
				"y": 3.2507977605,
				"z": -0.332541179,
				"element": "C" 
			},
			{
				"x": -0.1079807513,
				"y": 4.0897107501,
				"z": -0.4298480918,
				"element": "C" 
			},
			{
				"x": 1.2780129453,
				"y": 2.4118370066,
				"z": 0.964958985,
				"element": "C" 
			},
			{
				"x": 0.2642608281,
				"y": 1.3448782577,
				"z": 1.1419769174,
				"element": "N" 
			},
			{
				"x": -0.876194621,
				"y": 1.5211380547,
				"z": 1.8861504109,
				"element": "C" 
			},
			{
				"x": -1.1088019211,
				"y": 3.0733396022,
				"z": 2.7434158084,
				"element": "S" 
			},
			{
				"x": -1.7976344699,
				"y": 0.6135476334,
				"z": 2.0519400648,
				"element": "N" 
			},
			{
				"x": -1.5615955787,
				"y": -0.5814321934,
				"z": 1.4596429227,
				"element": "C" 
			},
			{
				"x": -0.4221602625,
				"y": -0.9490239277,
				"z": 0.746911923,
				"element": "C" 
			},
			{
				"x": -0.4642290224,
				"y": -2.3322117374,
				"z": 0.2988215516,
				"element": "C" 
			},
			{
				"x": -1.6450242607,
				"y": -2.9230723384,
				"z": 0.6828599956,
				"element": "C" 
			},
			{
				"x": -2.7056886495,
				"y": -1.8886033397,
				"z": 1.5910758673,
				"element": "S" 
			},
			{
				"x": 0.5536629689,
				"y": -3.0720392058,
				"z": -0.4546076175,
				"element": "C" 
			},
			{
				"x": 1.4658483969,
				"y": -2.6455834409,
				"z": -1.3917512628,
				"element": "C" 
			},
			{
				"x": 2.2346093472,
				"y": -3.7029568394,
				"z": -1.9585472782,
				"element": "C" 
			},
			{
				"x": 1.9142004841,
				"y": -4.9318327681,
				"z": -1.4509512251,
				"element": "C" 
			},
			{
				"x": 0.6654270961,
				"y": -4.8170359014,
				"z": -0.257071366,
				"element": "S" 
			},
			{
				"x": 0.6172343464,
				"y": 0.0509468413,
				"z": 0.6027665436,
				"element": "C" 
			},
			{
				"x": 1.7164180529,
				"y": -0.090173901,
				"z": 0.0822807524,
				"element": "O" 
			},
			{
				"x": 0.5511697596,
				"y": 1.743364956,
				"z": -1.7886410972,
				"element": "H" 
			},
			{
				"x": 1.4393857103,
				"y": 3.1042880415,
				"z": -2.4781397862,
				"element": "H" 
			},
			{
				"x": 2.2999114963,
				"y": 1.8385102039,
				"z": -1.5738776837,
				"element": "H" 
			},
			{
				"x": 2.0200635997,
				"y": 3.9491449989,
				"z": -0.2460690667,
				"element": "H" 
			},
			{
				"x": -0.2294457696,
				"y": 4.7608249764,
				"z": 0.4251969788,
				"element": "H" 
			},
			{
				"x": -0.9992757768,
				"y": 3.4553946779,
				"z": -0.4877805963,
				"element": "H" 
			},
			{
				"x": -0.0854504827,
				"y": 4.7031026742,
				"z": -1.3365612036,
				"element": "H" 
			},
			{
				"x": 1.2228961375,
				"y": 3.0685929405,
				"z": 1.837266319,
				"element": "H" 
			},
			{
				"x": 2.2434239832,
				"y": 1.9048928256,
				"z": 0.9864691041,
				"element": "H" 
			},
			{
				"x": -2.2263655297,
				"y": 2.6245804173,
				"z": 3.3432554737,
				"element": "H" 
			},
			{
				"x": -1.9636327202,
				"y": -3.9298197648,
				"z": 0.4521877115,
				"element": "H" 
			},
			{
				"x": 1.5899665086,
				"y": -1.6035226391,
				"z": -1.6482002352,
				"element": "H" 
			},
			{
				"x": 2.9985803883,
				"y": -3.5501719568,
				"z": -2.7125219691,
				"element": "H" 
			},
			{
				"x": 2.3445878081,
				"y": -5.893790716,
				"z": -1.6926542055,
				"element": "H" 
			}
		],
		 "valence_orbital": [ 
			{
				"type": "occ",
				"energy": -0.27401,
				"method": "rhf"
			},
			{
				"type": "occ",
				"energy": -0.26948,
				"method": "rhf"
			},
			{
				"type": "occ",
				"energy": -0.24422,
				"method": "rhf"
			},
			{
				"type": "occ",
				"energy": -0.23405,
				"method": "rhf"
			},
			{
				"type": "occ",
				"energy": -0.20327,
				"method": "rhf"
			},
			{
				"type": "unocc",
				"energy": -0.04873,
				"method": "rhf"
			},
			{
				"type": "unocc",
				"energy": -0.0327,
				"method": "rhf"
			},
			{
				"type": "unocc",
				"energy": -0.00948,
				"method": "rhf"
			},
			{
				"type": "unocc",
				"energy": -0.00397,
				"method": "rhf"
			},
			{
				"type": "unocc",
				"energy": 0.01897,
				"method": "rhf"
			}
		],
		"cosmo_sigma_profile": { 
			"-0.025": 0.0,
			"-0.024": 0.0,
			"-0.023": 0.0,
			"-0.022": 0.0,
			"-0.021": 0.0,
			"-0.02": 0.0,
			"-0.019": 0.0,
			"-0.018": 0.0,
			"-0.017": 0.0,
			"-0.016": 0.0,
			"-0.015": 0.0,
			"-0.014": 0.0,
			"-0.013": 0.02481190475,
			"-0.012": 0.962340886529,
			"-0.011": 1.30370936499,
			"-0.01": 1.13796333593,
			"-0.009": 2.75204087374,
			"-0.008": 4.88037400039,
			"-0.007": 5.42511893892,
			"-0.006": 8.23377454071,
			"-0.005": 10.9050836009,
			"-0.004": 20.8446283817,
			"-0.003": 32.0739613207,
			"-0.002": 27.8202920599,
			"-0.001": 28.9718254493,
			"0.0": 32.1056357635,
			"0.001": 39.3032990133,
			"0.002": 31.8031487957,
			"0.003": 23.834504514,
			"0.004": 19.895993735,
			"0.005": 14.2895077966,
			"0.006": 6.96915066503,
			"0.007": 3.30023994653,
			"0.008": 2.09168131366,
			"0.009": 3.01038095958,
			"0.01": 2.41118390087,
			"0.011": 1.60048017692,
			"0.012": 2.28799126014,
			"0.013": 0.251196487779,
			"0.014": 0.0,
			"0.015": 0.0,
			"0.016": 0.0,
			"0.017": 0.0,
			"0.018": 0.0,
			"0.019": 0.0,
			"0.02": 0.0,
			"0.021": 0.0,
			"0.022": 0.0,
			"0.023": 0.0,
			"0.024": 0.0,
			"0.025": 0.0
		}
	}
}
