{
	 "smiles": "CCCCC(C=C1C2CCC(C)(C1=O)C2(C)C)(C=C1C2CCC(C)(C1=O)C2(C)C)C(=O)OCC", 
	 "Tm": 448.15, 
	 "num_atms": 78, 
	 "gaussian": { 
		 "optdone": 1, 
		 "sigma_profile": "yes", 
		 "theory": "DFT", 
		 "functional": "B3LYP", 
		 "basiset": "6-31G**", 
		 "properties": { 
			 "R2extent": 17038.6041, 
			 "electric_dipole_moment_norm": 3.73927443363, 
			 "electric_quadrupole_moment_norm": 29.9937552949, 
			 "total_energy": -1470.61073718, 
			 "HOMO_LUMO_gap": 0.16857, 
			 "cosmo_polarized_energy": -16.47, 
			 "cosmo_cavitation_energy": 71.48, 
			 "cosmo_dispersion_energy": -42.12, 
			 "cosmo_repulsion_energy": 3.16, 
			 "cosmo_total_nonelectrostatic_energy": 32.52, 
			 "SMD_solvation_energy": 12.65 
		},
		"coords": [
			{
				"x": -2.4765325499,
				"y": 4.5685752827,
				"z": -0.8253639844,
				"element": "C" 
			},
			{
				"x": -1.1139258501,
				"y": 3.9324042709,
				"z": -0.5330646608,
				"element": "C" 
			},
			{
				"x": -1.0780390163,
				"y": 2.4247744944,
				"z": -0.8186449705,
				"element": "C" 
			},
			{
				"x": 0.2930458199,
				"y": 1.8055788614,
				"z": -0.5244754879,
				"element": "C" 
			},
			{
				"x": 0.4000815982,
				"y": 0.2682803372,
				"z": -0.7883945673,
				"element": "C" 
			},
			{
				"x": 1.8504127049,
				"y": -0.1707616811,
				"z": -0.5699555809,
				"element": "C" 
			},
			{
				"x": 2.3777950384,
				"y": -1.3853309646,
				"z": -0.7716518807,
				"element": "C" 
			},
			{
				"x": 1.7958845129,
				"y": -2.723353543,
				"z": -1.1858461811,
				"element": "C" 
			},
			{
				"x": 1.897528143,
				"y": -3.635815818,
				"z": 0.0718415593,
				"element": "C" 
			},
			{
				"x": 3.4309880659,
				"y": -3.8805625914,
				"z": 0.2077853907,
				"element": "C" 
			},
			{
				"x": 4.0522040413,
				"y": -3.1194422766,
				"z": -1.0103577637,
				"element": "C" 
			},
			{
				"x": 5.4878567139,
				"y": -3.4880972448,
				"z": -1.3378145815,
				"element": "C" 
			},
			{
				"x": 3.8533557418,
				"y": -1.6405039861,
				"z": -0.6371639202,
				"element": "C" 
			},
			{
				"x": 4.7164484152,
				"y": -0.8495422355,
				"z": -0.3042471477,
				"element": "O" 
			},
			{
				"x": 2.934213739,
				"y": -3.2920595512,
				"z": -2.105281036,
				"element": "C" 
			},
			{
				"x": 3.1724849909,
				"y": -2.4458229547,
				"z": -3.3684157436,
				"element": "C" 
			},
			{
				"x": 2.7031703366,
				"y": -4.7445519929,
				"z": -2.5528174586,
				"element": "C" 
			},
			{
				"x": -0.6062867722,
				"y": -0.504042649,
				"z": 0.0572484183,
				"element": "C" 
			},
			{
				"x": -0.6624787998,
				"y": -0.6278015622,
				"z": 1.3930662947,
				"element": "C" 
			},
			{
				"x": -1.7349785309,
				"y": -1.3601472774,
				"z": 2.1875344137,
				"element": "C" 
			},
			{
				"x": -1.0787195202,
				"y": -2.6605791073,
				"z": 2.726770282,
				"element": "C" 
			},
			{
				"x": -0.0613808287,
				"y": -2.1179943349,
				"z": 3.7756191267,
				"element": "C" 
			},
			{
				"x": -0.3028335589,
				"y": -0.5692859417,
				"z": 3.786578319,
				"element": "C" 
			},
			{
				"x": 0.2675266302,
				"y": 0.162459981,
				"z": 4.9883715399,
				"element": "C" 
			},
			{
				"x": 0.2778062794,
				"y": -0.1062183442,
				"z": 2.4401601612,
				"element": "C" 
			},
			{
				"x": 1.3006297867,
				"y": 0.5389249099,
				"z": 2.2821735441,
				"element": "O" 
			},
			{
				"x": -1.8436312081,
				"y": -0.476267698,
				"z": 3.477736606,
				"element": "C" 
			},
			{
				"x": -2.3315593383,
				"y": 0.9565095531,
				"z": 3.1986488755,
				"element": "C" 
			},
			{
				"x": -2.7461810793,
				"y": -1.0702324929,
				"z": 4.5714621079,
				"element": "C" 
			},
			{
				"x": 0.0739708273,
				"y": 0.002501325,
				"z": -2.2786165978,
				"element": "C" 
			},
			{
				"x": -0.7416801457,
				"y": -0.7957443844,
				"z": -2.6953495775,
				"element": "O" 
			},
			{
				"x": 0.8251175874,
				"y": 0.7737324115,
				"z": -3.0859413798,
				"element": "O" 
			},
			{
				"x": 0.616895958,
				"y": 0.6047374862,
				"z": -4.5088416751,
				"element": "C" 
			},
			{
				"x": 1.532783802,
				"y": 1.5815423227,
				"z": -5.2206271499,
				"element": "C" 
			},
			{
				"x": -2.4703897205,
				"y": 5.6426046253,
				"z": -0.61275465,
				"element": "H" 
			},
			{
				"x": -3.2657070843,
				"y": 4.1134900118,
				"z": -0.2159277601,
				"element": "H" 
			},
			{
				"x": -2.7573285268,
				"y": 4.4393775216,
				"z": -1.8769843495,
				"element": "H" 
			},
			{
				"x": -0.8443068412,
				"y": 4.1075131225,
				"z": 0.517147996,
				"element": "H" 
			},
			{
				"x": -0.3397451054,
				"y": 4.432209537,
				"z": -1.1307884495,
				"element": "H" 
			},
			{
				"x": -1.8503571604,
				"y": 1.9254676682,
				"z": -0.2189839746,
				"element": "H" 
			},
			{
				"x": -1.3503143305,
				"y": 2.2557269078,
				"z": -1.8700943735,
				"element": "H" 
			},
			{
				"x": 1.0540001443,
				"y": 2.2973240351,
				"z": -1.1394275875,
				"element": "H" 
			},
			{
				"x": 0.5708428455,
				"y": 1.9690182624,
				"z": 0.5200187365,
				"element": "H" 
			},
			{
				"x": 2.5423378536,
				"y": 0.6101262743,
				"z": -0.2632049255,
				"element": "H" 
			},
			{
				"x": 0.8026969624,
				"y": -2.6828718555,
				"z": -1.6371488326,
				"element": "H" 
			},
			{
				"x": 1.476124686,
				"y": -3.1445015255,
				"z": 0.9513563208,
				"element": "H" 
			},
			{
				"x": 1.3485027473,
				"y": -4.5707345849,
				"z": -0.0751731144,
				"element": "H" 
			},
			{
				"x": 3.836970334,
				"y": -3.5105674753,
				"z": 1.1543234633,
				"element": "H" 
			},
			{
				"x": 3.683031016,
				"y": -4.9441017873,
				"z": 0.1488798499,
				"element": "H" 
			},
			{
				"x": 5.5920986631,
				"y": -4.5618114321,
				"z": -1.5260116813,
				"element": "H" 
			},
			{
				"x": 5.8492212928,
				"y": -2.9475134173,
				"z": -2.218270261,
				"element": "H" 
			},
			{
				"x": 6.1451623488,
				"y": -3.2189674655,
				"z": -0.505424245,
				"element": "H" 
			},
			{
				"x": 3.3205284512,
				"y": -1.3848823337,
				"z": -3.149213826,
				"element": "H" 
			},
			{
				"x": 4.052963231,
				"y": -2.8013129573,
				"z": -3.9143989191,
				"element": "H" 
			},
			{
				"x": 2.3136392145,
				"y": -2.5295556691,
				"z": -4.0444394655,
				"element": "H" 
			},
			{
				"x": 3.5531912075,
				"y": -5.1023480436,
				"z": -3.1440199887,
				"element": "H" 
			},
			{
				"x": 2.5616704658,
				"y": -5.4438045243,
				"z": -1.7264563028,
				"element": "H" 
			},
			{
				"x": 1.8140765533,
				"y": -4.8037325033,
				"z": -3.1910925711,
				"element": "H" 
			},
			{
				"x": -1.3941875859,
				"y": -0.9786609555,
				"z": -0.5245141729,
				"element": "H" 
			},
			{
				"x": -2.6684016572,
				"y": -1.5173331059,
				"z": 1.6397968494,
				"element": "H" 
			},
			{
				"x": -1.8227459082,
				"y": -3.3167888966,
				"z": 3.1875500057,
				"element": "H" 
			},
			{
				"x": -0.6000588962,
				"y": -3.2287344301,
				"z": 1.9257988869,
				"element": "H" 
			},
			{
				"x": -0.2443940339,
				"y": -2.5274397541,
				"z": 4.7739246614,
				"element": "H" 
			},
			{
				"x": 0.9774286442,
				"y": -2.3543733453,
				"z": 3.5238333584,
				"element": "H" 
			},
			{
				"x": 0.0372846985,
				"y": 1.231840947,
				"z": 4.9526398972,
				"element": "H" 
			},
			{
				"x": 1.3575897665,
				"y": 0.0697492524,
				"z": 5.0056351477,
				"element": "H" 
			},
			{
				"x": -0.127409361,
				"y": -0.2438714817,
				"z": 5.9251726263,
				"element": "H" 
			},
			{
				"x": -2.2954661614,
				"y": 1.5621772921,
				"z": 4.1103884702,
				"element": "H" 
			},
			{
				"x": -3.3723808941,
				"y": 0.9434766802,
				"z": 2.8559274141,
				"element": "H" 
			},
			{
				"x": -1.7414371955,
				"y": 1.4715037443,
				"z": 2.436006859,
				"element": "H" 
			},
			{
				"x": -3.7825316712,
				"y": -1.119495226,
				"z": 4.2177997934,
				"element": "H" 
			},
			{
				"x": -2.7366040672,
				"y": -0.4322767629,
				"z": 5.4616925134,
				"element": "H" 
			},
			{
				"x": -2.457398421,
				"y": -2.0749161742,
				"z": 4.8857720869,
				"element": "H" 
			},
			{
				"x": 0.8366359783,
				"y": -0.4339224773,
				"z": -4.7740205424,
				"element": "H" 
			},
			{
				"x": -0.4383879149,
				"y": 0.7873608776,
				"z": -4.7339303296,
				"element": "H" 
			},
			{
				"x": 2.580394333,
				"y": 1.3848063547,
				"z": -4.976186066,
				"element": "H" 
			},
			{
				"x": 1.3009855176,
				"y": 2.6125078603,
				"z": -4.9384189686,
				"element": "H" 
			},
			{
				"x": 1.4071020469,
				"y": 1.4844746055,
				"z": -6.303504873,
				"element": "H" 
			}
		],
		 "valence_orbital": [ 
			{
				"type": "occ",
				"energy": -0.27808,
				"method": "rhf"
			},
			{
				"type": "occ",
				"energy": -0.25821,
				"method": "rhf"
			},
			{
				"type": "occ",
				"energy": -0.24467,
				"method": "rhf"
			},
			{
				"type": "occ",
				"energy": -0.22994,
				"method": "rhf"
			},
			{
				"type": "occ",
				"energy": -0.22387,
				"method": "rhf"
			},
			{
				"type": "unocc",
				"energy": -0.0553,
				"method": "rhf"
			},
			{
				"type": "unocc",
				"energy": -0.03845,
				"method": "rhf"
			},
			{
				"type": "unocc",
				"energy": 0.01075,
				"method": "rhf"
			},
			{
				"type": "unocc",
				"energy": 0.06225,
				"method": "rhf"
			},
			{
				"type": "unocc",
				"energy": 0.0655,
				"method": "rhf"
			}
		],
		"cosmo_sigma_profile": { 
			"-0.025": 0.0,
			"-0.024": 0.0,
			"-0.023": 0.0,
			"-0.022": 0.0,
			"-0.021": 0.0,
			"-0.02": 0.0,
			"-0.019": 0.0,
			"-0.018": 0.0,
			"-0.017": 0.0,
			"-0.016": 0.0,
			"-0.015": 0.0,
			"-0.014": 0.0,
			"-0.013": 0.0,
			"-0.012": 0.0,
			"-0.011": 0.0,
			"-0.01": 0.0,
			"-0.009": 0.0,
			"-0.008": 0.0,
			"-0.007": 0.0,
			"-0.006": 0.335891312556,
			"-0.005": 6.17237140361,
			"-0.004": 29.5891030877,
			"-0.003": 67.6058927929,
			"-0.002": 102.707634161,
			"-0.001": 99.7222474036,
			"0.0": 85.2662204501,
			"0.001": 68.2035244881,
			"0.002": 21.0091371374,
			"0.003": 8.4757570697,
			"0.004": 7.68978586041,
			"0.005": 7.15411867939,
			"0.006": 7.42762786595,
			"0.007": 5.78532881395,
			"0.008": 4.44673115955,
			"0.009": 5.30063879458,
			"0.01": 5.49386818304,
			"0.011": 7.70108111624,
			"0.012": 8.45297702243,
			"0.013": 3.44538643309,
			"0.014": 0.0126491564973,
			"0.015": 0.0,
			"0.016": 0.0,
			"0.017": 0.0,
			"0.018": 0.0,
			"0.019": 0.0,
			"0.02": 0.0,
			"0.021": 0.0,
			"0.022": 0.0,
			"0.023": 0.0,
			"0.024": 0.0,
			"0.025": 0.0
		}
	}
}
