{
	 "smiles": "CC1=CC=C(C)N1C1=C(SC=C1)C(O)=O", 
	 "Tm": 459.15, 
	 "num_atms": 26, 
	 "gaussian": { 
		 "optdone": 1, 
		 "sigma_profile": "yes", 
		 "theory": "DFT", 
		 "functional": "B3LYP", 
		 "basiset": "6-31G**", 
		 "properties": { 
			 "R2extent": 4074.1584, 
			 "electric_dipole_moment_norm": 1.74572297917, 
			 "electric_quadrupole_moment_norm": 12.5794961632, 
			 "total_energy": -1029.18208874, 
			 "HOMO_LUMO_gap": 0.12383, 
			 "cosmo_polarized_energy": -12.31, 
			 "cosmo_cavitation_energy": 31.55, 
			 "cosmo_dispersion_energy": -21.92, 
			 "cosmo_repulsion_energy": 1.69, 
			 "cosmo_total_nonelectrostatic_energy": 11.32, 
			 "SMD_solvation_energy": 7.08 
		},
		"coords": [
			{
				"x": -1.5581706943,
				"y": -1.9141138944,
				"z": 1.79249573,
				"element": "C" 
			},
			{
				"x": -1.9637021348,
				"y": -0.7030105884,
				"z": 1.0175034919,
				"element": "C" 
			},
			{
				"x": -3.1882504897,
				"y": -0.3317879414,
				"z": 0.5140247405,
				"element": "C" 
			},
			{
				"x": -3.035199981,
				"y": 0.9222998649,
				"z": -0.1471403977,
				"element": "C" 
			},
			{
				"x": -1.7169460113,
				"y": 1.3005579113,
				"z": -0.0462432035,
				"element": "C" 
			},
			{
				"x": -1.0173052305,
				"y": 2.5295314438,
				"z": -0.5305606228,
				"element": "C" 
			},
			{
				"x": -1.0584460438,
				"y": 0.3011288139,
				"z": 0.6726278127,
				"element": "N" 
			},
			{
				"x": 0.332133195,
				"y": 0.2811244403,
				"z": 0.9362072663,
				"element": "C" 
			},
			{
				"x": 0.9264482678,
				"y": 0.576246662,
				"z": 2.1546290447,
				"element": "C" 
			},
			{
				"x": 2.6584297579,
				"y": 0.4257468365,
				"z": 2.0616632757,
				"element": "S" 
			},
			{
				"x": 2.5756781503,
				"y": -0.0194871617,
				"z": 0.3979642382,
				"element": "C" 
			},
			{
				"x": 1.2886595281,
				"y": -0.0575681951,
				"z": -0.0672905995,
				"element": "C" 
			},
			{
				"x": 0.3731459713,
				"y": 1.0107243759,
				"z": 3.445939107,
				"element": "C" 
			},
			{
				"x": -0.9735069813,
				"y": 1.1101563465,
				"z": 3.4533801675,
				"element": "O" 
			},
			{
				"x": 1.0589184103,
				"y": 1.2624352982,
				"z": 4.4199980871,
				"element": "O" 
			},
			{
				"x": -2.4070033797,
				"y": -2.5988384422,
				"z": 1.8617941161,
				"element": "H" 
			},
			{
				"x": -1.2457021524,
				"y": -1.665659389,
				"z": 2.8137344436,
				"element": "H" 
			},
			{
				"x": -0.7299818475,
				"y": -2.4565377469,
				"z": 1.3198960592,
				"element": "H" 
			},
			{
				"x": -4.0991338907,
				"y": -0.906602783,
				"z": 0.6131890311,
				"element": "H" 
			},
			{
				"x": -3.8084885244,
				"y": 1.4946259717,
				"z": -0.6416014121,
				"element": "H" 
			},
			{
				"x": -0.2085106054,
				"y": 2.3084563798,
				"z": -1.2381750968,
				"element": "H" 
			},
			{
				"x": -1.7358425791,
				"y": 3.1754429982,
				"z": -1.0409245664,
				"element": "H" 
			},
			{
				"x": -0.5758823183,
				"y": 3.1058979964,
				"z": 0.2921253904,
				"element": "H" 
			},
			{
				"x": 3.4834573182,
				"y": -0.2403504366,
				"z": -0.146948754,
				"element": "H" 
			},
			{
				"x": 1.0069255683,
				"y": -0.3251908333,
				"z": -1.0785725154,
				"element": "H" 
			},
			{
				"x": -1.2108233027,
				"y": 1.4105720726,
				"z": 4.3467851662,
				"element": "H" 
			}
		],
		 "valence_orbital": [ 
			{
				"type": "occ",
				"energy": -0.28601,
				"method": "rhf"
			},
			{
				"type": "occ",
				"energy": -0.27084,
				"method": "rhf"
			},
			{
				"type": "occ",
				"energy": -0.25944,
				"method": "rhf"
			},
			{
				"type": "occ",
				"energy": -0.22805,
				"method": "rhf"
			},
			{
				"type": "occ",
				"energy": -0.18928,
				"method": "rhf"
			},
			{
				"type": "unocc",
				"energy": -0.06545,
				"method": "rhf"
			},
			{
				"type": "unocc",
				"energy": 0.01528,
				"method": "rhf"
			},
			{
				"type": "unocc",
				"energy": 0.0183,
				"method": "rhf"
			},
			{
				"type": "unocc",
				"energy": 0.04532,
				"method": "rhf"
			},
			{
				"type": "unocc",
				"energy": 0.07161,
				"method": "rhf"
			}
		],
		"cosmo_sigma_profile": { 
			"-0.025": 0.0,
			"-0.024": 0.0,
			"-0.023": 0.0,
			"-0.022": 0.0,
			"-0.021": 0.0,
			"-0.02": 0.0,
			"-0.019": 0.162223710855,
			"-0.018": 1.09302878296,
			"-0.017": 0.686787416253,
			"-0.016": 0.944594720814,
			"-0.015": 0.965664029677,
			"-0.014": 0.695157543264,
			"-0.013": 0.402890249852,
			"-0.012": 0.711178326367,
			"-0.011": 0.653124144482,
			"-0.01": 1.7134806799,
			"-0.009": 2.87462840226,
			"-0.008": 4.32021294173,
			"-0.007": 4.71493225886,
			"-0.006": 4.06013934925,
			"-0.005": 8.01714958618,
			"-0.004": 17.1099940013,
			"-0.003": 22.6883626594,
			"-0.002": 24.720173496,
			"-0.001": 25.0137943914,
			"0.0": 28.0911638607,
			"0.001": 21.8949604516,
			"0.002": 18.313061389,
			"0.003": 11.7911662169,
			"0.004": 8.03949643717,
			"0.005": 5.20633528768,
			"0.006": 6.74294797217,
			"0.007": 6.43073277093,
			"0.008": 5.95306954836,
			"0.009": 6.27518385937,
			"0.01": 4.69457156305,
			"0.011": 5.40758326095,
			"0.012": 2.7891122285,
			"0.013": 1.93218525912e-05,
			"0.014": 0.0,
			"0.015": 0.0,
			"0.016": 0.0,
			"0.017": 0.0,
			"0.018": 0.0,
			"0.019": 0.0,
			"0.02": 0.0,
			"0.021": 0.0,
			"0.022": 0.0,
			"0.023": 0.0,
			"0.024": 0.0,
			"0.025": 0.0
		}
	}
}
