{
	 "smiles": "CC1=CC=NC(N)=N1", 
	 "Tm": 433.15, 
	 "num_atms": 15, 
	 "gaussian": { 
		 "optdone": 1, 
		 "sigma_profile": "yes", 
		 "theory": "DFT", 
		 "functional": "B3LYP", 
		 "basiset": "6-31G**", 
		 "properties": { 
			 "R2extent": 984.8284, 
			 "electric_dipole_moment_norm": 0.871987671931, 
			 "electric_quadrupole_moment_norm": 7.25144210623, 
			 "total_energy": -359.023465034, 
			 "HOMO_LUMO_gap": 0.19774, 
			 "cosmo_polarized_energy": -8.87, 
			 "cosmo_cavitation_energy": 18.87, 
			 "cosmo_dispersion_energy": -14.39, 
			 "cosmo_repulsion_energy": 1.22, 
			 "cosmo_total_nonelectrostatic_energy": 5.69, 
			 "SMD_solvation_energy": 0.64 
		},
		"coords": [
			{
				"x": 0.711152624,
				"y": -0.5826405412,
				"z": -2.4063209923,
				"element": "C" 
			},
			{
				"x": 0.0668432972,
				"y": -0.4934133825,
				"z": -1.0476614338,
				"element": "C" 
			},
			{
				"x": 0.2851840445,
				"y": -1.4558761128,
				"z": -0.0551619032,
				"element": "C" 
			},
			{
				"x": -0.3768564886,
				"y": -1.2655068687,
				"z": 1.1563615512,
				"element": "C" 
			},
			{
				"x": -1.1772595863,
				"y": -0.2277264085,
				"z": 1.3989700531,
				"element": "N" 
			},
			{
				"x": -1.3070243912,
				"y": 0.6461081249,
				"z": 0.3786372672,
				"element": "C" 
			},
			{
				"x": -2.0850259638,
				"y": 1.7446392097,
				"z": 0.612814315,
				"element": "N" 
			},
			{
				"x": -0.7321650209,
				"y": 0.5602499259,
				"z": -0.834848149,
				"element": "N" 
			},
			{
				"x": 1.3484685353,
				"y": 0.2910757451,
				"z": -2.5782380844,
				"element": "H" 
			},
			{
				"x": -0.0553061743,
				"y": -0.5763630702,
				"z": -3.1878420516,
				"element": "H" 
			},
			{
				"x": 1.3167579568,
				"y": -1.4860984828,
				"z": -2.5103908205,
				"element": "H" 
			},
			{
				"x": 0.9290040973,
				"y": -2.3115342666,
				"z": -0.2221142125,
				"element": "H" 
			},
			{
				"x": -0.2622905636,
				"y": -1.9812049546,
				"z": 1.9700520635,
				"element": "H" 
			},
			{
				"x": -2.6878021548,
				"y": 1.7170830871,
				"z": 1.4192571673,
				"element": "H" 
			},
			{
				"x": -2.3683802115,
				"y": 2.2870079952,
				"z": -0.1871147699,
				"element": "H" 
			}
		],
		 "valence_orbital": [ 
			{
				"type": "occ",
				"energy": -0.31759,
				"method": "rhf"
			},
			{
				"type": "occ",
				"energy": -0.30037,
				"method": "rhf"
			},
			{
				"type": "occ",
				"energy": -0.29227,
				"method": "rhf"
			},
			{
				"type": "occ",
				"energy": -0.23879,
				"method": "rhf"
			},
			{
				"type": "occ",
				"energy": -0.22156,
				"method": "rhf"
			},
			{
				"type": "unocc",
				"energy": -0.02382,
				"method": "rhf"
			},
			{
				"type": "unocc",
				"energy": 0.01078,
				"method": "rhf"
			},
			{
				"type": "unocc",
				"energy": 0.09701,
				"method": "rhf"
			},
			{
				"type": "unocc",
				"energy": 0.11264,
				"method": "rhf"
			},
			{
				"type": "unocc",
				"energy": 0.12876,
				"method": "rhf"
			}
		],
		"cosmo_sigma_profile": { 
			"-0.025": 0.0,
			"-0.024": 0.0,
			"-0.023": 0.0,
			"-0.022": 0.0,
			"-0.021": 0.0,
			"-0.02": 0.0,
			"-0.019": 0.0,
			"-0.018": 0.0,
			"-0.017": 0.0,
			"-0.016": 0.0,
			"-0.015": 0.0,
			"-0.014": 0.298054949226,
			"-0.013": 1.85847911821,
			"-0.012": 1.88422419807,
			"-0.011": 1.73924330734,
			"-0.01": 2.26711921176,
			"-0.009": 2.30525959684,
			"-0.008": 1.17876214953,
			"-0.007": 2.71880499706,
			"-0.006": 6.22540198839,
			"-0.005": 10.3578018082,
			"-0.004": 10.3628306724,
			"-0.003": 9.77371106123,
			"-0.002": 9.19148271018,
			"-0.001": 13.5720969457,
			"0.0": 12.4358439184,
			"0.001": 11.4989354751,
			"0.002": 10.5235536719,
			"0.003": 8.05468297519,
			"0.004": 4.79164503041,
			"0.005": 4.10289643919,
			"0.006": 3.8795290857,
			"0.007": 3.74587422263,
			"0.008": 3.60584981833,
			"0.009": 2.2340943192,
			"0.01": 2.61882095075,
			"0.011": 1.90661425229,
			"0.012": 1.98822587499,
			"0.013": 1.57356548263,
			"0.014": 1.25896219682,
			"0.015": 1.44465465365,
			"0.016": 0.357205762749,
			"0.017": 0.0,
			"0.018": 0.0,
			"0.019": 0.0,
			"0.02": 0.0,
			"0.021": 0.0,
			"0.022": 0.0,
			"0.023": 0.0,
			"0.024": 0.0,
			"0.025": 0.0
		}
	}
}
