{
	 "smiles": "CC(O)(C(O)=O)C1=C2C=CC=CC2=CC=C1", 
	 "Tm": 419.15, 
	 "num_atms": 28, 
	 "gaussian": { 
		 "optdone": 1, 
		 "sigma_profile": "yes", 
		 "theory": "DFT", 
		 "functional": "B3LYP", 
		 "basiset": "6-31G**", 
		 "properties": { 
			 "R2extent": 3318.5517, 
			 "electric_dipole_moment_norm": 3.27149725967, 
			 "electric_quadrupole_moment_norm": 13.8440338496, 
			 "total_energy": -728.301003339, 
			 "HOMO_LUMO_gap": 0.17251, 
			 "cosmo_polarized_energy": -14.6, 
			 "cosmo_cavitation_energy": 30.4, 
			 "cosmo_dispersion_energy": -22.14, 
			 "cosmo_repulsion_energy": 1.69, 
			 "cosmo_total_nonelectrostatic_energy": 9.96, 
			 "SMD_solvation_energy": 6.21 
		},
		"coords": [
			{
				"x": 1.7218982556,
				"y": -1.5648041532,
				"z": 0.3957369968,
				"element": "C" 
			},
			{
				"x": 1.0395034197,
				"y": -0.3224029176,
				"z": 0.979132861,
				"element": "C" 
			},
			{
				"x": 2.020294097,
				"y": 0.4602501645,
				"z": 1.6978179839,
				"element": "O" 
			},
			{
				"x": -0.0351670819,
				"y": -0.7156346193,
				"z": 2.039025539,
				"element": "C" 
			},
			{
				"x": -0.2137212579,
				"y": 0.2162201217,
				"z": 2.9908453359,
				"element": "O" 
			},
			{
				"x": -0.6472114802,
				"y": -1.7578587588,
				"z": 2.0430941449,
				"element": "O" 
			},
			{
				"x": 0.4533768428,
				"y": 0.5963814937,
				"z": -0.1126253771,
				"element": "C" 
			},
			{
				"x": -0.6222706619,
				"y": 0.1897522678,
				"z": -0.9831752182,
				"element": "C" 
			},
			{
				"x": -1.3037714466,
				"y": -1.0601670582,
				"z": -0.8987140356,
				"element": "C" 
			},
			{
				"x": -2.3130324899,
				"y": -1.3886928319,
				"z": -1.7781631994,
				"element": "C" 
			},
			{
				"x": -2.7113442109,
				"y": -0.4934725918,
				"z": -2.7955068307,
				"element": "C" 
			},
			{
				"x": -2.0881899617,
				"y": 0.7271266769,
				"z": -2.9026360825,
				"element": "C" 
			},
			{
				"x": -1.0440299099,
				"y": 1.101655323,
				"z": -2.0145342899,
				"element": "C" 
			},
			{
				"x": -0.420423814,
				"y": 2.3703609567,
				"z": -2.1422571149,
				"element": "C" 
			},
			{
				"x": 0.5901933648,
				"y": 2.7355078834,
				"z": -1.2901767517,
				"element": "C" 
			},
			{
				"x": 1.0244269718,
				"y": 1.8449372037,
				"z": -0.2825936897,
				"element": "C" 
			},
			{
				"x": 2.5411287899,
				"y": -1.244810375,
				"z": -0.2531023011,
				"element": "H" 
			},
			{
				"x": 1.03187367,
				"y": -2.171879051,
				"z": -0.1879539003,
				"element": "H" 
			},
			{
				"x": 2.1191531916,
				"y": -2.1968444476,
				"z": 1.1985703828,
				"element": "H" 
			},
			{
				"x": 2.5839093473,
				"y": -0.1582801065,
				"z": 2.1825917988,
				"element": "H" 
			},
			{
				"x": 0.4758717738,
				"y": 0.8924627066,
				"z": 2.8525860009,
				"element": "H" 
			},
			{
				"x": -1.0573768971,
				"y": -1.758856632,
				"z": -0.1111163143,
				"element": "H" 
			},
			{
				"x": -2.8126302823,
				"y": -2.3480922432,
				"z": -1.6791850121,
				"element": "H" 
			},
			{
				"x": -3.5079583693,
				"y": -0.7671612856,
				"z": -3.4811306671,
				"element": "H" 
			},
			{
				"x": -2.3856832648,
				"y": 1.4333882542,
				"z": -3.6735548272,
				"element": "H" 
			},
			{
				"x": -0.7595668937,
				"y": 3.0427329518,
				"z": -2.9259931926,
				"element": "H" 
			},
			{
				"x": 1.0699333364,
				"y": 3.7053027703,
				"z": -1.3841806028,
				"element": "H" 
			},
			{
				"x": 1.8374149613,
				"y": 2.1447782973,
				"z": 0.365098363,
				"element": "H" 
			}
		],
		 "valence_orbital": [ 
			{
				"type": "occ",
				"energy": -0.3102,
				"method": "rhf"
			},
			{
				"type": "occ",
				"energy": -0.28522,
				"method": "rhf"
			},
			{
				"type": "occ",
				"energy": -0.26434,
				"method": "rhf"
			},
			{
				"type": "occ",
				"energy": -0.2444,
				"method": "rhf"
			},
			{
				"type": "occ",
				"energy": -0.21561,
				"method": "rhf"
			},
			{
				"type": "unocc",
				"energy": -0.0431,
				"method": "rhf"
			},
			{
				"type": "unocc",
				"energy": -0.0117,
				"method": "rhf"
			},
			{
				"type": "unocc",
				"energy": 0.00119,
				"method": "rhf"
			},
			{
				"type": "unocc",
				"energy": 0.03153,
				"method": "rhf"
			},
			{
				"type": "unocc",
				"energy": 0.05344,
				"method": "rhf"
			}
		],
		"cosmo_sigma_profile": { 
			"-0.025": 0.0,
			"-0.024": 0.0,
			"-0.023": 0.0,
			"-0.022": 0.0,
			"-0.021": 0.0,
			"-0.02": 0.0,
			"-0.019": 0.0,
			"-0.018": 0.0504340224901,
			"-0.017": 0.976858252402,
			"-0.016": 1.50422866545,
			"-0.015": 1.27078123599,
			"-0.014": 1.63761219801,
			"-0.013": 1.62518342089,
			"-0.012": 1.14879271263,
			"-0.011": 1.35628117412,
			"-0.01": 2.60921934876,
			"-0.009": 1.81865251517,
			"-0.008": 2.22429625583,
			"-0.007": 2.67021679895,
			"-0.006": 11.2119552565,
			"-0.005": 15.4065792975,
			"-0.004": 17.5340422542,
			"-0.003": 18.9001220591,
			"-0.002": 14.6923984735,
			"-0.001": 15.9757463969,
			"0.0": 16.0397327681,
			"0.001": 12.5975348732,
			"0.002": 13.7253003145,
			"0.003": 18.7269721584,
			"0.004": 23.5909971284,
			"0.005": 16.5877611456,
			"0.006": 5.31484898027,
			"0.007": 3.21983105432,
			"0.008": 3.06657774311,
			"0.009": 3.80791264808,
			"0.01": 5.34775492237,
			"0.011": 4.11943380234,
			"0.012": 2.78188360876,
			"0.013": 0.577695507209,
			"0.014": 0.0,
			"0.015": 0.0,
			"0.016": 0.0,
			"0.017": 0.0,
			"0.018": 0.0,
			"0.019": 0.0,
			"0.02": 0.0,
			"0.021": 0.0,
			"0.022": 0.0,
			"0.023": 0.0,
			"0.024": 0.0,
			"0.025": 0.0
		}
	}
}
