{
	 "smiles": "CCC1=C(C)C=CC=C1C", 
	 "Tm": 257.05, 
	 "num_atms": 24, 
	 "gaussian": { 
		 "optdone": 1, 
		 "sigma_profile": "yes", 
		 "theory": "DFT", 
		 "functional": "B3LYP", 
		 "basiset": "6-31G**", 
		 "properties": { 
			 "R2extent": 1981.6194, 
			 "electric_dipole_moment_norm": 0.607751281364, 
			 "electric_quadrupole_moment_norm": 3.49378251899, 
			 "total_energy": -389.523326709, 
			 "HOMO_LUMO_gap": 0.23258, 
			 "cosmo_polarized_energy": -3.31, 
			 "cosmo_cavitation_energy": 25.24, 
			 "cosmo_dispersion_energy": -18.38, 
			 "cosmo_repulsion_energy": 1.47, 
			 "cosmo_total_nonelectrostatic_energy": 8.32, 
			 "SMD_solvation_energy": 4.36 
		},
		"coords": [
			{
				"x": -1.3996805421,
				"y": -0.7188703763,
				"z": -1.5269704833,
				"element": "C" 
			},
			{
				"x": -0.7266213817,
				"y": -0.0784575486,
				"z": -0.2964877,
				"element": "C" 
			},
			{
				"x": 0.7173733787,
				"y": -0.5098339214,
				"z": -0.1105865292,
				"element": "C" 
			},
			{
				"x": 1.0239959429,
				"y": -1.657088887,
				"z": 0.6543217131,
				"element": "C" 
			},
			{
				"x": -0.0568560984,
				"y": -2.4605384391,
				"z": 1.3463924285,
				"element": "C" 
			},
			{
				"x": 2.3585611816,
				"y": -2.0586827141,
				"z": 0.7903348719,
				"element": "C" 
			},
			{
				"x": 3.3880675183,
				"y": -1.3439892251,
				"z": 0.1841626152,
				"element": "C" 
			},
			{
				"x": 3.0852921107,
				"y": -0.211270005,
				"z": -0.5664116385,
				"element": "C" 
			},
			{
				"x": 1.7616517018,
				"y": 0.2181293989,
				"z": -0.722807499,
				"element": "C" 
			},
			{
				"x": 1.4875753126,
				"y": 1.4652353307,
				"z": -1.5366577141,
				"element": "C" 
			},
			{
				"x": -2.4374589208,
				"y": -0.3825328321,
				"z": -1.6249641169,
				"element": "H" 
			},
			{
				"x": -1.4044336018,
				"y": -1.8109635367,
				"z": -1.4536972948,
				"element": "H" 
			},
			{
				"x": -0.8717574946,
				"y": -0.4575659642,
				"z": -2.4495025993,
				"element": "H" 
			},
			{
				"x": -1.3094377623,
				"y": -0.33005524,
				"z": 0.595472211,
				"element": "H" 
			},
			{
				"x": -0.7818817713,
				"y": 1.0108349557,
				"z": -0.3909328908,
				"element": "H" 
			},
			{
				"x": -0.5725621782,
				"y": -1.8729313392,
				"z": 2.1159273415,
				"element": "H" 
			},
			{
				"x": -0.824466444,
				"y": -2.8137479693,
				"z": 0.6492433286,
				"element": "H" 
			},
			{
				"x": 0.3702379295,
				"y": -3.3386379397,
				"z": 1.8381223093,
				"element": "H" 
			},
			{
				"x": 2.5875728413,
				"y": -2.9425529595,
				"z": 1.3805721265,
				"element": "H" 
			},
			{
				"x": 4.4193157606,
				"y": -1.6667276251,
				"z": 0.2970866984,
				"element": "H" 
			},
			{
				"x": 3.8842813427,
				"y": 0.3537183526,
				"z": -1.0401699296,
				"element": "H" 
			},
			{
				"x": 2.4122694094,
				"y": 1.8519274736,
				"z": -1.9733260531,
				"element": "H" 
			},
			{
				"x": 0.7868205879,
				"y": 1.281045757,
				"z": -2.3582416482,
				"element": "H" 
			},
			{
				"x": 1.0553411773,
				"y": 2.2657552541,
				"z": -0.9236795471,
				"element": "H" 
			}
		],
		 "valence_orbital": [ 
			{
				"type": "occ",
				"energy": -0.33096,
				"method": "rhf"
			},
			{
				"type": "occ",
				"energy": -0.32077,
				"method": "rhf"
			},
			{
				"type": "occ",
				"energy": -0.31303,
				"method": "rhf"
			},
			{
				"type": "occ",
				"energy": -0.22844,
				"method": "rhf"
			},
			{
				"type": "occ",
				"energy": -0.22679,
				"method": "rhf"
			},
			{
				"type": "unocc",
				"energy": 0.00579,
				"method": "rhf"
			},
			{
				"type": "unocc",
				"energy": 0.01346,
				"method": "rhf"
			},
			{
				"type": "unocc",
				"energy": 0.08673,
				"method": "rhf"
			},
			{
				"type": "unocc",
				"energy": 0.10623,
				"method": "rhf"
			},
			{
				"type": "unocc",
				"energy": 0.1102,
				"method": "rhf"
			}
		],
		"cosmo_sigma_profile": { 
			"-0.025": 0.0,
			"-0.024": 0.0,
			"-0.023": 0.0,
			"-0.022": 0.0,
			"-0.021": 0.0,
			"-0.02": 0.0,
			"-0.019": 0.0,
			"-0.018": 0.0,
			"-0.017": 0.0,
			"-0.016": 0.0,
			"-0.015": 0.0,
			"-0.014": 0.0,
			"-0.013": 0.0,
			"-0.012": 0.0,
			"-0.011": 0.0,
			"-0.01": 0.0,
			"-0.009": 0.0,
			"-0.008": 0.0,
			"-0.007": 0.0,
			"-0.006": 0.0505343928477,
			"-0.005": 3.16144492275,
			"-0.004": 16.780023838,
			"-0.003": 24.99440655,
			"-0.002": 26.0864717152,
			"-0.001": 25.5323621744,
			"0.0": 29.0251669598,
			"0.001": 24.193514515,
			"0.002": 11.3876975547,
			"0.003": 7.82852353279,
			"0.004": 6.70276365891,
			"0.005": 6.97550495978,
			"0.006": 6.9118438424,
			"0.007": 6.39315169902,
			"0.008": 1.79130761048,
			"0.009": 0.0,
			"0.01": 0.0,
			"0.011": 0.0,
			"0.012": 0.0,
			"0.013": 0.0,
			"0.014": 0.0,
			"0.015": 0.0,
			"0.016": 0.0,
			"0.017": 0.0,
			"0.018": 0.0,
			"0.019": 0.0,
			"0.02": 0.0,
			"0.021": 0.0,
			"0.022": 0.0,
			"0.023": 0.0,
			"0.024": 0.0,
			"0.025": 0.0
		}
	}
}
