{
	 "smiles": "O=C=NC1=CC2=C(OCCOCCOCCOCCOCCO2)C=C1", 
	 "Tm": 335.15, 
	 "num_atms": 48, 
	 "gaussian": { 
		 "optdone": 1, 
		 "sigma_profile": "yes", 
		 "theory": "DFT", 
		 "functional": "B3LYP", 
		 "basiset": "6-31G**", 
		 "properties": { 
			 "R2extent": 10238.9259, 
			 "electric_dipole_moment_norm": 5.58836701998, 
			 "electric_quadrupole_moment_norm": 21.1707515573, 
			 "total_energy": -1242.89184258, 
			 "HOMO_LUMO_gap": 0.19499, 
			 "cosmo_polarized_energy": -15.93, 
			 "cosmo_cavitation_energy": 50.02, 
			 "cosmo_dispersion_energy": -32.34, 
			 "cosmo_repulsion_energy": 2.45, 
			 "cosmo_total_nonelectrostatic_energy": 20.14, 
			 "SMD_solvation_energy": 10.56 
		},
		"coords": [
			{
				"x": -6.5042997227,
				"y": 1.1928417075,
				"z": -1.0048855719,
				"element": "O" 
			},
			{
				"x": -5.5940848304,
				"y": 0.7066142999,
				"z": -1.5775158615,
				"element": "C" 
			},
			{
				"x": -4.7549796882,
				"y": 0.1049050462,
				"z": -2.2049892388,
				"element": "N" 
			},
			{
				"x": -3.3989345893,
				"y": 0.1690266815,
				"z": -2.544672444,
				"element": "C" 
			},
			{
				"x": -2.5846419609,
				"y": 1.2165955904,
				"z": -2.087456211,
				"element": "C" 
			},
			{
				"x": -1.2368578993,
				"y": 1.2617372327,
				"z": -2.4452040503,
				"element": "C" 
			},
			{
				"x": -0.6803160428,
				"y": 0.2148311462,
				"z": -3.2194053474,
				"element": "C" 
			},
			{
				"x": 0.6390957474,
				"y": 0.1885228599,
				"z": -3.6064216631,
				"element": "O" 
			},
			{
				"x": 1.6399727091,
				"y": 0.2718806584,
				"z": -2.5782360565,
				"element": "C" 
			},
			{
				"x": 1.6173620933,
				"y": -0.9349828341,
				"z": -1.6331054167,
				"element": "C" 
			},
			{
				"x": 1.9586671427,
				"y": -0.4767974244,
				"z": -0.3304777348,
				"element": "O" 
			},
			{
				"x": 2.1585957893,
				"y": -1.5408954379,
				"z": 0.5804130765,
				"element": "C" 
			},
			{
				"x": 2.2004242187,
				"y": -1.0192620074,
				"z": 2.0044606262,
				"element": "C" 
			},
			{
				"x": 0.8898463829,
				"y": -0.6677811941,
				"z": 2.4153493413,
				"element": "O" 
			},
			{
				"x": 0.7121477151,
				"y": -0.6256634275,
				"z": 3.8234819768,
				"element": "C" 
			},
			{
				"x": -0.7699235239,
				"y": -0.4408661412,
				"z": 4.1419657524,
				"element": "C" 
			},
			{
				"x": -1.238994455,
				"y": 0.8977048542,
				"z": 4.1931067544,
				"element": "O" 
			},
			{
				"x": -1.022675509,
				"y": 1.7206181282,
				"z": 3.0546278813,
				"element": "C" 
			},
			{
				"x": -1.7383983797,
				"y": 1.2390381946,
				"z": 1.7856924126,
				"element": "C" 
			},
			{
				"x": -1.7984620724,
				"y": 2.255641084,
				"z": 0.7878400227,
				"element": "O" 
			},
			{
				"x": -0.5339443023,
				"y": 2.6843360507,
				"z": 0.2994209752,
				"element": "C" 
			},
			{
				"x": -0.6859676919,
				"y": 3.2390251646,
				"z": -1.1156333195,
				"element": "C" 
			},
			{
				"x": -0.388566232,
				"y": 2.2890904076,
				"z": -2.1413857696,
				"element": "O" 
			},
			{
				"x": -1.5116326908,
				"y": -0.8095830172,
				"z": -3.6700179679,
				"element": "C" 
			},
			{
				"x": -2.8682300202,
				"y": -0.8381678608,
				"z": -3.3528985861,
				"element": "C" 
			},
			{
				"x": -3.0018896962,
				"y": 1.9712701138,
				"z": -1.4337954165,
				"element": "H" 
			},
			{
				"x": 1.5167687737,
				"y": 1.1802066338,
				"z": -1.9876645128,
				"element": "H" 
			},
			{
				"x": 2.5842701657,
				"y": 0.3349215226,
				"z": -3.1234866171,
				"element": "H" 
			},
			{
				"x": 0.6125696437,
				"y": -1.3839575731,
				"z": -1.6244788811,
				"element": "H" 
			},
			{
				"x": 2.3231804606,
				"y": -1.7129439992,
				"z": -1.9645842074,
				"element": "H" 
			},
			{
				"x": 3.1051752444,
				"y": -2.0627755726,
				"z": 0.3577983259,
				"element": "H" 
			},
			{
				"x": 1.3442074242,
				"y": -2.2785595305,
				"z": 0.5068002962,
				"element": "H" 
			},
			{
				"x": 2.5983187014,
				"y": -1.8196501898,
				"z": 2.6496453933,
				"element": "H" 
			},
			{
				"x": 2.8846905922,
				"y": -0.1595993404,
				"z": 2.0754748474,
				"element": "H" 
			},
			{
				"x": 1.3017303385,
				"y": 0.1834782982,
				"z": 4.2840267312,
				"element": "H" 
			},
			{
				"x": 1.0523317111,
				"y": -1.5767605089,
				"z": 4.267321459,
				"element": "H" 
			},
			{
				"x": -1.3452010521,
				"y": -1.0511229027,
				"z": 3.4297794631,
				"element": "H" 
			},
			{
				"x": -0.9623946457,
				"y": -0.8335515377,
				"z": 5.1457027162,
				"element": "H" 
			},
			{
				"x": -1.4247816397,
				"y": 2.7011226365,
				"z": 3.3301569224,
				"element": "H" 
			},
			{
				"x": 0.0522088631,
				"y": 1.8365832817,
				"z": 2.8586671152,
				"element": "H" 
			},
			{
				"x": -2.7774108248,
				"y": 0.9952364965,
				"z": 2.0275183937,
				"element": "H" 
			},
			{
				"x": -1.2454269739,
				"y": 0.3444627978,
				"z": 1.3827989924,
				"element": "H" 
			},
			{
				"x": -0.1265363279,
				"y": 3.4784567199,
				"z": 0.9446792768,
				"element": "H" 
			},
			{
				"x": 0.1911798034,
				"y": 1.8574760363,
				"z": 0.2859879825,
				"element": "H" 
			},
			{
				"x": 0.0509058194,
				"y": 4.0291534357,
				"z": -1.2815396561,
				"element": "H" 
			},
			{
				"x": -1.684014229,
				"y": 3.6756116523,
				"z": -1.2425881374,
				"element": "H" 
			},
			{
				"x": -1.0651616657,
				"y": -1.5903052745,
				"z": -4.2770991218,
				"element": "H" 
			},
			{
				"x": -3.5096226738,
				"y": -1.6388629575,
				"z": -3.7026749454,
				"element": "H" 
			}
		],
		 "valence_orbital": [ 
			{
				"type": "occ",
				"energy": -0.27327,
				"method": "rhf"
			},
			{
				"type": "occ",
				"energy": -0.26085,
				"method": "rhf"
			},
			{
				"type": "occ",
				"energy": -0.24534,
				"method": "rhf"
			},
			{
				"type": "occ",
				"energy": -0.23182,
				"method": "rhf"
			},
			{
				"type": "occ",
				"energy": -0.20739,
				"method": "rhf"
			},
			{
				"type": "unocc",
				"energy": -0.0124,
				"method": "rhf"
			},
			{
				"type": "unocc",
				"energy": 0.00323,
				"method": "rhf"
			},
			{
				"type": "unocc",
				"energy": 0.02067,
				"method": "rhf"
			},
			{
				"type": "unocc",
				"energy": 0.06612,
				"method": "rhf"
			},
			{
				"type": "unocc",
				"energy": 0.07996,
				"method": "rhf"
			}
		],
		"cosmo_sigma_profile": { 
			"-0.025": 0.0,
			"-0.024": 0.0,
			"-0.023": 0.0,
			"-0.022": 0.0,
			"-0.021": 0.0,
			"-0.02": 0.0,
			"-0.019": 0.0,
			"-0.018": 0.0,
			"-0.017": 0.0,
			"-0.016": 0.0,
			"-0.015": 0.0,
			"-0.014": 0.0,
			"-0.013": 0.0,
			"-0.012": 0.0,
			"-0.011": 0.0,
			"-0.01": 0.0,
			"-0.009": 0.0,
			"-0.008": 0.164803042115,
			"-0.007": 4.53274850507,
			"-0.006": 12.5903789523,
			"-0.005": 29.9170433892,
			"-0.004": 52.0731223839,
			"-0.003": 50.4305159614,
			"-0.002": 40.4722770913,
			"-0.001": 26.5575560599,
			"0.0": 23.4424653503,
			"0.001": 18.1674838949,
			"0.002": 20.7879476941,
			"0.003": 27.9808981885,
			"0.004": 20.624418904,
			"0.005": 12.2687103716,
			"0.006": 11.134275359,
			"0.007": 13.1384908518,
			"0.008": 11.8250103968,
			"0.009": 4.97729804596,
			"0.01": 3.53368709072,
			"0.011": 4.38001880186,
			"0.012": 2.51279068153,
			"0.013": 1.67034356409,
			"0.014": 0.275977786507,
			"0.015": 0.0,
			"0.016": 0.0,
			"0.017": 0.0,
			"0.018": 0.0,
			"0.019": 0.0,
			"0.02": 0.0,
			"0.021": 0.0,
			"0.022": 0.0,
			"0.023": 0.0,
			"0.024": 0.0,
			"0.025": 0.0
		}
	}
}
