{
	 "smiles": "BrC1=CC=C(OCC2=CC=CC=C2)C=C1", 
	 "Tm": 335.15, 
	 "num_atms": 26, 
	 "gaussian": { 
		 "optdone": 1, 
		 "sigma_profile": "yes", 
		 "theory": "DFT", 
		 "functional": "B3LYP", 
		 "basiset": "6-31G**", 
		 "properties": { 
			 "R2extent": 8342.7048, 
			 "electric_dipole_moment_norm": 2.88360530066, 
			 "electric_quadrupole_moment_norm": 12.6096833711, 
			 "total_energy": -3148.63202622, 
			 "HOMO_LUMO_gap": 0.20304, 
			 "cosmo_polarized_energy": -7.23, 
			 "cosmo_cavitation_energy": 32.37, 
			 "cosmo_dispersion_energy": -23.66, 
			 "cosmo_repulsion_energy": 1.87, 
			 "cosmo_total_nonelectrostatic_energy": 10.58, 
			 "SMD_solvation_energy": 4.43 
		},
		"coords": [
			{
				"x": 2.0370628418,
				"y": -3.3138007392,
				"z": -4.9249965358,
				"element": "Br" 
			},
			{
				"x": 1.7037107868,
				"y": -2.1021510325,
				"z": -3.4820388366,
				"element": "C" 
			},
			{
				"x": 0.9025426735,
				"y": -2.5003459774,
				"z": -2.4175782615,
				"element": "C" 
			},
			{
				"x": 0.6551272634,
				"y": -1.6188929279,
				"z": -1.3613792478,
				"element": "C" 
			},
			{
				"x": 1.220212434,
				"y": -0.3385092569,
				"z": -1.3775837013,
				"element": "C" 
			},
			{
				"x": 1.0595482355,
				"y": 0.6021907047,
				"z": -0.3970758794,
				"element": "O" 
			},
			{
				"x": 0.3955870254,
				"y": 0.2421902246,
				"z": 0.8133625886,
				"element": "C" 
			},
			{
				"x": -1.1170121161,
				"y": 0.1997445494,
				"z": 0.7066715734,
				"element": "C" 
			},
			{
				"x": -1.853215552,
				"y": -0.6563357817,
				"z": 1.5340208027,
				"element": "C" 
			},
			{
				"x": -3.2484748473,
				"y": -0.6603546169,
				"z": 1.4891112087,
				"element": "C" 
			},
			{
				"x": -3.9212592782,
				"y": 0.1874214161,
				"z": 0.6077456368,
				"element": "C" 
			},
			{
				"x": -3.1918325669,
				"y": 1.0396736535,
				"z": -0.2243947415,
				"element": "C" 
			},
			{
				"x": -1.7978252789,
				"y": 1.0494434126,
				"z": -0.1728160687,
				"element": "C" 
			},
			{
				"x": 2.0228045196,
				"y": 0.0525257091,
				"z": -2.459210212,
				"element": "C" 
			},
			{
				"x": 2.2652093529,
				"y": -0.8241796232,
				"z": -3.5103576946,
				"element": "C" 
			},
			{
				"x": 0.4628917021,
				"y": -3.49129988,
				"z": -2.4072675143,
				"element": "H" 
			},
			{
				"x": 0.0064422624,
				"y": -1.9345310076,
				"z": -0.5538599631,
				"element": "H" 
			},
			{
				"x": 0.6988180195,
				"y": 1.022021379,
				"z": 1.5205699691,
				"element": "H" 
			},
			{
				"x": 0.7836368562,
				"y": -0.712332941,
				"z": 1.1931091924,
				"element": "H" 
			},
			{
				"x": -1.3334727706,
				"y": -1.3245673247,
				"z": 2.2175166164,
				"element": "H" 
			},
			{
				"x": -3.8076990175,
				"y": -1.3307363145,
				"z": 2.1355680383,
				"element": "H" 
			},
			{
				"x": -5.0065786222,
				"y": 0.1812941773,
				"z": 0.5664246064,
				"element": "H" 
			},
			{
				"x": -3.7095941435,
				"y": 1.6989941656,
				"z": -0.9152993158,
				"element": "H" 
			},
			{
				"x": -1.2286514376,
				"y": 1.7085172311,
				"z": -0.8209181459,
				"element": "H" 
			},
			{
				"x": 2.4532128307,
				"y": 1.0484999827,
				"z": -2.4543547211,
				"element": "H" 
			},
			{
				"x": 2.888408827,
				"y": -0.5197791821,
				"z": -4.3435693932,
				"element": "H" 
			}
		],
		 "valence_orbital": [ 
			{
				"type": "occ",
				"energy": -0.28107,
				"method": "rhf"
			},
			{
				"type": "occ",
				"energy": -0.2617,
				"method": "rhf"
			},
			{
				"type": "occ",
				"energy": -0.25652,
				"method": "rhf"
			},
			{
				"type": "occ",
				"energy": -0.25022,
				"method": "rhf"
			},
			{
				"type": "occ",
				"energy": -0.21843,
				"method": "rhf"
			},
			{
				"type": "unocc",
				"energy": -0.01539,
				"method": "rhf"
			},
			{
				"type": "unocc",
				"energy": -0.00979,
				"method": "rhf"
			},
			{
				"type": "unocc",
				"energy": -0.006,
				"method": "rhf"
			},
			{
				"type": "unocc",
				"energy": 0.00245,
				"method": "rhf"
			},
			{
				"type": "unocc",
				"energy": 0.01358,
				"method": "rhf"
			}
		],
		"cosmo_sigma_profile": { 
			"-0.025": 0.0,
			"-0.024": 0.0,
			"-0.023": 0.0,
			"-0.022": 0.0,
			"-0.021": 0.0,
			"-0.02": 0.0,
			"-0.019": 0.0,
			"-0.018": 0.0,
			"-0.017": 0.0,
			"-0.016": 0.0,
			"-0.015": 0.0,
			"-0.014": 0.0,
			"-0.013": 0.0,
			"-0.012": 0.0,
			"-0.011": 0.0,
			"-0.01": 0.0,
			"-0.009": 0.0,
			"-0.008": 0.0644120844451,
			"-0.007": 5.39653090577,
			"-0.006": 17.3285944662,
			"-0.005": 21.8937168371,
			"-0.004": 21.3307263469,
			"-0.003": 20.4494800472,
			"-0.002": 15.529205819,
			"-0.001": 16.6113757636,
			"0.0": 13.4839446808,
			"0.001": 18.9012080831,
			"0.002": 21.6208309888,
			"0.003": 29.8684547228,
			"0.004": 28.8223361359,
			"0.005": 20.3367771961,
			"0.006": 7.00013994519,
			"0.007": 1.34504249697,
			"0.008": 1.03787856558,
			"0.009": 1.05765134605,
			"0.01": 0.503152808461,
			"0.011": 0.0,
			"0.012": 0.0,
			"0.013": 0.0,
			"0.014": 0.0,
			"0.015": 0.0,
			"0.016": 0.0,
			"0.017": 0.0,
			"0.018": 0.0,
			"0.019": 0.0,
			"0.02": 0.0,
			"0.021": 0.0,
			"0.022": 0.0,
			"0.023": 0.0,
			"0.024": 0.0,
			"0.025": 0.0
		}
	}
}
