{
	 "smiles": "OCC1=NC2=C(N1)C=CC(Br)=C2", 
	 "Tm": 453.15, 
	 "num_atms": 19, 
	 "gaussian": { 
		 "optdone": 1, 
		 "sigma_profile": "yes", 
		 "theory": "DFT", 
		 "functional": "B3LYP", 
		 "basiset": "6-31G**", 
		 "properties": { 
			 "R2extent": 5949.8058, 
			 "electric_dipole_moment_norm": 4.09336651303, 
			 "electric_quadrupole_moment_norm": 10.4587193193, 
			 "total_energy": -3065.20363127, 
			 "HOMO_LUMO_gap": 0.19721, 
			 "cosmo_polarized_energy": -14.86, 
			 "cosmo_cavitation_energy": 25.78, 
			 "cosmo_dispersion_energy": -19.84, 
			 "cosmo_repulsion_energy": 1.59, 
			 "cosmo_total_nonelectrostatic_energy": 7.53, 
			 "SMD_solvation_energy": 1.01 
		},
		"coords": [
			{
				"x": 1.8695758042,
				"y": -0.7067094195,
				"z": -2.3202237853,
				"element": "O" 
			},
			{
				"x": 1.9160591023,
				"y": 0.4279932352,
				"z": -1.4607373941,
				"element": "C" 
			},
			{
				"x": 0.6599165242,
				"y": 0.5610900718,
				"z": -0.6479964148,
				"element": "C" 
			},
			{
				"x": 0.1535492463,
				"y": 1.6736536437,
				"z": -0.1731281851,
				"element": "N" 
			},
			{
				"x": -0.9690291926,
				"y": 1.2729532119,
				"z": 0.53907663,
				"element": "C" 
			},
			{
				"x": -1.1268865165,
				"y": -0.1343115235,
				"z": 0.4670649067,
				"element": "C" 
			},
			{
				"x": -0.0585243487,
				"y": -0.5605076125,
				"z": -0.3003538683,
				"element": "N" 
			},
			{
				"x": -2.186097764,
				"y": -0.7991112956,
				"z": 1.0859325444,
				"element": "C" 
			},
			{
				"x": -3.0979200157,
				"y": -0.02120352,
				"z": 1.7946817773,
				"element": "C" 
			},
			{
				"x": -2.9405148663,
				"y": 1.3752135958,
				"z": 1.8681544174,
				"element": "C" 
			},
			{
				"x": -4.2344958323,
				"y": 2.3817345822,
				"z": 2.8618220773,
				"element": "Br" 
			},
			{
				"x": -1.8924098189,
				"y": 2.0469873346,
				"z": 1.25346998,
				"element": "C" 
			},
			{
				"x": 1.2534025452,
				"y": -0.5079243158,
				"z": -3.0378396699,
				"element": "H" 
			},
			{
				"x": 2.0929845542,
				"y": 1.3692481882,
				"z": -1.9949297714,
				"element": "H" 
			},
			{
				"x": 2.7735828039,
				"y": 0.2620100997,
				"z": -0.7984595168,
				"element": "H" 
			},
			{
				"x": 0.1663910664,
				"y": -1.4944269859,
				"z": -0.6083782237,
				"element": "H" 
			},
			{
				"x": -2.304747369,
				"y": -1.8766228425,
				"z": 1.0286816905,
				"element": "H" 
			},
			{
				"x": -3.9366246851,
				"y": -0.4891731682,
				"z": 2.2963770215,
				"element": "H" 
			},
			{
				"x": -1.7858112376,
				"y": 3.1229067205,
				"z": 1.3186857842,
				"element": "H" 
			}
		],
		 "valence_orbital": [ 
			{
				"type": "occ",
				"energy": -0.29205,
				"method": "rhf"
			},
			{
				"type": "occ",
				"energy": -0.27965,
				"method": "rhf"
			},
			{
				"type": "occ",
				"energy": -0.27914,
				"method": "rhf"
			},
			{
				"type": "occ",
				"energy": -0.23392,
				"method": "rhf"
			},
			{
				"type": "occ",
				"energy": -0.2246,
				"method": "rhf"
			},
			{
				"type": "unocc",
				"energy": -0.02739,
				"method": "rhf"
			},
			{
				"type": "unocc",
				"energy": 0.00918,
				"method": "rhf"
			},
			{
				"type": "unocc",
				"energy": 0.01311,
				"method": "rhf"
			},
			{
				"type": "unocc",
				"energy": 0.03687,
				"method": "rhf"
			},
			{
				"type": "unocc",
				"energy": 0.05967,
				"method": "rhf"
			}
		],
		"cosmo_sigma_profile": { 
			"-0.025": 0.0,
			"-0.024": 0.0,
			"-0.023": 0.0,
			"-0.022": 0.0,
			"-0.021": 0.0,
			"-0.02": 0.0,
			"-0.019": 0.0,
			"-0.018": 0.0,
			"-0.017": 0.395976393541,
			"-0.016": 1.48038546451,
			"-0.015": 2.24260428821,
			"-0.014": 1.99572443533,
			"-0.013": 1.79192600011,
			"-0.012": 2.15157567725,
			"-0.011": 1.74727256126,
			"-0.01": 1.68107605102,
			"-0.009": 2.27791527424,
			"-0.008": 2.92882668808,
			"-0.007": 8.36827471875,
			"-0.006": 11.6454191299,
			"-0.005": 11.0264069457,
			"-0.004": 11.2493478576,
			"-0.003": 9.85373035294,
			"-0.002": 9.33897858489,
			"-0.001": 9.93941036345,
			"0.0": 10.9048771563,
			"0.001": 11.5193962522,
			"0.002": 15.6879206199,
			"0.003": 22.1391871849,
			"0.004": 21.3583546937,
			"0.005": 14.5011947904,
			"0.006": 4.25315422365,
			"0.007": 1.95006864721,
			"0.008": 1.66421342953,
			"0.009": 2.94853504304,
			"0.01": 2.21661566019,
			"0.011": 1.13428827334,
			"0.012": 2.61062068251,
			"0.013": 2.37306551396,
			"0.014": 1.38796317165,
			"0.015": 1.06388953068,
			"0.016": 0.72405201617,
			"0.017": 0.714965215268,
			"0.018": 0.11535821059,
			"0.019": 0.0,
			"0.02": 0.0,
			"0.021": 0.0,
			"0.022": 0.0,
			"0.023": 0.0,
			"0.024": 0.0,
			"0.025": 0.0
		}
	}
}
