{
	 "smiles": "CC(SC1=C2C=CC(Cl)=CC2=NC=C1)C(O)=O", 
	 "Tm": 475.15, 
	 "num_atms": 27, 
	 "gaussian": { 
		 "optdone": 1, 
		 "sigma_profile": "yes", 
		 "theory": "DFT", 
		 "functional": "B3LYP", 
		 "basiset": "6-31G**", 
		 "properties": { 
			 "R2extent": 5107.3191, 
			 "electric_dipole_moment_norm": 2.9925714862, 
			 "electric_quadrupole_moment_norm": 8.92223408962, 
			 "total_energy": -1526.89966459, 
			 "HOMO_LUMO_gap": 0.16781, 
			 "cosmo_polarized_energy": -13.11, 
			 "cosmo_cavitation_energy": 34.31, 
			 "cosmo_dispersion_energy": -24.31, 
			 "cosmo_repulsion_energy": 1.84, 
			 "cosmo_total_nonelectrostatic_energy": 11.84, 
			 "SMD_solvation_energy": 4.54 
		},
		"coords": [
			{
				"x": -0.7442994193,
				"y": 3.7826773962,
				"z": 0.200053353,
				"element": "C" 
			},
			{
				"x": 0.4791051651,
				"y": 3.0609987701,
				"z": -0.3588410154,
				"element": "C" 
			},
			{
				"x": 1.4283695329,
				"y": 2.0821608835,
				"z": 0.9197106428,
				"element": "S" 
			},
			{
				"x": 0.2502305282,
				"y": 0.8420035081,
				"z": 1.4747511381,
				"element": "C" 
			},
			{
				"x": 0.1914706384,
				"y": -0.4593754945,
				"z": 0.8832651556,
				"element": "C" 
			},
			{
				"x": 0.9933002159,
				"y": -0.881881747,
				"z": -0.2103327435,
				"element": "C" 
			},
			{
				"x": 0.877570268,
				"y": -2.1525302632,
				"z": -0.7259838245,
				"element": "C" 
			},
			{
				"x": -0.0525634774,
				"y": -3.0568033992,
				"z": -0.1602320921,
				"element": "C" 
			},
			{
				"x": -0.1765149617,
				"y": -4.6694362,
				"z": -0.8432069185,
				"element": "Cl" 
			},
			{
				"x": -0.8476544039,
				"y": -2.6981950203,
				"z": 0.9010137168,
				"element": "C" 
			},
			{
				"x": -0.7424145613,
				"y": -1.3916853123,
				"z": 1.4481925967,
				"element": "C" 
			},
			{
				"x": -1.5521608058,
				"y": -1.0910877844,
				"z": 2.5047460287,
				"element": "N" 
			},
			{
				"x": -1.453138975,
				"y": 0.1137602479,
				"z": 3.0250306714,
				"element": "C" 
			},
			{
				"x": -0.5664681687,
				"y": 1.1132987679,
				"z": 2.5540667992,
				"element": "C" 
			},
			{
				"x": 0.2073737457,
				"y": 2.188102304,
				"z": -1.5745461488,
				"element": "C" 
			},
			{
				"x": -1.0147104179,
				"y": 1.6106384735,
				"z": -1.5252502897,
				"element": "O" 
			},
			{
				"x": 0.987600856,
				"y": 2.0037447083,
				"z": -2.4818895705,
				"element": "O" 
			},
			{
				"x": -1.4857961449,
				"y": 3.0744972938,
				"z": 0.5743076314,
				"element": "H" 
			},
			{
				"x": -0.4474647264,
				"y": 4.4496227018,
				"z": 1.0132406292,
				"element": "H" 
			},
			{
				"x": -1.2189284419,
				"y": 4.382300034,
				"z": -0.584322431,
				"element": "H" 
			},
			{
				"x": 1.2452666364,
				"y": 3.7742577668,
				"z": -0.6749661572,
				"element": "H" 
			},
			{
				"x": 1.7064562184,
				"y": -0.1876203433,
				"z": -0.640724018,
				"element": "H" 
			},
			{
				"x": 1.4935018519,
				"y": -2.4702557452,
				"z": -1.5598454642,
				"element": "H" 
			},
			{
				"x": -1.5604091109,
				"y": -3.382779166,
				"z": 1.3447150952,
				"element": "H" 
			},
			{
				"x": -2.1024873881,
				"y": 0.3333592863,
				"z": 3.8717313753,
				"element": "H" 
			},
			{
				"x": -0.5288588441,
				"y": 2.0793148981,
				"z": 3.044982998,
				"element": "H" 
			},
			{
				"x": -1.0814758093,
				"y": 1.0426134352,
				"z": -2.3114671576,
				"element": "H" 
			}
		],
		 "valence_orbital": [ 
			{
				"type": "occ",
				"energy": -0.28764,
				"method": "rhf"
			},
			{
				"type": "occ",
				"energy": -0.26943,
				"method": "rhf"
			},
			{
				"type": "occ",
				"energy": -0.26031,
				"method": "rhf"
			},
			{
				"type": "occ",
				"energy": -0.25073,
				"method": "rhf"
			},
			{
				"type": "occ",
				"energy": -0.24382,
				"method": "rhf"
			},
			{
				"type": "unocc",
				"energy": -0.07601,
				"method": "rhf"
			},
			{
				"type": "unocc",
				"energy": -0.03306,
				"method": "rhf"
			},
			{
				"type": "unocc",
				"energy": -0.02396,
				"method": "rhf"
			},
			{
				"type": "unocc",
				"energy": 0.00051,
				"method": "rhf"
			},
			{
				"type": "unocc",
				"energy": 0.02556,
				"method": "rhf"
			}
		],
		"cosmo_sigma_profile": { 
			"-0.025": 0.0,
			"-0.024": 0.0,
			"-0.023": 0.0,
			"-0.022": 0.0,
			"-0.021": 0.0,
			"-0.02": 0.0,
			"-0.019": 0.117096900265,
			"-0.018": 0.675688659427,
			"-0.017": 1.12538590396,
			"-0.016": 0.90751248863,
			"-0.015": 0.389267834247,
			"-0.014": 0.61145276404,
			"-0.013": 0.617353429774,
			"-0.012": 0.500390559349,
			"-0.011": 0.982574369568,
			"-0.01": 0.606731545106,
			"-0.009": 0.889019683672,
			"-0.008": 4.83553088196,
			"-0.007": 11.5616693313,
			"-0.006": 12.3137792002,
			"-0.005": 12.6049826363,
			"-0.004": 14.508385179,
			"-0.003": 16.7651968165,
			"-0.002": 19.8264736114,
			"-0.001": 21.3755967643,
			"0.0": 29.8068486623,
			"0.001": 31.7875036844,
			"0.002": 20.8588905002,
			"0.003": 14.6751725245,
			"0.004": 19.3559132787,
			"0.005": 9.89496274728,
			"0.006": 5.33640065984,
			"0.007": 4.97046803088,
			"0.008": 3.32713116115,
			"0.009": 2.62396462487,
			"0.01": 2.89493405541,
			"0.011": 4.8771665434,
			"0.012": 4.05781615184,
			"0.013": 1.2968954726,
			"0.014": 0.469744806579,
			"0.015": 0.673816328921,
			"0.016": 0.0,
			"0.017": 0.0,
			"0.018": 0.0,
			"0.019": 0.0,
			"0.02": 0.0,
			"0.021": 0.0,
			"0.022": 0.0,
			"0.023": 0.0,
			"0.024": 0.0,
			"0.025": 0.0
		}
	}
}
