{
	 "smiles": "COC(=O)CCC(C)C1CCC2C3CCC4CCCCC4(C)C3CC(=O)C12C", 
	 "Tm": 382.15, 
	 "num_atms": 68, 
	 "gaussian": { 
		 "optdone": 1, 
		 "sigma_profile": "yes", 
		 "theory": "DFT", 
		 "functional": "B3LYP", 
		 "basiset": "6-31G**", 
		 "properties": { 
			 "R2extent": 16927.6269, 
			 "electric_dipole_moment_norm": 3.7293794457, 
			 "electric_quadrupole_moment_norm": 23.1574063515, 
			 "total_energy": -1202.46434904, 
			 "HOMO_LUMO_gap": 0.21888, 
			 "cosmo_polarized_energy": -13.28, 
			 "cosmo_cavitation_energy": 58.32, 
			 "cosmo_dispersion_energy": -39.93, 
			 "cosmo_repulsion_energy": 2.95, 
			 "cosmo_total_nonelectrostatic_energy": 21.33, 
			 "SMD_solvation_energy": 9.96 
		},
		"coords": [
			{
				"x": 5.5019684444,
				"y": 5.1923018156,
				"z": -5.0693465839,
				"element": "C" 
			},
			{
				"x": 5.4924952724,
				"y": 4.2039096165,
				"z": -4.0267582779,
				"element": "O" 
			},
			{
				"x": 4.3966748941,
				"y": 3.4095026432,
				"z": -3.9935754379,
				"element": "C" 
			},
			{
				"x": 3.4866382046,
				"y": 3.4998742207,
				"z": -4.7895661669,
				"element": "O" 
			},
			{
				"x": 4.4639515528,
				"y": 2.4407267299,
				"z": -2.8283341317,
				"element": "C" 
			},
			{
				"x": 3.5331322504,
				"y": 1.2364112265,
				"z": -3.008384047,
				"element": "C" 
			},
			{
				"x": 3.4036388395,
				"y": 0.3299920497,
				"z": -1.7621112459,
				"element": "C" 
			},
			{
				"x": 4.7327570939,
				"y": -0.402542777,
				"z": -1.504074517,
				"element": "C" 
			},
			{
				"x": 2.1773351269,
				"y": -0.6280504909,
				"z": -1.9298365991,
				"element": "C" 
			},
			{
				"x": 2.2831285015,
				"y": -1.9891097029,
				"z": -1.2028487517,
				"element": "C" 
			},
			{
				"x": 1.7699988785,
				"y": -1.7443833157,
				"z": 0.2329645586,
				"element": "C" 
			},
			{
				"x": 0.9500868166,
				"y": -0.4160816052,
				"z": 0.1910607404,
				"element": "C" 
			},
			{
				"x": -0.3499642964,
				"y": -0.4973073824,
				"z": 1.0342309028,
				"element": "C" 
			},
			{
				"x": -0.8263350615,
				"y": 0.8187060639,
				"z": 1.6791752006,
				"element": "C" 
			},
			{
				"x": -1.8812631062,
				"y": 0.5216477155,
				"z": 2.7837346605,
				"element": "C" 
			},
			{
				"x": -2.5426809405,
				"y": -0.8580989944,
				"z": 2.5922211564,
				"element": "C" 
			},
			{
				"x": -3.7282391319,
				"y": -1.1330197364,
				"z": 3.5264780802,
				"element": "C" 
			},
			{
				"x": -4.1578007107,
				"y": -2.6268757696,
				"z": 3.4580483638,
				"element": "C" 
			},
			{
				"x": -3.6199197303,
				"y": -3.3396376291,
				"z": 2.1982378443,
				"element": "C" 
			},
			{
				"x": -3.7218027384,
				"y": -2.4344395154,
				"z": 0.9639720351,
				"element": "C" 
			},
			{
				"x": -2.8978941336,
				"y": -1.1078845848,
				"z": 1.0954983968,
				"element": "C" 
			},
			{
				"x": -3.7958872781,
				"y": 0.0331188776,
				"z": 0.5584472052,
				"element": "C" 
			},
			{
				"x": -1.524839371,
				"y": -1.2266114859,
				"z": 0.3119991842,
				"element": "C" 
			},
			{
				"x": -1.6535394113,
				"y": -0.7962658296,
				"z": -1.1673418647,
				"element": "C" 
			},
			{
				"x": -0.3504162289,
				"y": -0.8520761129,
				"z": -1.9444718763,
				"element": "C" 
			},
			{
				"x": -0.2773637087,
				"y": -1.4364045232,
				"z": -3.0112546967,
				"element": "O" 
			},
			{
				"x": 0.8366934051,
				"y": -0.0780040026,
				"z": -1.3326692538,
				"element": "C" 
			},
			{
				"x": 0.5549556639,
				"y": 1.4191312943,
				"z": -1.593511691,
				"element": "C" 
			},
			{
				"x": 4.6509180779,
				"y": 5.8707291119,
				"z": -4.9672767145,
				"element": "H" 
			},
			{
				"x": 6.4398071254,
				"y": 5.735586636,
				"z": -4.9526680556,
				"element": "H" 
			},
			{
				"x": 5.4541096592,
				"y": 4.716746804,
				"z": -6.0522334197,
				"element": "H" 
			},
			{
				"x": 5.5092269309,
				"y": 2.153771849,
				"z": -2.6823967771,
				"element": "H" 
			},
			{
				"x": 4.1818178429,
				"y": 3.0089509517,
				"z": -1.929698422,
				"element": "H" 
			},
			{
				"x": 2.5555881291,
				"y": 1.6146142508,
				"z": -3.3129271224,
				"element": "H" 
			},
			{
				"x": 3.8866593155,
				"y": 0.6266273177,
				"z": -3.8506616131,
				"element": "H" 
			},
			{
				"x": 3.2315533853,
				"y": 0.9784808868,
				"z": -0.8901970223,
				"element": "H" 
			},
			{
				"x": 4.9589828962,
				"y": -1.1141707738,
				"z": -2.3068788518,
				"element": "H" 
			},
			{
				"x": 5.5644092238,
				"y": 0.3069743695,
				"z": -1.4507642662,
				"element": "H" 
			},
			{
				"x": 4.7247945829,
				"y": -0.9531379731,
				"z": -0.559267877,
				"element": "H" 
			},
			{
				"x": 2.0346958623,
				"y": -0.8064005649,
				"z": -3.0006344513,
				"element": "H" 
			},
			{
				"x": 1.6247714964,
				"y": -2.6946521722,
				"z": -1.717385131,
				"element": "H" 
			},
			{
				"x": 3.2826883782,
				"y": -2.4258070503,
				"z": -1.2292487247,
				"element": "H" 
			},
			{
				"x": 2.5944581501,
				"y": -1.6523859703,
				"z": 0.9489421466,
				"element": "H" 
			},
			{
				"x": 1.1553491072,
				"y": -2.5820417422,
				"z": 0.5813435403,
				"element": "H" 
			},
			{
				"x": 1.5678508221,
				"y": 0.372988285,
				"z": 0.6404835057,
				"element": "H" 
			},
			{
				"x": -0.0634924448,
				"y": -1.1332687796,
				"z": 1.8813378937,
				"element": "H" 
			},
			{
				"x": -1.2453935366,
				"y": 1.491821762,
				"z": 0.923100286,
				"element": "H" 
			},
			{
				"x": 0.0300615562,
				"y": 1.3509025683,
				"z": 2.1096373026,
				"element": "H" 
			},
			{
				"x": -1.4027054318,
				"y": 0.5405924112,
				"z": 3.7707368032,
				"element": "H" 
			},
			{
				"x": -2.6432503402,
				"y": 1.3098357955,
				"z": 2.8028539888,
				"element": "H" 
			},
			{
				"x": -1.7849046559,
				"y": -1.6053158357,
				"z": 2.860417693,
				"element": "H" 
			},
			{
				"x": -3.4552105774,
				"y": -0.8635072256,
				"z": 4.5538057447,
				"element": "H" 
			},
			{
				"x": -4.5702805562,
				"y": -0.4813879682,
				"z": 3.2635344738,
				"element": "H" 
			},
			{
				"x": -3.8120739617,
				"y": -3.1617487963,
				"z": 4.3502117892,
				"element": "H" 
			},
			{
				"x": -5.2522339216,
				"y": -2.6935192996,
				"z": 3.4690968419,
				"element": "H" 
			},
			{
				"x": -2.5765308179,
				"y": -3.6430167844,
				"z": 2.352403818,
				"element": "H" 
			},
			{
				"x": -4.1787240731,
				"y": -4.2673891614,
				"z": 2.0295769854,
				"element": "H" 
			},
			{
				"x": -3.4140095474,
				"y": -2.9780638313,
				"z": 0.0621721069,
				"element": "H" 
			},
			{
				"x": -4.7813939298,
				"y": -2.1881351994,
				"z": 0.8157029821,
				"element": "H" 
			},
			{
				"x": -4.6758465779,
				"y": 0.1521567998,
				"z": 1.1980831273,
				"element": "H" 
			},
			{
				"x": -4.1658141721,
				"y": -0.1996738533,
				"z": -0.4444309594,
				"element": "H" 
			},
			{
				"x": -3.2963815527,
				"y": 1.003772504,
				"z": 0.5099284098,
				"element": "H" 
			},
			{
				"x": -1.2663315142,
				"y": -2.2949069701,
				"z": 0.3031942853,
				"element": "H" 
			},
			{
				"x": -2.0126751683,
				"y": 0.2377344431,
				"z": -1.2224558748,
				"element": "H" 
			},
			{
				"x": -2.3790610914,
				"y": -1.4172210543,
				"z": -1.7004827413,
				"element": "H" 
			},
			{
				"x": -0.3653531374,
				"y": 1.7465139187,
				"z": -1.1038659758,
				"element": "H" 
			},
			{
				"x": 1.3626444042,
				"y": 2.0431452835,
				"z": -1.2012252299,
				"element": "H" 
			},
			{
				"x": 0.4511709654,
				"y": 1.6251762618,
				"z": -2.6630476818,
				"element": "H" 
			}
		],
		 "valence_orbital": [ 
			{
				"type": "occ",
				"energy": -0.28294,
				"method": "rhf"
			},
			{
				"type": "occ",
				"energy": -0.28033,
				"method": "rhf"
			},
			{
				"type": "occ",
				"energy": -0.27499,
				"method": "rhf"
			},
			{
				"type": "occ",
				"energy": -0.2677,
				"method": "rhf"
			},
			{
				"type": "occ",
				"energy": -0.22866,
				"method": "rhf"
			},
			{
				"type": "unocc",
				"energy": -0.00978,
				"method": "rhf"
			},
			{
				"type": "unocc",
				"energy": 0.01575,
				"method": "rhf"
			},
			{
				"type": "unocc",
				"energy": 0.06242,
				"method": "rhf"
			},
			{
				"type": "unocc",
				"energy": 0.06985,
				"method": "rhf"
			},
			{
				"type": "unocc",
				"energy": 0.07554,
				"method": "rhf"
			}
		],
		"cosmo_sigma_profile": { 
			"-0.025": 0.0,
			"-0.024": 0.0,
			"-0.023": 0.0,
			"-0.022": 0.0,
			"-0.021": 0.0,
			"-0.02": 0.0,
			"-0.019": 0.0,
			"-0.018": 0.0,
			"-0.017": 0.0,
			"-0.016": 0.0,
			"-0.015": 0.0,
			"-0.014": 0.0,
			"-0.013": 0.0,
			"-0.012": 0.0,
			"-0.011": 0.0,
			"-0.01": 0.0,
			"-0.009": 0.0,
			"-0.008": 0.0,
			"-0.007": 0.780241049513,
			"-0.006": 6.49544871617,
			"-0.005": 13.9701124573,
			"-0.004": 22.071278056,
			"-0.003": 41.5176079124,
			"-0.002": 79.3066076736,
			"-0.001": 77.283324214,
			"0.0": 70.8420277534,
			"0.001": 48.7154798986,
			"0.002": 30.7158457056,
			"0.003": 6.23330230342,
			"0.004": 4.69328298119,
			"0.005": 4.44297544356,
			"0.006": 5.42153809595,
			"0.007": 3.62066016821,
			"0.008": 5.26086803643,
			"0.009": 3.67895855599,
			"0.01": 4.01605333138,
			"0.011": 5.26698499009,
			"0.012": 8.04164815725,
			"0.013": 4.53329734708,
			"0.014": 0.4635358948,
			"0.015": 0.0,
			"0.016": 0.0,
			"0.017": 0.0,
			"0.018": 0.0,
			"0.019": 0.0,
			"0.02": 0.0,
			"0.021": 0.0,
			"0.022": 0.0,
			"0.023": 0.0,
			"0.024": 0.0,
			"0.025": 0.0
		}
	}
}
