{
	 "smiles": "NC1=C2N=CN(C3OC(CO)C(OP(O)(O)=O)C3O)C2=NC=N1", 
	 "Tm": 470.15, 
	 "num_atms": 37, 
	 "gaussian": { 
		 "optdone": 1, 
		 "sigma_profile": "yes", 
		 "theory": "DFT", 
		 "functional": "B3LYP", 
		 "basiset": "6-31G**", 
		 "properties": { 
			 "R2extent": 8511.9065, 
			 "electric_dipole_moment_norm": 2.28353426731, 
			 "electric_quadrupole_moment_norm": 26.1168518049, 
			 "total_energy": -1531.26534291, 
			 "HOMO_LUMO_gap": 0.19712, 
			 "cosmo_polarized_energy": -31.51, 
			 "cosmo_cavitation_energy": 40.69, 
			 "cosmo_dispersion_energy": -29.72, 
			 "cosmo_repulsion_energy": 2.22, 
			 "cosmo_total_nonelectrostatic_energy": 13.2, 
			 "SMD_solvation_energy": 4.13 
		},
		"coords": [
			{
				"x": -0.636104797,
				"y": 3.7804050689,
				"z": 4.1303783276,
				"element": "N" 
			},
			{
				"x": -1.2413094178,
				"y": 3.271698768,
				"z": 3.0309852924,
				"element": "C" 
			},
			{
				"x": -0.7755594659,
				"y": 2.1069505966,
				"z": 2.3836449135,
				"element": "C" 
			},
			{
				"x": 0.2649203877,
				"y": 1.2329978397,
				"z": 2.6499810905,
				"element": "N" 
			},
			{
				"x": 0.186996139,
				"y": 0.341306314,
				"z": 1.6928206527,
				"element": "C" 
			},
			{
				"x": -0.8543210097,
				"y": 0.5676962531,
				"z": 0.8017453587,
				"element": "N" 
			},
			{
				"x": -1.2587948495,
				"y": -0.1906544402,
				"z": -0.3588054286,
				"element": "C" 
			},
			{
				"x": -1.5231503216,
				"y": -1.5474798841,
				"z": 0.0100723647,
				"element": "O" 
			},
			{
				"x": -0.8451908524,
				"y": -2.4541990568,
				"z": -0.8785918581,
				"element": "C" 
			},
			{
				"x": -0.650626667,
				"y": -3.7625739001,
				"z": -0.1091220655,
				"element": "C" 
			},
			{
				"x": -0.1319360456,
				"y": -3.5383076077,
				"z": 1.2064499075,
				"element": "O" 
			},
			{
				"x": 0.3724794174,
				"y": -1.6859548999,
				"z": -1.4003285923,
				"element": "C" 
			},
			{
				"x": 1.455630953,
				"y": -1.6018498418,
				"z": -0.4537781607,
				"element": "O" 
			},
			{
				"x": 2.6096681099,
				"y": -2.7700423425,
				"z": -0.3996199966,
				"element": "P" 
			},
			{
				"x": 2.5115250077,
				"y": -3.2526865305,
				"z": 1.1178647484,
				"element": "O" 
			},
			{
				"x": 3.9901995687,
				"y": -1.9543893862,
				"z": -0.3922003576,
				"element": "O" 
			},
			{
				"x": 2.45566431,
				"y": -3.7444942015,
				"z": -1.4985450413,
				"element": "O" 
			},
			{
				"x": -0.1978382435,
				"y": -0.2591910151,
				"z": -1.5194411647,
				"element": "C" 
			},
			{
				"x": 0.75310137,
				"y": 0.7595994982,
				"z": -1.5279630866,
				"element": "O" 
			},
			{
				"x": -1.4871660617,
				"y": 1.7158980331,
				"z": 1.2475788199,
				"element": "C" 
			},
			{
				"x": -2.5549611606,
				"y": 2.3237525295,
				"z": 0.7190874728,
				"element": "N" 
			},
			{
				"x": -2.8965303165,
				"y": 3.4061338535,
				"z": 1.426609219,
				"element": "C" 
			},
			{
				"x": -2.3161611269,
				"y": 3.9069104919,
				"z": 2.5288861908,
				"element": "N" 
			},
			{
				"x": -1.0750981357,
				"y": 4.5524241658,
				"z": 4.6054590285,
				"element": "H" 
			},
			{
				"x": 0.0964654142,
				"y": 3.2593060609,
				"z": 4.5832528287,
				"element": "H" 
			},
			{
				"x": 0.8437066502,
				"y": -0.5079656247,
				"z": 1.5738400227,
				"element": "H" 
			},
			{
				"x": -2.1810508679,
				"y": 0.2879118375,
				"z": -0.700241943,
				"element": "H" 
			},
			{
				"x": -1.4821434293,
				"y": -2.6719329759,
				"z": -1.7510942924,
				"element": "H" 
			},
			{
				"x": -1.6176965162,
				"y": -4.2738700466,
				"z": -0.0319899628,
				"element": "H" 
			},
			{
				"x": 0.0519890224,
				"y": -4.4117322477,
				"z": -0.6365961332,
				"element": "H" 
			},
			{
				"x": -0.6189166008,
				"y": -2.7743538639,
				"z": 1.5565924663,
				"element": "H" 
			},
			{
				"x": 0.7444404787,
				"y": -2.0917535921,
				"z": -2.34246577,
				"element": "H" 
			},
			{
				"x": 1.5601361615,
				"y": -3.4550090222,
				"z": 1.330906845,
				"element": "H" 
			},
			{
				"x": 4.294230867,
				"y": -1.7634517431,
				"z": 0.5064810762,
				"element": "H" 
			},
			{
				"x": -0.7506119543,
				"y": -0.189696179,
				"z": -2.4624587436,
				"element": "H" 
			},
			{
				"x": 1.4583215553,
				"y": 0.4981743219,
				"z": -0.9167964642,
				"element": "H" 
			},
			{
				"x": -3.761507573,
				"y": 3.9580227694,
				"z": 1.0644024351,
				"element": "H" 
			}
		],
		 "valence_orbital": [ 
			{
				"type": "occ",
				"energy": -0.28528,
				"method": "rhf"
			},
			{
				"type": "occ",
				"energy": -0.28089,
				"method": "rhf"
			},
			{
				"type": "occ",
				"energy": -0.26463,
				"method": "rhf"
			},
			{
				"type": "occ",
				"energy": -0.25204,
				"method": "rhf"
			},
			{
				"type": "occ",
				"energy": -0.22242,
				"method": "rhf"
			},
			{
				"type": "unocc",
				"energy": -0.0253,
				"method": "rhf"
			},
			{
				"type": "unocc",
				"energy": 0.00328,
				"method": "rhf"
			},
			{
				"type": "unocc",
				"energy": 0.02045,
				"method": "rhf"
			},
			{
				"type": "unocc",
				"energy": 0.02859,
				"method": "rhf"
			},
			{
				"type": "unocc",
				"energy": 0.05151,
				"method": "rhf"
			}
		],
		"cosmo_sigma_profile": { 
			"-0.025": 0.0,
			"-0.024": 0.0,
			"-0.023": 0.0,
			"-0.022": 0.0,
			"-0.021": 0.0,
			"-0.02": 0.27435206645,
			"-0.019": 1.1793333628,
			"-0.018": 0.752755906418,
			"-0.017": 0.849897839345,
			"-0.016": 0.514376645998,
			"-0.015": 0.707624910285,
			"-0.014": 2.22380482391,
			"-0.013": 3.08734820007,
			"-0.012": 4.21628045488,
			"-0.011": 4.22287746312,
			"-0.01": 6.06230161948,
			"-0.009": 9.63871875458,
			"-0.008": 13.9743978629,
			"-0.007": 15.1981016775,
			"-0.006": 18.9782421106,
			"-0.005": 17.0434938346,
			"-0.004": 14.7542032163,
			"-0.003": 13.7120690232,
			"-0.002": 10.9406763558,
			"-0.001": 14.3342226219,
			"0.0": 18.7394159625,
			"0.001": 20.6398961859,
			"0.002": 15.6617352585,
			"0.003": 12.2313437071,
			"0.004": 11.9008707568,
			"0.005": 11.834742661,
			"0.006": 10.188428081,
			"0.007": 9.06561935806,
			"0.008": 11.308320287,
			"0.009": 8.57776392264,
			"0.01": 9.22337418681,
			"0.011": 6.45003410607,
			"0.012": 6.73321974271,
			"0.013": 6.58304818207,
			"0.014": 6.11132714423,
			"0.015": 1.96915212315,
			"0.016": 0.260943728466,
			"0.017": 0.0,
			"0.018": 0.0,
			"0.019": 0.0,
			"0.02": 0.0,
			"0.021": 0.0,
			"0.022": 0.0,
			"0.023": 0.0,
			"0.024": 0.0,
			"0.025": 0.0
		}
	}
}
