{
	 "smiles": "COC1=C(OC)C=C(C=C1)C1(C)NC(=O)NC1=O", 
	 "Tm": 451.15, 
	 "num_atms": 32, 
	 "gaussian": { 
		 "optdone": 1, 
		 "sigma_profile": "yes", 
		 "theory": "DFT", 
		 "functional": "B3LYP", 
		 "basiset": "6-31G**", 
		 "properties": { 
			 "R2extent": 5902.7328, 
			 "electric_dipole_moment_norm": 2.73543387052, 
			 "electric_quadrupole_moment_norm": 13.9609026707, 
			 "total_energy": -876.122809833, 
			 "HOMO_LUMO_gap": 0.21164, 
			 "cosmo_polarized_energy": -18.29, 
			 "cosmo_cavitation_energy": 35.72, 
			 "cosmo_dispersion_energy": -24.95, 
			 "cosmo_repulsion_energy": 1.96, 
			 "cosmo_total_nonelectrostatic_energy": 12.73, 
			 "SMD_solvation_energy": 9.28 
		},
		"coords": [
			{
				"x": -2.7837558791,
				"y": -1.458987212,
				"z": -2.1516780793,
				"element": "C" 
			},
			{
				"x": -1.406385472,
				"y": -1.0642993607,
				"z": -2.1776571846,
				"element": "O" 
			},
			{
				"x": -0.9427294495,
				"y": -0.4969875551,
				"z": -1.0126235768,
				"element": "C" 
			},
			{
				"x": -0.790938374,
				"y": -1.2455843099,
				"z": 0.1681144183,
				"element": "C" 
			},
			{
				"x": -1.1478829841,
				"y": -2.5744992551,
				"z": 0.2327148908,
				"element": "O" 
			},
			{
				"x": -0.308950814,
				"y": -3.4590244522,
				"z": -0.5217860778,
				"element": "C" 
			},
			{
				"x": -0.3025590225,
				"y": -0.6299963057,
				"z": 1.3218716955,
				"element": "C" 
			},
			{
				"x": 0.0485882803,
				"y": 0.7232551919,
				"z": 1.3255390119,
				"element": "C" 
			},
			{
				"x": -0.0710033978,
				"y": 1.4548467996,
				"z": 0.1353567396,
				"element": "C" 
			},
			{
				"x": -0.5639848194,
				"y": 0.8467502876,
				"z": -1.017166523,
				"element": "C" 
			},
			{
				"x": 0.5484905011,
				"y": 1.410261486,
				"z": 2.6026912704,
				"element": "C" 
			},
			{
				"x": -0.3831054236,
				"y": 2.5671116317,
				"z": 3.0205090636,
				"element": "C" 
			},
			{
				"x": 0.7692940175,
				"y": 0.4776389023,
				"z": 3.7061545755,
				"element": "N" 
			},
			{
				"x": 2.0533677956,
				"y": 0.4782297383,
				"z": 4.1918170724,
				"element": "C" 
			},
			{
				"x": 2.5018729916,
				"y": -0.1165546781,
				"z": 5.14873776,
				"element": "O" 
			},
			{
				"x": 2.7749057019,
				"y": 1.3360232232,
				"z": 3.3347953404,
				"element": "N" 
			},
			{
				"x": 1.9863569357,
				"y": 1.9647234176,
				"z": 2.3981464517,
				"element": "C" 
			},
			{
				"x": 2.332967109,
				"y": 2.8007886525,
				"z": 1.5908807496,
				"element": "O" 
			},
			{
				"x": -2.9958320286,
				"y": -1.8903365897,
				"z": -3.1320096367,
				"element": "H" 
			},
			{
				"x": -2.9720368074,
				"y": -2.2019697429,
				"z": -1.3707389203,
				"element": "H" 
			},
			{
				"x": -3.4325968542,
				"y": -0.5887134953,
				"z": -1.9916208695,
				"element": "H" 
			},
			{
				"x": -0.3165737183,
				"y": -3.2048625377,
				"z": -1.5861350999,
				"element": "H" 
			},
			{
				"x": -0.7154907121,
				"y": -4.4620511304,
				"z": -0.377669747,
				"element": "H" 
			},
			{
				"x": 0.7214652306,
				"y": -3.428598138,
				"z": -0.1464990371,
				"element": "H" 
			},
			{
				"x": -0.1903175889,
				"y": -1.2416011534,
				"z": 2.2097487118,
				"element": "H" 
			},
			{
				"x": 0.2430263905,
				"y": 2.4918523109,
				"z": 0.1029710983,
				"element": "H" 
			},
			{
				"x": -0.6640517727,
				"y": 1.4037162598,
				"z": -1.9434325537,
				"element": "H" 
			},
			{
				"x": -0.0177989389,
				"y": 3.0434315789,
				"z": 3.9354485749,
				"element": "H" 
			},
			{
				"x": -0.4305587215,
				"y": 3.3198026655,
				"z": 2.2313539774,
				"element": "H" 
			},
			{
				"x": -1.3939379617,
				"y": 2.1872316853,
				"z": 3.1973143787,
				"element": "H" 
			},
			{
				"x": 0.0273402353,
				"y": 0.1001391944,
				"z": 4.2755617958,
				"element": "H" 
			},
			{
				"x": 3.7611155511,
				"y": 1.5152628907,
				"z": 3.4587897291,
				"element": "H" 
			}
		],
		 "valence_orbital": [ 
			{
				"type": "occ",
				"energy": -0.27306,
				"method": "rhf"
			},
			{
				"type": "occ",
				"energy": -0.26907,
				"method": "rhf"
			},
			{
				"type": "occ",
				"energy": -0.26419,
				"method": "rhf"
			},
			{
				"type": "occ",
				"energy": -0.2473,
				"method": "rhf"
			},
			{
				"type": "occ",
				"energy": -0.23121,
				"method": "rhf"
			},
			{
				"type": "unocc",
				"energy": -0.01957,
				"method": "rhf"
			},
			{
				"type": "unocc",
				"energy": -0.00548,
				"method": "rhf"
			},
			{
				"type": "unocc",
				"energy": 0.00297,
				"method": "rhf"
			},
			{
				"type": "unocc",
				"energy": 0.05828,
				"method": "rhf"
			},
			{
				"type": "unocc",
				"energy": 0.0724,
				"method": "rhf"
			}
		],
		"cosmo_sigma_profile": { 
			"-0.025": 0.0,
			"-0.024": 0.0,
			"-0.023": 0.0,
			"-0.022": 0.0,
			"-0.021": 0.0,
			"-0.02": 0.0,
			"-0.019": 0.0,
			"-0.018": 0.0,
			"-0.017": 0.592801300527,
			"-0.016": 1.27968506808,
			"-0.015": 2.29364229211,
			"-0.014": 1.46154447448,
			"-0.013": 1.78795207591,
			"-0.012": 2.47875352958,
			"-0.011": 2.38711816439,
			"-0.01": 1.5434509637,
			"-0.009": 2.17344891348,
			"-0.008": 2.62758133602,
			"-0.007": 3.55618233386,
			"-0.006": 8.17343017337,
			"-0.005": 18.3112192867,
			"-0.004": 23.2004914002,
			"-0.003": 30.6647458002,
			"-0.002": 29.4025367099,
			"-0.001": 23.4416977095,
			"0.0": 18.1960755918,
			"0.001": 12.7129614106,
			"0.002": 12.2616812166,
			"0.003": 15.1817344232,
			"0.004": 13.2028639329,
			"0.005": 7.60094164194,
			"0.006": 5.15776433474,
			"0.007": 5.03376456313,
			"0.008": 4.72737396246,
			"0.009": 4.06288891354,
			"0.01": 5.42092078991,
			"0.011": 8.04578539422,
			"0.012": 9.09740112461,
			"0.013": 6.01581404326,
			"0.014": 0.592052622119,
			"0.015": 0.0,
			"0.016": 0.0,
			"0.017": 0.0,
			"0.018": 0.0,
			"0.019": 0.0,
			"0.02": 0.0,
			"0.021": 0.0,
			"0.022": 0.0,
			"0.023": 0.0,
			"0.024": 0.0,
			"0.025": 0.0
		}
	}
}
