{
	 "smiles": "OC1=CC=CC(O)=C1CC1=C(O)C=CC=C1O", 
	 "Tm": 528.15, 
	 "num_atms": 29, 
	 "gaussian": { 
		 "optdone": 1, 
		 "sigma_profile": "yes", 
		 "theory": "DFT", 
		 "functional": "B3LYP", 
		 "basiset": "6-31G**", 
		 "properties": { 
			 "R2extent": 4455.6483, 
			 "electric_dipole_moment_norm": 0.27413538626, 
			 "electric_quadrupole_moment_norm": 21.6134006993, 
			 "total_energy": -803.515591397, 
			 "HOMO_LUMO_gap": 0.21017, 
			 "cosmo_polarized_energy": -17.57, 
			 "cosmo_cavitation_energy": 31.3, 
			 "cosmo_dispersion_energy": -23.47, 
			 "cosmo_repulsion_energy": 1.76, 
			 "cosmo_total_nonelectrostatic_energy": 9.59, 
			 "SMD_solvation_energy": 5.83 
		},
		"coords": [
			{
				"x": -1.6261597888,
				"y": -0.8365828205,
				"z": 2.5811283158,
				"element": "O" 
			},
			{
				"x": -0.3702051144,
				"y": -0.3281938362,
				"z": 2.6305681288,
				"element": "C" 
			},
			{
				"x": -0.1751822503,
				"y": 0.7519988307,
				"z": 3.5057445614,
				"element": "C" 
			},
			{
				"x": 1.081780209,
				"y": 1.3270907944,
				"z": 3.6340237051,
				"element": "C" 
			},
			{
				"x": 2.1625433377,
				"y": 0.8400553797,
				"z": 2.8966568462,
				"element": "C" 
			},
			{
				"x": 1.9526993942,
				"y": -0.2370571321,
				"z": 2.0383831699,
				"element": "C" 
			},
			{
				"x": 2.9993594034,
				"y": -0.7681129023,
				"z": 1.2985988666,
				"element": "O" 
			},
			{
				"x": 0.7026554348,
				"y": -0.8534365591,
				"z": 1.8804837195,
				"element": "C" 
			},
			{
				"x": 0.5464405858,
				"y": -2.0647523924,
				"z": 0.9682834527,
				"element": "C" 
			},
			{
				"x": 0.034165239,
				"y": -1.7892999032,
				"z": -0.4407634111,
				"element": "C" 
			},
			{
				"x": 0.8892883391,
				"y": -1.4052454486,
				"z": -1.4947090828,
				"element": "C" 
			},
			{
				"x": 2.2235450917,
				"y": -1.2238905,
				"z": -1.335998314,
				"element": "O" 
			},
			{
				"x": 0.3906590038,
				"y": -1.2175334812,
				"z": -2.7935196786,
				"element": "C" 
			},
			{
				"x": -0.9610415708,
				"y": -1.3970078555,
				"z": -3.0539972793,
				"element": "C" 
			},
			{
				"x": -1.8371859814,
				"y": -1.7645036722,
				"z": -2.0311185457,
				"element": "C" 
			},
			{
				"x": -1.324142593,
				"y": -1.9535720136,
				"z": -0.7497570793,
				"element": "C" 
			},
			{
				"x": -2.1518320725,
				"y": -2.3369277199,
				"z": 0.2956098593,
				"element": "O" 
			},
			{
				"x": -1.7560801345,
				"y": -1.4289145516,
				"z": 1.8167227478,
				"element": "H" 
			},
			{
				"x": -1.0288888191,
				"y": 1.1182948983,
				"z": 4.0650224057,
				"element": "H" 
			},
			{
				"x": 1.2266327352,
				"y": 2.1654158651,
				"z": 4.3088715758,
				"element": "H" 
			},
			{
				"x": 3.149799961,
				"y": 1.2862186274,
				"z": 2.9882585696,
				"element": "H" 
			},
			{
				"x": 3.7930179163,
				"y": -0.2363001164,
				"z": 1.4400090001,
				"element": "H" 
			},
			{
				"x": 1.5134940323,
				"y": -2.5713113724,
				"z": 0.8988195016,
				"element": "H" 
			},
			{
				"x": -0.1277029952,
				"y": -2.7812933783,
				"z": 1.4465172287,
				"element": "H" 
			},
			{
				"x": 2.4787314002,
				"y": -1.1549350146,
				"z": -0.3967531317,
				"element": "H" 
			},
			{
				"x": 1.0871044455,
				"y": -0.9271280215,
				"z": -3.5722430928,
				"element": "H" 
			},
			{
				"x": -1.342752114,
				"y": -1.246212528,
				"z": -4.0593572639,
				"element": "H" 
			},
			{
				"x": -2.8978326388,
				"y": -1.9041995263,
				"z": -2.2251352681,
				"element": "H" 
			},
			{
				"x": -3.0661104562,
				"y": -2.3651636496,
				"z": -0.0142495073,
				"element": "H" 
			}
		],
		 "valence_orbital": [ 
			{
				"type": "occ",
				"energy": -0.31062,
				"method": "rhf"
			},
			{
				"type": "occ",
				"energy": -0.23612,
				"method": "rhf"
			},
			{
				"type": "occ",
				"energy": -0.22524,
				"method": "rhf"
			},
			{
				"type": "occ",
				"energy": -0.21182,
				"method": "rhf"
			},
			{
				"type": "occ",
				"energy": -0.21138,
				"method": "rhf"
			},
			{
				"type": "unocc",
				"energy": -0.00121,
				"method": "rhf"
			},
			{
				"type": "unocc",
				"energy": 0.01221,
				"method": "rhf"
			},
			{
				"type": "unocc",
				"energy": 0.01782,
				"method": "rhf"
			},
			{
				"type": "unocc",
				"energy": 0.02284,
				"method": "rhf"
			},
			{
				"type": "unocc",
				"energy": 0.05125,
				"method": "rhf"
			}
		],
		"cosmo_sigma_profile": { 
			"-0.025": 0.0,
			"-0.024": 0.0,
			"-0.023": 0.0,
			"-0.022": 0.0,
			"-0.021": 0.0,
			"-0.02": 0.0,
			"-0.019": 0.687708523084,
			"-0.018": 2.26916396127,
			"-0.017": 2.21313545236,
			"-0.016": 1.90335427759,
			"-0.015": 1.97577498605,
			"-0.014": 1.69946597541,
			"-0.013": 1.57379869481,
			"-0.012": 3.01698761737,
			"-0.011": 2.08808743943,
			"-0.01": 1.67925529071,
			"-0.009": 1.90962005866,
			"-0.008": 2.35783617966,
			"-0.007": 3.44008884971,
			"-0.006": 7.17299199576,
			"-0.005": 12.6675149129,
			"-0.004": 16.115737802,
			"-0.003": 17.1440029544,
			"-0.002": 15.6919869721,
			"-0.001": 15.1369169646,
			"0.0": 12.6830313058,
			"0.001": 12.9586177525,
			"0.002": 12.8412607022,
			"0.003": 18.845820977,
			"0.004": 20.9034301952,
			"0.005": 20.9528547544,
			"0.006": 17.8466393843,
			"0.007": 5.62565255368,
			"0.008": 3.21088680068,
			"0.009": 2.86397222803,
			"0.01": 3.11187648989,
			"0.011": 3.08567906367,
			"0.012": 3.50260652745,
			"0.013": 0.500585813192,
			"0.014": 0.0,
			"0.015": 0.0,
			"0.016": 0.0,
			"0.017": 0.0,
			"0.018": 0.0,
			"0.019": 0.0,
			"0.02": 0.0,
			"0.021": 0.0,
			"0.022": 0.0,
			"0.023": 0.0,
			"0.024": 0.0,
			"0.025": 0.0
		}
	}
}
