{
	 "smiles": "COC1=CC=C(C=C1[N+]([O-])=O)C(N)=O", 
	 "Tm": 448.15, 
	 "num_atms": 22, 
	 "gaussian": { 
		 "optdone": 1, 
		 "sigma_profile": "yes", 
		 "theory": "DFT", 
		 "functional": "B3LYP", 
		 "basiset": "6-31G**", 
		 "properties": { 
			 "R2extent": 3597.3845, 
			 "electric_dipole_moment_norm": 2.89536830645, 
			 "electric_quadrupole_moment_norm": 28.0686598588, 
			 "total_energy": -719.968120859, 
			 "HOMO_LUMO_gap": 0.16738, 
			 "cosmo_polarized_energy": -19.45, 
			 "cosmo_cavitation_energy": 27.51, 
			 "cosmo_dispersion_energy": -20.09, 
			 "cosmo_repulsion_energy": 1.59, 
			 "cosmo_total_nonelectrostatic_energy": 9.0, 
			 "SMD_solvation_energy": 8.62 
		},
		"coords": [
			{
				"x": -1.7196509932,
				"y": -3.189928501,
				"z": 0.8891324856,
				"element": "C" 
			},
			{
				"x": -0.751006073,
				"y": -2.9024102376,
				"z": -0.1167194863,
				"element": "O" 
			},
			{
				"x": -0.447514484,
				"y": -1.6221383762,
				"z": -0.3863740072,
				"element": "C" 
			},
			{
				"x": -1.0540241712,
				"y": -0.5267038913,
				"z": 0.2566441553,
				"element": "C" 
			},
			{
				"x": -0.6806333036,
				"y": 0.7758638906,
				"z": -0.0419425187,
				"element": "C" 
			},
			{
				"x": 0.3137759014,
				"y": 1.04939807,
				"z": -0.9907159866,
				"element": "C" 
			},
			{
				"x": 0.9389954212,
				"y": -0.0262727559,
				"z": -1.6192842418,
				"element": "C" 
			},
			{
				"x": 0.5619329206,
				"y": -1.3383283026,
				"z": -1.340308007,
				"element": "C" 
			},
			{
				"x": 1.2646570244,
				"y": -2.3946588631,
				"z": -2.0820283817,
				"element": "N" 
			},
			{
				"x": 2.3538170824,
				"y": -2.096140665,
				"z": -2.5816791843,
				"element": "O" 
			},
			{
				"x": 0.7295090874,
				"y": -3.4937540945,
				"z": -2.1883834764,
				"element": "O" 
			},
			{
				"x": 0.6574622758,
				"y": 2.489390529,
				"z": -1.2409352042,
				"element": "C" 
			},
			{
				"x": 1.4443993526,
				"y": 2.7551612284,
				"z": -2.3314538659,
				"element": "N" 
			},
			{
				"x": 0.2676653687,
				"y": 3.3764679736,
				"z": -0.4904192119,
				"element": "O" 
			},
			{
				"x": -1.7754930203,
				"y": -4.2774735256,
				"z": 0.9322045325,
				"element": "H" 
			},
			{
				"x": -1.4115237903,
				"y": -2.7997264053,
				"z": 1.86597117,
				"element": "H" 
			},
			{
				"x": -2.7030567772,
				"y": -2.7850991535,
				"z": 0.6241815528,
				"element": "H" 
			},
			{
				"x": -1.8222146622,
				"y": -0.6990728511,
				"z": 0.9995176765,
				"element": "H" 
			},
			{
				"x": -1.1487655689,
				"y": 1.6151378832,
				"z": 0.4613172715,
				"element": "H" 
			},
			{
				"x": 1.7540683642,
				"y": 0.1048269289,
				"z": -2.3203286898,
				"element": "H" 
			},
			{
				"x": 1.5865845902,
				"y": 3.7322746764,
				"z": -2.5412198888,
				"element": "H" 
			},
			{
				"x": 1.5280154552,
				"y": 2.1022864424,
				"z": -3.0939766937,
				"element": "H" 
			}
		],
		 "valence_orbital": [ 
			{
				"type": "occ",
				"energy": -0.29214,
				"method": "rhf"
			},
			{
				"type": "occ",
				"energy": -0.28123,
				"method": "rhf"
			},
			{
				"type": "occ",
				"energy": -0.2764,
				"method": "rhf"
			},
			{
				"type": "occ",
				"energy": -0.26147,
				"method": "rhf"
			},
			{
				"type": "occ",
				"energy": -0.25172,
				"method": "rhf"
			},
			{
				"type": "unocc",
				"energy": -0.08434,
				"method": "rhf"
			},
			{
				"type": "unocc",
				"energy": -0.04634,
				"method": "rhf"
			},
			{
				"type": "unocc",
				"energy": -0.01071,
				"method": "rhf"
			},
			{
				"type": "unocc",
				"energy": 0.05371,
				"method": "rhf"
			},
			{
				"type": "unocc",
				"energy": 0.06038,
				"method": "rhf"
			}
		],
		"cosmo_sigma_profile": { 
			"-0.025": 0.0,
			"-0.024": 0.0,
			"-0.023": 0.0,
			"-0.022": 0.0,
			"-0.021": 0.0,
			"-0.02": 0.0,
			"-0.019": 0.0,
			"-0.018": 0.0,
			"-0.017": 0.0,
			"-0.016": 0.053971405183,
			"-0.015": 0.820858555414,
			"-0.014": 2.28290154013,
			"-0.013": 2.89728588401,
			"-0.012": 2.00432337025,
			"-0.011": 2.58348440197,
			"-0.01": 2.73116237829,
			"-0.009": 2.76029645917,
			"-0.008": 4.43608055145,
			"-0.007": 9.82174481019,
			"-0.006": 14.9861377589,
			"-0.005": 14.7855106381,
			"-0.004": 14.756498261,
			"-0.003": 9.92457922524,
			"-0.002": 12.2794348272,
			"-0.001": 15.9287459207,
			"0.0": 14.4351844551,
			"0.001": 14.2956922741,
			"0.002": 9.59287899157,
			"0.003": 5.04592186497,
			"0.004": 5.60232845747,
			"0.005": 5.17306325662,
			"0.006": 5.018648644,
			"0.007": 8.38222133749,
			"0.008": 11.3257598711,
			"0.009": 7.20254859816,
			"0.01": 6.17505921852,
			"0.011": 3.70955573569,
			"0.012": 3.14813313098,
			"0.013": 4.71046197712,
			"0.014": 2.74400907263,
			"0.015": 0.0929780582087,
			"0.016": 0.0,
			"0.017": 0.0,
			"0.018": 0.0,
			"0.019": 0.0,
			"0.02": 0.0,
			"0.021": 0.0,
			"0.022": 0.0,
			"0.023": 0.0,
			"0.024": 0.0,
			"0.025": 0.0
		}
	}
}
