{
	 "smiles": "CC1=NN(C2CCS(=O)(=O)C2)C(N)=C1", 
	 "Tm": 489.15, 
	 "num_atms": 27, 
	 "gaussian": { 
		 "optdone": 1, 
		 "sigma_profile": "yes", 
		 "theory": "DFT", 
		 "functional": "B3LYP", 
		 "basiset": "6-31G**", 
		 "properties": { 
			 "R2extent": 3998.811, 
			 "electric_dipole_moment_norm": 7.76040278723, 
			 "electric_quadrupole_moment_norm": 22.2652514331, 
			 "total_energy": -1025.49854275, 
			 "HOMO_LUMO_gap": 0.24267, 
			 "cosmo_polarized_energy": -21.73, 
			 "cosmo_cavitation_energy": 30.74, 
			 "cosmo_dispersion_energy": -22.61, 
			 "cosmo_repulsion_energy": 1.76, 
			 "cosmo_total_nonelectrostatic_energy": 9.89, 
			 "SMD_solvation_energy": 3.99 
		},
		"coords": [
			{
				"x": 0.3929257938,
				"y": -1.991129247,
				"z": 3.08459374,
				"element": "C" 
			},
			{
				"x": 0.0548356654,
				"y": -0.8127057495,
				"z": 2.2232270687,
				"element": "C" 
			},
			{
				"x": 0.7735084939,
				"y": -0.5487231743,
				"z": 1.1317460607,
				"element": "N" 
			},
			{
				"x": 0.2173325534,
				"y": 0.574154809,
				"z": 0.5980430382,
				"element": "N" 
			},
			{
				"x": 0.7831076326,
				"y": 1.177039708,
				"z": -0.6005705161,
				"element": "C" 
			},
			{
				"x": 0.5670799299,
				"y": 0.276704817,
				"z": -1.8570765371,
				"element": "C" 
			},
			{
				"x": 1.7404508496,
				"y": -0.69753044,
				"z": -1.9486141464,
				"element": "C" 
			},
			{
				"x": 3.1747415128,
				"y": 0.3847794363,
				"z": -1.6544030814,
				"element": "S" 
			},
			{
				"x": 3.3750863005,
				"y": 1.1994599235,
				"z": -2.8677027392,
				"element": "O" 
			},
			{
				"x": 4.3024828506,
				"y": -0.3355734449,
				"z": -1.0485312979,
				"element": "O" 
			},
			{
				"x": 2.3019732006,
				"y": 1.4301219839,
				"z": -0.4208567548,
				"element": "C" 
			},
			{
				"x": -0.8607902782,
				"y": 1.0029761908,
				"z": 1.3205480789,
				"element": "C" 
			},
			{
				"x": -1.554379549,
				"y": 2.1701556884,
				"z": 0.9556130135,
				"element": "N" 
			},
			{
				"x": -0.9906617377,
				"y": 0.1289564934,
				"z": 2.3873922389,
				"element": "C" 
			},
			{
				"x": 0.6292078523,
				"y": -1.6813017684,
				"z": 4.1086224579,
				"element": "H" 
			},
			{
				"x": 1.2600242059,
				"y": -2.5132291559,
				"z": 2.674155279,
				"element": "H" 
			},
			{
				"x": -0.4418612,
				"y": -2.6986456713,
				"z": 3.1427755704,
				"element": "H" 
			},
			{
				"x": 0.2561184281,
				"y": 2.1248611919,
				"z": -0.7237769638,
				"element": "H" 
			},
			{
				"x": -0.3884736217,
				"y": -0.2483722756,
				"z": -1.7816903348,
				"element": "H" 
			},
			{
				"x": 0.5454106017,
				"y": 0.90730353,
				"z": -2.7511447724,
				"element": "H" 
			},
			{
				"x": 1.8682202092,
				"y": -1.1655198967,
				"z": -2.9259939806,
				"element": "H" 
			},
			{
				"x": 1.7202604472,
				"y": -1.4405136805,
				"z": -1.148942403,
				"element": "H" 
			},
			{
				"x": 2.6439683127,
				"y": 1.12645901,
				"z": 0.5678515169,
				"element": "H" 
			},
			{
				"x": 2.5922898499,
				"y": 2.460309755,
				"z": -0.6317391122,
				"element": "H" 
			},
			{
				"x": -2.1211417776,
				"y": 2.5109672124,
				"z": 1.7232214546,
				"element": "H" 
			},
			{
				"x": -2.1534446181,
				"y": 2.0411791119,
				"z": 0.1448081307,
				"element": "H" 
			},
			{
				"x": -1.7413719077,
				"y": 0.1616156424,
				"z": 3.1638449913,
				"element": "H" 
			}
		],
		 "valence_orbital": [ 
			{
				"type": "occ",
				"energy": -0.2887,
				"method": "rhf"
			},
			{
				"type": "occ",
				"energy": -0.28463,
				"method": "rhf"
			},
			{
				"type": "occ",
				"energy": -0.2736,
				"method": "rhf"
			},
			{
				"type": "occ",
				"energy": -0.24312,
				"method": "rhf"
			},
			{
				"type": "occ",
				"energy": -0.22811,
				"method": "rhf"
			},
			{
				"type": "unocc",
				"energy": 0.01456,
				"method": "rhf"
			},
			{
				"type": "unocc",
				"energy": 0.05253,
				"method": "rhf"
			},
			{
				"type": "unocc",
				"energy": 0.06213,
				"method": "rhf"
			},
			{
				"type": "unocc",
				"energy": 0.0634,
				"method": "rhf"
			},
			{
				"type": "unocc",
				"energy": 0.07492,
				"method": "rhf"
			}
		],
		"cosmo_sigma_profile": { 
			"-0.025": 0.0,
			"-0.024": 0.0,
			"-0.023": 0.0,
			"-0.022": 0.0,
			"-0.021": 0.0,
			"-0.02": 0.0,
			"-0.019": 0.0,
			"-0.018": 0.0,
			"-0.017": 0.0,
			"-0.016": 0.0,
			"-0.015": 0.0,
			"-0.014": 0.0,
			"-0.013": 1.06761886615,
			"-0.012": 3.20606005832,
			"-0.011": 3.10151373998,
			"-0.01": 2.97539653766,
			"-0.009": 4.02706429829,
			"-0.008": 9.33027569759,
			"-0.007": 10.6584553575,
			"-0.006": 14.3865648508,
			"-0.005": 16.1658791907,
			"-0.004": 18.7550840033,
			"-0.003": 18.5902047274,
			"-0.002": 15.5097157211,
			"-0.001": 13.0006110218,
			"0.0": 14.1542273919,
			"0.001": 9.52032734627,
			"0.002": 8.2313001699,
			"0.003": 8.71855029752,
			"0.004": 8.40208919446,
			"0.005": 8.6093260988,
			"0.006": 9.00302534853,
			"0.007": 4.49997528337,
			"0.008": 4.6617133111,
			"0.009": 4.97600804912,
			"0.01": 5.02366660487,
			"0.011": 10.2514014262,
			"0.012": 12.1076080875,
			"0.013": 2.89704205229,
			"0.014": 0.132975144646,
			"0.015": 0.0,
			"0.016": 0.0,
			"0.017": 0.0,
			"0.018": 0.0,
			"0.019": 0.0,
			"0.02": 0.0,
			"0.021": 0.0,
			"0.022": 0.0,
			"0.023": 0.0,
			"0.024": 0.0,
			"0.025": 0.0
		}
	}
}
