{
	 "smiles": "CC1=CC(C)=C(CC(=O)C2=C(N)C3=C(O2)C=CC=C3)C(C)=C1", 
	 "Tm": 461.15, 
	 "num_atms": 41, 
	 "gaussian": { 
		 "optdone": 1, 
		 "sigma_profile": "yes", 
		 "theory": "DFT", 
		 "functional": "B3LYP", 
		 "basiset": "6-31G**", 
		 "properties": { 
			 "R2extent": 8191.5581, 
			 "electric_dipole_moment_norm": 3.06894524226, 
			 "electric_quadrupole_moment_norm": 13.8487373959, 
			 "total_energy": -940.697179787, 
			 "HOMO_LUMO_gap": 0.14756, 
			 "cosmo_polarized_energy": -12.85, 
			 "cosmo_cavitation_energy": 43.12, 
			 "cosmo_dispersion_energy": -29.93, 
			 "cosmo_repulsion_energy": 2.26, 
			 "cosmo_total_nonelectrostatic_energy": 15.45, 
			 "SMD_solvation_energy": 7.45 
		},
		"coords": [
			{
				"x": -3.9777660849,
				"y": -2.3629202615,
				"z": -1.2262348619,
				"element": "C" 
			},
			{
				"x": -3.1052934395,
				"y": -1.1607412578,
				"z": -1.5022509183,
				"element": "C" 
			},
			{
				"x": -2.0893159332,
				"y": -1.2106062012,
				"z": -2.4589481798,
				"element": "C" 
			},
			{
				"x": -1.2862393919,
				"y": -0.1025386661,
				"z": -2.7511508425,
				"element": "C" 
			},
			{
				"x": -0.2327856532,
				"y": -0.2398514329,
				"z": -3.8300454438,
				"element": "C" 
			},
			{
				"x": -1.495196632,
				"y": 1.1069938731,
				"z": -2.0523347419,
				"element": "C" 
			},
			{
				"x": -0.6438723295,
				"y": 2.3362065497,
				"z": -2.3480391771,
				"element": "C" 
			},
			{
				"x": 0.2316691743,
				"y": 2.8237123459,
				"z": -1.190408989,
				"element": "C" 
			},
			{
				"x": 0.0315909637,
				"y": 3.9333420242,
				"z": -0.6683172681,
				"element": "O" 
			},
			{
				"x": 1.3183012889,
				"y": 2.0159611419,
				"z": -0.7021984194,
				"element": "C" 
			},
			{
				"x": 2.2113289794,
				"y": 2.3382609722,
				"z": 0.3113526433,
				"element": "C" 
			},
			{
				"x": 2.1555410101,
				"y": 3.4475358744,
				"z": 1.0978804505,
				"element": "N" 
			},
			{
				"x": 3.1527947855,
				"y": 1.2462142887,
				"z": 0.380822825,
				"element": "C" 
			},
			{
				"x": 2.7453433507,
				"y": 0.3377049699,
				"z": -0.6160191664,
				"element": "C" 
			},
			{
				"x": 1.6445320438,
				"y": 0.781999655,
				"z": -1.2733911316,
				"element": "O" 
			},
			{
				"x": 3.4139546848,
				"y": -0.8588556011,
				"z": -0.8629859363,
				"element": "C" 
			},
			{
				"x": 4.5265815693,
				"y": -1.1300866539,
				"z": -0.0707498991,
				"element": "C" 
			},
			{
				"x": 4.9535797054,
				"y": -0.238568266,
				"z": 0.9345960684,
				"element": "C" 
			},
			{
				"x": 4.2747516821,
				"y": 0.950802359,
				"z": 1.1711039768,
				"element": "C" 
			},
			{
				"x": -2.5331830613,
				"y": 1.1828405476,
				"z": -1.0962887409,
				"element": "C" 
			},
			{
				"x": -2.8428361659,
				"y": 2.4613549519,
				"z": -0.3491393357,
				"element": "C" 
			},
			{
				"x": -3.3120042024,
				"y": 0.0493909831,
				"z": -0.8376995834,
				"element": "C" 
			},
			{
				"x": -4.3441787313,
				"y": -2.3633797076,
				"z": -0.1950162866,
				"element": "H" 
			},
			{
				"x": -4.8571171946,
				"y": -2.3766350088,
				"z": -1.8829349873,
				"element": "H" 
			},
			{
				"x": -3.4349656887,
				"y": -3.298537324,
				"z": -1.3930646064,
				"element": "H" 
			},
			{
				"x": -1.9162479785,
				"y": -2.1385599895,
				"z": -3.0002453936,
				"element": "H" 
			},
			{
				"x": -0.2345497346,
				"y": -1.2539168085,
				"z": -4.2390200132,
				"element": "H" 
			},
			{
				"x": -0.4139778964,
				"y": 0.4465220328,
				"z": -4.6663752377,
				"element": "H" 
			},
			{
				"x": 0.770530248,
				"y": -0.032744217,
				"z": -3.4469497921,
				"element": "H" 
			},
			{
				"x": 0.0095300803,
				"y": 2.1401865536,
				"z": -3.2022703529,
				"element": "H" 
			},
			{
				"x": -1.2741333772,
				"y": 3.1925648783,
				"z": -2.6089960517,
				"element": "H" 
			},
			{
				"x": 2.9982819118,
				"y": 3.755953014,
				"z": 1.5565771745,
				"element": "H" 
			},
			{
				"x": 1.4979555281,
				"y": 4.1503357446,
				"z": 0.7750791199,
				"element": "H" 
			},
			{
				"x": 3.0752800376,
				"y": -1.5409929357,
				"z": -1.6349083682,
				"element": "H" 
			},
			{
				"x": 5.0772533285,
				"y": -2.0523866187,
				"z": -0.2298025976,
				"element": "H" 
			},
			{
				"x": 5.8232772631,
				"y": -0.4904018269,
				"z": 1.5334055836,
				"element": "H" 
			},
			{
				"x": 4.603137843,
				"y": 1.6283069522,
				"z": 1.9542464664,
				"element": "H" 
			},
			{
				"x": -3.7754834361,
				"y": 2.3586749747,
				"z": 0.2120399405,
				"element": "H" 
			},
			{
				"x": -2.053243988,
				"y": 2.7344972835,
				"z": 0.3575840821,
				"element": "H" 
			},
			{
				"x": -2.9499243851,
				"y": 3.315456596,
				"z": -1.026770113,
				"element": "H" 
			},
			{
				"x": -4.1053001741,
				"y": 0.1199042107,
				"z": -0.0962318957,
				"element": "H" 
			}
		],
		 "valence_orbital": [ 
			{
				"type": "occ",
				"energy": -0.24933,
				"method": "rhf"
			},
			{
				"type": "occ",
				"energy": -0.24364,
				"method": "rhf"
			},
			{
				"type": "occ",
				"energy": -0.22396,
				"method": "rhf"
			},
			{
				"type": "occ",
				"energy": -0.21605,
				"method": "rhf"
			},
			{
				"type": "occ",
				"energy": -0.20277,
				"method": "rhf"
			},
			{
				"type": "unocc",
				"energy": -0.05521,
				"method": "rhf"
			},
			{
				"type": "unocc",
				"energy": -0.00022,
				"method": "rhf"
			},
			{
				"type": "unocc",
				"energy": 0.00844,
				"method": "rhf"
			},
			{
				"type": "unocc",
				"energy": 0.01576,
				"method": "rhf"
			},
			{
				"type": "unocc",
				"energy": 0.02211,
				"method": "rhf"
			}
		],
		"cosmo_sigma_profile": { 
			"-0.025": 0.0,
			"-0.024": 0.0,
			"-0.023": 0.0,
			"-0.022": 0.0,
			"-0.021": 0.0,
			"-0.02": 0.0,
			"-0.019": 0.0,
			"-0.018": 0.0,
			"-0.017": 0.0,
			"-0.016": 0.0,
			"-0.015": 0.0,
			"-0.014": 0.855201932509,
			"-0.013": 1.08931972717,
			"-0.012": 1.37289681053,
			"-0.011": 2.01463079397,
			"-0.01": 2.09557093001,
			"-0.009": 2.45856925392,
			"-0.008": 2.5213374626,
			"-0.007": 4.95969009556,
			"-0.006": 8.72008617322,
			"-0.005": 13.2270105358,
			"-0.004": 29.2137779306,
			"-0.003": 29.4446206137,
			"-0.002": 27.3800783606,
			"-0.001": 29.1257960082,
			"0.0": 34.892434558,
			"0.001": 37.4617889304,
			"0.002": 27.829617727,
			"0.003": 21.4252130034,
			"0.004": 20.3332466772,
			"0.005": 13.2633223171,
			"0.006": 9.85534972863,
			"0.007": 9.12346052481,
			"0.008": 3.86017158637,
			"0.009": 1.7133521015,
			"0.01": 1.80238744637,
			"0.011": 1.59406849376,
			"0.012": 1.7392887586,
			"0.013": 1.69945916374,
			"0.014": 0.893423311458,
			"0.015": 0.13754814529,
			"0.016": 0.0,
			"0.017": 0.0,
			"0.018": 0.0,
			"0.019": 0.0,
			"0.02": 0.0,
			"0.021": 0.0,
			"0.022": 0.0,
			"0.023": 0.0,
			"0.024": 0.0,
			"0.025": 0.0
		}
	}
}
