{
	 "smiles": "CC1=CC(SC#N)=CC(C)=C1N", 
	 "Tm": 356.15, 
	 "num_atms": 22, 
	 "gaussian": { 
		 "optdone": 1, 
		 "sigma_profile": "yes", 
		 "theory": "DFT", 
		 "functional": "B3LYP", 
		 "basiset": "6-31G**", 
		 "properties": { 
			 "R2extent": 2933.7659, 
			 "electric_dipole_moment_norm": 7.22562967844, 
			 "electric_quadrupole_moment_norm": 16.5718593676, 
			 "total_energy": -856.662579524, 
			 "HOMO_LUMO_gap": 0.20093, 
			 "cosmo_polarized_energy": -12.86, 
			 "cosmo_cavitation_energy": 28.16, 
			 "cosmo_dispersion_energy": -20.26, 
			 "cosmo_repulsion_energy": 1.58, 
			 "cosmo_total_nonelectrostatic_energy": 9.48, 
			 "SMD_solvation_energy": 6.53 
		},
		"coords": [
			{
				"x": -0.0716570662,
				"y": -0.7113197514,
				"z": 2.9917466043,
				"element": "C" 
			},
			{
				"x": -0.051194292,
				"y": -0.4549773372,
				"z": 1.5049838474,
				"element": "C" 
			},
			{
				"x": 0.3968370806,
				"y": -1.4316950403,
				"z": 0.617965898,
				"element": "C" 
			},
			{
				"x": 0.4017791706,
				"y": -1.201357975,
				"z": -0.7602393799,
				"element": "C" 
			},
			{
				"x": 1.0536558802,
				"y": -2.4506681837,
				"z": -1.8803109866,
				"element": "S" 
			},
			{
				"x": -0.350589936,
				"y": -3.3527571799,
				"z": -2.2516449532,
				"element": "C" 
			},
			{
				"x": -1.2728233117,
				"y": -4.0050049466,
				"z": -2.5426123911,
				"element": "N" 
			},
			{
				"x": -0.0409262658,
				"y": 0.0253661462,
				"z": -1.2619249399,
				"element": "C" 
			},
			{
				"x": -0.4962342941,
				"y": 1.0260971748,
				"z": -0.405918149,
				"element": "C" 
			},
			{
				"x": -0.9897507954,
				"y": 2.3439643337,
				"z": -0.9502285929,
				"element": "C" 
			},
			{
				"x": -0.498601364,
				"y": 0.7857592021,
				"z": 0.9895976959,
				"element": "C" 
			},
			{
				"x": -0.991542987,
				"y": 1.7535091254,
				"z": 1.8544809112,
				"element": "N" 
			},
			{
				"x": -1.0827396196,
				"y": -0.6063150681,
				"z": 3.4049501587,
				"element": "H" 
			},
			{
				"x": 0.2769975323,
				"y": -1.7210429965,
				"z": 3.2199771534,
				"element": "H" 
			},
			{
				"x": 0.5775730588,
				"y": -0.0132046795,
				"z": 3.539287756,
				"element": "H" 
			},
			{
				"x": 0.7421551905,
				"y": -2.3851347111,
				"z": 1.0059849842,
				"element": "H" 
			},
			{
				"x": -0.0353577886,
				"y": 0.2028870462,
				"z": -2.3330481477,
				"element": "H" 
			},
			{
				"x": -2.0278931807,
				"y": 2.5392347842,
				"z": -0.6532849032,
				"element": "H" 
			},
			{
				"x": -0.3847983191,
				"y": 3.1897505966,
				"z": -0.5933842874,
				"element": "H" 
			},
			{
				"x": -0.9486091368,
				"y": 2.3570390117,
				"z": -2.0417078565,
				"element": "H" 
			},
			{
				"x": -0.7091720508,
				"y": 1.6874527774,
				"z": 2.8204853265,
				"element": "H" 
			},
			{
				"x": -1.0140075051,
				"y": 2.701817671,
				"z": 1.5117442517,
				"element": "H" 
			}
		],
		 "valence_orbital": [ 
			{
				"type": "occ",
				"energy": -0.32376,
				"method": "rhf"
			},
			{
				"type": "occ",
				"energy": -0.31273,
				"method": "rhf"
			},
			{
				"type": "occ",
				"energy": -0.25526,
				"method": "rhf"
			},
			{
				"type": "occ",
				"energy": -0.25236,
				"method": "rhf"
			},
			{
				"type": "occ",
				"energy": -0.21789,
				"method": "rhf"
			},
			{
				"type": "unocc",
				"energy": -0.01696,
				"method": "rhf"
			},
			{
				"type": "unocc",
				"energy": -0.00956,
				"method": "rhf"
			},
			{
				"type": "unocc",
				"energy": -0.00633,
				"method": "rhf"
			},
			{
				"type": "unocc",
				"energy": 0.05768,
				"method": "rhf"
			},
			{
				"type": "unocc",
				"energy": 0.05832,
				"method": "rhf"
			}
		],
		"cosmo_sigma_profile": { 
			"-0.025": 0.0,
			"-0.024": 0.0,
			"-0.023": 0.0,
			"-0.022": 0.0,
			"-0.021": 0.0,
			"-0.02": 0.0,
			"-0.019": 0.0,
			"-0.018": 0.0,
			"-0.017": 0.0,
			"-0.016": 0.0,
			"-0.015": 0.0,
			"-0.014": 0.0,
			"-0.013": 0.272819892837,
			"-0.012": 1.89768184247,
			"-0.011": 2.28823246587,
			"-0.01": 2.90575182075,
			"-0.009": 3.10276760867,
			"-0.008": 2.7743795598,
			"-0.007": 3.21028576774,
			"-0.006": 7.41991002947,
			"-0.005": 12.8656652863,
			"-0.004": 16.1761149637,
			"-0.003": 16.1721220601,
			"-0.002": 18.952661224,
			"-0.001": 21.7935157982,
			"0.0": 24.8099589025,
			"0.001": 15.8062328353,
			"0.002": 12.9503709197,
			"0.003": 12.4807780124,
			"0.004": 14.4733908391,
			"0.005": 8.65185738529,
			"0.006": 3.7135628589,
			"0.007": 4.09965353287,
			"0.008": 3.95233463411,
			"0.009": 4.0179100892,
			"0.01": 3.84965363344,
			"0.011": 3.47826056878,
			"0.012": 2.99099681534,
			"0.013": 1.34642351103,
			"0.014": 0.0112427712422,
			"0.015": 0.0,
			"0.016": 0.0,
			"0.017": 0.0,
			"0.018": 0.0,
			"0.019": 0.0,
			"0.02": 0.0,
			"0.021": 0.0,
			"0.022": 0.0,
			"0.023": 0.0,
			"0.024": 0.0,
			"0.025": 0.0
		}
	}
}
