{
	 "smiles": "O=C1C=CN=C2N(NC=C12)C1=CC=CC=C1", 
	 "Tm": 440.15, 
	 "num_atms": 25, 
	 "gaussian": { 
		 "optdone": 1, 
		 "sigma_profile": "yes", 
		 "theory": "DFT", 
		 "functional": "B3LYP", 
		 "basiset": "6-31G**", 
		 "properties": { 
			 "R2extent": 4142.3936, 
			 "electric_dipole_moment_norm": 7.03224801113, 
			 "electric_quadrupole_moment_norm": 22.5697628031, 
			 "total_energy": -702.127372131, 
			 "HOMO_LUMO_gap": 0.12945, 
			 "cosmo_polarized_energy": -23.86, 
			 "cosmo_cavitation_energy": 29.42, 
			 "cosmo_dispersion_energy": -22.0, 
			 "cosmo_repulsion_energy": 1.67, 
			 "cosmo_total_nonelectrostatic_energy": 9.09, 
			 "SMD_solvation_energy": 4.92 
		},
		"coords": [
			{
				"x": 0.2954135556,
				"y": 4.6970954119,
				"z": -0.3808709347,
				"element": "O" 
			},
			{
				"x": -0.1663602037,
				"y": 3.7155856038,
				"z": 0.2113244716,
				"element": "C" 
			},
			{
				"x": -1.2654033548,
				"y": 3.7166703631,
				"z": 1.1643161678,
				"element": "C" 
			},
			{
				"x": -1.7034631575,
				"y": 2.5661167678,
				"z": 1.7740635055,
				"element": "C" 
			},
			{
				"x": -1.218408384,
				"y": 1.2892274904,
				"z": 1.5947385593,
				"element": "N" 
			},
			{
				"x": -0.2273726708,
				"y": 1.2451598512,
				"z": 0.7368312331,
				"element": "C" 
			},
			{
				"x": 0.4768094585,
				"y": 0.106028306,
				"z": 0.362764882,
				"element": "N" 
			},
			{
				"x": 1.4994282156,
				"y": 0.504590461,
				"z": -0.4918594335,
				"element": "N" 
			},
			{
				"x": 1.3657699599,
				"y": 1.8385296584,
				"z": -0.7478473882,
				"element": "C" 
			},
			{
				"x": 0.3556335434,
				"y": 2.3492371298,
				"z": 0.021373937,
				"element": "C" 
			},
			{
				"x": 0.4484328696,
				"y": -1.2131493434,
				"z": 0.8747721368,
				"element": "C" 
			},
			{
				"x": 1.5876075614,
				"y": -2.0263597612,
				"z": 0.7872113274,
				"element": "C" 
			},
			{
				"x": 1.5324303485,
				"y": -3.339926223,
				"z": 1.2518085841,
				"element": "C" 
			},
			{
				"x": 0.3601242767,
				"y": -3.8425317463,
				"z": 1.8164750644,
				"element": "C" 
			},
			{
				"x": -0.7618905614,
				"y": -3.0166704828,
				"z": 1.9175221776,
				"element": "C" 
			},
			{
				"x": -0.7338250483,
				"y": -1.7060721884,
				"z": 1.4463704876,
				"element": "C" 
			},
			{
				"x": -1.7353365967,
				"y": 4.6670430339,
				"z": 1.3931348351,
				"element": "H" 
			},
			{
				"x": -2.526882869,
				"y": 2.6267137636,
				"z": 2.4831997323,
				"element": "H" 
			},
			{
				"x": 1.7760674205,
				"y": -0.1708037374,
				"z": -1.1943405426,
				"element": "H" 
			},
			{
				"x": 2.0172951188,
				"y": 2.3270107361,
				"z": -1.4586053828,
				"element": "H" 
			},
			{
				"x": 2.5193859194,
				"y": -1.6311941314,
				"z": 0.396705272,
				"element": "H" 
			},
			{
				"x": 2.4185044666,
				"y": -3.9638679373,
				"z": 1.1832394223,
				"element": "H" 
			},
			{
				"x": 0.32354794,
				"y": -4.8639169132,
				"z": 2.1820731008,
				"element": "H" 
			},
			{
				"x": -1.6767033983,
				"y": -3.3951435604,
				"z": 2.3636578992,
				"element": "H" 
			},
			{
				"x": -1.59240441,
				"y": -1.0531725522,
				"z": 1.5342408859,
				"element": "H" 
			}
		],
		 "valence_orbital": [ 
			{
				"type": "occ",
				"energy": -0.27092,
				"method": "rhf"
			},
			{
				"type": "occ",
				"energy": -0.26313,
				"method": "rhf"
			},
			{
				"type": "occ",
				"energy": -0.25071,
				"method": "rhf"
			},
			{
				"type": "occ",
				"energy": -0.22016,
				"method": "rhf"
			},
			{
				"type": "occ",
				"energy": -0.19894,
				"method": "rhf"
			},
			{
				"type": "unocc",
				"energy": -0.06949,
				"method": "rhf"
			},
			{
				"type": "unocc",
				"energy": -0.02146,
				"method": "rhf"
			},
			{
				"type": "unocc",
				"energy": -0.01422,
				"method": "rhf"
			},
			{
				"type": "unocc",
				"energy": 0.02949,
				"method": "rhf"
			},
			{
				"type": "unocc",
				"energy": 0.03831,
				"method": "rhf"
			}
		],
		"cosmo_sigma_profile": { 
			"-0.025": 0.0,
			"-0.024": 0.0,
			"-0.023": 0.0,
			"-0.022": 0.0,
			"-0.021": 0.0,
			"-0.02": 0.00312734212834,
			"-0.019": 1.34966807645,
			"-0.018": 1.04206907245,
			"-0.017": 1.50239287275,
			"-0.016": 1.40889995618,
			"-0.015": 1.47611994883,
			"-0.014": 1.38163166776,
			"-0.013": 0.969851042448,
			"-0.012": 2.86255722329,
			"-0.011": 3.48345753781,
			"-0.01": 2.40948744135,
			"-0.009": 2.28184857263,
			"-0.008": 2.59805539397,
			"-0.007": 4.52301301601,
			"-0.006": 11.116319201,
			"-0.005": 14.3698390329,
			"-0.004": 15.2199873248,
			"-0.003": 12.812094946,
			"-0.002": 15.8485830519,
			"-0.001": 13.9210598004,
			"0.0": 16.1757295285,
			"0.001": 15.1053004552,
			"0.002": 15.1220194252,
			"0.003": 16.1734362322,
			"0.004": 19.9009888192,
			"0.005": 10.2142435527,
			"0.006": 3.76420957165,
			"0.007": 3.39265611777,
			"0.008": 3.51288112105,
			"0.009": 2.58846799017,
			"0.01": 2.28638661118,
			"0.011": 2.87879010623,
			"0.012": 2.25541327406,
			"0.013": 2.08287896157,
			"0.014": 3.76560768468,
			"0.015": 5.32138580546,
			"0.016": 2.10005080344,
			"0.017": 0.19491382376,
			"0.018": 0.0,
			"0.019": 0.0,
			"0.02": 0.0,
			"0.021": 0.0,
			"0.022": 0.0,
			"0.023": 0.0,
			"0.024": 0.0,
			"0.025": 0.0
		}
	}
}
