{
	 "smiles": "ClCC(=O)NC1CCN(CC1)C(=O)C1CCCCC1", 
	 "Tm": 407.15, 
	 "num_atms": 42, 
	 "gaussian": { 
		 "optdone": 1, 
		 "sigma_profile": "yes", 
		 "theory": "DFT", 
		 "functional": "B3LYP", 
		 "basiset": "6-31G**", 
		 "properties": { 
			 "R2extent": 9863.9696, 
			 "electric_dipole_moment_norm": 4.69673029458, 
			 "electric_quadrupole_moment_norm": 17.3515345272, 
			 "total_energy": -1267.52827599, 
			 "HOMO_LUMO_gap": 0.21384, 
			 "cosmo_polarized_energy": -20.73, 
			 "cosmo_cavitation_energy": 42.98, 
			 "cosmo_dispersion_energy": -30.21, 
			 "cosmo_repulsion_energy": 2.36, 
			 "cosmo_total_nonelectrostatic_energy": 15.13, 
			 "SMD_solvation_energy": 5.85 
		},
		"coords": [
			{
				"x": -5.3024385178,
				"y": -2.2572478625,
				"z": 1.25811003,
				"element": "Cl" 
			},
			{
				"x": -4.8471434718,
				"y": -1.4891146216,
				"z": 2.8411674183,
				"element": "C" 
			},
			{
				"x": -4.6438836034,
				"y": 0.0241109618,
				"z": 2.735594955,
				"element": "C" 
			},
			{
				"x": -5.4246624282,
				"y": 0.779435142,
				"z": 3.2987187695,
				"element": "O" 
			},
			{
				"x": -3.5587340841,
				"y": 0.4875583745,
				"z": 2.0475311444,
				"element": "N" 
			},
			{
				"x": -2.5378991809,
				"y": -0.2331838303,
				"z": 1.2887132906,
				"element": "C" 
			},
			{
				"x": -2.6791192989,
				"y": -0.041352503,
				"z": -0.2472422149,
				"element": "C" 
			},
			{
				"x": -1.7450032701,
				"y": 1.0410229451,
				"z": -0.7891512012,
				"element": "C" 
			},
			{
				"x": -0.3430443587,
				"y": 0.6829222571,
				"z": -0.52648708,
				"element": "N" 
			},
			{
				"x": -0.0566635093,
				"y": -0.0629952197,
				"z": 0.7052894812,
				"element": "C" 
			},
			{
				"x": -1.1355616789,
				"y": 0.2170606839,
				"z": 1.7563735835,
				"element": "C" 
			},
			{
				"x": 0.5990124768,
				"y": 1.0457180329,
				"z": -1.462166715,
				"element": "C" 
			},
			{
				"x": 0.2896271238,
				"y": 1.716552702,
				"z": -2.4454793782,
				"element": "O" 
			},
			{
				"x": 2.0510013786,
				"y": 0.6140829427,
				"z": -1.2444628208,
				"element": "C" 
			},
			{
				"x": 2.8405453418,
				"y": 1.7630485579,
				"z": -0.5458096406,
				"element": "C" 
			},
			{
				"x": 4.3499626093,
				"y": 1.7369613662,
				"z": -0.8848781123,
				"element": "C" 
			},
			{
				"x": 4.8397092651,
				"y": 0.3066459033,
				"z": -1.1403010277,
				"element": "C" 
			},
			{
				"x": 4.1363807934,
				"y": -0.3025525994,
				"z": -2.3770256418,
				"element": "C" 
			},
			{
				"x": 2.7131250839,
				"y": 0.263416939,
				"z": -2.589157735,
				"element": "C" 
			},
			{
				"x": -5.6786105699,
				"y": -1.6498834104,
				"z": 3.522992161,
				"element": "H" 
			},
			{
				"x": -3.9576484607,
				"y": -2.0091088205,
				"z": 3.2024824537,
				"element": "H" 
			},
			{
				"x": -3.5249384901,
				"y": 1.50044754,
				"z": 2.0237309271,
				"element": "H" 
			},
			{
				"x": -2.6628547999,
				"y": -1.2944164231,
				"z": 1.5100196763,
				"element": "H" 
			},
			{
				"x": -3.7177851705,
				"y": 0.1976700039,
				"z": -0.4909067356,
				"element": "H" 
			},
			{
				"x": -2.4469000077,
				"y": -0.9873405435,
				"z": -0.7492121168,
				"element": "H" 
			},
			{
				"x": -1.8516322622,
				"y": 1.1590104671,
				"z": -1.8680163896,
				"element": "H" 
			},
			{
				"x": -1.9814703789,
				"y": 2.0200650231,
				"z": -0.3453833324,
				"element": "H" 
			},
			{
				"x": 0.0012435872,
				"y": -1.1459288351,
				"z": 0.5121726265,
				"element": "H" 
			},
			{
				"x": 0.9115694263,
				"y": 0.2435652767,
				"z": 1.1066438416,
				"element": "H" 
			},
			{
				"x": -0.8732338625,
				"y": -0.2732939761,
				"z": 2.6991902733,
				"element": "H" 
			},
			{
				"x": -1.1503622659,
				"y": 1.2953159784,
				"z": 1.9581549053,
				"element": "H" 
			},
			{
				"x": 2.0895314477,
				"y": -0.2797035795,
				"z": -0.6118246663,
				"element": "H" 
			},
			{
				"x": 2.7014485646,
				"y": 1.6925867932,
				"z": 0.5406639311,
				"element": "H" 
			},
			{
				"x": 2.4142252902,
				"y": 2.7233038316,
				"z": -0.8553337673,
				"element": "H" 
			},
			{
				"x": 4.9194153766,
				"y": 2.2068439714,
				"z": -0.0751524178,
				"element": "H" 
			},
			{
				"x": 4.5368509479,
				"y": 2.341768102,
				"z": -1.7810375643,
				"element": "H" 
			},
			{
				"x": 4.6323299563,
				"y": -0.3042436186,
				"z": -0.2512435667,
				"element": "H" 
			},
			{
				"x": 5.926942376,
				"y": 0.2871991509,
				"z": -1.2739292032,
				"element": "H" 
			},
			{
				"x": 4.0941636336,
				"y": -1.3933226357,
				"z": -2.2705224145,
				"element": "H" 
			},
			{
				"x": 4.7323616978,
				"y": -0.1070762072,
				"z": -3.2762744469,
				"element": "H" 
			},
			{
				"x": 2.0969544443,
				"y": -0.4545089567,
				"z": -3.1404990274,
				"element": "H" 
			},
			{
				"x": 2.7354888494,
				"y": 1.1692606962,
				"z": -3.202152252,
				"element": "H" 
			}
		],
		 "valence_orbital": [ 
			{
				"type": "occ",
				"energy": -0.30039,
				"method": "rhf"
			},
			{
				"type": "occ",
				"energy": -0.26145,
				"method": "rhf"
			},
			{
				"type": "occ",
				"energy": -0.26053,
				"method": "rhf"
			},
			{
				"type": "occ",
				"energy": -0.2427,
				"method": "rhf"
			},
			{
				"type": "occ",
				"energy": -0.237,
				"method": "rhf"
			},
			{
				"type": "unocc",
				"energy": -0.02316,
				"method": "rhf"
			},
			{
				"type": "unocc",
				"energy": 0.02489,
				"method": "rhf"
			},
			{
				"type": "unocc",
				"energy": 0.04615,
				"method": "rhf"
			},
			{
				"type": "unocc",
				"energy": 0.0548,
				"method": "rhf"
			},
			{
				"type": "unocc",
				"energy": 0.07067,
				"method": "rhf"
			}
		],
		"cosmo_sigma_profile": { 
			"-0.025": 0.0,
			"-0.024": 0.0,
			"-0.023": 0.0,
			"-0.022": 0.0,
			"-0.021": 0.0,
			"-0.02": 0.0,
			"-0.019": 0.0,
			"-0.018": 0.0,
			"-0.017": 0.0,
			"-0.016": 0.0,
			"-0.015": 0.0,
			"-0.014": 0.0598557380678,
			"-0.013": 0.837717562334,
			"-0.012": 0.745168569245,
			"-0.011": 1.88179052246,
			"-0.01": 1.96197547816,
			"-0.009": 4.66490659385,
			"-0.008": 5.97010812283,
			"-0.007": 4.6025619915,
			"-0.006": 8.07074770651,
			"-0.005": 17.6617066411,
			"-0.004": 25.6274600016,
			"-0.003": 29.977211872,
			"-0.002": 39.8064867951,
			"-0.001": 41.3105072357,
			"0.0": 36.2717936918,
			"0.001": 30.8615830171,
			"0.002": 13.6957432243,
			"0.003": 10.5080588762,
			"0.004": 8.20329054137,
			"0.005": 9.45878952069,
			"0.006": 6.35776380462,
			"0.007": 2.37026834244,
			"0.008": 3.55462620144,
			"0.009": 2.9295292637,
			"0.01": 1.96375114844,
			"0.011": 3.45365668566,
			"0.012": 4.17495426435,
			"0.013": 7.07951773968,
			"0.014": 7.20068790399,
			"0.015": 3.63253041083,
			"0.016": 0.0708244658078,
			"0.017": 0.0,
			"0.018": 0.0,
			"0.019": 0.0,
			"0.02": 0.0,
			"0.021": 0.0,
			"0.022": 0.0,
			"0.023": 0.0,
			"0.024": 0.0,
			"0.025": 0.0
		}
	}
}
