{
	 "smiles": "C1CC2=CC=CC=C2C2CC3=CC=CC=C3CN12", 
	 "Tm": 358.15, 
	 "num_atms": 35, 
	 "gaussian": { 
		 "optdone": 1, 
		 "sigma_profile": "yes", 
		 "theory": "DFT", 
		 "functional": "B3LYP", 
		 "basiset": "6-31G**", 
		 "properties": { 
			 "R2extent": 4994.0152, 
			 "electric_dipole_moment_norm": 0.474730355044, 
			 "electric_quadrupole_moment_norm": 6.5490476048, 
			 "total_energy": -712.813899449, 
			 "HOMO_LUMO_gap": 0.20376, 
			 "cosmo_polarized_energy": -6.92, 
			 "cosmo_cavitation_energy": 35.14, 
			 "cosmo_dispersion_energy": -25.86, 
			 "cosmo_repulsion_energy": 1.95, 
			 "cosmo_total_nonelectrostatic_energy": 11.23, 
			 "SMD_solvation_energy": 2.38 
		},
		"coords": [
			{
				"x": -1.322776242,
				"y": -0.4040227336,
				"z": -1.0546429257,
				"element": "C" 
			},
			{
				"x": -2.3299380316,
				"y": -0.6954499393,
				"z": 0.0608808672,
				"element": "C" 
			},
			{
				"x": -1.739118182,
				"y": -0.4930040134,
				"z": 1.442237444,
				"element": "C" 
			},
			{
				"x": -2.5757723296,
				"y": -0.3805245199,
				"z": 2.5612463598,
				"element": "C" 
			},
			{
				"x": -2.0523204769,
				"y": -0.2382884931,
				"z": 3.8441664925,
				"element": "C" 
			},
			{
				"x": -0.6675669893,
				"y": -0.2096203566,
				"z": 4.026051481,
				"element": "C" 
			},
			{
				"x": 0.172768437,
				"y": -0.3168510054,
				"z": 2.9203832607,
				"element": "C" 
			},
			{
				"x": -0.3471133354,
				"y": -0.4563485349,
				"z": 1.6266360886,
				"element": "C" 
			},
			{
				"x": 0.5975959502,
				"y": -0.5157688286,
				"z": 0.438455388,
				"element": "C" 
			},
			{
				"x": 1.2047841382,
				"y": 0.8859093719,
				"z": 0.1528417675,
				"element": "C" 
			},
			{
				"x": 1.9236943232,
				"y": 0.9660281267,
				"z": -1.1801203636,
				"element": "C" 
			},
			{
				"x": 2.7677948303,
				"y": 2.0484022341,
				"z": -1.4663122191,
				"element": "C" 
			},
			{
				"x": 3.408791941,
				"y": 2.1562781023,
				"z": -2.6982280645,
				"element": "C" 
			},
			{
				"x": 3.2098026078,
				"y": 1.1723959903,
				"z": -3.6706012912,
				"element": "C" 
			},
			{
				"x": 2.3739917591,
				"y": 0.0927888586,
				"z": -3.3946835713,
				"element": "C" 
			},
			{
				"x": 1.7266878923,
				"y": -0.0213527942,
				"z": -2.1578206158,
				"element": "C" 
			},
			{
				"x": 0.8648107182,
				"y": -1.238390541,
				"z": -1.8485591001,
				"element": "C" 
			},
			{
				"x": -0.0681600946,
				"y": -1.0853983299,
				"z": -0.7389894108,
				"element": "N" 
			},
			{
				"x": -1.2084975834,
				"y": 0.6869488177,
				"z": -1.1887913332,
				"element": "H" 
			},
			{
				"x": -1.6985702577,
				"y": -0.7979003447,
				"z": -2.0047431514,
				"element": "H" 
			},
			{
				"x": -2.6583214776,
				"y": -1.7390666989,
				"z": -0.0321990881,
				"element": "H" 
			},
			{
				"x": -3.2227395075,
				"y": -0.0703864825,
				"z": -0.0632615631,
				"element": "H" 
			},
			{
				"x": -3.6539034824,
				"y": -0.407840736,
				"z": 2.418299232,
				"element": "H" 
			},
			{
				"x": -2.7191576782,
				"y": -0.1526214062,
				"z": 4.6975049898,
				"element": "H" 
			},
			{
				"x": -0.2464179475,
				"y": -0.1070923573,
				"z": 5.0220924561,
				"element": "H" 
			},
			{
				"x": 1.2515234176,
				"y": -0.2985709866,
				"z": 3.0600837713,
				"element": "H" 
			},
			{
				"x": 1.4255619767,
				"y": -1.195531041,
				"z": 0.6851923499,
				"element": "H" 
			},
			{
				"x": 0.4016065432,
				"y": 1.6345875051,
				"z": 0.1779000057,
				"element": "H" 
			},
			{
				"x": 1.8857031602,
				"y": 1.1608041445,
				"z": 0.9670310419,
				"element": "H" 
			},
			{
				"x": 2.9205450218,
				"y": 2.8142311527,
				"z": -0.7087255424,
				"element": "H" 
			},
			{
				"x": 4.0596377391,
				"y": 3.0023264024,
				"z": -2.9002937478,
				"element": "H" 
			},
			{
				"x": 3.7005864875,
				"y": 1.2492461125,
				"z": -4.6368127594,
				"element": "H" 
			},
			{
				"x": 2.2176861098,
				"y": -0.6759013765,
				"z": -4.1491946096,
				"element": "H" 
			},
			{
				"x": 1.529690127,
				"y": -2.0841982732,
				"z": -1.6131549853,
				"element": "H" 
			},
			{
				"x": 0.3000104357,
				"y": -1.5363170257,
				"z": -2.7393686536,
				"element": "H" 
			}
		],
		 "valence_orbital": [ 
			{
				"type": "occ",
				"energy": -0.24107,
				"method": "rhf"
			},
			{
				"type": "occ",
				"energy": -0.23982,
				"method": "rhf"
			},
			{
				"type": "occ",
				"energy": -0.23316,
				"method": "rhf"
			},
			{
				"type": "occ",
				"energy": -0.2328,
				"method": "rhf"
			},
			{
				"type": "occ",
				"energy": -0.20538,
				"method": "rhf"
			},
			{
				"type": "unocc",
				"energy": -0.00162,
				"method": "rhf"
			},
			{
				"type": "unocc",
				"energy": 0.00237,
				"method": "rhf"
			},
			{
				"type": "unocc",
				"energy": 0.00655,
				"method": "rhf"
			},
			{
				"type": "unocc",
				"energy": 0.00755,
				"method": "rhf"
			},
			{
				"type": "unocc",
				"energy": 0.09098,
				"method": "rhf"
			}
		],
		"cosmo_sigma_profile": { 
			"-0.025": 0.0,
			"-0.024": 0.0,
			"-0.023": 0.0,
			"-0.022": 0.0,
			"-0.021": 0.0,
			"-0.02": 0.0,
			"-0.019": 0.0,
			"-0.018": 0.0,
			"-0.017": 0.0,
			"-0.016": 0.0,
			"-0.015": 0.0,
			"-0.014": 0.0,
			"-0.013": 0.0,
			"-0.012": 0.0,
			"-0.011": 0.0,
			"-0.01": 0.0,
			"-0.009": 0.0,
			"-0.008": 0.0,
			"-0.007": 0.0,
			"-0.006": 1.38805888225,
			"-0.005": 17.7307830013,
			"-0.004": 32.9328427583,
			"-0.003": 39.4355965332,
			"-0.002": 31.4756393049,
			"-0.001": 29.6395293545,
			"0.0": 20.7587114181,
			"0.001": 15.3076192138,
			"0.002": 14.1823128022,
			"0.003": 14.1560028509,
			"0.004": 13.8067942047,
			"0.005": 14.9994488331,
			"0.006": 16.2764081697,
			"0.007": 10.4102879762,
			"0.008": 0.949887108178,
			"0.009": 0.810336637966,
			"0.01": 0.471364088563,
			"0.011": 0.871618430058,
			"0.012": 0.626087412188,
			"0.013": 0.309776834164,
			"0.014": 0.340072730994,
			"0.015": 0.305884489726,
			"0.016": 0.0819651790725,
			"0.017": 0.0,
			"0.018": 0.0,
			"0.019": 0.0,
			"0.02": 0.0,
			"0.021": 0.0,
			"0.022": 0.0,
			"0.023": 0.0,
			"0.024": 0.0,
			"0.025": 0.0
		}
	}
}
