{
	 "smiles": "CCOC(=O)COC(=O)C1=CC=CC=C1OC(C)=O", 
	 "Tm": 324.65, 
	 "num_atms": 33, 
	 "gaussian": { 
		 "optdone": 1, 
		 "sigma_profile": "yes", 
		 "theory": "DFT", 
		 "functional": "B3LYP", 
		 "basiset": "6-31G**", 
		 "properties": { 
			 "R2extent": 5580.8952, 
			 "electric_dipole_moment_norm": 2.94771186855, 
			 "electric_quadrupole_moment_norm": 7.92436003473, 
			 "total_energy": -955.195210863, 
			 "HOMO_LUMO_gap": 0.20005, 
			 "cosmo_polarized_energy": -14.71, 
			 "cosmo_cavitation_energy": 37.99, 
			 "cosmo_dispersion_energy": -25.37, 
			 "cosmo_repulsion_energy": 1.97, 
			 "cosmo_total_nonelectrostatic_energy": 14.6, 
			 "SMD_solvation_energy": 9.34 
		},
		"coords": [
			{
				"x": 3.1672397169,
				"y": -2.0724414357,
				"z": -1.8198029786,
				"element": "C" 
			},
			{
				"x": 3.2820225623,
				"y": -0.652809751,
				"z": -2.3518752829,
				"element": "C" 
			},
			{
				"x": 2.3465918987,
				"y": 0.229441097,
				"z": -1.6749520177,
				"element": "O" 
			},
			{
				"x": 2.7503802339,
				"y": 0.7659774807,
				"z": -0.5183136244,
				"element": "C" 
			},
			{
				"x": 3.8538338259,
				"y": 0.6590205483,
				"z": -0.0293323135,
				"element": "O" 
			},
			{
				"x": 1.6643002186,
				"y": 1.610400274,
				"z": 0.1438375271,
				"element": "C" 
			},
			{
				"x": 0.3601820834,
				"y": 1.4519523846,
				"z": -0.4156637587,
				"element": "O" 
			},
			{
				"x": -0.2348787581,
				"y": 0.2570861503,
				"z": -0.1582847578,
				"element": "C" 
			},
			{
				"x": 0.2847619644,
				"y": -0.5804834053,
				"z": 0.5535395,
				"element": "O" 
			},
			{
				"x": -1.5585732356,
				"y": 0.1427339196,
				"z": -0.8292301552,
				"element": "C" 
			},
			{
				"x": -2.0833505335,
				"y": 1.2233633629,
				"z": -1.5585551443,
				"element": "C" 
			},
			{
				"x": -3.3330210045,
				"y": 1.1468543686,
				"z": -2.1650769249,
				"element": "C" 
			},
			{
				"x": -4.0872302516,
				"y": -0.0227491162,
				"z": -2.0529286388,
				"element": "C" 
			},
			{
				"x": -3.5836588969,
				"y": -1.1104131141,
				"z": -1.3425761445,
				"element": "C" 
			},
			{
				"x": -2.3319111432,
				"y": -1.0318951839,
				"z": -0.7377145848,
				"element": "C" 
			},
			{
				"x": -1.9307278858,
				"y": -2.1251556706,
				"z": 0.0123861141,
				"element": "O" 
			},
			{
				"x": -0.8729033568,
				"y": -2.8846313659,
				"z": -0.4400506895,
				"element": "C" 
			},
			{
				"x": -0.4372318058,
				"y": -3.8431665778,
				"z": 0.6317620786,
				"element": "C" 
			},
			{
				"x": -0.4009166454,
				"y": -2.7657862249,
				"z": -1.5424198531,
				"element": "O" 
			},
			{
				"x": 2.1359097773,
				"y": -2.4294652639,
				"z": -1.8841484142,
				"element": "H" 
			},
			{
				"x": 3.8083846059,
				"y": -2.7369904033,
				"z": -2.4091341382,
				"element": "H" 
			},
			{
				"x": 3.4949525409,
				"y": -2.1176393505,
				"z": -0.7778429526,
				"element": "H" 
			},
			{
				"x": 2.991577865,
				"y": -0.5912716144,
				"z": -3.4028702983,
				"element": "H" 
			},
			{
				"x": 4.2909433013,
				"y": -0.2528601124,
				"z": -2.2261602729,
				"element": "H" 
			},
			{
				"x": 1.6684432639,
				"y": 1.3688759974,
				"z": 1.2085989677,
				"element": "H" 
			},
			{
				"x": 1.9134178693,
				"y": 2.665915925,
				"z": 0.0113882397,
				"element": "H" 
			},
			{
				"x": -1.4924494646,
				"y": 2.1272993887,
				"z": -1.6385699718,
				"element": "H" 
			},
			{
				"x": -3.7173280232,
				"y": 1.9961400717,
				"z": -2.7209389439,
				"element": "H" 
			},
			{
				"x": -5.0645103252,
				"y": -0.0924746861,
				"z": -2.5212526086,
				"element": "H" 
			},
			{
				"x": -4.1471049589,
				"y": -2.0319194475,
				"z": -1.2436754621,
				"element": "H" 
			},
			{
				"x": 0.1294182388,
				"y": -3.2741736962,
				"z": 1.3752418895,
				"element": "H" 
			},
			{
				"x": 0.1990101829,
				"y": -4.6139671594,
				"z": 0.1975634269,
				"element": "H" 
			},
			{
				"x": -1.2988738603,
				"y": -4.2902673899,
				"z": 1.1327521877,
				"element": "H" 
			}
		],
		 "valence_orbital": [ 
			{
				"type": "occ",
				"energy": -0.28082,
				"method": "rhf"
			},
			{
				"type": "occ",
				"energy": -0.27839,
				"method": "rhf"
			},
			{
				"type": "occ",
				"energy": -0.27236,
				"method": "rhf"
			},
			{
				"type": "occ",
				"energy": -0.26613,
				"method": "rhf"
			},
			{
				"type": "occ",
				"energy": -0.25603,
				"method": "rhf"
			},
			{
				"type": "unocc",
				"energy": -0.05598,
				"method": "rhf"
			},
			{
				"type": "unocc",
				"energy": -0.01563,
				"method": "rhf"
			},
			{
				"type": "unocc",
				"energy": 0.01165,
				"method": "rhf"
			},
			{
				"type": "unocc",
				"energy": 0.01295,
				"method": "rhf"
			},
			{
				"type": "unocc",
				"energy": 0.04867,
				"method": "rhf"
			}
		],
		"cosmo_sigma_profile": { 
			"-0.025": 0.0,
			"-0.024": 0.0,
			"-0.023": 0.0,
			"-0.022": 0.0,
			"-0.021": 0.0,
			"-0.02": 0.0,
			"-0.019": 0.0,
			"-0.018": 0.0,
			"-0.017": 0.0,
			"-0.016": 0.0,
			"-0.015": 0.0,
			"-0.014": 0.0,
			"-0.013": 0.0,
			"-0.012": 0.0,
			"-0.011": 0.0,
			"-0.01": 0.490903040188,
			"-0.009": 2.46938110487,
			"-0.008": 3.57967859349,
			"-0.007": 10.4120308964,
			"-0.006": 18.7516974398,
			"-0.005": 22.5925225577,
			"-0.004": 25.1915964434,
			"-0.003": 25.9005355095,
			"-0.002": 21.5748465896,
			"-0.001": 21.7640331696,
			"0.0": 20.1062717509,
			"0.001": 20.5481120272,
			"0.002": 21.2934880647,
			"0.003": 20.5699654026,
			"0.004": 12.6772778337,
			"0.005": 11.9688247225,
			"0.006": 8.26721188092,
			"0.007": 6.96205090432,
			"0.008": 6.31787788217,
			"0.009": 4.74071609809,
			"0.01": 5.78723204729,
			"0.011": 6.51386609333,
			"0.012": 3.4645895088,
			"0.013": 0.167454195013,
			"0.014": 0.0,
			"0.015": 0.0,
			"0.016": 0.0,
			"0.017": 0.0,
			"0.018": 0.0,
			"0.019": 0.0,
			"0.02": 0.0,
			"0.021": 0.0,
			"0.022": 0.0,
			"0.023": 0.0,
			"0.024": 0.0,
			"0.025": 0.0
		}
	}
}
