{
	 "smiles": "[O-][N+](=O)C1=CC=C(NC(=O)C2=CC=CC=C2)C=C1", 
	 "Tm": 471.15, 
	 "num_atms": 28, 
	 "gaussian": { 
		 "optdone": 1, 
		 "sigma_profile": "yes", 
		 "theory": "DFT", 
		 "functional": "B3LYP", 
		 "basiset": "6-31G**", 
		 "properties": { 
			 "R2extent": 5803.5438, 
			 "electric_dipole_moment_norm": 3.23122880805, 
			 "electric_quadrupole_moment_norm": 39.9822828717, 
			 "total_energy": -836.498817805, 
			 "HOMO_LUMO_gap": 0.15877, 
			 "cosmo_polarized_energy": -16.19, 
			 "cosmo_cavitation_energy": 33.68, 
			 "cosmo_dispersion_energy": -23.87, 
			 "cosmo_repulsion_energy": 1.84, 
			 "cosmo_total_nonelectrostatic_energy": 11.65, 
			 "SMD_solvation_energy": 8.59 
		},
		"coords": [
			{
				"x": 5.078055788,
				"y": 0.1324714682,
				"z": -0.4999174545,
				"element": "O" 
			},
			{
				"x": 4.5734884182,
				"y": -0.5146263413,
				"z": -1.4188628569,
				"element": "N" 
			},
			{
				"x": 5.2071443562,
				"y": -1.2019141592,
				"z": -2.2215525054,
				"element": "O" 
			},
			{
				"x": 3.1181753644,
				"y": -0.4646318959,
				"z": -1.5671949135,
				"element": "C" 
			},
			{
				"x": 2.3678899739,
				"y": 0.3160435298,
				"z": -0.6883274272,
				"element": "C" 
			},
			{
				"x": 0.9875026651,
				"y": 0.3712437246,
				"z": -0.8294877899,
				"element": "C" 
			},
			{
				"x": 0.3495586367,
				"y": -0.3732944646,
				"z": -1.839136406,
				"element": "C" 
			},
			{
				"x": -1.0373336341,
				"y": -0.3445424633,
				"z": -2.0524034464,
				"element": "N" 
			},
			{
				"x": -2.0998040007,
				"y": 0.0756920956,
				"z": -1.2474796774,
				"element": "C" 
			},
			{
				"x": -3.1224769117,
				"y": 0.4752164641,
				"z": -1.7862819249,
				"element": "O" 
			},
			{
				"x": -1.9983698604,
				"y": -0.0596150184,
				"z": 0.2385534414,
				"element": "C" 
			},
			{
				"x": -1.3159872914,
				"y": -1.1173516196,
				"z": 0.8576317389,
				"element": "C" 
			},
			{
				"x": -1.3387063717,
				"y": -1.2450894337,
				"z": 2.2457742055,
				"element": "C" 
			},
			{
				"x": -2.0312184726,
				"y": -0.3144499669,
				"z": 3.0239140573,
				"element": "C" 
			},
			{
				"x": -2.7199314757,
				"y": 0.7355183007,
				"z": 2.410813272,
				"element": "C" 
			},
			{
				"x": -2.7164326994,
				"y": 0.8543820825,
				"z": 1.0228920539,
				"element": "C" 
			},
			{
				"x": 1.1305530038,
				"y": -1.1467561609,
				"z": -2.7194484191,
				"element": "C" 
			},
			{
				"x": 2.5111434051,
				"y": -1.1919255241,
				"z": -2.5907866209,
				"element": "C" 
			},
			{
				"x": 2.8758441217,
				"y": 0.8840657548,
				"z": 0.080991061,
				"element": "H" 
			},
			{
				"x": 0.4066785173,
				"y": 0.9995252577,
				"z": -0.1666620442,
				"element": "H" 
			},
			{
				"x": -1.331917447,
				"y": -0.411445187,
				"z": -3.0200759476,
				"element": "H" 
			},
			{
				"x": -0.7844561707,
				"y": -1.847567935,
				"z": 0.2565295651,
				"element": "H" 
			},
			{
				"x": -0.8186247062,
				"y": -2.0722008712,
				"z": 2.7195717742,
				"element": "H" 
			},
			{
				"x": -2.0405441462,
				"y": -0.4120316402,
				"z": 4.1056271438,
				"element": "H" 
			},
			{
				"x": -3.266612721,
				"y": 1.4542888267,
				"z": 3.0138272671,
				"element": "H" 
			},
			{
				"x": -3.2694695319,
				"y": 1.6452590201,
				"z": 0.5272475288,
				"element": "H" 
			},
			{
				"x": 0.6412191109,
				"y": -1.7213418661,
				"z": -3.5004871857,
				"element": "H" 
			},
			{
				"x": 3.1235320796,
				"y": -1.7848219774,
				"z": -3.2584684892,
				"element": "H" 
			}
		],
		 "valence_orbital": [ 
			{
				"type": "occ",
				"energy": -0.28692,
				"method": "rhf"
			},
			{
				"type": "occ",
				"energy": -0.28213,
				"method": "rhf"
			},
			{
				"type": "occ",
				"energy": -0.27011,
				"method": "rhf"
			},
			{
				"type": "occ",
				"energy": -0.26364,
				"method": "rhf"
			},
			{
				"type": "occ",
				"energy": -0.24841,
				"method": "rhf"
			},
			{
				"type": "unocc",
				"energy": -0.08964,
				"method": "rhf"
			},
			{
				"type": "unocc",
				"energy": -0.05405,
				"method": "rhf"
			},
			{
				"type": "unocc",
				"energy": -0.0361,
				"method": "rhf"
			},
			{
				"type": "unocc",
				"energy": -0.01666,
				"method": "rhf"
			},
			{
				"type": "unocc",
				"energy": -0.00173,
				"method": "rhf"
			}
		],
		"cosmo_sigma_profile": { 
			"-0.025": 0.0,
			"-0.024": 0.0,
			"-0.023": 0.0,
			"-0.022": 0.0,
			"-0.021": 0.0,
			"-0.02": 0.0,
			"-0.019": 0.0,
			"-0.018": 0.0,
			"-0.017": 0.0,
			"-0.016": 0.0432979895812,
			"-0.015": 0.799380687178,
			"-0.014": 1.48047903671,
			"-0.013": 1.01171492011,
			"-0.012": 0.610154368651,
			"-0.011": 1.55096568381,
			"-0.01": 1.49081450787,
			"-0.009": 1.12002457058,
			"-0.008": 4.20193856488,
			"-0.007": 9.17348711858,
			"-0.006": 18.47292255,
			"-0.005": 19.3946053116,
			"-0.004": 18.3462259671,
			"-0.003": 17.2163453255,
			"-0.002": 18.0849921578,
			"-0.001": 19.4493950366,
			"0.0": 21.4462121201,
			"0.001": 21.7127699417,
			"0.002": 18.17170015,
			"0.003": 12.7908225038,
			"0.004": 13.7182161762,
			"0.005": 4.71578861822,
			"0.006": 5.5634903843,
			"0.007": 6.23680423451,
			"0.008": 11.7379700381,
			"0.009": 5.68691471617,
			"0.01": 5.87066645614,
			"0.011": 3.26776729169,
			"0.012": 4.88023860943,
			"0.013": 2.3559709962,
			"0.014": 0.0,
			"0.015": 0.0,
			"0.016": 0.0,
			"0.017": 0.0,
			"0.018": 0.0,
			"0.019": 0.0,
			"0.02": 0.0,
			"0.021": 0.0,
			"0.022": 0.0,
			"0.023": 0.0,
			"0.024": 0.0,
			"0.025": 0.0
		}
	}
}
