{
	 "smiles": "OC(=O)C1=C(F)C=C(F)C=C1O", 
	 "Tm": 456.15, 
	 "num_atms": 16, 
	 "gaussian": { 
		 "optdone": 1, 
		 "sigma_profile": "yes", 
		 "theory": "DFT", 
		 "functional": "B3LYP", 
		 "basiset": "6-31G**", 
		 "properties": { 
			 "R2extent": 2728.7613, 
			 "electric_dipole_moment_norm": 1.33796872161, 
			 "electric_quadrupole_moment_norm": 4.77069659903, 
			 "total_energy": -694.516814378, 
			 "HOMO_LUMO_gap": 0.18487, 
			 "cosmo_polarized_energy": -8.19, 
			 "cosmo_cavitation_energy": 21.76, 
			 "cosmo_dispersion_energy": -16.41, 
			 "cosmo_repulsion_energy": 1.25, 
			 "cosmo_total_nonelectrostatic_energy": 6.6, 
			 "SMD_solvation_energy": 6.28 
		},
		"coords": [
			{
				"x": -0.0252121851,
				"y": 0.6263180198,
				"z": 3.0148677617,
				"element": "O" 
			},
			{
				"x": -0.0422734715,
				"y": -0.071338816,
				"z": 1.8702359513,
				"element": "C" 
			},
			{
				"x": -0.9337705597,
				"y": -0.9018043201,
				"z": 1.6603193068,
				"element": "O" 
			},
			{
				"x": 1.0332667538,
				"y": 0.2083421599,
				"z": 0.9164799275,
				"element": "C" 
			},
			{
				"x": 2.0664183327,
				"y": 1.1480218314,
				"z": 1.1225664219,
				"element": "C" 
			},
			{
				"x": 2.1021380856,
				"y": 1.8558816114,
				"z": 2.2589316045,
				"element": "F" 
			},
			{
				"x": 3.0659540878,
				"y": 1.3850027453,
				"z": 0.1980995147,
				"element": "C" 
			},
			{
				"x": 3.028576707,
				"y": 0.6471210927,
				"z": -0.9863224892,
				"element": "C" 
			},
			{
				"x": 3.9920486161,
				"y": 0.865348168,
				"z": -1.894298911,
				"element": "F" 
			},
			{
				"x": 2.0524993151,
				"y": -0.2906592028,
				"z": -1.2648021334,
				"element": "C" 
			},
			{
				"x": 1.0460647949,
				"y": -0.5183465005,
				"z": -0.315735219,
				"element": "C" 
			},
			{
				"x": 0.1166536448,
				"y": -1.4289152396,
				"z": -0.6104388414,
				"element": "O" 
			},
			{
				"x": -0.796906831,
				"y": 0.3187229412,
				"z": 3.5206865018,
				"element": "H" 
			},
			{
				"x": 3.8428505882,
				"y": 2.113384762,
				"z": 0.3894563179,
				"element": "H" 
			},
			{
				"x": 2.0541779916,
				"y": -0.8452701306,
				"z": -2.1944431244,
				"element": "H" 
			},
			{
				"x": -0.5100858702,
				"y": -1.464109122,
				"z": 0.1583974102,
				"element": "H" 
			}
		],
		 "valence_orbital": [ 
			{
				"type": "occ",
				"energy": -0.33924,
				"method": "rhf"
			},
			{
				"type": "occ",
				"energy": -0.33656,
				"method": "rhf"
			},
			{
				"type": "occ",
				"energy": -0.30312,
				"method": "rhf"
			},
			{
				"type": "occ",
				"energy": -0.26756,
				"method": "rhf"
			},
			{
				"type": "occ",
				"energy": -0.24384,
				"method": "rhf"
			},
			{
				"type": "unocc",
				"energy": -0.05897,
				"method": "rhf"
			},
			{
				"type": "unocc",
				"energy": -0.00893,
				"method": "rhf"
			},
			{
				"type": "unocc",
				"energy": 0.04087,
				"method": "rhf"
			},
			{
				"type": "unocc",
				"energy": 0.06741,
				"method": "rhf"
			},
			{
				"type": "unocc",
				"energy": 0.07772,
				"method": "rhf"
			}
		],
		"cosmo_sigma_profile": { 
			"-0.025": 0.0,
			"-0.024": 0.0,
			"-0.023": 0.0,
			"-0.022": 0.0,
			"-0.021": 0.0,
			"-0.02": 0.0,
			"-0.019": 0.551312879705,
			"-0.018": 0.968934855661,
			"-0.017": 1.08858185155,
			"-0.016": 0.352043734475,
			"-0.015": 0.883030827311,
			"-0.014": 0.734456480664,
			"-0.013": 0.935025925484,
			"-0.012": 0.649289128555,
			"-0.011": 0.417851999373,
			"-0.01": 0.559377471251,
			"-0.009": 2.03747627,
			"-0.008": 3.79896233477,
			"-0.007": 4.06586722362,
			"-0.006": 4.38208350813,
			"-0.005": 4.26449615588,
			"-0.004": 7.93064098436,
			"-0.003": 10.2575068611,
			"-0.002": 11.3469250635,
			"-0.001": 21.530348132,
			"0.0": 18.5097766004,
			"0.001": 13.8517277837,
			"0.002": 11.4859524511,
			"0.003": 18.5479725796,
			"0.004": 9.14619477883,
			"0.005": 4.38160866239,
			"0.006": 5.25905608037,
			"0.007": 3.32855008956,
			"0.008": 4.95777651367,
			"0.009": 4.22963369995,
			"0.01": 3.45585898904,
			"0.011": 1.574929107,
			"0.012": 0.0,
			"0.013": 0.0,
			"0.014": 0.0,
			"0.015": 0.0,
			"0.016": 0.0,
			"0.017": 0.0,
			"0.018": 0.0,
			"0.019": 0.0,
			"0.02": 0.0,
			"0.021": 0.0,
			"0.022": 0.0,
			"0.023": 0.0,
			"0.024": 0.0,
			"0.025": 0.0
		}
	}
}
