{
	 "smiles": "NC(=S)C1=CC=C(NC(=O)CC2CCCC2)C=C1", 
	 "Tm": 469.15, 
	 "num_atms": 36, 
	 "gaussian": { 
		 "optdone": 1, 
		 "sigma_profile": "yes", 
		 "theory": "DFT", 
		 "functional": "B3LYP", 
		 "basiset": "6-31G**", 
		 "properties": { 
			 "R2extent": 8828.8981, 
			 "electric_dipole_moment_norm": 3.93330626573, 
			 "electric_quadrupole_moment_norm": 31.1816362629, 
			 "total_energy": -1127.28589377, 
			 "HOMO_LUMO_gap": 0.14394, 
			 "cosmo_polarized_energy": -21.67, 
			 "cosmo_cavitation_energy": 39.26, 
			 "cosmo_dispersion_energy": -28.72, 
			 "cosmo_repulsion_energy": 2.2, 
			 "cosmo_total_nonelectrostatic_energy": 12.73, 
			 "SMD_solvation_energy": 5.36 
		},
		"coords": [
			{
				"x": 1.5627260987,
				"y": 5.7776241418,
				"z": -1.16830061,
				"element": "N" 
			},
			{
				"x": 2.1780945674,
				"y": 5.1684029617,
				"z": -0.1265075383,
				"element": "C" 
			},
			{
				"x": 3.4795579455,
				"y": 5.874845268,
				"z": 0.6445152795,
				"element": "S" 
			},
			{
				"x": 1.6316437401,
				"y": 3.8349320449,
				"z": 0.2407643909,
				"element": "C" 
			},
			{
				"x": 1.0050811598,
				"y": 3.0097392142,
				"z": -0.7083894408,
				"element": "C" 
			},
			{
				"x": 0.4896370523,
				"y": 1.7645781227,
				"z": -0.3584993812,
				"element": "C" 
			},
			{
				"x": 0.6095111236,
				"y": 1.2971215905,
				"z": 0.958372964,
				"element": "C" 
			},
			{
				"x": 0.080704584,
				"y": 0.0600591133,
				"z": 1.3792057733,
				"element": "N" 
			},
			{
				"x": 0.0842761287,
				"y": -1.213004894,
				"z": 0.8189078509,
				"element": "C" 
			},
			{
				"x": -0.5036851847,
				"y": -2.1075029496,
				"z": 1.4133997253,
				"element": "O" 
			},
			{
				"x": 0.8804548992,
				"y": -1.4709391575,
				"z": -0.451450648,
				"element": "C" 
			},
			{
				"x": 0.0663558288,
				"y": -2.0813058433,
				"z": -1.6140327074,
				"element": "C" 
			},
			{
				"x": -1.199192332,
				"y": -1.2972088283,
				"z": -2.0365007678,
				"element": "C" 
			},
			{
				"x": -2.0966925108,
				"y": -2.3225170618,
				"z": -2.78898322,
				"element": "C" 
			},
			{
				"x": -1.4246001709,
				"y": -3.7084522219,
				"z": -2.5820670368,
				"element": "C" 
			},
			{
				"x": -0.4645491221,
				"y": -3.5111259307,
				"z": -1.3976362137,
				"element": "C" 
			},
			{
				"x": 1.2291921025,
				"y": 2.1213815398,
				"z": 1.9139096638,
				"element": "C" 
			},
			{
				"x": 1.7335753016,
				"y": 3.3642876584,
				"z": 1.5603890948,
				"element": "C" 
			},
			{
				"x": 1.8837506229,
				"y": 6.6979525184,
				"z": -1.4315197475,
				"element": "H" 
			},
			{
				"x": 0.6506803817,
				"y": 5.481158923,
				"z": -1.4828927157,
				"element": "H" 
			},
			{
				"x": 0.9344037692,
				"y": 3.3271150226,
				"z": -1.7445291377,
				"element": "H" 
			},
			{
				"x": -0.0236332244,
				"y": 1.1669744401,
				"z": -1.1022386112,
				"element": "H" 
			},
			{
				"x": -0.3119688746,
				"y": 0.0373106122,
				"z": 2.3135710311,
				"element": "H" 
			},
			{
				"x": 1.6571309923,
				"y": -2.1886569115,
				"z": -0.1588050626,
				"element": "H" 
			},
			{
				"x": 1.3985410187,
				"y": -0.5697337468,
				"z": -0.7848331655,
				"element": "H" 
			},
			{
				"x": 0.748666055,
				"y": -2.1121285727,
				"z": -2.47605126,
				"element": "H" 
			},
			{
				"x": -0.9607093,
				"y": -0.4224028419,
				"z": -2.652058534,
				"element": "H" 
			},
			{
				"x": -1.7222237177,
				"y": -0.9311605343,
				"z": -1.1449631306,
				"element": "H" 
			},
			{
				"x": -2.187566081,
				"y": -2.0795441983,
				"z": -3.8522316281,
				"element": "H" 
			},
			{
				"x": -3.111296146,
				"y": -2.3128171182,
				"z": -2.3788629969,
				"element": "H" 
			},
			{
				"x": -0.8547532648,
				"y": -3.9846307227,
				"z": -3.4776923674,
				"element": "H" 
			},
			{
				"x": -2.1531486427,
				"y": -4.5064665909,
				"z": -2.4098908016,
				"element": "H" 
			},
			{
				"x": -0.9974564892,
				"y": -3.5615011672,
				"z": -0.4435550718,
				"element": "H" 
			},
			{
				"x": 0.3387705208,
				"y": -4.2557882544,
				"z": -1.3665360641,
				"element": "H" 
			},
			{
				"x": 1.3252162886,
				"y": 1.7688493403,
				"z": 2.9370701922,
				"element": "H" 
			},
			{
				"x": 2.2250048794,
				"y": 3.9886550343,
				"z": 2.2983218924,
				"element": "H" 
			}
		],
		 "valence_orbital": [ 
			{
				"type": "occ",
				"energy": -0.27382,
				"method": "rhf"
			},
			{
				"type": "occ",
				"energy": -0.25656,
				"method": "rhf"
			},
			{
				"type": "occ",
				"energy": -0.24627,
				"method": "rhf"
			},
			{
				"type": "occ",
				"energy": -0.22871,
				"method": "rhf"
			},
			{
				"type": "occ",
				"energy": -0.21031,
				"method": "rhf"
			},
			{
				"type": "unocc",
				"energy": -0.06637,
				"method": "rhf"
			},
			{
				"type": "unocc",
				"energy": -0.02493,
				"method": "rhf"
			},
			{
				"type": "unocc",
				"energy": -0.00155,
				"method": "rhf"
			},
			{
				"type": "unocc",
				"energy": 0.02829,
				"method": "rhf"
			},
			{
				"type": "unocc",
				"energy": 0.06531,
				"method": "rhf"
			}
		],
		"cosmo_sigma_profile": { 
			"-0.025": 0.0,
			"-0.024": 0.0,
			"-0.023": 0.0,
			"-0.022": 0.0,
			"-0.021": 0.0,
			"-0.02": 0.0,
			"-0.019": 0.0,
			"-0.018": 0.0,
			"-0.017": 0.0,
			"-0.016": 0.170107639961,
			"-0.015": 1.50983356621,
			"-0.014": 3.24447408224,
			"-0.013": 4.12796283403,
			"-0.012": 3.63186114841,
			"-0.011": 3.93242983064,
			"-0.01": 3.51653539045,
			"-0.009": 2.4666095297,
			"-0.008": 3.81457250411,
			"-0.007": 5.81970910106,
			"-0.006": 6.94093105903,
			"-0.005": 11.3853003883,
			"-0.004": 13.0865204292,
			"-0.003": 20.0052098454,
			"-0.002": 33.9839851372,
			"-0.001": 33.7754186789,
			"0.0": 30.6613255714,
			"0.001": 26.5894387824,
			"0.002": 22.3965124132,
			"0.003": 16.2914675046,
			"0.004": 8.6953315621,
			"0.005": 5.33300606438,
			"0.006": 6.37583276436,
			"0.007": 6.62462837333,
			"0.008": 7.73036950292,
			"0.009": 7.93587213086,
			"0.01": 5.72804379712,
			"0.011": 5.54853182184,
			"0.012": 3.77722486719,
			"0.013": 4.69446768767,
			"0.014": 1.82398556272,
			"0.015": 0.0,
			"0.016": 0.0,
			"0.017": 0.0,
			"0.018": 0.0,
			"0.019": 0.0,
			"0.02": 0.0,
			"0.021": 0.0,
			"0.022": 0.0,
			"0.023": 0.0,
			"0.024": 0.0,
			"0.025": 0.0
		}
	}
}
