{
	 "smiles": "OC1=C2CC(CCC2=NN1)C1=CC=CC=C1", 
	 "Tm": 543.15, 
	 "num_atms": 30, 
	 "gaussian": { 
		 "optdone": 1, 
		 "sigma_profile": "yes", 
		 "theory": "DFT", 
		 "functional": "B3LYP", 
		 "basiset": "6-31G**", 
		 "properties": { 
			 "R2extent": 3746.0867, 
			 "electric_dipole_moment_norm": 2.60562102578, 
			 "electric_quadrupole_moment_norm": 8.95024965741, 
			 "total_energy": -688.530269675, 
			 "HOMO_LUMO_gap": 0.21083, 
			 "cosmo_polarized_energy": -14.61, 
			 "cosmo_cavitation_energy": 31.78, 
			 "cosmo_dispersion_energy": -23.15, 
			 "cosmo_repulsion_energy": 1.81, 
			 "cosmo_total_nonelectrostatic_energy": 10.43, 
			 "SMD_solvation_energy": 4.03 
		},
		"coords": [
			{
				"x": 3.2711858249,
				"y": -1.7528867329,
				"z": -1.8401518886,
				"element": "O" 
			},
			{
				"x": 2.357629935,
				"y": -1.8663733902,
				"z": -0.8431660443,
				"element": "C" 
			},
			{
				"x": 1.5994418305,
				"y": -0.951594426,
				"z": -0.1326998859,
				"element": "C" 
			},
			{
				"x": 1.5432698763,
				"y": 0.550531029,
				"z": -0.1758592553,
				"element": "C" 
			},
			{
				"x": 0.3406294292,
				"y": 1.1010163454,
				"z": 0.6403367866,
				"element": "C" 
			},
			{
				"x": 0.1711909706,
				"y": 0.3016332382,
				"z": 1.9643991243,
				"element": "C" 
			},
			{
				"x": -0.1301611756,
				"y": -1.1916884011,
				"z": 1.739457118,
				"element": "C" 
			},
			{
				"x": 0.8599072898,
				"y": -1.7633888821,
				"z": 0.7683986523,
				"element": "C" 
			},
			{
				"x": 1.1267068356,
				"y": -3.0591223169,
				"z": 0.6366744423,
				"element": "N" 
			},
			{
				"x": 2.0528953565,
				"y": -3.0971593151,
				"z": -0.367737082,
				"element": "N" 
			},
			{
				"x": -0.9687849633,
				"y": 1.1907582784,
				"z": -0.1372445583,
				"element": "C" 
			},
			{
				"x": -1.8970047646,
				"y": 2.1828102854,
				"z": 0.2164329988,
				"element": "C" 
			},
			{
				"x": -3.1190127107,
				"y": 2.3019319549,
				"z": -0.444299114,
				"element": "C" 
			},
			{
				"x": -3.4404508126,
				"y": 1.4255732791,
				"z": -1.4829575761,
				"element": "C" 
			},
			{
				"x": -2.5283047433,
				"y": 0.4359058966,
				"z": -1.8487224732,
				"element": "C" 
			},
			{
				"x": -1.3053902927,
				"y": 0.3191519306,
				"z": -1.1830065292,
				"element": "C" 
			},
			{
				"x": 3.3591100948,
				"y": -0.8185937649,
				"z": -2.0671028382,
				"element": "H" 
			},
			{
				"x": 1.4834770717,
				"y": 0.9299784868,
				"z": -1.205494903,
				"element": "H" 
			},
			{
				"x": 2.4622710356,
				"y": 0.9754933246,
				"z": 0.253619236,
				"element": "H" 
			},
			{
				"x": 0.5974087626,
				"y": 2.1280868188,
				"z": 0.9275999553,
				"element": "H" 
			},
			{
				"x": -0.6270763798,
				"y": 0.7573631243,
				"z": 2.5598744526,
				"element": "H" 
			},
			{
				"x": 1.0985857225,
				"y": 0.3999546539,
				"z": 2.5439694067,
				"element": "H" 
			},
			{
				"x": -1.1477590626,
				"y": -1.3055206904,
				"z": 1.3435415026,
				"element": "H" 
			},
			{
				"x": -0.0994231192,
				"y": -1.7400446175,
				"z": 2.6868134378,
				"element": "H" 
			},
			{
				"x": 2.4388763058,
				"y": -3.9765830019,
				"z": -0.6719353413,
				"element": "H" 
			},
			{
				"x": -1.6525997464,
				"y": 2.8763152294,
				"z": 1.018482385,
				"element": "H" 
			},
			{
				"x": -3.8165493984,
				"y": 3.0825331352,
				"z": -0.1529813106,
				"element": "H" 
			},
			{
				"x": -4.3899922157,
				"y": 1.5160539986,
				"z": -2.0027225344,
				"element": "H" 
			},
			{
				"x": -2.7660248445,
				"y": -0.2518346389,
				"z": -2.6557574425,
				"element": "H" 
			},
			{
				"x": -0.6113521122,
				"y": -0.4611008309,
				"z": -1.4787607214,
				"element": "H" 
			}
		],
		 "valence_orbital": [ 
			{
				"type": "occ",
				"energy": -0.27002,
				"method": "rhf"
			},
			{
				"type": "occ",
				"energy": -0.24484,
				"method": "rhf"
			},
			{
				"type": "occ",
				"energy": -0.2381,
				"method": "rhf"
			},
			{
				"type": "occ",
				"energy": -0.23246,
				"method": "rhf"
			},
			{
				"type": "occ",
				"energy": -0.20895,
				"method": "rhf"
			},
			{
				"type": "unocc",
				"energy": 0.00188,
				"method": "rhf"
			},
			{
				"type": "unocc",
				"energy": 0.00394,
				"method": "rhf"
			},
			{
				"type": "unocc",
				"energy": 0.03813,
				"method": "rhf"
			},
			{
				"type": "unocc",
				"energy": 0.04922,
				"method": "rhf"
			},
			{
				"type": "unocc",
				"energy": 0.07616,
				"method": "rhf"
			}
		],
		"cosmo_sigma_profile": { 
			"-0.025": 0.0,
			"-0.024": 0.0,
			"-0.023": 0.0,
			"-0.022": 0.0,
			"-0.021": 0.0,
			"-0.02": 0.0,
			"-0.019": 0.0,
			"-0.018": 0.299442979117,
			"-0.017": 1.14488665403,
			"-0.016": 1.77918469296,
			"-0.015": 1.95769970417,
			"-0.014": 1.98124706311,
			"-0.013": 2.56994102033,
			"-0.012": 1.64785079147,
			"-0.011": 1.41654110152,
			"-0.01": 2.51993988824,
			"-0.009": 1.56810349794,
			"-0.008": 1.23192955281,
			"-0.007": 1.51654203603,
			"-0.006": 3.69709563005,
			"-0.005": 10.2955895742,
			"-0.004": 14.1349648177,
			"-0.003": 27.0247329096,
			"-0.002": 26.6577081084,
			"-0.001": 23.829488199,
			"0.0": 20.6650971785,
			"0.001": 16.0019021886,
			"0.002": 13.8007727117,
			"0.003": 12.8943862048,
			"0.004": 12.2923168846,
			"0.005": 12.7811682979,
			"0.006": 11.5838886156,
			"0.007": 6.59583028028,
			"0.008": 2.97750400277,
			"0.009": 3.67573484967,
			"0.01": 3.56242264382,
			"0.011": 1.58518411783,
			"0.012": 0.874553757131,
			"0.013": 0.794417065242,
			"0.014": 1.66486155499,
			"0.015": 1.25355473846,
			"0.016": 1.09531640455,
			"0.017": 0.915071380572,
			"0.018": 0.336094737365,
			"0.019": 0.0,
			"0.02": 0.0,
			"0.021": 0.0,
			"0.022": 0.0,
			"0.023": 0.0,
			"0.024": 0.0,
			"0.025": 0.0
		}
	}
}
