{
	 "smiles": "COC(=O)C1=CC(CC(O)=O)=CC=C1", 
	 "Tm": 348.15, 
	 "num_atms": 24, 
	 "gaussian": { 
		 "optdone": 1, 
		 "sigma_profile": "yes", 
		 "theory": "DFT", 
		 "functional": "B3LYP", 
		 "basiset": "6-31G**", 
		 "properties": { 
			 "R2extent": 4199.0192, 
			 "electric_dipole_moment_norm": 5.65862930488, 
			 "electric_quadrupole_moment_norm": 20.9013590915, 
			 "total_energy": -688.008939017, 
			 "HOMO_LUMO_gap": 0.19412, 
			 "cosmo_polarized_energy": -16.34, 
			 "cosmo_cavitation_energy": 29.18, 
			 "cosmo_dispersion_energy": -20.82, 
			 "cosmo_repulsion_energy": 1.66, 
			 "cosmo_total_nonelectrostatic_energy": 10.01, 
			 "SMD_solvation_energy": 7.74 
		},
		"coords": [
			{
				"x": 1.4184135162,
				"y": 3.3163659899,
				"z": 1.6604784178,
				"element": "C" 
			},
			{
				"x": 0.3212589947,
				"y": 2.7709588529,
				"z": 0.9091173656,
				"element": "O" 
			},
			{
				"x": 0.4172382577,
				"y": 1.4549134952,
				"z": 0.6228154543,
				"element": "C" 
			},
			{
				"x": 1.3558877659,
				"y": 0.7630446208,
				"z": 0.9663069688,
				"element": "O" 
			},
			{
				"x": -0.7515444973,
				"y": 0.9547831466,
				"z": -0.1597623251,
				"element": "C" 
			},
			{
				"x": -0.7671972513,
				"y": -0.4048705251,
				"z": -0.5026865044,
				"element": "C" 
			},
			{
				"x": -1.8290365176,
				"y": -0.9511110401,
				"z": -1.2311738069,
				"element": "C" 
			},
			{
				"x": -1.8276701175,
				"y": -2.4093183985,
				"z": -1.6337316485,
				"element": "C" 
			},
			{
				"x": -1.2771024781,
				"y": -2.7064123952,
				"z": -3.0392324043,
				"element": "C" 
			},
			{
				"x": -0.3199860923,
				"y": -1.8674001165,
				"z": -3.4988875072,
				"element": "O" 
			},
			{
				"x": -1.6357661419,
				"y": -3.6538490324,
				"z": -3.6916139255,
				"element": "O" 
			},
			{
				"x": -2.884671695,
				"y": -0.1051346341,
				"z": -1.6115388853,
				"element": "C" 
			},
			{
				"x": -2.8759312102,
				"y": 1.2462551786,
				"z": -1.2700327657,
				"element": "C" 
			},
			{
				"x": -1.8111602092,
				"y": 1.78333414,
				"z": -0.5451476452,
				"element": "C" 
			},
			{
				"x": 2.3552191154,
				"y": 3.2016309976,
				"z": 1.1097671115,
				"element": "H" 
			},
			{
				"x": 1.1823053985,
				"y": 4.3708241309,
				"z": 1.8013232057,
				"element": "H" 
			},
			{
				"x": 1.5120966545,
				"y": 2.8104761009,
				"z": 2.6244881585,
				"element": "H" 
			},
			{
				"x": 0.0612877998,
				"y": -1.0247959634,
				"z": -0.171161052,
				"element": "H" 
			},
			{
				"x": -1.215391914,
				"y": -2.9925207017,
				"z": -0.9348117235,
				"element": "H" 
			},
			{
				"x": -2.8324540113,
				"y": -2.8365563603,
				"z": -1.6043230564,
				"element": "H" 
			},
			{
				"x": -0.18935433,
				"y": -1.1393911147,
				"z": -2.8704827354,
				"element": "H" 
			},
			{
				"x": -3.7185439901,
				"y": -0.5141391353,
				"z": -2.1763382142,
				"element": "H" 
			},
			{
				"x": -3.7024112267,
				"y": 1.883797257,
				"z": -1.5691013121,
				"element": "H" 
			},
			{
				"x": -1.7978858202,
				"y": 2.8327155068,
				"z": -0.2751711704,
				"element": "H" 
			}
		],
		 "valence_orbital": [ 
			{
				"type": "occ",
				"energy": -0.31208,
				"method": "rhf"
			},
			{
				"type": "occ",
				"energy": -0.28798,
				"method": "rhf"
			},
			{
				"type": "occ",
				"energy": -0.28591,
				"method": "rhf"
			},
			{
				"type": "occ",
				"energy": -0.27733,
				"method": "rhf"
			},
			{
				"type": "occ",
				"energy": -0.25769,
				"method": "rhf"
			},
			{
				"type": "unocc",
				"energy": -0.06357,
				"method": "rhf"
			},
			{
				"type": "unocc",
				"energy": -0.03049,
				"method": "rhf"
			},
			{
				"type": "unocc",
				"energy": 0.01346,
				"method": "rhf"
			},
			{
				"type": "unocc",
				"energy": 0.03803,
				"method": "rhf"
			},
			{
				"type": "unocc",
				"energy": 0.07877,
				"method": "rhf"
			}
		],
		"cosmo_sigma_profile": { 
			"-0.025": 0.0,
			"-0.024": 0.0,
			"-0.023": 0.0,
			"-0.022": 0.0,
			"-0.021": 0.0,
			"-0.02": 0.0,
			"-0.019": 0.0,
			"-0.018": 0.0,
			"-0.017": 0.0,
			"-0.016": 0.0,
			"-0.015": 0.0500933381492,
			"-0.014": 0.617338107174,
			"-0.013": 0.587784428583,
			"-0.012": 1.31757097307,
			"-0.011": 1.79520059071,
			"-0.01": 1.57321460407,
			"-0.009": 1.68771987021,
			"-0.008": 4.7079947396,
			"-0.007": 11.9192663043,
			"-0.006": 16.4954374315,
			"-0.005": 18.2311333895,
			"-0.004": 18.4374957107,
			"-0.003": 19.2638292309,
			"-0.002": 14.6827347325,
			"-0.001": 11.3300938997,
			"0.0": 14.1341895633,
			"0.001": 13.507407421,
			"0.002": 13.0579532683,
			"0.003": 13.0340712002,
			"0.004": 5.70418633086,
			"0.005": 6.46423976542,
			"0.006": 4.80610377634,
			"0.007": 3.19031696231,
			"0.008": 3.8713962625,
			"0.009": 5.01731414421,
			"0.01": 6.74787056632,
			"0.011": 8.19478109555,
			"0.012": 9.60020520435,
			"0.013": 2.34395672419,
			"0.014": 0.0570456245812,
			"0.015": 0.0,
			"0.016": 0.0,
			"0.017": 0.0,
			"0.018": 0.0,
			"0.019": 0.0,
			"0.02": 0.0,
			"0.021": 0.0,
			"0.022": 0.0,
			"0.023": 0.0,
			"0.024": 0.0,
			"0.025": 0.0
		}
	}
}
