{
	 "smiles": "NC1=NN=C(N1)C1=CN=CC=C1", 
	 "Tm": 481.15, 
	 "num_atms": 19, 
	 "gaussian": { 
		 "optdone": 1, 
		 "sigma_profile": "yes", 
		 "theory": "DFT", 
		 "functional": "B3LYP", 
		 "basiset": "6-31G**", 
		 "properties": { 
			 "R2extent": 2814.7697, 
			 "electric_dipole_moment_norm": 6.87348940568, 
			 "electric_quadrupole_moment_norm": 13.8972403876, 
			 "total_energy": -544.697492298, 
			 "HOMO_LUMO_gap": 0.17367, 
			 "cosmo_polarized_energy": -26.2, 
			 "cosmo_cavitation_energy": 24.1, 
			 "cosmo_dispersion_energy": -18.13, 
			 "cosmo_repulsion_energy": 1.43, 
			 "cosmo_total_nonelectrostatic_energy": 7.4, 
			 "SMD_solvation_energy": 0.6 
		},
		"coords": [
			{
				"x": -3.7636149432,
				"y": 1.9524876713,
				"z": 0.1380822753,
				"element": "N" 
			},
			{
				"x": -2.5750347106,
				"y": 1.2404581303,
				"z": 0.0737861255,
				"element": "C" 
			},
			{
				"x": -1.855075878,
				"y": 1.0199453034,
				"z": -1.0039139366,
				"element": "N" 
			},
			{
				"x": -0.7097932583,
				"y": 0.3633915751,
				"z": -0.6001229468,
				"element": "N" 
			},
			{
				"x": -0.7689461262,
				"y": 0.1894282066,
				"z": 0.7014054869,
				"element": "C" 
			},
			{
				"x": -1.9510954566,
				"y": 0.730315645,
				"z": 1.1806941145,
				"element": "N" 
			},
			{
				"x": 0.2372366617,
				"y": -0.4795451825,
				"z": 1.5214944177,
				"element": "C" 
			},
			{
				"x": 1.4854208203,
				"y": -0.8072382866,
				"z": 0.9556742901,
				"element": "C" 
			},
			{
				"x": 2.465599787,
				"y": -1.4177719801,
				"z": 1.6215581869,
				"element": "N" 
			},
			{
				"x": 2.2454199645,
				"y": -1.731765186,
				"z": 2.9066528161,
				"element": "C" 
			},
			{
				"x": 1.0496655371,
				"y": -1.4550955012,
				"z": 3.5685955222,
				"element": "C" 
			},
			{
				"x": 0.028901773,
				"y": -0.8221819698,
				"z": 2.8638117418,
				"element": "C" 
			},
			{
				"x": -4.0380503313,
				"y": 2.2457999516,
				"z": -0.7929021616,
				"element": "H" 
			},
			{
				"x": -4.5232893095,
				"y": 1.4534002924,
				"z": 0.5888603247,
				"element": "H" 
			},
			{
				"x": -2.2139401683,
				"y": 0.889520657,
				"z": 2.1407786116,
				"element": "H" 
			},
			{
				"x": 1.6739460739,
				"y": -0.5531300109,
				"z": -0.0840155955,
				"element": "H" 
			},
			{
				"x": 3.0624672841,
				"y": -2.2275277341,
				"z": 3.427302138,
				"element": "H" 
			},
			{
				"x": 0.9189135475,
				"y": -1.734403027,
				"z": 4.6092630783,
				"element": "H" 
			},
			{
				"x": -0.9188312671,
				"y": -0.6159885544,
				"z": 3.3549955111,
				"element": "H" 
			}
		],
		 "valence_orbital": [ 
			{
				"type": "occ",
				"energy": -0.29497,
				"method": "rhf"
			},
			{
				"type": "occ",
				"energy": -0.27693,
				"method": "rhf"
			},
			{
				"type": "occ",
				"energy": -0.25867,
				"method": "rhf"
			},
			{
				"type": "occ",
				"energy": -0.25091,
				"method": "rhf"
			},
			{
				"type": "occ",
				"energy": -0.2179,
				"method": "rhf"
			},
			{
				"type": "unocc",
				"energy": -0.04423,
				"method": "rhf"
			},
			{
				"type": "unocc",
				"energy": -0.02511,
				"method": "rhf"
			},
			{
				"type": "unocc",
				"energy": 0.04005,
				"method": "rhf"
			},
			{
				"type": "unocc",
				"energy": 0.04673,
				"method": "rhf"
			},
			{
				"type": "unocc",
				"energy": 0.06419,
				"method": "rhf"
			}
		],
		"cosmo_sigma_profile": { 
			"-0.025": 0.0,
			"-0.024": 0.0,
			"-0.023": 0.0,
			"-0.022": 0.0,
			"-0.021": 0.0,
			"-0.02": 0.0,
			"-0.019": 0.0,
			"-0.018": 0.103566987809,
			"-0.017": 1.31873418917,
			"-0.016": 1.45543201799,
			"-0.015": 1.39227075397,
			"-0.014": 3.99205785157,
			"-0.013": 4.9770136623,
			"-0.012": 3.59311211921,
			"-0.011": 4.11531416945,
			"-0.01": 3.63966643875,
			"-0.009": 3.50289478722,
			"-0.008": 3.65756188634,
			"-0.007": 6.23171071312,
			"-0.006": 9.76446906642,
			"-0.005": 8.65738140605,
			"-0.004": 7.06140503745,
			"-0.003": 7.510597279,
			"-0.002": 7.68509738843,
			"-0.001": 8.93613640082,
			"0.0": 13.4198551166,
			"0.001": 17.540029102,
			"0.002": 14.7007893461,
			"0.003": 6.95608988016,
			"0.004": 5.68264387557,
			"0.005": 5.1093367057,
			"0.006": 3.71482145733,
			"0.007": 3.83274650387,
			"0.008": 3.12643401969,
			"0.009": 3.96929364711,
			"0.01": 3.39756072804,
			"0.011": 3.56108888882,
			"0.012": 3.86162656516,
			"0.013": 4.34343671865,
			"0.014": 4.5023619386,
			"0.015": 3.85869154067,
			"0.016": 2.83202703125,
			"0.017": 1.30409756079,
			"0.018": 0.0684391317477,
			"0.019": 0.0,
			"0.02": 0.0,
			"0.021": 0.0,
			"0.022": 0.0,
			"0.023": 0.0,
			"0.024": 0.0,
			"0.025": 0.0
		}
	}
}
