{
	 "smiles": "CC1=CC=CC(O)=N1", 
	 "Tm": 432.15, 
	 "num_atms": 15, 
	 "gaussian": { 
		 "optdone": 1, 
		 "sigma_profile": "yes", 
		 "theory": "DFT", 
		 "functional": "B3LYP", 
		 "basiset": "6-31G**", 
		 "properties": { 
			 "R2extent": 1065.5115, 
			 "electric_dipole_moment_norm": 2.84920510494, 
			 "electric_quadrupole_moment_norm": 10.2222411197, 
			 "total_energy": -362.834968864, 
			 "HOMO_LUMO_gap": 0.21385, 
			 "cosmo_polarized_energy": -11.78, 
			 "cosmo_cavitation_energy": 18.82, 
			 "cosmo_dispersion_energy": -14.25, 
			 "cosmo_repulsion_energy": 1.19, 
			 "cosmo_total_nonelectrostatic_energy": 5.76, 
			 "SMD_solvation_energy": 2.42 
		},
		"coords": [
			{
				"x": 0.275613754,
				"y": 1.3774813527,
				"z": 1.634595555,
				"element": "C" 
			},
			{
				"x": 0.583382233,
				"y": 0.4144718578,
				"z": 0.5133428938,
				"element": "C" 
			},
			{
				"x": 1.3311276231,
				"y": -0.7488072969,
				"z": 0.7419156754,
				"element": "C" 
			},
			{
				"x": 1.5833631661,
				"y": -1.5997026633,
				"z": -0.3318994785,
				"element": "C" 
			},
			{
				"x": 1.0912922766,
				"y": -1.2765538329,
				"z": -1.5927989231,
				"element": "C" 
			},
			{
				"x": 0.3546624788,
				"y": -0.0892210056,
				"z": -1.7142683546,
				"element": "C" 
			},
			{
				"x": -0.1699088591,
				"y": 0.317668839,
				"z": -2.9017710133,
				"element": "O" 
			},
			{
				"x": 0.1056896494,
				"y": 0.7328426804,
				"z": -0.6990438334,
				"element": "N" 
			},
			{
				"x": -0.31295264,
				"y": 2.2122232834,
				"z": 1.2515596825,
				"element": "H" 
			},
			{
				"x": -0.2885516413,
				"y": 0.8851180982,
				"z": 2.434916458,
				"element": "H" 
			},
			{
				"x": 1.1957651374,
				"y": 1.7699338772,
				"z": 2.0823936458,
				"element": "H" 
			},
			{
				"x": 1.7026233418,
				"y": -0.9759922638,
				"z": 1.7359808429,
				"element": "H" 
			},
			{
				"x": 2.1594199706,
				"y": -2.5101093397,
				"z": -0.191469683,
				"element": "H" 
			},
			{
				"x": 1.2706330082,
				"y": -1.9191448125,
				"z": -2.4505851623,
				"element": "H" 
			},
			{
				"x": 0.0549405014,
				"y": -0.3304087738,
				"z": -3.5818683051,
				"element": "H" 
			}
		],
		 "valence_orbital": [ 
			{
				"type": "occ",
				"energy": -0.36708,
				"method": "rhf"
			},
			{
				"type": "occ",
				"energy": -0.33511,
				"method": "rhf"
			},
			{
				"type": "occ",
				"energy": -0.27808,
				"method": "rhf"
			},
			{
				"type": "occ",
				"energy": -0.25498,
				"method": "rhf"
			},
			{
				"type": "occ",
				"energy": -0.22866,
				"method": "rhf"
			},
			{
				"type": "unocc",
				"energy": -0.01481,
				"method": "rhf"
			},
			{
				"type": "unocc",
				"energy": 0.00491,
				"method": "rhf"
			},
			{
				"type": "unocc",
				"energy": 0.06905,
				"method": "rhf"
			},
			{
				"type": "unocc",
				"energy": 0.10299,
				"method": "rhf"
			},
			{
				"type": "unocc",
				"energy": 0.12803,
				"method": "rhf"
			}
		],
		"cosmo_sigma_profile": { 
			"-0.025": 0.0,
			"-0.024": 0.0,
			"-0.023": 0.0,
			"-0.022": 0.0,
			"-0.021": 0.0,
			"-0.02": 0.0,
			"-0.019": 0.0216009212595,
			"-0.018": 0.760243324375,
			"-0.017": 1.48191799037,
			"-0.016": 0.614010099216,
			"-0.015": 1.05282277803,
			"-0.014": 1.2590083996,
			"-0.013": 1.46503199343,
			"-0.012": 0.815238629718,
			"-0.011": 0.511966745929,
			"-0.01": 0.803176292661,
			"-0.009": 1.34298729611,
			"-0.008": 1.31949411303,
			"-0.007": 2.99400821577,
			"-0.006": 6.33766711013,
			"-0.005": 7.16209407784,
			"-0.004": 11.4832560327,
			"-0.003": 11.7556520281,
			"-0.002": 10.137394643,
			"-0.001": 11.1404828543,
			"0.0": 11.4217591554,
			"0.001": 9.48780218023,
			"0.002": 10.2411677609,
			"0.003": 11.6267876627,
			"0.004": 8.66649731046,
			"0.005": 2.94321872705,
			"0.006": 2.43000646696,
			"0.007": 2.36071802452,
			"0.008": 1.87375274622,
			"0.009": 2.09124262478,
			"0.01": 2.39394976219,
			"0.011": 2.20757140306,
			"0.012": 3.14283089157,
			"0.013": 2.55227340072,
			"0.014": 1.210177238,
			"0.015": 1.12596297626,
			"0.016": 1.09605398447,
			"0.017": 0.211224319916,
			"0.018": 0.0,
			"0.019": 0.0,
			"0.02": 0.0,
			"0.021": 0.0,
			"0.022": 0.0,
			"0.023": 0.0,
			"0.024": 0.0,
			"0.025": 0.0
		}
	}
}
