{
	 "smiles": "OC(=O)C1=CN(N=C1C1=CC=NC=C1)C1=CC=CC=C1", 
	 "Tm": 509.15, 
	 "num_atms": 31, 
	 "gaussian": { 
		 "optdone": 1, 
		 "sigma_profile": "yes", 
		 "theory": "DFT", 
		 "functional": "B3LYP", 
		 "basiset": "6-31G**", 
		 "properties": { 
			 "R2extent": 7014.7345, 
			 "electric_dipole_moment_norm": 7.84246303848, 
			 "electric_quadrupole_moment_norm": 7.46138836612, 
			 "total_energy": -892.91302698, 
			 "HOMO_LUMO_gap": 0.18452, 
			 "cosmo_polarized_energy": -20.53, 
			 "cosmo_cavitation_energy": 36.35, 
			 "cosmo_dispersion_energy": -26.42, 
			 "cosmo_repulsion_energy": 1.98, 
			 "cosmo_total_nonelectrostatic_energy": 11.91, 
			 "SMD_solvation_energy": 5.29 
		},
		"coords": [
			{
				"x": -2.1415696829,
				"y": -0.833329298,
				"z": -2.5739733487,
				"element": "O" 
			},
			{
				"x": -0.9077033675,
				"y": -1.313656047,
				"z": -2.24368019,
				"element": "C" 
			},
			{
				"x": -0.3368877297,
				"y": -2.0539797021,
				"z": -3.0102313805,
				"element": "O" 
			},
			{
				"x": -0.3728842369,
				"y": -0.8107667917,
				"z": -0.9549688896,
				"element": "C" 
			},
			{
				"x": -0.6442908944,
				"y": 0.4546405462,
				"z": -0.4552830526,
				"element": "C" 
			},
			{
				"x": 0.0184619736,
				"y": 0.5772920227,
				"z": 0.7209689522,
				"element": "N" 
			},
			{
				"x": 0.6958227295,
				"y": -0.5517267405,
				"z": 1.0326708531,
				"element": "N" 
			},
			{
				"x": 0.4900112324,
				"y": -1.4069966495,
				"z": 0.0285165856,
				"element": "C" 
			},
			{
				"x": 1.0945815563,
				"y": -2.7519252929,
				"z": 0.1257938661,
				"element": "C" 
			},
			{
				"x": 1.4347556113,
				"y": -3.2626930143,
				"z": 1.3897494314,
				"element": "C" 
			},
			{
				"x": 2.0241096672,
				"y": -4.5199289384,
				"z": 1.476106248,
				"element": "C" 
			},
			{
				"x": 2.2936233181,
				"y": -5.2954753247,
				"z": 0.4161797802,
				"element": "N" 
			},
			{
				"x": 1.9691581238,
				"y": -4.8001192781,
				"z": -0.7837164306,
				"element": "C" 
			},
			{
				"x": 1.3786344852,
				"y": -3.5518648962,
				"z": -0.9889988211,
				"element": "C" 
			},
			{
				"x": 0.0630354125,
				"y": 1.7055544494,
				"z": 1.5894701533,
				"element": "C" 
			},
			{
				"x": -0.175803211,
				"y": 2.9886346537,
				"z": 1.0871386711,
				"element": "C" 
			},
			{
				"x": -0.153868009,
				"y": 4.079333725,
				"z": 1.9557127127,
				"element": "C" 
			},
			{
				"x": 0.1211833698,
				"y": 3.8975178526,
				"z": 3.3118060043,
				"element": "C" 
			},
			{
				"x": 0.3764002568,
				"y": 2.6133858729,
				"z": 3.7983713815,
				"element": "C" 
			},
			{
				"x": 0.3457103656,
				"y": 1.5124834167,
				"z": 2.9450982213,
				"element": "C" 
			},
			{
				"x": -2.5566943563,
				"y": -0.4358107567,
				"z": -1.7959409026,
				"element": "H" 
			},
			{
				"x": -1.23591551,
				"y": 1.2598183501,
				"z": -0.8642009923,
				"element": "H" 
			},
			{
				"x": 1.2377113303,
				"y": -2.6827365515,
				"z": 2.2838633943,
				"element": "H" 
			},
			{
				"x": 2.2911705137,
				"y": -4.9286186539,
				"z": 2.4493697871,
				"element": "H" 
			},
			{
				"x": 2.1947318987,
				"y": -5.4337242725,
				"z": -1.6398114497,
				"element": "H" 
			},
			{
				"x": 1.1462670774,
				"y": -3.2103371883,
				"z": -1.9894389097,
				"element": "H" 
			},
			{
				"x": -0.3501824287,
				"y": 3.1439604797,
				"z": 0.0276774503,
				"element": "H" 
			},
			{
				"x": -0.3376898857,
				"y": 5.0749758889,
				"z": 1.5638035216,
				"element": "H" 
			},
			{
				"x": 0.1434432743,
				"y": 4.7505463635,
				"z": 3.9827340961,
				"element": "H" 
			},
			{
				"x": 0.5960814089,
				"y": 2.463429447,
				"z": 4.8510337339,
				"element": "H" 
			},
			{
				"x": 0.5394957069,
				"y": 0.5105163279,
				"z": 3.3071795232,
				"element": "H" 
			}
		],
		 "valence_orbital": [ 
			{
				"type": "occ",
				"energy": -0.27717,
				"method": "rhf"
			},
			{
				"type": "occ",
				"energy": -0.27006,
				"method": "rhf"
			},
			{
				"type": "occ",
				"energy": -0.2543,
				"method": "rhf"
			},
			{
				"type": "occ",
				"energy": -0.24663,
				"method": "rhf"
			},
			{
				"type": "occ",
				"energy": -0.24103,
				"method": "rhf"
			},
			{
				"type": "unocc",
				"energy": -0.05651,
				"method": "rhf"
			},
			{
				"type": "unocc",
				"energy": -0.04736,
				"method": "rhf"
			},
			{
				"type": "unocc",
				"energy": -0.02654,
				"method": "rhf"
			},
			{
				"type": "unocc",
				"energy": -0.0048,
				"method": "rhf"
			},
			{
				"type": "unocc",
				"energy": -0.0019,
				"method": "rhf"
			}
		],
		"cosmo_sigma_profile": { 
			"-0.025": 0.0,
			"-0.024": 0.0,
			"-0.023": 0.0,
			"-0.022": 0.0,
			"-0.021": 0.0,
			"-0.02": 0.0,
			"-0.019": 0.282506733061,
			"-0.018": 1.02712376633,
			"-0.017": 1.41165798299,
			"-0.016": 0.610903444941,
			"-0.015": 1.16058158081,
			"-0.014": 1.5252826601,
			"-0.013": 1.39697163904,
			"-0.012": 1.8142323381,
			"-0.011": 3.03340836838,
			"-0.01": 2.60478000483,
			"-0.009": 2.16233425303,
			"-0.008": 2.67007984112,
			"-0.007": 5.94594072848,
			"-0.006": 17.1502275017,
			"-0.005": 18.1578916684,
			"-0.004": 18.8691245989,
			"-0.003": 15.9332207852,
			"-0.002": 16.728030579,
			"-0.001": 17.908747536,
			"0.0": 22.7700183669,
			"0.001": 22.4343929124,
			"0.002": 28.8784112636,
			"0.003": 23.332281376,
			"0.004": 17.4603222931,
			"0.005": 8.08320732411,
			"0.006": 4.7100158125,
			"0.007": 5.16560167333,
			"0.008": 5.43703812559,
			"0.009": 5.27458982349,
			"0.01": 7.15023397931,
			"0.011": 5.01034796054,
			"0.012": 2.76846952616,
			"0.013": 1.63913794533,
			"0.014": 1.08259661935,
			"0.015": 0.814141562351,
			"0.016": 0.934804363825,
			"0.017": 0.356349839589,
			"0.018": 0.0,
			"0.019": 0.0,
			"0.02": 0.0,
			"0.021": 0.0,
			"0.022": 0.0,
			"0.023": 0.0,
			"0.024": 0.0,
			"0.025": 0.0
		}
	}
}
