{
	 "smiles": "CC(C)(C)C(=O)NC1=CC=C(C=C1)C(=O)CCl", 
	 "Tm": 406.15, 
	 "num_atms": 33, 
	 "gaussian": { 
		 "optdone": 1, 
		 "sigma_profile": "yes", 
		 "theory": "DFT", 
		 "functional": "B3LYP", 
		 "basiset": "6-31G**", 
		 "properties": { 
			 "R2extent": 7968.0861, 
			 "electric_dipole_moment_norm": 2.65540974804, 
			 "electric_quadrupole_moment_norm": 18.0929201803, 
			 "total_energy": -1170.43404086, 
			 "HOMO_LUMO_gap": 0.16488, 
			 "cosmo_polarized_energy": -15.09, 
			 "cosmo_cavitation_energy": 37.24, 
			 "cosmo_dispersion_energy": -26.05, 
			 "cosmo_repulsion_energy": 2.02, 
			 "cosmo_total_nonelectrostatic_energy": 13.22, 
			 "SMD_solvation_energy": 7.32 
		},
		"coords": [
			{
				"x": 2.1155951665,
				"y": 0.5189823213,
				"z": -1.9201477265,
				"element": "C" 
			},
			{
				"x": 1.1945329898,
				"y": -0.6928177559,
				"z": -1.649448386,
				"element": "C" 
			},
			{
				"x": 1.4132941622,
				"y": -1.2409122532,
				"z": -0.2269831463,
				"element": "C" 
			},
			{
				"x": 1.5561321389,
				"y": -1.8125887301,
				"z": -2.6563333831,
				"element": "C" 
			},
			{
				"x": -0.2625714353,
				"y": -0.2853751976,
				"z": -1.9932724253,
				"element": "C" 
			},
			{
				"x": -0.614493818,
				"y": -0.2042199459,
				"z": -3.1624763994,
				"element": "O" 
			},
			{
				"x": -1.251178743,
				"y": -0.1219644889,
				"z": -1.0198989825,
				"element": "N" 
			},
			{
				"x": -1.247900591,
				"y": 0.3237918001,
				"z": 0.3194824208,
				"element": "C" 
			},
			{
				"x": -0.3929421876,
				"y": 1.3406503281,
				"z": 0.7769144489,
				"element": "C" 
			},
			{
				"x": -0.4647038409,
				"y": 1.7719313413,
				"z": 2.0936971118,
				"element": "C" 
			},
			{
				"x": -1.4088120779,
				"y": 1.2305647208,
				"z": 2.9826329437,
				"element": "C" 
			},
			{
				"x": -2.2847042252,
				"y": 0.2392147849,
				"z": 2.5114474053,
				"element": "C" 
			},
			{
				"x": -2.2008065072,
				"y": -0.2126985463,
				"z": 1.1996488112,
				"element": "C" 
			},
			{
				"x": -1.4137421829,
				"y": 1.7340704482,
				"z": 4.3827592313,
				"element": "C" 
			},
			{
				"x": -0.5947243577,
				"y": 2.549617992,
				"z": 4.7770097779,
				"element": "O" 
			},
			{
				"x": -2.4394880127,
				"y": 1.1965459243,
				"z": 5.3861301913,
				"element": "C" 
			},
			{
				"x": -4.1231821703,
				"y": 1.7611650325,
				"z": 5.0060290027,
				"element": "Cl" 
			},
			{
				"x": 1.957945995,
				"y": 0.9013858939,
				"z": -2.9322825264,
				"element": "H" 
			},
			{
				"x": 3.1634279341,
				"y": 0.2154778502,
				"z": -1.8246424944,
				"element": "H" 
			},
			{
				"x": 1.9457062521,
				"y": 1.3374986812,
				"z": -1.2136073553,
				"element": "H" 
			},
			{
				"x": 0.6952941392,
				"y": -2.0318154533,
				"z": 0.0125439964,
				"element": "H" 
			},
			{
				"x": 2.4160822828,
				"y": -1.6766758914,
				"z": -0.1669594239,
				"element": "H" 
			},
			{
				"x": 1.3457196515,
				"y": -0.4755269238,
				"z": 0.5468130558,
				"element": "H" 
			},
			{
				"x": 1.392679717,
				"y": -1.4802627468,
				"z": -3.6819015657,
				"element": "H" 
			},
			{
				"x": 0.9455275385,
				"y": -2.7059218601,
				"z": -2.4876104999,
				"element": "H" 
			},
			{
				"x": 2.6070959419,
				"y": -2.0921796609,
				"z": -2.5302735497,
				"element": "H" 
			},
			{
				"x": -2.1593165811,
				"y": -0.0959961962,
				"z": -1.472165299,
				"element": "H" 
			},
			{
				"x": 0.3050454184,
				"y": 1.8040911745,
				"z": 0.0891501412,
				"element": "H" 
			},
			{
				"x": 0.1940220372,
				"y": 2.5529115065,
				"z": 2.458253429,
				"element": "H" 
			},
			{
				"x": -3.0399594646,
				"y": -0.1859211532,
				"z": 3.1632456679,
				"element": "H" 
			},
			{
				"x": -2.8675792316,
				"y": -0.9935642134,
				"z": 0.8463374851,
				"element": "H" 
			},
			{
				"x": -2.4658422836,
				"y": 0.1052425361,
				"z": 5.4066338861,
				"element": "H" 
			},
			{
				"x": -2.1829536545,
				"y": 1.5878986813,
				"z": 6.3685741571,
				"element": "H" 
			}
		],
		 "valence_orbital": [ 
			{
				"type": "occ",
				"energy": -0.30321,
				"method": "rhf"
			},
			{
				"type": "occ",
				"energy": -0.27608,
				"method": "rhf"
			},
			{
				"type": "occ",
				"energy": -0.26548,
				"method": "rhf"
			},
			{
				"type": "occ",
				"energy": -0.25808,
				"method": "rhf"
			},
			{
				"type": "occ",
				"energy": -0.24348,
				"method": "rhf"
			},
			{
				"type": "unocc",
				"energy": -0.0786,
				"method": "rhf"
			},
			{
				"type": "unocc",
				"energy": -0.02643,
				"method": "rhf"
			},
			{
				"type": "unocc",
				"energy": -0.01315,
				"method": "rhf"
			},
			{
				"type": "unocc",
				"energy": 0.01264,
				"method": "rhf"
			},
			{
				"type": "unocc",
				"energy": 0.04713,
				"method": "rhf"
			}
		],
		"cosmo_sigma_profile": { 
			"-0.025": 0.0,
			"-0.024": 0.0,
			"-0.023": 0.0,
			"-0.022": 0.0,
			"-0.021": 0.0,
			"-0.02": 0.0,
			"-0.019": 0.0,
			"-0.018": 0.0,
			"-0.017": 0.0,
			"-0.016": 0.0,
			"-0.015": 0.0702221963834,
			"-0.014": 0.862257698789,
			"-0.013": 0.78099880084,
			"-0.012": 0.628742719781,
			"-0.011": 1.50295103207,
			"-0.01": 1.73093025868,
			"-0.009": 4.36989993664,
			"-0.008": 6.08626502732,
			"-0.007": 10.1277091817,
			"-0.006": 12.8756534005,
			"-0.005": 12.7048296115,
			"-0.004": 13.0765583702,
			"-0.003": 23.6947131296,
			"-0.002": 20.9498589727,
			"-0.001": 27.0138477844,
			"0.0": 34.9570170094,
			"0.001": 32.2674504114,
			"0.002": 19.7748768717,
			"0.003": 15.4118944937,
			"0.004": 12.3971071115,
			"0.005": 10.2554993565,
			"0.006": 5.20823199862,
			"0.007": 2.93695792888,
			"0.008": 3.30591580015,
			"0.009": 3.28243793547,
			"0.01": 4.04126081889,
			"0.011": 5.87132144204,
			"0.012": 3.79362833069,
			"0.013": 5.12939737405,
			"0.014": 0.821486568838,
			"0.015": 0.0,
			"0.016": 0.0,
			"0.017": 0.0,
			"0.018": 0.0,
			"0.019": 0.0,
			"0.02": 0.0,
			"0.021": 0.0,
			"0.022": 0.0,
			"0.023": 0.0,
			"0.024": 0.0,
			"0.025": 0.0
		}
	}
}
