{
	 "smiles": "CC1=NNC(=N1)C1=CC(C)=CC=C1", 
	 "Tm": 414.15, 
	 "num_atms": 24, 
	 "gaussian": { 
		 "optdone": 1, 
		 "sigma_profile": "yes", 
		 "theory": "DFT", 
		 "functional": "B3LYP", 
		 "basiset": "6-31G**", 
		 "properties": { 
			 "R2extent": 3994.4757, 
			 "electric_dipole_moment_norm": 2.577629859, 
			 "electric_quadrupole_moment_norm": 10.9167334551, 
			 "total_energy": -551.960824175, 
			 "HOMO_LUMO_gap": 0.18833, 
			 "cosmo_polarized_energy": -12.17, 
			 "cosmo_cavitation_energy": 28.0, 
			 "cosmo_dispersion_energy": -20.8, 
			 "cosmo_repulsion_energy": 1.65, 
			 "cosmo_total_nonelectrostatic_energy": 8.84, 
			 "SMD_solvation_energy": 2.29 
		},
		"coords": [
			{
				"x": 2.0568697621,
				"y": 3.674684955,
				"z": -0.4796559897,
				"element": "C" 
			},
			{
				"x": 1.6660815159,
				"y": 2.7198895378,
				"z": 0.6006518091,
				"element": "C" 
			},
			{
				"x": 2.3582942805,
				"y": 2.6012451191,
				"z": 1.7293430124,
				"element": "N" 
			},
			{
				"x": 1.6579259322,
				"y": 1.6458250442,
				"z": 2.394425822,
				"element": "N" 
			},
			{
				"x": 0.5919865544,
				"y": 1.2296264271,
				"z": 1.6629561228,
				"element": "C" 
			},
			{
				"x": 0.5774860545,
				"y": 1.9008405848,
				"z": 0.5157914873,
				"element": "N" 
			},
			{
				"x": -0.376478623,
				"y": 0.2097329635,
				"z": 2.0775644139,
				"element": "C" 
			},
			{
				"x": -1.4302660564,
				"y": -0.1078682,
				"z": 1.2053324884,
				"element": "C" 
			},
			{
				"x": -2.3853508821,
				"y": -1.0697833821,
				"z": 1.53892091,
				"element": "C" 
			},
			{
				"x": -3.525668966,
				"y": -1.3890017708,
				"z": 0.6004251147,
				"element": "C" 
			},
			{
				"x": -2.2714066936,
				"y": -1.7253131201,
				"z": 2.7747465576,
				"element": "C" 
			},
			{
				"x": -1.2303577796,
				"y": -1.4197241139,
				"z": 3.6499367255,
				"element": "C" 
			},
			{
				"x": -0.2831320715,
				"y": -0.4560191921,
				"z": 3.3081907177,
				"element": "C" 
			},
			{
				"x": 1.2515266926,
				"y": 4.3904833002,
				"z": -0.6729965443,
				"element": "H" 
			},
			{
				"x": 2.9559620358,
				"y": 4.22160936,
				"z": -0.1901412829,
				"element": "H" 
			},
			{
				"x": 2.2507251957,
				"y": 3.1412115401,
				"z": -1.4157004609,
				"element": "H" 
			},
			{
				"x": 1.9671864704,
				"y": 1.35085387,
				"z": 3.3071612333,
				"element": "H" 
			},
			{
				"x": -1.4836648785,
				"y": 0.4167253794,
				"z": 0.2568178376,
				"element": "H" 
			},
			{
				"x": -3.3563480475,
				"y": -0.9631626705,
				"z": -0.3919563117,
				"element": "H" 
			},
			{
				"x": -3.6591193803,
				"y": -2.4701527475,
				"z": 0.4876725628,
				"element": "H" 
			},
			{
				"x": -4.4729283606,
				"y": -0.9846559164,
				"z": 0.9774026963,
				"element": "H" 
			},
			{
				"x": -3.0029910086,
				"y": -2.4807510988,
				"z": 3.050783748,
				"element": "H" 
			},
			{
				"x": -1.1535781688,
				"y": -1.9359644815,
				"z": 4.6024519524,
				"element": "H" 
			},
			{
				"x": 0.5216464225,
				"y": -0.2349313873,
				"z": 4.0040753774,
				"element": "H" 
			}
		],
		 "valence_orbital": [ 
			{
				"type": "occ",
				"energy": -0.29614,
				"method": "rhf"
			},
			{
				"type": "occ",
				"energy": -0.2729,
				"method": "rhf"
			},
			{
				"type": "occ",
				"energy": -0.26723,
				"method": "rhf"
			},
			{
				"type": "occ",
				"energy": -0.25058,
				"method": "rhf"
			},
			{
				"type": "occ",
				"energy": -0.22655,
				"method": "rhf"
			},
			{
				"type": "unocc",
				"energy": -0.03822,
				"method": "rhf"
			},
			{
				"type": "unocc",
				"energy": -0.0053,
				"method": "rhf"
			},
			{
				"type": "unocc",
				"energy": 0.04293,
				"method": "rhf"
			},
			{
				"type": "unocc",
				"energy": 0.06171,
				"method": "rhf"
			},
			{
				"type": "unocc",
				"energy": 0.07096,
				"method": "rhf"
			}
		],
		"cosmo_sigma_profile": { 
			"-0.025": 0.0,
			"-0.024": 0.0,
			"-0.023": 0.0,
			"-0.022": 0.0,
			"-0.021": 0.0,
			"-0.02": 0.0,
			"-0.019": 0.0,
			"-0.018": 0.0237673647542,
			"-0.017": 0.928326187479,
			"-0.016": 1.34589862228,
			"-0.015": 1.60921115261,
			"-0.014": 1.18022911516,
			"-0.013": 0.619412545252,
			"-0.012": 1.50591040786,
			"-0.011": 1.47972346197,
			"-0.01": 1.09090358988,
			"-0.009": 1.06359207145,
			"-0.008": 1.07088999387,
			"-0.007": 1.79895356573,
			"-0.006": 4.90544591951,
			"-0.005": 12.172503155,
			"-0.004": 19.3256197157,
			"-0.003": 17.3641919055,
			"-0.002": 18.6991387307,
			"-0.001": 21.6097342395,
			"0.0": 21.796679298,
			"0.001": 16.0313290449,
			"0.002": 14.1990652775,
			"0.003": 13.7669912071,
			"0.004": 14.0506103858,
			"0.005": 11.1291014883,
			"0.006": 4.26429791607,
			"0.007": 2.92960204382,
			"0.008": 2.2533478797,
			"0.009": 2.52109916115,
			"0.01": 1.66199351373,
			"0.011": 2.66262716843,
			"0.012": 2.53168685864,
			"0.013": 1.71158301184,
			"0.014": 1.74730202537,
			"0.015": 1.84877409264,
			"0.016": 0.166298501805,
			"0.017": 0.0,
			"0.018": 0.0,
			"0.019": 0.0,
			"0.02": 0.0,
			"0.021": 0.0,
			"0.022": 0.0,
			"0.023": 0.0,
			"0.024": 0.0,
			"0.025": 0.0
		}
	}
}
