{
	 "smiles": "OCC1=C(C=C(C=C1)C(F)(F)F)[N+]([O-])=O", 
	 "Tm": 337.15, 
	 "num_atms": 21, 
	 "gaussian": { 
		 "optdone": 1, 
		 "sigma_profile": "yes", 
		 "theory": "DFT", 
		 "functional": "B3LYP", 
		 "basiset": "6-31G**", 
		 "properties": { 
			 "R2extent": 3734.4978, 
			 "electric_dipole_moment_norm": 4.75086659569, 
			 "electric_quadrupole_moment_norm": 12.5816570002, 
			 "total_energy": -888.297654113, 
			 "HOMO_LUMO_gap": 0.188, 
			 "cosmo_polarized_energy": -13.63, 
			 "cosmo_cavitation_energy": 27.69, 
			 "cosmo_dispersion_energy": -19.4, 
			 "cosmo_repulsion_energy": 1.46, 
			 "cosmo_total_nonelectrostatic_energy": 9.75, 
			 "SMD_solvation_energy": 8.21 
		},
		"coords": [
			{
				"x": 0.4481625553,
				"y": 3.3565558764,
				"z": -1.2000224747,
				"element": "O" 
			},
			{
				"x": 0.3118641015,
				"y": 2.7361554033,
				"z": 0.0695625483,
				"element": "C" 
			},
			{
				"x": -0.2474342533,
				"y": 1.3271016871,
				"z": -0.0372168773,
				"element": "C" 
			},
			{
				"x": 0.3321601915,
				"y": 0.3197997765,
				"z": -0.8275422158,
				"element": "C" 
			},
			{
				"x": -0.2531011498,
				"y": -0.9309033567,
				"z": -0.9941143827,
				"element": "C" 
			},
			{
				"x": -1.4445008388,
				"y": -1.2199628805,
				"z": -0.3306433875,
				"element": "C" 
			},
			{
				"x": -2.0460888697,
				"y": -0.24833056,
				"z": 0.4698313832,
				"element": "C" 
			},
			{
				"x": -1.4551891265,
				"y": 1.0081776445,
				"z": 0.5944255021,
				"element": "C" 
			},
			{
				"x": -2.0510960629,
				"y": -2.5953706635,
				"z": -0.4405621608,
				"element": "C" 
			},
			{
				"x": -3.3960706194,
				"y": -2.5525030417,
				"z": -0.3279275024,
				"element": "F" 
			},
			{
				"x": -1.7535567253,
				"y": -3.1794047447,
				"z": -1.6189986037,
				"element": "F" 
			},
			{
				"x": -1.5973308458,
				"y": -3.4120221196,
				"z": 0.5357950427,
				"element": "F" 
			},
			{
				"x": 1.6255056879,
				"y": 0.523738062,
				"z": -1.5131580407,
				"element": "N" 
			},
			{
				"x": 2.4768498765,
				"y": 1.1973280947,
				"z": -0.940959427,
				"element": "O" 
			},
			{
				"x": 1.7753314822,
				"y": -0.0363525623,
				"z": -2.5967474825,
				"element": "O" 
			},
			{
				"x": -0.4351956063,
				"y": 3.4598326224,
				"z": -1.5783731136,
				"element": "H" 
			},
			{
				"x": 1.3136045832,
				"y": 2.7146786277,
				"z": 0.4993923499,
				"element": "H" 
			},
			{
				"x": -0.3373603849,
				"y": 3.3169362081,
				"z": 0.7407170758,
				"element": "H" 
			},
			{
				"x": 0.2229141262,
				"y": -1.6586671643,
				"z": -1.6391148723,
				"element": "H" 
			},
			{
				"x": -2.9809802881,
				"y": -0.4661147138,
				"z": 0.9745237886,
				"element": "H" 
			},
			{
				"x": -1.9453878333,
				"y": 1.7696278044,
				"z": 1.1945328503,
				"element": "H" 
			}
		],
		 "valence_orbital": [ 
			{
				"type": "occ",
				"energy": -0.3145,
				"method": "rhf"
			},
			{
				"type": "occ",
				"energy": -0.3091,
				"method": "rhf"
			},
			{
				"type": "occ",
				"energy": -0.301,
				"method": "rhf"
			},
			{
				"type": "occ",
				"energy": -0.28911,
				"method": "rhf"
			},
			{
				"type": "occ",
				"energy": -0.28264,
				"method": "rhf"
			},
			{
				"type": "unocc",
				"energy": -0.09464,
				"method": "rhf"
			},
			{
				"type": "unocc",
				"energy": -0.05303,
				"method": "rhf"
			},
			{
				"type": "unocc",
				"energy": -0.02658,
				"method": "rhf"
			},
			{
				"type": "unocc",
				"energy": 0.06731,
				"method": "rhf"
			},
			{
				"type": "unocc",
				"energy": 0.07461,
				"method": "rhf"
			}
		],
		"cosmo_sigma_profile": { 
			"-0.025": 0.0,
			"-0.024": 0.0,
			"-0.023": 0.0,
			"-0.022": 0.0,
			"-0.021": 0.0,
			"-0.02": 0.0,
			"-0.019": 0.0,
			"-0.018": 0.0,
			"-0.017": 0.143330997889,
			"-0.016": 0.752559405951,
			"-0.015": 1.02189854434,
			"-0.014": 1.11522848932,
			"-0.013": 0.855921465507,
			"-0.012": 0.931112255051,
			"-0.011": 1.24000009347,
			"-0.01": 0.988881863907,
			"-0.009": 1.01639003506,
			"-0.008": 7.11176085898,
			"-0.007": 10.5647914695,
			"-0.006": 8.93800733558,
			"-0.005": 10.2293883126,
			"-0.004": 9.96958488125,
			"-0.003": 12.2100832879,
			"-0.002": 13.3197739136,
			"-0.001": 18.5987232516,
			"0.0": 17.9346240167,
			"0.001": 14.8105312655,
			"0.002": 26.2529512743,
			"0.003": 20.355591342,
			"0.004": 3.73857096853,
			"0.005": 4.22099474541,
			"0.006": 5.34285382699,
			"0.007": 10.315142456,
			"0.008": 7.38570717906,
			"0.009": 4.74260480376,
			"0.01": 2.30743361073,
			"0.011": 1.52538349262,
			"0.012": 1.48463974668,
			"0.013": 1.44406826478,
			"0.014": 0.582632733533,
			"0.015": 0.0,
			"0.016": 0.0,
			"0.017": 0.0,
			"0.018": 0.0,
			"0.019": 0.0,
			"0.02": 0.0,
			"0.021": 0.0,
			"0.022": 0.0,
			"0.023": 0.0,
			"0.024": 0.0,
			"0.025": 0.0
		}
	}
}
