{
	 "smiles": "CN1C(=NC2=C1C=CC=C2)C(=CC1=C(C)C=CC=C1)C#N", 
	 "Tm": 542.15, 
	 "num_atms": 36, 
	 "gaussian": { 
		 "optdone": 1, 
		 "sigma_profile": "yes", 
		 "theory": "DFT", 
		 "functional": "B3LYP", 
		 "basiset": "6-31G**", 
		 "properties": { 
			 "R2extent": 8142.9927, 
			 "electric_dipole_moment_norm": 2.06304443966, 
			 "electric_quadrupole_moment_norm": 20.1179316944, 
			 "total_energy": -859.20142611, 
			 "HOMO_LUMO_gap": 0.12873, 
			 "cosmo_polarized_energy": -12.77, 
			 "cosmo_cavitation_energy": 40.32, 
			 "cosmo_dispersion_energy": -28.33, 
			 "cosmo_repulsion_energy": 2.12, 
			 "cosmo_total_nonelectrostatic_energy": 14.1, 
			 "SMD_solvation_energy": 5.77 
		},
		"coords": [
			{
				"x": -2.0776677919,
				"y": -1.386577242,
				"z": -2.8394685864,
				"element": "C" 
			},
			{
				"x": -1.2879133637,
				"y": -1.61301608,
				"z": -1.6353191167,
				"element": "N" 
			},
			{
				"x": -0.5732074175,
				"y": -0.7042907273,
				"z": -0.8653326285,
				"element": "C" 
			},
			{
				"x": 0.1206783664,
				"y": -1.2793479547,
				"z": 0.0988351753,
				"element": "N" 
			},
			{
				"x": -0.1345919323,
				"y": -2.6285343699,
				"z": -0.0197836773,
				"element": "C" 
			},
			{
				"x": -1.0233900988,
				"y": -2.863015895,
				"z": -1.0961768076,
				"element": "C" 
			},
			{
				"x": -1.4592594714,
				"y": -4.1461699038,
				"z": -1.4389803358,
				"element": "C" 
			},
			{
				"x": -0.9732664765,
				"y": -5.2000910899,
				"z": -0.6698074841,
				"element": "C" 
			},
			{
				"x": -0.0870315654,
				"y": -4.9829546266,
				"z": 0.4063105071,
				"element": "C" 
			},
			{
				"x": 0.3400648797,
				"y": -3.7045001581,
				"z": 0.7444126684,
				"element": "C" 
			},
			{
				"x": -0.5636012296,
				"y": 0.7576621866,
				"z": -1.07572681,
				"element": "C" 
			},
			{
				"x": 0.4911991929,
				"y": 1.4763588721,
				"z": -0.5887988947,
				"element": "C" 
			},
			{
				"x": 0.769812928,
				"y": 2.9064072307,
				"z": -0.5840693798,
				"element": "C" 
			},
			{
				"x": 1.7735140426,
				"y": 3.3961379152,
				"z": 0.3009572458,
				"element": "C" 
			},
			{
				"x": 2.528466328,
				"y": 2.4874347688,
				"z": 1.2454638221,
				"element": "C" 
			},
			{
				"x": 2.0553248352,
				"y": 4.7649807654,
				"z": 0.3046423207,
				"element": "C" 
			},
			{
				"x": 1.3908508471,
				"y": 5.652508213,
				"z": -0.5419196574,
				"element": "C" 
			},
			{
				"x": 0.4177224717,
				"y": 5.1735368904,
				"z": -1.4196281546,
				"element": "C" 
			},
			{
				"x": 0.1126177614,
				"y": 3.8176417384,
				"z": -1.4379352851,
				"element": "C" 
			},
			{
				"x": -1.7145673911,
				"y": 1.3580856163,
				"z": -1.6769990188,
				"element": "C" 
			},
			{
				"x": -2.6720144331,
				"y": 1.8159978453,
				"z": -2.1579626071,
				"element": "N" 
			},
			{
				"x": -1.6426605747,
				"y": -0.5841402849,
				"z": -3.4350858735,
				"element": "H" 
			},
			{
				"x": -2.0637859274,
				"y": -2.3007052254,
				"z": -3.4360335784,
				"element": "H" 
			},
			{
				"x": -3.1130193279,
				"y": -1.1246375496,
				"z": -2.6042756866,
				"element": "H" 
			},
			{
				"x": -2.1498400277,
				"y": -4.3237357348,
				"z": -2.2574476427,
				"element": "H" 
			},
			{
				"x": -1.2884442242,
				"y": -6.2132109895,
				"z": -0.9011387366,
				"element": "H" 
			},
			{
				"x": 0.2640110199,
				"y": -5.8352752903,
				"z": 0.9803978799,
				"element": "H" 
			},
			{
				"x": 1.0200047192,
				"y": -3.5284148011,
				"z": 1.5716201022,
				"element": "H" 
			},
			{
				"x": 1.2266071935,
				"y": 0.8478180531,
				"z": -0.0974117812,
				"element": "H" 
			},
			{
				"x": 1.8573482766,
				"y": 1.9384990564,
				"z": 1.9141716007,
				"element": "H" 
			},
			{
				"x": 3.1256442163,
				"y": 1.741896419,
				"z": 0.7070959505,
				"element": "H" 
			},
			{
				"x": 3.2150349872,
				"y": 3.0685764867,
				"z": 1.8658016189,
				"element": "H" 
			},
			{
				"x": 2.8131488659,
				"y": 5.1417941783,
				"z": 0.9862875172,
				"element": "H" 
			},
			{
				"x": 1.6354708171,
				"y": 6.7105334762,
				"z": -0.5173528259,
				"element": "H" 
			},
			{
				"x": -0.1007072935,
				"y": 5.8515805309,
				"z": -2.0906021825,
				"element": "H" 
			},
			{
				"x": -0.634953202,
				"y": 3.45936768,
				"z": -2.1340396574,
				"element": "H" 
			}
		],
		 "valence_orbital": [ 
			{
				"type": "occ",
				"energy": -0.27461,
				"method": "rhf"
			},
			{
				"type": "occ",
				"energy": -0.25614,
				"method": "rhf"
			},
			{
				"type": "occ",
				"energy": -0.25117,
				"method": "rhf"
			},
			{
				"type": "occ",
				"energy": -0.22598,
				"method": "rhf"
			},
			{
				"type": "occ",
				"energy": -0.2117,
				"method": "rhf"
			},
			{
				"type": "unocc",
				"energy": -0.08297,
				"method": "rhf"
			},
			{
				"type": "unocc",
				"energy": -0.01194,
				"method": "rhf"
			},
			{
				"type": "unocc",
				"energy": -0.00692,
				"method": "rhf"
			},
			{
				"type": "unocc",
				"energy": 0.01774,
				"method": "rhf"
			},
			{
				"type": "unocc",
				"energy": 0.01965,
				"method": "rhf"
			}
		],
		"cosmo_sigma_profile": { 
			"-0.025": 0.0,
			"-0.024": 0.0,
			"-0.023": 0.0,
			"-0.022": 0.0,
			"-0.021": 0.0,
			"-0.02": 0.0,
			"-0.019": 0.0,
			"-0.018": 0.0,
			"-0.017": 0.0,
			"-0.016": 0.0,
			"-0.015": 0.0,
			"-0.014": 0.0,
			"-0.013": 0.0,
			"-0.012": 0.0,
			"-0.011": 0.0,
			"-0.01": 0.0,
			"-0.009": 0.0,
			"-0.008": 1.2392175619,
			"-0.007": 6.9948794342,
			"-0.006": 17.3197765173,
			"-0.005": 27.1860386552,
			"-0.004": 33.5843008821,
			"-0.003": 30.6942332442,
			"-0.002": 23.0377497308,
			"-0.001": 25.8223410878,
			"0.0": 26.1734582684,
			"0.001": 19.6678486486,
			"0.002": 18.1782467079,
			"0.003": 20.6854618153,
			"0.004": 24.6390056128,
			"0.005": 15.636156352,
			"0.006": 8.48905196948,
			"0.007": 4.30803922884,
			"0.008": 3.9867865718,
			"0.009": 2.8747905515,
			"0.01": 4.34673794454,
			"0.011": 3.46456415532,
			"0.012": 2.62019103329,
			"0.013": 2.05409958587,
			"0.014": 0.662399257474,
			"0.015": 0.600416966277,
			"0.016": 0.0,
			"0.017": 0.0,
			"0.018": 0.0,
			"0.019": 0.0,
			"0.02": 0.0,
			"0.021": 0.0,
			"0.022": 0.0,
			"0.023": 0.0,
			"0.024": 0.0,
			"0.025": 0.0
		}
	}
}
