{
	 "smiles": "CC1=NN=C(O1)C1=CC=CC(=C1)S(Cl)(=O)=O", 
	 "Tm": 330.65, 
	 "num_atms": 23, 
	 "gaussian": { 
		 "optdone": 1, 
		 "sigma_profile": "yes", 
		 "theory": "DFT", 
		 "functional": "B3LYP", 
		 "basiset": "6-31G**", 
		 "properties": { 
			 "R2extent": 5857.7146, 
			 "electric_dipole_moment_norm": 2.34743664025, 
			 "electric_quadrupole_moment_norm": 30.1280221442, 
			 "total_energy": -1540.64222789, 
			 "HOMO_LUMO_gap": 0.16795, 
			 "cosmo_polarized_energy": -14.72, 
			 "cosmo_cavitation_energy": 32.27, 
			 "cosmo_dispersion_energy": -23.95, 
			 "cosmo_repulsion_energy": 1.83, 
			 "cosmo_total_nonelectrostatic_energy": 10.15, 
			 "SMD_solvation_energy": 2.86 
		},
		"coords": [
			{
				"x": -3.0447999731,
				"y": 3.8390326346,
				"z": -1.5357141607,
				"element": "C" 
			},
			{
				"x": -2.0111260585,
				"y": 3.2471996401,
				"z": -0.6515940073,
				"element": "C" 
			},
			{
				"x": -1.5171889973,
				"y": 3.7159491543,
				"z": 0.4526027766,
				"element": "N" 
			},
			{
				"x": -0.5797691591,
				"y": 2.7859440445,
				"z": 0.8960083696,
				"element": "N" 
			},
			{
				"x": -0.5762830708,
				"y": 1.8218362507,
				"z": 0.0253046828,
				"element": "C" 
			},
			{
				"x": -1.4614474069,
				"y": 2.0420084218,
				"z": -0.9905368465,
				"element": "O" 
			},
			{
				"x": 0.2289304385,
				"y": 0.6053464844,
				"z": 0.0287298011,
				"element": "C" 
			},
			{
				"x": 1.1368218568,
				"y": 0.3846740286,
				"z": 1.0792329428,
				"element": "C" 
			},
			{
				"x": 1.9241868325,
				"y": -0.7632471453,
				"z": 1.1026650279,
				"element": "C" 
			},
			{
				"x": 1.8202308559,
				"y": -1.7139384556,
				"z": 0.0852896291,
				"element": "C" 
			},
			{
				"x": 0.9111170118,
				"y": -1.4766633044,
				"z": -0.9455233347,
				"element": "C" 
			},
			{
				"x": 0.1123526494,
				"y": -0.3372622206,
				"z": -1.0003358013,
				"element": "C" 
			},
			{
				"x": 0.7770944401,
				"y": -2.6735462425,
				"z": -2.2691900235,
				"element": "S" 
			},
			{
				"x": -0.736090537,
				"y": -3.9677638088,
				"z": -1.5053815663,
				"element": "Cl" 
			},
			{
				"x": 0.2058979955,
				"y": -2.0299215515,
				"z": -3.4453108582,
				"element": "O" 
			},
			{
				"x": 1.9991793203,
				"y": -3.4650516517,
				"z": -2.326526714,
				"element": "O" 
			},
			{
				"x": -2.6467174832,
				"y": 4.0120031459,
				"z": -2.5406313861,
				"element": "H" 
			},
			{
				"x": -3.3677462628,
				"y": 4.7893034732,
				"z": -1.1096370025,
				"element": "H" 
			},
			{
				"x": -3.908747126,
				"y": 3.1730985018,
				"z": -1.6267919278,
				"element": "H" 
			},
			{
				"x": 1.212076838,
				"y": 1.1270877303,
				"z": 1.8664335365,
				"element": "H" 
			},
			{
				"x": 2.626242431,
				"y": -0.9200481213,
				"z": 1.9150322439,
				"element": "H" 
			},
			{
				"x": 2.4307104852,
				"y": -2.6096946951,
				"z": 0.0814579831,
				"element": "H" 
			},
			{
				"x": -0.5735250804,
				"y": -0.1840463137,
				"z": -1.8249833643,
				"element": "H" 
			}
		],
		 "valence_orbital": [ 
			{
				"type": "occ",
				"energy": -0.32482,
				"method": "rhf"
			},
			{
				"type": "occ",
				"energy": -0.31854,
				"method": "rhf"
			},
			{
				"type": "occ",
				"energy": -0.299,
				"method": "rhf"
			},
			{
				"type": "occ",
				"energy": -0.29082,
				"method": "rhf"
			},
			{
				"type": "occ",
				"energy": -0.26452,
				"method": "rhf"
			},
			{
				"type": "unocc",
				"energy": -0.09657,
				"method": "rhf"
			},
			{
				"type": "unocc",
				"energy": -0.07578,
				"method": "rhf"
			},
			{
				"type": "unocc",
				"energy": -0.05068,
				"method": "rhf"
			},
			{
				"type": "unocc",
				"energy": -0.00275,
				"method": "rhf"
			},
			{
				"type": "unocc",
				"energy": 0.02557,
				"method": "rhf"
			}
		],
		"cosmo_sigma_profile": { 
			"-0.025": 0.0,
			"-0.024": 0.0,
			"-0.023": 0.0,
			"-0.022": 0.0,
			"-0.021": 0.0,
			"-0.02": 0.0,
			"-0.019": 0.0,
			"-0.018": 0.0,
			"-0.017": 0.0,
			"-0.016": 0.0,
			"-0.015": 0.0,
			"-0.014": 0.0,
			"-0.013": 0.0,
			"-0.012": 0.0,
			"-0.011": 0.0,
			"-0.01": 0.00892850848289,
			"-0.009": 1.44201041431,
			"-0.008": 6.53539094127,
			"-0.007": 13.8933214232,
			"-0.006": 14.7316615792,
			"-0.005": 15.787977298,
			"-0.004": 20.0034762082,
			"-0.003": 22.5349317524,
			"-0.002": 21.3585378392,
			"-0.001": 24.8726510606,
			"0.0": 19.8306857031,
			"0.001": 13.236803359,
			"0.002": 14.0272564267,
			"0.003": 17.3671533981,
			"0.004": 8.12055771686,
			"0.005": 4.76256445315,
			"0.006": 5.99026999981,
			"0.007": 8.65836358136,
			"0.008": 11.112950095,
			"0.009": 4.92795179314,
			"0.01": 2.76464866611,
			"0.011": 3.70775125632,
			"0.012": 2.31783997705,
			"0.013": 2.56441408546,
			"0.014": 1.66967837392,
			"0.015": 0.642291095248,
			"0.016": 0.0481023676568,
			"0.017": 0.0,
			"0.018": 0.0,
			"0.019": 0.0,
			"0.02": 0.0,
			"0.021": 0.0,
			"0.022": 0.0,
			"0.023": 0.0,
			"0.024": 0.0,
			"0.025": 0.0
		}
	}
}
