{
	 "smiles": "OC[C@H]1O[C@](O)(CO)[C@@H](O)[C@@H]1O[C@@H]1O[C@H](CO)[C@H](O)[C@H](O)[C@H]1O", 
	 "Tm": 448.65, 
	 "num_atms": 45, 
	 "gaussian": { 
		 "optdone": 1, 
		 "sigma_profile": "yes", 
		 "theory": "DFT", 
		 "functional": "B3LYP", 
		 "basiset": "6-31G**", 
		 "properties": { 
			 "R2extent": 8653.6459, 
			 "electric_dipole_moment_norm": 4.82755947245, 
			 "electric_quadrupole_moment_norm": 29.2308229335, 
			 "total_energy": -1297.90568441, 
			 "HOMO_LUMO_gap": 0.28523, 
			 "cosmo_polarized_energy": -33.69, 
			 "cosmo_cavitation_energy": 44.01, 
			 "cosmo_dispersion_energy": -30.61, 
			 "cosmo_repulsion_energy": 2.37, 
			 "cosmo_total_nonelectrostatic_energy": 15.78, 
			 "SMD_solvation_energy": 6.68 
		},
		"coords": [
			{
				"x": 0.5833998599,
				"y": -3.9314185706,
				"z": 2.9446830703,
				"element": "O" 
			},
			{
				"x": 0.5197526658,
				"y": -2.5138438716,
				"z": 2.9194061803,
				"element": "C" 
			},
			{
				"x": 0.3920137751,
				"y": -2.0835389931,
				"z": 1.461178462,
				"element": "C" 
			},
			{
				"x": -0.8731161761,
				"y": -2.4782893311,
				"z": 0.900248299,
				"element": "O" 
			},
			{
				"x": -1.7631194291,
				"y": -1.3898789894,
				"z": 0.8038472288,
				"element": "C" 
			},
			{
				"x": -2.9080795701,
				"y": -1.6436629003,
				"z": 1.6023582105,
				"element": "O" 
			},
			{
				"x": -2.1893888791,
				"y": -1.266974079,
				"z": -0.6609276929,
				"element": "C" 
			},
			{
				"x": -3.3484052539,
				"y": -0.4292275717,
				"z": -0.6860319984,
				"element": "O" 
			},
			{
				"x": -1.0040748724,
				"y": -0.141292993,
				"z": 1.3552602266,
				"element": "C" 
			},
			{
				"x": -1.3302019137,
				"y": 0.0810329783,
				"z": 2.7097864418,
				"element": "O" 
			},
			{
				"x": 0.468308034,
				"y": -0.5663342934,
				"z": 1.2550294745,
				"element": "C" 
			},
			{
				"x": 0.9742112432,
				"y": -0.3388102401,
				"z": -0.0739559607,
				"element": "O" 
			},
			{
				"x": 1.410725984,
				"y": 0.9951951936,
				"z": -0.3517489213,
				"element": "C" 
			},
			{
				"x": 1.0934039803,
				"y": 1.302892297,
				"z": -1.6863509174,
				"element": "O" 
			},
			{
				"x": 2.0777327572,
				"y": 1.0759736586,
				"z": -2.7149825819,
				"element": "C" 
			},
			{
				"x": 2.2169398003,
				"y": -0.4150993884,
				"z": -3.0716071348,
				"element": "C" 
			},
			{
				"x": 2.6974063213,
				"y": -1.2544344656,
				"z": -2.0494373074,
				"element": "O" 
			},
			{
				"x": 3.41164608,
				"y": 1.8376899262,
				"z": -2.405294575,
				"element": "C" 
			},
			{
				"x": 4.5832574811,
				"y": 1.0388926884,
				"z": -2.5958912226,
				"element": "O" 
			},
			{
				"x": 3.4503975961,
				"y": 2.2955569184,
				"z": -0.9357050338,
				"element": "C" 
			},
			{
				"x": 4.7636858425,
				"y": 2.6490059553,
				"z": -0.5339504889,
				"element": "O" 
			},
			{
				"x": 2.8997425778,
				"y": 1.1839782554,
				"z": -0.0402644795,
				"element": "C" 
			},
			{
				"x": 3.0222701022,
				"y": 1.5279868079,
				"z": 1.3292353065,
				"element": "O" 
			},
			{
				"x": 0.3461073246,
				"y": -4.226761797,
				"z": 3.8309873614,
				"element": "H" 
			},
			{
				"x": 1.4374273228,
				"y": -2.0648190259,
				"z": 3.3356079789,
				"element": "H" 
			},
			{
				"x": -0.3314662643,
				"y": -2.1194758352,
				"z": 3.4866216021,
				"element": "H" 
			},
			{
				"x": 1.170462004,
				"y": -2.593842085,
				"z": 0.8845540971,
				"element": "H" 
			},
			{
				"x": -3.6562248086,
				"y": -1.2725551562,
				"z": 1.1024036875,
				"element": "H" 
			},
			{
				"x": -2.4110996449,
				"y": -2.2770159034,
				"z": -1.029170955,
				"element": "H" 
			},
			{
				"x": -1.3627452243,
				"y": -0.8419801536,
				"z": -1.2419689803,
				"element": "H" 
			},
			{
				"x": -3.7419449342,
				"y": -0.4659121441,
				"z": -1.5655869201,
				"element": "H" 
			},
			{
				"x": -1.2209076915,
				"y": 0.7464983179,
				"z": 0.7454196475,
				"element": "H" 
			},
			{
				"x": -2.176433979,
				"y": -0.3864981263,
				"z": 2.8367798637,
				"element": "H" 
			},
			{
				"x": 1.0937125406,
				"y": -0.0573989016,
				"z": 1.9934400383,
				"element": "H" 
			},
			{
				"x": 0.8357780554,
				"y": 1.6950535748,
				"z": 0.265438246,
				"element": "H" 
			},
			{
				"x": 1.615827029,
				"y": 1.5480173824,
				"z": -3.5902245669,
				"element": "H" 
			},
			{
				"x": 1.2289442094,
				"y": -0.7429403768,
				"z": -3.4321444389,
				"element": "H" 
			},
			{
				"x": 2.9131827884,
				"y": -0.5047364129,
				"z": -3.9132768592,
				"element": "H" 
			},
			{
				"x": 2.0234568276,
				"y": -1.2790547823,
				"z": -1.348296296,
				"element": "H" 
			},
			{
				"x": 3.4741607356,
				"y": 2.7256950868,
				"z": -3.0472738749,
				"element": "H" 
			},
			{
				"x": 4.8461689584,
				"y": 1.0743227886,
				"z": -3.5222148466,
				"element": "H" 
			},
			{
				"x": 2.8288324262,
				"y": 3.1894229683,
				"z": -0.8149592659,
				"element": "H" 
			},
			{
				"x": 5.3440674284,
				"y": 2.0328087879,
				"z": -1.0128509845,
				"element": "H" 
			},
			{
				"x": 3.4331652182,
				"y": 0.251040827,
				"z": -0.2680924669,
				"element": "H" 
			},
			{
				"x": 3.9122216718,
				"y": 1.904031975,
				"z": 1.4178233471,
				"element": "H" 
			}
		],
		 "valence_orbital": [ 
			{
				"type": "occ",
				"energy": -0.26494,
				"method": "rhf"
			},
			{
				"type": "occ",
				"energy": -0.26239,
				"method": "rhf"
			},
			{
				"type": "occ",
				"energy": -0.25576,
				"method": "rhf"
			},
			{
				"type": "occ",
				"energy": -0.25044,
				"method": "rhf"
			},
			{
				"type": "occ",
				"energy": -0.24782,
				"method": "rhf"
			},
			{
				"type": "unocc",
				"energy": 0.03741,
				"method": "rhf"
			},
			{
				"type": "unocc",
				"energy": 0.05278,
				"method": "rhf"
			},
			{
				"type": "unocc",
				"energy": 0.0689,
				"method": "rhf"
			},
			{
				"type": "unocc",
				"energy": 0.08409,
				"method": "rhf"
			},
			{
				"type": "unocc",
				"energy": 0.08825,
				"method": "rhf"
			}
		],
		"cosmo_sigma_profile": { 
			"-0.025": 0.0,
			"-0.024": 0.0,
			"-0.023": 0.0,
			"-0.022": 0.0,
			"-0.021": 0.0,
			"-0.02": 0.0,
			"-0.019": 0.0,
			"-0.018": 0.0,
			"-0.017": 1.64265359783,
			"-0.016": 2.58687319433,
			"-0.015": 3.3638824259,
			"-0.014": 3.65193624327,
			"-0.013": 2.36615125065,
			"-0.012": 3.57089713762,
			"-0.011": 4.28107744902,
			"-0.01": 4.69343807857,
			"-0.009": 4.79515255201,
			"-0.008": 7.23518094511,
			"-0.007": 10.4664113656,
			"-0.006": 20.8334881545,
			"-0.005": 25.6035041141,
			"-0.004": 26.2911118433,
			"-0.003": 22.5346860062,
			"-0.002": 22.0500535022,
			"-0.001": 18.5637666682,
			"0.0": 15.0795499232,
			"0.001": 14.4604649403,
			"0.002": 12.0540248022,
			"0.003": 10.1032857213,
			"0.004": 11.7834086161,
			"0.005": 9.93594855337,
			"0.006": 9.46124282787,
			"0.007": 6.50745689454,
			"0.008": 9.223391515,
			"0.009": 9.88877152813,
			"0.01": 9.67395716116,
			"0.011": 8.48200418419,
			"0.012": 8.24081080816,
			"0.013": 9.74914724155,
			"0.014": 7.36518012432,
			"0.015": 2.22620850909,
			"0.016": 0.701834657278,
			"0.017": 0.0182161288928,
			"0.018": 0.0,
			"0.019": 0.0,
			"0.02": 0.0,
			"0.021": 0.0,
			"0.022": 0.0,
			"0.023": 0.0,
			"0.024": 0.0,
			"0.025": 0.0
		}
	}
}
