{
	 "smiles": "CCOC(=O)C(O)C1=CC=C(O)C=C1", 
	 "Tm": 403.15, 
	 "num_atms": 26, 
	 "gaussian": { 
		 "optdone": 1, 
		 "sigma_profile": "yes", 
		 "theory": "DFT", 
		 "functional": "B3LYP", 
		 "basiset": "6-31G**", 
		 "properties": { 
			 "R2extent": 3736.4866, 
			 "electric_dipole_moment_norm": 2.68563778831, 
			 "electric_quadrupole_moment_norm": 15.8692609894, 
			 "total_energy": -689.192474832, 
			 "HOMO_LUMO_gap": 0.21339, 
			 "cosmo_polarized_energy": -13.9, 
			 "cosmo_cavitation_energy": 30.09, 
			 "cosmo_dispersion_energy": -21.32, 
			 "cosmo_repulsion_energy": 1.72, 
			 "cosmo_total_nonelectrostatic_energy": 10.48, 
			 "SMD_solvation_energy": 6.43 
		},
		"coords": [
			{
				"x": 3.4307842796,
				"y": 2.2341927675,
				"z": -1.324654942,
				"element": "C" 
			},
			{
				"x": 4.1984109716,
				"y": 0.9266769694,
				"z": -1.2144131869,
				"element": "C" 
			},
			{
				"x": 3.4478892326,
				"y": -0.0560610208,
				"z": -0.4536499943,
				"element": "O" 
			},
			{
				"x": 2.5578261028,
				"y": -0.8086013089,
				"z": -1.1356137479,
				"element": "C" 
			},
			{
				"x": 2.3577911474,
				"y": -0.7252922495,
				"z": -2.3279748469,
				"element": "O" 
			},
			{
				"x": 1.8011629229,
				"y": -1.7491838297,
				"z": -0.190797633,
				"element": "C" 
			},
			{
				"x": 2.5741907063,
				"y": -2.1084491907,
				"z": 0.9355392629,
				"element": "O" 
			},
			{
				"x": 0.4487434631,
				"y": -1.1217690641,
				"z": 0.1755058379,
				"element": "C" 
			},
			{
				"x": -0.4237134173,
				"y": -0.6550346848,
				"z": -0.8150741207,
				"element": "C" 
			},
			{
				"x": -1.6594661077,
				"y": -0.1078885372,
				"z": -0.4748518867,
				"element": "C" 
			},
			{
				"x": -2.0415359632,
				"y": -0.0210942506,
				"z": 0.868766377,
				"element": "C" 
			},
			{
				"x": -3.2387243933,
				"y": 0.5068823733,
				"z": 1.2639321294,
				"element": "O" 
			},
			{
				"x": -1.1796103076,
				"y": -0.4897726412,
				"z": 1.86474506,
				"element": "C" 
			},
			{
				"x": 0.0525617418,
				"y": -1.0364832646,
				"z": 1.5143350259,
				"element": "C" 
			},
			{
				"x": 3.178589336,
				"y": 2.6249417626,
				"z": -0.3346582912,
				"element": "H" 
			},
			{
				"x": 4.0433509864,
				"y": 2.9791248105,
				"z": -1.8432078677,
				"element": "H" 
			},
			{
				"x": 2.509113549,
				"y": 2.0917838101,
				"z": -1.8940109923,
				"element": "H" 
			},
			{
				"x": 4.414977026,
				"y": 0.507633075,
				"z": -2.1994420049,
				"element": "H" 
			},
			{
				"x": 5.1297026436,
				"y": 1.0487314843,
				"z": -0.656849687,
				"element": "H" 
			},
			{
				"x": 1.6296297598,
				"y": -2.6710268079,
				"z": -0.7577222819,
				"element": "H" 
			},
			{
				"x": 3.0273778283,
				"y": -1.3063480507,
				"z": 1.2327178973,
				"element": "H" 
			},
			{
				"x": -0.1340398794,
				"y": -0.7143942264,
				"z": -1.8598499965,
				"element": "H" 
			},
			{
				"x": -2.3275775137,
				"y": 0.2515900273,
				"z": -1.2552091084,
				"element": "H" 
			},
			{
				"x": -3.7360919377,
				"y": 0.780758932,
				"z": 0.4825267086,
				"element": "H" 
			},
			{
				"x": -1.4908731031,
				"y": -0.4231760353,
				"z": 2.9021546447,
				"element": "H" 
			},
			{
				"x": 0.7151309258,
				"y": -1.4178408497,
				"z": 2.2834576446,
				"element": "H" 
			}
		],
		 "valence_orbital": [ 
			{
				"type": "occ",
				"energy": -0.31002,
				"method": "rhf"
			},
			{
				"type": "occ",
				"energy": -0.29849,
				"method": "rhf"
			},
			{
				"type": "occ",
				"energy": -0.26349,
				"method": "rhf"
			},
			{
				"type": "occ",
				"energy": -0.25117,
				"method": "rhf"
			},
			{
				"type": "occ",
				"energy": -0.21773,
				"method": "rhf"
			},
			{
				"type": "unocc",
				"energy": -0.00434,
				"method": "rhf"
			},
			{
				"type": "unocc",
				"energy": -0.00218,
				"method": "rhf"
			},
			{
				"type": "unocc",
				"energy": 0.02132,
				"method": "rhf"
			},
			{
				"type": "unocc",
				"energy": 0.07088,
				"method": "rhf"
			},
			{
				"type": "unocc",
				"energy": 0.08397,
				"method": "rhf"
			}
		],
		"cosmo_sigma_profile": { 
			"-0.025": 0.0,
			"-0.024": 0.0,
			"-0.023": 0.0,
			"-0.022": 0.0,
			"-0.021": 0.0,
			"-0.02": 0.0,
			"-0.019": 0.0,
			"-0.018": 0.235648138476,
			"-0.017": 1.12966713316,
			"-0.016": 1.18007477663,
			"-0.015": 1.06867357738,
			"-0.014": 0.891519164312,
			"-0.013": 1.92922640495,
			"-0.012": 1.47865129308,
			"-0.011": 1.32647488364,
			"-0.01": 1.68355170694,
			"-0.009": 1.47879505412,
			"-0.008": 2.26067230818,
			"-0.007": 4.29077744037,
			"-0.006": 8.18840390709,
			"-0.005": 13.5010114445,
			"-0.004": 21.8792595012,
			"-0.003": 20.9248733966,
			"-0.002": 17.4853984872,
			"-0.001": 17.3965902625,
			"0.0": 17.2839403921,
			"0.001": 12.6187448894,
			"0.002": 13.5954926625,
			"0.003": 12.9595714232,
			"0.004": 14.011117988,
			"0.005": 14.035442852,
			"0.006": 6.53115462296,
			"0.007": 3.24926242361,
			"0.008": 4.61427776903,
			"0.009": 3.40002906553,
			"0.01": 5.15843030839,
			"0.011": 6.3933983293,
			"0.012": 3.92733976516,
			"0.013": 1.52202045714,
			"0.014": 0.0462308194465,
			"0.015": 0.0,
			"0.016": 0.0,
			"0.017": 0.0,
			"0.018": 0.0,
			"0.019": 0.0,
			"0.02": 0.0,
			"0.021": 0.0,
			"0.022": 0.0,
			"0.023": 0.0,
			"0.024": 0.0,
			"0.025": 0.0
		}
	}
}
