{
	 "smiles": "CC1=C(CCO)C=CC=C1", 
	 "Tm": 275.15, 
	 "num_atms": 22, 
	 "gaussian": { 
		 "optdone": 1, 
		 "sigma_profile": "yes", 
		 "theory": "DFT", 
		 "functional": "B3LYP", 
		 "basiset": "6-31G**", 
		 "properties": { 
			 "R2extent": 1553.1895, 
			 "electric_dipole_moment_norm": 1.25434659883, 
			 "electric_quadrupole_moment_norm": 7.3324140786, 
			 "total_energy": -425.416146132, 
			 "HOMO_LUMO_gap": 0.23217, 
			 "cosmo_polarized_energy": -6.5, 
			 "cosmo_cavitation_energy": 23.97, 
			 "cosmo_dispersion_energy": -17.55, 
			 "cosmo_repulsion_energy": 1.42, 
			 "cosmo_total_nonelectrostatic_energy": 7.84, 
			 "SMD_solvation_energy": 4.02 
		},
		"coords": [
			{
				"x": -1.6710565682,
				"y": 0.38088245,
				"z": -1.8814829334,
				"element": "C" 
			},
			{
				"x": -0.2733132669,
				"y": 0.4748005045,
				"z": -1.306105131,
				"element": "C" 
			},
			{
				"x": 0.1296038692,
				"y": -0.3060486518,
				"z": -0.1985134482,
				"element": "C" 
			},
			{
				"x": -0.8323738082,
				"y": -1.2287575535,
				"z": 0.525565399,
				"element": "C" 
			},
			{
				"x": -1.4886551462,
				"y": -0.5569725749,
				"z": 1.7475747527,
				"element": "C" 
			},
			{
				"x": -2.2232325277,
				"y": 0.6141699117,
				"z": 1.4209864514,
				"element": "O" 
			},
			{
				"x": 1.4458313048,
				"y": -0.1909429155,
				"z": 0.271989721,
				"element": "C" 
			},
			{
				"x": 2.3630318368,
				"y": 0.6737682843,
				"z": -0.3231957595,
				"element": "C" 
			},
			{
				"x": 1.9660168221,
				"y": 1.4458346618,
				"z": -1.4144477639,
				"element": "C" 
			},
			{
				"x": 0.6611908197,
				"y": 1.3392867359,
				"z": -1.8944920187,
				"element": "C" 
			},
			{
				"x": -1.8204701181,
				"y": 1.1331864798,
				"z": -2.6607201242,
				"element": "H" 
			},
			{
				"x": -1.8520540138,
				"y": -0.6016674161,
				"z": -2.3352771767,
				"element": "H" 
			},
			{
				"x": -2.4337414413,
				"y": 0.5250224025,
				"z": -1.1110557727,
				"element": "H" 
			},
			{
				"x": -0.2948319726,
				"y": -2.1177698208,
				"z": 0.8787649145,
				"element": "H" 
			},
			{
				"x": -1.6192745979,
				"y": -1.5794269057,
				"z": -0.1484684533,
				"element": "H" 
			},
			{
				"x": -2.2072450781,
				"y": -1.2447737534,
				"z": 2.2050719218,
				"element": "H" 
			},
			{
				"x": -0.7152538334,
				"y": -0.3380309401,
				"z": 2.5010239763,
				"element": "H" 
			},
			{
				"x": -1.591445365,
				"y": 1.2572016832,
				"z": 1.0702860219,
				"element": "H" 
			},
			{
				"x": 1.755000132,
				"y": -0.7987514105,
				"z": 1.1197738226,
				"element": "H" 
			},
			{
				"x": 3.3774088339,
				"y": 0.7402354483,
				"z": 0.0596746951,
				"element": "H" 
			},
			{
				"x": 2.6668279487,
				"y": 2.1244863721,
				"z": -1.892398715,
				"element": "H" 
			},
			{
				"x": 0.3547361702,
				"y": 1.9382670081,
				"z": -2.7486543798,
				"element": "H" 
			}
		],
		 "valence_orbital": [ 
			{
				"type": "occ",
				"energy": -0.33325,
				"method": "rhf"
			},
			{
				"type": "occ",
				"energy": -0.31699,
				"method": "rhf"
			},
			{
				"type": "occ",
				"energy": -0.26985,
				"method": "rhf"
			},
			{
				"type": "occ",
				"energy": -0.2442,
				"method": "rhf"
			},
			{
				"type": "occ",
				"energy": -0.23554,
				"method": "rhf"
			},
			{
				"type": "unocc",
				"energy": -0.00337,
				"method": "rhf"
			},
			{
				"type": "unocc",
				"energy": 0.00152,
				"method": "rhf"
			},
			{
				"type": "unocc",
				"energy": 0.08925,
				"method": "rhf"
			},
			{
				"type": "unocc",
				"energy": 0.09842,
				"method": "rhf"
			},
			{
				"type": "unocc",
				"energy": 0.11351,
				"method": "rhf"
			}
		],
		"cosmo_sigma_profile": { 
			"-0.025": 0.0,
			"-0.024": 0.0,
			"-0.023": 0.0,
			"-0.022": 0.0,
			"-0.021": 0.0,
			"-0.02": 0.0,
			"-0.019": 0.0,
			"-0.018": 0.0,
			"-0.017": 0.0,
			"-0.016": 0.0,
			"-0.015": 0.0,
			"-0.014": 0.0414071902368,
			"-0.013": 0.440530770017,
			"-0.012": 0.561911222602,
			"-0.011": 0.583506173656,
			"-0.01": 0.751950414032,
			"-0.009": 0.438292717315,
			"-0.008": 1.2156071871,
			"-0.007": 1.12747037749,
			"-0.006": 1.79627598372,
			"-0.005": 8.84990059744,
			"-0.004": 20.9042845094,
			"-0.003": 25.0740020822,
			"-0.002": 21.5912986014,
			"-0.001": 17.6048828903,
			"0.0": 17.8194079214,
			"0.001": 13.974670868,
			"0.002": 8.5833729987,
			"0.003": 7.88428168433,
			"0.004": 8.4376669284,
			"0.005": 8.15296566064,
			"0.006": 8.63338279192,
			"0.007": 3.91165393026,
			"0.008": 1.41431221002,
			"0.009": 1.13754694741,
			"0.01": 0.972383618693,
			"0.011": 0.855860064867,
			"0.012": 1.47379760966,
			"0.013": 1.57502909872,
			"0.014": 1.93898152237,
			"0.015": 0.484202958675,
			"0.016": 0.0,
			"0.017": 0.0,
			"0.018": 0.0,
			"0.019": 0.0,
			"0.02": 0.0,
			"0.021": 0.0,
			"0.022": 0.0,
			"0.023": 0.0,
			"0.024": 0.0,
			"0.025": 0.0
		}
	}
}
