{
	 "smiles": "CNC(=O)OC1=CC(C)=CC=C1", 
	 "Tm": 350.85, 
	 "num_atms": 23, 
	 "gaussian": { 
		 "optdone": 1, 
		 "sigma_profile": "yes", 
		 "theory": "DFT", 
		 "functional": "B3LYP", 
		 "basiset": "6-31G**", 
		 "properties": { 
			 "R2extent": 2937.5597, 
			 "electric_dipole_moment_norm": 2.35592145455, 
			 "electric_quadrupole_moment_norm": 15.7787151251, 
			 "total_energy": -554.809272639, 
			 "HOMO_LUMO_gap": 0.23181, 
			 "cosmo_polarized_energy": -10.6, 
			 "cosmo_cavitation_energy": 27.16, 
			 "cosmo_dispersion_energy": -19.69, 
			 "cosmo_repulsion_energy": 1.6, 
			 "cosmo_total_nonelectrostatic_energy": 9.07, 
			 "SMD_solvation_energy": 5.65 
		},
		"coords": [
			{
				"x": -1.4336303095,
				"y": -1.7765314277,
				"z": 3.674532002,
				"element": "C" 
			},
			{
				"x": -0.4955396816,
				"y": -0.7802664153,
				"z": 3.1816579073,
				"element": "N" 
			},
			{
				"x": -0.2896160653,
				"y": -0.4487701512,
				"z": 1.8756618888,
				"element": "C" 
			},
			{
				"x": 0.4059045014,
				"y": 0.4713143856,
				"z": 1.495748739,
				"element": "O" 
			},
			{
				"x": -0.9765149552,
				"y": -1.3206380432,
				"z": 1.0642438941,
				"element": "O" 
			},
			{
				"x": -0.8888889105,
				"y": -1.221484354,
				"z": -0.3232215082,
				"element": "C" 
			},
			{
				"x": 0.3161860006,
				"y": -1.0211654471,
				"z": -0.9936676816,
				"element": "C" 
			},
			{
				"x": 0.339136355,
				"y": -1.011823723,
				"z": -2.394877432,
				"element": "C" 
			},
			{
				"x": 1.6364501295,
				"y": -0.7566599998,
				"z": -3.1268501658,
				"element": "C" 
			},
			{
				"x": -0.8552886762,
				"y": -1.2212206899,
				"z": -3.095469683,
				"element": "C" 
			},
			{
				"x": -2.0542135124,
				"y": -1.4290578835,
				"z": -2.411849547,
				"element": "C" 
			},
			{
				"x": -2.0797928582,
				"y": -1.4277008053,
				"z": -1.0187628132,
				"element": "C" 
			},
			{
				"x": -1.227196236,
				"y": -1.9525718962,
				"z": 4.7326063141,
				"element": "H" 
			},
			{
				"x": -1.3041179422,
				"y": -2.7168490313,
				"z": 3.1357280341,
				"element": "H" 
			},
			{
				"x": -2.4791607558,
				"y": -1.4602778712,
				"z": 3.569996881,
				"element": "H" 
			},
			{
				"x": -0.0987810265,
				"y": -0.1147487421,
				"z": 3.8266652892,
				"element": "H" 
			},
			{
				"x": 1.2252024639,
				"y": -0.8555219927,
				"z": -0.4292708128,
				"element": "H" 
			},
			{
				"x": 1.5845499568,
				"y": -1.1004620661,
				"z": -4.1638640774,
				"element": "H" 
			},
			{
				"x": 1.8740409868,
				"y": 0.3140771096,
				"z": -3.1453244619,
				"element": "H" 
			},
			{
				"x": 2.4766038845,
				"y": -1.2641153183,
				"z": -2.6422141003,
				"element": "H" 
			},
			{
				"x": -0.8452586612,
				"y": -1.2227528944,
				"z": -4.1821775583,
				"element": "H" 
			},
			{
				"x": -2.9738492444,
				"y": -1.594356228,
				"z": -2.9657189265,
				"element": "H" 
			},
			{
				"x": -2.9979254434,
				"y": -1.589516515,
				"z": -0.4640721816,
				"element": "H" 
			}
		],
		 "valence_orbital": [ 
			{
				"type": "occ",
				"energy": -0.31162,
				"method": "rhf"
			},
			{
				"type": "occ",
				"energy": -0.27153,
				"method": "rhf"
			},
			{
				"type": "occ",
				"energy": -0.25602,
				"method": "rhf"
			},
			{
				"type": "occ",
				"energy": -0.23905,
				"method": "rhf"
			},
			{
				"type": "occ",
				"energy": -0.22921,
				"method": "rhf"
			},
			{
				"type": "unocc",
				"energy": 0.0026,
				"method": "rhf"
			},
			{
				"type": "unocc",
				"energy": 0.00614,
				"method": "rhf"
			},
			{
				"type": "unocc",
				"energy": 0.05626,
				"method": "rhf"
			},
			{
				"type": "unocc",
				"energy": 0.08041,
				"method": "rhf"
			},
			{
				"type": "unocc",
				"energy": 0.09991,
				"method": "rhf"
			}
		],
		"cosmo_sigma_profile": { 
			"-0.025": 0.0,
			"-0.024": 0.0,
			"-0.023": 0.0,
			"-0.022": 0.0,
			"-0.021": 0.0,
			"-0.02": 0.0,
			"-0.019": 0.0,
			"-0.018": 0.0,
			"-0.017": 0.0,
			"-0.016": 0.0,
			"-0.015": 0.183525585932,
			"-0.014": 1.25546128639,
			"-0.013": 0.926665613166,
			"-0.012": 1.01736108411,
			"-0.011": 0.973351814031,
			"-0.01": 1.13733468017,
			"-0.009": 1.21641458677,
			"-0.008": 0.966786046149,
			"-0.007": 1.5953251522,
			"-0.006": 6.22995398393,
			"-0.005": 11.847032753,
			"-0.004": 21.7182575189,
			"-0.003": 21.3056985317,
			"-0.002": 22.1477673234,
			"-0.001": 19.9148801601,
			"0.0": 18.6851957923,
			"0.001": 13.1505949524,
			"0.002": 10.2289143929,
			"0.003": 13.0902300034,
			"0.004": 11.9101786709,
			"0.005": 13.0796959712,
			"0.006": 5.25747156511,
			"0.007": 2.05044233455,
			"0.008": 1.48814619752,
			"0.009": 1.29151090405,
			"0.01": 1.10757636193,
			"0.011": 2.36203281368,
			"0.012": 2.8764795273,
			"0.013": 5.46671293459,
			"0.014": 0.741091826306,
			"0.015": 0.0,
			"0.016": 0.0,
			"0.017": 0.0,
			"0.018": 0.0,
			"0.019": 0.0,
			"0.02": 0.0,
			"0.021": 0.0,
			"0.022": 0.0,
			"0.023": 0.0,
			"0.024": 0.0,
			"0.025": 0.0
		}
	}
}
