{
	 "smiles": "BrC1CNC(=O)NC1=O", 
	 "Tm": 474.15, 
	 "num_atms": 14, 
	 "gaussian": { 
		 "optdone": 1, 
		 "sigma_profile": "yes", 
		 "theory": "DFT", 
		 "functional": "B3LYP", 
		 "basiset": "6-31G**", 
		 "properties": { 
			 "R2extent": 3072.2318, 
			 "electric_dipole_moment_norm": 3.94654787124, 
			 "electric_quadrupole_moment_norm": 7.00918008258, 
			 "total_energy": -2986.82820084, 
			 "HOMO_LUMO_gap": 0.21274, 
			 "cosmo_polarized_energy": -17.31, 
			 "cosmo_cavitation_energy": 20.4, 
			 "cosmo_dispersion_energy": -15.66, 
			 "cosmo_repulsion_energy": 1.31, 
			 "cosmo_total_nonelectrostatic_energy": 6.04, 
			 "SMD_solvation_energy": 3.33 
		},
		"coords": [
			{
				"x": 3.6571145582,
				"y": -0.3132900648,
				"z": 0.2529112434,
				"element": "Br" 
			},
			{
				"x": 1.8576712948,
				"y": 0.4529206222,
				"z": 0.6066574403,
				"element": "C" 
			},
			{
				"x": 0.895508345,
				"y": 0.1310365373,
				"z": -0.5276358656,
				"element": "C" 
			},
			{
				"x": 0.5479635669,
				"y": -1.2780206579,
				"z": -0.5067718133,
				"element": "N" 
			},
			{
				"x": 0.2487701649,
				"y": -1.9503550867,
				"z": 0.6470199618,
				"element": "C" 
			},
			{
				"x": -0.2733533521,
				"y": -3.0485279819,
				"z": 0.6977702568,
				"element": "O" 
			},
			{
				"x": 0.6064253545,
				"y": -1.2547308402,
				"z": 1.8216173825,
				"element": "N" 
			},
			{
				"x": 1.3699768565,
				"y": -0.1062556842,
				"z": 1.9405458486,
				"element": "C" 
			},
			{
				"x": 1.6186632395,
				"y": 0.408650758,
				"z": 3.0115405942,
				"element": "O" 
			},
			{
				"x": 2.019289104,
				"y": 1.5228780411,
				"z": 0.7179363795,
				"element": "H" 
			},
			{
				"x": 0.0058364559,
				"y": 0.7706944138,
				"z": -0.3990711496,
				"element": "H" 
			},
			{
				"x": 1.3453081684,
				"y": 0.3757720853,
				"z": -1.4914649767,
				"element": "H" 
			},
			{
				"x": 0.2311994879,
				"y": -1.733174446,
				"z": -1.3495559108,
				"element": "H" 
			},
			{
				"x": 0.3394267556,
				"y": -1.7145976958,
				"z": 2.6839006088,
				"element": "H" 
			}
		],
		 "valence_orbital": [ 
			{
				"type": "occ",
				"energy": -0.29864,
				"method": "rhf"
			},
			{
				"type": "occ",
				"energy": -0.29179,
				"method": "rhf"
			},
			{
				"type": "occ",
				"energy": -0.28912,
				"method": "rhf"
			},
			{
				"type": "occ",
				"energy": -0.27945,
				"method": "rhf"
			},
			{
				"type": "occ",
				"energy": -0.26954,
				"method": "rhf"
			},
			{
				"type": "unocc",
				"energy": -0.0568,
				"method": "rhf"
			},
			{
				"type": "unocc",
				"energy": 0.00354,
				"method": "rhf"
			},
			{
				"type": "unocc",
				"energy": 0.05958,
				"method": "rhf"
			},
			{
				"type": "unocc",
				"energy": 0.0609,
				"method": "rhf"
			},
			{
				"type": "unocc",
				"energy": 0.09595,
				"method": "rhf"
			}
		],
		"cosmo_sigma_profile": { 
			"-0.025": 0.0,
			"-0.024": 0.0,
			"-0.023": 0.0,
			"-0.022": 0.0,
			"-0.021": 0.0,
			"-0.02": 0.0,
			"-0.019": 0.0,
			"-0.018": 0.0,
			"-0.017": 0.0,
			"-0.016": 0.533452467638,
			"-0.015": 2.61585788088,
			"-0.014": 1.53070842344,
			"-0.013": 2.2203056055,
			"-0.012": 1.97464910715,
			"-0.011": 1.33227146943,
			"-0.01": 4.57763453031,
			"-0.009": 6.95907154927,
			"-0.008": 8.19674220836,
			"-0.007": 9.00193203056,
			"-0.006": 7.09912620198,
			"-0.005": 6.70981716869,
			"-0.004": 5.2233065484,
			"-0.003": 6.07525213337,
			"-0.002": 7.8084946782,
			"-0.001": 7.61294376361,
			"0.0": 5.77600300287,
			"0.001": 7.00249354204,
			"0.002": 6.99443043956,
			"0.003": 8.41378302493,
			"0.004": 12.5811899151,
			"0.005": 9.48687350395,
			"0.006": 2.78086311536,
			"0.007": 2.94535466282,
			"0.008": 2.39166164686,
			"0.009": 2.2146962469,
			"0.01": 4.25286210951,
			"0.011": 6.60426781075,
			"0.012": 7.37875593572,
			"0.013": 5.91370282907,
			"0.014": 0.582018065747,
			"0.015": 0.0,
			"0.016": 0.0,
			"0.017": 0.0,
			"0.018": 0.0,
			"0.019": 0.0,
			"0.02": 0.0,
			"0.021": 0.0,
			"0.022": 0.0,
			"0.023": 0.0,
			"0.024": 0.0,
			"0.025": 0.0
		}
	}
}
