{
	 "smiles": "COC(=O)C1CC(=O)C2=CC=CC=C12", 
	 "Tm": 318.15, 
	 "num_atms": 24, 
	 "gaussian": { 
		 "optdone": 1, 
		 "sigma_profile": "yes", 
		 "theory": "DFT", 
		 "functional": "B3LYP", 
		 "basiset": "6-31G**", 
		 "properties": { 
			 "R2extent": 3247.8935, 
			 "electric_dipole_moment_norm": 2.2991855558, 
			 "electric_quadrupole_moment_norm": 16.2547589428, 
			 "total_energy": -650.881137079, 
			 "HOMO_LUMO_gap": 0.18549, 
			 "cosmo_polarized_energy": -11.69, 
			 "cosmo_cavitation_energy": 28.28, 
			 "cosmo_dispersion_energy": -20.26, 
			 "cosmo_repulsion_energy": 1.61, 
			 "cosmo_total_nonelectrostatic_energy": 9.62, 
			 "SMD_solvation_energy": 6.68 
		},
		"coords": [
			{
				"x": -2.2579235368,
				"y": -1.3447479886,
				"z": -1.0245595862,
				"element": "C" 
			},
			{
				"x": -1.1187656163,
				"y": -0.4865716291,
				"z": -0.832631,
				"element": "O" 
			},
			{
				"x": -0.840588625,
				"y": -0.1744259694,
				"z": 0.4479122665,
				"element": "C" 
			},
			{
				"x": -1.4930109232,
				"y": -0.5687709551,
				"z": 1.3918536845,
				"element": "O" 
			},
			{
				"x": 0.4157452476,
				"y": 0.6757556446,
				"z": 0.5985822736,
				"element": "C" 
			},
			{
				"x": 0.8665185836,
				"y": 1.5090048829,
				"z": -0.6247115066,
				"element": "C" 
			},
			{
				"x": 2.3402371174,
				"y": 1.1493901594,
				"z": -0.8767645735,
				"element": "C" 
			},
			{
				"x": 3.063865969,
				"y": 1.6604360025,
				"z": -1.7098077754,
				"element": "O" 
			},
			{
				"x": 2.6988821052,
				"y": 0.0705419743,
				"z": 0.07443685,
				"element": "C" 
			},
			{
				"x": 3.9154810997,
				"y": -0.6072093266,
				"z": 0.1919575837,
				"element": "C" 
			},
			{
				"x": 4.0278379839,
				"y": -1.5970254476,
				"z": 1.1648061172,
				"element": "C" 
			},
			{
				"x": 2.9391075112,
				"y": -1.8953907594,
				"z": 2.0002723447,
				"element": "C" 
			},
			{
				"x": 1.7254758887,
				"y": -1.2130281057,
				"z": 1.8824836513,
				"element": "C" 
			},
			{
				"x": 1.6173003241,
				"y": -0.221518581,
				"z": 0.908014572,
				"element": "C" 
			},
			{
				"x": -2.1037101181,
				"y": -2.3016108605,
				"z": -0.5202564315,
				"element": "H" 
			},
			{
				"x": -2.3401745594,
				"y": -1.4863554589,
				"z": -2.101763161,
				"element": "H" 
			},
			{
				"x": -3.1610404363,
				"y": -0.8764682964,
				"z": -0.6263562931,
				"element": "H" 
			},
			{
				"x": 0.2179194715,
				"y": 1.3140824825,
				"z": 1.4664949947,
				"element": "H" 
			},
			{
				"x": 0.7704156721,
				"y": 2.5860188809,
				"z": -0.4602310976,
				"element": "H" 
			},
			{
				"x": 0.2894820069,
				"y": 1.2645759223,
				"z": -1.5201267253,
				"element": "H" 
			},
			{
				"x": 4.7390823311,
				"y": -0.3547091049,
				"z": -0.4691770999,
				"element": "H" 
			},
			{
				"x": 4.9588937816,
				"y": -2.1436692282,
				"z": 1.2819510369,
				"element": "H" 
			},
			{
				"x": 3.0431691961,
				"y": -2.6716046952,
				"z": 2.7533511434,
				"element": "H" 
			},
			{
				"x": 0.8846995255,
				"y": -1.4495995428,
				"z": 2.5274687317,
				"element": "H" 
			}
		],
		 "valence_orbital": [ 
			{
				"type": "occ",
				"energy": -0.31179,
				"method": "rhf"
			},
			{
				"type": "occ",
				"energy": -0.28452,
				"method": "rhf"
			},
			{
				"type": "occ",
				"energy": -0.26423,
				"method": "rhf"
			},
			{
				"type": "occ",
				"energy": -0.25823,
				"method": "rhf"
			},
			{
				"type": "occ",
				"energy": -0.24304,
				"method": "rhf"
			},
			{
				"type": "unocc",
				"energy": -0.05755,
				"method": "rhf"
			},
			{
				"type": "unocc",
				"energy": -0.02034,
				"method": "rhf"
			},
			{
				"type": "unocc",
				"energy": 0.00732,
				"method": "rhf"
			},
			{
				"type": "unocc",
				"energy": 0.04296,
				"method": "rhf"
			},
			{
				"type": "unocc",
				"energy": 0.09305,
				"method": "rhf"
			}
		],
		"cosmo_sigma_profile": { 
			"-0.025": 0.0,
			"-0.024": 0.0,
			"-0.023": 0.0,
			"-0.022": 0.0,
			"-0.021": 0.0,
			"-0.02": 0.0,
			"-0.019": 0.0,
			"-0.018": 0.0,
			"-0.017": 0.0,
			"-0.016": 0.0,
			"-0.015": 0.0,
			"-0.014": 0.0,
			"-0.013": 0.0,
			"-0.012": 0.0,
			"-0.011": 0.0,
			"-0.01": 0.0,
			"-0.009": 0.0,
			"-0.008": 0.0654275172808,
			"-0.007": 6.41550156304,
			"-0.006": 19.56407849,
			"-0.005": 23.1116124158,
			"-0.004": 22.0751491451,
			"-0.003": 21.0056663005,
			"-0.002": 15.485513536,
			"-0.001": 13.441473058,
			"0.0": 14.2720463487,
			"0.001": 13.8044380692,
			"0.002": 14.7427331519,
			"0.003": 16.160656168,
			"0.004": 8.48869947044,
			"0.005": 3.26755491207,
			"0.006": 4.18222342363,
			"0.007": 2.43804825275,
			"0.008": 2.83045719528,
			"0.009": 3.15342330028,
			"0.01": 3.4143146704,
			"0.011": 6.80934447272,
			"0.012": 8.2876450569,
			"0.013": 2.32082303084,
			"0.014": 0.124076729109,
			"0.015": 0.0,
			"0.016": 0.0,
			"0.017": 0.0,
			"0.018": 0.0,
			"0.019": 0.0,
			"0.02": 0.0,
			"0.021": 0.0,
			"0.022": 0.0,
			"0.023": 0.0,
			"0.024": 0.0,
			"0.025": 0.0
		}
	}
}
