{
	 "smiles": "CC1CCCS1", 
	 "Tm": 172.15, 
	 "num_atms": 16, 
	 "gaussian": { 
		 "optdone": 1, 
		 "sigma_profile": "yes", 
		 "theory": "DFT", 
		 "functional": "B3LYP", 
		 "basiset": "6-31G**", 
		 "properties": { 
			 "R2extent": 1375.5614, 
			 "electric_dipole_moment_norm": 2.12818107782, 
			 "electric_quadrupole_moment_norm": 6.59779689897, 
			 "total_energy": -594.759711021, 
			 "HOMO_LUMO_gap": 0.2462, 
			 "cosmo_polarized_energy": -4.22, 
			 "cosmo_cavitation_energy": 18.76, 
			 "cosmo_dispersion_energy": -14.83, 
			 "cosmo_repulsion_energy": 1.22, 
			 "cosmo_total_nonelectrostatic_energy": 5.15, 
			 "SMD_solvation_energy": 2.36 
		},
		"coords": [
			{
				"x": 1.3110243659,
				"y": 1.0512739721,
				"z": -2.0328709203,
				"element": "C" 
			},
			{
				"x": 0.1084583599,
				"y": 0.8576318654,
				"z": -1.1119982084,
				"element": "C" 
			},
			{
				"x": 0.3387617301,
				"y": 1.309072738,
				"z": 0.3375691552,
				"element": "C" 
			},
			{
				"x": -1.0369903352,
				"y": 1.5155843489,
				"z": 0.9789877147,
				"element": "C" 
			},
			{
				"x": -1.8512465944,
				"y": 2.3802184982,
				"z": 0.0065350916,
				"element": "C" 
			},
			{
				"x": -1.3717299693,
				"y": 1.8332152642,
				"z": -1.695638502,
				"element": "S" 
			},
			{
				"x": 2.1581430627,
				"y": 0.4514167385,
				"z": -1.6787772223,
				"element": "H" 
			},
			{
				"x": 1.6163693415,
				"y": 2.1018033634,
				"z": -2.0605502878,
				"element": "H" 
			},
			{
				"x": 1.0876295595,
				"y": 0.7368913534,
				"z": -3.0568386199,
				"element": "H" 
			},
			{
				"x": -0.1848008908,
				"y": -0.1983085605,
				"z": -1.1185739864,
				"element": "H" 
			},
			{
				"x": 0.8953017687,
				"y": 2.2553221167,
				"z": 0.3378685383,
				"element": "H" 
			},
			{
				"x": 0.9420942275,
				"y": 0.5717016085,
				"z": 0.8804040917,
				"element": "H" 
			},
			{
				"x": -1.5311640287,
				"y": 0.5461248201,
				"z": 1.113411328,
				"element": "H" 
			},
			{
				"x": -0.9678952198,
				"y": 1.9900297479,
				"z": 1.9643929147,
				"element": "H" 
			},
			{
				"x": -1.6095364932,
				"y": 3.4408732205,
				"z": 0.1209869477,
				"element": "H" 
			},
			{
				"x": -2.9290188844,
				"y": 2.2558489045,
				"z": 0.1343919653,
				"element": "H" 
			}
		],
		 "valence_orbital": [ 
			{
				"type": "occ",
				"energy": -0.34077,
				"method": "rhf"
			},
			{
				"type": "occ",
				"energy": -0.33501,
				"method": "rhf"
			},
			{
				"type": "occ",
				"energy": -0.33001,
				"method": "rhf"
			},
			{
				"type": "occ",
				"energy": -0.29445,
				"method": "rhf"
			},
			{
				"type": "occ",
				"energy": -0.21067,
				"method": "rhf"
			},
			{
				"type": "unocc",
				"energy": 0.03553,
				"method": "rhf"
			},
			{
				"type": "unocc",
				"energy": 0.07269,
				"method": "rhf"
			},
			{
				"type": "unocc",
				"energy": 0.09238,
				"method": "rhf"
			},
			{
				"type": "unocc",
				"energy": 0.1097,
				"method": "rhf"
			},
			{
				"type": "unocc",
				"energy": 0.12479,
				"method": "rhf"
			}
		],
		"cosmo_sigma_profile": { 
			"-0.025": 0.0,
			"-0.024": 0.0,
			"-0.023": 0.0,
			"-0.022": 0.0,
			"-0.021": 0.0,
			"-0.02": 0.0,
			"-0.019": 0.0,
			"-0.018": 0.0,
			"-0.017": 0.0,
			"-0.016": 0.0,
			"-0.015": 0.0,
			"-0.014": 0.0,
			"-0.013": 0.0,
			"-0.012": 0.0,
			"-0.011": 0.0,
			"-0.01": 0.0,
			"-0.009": 0.0,
			"-0.008": 0.0,
			"-0.007": 0.0,
			"-0.006": 0.0185329071558,
			"-0.005": 1.55108751316,
			"-0.004": 10.3835387238,
			"-0.003": 24.777162318,
			"-0.002": 29.4305410737,
			"-0.001": 22.7444723059,
			"0.0": 18.9222844359,
			"0.001": 9.40789431482,
			"0.002": 2.98861178367,
			"0.003": 3.42024209817,
			"0.004": 2.601399004,
			"0.005": 3.15030380983,
			"0.006": 3.59070623571,
			"0.007": 3.34622519542,
			"0.008": 2.89824870912,
			"0.009": 2.41684870072,
			"0.01": 1.9599186877,
			"0.011": 2.31385713019,
			"0.012": 1.3456608371,
			"0.013": 0.135641396937,
			"0.014": 0.0,
			"0.015": 0.0,
			"0.016": 0.0,
			"0.017": 0.0,
			"0.018": 0.0,
			"0.019": 0.0,
			"0.02": 0.0,
			"0.021": 0.0,
			"0.022": 0.0,
			"0.023": 0.0,
			"0.024": 0.0,
			"0.025": 0.0
		}
	}
}
