{
	 "smiles": "O=C(C(=O)C1=CC=CC=C1)C1=CC=CC=C1", 
	 "Tm": 367.95, 
	 "num_atms": 26, 
	 "gaussian": { 
		 "optdone": 1, 
		 "sigma_profile": "yes", 
		 "theory": "DFT", 
		 "functional": "B3LYP", 
		 "basiset": "6-31G**", 
		 "properties": { 
			 "R2extent": 4426.1893, 
			 "electric_dipole_moment_norm": 2.69374625568, 
			 "electric_quadrupole_moment_norm": 18.3473440819, 
			 "total_energy": -689.95467479, 
			 "HOMO_LUMO_gap": 0.15175, 
			 "cosmo_polarized_energy": -9.56, 
			 "cosmo_cavitation_energy": 31.06, 
			 "cosmo_dispersion_energy": -22.48, 
			 "cosmo_repulsion_energy": 1.73, 
			 "cosmo_total_nonelectrostatic_energy": 10.31, 
			 "SMD_solvation_energy": 6.19 
		},
		"coords": [
			{
				"x": 1.6743792788,
				"y": 1.3719400563,
				"z": -0.3977089365,
				"element": "O" 
			},
			{
				"x": 0.4622308779,
				"y": 1.218241008,
				"z": -0.3166718583,
				"element": "C" 
			},
			{
				"x": -0.1109048285,
				"y": -0.1738734227,
				"z": -0.649001743,
				"element": "C" 
			},
			{
				"x": -1.0197824311,
				"y": -0.2378153087,
				"z": -1.4671365976,
				"element": "O" 
			},
			{
				"x": 0.4937024466,
				"y": -1.3862085125,
				"z": -0.0321261051,
				"element": "C" 
			},
			{
				"x": -0.0282534342,
				"y": -2.6340389835,
				"z": -0.4159293555,
				"element": "C" 
			},
			{
				"x": 0.4650605103,
				"y": -3.8057846764,
				"z": 0.1464333163,
				"element": "C" 
			},
			{
				"x": 1.4839794196,
				"y": -3.744667144,
				"z": 1.1031246352,
				"element": "C" 
			},
			{
				"x": 2.0066572449,
				"y": -2.5096473213,
				"z": 1.4919198193,
				"element": "C" 
			},
			{
				"x": 1.5174148577,
				"y": -1.3318543499,
				"z": 0.9286662862,
				"element": "C" 
			},
			{
				"x": -0.4628720884,
				"y": 2.3356513338,
				"z": 0.0170905083,
				"element": "C" 
			},
			{
				"x": -1.8528875944,
				"y": 2.1730570692,
				"z": 0.1415676824,
				"element": "C" 
			},
			{
				"x": -2.6516745891,
				"y": 3.2591038759,
				"z": 0.496892616,
				"element": "C" 
			},
			{
				"x": -2.0752867604,
				"y": 4.50970392,
				"z": 0.7279850516,
				"element": "C" 
			},
			{
				"x": -0.6919686879,
				"y": 4.6785089812,
				"z": 0.6049748747,
				"element": "C" 
			},
			{
				"x": 0.1091703697,
				"y": 3.5980026534,
				"z": 0.2538644149,
				"element": "C" 
			},
			{
				"x": -0.8204572824,
				"y": -2.6541372654,
				"z": -1.1569220989,
				"element": "H" 
			},
			{
				"x": 0.0587907257,
				"y": -4.7665384127,
				"z": -0.1558199182,
				"element": "H" 
			},
			{
				"x": 1.8694831334,
				"y": -4.6596141061,
				"z": 1.5441877289,
				"element": "H" 
			},
			{
				"x": 2.7998207388,
				"y": -2.4632997727,
				"z": 2.2321080762,
				"element": "H" 
			},
			{
				"x": 1.9392208684,
				"y": -0.3777256046,
				"z": 1.2196252859,
				"element": "H" 
			},
			{
				"x": -2.3068894896,
				"y": 1.2096576676,
				"z": -0.0551283737,
				"element": "H" 
			},
			{
				"x": -3.7258525549,
				"y": 3.1297295588,
				"z": 0.5893005876,
				"element": "H" 
			},
			{
				"x": -2.7022633526,
				"y": 5.3530694995,
				"z": 1.0035046714,
				"element": "H" 
			},
			{
				"x": -0.2439604093,
				"y": 5.6513683731,
				"z": 0.7846750072,
				"element": "H" 
			},
			{
				"x": 1.1846430312,
				"y": 3.7017708836,
				"z": 0.1556244248,
				"element": "H" 
			}
		],
		 "valence_orbital": [ 
			{
				"type": "occ",
				"energy": -0.26666,
				"method": "rhf"
			},
			{
				"type": "occ",
				"energy": -0.26218,
				"method": "rhf"
			},
			{
				"type": "occ",
				"energy": -0.26196,
				"method": "rhf"
			},
			{
				"type": "occ",
				"energy": -0.26151,
				"method": "rhf"
			},
			{
				"type": "occ",
				"energy": -0.23642,
				"method": "rhf"
			},
			{
				"type": "unocc",
				"energy": -0.08467,
				"method": "rhf"
			},
			{
				"type": "unocc",
				"energy": -0.05316,
				"method": "rhf"
			},
			{
				"type": "unocc",
				"energy": -0.01099,
				"method": "rhf"
			},
			{
				"type": "unocc",
				"energy": -0.01073,
				"method": "rhf"
			},
			{
				"type": "unocc",
				"energy": 0.0196,
				"method": "rhf"
			}
		],
		"cosmo_sigma_profile": { 
			"-0.025": 0.0,
			"-0.024": 0.0,
			"-0.023": 0.0,
			"-0.022": 0.0,
			"-0.021": 0.0,
			"-0.02": 0.0,
			"-0.019": 0.0,
			"-0.018": 0.0,
			"-0.017": 0.0,
			"-0.016": 0.0,
			"-0.015": 0.0,
			"-0.014": 0.0,
			"-0.013": 0.0,
			"-0.012": 0.0,
			"-0.011": 0.0,
			"-0.01": 0.0,
			"-0.009": 0.0,
			"-0.008": 0.0,
			"-0.007": 5.65599440884,
			"-0.006": 19.7915530791,
			"-0.005": 24.7704515132,
			"-0.004": 20.5723429168,
			"-0.003": 13.8956242613,
			"-0.002": 16.4968864557,
			"-0.001": 14.8979285245,
			"0.0": 17.2537786792,
			"0.001": 20.9939918948,
			"0.002": 21.2504681149,
			"0.003": 30.4743331572,
			"0.004": 15.7341228676,
			"0.005": 4.92824394554,
			"0.006": 2.63509448767,
			"0.007": 3.51566326209,
			"0.008": 2.81933774239,
			"0.009": 4.34958684301,
			"0.01": 5.99156124583,
			"0.011": 4.51686577389,
			"0.012": 0.0848031933956,
			"0.013": 0.0,
			"0.014": 0.0,
			"0.015": 0.0,
			"0.016": 0.0,
			"0.017": 0.0,
			"0.018": 0.0,
			"0.019": 0.0,
			"0.02": 0.0,
			"0.021": 0.0,
			"0.022": 0.0,
			"0.023": 0.0,
			"0.024": 0.0,
			"0.025": 0.0
		}
	}
}
