{
	 "smiles": "CON=C(C1=NOCCO1)C1=CC=CC=C1OC1=C(F)C(OC2=CC=CC=C2Cl)=NC=N1", 
	 "Tm": 378.15, 
	 "num_atms": 48, 
	 "gaussian": { 
		 "optdone": 1, 
		 "sigma_profile": "yes", 
		 "theory": "DFT", 
		 "functional": "B3LYP", 
		 "basiset": "6-31G**", 
		 "properties": { 
			 "R2extent": 14404.3899, 
			 "electric_dipole_moment_norm": 2.48714740617, 
			 "electric_quadrupole_moment_norm": 17.665174893, 
			 "total_energy": -1964.8441025, 
			 "HOMO_LUMO_gap": 0.17145, 
			 "cosmo_polarized_energy": -24.09, 
			 "cosmo_cavitation_energy": 56.68, 
			 "cosmo_dispersion_energy": -36.39, 
			 "cosmo_repulsion_energy": 2.75, 
			 "cosmo_total_nonelectrostatic_energy": 23.03, 
			 "SMD_solvation_energy": 8.1 
		},
		"coords": [
			{
				"x": -1.2825952331,
				"y": -4.6087816837,
				"z": 2.8367619695,
				"element": "C" 
			},
			{
				"x": -0.3012958364,
				"y": -3.9074305899,
				"z": 2.0721341547,
				"element": "O" 
			},
			{
				"x": -0.9048595136,
				"y": -3.4028182442,
				"z": 0.932910813,
				"element": "N" 
			},
			{
				"x": -0.0966235877,
				"y": -2.7286442794,
				"z": 0.1878959712,
				"element": "C" 
			},
			{
				"x": -0.7060802026,
				"y": -2.1251548315,
				"z": -1.0311149654,
				"element": "C" 
			},
			{
				"x": -1.9622702769,
				"y": -1.8477637049,
				"z": -1.0531551015,
				"element": "N" 
			},
			{
				"x": -2.470897218,
				"y": -1.3028917254,
				"z": -2.2493424835,
				"element": "O" 
			},
			{
				"x": -1.5027997548,
				"y": -0.6206053083,
				"z": -3.0418663572,
				"element": "C" 
			},
			{
				"x": -0.3197223214,
				"y": -1.5358258312,
				"z": -3.2860650384,
				"element": "C" 
			},
			{
				"x": 0.2116027455,
				"y": -1.9492677757,
				"z": -2.0204184315,
				"element": "O" 
			},
			{
				"x": 1.3688009377,
				"y": -2.5701708022,
				"z": 0.4131660862,
				"element": "C" 
			},
			{
				"x": 2.1855922431,
				"y": -3.6953861482,
				"z": 0.6043279904,
				"element": "C" 
			},
			{
				"x": 3.558253768,
				"y": -3.5629786334,
				"z": 0.7902303453,
				"element": "C" 
			},
			{
				"x": 4.1391581837,
				"y": -2.2927782681,
				"z": 0.8043480065,
				"element": "C" 
			},
			{
				"x": 3.3491394938,
				"y": -1.1591877876,
				"z": 0.6297057531,
				"element": "C" 
			},
			{
				"x": 1.9786955924,
				"y": -1.3094663608,
				"z": 0.4276768497,
				"element": "C" 
			},
			{
				"x": 1.1293434736,
				"y": -0.2044567451,
				"z": 0.359133697,
				"element": "O" 
			},
			{
				"x": 1.3781199344,
				"y": 0.8359493938,
				"z": -0.4641995466,
				"element": "C" 
			},
			{
				"x": 0.6064735499,
				"y": 1.9864014876,
				"z": -0.2469385301,
				"element": "C" 
			},
			{
				"x": -0.2866257288,
				"y": 2.0146457862,
				"z": 0.7540903611,
				"element": "F" 
			},
			{
				"x": 0.8272152015,
				"y": 3.0700752846,
				"z": -1.0992171175,
				"element": "C" 
			},
			{
				"x": 0.2019184614,
				"y": 4.2718502872,
				"z": -1.0224712031,
				"element": "O" 
			},
			{
				"x": -0.8902596713,
				"y": 4.5072375653,
				"z": -0.1981908124,
				"element": "C" 
			},
			{
				"x": -0.6988409448,
				"y": 5.2605469169,
				"z": 0.9579026166,
				"element": "C" 
			},
			{
				"x": -1.7896582492,
				"y": 5.6016022406,
				"z": 1.7556355764,
				"element": "C" 
			},
			{
				"x": -3.0737390881,
				"y": 5.1915424429,
				"z": 1.3933211911,
				"element": "C" 
			},
			{
				"x": -3.2706653303,
				"y": 4.4484599899,
				"z": 0.2295136439,
				"element": "C" 
			},
			{
				"x": -2.1794996669,
				"y": 4.1113911099,
				"z": -0.5707776987,
				"element": "C" 
			},
			{
				"x": -2.4291451755,
				"y": 3.2002786745,
				"z": -2.0432234881,
				"element": "Cl" 
			},
			{
				"x": 1.7435097876,
				"y": 3.005762183,
				"z": -2.0686248735,
				"element": "N" 
			},
			{
				"x": 2.4203078303,
				"y": 1.8680794168,
				"z": -2.1798825782,
				"element": "C" 
			},
			{
				"x": 2.2866156221,
				"y": 0.7681021537,
				"z": -1.4310926681,
				"element": "N" 
			},
			{
				"x": -2.0993695475,
				"y": -3.9414725888,
				"z": 3.129328409,
				"element": "H" 
			},
			{
				"x": -0.7560258213,
				"y": -4.9675487924,
				"z": 3.7234753735,
				"element": "H" 
			},
			{
				"x": -1.6889785875,
				"y": -5.455533846,
				"z": 2.27373234,
				"element": "H" 
			},
			{
				"x": -2.0100138547,
				"y": -0.3566793293,
				"z": -3.9736241149,
				"element": "H" 
			},
			{
				"x": -1.1800998105,
				"y": 0.2986877864,
				"z": -2.5345750706,
				"element": "H" 
			},
			{
				"x": 0.4971988567,
				"y": -1.0369705613,
				"z": -3.8134836163,
				"element": "H" 
			},
			{
				"x": -0.6307982939,
				"y": -2.4227007504,
				"z": -3.8498658117,
				"element": "H" 
			},
			{
				"x": 1.7262693938,
				"y": -4.6770353419,
				"z": 0.6048290703,
				"element": "H" 
			},
			{
				"x": 4.1729839936,
				"y": -4.4470077145,
				"z": 0.9281318347,
				"element": "H" 
			},
			{
				"x": 5.2081344053,
				"y": -2.1803874207,
				"z": 0.9582411556,
				"element": "H" 
			},
			{
				"x": 3.786263717,
				"y": -0.1683168953,
				"z": 0.6467483307,
				"element": "H" 
			},
			{
				"x": 0.3094389497,
				"y": 5.5708127012,
				"z": 1.2111792713,
				"element": "H" 
			},
			{
				"x": -1.6346899141,
				"y": 6.1854882025,
				"z": 2.6572540233,
				"element": "H" 
			},
			{
				"x": -3.9272756264,
				"y": 5.4520029684,
				"z": 2.0110556102,
				"element": "H" 
			},
			{
				"x": -4.263110145,
				"y": 4.1279617494,
				"z": -0.0672609748,
				"element": "H" 
			},
			{
				"x": 3.166103259,
				"y": 1.8238836195,
				"z": -2.970239962,
				"element": "H" 
			}
		],
		 "valence_orbital": [ 
			{
				"type": "occ",
				"energy": -0.26254,
				"method": "rhf"
			},
			{
				"type": "occ",
				"energy": -0.25257,
				"method": "rhf"
			},
			{
				"type": "occ",
				"energy": -0.2479,
				"method": "rhf"
			},
			{
				"type": "occ",
				"energy": -0.23878,
				"method": "rhf"
			},
			{
				"type": "occ",
				"energy": -0.21786,
				"method": "rhf"
			},
			{
				"type": "unocc",
				"energy": -0.04641,
				"method": "rhf"
			},
			{
				"type": "unocc",
				"energy": -0.03269,
				"method": "rhf"
			},
			{
				"type": "unocc",
				"energy": -0.028,
				"method": "rhf"
			},
			{
				"type": "unocc",
				"energy": -0.02254,
				"method": "rhf"
			},
			{
				"type": "unocc",
				"energy": -0.01809,
				"method": "rhf"
			}
		],
		"cosmo_sigma_profile": { 
			"-0.025": 0.0,
			"-0.024": 0.0,
			"-0.023": 0.0,
			"-0.022": 0.0,
			"-0.021": 0.0,
			"-0.02": 0.0,
			"-0.019": 0.0,
			"-0.018": 0.0,
			"-0.017": 0.0,
			"-0.016": 0.0,
			"-0.015": 0.0,
			"-0.014": 0.0,
			"-0.013": 0.0,
			"-0.012": 0.0,
			"-0.011": 0.0,
			"-0.01": 0.0,
			"-0.009": 0.397753372447,
			"-0.008": 6.37583901371,
			"-0.007": 23.2576628201,
			"-0.006": 33.41676173,
			"-0.005": 40.4880771495,
			"-0.004": 33.7414423065,
			"-0.003": 33.5215275492,
			"-0.002": 29.4824088873,
			"-0.001": 27.6541531156,
			"0.0": 25.0567825681,
			"0.001": 32.7851905337,
			"0.002": 33.1840416267,
			"0.003": 39.9325919318,
			"0.004": 25.6432171605,
			"0.005": 12.4630720263,
			"0.006": 11.2342069499,
			"0.007": 6.61737783515,
			"0.008": 8.64930667421,
			"0.009": 7.09527337298,
			"0.01": 7.0166203231,
			"0.011": 7.72178385315,
			"0.012": 4.29066769143,
			"0.013": 2.53298011332,
			"0.014": 2.39978489409,
			"0.015": 1.76115704275,
			"0.016": 0.801647593553,
			"0.017": 0.0,
			"0.018": 0.0,
			"0.019": 0.0,
			"0.02": 0.0,
			"0.021": 0.0,
			"0.022": 0.0,
			"0.023": 0.0,
			"0.024": 0.0,
			"0.025": 0.0
		}
	}
}
