{
	 "smiles": "COC1=CC=CC=C1C1=NN=C2SCN(CN12)C1=C(C)C=CC=C1", 
	 "Tm": 513.15, 
	 "num_atms": 42, 
	 "gaussian": { 
		 "optdone": 1, 
		 "sigma_profile": "yes", 
		 "theory": "DFT", 
		 "functional": "B3LYP", 
		 "basiset": "6-31G**", 
		 "properties": { 
			 "R2extent": 8825.2848, 
			 "electric_dipole_moment_norm": 6.30364332589, 
			 "electric_quadrupole_moment_norm": 26.5720254006, 
			 "total_energy": -1389.12972782, 
			 "HOMO_LUMO_gap": 0.18378, 
			 "cosmo_polarized_energy": -20.47, 
			 "cosmo_cavitation_energy": 45.81, 
			 "cosmo_dispersion_energy": -31.54, 
			 "cosmo_repulsion_energy": 2.33, 
			 "cosmo_total_nonelectrostatic_energy": 16.61, 
			 "SMD_solvation_energy": 4.63 
		},
		"coords": [
			{
				"x": -0.3917238279,
				"y": -0.289421,
				"z": -4.0091552816,
				"element": "C" 
			},
			{
				"x": -0.358799494,
				"y": 0.580687652,
				"z": -2.8698932931,
				"element": "O" 
			},
			{
				"x": -1.6058609443,
				"y": 0.8553209272,
				"z": -2.3376783056,
				"element": "C" 
			},
			{
				"x": -2.2634393049,
				"y": 2.0234765254,
				"z": -2.7258648975,
				"element": "C" 
			},
			{
				"x": -3.5271345056,
				"y": 2.3161467681,
				"z": -2.2136471651,
				"element": "C" 
			},
			{
				"x": -4.1394831729,
				"y": 1.4333056302,
				"z": -1.3207801482,
				"element": "C" 
			},
			{
				"x": -3.4759916118,
				"y": 0.2751528409,
				"z": -0.9225918089,
				"element": "C" 
			},
			{
				"x": -2.193768909,
				"y": -0.0258954512,
				"z": -1.4107052822,
				"element": "C" 
			},
			{
				"x": -1.5393277725,
				"y": -1.2690187439,
				"z": -0.9707375449,
				"element": "C" 
			},
			{
				"x": -2.1230151959,
				"y": -2.4500156369,
				"z": -0.944459861,
				"element": "N" 
			},
			{
				"x": -1.2282765329,
				"y": -3.3600271316,
				"z": -0.424578919,
				"element": "N" 
			},
			{
				"x": -0.1279389871,
				"y": -2.6986298955,
				"z": -0.1461702988,
				"element": "C" 
			},
			{
				"x": 1.2924161442,
				"y": -3.4086021284,
				"z": 0.6156850887,
				"element": "S" 
			},
			{
				"x": 2.3566354082,
				"y": -1.893217016,
				"z": 0.5554215561,
				"element": "C" 
			},
			{
				"x": 1.5996722818,
				"y": -0.6932908696,
				"z": 0.8582725285,
				"element": "N" 
			},
			{
				"x": 0.7340331838,
				"y": -0.3103142103,
				"z": -0.2384159682,
				"element": "C" 
			},
			{
				"x": -0.2548233802,
				"y": -1.3701589361,
				"z": -0.4650639741,
				"element": "N" 
			},
			{
				"x": 2.303672152,
				"y": 0.3568382728,
				"z": 1.5322651401,
				"element": "C" 
			},
			{
				"x": 2.595479482,
				"y": 0.2137971828,
				"z": 2.9077686117,
				"element": "C" 
			},
			{
				"x": 2.1706893614,
				"y": -1.0083132947,
				"z": 3.6849468298,
				"element": "C" 
			},
			{
				"x": 3.2722535096,
				"y": 1.2582524716,
				"z": 3.5486060611,
				"element": "C" 
			},
			{
				"x": 3.6412776763,
				"y": 2.4224336001,
				"z": 2.8743669836,
				"element": "C" 
			},
			{
				"x": 3.3335369436,
				"y": 2.5598473409,
				"z": 1.5223118857,
				"element": "C" 
			},
			{
				"x": 2.6763712482,
				"y": 1.5268528427,
				"z": 0.8545679697,
				"element": "C" 
			},
			{
				"x": -0.8364816093,
				"y": -1.259269158,
				"z": -3.758101246,
				"element": "H" 
			},
			{
				"x": 0.6449984451,
				"y": -0.4315900621,
				"z": -4.3206598838,
				"element": "H" 
			},
			{
				"x": -0.959758507,
				"y": 0.1652858468,
				"z": -4.8298447988,
				"element": "H" 
			},
			{
				"x": -1.7718437645,
				"y": 2.6845855566,
				"z": -3.432657344,
				"element": "H" 
			},
			{
				"x": -4.0345095299,
				"y": 3.2271379327,
				"z": -2.5172780275,
				"element": "H" 
			},
			{
				"x": -5.1274589133,
				"y": 1.6515825944,
				"z": -0.9273397619,
				"element": "H" 
			},
			{
				"x": -3.935982026,
				"y": -0.4172356073,
				"z": -0.2255558056,
				"element": "H" 
			},
			{
				"x": 3.1328180819,
				"y": -2.0518091067,
				"z": 1.3026585656,
				"element": "H" 
			},
			{
				"x": 2.8319055857,
				"y": -1.8398465642,
				"z": -0.4357497801,
				"element": "H" 
			},
			{
				"x": 1.2705285285,
				"y": -0.1370431002,
				"z": -1.1825300474,
				"element": "H" 
			},
			{
				"x": 0.1999938191,
				"y": 0.6048813243,
				"z": 0.0219305698,
				"element": "H" 
			},
			{
				"x": 1.2266130708,
				"y": -1.407391528,
				"z": 3.304756564,
				"element": "H" 
			},
			{
				"x": 2.9093449841,
				"y": -1.8181996568,
				"z": 3.621294468,
				"element": "H" 
			},
			{
				"x": 2.0537732231,
				"y": -0.7689621951,
				"z": 4.7454195333,
				"element": "H" 
			},
			{
				"x": 3.4928572251,
				"y": 1.1602812512,
				"z": 4.6086624557,
				"element": "H" 
			},
			{
				"x": 4.1553092605,
				"y": 3.2182221764,
				"z": 3.4051129802,
				"element": "H" 
			},
			{
				"x": 3.6096853637,
				"y": 3.4606590462,
				"z": 0.9821833551,
				"element": "H" 
			},
			{
				"x": 2.4583530107,
				"y": 1.631903509,
				"z": -0.2037717033,
				"element": "H" 
			}
		],
		 "valence_orbital": [ 
			{
				"type": "occ",
				"energy": -0.25335,
				"method": "rhf"
			},
			{
				"type": "occ",
				"energy": -0.25299,
				"method": "rhf"
			},
			{
				"type": "occ",
				"energy": -0.24503,
				"method": "rhf"
			},
			{
				"type": "occ",
				"energy": -0.22884,
				"method": "rhf"
			},
			{
				"type": "occ",
				"energy": -0.2124,
				"method": "rhf"
			},
			{
				"type": "unocc",
				"energy": -0.02862,
				"method": "rhf"
			},
			{
				"type": "unocc",
				"energy": -0.01186,
				"method": "rhf"
			},
			{
				"type": "unocc",
				"energy": -0.01043,
				"method": "rhf"
			},
			{
				"type": "unocc",
				"energy": -0.00928,
				"method": "rhf"
			},
			{
				"type": "unocc",
				"energy": 0.01501,
				"method": "rhf"
			}
		],
		"cosmo_sigma_profile": { 
			"-0.025": 0.0,
			"-0.024": 0.0,
			"-0.023": 0.0,
			"-0.022": 0.0,
			"-0.021": 0.0,
			"-0.02": 0.0,
			"-0.019": 0.0,
			"-0.018": 0.0,
			"-0.017": 0.0,
			"-0.016": 0.0,
			"-0.015": 0.0,
			"-0.014": 0.0,
			"-0.013": 0.0,
			"-0.012": 0.0,
			"-0.011": 0.0,
			"-0.01": 0.0575944689512,
			"-0.009": 1.64116676184,
			"-0.008": 5.07369436188,
			"-0.007": 11.3512382316,
			"-0.006": 21.4869370869,
			"-0.005": 30.0482377318,
			"-0.004": 33.5854702197,
			"-0.003": 33.4055845035,
			"-0.002": 30.4332387465,
			"-0.001": 23.9353047012,
			"0.0": 23.3706663484,
			"0.001": 23.4576713309,
			"0.002": 22.6560169011,
			"0.003": 24.4154103542,
			"0.004": 26.0193980343,
			"0.005": 15.6081728187,
			"0.006": 11.4635520633,
			"0.007": 4.01603866359,
			"0.008": 2.70648674702,
			"0.009": 2.52430320198,
			"0.01": 2.3836519468,
			"0.011": 2.51872787192,
			"0.012": 3.12007500976,
			"0.013": 2.9892717692,
			"0.014": 3.20383713974,
			"0.015": 2.86329171189,
			"0.016": 2.20056241164,
			"0.017": 0.779366514954,
			"0.018": 0.0,
			"0.019": 0.0,
			"0.02": 0.0,
			"0.021": 0.0,
			"0.022": 0.0,
			"0.023": 0.0,
			"0.024": 0.0,
			"0.025": 0.0
		}
	}
}
