{
	 "smiles": "CC1=CC=C(C=C1)N(CCC#N)C(=O)CCl", 
	 "Tm": 330.15, 
	 "num_atms": 29, 
	 "gaussian": { 
		 "optdone": 1, 
		 "sigma_profile": "yes", 
		 "theory": "DFT", 
		 "functional": "B3LYP", 
		 "basiset": "6-31G**", 
		 "properties": { 
			 "R2extent": 4969.491, 
			 "electric_dipole_moment_norm": 3.30377420082, 
			 "electric_quadrupole_moment_norm": 17.0352976763, 
			 "total_energy": -1110.03086577, 
			 "HOMO_LUMO_gap": 0.2169, 
			 "cosmo_polarized_energy": -14.66, 
			 "cosmo_cavitation_energy": 34.94, 
			 "cosmo_dispersion_energy": -23.48, 
			 "cosmo_repulsion_energy": 1.86, 
			 "cosmo_total_nonelectrostatic_energy": 13.32, 
			 "SMD_solvation_energy": 7.61 
		},
		"coords": [
			{
				"x": 3.1389823272,
				"y": -0.1496670633,
				"z": 2.9417018423,
				"element": "C" 
			},
			{
				"x": 1.9560240296,
				"y": 0.0905260603,
				"z": 2.0342234627,
				"element": "C" 
			},
			{
				"x": 0.7469281756,
				"y": 0.5863653355,
				"z": 2.5416131915,
				"element": "C" 
			},
			{
				"x": -0.3402516826,
				"y": 0.8420834887,
				"z": 1.7069739092,
				"element": "C" 
			},
			{
				"x": -0.2342638561,
				"y": 0.5962923613,
				"z": 0.3334598421,
				"element": "C" 
			},
			{
				"x": 0.9605147912,
				"y": 0.0886877671,
				"z": -0.188314786,
				"element": "C" 
			},
			{
				"x": 2.0420532376,
				"y": -0.1544086612,
				"z": 0.6572442906,
				"element": "C" 
			},
			{
				"x": -1.3648093732,
				"y": 0.8177572218,
				"z": -0.534423639,
				"element": "N" 
			},
			{
				"x": -2.4047866146,
				"y": -0.2182825674,
				"z": -0.6172472501,
				"element": "C" 
			},
			{
				"x": -3.8106626524,
				"y": 0.2655238996,
				"z": -0.1951923302,
				"element": "C" 
			},
			{
				"x": -3.8824506295,
				"y": 0.7100303187,
				"z": 1.1969885352,
				"element": "C" 
			},
			{
				"x": -3.9149516159,
				"y": 1.0645315772,
				"z": 2.3023135044,
				"element": "N" 
			},
			{
				"x": -1.4480388598,
				"y": 1.8420703077,
				"z": -1.449613913,
				"element": "C" 
			},
			{
				"x": -2.3667611706,
				"y": 1.911827375,
				"z": -2.2583917414,
				"element": "O" 
			},
			{
				"x": -0.3742102302,
				"y": 2.9267870447,
				"z": -1.4002752708,
				"element": "C" 
			},
			{
				"x": 0.8711839223,
				"y": 2.6542394667,
				"z": -2.691228257,
				"element": "Cl" 
			},
			{
				"x": 3.779654149,
				"y": -0.9505242212,
				"z": 2.5611483742,
				"element": "H" 
			},
			{
				"x": 3.7593758567,
				"y": 0.7512707529,
				"z": 3.0261860437,
				"element": "H" 
			},
			{
				"x": 2.8196785452,
				"y": -0.4199324497,
				"z": 3.9524574265,
				"element": "H" 
			},
			{
				"x": 0.6517196862,
				"y": 0.7774843769,
				"z": 3.6073300479,
				"element": "H" 
			},
			{
				"x": -1.2703022187,
				"y": 1.2223512337,
				"z": 2.116683484,
				"element": "H" 
			},
			{
				"x": 1.0393017238,
				"y": -0.1086640588,
				"z": -1.2523657191,
				"element": "H" 
			},
			{
				"x": 2.9657131258,
				"y": -0.545846838,
				"z": 0.2389569063,
				"element": "H" 
			},
			{
				"x": -2.481587842,
				"y": -0.5617013671,
				"z": -1.653838173,
				"element": "H" 
			},
			{
				"x": -2.0864657333,
				"y": -1.0532162754,
				"z": 0.0081983002,
				"element": "H" 
			},
			{
				"x": -4.11143355,
				"y": 1.0853789093,
				"z": -0.8531947442,
				"element": "H" 
			},
			{
				"x": -4.5239636726,
				"y": -0.5543152663,
				"z": -0.3393908444,
				"element": "H" 
			},
			{
				"x": -0.8543471667,
				"y": 3.876344464,
				"z": -1.6311892645,
				"element": "H" 
			},
			{
				"x": 0.1540572981,
				"y": 2.977906807,
				"z": -0.450413228,
				"element": "H" 
			}
		],
		 "valence_orbital": [ 
			{
				"type": "occ",
				"energy": -0.30478,
				"method": "rhf"
			},
			{
				"type": "occ",
				"energy": -0.27511,
				"method": "rhf"
			},
			{
				"type": "occ",
				"energy": -0.26665,
				"method": "rhf"
			},
			{
				"type": "occ",
				"energy": -0.26498,
				"method": "rhf"
			},
			{
				"type": "occ",
				"energy": -0.24969,
				"method": "rhf"
			},
			{
				"type": "unocc",
				"energy": -0.03279,
				"method": "rhf"
			},
			{
				"type": "unocc",
				"energy": -0.01954,
				"method": "rhf"
			},
			{
				"type": "unocc",
				"energy": -0.01443,
				"method": "rhf"
			},
			{
				"type": "unocc",
				"energy": 0.02449,
				"method": "rhf"
			},
			{
				"type": "unocc",
				"energy": 0.03628,
				"method": "rhf"
			}
		],
		"cosmo_sigma_profile": { 
			"-0.025": 0.0,
			"-0.024": 0.0,
			"-0.023": 0.0,
			"-0.022": 0.0,
			"-0.021": 0.0,
			"-0.02": 0.0,
			"-0.019": 0.0,
			"-0.018": 0.0,
			"-0.017": 0.0,
			"-0.016": 0.0,
			"-0.015": 0.0,
			"-0.014": 0.0,
			"-0.013": 0.0,
			"-0.012": 0.0,
			"-0.011": 0.0,
			"-0.01": 0.0,
			"-0.009": 2.5443818108,
			"-0.008": 6.85997342643,
			"-0.007": 11.1300520431,
			"-0.006": 16.9381579306,
			"-0.005": 20.7958233539,
			"-0.004": 26.6989369127,
			"-0.003": 22.3035969227,
			"-0.002": 18.8454487406,
			"-0.001": 20.7763150291,
			"0.0": 17.9837711109,
			"0.001": 15.7201363173,
			"0.002": 14.2725075885,
			"0.003": 15.1705572583,
			"0.004": 17.7088729044,
			"0.005": 13.6043860489,
			"0.006": 8.5604268955,
			"0.007": 3.85305515883,
			"0.008": 3.98793095753,
			"0.009": 4.22138201614,
			"0.01": 3.76362820084,
			"0.011": 4.63054489647,
			"0.012": 5.05846672168,
			"0.013": 4.29354866487,
			"0.014": 0.681299664908,
			"0.015": 0.0,
			"0.016": 0.0,
			"0.017": 0.0,
			"0.018": 0.0,
			"0.019": 0.0,
			"0.02": 0.0,
			"0.021": 0.0,
			"0.022": 0.0,
			"0.023": 0.0,
			"0.024": 0.0,
			"0.025": 0.0
		}
	}
}
