{
	 "smiles": "NC1=CC(=C(C=C1)N1CCCCC1)S(=O)(=O)NC1=C(Cl)C=CC=C1", 
	 "Tm": 420.15, 
	 "num_atms": 44, 
	 "gaussian": { 
		 "optdone": 1, 
		 "sigma_profile": "yes", 
		 "theory": "DFT", 
		 "functional": "B3LYP", 
		 "basiset": "6-31G**", 
		 "properties": { 
			 "R2extent": 8656.5362, 
			 "electric_dipole_moment_norm": 5.19614476896, 
			 "electric_quadrupole_moment_norm": 34.5328496562, 
			 "total_energy": -1832.86639853, 
			 "HOMO_LUMO_gap": 0.16246, 
			 "cosmo_polarized_energy": -17.82, 
			 "cosmo_cavitation_energy": 47.01, 
			 "cosmo_dispersion_energy": -31.83, 
			 "cosmo_repulsion_energy": 2.37, 
			 "cosmo_total_nonelectrostatic_energy": 17.55, 
			 "SMD_solvation_energy": 6.13 
		},
		"coords": [
			{
				"x": -0.7306252915,
				"y": -2.6494076501,
				"z": 5.2652198783,
				"element": "N" 
			},
			{
				"x": -0.6150625154,
				"y": -2.3116430323,
				"z": 3.9186690535,
				"element": "C" 
			},
			{
				"x": -1.5751281102,
				"y": -1.4992630553,
				"z": 3.2980042204,
				"element": "C" 
			},
			{
				"x": -1.4856723681,
				"y": -1.207269485,
				"z": 1.9354931287,
				"element": "C" 
			},
			{
				"x": -0.4551995317,
				"y": -1.7220084458,
				"z": 1.1234650585,
				"element": "C" 
			},
			{
				"x": 0.4943955191,
				"y": -2.5315831024,
				"z": 1.7701132675,
				"element": "C" 
			},
			{
				"x": 0.4325616657,
				"y": -2.8144392098,
				"z": 3.1296085184,
				"element": "C" 
			},
			{
				"x": -0.4010664224,
				"y": -1.4464991387,
				"z": -0.2716255905,
				"element": "N" 
			},
			{
				"x": -1.1157751002,
				"y": -2.4574370846,
				"z": -1.0882410421,
				"element": "C" 
			},
			{
				"x": -0.8594733939,
				"y": -2.2094673706,
				"z": -2.5748912317,
				"element": "C" 
			},
			{
				"x": 0.6314131917,
				"y": -2.4080791707,
				"z": -2.9379697972,
				"element": "C" 
			},
			{
				"x": 1.5471386176,
				"y": -2.1127575121,
				"z": -1.7279245804,
				"element": "C" 
			},
			{
				"x": 0.9199023081,
				"y": -1.0504021981,
				"z": -0.8154586151,
				"element": "C" 
			},
			{
				"x": -2.75550332,
				"y": -0.0773882457,
				"z": 1.3095484261,
				"element": "S" 
			},
			{
				"x": -3.5798253201,
				"y": 0.2842875439,
				"z": 2.464548587,
				"element": "O" 
			},
			{
				"x": -3.3714164684,
				"y": -0.5980018506,
				"z": 0.0895168212,
				"element": "O" 
			},
			{
				"x": -1.9752236551,
				"y": 1.3762939497,
				"z": 0.9243885735,
				"element": "N" 
			},
			{
				"x": -1.3519067137,
				"y": 1.7640532075,
				"z": -0.2741117177,
				"element": "C" 
			},
			{
				"x": -0.1759983165,
				"y": 2.536034943,
				"z": -0.2377837309,
				"element": "C" 
			},
			{
				"x": 0.5675137967,
				"y": 2.9295784983,
				"z": 1.3148977443,
				"element": "Cl" 
			},
			{
				"x": 0.4169909421,
				"y": 3.0243118183,
				"z": -1.4008605203,
				"element": "C" 
			},
			{
				"x": -0.1477590812,
				"y": 2.7275509517,
				"z": -2.6389289855,
				"element": "C" 
			},
			{
				"x": -1.3135180621,
				"y": 1.9588569818,
				"z": -2.6953198889,
				"element": "C" 
			},
			{
				"x": -1.9194583733,
				"y": 1.4961590572,
				"z": -1.5315237427,
				"element": "C" 
			},
			{
				"x": 0.1307705628,
				"y": -2.9048238615,
				"z": 5.7270858821,
				"element": "H" 
			},
			{
				"x": -1.2952171028,
				"y": -2.0252589162,
				"z": 5.8242431984,
				"element": "H" 
			},
			{
				"x": -2.3950501754,
				"y": -1.0798921215,
				"z": 3.8702174051,
				"element": "H" 
			},
			{
				"x": 1.3047565524,
				"y": -2.9529576392,
				"z": 1.1832285991,
				"element": "H" 
			},
			{
				"x": 1.1911373748,
				"y": -3.4475392973,
				"z": 3.5834893274,
				"element": "H" 
			},
			{
				"x": -0.790619772,
				"y": -3.4801470978,
				"z": -0.8239413034,
				"element": "H" 
			},
			{
				"x": -2.1811191206,
				"y": -2.382167125,
				"z": -0.8615427422,
				"element": "H" 
			},
			{
				"x": -1.4943002348,
				"y": -2.8766246592,
				"z": -3.1675806092,
				"element": "H" 
			},
			{
				"x": -1.1732240891,
				"y": -1.1860386099,
				"z": -2.8070339613,
				"element": "H" 
			},
			{
				"x": 0.8938467667,
				"y": -1.7512520743,
				"z": -3.7752709568,
				"element": "H" 
			},
			{
				"x": 0.804869416,
				"y": -3.4335108158,
				"z": -3.2842424186,
				"element": "H" 
			},
			{
				"x": 2.5339935335,
				"y": -1.7726310702,
				"z": -2.062290088,
				"element": "H" 
			},
			{
				"x": 1.7155248373,
				"y": -3.032666569,
				"z": -1.1544102008,
				"element": "H" 
			},
			{
				"x": 0.7956984248,
				"y": -0.1205189771,
				"z": -1.3867335224,
				"element": "H" 
			},
			{
				"x": 1.5838654758,
				"y": -0.8120072367,
				"z": 0.0203586801,
				"element": "H" 
			},
			{
				"x": -1.6344643181,
				"y": 1.8304655519,
				"z": 1.7648898629,
				"element": "H" 
			},
			{
				"x": 1.3161492225,
				"y": 3.6257226757,
				"z": -1.3244329114,
				"element": "H" 
			},
			{
				"x": 0.3138653044,
				"y": 3.1025108784,
				"z": -3.5467950339,
				"element": "H" 
			},
			{
				"x": -1.7720038655,
				"y": 1.7356538151,
				"z": -3.6540152409,
				"element": "H" 
			},
			{
				"x": -2.8355827901,
				"y": 0.9215027504,
				"z": -1.5694578005,
				"element": "H" 
			}
		],
		 "valence_orbital": [ 
			{
				"type": "occ",
				"energy": -0.26615,
				"method": "rhf"
			},
			{
				"type": "occ",
				"energy": -0.25285,
				"method": "rhf"
			},
			{
				"type": "occ",
				"energy": -0.22792,
				"method": "rhf"
			},
			{
				"type": "occ",
				"energy": -0.22478,
				"method": "rhf"
			},
			{
				"type": "occ",
				"energy": -0.19723,
				"method": "rhf"
			},
			{
				"type": "unocc",
				"energy": -0.03477,
				"method": "rhf"
			},
			{
				"type": "unocc",
				"energy": -0.01277,
				"method": "rhf"
			},
			{
				"type": "unocc",
				"energy": -0.00723,
				"method": "rhf"
			},
			{
				"type": "unocc",
				"energy": -0.00036,
				"method": "rhf"
			},
			{
				"type": "unocc",
				"energy": 0.0211,
				"method": "rhf"
			}
		],
		"cosmo_sigma_profile": { 
			"-0.025": 0.0,
			"-0.024": 0.0,
			"-0.023": 0.0,
			"-0.022": 0.0,
			"-0.021": 0.0,
			"-0.02": 0.0,
			"-0.019": 0.0,
			"-0.018": 0.0,
			"-0.017": 0.0,
			"-0.016": 0.0,
			"-0.015": 0.0,
			"-0.014": 0.0257735477948,
			"-0.013": 1.41804017773,
			"-0.012": 4.30367129267,
			"-0.011": 3.29586220555,
			"-0.01": 4.21748916484,
			"-0.009": 4.85487137264,
			"-0.008": 4.95522307519,
			"-0.007": 6.2731538631,
			"-0.006": 12.0013888132,
			"-0.005": 15.4391746118,
			"-0.004": 16.7698574813,
			"-0.003": 22.5473016166,
			"-0.002": 28.2131933514,
			"-0.001": 42.2612442008,
			"0.0": 39.0480994949,
			"0.001": 41.2726054269,
			"0.002": 33.2516094783,
			"0.003": 23.0185296346,
			"0.004": 25.1317096342,
			"0.005": 9.06730673035,
			"0.006": 4.99817173809,
			"0.007": 4.54374249961,
			"0.008": 4.57895130597,
			"0.009": 4.9736021404,
			"0.01": 6.12490494273,
			"0.011": 7.21577910311,
			"0.012": 2.47932810525,
			"0.013": 0.84290607829,
			"0.014": 0.276981875535,
			"0.015": 0.0,
			"0.016": 0.0,
			"0.017": 0.0,
			"0.018": 0.0,
			"0.019": 0.0,
			"0.02": 0.0,
			"0.021": 0.0,
			"0.022": 0.0,
			"0.023": 0.0,
			"0.024": 0.0,
			"0.025": 0.0
		}
	}
}
