{
	 "smiles": "CCCCC1=CC=C(C=C1)C1=CC=CC=C1", 
	 "Tm": 280.15, 
	 "num_atms": 34, 
	 "gaussian": { 
		 "optdone": 1, 
		 "sigma_profile": "yes", 
		 "theory": "DFT", 
		 "functional": "B3LYP", 
		 "basiset": "6-31G**", 
		 "properties": { 
			 "R2extent": 5319.9736, 
			 "electric_dipole_moment_norm": 0.399533690695, 
			 "electric_quadrupole_moment_norm": 8.97468624298, 
			 "total_energy": -620.574996859, 
			 "HOMO_LUMO_gap": 0.19207, 
			 "cosmo_polarized_energy": -5.09, 
			 "cosmo_cavitation_energy": 35.97, 
			 "cosmo_dispersion_energy": -25.37, 
			 "cosmo_repulsion_energy": 1.99, 
			 "cosmo_total_nonelectrostatic_energy": 12.59, 
			 "SMD_solvation_energy": 5.48 
		},
		"coords": [
			{
				"x": 3.2216015291,
				"y": 0.6264224173,
				"z": -2.0281697105,
				"element": "C" 
			},
			{
				"x": 2.8414162129,
				"y": 0.3980537916,
				"z": -3.496622035,
				"element": "C" 
			},
			{
				"x": 1.4265911,
				"y": 0.8504206316,
				"z": -3.901826675,
				"element": "C" 
			},
			{
				"x": 0.2576377703,
				"y": -0.0506976613,
				"z": -3.4400830472,
				"element": "C" 
			},
			{
				"x": -0.0929764441,
				"y": -0.0056825561,
				"z": -1.9660766514,
				"element": "C" 
			},
			{
				"x": -0.5641672936,
				"y": 1.1745158909,
				"z": -1.3718688875,
				"element": "C" 
			},
			{
				"x": -0.9036302228,
				"y": 1.2194346781,
				"z": -0.0226919581,
				"element": "C" 
			},
			{
				"x": -0.7897004869,
				"y": 0.0807992087,
				"z": 0.7940188906,
				"element": "C" 
			},
			{
				"x": -0.3262056399,
				"y": -1.1024787722,
				"z": 0.1977113045,
				"element": "C" 
			},
			{
				"x": 0.0114689795,
				"y": -1.142416791,
				"z": -1.1545086288,
				"element": "C" 
			},
			{
				"x": -1.1504650243,
				"y": 0.1280774098,
				"z": 2.2336277606,
				"element": "C" 
			},
			{
				"x": -1.7890705922,
				"y": -0.9586501537,
				"z": 2.8557937001,
				"element": "C" 
			},
			{
				"x": -2.1256527499,
				"y": -0.91503517,
				"z": 4.2080377,
				"element": "C" 
			},
			{
				"x": -1.8339764329,
				"y": 0.2181558269,
				"z": 4.9697556737,
				"element": "C" 
			},
			{
				"x": -1.2013221448,
				"y": 1.3064464848,
				"z": 4.3658490072,
				"element": "C" 
			},
			{
				"x": -0.8625899465,
				"y": 1.2611058529,
				"z": 3.0141724942,
				"element": "C" 
			},
			{
				"x": 3.1089793841,
				"y": 1.6817364337,
				"z": -1.7540437543,
				"element": "H" 
			},
			{
				"x": 2.6007289369,
				"y": 0.0422521805,
				"z": -1.3450160701,
				"element": "H" 
			},
			{
				"x": 4.2666144743,
				"y": 0.3486473315,
				"z": -1.8521898832,
				"element": "H" 
			},
			{
				"x": 2.9620257389,
				"y": -0.6651064652,
				"z": -3.7481347272,
				"element": "H" 
			},
			{
				"x": 3.559799563,
				"y": 0.9360798125,
				"z": -4.1289874227,
				"element": "H" 
			},
			{
				"x": 1.2575318441,
				"y": 1.8781842368,
				"z": -3.55291048,
				"element": "H" 
			},
			{
				"x": 1.3841819991,
				"y": 0.8945634403,
				"z": -4.9977323378,
				"element": "H" 
			},
			{
				"x": 0.4751001418,
				"y": -1.0870128866,
				"z": -3.7275231442,
				"element": "H" 
			},
			{
				"x": -0.6326318635,
				"y": 0.2409853777,
				"z": -4.0138882938,
				"element": "H" 
			},
			{
				"x": -0.6801439993,
				"y": 2.070312059,
				"z": -1.9775876073,
				"element": "H" 
			},
			{
				"x": -1.2909978899,
				"y": 2.1421032032,
				"z": 0.3998755774,
				"element": "H" 
			},
			{
				"x": -0.20554026,
				"y": -1.9953833831,
				"z": 0.8043455498,
				"element": "H" 
			},
			{
				"x": 0.3732412592,
				"y": -2.0729812116,
				"z": -1.5856050579,
				"element": "H" 
			},
			{
				"x": -2.0456743428,
				"y": -1.8341388618,
				"z": 2.2665032776,
				"element": "H" 
			},
			{
				"x": -2.6255752892,
				"y": -1.7645544862,
				"z": 4.6651085138,
				"element": "H" 
			},
			{
				"x": -2.0970570143,
				"y": 0.2527999935,
				"z": 6.0230142595,
				"element": "H" 
			},
			{
				"x": -0.9617117719,
				"y": 2.190289149,
				"z": 4.9505943951,
				"element": "H" 
			},
			{
				"x": -0.3458295244,
				"y": 2.1023529882,
				"z": 2.5615582681,
				"element": "H" 
			}
		],
		 "valence_orbital": [ 
			{
				"type": "occ",
				"energy": -0.31346,
				"method": "rhf"
			},
			{
				"type": "occ",
				"energy": -0.26373,
				"method": "rhf"
			},
			{
				"type": "occ",
				"energy": -0.24768,
				"method": "rhf"
			},
			{
				"type": "occ",
				"energy": -0.24696,
				"method": "rhf"
			},
			{
				"type": "occ",
				"energy": -0.21597,
				"method": "rhf"
			},
			{
				"type": "unocc",
				"energy": -0.0239,
				"method": "rhf"
			},
			{
				"type": "unocc",
				"energy": -0.0017,
				"method": "rhf"
			},
			{
				"type": "unocc",
				"energy": 0.00259,
				"method": "rhf"
			},
			{
				"type": "unocc",
				"energy": 0.03189,
				"method": "rhf"
			},
			{
				"type": "unocc",
				"energy": 0.09177,
				"method": "rhf"
			}
		],
		"cosmo_sigma_profile": { 
			"-0.025": 0.0,
			"-0.024": 0.0,
			"-0.023": 0.0,
			"-0.022": 0.0,
			"-0.021": 0.0,
			"-0.02": 0.0,
			"-0.019": 0.0,
			"-0.018": 0.0,
			"-0.017": 0.0,
			"-0.016": 0.0,
			"-0.015": 0.0,
			"-0.014": 0.0,
			"-0.013": 0.0,
			"-0.012": 0.0,
			"-0.011": 0.0,
			"-0.01": 0.0,
			"-0.009": 0.0,
			"-0.008": 0.0,
			"-0.007": 0.0,
			"-0.006": 3.19922052699,
			"-0.005": 17.1960852779,
			"-0.004": 22.0675844268,
			"-0.003": 27.1173744741,
			"-0.002": 29.5015818483,
			"-0.001": 33.6185155035,
			"0.0": 31.8879785553,
			"0.001": 31.5839831643,
			"0.002": 21.788740427,
			"0.003": 17.2309437364,
			"0.004": 18.1212452823,
			"0.005": 16.6592669742,
			"0.006": 13.2350949791,
			"0.007": 0.626876817899,
			"0.008": 0.0,
			"0.009": 0.0,
			"0.01": 0.0,
			"0.011": 0.0,
			"0.012": 0.0,
			"0.013": 0.0,
			"0.014": 0.0,
			"0.015": 0.0,
			"0.016": 0.0,
			"0.017": 0.0,
			"0.018": 0.0,
			"0.019": 0.0,
			"0.02": 0.0,
			"0.021": 0.0,
			"0.022": 0.0,
			"0.023": 0.0,
			"0.024": 0.0,
			"0.025": 0.0
		}
	}
}
