{
	 "smiles": "C1CC=CC1", 
	 "Tm": 138.15, 
	 "num_atms": 13, 
	 "gaussian": { 
		 "optdone": 1, 
		 "sigma_profile": "yes", 
		 "theory": "DFT", 
		 "functional": "B3LYP", 
		 "basiset": "6-31G**", 
		 "properties": { 
			 "R2extent": 531.7317, 
			 "electric_dipole_moment_norm": 0.156173653348, 
			 "electric_quadrupole_moment_norm": 1.03360774958, 
			 "total_energy": -195.334951625, 
			 "HOMO_LUMO_gap": 0.26503, 
			 "cosmo_polarized_energy": -1.14, 
			 "cosmo_cavitation_energy": 14.98, 
			 "cosmo_dispersion_energy": -11.67, 
			 "cosmo_repulsion_energy": 1.04, 
			 "cosmo_total_nonelectrostatic_energy": 4.35, 
			 "SMD_solvation_energy": 2.33 
		},
		"coords": [
			{
				"x": -1.454955453,
				"y": -0.3049448516,
				"z": 1.3321647887,
				"element": "C" 
			},
			{
				"x": -0.3328503785,
				"y": -1.1827579697,
				"z": 1.9500500603,
				"element": "C" 
			},
			{
				"x": 0.6322159509,
				"y": -1.3643697823,
				"z": 0.799695344,
				"element": "C" 
			},
			{
				"x": 0.3648258468,
				"y": -0.5392530316,
				"z": -0.2156222462,
				"element": "C" 
			},
			{
				"x": -0.8281578941,
				"y": 0.3457922111,
				"z": 0.0691726409,
				"element": "C" 
			},
			{
				"x": -1.8509522329,
				"y": 0.4326846113,
				"z": 2.0359020073,
				"element": "H" 
			},
			{
				"x": -2.2904432489,
				"y": -0.9458156981,
				"z": 1.0313535051,
				"element": "H" 
			},
			{
				"x": -0.7145394466,
				"y": -2.1327570198,
				"z": 2.3435416511,
				"element": "H" 
			},
			{
				"x": 0.163775391,
				"y": -0.6798664597,
				"z": 2.7933149881,
				"element": "H" 
			},
			{
				"x": 1.4632885353,
				"y": -2.0631292254,
				"z": 0.8339264709,
				"element": "H" 
			},
			{
				"x": 0.945957142,
				"y": -0.4666311494,
				"z": -1.1305713941,
				"element": "H" 
			},
			{
				"x": -1.5341188753,
				"y": 0.3965513309,
				"z": -0.7687168791,
				"element": "H" 
			},
			{
				"x": -0.5036453368,
				"y": 1.3798970343,
				"z": 0.2587890629,
				"element": "H" 
			}
		],
		 "valence_orbital": [ 
			{
				"type": "occ",
				"energy": -0.34215,
				"method": "rhf"
			},
			{
				"type": "occ",
				"energy": -0.34112,
				"method": "rhf"
			},
			{
				"type": "occ",
				"energy": -0.33678,
				"method": "rhf"
			},
			{
				"type": "occ",
				"energy": -0.33303,
				"method": "rhf"
			},
			{
				"type": "occ",
				"energy": -0.23292,
				"method": "rhf"
			},
			{
				"type": "unocc",
				"energy": 0.03211,
				"method": "rhf"
			},
			{
				"type": "unocc",
				"energy": 0.09953,
				"method": "rhf"
			},
			{
				"type": "unocc",
				"energy": 0.12547,
				"method": "rhf"
			},
			{
				"type": "unocc",
				"energy": 0.14912,
				"method": "rhf"
			},
			{
				"type": "unocc",
				"energy": 0.15338,
				"method": "rhf"
			}
		],
		"cosmo_sigma_profile": { 
			"-0.025": 0.0,
			"-0.024": 0.0,
			"-0.023": 0.0,
			"-0.022": 0.0,
			"-0.021": 0.0,
			"-0.02": 0.0,
			"-0.019": 0.0,
			"-0.018": 0.0,
			"-0.017": 0.0,
			"-0.016": 0.0,
			"-0.015": 0.0,
			"-0.014": 0.0,
			"-0.013": 0.0,
			"-0.012": 0.0,
			"-0.011": 0.0,
			"-0.01": 0.0,
			"-0.009": 0.0,
			"-0.008": 0.0,
			"-0.007": 0.0,
			"-0.006": 0.0,
			"-0.005": 1.62703496692,
			"-0.004": 3.79817052573,
			"-0.003": 9.836644672,
			"-0.002": 16.709082548,
			"-0.001": 20.6274895447,
			"0.0": 23.1833617382,
			"0.001": 18.81912482,
			"0.002": 6.55930117613,
			"0.003": 4.31948300558,
			"0.004": 3.62898300929,
			"0.005": 2.72789607467,
			"0.006": 2.77021852452,
			"0.007": 2.06544409205,
			"0.008": 0.420998267085,
			"0.009": 0.0,
			"0.01": 0.0,
			"0.011": 0.0,
			"0.012": 0.0,
			"0.013": 0.0,
			"0.014": 0.0,
			"0.015": 0.0,
			"0.016": 0.0,
			"0.017": 0.0,
			"0.018": 0.0,
			"0.019": 0.0,
			"0.02": 0.0,
			"0.021": 0.0,
			"0.022": 0.0,
			"0.023": 0.0,
			"0.024": 0.0,
			"0.025": 0.0
		}
	}
}
