{
	 "smiles": "CC(=O)N1CCC2=CC(=CC=C12)S(Cl)(=O)=O", 
	 "Tm": 446.15, 
	 "num_atms": 26, 
	 "gaussian": { 
		 "optdone": 1, 
		 "sigma_profile": "yes", 
		 "theory": "DFT", 
		 "functional": "B3LYP", 
		 "basiset": "6-31G**", 
		 "properties": { 
			 "R2extent": 8235.0995, 
			 "electric_dipole_moment_norm": 8.42046411429, 
			 "electric_quadrupole_moment_norm": 23.9067080042, 
			 "total_energy": -1525.84920558, 
			 "HOMO_LUMO_gap": 0.15764, 
			 "cosmo_polarized_energy": -16.4, 
			 "cosmo_cavitation_energy": 32.96, 
			 "cosmo_dispersion_energy": -24.66, 
			 "cosmo_repulsion_energy": 1.87, 
			 "cosmo_total_nonelectrostatic_energy": 10.16, 
			 "SMD_solvation_energy": 4.32 
		},
		"coords": [
			{
				"x": 0.702988656,
				"y": 2.6502794815,
				"z": -1.670373654,
				"element": "C" 
			},
			{
				"x": -0.3696823638,
				"y": 1.9388831884,
				"z": -0.8651319324,
				"element": "C" 
			},
			{
				"x": -1.5610973928,
				"y": 2.1282554183,
				"z": -1.0629022368,
				"element": "O" 
			},
			{
				"x": 0.0855451479,
				"y": 1.0673126563,
				"z": 0.1158094442,
				"element": "N" 
			},
			{
				"x": 1.515194906,
				"y": 0.7503577492,
				"z": 0.3533618488,
				"element": "C" 
			},
			{
				"x": 1.5254408882,
				"y": -0.1084109963,
				"z": 1.6410252412,
				"element": "C" 
			},
			{
				"x": 0.069336045,
				"y": -0.4607455456,
				"z": 1.8370733419,
				"element": "C" 
			},
			{
				"x": -0.5083318447,
				"y": -1.3253392214,
				"z": 2.7486919478,
				"element": "C" 
			},
			{
				"x": -1.90631475,
				"y": -1.4289298275,
				"z": 2.7509876252,
				"element": "C" 
			},
			{
				"x": -2.710850725,
				"y": -0.6957119142,
				"z": 1.8759824789,
				"element": "C" 
			},
			{
				"x": -2.1266735307,
				"y": 0.1779464858,
				"z": 0.9592571067,
				"element": "C" 
			},
			{
				"x": -0.7297360584,
				"y": 0.2793727045,
				"z": 0.945182128,
				"element": "C" 
			},
			{
				"x": -2.6743241756,
				"y": -2.5315334751,
				"z": 3.9114230498,
				"element": "S" 
			},
			{
				"x": -2.7270267138,
				"y": -4.3691675448,
				"z": 2.8045839988,
				"element": "Cl" 
			},
			{
				"x": -4.0671020992,
				"y": -2.1489222683,
				"z": 4.1093607043,
				"element": "O" 
			},
			{
				"x": -1.7669567329,
				"y": -2.7730657987,
				"z": 5.0278378681,
				"element": "O" 
			},
			{
				"x": 1.3076190139,
				"y": 3.3076321755,
				"z": -1.0360439209,
				"element": "H" 
			},
			{
				"x": 1.3826354535,
				"y": 1.9442166997,
				"z": -2.1588407065,
				"element": "H" 
			},
			{
				"x": 0.2021153184,
				"y": 3.2513900843,
				"z": -2.4282993611,
				"element": "H" 
			},
			{
				"x": 1.9175621993,
				"y": 0.1922208394,
				"z": -0.50000865,
				"element": "H" 
			},
			{
				"x": 2.0983852989,
				"y": 1.6671139398,
				"z": 0.4623397088,
				"element": "H" 
			},
			{
				"x": 1.9045624877,
				"y": 0.4639407773,
				"z": 2.4956010182,
				"element": "H" 
			},
			{
				"x": 2.1646216655,
				"y": -0.9892622564,
				"z": 1.53347582,
				"element": "H" 
			},
			{
				"x": 0.0865102129,
				"y": -1.898608346,
				"z": 3.4514698488,
				"element": "H" 
			},
			{
				"x": -3.7889796093,
				"y": -0.8020195209,
				"z": 1.9182386284,
				"element": "H" 
			},
			{
				"x": -2.7236412972,
				"y": 0.7641945154,
				"z": 0.2766986537,
				"element": "H" 
			}
		],
		 "valence_orbital": [ 
			{
				"type": "occ",
				"energy": -0.31337,
				"method": "rhf"
			},
			{
				"type": "occ",
				"energy": -0.30484,
				"method": "rhf"
			},
			{
				"type": "occ",
				"energy": -0.27985,
				"method": "rhf"
			},
			{
				"type": "occ",
				"energy": -0.27276,
				"method": "rhf"
			},
			{
				"type": "occ",
				"energy": -0.24144,
				"method": "rhf"
			},
			{
				"type": "unocc",
				"energy": -0.0838,
				"method": "rhf"
			},
			{
				"type": "unocc",
				"energy": -0.04013,
				"method": "rhf"
			},
			{
				"type": "unocc",
				"energy": -0.03406,
				"method": "rhf"
			},
			{
				"type": "unocc",
				"energy": 0.01166,
				"method": "rhf"
			},
			{
				"type": "unocc",
				"energy": 0.05615,
				"method": "rhf"
			}
		],
		"cosmo_sigma_profile": { 
			"-0.025": 0.0,
			"-0.024": 0.0,
			"-0.023": 0.0,
			"-0.022": 0.0,
			"-0.021": 0.0,
			"-0.02": 0.0,
			"-0.019": 0.0,
			"-0.018": 0.0,
			"-0.017": 0.0,
			"-0.016": 0.0,
			"-0.015": 0.0,
			"-0.014": 0.0,
			"-0.013": 0.0,
			"-0.012": 0.0,
			"-0.011": 0.0,
			"-0.01": 0.0,
			"-0.009": 0.128390238494,
			"-0.008": 3.7175212049,
			"-0.007": 10.0683119505,
			"-0.006": 22.1026552285,
			"-0.005": 24.4120796698,
			"-0.004": 21.0069466811,
			"-0.003": 17.7609451429,
			"-0.002": 16.3899834273,
			"-0.001": 18.1328825752,
			"0.0": 18.2042390344,
			"0.001": 20.6949769505,
			"0.002": 16.146136797,
			"0.003": 13.2229581864,
			"0.004": 16.8938905144,
			"0.005": 6.62759072317,
			"0.006": 4.81042515428,
			"0.007": 6.38390500165,
			"0.008": 10.7039151397,
			"0.009": 8.82710479243,
			"0.01": 1.9851584455,
			"0.011": 1.86407443345,
			"0.012": 2.79014299688,
			"0.013": 2.07784394826,
			"0.014": 0.721215479347,
			"0.015": 0.0,
			"0.016": 0.0,
			"0.017": 0.0,
			"0.018": 0.0,
			"0.019": 0.0,
			"0.02": 0.0,
			"0.021": 0.0,
			"0.022": 0.0,
			"0.023": 0.0,
			"0.024": 0.0,
			"0.025": 0.0
		}
	}
}
