{
	 "smiles": "CC1=CC=C(O1)C(C1=CC=C(C)O1)C1=CC(Br)=CC(C)=C1O", 
	 "Tm": 471.15, 
	 "num_atms": 39, 
	 "gaussian": { 
		 "optdone": 1, 
		 "sigma_profile": "yes", 
		 "theory": "DFT", 
		 "functional": "B3LYP", 
		 "basiset": "6-31G**", 
		 "properties": { 
			 "R2extent": 11028.2554, 
			 "electric_dipole_moment_norm": 3.8112419157, 
			 "electric_quadrupole_moment_norm": 11.4647320527, 
			 "total_energy": -3493.21491512, 
			 "HOMO_LUMO_gap": 0.19756, 
			 "cosmo_polarized_energy": -9.88, 
			 "cosmo_cavitation_energy": 45.07, 
			 "cosmo_dispersion_energy": -30.72, 
			 "cosmo_repulsion_energy": 2.42, 
			 "cosmo_total_nonelectrostatic_energy": 16.77, 
			 "SMD_solvation_energy": 7.44 
		},
		"coords": [
			{
				"x": 0.5984032575,
				"y": 3.932198216,
				"z": -0.3589938619,
				"element": "C" 
			},
			{
				"x": -0.1888191156,
				"y": 3.0672800184,
				"z": 0.5598218399,
				"element": "C" 
			},
			{
				"x": -1.0662015399,
				"y": 3.3045697489,
				"z": 1.573002016,
				"element": "C" 
			},
			{
				"x": -1.4865911489,
				"y": 2.0264112475,
				"z": 2.0757294422,
				"element": "C" 
			},
			{
				"x": -0.8414065264,
				"y": 1.0839761988,
				"z": 1.338128258,
				"element": "C" 
			},
			{
				"x": -0.0377096123,
				"y": 1.7059348693,
				"z": 0.4094725718,
				"element": "O" 
			},
			{
				"x": -0.8541453487,
				"y": -0.4228430787,
				"z": 1.3362011035,
				"element": "C" 
			},
			{
				"x": 0.5364753837,
				"y": -1.0049999817,
				"z": 1.3986785476,
				"element": "C" 
			},
			{
				"x": 1.2167617434,
				"y": -1.9351142736,
				"z": 0.6720804514,
				"element": "C" 
			},
			{
				"x": 2.5046520321,
				"y": -2.0702137641,
				"z": 1.2912634834,
				"element": "C" 
			},
			{
				"x": 2.5230849844,
				"y": -1.2155099743,
				"z": 2.3526690669,
				"element": "C" 
			},
			{
				"x": 3.5386523163,
				"y": -0.8767852371,
				"z": 3.386684333,
				"element": "C" 
			},
			{
				"x": 1.3227351072,
				"y": -0.5576710301,
				"z": 2.4302165348,
				"element": "O" 
			},
			{
				"x": -1.6956230042,
				"y": -1.0423896922,
				"z": 0.2116553364,
				"element": "C" 
			},
			{
				"x": -2.801805612,
				"y": -1.8209946531,
				"z": 0.5798215158,
				"element": "C" 
			},
			{
				"x": -3.5933935416,
				"y": -2.4272597328,
				"z": -0.3851764559,
				"element": "C" 
			},
			{
				"x": -5.09662836,
				"y": -3.4848260677,
				"z": 0.1510123708,
				"element": "Br" 
			},
			{
				"x": -3.3034008836,
				"y": -2.2767733062,
				"z": -1.7391199397,
				"element": "C" 
			},
			{
				"x": -2.2133313646,
				"y": -1.5062090336,
				"z": -2.1403667021,
				"element": "C" 
			},
			{
				"x": -1.8763860119,
				"y": -1.3204438965,
				"z": -3.5977586523,
				"element": "C" 
			},
			{
				"x": -1.4117251051,
				"y": -0.882516873,
				"z": -1.160008755,
				"element": "C" 
			},
			{
				"x": -0.3641181187,
				"y": -0.1614599627,
				"z": -1.6471264135,
				"element": "O" 
			},
			{
				"x": 1.6756534965,
				"y": 3.7622968282,
				"z": -0.2481613784,
				"element": "H" 
			},
			{
				"x": 0.3407370749,
				"y": 3.7446400226,
				"z": -1.4079507381,
				"element": "H" 
			},
			{
				"x": 0.3940164329,
				"y": 4.9827370928,
				"z": -0.1404897997,
				"element": "H" 
			},
			{
				"x": -1.3760636156,
				"y": 4.2778130869,
				"z": 1.9263263609,
				"element": "H" 
			},
			{
				"x": -2.1793890549,
				"y": 1.8378595399,
				"z": 2.8833355785,
				"element": "H" 
			},
			{
				"x": -1.3601745278,
				"y": -0.6891251124,
				"z": 2.272897696,
				"element": "H" 
			},
			{
				"x": 0.8489479058,
				"y": -2.4618628076,
				"z": -0.1952759878,
				"element": "H" 
			},
			{
				"x": 3.3109073017,
				"y": -2.7205597773,
				"z": 0.9827381525,
				"element": "H" 
			},
			{
				"x": 4.4464146745,
				"y": -1.4610731246,
				"z": 3.2192285975,
				"element": "H" 
			},
			{
				"x": 3.1725158678,
				"y": -1.0943700483,
				"z": 4.3968182869,
				"element": "H" 
			},
			{
				"x": 3.8043348828,
				"y": 0.1863468569,
				"z": 3.3566884416,
				"element": "H" 
			},
			{
				"x": -3.0351393036,
				"y": -1.9557652094,
				"z": 1.630551853,
				"element": "H" 
			},
			{
				"x": -3.9275182653,
				"y": -2.7557273345,
				"z": -2.4858806686,
				"element": "H" 
			},
			{
				"x": -1.8787228526,
				"y": -0.2595284063,
				"z": -3.869655972,
				"element": "H" 
			},
			{
				"x": -0.8718757651,
				"y": -1.6949826483,
				"z": -3.8228813812,
				"element": "H" 
			},
			{
				"x": -2.5926686455,
				"y": -1.845360839,
				"z": -4.2347987424,
				"element": "H" 
			},
			{
				"x": 0.0339448625,
				"y": 0.3946021388,
				"z": -0.9589763898,
				"element": "H" 
			}
		],
		 "valence_orbital": [ 
			{
				"type": "occ",
				"energy": -0.27164,
				"method": "rhf"
			},
			{
				"type": "occ",
				"energy": -0.24862,
				"method": "rhf"
			},
			{
				"type": "occ",
				"energy": -0.22458,
				"method": "rhf"
			},
			{
				"type": "occ",
				"energy": -0.21242,
				"method": "rhf"
			},
			{
				"type": "occ",
				"energy": -0.2073,
				"method": "rhf"
			},
			{
				"type": "unocc",
				"energy": -0.00974,
				"method": "rhf"
			},
			{
				"type": "unocc",
				"energy": 0.00408,
				"method": "rhf"
			},
			{
				"type": "unocc",
				"energy": 0.00809,
				"method": "rhf"
			},
			{
				"type": "unocc",
				"energy": 0.01354,
				"method": "rhf"
			},
			{
				"type": "unocc",
				"energy": 0.02058,
				"method": "rhf"
			}
		],
		"cosmo_sigma_profile": { 
			"-0.025": 0.0,
			"-0.024": 0.0,
			"-0.023": 0.0,
			"-0.022": 0.0,
			"-0.021": 0.0,
			"-0.02": 0.0,
			"-0.019": 0.0,
			"-0.018": 0.0,
			"-0.017": 0.0,
			"-0.016": 0.0,
			"-0.015": 0.0,
			"-0.014": 0.0,
			"-0.013": 0.0,
			"-0.012": 0.0,
			"-0.011": 0.0,
			"-0.01": 0.0,
			"-0.009": 0.461828665813,
			"-0.008": 2.80555521355,
			"-0.007": 6.61671039535,
			"-0.006": 13.5463874391,
			"-0.005": 23.4348818725,
			"-0.004": 27.9306461424,
			"-0.003": 29.8306870159,
			"-0.002": 30.7681026759,
			"-0.001": 36.4916966328,
			"0.0": 31.3876535036,
			"0.001": 24.324669296,
			"0.002": 26.1408233367,
			"0.003": 29.9248567807,
			"0.004": 33.026706733,
			"0.005": 24.8231102271,
			"0.006": 10.3822269672,
			"0.007": 3.41614118926,
			"0.008": 3.1926453181,
			"0.009": 2.12001375777,
			"0.01": 1.32446645513,
			"0.011": 0.275262678147,
			"0.012": 0.0,
			"0.013": 0.0,
			"0.014": 0.0,
			"0.015": 0.0,
			"0.016": 0.0,
			"0.017": 0.0,
			"0.018": 0.0,
			"0.019": 0.0,
			"0.02": 0.0,
			"0.021": 0.0,
			"0.022": 0.0,
			"0.023": 0.0,
			"0.024": 0.0,
			"0.025": 0.0
		}
	}
}
