{
	 "smiles": "CC1=CC=C(S1)C1=NNC(=O)C=C1", 
	 "Tm": 505.15, 
	 "num_atms": 21, 
	 "gaussian": { 
		 "optdone": 1, 
		 "sigma_profile": "yes", 
		 "theory": "DFT", 
		 "functional": "B3LYP", 
		 "basiset": "6-31G**", 
		 "properties": { 
			 "R2extent": 3806.5868, 
			 "electric_dipole_moment_norm": 4.37354442415, 
			 "electric_quadrupole_moment_norm": 10.6889518616, 
			 "total_energy": -930.667281125, 
			 "HOMO_LUMO_gap": 0.14315, 
			 "cosmo_polarized_energy": -13.53, 
			 "cosmo_cavitation_energy": 27.26, 
			 "cosmo_dispersion_energy": -20.82, 
			 "cosmo_repulsion_energy": 1.6, 
			 "cosmo_total_nonelectrostatic_energy": 8.05, 
			 "SMD_solvation_energy": 4.58 
		},
		"coords": [
			{
				"x": -0.941552482,
				"y": -3.5776689154,
				"z": 3.7293312213,
				"element": "C" 
			},
			{
				"x": -0.4855698343,
				"y": -2.482996018,
				"z": 2.8120454761,
				"element": "C" 
			},
			{
				"x": 0.0595302246,
				"y": -1.2698250264,
				"z": 3.1448360451,
				"element": "C" 
			},
			{
				"x": 0.381969244,
				"y": -0.4628521296,
				"z": 2.016874235,
				"element": "C" 
			},
			{
				"x": 0.0818439083,
				"y": -1.0618223548,
				"z": 0.8149370832,
				"element": "C" 
			},
			{
				"x": -0.6106873787,
				"y": -2.6497401965,
				"z": 1.0773651159,
				"element": "S" 
			},
			{
				"x": 0.2675026867,
				"y": -0.5491636987,
				"z": -0.5396158493,
				"element": "C" 
			},
			{
				"x": -0.1039243608,
				"y": -1.3258244135,
				"z": -1.5339011807,
				"element": "N" 
			},
			{
				"x": 0.0658630371,
				"y": -0.8566768649,
				"z": -2.7776597033,
				"element": "N" 
			},
			{
				"x": 0.5952680646,
				"y": 0.3733437987,
				"z": -3.1898007301,
				"element": "C" 
			},
			{
				"x": 0.6840229137,
				"y": 0.6546311142,
				"z": -4.3790932152,
				"element": "O" 
			},
			{
				"x": 0.9931898337,
				"y": 1.2007537193,
				"z": -2.0569635156,
				"element": "C" 
			},
			{
				"x": 0.8344888322,
				"y": 0.7549939065,
				"z": -0.786509756,
				"element": "C" 
			},
			{
				"x": -0.7782359815,
				"y": -3.2819707386,
				"z": 4.7692415525,
				"element": "H" 
			},
			{
				"x": -0.3942067741,
				"y": -4.5109654511,
				"z": 3.5548894835,
				"element": "H" 
			},
			{
				"x": -2.0082565017,
				"y": -3.7963675962,
				"z": 3.6052038096,
				"element": "H" 
			},
			{
				"x": 0.2261983598,
				"y": -0.9613065254,
				"z": 4.1713660049,
				"element": "H" 
			},
			{
				"x": 0.8203147758,
				"y": 0.5247818652,
				"z": 2.1034253557,
				"element": "H" 
			},
			{
				"x": -0.2322111453,
				"y": -1.4839466647,
				"z": -3.5159438024,
				"element": "H" 
			},
			{
				"x": 1.4146791808,
				"y": 2.1733404558,
				"z": -2.2850688882,
				"element": "H" 
			},
			{
				"x": 1.131673397,
				"y": 1.3736817341,
				"z": 0.0538412581,
				"element": "H" 
			}
		],
		 "valence_orbital": [ 
			{
				"type": "occ",
				"energy": -0.31352,
				"method": "rhf"
			},
			{
				"type": "occ",
				"energy": -0.26189,
				"method": "rhf"
			},
			{
				"type": "occ",
				"energy": -0.25518,
				"method": "rhf"
			},
			{
				"type": "occ",
				"energy": -0.25184,
				"method": "rhf"
			},
			{
				"type": "occ",
				"energy": -0.2118,
				"method": "rhf"
			},
			{
				"type": "unocc",
				"energy": -0.06865,
				"method": "rhf"
			},
			{
				"type": "unocc",
				"energy": -0.03868,
				"method": "rhf"
			},
			{
				"type": "unocc",
				"energy": 0.02635,
				"method": "rhf"
			},
			{
				"type": "unocc",
				"energy": 0.02964,
				"method": "rhf"
			},
			{
				"type": "unocc",
				"energy": 0.07145,
				"method": "rhf"
			}
		],
		"cosmo_sigma_profile": { 
			"-0.025": 0.0,
			"-0.024": 0.0,
			"-0.023": 0.0,
			"-0.022": 0.0,
			"-0.021": 0.0,
			"-0.02": 0.0,
			"-0.019": 0.0,
			"-0.018": 0.0,
			"-0.017": 0.00696553035385,
			"-0.016": 0.733391338359,
			"-0.015": 1.51466202996,
			"-0.014": 0.613784388351,
			"-0.013": 0.700814145136,
			"-0.012": 0.814586548424,
			"-0.011": 0.992777506316,
			"-0.01": 1.81262311963,
			"-0.009": 3.5755042926,
			"-0.008": 4.95045730825,
			"-0.007": 6.83077049184,
			"-0.006": 7.45358347809,
			"-0.005": 12.7848207016,
			"-0.004": 13.6187685406,
			"-0.003": 17.4113818711,
			"-0.002": 17.0762222129,
			"-0.001": 22.0856992387,
			"0.0": 16.1746898925,
			"0.001": 12.5558899349,
			"0.002": 11.0995982033,
			"0.003": 12.8610470435,
			"0.004": 16.9833011324,
			"0.005": 11.8077617593,
			"0.006": 2.43594667832,
			"0.007": 2.52008627636,
			"0.008": 2.95202715999,
			"0.009": 2.08756982377,
			"0.01": 2.10289458909,
			"0.011": 1.79543574317,
			"0.012": 2.03475893979,
			"0.013": 4.69484079848,
			"0.014": 4.91566862374,
			"0.015": 0.615576126975,
			"0.016": 0.0,
			"0.017": 0.0,
			"0.018": 0.0,
			"0.019": 0.0,
			"0.02": 0.0,
			"0.021": 0.0,
			"0.022": 0.0,
			"0.023": 0.0,
			"0.024": 0.0,
			"0.025": 0.0
		}
	}
}
