{
	 "smiles": "CN1CCN(CC1)S(=O)(=O)C1=CC(=CC=C1)C(O)=O", 
	 "Tm": 504.15, 
	 "num_atms": 35, 
	 "gaussian": { 
		 "optdone": 1, 
		 "sigma_profile": "yes", 
		 "theory": "DFT", 
		 "functional": "B3LYP", 
		 "basiset": "6-31G**", 
		 "properties": { 
			 "R2extent": 7007.2424, 
			 "electric_dipole_moment_norm": 3.96224879835, 
			 "electric_quadrupole_moment_norm": 10.8900814441, 
			 "total_energy": -1275.4309927, 
			 "HOMO_LUMO_gap": 0.1474, 
			 "cosmo_polarized_energy": -17.97, 
			 "cosmo_cavitation_energy": 38.81, 
			 "cosmo_dispersion_energy": -27.8, 
			 "cosmo_repulsion_energy": 2.1, 
			 "cosmo_total_nonelectrostatic_energy": 13.11, 
			 "SMD_solvation_energy": 3.45 
		},
		"coords": [
			{
				"x": 3.8570629348,
				"y": 2.7530007875,
				"z": -1.8132203312,
				"element": "C" 
			},
			{
				"x": 2.4894675867,
				"y": 2.462295255,
				"z": -1.4133937575,
				"element": "N" 
			},
			{
				"x": 1.6718335633,
				"y": 1.8228399134,
				"z": -2.461344389,
				"element": "C" 
			},
			{
				"x": 1.4583854637,
				"y": 0.3241242723,
				"z": -2.2263531162,
				"element": "C" 
			},
			{
				"x": 0.8135583761,
				"y": 0.0987151091,
				"z": -0.9103676926,
				"element": "N" 
			},
			{
				"x": 1.0651593879,
				"y": 1.144280711,
				"z": 0.1071164531,
				"element": "C" 
			},
			{
				"x": 2.4450064734,
				"y": 1.746510926,
				"z": -0.1371400196,
				"element": "C" 
			},
			{
				"x": -0.7329639343,
				"y": -0.5767811573,
				"z": -0.8822768111,
				"element": "S" 
			},
			{
				"x": -1.7187251478,
				"y": 0.4139646582,
				"z": -0.4304379998,
				"element": "O" 
			},
			{
				"x": -0.9068316258,
				"y": -1.2928072171,
				"z": -2.1511156937,
				"element": "O" 
			},
			{
				"x": -0.5843892495,
				"y": -1.799579171,
				"z": 0.4289856481,
				"element": "C" 
			},
			{
				"x": -1.1248762184,
				"y": -1.5273616434,
				"z": 1.6828496352,
				"element": "C" 
			},
			{
				"x": -1.0034610995,
				"y": -2.4897839965,
				"z": 2.6948764937,
				"element": "C" 
			},
			{
				"x": -0.3564337924,
				"y": -3.703882751,
				"z": 2.4345625984,
				"element": "C" 
			},
			{
				"x": 0.1678298135,
				"y": -3.9643292354,
				"z": 1.1688641418,
				"element": "C" 
			},
			{
				"x": 0.0566464229,
				"y": -3.0118646118,
				"z": 0.1566570498,
				"element": "C" 
			},
			{
				"x": -1.5531136147,
				"y": -2.2704786351,
				"z": 4.0617622555,
				"element": "C" 
			},
			{
				"x": -2.1521056151,
				"y": -1.0644494567,
				"z": 4.2019302285,
				"element": "O" 
			},
			{
				"x": -1.4811555616,
				"y": -3.0730245654,
				"z": 4.9705811198,
				"element": "O" 
			},
			{
				"x": 3.8601921606,
				"y": 3.3743821075,
				"z": -2.7137570663,
				"element": "H" 
			},
			{
				"x": 4.4692504686,
				"y": 1.8512588832,
				"z": -2.0123717238,
				"element": "H" 
			},
			{
				"x": 4.3562416957,
				"y": 3.3190523519,
				"z": -1.018903678,
				"element": "H" 
			},
			{
				"x": 0.6904119469,
				"y": 2.3128631115,
				"z": -2.515924859,
				"element": "H" 
			},
			{
				"x": 2.1537461847,
				"y": 1.9695050489,
				"z": -3.4335001601,
				"element": "H" 
			},
			{
				"x": 0.831738064,
				"y": -0.1105549883,
				"z": -3.0061664502,
				"element": "H" 
			},
			{
				"x": 2.4188621097,
				"y": -0.2063004763,
				"z": -2.2391772601,
				"element": "H" 
			},
			{
				"x": 0.3012486745,
				"y": 1.9300263792,
				"z": 0.0696419948,
				"element": "H" 
			},
			{
				"x": 1.0330456398,
				"y": 0.6876000669,
				"z": 1.1020439172,
				"element": "H" 
			},
			{
				"x": 2.6757709435,
				"y": 2.4457967566,
				"z": 0.6762496078,
				"element": "H" 
			},
			{
				"x": 3.1980609407,
				"y": 0.93610238,
				"z": -0.0830945599,
				"element": "H" 
			},
			{
				"x": -1.6430627703,
				"y": -0.5929888804,
				"z": 1.8605881795,
				"element": "H" 
			},
			{
				"x": -0.281249731,
				"y": -4.4310734557,
				"z": 3.2359062324,
				"element": "H" 
			},
			{
				"x": 0.6588791872,
				"y": -4.911345806,
				"z": 0.9682937124,
				"element": "H" 
			},
			{
				"x": 0.4455085654,
				"y": -3.2039946462,
				"z": -0.8375973096,
				"element": "H" 
			},
			{
				"x": -2.4767382431,
				"y": -1.0299180245,
				"z": 5.1167336097,
				"element": "H" 
			}
		],
		 "valence_orbital": [ 
			{
				"type": "occ",
				"energy": -0.28778,
				"method": "rhf"
			},
			{
				"type": "occ",
				"energy": -0.2834,
				"method": "rhf"
			},
			{
				"type": "occ",
				"energy": -0.28025,
				"method": "rhf"
			},
			{
				"type": "occ",
				"energy": -0.24815,
				"method": "rhf"
			},
			{
				"type": "occ",
				"energy": -0.21294,
				"method": "rhf"
			},
			{
				"type": "unocc",
				"energy": -0.06554,
				"method": "rhf"
			},
			{
				"type": "unocc",
				"energy": -0.03899,
				"method": "rhf"
			},
			{
				"type": "unocc",
				"energy": 0.03255,
				"method": "rhf"
			},
			{
				"type": "unocc",
				"energy": 0.05665,
				"method": "rhf"
			},
			{
				"type": "unocc",
				"energy": 0.06735,
				"method": "rhf"
			}
		],
		"cosmo_sigma_profile": { 
			"-0.025": 0.0,
			"-0.024": 0.0,
			"-0.023": 0.0,
			"-0.022": 0.0,
			"-0.021": 0.0,
			"-0.02": 0.0,
			"-0.019": 0.13463183042,
			"-0.018": 0.969051105832,
			"-0.017": 1.1787664887,
			"-0.016": 0.510317532913,
			"-0.015": 0.718015070401,
			"-0.014": 0.511961134254,
			"-0.013": 0.73144853505,
			"-0.012": 1.19445699182,
			"-0.011": 0.744208123544,
			"-0.01": 0.632828109567,
			"-0.009": 0.558792744981,
			"-0.008": 2.75692772178,
			"-0.007": 6.85550055578,
			"-0.006": 7.68438016875,
			"-0.005": 14.9941759357,
			"-0.004": 32.0317228164,
			"-0.003": 36.539295462,
			"-0.002": 31.4747518284,
			"-0.001": 29.0730718162,
			"0.0": 27.5704798544,
			"0.001": 21.6815264191,
			"0.002": 13.0229415512,
			"0.003": 7.68628439329,
			"0.004": 7.097953329,
			"0.005": 7.2642200194,
			"0.006": 6.65853448131,
			"0.007": 6.1808064787,
			"0.008": 5.27272986514,
			"0.009": 5.86738027316,
			"0.01": 9.75501594201,
			"0.011": 11.9393044601,
			"0.012": 5.34107528261,
			"0.013": 0.575124954476,
			"0.014": 0.225497405518,
			"0.015": 0.443114161995,
			"0.016": 0.278636710962,
			"0.017": 0.0602906731497,
			"0.018": 0.0,
			"0.019": 0.0,
			"0.02": 0.0,
			"0.021": 0.0,
			"0.022": 0.0,
			"0.023": 0.0,
			"0.024": 0.0,
			"0.0": 0.0
		}
	}
}
