{
	 "smiles": "C(C1=NN=C2CNCCN12)C1=CC=CC=C1", 
	 "Tm": 385.15, 
	 "num_atms": 30, 
	 "gaussian": { 
		 "optdone": 1, 
		 "sigma_profile": "yes", 
		 "theory": "DFT", 
		 "functional": "B3LYP", 
		 "basiset": "6-31G**", 
		 "properties": { 
			 "R2extent": 4311.8396, 
			 "electric_dipole_moment_norm": 5.53733506481, 
			 "electric_quadrupole_moment_norm": 8.69368405338, 
			 "total_energy": -684.700307333, 
			 "HOMO_LUMO_gap": 0.22835, 
			 "cosmo_polarized_energy": -20.18, 
			 "cosmo_cavitation_energy": 32.68, 
			 "cosmo_dispersion_energy": -23.22, 
			 "cosmo_repulsion_energy": 1.81, 
			 "cosmo_total_nonelectrostatic_energy": 11.27, 
			 "SMD_solvation_energy": -0.23 
		},
		"coords": [
			{
				"x": 0.1358940944,
				"y": 1.6365768494,
				"z": 0.2086885579,
				"element": "C" 
			},
			{
				"x": -0.0062839657,
				"y": 0.1795818514,
				"z": 0.5212780027,
				"element": "C" 
			},
			{
				"x": -0.2334911849,
				"y": -0.3224025271,
				"z": 1.7153937727,
				"element": "N" 
			},
			{
				"x": -0.3490011359,
				"y": -1.6960154521,
				"z": 1.5839380598,
				"element": "N" 
			},
			{
				"x": -0.1876166045,
				"y": -1.9782006064,
				"z": 0.3135714032,
				"element": "C" 
			},
			{
				"x": -0.1902417925,
				"y": -3.3216610635,
				"z": -0.3630360507,
				"element": "C" 
			},
			{
				"x": -0.3987631097,
				"y": -3.2253767566,
				"z": -1.8138575553,
				"element": "N" 
			},
			{
				"x": 0.4422511462,
				"y": -2.1879082198,
				"z": -2.4070743314,
				"element": "C" 
			},
			{
				"x": 0.1666043845,
				"y": -0.7713266587,
				"z": -1.8648321181,
				"element": "C" 
			},
			{
				"x": 0.0425337929,
				"y": -0.8329634086,
				"z": -0.4096002529,
				"element": "N" 
			},
			{
				"x": -1.0574050409,
				"y": 2.2285916103,
				"z": -0.5317183234,
				"element": "C" 
			},
			{
				"x": -0.8802753464,
				"y": 2.9763019296,
				"z": -1.7011950507,
				"element": "C" 
			},
			{
				"x": -1.9754641299,
				"y": 3.5371548824,
				"z": -2.3633533741,
				"element": "C" 
			},
			{
				"x": -3.2640867251,
				"y": 3.3527403386,
				"z": -1.8622506545,
				"element": "C" 
			},
			{
				"x": -3.450823398,
				"y": 2.6060674322,
				"z": -0.6955832104,
				"element": "C" 
			},
			{
				"x": -2.3567465926,
				"y": 2.0473591144,
				"z": -0.0360646194,
				"element": "C" 
			},
			{
				"x": 1.050783326,
				"y": 1.8164166661,
				"z": -0.369380847,
				"element": "H" 
			},
			{
				"x": 0.2666084977,
				"y": 2.1390065176,
				"z": 1.1729121491,
				"element": "H" 
			},
			{
				"x": 0.7714092876,
				"y": -3.8233747953,
				"z": -0.187810535,
				"element": "H" 
			},
			{
				"x": -0.9600032318,
				"y": -3.9581222948,
				"z": 0.0808996018,
				"element": "H" 
			},
			{
				"x": -1.3781118155,
				"y": -3.023485596,
				"z": -2.0048783931,
				"element": "H" 
			},
			{
				"x": 0.3065903792,
				"y": -2.1854895417,
				"z": -3.4931898748,
				"element": "H" 
			},
			{
				"x": 1.4878505199,
				"y": -2.4559840895,
				"z": -2.211029869,
				"element": "H" 
			},
			{
				"x": -0.7614825339,
				"y": -0.36649836,
				"z": -2.2868278899,
				"element": "H" 
			},
			{
				"x": 0.9775813979,
				"y": -0.0864228624,
				"z": -2.135528946,
				"element": "H" 
			},
			{
				"x": 0.1226813029,
				"y": 3.1276603045,
				"z": -2.0941923303,
				"element": "H" 
			},
			{
				"x": -1.8195854065,
				"y": 4.1164259728,
				"z": -3.2692120855,
				"element": "H" 
			},
			{
				"x": -4.1172134274,
				"y": 3.7874780937,
				"z": -2.3750931986,
				"element": "H" 
			},
			{
				"x": -4.4511578967,
				"y": 2.4598947608,
				"z": -0.2977052249,
				"element": "H" 
			},
			{
				"x": -2.5017347914,
				"y": 1.4654759087,
				"z": 0.8704331877,
				"element": "H" 
			}
		],
		 "valence_orbital": [ 
			{
				"type": "occ",
				"energy": -0.25545,
				"method": "rhf"
			},
			{
				"type": "occ",
				"energy": -0.25164,
				"method": "rhf"
			},
			{
				"type": "occ",
				"energy": -0.24399,
				"method": "rhf"
			},
			{
				"type": "occ",
				"energy": -0.24162,
				"method": "rhf"
			},
			{
				"type": "occ",
				"energy": -0.23701,
				"method": "rhf"
			},
			{
				"type": "unocc",
				"energy": -0.00866,
				"method": "rhf"
			},
			{
				"type": "unocc",
				"energy": -0.00706,
				"method": "rhf"
			},
			{
				"type": "unocc",
				"energy": 0.0224,
				"method": "rhf"
			},
			{
				"type": "unocc",
				"energy": 0.04975,
				"method": "rhf"
			},
			{
				"type": "unocc",
				"energy": 0.06746,
				"method": "rhf"
			}
		],
		"cosmo_sigma_profile": { 
			"-0.025": 0.0,
			"-0.024": 0.0,
			"-0.023": 0.0,
			"-0.022": 0.0,
			"-0.021": 0.0,
			"-0.02": 0.0,
			"-0.019": 0.0,
			"-0.018": 0.0,
			"-0.017": 0.0,
			"-0.016": 0.0,
			"-0.015": 0.0,
			"-0.014": 0.0,
			"-0.013": 0.0,
			"-0.012": 0.115504303122,
			"-0.011": 1.58940497966,
			"-0.01": 1.62424845993,
			"-0.009": 2.1678058102,
			"-0.008": 2.45052610964,
			"-0.007": 6.6571793639,
			"-0.006": 21.5130692752,
			"-0.005": 29.7488818876,
			"-0.004": 25.3828827667,
			"-0.003": 23.1547774611,
			"-0.002": 18.4644837868,
			"-0.001": 16.2652510472,
			"0.0": 13.5222371563,
			"0.001": 11.8522651731,
			"0.002": 11.6342784157,
			"0.003": 10.9574756697,
			"0.004": 9.95309551595,
			"0.005": 10.0412480971,
			"0.006": 8.8483193568,
			"0.007": 3.02278846107,
			"0.008": 2.65860433326,
			"0.009": 1.55531199493,
			"0.01": 2.44377740431,
			"0.011": 2.60474523475,
			"0.012": 2.55037744188,
			"0.013": 2.83526733881,
			"0.014": 3.7874532857,
			"0.015": 4.24359549928,
			"0.016": 3.00349648947,
			"0.017": 2.71776281567,
			"0.018": 1.19657728532,
			"0.019": 0.0361114629936,
			"0.02": 0.0,
			"0.021": 0.0,
			"0.022": 0.0,
			"0.023": 0.0,
			"0.024": 0.0,
			"0.025": 0.0
		}
	}
}
