{
	 "smiles": "CC(C)C1=C(C)C=C(OC2=NC=C(C=C2)C(O)=O)C=C1", 
	 "Tm": 396.15, 
	 "num_atms": 37, 
	 "gaussian": { 
		 "optdone": 1, 
		 "sigma_profile": "yes", 
		 "theory": "DFT", 
		 "functional": "B3LYP", 
		 "basiset": "6-31G**", 
		 "properties": { 
			 "R2extent": 10543.9107, 
			 "electric_dipole_moment_norm": 5.35964184718, 
			 "electric_quadrupole_moment_norm": 25.8506948609, 
			 "total_energy": -900.398904157, 
			 "HOMO_LUMO_gap": 0.19273, 
			 "cosmo_polarized_energy": -14.3, 
			 "cosmo_cavitation_energy": 41.13, 
			 "cosmo_dispersion_energy": -28.66, 
			 "cosmo_repulsion_energy": 2.21, 
			 "cosmo_total_nonelectrostatic_energy": 14.68, 
			 "SMD_solvation_energy": 7.05 
		},
		"coords": [
			{
				"x": 3.9390759195,
				"y": -0.1194312035,
				"z": 0.3559145784,
				"element": "C" 
			},
			{
				"x": 2.9902990841,
				"y": 1.0718383659,
				"z": 0.5929380762,
				"element": "C" 
			},
			{
				"x": 3.4289400879,
				"y": 2.3007969669,
				"z": -0.2275142465,
				"element": "C" 
			},
			{
				"x": 1.5348199758,
				"y": 0.7004946439,
				"z": 0.3188323163,
				"element": "C" 
			},
			{
				"x": 0.5430837169,
				"y": 0.7545323628,
				"z": 1.3239270639,
				"element": "C" 
			},
			{
				"x": 0.8512974249,
				"y": 1.1849040725,
				"z": 2.7426469946,
				"element": "C" 
			},
			{
				"x": -0.7749034586,
				"y": 0.4023303918,
				"z": 1.0023230297,
				"element": "C" 
			},
			{
				"x": -1.1136850109,
				"y": 0.0052158427,
				"z": -0.2872266296,
				"element": "C" 
			},
			{
				"x": -2.4481994837,
				"y": -0.2591438833,
				"z": -0.5881961111,
				"element": "O" 
			},
			{
				"x": -2.9170225668,
				"y": -1.5363088451,
				"z": -0.5465436501,
				"element": "C" 
			},
			{
				"x": -4.2009306465,
				"y": -1.629478158,
				"z": -0.8935961029,
				"element": "N" 
			},
			{
				"x": -4.7560887468,
				"y": -2.8400964067,
				"z": -0.8811457257,
				"element": "C" 
			},
			{
				"x": -4.0711292797,
				"y": -4.0101898102,
				"z": -0.5268415232,
				"element": "C" 
			},
			{
				"x": -2.7219498003,
				"y": -3.8873641687,
				"z": -0.1641939044,
				"element": "C" 
			},
			{
				"x": -2.1249655967,
				"y": -2.6358800156,
				"z": -0.1701778297,
				"element": "C" 
			},
			{
				"x": -4.7964290939,
				"y": -5.2981997938,
				"z": -0.5523490876,
				"element": "C" 
			},
			{
				"x": -4.0163879893,
				"y": -6.3499923274,
				"z": -0.1881303539,
				"element": "O" 
			},
			{
				"x": -5.9640714081,
				"y": -5.4374262881,
				"z": -0.8607201742,
				"element": "O" 
			},
			{
				"x": -0.151340309,
				"y": -0.0478919313,
				"z": -1.2907012744,
				"element": "C" 
			},
			{
				"x": 1.1598619754,
				"y": 0.2992525604,
				"z": -0.971819918,
				"element": "C" 
			},
			{
				"x": 4.9688567933,
				"y": 0.1515392136,
				"z": 0.61309835,
				"element": "H" 
			},
			{
				"x": 3.6527993779,
				"y": -0.9832478492,
				"z": 0.9643266527,
				"element": "H" 
			},
			{
				"x": 3.9321490817,
				"y": -0.434978014,
				"z": -0.6929881806,
				"element": "H" 
			},
			{
				"x": 3.0781190891,
				"y": 1.3444383158,
				"z": 1.648941686,
				"element": "H" 
			},
			{
				"x": 3.3967893325,
				"y": 2.0959411459,
				"z": -1.3030641786,
				"element": "H" 
			},
			{
				"x": 2.7792453849,
				"y": 3.1602080138,
				"z": -0.0344059578,
				"element": "H" 
			},
			{
				"x": 4.4559448519,
				"y": 2.5862186171,
				"z": 0.0252802504,
				"element": "H" 
			},
			{
				"x": 1.5920566475,
				"y": 0.5318362877,
				"z": 3.217771975,
				"element": "H" 
			},
			{
				"x": 1.2486533011,
				"y": 2.2052709319,
				"z": 2.7835680501,
				"element": "H" 
			},
			{
				"x": -0.0517637035,
				"y": 1.159594645,
				"z": 3.357735584,
				"element": "H" 
			},
			{
				"x": -1.5545741288,
				"y": 0.4465839565,
				"z": 1.7568289581,
				"element": "H" 
			},
			{
				"x": -5.8032774112,
				"y": -2.9044513969,
				"z": -1.1659404112,
				"element": "H" 
			},
			{
				"x": -2.1536198278,
				"y": -4.7665874049,
				"z": 0.1188107987,
				"element": "H" 
			},
			{
				"x": -1.0862216875,
				"y": -2.5057699177,
				"z": 0.1050604205,
				"element": "H" 
			},
			{
				"x": -4.5900319229,
				"y": -7.1319358859,
				"z": -0.2409515515,
				"element": "H" 
			},
			{
				"x": -0.4312011762,
				"y": -0.3438867446,
				"z": -2.2964064507,
				"element": "H" 
			},
			{
				"x": 1.911401204,
				"y": 0.2607637105,
				"z": -1.7553915227,
				"element": "H" 
			}
		],
		 "valence_orbital": [ 
			{
				"type": "occ",
				"energy": -0.28151,
				"method": "rhf"
			},
			{
				"type": "occ",
				"energy": -0.26574,
				"method": "rhf"
			},
			{
				"type": "occ",
				"energy": -0.25619,
				"method": "rhf"
			},
			{
				"type": "occ",
				"energy": -0.24584,
				"method": "rhf"
			},
			{
				"type": "occ",
				"energy": -0.23963,
				"method": "rhf"
			},
			{
				"type": "unocc",
				"energy": -0.0469,
				"method": "rhf"
			},
			{
				"type": "unocc",
				"energy": -0.0292,
				"method": "rhf"
			},
			{
				"type": "unocc",
				"energy": -0.00941,
				"method": "rhf"
			},
			{
				"type": "unocc",
				"energy": -0.0078,
				"method": "rhf"
			},
			{
				"type": "unocc",
				"energy": 0.05677,
				"method": "rhf"
			}
		],
		"cosmo_sigma_profile": { 
			"-0.025": 0.0,
			"-0.024": 0.0,
			"-0.023": 0.0,
			"-0.022": 0.0,
			"-0.021": 0.0,
			"-0.02": 0.0,
			"-0.019": 0.150287727073,
			"-0.018": 0.642590344336,
			"-0.017": 1.04434217402,
			"-0.016": 1.15612528247,
			"-0.015": 0.252423789323,
			"-0.014": 0.593069090282,
			"-0.013": 0.630388434745,
			"-0.012": 0.728650276642,
			"-0.011": 1.04030386455,
			"-0.01": 0.657070559369,
			"-0.009": 0.341418704917,
			"-0.008": 1.49695591268,
			"-0.007": 5.64798559372,
			"-0.006": 8.92200778341,
			"-0.005": 13.6239338473,
			"-0.004": 18.9678076857,
			"-0.003": 29.0602541449,
			"-0.002": 35.4090451674,
			"-0.001": 41.4137370137,
			"0.0": 39.1891143285,
			"0.001": 34.6898946223,
			"0.002": 20.1576973121,
			"0.003": 13.8711021499,
			"0.004": 12.1114657449,
			"0.005": 8.93424265711,
			"0.006": 4.53665320264,
			"0.007": 5.98410642899,
			"0.008": 3.08878954396,
			"0.009": 2.71828350754,
			"0.01": 4.77219861234,
			"0.011": 5.36955218939,
			"0.012": 5.2004132933,
			"0.013": 1.32582969424,
			"0.014": 1.1883087066,
			"0.015": 0.865606188912,
			"0.016": 0.180057183845,
			"0.017": 0.0,
			"0.018": 0.0,
			"0.019": 0.0,
			"0.02": 0.0,
			"0.021": 0.0,
			"0.022": 0.0,
			"0.023": 0.0,
			"0.024": 0.0,
			"0.025": 0.0
		}
	}
}
