{
	 "smiles": "OC1=C(Br)C=C(F)C=C1Br", 
	 "Tm": 328.15, 
	 "num_atms": 13, 
	 "gaussian": { 
		 "optdone": 1, 
		 "sigma_profile": "yes", 
		 "theory": "DFT", 
		 "functional": "B3LYP", 
		 "basiset": "6-31G**", 
		 "properties": { 
			 "R2extent": 3783.4642, 
			 "electric_dipole_moment_norm": 1.4234667857, 
			 "electric_quadrupole_moment_norm": 5.07654096014, 
			 "total_energy": -5548.30218187, 
			 "HOMO_LUMO_gap": 0.19825, 
			 "cosmo_polarized_energy": -6.01, 
			 "cosmo_cavitation_energy": 22.57, 
			 "cosmo_dispersion_energy": -17.68, 
			 "cosmo_repulsion_energy": 1.4, 
			 "cosmo_total_nonelectrostatic_energy": 6.29, 
			 "SMD_solvation_energy": 2.6 
		},
		"coords": [
			{
				"x": 0.5483363575,
				"y": -1.2832090227,
				"z": 1.5353876144,
				"element": "O" 
			},
			{
				"x": 0.8139849027,
				"y": -0.6920706315,
				"z": 0.3510104649,
				"element": "C" 
			},
			{
				"x": 1.7612851654,
				"y": 0.3318130796,
				"z": 0.1854923489,
				"element": "C" 
			},
			{
				"x": 2.7282837107,
				"y": 0.9188819812,
				"z": 1.730094342,
				"element": "Br" 
			},
			{
				"x": 2.0160999406,
				"y": 0.924850068,
				"z": -1.0474422941,
				"element": "C" 
			},
			{
				"x": 1.2973704296,
				"y": 0.4752874113,
				"z": -2.1464416877,
				"element": "C" 
			},
			{
				"x": 1.527047986,
				"y": 1.0346767475,
				"z": -3.3505753434,
				"element": "F" 
			},
			{
				"x": 0.3484761522,
				"y": -0.534349539,
				"z": -2.0410114669,
				"element": "C" 
			},
			{
				"x": 0.1147336227,
				"y": -1.1090615699,
				"z": -0.7952160457,
				"element": "C" 
			},
			{
				"x": -1.1796293277,
				"y": -2.4909078293,
				"z": -0.6363882234,
				"element": "Br" 
			},
			{
				"x": 1.1127037156,
				"y": -0.8810530494,
				"z": 2.2154851134,
				"element": "H" 
			},
			{
				"x": 2.7503278845,
				"y": 1.7129750904,
				"z": -1.1552646725,
				"element": "H" 
			},
			{
				"x": -0.1964205396,
				"y": -0.8640327364,
				"z": -2.9165301498,
				"element": "H" 
			}
		],
		 "valence_orbital": [ 
			{
				"type": "occ",
				"energy": -0.32113,
				"method": "rhf"
			},
			{
				"type": "occ",
				"energy": -0.30697,
				"method": "rhf"
			},
			{
				"type": "occ",
				"energy": -0.29185,
				"method": "rhf"
			},
			{
				"type": "occ",
				"energy": -0.25872,
				"method": "rhf"
			},
			{
				"type": "occ",
				"energy": -0.23571,
				"method": "rhf"
			},
			{
				"type": "unocc",
				"energy": -0.03746,
				"method": "rhf"
			},
			{
				"type": "unocc",
				"energy": -0.03204,
				"method": "rhf"
			},
			{
				"type": "unocc",
				"energy": -0.00862,
				"method": "rhf"
			},
			{
				"type": "unocc",
				"energy": 0.01726,
				"method": "rhf"
			},
			{
				"type": "unocc",
				"energy": 0.08044,
				"method": "rhf"
			}
		],
		"cosmo_sigma_profile": { 
			"-0.025": 0.0,
			"-0.024": 0.0,
			"-0.023": 0.0,
			"-0.022": 0.0,
			"-0.021": 0.0,
			"-0.02": 0.0,
			"-0.019": 0.0,
			"-0.018": 0.0,
			"-0.017": 0.0,
			"-0.016": 0.0,
			"-0.015": 0.346548025985,
			"-0.014": 0.532569718086,
			"-0.013": 1.10094185293,
			"-0.012": 0.616944150269,
			"-0.011": 0.744060106283,
			"-0.01": 1.09072975993,
			"-0.009": 2.8530011601,
			"-0.008": 4.02021915141,
			"-0.007": 3.70300306054,
			"-0.006": 5.82269496676,
			"-0.005": 5.98222484309,
			"-0.004": 7.20003390074,
			"-0.003": 8.43308177129,
			"-0.002": 10.1844668388,
			"-0.001": 16.4757533449,
			"0.0": 25.7531045946,
			"0.001": 25.5530681654,
			"0.002": 16.2135363417,
			"0.003": 18.5335103681,
			"0.004": 19.6603325929,
			"0.005": 3.78082387146,
			"0.006": 2.08382735809,
			"0.007": 1.87492586343,
			"0.008": 2.10656356678,
			"0.009": 1.95939637365,
			"0.01": 1.8844065007,
			"0.011": 0.0472497790983,
			"0.012": 0.0,
			"0.013": 0.0,
			"0.014": 0.0,
			"0.015": 0.0,
			"0.016": 0.0,
			"0.017": 0.0,
			"0.018": 0.0,
			"0.019": 0.0,
			"0.02": 0.0,
			"0.021": 0.0,
			"0.022": 0.0,
			"0.023": 0.0,
			"0.024": 0.0,
			"0.025": 0.0
		}
	}
}
