{
	 "smiles": "CCN(CC)S(=O)(=O)C1=CC=C(NC(=O)CCl)C=C1", 
	 "Tm": 377.15, 
	 "num_atms": 36, 
	 "gaussian": { 
		 "optdone": 1, 
		 "sigma_profile": "yes", 
		 "theory": "DFT", 
		 "functional": "B3LYP", 
		 "basiset": "6-31G**", 
		 "properties": { 
			 "R2extent": 10382.3608, 
			 "electric_dipole_moment_norm": 5.52057725333, 
			 "electric_quadrupole_moment_norm": 28.1940848692, 
			 "total_energy": -1661.01776167, 
			 "HOMO_LUMO_gap": 0.19024, 
			 "cosmo_polarized_energy": -24.74, 
			 "cosmo_cavitation_energy": 41.64, 
			 "cosmo_dispersion_energy": -29.41, 
			 "cosmo_repulsion_energy": 2.25, 
			 "cosmo_total_nonelectrostatic_energy": 14.48, 
			 "SMD_solvation_energy": 6.14 
		},
		"coords": [
			{
				"x": 3.1759662592,
				"y": 1.8441666789,
				"z": -2.6527803962,
				"element": "C" 
			},
			{
				"x": 2.4675937632,
				"y": 0.9660222531,
				"z": -1.6194265607,
				"element": "C" 
			},
			{
				"x": 2.399045996,
				"y": 1.609677102,
				"z": -0.2962994113,
				"element": "N" 
			},
			{
				"x": 1.6665201573,
				"y": 2.8811643316,
				"z": -0.1604617825,
				"element": "C" 
			},
			{
				"x": 0.1832409271,
				"y": 2.833234251,
				"z": -0.5448266265,
				"element": "C" 
			},
			{
				"x": 2.6238964036,
				"y": 0.6522536877,
				"z": 1.0629307446,
				"element": "S" 
			},
			{
				"x": 3.6656597663,
				"y": -0.3195399017,
				"z": 0.7205650173,
				"element": "O" 
			},
			{
				"x": 2.7529282944,
				"y": 1.5667076648,
				"z": 2.2006633907,
				"element": "O" 
			},
			{
				"x": 1.1204450856,
				"y": -0.2993021061,
				"z": 1.3412896526,
				"element": "C" 
			},
			{
				"x": 0.1402300295,
				"y": 0.1899408162,
				"z": 2.2099678609,
				"element": "C" 
			},
			{
				"x": -1.0231631924,
				"y": -0.5421532693,
				"z": 2.4160695698,
				"element": "C" 
			},
			{
				"x": -1.2276067167,
				"y": -1.7648591918,
				"z": 1.7527361372,
				"element": "C" 
			},
			{
				"x": -2.4434740227,
				"y": -2.4438196636,
				"z": 1.9724362966,
				"element": "N" 
			},
			{
				"x": -2.7573601778,
				"y": -3.7871591684,
				"z": 2.1349907555,
				"element": "C" 
			},
			{
				"x": -3.9051866195,
				"y": -4.116191523,
				"z": 2.3595090006,
				"element": "O" 
			},
			{
				"x": -1.6028872622,
				"y": -4.7873056975,
				"z": 2.0228951229,
				"element": "C" 
			},
			{
				"x": -1.9691692451,
				"y": -6.3187505433,
				"z": 2.8764458419,
				"element": "Cl" 
			},
			{
				"x": -0.2432694731,
				"y": -2.2355936345,
				"z": 0.8699175105,
				"element": "C" 
			},
			{
				"x": 0.9339985117,
				"y": -1.5146317619,
				"z": 0.6809919493,
				"element": "C" 
			},
			{
				"x": 3.2729206843,
				"y": 1.2927526447,
				"z": -3.5933501908,
				"element": "H" 
			},
			{
				"x": 2.6231900691,
				"y": 2.7636094373,
				"z": -2.8677599981,
				"element": "H" 
			},
			{
				"x": 4.1766257006,
				"y": 2.1146508905,
				"z": -2.3047473552,
				"element": "H" 
			},
			{
				"x": 1.4618161134,
				"y": 0.698863161,
				"z": -1.9757661501,
				"element": "H" 
			},
			{
				"x": 3.0330188642,
				"y": 0.0418347599,
				"z": -1.494560803,
				"element": "H" 
			},
			{
				"x": 2.1872441355,
				"y": 3.6183437681,
				"z": -0.7813442673,
				"element": "H" 
			},
			{
				"x": 1.7900798199,
				"y": 3.2099872974,
				"z": 0.8722071385,
				"element": "H" 
			},
			{
				"x": -0.372193925,
				"y": 2.1251427403,
				"z": 0.0765819048,
				"element": "H" 
			},
			{
				"x": -0.2615492733,
				"y": 3.8244435757,
				"z": -0.4085083508,
				"element": "H" 
			},
			{
				"x": 0.039161905,
				"y": 2.5509903587,
				"z": -1.5924589409,
				"element": "H" 
			},
			{
				"x": 0.3114861547,
				"y": 1.1179587883,
				"z": 2.7442454449,
				"element": "H" 
			},
			{
				"x": -1.7743220127,
				"y": -0.1821394872,
				"z": 3.1133617763,
				"element": "H" 
			},
			{
				"x": -3.2489234363,
				"y": -1.8651276242,
				"z": 2.1811470618,
				"element": "H" 
			},
			{
				"x": -1.4358656785,
				"y": -5.0398087862,
				"z": 0.9730966536,
				"element": "H" 
			},
			{
				"x": -0.6778831633,
				"y": -4.3845986558,
				"z": 2.4364192492,
				"element": "H" 
			},
			{
				"x": -0.3997392011,
				"y": -3.1503179838,
				"z": 0.3108164357,
				"element": "H" 
			},
			{
				"x": 1.7085247592,
				"y": -1.8980452087,
				"z": 0.0261063182,
				"element": "H" 
			}
		],
		 "valence_orbital": [ 
			{
				"type": "occ",
				"energy": -0.30369,
				"method": "rhf"
			},
			{
				"type": "occ",
				"energy": -0.2879,
				"method": "rhf"
			},
			{
				"type": "occ",
				"energy": -0.28064,
				"method": "rhf"
			},
			{
				"type": "occ",
				"energy": -0.26731,
				"method": "rhf"
			},
			{
				"type": "occ",
				"energy": -0.24517,
				"method": "rhf"
			},
			{
				"type": "unocc",
				"energy": -0.05493,
				"method": "rhf"
			},
			{
				"type": "unocc",
				"energy": -0.04085,
				"method": "rhf"
			},
			{
				"type": "unocc",
				"energy": -0.00496,
				"method": "rhf"
			},
			{
				"type": "unocc",
				"energy": 0.02408,
				"method": "rhf"
			},
			{
				"type": "unocc",
				"energy": 0.04801,
				"method": "rhf"
			}
		],
		"cosmo_sigma_profile": { 
			"-0.025": 0.0,
			"-0.024": 0.0,
			"-0.023": 0.0,
			"-0.022": 0.0,
			"-0.021": 0.0,
			"-0.02": 0.0,
			"-0.019": 0.0,
			"-0.018": 0.0,
			"-0.017": 0.0,
			"-0.016": 0.0328825859561,
			"-0.015": 0.984918501017,
			"-0.014": 1.1959174916,
			"-0.013": 1.10962559696,
			"-0.012": 1.9008318922,
			"-0.011": 3.46905469101,
			"-0.01": 3.49744579979,
			"-0.009": 4.79819658262,
			"-0.008": 7.30606852573,
			"-0.007": 10.6425338394,
			"-0.006": 10.9407750569,
			"-0.005": 13.5326055983,
			"-0.004": 27.1268666149,
			"-0.003": 30.8499518337,
			"-0.002": 30.4523702067,
			"-0.001": 26.9921112941,
			"0.0": 27.9344141078,
			"0.001": 22.1441242067,
			"0.002": 16.8830985362,
			"0.003": 9.49477720129,
			"0.004": 8.52904427484,
			"0.005": 12.8800704823,
			"0.006": 10.2186189265,
			"0.007": 5.45586080952,
			"0.008": 5.59481464907,
			"0.009": 5.63437886651,
			"0.01": 7.05618738765,
			"0.011": 10.6915491299,
			"0.012": 10.7492948423,
			"0.013": 2.91423567115,
			"0.014": 0.537007289507,
			"0.015": 0.0,
			"0.016": 0.0,
			"0.017": 0.0,
			"0.018": 0.0,
			"0.019": 0.0,
			"0.02": 0.0,
			"0.021": 0.0,
			"0.022": 0.0,
			"0.023": 0.0,
			"0.024": 0.0,
			"0.025": 0.0
		}
	}
}
