{
	 "smiles": "CC1=CC(N)=C(O)C=C1", 
	 "Tm": 409.15, 
	 "num_atms": 18, 
	 "gaussian": { 
		 "optdone": 1, 
		 "sigma_profile": "yes", 
		 "theory": "DFT", 
		 "functional": "B3LYP", 
		 "basiset": "6-31G**", 
		 "properties": { 
			 "R2extent": 1491.2896, 
			 "electric_dipole_moment_norm": 2.741817948, 
			 "electric_quadrupole_moment_norm": 9.0000754058, 
			 "total_energy": -402.14913578, 
			 "HOMO_LUMO_gap": 0.20482, 
			 "cosmo_polarized_energy": -8.3, 
			 "cosmo_cavitation_energy": 21.21, 
			 "cosmo_dispersion_energy": -16.03, 
			 "cosmo_repulsion_energy": 1.33, 
			 "cosmo_total_nonelectrostatic_energy": 6.51, 
			 "SMD_solvation_energy": 4.35 
		},
		"coords": [
			{
				"x": -1.5634823418,
				"y": 2.3277053981,
				"z": 0.9295613642,
				"element": "C" 
			},
			{
				"x": -0.6681758885,
				"y": 1.1102172011,
				"z": 0.8927751659,
				"element": "C" 
			},
			{
				"x": -1.111705375,
				"y": -0.1312853736,
				"z": 1.363357,
				"element": "C" 
			},
			{
				"x": -0.2978124961,
				"y": -1.2637871225,
				"z": 1.3067286977,
				"element": "C" 
			},
			{
				"x": -0.6711393322,
				"y": -2.5812747235,
				"z": 1.7691914188,
				"element": "N" 
			},
			{
				"x": 0.9973605285,
				"y": -1.1663726563,
				"z": 0.7682730361,
				"element": "C" 
			},
			{
				"x": 1.7851192337,
				"y": -2.2678655639,
				"z": 0.7150195473,
				"element": "O" 
			},
			{
				"x": 1.4595044292,
				"y": 0.0666140346,
				"z": 0.2975866786,
				"element": "C" 
			},
			{
				"x": 0.6303531808,
				"y": 1.183267868,
				"z": 0.3646375826,
				"element": "C" 
			},
			{
				"x": -2.3857596919,
				"y": 2.1983271628,
				"z": 1.6398617807,
				"element": "H" 
			},
			{
				"x": -1.0084605625,
				"y": 3.2253851334,
				"z": 1.2220912438,
				"element": "H" 
			},
			{
				"x": -2.0100331581,
				"y": 2.531956414,
				"z": -0.0520935586,
				"element": "H" 
			},
			{
				"x": -2.1113338506,
				"y": -0.2228837216,
				"z": 1.7848804563,
				"element": "H" 
			},
			{
				"x": -0.8667979729,
				"y": -2.5827361684,
				"z": 2.7672116872,
				"element": "H" 
			},
			{
				"x": -1.5082582326,
				"y": -2.916285885,
				"z": 1.2993316004,
				"element": "H" 
			},
			{
				"x": 1.224551892,
				"y": -2.9757939174,
				"z": 1.0943321675,
				"element": "H" 
			},
			{
				"x": 2.4626098778,
				"y": 0.1320297757,
				"z": -0.1110530837,
				"element": "H" 
			},
			{
				"x": 1.0011597602,
				"y": 2.1376821443,
				"z": -0.0020927847,
				"element": "H" 
			}
		],
		 "valence_orbital": [ 
			{
				"type": "occ",
				"energy": -0.32809,
				"method": "rhf"
			},
			{
				"type": "occ",
				"energy": -0.31304,
				"method": "rhf"
			},
			{
				"type": "occ",
				"energy": -0.27238,
				"method": "rhf"
			},
			{
				"type": "occ",
				"energy": -0.24237,
				"method": "rhf"
			},
			{
				"type": "occ",
				"energy": -0.20339,
				"method": "rhf"
			},
			{
				"type": "unocc",
				"energy": 0.00143,
				"method": "rhf"
			},
			{
				"type": "unocc",
				"energy": 0.02289,
				"method": "rhf"
			},
			{
				"type": "unocc",
				"energy": 0.074,
				"method": "rhf"
			},
			{
				"type": "unocc",
				"energy": 0.1044,
				"method": "rhf"
			},
			{
				"type": "unocc",
				"energy": 0.13158,
				"method": "rhf"
			}
		],
		"cosmo_sigma_profile": { 
			"-0.025": 0.0,
			"-0.024": 0.0,
			"-0.023": 0.0,
			"-0.022": 0.0,
			"-0.021": 0.0,
			"-0.02": 0.0,
			"-0.019": 0.0,
			"-0.018": 0.0,
			"-0.017": 0.0,
			"-0.016": 0.0,
			"-0.015": 0.0,
			"-0.014": 0.0,
			"-0.013": 0.0,
			"-0.012": 0.719162820595,
			"-0.011": 2.71430298671,
			"-0.01": 2.85794477131,
			"-0.009": 3.21029256525,
			"-0.008": 2.84847699742,
			"-0.007": 2.6642118581,
			"-0.006": 3.73280148615,
			"-0.005": 8.16683381407,
			"-0.004": 12.9506060649,
			"-0.003": 14.2491769306,
			"-0.002": 12.7593493916,
			"-0.001": 13.5090267015,
			"0.0": 15.6438346734,
			"0.001": 11.1168381724,
			"0.002": 7.70564007251,
			"0.003": 8.06650214327,
			"0.004": 10.1738537534,
			"0.005": 9.45685469145,
			"0.006": 9.86456046321,
			"0.007": 4.57180854725,
			"0.008": 2.29428984592,
			"0.009": 1.59545703343,
			"0.01": 1.90561268885,
			"0.011": 1.32475087563,
			"0.012": 2.44243076736,
			"0.013": 0.63368565374,
			"0.014": 0.0,
			"0.015": 0.0,
			"0.016": 0.0,
			"0.017": 0.0,
			"0.018": 0.0,
			"0.019": 0.0,
			"0.02": 0.0,
			"0.021": 0.0,
			"0.022": 0.0,
			"0.023": 0.0,
			"0.024": 0.0,
			"0.025": 0.0
		}
	}
}
