{
	 "smiles": "CC(C)[C@H](NC(=O)OCC1=CC=CC=C1)C(O)=O", 
	 "Tm": 333.15, 
	 "num_atms": 35, 
	 "gaussian": { 
		 "optdone": 1, 
		 "sigma_profile": "yes", 
		 "theory": "DFT", 
		 "functional": "B3LYP", 
		 "basiset": "6-31G**", 
		 "properties": { 
			 "R2extent": 6017.2787, 
			 "electric_dipole_moment_norm": 3.70999296226, 
			 "electric_quadrupole_moment_norm": 20.385786119, 
			 "total_energy": -861.317869698, 
			 "HOMO_LUMO_gap": 0.22469, 
			 "cosmo_polarized_energy": -17.29, 
			 "cosmo_cavitation_energy": 38.53, 
			 "cosmo_dispersion_energy": -26.06, 
			 "cosmo_repulsion_energy": 2.04, 
			 "cosmo_total_nonelectrostatic_energy": 14.51, 
			 "SMD_solvation_energy": 8.49 
		},
		"coords": [
			{
				"x": -2.117769998,
				"y": 1.7804472286,
				"z": -2.1657994163,
				"element": "C" 
			},
			{
				"x": -2.0815061217,
				"y": 1.962550164,
				"z": -0.6414930066,
				"element": "C" 
			},
			{
				"x": -3.499534673,
				"y": 2.0473579513,
				"z": -0.0523277505,
				"element": "C" 
			},
			{
				"x": -1.203169076,
				"y": 0.8781158694,
				"z": 0.0213357796,
				"element": "C" 
			},
			{
				"x": -1.8409676402,
				"y": -0.4399976331,
				"z": -0.0424761696,
				"element": "N" 
			},
			{
				"x": -1.2373771886,
				"y": -1.6589724357,
				"z": -0.1140753721,
				"element": "C" 
			},
			{
				"x": -1.810389455,
				"y": -2.7219749591,
				"z": -0.2448285787,
				"element": "O" 
			},
			{
				"x": 0.1278822185,
				"y": -1.5350350266,
				"z": 0.0020362692,
				"element": "O" 
			},
			{
				"x": 0.8726142095,
				"y": -2.7850602032,
				"z": -0.1169973744,
				"element": "C" 
			},
			{
				"x": 2.3081177876,
				"y": -2.4999110996,
				"z": 0.2241217696,
				"element": "C" 
			},
			{
				"x": 3.2182712048,
				"y": -2.131960257,
				"z": -0.7747827065,
				"element": "C" 
			},
			{
				"x": 4.5449059679,
				"y": -1.8448223194,
				"z": -0.45350733,
				"element": "C" 
			},
			{
				"x": 4.9739039012,
				"y": -1.9209089252,
				"z": 0.8733399826,
				"element": "C" 
			},
			{
				"x": 4.0740959566,
				"y": -2.2869495896,
				"z": 1.8764261476,
				"element": "C" 
			},
			{
				"x": 2.7486166659,
				"y": -2.5764675532,
				"z": 1.5520031068,
				"element": "C" 
			},
			{
				"x": -0.8025213101,
				"y": 1.247578159,
				"z": 1.4732699749,
				"element": "C" 
			},
			{
				"x": 0.0235655763,
				"y": 0.3712982036,
				"z": 2.0755259185,
				"element": "O" 
			},
			{
				"x": -1.1698712295,
				"y": 2.2494051056,
				"z": 2.0405656702,
				"element": "O" 
			},
			{
				"x": -2.7039456894,
				"y": 2.5777846713,
				"z": -2.6332904678,
				"element": "H" 
			},
			{
				"x": -2.5755592556,
				"y": 0.8246763762,
				"z": -2.4435289858,
				"element": "H" 
			},
			{
				"x": -1.1117458651,
				"y": 1.807386139,
				"z": -2.5989425908,
				"element": "H" 
			},
			{
				"x": -1.5804253486,
				"y": 2.9092077791,
				"z": -0.4119354964,
				"element": "H" 
			},
			{
				"x": -4.1085057577,
				"y": 1.1692993125,
				"z": -0.3048099106,
				"element": "H" 
			},
			{
				"x": -4.0223784032,
				"y": 2.912922408,
				"z": -0.4706772485,
				"element": "H" 
			},
			{
				"x": -3.4709355777,
				"y": 2.1623007819,
				"z": 1.0328410037,
				"element": "H" 
			},
			{
				"x": -0.2658434353,
				"y": 0.8054519098,
				"z": -0.5435756203,
				"element": "H" 
			},
			{
				"x": -2.8485583769,
				"y": -0.4867639657,
				"z": -0.0128906642,
				"element": "H" 
			},
			{
				"x": 0.4216823303,
				"y": -3.5167591441,
				"z": 0.5567584154,
				"element": "H" 
			},
			{
				"x": 0.7584779128,
				"y": -3.1494248641,
				"z": -1.1413076373,
				"element": "H" 
			},
			{
				"x": 2.8847933138,
				"y": -2.073576218,
				"z": -1.8078638166,
				"element": "H" 
			},
			{
				"x": 5.2431975887,
				"y": -1.5643777408,
				"z": -1.236640435,
				"element": "H" 
			},
			{
				"x": 6.0070701648,
				"y": -1.6991112994,
				"z": 1.124342746,
				"element": "H" 
			},
			{
				"x": 4.4045678247,
				"y": -2.3506060379,
				"z": 2.908872002,
				"element": "H" 
			},
			{
				"x": 2.050701072,
				"y": -2.8673713164,
				"z": 2.3333431318,
				"element": "H" 
			},
			{
				"x": 0.272140706,
				"y": -0.3449314713,
				"z": 1.4591686601,
				"element": "H" 
			}
		],
		 "valence_orbital": [ 
			{
				"type": "occ",
				"energy": -0.29598,
				"method": "rhf"
			},
			{
				"type": "occ",
				"energy": -0.28962,
				"method": "rhf"
			},
			{
				"type": "occ",
				"energy": -0.26436,
				"method": "rhf"
			},
			{
				"type": "occ",
				"energy": -0.26265,
				"method": "rhf"
			},
			{
				"type": "occ",
				"energy": -0.24991,
				"method": "rhf"
			},
			{
				"type": "unocc",
				"energy": -0.02522,
				"method": "rhf"
			},
			{
				"type": "unocc",
				"energy": -0.01597,
				"method": "rhf"
			},
			{
				"type": "unocc",
				"energy": 0.00551,
				"method": "rhf"
			},
			{
				"type": "unocc",
				"energy": 0.03944,
				"method": "rhf"
			},
			{
				"type": "unocc",
				"energy": 0.06907,
				"method": "rhf"
			}
		],
		"cosmo_sigma_profile": { 
			"-0.025": 0.0,
			"-0.024": 0.0,
			"-0.023": 0.0,
			"-0.022": 0.0,
			"-0.021": 0.0,
			"-0.02": 0.0,
			"-0.019": 0.0,
			"-0.018": 0.0,
			"-0.017": 0.0,
			"-0.016": 0.0,
			"-0.015": 0.0,
			"-0.014": 0.148339564881,
			"-0.013": 0.88649677819,
			"-0.012": 0.867081169708,
			"-0.011": 0.706618841096,
			"-0.01": 1.80467415332,
			"-0.009": 2.27276728135,
			"-0.008": 3.60511044789,
			"-0.007": 7.25169568327,
			"-0.006": 21.5303551225,
			"-0.005": 21.404914925,
			"-0.004": 23.9444899053,
			"-0.003": 28.454510614,
			"-0.002": 27.4836612045,
			"-0.001": 22.8634306081,
			"0.0": 23.646875521,
			"0.001": 21.2572452336,
			"0.002": 13.9704487975,
			"0.003": 11.5585873108,
			"0.004": 12.5487042596,
			"0.005": 13.0771489014,
			"0.006": 5.68490136522,
			"0.007": 3.11416831209,
			"0.008": 4.00764035686,
			"0.009": 4.9255967805,
			"0.01": 5.46829509839,
			"0.011": 7.67265781101,
			"0.012": 8.5828986259,
			"0.013": 5.07465321286,
			"0.014": 0.126788358167,
			"0.015": 0.0,
			"0.016": 0.0,
			"0.017": 0.0,
			"0.018": 0.0,
			"0.019": 0.0,
			"0.02": 0.0,
			"0.021": 0.0,
			"0.022": 0.0,
			"0.023": 0.0,
			"0.024": 0.0,
			"0.025": 0.0
		}
	}
}
