{
	 "smiles": "COC1=CC=C(C=C1)N(C)S(=O)(=O)C1=CC(=CC=C1)C(O)=O", 
	 "Tm": 446.15, 
	 "num_atms": 37, 
	 "gaussian": { 
		 "optdone": 1, 
		 "sigma_profile": "yes", 
		 "theory": "DFT", 
		 "functional": "B3LYP", 
		 "basiset": "6-31G**", 
		 "properties": { 
			 "R2extent": 8986.4079, 
			 "electric_dipole_moment_norm": 5.55625703689, 
			 "electric_quadrupole_moment_norm": 19.222912681, 
			 "total_energy": -1409.62500762, 
			 "HOMO_LUMO_gap": 0.15221, 
			 "cosmo_polarized_energy": -20.27, 
			 "cosmo_cavitation_energy": 42.64, 
			 "cosmo_dispersion_energy": -29.59, 
			 "cosmo_repulsion_energy": 2.23, 
			 "cosmo_total_nonelectrostatic_energy": 15.28, 
			 "SMD_solvation_energy": 8.15 
		},
		"coords": [
			{
				"x": -4.1756268115,
				"y": 3.6691506311,
				"z": 0.2075869947,
				"element": "C" 
			},
			{
				"x": -3.899998766,
				"y": 2.6721396243,
				"z": 1.1787781362,
				"element": "O" 
			},
			{
				"x": -2.6097898,
				"y": 2.2602005416,
				"z": 1.334246831,
				"element": "C" 
			},
			{
				"x": -1.522595913,
				"y": 2.7489277644,
				"z": 0.6016827858,
				"element": "C" 
			},
			{
				"x": -0.2415114539,
				"y": 2.2451679003,
				"z": 0.8447076816,
				"element": "C" 
			},
			{
				"x": -0.0240876006,
				"y": 1.2748728067,
				"z": 1.8268999441,
				"element": "C" 
			},
			{
				"x": -1.1201472872,
				"y": 0.8003794043,
				"z": 2.567464075,
				"element": "C" 
			},
			{
				"x": -2.397048715,
				"y": 1.2779021788,
				"z": 2.3151440795,
				"element": "C" 
			},
			{
				"x": 1.294249097,
				"y": 0.7872856448,
				"z": 2.125126139,
				"element": "N" 
			},
			{
				"x": 2.4151896173,
				"y": 1.735472125,
				"z": 2.0615434928,
				"element": "C" 
			},
			{
				"x": 1.6651830181,
				"y": -0.8147196078,
				"z": 1.6774858641,
				"element": "S" 
			},
			{
				"x": 0.5158601687,
				"y": -1.6399898735,
				"z": 2.0463218753,
				"element": "O" 
			},
			{
				"x": 3.0086449999,
				"y": -1.0773457839,
				"z": 2.1972039966,
				"element": "O" 
			},
			{
				"x": 1.7674139763,
				"y": -0.8168861948,
				"z": -0.1189677765,
				"element": "C" 
			},
			{
				"x": 3.0056361266,
				"y": -0.6248020332,
				"z": -0.731187936,
				"element": "C" 
			},
			{
				"x": 3.071490981,
				"y": -0.5921503192,
				"z": -2.1297741233,
				"element": "C" 
			},
			{
				"x": 1.906253594,
				"y": -0.7525403143,
				"z": -2.8916633907,
				"element": "C" 
			},
			{
				"x": 0.6780950775,
				"y": -0.9501569389,
				"z": -2.2640698713,
				"element": "C" 
			},
			{
				"x": 0.5997720078,
				"y": -0.9837864057,
				"z": -0.8708521144,
				"element": "C" 
			},
			{
				"x": 4.358197908,
				"y": -0.3975038186,
				"z": -2.8543124333,
				"element": "C" 
			},
			{
				"x": 5.4162532456,
				"y": -0.2540345986,
				"z": -2.0216350323,
				"element": "O" 
			},
			{
				"x": 4.4702902642,
				"y": -0.3640465033,
				"z": -4.063251628,
				"element": "O" 
			},
			{
				"x": -3.9094123673,
				"y": 3.3347626433,
				"z": -0.8035217663,
				"element": "H" 
			},
			{
				"x": -5.2510293543,
				"y": 3.8465965403,
				"z": 0.2544694651,
				"element": "H" 
			},
			{
				"x": -3.6458424519,
				"y": 4.6052928209,
				"z": 0.4264104814,
				"element": "H" 
			},
			{
				"x": -1.655352468,
				"y": 3.5090628034,
				"z": -0.158759054,
				"element": "H" 
			},
			{
				"x": 0.5898741505,
				"y": 2.626076349,
				"z": 0.2605103307,
				"element": "H" 
			},
			{
				"x": -0.9536754822,
				"y": 0.0512911473,
				"z": 3.3317169451,
				"element": "H" 
			},
			{
				"x": -3.2504491744,
				"y": 0.9170138895,
				"z": 2.8795072547,
				"element": "H" 
			},
			{
				"x": 2.1117022594,
				"y": 2.6413767372,
				"z": 2.5900988939,
				"element": "H" 
			},
			{
				"x": 3.2744671434,
				"y": 1.2972621143,
				"z": 2.5674970828,
				"element": "H" 
			},
			{
				"x": 2.7040705185,
				"y": 2.0050332952,
				"z": 1.0356856652,
				"element": "H" 
			},
			{
				"x": 3.9019476774,
				"y": -0.5284351896,
				"z": -0.1307538232,
				"element": "H" 
			},
			{
				"x": 1.989130066,
				"y": -0.7266967369,
				"z": -3.9729046375,
				"element": "H" 
			},
			{
				"x": -0.2203754544,
				"y": -1.0859324437,
				"z": -2.8578178894,
				"element": "H" 
			},
			{
				"x": -0.343769345,
				"y": -1.1575316888,
				"z": -0.3659067974,
				"element": "H" 
			},
			{
				"x": 6.1943905474,
				"y": -0.1428085109,
				"z": -2.5922097409,
				"element": "H" 
			}
		],
		 "valence_orbital": [ 
			{
				"type": "occ",
				"energy": -0.28537,
				"method": "rhf"
			},
			{
				"type": "occ",
				"energy": -0.28081,
				"method": "rhf"
			},
			{
				"type": "occ",
				"energy": -0.26867,
				"method": "rhf"
			},
			{
				"type": "occ",
				"energy": -0.25823,
				"method": "rhf"
			},
			{
				"type": "occ",
				"energy": -0.21794,
				"method": "rhf"
			},
			{
				"type": "unocc",
				"energy": -0.06573,
				"method": "rhf"
			},
			{
				"type": "unocc",
				"energy": -0.04179,
				"method": "rhf"
			},
			{
				"type": "unocc",
				"energy": -0.01082,
				"method": "rhf"
			},
			{
				"type": "unocc",
				"energy": -0.00382,
				"method": "rhf"
			},
			{
				"type": "unocc",
				"energy": 0.03465,
				"method": "rhf"
			}
		],
		"cosmo_sigma_profile": { 
			"-0.025": 0.0,
			"-0.024": 0.0,
			"-0.023": 0.0,
			"-0.022": 0.0,
			"-0.021": 0.0,
			"-0.02": 0.0,
			"-0.019": 0.2274645585,
			"-0.018": 0.698561214668,
			"-0.017": 1.39234805578,
			"-0.016": 0.533062155109,
			"-0.015": 0.765778125593,
			"-0.014": 0.881735870398,
			"-0.013": 0.744138152807,
			"-0.012": 0.309391439806,
			"-0.011": 1.13857644976,
			"-0.01": 0.634431421112,
			"-0.009": 0.197830536531,
			"-0.008": 2.55903521421,
			"-0.007": 9.86494488533,
			"-0.006": 21.0010595924,
			"-0.005": 25.947289014,
			"-0.004": 28.2581759835,
			"-0.003": 30.9707145782,
			"-0.002": 23.1322028031,
			"-0.001": 22.0279715328,
			"0.0": 24.6199727508,
			"0.001": 22.8140413007,
			"0.002": 20.1584774258,
			"0.003": 17.6264085565,
			"0.004": 18.8574193754,
			"0.005": 11.060141469,
			"0.006": 7.49114734345,
			"0.007": 8.14063448981,
			"0.008": 6.56055480165,
			"0.009": 7.22251472546,
			"0.01": 10.093597834,
			"0.011": 11.2852149601,
			"0.012": 2.92083059362,
			"0.013": 0.0,
			"0.014": 0.0,
			"0.015": 0.0,
			"0.016": 0.0,
			"0.017": 0.0,
			"0.018": 0.0,
			"0.019": 0.0,
			"0.02": 0.0,
			"0.021": 0.0,
			"0.022": 0.0,
			"0.023": 0.0,
			"0.024": 0.0,
			"0.0": 0.0
		}
	}
}
