{
	 "smiles": "NC1=NC(=NC(O)=N1)C12CC3CC(CC(C3)C1)C2", 
	 "Tm": 613.15, 
	 "num_atms": 36, 
	 "gaussian": { 
		 "optdone": 1, 
		 "sigma_profile": "yes", 
		 "theory": "DFT", 
		 "functional": "B3LYP", 
		 "basiset": "6-31G**", 
		 "properties": { 
			 "R2extent": 4998.0707, 
			 "electric_dipole_moment_norm": 3.21244989377, 
			 "electric_quadrupole_moment_norm": 16.7524558955, 
			 "total_energy": -800.529811428, 
			 "HOMO_LUMO_gap": 0.22932, 
			 "cosmo_polarized_energy": -13.31, 
			 "cosmo_cavitation_energy": 34.66, 
			 "cosmo_dispersion_energy": -26.12, 
			 "cosmo_repulsion_energy": 2.02, 
			 "cosmo_total_nonelectrostatic_energy": 10.56, 
			 "SMD_solvation_energy": 1.54 
		},
		"coords": [
			{
				"x": 2.7408208762,
				"y": 2.377037911,
				"z": -3.7779151849,
				"element": "N" 
			},
			{
				"x": 1.8325118936,
				"y": 1.4713296113,
				"z": -3.3495181641,
				"element": "C" 
			},
			{
				"x": 1.6075360096,
				"y": 1.4099292018,
				"z": -2.0203776559,
				"element": "N" 
			},
			{
				"x": 0.6947989437,
				"y": 0.5109644219,
				"z": -1.6455213593,
				"element": "C" 
			},
			{
				"x": 0.0196628126,
				"y": -0.297791301,
				"z": -2.4829738766,
				"element": "N" 
			},
			{
				"x": 0.3345074473,
				"y": -0.1393055271,
				"z": -3.7653278875,
				"element": "C" 
			},
			{
				"x": -0.3155051036,
				"y": -0.9286955363,
				"z": -4.6322400395,
				"element": "O" 
			},
			{
				"x": 1.2233713908,
				"y": 0.7145268219,
				"z": -4.2792769212,
				"element": "N" 
			},
			{
				"x": 0.3776956836,
				"y": 0.3634844895,
				"z": -0.1658446029,
				"element": "C" 
			},
			{
				"x": 1.1879048153,
				"y": 1.3426219244,
				"z": 0.7133543804,
				"element": "C" 
			},
			{
				"x": 0.8283068043,
				"y": 1.1447544232,
				"z": 2.2006678616,
				"element": "C" 
			},
			{
				"x": -0.6769448258,
				"y": 1.4093572047,
				"z": 2.4101653102,
				"element": "C" 
			},
			{
				"x": -1.4949618248,
				"y": 0.4241721335,
				"z": 1.5507363282,
				"element": "C" 
			},
			{
				"x": -1.1647065302,
				"y": -1.022643892,
				"z": 1.9716075726,
				"element": "C" 
			},
			{
				"x": 0.3410965174,
				"y": -1.2869261815,
				"z": 1.766330367,
				"element": "C" 
			},
			{
				"x": 1.1580364607,
				"y": -0.3009407517,
				"z": 2.6258455561,
				"element": "C" 
			},
			{
				"x": 0.6983770289,
				"y": -1.0934050818,
				"z": 0.2793401783,
				"element": "C" 
			},
			{
				"x": -1.1401860993,
				"y": 0.6203989122,
				"z": 0.0633441721,
				"element": "C" 
			},
			{
				"x": 3.2594626554,
				"y": 2.9030203737,
				"z": -3.0948541345,
				"element": "H" 
			},
			{
				"x": 2.9919893356,
				"y": 2.4047417155,
				"z": -4.7516380766,
				"element": "H" 
			},
			{
				"x": 0.0194412913,
				"y": -0.6952679233,
				"z": -5.5123009902,
				"element": "H" 
			},
			{
				"x": 0.9830815302,
				"y": 2.3742823461,
				"z": 0.405081751,
				"element": "H" 
			},
			{
				"x": 2.2604634023,
				"y": 1.1822374144,
				"z": 0.5555214299,
				"element": "H" 
			},
			{
				"x": 1.4132953433,
				"y": 1.848783746,
				"z": 2.8063856278,
				"element": "H" 
			},
			{
				"x": -0.9203545777,
				"y": 2.4436607523,
				"z": 2.1330720663,
				"element": "H" 
			},
			{
				"x": -0.9375551472,
				"y": 1.293061141,
				"z": 3.4705292051,
				"element": "H" 
			},
			{
				"x": -2.5672311097,
				"y": 0.6131475273,
				"z": 1.6899310328,
				"element": "H" 
			},
			{
				"x": -1.7563764167,
				"y": -1.7322026413,
				"z": 1.3788177814,
				"element": "H" 
			},
			{
				"x": -1.4352774898,
				"y": -1.1803242615,
				"z": 3.0240623035,
				"element": "H" 
			},
			{
				"x": 0.5778932013,
				"y": -2.3179486397,
				"z": 2.0592663609,
				"element": "H" 
			},
			{
				"x": 2.2320694317,
				"y": -0.4943810292,
				"z": 2.5039974269,
				"element": "H" 
			},
			{
				"x": 0.9263287244,
				"y": -0.4447480926,
				"z": 3.6895484075,
				"element": "H" 
			},
			{
				"x": 1.7657650863,
				"y": -1.2967883149,
				"z": 0.1194658656,
				"element": "H" 
			},
			{
				"x": 0.1385489581,
				"y": -1.7932104029,
				"z": -0.349590555,
				"element": "H" 
			},
			{
				"x": -1.3881821199,
				"y": 1.6432062472,
				"z": -0.2505806537,
				"element": "H" 
			},
			{
				"x": -1.719884399,
				"y": -0.0603387422,
				"z": -0.5683108832,
				"element": "H" 
			}
		],
		 "valence_orbital": [ 
			{
				"type": "occ",
				"energy": -0.27313,
				"method": "rhf"
			},
			{
				"type": "occ",
				"energy": -0.27013,
				"method": "rhf"
			},
			{
				"type": "occ",
				"energy": -0.26197,
				"method": "rhf"
			},
			{
				"type": "occ",
				"energy": -0.25639,
				"method": "rhf"
			},
			{
				"type": "occ",
				"energy": -0.24837,
				"method": "rhf"
			},
			{
				"type": "unocc",
				"energy": -0.01905,
				"method": "rhf"
			},
			{
				"type": "unocc",
				"energy": 0.00315,
				"method": "rhf"
			},
			{
				"type": "unocc",
				"energy": 0.07661,
				"method": "rhf"
			},
			{
				"type": "unocc",
				"energy": 0.08225,
				"method": "rhf"
			},
			{
				"type": "unocc",
				"energy": 0.08886,
				"method": "rhf"
			}
		],
		"cosmo_sigma_profile": { 
			"-0.025": 0.0,
			"-0.024": 0.0,
			"-0.023": 0.0,
			"-0.022": 0.0,
			"-0.021": 0.0,
			"-0.02": 0.0,
			"-0.019": 0.0,
			"-0.018": 0.380333073462,
			"-0.017": 0.773986202216,
			"-0.016": 1.01571805012,
			"-0.015": 1.13428180695,
			"-0.014": 2.58796772609,
			"-0.013": 2.57475949827,
			"-0.012": 2.43013802985,
			"-0.011": 3.23201593629,
			"-0.01": 2.48986022779,
			"-0.009": 2.21457911322,
			"-0.008": 2.69165288248,
			"-0.007": 2.24157684755,
			"-0.006": 1.98338866228,
			"-0.005": 1.51476382103,
			"-0.004": 2.27586780473,
			"-0.003": 6.53155070443,
			"-0.002": 34.8456664668,
			"-0.001": 50.4425389142,
			"0.0": 44.454114251,
			"0.001": 34.462656746,
			"0.002": 14.2793346847,
			"0.003": 8.25266875692,
			"0.004": 7.50854492136,
			"0.005": 5.92044034563,
			"0.006": 4.40985984662,
			"0.007": 4.61093573517,
			"0.008": 5.26158497267,
			"0.009": 4.40560984698,
			"0.01": 4.70037577954,
			"0.011": 4.98713101611,
			"0.012": 1.78433903913,
			"0.013": 1.31465924107,
			"0.014": 0.651737025072,
			"0.015": 0.177998201187,
			"0.016": 0.0,
			"0.017": 0.0,
			"0.018": 0.0,
			"0.019": 0.0,
			"0.02": 0.0,
			"0.021": 0.0,
			"0.022": 0.0,
			"0.023": 0.0,
			"0.024": 0.0,
			"0.025": 0.0
		}
	}
}
