{
	 "smiles": "[O-][N+](=O)C1=C(C=CC2=NC3=CC=CC=C3N2)C=CC=C1", 
	 "Tm": 488.15, 
	 "num_atms": 31, 
	 "gaussian": { 
		 "optdone": 1, 
		 "sigma_profile": "yes", 
		 "theory": "DFT", 
		 "functional": "B3LYP", 
		 "basiset": "6-31G**", 
		 "properties": { 
			 "R2extent": 8098.3513, 
			 "electric_dipole_moment_norm": 1.36921670308, 
			 "electric_quadrupole_moment_norm": 27.8300681731, 
			 "total_energy": -892.82473619, 
			 "HOMO_LUMO_gap": 0.11316, 
			 "cosmo_polarized_energy": -17.07, 
			 "cosmo_cavitation_energy": 36.77, 
			 "cosmo_dispersion_energy": -26.88, 
			 "cosmo_repulsion_energy": 2.02, 
			 "cosmo_total_nonelectrostatic_energy": 11.91, 
			 "SMD_solvation_energy": 6.25 
		},
		"coords": [
			{
				"x": 0.1602333318,
				"y": 1.0685157383,
				"z": 4.5502288306,
				"element": "O" 
			},
			{
				"x": 0.049557347,
				"y": 1.443690619,
				"z": 3.3839722389,
				"element": "N" 
			},
			{
				"x": 0.9816965496,
				"y": 1.8643516783,
				"z": 2.6969758388,
				"element": "O" 
			},
			{
				"x": -1.3006571417,
				"y": 1.44265501,
				"z": 2.7980249411,
				"element": "C" 
			},
			{
				"x": -1.5691618633,
				"y": 1.0829879617,
				"z": 1.4525275818,
				"element": "C" 
			},
			{
				"x": -0.6936341925,
				"y": 0.5133423238,
				"z": 0.4243800099,
				"element": "C" 
			},
			{
				"x": 0.6023216203,
				"y": 0.1354102001,
				"z": 0.4354826268,
				"element": "C" 
			},
			{
				"x": 1.2155836946,
				"y": -0.482088988,
				"z": -0.72449552,
				"element": "C" 
			},
			{
				"x": 0.6246519745,
				"y": -0.7838628259,
				"z": -1.8675828855,
				"element": "N" 
			},
			{
				"x": 1.6108997369,
				"y": -1.3409905241,
				"z": -2.6539356261,
				"element": "C" 
			},
			{
				"x": 1.5427221669,
				"y": -1.8393010086,
				"z": -3.9644184644,
				"element": "C" 
			},
			{
				"x": 2.702997822,
				"y": -2.3536879606,
				"z": -4.5295689311,
				"element": "C" 
			},
			{
				"x": 3.921188333,
				"y": -2.3806169467,
				"z": -3.8166070825,
				"element": "C" 
			},
			{
				"x": 4.0155930645,
				"y": -1.8940623708,
				"z": -2.5159407945,
				"element": "C" 
			},
			{
				"x": 2.8461005863,
				"y": -1.3778646326,
				"z": -1.952881505,
				"element": "C" 
			},
			{
				"x": 2.5585360414,
				"y": -0.8244367856,
				"z": -0.7228574055,
				"element": "N" 
			},
			{
				"x": -2.9231980633,
				"y": 1.2159542501,
				"z": 1.0641518377,
				"element": "C" 
			},
			{
				"x": -3.9222024337,
				"y": 1.6626531085,
				"z": 1.9205552529,
				"element": "C" 
			},
			{
				"x": -3.6156225393,
				"y": 1.9828909793,
				"z": 3.24368529,
				"element": "C" 
			},
			{
				"x": -2.3007585894,
				"y": 1.8587265051,
				"z": 3.6782275402,
				"element": "C" 
			},
			{
				"x": -1.2126109506,
				"y": 0.3231241,
				"z": -0.5127310227,
				"element": "H" 
			},
			{
				"x": 1.242005233,
				"y": 0.2850591044,
				"z": 1.2954338025,
				"element": "H" 
			},
			{
				"x": 0.6038615745,
				"y": -1.8160237388,
				"z": -4.5079922689,
				"element": "H" 
			},
			{
				"x": 2.6776345983,
				"y": -2.7450202887,
				"z": -5.5422503761,
				"element": "H" 
			},
			{
				"x": 4.8058711591,
				"y": -2.7908915185,
				"z": -4.2943739399,
				"element": "H" 
			},
			{
				"x": 4.9545306865,
				"y": -1.9167659624,
				"z": -1.971012776,
				"element": "H" 
			},
			{
				"x": 3.2049792439,
				"y": -0.6684968486,
				"z": 0.0354106257,
				"element": "H" 
			},
			{
				"x": -3.1834867107,
				"y": 0.9418792463,
				"z": 0.0464668709,
				"element": "H" 
			},
			{
				"x": -4.9411432054,
				"y": 1.7505004825,
				"z": 1.5561002528,
				"element": "H" 
			},
			{
				"x": -4.3845341691,
				"y": 2.3244318487,
				"z": 3.928674597,
				"element": "H" 
			},
			{
				"x": -2.0225549052,
				"y": 2.0911372439,
				"z": 4.6989504608,
				"element": "H" 
			}
		],
		 "valence_orbital": [ 
			{
				"type": "occ",
				"energy": -0.27365,
				"method": "rhf"
			},
			{
				"type": "occ",
				"energy": -0.27282,
				"method": "rhf"
			},
			{
				"type": "occ",
				"energy": -0.26352,
				"method": "rhf"
			},
			{
				"type": "occ",
				"energy": -0.22807,
				"method": "rhf"
			},
			{
				"type": "occ",
				"energy": -0.20897,
				"method": "rhf"
			},
			{
				"type": "unocc",
				"energy": -0.09581,
				"method": "rhf"
			},
			{
				"type": "unocc",
				"energy": -0.06059,
				"method": "rhf"
			},
			{
				"type": "unocc",
				"energy": -0.01855,
				"method": "rhf"
			},
			{
				"type": "unocc",
				"energy": -0.00447,
				"method": "rhf"
			},
			{
				"type": "unocc",
				"energy": 0.0214,
				"method": "rhf"
			}
		],
		"cosmo_sigma_profile": { 
			"-0.025": 0.0,
			"-0.024": 0.0,
			"-0.023": 0.0,
			"-0.022": 0.0,
			"-0.021": 0.0,
			"-0.02": 0.0,
			"-0.019": 0.0,
			"-0.018": 0.0,
			"-0.017": 0.374114949515,
			"-0.016": 1.89443724904,
			"-0.015": 1.4021131617,
			"-0.014": 1.50430777938,
			"-0.013": 1.74130136659,
			"-0.012": 0.939848484498,
			"-0.011": 1.52530747438,
			"-0.01": 1.1180305485,
			"-0.009": 1.21017423481,
			"-0.008": 5.71681071554,
			"-0.007": 14.0156672196,
			"-0.006": 17.474614178,
			"-0.005": 18.1512245191,
			"-0.004": 17.0213265043,
			"-0.003": 16.4806889599,
			"-0.002": 12.9365223747,
			"-0.001": 15.5714056912,
			"0.0": 18.762701046,
			"0.001": 27.5345843378,
			"0.002": 26.3704657039,
			"0.003": 16.2708533586,
			"0.004": 16.6892104716,
			"0.005": 15.3595980703,
			"0.006": 13.2157182619,
			"0.007": 10.8108330216,
			"0.008": 8.70472987669,
			"0.009": 5.12240356003,
			"0.01": 2.80091890481,
			"0.011": 1.21169132601,
			"0.012": 1.35149264212,
			"0.013": 1.21518950354,
			"0.014": 0.770292043181,
			"0.015": 0.756547234299,
			"0.016": 0.479086636027,
			"0.017": 0.0,
			"0.018": 0.0,
			"0.019": 0.0,
			"0.02": 0.0,
			"0.021": 0.0,
			"0.022": 0.0,
			"0.023": 0.0,
			"0.024": 0.0,
			"0.025": 0.0
		}
	}
}
