{
	 "smiles": "CC(=O)CC(=O)NC1=C(C)C(C)=CC=C1", 
	 "Tm": 365.15, 
	 "num_atms": 30, 
	 "gaussian": { 
		 "optdone": 1, 
		 "sigma_profile": "yes", 
		 "theory": "DFT", 
		 "functional": "B3LYP", 
		 "basiset": "6-31G**", 
		 "properties": { 
			 "R2extent": 4812.3355, 
			 "electric_dipole_moment_norm": 2.59803593894, 
			 "electric_quadrupole_moment_norm": 23.3813046319, 
			 "total_energy": -671.54889927, 
			 "HOMO_LUMO_gap": 0.18343, 
			 "cosmo_polarized_energy": -13.53, 
			 "cosmo_cavitation_energy": 32.99, 
			 "cosmo_dispersion_energy": -23.36, 
			 "cosmo_repulsion_energy": 1.84, 
			 "cosmo_total_nonelectrostatic_energy": 11.47, 
			 "SMD_solvation_energy": 6.77 
		},
		"coords": [
			{
				"x": 1.6780141364,
				"y": -0.9744982894,
				"z": -5.7691696105,
				"element": "C" 
			},
			{
				"x": 0.7724049435,
				"y": -0.4780438421,
				"z": -4.6652564637,
				"element": "C" 
			},
			{
				"x": 0.6372799275,
				"y": 0.7153227747,
				"z": -4.4394486673,
				"element": "O" 
			},
			{
				"x": 0.0211046475,
				"y": -1.5406598952,
				"z": -3.8684671082,
				"element": "C" 
			},
			{
				"x": -0.1162004419,
				"y": -1.3231139355,
				"z": -2.3486001652,
				"element": "C" 
			},
			{
				"x": 0.0307626425,
				"y": -2.2611377028,
				"z": -1.5800313206,
				"element": "O" 
			},
			{
				"x": -0.4642231275,
				"y": -0.0488788575,
				"z": -1.9868622004,
				"element": "N" 
			},
			{
				"x": -0.5312351505,
				"y": 0.418780662,
				"z": -0.6403558794,
				"element": "C" 
			},
			{
				"x": -1.434615874,
				"y": -0.1363863869,
				"z": 0.2857232446,
				"element": "C" 
			},
			{
				"x": -2.3856158412,
				"y": -1.2326090362,
				"z": -0.1250811919,
				"element": "C" 
			},
			{
				"x": -1.4378792755,
				"y": 0.3732556437,
				"z": 1.6038076405,
				"element": "C" 
			},
			{
				"x": -2.3559318628,
				"y": -0.2055946216,
				"z": 2.6574521367,
				"element": "C" 
			},
			{
				"x": -0.592824827,
				"y": 1.4356463023,
				"z": 1.9418208841,
				"element": "C" 
			},
			{
				"x": 0.2632300722,
				"y": 2.004865884,
				"z": 1.0001561417,
				"element": "C" 
			},
			{
				"x": 0.3004768926,
				"y": 1.4891286389,
				"z": -0.289528353,
				"element": "C" 
			},
			{
				"x": 2.0704215027,
				"y": -0.132171821,
				"z": -6.340083891,
				"element": "H" 
			},
			{
				"x": 1.1377984808,
				"y": -1.6606405811,
				"z": -6.4313944984,
				"element": "H" 
			},
			{
				"x": 2.5079610274,
				"y": -1.5439103937,
				"z": -5.3334747805,
				"element": "H" 
			},
			{
				"x": -0.9931415033,
				"y": -1.5812006607,
				"z": -4.2920670154,
				"element": "H" 
			},
			{
				"x": 0.464140022,
				"y": -2.5283550816,
				"z": -4.0063126124,
				"element": "H" 
			},
			{
				"x": -0.3068626057,
				"y": 0.6479126577,
				"z": -2.7123460416,
				"element": "H" 
			},
			{
				"x": -2.6637146487,
				"y": -1.1258201012,
				"z": -1.1772457228,
				"element": "H" 
			},
			{
				"x": -1.921391576,
				"y": -2.2186877724,
				"z": -0.0194353272,
				"element": "H" 
			},
			{
				"x": -3.3017537676,
				"y": -1.213436217,
				"z": 0.4694354599,
				"element": "H" 
			},
			{
				"x": -2.2214214488,
				"y": -1.2876597099,
				"z": 2.7642827545,
				"element": "H" 
			},
			{
				"x": -2.1650738484,
				"y": 0.2526646181,
				"z": 3.6314485617,
				"element": "H" 
			},
			{
				"x": -3.4130933855,
				"y": -0.0383540085,
				"z": 2.4169117018,
				"element": "H" 
			},
			{
				"x": -0.6115508984,
				"y": 1.8230499417,
				"z": 2.957172239,
				"element": "H" 
			},
			{
				"x": 0.9087827472,
				"y": 2.8337961239,
				"z": 1.2751236332,
				"element": "H" 
			},
			{
				"x": 0.9816530405,
				"y": 1.8961356676,
				"z": -1.0317735486,
				"element": "H" 
			}
		],
		 "valence_orbital": [ 
			{
				"type": "occ",
				"energy": -0.28338,
				"method": "rhf"
			},
			{
				"type": "occ",
				"energy": -0.26935,
				"method": "rhf"
			},
			{
				"type": "occ",
				"energy": -0.25047,
				"method": "rhf"
			},
			{
				"type": "occ",
				"energy": -0.22905,
				"method": "rhf"
			},
			{
				"type": "occ",
				"energy": -0.22093,
				"method": "rhf"
			},
			{
				"type": "unocc",
				"energy": -0.0375,
				"method": "rhf"
			},
			{
				"type": "unocc",
				"energy": 0.00061,
				"method": "rhf"
			},
			{
				"type": "unocc",
				"energy": 0.00757,
				"method": "rhf"
			},
			{
				"type": "unocc",
				"energy": 0.03377,
				"method": "rhf"
			},
			{
				"type": "unocc",
				"energy": 0.08473,
				"method": "rhf"
			}
		],
		"cosmo_sigma_profile": { 
			"-0.025": 0.0,
			"-0.024": 0.0,
			"-0.023": 0.0,
			"-0.022": 0.0,
			"-0.021": 0.0,
			"-0.02": 0.0,
			"-0.019": 0.0,
			"-0.018": 0.0,
			"-0.017": 0.0,
			"-0.016": 0.0,
			"-0.015": 0.0,
			"-0.014": 0.0,
			"-0.013": 0.0,
			"-0.012": 0.0,
			"-0.011": 0.0,
			"-0.01": 0.0,
			"-0.009": 1.1876580467,
			"-0.008": 4.67161411899,
			"-0.007": 9.4285087855,
			"-0.006": 14.1054825133,
			"-0.005": 17.2315238022,
			"-0.004": 23.427795143,
			"-0.003": 23.9878118072,
			"-0.002": 24.585826631,
			"-0.001": 23.1853860783,
			"0.0": 21.1038590877,
			"0.001": 16.4455267994,
			"0.002": 11.991024548,
			"0.003": 10.3905015354,
			"0.004": 9.31485110375,
			"0.005": 10.1372977046,
			"0.006": 10.465902924,
			"0.007": 5.18740659654,
			"0.008": 2.78971606283,
			"0.009": 2.53378377459,
			"0.01": 4.37362636448,
			"0.011": 3.74355075728,
			"0.012": 3.56139589134,
			"0.013": 4.22496868498,
			"0.014": 2.26029487925,
			"0.015": 0.199313481559,
			"0.016": 0.0,
			"0.017": 0.0,
			"0.018": 0.0,
			"0.019": 0.0,
			"0.02": 0.0,
			"0.021": 0.0,
			"0.022": 0.0,
			"0.023": 0.0,
			"0.024": 0.0,
			"0.025": 0.0
		}
	}
}
