{
	 "smiles": "COC(=O)C1=C(OC)C=C(C=C1)C#N", 
	 "Tm": 375.15, 
	 "num_atms": 23, 
	 "gaussian": { 
		 "optdone": 1, 
		 "sigma_profile": "yes", 
		 "theory": "DFT", 
		 "functional": "B3LYP", 
		 "basiset": "6-31G**", 
		 "properties": { 
			 "R2extent": 3281.9535, 
			 "electric_dipole_moment_norm": 4.26729888337, 
			 "electric_quadrupole_moment_norm": 19.048962031, 
			 "total_energy": -666.882198993, 
			 "HOMO_LUMO_gap": 0.18817, 
			 "cosmo_polarized_energy": -12.22, 
			 "cosmo_cavitation_energy": 28.95, 
			 "cosmo_dispersion_energy": -20.29, 
			 "cosmo_repulsion_energy": 1.61, 
			 "cosmo_total_nonelectrostatic_energy": 10.27, 
			 "SMD_solvation_energy": 8.71 
		},
		"coords": [
			{
				"x": -0.5561473781,
				"y": 3.6988513004,
				"z": -2.2865942427,
				"element": "C" 
			},
			{
				"x": -0.852684978,
				"y": 2.7399377241,
				"z": -1.2573315742,
				"element": "O" 
			},
			{
				"x": 0.0460502288,
				"y": 1.7370717393,
				"z": -1.1295602863,
				"element": "C" 
			},
			{
				"x": 1.0430001529,
				"y": 1.6523952191,
				"z": -1.8171160755,
				"element": "O" 
			},
			{
				"x": -0.3692585591,
				"y": 0.7667781203,
				"z": -0.0708707493,
				"element": "C" 
			},
			{
				"x": 0.5824534402,
				"y": -0.029608226,
				"z": 0.6041434022,
				"element": "C" 
			},
			{
				"x": 1.9246875654,
				"y": 0.1248885334,
				"z": 0.4109025804,
				"element": "O" 
			},
			{
				"x": 2.5205329204,
				"y": -0.7272133242,
				"z": -0.5778242324,
				"element": "C" 
			},
			{
				"x": 0.1584624593,
				"y": -0.9424190953,
				"z": 1.5731387827,
				"element": "C" 
			},
			{
				"x": -1.2026910037,
				"y": -1.0774302446,
				"z": 1.8762843891,
				"element": "C" 
			},
			{
				"x": -2.1532006406,
				"y": -0.2825033406,
				"z": 1.2140022405,
				"element": "C" 
			},
			{
				"x": -1.7274002841,
				"y": 0.6334734653,
				"z": 0.261599077,
				"element": "C" 
			},
			{
				"x": -1.6225993344,
				"y": -2.0226152431,
				"z": 2.8709222537,
				"element": "C" 
			},
			{
				"x": -1.9657249172,
				"y": -2.7900435753,
				"z": 3.6746989183,
				"element": "N" 
			},
			{
				"x": 0.4005474437,
				"y": 4.1879553826,
				"z": -2.0887836095,
				"element": "H" 
			},
			{
				"x": -1.3707612327,
				"y": 4.4219296735,
				"z": -2.2559624284,
				"element": "H" 
			},
			{
				"x": -0.5080811701,
				"y": 3.2123455734,
				"z": -3.2640010081,
				"element": "H" 
			},
			{
				"x": 2.3453659577,
				"y": -1.7840154643,
				"z": -0.3397031122,
				"element": "H" 
			},
			{
				"x": 2.1330645979,
				"y": -0.48933857,
				"z": -1.5714130623,
				"element": "H" 
			},
			{
				"x": 3.59131517,
				"y": -0.5211272584,
				"z": -0.5438309934,
				"element": "H" 
			},
			{
				"x": 0.9040158647,
				"y": -1.5285393532,
				"z": 2.0985813113,
				"element": "H" 
			},
			{
				"x": -3.205545559,
				"y": -0.3836153301,
				"z": 1.4542737913,
				"element": "H" 
			},
			{
				"x": -2.4504007439,
				"y": 1.2604422937,
				"z": -0.2463553722,
				"element": "H" 
			}
		],
		 "valence_orbital": [ 
			{
				"type": "occ",
				"energy": -0.3148,
				"method": "rhf"
			},
			{
				"type": "occ",
				"energy": -0.2911,
				"method": "rhf"
			},
			{
				"type": "occ",
				"energy": -0.28173,
				"method": "rhf"
			},
			{
				"type": "occ",
				"energy": -0.27541,
				"method": "rhf"
			},
			{
				"type": "occ",
				"energy": -0.26565,
				"method": "rhf"
			},
			{
				"type": "unocc",
				"energy": -0.07748,
				"method": "rhf"
			},
			{
				"type": "unocc",
				"energy": -0.02814,
				"method": "rhf"
			},
			{
				"type": "unocc",
				"energy": 0.01142,
				"method": "rhf"
			},
			{
				"type": "unocc",
				"energy": 0.03097,
				"method": "rhf"
			},
			{
				"type": "unocc",
				"energy": 0.07858,
				"method": "rhf"
			}
		],
		"cosmo_sigma_profile": { 
			"-0.025": 0.0,
			"-0.024": 0.0,
			"-0.023": 0.0,
			"-0.022": 0.0,
			"-0.021": 0.0,
			"-0.02": 0.0,
			"-0.019": 0.0,
			"-0.018": 0.0,
			"-0.017": 0.0,
			"-0.016": 0.0,
			"-0.015": 0.0,
			"-0.014": 0.0,
			"-0.013": 0.0,
			"-0.012": 0.0,
			"-0.011": 0.0,
			"-0.01": 0.0,
			"-0.009": 1.31637316935,
			"-0.008": 4.48278274979,
			"-0.007": 7.30875134352,
			"-0.006": 12.7941102783,
			"-0.005": 16.5378725455,
			"-0.004": 21.7276485731,
			"-0.003": 26.5111354756,
			"-0.002": 22.4245086997,
			"-0.001": 17.0273835474,
			"0.0": 18.4059113909,
			"0.001": 14.102854005,
			"0.002": 8.53621696097,
			"0.003": 7.0771520728,
			"0.004": 5.62481391669,
			"0.005": 6.43330604347,
			"0.006": 5.04487151948,
			"0.007": 6.53321151506,
			"0.008": 6.02562598339,
			"0.009": 6.99609178928,
			"0.01": 6.92352603358,
			"0.011": 7.04862417735,
			"0.012": 2.9867026966,
			"0.013": 0.741024046189,
			"0.014": 0.0,
			"0.015": 0.0,
			"0.016": 0.0,
			"0.017": 0.0,
			"0.018": 0.0,
			"0.019": 0.0,
			"0.02": 0.0,
			"0.021": 0.0,
			"0.022": 0.0,
			"0.023": 0.0,
			"0.024": 0.0,
			"0.025": 0.0
		}
	}
}
