{
	 "smiles": "NC1=C(C=CC(Cl)=C1)N1CCC(CO)CC1", 
	 "Tm": 418.15, 
	 "num_atms": 33, 
	 "gaussian": { 
		 "optdone": 1, 
		 "sigma_profile": "yes", 
		 "theory": "DFT", 
		 "functional": "B3LYP", 
		 "basiset": "6-31G**", 
		 "properties": { 
			 "R2extent": 6556.3156, 
			 "electric_dipole_moment_norm": 3.30780416591, 
			 "electric_quadrupole_moment_norm": 21.7988064361, 
			 "total_energy": -1112.43057765, 
			 "HOMO_LUMO_gap": 0.19367, 
			 "cosmo_polarized_energy": -12.75, 
			 "cosmo_cavitation_energy": 35.54, 
			 "cosmo_dispersion_energy": -25.73, 
			 "cosmo_repulsion_energy": 2.01, 
			 "cosmo_total_nonelectrostatic_energy": 11.83, 
			 "SMD_solvation_energy": 4.67 
		},
		"coords": [
			{
				"x": -3.1355633082,
				"y": -0.6664582025,
				"z": -0.8491197692,
				"element": "N" 
			},
			{
				"x": -2.3457727014,
				"y": -1.6493308719,
				"z": -0.2592664259,
				"element": "C" 
			},
			{
				"x": -1.0875210254,
				"y": -1.2830152547,
				"z": 0.2859725005,
				"element": "C" 
			},
			{
				"x": -0.3076377697,
				"y": -2.2668392863,
				"z": 0.8997724865,
				"element": "C" 
			},
			{
				"x": -0.7247965163,
				"y": -3.5976171847,
				"z": 0.9798838387,
				"element": "C" 
			},
			{
				"x": -1.9672417097,
				"y": -3.9293508051,
				"z": 0.4473469261,
				"element": "C" 
			},
			{
				"x": -2.5311334828,
				"y": -5.5969975392,
				"z": 0.538812133,
				"element": "Cl" 
			},
			{
				"x": -2.7790727364,
				"y": -2.9796105267,
				"z": -0.1660364932,
				"element": "C" 
			},
			{
				"x": -0.7003863861,
				"y": 0.0872119395,
				"z": 0.1730412229,
				"element": "N" 
			},
			{
				"x": -1.2977938881,
				"y": 0.9474040279,
				"z": 1.2189236605,
				"element": "C" 
			},
			{
				"x": -0.7215422552,
				"y": 2.3608063751,
				"z": 1.1341390419,
				"element": "C" 
			},
			{
				"x": 0.7929760776,
				"y": 2.3766578839,
				"z": 1.4584938423,
				"element": "C" 
			},
			{
				"x": 1.4731754519,
				"y": 3.5683842394,
				"z": 0.7705789124,
				"element": "C" 
			},
			{
				"x": 2.8568827697,
				"y": 3.6868947683,
				"z": 1.0729489267,
				"element": "O" 
			},
			{
				"x": 1.452774759,
				"y": 1.0299741116,
				"z": 1.0677910161,
				"element": "C" 
			},
			{
				"x": 0.7215810938,
				"y": 0.3794520759,
				"z": -0.1121055387,
				"element": "C" 
			},
			{
				"x": -2.5743678081,
				"y": 0.1116899483,
				"z": -1.1805113071,
				"element": "H" 
			},
			{
				"x": -3.7984777385,
				"y": -1.0028087975,
				"z": -1.5343228318,
				"element": "H" 
			},
			{
				"x": 0.6532813732,
				"y": -1.9926420573,
				"z": 1.3252490013,
				"element": "H" 
			},
			{
				"x": -0.1073694544,
				"y": -4.3509336069,
				"z": 1.4545978583,
				"element": "H" 
			},
			{
				"x": -3.73789578,
				"y": -3.270681898,
				"z": -0.5827346983,
				"element": "H" 
			},
			{
				"x": -2.3838026774,
				"y": 0.9585772614,
				"z": 1.0787798773,
				"element": "H" 
			},
			{
				"x": -1.1118847156,
				"y": 0.5362769549,
				"z": 2.2265123025,
				"element": "H" 
			},
			{
				"x": -0.892907814,
				"y": 2.7451323512,
				"z": 0.1190639587,
				"element": "H" 
			},
			{
				"x": -1.268094504,
				"y": 3.0233452608,
				"z": 1.8137760466,
				"element": "H" 
			},
			{
				"x": 0.9106552679,
				"y": 2.5141531557,
				"z": 2.5439102424,
				"element": "H" 
			},
			{
				"x": 0.9293603893,
				"y": 4.4955312093,
				"z": 1.0154867148,
				"element": "H" 
			},
			{
				"x": 1.4216103017,
				"y": 3.446846338,
				"z": -0.318109312,
				"element": "H" 
			},
			{
				"x": 2.938505144,
				"y": 3.8454893079,
				"z": 2.0225665141,
				"element": "H" 
			},
			{
				"x": 1.4379549503,
				"y": 0.344687269,
				"z": 1.9233897209,
				"element": "H" 
			},
			{
				"x": 2.5051901977,
				"y": 1.2013353613,
				"z": 0.8184203589,
				"element": "H" 
			},
			{
				"x": 0.7771611249,
				"y": 1.0517211438,
				"z": -0.9810732301,
				"element": "H" 
			},
			{
				"x": 1.2148533704,
				"y": -0.5472849524,
				"z": -0.4151774969,
				"element": "H" 
			}
		],
		 "valence_orbital": [ 
			{
				"type": "occ",
				"energy": -0.2956,
				"method": "rhf"
			},
			{
				"type": "occ",
				"energy": -0.26972,
				"method": "rhf"
			},
			{
				"type": "occ",
				"energy": -0.24657,
				"method": "rhf"
			},
			{
				"type": "occ",
				"energy": -0.21843,
				"method": "rhf"
			},
			{
				"type": "occ",
				"energy": -0.19555,
				"method": "rhf"
			},
			{
				"type": "unocc",
				"energy": -0.00188,
				"method": "rhf"
			},
			{
				"type": "unocc",
				"energy": 0.01287,
				"method": "rhf"
			},
			{
				"type": "unocc",
				"energy": 0.03901,
				"method": "rhf"
			},
			{
				"type": "unocc",
				"energy": 0.06502,
				"method": "rhf"
			},
			{
				"type": "unocc",
				"energy": 0.07666,
				"method": "rhf"
			}
		],
		"cosmo_sigma_profile": { 
			"-0.025": 0.0,
			"-0.024": 0.0,
			"-0.023": 0.0,
			"-0.022": 0.0,
			"-0.021": 0.0,
			"-0.02": 0.0,
			"-0.019": 0.0,
			"-0.018": 0.0,
			"-0.017": 0.0,
			"-0.016": 0.0646921457045,
			"-0.015": 0.738452906844,
			"-0.014": 0.759498600316,
			"-0.013": 1.40434655633,
			"-0.012": 2.41734360306,
			"-0.011": 1.78621448406,
			"-0.01": 2.48753446403,
			"-0.009": 3.95679105109,
			"-0.008": 3.70843501538,
			"-0.007": 3.68389554619,
			"-0.006": 5.63709311089,
			"-0.005": 8.81942635609,
			"-0.004": 14.6563357676,
			"-0.003": 26.2531447006,
			"-0.002": 33.9489791876,
			"-0.001": 31.6816217519,
			"0.0": 22.3651225839,
			"0.001": 15.8585949927,
			"0.002": 14.1606988507,
			"0.003": 18.3812903915,
			"0.004": 18.4537885852,
			"0.005": 22.9427210102,
			"0.006": 8.66230162274,
			"0.007": 1.90442095886,
			"0.008": 3.20341456468,
			"0.009": 1.63126661019,
			"0.01": 1.53124917127,
			"0.011": 1.73410873492,
			"0.012": 1.32262522302,
			"0.013": 2.48909400781,
			"0.014": 1.81067809421,
			"0.015": 1.1399886333,
			"0.016": 0.0,
			"0.017": 0.0,
			"0.018": 0.0,
			"0.019": 0.0,
			"0.02": 0.0,
			"0.021": 0.0,
			"0.022": 0.0,
			"0.023": 0.0,
			"0.024": 0.0,
			"0.025": 0.0
		}
	}
}
