{
	 "smiles": "NC1=CC(NC(=O)CCN2C=CC=N2)=CC=C1", 
	 "Tm": 378.15, 
	 "num_atms": 31, 
	 "gaussian": { 
		 "optdone": 1, 
		 "sigma_profile": "yes", 
		 "theory": "DFT", 
		 "functional": "B3LYP", 
		 "basiset": "6-31G**", 
		 "properties": { 
			 "R2extent": 5816.0474, 
			 "electric_dipole_moment_norm": 4.73121170632, 
			 "electric_quadrupole_moment_norm": 14.3693973652, 
			 "total_energy": -759.941344547, 
			 "HOMO_LUMO_gap": 0.19627, 
			 "cosmo_polarized_energy": -18.8, 
			 "cosmo_cavitation_energy": 35.22, 
			 "cosmo_dispersion_energy": -24.7, 
			 "cosmo_repulsion_energy": 1.94, 
			 "cosmo_total_nonelectrostatic_energy": 12.46, 
			 "SMD_solvation_energy": 5.72 
		},
		"coords": [
			{
				"x": 1.9626199229,
				"y": -3.8344904504,
				"z": 0.3888247772,
				"element": "N" 
			},
			{
				"x": 2.6015718426,
				"y": -2.5969065141,
				"z": 0.4209058743,
				"element": "C" 
			},
			{
				"x": 2.298758453,
				"y": -1.6168875524,
				"z": -0.539518368,
				"element": "C" 
			},
			{
				"x": 2.8833349875,
				"y": -0.3490838388,
				"z": -0.4701019726,
				"element": "C" 
			},
			{
				"x": 2.6057318094,
				"y": 0.6487466292,
				"z": -1.4402058398,
				"element": "N" 
			},
			{
				"x": 1.4169007566,
				"y": 1.1147554112,
				"z": -1.9560413015,
				"element": "C" 
			},
			{
				"x": 1.4289804391,
				"y": 2.0368583105,
				"z": -2.7661269154,
				"element": "O" 
			},
			{
				"x": 0.1119916126,
				"y": 0.4718137672,
				"z": -1.494442505,
				"element": "C" 
			},
			{
				"x": -1.0751265163,
				"y": 1.423597625,
				"z": -1.6813234493,
				"element": "C" 
			},
			{
				"x": -1.0906235004,
				"y": 2.5078648,
				"z": -0.7118272882,
				"element": "N" 
			},
			{
				"x": -0.5382786431,
				"y": 3.7467973233,
				"z": -0.8258642072,
				"element": "C" 
			},
			{
				"x": -0.7569356508,
				"y": 4.3907639695,
				"z": 0.3776564034,
				"element": "C" 
			},
			{
				"x": -1.4506127506,
				"y": 3.443501406,
				"z": 1.1623839633,
				"element": "C" 
			},
			{
				"x": -1.6497446584,
				"y": 2.3013189175,
				"z": 0.5038718216,
				"element": "N" 
			},
			{
				"x": 3.8153154855,
				"y": -0.0582485751,
				"z": 0.5356700048,
				"element": "C" 
			},
			{
				"x": 4.1331079879,
				"y": -1.0413038983,
				"z": 1.4711695594,
				"element": "C" 
			},
			{
				"x": 3.5326517896,
				"y": -2.2963543482,
				"z": 1.4302710779,
				"element": "C" 
			},
			{
				"x": 1.5852085947,
				"y": -4.1107769441,
				"z": -0.5066916403,
				"element": "H" 
			},
			{
				"x": 2.4540517082,
				"y": -4.5895569804,
				"z": 0.8459890919,
				"element": "H" 
			},
			{
				"x": 1.6221445622,
				"y": -1.8579047762,
				"z": -1.3525934484,
				"element": "H" 
			},
			{
				"x": 3.3855156348,
				"y": 1.229291628,
				"z": -1.7253955673,
				"element": "H" 
			},
			{
				"x": -0.0647641891,
				"y": -0.4240398152,
				"z": -2.1033864826,
				"element": "H" 
			},
			{
				"x": 0.1736349369,
				"y": 0.1427340734,
				"z": -0.4538939523,
				"element": "H" 
			},
			{
				"x": -2.0110054566,
				"y": 0.8755477941,
				"z": -1.5562834453,
				"element": "H" 
			},
			{
				"x": -1.0419715603,
				"y": 1.8591871677,
				"z": -2.6812932341,
				"element": "H" 
			},
			{
				"x": -0.0301022715,
				"y": 4.0450036348,
				"z": -1.7303724102,
				"element": "H" 
			},
			{
				"x": -0.4652081481,
				"y": 5.3958054984,
				"z": 0.6436564026,
				"element": "H" 
			},
			{
				"x": -1.8199712043,
				"y": 3.5468711165,
				"z": 2.1743598568,
				"element": "H" 
			},
			{
				"x": 4.2650806055,
				"y": 0.9281851574,
				"z": 0.5881536136,
				"element": "H" 
			},
			{
				"x": 4.8540752816,
				"y": -0.8215423108,
				"z": 2.2533272343,
				"element": "H" 
			},
			{
				"x": 3.7796681387,
				"y": -3.0478482257,
				"z": 2.1752223462,
				"element": "H" 
			}
		],
		 "valence_orbital": [ 
			{
				"type": "occ",
				"energy": -0.25927,
				"method": "rhf"
			},
			{
				"type": "occ",
				"energy": -0.23719,
				"method": "rhf"
			},
			{
				"type": "occ",
				"energy": -0.23292,
				"method": "rhf"
			},
			{
				"type": "occ",
				"energy": -0.22858,
				"method": "rhf"
			},
			{
				"type": "occ",
				"energy": -0.21037,
				"method": "rhf"
			},
			{
				"type": "unocc",
				"energy": -0.0141,
				"method": "rhf"
			},
			{
				"type": "unocc",
				"energy": 0.00193,
				"method": "rhf"
			},
			{
				"type": "unocc",
				"energy": 0.03009,
				"method": "rhf"
			},
			{
				"type": "unocc",
				"energy": 0.03267,
				"method": "rhf"
			},
			{
				"type": "unocc",
				"energy": 0.06975,
				"method": "rhf"
			}
		],
		"cosmo_sigma_profile": { 
			"-0.025": 0.0,
			"-0.024": 0.0,
			"-0.023": 0.0,
			"-0.022": 0.0,
			"-0.021": 0.0,
			"-0.02": 0.0,
			"-0.019": 0.0,
			"-0.018": 0.0,
			"-0.017": 0.0,
			"-0.016": 0.0,
			"-0.015": 0.0103653909516,
			"-0.014": 0.507928995596,
			"-0.013": 1.55135464361,
			"-0.012": 3.82273783207,
			"-0.011": 3.09160450385,
			"-0.01": 3.94952789503,
			"-0.009": 4.80428363024,
			"-0.008": 6.65140289865,
			"-0.007": 9.35750189355,
			"-0.006": 16.3275471453,
			"-0.005": 19.7660051784,
			"-0.004": 18.7632368931,
			"-0.003": 20.3903264762,
			"-0.002": 16.5655858751,
			"-0.001": 14.7887193711,
			"0.0": 13.3928222289,
			"0.001": 14.0889147859,
			"0.002": 14.2318646447,
			"0.003": 14.8423719154,
			"0.004": 15.9040904976,
			"0.005": 15.7071808548,
			"0.006": 18.0784975261,
			"0.007": 6.54511520352,
			"0.008": 2.64899675619,
			"0.009": 3.52556765865,
			"0.01": 3.57067486823,
			"0.011": 3.61582409834,
			"0.012": 3.73917388963,
			"0.013": 4.68071219799,
			"0.014": 2.78842306232,
			"0.015": 1.0500125137,
			"0.016": 0.740554453347,
			"0.017": 0.0630548259585,
			"0.018": 0.0,
			"0.019": 0.0,
			"0.02": 0.0,
			"0.021": 0.0,
			"0.022": 0.0,
			"0.023": 0.0,
			"0.024": 0.0,
			"0.025": 0.0
		}
	}
}
