{
	 "smiles": "ClC(Cl)C(=O)C1=CC=CC=C1", 
	 "Tm": 293.95, 
	 "num_atms": 17, 
	 "gaussian": { 
		 "optdone": 1, 
		 "sigma_profile": "yes", 
		 "theory": "DFT", 
		 "functional": "B3LYP", 
		 "basiset": "6-31G**", 
		 "properties": { 
			 "R2extent": 4790.0149, 
			 "electric_dipole_moment_norm": 4.4614238949, 
			 "electric_quadrupole_moment_norm": 13.2547479569, 
			 "total_energy": -1304.06263266, 
			 "HOMO_LUMO_gap": 0.1902, 
			 "cosmo_polarized_energy": -9.51, 
			 "cosmo_cavitation_energy": 24.89, 
			 "cosmo_dispersion_energy": -18.42, 
			 "cosmo_repulsion_energy": 1.48, 
			 "cosmo_total_nonelectrostatic_energy": 7.95, 
			 "SMD_solvation_energy": 4.14 
		},
		"coords": [
			{
				"x": -1.7079286439,
				"y": -1.5105473444,
				"z": 4.6875297272,
				"element": "Cl" 
			},
			{
				"x": -0.8825937012,
				"y": -1.6851993931,
				"z": 3.1213335079,
				"element": "C" 
			},
			{
				"x": 0.0891156977,
				"y": -3.2132466663,
				"z": 3.0485314811,
				"element": "Cl" 
			},
			{
				"x": -1.8885806161,
				"y": -1.6891599264,
				"z": 1.9375160846,
				"element": "C" 
			},
			{
				"x": -3.0545231912,
				"y": -1.9607620035,
				"z": 2.1336627444,
				"element": "O" 
			},
			{
				"x": -1.3670921212,
				"y": -1.3354091286,
				"z": 0.5831920024,
				"element": "C" 
			},
			{
				"x": -0.019141378,
				"y": -1.0482406086,
				"z": 0.3117669089,
				"element": "C" 
			},
			{
				"x": 0.3786822398,
				"y": -0.7057306465,
				"z": -0.9796035723,
				"element": "C" 
			},
			{
				"x": -0.5615518158,
				"y": -0.6452342189,
				"z": -2.0098723563,
				"element": "C" 
			},
			{
				"x": -1.9048598094,
				"y": -0.9323728978,
				"z": -1.7490514276,
				"element": "C" 
			},
			{
				"x": -2.304805647,
				"y": -1.2760601469,
				"z": -0.4623654631,
				"element": "C" 
			},
			{
				"x": -0.1696706594,
				"y": -0.8668850977,
				"z": 3.046914583,
				"element": "H" 
			},
			{
				"x": 0.7321460326,
				"y": -1.1096691159,
				"z": 1.091419074,
				"element": "H" 
			},
			{
				"x": 1.4232932234,
				"y": -0.4893535398,
				"z": -1.1811738224,
				"element": "H" 
			},
			{
				"x": -0.2481777975,
				"y": -0.3767042417,
				"z": -3.0145730996,
				"element": "H" 
			},
			{
				"x": -2.637045242,
				"y": -0.8873867023,
				"z": -2.5495968748,
				"element": "H" 
			},
			{
				"x": -3.3412665708,
				"y": -1.5016383216,
				"z": -0.2365294973,
				"element": "H" 
			}
		],
		 "valence_orbital": [ 
			{
				"type": "occ",
				"energy": -0.31291,
				"method": "rhf"
			},
			{
				"type": "occ",
				"energy": -0.31056,
				"method": "rhf"
			},
			{
				"type": "occ",
				"energy": -0.27555,
				"method": "rhf"
			},
			{
				"type": "occ",
				"energy": -0.27416,
				"method": "rhf"
			},
			{
				"type": "occ",
				"energy": -0.27251,
				"method": "rhf"
			},
			{
				"type": "unocc",
				"energy": -0.08231,
				"method": "rhf"
			},
			{
				"type": "unocc",
				"energy": -0.02346,
				"method": "rhf"
			},
			{
				"type": "unocc",
				"energy": -0.01706,
				"method": "rhf"
			},
			{
				"type": "unocc",
				"energy": 0.00616,
				"method": "rhf"
			},
			{
				"type": "unocc",
				"energy": 0.0512,
				"method": "rhf"
			}
		],
		"cosmo_sigma_profile": { 
			"-0.025": 0.0,
			"-0.024": 0.0,
			"-0.023": 0.0,
			"-0.022": 0.0,
			"-0.021": 0.0,
			"-0.02": 0.0,
			"-0.019": 0.0,
			"-0.018": 0.0,
			"-0.017": 0.0,
			"-0.016": 0.0,
			"-0.015": 0.0,
			"-0.014": 0.0,
			"-0.013": 0.0221876293061,
			"-0.012": 1.69537879823,
			"-0.011": 2.51303001759,
			"-0.01": 2.4776727433,
			"-0.009": 2.15383785624,
			"-0.008": 1.68506870047,
			"-0.007": 6.32794384146,
			"-0.006": 10.9383181869,
			"-0.005": 12.6071126563,
			"-0.004": 9.43470728605,
			"-0.003": 8.48938380983,
			"-0.002": 12.9694046053,
			"-0.001": 11.9106739499,
			"0.0": 16.0219725634,
			"0.001": 16.7762288501,
			"0.002": 21.6116453807,
			"0.003": 27.6415865466,
			"0.004": 19.7666552558,
			"0.005": 3.34675165187,
			"0.006": 1.88982871814,
			"0.007": 2.42417625447,
			"0.008": 2.27299062159,
			"0.009": 2.50439300452,
			"0.01": 4.40571915547,
			"0.011": 2.05488555638,
			"0.012": 0.40883608405,
			"0.013": 0.0,
			"0.014": 0.0,
			"0.015": 0.0,
			"0.016": 0.0,
			"0.017": 0.0,
			"0.018": 0.0,
			"0.019": 0.0,
			"0.02": 0.0,
			"0.021": 0.0,
			"0.022": 0.0,
			"0.023": 0.0,
			"0.024": 0.0,
			"0.025": 0.0
		}
	}
}
