{
	 "smiles": "CC1=C2CC(=O)C2=C(C)C(C)=C1C", 
	 "Tm": 433.15, 
	 "num_atms": 27, 
	 "gaussian": { 
		 "optdone": 1, 
		 "sigma_profile": "yes", 
		 "theory": "DFT", 
		 "functional": "B3LYP", 
		 "basiset": "6-31G**", 
		 "properties": { 
			 "R2extent": 2654.6998, 
			 "electric_dipole_moment_norm": 4.20718634006, 
			 "electric_quadrupole_moment_norm": 13.4815185721, 
			 "total_energy": -540.92472249, 
			 "HOMO_LUMO_gap": 0.18885, 
			 "cosmo_polarized_energy": -7.87, 
			 "cosmo_cavitation_energy": 29.11, 
			 "cosmo_dispersion_energy": -20.9, 
			 "cosmo_repulsion_energy": 1.65, 
			 "cosmo_total_nonelectrostatic_energy": 9.86, 
			 "SMD_solvation_energy": 5.34 
		},
		"coords": [
			{
				"x": 1.4922700473,
				"y": 2.6496506982,
				"z": -0.3635372952,
				"element": "C" 
			},
			{
				"x": 0.6400902596,
				"y": 1.4610606998,
				"z": 0.0186082008,
				"element": "C" 
			},
			{
				"x": 0.9439780439,
				"y": 0.6775206018,
				"z": 1.1224190916,
				"element": "C" 
			},
			{
				"x": 1.949692464,
				"y": 0.52744844,
				"z": 2.2643780897,
				"element": "C" 
			},
			{
				"x": 1.0546901635,
				"y": -0.7120691937,
				"z": 2.6564216299,
				"element": "C" 
			},
			{
				"x": 1.1022438342,
				"y": -1.531291581,
				"z": 3.542930669,
				"element": "O" 
			},
			{
				"x": 0.1701057609,
				"y": -0.4243384819,
				"z": 1.4926262204,
				"element": "C" 
			},
			{
				"x": -0.9669290996,
				"y": -0.8460170636,
				"z": 0.8065462988,
				"element": "C" 
			},
			{
				"x": -1.7460288008,
				"y": -2.050693433,
				"z": 1.276896163,
				"element": "C" 
			},
			{
				"x": -1.2999891644,
				"y": -0.0661087119,
				"z": -0.3221333125,
				"element": "C" 
			},
			{
				"x": -2.5147806229,
				"y": -0.420332634,
				"z": -1.1533931117,
				"element": "C" 
			},
			{
				"x": -0.5135072449,
				"y": 1.0599331108,
				"z": -0.7046197223,
				"element": "C" 
			},
			{
				"x": -0.9397286458,
				"y": 1.8425176702,
				"z": -1.9277505543,
				"element": "C" 
			},
			{
				"x": 2.3217027904,
				"y": 2.7608737577,
				"z": 0.3394397361,
				"element": "H" 
			},
			{
				"x": 0.9232670145,
				"y": 3.5864417758,
				"z": -0.3525906283,
				"element": "H" 
			},
			{
				"x": 1.9222129031,
				"y": 2.5443398259,
				"z": -1.366310195,
				"element": "H" 
			},
			{
				"x": 2.9795643187,
				"y": 0.2733526024,
				"z": 1.9882485178,
				"element": "H" 
			},
			{
				"x": 1.9713039321,
				"y": 1.3261323436,
				"z": 3.0147698967,
				"element": "H" 
			},
			{
				"x": -2.7817598958,
				"y": -1.7939467511,
				"z": 1.5275313339,
				"element": "H" 
			},
			{
				"x": -1.7838620958,
				"y": -2.8355784078,
				"z": 0.5127134298,
				"element": "H" 
			},
			{
				"x": -1.2775374553,
				"y": -2.4713537785,
				"z": 2.1693750031,
				"element": "H" 
			},
			{
				"x": -3.2390627817,
				"y": 0.4027336851,
				"z": -1.1830158831,
				"element": "H" 
			},
			{
				"x": -2.2444125551,
				"y": -0.6358640922,
				"z": -2.194226892,
				"element": "H" 
			},
			{
				"x": -3.0328447399,
				"y": -1.2965874404,
				"z": -0.7630426092,
				"element": "H" 
			},
			{
				"x": -1.9525525754,
				"y": 2.2467746977,
				"z": -1.8111506777,
				"element": "H" 
			},
			{
				"x": -0.9605614823,
				"y": 1.2076255094,
				"z": -2.8217471408,
				"element": "H" 
			},
			{
				"x": -0.2744643724,
				"y": 2.6801761506,
				"z": -2.1359862584,
				"element": "H" 
			}
		],
		 "valence_orbital": [ 
			{
				"type": "occ",
				"energy": -0.33002,
				"method": "rhf"
			},
			{
				"type": "occ",
				"energy": -0.31968,
				"method": "rhf"
			},
			{
				"type": "occ",
				"energy": -0.23953,
				"method": "rhf"
			},
			{
				"type": "occ",
				"energy": -0.23771,
				"method": "rhf"
			},
			{
				"type": "occ",
				"energy": -0.23493,
				"method": "rhf"
			},
			{
				"type": "unocc",
				"energy": -0.04608,
				"method": "rhf"
			},
			{
				"type": "unocc",
				"energy": -0.00336,
				"method": "rhf"
			},
			{
				"type": "unocc",
				"energy": 0.05258,
				"method": "rhf"
			},
			{
				"type": "unocc",
				"energy": 0.08177,
				"method": "rhf"
			},
			{
				"type": "unocc",
				"energy": 0.10174,
				"method": "rhf"
			}
		],
		"cosmo_sigma_profile": { 
			"-0.025": 0.0,
			"-0.024": 0.0,
			"-0.023": 0.0,
			"-0.022": 0.0,
			"-0.021": 0.0,
			"-0.02": 0.0,
			"-0.019": 0.0,
			"-0.018": 0.0,
			"-0.017": 0.0,
			"-0.016": 0.0,
			"-0.015": 0.0,
			"-0.014": 0.0,
			"-0.013": 0.0,
			"-0.012": 0.0,
			"-0.011": 0.0,
			"-0.01": 0.0,
			"-0.009": 0.0,
			"-0.008": 0.0,
			"-0.007": 0.0,
			"-0.006": 0.91142233923,
			"-0.005": 7.72841000204,
			"-0.004": 25.4636598245,
			"-0.003": 30.1872340155,
			"-0.002": 29.2461134068,
			"-0.001": 29.9653195224,
			"0.0": 34.839687137,
			"0.001": 19.2798320307,
			"0.002": 9.04795987456,
			"0.003": 8.71747996579,
			"0.004": 9.1267737557,
			"0.005": 5.39755522996,
			"0.006": 1.893994959,
			"0.007": 1.37602966892,
			"0.008": 1.78347973727,
			"0.009": 1.94960749069,
			"0.01": 2.53445918149,
			"0.011": 3.82162444089,
			"0.012": 4.73881119926,
			"0.013": 1.41182798641,
			"0.014": 0.0725995977866,
			"0.015": 0.0,
			"0.016": 0.0,
			"0.017": 0.0,
			"0.018": 0.0,
			"0.019": 0.0,
			"0.02": 0.0,
			"0.021": 0.0,
			"0.022": 0.0,
			"0.023": 0.0,
			"0.024": 0.0,
			"0.025": 0.0
		}
	}
}
