{
	 "smiles": "OC1CCC2=C(OCC3=CC=CC=C3)C=CC=C12", 
	 "Tm": 360.15, 
	 "num_atms": 34, 
	 "gaussian": { 
		 "optdone": 1, 
		 "sigma_profile": "yes", 
		 "theory": "DFT", 
		 "functional": "B3LYP", 
		 "basiset": "6-31G**", 
		 "properties": { 
			 "R2extent": 6640.3473, 
			 "electric_dipole_moment_norm": 2.5929349182, 
			 "electric_quadrupole_moment_norm": 8.24337345933, 
			 "total_energy": -769.785600844, 
			 "HOMO_LUMO_gap": 0.20815, 
			 "cosmo_polarized_energy": -11.04, 
			 "cosmo_cavitation_energy": 36.97, 
			 "cosmo_dispersion_energy": -26.59, 
			 "cosmo_repulsion_energy": 2.06, 
			 "cosmo_total_nonelectrostatic_energy": 12.44, 
			 "SMD_solvation_energy": 5.61 
		},
		"coords": [
			{
				"x": 0.1570027646,
				"y": 1.5215602048,
				"z": 4.4787984468,
				"element": "O" 
			},
			{
				"x": 0.6960142134,
				"y": 0.74267669,
				"z": 3.4205364391,
				"element": "C" 
			},
			{
				"x": 1.4158507106,
				"y": 1.5536441966,
				"z": 2.3115017643,
				"element": "C" 
			},
			{
				"x": 1.2674830204,
				"y": 0.7136676936,
				"z": 1.0183507119,
				"element": "C" 
			},
			{
				"x": 0.0128973525,
				"y": -0.0874396469,
				"z": 1.2860017703,
				"element": "C" 
			},
			{
				"x": -0.782780075,
				"y": -0.7959072519,
				"z": 0.3759607868,
				"element": "C" 
			},
			{
				"x": -0.3737168882,
				"y": -0.7684198807,
				"z": -0.9292344997,
				"element": "O" 
			},
			{
				"x": -1.1775105919,
				"y": -1.427232285,
				"z": -1.9063045429,
				"element": "C" 
			},
			{
				"x": -0.5780190598,
				"y": -1.1992875756,
				"z": -3.2730066397,
				"element": "C" 
			},
			{
				"x": -0.1069521674,
				"y": 0.0661381698,
				"z": -3.645779774,
				"element": "C" 
			},
			{
				"x": 0.404355725,
				"y": 0.2795139202,
				"z": -4.925159208,
				"element": "C" 
			},
			{
				"x": 0.4433169102,
				"y": -0.766361521,
				"z": -5.8509711532,
				"element": "C" 
			},
			{
				"x": -0.0253243076,
				"y": -2.0288957417,
				"z": -5.4868632358,
				"element": "C" 
			},
			{
				"x": -0.5280987699,
				"y": -2.2436407908,
				"z": -4.2019222669,
				"element": "C" 
			},
			{
				"x": -1.9199277071,
				"y": -1.4663474595,
				"z": 0.8482574673,
				"element": "C" 
			},
			{
				"x": -2.2441639648,
				"y": -1.4258773283,
				"z": 2.2115327306,
				"element": "C" 
			},
			{
				"x": -1.4505563906,
				"y": -0.731669242,
				"z": 3.1234527222,
				"element": "C" 
			},
			{
				"x": -0.3225163717,
				"y": -0.0677370578,
				"z": 2.6380476904,
				"element": "C" 
			},
			{
				"x": -0.5513692882,
				"y": 2.0623958448,
				"z": 4.1024148206,
				"element": "H" 
			},
			{
				"x": 1.4055424337,
				"y": 0.0677125081,
				"z": 3.9178992817,
				"element": "H" 
			},
			{
				"x": 0.8816897973,
				"y": 2.5055438571,
				"z": 2.19431358,
				"element": "H" 
			},
			{
				"x": 2.4524790995,
				"y": 1.7899087477,
				"z": 2.5655422199,
				"element": "H" 
			},
			{
				"x": 1.1977344715,
				"y": 1.3236610874,
				"z": 0.1122799958,
				"element": "H" 
			},
			{
				"x": 2.1292691657,
				"y": 0.0472321055,
				"z": 0.8769330465,
				"element": "H" 
			},
			{
				"x": -2.2021704711,
				"y": -1.0264574362,
				"z": -1.8645641514,
				"element": "H" 
			},
			{
				"x": -1.2359274213,
				"y": -2.5028416547,
				"z": -1.6898899671,
				"element": "H" 
			},
			{
				"x": -0.1314286707,
				"y": 0.8757386483,
				"z": -2.9232893158,
				"element": "H" 
			},
			{
				"x": 0.7721650771,
				"y": 1.2637474366,
				"z": -5.2013828975,
				"element": "H" 
			},
			{
				"x": 0.84055221,
				"y": -0.598136689,
				"z": -6.8478663423,
				"element": "H" 
			},
			{
				"x": 0.0082774247,
				"y": -2.8497211394,
				"z": -6.1975786852,
				"element": "H" 
			},
			{
				"x": -0.8811689351,
				"y": -3.2324346139,
				"z": -3.9187696342,
				"element": "H" 
			},
			{
				"x": -2.5586340954,
				"y": -2.0203052039,
				"z": 0.1704500459,
				"element": "H" 
			},
			{
				"x": -3.1324820324,
				"y": -1.9501726672,
				"z": 2.5530490578,
				"element": "H" 
			},
			{
				"x": -1.7005831681,
				"y": -0.6963559249,
				"z": 4.1793597362,
				"element": "H" 
			}
		],
		 "valence_orbital": [ 
			{
				"type": "occ",
				"energy": -0.26447,
				"method": "rhf"
			},
			{
				"type": "occ",
				"energy": -0.2526,
				"method": "rhf"
			},
			{
				"type": "occ",
				"energy": -0.24807,
				"method": "rhf"
			},
			{
				"type": "occ",
				"energy": -0.2352,
				"method": "rhf"
			},
			{
				"type": "occ",
				"energy": -0.21654,
				"method": "rhf"
			},
			{
				"type": "unocc",
				"energy": -0.00839,
				"method": "rhf"
			},
			{
				"type": "unocc",
				"energy": -0.00367,
				"method": "rhf"
			},
			{
				"type": "unocc",
				"energy": 0.00261,
				"method": "rhf"
			},
			{
				"type": "unocc",
				"energy": 0.00973,
				"method": "rhf"
			},
			{
				"type": "unocc",
				"energy": 0.08888,
				"method": "rhf"
			}
		],
		"cosmo_sigma_profile": { 
			"-0.025": 0.0,
			"-0.024": 0.0,
			"-0.023": 0.0,
			"-0.022": 0.0,
			"-0.021": 0.0,
			"-0.02": 0.0,
			"-0.019": 0.0,
			"-0.018": 0.0,
			"-0.017": 0.0,
			"-0.016": 0.0,
			"-0.015": 0.559448297887,
			"-0.014": 0.646338752362,
			"-0.013": 1.05087473623,
			"-0.012": 0.859970119114,
			"-0.011": 0.427572383433,
			"-0.01": 0.791389600318,
			"-0.009": 1.22417134637,
			"-0.008": 1.08265621567,
			"-0.007": 1.55470220369,
			"-0.006": 12.9131384689,
			"-0.005": 22.1056201327,
			"-0.004": 26.7341891071,
			"-0.003": 30.2301478303,
			"-0.002": 26.6191689627,
			"-0.001": 22.5550757172,
			"0.0": 18.7947382559,
			"0.001": 19.1477196094,
			"0.002": 16.2520051871,
			"0.003": 16.802333545,
			"0.004": 19.0201440582,
			"0.005": 19.1895668888,
			"0.006": 17.2333640208,
			"0.007": 4.21021408519,
			"0.008": 1.76872347283,
			"0.009": 2.53311859602,
			"0.01": 2.13473549546,
			"0.011": 0.737691422143,
			"0.012": 1.2134045021,
			"0.013": 1.75092726544,
			"0.014": 2.19252718815,
			"0.015": 0.337446111441,
			"0.016": 0.0,
			"0.017": 0.0,
			"0.018": 0.0,
			"0.019": 0.0,
			"0.02": 0.0,
			"0.021": 0.0,
			"0.022": 0.0,
			"0.023": 0.0,
			"0.024": 0.0,
			"0.025": 0.0
		}
	}
}
