{
	 "smiles": "CCOC(=O)C1=CC(=CC(=C1)C(=O)OCC)C(=O)OCC", 
	 "Tm": 406.65, 
	 "num_atms": 39, 
	 "gaussian": { 
		 "optdone": 1, 
		 "sigma_profile": "yes", 
		 "theory": "DFT", 
		 "functional": "B3LYP", 
		 "basiset": "6-31G**", 
		 "properties": { 
			 "R2extent": 9347.9145, 
			 "electric_dipole_moment_norm": 0.272433936946, 
			 "electric_quadrupole_moment_norm": 6.16562122336, 
			 "total_energy": -1033.84968438, 
			 "HOMO_LUMO_gap": 0.21088, 
			 "cosmo_polarized_energy": -13.08, 
			 "cosmo_cavitation_energy": 44.75, 
			 "cosmo_dispersion_energy": -31.21, 
			 "cosmo_repulsion_energy": 2.48, 
			 "cosmo_total_nonelectrostatic_energy": 16.02, 
			 "SMD_solvation_energy": 11.0 
		},
		"coords": [
			{
				"x": 2.7464973116,
				"y": -2.0973574118,
				"z": -4.0553480008,
				"element": "C" 
			},
			{
				"x": 2.1888690949,
				"y": -2.7300954067,
				"z": -2.7950126705,
				"element": "C" 
			},
			{
				"x": 1.615293504,
				"y": -1.670368573,
				"z": -1.9942048867,
				"element": "O" 
			},
			{
				"x": 1.0669283051,
				"y": -2.0486607675,
				"z": -0.8222702941,
				"element": "C" 
			},
			{
				"x": 1.0387860314,
				"y": -3.2000657072,
				"z": -0.4323998291,
				"element": "O" 
			},
			{
				"x": 0.5000546914,
				"y": -0.8945930916,
				"z": -0.0606377147,
				"element": "C" 
			},
			{
				"x": -0.0982307687,
				"y": -1.1623391038,
				"z": 1.1764770957,
				"element": "C" 
			},
			{
				"x": -0.6447164979,
				"y": -0.1203400672,
				"z": 1.9309044587,
				"element": "C" 
			},
			{
				"x": -0.5927317086,
				"y": 1.1928195231,
				"z": 1.448216779,
				"element": "C" 
			},
			{
				"x": 0.0042644373,
				"y": 1.4624363148,
				"z": 0.2134148568,
				"element": "C" 
			},
			{
				"x": 0.5501879472,
				"y": 0.4169548264,
				"z": -0.5410545353,
				"element": "C" 
			},
			{
				"x": 0.0876797807,
				"y": 2.843487211,
				"z": -0.3514830051,
				"element": "C" 
			},
			{
				"x": 0.5957406317,
				"y": 3.1054440273,
				"z": -1.4251116753,
				"element": "O" 
			},
			{
				"x": -0.4606276933,
				"y": 3.7635006447,
				"z": 0.4690096167,
				"element": "O" 
			},
			{
				"x": -0.4358831218,
				"y": 5.1378926613,
				"z": 0.0120154662,
				"element": "C" 
			},
			{
				"x": -1.6266657214,
				"y": 5.4432040855,
				"z": -0.8838616634,
				"element": "C" 
			},
			{
				"x": -1.29597365,
				"y": -0.3478174806,
				"z": 3.256663238,
				"element": "C" 
			},
			{
				"x": -1.7812882013,
				"y": 0.5359369104,
				"z": 3.9362739255,
				"element": "O" 
			},
			{
				"x": -1.2858706802,
				"y": -1.6467750119,
				"z": 3.6169327328,
				"element": "O" 
			},
			{
				"x": -1.8985735195,
				"y": -1.9542642603,
				"z": 4.8910470111,
				"element": "C" 
			},
			{
				"x": -1.7828864506,
				"y": -3.4515286257,
				"z": 5.102185807,
				"element": "C" 
			},
			{
				"x": 3.5192615086,
				"y": -1.3615658716,
				"z": -3.8152749517,
				"element": "H" 
			},
			{
				"x": 1.9580164806,
				"y": -1.5959814088,
				"z": -4.6237798101,
				"element": "H" 
			},
			{
				"x": 3.1914981254,
				"y": -2.8692729923,
				"z": -4.6908645696,
				"element": "H" 
			},
			{
				"x": 1.4091817973,
				"y": -3.4669572804,
				"z": -3.0120043628,
				"element": "H" 
			},
			{
				"x": 2.9628371899,
				"y": -3.2339220449,
				"z": -2.2075881967,
				"element": "H" 
			},
			{
				"x": -0.1296463646,
				"y": -2.183930285,
				"z": 1.5349915599,
				"element": "H" 
			},
			{
				"x": -1.020632039,
				"y": 1.9894758787,
				"z": 2.0443183766,
				"element": "H" 
			},
			{
				"x": 1.0088844665,
				"y": 0.6415996041,
				"z": -1.496161012,
				"element": "H" 
			},
			{
				"x": 0.5073622878,
				"y": 5.3169719388,
				"z": -0.5091054674,
				"element": "H" 
			},
			{
				"x": -0.4629207996,
				"y": 5.7275003423,
				"z": 0.931223398,
				"element": "H" 
			},
			{
				"x": -1.6253385955,
				"y": 6.5050192514,
				"z": -1.1517496483,
				"element": "H" 
			},
			{
				"x": -1.574891433,
				"y": 4.8576034344,
				"z": -1.8049149458,
				"element": "H" 
			},
			{
				"x": -2.5671561624,
				"y": 5.2191207952,
				"z": -0.3721512821,
				"element": "H" 
			},
			{
				"x": -1.3860793514,
				"y": -1.3852852115,
				"z": 5.6730761494,
				"element": "H" 
			},
			{
				"x": -2.9401165879,
				"y": -1.6186118969,
				"z": 4.8694667963,
				"element": "H" 
			},
			{
				"x": -2.2365737096,
				"y": -3.7260549372,
				"z": 6.0595602355,
				"element": "H" 
			},
			{
				"x": -2.2970656866,
				"y": -3.9999632883,
				"z": 4.307812224,
				"element": "H" 
			},
			{
				"x": -0.7352748486,
				"y": -3.765416725,
				"z": 5.1151887945,
				"element": "H" 
			}
		],
		 "valence_orbital": [ 
			{
				"type": "occ",
				"energy": -0.28252,
				"method": "rhf"
			},
			{
				"type": "occ",
				"energy": -0.27573,
				"method": "rhf"
			},
			{
				"type": "occ",
				"energy": -0.27496,
				"method": "rhf"
			},
			{
				"type": "occ",
				"energy": -0.27113,
				"method": "rhf"
			},
			{
				"type": "occ",
				"energy": -0.27087,
				"method": "rhf"
			},
			{
				"type": "unocc",
				"energy": -0.05999,
				"method": "rhf"
			},
			{
				"type": "unocc",
				"energy": -0.05967,
				"method": "rhf"
			},
			{
				"type": "unocc",
				"energy": -0.0089,
				"method": "rhf"
			},
			{
				"type": "unocc",
				"energy": 0.0779,
				"method": "rhf"
			},
			{
				"type": "unocc",
				"energy": 0.078,
				"method": "rhf"
			}
		],
		"cosmo_sigma_profile": { 
			"-0.025": 0.0,
			"-0.024": 0.0,
			"-0.023": 0.0,
			"-0.022": 0.0,
			"-0.021": 0.0,
			"-0.02": 0.0,
			"-0.019": 0.0,
			"-0.018": 0.0,
			"-0.017": 0.0,
			"-0.016": 0.0,
			"-0.015": 0.0,
			"-0.014": 0.0,
			"-0.013": 0.0,
			"-0.012": 0.0,
			"-0.011": 0.0,
			"-0.01": 0.0,
			"-0.009": 0.0,
			"-0.008": 0.0,
			"-0.007": 0.0341802286967,
			"-0.006": 4.2830296534,
			"-0.005": 19.4682353814,
			"-0.004": 39.2577205031,
			"-0.003": 47.2540756579,
			"-0.002": 44.1069635249,
			"-0.001": 48.0778606004,
			"0.0": 47.2167139829,
			"0.001": 18.8588873026,
			"0.002": 14.7885705208,
			"0.003": 9.58629443082,
			"0.004": 11.5917028632,
			"0.005": 8.23772110034,
			"0.006": 3.69034798075,
			"0.007": 4.69010539214,
			"0.008": 4.25325811631,
			"0.009": 4.23773538735,
			"0.01": 6.44601780471,
			"0.011": 10.5541848848,
			"0.012": 7.47712132131,
			"0.013": 0.0215872982839,
			"0.014": 0.0,
			"0.015": 0.0,
			"0.016": 0.0,
			"0.017": 0.0,
			"0.018": 0.0,
			"0.019": 0.0,
			"0.02": 0.0,
			"0.021": 0.0,
			"0.022": 0.0,
			"0.023": 0.0,
			"0.024": 0.0,
			"0.025": 0.0
		}
	}
}
