{
	 "smiles": "CN1N=C(C)C2=C1N=CC(=C2)C#N", 
	 "Tm": 450.15, 
	 "num_atms": 21, 
	 "gaussian": { 
		 "optdone": 1, 
		 "sigma_profile": "yes", 
		 "theory": "DFT", 
		 "functional": "B3LYP", 
		 "basiset": "6-31G**", 
		 "properties": { 
			 "R2extent": 2817.5797, 
			 "electric_dipole_moment_norm": 4.05263027304, 
			 "electric_quadrupole_moment_norm": 17.0092641302, 
			 "total_energy": -566.76389492, 
			 "HOMO_LUMO_gap": 0.17482, 
			 "cosmo_polarized_energy": -11.46, 
			 "cosmo_cavitation_energy": 26.64, 
			 "cosmo_dispersion_energy": -18.98, 
			 "cosmo_repulsion_energy": 1.5, 
			 "cosmo_total_nonelectrostatic_energy": 9.16, 
			 "SMD_solvation_energy": 3.88 
		},
		"coords": [
			{
				"x": -2.6840459042,
				"y": -1.0437891182,
				"z": -1.0870549854,
				"element": "C" 
			},
			{
				"x": -1.4007497272,
				"y": -0.4174147891,
				"z": -1.3343834801,
				"element": "N" 
			},
			{
				"x": -0.7851107683,
				"y": -0.5386096641,
				"z": -2.54686071,
				"element": "N" 
			},
			{
				"x": 0.357054509,
				"y": 0.1276556796,
				"z": -2.4848140456,
				"element": "C" 
			},
			{
				"x": 1.2798947487,
				"y": 0.1937877177,
				"z": -3.6593708659,
				"element": "C" 
			},
			{
				"x": 0.5127862962,
				"y": 0.715903425,
				"z": -1.1861933611,
				"element": "C" 
			},
			{
				"x": -0.6580702569,
				"y": 0.3309788346,
				"z": -0.4766083271,
				"element": "C" 
			},
			{
				"x": -0.970080909,
				"y": 0.64323503,
				"z": 0.7886104848,
				"element": "N" 
			},
			{
				"x": -0.066866662,
				"y": 1.3902305102,
				"z": 1.4087833166,
				"element": "C" 
			},
			{
				"x": 1.1463616132,
				"y": 1.8434529224,
				"z": 0.8145291785,
				"element": "C" 
			},
			{
				"x": 1.4458191831,
				"y": 1.5012810625,
				"z": -0.5099963305,
				"element": "C" 
			},
			{
				"x": 2.0460289201,
				"y": 2.6462844493,
				"z": 1.584605187,
				"element": "C" 
			},
			{
				"x": 2.7730046427,
				"y": 3.2989631526,
				"z": 2.2170767835,
				"element": "N" 
			},
			{
				"x": -2.6056503728,
				"y": -2.126719776,
				"z": -1.2139115574,
				"element": "H" 
			},
			{
				"x": -3.4333576128,
				"y": -0.6550214373,
				"z": -1.7815788771,
				"element": "H" 
			},
			{
				"x": -2.9746115684,
				"y": -0.8117325906,
				"z": -0.0617630744,
				"element": "H" 
			},
			{
				"x": 2.2613660833,
				"y": -0.2313571424,
				"z": -3.420660707,
				"element": "H" 
			},
			{
				"x": 1.4411624375,
				"y": 1.2283558735,
				"z": -3.9828970485,
				"element": "H" 
			},
			{
				"x": 0.8535804939,
				"y": -0.3670364396,
				"z": -4.493470647,
				"element": "H" 
			},
			{
				"x": -0.2823431765,
				"y": 1.6658519512,
				"z": 2.4381468031,
				"element": "H" 
			},
			{
				"x": 2.3669280305,
				"y": 1.8410003486,
				"z": -0.9724877364,
				"element": "H" 
			}
		],
		 "valence_orbital": [ 
			{
				"type": "occ",
				"energy": -0.31767,
				"method": "rhf"
			},
			{
				"type": "occ",
				"energy": -0.31111,
				"method": "rhf"
			},
			{
				"type": "occ",
				"energy": -0.28618,
				"method": "rhf"
			},
			{
				"type": "occ",
				"energy": -0.26594,
				"method": "rhf"
			},
			{
				"type": "occ",
				"energy": -0.24279,
				"method": "rhf"
			},
			{
				"type": "unocc",
				"energy": -0.06797,
				"method": "rhf"
			},
			{
				"type": "unocc",
				"energy": -0.03756,
				"method": "rhf"
			},
			{
				"type": "unocc",
				"energy": 0.02788,
				"method": "rhf"
			},
			{
				"type": "unocc",
				"energy": 0.0315,
				"method": "rhf"
			},
			{
				"type": "unocc",
				"energy": 0.08463,
				"method": "rhf"
			}
		],
		"cosmo_sigma_profile": { 
			"-0.025": 0.0,
			"-0.024": 0.0,
			"-0.023": 0.0,
			"-0.022": 0.0,
			"-0.021": 0.0,
			"-0.02": 0.0,
			"-0.019": 0.0,
			"-0.018": 0.0,
			"-0.017": 0.0,
			"-0.016": 0.0,
			"-0.015": 0.0,
			"-0.014": 0.0,
			"-0.013": 0.0,
			"-0.012": 0.0,
			"-0.011": 0.0,
			"-0.01": 0.32924537707,
			"-0.009": 2.61381873658,
			"-0.008": 4.50711293681,
			"-0.007": 5.04881666116,
			"-0.006": 9.93363401149,
			"-0.005": 16.8855174156,
			"-0.004": 18.0734335785,
			"-0.003": 20.4922148675,
			"-0.002": 21.4910255444,
			"-0.001": 26.986510031,
			"0.0": 18.3380951973,
			"0.001": 8.10657937853,
			"0.002": 6.930430079,
			"0.003": 6.56356706692,
			"0.004": 4.50720015655,
			"0.005": 5.0671256012,
			"0.006": 6.41296478033,
			"0.007": 4.77053166583,
			"0.008": 4.96684973025,
			"0.009": 5.48358059465,
			"0.01": 5.32218503465,
			"0.011": 4.4894124678,
			"0.012": 4.20528989036,
			"0.013": 2.22809904186,
			"0.014": 0.943621343101,
			"0.015": 0.152366550526,
			"0.016": 0.0,
			"0.017": 0.0,
			"0.018": 0.0,
			"0.019": 0.0,
			"0.02": 0.0,
			"0.021": 0.0,
			"0.022": 0.0,
			"0.023": 0.0,
			"0.024": 0.0,
			"0.025": 0.0
		}
	}
}
