{
	 "smiles": "CNO", 
	 "Tm": 360.65, 
	 "num_atms": 8, 
	 "gaussian": { 
		 "optdone": 1, 
		 "sigma_profile": "yes", 
		 "theory": "DFT", 
		 "functional": "B3LYP", 
		 "basiset": "6-31G**", 
		 "properties": { 
			 "R2extent": 680.0174, 
			 "electric_dipole_moment_norm": 0.626119940586, 
			 "electric_quadrupole_moment_norm": 3.99005670135, 
			 "total_energy": -171.026997346, 
			 "HOMO_LUMO_gap": 0.32094, 
			 "cosmo_polarized_energy": -6.43, 
			 "cosmo_cavitation_energy": 11.09, 
			 "cosmo_dispersion_energy": -8.44, 
			 "cosmo_repulsion_energy": 0.83, 
			 "cosmo_total_nonelectrostatic_energy": 3.47, 
			 "SMD_solvation_energy": 2.26 
		},
		"coords": [
			{
				"x": 0.8634321083,
				"y": -0.8661293542,
				"z": 0.3107622518,
				"element": "C" 
			},
			{
				"x": 0.8415922678,
				"y": -2.0851091426,
				"z": 1.1154152363,
				"element": "N" 
			},
			{
				"x": 1.878689893,
				"y": -1.9505802142,
				"z": 2.1162870021,
				"element": "O" 
			},
			{
				"x": -0.0122262478,
				"y": -0.8819968632,
				"z": -0.3475966161,
				"element": "H" 
			},
			{
				"x": 1.7630301059,
				"y": -0.8618143815,
				"z": -0.3111701254,
				"element": "H" 
			},
			{
				"x": 0.8484796076,
				"y": 0.0564477193,
				"z": 0.908888388,
				"element": "H" 
			},
			{
				"x": -0.0123511698,
				"y": -2.0786370896,
				"z": 1.6738734918,
				"element": "H" 
			},
			{
				"x": 2.4354534351,
				"y": -2.7200806739,
				"z": 1.9369403716,
				"element": "H" 
			}
		],
		 "valence_orbital": [ 
			{
				"type": "occ",
				"energy": -0.42491,
				"method": "rhf"
			},
			{
				"type": "occ",
				"energy": -0.39675,
				"method": "rhf"
			},
			{
				"type": "occ",
				"energy": -0.37771,
				"method": "rhf"
			},
			{
				"type": "occ",
				"energy": -0.27879,
				"method": "rhf"
			},
			{
				"type": "occ",
				"energy": -0.23586,
				"method": "rhf"
			},
			{
				"type": "unocc",
				"energy": 0.08508,
				"method": "rhf"
			},
			{
				"type": "unocc",
				"energy": 0.09529,
				"method": "rhf"
			},
			{
				"type": "unocc",
				"energy": 0.1401,
				"method": "rhf"
			},
			{
				"type": "unocc",
				"energy": 0.14804,
				"method": "rhf"
			},
			{
				"type": "unocc",
				"energy": 0.17675,
				"method": "rhf"
			}
		],
		"cosmo_sigma_profile": { 
			"-0.025": 0.0,
			"-0.024": 0.0,
			"-0.023": 0.0,
			"-0.022": 0.0,
			"-0.021": 0.0,
			"-0.02": 0.0,
			"-0.019": 0.0,
			"-0.018": 0.0,
			"-0.017": 0.0,
			"-0.016": 0.169354271127,
			"-0.015": 0.908891433594,
			"-0.014": 0.839680265803,
			"-0.013": 0.421251005321,
			"-0.012": 1.47962645847,
			"-0.011": 2.07184704079,
			"-0.01": 1.41596659235,
			"-0.009": 1.4716445522,
			"-0.008": 1.91555528308,
			"-0.007": 1.75590191106,
			"-0.006": 1.80510955528,
			"-0.005": 3.64842097966,
			"-0.004": 5.47872694296,
			"-0.003": 7.76291924566,
			"-0.002": 8.2961093459,
			"-0.001": 8.88539258812,
			"0.0": 6.99075952432,
			"0.001": 2.2493314382,
			"0.002": 2.68487782154,
			"0.003": 3.04695414385,
			"0.004": 2.18251607806,
			"0.005": 1.6945767302,
			"0.006": 1.43008481285,
			"0.007": 2.16142530186,
			"0.008": 1.46574253849,
			"0.009": 1.90505569591,
			"0.01": 2.4541652698,
			"0.011": 1.87481868586,
			"0.012": 2.57753084136,
			"0.013": 2.66042903287,
			"0.014": 0.751537790427,
			"0.015": 0.602563566862,
			"0.016": 0.658574841138,
			"0.017": 0.0,
			"0.018": 0.0,
			"0.019": 0.0,
			"0.02": 0.0,
			"0.021": 0.0,
			"0.022": 0.0,
			"0.023": 0.0,
			"0.024": 0.0,
			"0.025": 0.0
		}
	}
}
