{
	 "smiles": "COC1=CC2=C(C=C1OC)[C@H]1[C@@H](CO2)OC2=C(C=CC3=C2C[C@@H](O3)C(C)=C)C1=O", 
	 "Tm": 449.15, 
	 "num_atms": 51, 
	 "gaussian": { 
		 "optdone": 1, 
		 "sigma_profile": "yes", 
		 "theory": "DFT", 
		 "functional": "B3LYP", 
		 "basiset": "6-31G**", 
		 "properties": { 
			 "R2extent": 14024.7322, 
			 "electric_dipole_moment_norm": 5.11601109264, 
			 "electric_quadrupole_moment_norm": 20.2656894013, 
			 "total_energy": -1340.99392647, 
			 "HOMO_LUMO_gap": 0.15071, 
			 "cosmo_polarized_energy": -18.89, 
			 "cosmo_cavitation_energy": 53.02, 
			 "cosmo_dispersion_energy": -36.72, 
			 "cosmo_repulsion_energy": 2.77, 
			 "cosmo_total_nonelectrostatic_energy": 19.07, 
			 "SMD_solvation_energy": 11.24 
		},
		"coords": [
			{
				"x": 0.6389737902,
				"y": 3.2289273033,
				"z": -5.5300912049,
				"element": "C" 
			},
			{
				"x": 1.1627898822,
				"y": 3.7484683544,
				"z": -4.3181894171,
				"element": "O" 
			},
			{
				"x": 0.5996436337,
				"y": 3.3359251956,
				"z": -3.1463620184,
				"element": "C" 
			},
			{
				"x": -0.4498790483,
				"y": 2.4245057505,
				"z": -3.0549680747,
				"element": "C" 
			},
			{
				"x": -0.9729888132,
				"y": 2.074550012,
				"z": -1.8029653516,
				"element": "C" 
			},
			{
				"x": -0.4514724573,
				"y": 2.6145547001,
				"z": -0.6226551658,
				"element": "C" 
			},
			{
				"x": 0.6024628409,
				"y": 3.5355412786,
				"z": -0.7354779778,
				"element": "C" 
			},
			{
				"x": 1.1305630114,
				"y": 3.904266955,
				"z": -1.9640392596,
				"element": "C" 
			},
			{
				"x": 2.1169448701,
				"y": 4.8620629917,
				"z": -2.0153918922,
				"element": "O" 
			},
			{
				"x": 3.4150495325,
				"y": 4.3830505327,
				"z": -2.3683559133,
				"element": "C" 
			},
			{
				"x": -1.0318776341,
				"y": 2.216017798,
				"z": 0.7309419396,
				"element": "C" 
			},
			{
				"x": -1.8871047775,
				"y": 0.9506506173,
				"z": 0.5979785101,
				"element": "C" 
			},
			{
				"x": -2.7679952645,
				"y": 1.0355623806,
				"z": -0.6377742639,
				"element": "C" 
			},
			{
				"x": -2.00790576,
				"y": 1.1708441213,
				"z": -1.831327671,
				"element": "O" 
			},
			{
				"x": -1.102182284,
				"y": -0.2456167385,
				"z": 0.4426256216,
				"element": "O" 
			},
			{
				"x": -0.0412472393,
				"y": -0.4052272153,
				"z": 1.2768943782,
				"element": "C" 
			},
			{
				"x": 0.5374595698,
				"y": 0.664969741,
				"z": 1.9996465315,
				"element": "C" 
			},
			{
				"x": 1.619920932,
				"y": 0.4082176064,
				"z": 2.8652772366,
				"element": "C" 
			},
			{
				"x": 2.1522029,
				"y": -0.8628117458,
				"z": 3.0220089361,
				"element": "C" 
			},
			{
				"x": 1.5677676591,
				"y": -1.889032704,
				"z": 2.2690340512,
				"element": "C" 
			},
			{
				"x": 0.4914348358,
				"y": -1.6819342946,
				"z": 1.4075965729,
				"element": "C" 
			},
			{
				"x": 0.0821994438,
				"y": -3.0029403041,
				"z": 0.8138352769,
				"element": "C" 
			},
			{
				"x": 1.2348196524,
				"y": -3.9388837514,
				"z": 1.2929991329,
				"element": "C" 
			},
			{
				"x": 1.9720373455,
				"y": -3.1821112901,
				"z": 2.3138029695,
				"element": "O" 
			},
			{
				"x": 0.7976967284,
				"y": -5.2643177925,
				"z": 1.8679287538,
				"element": "C" 
			},
			{
				"x": 0.0704121267,
				"y": -5.2327472657,
				"z": 3.1873531013,
				"element": "C" 
			},
			{
				"x": 1.0480255917,
				"y": -6.393607255,
				"z": 1.1989303123,
				"element": "C" 
			},
			{
				"x": 0.0572279184,
				"y": 2.0368665766,
				"z": 1.7982199361,
				"element": "C" 
			},
			{
				"x": 0.4994357687,
				"y": 3.005621778,
				"z": 2.4046259275,
				"element": "O" 
			},
			{
				"x": -0.4203666606,
				"y": 3.4870406727,
				"z": -5.6540924976,
				"element": "H" 
			},
			{
				"x": 0.7503013657,
				"y": 2.1383198192,
				"z": -5.5856575931,
				"element": "H" 
			},
			{
				"x": 1.217883687,
				"y": 3.691438086,
				"z": -6.3309319033,
				"element": "H" 
			},
			{
				"x": -0.8980508336,
				"y": 1.9741070334,
				"z": -3.9314190272,
				"element": "H" 
			},
			{
				"x": 1.0219789636,
				"y": 3.9868305369,
				"z": 0.1574325797,
				"element": "H" 
			},
			{
				"x": 4.0818062159,
				"y": 5.2473567958,
				"z": -2.3283946559,
				"element": "H" 
			},
			{
				"x": 3.7632891005,
				"y": 3.6261671127,
				"z": -1.6529604546,
				"element": "H" 
			},
			{
				"x": 3.4272927109,
				"y": 3.9616870888,
				"z": -3.3789301815,
				"element": "H" 
			},
			{
				"x": -1.6792122771,
				"y": 3.0205443224,
				"z": 1.1031768274,
				"element": "H" 
			},
			{
				"x": -2.5167092686,
				"y": 0.8317212623,
				"z": 1.4916693712,
				"element": "H" 
			},
			{
				"x": -3.350735158,
				"y": 0.119498476,
				"z": -0.7587829126,
				"element": "H" 
			},
			{
				"x": -3.4583389042,
				"y": 1.8842029629,
				"z": -0.5238954919,
				"element": "H" 
			},
			{
				"x": 2.0349161624,
				"y": 1.2570582853,
				"z": 3.3991867753,
				"element": "H" 
			},
			{
				"x": 2.9876037305,
				"y": -1.0642190775,
				"z": 3.6822647541,
				"element": "H" 
			},
			{
				"x": 0.0188976164,
				"y": -2.9877335236,
				"z": -0.2778276887,
				"element": "H" 
			},
			{
				"x": -0.8953596821,
				"y": -3.3318768967,
				"z": 1.1869431059,
				"element": "H" 
			},
			{
				"x": 1.9398218851,
				"y": -4.1092673424,
				"z": 0.472217889,
				"element": "H" 
			},
			{
				"x": -0.2324605274,
				"y": -6.2364951385,
				"z": 3.4947102755,
				"element": "H" 
			},
			{
				"x": 0.7124968902,
				"y": -4.806775743,
				"z": 3.9654131,
				"element": "H" 
			},
			{
				"x": -0.8282356342,
				"y": -4.6051831817,
				"z": 3.1423076964,
				"element": "H" 
			},
			{
				"x": 0.7073432245,
				"y": -7.3585523175,
				"z": 1.5628353261,
				"element": "H" 
			},
			{
				"x": 1.5989226381,
				"y": -6.3929425697,
				"z": 0.2622337279,
				"element": "H" 
			}
		],
		 "valence_orbital": [ 
			{
				"type": "occ",
				"energy": -0.24409,
				"method": "rhf"
			},
			{
				"type": "occ",
				"energy": -0.23341,
				"method": "rhf"
			},
			{
				"type": "occ",
				"energy": -0.22754,
				"method": "rhf"
			},
			{
				"type": "occ",
				"energy": -0.22308,
				"method": "rhf"
			},
			{
				"type": "occ",
				"energy": -0.19885,
				"method": "rhf"
			},
			{
				"type": "unocc",
				"energy": -0.04814,
				"method": "rhf"
			},
			{
				"type": "unocc",
				"energy": -0.0025,
				"method": "rhf"
			},
			{
				"type": "unocc",
				"energy": 0.0047,
				"method": "rhf"
			},
			{
				"type": "unocc",
				"energy": 0.00626,
				"method": "rhf"
			},
			{
				"type": "unocc",
				"energy": 0.01921,
				"method": "rhf"
			}
		],
		"cosmo_sigma_profile": { 
			"-0.025": 0.0,
			"-0.024": 0.0,
			"-0.023": 0.0,
			"-0.022": 0.0,
			"-0.021": 0.0,
			"-0.02": 0.0,
			"-0.019": 0.0,
			"-0.018": 0.0,
			"-0.017": 0.0,
			"-0.016": 0.0,
			"-0.015": 0.0,
			"-0.014": 0.0,
			"-0.013": 0.0,
			"-0.012": 0.0,
			"-0.011": 0.0,
			"-0.01": 0.0,
			"-0.009": 0.031729237424,
			"-0.008": 3.75411079011,
			"-0.007": 14.1087392406,
			"-0.006": 25.9972254737,
			"-0.005": 34.3075240964,
			"-0.004": 34.2875018414,
			"-0.003": 36.2216822767,
			"-0.002": 32.8463642659,
			"-0.001": 28.2247102868,
			"0.0": 30.4990270962,
			"0.001": 29.9183091025,
			"0.002": 31.1189854381,
			"0.003": 28.6876919253,
			"0.004": 27.50584156,
			"0.005": 13.4081676922,
			"0.006": 9.3699780112,
			"0.007": 6.87964825377,
			"0.008": 6.01895180657,
			"0.009": 7.13469599112,
			"0.01": 6.57946473005,
			"0.011": 5.61942684713,
			"0.012": 5.58307212938,
			"0.013": 2.26934538423,
			"0.014": 0.0280979942443,
			"0.015": 0.0,
			"0.016": 0.0,
			"0.017": 0.0,
			"0.018": 0.0,
			"0.019": 0.0,
			"0.02": 0.0,
			"0.021": 0.0,
			"0.022": 0.0,
			"0.023": 0.0,
			"0.024": 0.0,
			"0.025": 0.0
		}
	}
}
