{
	 "smiles": "CN1C=NN=C1SC1=C(N)C=CC=C1", 
	 "Tm": 411.15, 
	 "num_atms": 24, 
	 "gaussian": { 
		 "optdone": 1, 
		 "sigma_profile": "yes", 
		 "theory": "DFT", 
		 "functional": "B3LYP", 
		 "basiset": "6-31G**", 
		 "properties": { 
			 "R2extent": 4143.1054, 
			 "electric_dipole_moment_norm": 4.28458005527, 
			 "electric_quadrupole_moment_norm": 21.2362002058, 
			 "total_energy": -966.153053981, 
			 "HOMO_LUMO_gap": 0.18728, 
			 "cosmo_polarized_energy": -16.78, 
			 "cosmo_cavitation_energy": 29.31, 
			 "cosmo_dispersion_energy": -21.64, 
			 "cosmo_repulsion_energy": 1.65, 
			 "cosmo_total_nonelectrostatic_energy": 9.32, 
			 "SMD_solvation_energy": 3.59 
		},
		"coords": [
			{
				"x": -1.4875481577,
				"y": -2.7411543478,
				"z": -3.4739724816,
				"element": "C" 
			},
			{
				"x": -1.3859732072,
				"y": -2.6792714989,
				"z": -2.0224492255,
				"element": "N" 
			},
			{
				"x": -1.6128161602,
				"y": -3.6910893584,
				"z": -1.1327944747,
				"element": "C" 
			},
			{
				"x": -1.4413266693,
				"y": -3.2863980524,
				"z": 0.1043790517,
				"element": "N" 
			},
			{
				"x": -1.1084374701,
				"y": -1.9554176987,
				"z": 0.0421220485,
				"element": "N" 
			},
			{
				"x": -1.0680421767,
				"y": -1.5996159794,
				"z": -1.2279434637,
				"element": "C" 
			},
			{
				"x": -0.6893639542,
				"y": 0.0278153968,
				"z": -1.8138706216,
				"element": "S" 
			},
			{
				"x": 1.0849334247,
				"y": 0.1628696615,
				"z": -1.5361793752,
				"element": "C" 
			},
			{
				"x": 1.6260019962,
				"y": 0.2614405452,
				"z": -0.2271832948,
				"element": "C" 
			},
			{
				"x": 0.8450436775,
				"y": 0.1642265023,
				"z": 0.9041738113,
				"element": "N" 
			},
			{
				"x": 3.0119211449,
				"y": 0.5139808698,
				"z": -0.1210135899,
				"element": "C" 
			},
			{
				"x": 3.8128036409,
				"y": 0.6672349185,
				"z": -1.2446263031,
				"element": "C" 
			},
			{
				"x": 3.2703833862,
				"y": 0.5620689476,
				"z": -2.5292239879,
				"element": "C" 
			},
			{
				"x": 1.9082497475,
				"y": 0.3061696502,
				"z": -2.6599493355,
				"element": "C" 
			},
			{
				"x": -1.0136031277,
				"y": -1.8529699116,
				"z": -3.891723735,
				"element": "H" 
			},
			{
				"x": -2.5345984905,
				"y": -2.7681981308,
				"z": -3.7894344626,
				"element": "H" 
			},
			{
				"x": -0.9747530879,
				"y": -3.6324722632,
				"z": -3.8424852969,
				"element": "H" 
			},
			{
				"x": -1.8990436458,
				"y": -4.6893370564,
				"z": -1.4336090405,
				"element": "H" 
			},
			{
				"x": 1.360207544,
				"y": 0.0797749512,
				"z": 1.7688549676,
				"element": "H" 
			},
			{
				"x": 0.035776291,
				"y": -0.4530956144,
				"z": 0.8628464692,
				"element": "H" 
			},
			{
				"x": 3.4494287692,
				"y": 0.5906237992,
				"z": 0.8716043745,
				"element": "H" 
			},
			{
				"x": 4.8738075834,
				"y": 0.8635397993,
				"z": -1.1162251785,
				"element": "H" 
			},
			{
				"x": 3.8947092146,
				"y": 0.67712829,
				"z": -3.4091674716,
				"element": "H" 
			},
			{
				"x": 1.4599397271,
				"y": 0.2268465804,
				"z": -3.6458293841,
				"element": "H" 
			}
		],
		 "valence_orbital": [ 
			{
				"type": "occ",
				"energy": -0.27653,
				"method": "rhf"
			},
			{
				"type": "occ",
				"energy": -0.26502,
				"method": "rhf"
			},
			{
				"type": "occ",
				"energy": -0.25554,
				"method": "rhf"
			},
			{
				"type": "occ",
				"energy": -0.23983,
				"method": "rhf"
			},
			{
				"type": "occ",
				"energy": -0.19904,
				"method": "rhf"
			},
			{
				"type": "unocc",
				"energy": -0.01176,
				"method": "rhf"
			},
			{
				"type": "unocc",
				"energy": -0.01011,
				"method": "rhf"
			},
			{
				"type": "unocc",
				"energy": 0.01311,
				"method": "rhf"
			},
			{
				"type": "unocc",
				"energy": 0.02252,
				"method": "rhf"
			},
			{
				"type": "unocc",
				"energy": 0.0682,
				"method": "rhf"
			}
		],
		"cosmo_sigma_profile": { 
			"-0.025": 0.0,
			"-0.024": 0.0,
			"-0.023": 0.0,
			"-0.022": 0.0,
			"-0.021": 0.0,
			"-0.02": 0.0,
			"-0.019": 0.0,
			"-0.018": 0.0,
			"-0.017": 0.0,
			"-0.016": 0.0,
			"-0.015": 0.0,
			"-0.014": 0.0,
			"-0.013": 0.306018893808,
			"-0.012": 1.47780352806,
			"-0.011": 2.19599889765,
			"-0.01": 3.86002803694,
			"-0.009": 4.65335170892,
			"-0.008": 5.38952438477,
			"-0.007": 7.94821521646,
			"-0.006": 14.1209800591,
			"-0.005": 18.3385975699,
			"-0.004": 19.8877403149,
			"-0.003": 17.2120461758,
			"-0.002": 12.4530478715,
			"-0.001": 12.7625595613,
			"0.0": 9.84088363553,
			"0.001": 12.4517728691,
			"0.002": 12.022896222,
			"0.003": 14.9998709905,
			"0.004": 12.8150765997,
			"0.005": 13.9890152334,
			"0.006": 11.7594700968,
			"0.007": 4.5986044824,
			"0.008": 3.80289056697,
			"0.009": 3.48301447006,
			"0.01": 2.73131495421,
			"0.011": 3.74336891171,
			"0.012": 3.57377972453,
			"0.013": 2.54033231688,
			"0.014": 1.10992831926,
			"0.015": 1.52523478837,
			"0.016": 0.981741983024,
			"0.017": 0.108732627597,
			"0.018": 0.0,
			"0.019": 0.0,
			"0.02": 0.0,
			"0.021": 0.0,
			"0.022": 0.0,
			"0.023": 0.0,
			"0.024": 0.0,
			"0.025": 0.0
		}
	}
}
