{
	 "smiles": "COC1=CC=C(C=C1)C1=NN(CCC#N)C=C1C=C(C#N)C(O)=O", 
	 "Tm": 486.15, 
	 "num_atms": 38, 
	 "gaussian": { 
		 "optdone": 1, 
		 "sigma_profile": "yes", 
		 "theory": "DFT", 
		 "functional": "B3LYP", 
		 "basiset": "6-31G**", 
		 "properties": { 
			 "R2extent": 11616.0405, 
			 "electric_dipole_moment_norm": 5.05721255436, 
			 "electric_quadrupole_moment_norm": 17.4719703485, 
			 "total_energy": -1100.87166492, 
			 "HOMO_LUMO_gap": 0.13596, 
			 "cosmo_polarized_energy": -26.13, 
			 "cosmo_cavitation_energy": 46.3, 
			 "cosmo_dispersion_energy": -31.08, 
			 "cosmo_repulsion_energy": 2.39, 
			 "cosmo_total_nonelectrostatic_energy": 17.61, 
			 "SMD_solvation_energy": 11.65 
		},
		"coords": [
			{
				"x": 1.9051858394,
				"y": -3.6218309672,
				"z": -3.6343935795,
				"element": "C" 
			},
			{
				"x": 0.5875946255,
				"y": -3.5105458092,
				"z": -3.114870213,
				"element": "O" 
			},
			{
				"x": 0.3316813871,
				"y": -2.5347550571,
				"z": -2.2023960815,
				"element": "C" 
			},
			{
				"x": -0.9859625781,
				"y": -2.4850645072,
				"z": -1.7161164697,
				"element": "C" 
			},
			{
				"x": -1.3481267154,
				"y": -1.5333695225,
				"z": -0.7776524792,
				"element": "C" 
			},
			{
				"x": -0.4108993704,
				"y": -0.6007000518,
				"z": -0.2898485332,
				"element": "C" 
			},
			{
				"x": 0.8943373949,
				"y": -0.6498380659,
				"z": -0.7976231828,
				"element": "C" 
			},
			{
				"x": 1.272624763,
				"y": -1.6064319907,
				"z": -1.7414203543,
				"element": "C" 
			},
			{
				"x": -0.8285594018,
				"y": 0.4063772963,
				"z": 0.6976346601,
				"element": "C" 
			},
			{
				"x": -2.0485466551,
				"y": 0.9377273754,
				"z": 0.6313188664,
				"element": "N" 
			},
			{
				"x": -2.1211810648,
				"y": 1.8082521421,
				"z": 1.6745090064,
				"element": "N" 
			},
			{
				"x": -3.3392796649,
				"y": 2.5797970259,
				"z": 1.8573878223,
				"element": "C" 
			},
			{
				"x": -3.5670473033,
				"y": 3.5317791649,
				"z": 0.6635038487,
				"element": "C" 
			},
			{
				"x": -4.8163962965,
				"y": 4.2801944515,
				"z": 0.8051319062,
				"element": "C" 
			},
			{
				"x": -5.810940273,
				"y": 4.8629226439,
				"z": 0.9383705592,
				"element": "N" 
			},
			{
				"x": -0.9886727807,
				"y": 1.8602456071,
				"z": 2.3965314687,
				"element": "C" 
			},
			{
				"x": -0.0965640882,
				"y": 0.9482427989,
				"z": 1.8176611948,
				"element": "C" 
			},
			{
				"x": 1.2033396118,
				"y": 0.5436901052,
				"z": 2.2616051966,
				"element": "C" 
			},
			{
				"x": 1.9778610631,
				"y": 1.0567543463,
				"z": 3.2641386248,
				"element": "C" 
			},
			{
				"x": 1.56871461,
				"y": 2.1666930714,
				"z": 4.0600553311,
				"element": "C" 
			},
			{
				"x": 1.1780045893,
				"y": 3.0718351186,
				"z": 4.6810427508,
				"element": "N" 
			},
			{
				"x": 3.296703848,
				"y": 0.4209574861,
				"z": 3.5188574751,
				"element": "C" 
			},
			{
				"x": 3.9582444052,
				"y": 1.0090949261,
				"z": 4.5392266288,
				"element": "O" 
			},
			{
				"x": 3.7455653329,
				"y": -0.5172251802,
				"z": 2.8900140083,
				"element": "O" 
			},
			{
				"x": 2.6361066266,
				"y": -3.8214148846,
				"z": -2.8408269012,
				"element": "H" 
			},
			{
				"x": 2.2024085464,
				"y": -2.7165474265,
				"z": -4.1786960227,
				"element": "H" 
			},
			{
				"x": 1.8849944585,
				"y": -4.4654666658,
				"z": -4.3255083146,
				"element": "H" 
			},
			{
				"x": -1.701711376,
				"y": -3.2106429676,
				"z": -2.0881683598,
				"element": "H" 
			},
			{
				"x": -2.3652345973,
				"y": -1.5016688646,
				"z": -0.4016349986,
				"element": "H" 
			},
			{
				"x": 1.6274271231,
				"y": 0.0861371266,
				"z": -0.4833376195,
				"element": "H" 
			},
			{
				"x": 2.2900494064,
				"y": -1.6088318733,
				"z": -2.1130067059,
				"element": "H" 
			},
			{
				"x": -4.1798209856,
				"y": 1.8868296022,
				"z": 1.9476841865,
				"element": "H" 
			},
			{
				"x": -3.2479462837,
				"y": 3.1387948423,
				"z": 2.7907297219,
				"element": "H" 
			},
			{
				"x": -3.5942483988,
				"y": 2.9435300958,
				"z": -0.2591571478,
				"element": "H" 
			},
			{
				"x": -2.7327125711,
				"y": 4.2370834144,
				"z": 0.5811078444,
				"element": "H" 
			},
			{
				"x": -0.8867309754,
				"y": 2.4987353565,
				"z": 3.2610114795,
				"element": "H" 
			},
			{
				"x": 1.6510181302,
				"y": -0.3005403756,
				"z": 1.7440113037,
				"element": "H" 
			},
			{
				"x": 4.7999196188,
				"y": 0.532600212,
				"z": 4.6293230788,
				"element": "H" 
			}
		],
		 "valence_orbital": [ 
			{
				"type": "occ",
				"energy": -0.28804,
				"method": "rhf"
			},
			{
				"type": "occ",
				"energy": -0.28779,
				"method": "rhf"
			},
			{
				"type": "occ",
				"energy": -0.26437,
				"method": "rhf"
			},
			{
				"type": "occ",
				"energy": -0.25055,
				"method": "rhf"
			},
			{
				"type": "occ",
				"energy": -0.22389,
				"method": "rhf"
			},
			{
				"type": "unocc",
				"energy": -0.08793,
				"method": "rhf"
			},
			{
				"type": "unocc",
				"energy": -0.03093,
				"method": "rhf"
			},
			{
				"type": "unocc",
				"energy": -0.01527,
				"method": "rhf"
			},
			{
				"type": "unocc",
				"energy": 0.00817,
				"method": "rhf"
			},
			{
				"type": "unocc",
				"energy": 0.0173,
				"method": "rhf"
			}
		],
		"cosmo_sigma_profile": { 
			"-0.025": 0.0,
			"-0.024": 0.0,
			"-0.023": 0.0,
			"-0.022": 0.0,
			"-0.021": 0.0,
			"-0.02": 0.0,
			"-0.019": 0.345525796386,
			"-0.018": 1.42783818459,
			"-0.017": 0.371815991353,
			"-0.016": 1.03269308859,
			"-0.015": 0.758121412731,
			"-0.014": 0.559878942103,
			"-0.013": 0.294697997419,
			"-0.012": 1.48144041052,
			"-0.011": 2.32212655873,
			"-0.01": 3.25136087379,
			"-0.009": 9.00016137975,
			"-0.008": 11.9881136319,
			"-0.007": 13.5208907522,
			"-0.006": 21.4311786236,
			"-0.005": 26.7422468941,
			"-0.004": 23.4934069541,
			"-0.003": 25.4099081043,
			"-0.002": 22.6545390208,
			"-0.001": 23.9648726631,
			"0.0": 21.4546184606,
			"0.001": 17.6866319066,
			"0.002": 15.6229200995,
			"0.003": 19.4428600693,
			"0.004": 20.8284420682,
			"0.005": 13.3726016911,
			"0.006": 10.3270788676,
			"0.007": 11.9338644336,
			"0.008": 11.5822813684,
			"0.009": 10.7181886277,
			"0.01": 9.59028583088,
			"0.011": 10.4794540959,
			"0.012": 7.13329733231,
			"0.013": 2.43587334954,
			"0.014": 0.0425798186386,
			"0.015": 0.0,
			"0.016": 0.0,
			"0.017": 0.0,
			"0.018": 0.0,
			"0.019": 0.0,
			"0.02": 0.0,
			"0.021": 0.0,
			"0.022": 0.0,
			"0.023": 0.0,
			"0.024": 0.0,
			"0.025": 0.0
		}
	}
}
