{
	 "smiles": "C[Si](C)(O)C1=CC=C(C=C1)[Si](C)(C)O", 
	 "Tm": 408.15, 
	 "num_atms": 32, 
	 "gaussian": { 
		 "optdone": 1, 
		 "sigma_profile": "yes", 
		 "theory": "DFT", 
		 "functional": "B3LYP", 
		 "basiset": "6-31G**", 
		 "properties": { 
			 "R2extent": 5700.0369, 
			 "electric_dipole_moment_norm": 2.27169477703, 
			 "electric_quadrupole_moment_norm": 9.15944450772, 
			 "total_energy": -1121.50922875, 
			 "HOMO_LUMO_gap": 0.22304, 
			 "cosmo_polarized_energy": -12.57, 
			 "cosmo_cavitation_energy": 38.01, 
			 "cosmo_dispersion_energy": -22.16, 
			 "cosmo_repulsion_energy": 2.0, 
			 "cosmo_total_nonelectrostatic_energy": 17.85, 
			 "SMD_solvation_energy": 8.68 
		},
		"coords": [
			{
				"x": 3.2735362943,
				"y": 2.3416717692,
				"z": -0.1795313415,
				"element": "C" 
			},
			{
				"x": 3.235162303,
				"y": 0.5476921238,
				"z": -0.7613600513,
				"element": "Si" 
			},
			{
				"x": 4.599911804,
				"y": -0.4448297598,
				"z": 0.0628019794,
				"element": "C" 
			},
			{
				"x": 3.563451894,
				"y": 0.4325793252,
				"z": -2.4038549986,
				"element": "O" 
			},
			{
				"x": 1.530665098,
				"y": -0.1960692075,
				"z": -0.437073045,
				"element": "C" 
			},
			{
				"x": 1.0236775652,
				"y": -1.2029511914,
				"z": -1.2803085774,
				"element": "C" 
			},
			{
				"x": -0.221875385,
				"y": -1.7846213887,
				"z": -1.0459241043,
				"element": "C" 
			},
			{
				"x": -1.0207267367,
				"y": -1.3896217335,
				"z": 0.0426301469,
				"element": "C" 
			},
			{
				"x": -0.5182549142,
				"y": -0.3821734525,
				"z": 0.8844764365,
				"element": "C" 
			},
			{
				"x": 0.727259239,
				"y": 0.2013963171,
				"z": 0.6465648072,
				"element": "C" 
			},
			{
				"x": -2.6955868166,
				"y": -2.1815359615,
				"z": 0.3578795567,
				"element": "Si" 
			},
			{
				"x": -2.5080567632,
				"y": -4.0237023323,
				"z": 0.7211450676,
				"element": "C" 
			},
			{
				"x": -3.8337893782,
				"y": -1.9478894716,
				"z": -1.1287428976,
				"element": "C" 
			},
			{
				"x": -3.2840565088,
				"y": -1.3639553466,
				"z": 1.699680666,
				"element": "O" 
			},
			{
				"x": 4.2441106191,
				"y": 2.795136594,
				"z": -0.4078712728,
				"element": "H" 
			},
			{
				"x": 3.121981059,
				"y": 2.4183953823,
				"z": 0.9032086605,
				"element": "H" 
			},
			{
				"x": 2.4981095182,
				"y": 2.9462974687,
				"z": -0.6624215451,
				"element": "H" 
			},
			{
				"x": 4.5906285169,
				"y": -1.4823208356,
				"z": -0.2855306755,
				"element": "H" 
			},
			{
				"x": 4.484338,
				"y": -0.4550920946,
				"z": 1.151937058,
				"element": "H" 
			},
			{
				"x": 5.5821518634,
				"y": -0.0198686348,
				"z": -0.1699572641,
				"element": "H" 
			},
			{
				"x": 2.9163476177,
				"y": 0.8359645751,
				"z": -2.9924870577,
				"element": "H" 
			},
			{
				"x": 1.6106897586,
				"y": -1.5302583735,
				"z": -2.135659487,
				"element": "H" 
			},
			{
				"x": -0.5718937936,
				"y": -2.5583654331,
				"z": -1.7278281045,
				"element": "H" 
			},
			{
				"x": -1.1141019522,
				"y": -0.0516564281,
				"z": 1.7305851709,
				"element": "H" 
			},
			{
				"x": 1.0724901982,
				"y": 0.9833756139,
				"z": 1.3198473686,
				"element": "H" 
			},
			{
				"x": -2.0507811178,
				"y": -4.5462673884,
				"z": -0.1269459129,
				"element": "H" 
			},
			{
				"x": -1.8690735411,
				"y": -4.1868126067,
				"z": 1.5949113499,
				"element": "H" 
			},
			{
				"x": -3.4750902203,
				"y": -4.5027418197,
				"z": 0.9149395408,
				"element": "H" 
			},
			{
				"x": -3.9829577373,
				"y": -0.8847366515,
				"z": -1.3427811597,
				"element": "H" 
			},
			{
				"x": -3.4094442614,
				"y": -2.4118688378,
				"z": -2.0266059824,
				"element": "H" 
			},
			{
				"x": -4.8185033147,
				"y": -2.4006952035,
				"z": -0.9635070592,
				"element": "H" 
			},
			{
				"x": -4.1346189075,
				"y": -1.6516750165,
				"z": 2.0460827273,
				"element": "H" 
			}
		],
		 "valence_orbital": [ 
			{
				"type": "occ",
				"energy": -0.28722,
				"method": "rhf"
			},
			{
				"type": "occ",
				"energy": -0.28121,
				"method": "rhf"
			},
			{
				"type": "occ",
				"energy": -0.27152,
				"method": "rhf"
			},
			{
				"type": "occ",
				"energy": -0.24325,
				"method": "rhf"
			},
			{
				"type": "occ",
				"energy": -0.24059,
				"method": "rhf"
			},
			{
				"type": "unocc",
				"energy": -0.01755,
				"method": "rhf"
			},
			{
				"type": "unocc",
				"energy": 0.0045,
				"method": "rhf"
			},
			{
				"type": "unocc",
				"energy": 0.04914,
				"method": "rhf"
			},
			{
				"type": "unocc",
				"energy": 0.06091,
				"method": "rhf"
			},
			{
				"type": "unocc",
				"energy": 0.07535,
				"method": "rhf"
			}
		],
		"cosmo_sigma_profile": { 
			"-0.025": 0.0,
			"-0.024": 0.0,
			"-0.023": 0.0,
			"-0.022": 0.0,
			"-0.021": 0.0,
			"-0.02": 0.0,
			"-0.019": 0.0,
			"-0.018": 0.0,
			"-0.017": 0.239374631451,
			"-0.016": 1.77657062616,
			"-0.015": 1.55475586895,
			"-0.014": 1.49080694671,
			"-0.013": 1.94259999463,
			"-0.012": 1.76554571907,
			"-0.011": 0.973810113252,
			"-0.01": 1.75176774845,
			"-0.009": 0.999951979298,
			"-0.008": 1.21254295018,
			"-0.007": 2.12360582737,
			"-0.006": 2.47844675846,
			"-0.005": 8.98026884902,
			"-0.004": 24.897817377,
			"-0.003": 30.1566915262,
			"-0.002": 26.5069917827,
			"-0.001": 28.2867217669,
			"0.0": 26.3482381633,
			"0.001": 34.6224004586,
			"0.002": 21.448840694,
			"0.003": 15.5054726558,
			"0.004": 11.6026694251,
			"0.005": 10.4529079822,
			"0.006": 10.2349628589,
			"0.007": 3.80210152824,
			"0.008": 2.39963601947,
			"0.009": 2.87194621873,
			"0.01": 2.37966261022,
			"0.011": 2.75565875632,
			"0.012": 2.97527018944,
			"0.013": 2.09523360779,
			"0.014": 0.976972838401,
			"0.015": 1.59728461262,
			"0.016": 0.280346008227,
			"0.017": 0.0,
			"0.018": 0.0,
			"0.019": 0.0,
			"0.02": 0.0,
			"0.021": 0.0,
			"0.022": 0.0,
			"0.023": 0.0,
			"0.024": 0.0,
			"0.025": 0.0
		}
	}
}
