{
	 "smiles": "OC(=O)C#CC1=CC(=CC=C1)C#CC(O)=O", 
	 "Tm": 482.15, 
	 "num_atms": 22, 
	 "gaussian": { 
		 "optdone": 1, 
		 "sigma_profile": "yes", 
		 "theory": "DFT", 
		 "functional": "B3LYP", 
		 "basiset": "6-31G**", 
		 "properties": { 
			 "R2extent": 6675.7245, 
			 "electric_dipole_moment_norm": 0.228044315869, 
			 "electric_quadrupole_moment_norm": 53.2207420303, 
			 "total_energy": -761.665634369, 
			 "HOMO_LUMO_gap": 0.17515, 
			 "cosmo_polarized_energy": -24.3, 
			 "cosmo_cavitation_energy": 32.0, 
			 "cosmo_dispersion_energy": -22.25, 
			 "cosmo_repulsion_energy": 1.81, 
			 "cosmo_total_nonelectrostatic_energy": 11.55, 
			 "SMD_solvation_energy": 8.85 
		},
		"coords": [
			{
				"x": -0.5277459093,
				"y": -0.7051255404,
				"z": -5.0264096401,
				"element": "O" 
			},
			{
				"x": -1.6558324075,
				"y": -0.9515310187,
				"z": -4.3127198799,
				"element": "C" 
			},
			{
				"x": -2.6925711434,
				"y": -1.240174328,
				"z": -4.85807489,
				"element": "O" 
			},
			{
				"x": -1.5027990531,
				"y": -0.8385513671,
				"z": -2.8736045652,
				"element": "C" 
			},
			{
				"x": -1.4375682257,
				"y": -0.759339099,
				"z": -1.6631530815,
				"element": "C" 
			},
			{
				"x": -1.3845798693,
				"y": -0.6722942123,
				"z": -0.2408373243,
				"element": "C" 
			},
			{
				"x": -0.1862545821,
				"y": -0.3350871462,
				"z": 0.4084252776,
				"element": "C" 
			},
			{
				"x": -0.1375232725,
				"y": -0.2501878129,
				"z": 1.8090175052,
				"element": "C" 
			},
			{
				"x": -1.302788318,
				"y": -0.5065821253,
				"z": 2.559795821,
				"element": "C" 
			},
			{
				"x": -2.4910134129,
				"y": -0.8410225171,
				"z": 1.9147502152,
				"element": "C" 
			},
			{
				"x": -2.5404448614,
				"y": -0.9254410587,
				"z": 0.5254160067,
				"element": "C" 
			},
			{
				"x": 1.0778491513,
				"y": 0.0921787004,
				"z": 2.4716052584,
				"element": "C" 
			},
			{
				"x": 2.1035620165,
				"y": 0.3823427733,
				"z": 3.0542150479,
				"element": "C" 
			},
			{
				"x": 3.2906815852,
				"y": 0.7227284861,
				"z": 3.8171805294,
				"element": "C" 
			},
			{
				"x": 4.3979182762,
				"y": 0.9643524795,
				"z": 3.0699933845,
				"element": "O" 
			},
			{
				"x": 3.3190467923,
				"y": 0.7924654247,
				"z": 5.0212930957,
				"element": "O" 
			},
			{
				"x": 0.1993215179,
				"y": -0.4914123854,
				"z": -4.4231094961,
				"element": "H" 
			},
			{
				"x": 0.7063100978,
				"y": -0.139152952,
				"z": -0.1749235691,
				"element": "H" 
			},
			{
				"x": -1.260053016,
				"y": -0.4397522392,
				"z": 3.6415864192,
				"element": "H" 
			},
			{
				"x": -3.3845183353,
				"y": -1.0371710733,
				"z": 2.4987137207,
				"element": "H" 
			},
			{
				"x": -3.4638252424,
				"y": -1.1855589877,
				"z": 0.019184608,
				"element": "H" 
			},
			{
				"x": 4.1857282115,
				"y": 0.8618159993,
				"z": 2.1304555565,
				"element": "H" 
			}
		],
		 "valence_orbital": [ 
			{
				"type": "occ",
				"energy": -0.31792,
				"method": "rhf"
			},
			{
				"type": "occ",
				"energy": -0.28744,
				"method": "rhf"
			},
			{
				"type": "occ",
				"energy": -0.28609,
				"method": "rhf"
			},
			{
				"type": "occ",
				"energy": -0.27974,
				"method": "rhf"
			},
			{
				"type": "occ",
				"energy": -0.26676,
				"method": "rhf"
			},
			{
				"type": "unocc",
				"energy": -0.09161,
				"method": "rhf"
			},
			{
				"type": "unocc",
				"energy": -0.07881,
				"method": "rhf"
			},
			{
				"type": "unocc",
				"energy": -0.01984,
				"method": "rhf"
			},
			{
				"type": "unocc",
				"energy": 0.00024,
				"method": "rhf"
			},
			{
				"type": "unocc",
				"energy": 0.00035,
				"method": "rhf"
			}
		],
		"cosmo_sigma_profile": { 
			"-0.025": 0.0,
			"-0.024": 0.0,
			"-0.023": 0.0,
			"-0.022": 0.0,
			"-0.021": 0.0,
			"-0.02": 0.277578274207,
			"-0.019": 1.84427907032,
			"-0.018": 1.72903531412,
			"-0.017": 1.40462742719,
			"-0.016": 1.68213019746,
			"-0.015": 2.02311696906,
			"-0.014": 1.58373252689,
			"-0.013": 1.7720604142,
			"-0.012": 2.01036590754,
			"-0.011": 1.56672629101,
			"-0.01": 1.42146258459,
			"-0.009": 2.35790474907,
			"-0.008": 8.03516279166,
			"-0.007": 10.4162417928,
			"-0.006": 11.492718575,
			"-0.005": 9.85283048627,
			"-0.004": 11.7166535315,
			"-0.003": 12.7002874356,
			"-0.002": 12.7052760518,
			"-0.001": 20.0851275476,
			"0.0": 25.8907102495,
			"0.001": 23.012894104,
			"0.002": 18.7096988322,
			"0.003": 8.69511785812,
			"0.004": 6.25399148366,
			"0.005": 5.54765881799,
			"0.006": 4.59193790656,
			"0.007": 4.93598085023,
			"0.008": 8.00892000609,
			"0.009": 8.5032564877,
			"0.01": 11.9652868925,
			"0.011": 11.9108360754,
			"0.012": 5.05561580805,
			"0.013": 0.200666322054,
			"0.014": 0.0,
			"0.015": 0.0,
			"0.016": 0.0,
			"0.017": 0.0,
			"0.018": 0.0,
			"0.019": 0.0,
			"0.02": 0.0,
			"0.021": 0.0,
			"0.022": 0.0,
			"0.023": 0.0,
			"0.024": 0.0,
			"0.025": 0.0
		}
	}
}
