{
	 "smiles": "CCC(C)(CC)C(C)(C)C", 
	 "Tm": 230.65, 
	 "num_atms": 32, 
	 "gaussian": { 
		 "optdone": 1, 
		 "sigma_profile": "yes", 
		 "theory": "DFT", 
		 "functional": "B3LYP", 
		 "basiset": "6-31G**", 
		 "properties": { 
			 "R2extent": 1920.5886, 
			 "electric_dipole_moment_norm": 0.0335061188442, 
			 "electric_quadrupole_moment_norm": 0.331425044316, 
			 "total_energy": -394.338754642, 
			 "HOMO_LUMO_gap": 0.3598, 
			 "cosmo_polarized_energy": -0.93, 
			 "cosmo_cavitation_energy": 28.13, 
			 "cosmo_dispersion_energy": -20.43, 
			 "cosmo_repulsion_energy": 1.59, 
			 "cosmo_total_nonelectrostatic_energy": 9.3, 
			 "SMD_solvation_energy": 5.01 
		},
		"coords": [
			{
				"x": -0.5479374835,
				"y": 3.2761079005,
				"z": 1.2179926121,
				"element": "C" 
			},
			{
				"x": -0.6351493037,
				"y": 1.9386737637,
				"z": 0.463519417,
				"element": "C" 
			},
			{
				"x": 0.5704742595,
				"y": 0.9642116013,
				"z": 0.6169026877,
				"element": "C" 
			},
			{
				"x": 1.8537458482,
				"y": 1.6855404735,
				"z": 0.1329742124,
				"element": "C" 
			},
			{
				"x": 0.8138346806,
				"y": 0.6297771449,
				"z": 2.1292088787,
				"element": "C" 
			},
			{
				"x": -0.3804395013,
				"y": 0.382360031,
				"z": 3.0677171819,
				"element": "C" 
			},
			{
				"x": 0.340300365,
				"y": -0.3496944298,
				"z": -0.272538402,
				"element": "C" 
			},
			{
				"x": 1.6379469337,
				"y": -1.185405324,
				"z": -0.3924483609,
				"element": "C" 
			},
			{
				"x": -0.7444108975,
				"y": -1.2849155939,
				"z": 0.3090262617,
				"element": "C" 
			},
			{
				"x": -0.1010206992,
				"y": 0.0038415317,
				"z": -1.714597297,
				"element": "C" 
			},
			{
				"x": -0.3683801132,
				"y": 3.1502870304,
				"z": 2.2895622181,
				"element": "H" 
			},
			{
				"x": 0.2461753922,
				"y": 3.9178768079,
				"z": 0.8250264354,
				"element": "H" 
			},
			{
				"x": -1.488245105,
				"y": 3.8269946446,
				"z": 1.1075248385,
				"element": "H" 
			},
			{
				"x": -1.554171166,
				"y": 1.4260429162,
				"z": 0.7707625556,
				"element": "H" 
			},
			{
				"x": -0.7664657889,
				"y": 2.1746154542,
				"z": -0.597118154,
				"element": "H" 
			},
			{
				"x": 1.9820225522,
				"y": 2.6370353788,
				"z": 0.6557226598,
				"element": "H" 
			},
			{
				"x": 2.7495946199,
				"y": 1.0922726856,
				"z": 0.3358668313,
				"element": "H" 
			},
			{
				"x": 1.8319259675,
				"y": 1.9033892208,
				"z": -0.9394322873,
				"element": "H" 
			},
			{
				"x": 1.3824310437,
				"y": 1.4663089842,
				"z": 2.5544119123,
				"element": "H" 
			},
			{
				"x": 1.4930762016,
				"y": -0.2283356661,
				"z": 2.1940269348,
				"element": "H" 
			},
			{
				"x": -1.0616619348,
				"y": 1.2369931658,
				"z": 3.1062699122,
				"element": "H" 
			},
			{
				"x": -0.9716830804,
				"y": -0.4933916841,
				"z": 2.7975042373,
				"element": "H" 
			},
			{
				"x": -0.0107767446,
				"y": 0.2216873147,
				"z": 4.0867841499,
				"element": "H" 
			},
			{
				"x": 1.4159557325,
				"y": -2.1380879181,
				"z": -0.8860058133,
				"element": "H" 
			},
			{
				"x": 2.0761479175,
				"y": -1.4222722267,
				"z": 0.5821274059,
				"element": "H" 
			},
			{
				"x": 2.4013449759,
				"y": -0.681894448,
				"z": -0.9918572242,
				"element": "H" 
			},
			{
				"x": -0.4149435508,
				"y": -1.7717512198,
				"z": 1.2307345407,
				"element": "H" 
			},
			{
				"x": -1.6841881173,
				"y": -0.7632424041,
				"z": 0.513281334,
				"element": "H" 
			},
			{
				"x": -0.9657548683,
				"y": -2.0804593311,
				"z": -0.4117323793,
				"element": "H" 
			},
			{
				"x": -1.1206014179,
				"y": 0.3976589382,
				"z": -1.7520744961,
				"element": "H" 
			},
			{
				"x": -0.0836359745,
				"y": -0.9005381384,
				"z": -2.3329668823,
				"element": "H" 
			},
			{
				"x": 0.5607892569,
				"y": 0.7335133964,
				"z": -2.191075921,
				"element": "H" 
			}
		],
		 "valence_orbital": [ 
			{
				"type": "occ",
				"energy": -0.32888,
				"method": "rhf"
			},
			{
				"type": "occ",
				"energy": -0.32301,
				"method": "rhf"
			},
			{
				"type": "occ",
				"energy": -0.2938,
				"method": "rhf"
			},
			{
				"type": "occ",
				"energy": -0.28756,
				"method": "rhf"
			},
			{
				"type": "occ",
				"energy": -0.2851,
				"method": "rhf"
			},
			{
				"type": "unocc",
				"energy": 0.0747,
				"method": "rhf"
			},
			{
				"type": "unocc",
				"energy": 0.10625,
				"method": "rhf"
			},
			{
				"type": "unocc",
				"energy": 0.11468,
				"method": "rhf"
			},
			{
				"type": "unocc",
				"energy": 0.12156,
				"method": "rhf"
			},
			{
				"type": "unocc",
				"energy": 0.12903,
				"method": "rhf"
			}
		],
		"cosmo_sigma_profile": { 
			"-0.025": 0.0,
			"-0.024": 0.0,
			"-0.023": 0.0,
			"-0.022": 0.0,
			"-0.021": 0.0,
			"-0.02": 0.0,
			"-0.019": 0.0,
			"-0.018": 0.0,
			"-0.017": 0.0,
			"-0.016": 0.0,
			"-0.015": 0.0,
			"-0.014": 0.0,
			"-0.013": 0.0,
			"-0.012": 0.0,
			"-0.011": 0.0,
			"-0.01": 0.0,
			"-0.009": 0.0,
			"-0.008": 0.0,
			"-0.007": 0.0,
			"-0.006": 0.0,
			"-0.005": 0.0,
			"-0.004": 0.032220944637,
			"-0.003": 5.59761139348,
			"-0.002": 31.4203678038,
			"-0.001": 49.6737503878,
			"0.0": 45.3654124678,
			"0.001": 41.5819098601,
			"0.002": 36.9332486121,
			"0.003": 4.16181335033,
			"0.004": 0.0,
			"0.005": 0.0,
			"0.006": 0.0,
			"0.007": 0.0,
			"0.008": 0.0,
			"0.009": 0.0,
			"0.01": 0.0,
			"0.011": 0.0,
			"0.012": 0.0,
			"0.013": 0.0,
			"0.014": 0.0,
			"0.015": 0.0,
			"0.016": 0.0,
			"0.017": 0.0,
			"0.018": 0.0,
			"0.019": 0.0,
			"0.02": 0.0,
			"0.021": 0.0,
			"0.022": 0.0,
			"0.023": 0.0,
			"0.024": 0.0,
			"0.025": 0.0
		}
	}
}
