{
	 "smiles": "CCOC(=O)N1CCC(CC1)=C1C2=C(CCC3=CC=CN=C13)C=C(Cl)C=C2", 
	 "Tm": 408.15, 
	 "num_atms": 50, 
	 "gaussian": { 
		 "optdone": 1, 
		 "sigma_profile": "yes", 
		 "theory": "DFT", 
		 "functional": "B3LYP", 
		 "basiset": "6-31G**", 
		 "properties": { 
			 "R2extent": 14649.2925, 
			 "electric_dipole_moment_norm": 1.92414688369, 
			 "electric_quadrupole_moment_norm": 32.0093952317, 
			 "total_energy": -1572.36816658, 
			 "HOMO_LUMO_gap": 0.18831, 
			 "cosmo_polarized_energy": -14.27, 
			 "cosmo_cavitation_energy": 52.47, 
			 "cosmo_dispersion_energy": -36.15, 
			 "cosmo_repulsion_energy": 2.77, 
			 "cosmo_total_nonelectrostatic_energy": 19.09, 
			 "SMD_solvation_energy": 7.21 
		},
		"coords": [
			{
				"x": 2.3801151163,
				"y": -5.6216034769,
				"z": -2.0309105359,
				"element": "C" 
			},
			{
				"x": 1.5901074867,
				"y": -4.4963577744,
				"z": -2.6826455037,
				"element": "C" 
			},
			{
				"x": 1.0009321268,
				"y": -3.6223130982,
				"z": -1.6972554586,
				"element": "O" 
			},
			{
				"x": 1.8174688991,
				"y": -2.6405084295,
				"z": -1.2176570901,
				"element": "C" 
			},
			{
				"x": 2.9698970835,
				"y": -2.4689401944,
				"z": -1.5893701751,
				"element": "O" 
			},
			{
				"x": 1.1662086426,
				"y": -1.8887327929,
				"z": -0.2834884023,
				"element": "N" 
			},
			{
				"x": 1.8663920024,
				"y": -0.7803840636,
				"z": 0.3618243633,
				"element": "C" 
			},
			{
				"x": 1.0495998,
				"y": 0.5152333215,
				"z": 0.2742169743,
				"element": "C" 
			},
			{
				"x": -0.4162301557,
				"y": 0.299035355,
				"z": 0.6304583458,
				"element": "C" 
			},
			{
				"x": -0.7118259461,
				"y": -1.1027494088,
				"z": 1.1179330915,
				"element": "C" 
			},
			{
				"x": -0.220881538,
				"y": -2.1607719851,
				"z": 0.113157027,
				"element": "C" 
			},
			{
				"x": -1.3714310447,
				"y": 1.2418329684,
				"z": 0.4623830566,
				"element": "C" 
			},
			{
				"x": -2.8079463303,
				"y": 1.0055140235,
				"z": 0.8070267317,
				"element": "C" 
			},
			{
				"x": -3.7689177835,
				"y": 0.9740082043,
				"z": -0.22208579,
				"element": "C" 
			},
			{
				"x": -3.3113202239,
				"y": 1.1922011273,
				"z": -1.6431128725,
				"element": "C" 
			},
			{
				"x": -2.9047035541,
				"y": 2.6522682484,
				"z": -1.9063487752,
				"element": "C" 
			},
			{
				"x": -1.7678864084,
				"y": 3.2522053126,
				"z": -1.0874818093,
				"element": "C" 
			},
			{
				"x": -1.3884341658,
				"y": 4.5611024825,
				"z": -1.4164306382,
				"element": "C" 
			},
			{
				"x": -0.3558493728,
				"y": 5.1982271728,
				"z": -0.7410953395,
				"element": "C" 
			},
			{
				"x": 0.2892028233,
				"y": 4.4852601771,
				"z": 0.268488752,
				"element": "C" 
			},
			{
				"x": -0.0478441607,
				"y": 3.2423526518,
				"z": 0.6093401341,
				"element": "N" 
			},
			{
				"x": -1.0533131958,
				"y": 2.6209355761,
				"z": -0.041786447,
				"element": "C" 
			},
			{
				"x": -5.1157887994,
				"y": 0.7710565122,
				"z": 0.0898765458,
				"element": "C" 
			},
			{
				"x": -5.5033054037,
				"y": 0.6047612007,
				"z": 1.4189497596,
				"element": "C" 
			},
			{
				"x": -7.2033832286,
				"y": 0.346482658,
				"z": 1.7941702209,
				"element": "Cl" 
			},
			{
				"x": -4.5696991885,
				"y": 0.6407565691,
				"z": 2.4514733706,
				"element": "C" 
			},
			{
				"x": -3.2260685295,
				"y": 0.8449133196,
				"z": 2.134142889,
				"element": "C" 
			},
			{
				"x": 1.7520897086,
				"y": -6.1879302605,
				"z": -1.3363428047,
				"element": "H" 
			},
			{
				"x": 2.75250688,
				"y": -6.3100634857,
				"z": -2.7972234008,
				"element": "H" 
			},
			{
				"x": 3.2367818465,
				"y": -5.2163804998,
				"z": -1.48717541,
				"element": "H" 
			},
			{
				"x": 2.2266844672,
				"y": -3.9056828081,
				"z": -3.3455504643,
				"element": "H" 
			},
			{
				"x": 0.7373387175,
				"y": -4.8825424416,
				"z": -3.2474599101,
				"element": "H" 
			},
			{
				"x": 2.8278075854,
				"y": -0.67161525,
				"z": -0.1393548436,
				"element": "H" 
			},
			{
				"x": 2.0733642942,
				"y": -1.0312330177,
				"z": 1.4119195594,
				"element": "H" 
			},
			{
				"x": 1.4853755962,
				"y": 1.2690606595,
				"z": 0.9368571051,
				"element": "H" 
			},
			{
				"x": 1.1257591341,
				"y": 0.9262538868,
				"z": -0.7396321168,
				"element": "H" 
			},
			{
				"x": -0.2104206392,
				"y": -1.2664050247,
				"z": 2.0821993264,
				"element": "H" 
			},
			{
				"x": -1.7775914184,
				"y": -1.2592986632,
				"z": 1.2896634076,
				"element": "H" 
			},
			{
				"x": -0.8631840557,
				"y": -2.1507833243,
				"z": -0.7744315377,
				"element": "H" 
			},
			{
				"x": -0.3037963618,
				"y": -3.1613455804,
				"z": 0.5553438259,
				"element": "H" 
			},
			{
				"x": -4.1126037552,
				"y": 0.9301227223,
				"z": -2.3418434376,
				"element": "H" 
			},
			{
				"x": -2.4652663865,
				"y": 0.5308455858,
				"z": -1.8639402366,
				"element": "H" 
			},
			{
				"x": -3.7911094241,
				"y": 3.2854479544,
				"z": -1.7634450621,
				"element": "H" 
			},
			{
				"x": -2.6395238971,
				"y": 2.7496098122,
				"z": -2.9674351999,
				"element": "H" 
			},
			{
				"x": -1.914402202,
				"y": 5.0765059285,
				"z": -2.2174490648,
				"element": "H" 
			},
			{
				"x": -0.0568492511,
				"y": 6.2119185791,
				"z": -0.9883179532,
				"element": "H" 
			},
			{
				"x": 1.1074060283,
				"y": 4.9326204591,
				"z": 0.8309038476,
				"element": "H" 
			},
			{
				"x": -5.8616659597,
				"y": 0.7362804266,
				"z": -0.6979190755,
				"element": "H" 
			},
			{
				"x": -4.8866334891,
				"y": 0.5165971011,
				"z": 3.4809606412,
				"element": "H" 
			},
			{
				"x": -2.4889623691,
				"y": 0.8869315837,
				"z": 2.9305003796,
				"element": "H" 
			}
		],
		 "valence_orbital": [ 
			{
				"type": "occ",
				"energy": -0.25768,
				"method": "rhf"
			},
			{
				"type": "occ",
				"energy": -0.25375,
				"method": "rhf"
			},
			{
				"type": "occ",
				"energy": -0.23829,
				"method": "rhf"
			},
			{
				"type": "occ",
				"energy": -0.22923,
				"method": "rhf"
			},
			{
				"type": "occ",
				"energy": -0.22673,
				"method": "rhf"
			},
			{
				"type": "unocc",
				"energy": -0.03842,
				"method": "rhf"
			},
			{
				"type": "unocc",
				"energy": -0.02381,
				"method": "rhf"
			},
			{
				"type": "unocc",
				"energy": -0.01117,
				"method": "rhf"
			},
			{
				"type": "unocc",
				"energy": -0.00802,
				"method": "rhf"
			},
			{
				"type": "unocc",
				"energy": 0.02772,
				"method": "rhf"
			}
		],
		"cosmo_sigma_profile": { 
			"-0.025": 0.0,
			"-0.024": 0.0,
			"-0.023": 0.0,
			"-0.022": 0.0,
			"-0.021": 0.0,
			"-0.02": 0.0,
			"-0.019": 0.0,
			"-0.018": 0.0,
			"-0.017": 0.0,
			"-0.016": 0.0,
			"-0.015": 0.0,
			"-0.014": 0.0,
			"-0.013": 0.0,
			"-0.012": 0.0,
			"-0.011": 0.0,
			"-0.01": 0.0,
			"-0.009": 0.0,
			"-0.008": 0.0318312113636,
			"-0.007": 3.07294297804,
			"-0.006": 12.3810311474,
			"-0.005": 23.913322125,
			"-0.004": 39.6780400627,
			"-0.003": 50.9520617,
			"-0.002": 46.5534976607,
			"-0.001": 39.1239921079,
			"0.0": 37.5463934451,
			"0.001": 31.5489972201,
			"0.002": 31.0997138703,
			"0.003": 30.8245157132,
			"0.004": 23.1751428695,
			"0.005": 15.2033209742,
			"0.006": 5.95580525504,
			"0.007": 4.29638469334,
			"0.008": 4.07710915055,
			"0.009": 1.745957423,
			"0.01": 2.13429301516,
			"0.011": 2.48295458197,
			"0.012": 2.55869907964,
			"0.013": 4.17454644,
			"0.014": 3.72617261217,
			"0.015": 0.391516132704,
			"0.016": 0.0254947828351,
			"0.017": 0.0,
			"0.018": 0.0,
			"0.019": 0.0,
			"0.02": 0.0,
			"0.021": 0.0,
			"0.022": 0.0,
			"0.023": 0.0,
			"0.024": 0.0,
			"0.025": 0.0
		}
	}
}
