{
	 "smiles": "[O-][N+](=O)C1=CC=CC=C1OCCBr", 
	 "Tm": 315.15, 
	 "num_atms": 21, 
	 "gaussian": { 
		 "optdone": 1, 
		 "sigma_profile": "yes", 
		 "theory": "DFT", 
		 "functional": "B3LYP", 
		 "basiset": "6-31G**", 
		 "properties": { 
			 "R2extent": 4582.5739, 
			 "electric_dipole_moment_norm": 6.22697360923, 
			 "electric_quadrupole_moment_norm": 9.12008818872, 
			 "total_energy": -3161.3786976, 
			 "HOMO_LUMO_gap": 0.17947, 
			 "cosmo_polarized_energy": -14.11, 
			 "cosmo_cavitation_energy": 28.28, 
			 "cosmo_dispersion_energy": -20.53, 
			 "cosmo_repulsion_energy": 1.64, 
			 "cosmo_total_nonelectrostatic_energy": 9.39, 
			 "SMD_solvation_energy": 5.86 
		},
		"coords": [
			{
				"x": -1.6363110951,
				"y": 2.1761127572,
				"z": 0.7506461896,
				"element": "O" 
			},
			{
				"x": -1.8284521821,
				"y": 1.8653957879,
				"z": -0.4231042035,
				"element": "N" 
			},
			{
				"x": -2.934909626,
				"y": 1.7916082123,
				"z": -0.9572723755,
				"element": "O" 
			},
			{
				"x": -0.6591276003,
				"y": 1.5932173746,
				"z": -1.2691290772,
				"element": "C" 
			},
			{
				"x": -0.7760624548,
				"y": 1.8944002435,
				"z": -2.6276702687,
				"element": "C" 
			},
			{
				"x": 0.3044409781,
				"y": 1.6916666714,
				"z": -3.4790837747,
				"element": "C" 
			},
			{
				"x": 1.4920433655,
				"y": 1.1574830721,
				"z": -2.9718177165,
				"element": "C" 
			},
			{
				"x": 1.5937362576,
				"y": 0.8293554738,
				"z": -1.6217497375,
				"element": "C" 
			},
			{
				"x": 0.525526628,
				"y": 1.0450707631,
				"z": -0.7430646247,
				"element": "C" 
			},
			{
				"x": 0.6347083482,
				"y": 0.6152859606,
				"z": 0.5487066459,
				"element": "O" 
			},
			{
				"x": 1.2317432358,
				"y": 1.5274097983,
				"z": 1.4800114445,
				"element": "C" 
			},
			{
				"x": 1.5633905089,
				"y": 0.7750976051,
				"z": 2.7484310984,
				"element": "C" 
			},
			{
				"x": -0.03800548,
				"y": 0.1602203802,
				"z": 3.7205636017,
				"element": "Br" 
			},
			{
				"x": -1.719228728,
				"y": 2.2870751004,
				"z": -2.9880478125,
				"element": "H" 
			},
			{
				"x": 0.2172170223,
				"y": 1.9402831898,
				"z": -4.5315394628,
				"element": "H" 
			},
			{
				"x": 2.3366719819,
				"y": 0.9825030083,
				"z": -3.6313908257,
				"element": "H" 
			},
			{
				"x": 2.4946724103,
				"y": 0.3748308774,
				"z": -1.2221803747,
				"element": "H" 
			},
			{
				"x": 2.1721356659,
				"y": 1.919602589,
				"z": 1.0620647399,
				"element": "H" 
			},
			{
				"x": 0.5482714736,
				"y": 2.3593065494,
				"z": 1.6700183052,
				"element": "H" 
			},
			{
				"x": 2.1048518536,
				"y": 1.4216471869,
				"z": 3.4389694101,
				"element": "H" 
			},
			{
				"x": 2.1486874369,
				"y": -0.1192726013,
				"z": 2.5369388186,
				"element": "H" 
			}
		],
		 "valence_orbital": [ 
			{
				"type": "occ",
				"energy": -0.29028,
				"method": "rhf"
			},
			{
				"type": "occ",
				"energy": -0.27756,
				"method": "rhf"
			},
			{
				"type": "occ",
				"energy": -0.27098,
				"method": "rhf"
			},
			{
				"type": "occ",
				"energy": -0.26937,
				"method": "rhf"
			},
			{
				"type": "occ",
				"energy": -0.26494,
				"method": "rhf"
			},
			{
				"type": "unocc",
				"energy": -0.08547,
				"method": "rhf"
			},
			{
				"type": "unocc",
				"energy": -0.02908,
				"method": "rhf"
			},
			{
				"type": "unocc",
				"energy": -0.00964,
				"method": "rhf"
			},
			{
				"type": "unocc",
				"energy": 0.00331,
				"method": "rhf"
			},
			{
				"type": "unocc",
				"energy": 0.06647,
				"method": "rhf"
			}
		],
		"cosmo_sigma_profile": { 
			"-0.025": 0.0,
			"-0.024": 0.0,
			"-0.023": 0.0,
			"-0.022": 0.0,
			"-0.021": 0.0,
			"-0.02": 0.0,
			"-0.019": 0.0,
			"-0.018": 0.0,
			"-0.017": 0.0,
			"-0.016": 0.0,
			"-0.015": 0.0,
			"-0.014": 0.0,
			"-0.013": 0.0,
			"-0.012": 0.0,
			"-0.011": 0.0,
			"-0.01": 0.0,
			"-0.009": 0.174808293313,
			"-0.008": 5.76316252483,
			"-0.007": 16.7829643604,
			"-0.006": 19.8610584354,
			"-0.005": 17.8548702994,
			"-0.004": 13.5214755871,
			"-0.003": 12.1640616707,
			"-0.002": 11.8906708027,
			"-0.001": 11.3599467905,
			"0.0": 14.1789798746,
			"0.001": 15.4429157014,
			"0.002": 16.300906129,
			"0.003": 9.84936854316,
			"0.004": 8.07604107098,
			"0.005": 9.92461340105,
			"0.006": 14.8352556463,
			"0.007": 11.3872415162,
			"0.008": 9.34951273166,
			"0.009": 6.93114754132,
			"0.01": 3.37760210241,
			"0.011": 0.092342109547,
			"0.012": 0.0,
			"0.013": 0.0,
			"0.014": 0.0,
			"0.015": 0.0,
			"0.016": 0.0,
			"0.017": 0.0,
			"0.018": 0.0,
			"0.019": 0.0,
			"0.02": 0.0,
			"0.021": 0.0,
			"0.022": 0.0,
			"0.023": 0.0,
			"0.024": 0.0,
			"0.025": 0.0
		}
	}
}
