{
	 "smiles": "CCCO[C@H]1CCC2C3CCC4=CC(=O)CC[C@]4(C)C3CC[C@]12C", 
	 "Tm": 391.15, 
	 "num_atms": 58, 
	 "gaussian": { 
		 "optdone": 1, 
		 "sigma_profile": "yes", 
		 "theory": "DFT", 
		 "functional": "B3LYP", 
		 "basiset": "6-31G**", 
		 "properties": { 
			 "R2extent": 11827.1364, 
			 "electric_dipole_moment_norm": 4.81977871484, 
			 "electric_quadrupole_moment_norm": 31.4510677631, 
			 "total_energy": -1009.28277071, 
			 "HOMO_LUMO_gap": 0.18614, 
			 "cosmo_polarized_energy": -11.91, 
			 "cosmo_cavitation_energy": 50.79, 
			 "cosmo_dispersion_energy": -35.35, 
			 "cosmo_repulsion_energy": 2.65, 
			 "cosmo_total_nonelectrostatic_energy": 18.09, 
			 "SMD_solvation_energy": 7.61 
		},
		"coords": [
			{
				"x": -0.9543419492,
				"y": 7.1070221627,
				"z": 1.8056082953,
				"element": "C" 
			},
			{
				"x": -0.7554211105,
				"y": 5.6156482126,
				"z": 2.0914606561,
				"element": "C" 
			},
			{
				"x": -0.2260296836,
				"y": 4.8543616824,
				"z": 0.8822414135,
				"element": "C" 
			},
			{
				"x": -0.0760771355,
				"y": 3.4895657819,
				"z": 1.2385564077,
				"element": "O" 
			},
			{
				"x": 0.3216932476,
				"y": 2.6422726742,
				"z": 0.1766127946,
				"element": "C" 
			},
			{
				"x": 1.8097554404,
				"y": 2.8054344742,
				"z": -0.2664612875,
				"element": "C" 
			},
			{
				"x": 2.2913046226,
				"y": 1.3798288336,
				"z": -0.6747001542,
				"element": "C" 
			},
			{
				"x": 1.0031659397,
				"y": 0.5379462208,
				"z": -0.6162098479,
				"element": "C" 
			},
			{
				"x": 1.0557518521,
				"y": -0.9971532557,
				"z": -0.6929316046,
				"element": "C" 
			},
			{
				"x": 1.9891348444,
				"y": -1.6878008727,
				"z": 0.3393804334,
				"element": "C" 
			},
			{
				"x": 1.4966131767,
				"y": -3.104084754,
				"z": 0.7281396415,
				"element": "C" 
			},
			{
				"x": 0.8455709064,
				"y": -3.7519038924,
				"z": -0.4591351652,
				"element": "C" 
			},
			{
				"x": 1.3997388903,
				"y": -4.8087795135,
				"z": -1.0892932464,
				"element": "C" 
			},
			{
				"x": 0.8473958849,
				"y": -5.4238366736,
				"z": -2.3079083,
				"element": "C" 
			},
			{
				"x": 1.3765132238,
				"y": -6.3922117717,
				"z": -2.838329903,
				"element": "O" 
			},
			{
				"x": -0.4262811269,
				"y": -4.8018653904,
				"z": -2.8698833611,
				"element": "C" 
			},
			{
				"x": -0.6091773782,
				"y": -3.3376226812,
				"z": -2.4533949845,
				"element": "C" 
			},
			{
				"x": -0.4531713337,
				"y": -3.0965637235,
				"z": -0.9290108083,
				"element": "C" 
			},
			{
				"x": -1.6288559627,
				"y": -3.7744806915,
				"z": -0.1795238729,
				"element": "C" 
			},
			{
				"x": -0.4094097752,
				"y": -1.5321303519,
				"z": -0.6805453105,
				"element": "C" 
			},
			{
				"x": -1.2131414979,
				"y": -0.9765619347,
				"z": 0.5200505052,
				"element": "C" 
			},
			{
				"x": -1.2254126972,
				"y": 0.5685833239,
				"z": 0.5355072222,
				"element": "C" 
			},
			{
				"x": 0.1989073621,
				"y": 1.1473042595,
				"z": 0.5668056077,
				"element": "C" 
			},
			{
				"x": 0.8043984725,
				"y": 0.9594621136,
				"z": 1.9770013899,
				"element": "C" 
			},
			{
				"x": -1.6728916513,
				"y": 7.2669602183,
				"z": 0.9936519733,
				"element": "H" 
			},
			{
				"x": -0.0135642469,
				"y": 7.5880502118,
				"z": 1.5145657096,
				"element": "H" 
			},
			{
				"x": -1.3328191801,
				"y": 7.6296796153,
				"z": 2.6891690976,
				"element": "H" 
			},
			{
				"x": -0.0531810987,
				"y": 5.4784915133,
				"z": 2.9222881991,
				"element": "H" 
			},
			{
				"x": -1.7014502777,
				"y": 5.1573011035,
				"z": 2.4029706587,
				"element": "H" 
			},
			{
				"x": 0.7364953137,
				"y": 5.2822932552,
				"z": 0.5572551737,
				"element": "H" 
			},
			{
				"x": -0.9249038904,
				"y": 4.950100168,
				"z": 0.0325099008,
				"element": "H" 
			},
			{
				"x": -0.338512894,
				"y": 2.8288084657,
				"z": -0.6882461607,
				"element": "H" 
			},
			{
				"x": 1.9105343373,
				"y": 3.5204423114,
				"z": -1.0883240741,
				"element": "H" 
			},
			{
				"x": 2.3862840793,
				"y": 3.1999517749,
				"z": 0.5763387662,
				"element": "H" 
			},
			{
				"x": 2.7472507667,
				"y": 1.3598019969,
				"z": -1.6698054535,
				"element": "H" 
			},
			{
				"x": 3.0459023605,
				"y": 1.0070985535,
				"z": 0.0257940434,
				"element": "H" 
			},
			{
				"x": 0.4245058347,
				"y": 0.8310994794,
				"z": -1.5080138793,
				"element": "H" 
			},
			{
				"x": 1.4575800934,
				"y": -1.2501967993,
				"z": -1.6846207686,
				"element": "H" 
			},
			{
				"x": 2.9880956364,
				"y": -1.7738456192,
				"z": -0.1017020889,
				"element": "H" 
			},
			{
				"x": 2.1065671018,
				"y": -1.091717072,
				"z": 1.2449963235,
				"element": "H" 
			},
			{
				"x": 2.3252628502,
				"y": -3.7112659727,
				"z": 1.1046400081,
				"element": "H" 
			},
			{
				"x": 0.7640452794,
				"y": -3.0226408997,
				"z": 1.541953573,
				"element": "H" 
			},
			{
				"x": 2.3168580271,
				"y": -5.2595651746,
				"z": -0.7160498312,
				"element": "H" 
			},
			{
				"x": -1.2675049872,
				"y": -5.4149882506,
				"z": -2.5194177453,
				"element": "H" 
			},
			{
				"x": -0.4036495698,
				"y": -4.9133212715,
				"z": -3.9582185322,
				"element": "H" 
			},
			{
				"x": -1.5918523572,
				"y": -2.9726250386,
				"z": -2.7766976415,
				"element": "H" 
			},
			{
				"x": 0.1377786971,
				"y": -2.7274425989,
				"z": -2.977237199,
				"element": "H" 
			},
			{
				"x": -1.6489866406,
				"y": -4.8485487767,
				"z": -0.3803294909,
				"element": "H" 
			},
			{
				"x": -1.5504659506,
				"y": -3.6490160452,
				"z": 0.9035878655,
				"element": "H" 
			},
			{
				"x": -2.5886899668,
				"y": -3.3541025449,
				"z": -0.4978468064,
				"element": "H" 
			},
			{
				"x": -0.8920588825,
				"y": -1.0891448618,
				"z": -1.564127411,
				"element": "H" 
			},
			{
				"x": -0.8151408566,
				"y": -1.3532935274,
				"z": 1.4697091387,
				"element": "H" 
			},
			{
				"x": -2.2484210376,
				"y": -1.3274143174,
				"z": 0.4690831386,
				"element": "H" 
			},
			{
				"x": -1.7396592439,
				"y": 0.924663156,
				"z": -0.3688774968,
				"element": "H" 
			},
			{
				"x": -1.8093379566,
				"y": 0.9308439264,
				"z": 1.3898749156,
				"element": "H" 
			},
			{
				"x": 0.6602995124,
				"y": -0.0531700804,
				"z": 2.3589505625,
				"element": "H" 
			},
			{
				"x": 0.3086404632,
				"y": 1.6489330305,
				"z": 2.6645023075,
				"element": "H" 
			},
			{
				"x": 1.8750661221,
				"y": 1.1800458384,
				"z": 2.0123367034,
				"element": "H" 
			}
		],
		 "valence_orbital": [ 
			{
				"type": "occ",
				"energy": -0.28898,
				"method": "rhf"
			},
			{
				"type": "occ",
				"energy": -0.2787,
				"method": "rhf"
			},
			{
				"type": "occ",
				"energy": -0.25024,
				"method": "rhf"
			},
			{
				"type": "occ",
				"energy": -0.24804,
				"method": "rhf"
			},
			{
				"type": "occ",
				"energy": -0.22719,
				"method": "rhf"
			},
			{
				"type": "unocc",
				"energy": -0.04105,
				"method": "rhf"
			},
			{
				"type": "unocc",
				"energy": 0.05993,
				"method": "rhf"
			},
			{
				"type": "unocc",
				"energy": 0.0692,
				"method": "rhf"
			},
			{
				"type": "unocc",
				"energy": 0.07848,
				"method": "rhf"
			},
			{
				"type": "unocc",
				"energy": 0.08388,
				"method": "rhf"
			}
		],
		"cosmo_sigma_profile": { 
			"-0.025": 0.0,
			"-0.024": 0.0,
			"-0.023": 0.0,
			"-0.022": 0.0,
			"-0.021": 0.0,
			"-0.02": 0.0,
			"-0.019": 0.0,
			"-0.018": 0.0,
			"-0.017": 0.0,
			"-0.016": 0.0,
			"-0.015": 0.0,
			"-0.014": 0.0,
			"-0.013": 0.0,
			"-0.012": 0.0,
			"-0.011": 0.0,
			"-0.01": 0.0,
			"-0.009": 0.0,
			"-0.008": 0.0,
			"-0.007": 0.0,
			"-0.006": 0.647318720931,
			"-0.005": 6.29624226216,
			"-0.004": 15.8934496988,
			"-0.003": 45.0477655886,
			"-0.002": 82.3060334589,
			"-0.001": 73.5629602833,
			"0.0": 56.2630378914,
			"0.001": 39.9940329428,
			"0.002": 19.4444381227,
			"0.003": 8.7771798291,
			"0.004": 5.01597706631,
			"0.005": 4.14061490321,
			"0.006": 3.65294262458,
			"0.007": 3.2832160138,
			"0.008": 3.4761294873,
			"0.009": 3.40719420909,
			"0.01": 3.59823318482,
			"0.011": 2.93223523159,
			"0.012": 2.94286895681,
			"0.013": 4.70533037503,
			"0.014": 3.56016557777,
			"0.015": 0.78936554598,
			"0.016": 0.0,
			"0.017": 0.0,
			"0.018": 0.0,
			"0.019": 0.0,
			"0.02": 0.0,
			"0.021": 0.0,
			"0.022": 0.0,
			"0.023": 0.0,
			"0.024": 0.0,
			"0.025": 0.0
		}
	}
}
