{
	 "smiles": "COC(=O)C1=C(O)C=C(OC)C=C1", 
	 "Tm": 324.15, 
	 "num_atms": 23, 
	 "gaussian": { 
		 "optdone": 1, 
		 "sigma_profile": "yes", 
		 "theory": "DFT", 
		 "functional": "B3LYP", 
		 "basiset": "6-31G**", 
		 "properties": { 
			 "R2extent": 3035.9641, 
			 "electric_dipole_moment_norm": 1.36573967139, 
			 "electric_quadrupole_moment_norm": 15.7810251191, 
			 "total_energy": -649.890763534, 
			 "HOMO_LUMO_gap": 0.18171, 
			 "cosmo_polarized_energy": -8.59, 
			 "cosmo_cavitation_energy": 27.01, 
			 "cosmo_dispersion_energy": -20.36, 
			 "cosmo_repulsion_energy": 1.6, 
			 "cosmo_total_nonelectrostatic_energy": 8.26, 
			 "SMD_solvation_energy": 7.27 
		},
		"coords": [
			{
				"x": -3.4015512793,
				"y": -1.4344272076,
				"z": -2.3509945827,
				"element": "C" 
			},
			{
				"x": -2.0850367263,
				"y": -1.2855733731,
				"z": -1.7957033171,
				"element": "O" 
			},
			{
				"x": -1.8718833175,
				"y": -0.1585672972,
				"z": -1.0911114083,
				"element": "C" 
			},
			{
				"x": -2.7618106519,
				"y": 0.6863319079,
				"z": -0.9395676561,
				"element": "O" 
			},
			{
				"x": -0.5243807506,
				"y": -0.0372544597,
				"z": -0.5399798804,
				"element": "C" 
			},
			{
				"x": -0.1995736561,
				"y": 1.1168646689,
				"z": 0.2199106562,
				"element": "C" 
			},
			{
				"x": -1.0837839962,
				"y": 2.0988921333,
				"z": 0.4498686502,
				"element": "O" 
			},
			{
				"x": 1.0865322095,
				"y": 1.2624610951,
				"z": 0.7627166338,
				"element": "C" 
			},
			{
				"x": 2.0431969397,
				"y": 0.2712810555,
				"z": 0.553572153,
				"element": "C" 
			},
			{
				"x": 3.3102127901,
				"y": 0.3218064685,
				"z": 1.03661471,
				"element": "O" 
			},
			{
				"x": 3.699871855,
				"y": 1.4518203291,
				"z": 1.8067703421,
				"element": "C" 
			},
			{
				"x": 1.7325598487,
				"y": -0.8822242327,
				"z": -0.2010258966,
				"element": "C" 
			},
			{
				"x": 0.468680786,
				"y": -1.0219704123,
				"z": -0.7325346882,
				"element": "C" 
			},
			{
				"x": -3.3885272141,
				"y": -2.388359877,
				"z": -2.8778422757,
				"element": "H" 
			},
			{
				"x": -4.1552584822,
				"y": -1.4428642416,
				"z": -1.5599029607,
				"element": "H" 
			},
			{
				"x": -3.6236676592,
				"y": -0.6172943389,
				"z": -3.0415995609,
				"element": "H" 
			},
			{
				"x": -1.9245144733,
				"y": 1.8336230195,
				"z": 0.000098107,
				"element": "H" 
			},
			{
				"x": 1.2899510535,
				"y": 2.1580521715,
				"z": 1.3349309985,
				"element": "H" 
			},
			{
				"x": 3.6270076396,
				"y": 2.3785831992,
				"z": 1.2248283356,
				"element": "H" 
			},
			{
				"x": 3.0921932648,
				"y": 1.5475248727,
				"z": 2.7147484515,
				"element": "H" 
			},
			{
				"x": 4.7405721307,
				"y": 1.2801881018,
				"z": 2.0845973,
				"element": "H" 
			},
			{
				"x": 2.5008036152,
				"y": -1.6333788313,
				"z": -0.3440514324,
				"element": "H" 
			},
			{
				"x": 0.2178060738,
				"y": -1.9023147515,
				"z": -1.3133426788,
				"element": "H" 
			}
		],
		 "valence_orbital": [ 
			{
				"type": "occ",
				"energy": -0.31056,
				"method": "rhf"
			},
			{
				"type": "occ",
				"energy": -0.30533,
				"method": "rhf"
			},
			{
				"type": "occ",
				"energy": -0.28203,
				"method": "rhf"
			},
			{
				"type": "occ",
				"energy": -0.23876,
				"method": "rhf"
			},
			{
				"type": "occ",
				"energy": -0.21885,
				"method": "rhf"
			},
			{
				"type": "unocc",
				"energy": -0.03714,
				"method": "rhf"
			},
			{
				"type": "unocc",
				"energy": 0.00778,
				"method": "rhf"
			},
			{
				"type": "unocc",
				"energy": 0.06298,
				"method": "rhf"
			},
			{
				"type": "unocc",
				"energy": 0.09523,
				"method": "rhf"
			},
			{
				"type": "unocc",
				"energy": 0.1051,
				"method": "rhf"
			}
		],
		"cosmo_sigma_profile": { 
			"-0.025": 0.0,
			"-0.024": 0.0,
			"-0.023": 0.0,
			"-0.022": 0.0,
			"-0.021": 0.0,
			"-0.02": 0.0,
			"-0.019": 0.0,
			"-0.018": 0.0,
			"-0.017": 0.0,
			"-0.016": 0.0,
			"-0.015": 0.0,
			"-0.014": 0.0,
			"-0.013": 0.0,
			"-0.012": 0.0,
			"-0.011": 0.0,
			"-0.01": 0.0,
			"-0.009": 0.0,
			"-0.008": 0.0,
			"-0.007": 3.24126322319,
			"-0.006": 17.0582950517,
			"-0.005": 19.3575270401,
			"-0.004": 20.7628638039,
			"-0.003": 21.4104373341,
			"-0.002": 14.5595507849,
			"-0.001": 13.3026476307,
			"0.0": 10.3358062345,
			"0.001": 13.5668293921,
			"0.002": 16.6266751768,
			"0.003": 19.6364999177,
			"0.004": 11.9100803843,
			"0.005": 7.37838282229,
			"0.006": 4.92174079199,
			"0.007": 4.05901487462,
			"0.008": 4.78263059444,
			"0.009": 4.05832214102,
			"0.01": 3.64802149107,
			"0.011": 3.7840760555,
			"0.012": 0.748463648163,
			"0.013": 0.0,
			"0.014": 0.0,
			"0.015": 0.0,
			"0.016": 0.0,
			"0.017": 0.0,
			"0.018": 0.0,
			"0.019": 0.0,
			"0.02": 0.0,
			"0.021": 0.0,
			"0.022": 0.0,
			"0.023": 0.0,
			"0.024": 0.0,
			"0.025": 0.0
		}
	}
}
