{
	 "smiles": "ClC1=CC=C(I)C=C1", 
	 "Tm": 328.65, 
	 "num_atms": 12, 
	 "gaussian": { 
		 "optdone": 1, 
		 "sigma_profile": "no", 
		 "theory": "DFT", 
		 "functional": "B3LYP", 
		 "basiset": "6-31G**", 
		 "properties": { 
			 "R2extent": 1772.5652, 
			 "electric_dipole_moment_norm": 0.139176901819, 
			 "electric_quadrupole_moment_norm": 7.2033764937, 
			 "total_energy": -702.625971426, 
			 "HOMO_LUMO_gap": 0.19696, 
			 "cosmo_polarized_energy": -98690.48, 
			 "cosmo_cavitation_energy": 21.18, 
			 "cosmo_dispersion_energy": -17.41, 
			 "cosmo_repulsion_energy": 1.4, 
			 "cosmo_total_nonelectrostatic_energy": 5.17, 
			 "SMD_solvation_energy": 2.49 
		},
		"coords": [
			{
				"x": 2.0168954001,
				"y": 0.5144821619,
				"z": -0.7182049825,
				"element": "Cl" 
			},
			{
				"x": 0.5132550636,
				"y": -0.366770956,
				"z": -0.9270961567,
				"element": "C" 
			},
			{
				"x": -0.1925815775,
				"y": -0.245998124,
				"z": -2.1234609485,
				"element": "C" 
			},
			{
				"x": -1.3881805583,
				"y": -0.9467272116,
				"z": -2.2895208135,
				"element": "C" 
			},
			{
				"x": -1.8615152245,
				"y": -1.758564768,
				"z": -1.2569840531,
				"element": "C" 
			},
			{
				"x": -3.6766692817,
				"y": -2.8223312582,
				"z": -1.5090002418,
				"element": "I" 
			},
			{
				"x": -1.1524110471,
				"y": -1.8774180074,
				"z": -0.0601943602,
				"element": "C" 
			},
			{
				"x": 0.043193515,
				"y": -1.1767204343,
				"z": 0.1059108156,
				"element": "C" 
			},
			{
				"x": 0.1852155018,
				"y": 0.3877038058,
				"z": -2.9182337013,
				"element": "H" 
			},
			{
				"x": -1.9393606256,
				"y": -0.8549819553,
				"z": -3.2184956807,
				"element": "H" 
			},
			{
				"x": -1.5206094996,
				"y": -2.5079832089,
				"z": 0.7410625083,
				"element": "H" 
			},
			{
				"x": 0.6028683337,
				"y": -1.2609900439,
				"z": 1.0309176146,
				"element": "H" 
			}
		],
		 "valence_orbital": [ 
			{
				"type": "occ",
				"energy": -0.32168,
				"method": "rhf"
			},
			{
				"type": "occ",
				"energy": -0.29197,
				"method": "rhf"
			},
			{
				"type": "occ",
				"energy": -0.27825,
				"method": "rhf"
			},
			{
				"type": "occ",
				"energy": -0.27515,
				"method": "rhf"
			},
			{
				"type": "occ",
				"energy": -0.24281,
				"method": "rhf"
			},
			{
				"type": "unocc",
				"energy": -0.04585,
				"method": "rhf"
			},
			{
				"type": "unocc",
				"energy": -0.03028,
				"method": "rhf"
			},
			{
				"type": "unocc",
				"energy": -0.02851,
				"method": "rhf"
			},
			{
				"type": "unocc",
				"energy": 0.02293,
				"method": "rhf"
			},
			{
				"type": "unocc",
				"energy": 0.03886,
				"method": "rhf"
			}
		],
		"cosmo_sigma_profile": { 
			"0.0": 0.0,
			"0.0": 0.0,
			"0.0": 0.0,
			"0.0": 0.0,
			"0.0": 0.0,
			"0.0": 0.0,
			"0.0": 0.0,
			"0.0": 0.0,
			"0.0": 0.0,
			"0.0": 0.0,
			"0.0": 0.0,
			"0.0": 0.0,
			"0.0": 0.0,
			"0.0": 0.0,
			"0.0": 0.0,
			"0.0": 0.0,
			"0.0": 0.0,
			"0.0": 0.0,
			"0.0": 0.0,
			"0.0": 0.0,
			"0.0": 0.0,
			"0.0": 0.0,
			"0.0": 0.0,
			"0.0": 0.0,
			"0.0": 0.0,
			"0.0": 0.0,
			"0.0": 0.0,
			"0.0": 0.0,
			"0.0": 0.0,
			"0.0": 0.0,
			"0.0": 0.0,
			"0.0": 0.0,
			"0.0": 0.0,
			"0.0": 0.0,
			"0.0": 0.0,
			"0.0": 0.0,
			"0.0": 0.0,
			"0.0": 0.0,
			"0.0": 0.0,
			"0.0": 0.0,
			"0.0": 0.0,
			"0.0": 0.0,
			"0.0": 0.0,
			"0.0": 0.0,
			"0.0": 0.0,
			"0.0": 0.0,
			"0.0": 0.0,
			"0.0": 0.0,
			"0.0": 0.0,
			"0.0": 0.0,
			"0.0": 0.0
		}
	}
}
