{
	 "smiles": "CN1C(=O)C(=O)C2=C1C=C(F)C=C2", 
	 "Tm": 411.15, 
	 "num_atms": 19, 
	 "gaussian": { 
		 "optdone": 1, 
		 "sigma_profile": "yes", 
		 "theory": "DFT", 
		 "functional": "B3LYP", 
		 "basiset": "6-31G**", 
		 "properties": { 
			 "R2extent": 2824.4199, 
			 "electric_dipole_moment_norm": 4.60612781195, 
			 "electric_quadrupole_moment_norm": 20.4617246033, 
			 "total_energy": -651.609657665, 
			 "HOMO_LUMO_gap": 0.14253, 
			 "cosmo_polarized_energy": -12.8, 
			 "cosmo_cavitation_energy": 24.67, 
			 "cosmo_dispersion_energy": -17.79, 
			 "cosmo_repulsion_energy": 1.36, 
			 "cosmo_total_nonelectrostatic_energy": 8.23, 
			 "SMD_solvation_energy": 6.19 
		},
		"coords": [
			{
				"x": -2.4276674681,
				"y": 0.0052253914,
				"z": -0.0130563506,
				"element": "C" 
			},
			{
				"x": -1.2104816886,
				"y": 0.5738951926,
				"z": 0.5316442038,
				"element": "N" 
			},
			{
				"x": -0.9623557185,
				"y": 0.6936517892,
				"z": 1.8962364369,
				"element": "C" 
			},
			{
				"x": -1.7019296065,
				"y": 0.3526669928,
				"z": 2.7929089512,
				"element": "O" 
			},
			{
				"x": 0.453304569,
				"y": 1.3543920694,
				"z": 2.0135953841,
				"element": "C" 
			},
			{
				"x": 1.0042913395,
				"y": 1.6139086055,
				"z": 3.0613663439,
				"element": "O" 
			},
			{
				"x": 0.889045168,
				"y": 1.5518388568,
				"z": 0.6266990931,
				"element": "C" 
			},
			{
				"x": -0.137059995,
				"y": 1.0711077493,
				"z": -0.2172696138,
				"element": "C" 
			},
			{
				"x": -0.0156638192,
				"y": 1.1227050351,
				"z": -1.5998820051,
				"element": "C" 
			},
			{
				"x": 1.170533102,
				"y": 1.6730327205,
				"z": -2.0955706106,
				"element": "C" 
			},
			{
				"x": 1.3162342039,
				"y": 1.7360353252,
				"z": -3.4296874686,
				"element": "F" 
			},
			{
				"x": 2.2040267919,
				"y": 2.1569065529,
				"z": -1.2927430687,
				"element": "C" 
			},
			{
				"x": 2.0551183941,
				"y": 2.0926263979,
				"z": 0.0934312325,
				"element": "C" 
			},
			{
				"x": -3.0533411031,
				"y": -0.2837557131,
				"z": 0.8325544626,
				"element": "H" 
			},
			{
				"x": -2.9634687447,
				"y": 0.7379692349,
				"z": -0.6262163059,
				"element": "H" 
			},
			{
				"x": -2.2099306091,
				"y": -0.8793514714,
				"z": -0.6213900219,
				"element": "H" 
			},
			{
				"x": -0.7765143637,
				"y": 0.7661044126,
				"z": -2.2832306659,
				"element": "H" 
			},
			{
				"x": 3.0905775223,
				"y": 2.5678424804,
				"z": -1.7608606419,
				"element": "H" 
			},
			{
				"x": 2.8325820258,
				"y": 2.456998378,
				"z": 0.7577706449,
				"element": "H" 
			}
		],
		 "valence_orbital": [ 
			{
				"type": "occ",
				"energy": -0.32244,
				"method": "rhf"
			},
			{
				"type": "occ",
				"energy": -0.31243,
				"method": "rhf"
			},
			{
				"type": "occ",
				"energy": -0.2773,
				"method": "rhf"
			},
			{
				"type": "occ",
				"energy": -0.24995,
				"method": "rhf"
			},
			{
				"type": "occ",
				"energy": -0.24026,
				"method": "rhf"
			},
			{
				"type": "unocc",
				"energy": -0.09773,
				"method": "rhf"
			},
			{
				"type": "unocc",
				"energy": -0.03008,
				"method": "rhf"
			},
			{
				"type": "unocc",
				"energy": 0.00536,
				"method": "rhf"
			},
			{
				"type": "unocc",
				"energy": 0.07369,
				"method": "rhf"
			},
			{
				"type": "unocc",
				"energy": 0.08311,
				"method": "rhf"
			}
		],
		"cosmo_sigma_profile": { 
			"-0.025": 0.0,
			"-0.024": 0.0,
			"-0.023": 0.0,
			"-0.022": 0.0,
			"-0.021": 0.0,
			"-0.02": 0.0,
			"-0.019": 0.0,
			"-0.018": 0.0,
			"-0.017": 0.0,
			"-0.016": 0.0,
			"-0.015": 0.0,
			"-0.014": 0.0,
			"-0.013": 0.0,
			"-0.012": 0.0,
			"-0.011": 0.0,
			"-0.01": 0.0,
			"-0.009": 0.851443191726,
			"-0.008": 5.62297351171,
			"-0.007": 9.08711730389,
			"-0.006": 16.2935664658,
			"-0.005": 12.7595003586,
			"-0.004": 13.6018909286,
			"-0.003": 17.2364360025,
			"-0.002": 12.5231715018,
			"-0.001": 15.4046953484,
			"0.0": 18.3076745969,
			"0.001": 14.5902002691,
			"0.002": 8.71781620619,
			"0.003": 11.4012223175,
			"0.004": 6.64239478775,
			"0.005": 3.23758391135,
			"0.006": 2.03591263629,
			"0.007": 2.00473729908,
			"0.008": 3.53328698372,
			"0.009": 5.40371635143,
			"0.01": 7.86947971988,
			"0.011": 8.41753464675,
			"0.012": 3.0192986642,
			"0.013": 0.292032574951,
			"0.014": 0.0,
			"0.015": 0.0,
			"0.016": 0.0,
			"0.017": 0.0,
			"0.018": 0.0,
			"0.019": 0.0,
			"0.02": 0.0,
			"0.021": 0.0,
			"0.022": 0.0,
			"0.023": 0.0,
			"0.024": 0.0,
			"0.025": 0.0
		}
	}
}
