{
	 "smiles": "COC1=C(SCC(=O)NN)C=CC=C1", 
	 "Tm": 383.15, 
	 "num_atms": 26, 
	 "gaussian": { 
		 "optdone": 1, 
		 "sigma_profile": "yes", 
		 "theory": "DFT", 
		 "functional": "B3LYP", 
		 "basiset": "6-31G**", 
		 "properties": { 
			 "R2extent": 3811.2851, 
			 "electric_dipole_moment_norm": 2.56119976769, 
			 "electric_quadrupole_moment_norm": 11.5074836098, 
			 "total_energy": -1008.29352727, 
			 "HOMO_LUMO_gap": 0.19832, 
			 "cosmo_polarized_energy": -14.96, 
			 "cosmo_cavitation_energy": 31.57, 
			 "cosmo_dispersion_energy": -22.26, 
			 "cosmo_repulsion_energy": 1.75, 
			 "cosmo_total_nonelectrostatic_energy": 11.06, 
			 "SMD_solvation_energy": 6.88 
		},
		"coords": [
			{
				"x": -0.1179930053,
				"y": -3.6161866714,
				"z": -1.5578008521,
				"element": "C" 
			},
			{
				"x": 0.4632768611,
				"y": -2.7965496253,
				"z": -0.5527339439,
				"element": "O" 
			},
			{
				"x": -0.3571168846,
				"y": -2.0521012998,
				"z": 0.2390623358,
				"element": "C" 
			},
			{
				"x": 0.2676408726,
				"y": -1.2744456998,
				"z": 1.2426306148,
				"element": "C" 
			},
			{
				"x": 2.0343536943,
				"y": -1.3392796981,
				"z": 1.5248958142,
				"element": "S" 
			},
			{
				"x": 2.7212306159,
				"y": -0.7244287944,
				"z": -0.0676926661,
				"element": "C" 
			},
			{
				"x": 2.536684937,
				"y": 0.7557463849,
				"z": -0.4079034332,
				"element": "C" 
			},
			{
				"x": 2.5516071868,
				"y": 1.1366351891,
				"z": -1.573088336,
				"element": "O" 
			},
			{
				"x": 2.4158356922,
				"y": 1.6113591615,
				"z": 0.642699135,
				"element": "N" 
			},
			{
				"x": 2.1904487225,
				"y": 2.9885676134,
				"z": 0.4525304303,
				"element": "N" 
			},
			{
				"x": -0.526717252,
				"y": -0.503083652,
				"z": 2.0957069303,
				"element": "C" 
			},
			{
				"x": -1.9176593898,
				"y": -0.487195706,
				"z": 1.9740485916,
				"element": "C" 
			},
			{
				"x": -2.5215694884,
				"y": -1.2425510911,
				"z": 0.9726426151,
				"element": "C" 
			},
			{
				"x": -1.7501660311,
				"y": -2.0193015844,
				"z": 0.1050048075,
				"element": "C" 
			},
			{
				"x": -0.7983341308,
				"y": -4.3598917275,
				"z": -1.1252469277,
				"element": "H" 
			},
			{
				"x": -0.6587316066,
				"y": -3.0192825139,
				"z": -2.302481796,
				"element": "H" 
			},
			{
				"x": 0.7142417521,
				"y": -4.1280139445,
				"z": -2.0424328252,
				"element": "H" 
			},
			{
				"x": 2.3140009192,
				"y": -1.3105011397,
				"z": -0.8906246625,
				"element": "H" 
			},
			{
				"x": 3.7949387134,
				"y": -0.9332235837,
				"z": -0.0063624866,
				"element": "H" 
			},
			{
				"x": 2.2669247504,
				"y": 1.2576125847,
				"z": 1.5769422101,
				"element": "H" 
			},
			{
				"x": 1.478392313,
				"y": 3.0775242606,
				"z": -0.2736234375,
				"element": "H" 
			},
			{
				"x": 3.0369650378,
				"y": 3.3799882851,
				"z": 0.0395303062,
				"element": "H" 
			},
			{
				"x": -0.0408032407,
				"y": 0.0883307042,
				"z": 2.8656097839,
				"element": "H" 
			},
			{
				"x": -2.5157536717,
				"y": 0.1173198217,
				"z": 2.648283109,
				"element": "H" 
			},
			{
				"x": -3.6013525918,
				"y": -1.2335654265,
				"z": 0.8557255854,
				"element": "H" 
			},
			{
				"x": -2.2397447753,
				"y": -2.6009818471,
				"z": -0.6667209025,
				"element": "H" 
			}
		],
		 "valence_orbital": [ 
			{
				"type": "occ",
				"energy": -0.26763,
				"method": "rhf"
			},
			{
				"type": "occ",
				"energy": -0.25804,
				"method": "rhf"
			},
			{
				"type": "occ",
				"energy": -0.25295,
				"method": "rhf"
			},
			{
				"type": "occ",
				"energy": -0.23587,
				"method": "rhf"
			},
			{
				"type": "occ",
				"energy": -0.21871,
				"method": "rhf"
			},
			{
				"type": "unocc",
				"energy": -0.02039,
				"method": "rhf"
			},
			{
				"type": "unocc",
				"energy": -0.00095,
				"method": "rhf"
			},
			{
				"type": "unocc",
				"energy": 0.02398,
				"method": "rhf"
			},
			{
				"type": "unocc",
				"energy": 0.04356,
				"method": "rhf"
			},
			{
				"type": "unocc",
				"energy": 0.07478,
				"method": "rhf"
			}
		],
		"cosmo_sigma_profile": { 
			"-0.025": 0.0,
			"-0.024": 0.0,
			"-0.023": 0.0,
			"-0.022": 0.0,
			"-0.021": 0.0,
			"-0.02": 0.0,
			"-0.019": 0.0,
			"-0.018": 0.0,
			"-0.017": 0.0,
			"-0.016": 0.0,
			"-0.015": 0.0,
			"-0.014": 0.0,
			"-0.013": 0.0,
			"-0.012": 0.266045701794,
			"-0.011": 2.57910229194,
			"-0.01": 2.75068884563,
			"-0.009": 3.53559634123,
			"-0.008": 5.11508369934,
			"-0.007": 6.22177965504,
			"-0.006": 18.4665318087,
			"-0.005": 21.866269433,
			"-0.004": 21.6623825962,
			"-0.003": 19.1900677596,
			"-0.002": 13.7251180706,
			"-0.001": 15.1916389029,
			"0.0": 15.7477070539,
			"0.001": 13.6119877711,
			"0.002": 14.1352958354,
			"0.003": 13.2743581885,
			"0.004": 15.1162223074,
			"0.005": 13.1818287115,
			"0.006": 4.92875570204,
			"0.007": 4.36513854432,
			"0.008": 3.51253567812,
			"0.009": 2.62269365609,
			"0.01": 3.24954780225,
			"0.011": 3.61073388435,
			"0.012": 2.35892780771,
			"0.013": 5.14848861788,
			"0.014": 4.59198389005,
			"0.015": 1.04350379395,
			"0.016": 0.485803136636,
			"0.017": 0.312210445836,
			"0.018": 0.0,
			"0.019": 0.0,
			"0.02": 0.0,
			"0.021": 0.0,
			"0.022": 0.0,
			"0.023": 0.0,
			"0.024": 0.0,
			"0.025": 0.0
		}
	}
}
