{
	 "smiles": "COC(=O)C=CC1=CC=C(OC)C(OC2CCCC2)=C1", 
	 "Tm": 328.65, 
	 "num_atms": 40, 
	 "gaussian": { 
		 "optdone": 1, 
		 "sigma_profile": "yes", 
		 "theory": "DFT", 
		 "functional": "B3LYP", 
		 "basiset": "6-31G**", 
		 "properties": { 
			 "R2extent": 7509.3048, 
			 "electric_dipole_moment_norm": 0.324807296716, 
			 "electric_quadrupole_moment_norm": 10.019458949, 
			 "total_energy": -922.622565466, 
			 "HOMO_LUMO_gap": 0.15839, 
			 "cosmo_polarized_energy": -10.2, 
			 "cosmo_cavitation_energy": 42.56, 
			 "cosmo_dispersion_energy": -29.45, 
			 "cosmo_repulsion_energy": 2.3, 
			 "cosmo_total_nonelectrostatic_energy": 15.41, 
			 "SMD_solvation_energy": 8.9 
		},
		"coords": [
			{
				"x": 2.1368034808,
				"y": 1.7272667411,
				"z": -5.0235858329,
				"element": "C" 
			},
			{
				"x": 1.8735887636,
				"y": 2.7078657602,
				"z": -4.0128214734,
				"element": "O" 
			},
			{
				"x": 1.336646008,
				"y": 2.2228070532,
				"z": -2.8602664674,
				"element": "C" 
			},
			{
				"x": 1.1001527973,
				"y": 1.03482025,
				"z": -2.7136801827,
				"element": "O" 
			},
			{
				"x": 1.1217364966,
				"y": 3.3388189923,
				"z": -1.9242852271,
				"element": "C" 
			},
			{
				"x": 0.6202135907,
				"y": 3.3612404695,
				"z": -0.6646863553,
				"element": "C" 
			},
			{
				"x": 0.1090899613,
				"y": 2.3732441618,
				"z": 0.2852768395,
				"element": "C" 
			},
			{
				"x": -0.3599033989,
				"y": 2.8743607356,
				"z": 1.5186452827,
				"element": "C" 
			},
			{
				"x": -0.8533582207,
				"y": 2.0252584505,
				"z": 2.5014104715,
				"element": "C" 
			},
			{
				"x": -0.9009134271,
				"y": 0.6464462301,
				"z": 2.2837156818,
				"element": "C" 
			},
			{
				"x": -1.4183608962,
				"y": -0.1569258278,
				"z": 3.2687782256,
				"element": "O" 
			},
			{
				"x": -0.4950400407,
				"y": -1.0847548381,
				"z": 3.8556558401,
				"element": "C" 
			},
			{
				"x": -0.4661686902,
				"y": 0.1291169439,
				"z": 1.04458912,
				"element": "C" 
			},
			{
				"x": -0.4899401216,
				"y": -1.2266565446,
				"z": 0.7993008695,
				"element": "O" 
			},
			{
				"x": -1.7927063391,
				"y": -1.8032151693,
				"z": 0.5739731353,
				"element": "C" 
			},
			{
				"x": -1.6616973755,
				"y": -3.3345617648,
				"z": 0.5727220605,
				"element": "C" 
			},
			{
				"x": -2.8001376471,
				"y": -3.8503670088,
				"z": -0.3517129364,
				"element": "C" 
			},
			{
				"x": -3.4573204864,
				"y": -2.5803362482,
				"z": -0.9619496348,
				"element": "C" 
			},
			{
				"x": -2.3996978474,
				"y": -1.477416718,
				"z": -0.7976579543,
				"element": "C" 
			},
			{
				"x": 0.0400551371,
				"y": 0.9816457166,
				"z": 0.0688884731,
				"element": "C" 
			},
			{
				"x": 1.215128635,
				"y": 1.2207139321,
				"z": -5.322812329,
				"element": "H" 
			},
			{
				"x": 2.5604852697,
				"y": 2.2766612564,
				"z": -5.8646264248,
				"element": "H" 
			},
			{
				"x": 2.8442348601,
				"y": 0.9763446967,
				"z": -4.6614010063,
				"element": "H" 
			},
			{
				"x": 1.4196477222,
				"y": 4.2956430064,
				"z": -2.3415647091,
				"element": "H" 
			},
			{
				"x": 0.5854876689,
				"y": 4.367645616,
				"z": -0.2467811388,
				"element": "H" 
			},
			{
				"x": -0.3238761326,
				"y": 3.9436732799,
				"z": 1.7087377586,
				"element": "H" 
			},
			{
				"x": -1.2037420214,
				"y": 2.4074814492,
				"z": 3.4547794026,
				"element": "H" 
			},
			{
				"x": -0.0680873119,
				"y": -1.7530474604,
				"z": 3.1032745996,
				"element": "H" 
			},
			{
				"x": -1.0674905899,
				"y": -1.6611022377,
				"z": 4.5850612717,
				"element": "H" 
			},
			{
				"x": 0.3116593067,
				"y": -0.5486704742,
				"z": 4.3710935464,
				"element": "H" 
			},
			{
				"x": -2.4681119078,
				"y": -1.4713150813,
				"z": 1.3724228663,
				"element": "H" 
			},
			{
				"x": -0.6775152365,
				"y": -3.5818271184,
				"z": 0.1609830761,
				"element": "H" 
			},
			{
				"x": -1.7053870228,
				"y": -3.7528009355,
				"z": 1.5824924429,
				"element": "H" 
			},
			{
				"x": -3.5310100876,
				"y": -4.4548922856,
				"z": 0.1936430875,
				"element": "H" 
			},
			{
				"x": -2.3900641464,
				"y": -4.4907877717,
				"z": -1.1388145963,
				"element": "H" 
			},
			{
				"x": -3.7661127777,
				"y": -2.720703123,
				"z": -2.0019650198,
				"element": "H" 
			},
			{
				"x": -4.3581974222,
				"y": -2.3147609698,
				"z": -0.3955282164,
				"element": "H" 
			},
			{
				"x": -2.808355009,
				"y": -0.4649369312,
				"z": -0.8621214596,
				"element": "H" 
			},
			{
				"x": -1.6139780682,
				"y": -1.5727205591,
				"z": -1.5573400324,
				"element": "H" 
			},
			{
				"x": 0.3777425269,
				"y": 0.5593443259,
				"z": -0.8683430544,
				"element": "H" 
			}
		],
		 "valence_orbital": [ 
			{
				"type": "occ",
				"energy": -0.27891,
				"method": "rhf"
			},
			{
				"type": "occ",
				"energy": -0.26723,
				"method": "rhf"
			},
			{
				"type": "occ",
				"energy": -0.25698,
				"method": "rhf"
			},
			{
				"type": "occ",
				"energy": -0.23854,
				"method": "rhf"
			},
			{
				"type": "occ",
				"energy": -0.21888,
				"method": "rhf"
			},
			{
				"type": "unocc",
				"energy": -0.06049,
				"method": "rhf"
			},
			{
				"type": "unocc",
				"energy": 0.00243,
				"method": "rhf"
			},
			{
				"type": "unocc",
				"energy": 0.02324,
				"method": "rhf"
			},
			{
				"type": "unocc",
				"energy": 0.08153,
				"method": "rhf"
			},
			{
				"type": "unocc",
				"energy": 0.08706,
				"method": "rhf"
			}
		],
		"cosmo_sigma_profile": { 
			"-0.025": 0.0,
			"-0.024": 0.0,
			"-0.023": 0.0,
			"-0.022": 0.0,
			"-0.021": 0.0,
			"-0.02": 0.0,
			"-0.019": 0.0,
			"-0.018": 0.0,
			"-0.017": 0.0,
			"-0.016": 0.0,
			"-0.015": 0.0,
			"-0.014": 0.0,
			"-0.013": 0.0,
			"-0.012": 0.0,
			"-0.011": 0.0,
			"-0.01": 0.0,
			"-0.009": 0.0,
			"-0.008": 0.685808410419,
			"-0.007": 4.59406385864,
			"-0.006": 12.0410456544,
			"-0.005": 16.6012833405,
			"-0.004": 19.2640743376,
			"-0.003": 37.0284563983,
			"-0.002": 41.8007446254,
			"-0.001": 38.4807716786,
			"0.0": 30.718664364,
			"0.001": 32.9269505041,
			"0.002": 24.2134352459,
			"0.003": 25.8586718081,
			"0.004": 15.5700009994,
			"0.005": 6.70744882504,
			"0.006": 5.47105955264,
			"0.007": 4.4296503192,
			"0.008": 5.49317217346,
			"0.009": 4.21857002844,
			"0.01": 3.66615948412,
			"0.011": 3.57863283976,
			"0.012": 1.96966180971,
			"0.013": 0.162026299265,
			"0.014": 0.0,
			"0.015": 0.0,
			"0.016": 0.0,
			"0.017": 0.0,
			"0.018": 0.0,
			"0.019": 0.0,
			"0.02": 0.0,
			"0.021": 0.0,
			"0.022": 0.0,
			"0.023": 0.0,
			"0.024": 0.0,
			"0.025": 0.0
		}
	}
}
