{
	 "smiles": "CC(NC1=NC=CC=C1)C1=CC=CO1", 
	 "Tm": 410.15, 
	 "num_atms": 26, 
	 "gaussian": { 
		 "optdone": 1, 
		 "sigma_profile": "yes", 
		 "theory": "DFT", 
		 "functional": "B3LYP", 
		 "basiset": "6-31G**", 
		 "properties": { 
			 "R2extent": 4050.3299, 
			 "electric_dipole_moment_norm": 2.28373360093, 
			 "electric_quadrupole_moment_norm": 9.22911063592, 
			 "total_energy": -611.103223544, 
			 "HOMO_LUMO_gap": 0.1926, 
			 "cosmo_polarized_energy": -9.91, 
			 "cosmo_cavitation_energy": 29.41, 
			 "cosmo_dispersion_energy": -21.06, 
			 "cosmo_repulsion_energy": 1.66, 
			 "cosmo_total_nonelectrostatic_energy": 10.01, 
			 "SMD_solvation_energy": 4.1 
		},
		"coords": [
			{
				"x": 0.3897573989,
				"y": -1.8440845773,
				"z": -0.7732552228,
				"element": "C" 
			},
			{
				"x": 1.0788981012,
				"y": -0.5860617443,
				"z": -1.3321453655,
				"element": "C" 
			},
			{
				"x": 0.5763235018,
				"y": -0.1709568219,
				"z": -2.6419959227,
				"element": "N" 
			},
			{
				"x": -0.7270782065,
				"y": 0.149915005,
				"z": -2.9719851381,
				"element": "C" 
			},
			{
				"x": -0.9990602154,
				"y": 0.0555491351,
				"z": -4.2882813923,
				"element": "N" 
			},
			{
				"x": -2.2247117269,
				"y": 0.3859223056,
				"z": -4.7046041495,
				"element": "C" 
			},
			{
				"x": -3.2493984561,
				"y": 0.8115995032,
				"z": -3.8621014584,
				"element": "C" 
			},
			{
				"x": -2.9590039426,
				"y": 0.9051883535,
				"z": -2.4982286923,
				"element": "C" 
			},
			{
				"x": -1.6915386899,
				"y": 0.5786709219,
				"z": -2.033936916,
				"element": "C" 
			},
			{
				"x": 1.0854059708,
				"y": 0.5371348341,
				"z": -0.3287722622,
				"element": "C" 
			},
			{
				"x": 0.6609392399,
				"y": 0.6535685136,
				"z": 0.9648232118,
				"element": "C" 
			},
			{
				"x": 1.0197465422,
				"y": 1.9740101935,
				"z": 1.3972569547,
				"element": "C" 
			},
			{
				"x": 1.637158027,
				"y": 2.5597983438,
				"z": 0.3364002944,
				"element": "C" 
			},
			{
				"x": 1.6893040279,
				"y": 1.6994447008,
				"z": -0.7197184219,
				"element": "O" 
			},
			{
				"x": 0.4740570336,
				"y": -2.6591914498,
				"z": -1.4966630528,
				"element": "H" 
			},
			{
				"x": -0.6723861204,
				"y": -1.6684703232,
				"z": -0.5842513416,
				"element": "H" 
			},
			{
				"x": 0.8606774515,
				"y": -2.1628490451,
				"z": 0.1614535987,
				"element": "H" 
			},
			{
				"x": 2.130011017,
				"y": -0.8421972446,
				"z": -1.5211600008,
				"element": "H" 
			},
			{
				"x": 1.0791944232,
				"y": -0.5304593276,
				"z": -3.4414706776,
				"element": "H" 
			},
			{
				"x": -2.3952534705,
				"y": 0.298537815,
				"z": -5.7771283073,
				"element": "H" 
			},
			{
				"x": -4.2285525566,
				"y": 1.0596954658,
				"z": -4.2569334165,
				"element": "H" 
			},
			{
				"x": -3.7174706833,
				"y": 1.2385829308,
				"z": -1.7947903246,
				"element": "H" 
			},
			{
				"x": -1.441708942,
				"y": 0.6712939433,
				"z": -0.9845519786,
				"element": "H" 
			},
			{
				"x": 0.1547943329,
				"y": -0.1042211866,
				"z": 1.5448465728,
				"element": "H" 
			},
			{
				"x": 0.8366982089,
				"y": 2.4192919413,
				"z": 2.3645520224,
				"element": "H" 
			},
			{
				"x": 2.0709977332,
				"y": 3.5336878141,
				"z": 0.1705413865,
				"element": "H" 
			}
		],
		 "valence_orbital": [ 
			{
				"type": "occ",
				"energy": -0.27725,
				"method": "rhf"
			},
			{
				"type": "occ",
				"energy": -0.26829,
				"method": "rhf"
			},
			{
				"type": "occ",
				"energy": -0.24773,
				"method": "rhf"
			},
			{
				"type": "occ",
				"energy": -0.22403,
				"method": "rhf"
			},
			{
				"type": "occ",
				"energy": -0.19992,
				"method": "rhf"
			},
			{
				"type": "unocc",
				"energy": -0.00732,
				"method": "rhf"
			},
			{
				"type": "unocc",
				"energy": 0.00974,
				"method": "rhf"
			},
			{
				"type": "unocc",
				"energy": 0.01811,
				"method": "rhf"
			},
			{
				"type": "unocc",
				"energy": 0.06485,
				"method": "rhf"
			},
			{
				"type": "unocc",
				"energy": 0.09167,
				"method": "rhf"
			}
		],
		"cosmo_sigma_profile": { 
			"-0.025": 0.0,
			"-0.024": 0.0,
			"-0.023": 0.0,
			"-0.022": 0.0,
			"-0.021": 0.0,
			"-0.02": 0.0,
			"-0.019": 0.0,
			"-0.018": 0.0,
			"-0.017": 0.0,
			"-0.016": 0.0,
			"-0.015": 0.0,
			"-0.014": 0.0,
			"-0.013": 0.0,
			"-0.012": 1.29993444078,
			"-0.011": 0.553908548434,
			"-0.01": 1.39871309778,
			"-0.009": 1.71525265895,
			"-0.008": 2.84695482807,
			"-0.007": 5.0227140808,
			"-0.006": 11.9689790258,
			"-0.005": 13.3799100487,
			"-0.004": 20.6756312381,
			"-0.003": 23.9228797167,
			"-0.002": 17.8976748504,
			"-0.001": 14.3943158552,
			"0.0": 17.2191045525,
			"0.001": 14.4391414351,
			"0.002": 11.8023396955,
			"0.003": 17.20562864,
			"0.004": 19.3853417746,
			"0.005": 14.7935156302,
			"0.006": 7.04141384232,
			"0.007": 3.1089814005,
			"0.008": 2.74979725666,
			"0.009": 3.88278931273,
			"0.01": 2.14681561696,
			"0.011": 1.48309644263,
			"0.012": 1.16191598953,
			"0.013": 0.972552938882,
			"0.014": 0.867631241238,
			"0.015": 0.585143133034,
			"0.016": 0.361088721007,
			"0.017": 0.0,
			"0.018": 0.0,
			"0.019": 0.0,
			"0.02": 0.0,
			"0.021": 0.0,
			"0.022": 0.0,
			"0.023": 0.0,
			"0.024": 0.0,
			"0.025": 0.0
		}
	}
}
