{
	 "smiles": "CC1=C(F)C=C(C=C1N)C#N", 
	 "Tm": 409.15, 
	 "num_atms": 18, 
	 "gaussian": { 
		 "optdone": 1, 
		 "sigma_profile": "yes", 
		 "theory": "DFT", 
		 "functional": "B3LYP", 
		 "basiset": "6-31G**", 
		 "properties": { 
			 "R2extent": 2673.774, 
			 "electric_dipole_moment_norm": 5.76858070152, 
			 "electric_quadrupole_moment_norm": 28.5629008693, 
			 "total_energy": -518.402061724, 
			 "HOMO_LUMO_gap": 0.18069, 
			 "cosmo_polarized_energy": -12.68, 
			 "cosmo_cavitation_energy": 23.41, 
			 "cosmo_dispersion_energy": -16.65, 
			 "cosmo_repulsion_energy": 1.32, 
			 "cosmo_total_nonelectrostatic_energy": 8.07, 
			 "SMD_solvation_energy": 5.89 
		},
		"coords": [
			{
				"x": 0.2606289437,
				"y": -1.0536485352,
				"z": 1.7434107725,
				"element": "C" 
			},
			{
				"x": 0.6674935428,
				"y": -1.0077608537,
				"z": 0.2948168727,
				"element": "C" 
			},
			{
				"x": 1.4933116281,
				"y": 0.0026313749,
				"z": -0.1957500544,
				"element": "C" 
			},
			{
				"x": 1.9374398598,
				"y": 0.9403650852,
				"z": 0.6713118507,
				"element": "F" 
			},
			{
				"x": 1.8895905816,
				"y": 0.1120512383,
				"z": -1.5209857703,
				"element": "C" 
			},
			{
				"x": 1.4249178537,
				"y": -0.8622687698,
				"z": -2.4155299033,
				"element": "C" 
			},
			{
				"x": 0.5976232732,
				"y": -1.9028074207,
				"z": -1.9751906563,
				"element": "C" 
			},
			{
				"x": 0.2156587076,
				"y": -1.9818603647,
				"z": -0.6275450464,
				"element": "C" 
			},
			{
				"x": -0.6520801679,
				"y": -2.9810772553,
				"z": -0.203561007,
				"element": "N" 
			},
			{
				"x": 1.8054631094,
				"y": -0.799138014,
				"z": -3.79728915,
				"element": "C" 
			},
			{
				"x": 2.1131003596,
				"y": -0.7517258884,
				"z": -4.9181159961,
				"element": "N" 
			},
			{
				"x": 0.64483861,
				"y": -0.1869183484,
				"z": 2.2809116287,
				"element": "H" 
			},
			{
				"x": 0.6477920529,
				"y": -1.9515347052,
				"z": 2.2445725729,
				"element": "H" 
			},
			{
				"x": -0.8311568697,
				"y": -1.0671828741,
				"z": 1.8440475599,
				"element": "H" 
			},
			{
				"x": 2.5325717059,
				"y": 0.9232671506,
				"z": -1.8373503152,
				"element": "H" 
			},
			{
				"x": 0.2492425189,
				"y": -2.6475614104,
				"z": -2.6833511292,
				"element": "H" 
			},
			{
				"x": -0.5941744269,
				"y": -3.2458464163,
				"z": 0.7687975783,
				"element": "H" 
			},
			{
				"x": -0.7401612825,
				"y": -3.7762839927,
				"z": -0.8197998075,
				"element": "H" 
			}
		],
		 "valence_orbital": [ 
			{
				"type": "occ",
				"energy": -0.35366,
				"method": "rhf"
			},
			{
				"type": "occ",
				"energy": -0.32856,
				"method": "rhf"
			},
			{
				"type": "occ",
				"energy": -0.31113,
				"method": "rhf"
			},
			{
				"type": "occ",
				"energy": -0.25414,
				"method": "rhf"
			},
			{
				"type": "occ",
				"energy": -0.22664,
				"method": "rhf"
			},
			{
				"type": "unocc",
				"energy": -0.04595,
				"method": "rhf"
			},
			{
				"type": "unocc",
				"energy": -0.00371,
				"method": "rhf"
			},
			{
				"type": "unocc",
				"energy": 0.03996,
				"method": "rhf"
			},
			{
				"type": "unocc",
				"energy": 0.05783,
				"method": "rhf"
			},
			{
				"type": "unocc",
				"energy": 0.08227,
				"method": "rhf"
			}
		],
		"cosmo_sigma_profile": { 
			"-0.025": 0.0,
			"-0.024": 0.0,
			"-0.023": 0.0,
			"-0.022": 0.0,
			"-0.021": 0.0,
			"-0.02": 0.0,
			"-0.019": 0.0,
			"-0.018": 0.0,
			"-0.017": 0.0,
			"-0.016": 0.0,
			"-0.015": 0.0,
			"-0.014": 0.115474681127,
			"-0.013": 1.74679633003,
			"-0.012": 2.66390566416,
			"-0.011": 3.39335568615,
			"-0.01": 3.70919072187,
			"-0.009": 2.94738475773,
			"-0.008": 5.42163425002,
			"-0.007": 5.24662494356,
			"-0.006": 5.44516859137,
			"-0.005": 8.04686663337,
			"-0.004": 8.77123662656,
			"-0.003": 8.67408993799,
			"-0.002": 10.7928591015,
			"-0.001": 15.1434327497,
			"0.0": 19.252220616,
			"0.001": 15.4646209195,
			"0.002": 16.5770292676,
			"0.003": 11.8323492066,
			"0.004": 10.6351564756,
			"0.005": 4.3366516565,
			"0.006": 4.30694501488,
			"0.007": 2.77598344346,
			"0.008": 3.63504432438,
			"0.009": 4.59086249041,
			"0.01": 3.61668533653,
			"0.011": 3.37697105975,
			"0.012": 3.36029399707,
			"0.013": 1.91064592642,
			"0.014": 0.0617163813111,
			"0.015": 0.0,
			"0.016": 0.0,
			"0.017": 0.0,
			"0.018": 0.0,
			"0.019": 0.0,
			"0.02": 0.0,
			"0.021": 0.0,
			"0.022": 0.0,
			"0.023": 0.0,
			"0.024": 0.0,
			"0.025": 0.0
		}
	}
}
