{
	 "smiles": "NC1=C2C=CC=NC2=CC=C1OC1=CC=C(Cl)C=C1", 
	 "Tm": 398.15, 
	 "num_atms": 30, 
	 "gaussian": { 
		 "optdone": 1, 
		 "sigma_profile": "yes", 
		 "theory": "DFT", 
		 "functional": "B3LYP", 
		 "basiset": "6-31G**", 
		 "properties": { 
			 "R2extent": 8444.2384, 
			 "electric_dipole_moment_norm": 2.95608840362, 
			 "electric_quadrupole_moment_norm": 12.1376073445, 
			 "total_energy": -1223.14414369, 
			 "HOMO_LUMO_gap": 0.1521, 
			 "cosmo_polarized_energy": -12.99, 
			 "cosmo_cavitation_energy": 36.3, 
			 "cosmo_dispersion_energy": -26.5, 
			 "cosmo_repulsion_energy": 2.02, 
			 "cosmo_total_nonelectrostatic_energy": 11.82, 
			 "SMD_solvation_energy": 4.23 
		},
		"coords": [
			{
				"x": -1.0559241557,
				"y": -1.3972038989,
				"z": -0.3668822564,
				"element": "N" 
			},
			{
				"x": -0.0728138394,
				"y": -0.679078807,
				"z": -1.0455899606,
				"element": "C" 
			},
			{
				"x": 1.065742668,
				"y": -1.3374459293,
				"z": -1.6150049884,
				"element": "C" 
			},
			{
				"x": 1.2732016506,
				"y": -2.7360291197,
				"z": -1.5214894031,
				"element": "C" 
			},
			{
				"x": 2.4064826565,
				"y": -3.2921080006,
				"z": -2.0694419147,
				"element": "C" 
			},
			{
				"x": 3.3324213115,
				"y": -2.4421228088,
				"z": -2.7205273826,
				"element": "C" 
			},
			{
				"x": 3.1702965786,
				"y": -1.1411744347,
				"z": -2.8565023497,
				"element": "N" 
			},
			{
				"x": 2.0497611636,
				"y": -0.5721959587,
				"z": -2.3237971051,
				"element": "C" 
			},
			{
				"x": 1.8593095925,
				"y": 0.8234790127,
				"z": -2.5023287697,
				"element": "C" 
			},
			{
				"x": 0.7403068829,
				"y": 1.4334535507,
				"z": -1.986156146,
				"element": "C" 
			},
			{
				"x": -0.2038383405,
				"y": 0.6888355555,
				"z": -1.2468035267,
				"element": "C" 
			},
			{
				"x": -1.360538502,
				"y": 1.2906849579,
				"z": -0.7551536837,
				"element": "O" 
			},
			{
				"x": -1.2645026735,
				"y": 2.3440344878,
				"z": 0.1321815824,
				"element": "C" 
			},
			{
				"x": -2.4017035923,
				"y": 3.1488617245,
				"z": 0.2512828461,
				"element": "C" 
			},
			{
				"x": -2.415608035,
				"y": 4.2059508399,
				"z": 1.1570993547,
				"element": "C" 
			},
			{
				"x": -1.2857213276,
				"y": 4.4561715755,
				"z": 1.9373276849,
				"element": "C" 
			},
			{
				"x": -1.2970252859,
				"y": 5.7952362194,
				"z": 3.0777928741,
				"element": "Cl" 
			},
			{
				"x": -0.1491255611,
				"y": 3.6584187215,
				"z": 1.8222913384,
				"element": "C" 
			},
			{
				"x": -0.1366950397,
				"y": 2.5949128347,
				"z": 0.9185500898,
				"element": "C" 
			},
			{
				"x": -0.7126607617,
				"y": -2.1123479916,
				"z": 0.2599062654,
				"element": "H" 
			},
			{
				"x": -1.742840793,
				"y": -0.8005577097,
				"z": 0.0752733355,
				"element": "H" 
			},
			{
				"x": 0.5294609347,
				"y": -3.3672532793,
				"z": -1.0446092689,
				"element": "H" 
			},
			{
				"x": 2.5909327497,
				"y": -4.360459579,
				"z": -2.0192487283,
				"element": "H" 
			},
			{
				"x": 4.2386561175,
				"y": -2.8644738993,
				"z": -3.1538916363,
				"element": "H" 
			},
			{
				"x": 2.607773177,
				"y": 1.3736671453,
				"z": -3.0608447569,
				"element": "H" 
			},
			{
				"x": 0.5691354295,
				"y": 2.4966837805,
				"z": -2.1216897105,
				"element": "H" 
			},
			{
				"x": -3.2644239712,
				"y": 2.9348861528,
				"z": -0.3707048079,
				"element": "H" 
			},
			{
				"x": -3.2938949954,
				"y": 4.8344744499,
				"z": 1.2537512614,
				"element": "H" 
			},
			{
				"x": 0.721320998,
				"y": 3.8612669201,
				"z": 2.4364485073,
				"element": "H" 
			},
			{
				"x": 0.7437149634,
				"y": 1.9692334879,
				"z": 0.8279612555,
				"element": "H" 
			}
		],
		 "valence_orbital": [ 
			{
				"type": "occ",
				"energy": -0.26976,
				"method": "rhf"
			},
			{
				"type": "occ",
				"energy": -0.25458,
				"method": "rhf"
			},
			{
				"type": "occ",
				"energy": -0.25273,
				"method": "rhf"
			},
			{
				"type": "occ",
				"energy": -0.23008,
				"method": "rhf"
			},
			{
				"type": "occ",
				"energy": -0.20369,
				"method": "rhf"
			},
			{
				"type": "unocc",
				"energy": -0.05159,
				"method": "rhf"
			},
			{
				"type": "unocc",
				"energy": -0.02259,
				"method": "rhf"
			},
			{
				"type": "unocc",
				"energy": -0.01651,
				"method": "rhf"
			},
			{
				"type": "unocc",
				"energy": -0.0062,
				"method": "rhf"
			},
			{
				"type": "unocc",
				"energy": 0.02725,
				"method": "rhf"
			}
		],
		"cosmo_sigma_profile": { 
			"-0.025": 0.0,
			"-0.024": 0.0,
			"-0.023": 0.0,
			"-0.022": 0.0,
			"-0.021": 0.0,
			"-0.02": 0.0,
			"-0.019": 0.0,
			"-0.018": 0.0,
			"-0.017": 0.0,
			"-0.016": 0.0,
			"-0.015": 0.0,
			"-0.014": 0.0511798544621,
			"-0.013": 1.13178871965,
			"-0.012": 1.54709515362,
			"-0.011": 2.34103359373,
			"-0.01": 2.44818708484,
			"-0.009": 2.71709087575,
			"-0.008": 3.70859688311,
			"-0.007": 10.8214422434,
			"-0.006": 17.7230802807,
			"-0.005": 16.6131352934,
			"-0.004": 17.4790159157,
			"-0.003": 14.3242702819,
			"-0.002": 16.6225955246,
			"-0.001": 16.2553386947,
			"0.0": 17.5072160368,
			"0.001": 23.508812228,
			"0.002": 35.9528960844,
			"0.003": 36.0491818106,
			"0.004": 22.9249175612,
			"0.005": 13.3624159229,
			"0.006": 4.0977411026,
			"0.007": 2.87092341991,
			"0.008": 3.02900405195,
			"0.009": 2.93401495155,
			"0.01": 1.21450754424,
			"0.011": 1.23291680991,
			"0.012": 1.11933145801,
			"0.013": 2.20269057909,
			"0.014": 0.782102600583,
			"0.015": 0.76659797158,
			"0.016": 0.657449461666,
			"0.017": 0.243877337448,
			"0.018": 0.0,
			"0.019": 0.0,
			"0.02": 0.0,
			"0.021": 0.0,
			"0.022": 0.0,
			"0.023": 0.0,
			"0.024": 0.0,
			"0.025": 0.0
		}
	}
}
