{
	 "smiles": "NC1=CC=C(C=C1)S(=O)(=O)C1=CC=C(NCC(O)=O)C=C1", 
	 "Tm": 467.15, 
	 "num_atms": 35, 
	 "gaussian": { 
		 "optdone": 1, 
		 "sigma_profile": "yes", 
		 "theory": "DFT", 
		 "functional": "B3LYP", 
		 "basiset": "6-31G**", 
		 "properties": { 
			 "R2extent": 10045.6124, 
			 "electric_dipole_moment_norm": 8.64844164633, 
			 "electric_quadrupole_moment_norm": 40.1422253977, 
			 "total_energy": -1350.46344779, 
			 "HOMO_LUMO_gap": 0.18263, 
			 "cosmo_polarized_energy": -31.41, 
			 "cosmo_cavitation_energy": 41.79, 
			 "cosmo_dispersion_energy": -29.67, 
			 "cosmo_repulsion_energy": 2.25, 
			 "cosmo_total_nonelectrostatic_energy": 14.37, 
			 "SMD_solvation_energy": 6.58 
		},
		"coords": [
			{
				"x": -2.2739628358,
				"y": -6.385547898,
				"z": 0.5729220413,
				"element": "N" 
			},
			{
				"x": -2.3724426895,
				"y": -5.0043570519,
				"z": 0.5139982784,
				"element": "C" 
			},
			{
				"x": -2.052333461,
				"y": -4.3125210258,
				"z": -0.6711538724,
				"element": "C" 
			},
			{
				"x": -2.1987900154,
				"y": -2.9336971268,
				"z": -0.7462205992,
				"element": "C" 
			},
			{
				"x": -2.6651971699,
				"y": -2.2208202143,
				"z": 0.3621470367,
				"element": "C" 
			},
			{
				"x": -2.9983840857,
				"y": -2.8929611173,
				"z": 1.5416671205,
				"element": "C" 
			},
			{
				"x": -2.8522946346,
				"y": -4.2718406285,
				"z": 1.6179041051,
				"element": "C" 
			},
			{
				"x": -2.8496127352,
				"y": -0.4424490803,
				"z": 0.2663451159,
				"element": "S" 
			},
			{
				"x": -3.8489324754,
				"y": -0.0540936228,
				"z": 1.2778600932,
				"element": "O" 
			},
			{
				"x": -3.0136039616,
				"y": -0.0977531505,
				"z": -1.157462582,
				"element": "O" 
			},
			{
				"x": -1.2762502717,
				"y": 0.2342451409,
				"z": 0.7937564079,
				"element": "C" 
			},
			{
				"x": -0.2850933677,
				"y": 0.5070856163,
				"z": -0.148755523,
				"element": "C" 
			},
			{
				"x": 0.9371496073,
				"y": 1.0377636559,
				"z": 0.2540526226,
				"element": "C" 
			},
			{
				"x": 1.1879065114,
				"y": 1.2974770875,
				"z": 1.614897084,
				"element": "C" 
			},
			{
				"x": 2.4152673714,
				"y": 1.7646837601,
				"z": 2.0811207229,
				"element": "N" 
			},
			{
				"x": 3.3924749032,
				"y": 2.3585911463,
				"z": 1.205062494,
				"element": "C" 
			},
			{
				"x": 3.0218646308,
				"y": 3.7604724609,
				"z": 0.7170505983,
				"element": "C" 
			},
			{
				"x": 3.7731986941,
				"y": 4.1200001264,
				"z": -0.3480694759,
				"element": "O" 
			},
			{
				"x": 2.1989416105,
				"y": 4.4792704297,
				"z": 1.2324384593,
				"element": "O" 
			},
			{
				"x": 0.167276732,
				"y": 1.0292276093,
				"z": 2.5513416549,
				"element": "C" 
			},
			{
				"x": -1.0514513835,
				"y": 0.5065412771,
				"z": 2.1477044748,
				"element": "C" 
			},
			{
				"x": -2.2184131077,
				"y": -6.7964283499,
				"z": 1.4932121936,
				"element": "H" 
			},
			{
				"x": -1.6619233241,
				"y": -6.8247025899,
				"z": -0.0989316882,
				"element": "H" 
			},
			{
				"x": -1.7007479694,
				"y": -4.868209316,
				"z": -1.5366667091,
				"element": "H" 
			},
			{
				"x": -1.9734811745,
				"y": -2.4059977065,
				"z": -1.6668114723,
				"element": "H" 
			},
			{
				"x": -3.3897253023,
				"y": -2.3337102421,
				"z": 2.3847424001,
				"element": "H" 
			},
			{
				"x": -3.1223228101,
				"y": -4.7958258769,
				"z": 2.531149461,
				"element": "H" 
			},
			{
				"x": -0.4843668434,
				"y": 0.3312161513,
				"z": -1.2004563827,
				"element": "H" 
			},
			{
				"x": 1.6836933817,
				"y": 1.2600958838,
				"z": -0.4999623848,
				"element": "H" 
			},
			{
				"x": 2.3511600565,
				"y": 2.224522622,
				"z": 2.9793467744,
				"element": "H" 
			},
			{
				"x": 4.3447178783,
				"y": 2.4471566239,
				"z": 1.7419158327,
				"element": "H" 
			},
			{
				"x": 3.5955441582,
				"y": 1.7129182362,
				"z": 0.3472799182,
				"element": "H" 
			},
			{
				"x": 3.5163103275,
				"y": 5.0300153297,
				"z": -0.5754043831,
				"element": "H" 
			},
			{
				"x": 0.3421769775,
				"y": 1.2423364672,
				"z": 3.6028991062,
				"element": "H" 
			},
			{
				"x": -1.8408532223,
				"y": 0.3288953731,
				"z": 2.8700810767,
				"element": "H" 
			}
		],
		 "valence_orbital": [ 
			{
				"type": "occ",
				"energy": -0.2693,
				"method": "rhf"
			},
			{
				"type": "occ",
				"energy": -0.26143,
				"method": "rhf"
			},
			{
				"type": "occ",
				"energy": -0.25797,
				"method": "rhf"
			},
			{
				"type": "occ",
				"energy": -0.22539,
				"method": "rhf"
			},
			{
				"type": "occ",
				"energy": -0.20854,
				"method": "rhf"
			},
			{
				"type": "unocc",
				"energy": -0.02591,
				"method": "rhf"
			},
			{
				"type": "unocc",
				"energy": -0.01608,
				"method": "rhf"
			},
			{
				"type": "unocc",
				"energy": -0.00726,
				"method": "rhf"
			},
			{
				"type": "unocc",
				"energy": 0.00075,
				"method": "rhf"
			},
			{
				"type": "unocc",
				"energy": 0.00569,
				"method": "rhf"
			}
		],
		"cosmo_sigma_profile": { 
			"-0.025": 0.0,
			"-0.024": 0.0,
			"-0.023": 0.0,
			"-0.022": 0.0,
			"-0.021": 0.0,
			"-0.02": 0.0,
			"-0.019": 0.305005336985,
			"-0.018": 0.830492072375,
			"-0.017": 1.07742715989,
			"-0.016": 0.786590670396,
			"-0.015": 0.929082178907,
			"-0.014": 0.993153944821,
			"-0.013": 4.42157555654,
			"-0.012": 5.4116321895,
			"-0.011": 5.27432812597,
			"-0.01": 4.95576256365,
			"-0.009": 7.77776105853,
			"-0.008": 10.8460247249,
			"-0.007": 14.1025781337,
			"-0.006": 16.6097622409,
			"-0.005": 18.082749856,
			"-0.004": 19.8948113983,
			"-0.003": 14.2731361022,
			"-0.002": 14.5106121058,
			"-0.001": 12.6602672339,
			"0.0": 13.2078210347,
			"0.001": 15.9701235755,
			"0.002": 17.9286159079,
			"0.003": 25.26287517,
			"0.004": 32.0651861912,
			"0.005": 11.3395601888,
			"0.006": 7.87352939143,
			"0.007": 6.94925232297,
			"0.008": 7.08159182025,
			"0.009": 8.06351212055,
			"0.01": 7.08111004655,
			"0.011": 11.7513653246,
			"0.012": 10.9255573012,
			"0.013": 3.53058658602,
			"0.014": 0.0,
			"0.015": 0.0,
			"0.016": 0.0,
			"0.017": 0.0,
			"0.018": 0.0,
			"0.019": 0.0,
			"0.02": 0.0,
			"0.021": 0.0,
			"0.022": 0.0,
			"0.023": 0.0,
			"0.024": 0.0,
			"0.025": 0.0
		}
	}
}
