{
	 "smiles": "CC(=O)N1CSCC1C(O)=O", 
	 "Tm": 385.15, 
	 "num_atms": 20, 
	 "gaussian": { 
		 "optdone": 1, 
		 "sigma_profile": "yes", 
		 "theory": "DFT", 
		 "functional": "B3LYP", 
		 "basiset": "6-31G**", 
		 "properties": { 
			 "R2extent": 2684.6616, 
			 "electric_dipole_moment_norm": 2.55974143421, 
			 "electric_quadrupole_moment_norm": 15.5192318389, 
			 "total_energy": -912.690316818, 
			 "HOMO_LUMO_gap": 0.22177, 
			 "cosmo_polarized_energy": -16.83, 
			 "cosmo_cavitation_energy": 24.76, 
			 "cosmo_dispersion_energy": -18.33, 
			 "cosmo_repulsion_energy": 1.44, 
			 "cosmo_total_nonelectrostatic_energy": 7.87, 
			 "SMD_solvation_energy": 5.49 
		},
		"coords": [
			{
				"x": -1.288409345,
				"y": 0.9983154677,
				"z": 1.5129877013,
				"element": "C" 
			},
			{
				"x": -1.1394019653,
				"y": 1.1815687337,
				"z": 0.0117143297,
				"element": "C" 
			},
			{
				"x": -2.0881840137,
				"y": 1.4555863408,
				"z": -0.711978588,
				"element": "O" 
			},
			{
				"x": 0.1199921241,
				"y": 1.0168614302,
				"z": -0.5264108845,
				"element": "N" 
			},
			{
				"x": 0.2619891061,
				"y": 1.2009187812,
				"z": -1.9746055713,
				"element": "C" 
			},
			{
				"x": 2.0166564448,
				"y": 0.813828454,
				"z": -2.3753025576,
				"element": "S" 
			},
			{
				"x": 2.2405149973,
				"y": -0.0513568105,
				"z": -0.7719136402,
				"element": "C" 
			},
			{
				"x": 1.3474232223,
				"y": 0.7316740883,
				"z": 0.1965442416,
				"element": "C" 
			},
			{
				"x": 2.0986995501,
				"y": 1.9671732742,
				"z": 0.7260003973,
				"element": "C" 
			},
			{
				"x": 1.3328797341,
				"y": 3.0751153337,
				"z": 0.7640692327,
				"element": "O" 
			},
			{
				"x": 3.2444938447,
				"y": 1.9319655905,
				"z": 1.1135196889,
				"element": "O" 
			},
			{
				"x": -2.33466503,
				"y": 1.1726946821,
				"z": 1.7623652832,
				"element": "H" 
			},
			{
				"x": -1.0145771998,
				"y": -0.0151300541,
				"z": 1.8269569643,
				"element": "H" 
			},
			{
				"x": -0.6629594245,
				"y": 1.7071532146,
				"z": 2.0637064741,
				"element": "H" 
			},
			{
				"x": 0.0518505215,
				"y": 2.2320593068,
				"z": -2.2705534974,
				"element": "H" 
			},
			{
				"x": -0.4325018997,
				"y": 0.5403636769,
				"z": -2.4986668353,
				"element": "H" 
			},
			{
				"x": 1.9158616954,
				"y": -1.0923667489,
				"z": -0.840538422,
				"element": "H" 
			},
			{
				"x": 3.2878994547,
				"y": -0.0040397658,
				"z": -0.4746200719,
				"element": "H" 
			},
			{
				"x": 1.1307054661,
				"y": 0.1155320913,
				"z": 1.0765073088,
				"element": "H" 
			},
			{
				"x": 1.8913327169,
				"y": 3.7812829132,
				"z": 1.1321184462,
				"element": "H" 
			}
		],
		 "valence_orbital": [ 
			{
				"type": "occ",
				"energy": -0.33319,
				"method": "rhf"
			},
			{
				"type": "occ",
				"energy": -0.30649,
				"method": "rhf"
			},
			{
				"type": "occ",
				"energy": -0.25448,
				"method": "rhf"
			},
			{
				"type": "occ",
				"energy": -0.25211,
				"method": "rhf"
			},
			{
				"type": "occ",
				"energy": -0.23611,
				"method": "rhf"
			},
			{
				"type": "unocc",
				"energy": -0.01434,
				"method": "rhf"
			},
			{
				"type": "unocc",
				"energy": 0.01216,
				"method": "rhf"
			},
			{
				"type": "unocc",
				"energy": 0.01817,
				"method": "rhf"
			},
			{
				"type": "unocc",
				"energy": 0.05458,
				"method": "rhf"
			},
			{
				"type": "unocc",
				"energy": 0.07133,
				"method": "rhf"
			}
		],
		"cosmo_sigma_profile": { 
			"-0.025": 0.0,
			"-0.024": 0.0,
			"-0.023": 0.0,
			"-0.022": 0.0,
			"-0.021": 0.0,
			"-0.02": 0.0,
			"-0.019": 0.603438028582,
			"-0.018": 1.16393929516,
			"-0.017": 0.608475631806,
			"-0.016": 0.722042400305,
			"-0.015": 0.753386140661,
			"-0.014": 1.25782036605,
			"-0.013": 0.435117708109,
			"-0.012": 0.663394457212,
			"-0.011": 0.715578883164,
			"-0.01": 1.60088505602,
			"-0.009": 4.95786890811,
			"-0.008": 4.20343165721,
			"-0.007": 7.45218088321,
			"-0.006": 12.1711884192,
			"-0.005": 14.1421819685,
			"-0.004": 15.8227530897,
			"-0.003": 13.3746935676,
			"-0.002": 12.256245298,
			"-0.001": 12.3105817931,
			"0.0": 8.3425916504,
			"0.001": 8.29691656284,
			"0.002": 7.83152953249,
			"0.003": 8.31889441057,
			"0.004": 9.42914030892,
			"0.005": 7.01052186068,
			"0.006": 5.75135761179,
			"0.007": 5.49085984152,
			"0.008": 4.38366092872,
			"0.009": 5.56133419119,
			"0.01": 3.6546328172,
			"0.011": 6.50013176217,
			"0.012": 3.16083145774,
			"0.013": 4.44269413719,
			"0.014": 3.18251999217,
			"0.015": 0.506996022601,
			"0.016": 0.0,
			"0.017": 0.0,
			"0.018": 0.0,
			"0.019": 0.0,
			"0.02": 0.0,
			"0.021": 0.0,
			"0.022": 0.0,
			"0.023": 0.0,
			"0.024": 0.0,
			"0.025": 0.0
		}
	}
}
