{
	 "smiles": "CC(C(O)=O)C1=C(C)N(C)N=C1C", 
	 "Tm": 393.15, 
	 "num_atms": 27, 
	 "gaussian": { 
		 "optdone": 1, 
		 "sigma_profile": "yes", 
		 "theory": "DFT", 
		 "functional": "B3LYP", 
		 "basiset": "6-31G**", 
		 "properties": { 
			 "R2extent": 3385.3551, 
			 "electric_dipole_moment_norm": 3.68481812848, 
			 "electric_quadrupole_moment_norm": 8.7461989887, 
			 "total_energy": -611.361515418, 
			 "HOMO_LUMO_gap": 0.22992, 
			 "cosmo_polarized_energy": -13.54, 
			 "cosmo_cavitation_energy": 29.75, 
			 "cosmo_dispersion_energy": -20.72, 
			 "cosmo_repulsion_energy": 1.67, 
			 "cosmo_total_nonelectrostatic_energy": 10.7, 
			 "SMD_solvation_energy": 5.52 
		},
		"coords": [
			{
				"x": -2.6571917326,
				"y": -0.1530011138,
				"z": 1.3610417723,
				"element": "C" 
			},
			{
				"x": -1.1793296443,
				"y": -0.3607380462,
				"z": 1.7263121915,
				"element": "C" 
			},
			{
				"x": -0.9927363735,
				"y": -0.3644002967,
				"z": 3.2407699878,
				"element": "C" 
			},
			{
				"x": 0.0790252044,
				"y": -1.1060344529,
				"z": 3.6133656023,
				"element": "O" 
			},
			{
				"x": -1.6804693802,
				"y": 0.2271890695,
				"z": 4.0459505796,
				"element": "O" 
			},
			{
				"x": -0.2422879386,
				"y": 0.6596211081,
				"z": 1.1142225941,
				"element": "C" 
			},
			{
				"x": 0.8711851267,
				"y": 0.3896771323,
				"z": 0.3246633887,
				"element": "C" 
			},
			{
				"x": 1.4678514233,
				"y": -0.8962218487,
				"z": -0.1522251587,
				"element": "C" 
			},
			{
				"x": 1.4182114547,
				"y": 1.5982265926,
				"z": 0.0124999532,
				"element": "N" 
			},
			{
				"x": 2.5905614672,
				"y": 1.8638349465,
				"z": -0.7963081094,
				"element": "C" 
			},
			{
				"x": 0.7337734275,
				"y": 2.6351420117,
				"z": 0.5551256966,
				"element": "N" 
			},
			{
				"x": -0.2749215093,
				"y": 2.0811553113,
				"z": 1.2265487128,
				"element": "C" 
			},
			{
				"x": -1.2460558584,
				"y": 2.9603722337,
				"z": 1.959043531,
				"element": "C" 
			},
			{
				"x": -3.2726751882,
				"y": -0.9682176661,
				"z": 1.7542592145,
				"element": "H" 
			},
			{
				"x": -3.038312197,
				"y": 0.7795297932,
				"z": 1.7801044157,
				"element": "H" 
			},
			{
				"x": -2.7722655997,
				"y": -0.123093325,
				"z": 0.2742343288,
				"element": "H" 
			},
			{
				"x": -0.8642946794,
				"y": -1.3507743691,
				"z": 1.3798345274,
				"element": "H" 
			},
			{
				"x": 0.1481101529,
				"y": -1.009895928,
				"z": 4.578341546,
				"element": "H" 
			},
			{
				"x": 1.5220039303,
				"y": -0.9406845323,
				"z": -1.2467126765,
				"element": "H" 
			},
			{
				"x": 2.4848711971,
				"y": -1.0398821251,
				"z": 0.2324064921,
				"element": "H" 
			},
			{
				"x": 0.8709568525,
				"y": -1.7460397214,
				"z": 0.1844603493,
				"element": "H" 
			},
			{
				"x": 3.4776962467,
				"y": 1.3733780823,
				"z": -0.3814419086,
				"element": "H" 
			},
			{
				"x": 2.741733265,
				"y": 2.9426334024,
				"z": -0.7931020213,
				"element": "H" 
			},
			{
				"x": 2.4494478544,
				"y": 1.5229719151,
				"z": -1.8279881468,
				"element": "H" 
			},
			{
				"x": -0.8299503327,
				"y": 3.9669352858,
				"z": 2.0441703471,
				"element": "H" 
			},
			{
				"x": -1.461066361,
				"y": 2.5754577337,
				"z": 2.9596990305,
				"element": "H" 
			},
			{
				"x": -2.2015708077,
				"y": 3.0372588072,
				"z": 1.42642376,
				"element": "H" 
			}
		],
		 "valence_orbital": [ 
			{
				"type": "occ",
				"energy": -0.31475,
				"method": "rhf"
			},
			{
				"type": "occ",
				"energy": -0.2755,
				"method": "rhf"
			},
			{
				"type": "occ",
				"energy": -0.27323,
				"method": "rhf"
			},
			{
				"type": "occ",
				"energy": -0.22772,
				"method": "rhf"
			},
			{
				"type": "occ",
				"energy": -0.22331,
				"method": "rhf"
			},
			{
				"type": "unocc",
				"energy": 0.00661,
				"method": "rhf"
			},
			{
				"type": "unocc",
				"energy": 0.0337,
				"method": "rhf"
			},
			{
				"type": "unocc",
				"energy": 0.07429,
				"method": "rhf"
			},
			{
				"type": "unocc",
				"energy": 0.07877,
				"method": "rhf"
			},
			{
				"type": "unocc",
				"energy": 0.08507,
				"method": "rhf"
			}
		],
		"cosmo_sigma_profile": { 
			"-0.025": 0.0,
			"-0.024": 0.0,
			"-0.023": 0.0,
			"-0.022": 0.0,
			"-0.021": 0.0,
			"-0.02": 0.0,
			"-0.019": 0.0,
			"-0.018": 0.635024678873,
			"-0.017": 0.850230022855,
			"-0.016": 0.785718135716,
			"-0.015": 1.0365040697,
			"-0.014": 0.74736812128,
			"-0.013": 0.46958255639,
			"-0.012": 0.468920607024,
			"-0.011": 0.881857269128,
			"-0.01": 0.894267805455,
			"-0.009": 0.447611465761,
			"-0.008": 0.328000097069,
			"-0.007": 2.44281908245,
			"-0.006": 8.51007088471,
			"-0.005": 16.7984676112,
			"-0.004": 20.2591316796,
			"-0.003": 25.5826008171,
			"-0.002": 22.3754849235,
			"-0.001": 21.1943732676,
			"0.0": 23.4706922877,
			"0.001": 15.6807226799,
			"0.002": 8.0833400738,
			"0.003": 8.04931178084,
			"0.004": 7.93138424969,
			"0.005": 8.87977092258,
			"0.006": 6.03085710864,
			"0.007": 5.10743423779,
			"0.008": 4.60442190138,
			"0.009": 4.77564535735,
			"0.01": 2.92598874043,
			"0.011": 3.87491594855,
			"0.012": 5.58342870694,
			"0.013": 0.851361492622,
			"0.014": 0.720775185378,
			"0.015": 1.28901151878,
			"0.016": 0.721166649657,
			"0.017": 0.0628858916909,
			"0.018": 0.0,
			"0.019": 0.0,
			"0.02": 0.0,
			"0.021": 0.0,
			"0.022": 0.0,
			"0.023": 0.0,
			"0.024": 0.0,
			"0.025": 0.0
		}
	}
}
