{
	 "smiles": "CCOC(=O)C1=CNC(=S)N=C1N", 
	 "Tm": 530.15, 
	 "num_atms": 22, 
	 "gaussian": { 
		 "optdone": 1, 
		 "sigma_profile": "yes", 
		 "theory": "DFT", 
		 "functional": "B3LYP", 
		 "basiset": "6-31G**", 
		 "properties": { 
			 "R2extent": 3824.3916, 
			 "electric_dipole_moment_norm": 7.20933870268, 
			 "electric_quadrupole_moment_norm": 23.2720762492, 
			 "total_energy": -985.092528273, 
			 "HOMO_LUMO_gap": 0.13644, 
			 "cosmo_polarized_energy": -24.82, 
			 "cosmo_cavitation_energy": 28.24, 
			 "cosmo_dispersion_energy": -21.42, 
			 "cosmo_repulsion_energy": 1.67, 
			 "cosmo_total_nonelectrostatic_energy": 8.5, 
			 "SMD_solvation_energy": 3.64 
		},
		"coords": [
			{
				"x": 2.0139964554,
				"y": 3.6117182425,
				"z": -0.6437444976,
				"element": "C" 
			},
			{
				"x": 1.8273120882,
				"y": 2.7157024492,
				"z": -1.8575770621,
				"element": "C" 
			},
			{
				"x": 0.8824327696,
				"y": 1.6452912431,
				"z": -1.5846829449,
				"element": "O" 
			},
			{
				"x": 1.3858965996,
				"y": 0.5281743392,
				"z": -0.9923105983,
				"element": "C" 
			},
			{
				"x": 2.5634698164,
				"y": 0.4070415502,
				"z": -0.7055563463,
				"element": "O" 
			},
			{
				"x": 0.3700446503,
				"y": -0.5112564203,
				"z": -0.7406634956,
				"element": "C" 
			},
			{
				"x": 0.8220214784,
				"y": -1.6675590281,
				"z": -0.1476617865,
				"element": "C" 
			},
			{
				"x": -0.0141330665,
				"y": -2.675971648,
				"z": 0.1243431598,
				"element": "N" 
			},
			{
				"x": -1.3992757885,
				"y": -2.6348701295,
				"z": -0.169651502,
				"element": "C" 
			},
			{
				"x": -2.3124217248,
				"y": -3.9764790344,
				"z": 0.2311092227,
				"element": "S" 
			},
			{
				"x": -1.8606769516,
				"y": -1.5093721265,
				"z": -0.7494521296,
				"element": "N" 
			},
			{
				"x": -1.0541926633,
				"y": -0.4881704354,
				"z": -1.0328657859,
				"element": "C" 
			},
			{
				"x": -1.6313628554,
				"y": 0.580384534,
				"z": -1.6098982571,
				"element": "N" 
			},
			{
				"x": 1.0571463091,
				"y": 4.0206139815,
				"z": -0.3059657859,
				"element": "H" 
			},
			{
				"x": 2.47321071,
				"y": 3.0559468417,
				"z": 0.1769608206,
				"element": "H" 
			},
			{
				"x": 2.6717359458,
				"y": 4.4480203339,
				"z": -0.9022476121,
				"element": "H" 
			},
			{
				"x": 2.7722312327,
				"y": 2.268811301,
				"z": -2.1718924912,
				"element": "H" 
			},
			{
				"x": 1.3831337095,
				"y": 3.2568829184,
				"z": -2.696120696,
				"element": "H" 
			},
			{
				"x": 1.8689370213,
				"y": -1.7832494312,
				"z": 0.1105183461,
				"element": "H" 
			},
			{
				"x": 0.3118511248,
				"y": -3.5302081361,
				"z": 0.5601430513,
				"element": "H" 
			},
			{
				"x": -1.0833018548,
				"y": 1.389938079,
				"z": -1.85322833,
				"element": "H" 
			},
			{
				"x": -2.6231550064,
				"y": 0.5280105759,
				"z": -1.7853552796,
				"element": "H" 
			}
		],
		 "valence_orbital": [ 
			{
				"type": "occ",
				"energy": -0.30241,
				"method": "rhf"
			},
			{
				"type": "occ",
				"energy": -0.27312,
				"method": "rhf"
			},
			{
				"type": "occ",
				"energy": -0.26625,
				"method": "rhf"
			},
			{
				"type": "occ",
				"energy": -0.20884,
				"method": "rhf"
			},
			{
				"type": "occ",
				"energy": -0.2007,
				"method": "rhf"
			},
			{
				"type": "unocc",
				"energy": -0.06426,
				"method": "rhf"
			},
			{
				"type": "unocc",
				"energy": -0.04299,
				"method": "rhf"
			},
			{
				"type": "unocc",
				"energy": 0.02575,
				"method": "rhf"
			},
			{
				"type": "unocc",
				"energy": 0.0606,
				"method": "rhf"
			},
			{
				"type": "unocc",
				"energy": 0.08045,
				"method": "rhf"
			}
		],
		"cosmo_sigma_profile": { 
			"-0.025": 0.0,
			"-0.024": 0.0,
			"-0.023": 0.0,
			"-0.022": 0.0,
			"-0.021": 0.0,
			"-0.02": 0.0,
			"-0.019": 0.0,
			"-0.018": 0.152129481654,
			"-0.017": 1.42050453298,
			"-0.016": 1.319038229,
			"-0.015": 1.73561642296,
			"-0.014": 2.16076985912,
			"-0.013": 1.74791482137,
			"-0.012": 3.98810688499,
			"-0.011": 4.21950225872,
			"-0.01": 2.99950646975,
			"-0.009": 3.0593360139,
			"-0.008": 2.98820776454,
			"-0.007": 3.24285946855,
			"-0.006": 5.93081637988,
			"-0.005": 11.6938055722,
			"-0.004": 19.0794726507,
			"-0.003": 25.6760828908,
			"-0.002": 22.2194546117,
			"-0.001": 14.068917513,
			"0.0": 15.636491828,
			"0.001": 8.63251888799,
			"0.002": 5.50690634306,
			"0.003": 4.68772400603,
			"0.004": 5.31274433763,
			"0.005": 4.65119669399,
			"0.006": 5.51438536739,
			"0.007": 4.92499343941,
			"0.008": 5.5358080214,
			"0.009": 7.41591489497,
			"0.01": 9.65047651351,
			"0.011": 9.36434262465,
			"0.012": 5.44241607541,
			"0.013": 2.40179108081,
			"0.014": 3.06938804265,
			"0.015": 1.66844891478,
			"0.016": 0.618710990504,
			"0.017": 0.0,
			"0.018": 0.0,
			"0.019": 0.0,
			"0.02": 0.0,
			"0.021": 0.0,
			"0.022": 0.0,
			"0.023": 0.0,
			"0.024": 0.0,
			"0.025": 0.0
		}
	}
}
