{
	 "smiles": "OC(=O)C1=COCCC1", 
	 "Tm": 345.15, 
	 "num_atms": 17, 
	 "gaussian": { 
		 "optdone": 1, 
		 "sigma_profile": "yes", 
		 "theory": "DFT", 
		 "functional": "B3LYP", 
		 "basiset": "6-31G**", 
		 "properties": { 
			 "R2extent": 1528.3981, 
			 "electric_dipole_moment_norm": 2.10358510168, 
			 "electric_quadrupole_moment_norm": 12.1068943181, 
			 "total_energy": -459.130943048, 
			 "HOMO_LUMO_gap": 0.20944, 
			 "cosmo_polarized_energy": -9.78, 
			 "cosmo_cavitation_energy": 20.25, 
			 "cosmo_dispersion_energy": -15.47, 
			 "cosmo_repulsion_energy": 1.28, 
			 "cosmo_total_nonelectrostatic_energy": 6.06, 
			 "SMD_solvation_energy": 5.09 
		},
		"coords": [
			{
				"x": 1.7300486819,
				"y": 1.4521814635,
				"z": 2.550469903,
				"element": "O" 
			},
			{
				"x": 0.6338917957,
				"y": 0.6439599214,
				"z": 2.6383387603,
				"element": "C" 
			},
			{
				"x": 0.1621087337,
				"y": 0.329048018,
				"z": 3.7175091611,
				"element": "O" 
			},
			{
				"x": 0.0990058454,
				"y": 0.2120026243,
				"z": 1.3436763489,
				"element": "C" 
			},
			{
				"x": 0.7137224574,
				"y": 0.5568492671,
				"z": 0.1904421138,
				"element": "C" 
			},
			{
				"x": 0.2972717144,
				"y": 0.2342818065,
				"z": -1.0478138645,
				"element": "O" 
			},
			{
				"x": -1.0047663785,
				"y": -0.3828008582,
				"z": -1.1422434479,
				"element": "C" 
			},
			{
				"x": -1.2484638069,
				"y": -1.3783309088,
				"z": -0.0134738684,
				"element": "C" 
			},
			{
				"x": -1.1240160837,
				"y": -0.6746532442,
				"z": 1.3448693981,
				"element": "C" 
			},
			{
				"x": 1.9750801576,
				"y": 1.6478862044,
				"z": 3.4690464596,
				"element": "H" 
			},
			{
				"x": 1.6316141702,
				"y": 1.1339070458,
				"z": 0.16696587,
				"element": "H" 
			},
			{
				"x": -1.0247841369,
				"y": -0.8548864923,
				"z": -2.1268784439,
				"element": "H" 
			},
			{
				"x": -1.7562038948,
				"y": 0.4176316919,
				"z": -1.1225710206,
				"element": "H" 
			},
			{
				"x": -2.2383616876,
				"y": -1.8295999375,
				"z": -0.1393275543,
				"element": "H" 
			},
			{
				"x": -0.5103836,
				"y": -2.1854985823,
				"z": -0.0880487316,
				"element": "H" 
			},
			{
				"x": -1.0425780158,
				"y": -1.4012117252,
				"z": 2.1590575671,
				"element": "H" 
			},
			{
				"x": -2.0261859521,
				"y": -0.0857662946,
				"z": 1.5579813492,
				"element": "H" 
			}
		],
		 "valence_orbital": [ 
			{
				"type": "occ",
				"energy": -0.33937,
				"method": "rhf"
			},
			{
				"type": "occ",
				"energy": -0.32379,
				"method": "rhf"
			},
			{
				"type": "occ",
				"energy": -0.3061,
				"method": "rhf"
			},
			{
				"type": "occ",
				"energy": -0.26563,
				"method": "rhf"
			},
			{
				"type": "occ",
				"energy": -0.23315,
				"method": "rhf"
			},
			{
				"type": "unocc",
				"energy": -0.02371,
				"method": "rhf"
			},
			{
				"type": "unocc",
				"energy": 0.08146,
				"method": "rhf"
			},
			{
				"type": "unocc",
				"energy": 0.08727,
				"method": "rhf"
			},
			{
				"type": "unocc",
				"energy": 0.09263,
				"method": "rhf"
			},
			{
				"type": "unocc",
				"energy": 0.11921,
				"method": "rhf"
			}
		],
		"cosmo_sigma_profile": { 
			"-0.025": 0.0,
			"-0.024": 0.0,
			"-0.023": 0.0,
			"-0.022": 0.0,
			"-0.021": 0.0,
			"-0.02": 0.0,
			"-0.019": 0.0,
			"-0.018": 0.042924151125,
			"-0.017": 1.11698677906,
			"-0.016": 0.698340109748,
			"-0.015": 0.791979394212,
			"-0.014": 0.855610276577,
			"-0.013": 0.202254544148,
			"-0.012": 0.860170856289,
			"-0.011": 0.421802238559,
			"-0.01": 1.01269989529,
			"-0.009": 0.733413879515,
			"-0.008": 1.34859957534,
			"-0.007": 1.89693640097,
			"-0.006": 5.06171320999,
			"-0.005": 10.3486171493,
			"-0.004": 17.3968220066,
			"-0.003": 16.2586779,
			"-0.002": 12.6130031539,
			"-0.001": 14.3280539432,
			"0.0": 11.9691148535,
			"0.001": 10.1814274143,
			"0.002": 8.37268602938,
			"0.003": 5.13974792732,
			"0.004": 5.03683568516,
			"0.005": 3.74318832438,
			"0.006": 3.79000764044,
			"0.007": 4.27757679167,
			"0.008": 4.27285941274,
			"0.009": 3.45843172396,
			"0.01": 2.31770297877,
			"0.011": 2.13956509637,
			"0.012": 4.1300552591,
			"0.013": 4.29715868899,
			"0.014": 0.107010068119,
			"0.015": 0.0,
			"0.016": 0.0,
			"0.017": 0.0,
			"0.018": 0.0,
			"0.019": 0.0,
			"0.02": 0.0,
			"0.021": 0.0,
			"0.022": 0.0,
			"0.023": 0.0,
			"0.024": 0.0,
			"0.025": 0.0
		}
	}
}
