{
	 "smiles": "COC1=CC=C(C=C1)C1=CC=C(CN)S1", 
	 "Tm": 388.15, 
	 "num_atms": 28, 
	 "gaussian": { 
		 "optdone": 1, 
		 "sigma_profile": "yes", 
		 "theory": "DFT", 
		 "functional": "B3LYP", 
		 "basiset": "6-31G**", 
		 "properties": { 
			 "R2extent": 5555.4675, 
			 "electric_dipole_moment_norm": 2.16433380512, 
			 "electric_quadrupole_moment_norm": 19.0557254525, 
			 "total_energy": -993.252050516, 
			 "HOMO_LUMO_gap": 0.16501, 
			 "cosmo_polarized_energy": -10.83, 
			 "cosmo_cavitation_energy": 33.23, 
			 "cosmo_dispersion_energy": -24.67, 
			 "cosmo_repulsion_energy": 1.89, 
			 "cosmo_total_nonelectrostatic_energy": 10.45, 
			 "SMD_solvation_energy": 4.47 
		},
		"coords": [
			{
				"x": 1.1780136144,
				"y": 4.1244370423,
				"z": -3.8507528824,
				"element": "C" 
			},
			{
				"x": 1.0752649921,
				"y": 2.7114639045,
				"z": -3.9272368019,
				"element": "O" 
			},
			{
				"x": 0.688470494,
				"y": 2.0310612765,
				"z": -2.8101542313,
				"element": "C" 
			},
			{
				"x": 0.5903526988,
				"y": 0.6373656851,
				"z": -2.9465656554,
				"element": "C" 
			},
			{
				"x": 0.1985619486,
				"y": -0.1453487319,
				"z": -1.8720322519,
				"element": "C" 
			},
			{
				"x": -0.096686076,
				"y": 0.4264233606,
				"z": -0.6166373962,
				"element": "C" 
			},
			{
				"x": 0.0079689661,
				"y": 1.8202677199,
				"z": -0.5002018371,
				"element": "C" 
			},
			{
				"x": 0.3897873358,
				"y": 2.6216107618,
				"z": -1.5769866416,
				"element": "C" 
			},
			{
				"x": -0.4904766009,
				"y": -0.4220361556,
				"z": 0.513610095,
				"element": "C" 
			},
			{
				"x": -0.1814396702,
				"y": -1.7423151123,
				"z": 0.7465573409,
				"element": "C" 
			},
			{
				"x": -0.7412720588,
				"y": -2.2593453817,
				"z": 1.9507248025,
				"element": "C" 
			},
			{
				"x": -1.4855261957,
				"y": -1.3475801494,
				"z": 2.6533690454,
				"element": "C" 
			},
			{
				"x": -2.1626067973,
				"y": -1.5218004272,
				"z": 3.9904107116,
				"element": "C" 
			},
			{
				"x": -1.5086803506,
				"y": -0.8887142842,
				"z": 5.1457283538,
				"element": "N" 
			},
			{
				"x": -1.5113380333,
				"y": 0.1853112838,
				"z": 1.8080114001,
				"element": "S" 
			},
			{
				"x": 0.2147970517,
				"y": 4.5878062366,
				"z": -3.6009081685,
				"element": "H" 
			},
			{
				"x": 1.4902902741,
				"y": 4.4582490415,
				"z": -4.8414259485,
				"element": "H" 
			},
			{
				"x": 1.9276734473,
				"y": 4.4369958081,
				"z": -3.1123005819,
				"element": "H" 
			},
			{
				"x": 0.8127762179,
				"y": 0.1949265809,
				"z": -3.9121239824,
				"element": "H" 
			},
			{
				"x": 0.0980631731,
				"y": -1.2177808663,
				"z": -2.006928126,
				"element": "H" 
			},
			{
				"x": -0.1950658501,
				"y": 2.294523715,
				"z": 0.4558084101,
				"element": "H" 
			},
			{
				"x": 0.4598437187,
				"y": 3.6939814603,
				"z": -1.4388779466,
				"element": "H" 
			},
			{
				"x": 0.4550811714,
				"y": -2.3206149061,
				"z": 0.0862099601,
				"element": "H" 
			},
			{
				"x": -0.5906953417,
				"y": -3.2781070103,
				"z": 2.2940145509,
				"element": "H" 
			},
			{
				"x": -2.2322290708,
				"y": -2.5977657216,
				"z": 4.1875945991,
				"element": "H" 
			},
			{
				"x": -3.192559948,
				"y": -1.1484212411,
				"z": 3.9497944453,
				"element": "H" 
			},
			{
				"x": -1.4950898907,
				"y": 0.121036792,
				"z": 5.0179184571,
				"element": "H" 
			},
			{
				"x": -0.5323792199,
				"y": -1.1763306809,
				"z": 5.1734802798,
				"element": "H" 
			}
		],
		 "valence_orbital": [ 
			{
				"type": "occ",
				"energy": -0.2566,
				"method": "rhf"
			},
			{
				"type": "occ",
				"energy": -0.25269,
				"method": "rhf"
			},
			{
				"type": "occ",
				"energy": -0.24748,
				"method": "rhf"
			},
			{
				"type": "occ",
				"energy": -0.23757,
				"method": "rhf"
			},
			{
				"type": "occ",
				"energy": -0.19539,
				"method": "rhf"
			},
			{
				"type": "unocc",
				"energy": -0.03038,
				"method": "rhf"
			},
			{
				"type": "unocc",
				"energy": -0.00511,
				"method": "rhf"
			},
			{
				"type": "unocc",
				"energy": 0.02385,
				"method": "rhf"
			},
			{
				"type": "unocc",
				"energy": 0.03694,
				"method": "rhf"
			},
			{
				"type": "unocc",
				"energy": 0.07671,
				"method": "rhf"
			}
		],
		"cosmo_sigma_profile": { 
			"-0.025": 0.0,
			"-0.024": 0.0,
			"-0.023": 0.0,
			"-0.022": 0.0,
			"-0.021": 0.0,
			"-0.02": 0.0,
			"-0.019": 0.0,
			"-0.018": 0.0,
			"-0.017": 0.0,
			"-0.016": 0.0,
			"-0.015": 0.0,
			"-0.014": 0.0,
			"-0.013": 0.0,
			"-0.012": 0.0,
			"-0.011": 0.0,
			"-0.01": 0.576350555522,
			"-0.009": 2.2385917877,
			"-0.008": 2.84851417532,
			"-0.007": 4.51519139666,
			"-0.006": 16.5568808431,
			"-0.005": 26.5874081114,
			"-0.004": 26.100456546,
			"-0.003": 23.1338871721,
			"-0.002": 16.1487175912,
			"-0.001": 16.0187100035,
			"0.0": 13.0981847144,
			"0.001": 12.9593834824,
			"0.002": 14.7633436531,
			"0.003": 20.3410320014,
			"0.004": 23.4329785407,
			"0.005": 24.3697035501,
			"0.006": 7.4739684837,
			"0.007": 1.68753025159,
			"0.008": 2.49702087296,
			"0.009": 1.93645083178,
			"0.01": 2.00152970465,
			"0.011": 1.10669430523,
			"0.012": 0.859149040617,
			"0.013": 0.763756917926,
			"0.014": 0.691646586921,
			"0.015": 0.392667899218,
			"0.016": 0.679607209673,
			"0.017": 0.515974436819,
			"0.018": 0.846030844692,
			"0.019": 0.47621635821,
			"0.02": 0.214258087449,
			"0.021": 0.0,
			"0.022": 0.0,
			"0.023": 0.0,
			"0.024": 0.0,
			"0.025": 0.0
		}
	}
}
