{
	 "smiles": "ClC1=C(C=CC(Br)=C1)S(Cl)(=O)=O", 
	 "Tm": 352.15, 
	 "num_atms": 15, 
	 "gaussian": { 
		 "optdone": 1, 
		 "sigma_profile": "yes", 
		 "theory": "DFT", 
		 "functional": "B3LYP", 
		 "basiset": "6-31G**", 
		 "properties": { 
			 "R2extent": 4952.4431, 
			 "electric_dipole_moment_norm": 4.27888433239, 
			 "electric_quadrupole_moment_norm": 11.5802671027, 
			 "total_energy": -4270.78727084, 
			 "HOMO_LUMO_gap": 0.18385, 
			 "cosmo_polarized_energy": -8.48, 
			 "cosmo_cavitation_energy": 27.1, 
			 "cosmo_dispersion_energy": -20.99, 
			 "cosmo_repulsion_energy": 1.62, 
			 "cosmo_total_nonelectrostatic_energy": 7.73, 
			 "SMD_solvation_energy": 2.03 
		},
		"coords": [
			{
				"x": 1.1557857852,
				"y": -0.3680759959,
				"z": -2.2893225551,
				"element": "Cl" 
			},
			{
				"x": 0.017339865,
				"y": -0.0942339244,
				"z": -1.0034041177,
				"element": "C" 
			},
			{
				"x": -0.3212070018,
				"y": 1.18822506,
				"z": -0.5415690381,
				"element": "C" 
			},
			{
				"x": -1.2251981518,
				"y": 1.3400117874,
				"z": 0.5149841823,
				"element": "C" 
			},
			{
				"x": -1.8058538787,
				"y": 0.2260203282,
				"z": 1.1120294469,
				"element": "C" 
			},
			{
				"x": -1.4673860786,
				"y": -1.0426898814,
				"z": 0.643100487,
				"element": "C" 
			},
			{
				"x": -2.2475772758,
				"y": -2.578709055,
				"z": 1.4446085368,
				"element": "Br" 
			},
			{
				"x": -0.5628874533,
				"y": -1.2130959066,
				"z": -0.4035830072,
				"element": "C" 
			},
			{
				"x": 0.3045671449,
				"y": 2.7149682516,
				"z": -1.2588127003,
				"element": "S" 
			},
			{
				"x": 2.3292664138,
				"y": 2.680813067,
				"z": -0.6272885327,
				"element": "Cl" 
			},
			{
				"x": 0.3053835004,
				"y": 2.6376881998,
				"z": -2.7110796443,
				"element": "O" 
			},
			{
				"x": -0.3206023077,
				"y": 3.8253630082,
				"z": -0.5511033372,
				"element": "O" 
			},
			{
				"x": -1.4690060078,
				"y": 2.3384615402,
				"z": 0.8582578547,
				"element": "H" 
			},
			{
				"x": -2.5089068619,
				"y": 0.3428305624,
				"z": 1.9277256274,
				"element": "H" 
			},
			{
				"x": -0.3038176921,
				"y": -2.2033770414,
				"z": -0.7563432025,
				"element": "H" 
			}
		],
		 "valence_orbital": [ 
			{
				"type": "occ",
				"energy": -0.33082,
				"method": "rhf"
			},
			{
				"type": "occ",
				"energy": -0.32041,
				"method": "rhf"
			},
			{
				"type": "occ",
				"energy": -0.31734,
				"method": "rhf"
			},
			{
				"type": "occ",
				"energy": -0.29147,
				"method": "rhf"
			},
			{
				"type": "occ",
				"energy": -0.28203,
				"method": "rhf"
			},
			{
				"type": "unocc",
				"energy": -0.09818,
				"method": "rhf"
			},
			{
				"type": "unocc",
				"energy": -0.06408,
				"method": "rhf"
			},
			{
				"type": "unocc",
				"energy": -0.05702,
				"method": "rhf"
			},
			{
				"type": "unocc",
				"energy": -0.03048,
				"method": "rhf"
			},
			{
				"type": "unocc",
				"energy": 0.01093,
				"method": "rhf"
			}
		],
		"cosmo_sigma_profile": { 
			"-0.025": 0.0,
			"-0.024": 0.0,
			"-0.023": 0.0,
			"-0.022": 0.0,
			"-0.021": 0.0,
			"-0.02": 0.0,
			"-0.019": 0.0,
			"-0.018": 0.0,
			"-0.017": 0.0,
			"-0.016": 0.0,
			"-0.015": 0.0,
			"-0.014": 0.0,
			"-0.013": 0.0,
			"-0.012": 0.0,
			"-0.011": 0.0,
			"-0.01": 0.656489508926,
			"-0.009": 5.02312274531,
			"-0.008": 5.18129239283,
			"-0.007": 4.74089627002,
			"-0.006": 6.13027508918,
			"-0.005": 9.08573871243,
			"-0.004": 10.2046878467,
			"-0.003": 13.9016556037,
			"-0.002": 26.3823747663,
			"-0.001": 25.4794472689,
			"0.0": 16.9830032661,
			"0.001": 16.7718809939,
			"0.002": 24.4300923511,
			"0.003": 28.7673214983,
			"0.004": 5.35267719796,
			"0.005": 4.31724392422,
			"0.006": 4.52185233159,
			"0.007": 7.85851492251,
			"0.008": 9.35605658074,
			"0.009": 1.77942578018,
			"0.01": 0.0,
			"0.011": 0.0,
			"0.012": 0.0,
			"0.013": 0.0,
			"0.014": 0.0,
			"0.015": 0.0,
			"0.016": 0.0,
			"0.017": 0.0,
			"0.018": 0.0,
			"0.019": 0.0,
			"0.02": 0.0,
			"0.021": 0.0,
			"0.022": 0.0,
			"0.023": 0.0,
			"0.024": 0.0,
			"0.025": 0.0
		}
	}
}
