{
	 "smiles": "CCC(=O)N(C1=CC=CC=C1)C1(COC)CCN(CCC2=CC=CS2)CC1", 
	 "Tm": 370.15, 
	 "num_atms": 57, 
	 "gaussian": { 
		 "optdone": 1, 
		 "sigma_profile": "yes", 
		 "theory": "DFT", 
		 "functional": "B3LYP", 
		 "basiset": "6-31G**", 
		 "properties": { 
			 "R2extent": 10157.376, 
			 "electric_dipole_moment_norm": 4.08538896679, 
			 "electric_quadrupole_moment_norm": 10.6681267686, 
			 "total_energy": -1514.52552834, 
			 "HOMO_LUMO_gap": 0.19291, 
			 "cosmo_polarized_energy": -16.77, 
			 "cosmo_cavitation_energy": 55.72, 
			 "cosmo_dispersion_energy": -34.91, 
			 "cosmo_repulsion_energy": 2.6, 
			 "cosmo_total_nonelectrostatic_energy": 23.42, 
			 "SMD_solvation_energy": 8.64 
		},
		"coords": [
			{
				"x": 1.6409588456,
				"y": 1.5581124298,
				"z": -2.9329287571,
				"element": "C" 
			},
			{
				"x": 1.3433004185,
				"y": 1.1762485179,
				"z": -1.483681591,
				"element": "C" 
			},
			{
				"x": -0.1640148861,
				"y": 1.1920717674,
				"z": -1.1898908425,
				"element": "C" 
			},
			{
				"x": -0.9439661018,
				"y": 1.5558634492,
				"z": -2.0620049817,
				"element": "O" 
			},
			{
				"x": -0.5547452159,
				"y": 0.7438243107,
				"z": 0.0680882367,
				"element": "N" 
			},
			{
				"x": 0.4718809604,
				"y": 0.5301946079,
				"z": 1.0583345776,
				"element": "C" 
			},
			{
				"x": 1.0034706753,
				"y": -0.7504580055,
				"z": 1.2527198596,
				"element": "C" 
			},
			{
				"x": 2.0066285392,
				"y": -0.9533147527,
				"z": 2.2015771519,
				"element": "C" 
			},
			{
				"x": 2.4844291624,
				"y": 0.116452782,
				"z": 2.9621482571,
				"element": "C" 
			},
			{
				"x": 1.9574756372,
				"y": 1.3949062863,
				"z": 2.7682247666,
				"element": "C" 
			},
			{
				"x": 0.9554130352,
				"y": 1.603154061,
				"z": 1.8184845137,
				"element": "C" 
			},
			{
				"x": -1.9829964112,
				"y": 0.7576383206,
				"z": 0.5514487291,
				"element": "C" 
			},
			{
				"x": -2.2483665679,
				"y": 2.0745878338,
				"z": 1.3148714497,
				"element": "C" 
			},
			{
				"x": -1.8264391598,
				"y": 3.1855395545,
				"z": 0.5549183358,
				"element": "O" 
			},
			{
				"x": -2.1855159616,
				"y": 4.4191673621,
				"z": 1.1399250512,
				"element": "C" 
			},
			{
				"x": -3.0151776016,
				"y": 0.5735562531,
				"z": -0.5795215113,
				"element": "C" 
			},
			{
				"x": -2.8445582722,
				"y": -0.7515620861,
				"z": -1.3367286515,
				"element": "C" 
			},
			{
				"x": -2.3024336981,
				"y": -1.8221875011,
				"z": -0.4792176196,
				"element": "N" 
			},
			{
				"x": -2.5488290893,
				"y": -3.1227985183,
				"z": -1.0877396549,
				"element": "C" 
			},
			{
				"x": -1.7644777651,
				"y": -4.2989555306,
				"z": -0.479473795,
				"element": "C" 
			},
			{
				"x": -0.2652460173,
				"y": -4.1936023218,
				"z": -0.530292968,
				"element": "C" 
			},
			{
				"x": 0.6303147496,
				"y": -4.4537288238,
				"z": 0.4750796281,
				"element": "C" 
			},
			{
				"x": 1.9983365856,
				"y": -4.3310120084,
				"z": 0.0756034131,
				"element": "C" 
			},
			{
				"x": 2.1326153136,
				"y": -3.9747350296,
				"z": -1.2364415596,
				"element": "C" 
			},
			{
				"x": 0.5862467957,
				"y": -3.7874704575,
				"z": -2.0036143857,
				"element": "S" 
			},
			{
				"x": -2.806768223,
				"y": -1.6908985011,
				"z": 0.883247132,
				"element": "C" 
			},
			{
				"x": -2.2583365026,
				"y": -0.408457339,
				"z": 1.5501484102,
				"element": "C" 
			},
			{
				"x": 1.2524761053,
				"y": 2.5526306936,
				"z": -3.1642363444,
				"element": "H" 
			},
			{
				"x": 1.1711289612,
				"y": 0.8584292299,
				"z": -3.6288992172,
				"element": "H" 
			},
			{
				"x": 2.721300604,
				"y": 1.5530182887,
				"z": -3.1105896509,
				"element": "H" 
			},
			{
				"x": 1.7459541129,
				"y": 0.1835927736,
				"z": -1.2538062731,
				"element": "H" 
			},
			{
				"x": 1.8510285092,
				"y": 1.862033139,
				"z": -0.7958587173,
				"element": "H" 
			},
			{
				"x": 0.6195494998,
				"y": -1.5746504116,
				"z": 0.6600981016,
				"element": "H" 
			},
			{
				"x": 2.4155330976,
				"y": -1.949808999,
				"z": 2.3406612996,
				"element": "H" 
			},
			{
				"x": 3.2659797332,
				"y": -0.0442707977,
				"z": 3.6993394621,
				"element": "H" 
			},
			{
				"x": 2.3300362012,
				"y": 2.2325450968,
				"z": 3.3512408046,
				"element": "H" 
			},
			{
				"x": 0.5508146257,
				"y": 2.5942689867,
				"z": 1.6387451563,
				"element": "H" 
			},
			{
				"x": -1.7265075112,
				"y": 2.0559703169,
				"z": 2.2868561478,
				"element": "H" 
			},
			{
				"x": -3.3279899793,
				"y": 2.1398890399,
				"z": 1.5301474792,
				"element": "H" 
			},
			{
				"x": -3.2779784502,
				"y": 4.5250171728,
				"z": 1.2316880715,
				"element": "H" 
			},
			{
				"x": -1.8080074451,
				"y": 5.2094027977,
				"z": 0.4868341011,
				"element": "H" 
			},
			{
				"x": -1.7449333216,
				"y": 4.543622345,
				"z": 2.1424793189,
				"element": "H" 
			},
			{
				"x": -2.9935413225,
				"y": 1.4043014941,
				"z": -1.278851529,
				"element": "H" 
			},
			{
				"x": -3.991045629,
				"y": 0.5787186985,
				"z": -0.0764974867,
				"element": "H" 
			},
			{
				"x": -2.1693137812,
				"y": -0.6109011887,
				"z": -2.1848786267,
				"element": "H" 
			},
			{
				"x": -3.8331244764,
				"y": -1.0404188109,
				"z": -1.7445831369,
				"element": "H" 
			},
			{
				"x": -2.2788979465,
				"y": -3.0375377731,
				"z": -2.14768802,
				"element": "H" 
			},
			{
				"x": -3.626875196,
				"y": -3.3858589209,
				"z": -1.0700210395,
				"element": "H" 
			},
			{
				"x": -2.0515801075,
				"y": -4.4551999888,
				"z": 0.5662467248,
				"element": "H" 
			},
			{
				"x": -2.089801525,
				"y": -5.203615234,
				"z": -1.0121742125,
				"element": "H" 
			},
			{
				"x": 0.3174382797,
				"y": -4.7353144351,
				"z": 1.4752950722,
				"element": "H" 
			},
			{
				"x": 2.8402597131,
				"y": -4.5020838724,
				"z": 0.7373274429,
				"element": "H" 
			},
			{
				"x": 3.0394683782,
				"y": -3.8028913981,
				"z": -1.7993610675,
				"element": "H" 
			},
			{
				"x": -2.488255611,
				"y": -2.5558312181,
				"z": 1.4718604911,
				"element": "H" 
			},
			{
				"x": -3.9159408184,
				"y": -1.6943930591,
				"z": 0.9068951783,
				"element": "H" 
			},
			{
				"x": -1.3588764689,
				"y": -0.6370076747,
				"z": 2.1215885815,
				"element": "H" 
			},
			{
				"x": -3.0006974762,
				"y": -0.0578929518,
				"z": 2.2777586937,
				"element": "H" 
			}
		],
		 "valence_orbital": [ 
			{
				"type": "occ",
				"energy": -0.24651,
				"method": "rhf"
			},
			{
				"type": "occ",
				"energy": -0.2328,
				"method": "rhf"
			},
			{
				"type": "occ",
				"energy": -0.22398,
				"method": "rhf"
			},
			{
				"type": "occ",
				"energy": -0.22136,
				"method": "rhf"
			},
			{
				"type": "occ",
				"energy": -0.20142,
				"method": "rhf"
			},
			{
				"type": "unocc",
				"energy": -0.00851,
				"method": "rhf"
			},
			{
				"type": "unocc",
				"energy": -0.00814,
				"method": "rhf"
			},
			{
				"type": "unocc",
				"energy": -0.00542,
				"method": "rhf"
			},
			{
				"type": "unocc",
				"energy": 0.03541,
				"method": "rhf"
			},
			{
				"type": "unocc",
				"energy": 0.04439,
				"method": "rhf"
			}
		],
		"cosmo_sigma_profile": { 
			"-0.025": 0.0,
			"-0.024": 0.0,
			"-0.023": 0.0,
			"-0.022": 0.0,
			"-0.021": 0.0,
			"-0.02": 0.0,
			"-0.019": 0.0,
			"-0.018": 0.0,
			"-0.017": 0.0,
			"-0.016": 0.0,
			"-0.015": 0.0,
			"-0.014": 0.0,
			"-0.013": 0.0,
			"-0.012": 0.0,
			"-0.011": 0.0,
			"-0.01": 0.0,
			"-0.009": 0.0,
			"-0.008": 1.15507483304,
			"-0.007": 2.34907039434,
			"-0.006": 8.59936880589,
			"-0.005": 18.8978751196,
			"-0.004": 38.3857108054,
			"-0.003": 49.7475126853,
			"-0.002": 61.2827819269,
			"-0.001": 63.4875518942,
			"0.0": 40.1105970413,
			"0.001": 31.6629239682,
			"0.002": 25.1211441122,
			"0.003": 23.1251527,
			"0.004": 21.2801844813,
			"0.005": 16.788415064,
			"0.006": 7.5798055024,
			"0.007": 4.43660555269,
			"0.008": 4.7903236561,
			"0.009": 3.23975991812,
			"0.01": 3.62641561118,
			"0.011": 2.84096469441,
			"0.012": 1.37523838304,
			"0.013": 3.46747368676,
			"0.014": 3.30689554317,
			"0.015": 1.50813650931,
			"0.016": 0.109121276331,
			"0.017": 0.0,
			"0.018": 0.0,
			"0.019": 0.0,
			"0.02": 0.0,
			"0.021": 0.0,
			"0.022": 0.0,
			"0.023": 0.0,
			"0.024": 0.0,
			"0.025": 0.0
		}
	}
}
