{
	 "smiles": "CC1=CC2=C(C=C1)N=C(N2)C1=C(O)C(C)=CC=C1", 
	 "Tm": 518.15, 
	 "num_atms": 32, 
	 "gaussian": { 
		 "optdone": 1, 
		 "sigma_profile": "yes", 
		 "theory": "DFT", 
		 "functional": "B3LYP", 
		 "basiset": "6-31G**", 
		 "properties": { 
			 "R2extent": 6225.0968, 
			 "electric_dipole_moment_norm": 3.53794188901, 
			 "electric_quadrupole_moment_norm": 9.87142606922, 
			 "total_energy": -764.810341999, 
			 "HOMO_LUMO_gap": 0.16027, 
			 "cosmo_polarized_energy": -12.43, 
			 "cosmo_cavitation_energy": 35.05, 
			 "cosmo_dispersion_energy": -26.3, 
			 "cosmo_repulsion_energy": 1.99, 
			 "cosmo_total_nonelectrostatic_energy": 10.74, 
			 "SMD_solvation_energy": 4.68 
		},
		"coords": [
			{
				"x": 3.8867216349,
				"y": 4.8832046268,
				"z": -1.2728433259,
				"element": "C" 
			},
			{
				"x": 3.1962361683,
				"y": 3.5441861835,
				"z": -1.1504681888,
				"element": "C" 
			},
			{
				"x": 2.2688301012,
				"y": 3.3129991441,
				"z": -0.1321026738,
				"element": "C" 
			},
			{
				"x": 1.6670786727,
				"y": 2.0552307865,
				"z": -0.0741343273,
				"element": "C" 
			},
			{
				"x": 1.9621834803,
				"y": 1.0277591202,
				"z": -0.9974203646,
				"element": "C" 
			},
			{
				"x": 2.8924443313,
				"y": 1.2631759101,
				"z": -2.0172556719,
				"element": "C" 
			},
			{
				"x": 3.4925687688,
				"y": 2.5148853892,
				"z": -2.0764074795,
				"element": "C" 
			},
			{
				"x": 1.2186962727,
				"y": -0.0990281355,
				"z": -0.6932414434,
				"element": "N" 
			},
			{
				"x": 0.4901255556,
				"y": 0.2091263469,
				"z": 0.3733106196,
				"element": "C" 
			},
			{
				"x": 0.7287801562,
				"y": 1.5040539822,
				"z": 0.7831449468,
				"element": "N" 
			},
			{
				"x": -0.4366571464,
				"y": -0.7116712103,
				"z": 1.0160759807,
				"element": "C" 
			},
			{
				"x": -0.5805987064,
				"y": -2.0210718194,
				"z": 0.4839829197,
				"element": "C" 
			},
			{
				"x": 0.1055891089,
				"y": -2.443730035,
				"z": -0.5907995238,
				"element": "O" 
			},
			{
				"x": -1.4714215508,
				"y": -2.9398874487,
				"z": 1.0842254281,
				"element": "C" 
			},
			{
				"x": -1.6005336583,
				"y": -4.3203780481,
				"z": 0.4955953988,
				"element": "C" 
			},
			{
				"x": -2.1981306271,
				"y": -2.5342172119,
				"z": 2.1996057888,
				"element": "C" 
			},
			{
				"x": -2.0679720484,
				"y": -1.2459085332,
				"z": 2.7369283337,
				"element": "C" 
			},
			{
				"x": -1.1939849445,
				"y": -0.3478277822,
				"z": 2.1463163521,
				"element": "C" 
			},
			{
				"x": 3.5583471054,
				"y": 5.5767372443,
				"z": -0.493722333,
				"element": "H" 
			},
			{
				"x": 4.9750664262,
				"y": 4.7803032435,
				"z": -1.1902802826,
				"element": "H" 
			},
			{
				"x": 3.6823477729,
				"y": 5.3508014217,
				"z": -2.2431110091,
				"element": "H" 
			},
			{
				"x": 2.0295179209,
				"y": 4.091730432,
				"z": 0.5868437943,
				"element": "H" 
			},
			{
				"x": 3.1313292653,
				"y": 0.4855312958,
				"z": -2.7354484313,
				"element": "H" 
			},
			{
				"x": 4.2174040538,
				"y": 2.7171134838,
				"z": -2.8608105559,
				"element": "H" 
			},
			{
				"x": 0.2983325237,
				"y": 1.9645761424,
				"z": 1.5682268112,
				"element": "H" 
			},
			{
				"x": 0.6869753416,
				"y": -1.6940343577,
				"z": -0.9019014274,
				"element": "H" 
			},
			{
				"x": -0.637006359,
				"y": -4.8416711018,
				"z": 0.4965547842,
				"element": "H" 
			},
			{
				"x": -1.9245065299,
				"y": -4.2750003538,
				"z": -0.5499092425,
				"element": "H" 
			},
			{
				"x": -2.3212839236,
				"y": -4.920238872,
				"z": 1.0576010206,
				"element": "H" 
			},
			{
				"x": -2.8834455191,
				"y": -3.2405873771,
				"z": 2.6615714662,
				"element": "H" 
			},
			{
				"x": -2.646663534,
				"y": -0.9547750554,
				"z": 3.60755884,
				"element": "H" 
			},
			{
				"x": -1.0974701136,
				"y": 0.6498125892,
				"z": 2.567213796,
				"element": "H" 
			}
		],
		 "valence_orbital": [ 
			{
				"type": "occ",
				"energy": -0.28201,
				"method": "rhf"
			},
			{
				"type": "occ",
				"energy": -0.26106,
				"method": "rhf"
			},
			{
				"type": "occ",
				"energy": -0.23207,
				"method": "rhf"
			},
			{
				"type": "occ",
				"energy": -0.22146,
				"method": "rhf"
			},
			{
				"type": "occ",
				"energy": -0.20117,
				"method": "rhf"
			},
			{
				"type": "unocc",
				"energy": -0.0409,
				"method": "rhf"
			},
			{
				"type": "unocc",
				"energy": 0.00722,
				"method": "rhf"
			},
			{
				"type": "unocc",
				"energy": 0.0157,
				"method": "rhf"
			},
			{
				"type": "unocc",
				"energy": 0.01988,
				"method": "rhf"
			},
			{
				"type": "unocc",
				"energy": 0.05842,
				"method": "rhf"
			}
		],
		"cosmo_sigma_profile": { 
			"-0.025": 0.0,
			"-0.024": 0.0,
			"-0.023": 0.0,
			"-0.022": 0.0,
			"-0.021": 0.0,
			"-0.02": 0.0,
			"-0.019": 0.0,
			"-0.018": 0.0,
			"-0.017": 0.669613199433,
			"-0.016": 1.61325284076,
			"-0.015": 1.36560717577,
			"-0.014": 0.700400133627,
			"-0.013": 1.41678119606,
			"-0.012": 1.60183028119,
			"-0.011": 1.45162283963,
			"-0.01": 1.21269141133,
			"-0.009": 1.51915741193,
			"-0.008": 1.37811264957,
			"-0.007": 2.0663049391,
			"-0.006": 6.53171890986,
			"-0.005": 13.6140643548,
			"-0.004": 19.2586301935,
			"-0.003": 22.4291714866,
			"-0.002": 21.6507989331,
			"-0.001": 20.6245883078,
			"0.0": 26.4330567608,
			"0.001": 28.0323170601,
			"0.002": 20.4431154367,
			"0.003": 20.7953116061,
			"0.004": 21.7441650818,
			"0.005": 20.5793377518,
			"0.006": 12.4764929267,
			"0.007": 2.86824047764,
			"0.008": 1.84387899966,
			"0.009": 1.5966719466,
			"0.01": 1.89013051471,
			"0.011": 1.59364478697,
			"0.012": 0.294162849236,
			"0.013": 0.0,
			"0.014": 0.0,
			"0.015": 0.0,
			"0.016": 0.0,
			"0.017": 0.0,
			"0.018": 0.0,
			"0.019": 0.0,
			"0.02": 0.0,
			"0.021": 0.0,
			"0.022": 0.0,
			"0.023": 0.0,
			"0.024": 0.0,
			"0.025": 0.0
		}
	}
}
