{
	 "smiles": "COC1CCC(CC(O)=O)CC1", 
	 "Tm": 351.15, 
	 "num_atms": 28, 
	 "gaussian": { 
		 "optdone": 1, 
		 "sigma_profile": "yes", 
		 "theory": "DFT", 
		 "functional": "B3LYP", 
		 "basiset": "6-31G**", 
		 "properties": { 
			 "R2extent": 2660.3779, 
			 "electric_dipole_moment_norm": 1.45762704764, 
			 "electric_quadrupole_moment_norm": 5.2679271711, 
			 "total_energy": -578.284762332, 
			 "HOMO_LUMO_gap": 0.25802, 
			 "cosmo_polarized_energy": -10.64, 
			 "cosmo_cavitation_energy": 28.89, 
			 "cosmo_dispersion_energy": -20.78, 
			 "cosmo_repulsion_energy": 1.68, 
			 "cosmo_total_nonelectrostatic_energy": 9.78, 
			 "SMD_solvation_energy": 5.82 
		},
		"coords": [
			{
				"x": -0.6994673505,
				"y": -0.0527128881,
				"z": 3.5786789659,
				"element": "C" 
			},
			{
				"x": 0.0206672349,
				"y": 0.5647192128,
				"z": 2.5328906679,
				"element": "O" 
			},
			{
				"x": -0.6647691332,
				"y": 1.6447516284,
				"z": 1.8912194463,
				"element": "C" 
			},
			{
				"x": 0.3670061129,
				"y": 2.3488348231,
				"z": 0.987388774,
				"element": "C" 
			},
			{
				"x": 0.3690836222,
				"y": 1.821280847,
				"z": -0.4646946556,
				"element": "C" 
			},
			{
				"x": 0.0005508047,
				"y": 0.3293171598,
				"z": -0.5239588715,
				"element": "C" 
			},
			{
				"x": 0.1917622051,
				"y": -0.2352291838,
				"z": -1.9354125572,
				"element": "C" 
			},
			{
				"x": 0.0351255295,
				"y": -1.7382257465,
				"z": -2.0270761965,
				"element": "C" 
			},
			{
				"x": 0.0045815019,
				"y": -2.1546921686,
				"z": -3.3189451522,
				"element": "O" 
			},
			{
				"x": -0.0346475326,
				"y": -2.514537748,
				"z": -1.0988425453,
				"element": "O" 
			},
			{
				"x": -1.4450468068,
				"y": 0.1198776643,
				"z": -0.0027566595,
				"element": "C" 
			},
			{
				"x": -1.8610958065,
				"y": 1.1638941402,
				"z": 1.0586637546,
				"element": "C" 
			},
			{
				"x": -0.0191453644,
				"y": -0.759656268,
				"z": 4.0604256027,
				"element": "H" 
			},
			{
				"x": -1.0355948971,
				"y": 0.681542571,
				"z": 4.3287645154,
				"element": "H" 
			},
			{
				"x": -1.579326248,
				"y": -0.6079667092,
				"z": 3.2227555077,
				"element": "H" 
			},
			{
				"x": -1.0140337408,
				"y": 2.3446824315,
				"z": 2.6690774972,
				"element": "H" 
			},
			{
				"x": 1.3479058593,
				"y": 2.2008037129,
				"z": 1.4503098189,
				"element": "H" 
			},
			{
				"x": 0.1731704023,
				"y": 3.427422379,
				"z": 0.9877307989,
				"element": "H" 
			},
			{
				"x": -0.3479371003,
				"y": 2.3903368856,
				"z": -1.0736341377,
				"element": "H" 
			},
			{
				"x": 1.3531696186,
				"y": 1.9938371431,
				"z": -0.9170725904,
				"element": "H" 
			},
			{
				"x": 0.6758621245,
				"y": -0.2099670341,
				"z": 0.1489818533,
				"element": "H" 
			},
			{
				"x": -0.5022389005,
				"y": 0.2248529076,
				"z": -2.6503119343,
				"element": "H" 
			},
			{
				"x": 1.1978366016,
				"y": -0.0038510158,
				"z": -2.3126145086,
				"element": "H" 
			},
			{
				"x": -0.069644642,
				"y": -3.1233103796,
				"z": -3.2847942717,
				"element": "H" 
			},
			{
				"x": -2.1519988507,
				"y": 0.1746206778,
				"z": -0.8419458019,
				"element": "H" 
			},
			{
				"x": -1.5256062496,
				"y": -0.8913043309,
				"z": 0.4030988706,
				"element": "H" 
			},
			{
				"x": -2.2936805768,
				"y": 2.0494378674,
				"z": 0.5752484045,
				"element": "H" 
			},
			{
				"x": -2.6515884177,
				"y": 0.759741421,
				"z": 1.7003254043,
				"element": "H" 
			}
		],
		 "valence_orbital": [ 
			{
				"type": "occ",
				"energy": -0.30735,
				"method": "rhf"
			},
			{
				"type": "occ",
				"energy": -0.30422,
				"method": "rhf"
			},
			{
				"type": "occ",
				"energy": -0.29006,
				"method": "rhf"
			},
			{
				"type": "occ",
				"energy": -0.2696,
				"method": "rhf"
			},
			{
				"type": "occ",
				"energy": -0.24448,
				"method": "rhf"
			},
			{
				"type": "unocc",
				"energy": 0.01354,
				"method": "rhf"
			},
			{
				"type": "unocc",
				"energy": 0.07282,
				"method": "rhf"
			},
			{
				"type": "unocc",
				"energy": 0.08266,
				"method": "rhf"
			},
			{
				"type": "unocc",
				"energy": 0.10734,
				"method": "rhf"
			},
			{
				"type": "unocc",
				"energy": 0.11001,
				"method": "rhf"
			}
		],
		"cosmo_sigma_profile": { 
			"-0.025": 0.0,
			"-0.024": 0.0,
			"-0.023": 0.0,
			"-0.022": 0.0,
			"-0.021": 0.0,
			"-0.02": 0.0,
			"-0.019": 0.0,
			"-0.018": 0.505820008856,
			"-0.017": 0.98113426031,
			"-0.016": 0.663525250962,
			"-0.015": 0.732677741344,
			"-0.014": 0.76465716089,
			"-0.013": 1.02970967682,
			"-0.012": 0.247940844585,
			"-0.011": 0.657556390587,
			"-0.01": 0.674777547657,
			"-0.009": 0.434855334931,
			"-0.008": 0.651977441962,
			"-0.007": 1.2397880992,
			"-0.006": 2.68395017786,
			"-0.005": 5.71098847967,
			"-0.004": 10.9794745063,
			"-0.003": 30.1589882781,
			"-0.002": 41.0330926853,
			"-0.001": 30.8771889367,
			"0.0": 22.0169504931,
			"0.001": 15.8965006314,
			"0.002": 6.1400992259,
			"0.003": 5.31177292068,
			"0.004": 4.41330531165,
			"0.005": 4.27440934217,
			"0.006": 5.38447142441,
			"0.007": 4.59268505093,
			"0.008": 5.64414117895,
			"0.009": 3.91213392457,
			"0.01": 4.20982332737,
			"0.011": 4.48775411666,
			"0.012": 5.07449495449,
			"0.013": 1.26292751476,
			"0.014": 0.0826741048995,
			"0.015": 0.0,
			"0.016": 0.0,
			"0.017": 0.0,
			"0.018": 0.0,
			"0.019": 0.0,
			"0.02": 0.0,
			"0.021": 0.0,
			"0.022": 0.0,
			"0.023": 0.0,
			"0.024": 0.0,
			"0.025": 0.0
		}
	}
}
