{
	 "smiles": "CC1=CC=C(C)C2=C1C(=O)C2=O", 
	 "Tm": 406.15, 
	 "num_atms": 20, 
	 "gaussian": { 
		 "optdone": 1, 
		 "sigma_profile": "yes", 
		 "theory": "DFT", 
		 "functional": "B3LYP", 
		 "basiset": "6-31G**", 
		 "properties": { 
			 "R2extent": 2119.381, 
			 "electric_dipole_moment_norm": 5.89837166937, 
			 "electric_quadrupole_moment_norm": 10.4886677924, 
			 "total_energy": -536.298125111, 
			 "HOMO_LUMO_gap": 0.14796, 
			 "cosmo_polarized_energy": -11.17, 
			 "cosmo_cavitation_energy": 25.34, 
			 "cosmo_dispersion_energy": -17.81, 
			 "cosmo_repulsion_energy": 1.43, 
			 "cosmo_total_nonelectrostatic_energy": 8.96, 
			 "SMD_solvation_energy": 5.86 
		},
		"coords": [
			{
				"x": -1.5193377464,
				"y": -1.7057799809,
				"z": -2.5305072973,
				"element": "C" 
			},
			{
				"x": -0.8270672768,
				"y": -0.771860859,
				"z": -1.5734682352,
				"element": "C" 
			},
			{
				"x": -0.7481022321,
				"y": 0.6136655531,
				"z": -1.7702135058,
				"element": "C" 
			},
			{
				"x": -0.0791658414,
				"y": 1.4801212148,
				"z": -0.8811807627,
				"element": "C" 
			},
			{
				"x": 0.5674159078,
				"y": 1.0343401392,
				"z": 0.2797820936,
				"element": "C" 
			},
			{
				"x": 1.3036000264,
				"y": 1.9505331777,
				"z": 1.2210488572,
				"element": "C" 
			},
			{
				"x": 0.476073252,
				"y": -0.3467544788,
				"z": 0.4777519001,
				"element": "C" 
			},
			{
				"x": -0.1906063554,
				"y": -1.2102890099,
				"z": -0.408279974,
				"element": "C" 
			},
			{
				"x": 0.0861401079,
				"y": -2.4334222781,
				"z": 0.4219108311,
				"element": "C" 
			},
			{
				"x": -0.161608871,
				"y": -3.6087238603,
				"z": 0.3590594168,
				"element": "O" 
			},
			{
				"x": 0.8446630886,
				"y": -1.450824495,
				"z": 1.4301267351,
				"element": "C" 
			},
			{
				"x": 1.4309649093,
				"y": -1.5455581361,
				"z": 2.4760442978,
				"element": "O" 
			},
			{
				"x": -2.2951570639,
				"y": -1.1894572293,
				"z": -3.1027189105,
				"element": "H" 
			},
			{
				"x": -1.9723575722,
				"y": -2.5467346873,
				"z": -1.9990877609,
				"element": "H" 
			},
			{
				"x": -0.8035565417,
				"y": -2.1270525392,
				"z": -3.2468694903,
				"element": "H" 
			},
			{
				"x": -1.2282457232,
				"y": 1.0484743886,
				"z": -2.6440520524,
				"element": "H" 
			},
			{
				"x": -0.074036291,
				"y": 2.543502056,
				"z": -1.1100734261,
				"element": "H" 
			},
			{
				"x": 0.9177731249,
				"y": 2.9724223971,
				"z": 1.1682393104,
				"element": "H" 
			},
			{
				"x": 1.2274526874,
				"y": 1.5965083384,
				"z": 2.2524058897,
				"element": "H" 
			},
			{
				"x": 2.3711584108,
				"y": 1.9855902893,
				"z": 0.9718820835,
				"element": "H" 
			}
		],
		 "valence_orbital": [ 
			{
				"type": "occ",
				"energy": -0.35898,
				"method": "rhf"
			},
			{
				"type": "occ",
				"energy": -0.31133,
				"method": "rhf"
			},
			{
				"type": "occ",
				"energy": -0.28057,
				"method": "rhf"
			},
			{
				"type": "occ",
				"energy": -0.26504,
				"method": "rhf"
			},
			{
				"type": "occ",
				"energy": -0.23178,
				"method": "rhf"
			},
			{
				"type": "unocc",
				"energy": -0.08382,
				"method": "rhf"
			},
			{
				"type": "unocc",
				"energy": -0.05876,
				"method": "rhf"
			},
			{
				"type": "unocc",
				"energy": 0.01038,
				"method": "rhf"
			},
			{
				"type": "unocc",
				"energy": 0.05748,
				"method": "rhf"
			},
			{
				"type": "unocc",
				"energy": 0.08818,
				"method": "rhf"
			}
		],
		"cosmo_sigma_profile": { 
			"-0.025": 0.0,
			"-0.024": 0.0,
			"-0.023": 0.0,
			"-0.022": 0.0,
			"-0.021": 0.0,
			"-0.02": 0.0,
			"-0.019": 0.0,
			"-0.018": 0.0,
			"-0.017": 0.0,
			"-0.016": 0.0,
			"-0.015": 0.0,
			"-0.014": 0.0,
			"-0.013": 0.0,
			"-0.012": 0.0,
			"-0.011": 0.0,
			"-0.01": 0.0,
			"-0.009": 0.0,
			"-0.008": 0.320158902271,
			"-0.007": 5.12885973116,
			"-0.006": 9.55347758003,
			"-0.005": 16.3822772568,
			"-0.004": 16.9921720636,
			"-0.003": 21.1320031639,
			"-0.002": 23.5170034816,
			"-0.001": 24.8787836597,
			"0.0": 18.7845808782,
			"0.001": 13.8163951683,
			"0.002": 9.24291248397,
			"0.003": 2.10469255014,
			"0.004": 4.01218012554,
			"0.005": 3.00014501913,
			"0.006": 3.57030143873,
			"0.007": 3.45972840326,
			"0.008": 4.37341109333,
			"0.009": 5.39155886326,
			"0.01": 9.71139284268,
			"0.011": 6.80245631077,
			"0.012": 0.784508671648,
			"0.013": 0.0,
			"0.014": 0.0,
			"0.015": 0.0,
			"0.016": 0.0,
			"0.017": 0.0,
			"0.018": 0.0,
			"0.019": 0.0,
			"0.02": 0.0,
			"0.021": 0.0,
			"0.022": 0.0,
			"0.023": 0.0,
			"0.024": 0.0,
			"0.025": 0.0
		}
	}
}
