{
	 "smiles": "O=C1NC(=CS1)C1=CN=CC=C1", 
	 "Tm": 499.15, 
	 "num_atms": 18, 
	 "gaussian": { 
		 "optdone": 1, 
		 "sigma_profile": "yes", 
		 "theory": "DFT", 
		 "functional": "B3LYP", 
		 "basiset": "6-31G**", 
		 "properties": { 
			 "R2extent": 5892.8834, 
			 "electric_dipole_moment_norm": 4.49215241727, 
			 "electric_quadrupole_moment_norm": 22.6352103949, 
			 "total_energy": -891.38058933, 
			 "HOMO_LUMO_gap": 0.16319, 
			 "cosmo_polarized_energy": -14.35, 
			 "cosmo_cavitation_energy": 24.61, 
			 "cosmo_dispersion_energy": -18.86, 
			 "cosmo_repulsion_energy": 1.43, 
			 "cosmo_total_nonelectrostatic_energy": 7.18, 
			 "SMD_solvation_energy": 3.56 
		},
		"coords": [
			{
				"x": -5.1662203899,
				"y": 3.0219740771,
				"z": 2.9658042491,
				"element": "O" 
			},
			{
				"x": -4.2557464715,
				"y": 2.2285541102,
				"z": 3.0329156448,
				"element": "C" 
			},
			{
				"x": -3.2745426334,
				"y": 2.0037721862,
				"z": 2.0846841001,
				"element": "N" 
			},
			{
				"x": -2.3360366173,
				"y": 1.0012048087,
				"z": 2.3467827383,
				"element": "C" 
			},
			{
				"x": -2.5390217968,
				"y": 0.4112305117,
				"z": 3.5497017993,
				"element": "C" 
			},
			{
				"x": -3.9176667208,
				"y": 1.0785548925,
				"z": 4.4027607991,
				"element": "S" 
			},
			{
				"x": -1.2661097941,
				"y": 0.7188326942,
				"z": 1.3824342084,
				"element": "C" 
			},
			{
				"x": -0.7609569061,
				"y": 1.7169510503,
				"z": 0.5299769416,
				"element": "C" 
			},
			{
				"x": 0.2111979184,
				"y": 1.5206004347,
				"z": -0.3638528753,
				"element": "N" 
			},
			{
				"x": 0.7433884461,
				"y": 0.2954073875,
				"z": -0.4410372041,
				"element": "C" 
			},
			{
				"x": 0.3291947869,
				"y": -0.7710291994,
				"z": 0.3612456592,
				"element": "C" 
			},
			{
				"x": -0.6943075356,
				"y": -0.5590833221,
				"z": 1.2771632152,
				"element": "C" 
			},
			{
				"x": -3.3525346939,
				"y": 2.4776423724,
				"z": 1.1957032406,
				"element": "H" 
			},
			{
				"x": -1.915667421,
				"y": -0.3431696627,
				"z": 4.0058671164,
				"element": "H" 
			},
			{
				"x": -1.14801388,
				"y": 2.7334669251,
				"z": 0.5886027585,
				"element": "H" 
			},
			{
				"x": 1.5325668107,
				"y": 0.1590452298,
				"z": -1.1776729969,
				"element": "H" 
			},
			{
				"x": 0.7886670005,
				"y": -1.7485611891,
				"z": 0.2550106548,
				"element": "H" 
			},
			{
				"x": -1.0663901023,
				"y": -1.373293307,
				"z": 1.891709951,
				"element": "H" 
			}
		],
		 "valence_orbital": [ 
			{
				"type": "occ",
				"energy": -0.30368,
				"method": "rhf"
			},
			{
				"type": "occ",
				"energy": -0.28404,
				"method": "rhf"
			},
			{
				"type": "occ",
				"energy": -0.27469,
				"method": "rhf"
			},
			{
				"type": "occ",
				"energy": -0.27043,
				"method": "rhf"
			},
			{
				"type": "occ",
				"energy": -0.2178,
				"method": "rhf"
			},
			{
				"type": "unocc",
				"energy": -0.05461,
				"method": "rhf"
			},
			{
				"type": "unocc",
				"energy": -0.03895,
				"method": "rhf"
			},
			{
				"type": "unocc",
				"energy": 0.00632,
				"method": "rhf"
			},
			{
				"type": "unocc",
				"energy": 0.01054,
				"method": "rhf"
			},
			{
				"type": "unocc",
				"energy": 0.03997,
				"method": "rhf"
			}
		],
		"cosmo_sigma_profile": { 
			"-0.025": 0.0,
			"-0.024": 0.0,
			"-0.023": 0.0,
			"-0.022": 0.0,
			"-0.021": 0.0,
			"-0.02": 0.0,
			"-0.019": 0.0,
			"-0.018": 0.0,
			"-0.017": 0.289089956268,
			"-0.016": 1.05279269652,
			"-0.015": 1.31191334995,
			"-0.014": 0.676402847167,
			"-0.013": 1.37196266168,
			"-0.012": 0.874999611534,
			"-0.011": 2.08230155221,
			"-0.01": 1.33761701923,
			"-0.009": 3.21291865006,
			"-0.008": 6.01309624625,
			"-0.007": 9.55759391043,
			"-0.006": 10.2987281473,
			"-0.005": 9.57235268463,
			"-0.004": 8.26715473714,
			"-0.003": 7.96770493808,
			"-0.002": 10.0656408539,
			"-0.001": 14.0830637288,
			"0.0": 17.4809358328,
			"0.001": 22.6364491853,
			"0.002": 20.286745158,
			"0.003": 10.8547909699,
			"0.004": 7.62466835802,
			"0.005": 4.48494311496,
			"0.006": 2.65015198544,
			"0.007": 2.77640269274,
			"0.008": 2.53584050033,
			"0.009": 2.23152331382,
			"0.01": 2.77728856164,
			"0.011": 3.99659953534,
			"0.012": 7.54439186795,
			"0.013": 2.23595444903,
			"0.014": 1.08752994006,
			"0.015": 0.817749220458,
			"0.016": 0.678012015352,
			"0.017": 0.101790860737,
			"0.018": 0.0,
			"0.019": 0.0,
			"0.02": 0.0,
			"0.021": 0.0,
			"0.022": 0.0,
			"0.023": 0.0,
			"0.024": 0.0,
			"0.025": 0.0
		}
	}
}
