{
	 "smiles": "BrC1=CC2=C(NC=C2)N=C1", 
	 "Tm": 452.15, 
	 "num_atms": 15, 
	 "gaussian": { 
		 "optdone": 1, 
		 "sigma_profile": "yes", 
		 "theory": "DFT", 
		 "functional": "B3LYP", 
		 "basiset": "6-31G**", 
		 "properties": { 
			 "R2extent": 2760.113, 
			 "electric_dipole_moment_norm": 3.44187423071, 
			 "electric_quadrupole_moment_norm": 8.67721301571, 
			 "total_energy": -2950.66499612, 
			 "HOMO_LUMO_gap": 0.18926, 
			 "cosmo_polarized_energy": -8.72, 
			 "cosmo_cavitation_energy": 21.62, 
			 "cosmo_dispersion_energy": -16.94, 
			 "cosmo_repulsion_energy": 1.36, 
			 "cosmo_total_nonelectrostatic_energy": 6.03, 
			 "SMD_solvation_energy": 0.97 
		},
		"coords": [
			{
				"x": 2.4748829302,
				"y": 2.399744095,
				"z": 0.6908960348,
				"element": "Br" 
			},
			{
				"x": 1.3053988202,
				"y": 0.9026027979,
				"z": 0.4707973701,
				"element": "C" 
			},
			{
				"x": 1.8117664774,
				"y": -0.3186460979,
				"z": 0.0448565653,
				"element": "C" 
			},
			{
				"x": 0.8944134001,
				"y": -1.3688598371,
				"z": -0.0933395658,
				"element": "C" 
			},
			{
				"x": -0.46506274,
				"y": -1.0746998578,
				"z": 0.2179055228,
				"element": "C" 
			},
			{
				"x": -1.192116422,
				"y": -2.2250200278,
				"z": 0.0196144508,
				"element": "N" 
			},
			{
				"x": -0.3392964849,
				"y": -3.2270206363,
				"z": -0.4036860877,
				"element": "C" 
			},
			{
				"x": 0.9435917329,
				"y": -2.747506761,
				"z": -0.4861415436,
				"element": "C" 
			},
			{
				"x": -0.9598626307,
				"y": 0.0916772874,
				"z": 0.6266416323,
				"element": "N" 
			},
			{
				"x": -0.0645886948,
				"y": 1.0733939717,
				"z": 0.7494538172,
				"element": "C" 
			},
			{
				"x": 2.8679668713,
				"y": -0.4426370172,
				"z": -0.1678198543,
				"element": "H" 
			},
			{
				"x": -2.186231114,
				"y": -2.3006178062,
				"z": 0.1661326346,
				"element": "H" 
			},
			{
				"x": -0.720460579,
				"y": -4.2156589944,
				"z": -0.6152513348,
				"element": "H" 
			},
			{
				"x": 1.8133831105,
				"y": -3.3115982089,
				"z": -0.7901123447,
				"element": "H" 
			},
			{
				"x": -0.4323846773,
				"y": 2.0400470927,
				"z": 1.0810527029,
				"element": "H" 
			}
		],
		 "valence_orbital": [ 
			{
				"type": "occ",
				"energy": -0.29326,
				"method": "rhf"
			},
			{
				"type": "occ",
				"energy": -0.2887,
				"method": "rhf"
			},
			{
				"type": "occ",
				"energy": -0.26777,
				"method": "rhf"
			},
			{
				"type": "occ",
				"energy": -0.2299,
				"method": "rhf"
			},
			{
				"type": "occ",
				"energy": -0.22674,
				"method": "rhf"
			},
			{
				"type": "unocc",
				"energy": -0.03748,
				"method": "rhf"
			},
			{
				"type": "unocc",
				"energy": 0.00778,
				"method": "rhf"
			},
			{
				"type": "unocc",
				"energy": 0.01089,
				"method": "rhf"
			},
			{
				"type": "unocc",
				"energy": 0.05213,
				"method": "rhf"
			},
			{
				"type": "unocc",
				"energy": 0.07834,
				"method": "rhf"
			}
		],
		"cosmo_sigma_profile": { 
			"-0.025": 0.0,
			"-0.024": 0.0,
			"-0.023": 0.0,
			"-0.022": 0.0,
			"-0.021": 0.0,
			"-0.02": 0.0,
			"-0.019": 0.0,
			"-0.018": 0.0,
			"-0.017": 0.111824435296,
			"-0.016": 1.09238278937,
			"-0.015": 1.57104777451,
			"-0.014": 1.07653921812,
			"-0.013": 0.681723780424,
			"-0.012": 1.20796081958,
			"-0.011": 1.14245139284,
			"-0.01": 1.28560078014,
			"-0.009": 2.14615806888,
			"-0.008": 3.6706503929,
			"-0.007": 5.85249597494,
			"-0.006": 7.26542724251,
			"-0.005": 6.98474546682,
			"-0.004": 8.6336027497,
			"-0.003": 8.92137063074,
			"-0.002": 7.01392229271,
			"-0.001": 9.38492812129,
			"0.0": 10.2599909913,
			"0.001": 16.4290667314,
			"0.002": 24.1827412413,
			"0.003": 18.0247507502,
			"0.004": 16.1184994771,
			"0.005": 13.5011045406,
			"0.006": 2.64292386896,
			"0.007": 1.14979332598,
			"0.008": 1.33397108191,
			"0.009": 0.7470912154,
			"0.01": 0.727959304532,
			"0.011": 1.2027884211,
			"0.012": 1.19002558414,
			"0.013": 0.58545530308,
			"0.014": 1.0090117306,
			"0.015": 0.524284240205,
			"0.016": 0.0510500124267,
			"0.017": 0.0,
			"0.018": 0.0,
			"0.019": 0.0,
			"0.02": 0.0,
			"0.021": 0.0,
			"0.022": 0.0,
			"0.023": 0.0,
			"0.024": 0.0,
			"0.025": 0.0
		}
	}
}
