{
	 "smiles": "CN1C=C(C=N1)C(C)=O", 
	 "Tm": 325.15, 
	 "num_atms": 17, 
	 "gaussian": { 
		 "optdone": 1, 
		 "sigma_profile": "yes", 
		 "theory": "DFT", 
		 "functional": "B3LYP", 
		 "basiset": "6-31G**", 
		 "properties": { 
			 "R2extent": 1517.3698, 
			 "electric_dipole_moment_norm": 2.35827671192, 
			 "electric_quadrupole_moment_norm": 15.8966391461, 
			 "total_energy": -418.167381604, 
			 "HOMO_LUMO_gap": 0.2086, 
			 "cosmo_polarized_energy": -11.62, 
			 "cosmo_cavitation_energy": 21.4, 
			 "cosmo_dispersion_energy": -15.54, 
			 "cosmo_repulsion_energy": 1.28, 
			 "cosmo_total_nonelectrostatic_energy": 7.14, 
			 "SMD_solvation_energy": 4.17 
		},
		"coords": [
			{
				"x": -2.5818608361,
				"y": 2.275561691,
				"z": -1.4250720311,
				"element": "C" 
			},
			{
				"x": -1.7961204775,
				"y": 1.2881904235,
				"z": -0.7069605662,
				"element": "N" 
			},
			{
				"x": -0.7681025452,
				"y": 1.4943789948,
				"z": 0.1407517835,
				"element": "C" 
			},
			{
				"x": -0.3407471655,
				"y": 0.242981907,
				"z": 0.5752235414,
				"element": "C" 
			},
			{
				"x": -1.2072670903,
				"y": -0.6610324308,
				"z": -0.0945943965,
				"element": "C" 
			},
			{
				"x": -2.0847520773,
				"y": -0.030756439,
				"z": -0.8675878928,
				"element": "N" 
			},
			{
				"x": 0.7663327153,
				"y": 0.005436903,
				"z": 1.5163530214,
				"element": "C" 
			},
			{
				"x": 1.0860644669,
				"y": -1.4366880684,
				"z": 1.8721312523,
				"element": "C" 
			},
			{
				"x": 1.4030470427,
				"y": 0.9366870588,
				"z": 1.9922123159,
				"element": "O" 
			},
			{
				"x": -2.2118738761,
				"y": 3.2712187329,
				"z": -1.176782374,
				"element": "H" 
			},
			{
				"x": -2.4931195935,
				"y": 2.1107954394,
				"z": -2.501682466,
				"element": "H" 
			},
			{
				"x": -3.6333531644,
				"y": 2.1946409209,
				"z": -1.1388309049,
				"element": "H" 
			},
			{
				"x": -0.3999643959,
				"y": 2.4787913323,
				"z": 0.3884614127,
				"element": "H" 
			},
			{
				"x": -1.2243612765,
				"y": -1.7418146169,
				"z": -0.042599023,
				"element": "H" 
			},
			{
				"x": 0.2157480827,
				"y": -1.9252566325,
				"z": 2.3250724631,
				"element": "H" 
			},
			{
				"x": 1.3469364876,
				"y": -2.007844721,
				"z": 0.9737801714,
				"element": "H" 
			},
			{
				"x": 1.9214937031,
				"y": -1.4571904948,
				"z": 2.5727236927,
				"element": "H" 
			}
		],
		 "valence_orbital": [ 
			{
				"type": "occ",
				"energy": -0.35121,
				"method": "rhf"
			},
			{
				"type": "occ",
				"energy": -0.30062,
				"method": "rhf"
			},
			{
				"type": "occ",
				"energy": -0.26512,
				"method": "rhf"
			},
			{
				"type": "occ",
				"energy": -0.25024,
				"method": "rhf"
			},
			{
				"type": "occ",
				"energy": -0.23967,
				"method": "rhf"
			},
			{
				"type": "unocc",
				"energy": -0.03107,
				"method": "rhf"
			},
			{
				"type": "unocc",
				"energy": 0.01122,
				"method": "rhf"
			},
			{
				"type": "unocc",
				"energy": 0.08994,
				"method": "rhf"
			},
			{
				"type": "unocc",
				"energy": 0.10632,
				"method": "rhf"
			},
			{
				"type": "unocc",
				"energy": 0.10725,
				"method": "rhf"
			}
		],
		"cosmo_sigma_profile": { 
			"-0.025": 0.0,
			"-0.024": 0.0,
			"-0.023": 0.0,
			"-0.022": 0.0,
			"-0.021": 0.0,
			"-0.02": 0.0,
			"-0.019": 0.0,
			"-0.018": 0.0,
			"-0.017": 0.0,
			"-0.016": 0.0,
			"-0.015": 0.0,
			"-0.014": 0.0,
			"-0.013": 0.0,
			"-0.012": 0.0,
			"-0.011": 0.0,
			"-0.01": 1.50194681256,
			"-0.009": 2.53857552033,
			"-0.008": 3.71468610204,
			"-0.007": 5.90582392768,
			"-0.006": 11.8655637985,
			"-0.005": 17.3295245226,
			"-0.004": 15.2698554016,
			"-0.003": 16.0333804075,
			"-0.002": 11.0524128262,
			"-0.001": 11.4800797009,
			"0.0": 9.50031795506,
			"0.001": 7.80294168221,
			"0.002": 8.19762573737,
			"0.003": 8.24423635161,
			"0.004": 5.0737686622,
			"0.005": 3.22419165106,
			"0.006": 3.62163822752,
			"0.007": 3.34122277742,
			"0.008": 2.57760166269,
			"0.009": 2.81877250477,
			"0.01": 2.97689242209,
			"0.011": 3.40212621734,
			"0.012": 4.69853648418,
			"0.013": 4.76715942446,
			"0.014": 2.12489127209,
			"0.015": 0.996651621329,
			"0.016": 0.122182617766,
			"0.017": 0.0,
			"0.018": 0.0,
			"0.019": 0.0,
			"0.02": 0.0,
			"0.021": 0.0,
			"0.022": 0.0,
			"0.023": 0.0,
			"0.024": 0.0,
			"0.025": 0.0
		}
	}
}
