{
	 "smiles": "FC1=CC(F)=C(NC(=O)C2=CC=CN=C2OC2=CC(=CC=C2)C(F)(F)F)C=C1", 
	 "Tm": 433.15, 
	 "num_atms": 39, 
	 "gaussian": { 
		 "optdone": 1, 
		 "sigma_profile": "yes", 
		 "theory": "DFT", 
		 "functional": "B3LYP", 
		 "basiset": "6-31G**", 
		 "properties": { 
			 "R2extent": 14601.4458, 
			 "electric_dipole_moment_norm": 3.93452744812, 
			 "electric_quadrupole_moment_norm": 26.4356738357, 
			 "total_energy": -1489.80511867, 
			 "HOMO_LUMO_gap": 0.17458, 
			 "cosmo_polarized_energy": -15.37, 
			 "cosmo_cavitation_energy": 48.07, 
			 "cosmo_dispersion_energy": -32.54, 
			 "cosmo_repulsion_energy": 2.35, 
			 "cosmo_total_nonelectrostatic_energy": 17.89, 
			 "SMD_solvation_energy": 9.92 
		},
		"coords": [
			{
				"x": 3.6255141873,
				"y": -2.6262884251,
				"z": -4.2719585812,
				"element": "F" 
			},
			{
				"x": 2.8796898282,
				"y": -2.1861027094,
				"z": -3.2400167501,
				"element": "C" 
			},
			{
				"x": 3.5045516595,
				"y": -1.9443726375,
				"z": -2.0219391575,
				"element": "C" 
			},
			{
				"x": 2.7272659558,
				"y": -1.4795426852,
				"z": -0.9688658137,
				"element": "C" 
			},
			{
				"x": 3.3310133168,
				"y": -1.1843435399,
				"z": 0.190235434,
				"element": "F" 
			},
			{
				"x": 1.3446085374,
				"y": -1.2857035596,
				"z": -1.0958098739,
				"element": "C" 
			},
			{
				"x": 0.5680452679,
				"y": -0.7975895748,
				"z": -0.0187743339,
				"element": "N" 
			},
			{
				"x": 0.529699607,
				"y": -1.4003865059,
				"z": 1.2145989231,
				"element": "C" 
			},
			{
				"x": 1.177090173,
				"y": -2.4049201599,
				"z": 1.4811635704,
				"element": "O" 
			},
			{
				"x": -0.3510593227,
				"y": -0.7624099602,
				"z": 2.2645555017,
				"element": "C" 
			},
			{
				"x": -0.2893547122,
				"y": -1.3344953282,
				"z": 3.5389826406,
				"element": "C" 
			},
			{
				"x": -1.0591764148,
				"y": -0.8310401699,
				"z": 4.5846102851,
				"element": "C" 
			},
			{
				"x": -1.8892878467,
				"y": 0.2524326248,
				"z": 4.3158750557,
				"element": "C" 
			},
			{
				"x": -1.9773812848,
				"y": 0.822569709,
				"z": 3.1069041411,
				"element": "N" 
			},
			{
				"x": -1.2368907477,
				"y": 0.3301887245,
				"z": 2.1289259333,
				"element": "C" 
			},
			{
				"x": -1.3335395365,
				"y": 0.9350815916,
				"z": 0.8942487735,
				"element": "O" 
			},
			{
				"x": -2.2719432026,
				"y": 1.9446319593,
				"z": 0.6717226702,
				"element": "C" 
			},
			{
				"x": -1.7896837183,
				"y": 3.21262092,
				"z": 0.3715760334,
				"element": "C" 
			},
			{
				"x": -2.6992896174,
				"y": 4.220533016,
				"z": 0.040221105,
				"element": "C" 
			},
			{
				"x": -4.0703520265,
				"y": 3.9589605981,
				"z": 0.017773143,
				"element": "C" 
			},
			{
				"x": -4.5325328333,
				"y": 2.6780435023,
				"z": 0.3240962714,
				"element": "C" 
			},
			{
				"x": -3.6367155059,
				"y": 1.6610036882,
				"z": 0.6486414938,
				"element": "C" 
			},
			{
				"x": -2.1857082068,
				"y": 5.5811380152,
				"z": -0.3511741378,
				"element": "C" 
			},
			{
				"x": -3.0720781274,
				"y": 6.5560038229,
				"z": -0.0553108136,
				"element": "F" 
			},
			{
				"x": -1.9469497695,
				"y": 5.6559882545,
				"z": -1.6812220009,
				"element": "F" 
			},
			{
				"x": -1.0254724547,
				"y": 5.8789996349,
				"z": 0.2730270939,
				"element": "F" 
			},
			{
				"x": 0.7593412608,
				"y": -1.5416426546,
				"z": -2.3405937412,
				"element": "C" 
			},
			{
				"x": 1.5173565838,
				"y": -1.9817981876,
				"z": -3.4249407701,
				"element": "C" 
			},
			{
				"x": 4.5700599735,
				"y": -2.0925333756,
				"z": -1.8961599021,
				"element": "H" 
			},
			{
				"x": -0.0708170538,
				"y": -0.0322920666,
				"z": -0.1894375069,
				"element": "H" 
			},
			{
				"x": 0.3787443944,
				"y": -2.1792337194,
				"z": 3.6683092079,
				"element": "H" 
			},
			{
				"x": -1.0166696067,
				"y": -1.2651543465,
				"z": 5.5773923025,
				"element": "H" 
			},
			{
				"x": -2.5124688285,
				"y": 0.6902475047,
				"z": 5.0927466587,
				"element": "H" 
			},
			{
				"x": -0.7240624083,
				"y": 3.4074177799,
				"z": 0.4029088432,
				"element": "H" 
			},
			{
				"x": -4.7670992921,
				"y": 4.7514926307,
				"z": -0.2308188204,
				"element": "H" 
			},
			{
				"x": -5.5977693433,
				"y": 2.4702760071,
				"z": 0.309774025,
				"element": "H" 
			},
			{
				"x": -3.9845009123,
				"y": 0.6625601516,
				"z": 0.8882129165,
				"element": "H" 
			},
			{
				"x": -0.3113272021,
				"y": -1.3993545232,
				"z": -2.4515561182,
				"element": "H" 
			},
			{
				"x": 1.0672492294,
				"y": -2.1800860062,
				"z": -4.3906237015,
				"element": "H" 
			}
		],
		 "valence_orbital": [ 
			{
				"type": "occ",
				"energy": -0.27345,
				"method": "rhf"
			},
			{
				"type": "occ",
				"energy": -0.26202,
				"method": "rhf"
			},
			{
				"type": "occ",
				"energy": -0.25832,
				"method": "rhf"
			},
			{
				"type": "occ",
				"energy": -0.25463,
				"method": "rhf"
			},
			{
				"type": "occ",
				"energy": -0.23285,
				"method": "rhf"
			},
			{
				"type": "unocc",
				"energy": -0.05827,
				"method": "rhf"
			},
			{
				"type": "unocc",
				"energy": -0.03848,
				"method": "rhf"
			},
			{
				"type": "unocc",
				"energy": -0.03074,
				"method": "rhf"
			},
			{
				"type": "unocc",
				"energy": -0.0184,
				"method": "rhf"
			},
			{
				"type": "unocc",
				"energy": -0.01583,
				"method": "rhf"
			}
		],
		"cosmo_sigma_profile": { 
			"-0.025": 0.0,
			"-0.024": 0.0,
			"-0.023": 0.0,
			"-0.022": 0.0,
			"-0.021": 0.0,
			"-0.02": 0.0,
			"-0.019": 0.0,
			"-0.018": 0.0,
			"-0.017": 0.0,
			"-0.016": 0.0,
			"-0.015": 0.0,
			"-0.014": 0.0,
			"-0.013": 0.0,
			"-0.012": 0.0,
			"-0.011": 0.465249819029,
			"-0.01": 1.18083285405,
			"-0.009": 1.87942540491,
			"-0.008": 8.25766951487,
			"-0.007": 18.0209826496,
			"-0.006": 20.3136153399,
			"-0.005": 20.2444346818,
			"-0.004": 17.8074522136,
			"-0.003": 19.567200749,
			"-0.002": 22.9682026153,
			"-0.001": 28.0630607208,
			"0.0": 38.1221588147,
			"0.001": 44.0177431275,
			"0.002": 46.0192999669,
			"0.003": 47.774723915,
			"0.004": 21.0950285599,
			"0.005": 5.33162338154,
			"0.006": 3.55963671068,
			"0.007": 3.6062371063,
			"0.008": 3.16236092332,
			"0.009": 3.03347597098,
			"0.01": 2.903516481,
			"0.011": 3.15559460779,
			"0.012": 4.20688856753,
			"0.013": 3.80791628595,
			"0.014": 0.0511297839985,
			"0.015": 0.0,
			"0.016": 0.0,
			"0.017": 0.0,
			"0.018": 0.0,
			"0.019": 0.0,
			"0.02": 0.0,
			"0.021": 0.0,
			"0.022": 0.0,
			"0.023": 0.0,
			"0.024": 0.0,
			"0.025": 0.0
		}
	}
}
