{
	 "smiles": "FC(F)(F)C1=CC(Cl)=C(Cl)N=C1", 
	 "Tm": 281.65, 
	 "num_atms": 14, 
	 "gaussian": { 
		 "optdone": 1, 
		 "sigma_profile": "yes", 
		 "theory": "DFT", 
		 "functional": "B3LYP", 
		 "basiset": "6-31G**", 
		 "properties": { 
			 "R2extent": 3768.1427, 
			 "electric_dipole_moment_norm": 1.13816512862, 
			 "electric_quadrupole_moment_norm": 4.85299004326, 
			 "total_energy": -1504.49395744, 
			 "HOMO_LUMO_gap": 0.21054, 
			 "cosmo_polarized_energy": -5.34, 
			 "cosmo_cavitation_energy": 24.09, 
			 "cosmo_dispersion_energy": -17.61, 
			 "cosmo_repulsion_energy": 1.35, 
			 "cosmo_total_nonelectrostatic_energy": 7.83, 
			 "SMD_solvation_energy": 3.48 
		},
		"coords": [
			{
				"x": 1.6621088392,
				"y": -2.1239502405,
				"z": 2.9444689167,
				"element": "F" 
			},
			{
				"x": 1.6735770754,
				"y": -1.0857076891,
				"z": 2.0811793293,
				"element": "C" 
			},
			{
				"x": 1.7734746794,
				"y": 0.0417510176,
				"z": 2.8168051604,
				"element": "F" 
			},
			{
				"x": 2.7911559365,
				"y": -1.1963450394,
				"z": 1.3354052825,
				"element": "F" 
			},
			{
				"x": 0.4370905444,
				"y": -1.072581256,
				"z": 1.2225438632,
				"element": "C" 
			},
			{
				"x": -0.7294693357,
				"y": -0.4553716084,
				"z": 1.6743863464,
				"element": "C" 
			},
			{
				"x": -1.8692880801,
				"y": -0.5025907057,
				"z": 0.8782323948,
				"element": "C" 
			},
			{
				"x": -3.3289376403,
				"y": 0.2675267551,
				"z": 1.4251562705,
				"element": "Cl" 
			},
			{
				"x": -1.786047723,
				"y": -1.1790356142,
				"z": -0.3543826669,
				"element": "C" 
			},
			{
				"x": -3.1764029658,
				"y": -1.2831803624,
				"z": -1.4039899338,
				"element": "Cl" 
			},
			{
				"x": -0.6783510277,
				"y": -1.7589406095,
				"z": -0.7819344004,
				"element": "N" 
			},
			{
				"x": 0.4152783229,
				"y": -1.7115867234,
				"z": -0.0165390544,
				"element": "C" 
			},
			{
				"x": -0.7535762372,
				"y": 0.0629030441,
				"z": 2.6260758681,
				"element": "H" 
			},
			{
				"x": 1.304287612,
				"y": -2.1939909682,
				"z": -0.4115073766,
				"element": "H" 
			}
		],
		 "valence_orbital": [ 
			{
				"type": "occ",
				"energy": -0.35126,
				"method": "rhf"
			},
			{
				"type": "occ",
				"energy": -0.3275,
				"method": "rhf"
			},
			{
				"type": "occ",
				"energy": -0.31282,
				"method": "rhf"
			},
			{
				"type": "occ",
				"energy": -0.29771,
				"method": "rhf"
			},
			{
				"type": "occ",
				"energy": -0.27786,
				"method": "rhf"
			},
			{
				"type": "unocc",
				"energy": -0.06732,
				"method": "rhf"
			},
			{
				"type": "unocc",
				"energy": -0.05876,
				"method": "rhf"
			},
			{
				"type": "unocc",
				"energy": -0.00762,
				"method": "rhf"
			},
			{
				"type": "unocc",
				"energy": 0.04095,
				"method": "rhf"
			},
			{
				"type": "unocc",
				"energy": 0.0841,
				"method": "rhf"
			}
		],
		"cosmo_sigma_profile": { 
			"-0.025": 0.0,
			"-0.024": 0.0,
			"-0.023": 0.0,
			"-0.022": 0.0,
			"-0.021": 0.0,
			"-0.02": 0.0,
			"-0.019": 0.0,
			"-0.018": 0.0,
			"-0.017": 0.0,
			"-0.016": 0.0,
			"-0.015": 0.0,
			"-0.014": 0.0,
			"-0.013": 0.0,
			"-0.012": 0.0,
			"-0.011": 0.0319251800377,
			"-0.01": 1.22880219926,
			"-0.009": 2.60358736246,
			"-0.008": 3.57282515995,
			"-0.007": 3.56325428313,
			"-0.006": 3.96995177573,
			"-0.005": 4.9130961561,
			"-0.004": 10.966236196,
			"-0.003": 19.6111128161,
			"-0.002": 18.4923601779,
			"-0.001": 14.7081415591,
			"0.0": 13.7187819454,
			"0.001": 18.1748173535,
			"0.002": 38.3437624162,
			"0.003": 26.6997078884,
			"0.004": 8.03260105506,
			"0.005": 2.6381072649,
			"0.006": 1.81068361288,
			"0.007": 1.33040784851,
			"0.008": 0.881650986383,
			"0.009": 1.30103828037,
			"0.01": 0.873401741244,
			"0.011": 0.698418173464,
			"0.012": 1.082572674,
			"0.013": 0.178764964886,
			"0.014": 0.0,
			"0.015": 0.0,
			"0.016": 0.0,
			"0.017": 0.0,
			"0.018": 0.0,
			"0.019": 0.0,
			"0.02": 0.0,
			"0.021": 0.0,
			"0.022": 0.0,
			"0.023": 0.0,
			"0.024": 0.0,
			"0.025": 0.0
		}
	}
}
