{
	 "smiles": "CC(Cl)C(=O)NC1=CC2=C(OCCCO2)C=C1", 
	 "Tm": 371.15, 
	 "num_atms": 31, 
	 "gaussian": { 
		 "optdone": 1, 
		 "sigma_profile": "yes", 
		 "theory": "DFT", 
		 "functional": "B3LYP", 
		 "basiset": "6-31G**", 
		 "properties": { 
			 "R2extent": 6069.3158, 
			 "electric_dipole_moment_norm": 5.18597817485, 
			 "electric_quadrupole_moment_norm": 18.6840646175, 
			 "total_energy": -1206.31847898, 
			 "HOMO_LUMO_gap": 0.20325, 
			 "cosmo_polarized_energy": -13.89, 
			 "cosmo_cavitation_energy": 34.99, 
			 "cosmo_dispersion_energy": -25.04, 
			 "cosmo_repulsion_energy": 1.97, 
			 "cosmo_total_nonelectrostatic_energy": 11.93, 
			 "SMD_solvation_energy": 6.46 
		},
		"coords": [
			{
				"x": 1.1105603507,
				"y": 1.1502454972,
				"z": 2.9284429838,
				"element": "C" 
			},
			{
				"x": 1.0834115178,
				"y": 2.3905558182,
				"z": 2.0436230858,
				"element": "C" 
			},
			{
				"x": -0.5706762018,
				"y": 3.1844843246,
				"z": 2.0923429656,
				"element": "Cl" 
			},
			{
				"x": 1.5627529978,
				"y": 2.2132099451,
				"z": 0.5926796515,
				"element": "C" 
			},
			{
				"x": 2.4651950452,
				"y": 2.9319328788,
				"z": 0.1839698037,
				"element": "O" 
			},
			{
				"x": 1.0276766859,
				"y": 1.2441372191,
				"z": -0.221479672,
				"element": "N" 
			},
			{
				"x": 0.0426535068,
				"y": 0.2298376921,
				"z": 0.0041618454,
				"element": "C" 
			},
			{
				"x": -1.3169887685,
				"y": 0.5446571159,
				"z": 0.0429628986,
				"element": "C" 
			},
			{
				"x": -2.2795787981,
				"y": -0.4543546819,
				"z": 0.2067988599,
				"element": "C" 
			},
			{
				"x": -1.8726718801,
				"y": -1.8004128589,
				"z": 0.330891444,
				"element": "C" 
			},
			{
				"x": -2.7390105748,
				"y": -2.8505381456,
				"z": 0.5118346344,
				"element": "O" 
			},
			{
				"x": -3.883133366,
				"y": -2.5993332169,
				"z": 1.3429123948,
				"element": "C" 
			},
			{
				"x": -5.0440902821,
				"y": -2.0016182866,
				"z": 0.5466032183,
				"element": "C" 
			},
			{
				"x": -4.5427721355,
				"y": -0.9109004846,
				"z": -0.4016792304,
				"element": "C" 
			},
			{
				"x": -3.5910325713,
				"y": -0.0463538084,
				"z": 0.236820115,
				"element": "O" 
			},
			{
				"x": -0.5119900064,
				"y": -2.1093835743,
				"z": 0.2450564052,
				"element": "C" 
			},
			{
				"x": 0.4422855443,
				"y": -1.1104605596,
				"z": 0.078753493,
				"element": "C" 
			},
			{
				"x": 0.8971453703,
				"y": 1.4301503012,
				"z": 3.9630471516,
				"element": "H" 
			},
			{
				"x": 2.1122105276,
				"y": 0.7065523544,
				"z": 2.8924953119,
				"element": "H" 
			},
			{
				"x": 0.3860100955,
				"y": 0.4001389735,
				"z": 2.6117465168,
				"element": "H" 
			},
			{
				"x": 1.7504603966,
				"y": 3.1554322947,
				"z": 2.4379317382,
				"element": "H" 
			},
			{
				"x": 1.5068385292,
				"y": 1.2235517597,
				"z": -1.1146419568,
				"element": "H" 
			},
			{
				"x": -1.6512687831,
				"y": 1.5690450037,
				"z": -0.0622596021,
				"element": "H" 
			},
			{
				"x": -3.5955622487,
				"y": -1.9326839878,
				"z": 2.1636958674,
				"element": "H" 
			},
			{
				"x": -4.1556841146,
				"y": -3.5680120142,
				"z": 1.7705190875,
				"element": "H" 
			},
			{
				"x": -5.5493015619,
				"y": -2.7745778489,
				"z": -0.0443713949,
				"element": "H" 
			},
			{
				"x": -5.7786745498,
				"y": -1.5958428789,
				"z": 1.2520188821,
				"element": "H" 
			},
			{
				"x": -4.088190884,
				"y": -1.355311201,
				"z": -1.294392748,
				"element": "H" 
			},
			{
				"x": -5.361685376,
				"y": -0.2622657465,
				"z": -0.7242040534,
				"element": "H" 
			},
			{
				"x": -0.2243578805,
				"y": -3.1518159974,
				"z": 0.333886696,
				"element": "H" 
			},
			{
				"x": 1.4972694157,
				"y": -1.361065887,
				"z": 0.030633607,
				"element": "H" 
			}
		],
		 "valence_orbital": [ 
			{
				"type": "occ",
				"energy": -0.29426,
				"method": "rhf"
			},
			{
				"type": "occ",
				"energy": -0.26658,
				"method": "rhf"
			},
			{
				"type": "occ",
				"energy": -0.25425,
				"method": "rhf"
			},
			{
				"type": "occ",
				"energy": -0.2438,
				"method": "rhf"
			},
			{
				"type": "occ",
				"energy": -0.22017,
				"method": "rhf"
			},
			{
				"type": "unocc",
				"energy": -0.01692,
				"method": "rhf"
			},
			{
				"type": "unocc",
				"energy": -0.00953,
				"method": "rhf"
			},
			{
				"type": "unocc",
				"energy": -0.00264,
				"method": "rhf"
			},
			{
				"type": "unocc",
				"energy": 0.06159,
				"method": "rhf"
			},
			{
				"type": "unocc",
				"energy": 0.06838,
				"method": "rhf"
			}
		],
		"cosmo_sigma_profile": { 
			"-0.025": 0.0,
			"-0.024": 0.0,
			"-0.023": 0.0,
			"-0.022": 0.0,
			"-0.021": 0.0,
			"-0.02": 0.0,
			"-0.019": 0.0,
			"-0.018": 0.0,
			"-0.017": 0.0,
			"-0.016": 0.0,
			"-0.015": 0.104110086404,
			"-0.014": 0.783439147915,
			"-0.013": 1.12347241707,
			"-0.012": 0.75791919735,
			"-0.011": 0.848968499264,
			"-0.01": 0.741952162669,
			"-0.009": 1.06389054793,
			"-0.008": 1.84563234671,
			"-0.007": 3.14684469983,
			"-0.006": 12.0768986757,
			"-0.005": 24.1273228752,
			"-0.004": 31.4293487643,
			"-0.003": 25.8968509659,
			"-0.002": 22.0800907665,
			"-0.001": 20.5264362829,
			"0.0": 18.1455582094,
			"0.001": 16.95906657,
			"0.002": 17.1341825864,
			"0.003": 17.318096504,
			"0.004": 14.2331020442,
			"0.005": 9.90263147783,
			"0.006": 9.98069843271,
			"0.007": 3.93633704656,
			"0.008": 3.22413210859,
			"0.009": 2.93290865384,
			"0.01": 4.21458484984,
			"0.011": 3.44975089437,
			"0.012": 3.72204383926,
			"0.013": 5.27438901124,
			"0.014": 1.11249237026,
			"0.015": 0.0,
			"0.016": 0.0,
			"0.017": 0.0,
			"0.018": 0.0,
			"0.019": 0.0,
			"0.02": 0.0,
			"0.021": 0.0,
			"0.022": 0.0,
			"0.023": 0.0,
			"0.024": 0.0,
			"0.025": 0.0
		}
	}
}
