{
	 "smiles": "CCOC(=O)C1=NN=C(N)S1", 
	 "Tm": 471.15, 
	 "num_atms": 18, 
	 "gaussian": { 
		 "optdone": 1, 
		 "sigma_profile": "yes", 
		 "theory": "DFT", 
		 "functional": "B3LYP", 
		 "basiset": "6-31G**", 
		 "properties": { 
			 "R2extent": 3572.0428, 
			 "electric_dipole_moment_norm": 2.46736148345, 
			 "electric_quadrupole_moment_norm": 25.4469922675, 
			 "total_energy": -907.619202391, 
			 "HOMO_LUMO_gap": 0.18118, 
			 "cosmo_polarized_energy": -17.22, 
			 "cosmo_cavitation_energy": 24.87, 
			 "cosmo_dispersion_energy": -18.92, 
			 "cosmo_repulsion_energy": 1.51, 
			 "cosmo_total_nonelectrostatic_energy": 7.46, 
			 "SMD_solvation_energy": 3.52 
		},
		"coords": [
			{
				"x": -0.9511478825,
				"y": -1.1697314443,
				"z": 2.8861901727,
				"element": "C" 
			},
			{
				"x": -0.4588992942,
				"y": 0.2081185857,
				"z": 2.4711093628,
				"element": "C" 
			},
			{
				"x": 0.1238619628,
				"y": 0.1797053691,
				"z": 1.1431405267,
				"element": "O" 
			},
			{
				"x": 1.4144018597,
				"y": -0.1693003713,
				"z": 1.0697639318,
				"element": "C" 
			},
			{
				"x": 2.1274289745,
				"y": -0.4530970676,
				"z": 2.015651039,
				"element": "O" 
			},
			{
				"x": 1.9185688165,
				"y": -0.1732317984,
				"z": -0.3222853395,
				"element": "C" 
			},
			{
				"x": 1.2455618673,
				"y": 0.0983269487,
				"z": -1.4009850875,
				"element": "N" 
			},
			{
				"x": 1.969237692,
				"y": -0.004572213,
				"z": -2.5418604585,
				"element": "N" 
			},
			{
				"x": 3.2212661762,
				"y": -0.3531849182,
				"z": -2.3102480155,
				"element": "C" 
			},
			{
				"x": 4.1437078814,
				"y": -0.4537075905,
				"z": -3.3098292445,
				"element": "N" 
			},
			{
				"x": 3.6095847966,
				"y": -0.5927705096,
				"z": -0.6186078471,
				"element": "S" 
			},
			{
				"x": -1.6579550325,
				"y": -1.5672365826,
				"z": 2.1522876874,
				"element": "H" 
			},
			{
				"x": -1.459367367,
				"y": -1.1037949586,
				"z": 3.8539690649,
				"element": "H" 
			},
			{
				"x": -0.1136841717,
				"y": -1.8645330062,
				"z": 2.9860707359,
				"element": "H" 
			},
			{
				"x": 0.2838324593,
				"y": 0.5930507267,
				"z": 3.1738255785,
				"element": "H" 
			},
			{
				"x": -1.2821675602,
				"y": 0.9201919949,
				"z": 2.3831298408,
				"element": "H" 
			},
			{
				"x": 3.7487210808,
				"y": -0.4458290713,
				"z": -4.2406391549,
				"element": "H" 
			},
			{
				"x": 4.940947741,
				"y": -1.0562040934,
				"z": -3.176882793,
				"element": "H" 
			}
		],
		 "valence_orbital": [ 
			{
				"type": "occ",
				"energy": -0.30505,
				"method": "rhf"
			},
			{
				"type": "occ",
				"energy": -0.29537,
				"method": "rhf"
			},
			{
				"type": "occ",
				"energy": -0.28181,
				"method": "rhf"
			},
			{
				"type": "occ",
				"energy": -0.26412,
				"method": "rhf"
			},
			{
				"type": "occ",
				"energy": -0.24211,
				"method": "rhf"
			},
			{
				"type": "unocc",
				"energy": -0.06093,
				"method": "rhf"
			},
			{
				"type": "unocc",
				"energy": -0.00434,
				"method": "rhf"
			},
			{
				"type": "unocc",
				"energy": 0.01796,
				"method": "rhf"
			},
			{
				"type": "unocc",
				"energy": 0.05975,
				"method": "rhf"
			},
			{
				"type": "unocc",
				"energy": 0.08401,
				"method": "rhf"
			}
		],
		"cosmo_sigma_profile": { 
			"-0.025": 0.0,
			"-0.024": 0.0,
			"-0.023": 0.0,
			"-0.022": 0.0,
			"-0.021": 0.0,
			"-0.02": 0.0,
			"-0.019": 0.0,
			"-0.018": 0.0,
			"-0.017": 0.0,
			"-0.016": 1.03177365627,
			"-0.015": 2.75271953878,
			"-0.014": 2.62867807347,
			"-0.013": 3.3231655458,
			"-0.012": 2.30442895405,
			"-0.011": 2.08104023063,
			"-0.01": 1.82910065779,
			"-0.009": 2.10456351932,
			"-0.008": 1.98262643872,
			"-0.007": 1.68113312413,
			"-0.006": 4.10935899317,
			"-0.005": 8.84034375548,
			"-0.004": 17.2557990024,
			"-0.003": 17.0702875031,
			"-0.002": 17.9136467691,
			"-0.001": 17.0348517387,
			"0.0": 17.0915148968,
			"0.001": 13.3267442339,
			"0.002": 8.95361754972,
			"0.003": 5.5009211272,
			"0.004": 5.34727760774,
			"0.005": 4.65180421475,
			"0.006": 4.51441556207,
			"0.007": 4.78866783561,
			"0.008": 4.62396316543,
			"0.009": 5.78552077661,
			"0.01": 4.76738479549,
			"0.011": 7.2650414356,
			"0.012": 4.35260585155,
			"0.013": 2.51970542765,
			"0.014": 2.26074000255,
			"0.015": 0.371599248403,
			"0.016": 0.0,
			"0.017": 0.0,
			"0.018": 0.0,
			"0.019": 0.0,
			"0.02": 0.0,
			"0.021": 0.0,
			"0.022": 0.0,
			"0.023": 0.0,
			"0.024": 0.0,
			"0.025": 0.0
		}
	}
}
