{
	 "smiles": "FC1=CC=C(C=O)C=C1", 
	 "Tm": 263.15, 
	 "num_atms": 14, 
	 "gaussian": { 
		 "optdone": 1, 
		 "sigma_profile": "yes", 
		 "theory": "DFT", 
		 "functional": "B3LYP", 
		 "basiset": "6-31G**", 
		 "properties": { 
			 "R2extent": 1842.8867, 
			 "electric_dipole_moment_norm": 2.29966040971, 
			 "electric_quadrupole_moment_norm": 11.1413716911, 
			 "total_energy": -444.807065646, 
			 "HOMO_LUMO_gap": 0.19393, 
			 "cosmo_polarized_energy": -7.19, 
			 "cosmo_cavitation_energy": 19.28, 
			 "cosmo_dispersion_energy": -13.99, 
			 "cosmo_repulsion_energy": 1.11, 
			 "cosmo_total_nonelectrostatic_energy": 6.4, 
			 "SMD_solvation_energy": 4.99 
		},
		"coords": [
			{
				"x": -2.4896788169,
				"y": 2.6299345339,
				"z": 0.9755214717,
				"element": "F" 
			},
			{
				"x": -1.2628185929,
				"y": 2.084008571,
				"z": 0.9035630522,
				"element": "C" 
			},
			{
				"x": -1.0082885004,
				"y": 0.9123042318,
				"z": 1.6171394549,
				"element": "C" 
			},
			{
				"x": 0.2599823263,
				"y": 0.3518251916,
				"z": 1.540097138,
				"element": "C" 
			},
			{
				"x": 1.2577927697,
				"y": 0.9579677333,
				"z": 0.7587721032,
				"element": "C" 
			},
			{
				"x": 2.6065792518,
				"y": 0.3580508639,
				"z": 0.6794538495,
				"element": "C" 
			},
			{
				"x": 2.9460006627,
				"y": -0.6585036059,
				"z": 1.2553094104,
				"element": "O" 
			},
			{
				"x": 0.9702647464,
				"y": 2.1348715846,
				"z": 0.0536541576,
				"element": "C" 
			},
			{
				"x": -0.2964810354,
				"y": 2.7092492236,
				"z": 0.1205935881,
				"element": "C" 
			},
			{
				"x": -1.799298385,
				"y": 0.4681015632,
				"z": 2.2114971219,
				"element": "H" 
			},
			{
				"x": 0.5058646623,
				"y": -0.558701044,
				"z": 2.0770673544,
				"element": "H" 
			},
			{
				"x": 3.3227549589,
				"y": 0.9151973892,
				"z": 0.0345419895,
				"element": "H" 
			},
			{
				"x": 1.7446754415,
				"y": 2.6017117963,
				"z": -0.5502696245,
				"element": "H" 
			},
			{
				"x": -0.546849489,
				"y": 3.6187819674,
				"z": -0.4140410669,
				"element": "H" 
			}
		],
		 "valence_orbital": [ 
			{
				"type": "occ",
				"energy": -0.36186,
				"method": "rhf"
			},
			{
				"type": "occ",
				"energy": -0.35984,
				"method": "rhf"
			},
			{
				"type": "occ",
				"energy": -0.27872,
				"method": "rhf"
			},
			{
				"type": "occ",
				"energy": -0.2615,
				"method": "rhf"
			},
			{
				"type": "occ",
				"energy": -0.25883,
				"method": "rhf"
			},
			{
				"type": "unocc",
				"energy": -0.0649,
				"method": "rhf"
			},
			{
				"type": "unocc",
				"energy": -0.02666,
				"method": "rhf"
			},
			{
				"type": "unocc",
				"energy": 0.03776,
				"method": "rhf"
			},
			{
				"type": "unocc",
				"energy": 0.08064,
				"method": "rhf"
			},
			{
				"type": "unocc",
				"energy": 0.11061,
				"method": "rhf"
			}
		],
		"cosmo_sigma_profile": { 
			"-0.025": 0.0,
			"-0.024": 0.0,
			"-0.023": 0.0,
			"-0.022": 0.0,
			"-0.021": 0.0,
			"-0.02": 0.0,
			"-0.019": 0.0,
			"-0.018": 0.0,
			"-0.017": 0.0,
			"-0.016": 0.0,
			"-0.015": 0.0,
			"-0.014": 0.0,
			"-0.013": 0.0,
			"-0.012": 0.0,
			"-0.011": 0.0,
			"-0.01": 0.0,
			"-0.009": 0.0470260033472,
			"-0.008": 4.86856153852,
			"-0.007": 9.12659706529,
			"-0.006": 10.5347822819,
			"-0.005": 9.47592073091,
			"-0.004": 7.53436531352,
			"-0.003": 8.28390101201,
			"-0.002": 7.69956612942,
			"-0.001": 12.5375546709,
			"0.0": 13.7231420387,
			"0.001": 16.3508269344,
			"0.002": 16.4541141786,
			"0.003": 10.677206891,
			"0.004": 9.33394080988,
			"0.005": 1.54656174843,
			"0.006": 1.14447010239,
			"0.007": 1.73486953892,
			"0.008": 1.68070158929,
			"0.009": 2.05443946163,
			"0.01": 2.71068957575,
			"0.011": 3.859956084,
			"0.012": 3.1799926072,
			"0.013": 0.835301181976,
			"0.014": 0.0,
			"0.015": 0.0,
			"0.016": 0.0,
			"0.017": 0.0,
			"0.018": 0.0,
			"0.019": 0.0,
			"0.02": 0.0,
			"0.021": 0.0,
			"0.022": 0.0,
			"0.023": 0.0,
			"0.024": 0.0,
			"0.025": 0.0
		}
	}
}
