{
	 "smiles": "OC(=O)C1=NC(Cl)=C(Cl)C(Cl)=C1Cl", 
	 "Tm": 445.15, 
	 "num_atms": 14, 
	 "gaussian": { 
		 "optdone": 1, 
		 "sigma_profile": "yes", 
		 "theory": "DFT", 
		 "functional": "B3LYP", 
		 "basiset": "6-31G**", 
		 "properties": { 
			 "R2extent": 6383.0457, 
			 "electric_dipole_moment_norm": 2.22459494066, 
			 "electric_quadrupole_moment_norm": 11.9606689324, 
			 "total_energy": -2275.18901196, 
			 "HOMO_LUMO_gap": 0.19555, 
			 "cosmo_polarized_energy": -10.17, 
			 "cosmo_cavitation_energy": 27.01, 
			 "cosmo_dispersion_energy": -20.29, 
			 "cosmo_repulsion_energy": 1.63, 
			 "cosmo_total_nonelectrostatic_energy": 8.36, 
			 "SMD_solvation_energy": 3.71 
		},
		"coords": [
			{
				"x": 4.1770635381,
				"y": 1.375306297,
				"z": -1.031984703,
				"element": "O" 
			},
			{
				"x": 3.5075650171,
				"y": 0.3404092703,
				"z": -1.5728199858,
				"element": "C" 
			},
			{
				"x": 4.0064696044,
				"y": -0.717502261,
				"z": -1.8673251888,
				"element": "O" 
			},
			{
				"x": 2.0318356064,
				"y": 0.6374229889,
				"z": -1.7301929114,
				"element": "C" 
			},
			{
				"x": 1.2330215739,
				"y": -0.2245144224,
				"z": -1.0971629024,
				"element": "N" 
			},
			{
				"x": -0.0734266994,
				"y": -0.0848663375,
				"z": -1.1736459806,
				"element": "C" 
			},
			{
				"x": -1.0310392734,
				"y": -1.2477841905,
				"z": -0.2955453892,
				"element": "Cl" 
			},
			{
				"x": -0.6969702292,
				"y": 0.9356492108,
				"z": -1.9181544467,
				"element": "C" 
			},
			{
				"x": -2.4184858845,
				"y": 1.0749686669,
				"z": -1.9943614053,
				"element": "Cl" 
			},
			{
				"x": 0.1337002392,
				"y": 1.8353034537,
				"z": -2.6052017489,
				"element": "C" 
			},
			{
				"x": -0.5496616829,
				"y": 3.1046819936,
				"z": -3.557799477,
				"element": "Cl" 
			},
			{
				"x": 1.5301857683,
				"y": 1.6873760708,
				"z": -2.5078945906,
				"element": "C" 
			},
			{
				"x": 2.5964204112,
				"y": 2.752852807,
				"z": -3.3691437562,
				"element": "Cl" 
			},
			{
				"x": 5.1080220107,
				"y": 1.1001964523,
				"z": -0.9645675141,
				"element": "H" 
			}
		],
		 "valence_orbital": [ 
			{
				"type": "occ",
				"energy": -0.32443,
				"method": "rhf"
			},
			{
				"type": "occ",
				"energy": -0.31185,
				"method": "rhf"
			},
			{
				"type": "occ",
				"energy": -0.30023,
				"method": "rhf"
			},
			{
				"type": "occ",
				"energy": -0.2931,
				"method": "rhf"
			},
			{
				"type": "occ",
				"energy": -0.27521,
				"method": "rhf"
			},
			{
				"type": "unocc",
				"energy": -0.07966,
				"method": "rhf"
			},
			{
				"type": "unocc",
				"energy": -0.06711,
				"method": "rhf"
			},
			{
				"type": "unocc",
				"energy": -0.04271,
				"method": "rhf"
			},
			{
				"type": "unocc",
				"energy": -0.00664,
				"method": "rhf"
			},
			{
				"type": "unocc",
				"energy": 0.00941,
				"method": "rhf"
			}
		],
		"cosmo_sigma_profile": { 
			"-0.025": 0.0,
			"-0.024": 0.0,
			"-0.023": 0.0,
			"-0.022": 0.0,
			"-0.021": 0.0,
			"-0.02": 0.155132182644,
			"-0.019": 0.960108628961,
			"-0.018": 1.22054944923,
			"-0.017": 0.494940006748,
			"-0.016": 0.760678757966,
			"-0.015": 1.04540939171,
			"-0.014": 0.686162183687,
			"-0.013": 0.682223689626,
			"-0.012": 0.835163632472,
			"-0.011": 0.863797121263,
			"-0.01": 0.377698423337,
			"-0.009": 0.862583271238,
			"-0.008": 0.682086077017,
			"-0.007": 1.88150039866,
			"-0.006": 3.53802028836,
			"-0.005": 12.8302895083,
			"-0.004": 19.3934667758,
			"-0.003": 17.5103369489,
			"-0.002": 16.4689527046,
			"-0.001": 15.8672382173,
			"0.0": 17.8099338979,
			"0.001": 23.8951843304,
			"0.002": 32.018619564,
			"0.003": 20.8639574627,
			"0.004": 5.57076691514,
			"0.005": 3.23936100007,
			"0.006": 4.92730121357,
			"0.007": 4.07548738503,
			"0.008": 3.78992596597,
			"0.009": 4.10824177302,
			"0.01": 6.64333531532,
			"0.011": 2.91129191874,
			"0.012": 0.0987352332033,
			"0.013": 0.0,
			"0.014": 0.0,
			"0.015": 0.0,
			"0.016": 0.0,
			"0.017": 0.0,
			"0.018": 0.0,
			"0.019": 0.0,
			"0.02": 0.0,
			"0.021": 0.0,
			"0.022": 0.0,
			"0.023": 0.0,
			"0.024": 0.0,
			"0.025": 0.0
		}
	}
}
