{
	 "smiles": "NS(=O)(=O)C1=NC=C(C=C1)C(F)(F)F", 
	 "Tm": 448.15, 
	 "num_atms": 19, 
	 "gaussian": { 
		 "optdone": 1, 
		 "sigma_profile": "yes", 
		 "theory": "DFT", 
		 "functional": "B3LYP", 
		 "basiset": "6-31G**", 
		 "properties": { 
			 "R2extent": 4624.2812, 
			 "electric_dipole_moment_norm": 4.30596726184, 
			 "electric_quadrupole_moment_norm": 26.2444330773, 
			 "total_energy": -1189.23571484, 
			 "HOMO_LUMO_gap": 0.21678, 
			 "cosmo_polarized_energy": -17.68, 
			 "cosmo_cavitation_energy": 27.03, 
			 "cosmo_dispersion_energy": -19.92, 
			 "cosmo_repulsion_energy": 1.46, 
			 "cosmo_total_nonelectrostatic_energy": 8.57, 
			 "SMD_solvation_energy": 4.38 
		},
		"coords": [
			{
				"x": -2.0341858882,
				"y": -1.1166859262,
				"z": 3.3683843682,
				"element": "N" 
			},
			{
				"x": -1.9769746113,
				"y": 0.5065681128,
				"z": 2.9776596077,
				"element": "S" 
			},
			{
				"x": -0.8188623076,
				"y": 1.0742101668,
				"z": 3.6596189069,
				"element": "O" 
			},
			{
				"x": -3.3280071991,
				"y": 1.0402885868,
				"z": 3.1496502735,
				"element": "O" 
			},
			{
				"x": -1.6190368917,
				"y": 0.5527059199,
				"z": 1.1945584006,
				"element": "C" 
			},
			{
				"x": -0.7190719924,
				"y": -0.3318154014,
				"z": 0.7728363365,
				"element": "N" 
			},
			{
				"x": -0.3853629295,
				"y": -0.2965939273,
				"z": -0.5206311138,
				"element": "C" 
			},
			{
				"x": -0.939631527,
				"y": 0.6206037348,
				"z": -1.4189232283,
				"element": "C" 
			},
			{
				"x": -1.8912627708,
				"y": 1.5310967348,
				"z": -0.9555437279,
				"element": "C" 
			},
			{
				"x": -2.249234279,
				"y": 1.5000317233,
				"z": 0.389964465,
				"element": "C" 
			},
			{
				"x": -0.4879920689,
				"y": 0.6487443201,
				"z": -2.855872578,
				"element": "C" 
			},
			{
				"x": 0.5264649482,
				"y": 1.5207675367,
				"z": -3.0334554593,
				"element": "F" 
			},
			{
				"x": -1.4890977764,
				"y": 1.02765869,
				"z": -3.677781756,
				"element": "F" 
			},
			{
				"x": -0.0534281455,
				"y": -0.561739183,
				"z": -3.2624150661,
				"element": "F" 
			},
			{
				"x": -1.1743893984,
				"y": -1.5914866578,
				"z": 3.1051805603,
				"element": "H" 
			},
			{
				"x": -2.8608424136,
				"y": -1.5688293391,
				"z": 2.9887688468,
				"element": "H" 
			},
			{
				"x": 0.3413671188,
				"y": -1.0298770354,
				"z": -0.8580973911,
				"element": "H" 
			},
			{
				"x": -2.3489713083,
				"y": 2.239662595,
				"z": -1.6377647698,
				"element": "H" 
			},
			{
				"x": -2.9926805593,
				"y": 2.1679893491,
				"z": 0.8083633247,
				"element": "H" 
			}
		],
		 "valence_orbital": [ 
			{
				"type": "occ",
				"energy": -0.3284,
				"method": "rhf"
			},
			{
				"type": "occ",
				"energy": -0.32217,
				"method": "rhf"
			},
			{
				"type": "occ",
				"energy": -0.31066,
				"method": "rhf"
			},
			{
				"type": "occ",
				"energy": -0.29722,
				"method": "rhf"
			},
			{
				"type": "occ",
				"energy": -0.29522,
				"method": "rhf"
			},
			{
				"type": "unocc",
				"energy": -0.07844,
				"method": "rhf"
			},
			{
				"type": "unocc",
				"energy": -0.06234,
				"method": "rhf"
			},
			{
				"type": "unocc",
				"energy": 0.04695,
				"method": "rhf"
			},
			{
				"type": "unocc",
				"energy": 0.06521,
				"method": "rhf"
			},
			{
				"type": "unocc",
				"energy": 0.0721,
				"method": "rhf"
			}
		],
		"cosmo_sigma_profile": { 
			"-0.025": 0.0,
			"-0.024": 0.0,
			"-0.023": 0.0,
			"-0.022": 0.0,
			"-0.021": 0.0,
			"-0.02": 0.0,
			"-0.019": 0.0,
			"-0.018": 0.0,
			"-0.017": 0.0,
			"-0.016": 0.896359340419,
			"-0.015": 1.83194201595,
			"-0.014": 2.6966982506,
			"-0.013": 1.96186135125,
			"-0.012": 2.10020315581,
			"-0.011": 1.69995351503,
			"-0.01": 2.21659560976,
			"-0.009": 6.22105444918,
			"-0.008": 7.82403269435,
			"-0.007": 6.87153361311,
			"-0.006": 6.74447561168,
			"-0.005": 6.63732107204,
			"-0.004": 9.09923590846,
			"-0.003": 14.7370989532,
			"-0.002": 16.6189769735,
			"-0.001": 13.70919774,
			"0.0": 8.7927546598,
			"0.001": 12.5666735583,
			"0.002": 28.949284071,
			"0.003": 14.2845324515,
			"0.004": 3.84971516569,
			"0.005": 4.38562926162,
			"0.006": 5.01213587858,
			"0.007": 5.58637672631,
			"0.008": 4.19594934094,
			"0.009": 5.39718935708,
			"0.01": 11.7927333512,
			"0.011": 9.53062111488,
			"0.012": 0.976051799324,
			"0.013": 0.0113950253602,
			"0.014": 0.0,
			"0.015": 0.0,
			"0.016": 0.0,
			"0.017": 0.0,
			"0.018": 0.0,
			"0.019": 0.0,
			"0.02": 0.0,
			"0.021": 0.0,
			"0.022": 0.0,
			"0.023": 0.0,
			"0.024": 0.0,
			"0.025": 0.0
		}
	}
}
