{
	 "smiles": "CCC(C)CC", 
	 "Tm": 155.15, 
	 "num_atms": 20, 
	 "gaussian": { 
		 "optdone": 1, 
		 "sigma_profile": "yes", 
		 "theory": "DFT", 
		 "functional": "B3LYP", 
		 "basiset": "6-31G**", 
		 "properties": { 
			 "R2extent": 1579.5712, 
			 "electric_dipole_moment_norm": 0.0459473611865, 
			 "electric_quadrupole_moment_norm": 0.487992581911, 
			 "total_energy": -237.098170225, 
			 "HOMO_LUMO_gap": 0.39219, 
			 "cosmo_polarized_energy": -0.58, 
			 "cosmo_cavitation_energy": 20.73, 
			 "cosmo_dispersion_energy": -15.14, 
			 "cosmo_repulsion_energy": 1.31, 
			 "cosmo_total_nonelectrostatic_energy": 6.9, 
			 "SMD_solvation_energy": 3.71 
		},
		"coords": [
			{
				"x": 1.2185900321,
				"y": 0.1521329412,
				"z": -1.6216563556,
				"element": "C" 
			},
			{
				"x": 0.7037422658,
				"y": -0.7274958754,
				"z": -0.4756569487,
				"element": "C" 
			},
			{
				"x": 0.5821758015,
				"y": -2.2279612096,
				"z": -0.8130147977,
				"element": "C" 
			},
			{
				"x": -0.4482555922,
				"y": -2.4823509838,
				"z": -1.924792015,
				"element": "C" 
			},
			{
				"x": 0.2340399708,
				"y": -3.0731588487,
				"z": 0.4311584053,
				"element": "C" 
			},
			{
				"x": 1.313314228,
				"y": -3.1147370121,
				"z": 1.5195650794,
				"element": "C" 
			},
			{
				"x": 1.3442876291,
				"y": 1.1889434201,
				"z": -1.2922834676,
				"element": "H" 
			},
			{
				"x": 0.533527751,
				"y": 0.1624564304,
				"z": -2.4751063136,
				"element": "H" 
			},
			{
				"x": 2.192215949,
				"y": -0.1998633994,
				"z": -1.9825672906,
				"element": "H" 
			},
			{
				"x": -0.2784762562,
				"y": -0.3604232045,
				"z": -0.143799557,
				"element": "H" 
			},
			{
				"x": 1.3772030098,
				"y": -0.6053256092,
				"z": 0.3807879308,
				"element": "H" 
			},
			{
				"x": 1.5644240314,
				"y": -2.56767823,
				"z": -1.179230783,
				"element": "H" 
			},
			{
				"x": -1.4471697547,
				"y": -2.1515777463,
				"z": -1.6134750085,
				"element": "H" 
			},
			{
				"x": -0.513140382,
				"y": -3.5496185299,
				"z": -2.1632708672,
				"element": "H" 
			},
			{
				"x": -0.1972306089,
				"y": -1.9542781571,
				"z": -2.8494118604,
				"element": "H" 
			},
			{
				"x": -0.7080912353,
				"y": -2.7027941356,
				"z": 0.8606512021,
				"element": "H" 
			},
			{
				"x": 0.0296347843,
				"y": -4.100913648,
				"z": 0.1030474285,
				"element": "H" 
			},
			{
				"x": 1.0220989406,
				"y": -3.7892707972,
				"z": 2.3316302612,
				"element": "H" 
			},
			{
				"x": 2.2667275519,
				"y": -3.4756354302,
				"z": 1.1161779172,
				"element": "H" 
			},
			{
				"x": 1.493681884,
				"y": -2.1310499748,
				"z": 1.9642470404,
				"element": "H" 
			}
		],
		 "valence_orbital": [ 
			{
				"type": "occ",
				"energy": -0.3448,
				"method": "rhf"
			},
			{
				"type": "occ",
				"energy": -0.33648,
				"method": "rhf"
			},
			{
				"type": "occ",
				"energy": -0.31255,
				"method": "rhf"
			},
			{
				"type": "occ",
				"energy": -0.30586,
				"method": "rhf"
			},
			{
				"type": "occ",
				"energy": -0.30344,
				"method": "rhf"
			},
			{
				"type": "unocc",
				"energy": 0.08875,
				"method": "rhf"
			},
			{
				"type": "unocc",
				"energy": 0.11004,
				"method": "rhf"
			},
			{
				"type": "unocc",
				"energy": 0.12169,
				"method": "rhf"
			},
			{
				"type": "unocc",
				"energy": 0.12876,
				"method": "rhf"
			},
			{
				"type": "unocc",
				"energy": 0.15601,
				"method": "rhf"
			}
		],
		"cosmo_sigma_profile": { 
			"-0.025": 0.0,
			"-0.024": 0.0,
			"-0.023": 0.0,
			"-0.022": 0.0,
			"-0.021": 0.0,
			"-0.02": 0.0,
			"-0.019": 0.0,
			"-0.018": 0.0,
			"-0.017": 0.0,
			"-0.016": 0.0,
			"-0.015": 0.0,
			"-0.014": 0.0,
			"-0.013": 0.0,
			"-0.012": 0.0,
			"-0.011": 0.0,
			"-0.01": 0.0,
			"-0.009": 0.0,
			"-0.008": 0.0,
			"-0.007": 0.0,
			"-0.006": 0.0,
			"-0.005": 0.0,
			"-0.004": 0.0,
			"-0.003": 4.53738204602,
			"-0.002": 21.7956681386,
			"-0.001": 32.29441622,
			"0.0": 35.966598992,
			"0.001": 40.1444330527,
			"0.002": 22.8704099906,
			"0.003": 1.20536671303,
			"0.004": 0.0,
			"0.005": 0.0,
			"0.006": 0.0,
			"0.007": 0.0,
			"0.008": 0.0,
			"0.009": 0.0,
			"0.01": 0.0,
			"0.011": 0.0,
			"0.012": 0.0,
			"0.013": 0.0,
			"0.014": 0.0,
			"0.015": 0.0,
			"0.016": 0.0,
			"0.017": 0.0,
			"0.018": 0.0,
			"0.019": 0.0,
			"0.02": 0.0,
			"0.021": 0.0,
			"0.022": 0.0,
			"0.023": 0.0,
			"0.024": 0.0,
			"0.025": 0.0
		}
	}
}
