{
	 "smiles": "CC1=CC=NC=C1CNC(=O)C1=CC=CC=C1", 
	 "Tm": 385.15, 
	 "num_atms": 31, 
	 "gaussian": { 
		 "optdone": 1, 
		 "sigma_profile": "yes", 
		 "theory": "DFT", 
		 "functional": "B3LYP", 
		 "basiset": "6-31G**", 
		 "properties": { 
			 "R2extent": 5574.8543, 
			 "electric_dipole_moment_norm": 5.25031444582, 
			 "electric_quadrupole_moment_norm": 11.2092751643, 
			 "total_energy": -726.674164387, 
			 "HOMO_LUMO_gap": 0.20543, 
			 "cosmo_polarized_energy": -17.26, 
			 "cosmo_cavitation_energy": 35.06, 
			 "cosmo_dispersion_energy": -24.88, 
			 "cosmo_repulsion_energy": 1.91, 
			 "cosmo_total_nonelectrostatic_energy": 12.09, 
			 "SMD_solvation_energy": 4.24 
		},
		"coords": [
			{
				"x": -2.8006656809,
				"y": 1.5346886972,
				"z": 1.0457763476,
				"element": "C" 
			},
			{
				"x": -1.348100539,
				"y": 1.9284735137,
				"z": 0.9025136397,
				"element": "C" 
			},
			{
				"x": -1.0061911973,
				"y": 3.2014300218,
				"z": 0.431923918,
				"element": "C" 
			},
			{
				"x": 0.3349248986,
				"y": 3.5584848101,
				"z": 0.3093256517,
				"element": "C" 
			},
			{
				"x": 1.3485710689,
				"y": 2.7428241353,
				"z": 0.622696543,
				"element": "N" 
			},
			{
				"x": 1.0220874758,
				"y": 1.5272506786,
				"z": 1.0746643259,
				"element": "C" 
			},
			{
				"x": -0.2909375641,
				"y": 1.0609996734,
				"z": 1.2354246478,
				"element": "C" 
			},
			{
				"x": -0.510402151,
				"y": -0.3539778635,
				"z": 1.7416139245,
				"element": "C" 
			},
			{
				"x": -0.3858585072,
				"y": -1.3780117984,
				"z": 0.7035560831,
				"element": "N" 
			},
			{
				"x": 0.8068303892,
				"y": -2.0244084107,
				"z": 0.4879052757,
				"element": "C" 
			},
			{
				"x": 1.7919285086,
				"y": -1.8397959829,
				"z": 1.1994397136,
				"element": "O" 
			},
			{
				"x": 0.8378599133,
				"y": -2.9855074102,
				"z": -0.667099642,
				"element": "C" 
			},
			{
				"x": -0.31165295,
				"y": -3.5738666813,
				"z": -1.2140016931,
				"element": "C" 
			},
			{
				"x": -0.2064799013,
				"y": -4.4622521754,
				"z": -2.2845172945,
				"element": "C" 
			},
			{
				"x": 1.0468290537,
				"y": -4.7700719315,
				"z": -2.8171909075,
				"element": "C" 
			},
			{
				"x": 2.196960321,
				"y": -4.1974627159,
				"z": -2.2675500075,
				"element": "C" 
			},
			{
				"x": 2.093601923,
				"y": -3.3160654865,
				"z": -1.1940223216,
				"element": "C" 
			},
			{
				"x": -3.0652499042,
				"y": 1.3393308715,
				"z": 2.0913725328,
				"element": "H" 
			},
			{
				"x": -3.4560185005,
				"y": 2.3301507219,
				"z": 0.6824495281,
				"element": "H" 
			},
			{
				"x": -3.0387060958,
				"y": 0.626462767,
				"z": 0.4805057975,
				"element": "H" 
			},
			{
				"x": -1.7830690829,
				"y": 3.9119708727,
				"z": 0.1626216679,
				"element": "H" 
			},
			{
				"x": 0.6066078038,
				"y": 4.5474762642,
				"z": -0.0567263718,
				"element": "H" 
			},
			{
				"x": 1.8485571773,
				"y": 0.8641068137,
				"z": 1.3253549666,
				"element": "H" 
			},
			{
				"x": 0.2444342733,
				"y": -0.5994527327,
				"z": 2.490846246,
				"element": "H" 
			},
			{
				"x": -1.4937740178,
				"y": -0.4549327607,
				"z": 2.2093753198,
				"element": "H" 
			},
			{
				"x": -1.0566167532,
				"y": -1.3665709322,
				"z": -0.0504617417,
				"element": "H" 
			},
			{
				"x": -1.2892676851,
				"y": -3.372530438,
				"z": -0.7849726298,
				"element": "H" 
			},
			{
				"x": -1.1012384869,
				"y": -4.920613421,
				"z": -2.695612833,
				"element": "H" 
			},
			{
				"x": 1.1274842271,
				"y": -5.4603013066,
				"z": -3.6520691341,
				"element": "H" 
			},
			{
				"x": 3.1738405091,
				"y": -4.4409132281,
				"z": -2.6750577306,
				"element": "H" 
			},
			{
				"x": 2.9730114745,
				"y": -2.8695145655,
				"z": -0.742683822,
				"element": "H" 
			}
		],
		 "valence_orbital": [ 
			{
				"type": "occ",
				"energy": -0.26048,
				"method": "rhf"
			},
			{
				"type": "occ",
				"energy": -0.25924,
				"method": "rhf"
			},
			{
				"type": "occ",
				"energy": -0.25083,
				"method": "rhf"
			},
			{
				"type": "occ",
				"energy": -0.24828,
				"method": "rhf"
			},
			{
				"type": "occ",
				"energy": -0.24319,
				"method": "rhf"
			},
			{
				"type": "unocc",
				"energy": -0.03776,
				"method": "rhf"
			},
			{
				"type": "unocc",
				"energy": -0.02097,
				"method": "rhf"
			},
			{
				"type": "unocc",
				"energy": -0.01126,
				"method": "rhf"
			},
			{
				"type": "unocc",
				"energy": -0.00977,
				"method": "rhf"
			},
			{
				"type": "unocc",
				"energy": 0.0566,
				"method": "rhf"
			}
		],
		"cosmo_sigma_profile": { 
			"-0.025": 0.0,
			"-0.024": 0.0,
			"-0.023": 0.0,
			"-0.022": 0.0,
			"-0.021": 0.0,
			"-0.02": 0.0,
			"-0.019": 0.0,
			"-0.018": 0.0,
			"-0.017": 0.0,
			"-0.016": 0.0,
			"-0.015": 0.0,
			"-0.014": 0.0451870799461,
			"-0.013": 0.953319239626,
			"-0.012": 1.35446164569,
			"-0.011": 1.96307348199,
			"-0.01": 1.81381153148,
			"-0.009": 2.01089053487,
			"-0.008": 2.62444438703,
			"-0.007": 3.22379682174,
			"-0.006": 15.477070656,
			"-0.005": 25.0357557535,
			"-0.004": 24.5026433579,
			"-0.003": 19.7841450088,
			"-0.002": 20.2443020464,
			"-0.001": 20.8067699034,
			"0.0": 20.0441848246,
			"0.001": 18.5647888858,
			"0.002": 20.2191767938,
			"0.003": 23.0654942307,
			"0.004": 17.4205684359,
			"0.005": 10.752351637,
			"0.006": 3.50390544796,
			"0.007": 3.04698039153,
			"0.008": 2.96938901836,
			"0.009": 2.57342358294,
			"0.01": 2.98615805221,
			"0.011": 2.51539824913,
			"0.012": 2.18936460158,
			"0.013": 4.1931207125,
			"0.014": 3.34930504778,
			"0.015": 0.868928991334,
			"0.016": 0.883442448706,
			"0.017": 0.654465441648,
			"0.018": 0.0221022571583,
			"0.019": 0.0,
			"0.02": 0.0,
			"0.021": 0.0,
			"0.022": 0.0,
			"0.023": 0.0,
			"0.024": 0.0,
			"0.025": 0.0
		}
	}
}
