{
	 "smiles": "NC1=CC=C(C=C1)C1=CC=CC=C1N", 
	 "Tm": 327.65, 
	 "num_atms": 26, 
	 "gaussian": { 
		 "optdone": 1, 
		 "sigma_profile": "yes", 
		 "theory": "DFT", 
		 "functional": "B3LYP", 
		 "basiset": "6-31G**", 
		 "properties": { 
			 "R2extent": 3501.1361, 
			 "electric_dipole_moment_norm": 3.35726790114, 
			 "electric_quadrupole_moment_norm": 13.8144410542, 
			 "total_energy": -574.025402054, 
			 "HOMO_LUMO_gap": 0.17947, 
			 "cosmo_polarized_energy": -12.89, 
			 "cosmo_cavitation_energy": 29.18, 
			 "cosmo_dispersion_energy": -21.57, 
			 "cosmo_repulsion_energy": 1.7, 
			 "cosmo_total_nonelectrostatic_energy": 9.31, 
			 "SMD_solvation_energy": 4.66 
		},
		"coords": [
			{
				"x": 0.3822629005,
				"y": -4.8519881446,
				"z": -1.1038576816,
				"element": "N" 
			},
			{
				"x": 0.5165237711,
				"y": -3.4927563592,
				"z": -0.8146700575,
				"element": "C" 
			},
			{
				"x": 1.7860260308,
				"y": -2.9004216079,
				"z": -0.7015789529,
				"element": "C" 
			},
			{
				"x": 1.9137094786,
				"y": -1.5354179238,
				"z": -0.4680085042,
				"element": "C" 
			},
			{
				"x": 0.7919257813,
				"y": -0.6974796523,
				"z": -0.3373321647,
				"element": "C" 
			},
			{
				"x": -0.4738415869,
				"y": -1.3013043947,
				"z": -0.4528465296,
				"element": "C" 
			},
			{
				"x": -0.6125895745,
				"y": -2.6666957633,
				"z": -0.6843574736,
				"element": "C" 
			},
			{
				"x": 0.9591263765,
				"y": 0.7678624504,
				"z": -0.1360558411,
				"element": "C" 
			},
			{
				"x": 1.8528030544,
				"y": 1.4819134758,
				"z": -0.9492755769,
				"element": "C" 
			},
			{
				"x": 2.0632512395,
				"y": 2.8514480189,
				"z": -0.8001136869,
				"element": "C" 
			},
			{
				"x": 1.360998192,
				"y": 3.5395449818,
				"z": 0.1903513238,
				"element": "C" 
			},
			{
				"x": 0.4722957259,
				"y": 2.8581103966,
				"z": 1.0163146962,
				"element": "C" 
			},
			{
				"x": 0.2586523714,
				"y": 1.4766677224,
				"z": 0.8743260795,
				"element": "C" 
			},
			{
				"x": -0.6613326296,
				"y": 0.833962978,
				"z": 1.7113606366,
				"element": "N" 
			},
			{
				"x": -0.497210034,
				"y": -5.2663127654,
				"z": -0.8277058058,
				"element": "H" 
			},
			{
				"x": 1.1697595703,
				"y": -5.4280915079,
				"z": -0.8404114575,
				"element": "H" 
			},
			{
				"x": 2.6758562412,
				"y": -3.5187619545,
				"z": -0.7954941921,
				"element": "H" 
			},
			{
				"x": 2.9071301465,
				"y": -1.1065709609,
				"z": -0.369783291,
				"element": "H" 
			},
			{
				"x": -1.3654355243,
				"y": -0.6867754936,
				"z": -0.3728451799,
				"element": "H" 
			},
			{
				"x": -1.6059384206,
				"y": -3.0989058093,
				"z": -0.781496994,
				"element": "H" 
			},
			{
				"x": 2.3787402459,
				"y": 0.9389288735,
				"z": -1.7298582989,
				"element": "H" 
			},
			{
				"x": 2.7565199545,
				"y": 3.3730574798,
				"z": -1.4526728842,
				"element": "H" 
			},
			{
				"x": 1.5046391839,
				"y": 4.6081437917,
				"z": 0.3249437831,
				"element": "H" 
			},
			{
				"x": -0.0685318745,
				"y": 3.3949593516,
				"z": 1.7927270653,
				"element": "H" 
			},
			{
				"x": -0.8103519993,
				"y": 1.3015339125,
				"z": 2.5956335559,
				"element": "H" 
			},
			{
				"x": -0.4972886208,
				"y": -0.1573510956,
				"z": 1.8313074322,
				"element": "H" 
			}
		],
		 "valence_orbital": [ 
			{
				"type": "occ",
				"energy": -0.29641,
				"method": "rhf"
			},
			{
				"type": "occ",
				"energy": -0.24485,
				"method": "rhf"
			},
			{
				"type": "occ",
				"energy": -0.23941,
				"method": "rhf"
			},
			{
				"type": "occ",
				"energy": -0.20445,
				"method": "rhf"
			},
			{
				"type": "occ",
				"energy": -0.18377,
				"method": "rhf"
			},
			{
				"type": "unocc",
				"energy": -0.0043,
				"method": "rhf"
			},
			{
				"type": "unocc",
				"energy": 0.00321,
				"method": "rhf"
			},
			{
				"type": "unocc",
				"energy": 0.02267,
				"method": "rhf"
			},
			{
				"type": "unocc",
				"energy": 0.04219,
				"method": "rhf"
			},
			{
				"type": "unocc",
				"energy": 0.0815,
				"method": "rhf"
			}
		],
		"cosmo_sigma_profile": { 
			"-0.025": 0.0,
			"-0.024": 0.0,
			"-0.023": 0.0,
			"-0.022": 0.0,
			"-0.021": 0.0,
			"-0.02": 0.0,
			"-0.019": 0.0,
			"-0.018": 0.0,
			"-0.017": 0.0,
			"-0.016": 0.0,
			"-0.015": 0.0,
			"-0.014": 0.0,
			"-0.013": 0.179124194478,
			"-0.012": 3.23534534871,
			"-0.011": 4.52536912574,
			"-0.01": 4.56025451012,
			"-0.009": 5.86428707415,
			"-0.008": 5.22285563765,
			"-0.007": 6.55932668201,
			"-0.006": 6.30783531495,
			"-0.005": 11.3310152969,
			"-0.004": 16.9537811505,
			"-0.003": 17.7879121345,
			"-0.002": 15.3417231932,
			"-0.001": 11.1483066504,
			"0.0": 13.1727118492,
			"0.001": 11.4666305272,
			"0.002": 11.5675321363,
			"0.003": 14.6792681649,
			"0.004": 13.3554322515,
			"0.005": 15.7520539435,
			"0.006": 18.2017948152,
			"0.007": 13.102352848,
			"0.008": 3.65857769138,
			"0.009": 1.49572509369,
			"0.01": 1.24823734532,
			"0.011": 1.15986249679,
			"0.012": 1.56625669784,
			"0.013": 1.07351505512,
			"0.014": 1.09200938812,
			"0.015": 0.163546708617,
			"0.016": 0.0,
			"0.017": 0.0,
			"0.018": 0.0,
			"0.019": 0.0,
			"0.02": 0.0,
			"0.021": 0.0,
			"0.022": 0.0,
			"0.023": 0.0,
			"0.024": 0.0,
			"0.025": 0.0
		}
	}
}
