{
	 "smiles": "FC1=CC=C(CCl)C=C1", 
	 "Tm": 255.15, 
	 "num_atms": 15, 
	 "gaussian": { 
		 "optdone": 1, 
		 "sigma_profile": "yes", 
		 "theory": "DFT", 
		 "functional": "B3LYP", 
		 "basiset": "6-31G**", 
		 "properties": { 
			 "R2extent": 1846.4885, 
			 "electric_dipole_moment_norm": 1.95796630461, 
			 "electric_quadrupole_moment_norm": 10.0350207588, 
			 "total_energy": -830.392586492, 
			 "HOMO_LUMO_gap": 0.22054, 
			 "cosmo_polarized_energy": -6.2, 
			 "cosmo_cavitation_energy": 21.35, 
			 "cosmo_dispersion_energy": -15.59, 
			 "cosmo_repulsion_energy": 1.27, 
			 "cosmo_total_nonelectrostatic_energy": 7.03, 
			 "SMD_solvation_energy": 3.84 
		},
		"coords": [
			{
				"x": -2.2060542589,
				"y": 0.9523071085,
				"z": -2.5855237823,
				"element": "F" 
			},
			{
				"x": -1.4955664217,
				"y": 0.5741100302,
				"z": -1.5043894286,
				"element": "C" 
			},
			{
				"x": -2.0175911651,
				"y": 0.8134466242,
				"z": -0.2376543897,
				"element": "C" 
			},
			{
				"x": -1.2742280806,
				"y": 0.4224025527,
				"z": 0.87403801,
				"element": "C" 
			},
			{
				"x": -0.0256895011,
				"y": -0.1974145953,
				"z": 0.7257872771,
				"element": "C" 
			},
			{
				"x": 0.7670519236,
				"y": -0.6110935316,
				"z": 1.9272063351,
				"element": "C" 
			},
			{
				"x": 0.3837883217,
				"y": -2.3274443297,
				"z": 2.4709120799,
				"element": "Cl" 
			},
			{
				"x": 0.4677437223,
				"y": -0.4234328866,
				"z": -0.5666664678,
				"element": "C" 
			},
			{
				"x": -0.2612456264,
				"y": -0.0393454638,
				"z": -1.6902366226,
				"element": "C" 
			},
			{
				"x": -2.9832326795,
				"y": 1.2968312397,
				"z": -0.1381321702,
				"element": "H" 
			},
			{
				"x": -1.6708638055,
				"y": 0.599290168,
				"z": 1.8700634263,
				"element": "H" 
			},
			{
				"x": 1.8394335042,
				"y": -0.6072425305,
				"z": 1.7320557089,
				"element": "H" 
			},
			{
				"x": 0.5557035665,
				"y": 0.0156778851,
				"z": 2.7935714261,
				"element": "H" 
			},
			{
				"x": 1.4319744862,
				"y": -0.9073403227,
				"z": -0.6961570106,
				"element": "H" 
			},
			{
				"x": 0.1093760142,
				"y": -0.2047519481,
				"z": -2.6958743916,
				"element": "H" 
			}
		],
		 "valence_orbital": [ 
			{
				"type": "occ",
				"energy": -0.35327,
				"method": "rhf"
			},
			{
				"type": "occ",
				"energy": -0.29702,
				"method": "rhf"
			},
			{
				"type": "occ",
				"energy": -0.29476,
				"method": "rhf"
			},
			{
				"type": "occ",
				"energy": -0.2698,
				"method": "rhf"
			},
			{
				"type": "occ",
				"energy": -0.25029,
				"method": "rhf"
			},
			{
				"type": "unocc",
				"energy": -0.02975,
				"method": "rhf"
			},
			{
				"type": "unocc",
				"energy": -0.02057,
				"method": "rhf"
			},
			{
				"type": "unocc",
				"energy": 0.04162,
				"method": "rhf"
			},
			{
				"type": "unocc",
				"energy": 0.07586,
				"method": "rhf"
			},
			{
				"type": "unocc",
				"energy": 0.10985,
				"method": "rhf"
			}
		],
		"cosmo_sigma_profile": { 
			"-0.025": 0.0,
			"-0.024": 0.0,
			"-0.023": 0.0,
			"-0.022": 0.0,
			"-0.021": 0.0,
			"-0.02": 0.0,
			"-0.019": 0.0,
			"-0.018": 0.0,
			"-0.017": 0.0,
			"-0.016": 0.0,
			"-0.015": 0.0,
			"-0.014": 0.0,
			"-0.013": 0.0,
			"-0.012": 0.0,
			"-0.011": 0.0,
			"-0.01": 0.0,
			"-0.009": 0.159191709403,
			"-0.008": 3.84747122788,
			"-0.007": 12.5965812295,
			"-0.006": 10.9129007819,
			"-0.005": 11.7025267135,
			"-0.004": 9.73776996793,
			"-0.003": 7.77224004429,
			"-0.002": 7.45349581966,
			"-0.001": 6.33680849107,
			"0.0": 12.5572760891,
			"0.001": 13.863477385,
			"0.002": 14.402836856,
			"0.003": 17.3400639506,
			"0.004": 18.9488957262,
			"0.005": 9.00350687869,
			"0.006": 8.01303986113,
			"0.007": 8.46922106324,
			"0.008": 0.0465742989168,
			"0.009": 0.0,
			"0.01": 0.0,
			"0.011": 0.0,
			"0.012": 0.0,
			"0.013": 0.0,
			"0.014": 0.0,
			"0.015": 0.0,
			"0.016": 0.0,
			"0.017": 0.0,
			"0.018": 0.0,
			"0.019": 0.0,
			"0.02": 0.0,
			"0.021": 0.0,
			"0.022": 0.0,
			"0.023": 0.0,
			"0.024": 0.0,
			"0.025": 0.0
		}
	}
}
