{
	 "smiles": "O=CC1=CN=C(N=C1)N1CCCC1", 
	 "Tm": 392.15, 
	 "num_atms": 24, 
	 "gaussian": { 
		 "optdone": 1, 
		 "sigma_profile": "yes", 
		 "theory": "DFT", 
		 "functional": "B3LYP", 
		 "basiset": "6-31G**", 
		 "properties": { 
			 "R2extent": 3427.3949, 
			 "electric_dipole_moment_norm": 5.04326494446, 
			 "electric_quadrupole_moment_norm": 15.1599442753, 
			 "total_energy": -589.067876894, 
			 "HOMO_LUMO_gap": 0.16962, 
			 "cosmo_polarized_energy": -10.64, 
			 "cosmo_cavitation_energy": 27.42, 
			 "cosmo_dispersion_energy": -20.43, 
			 "cosmo_repulsion_energy": 1.62, 
			 "cosmo_total_nonelectrostatic_energy": 8.61, 
			 "SMD_solvation_energy": 2.52 
		},
		"coords": [
			{
				"x": 1.0706063693,
				"y": 0.7791972778,
				"z": -5.4082970354,
				"element": "O" 
			},
			{
				"x": 1.5518687118,
				"y": -0.0018668717,
				"z": -4.604021074,
				"element": "C" 
			},
			{
				"x": 1.1991069619,
				"y": -0.0626591946,
				"z": -3.1844241858,
				"element": "C" 
			},
			{
				"x": 0.2450614666,
				"y": 0.7988506875,
				"z": -2.6103440875,
				"element": "C" 
			},
			{
				"x": -0.0871250572,
				"y": 0.7639064268,
				"z": -1.3305780593,
				"element": "N" 
			},
			{
				"x": 0.5512547415,
				"y": -0.1736076596,
				"z": -0.5750554096,
				"element": "C" 
			},
			{
				"x": 1.4841069663,
				"y": -1.0595664461,
				"z": -1.0150526424,
				"element": "N" 
			},
			{
				"x": 1.7865301352,
				"y": -0.9816802128,
				"z": -2.3034733961,
				"element": "C" 
			},
			{
				"x": 0.2256977305,
				"y": -0.2258455325,
				"z": 0.7315272499,
				"element": "N" 
			},
			{
				"x": 0.8432484841,
				"y": -1.1588620795,
				"z": 1.6829815077,
				"element": "C" 
			},
			{
				"x": 0.3707629904,
				"y": -0.6307758655,
				"z": 3.0459483594,
				"element": "C" 
			},
			{
				"x": -0.9962500967,
				"y": 0.0010813672,
				"z": 2.7306164872,
				"element": "C" 
			},
			{
				"x": -0.7836378123,
				"y": 0.6433741524,
				"z": 1.3515334086,
				"element": "C" 
			},
			{
				"x": 2.3199689211,
				"y": -0.7441799715,
				"z": -4.92057005,
				"element": "H" 
			},
			{
				"x": -0.2515955001,
				"y": 1.537277446,
				"z": -3.2375953513,
				"element": "H" 
			},
			{
				"x": 2.5361672647,
				"y": -1.6867594329,
				"z": -2.6674837615,
				"element": "H" 
			},
			{
				"x": 1.9293548333,
				"y": -1.1645497503,
				"z": 1.5645302819,
				"element": "H" 
			},
			{
				"x": 0.4902645075,
				"y": -2.1815609309,
				"z": 1.4952106096,
				"element": "H" 
			},
			{
				"x": 1.064546697,
				"y": 0.1352627387,
				"z": 3.4104898691,
				"element": "H" 
			},
			{
				"x": 0.3188298451,
				"y": -1.4199720835,
				"z": 3.8003811209,
				"element": "H" 
			},
			{
				"x": -1.320007984,
				"y": 0.7277133353,
				"z": 3.4801852937,
				"element": "H" 
			},
			{
				"x": -1.7649266491,
				"y": -0.7773553857,
				"z": 2.6655600712,
				"element": "H" 
			},
			{
				"x": -0.4025364106,
				"y": 1.6699071133,
				"z": 1.4323565522,
				"element": "H" 
			},
			{
				"x": -1.6867971164,
				"y": 0.6806708723,
				"z": 0.7381742417,
				"element": "H" 
			}
		],
		 "valence_orbital": [ 
			{
				"type": "occ",
				"energy": -0.31997,
				"method": "rhf"
			},
			{
				"type": "occ",
				"energy": -0.30451,
				"method": "rhf"
			},
			{
				"type": "occ",
				"energy": -0.25093,
				"method": "rhf"
			},
			{
				"type": "occ",
				"energy": -0.24609,
				"method": "rhf"
			},
			{
				"type": "occ",
				"energy": -0.22249,
				"method": "rhf"
			},
			{
				"type": "unocc",
				"energy": -0.05287,
				"method": "rhf"
			},
			{
				"type": "unocc",
				"energy": -0.0365,
				"method": "rhf"
			},
			{
				"type": "unocc",
				"energy": 0.0398,
				"method": "rhf"
			},
			{
				"type": "unocc",
				"energy": 0.07628,
				"method": "rhf"
			},
			{
				"type": "unocc",
				"energy": 0.10751,
				"method": "rhf"
			}
		],
		"cosmo_sigma_profile": { 
			"-0.025": 0.0,
			"-0.024": 0.0,
			"-0.023": 0.0,
			"-0.022": 0.0,
			"-0.021": 0.0,
			"-0.02": 0.0,
			"-0.019": 0.0,
			"-0.018": 0.0,
			"-0.017": 0.0,
			"-0.016": 0.0,
			"-0.015": 0.0,
			"-0.014": 0.0,
			"-0.013": 0.0,
			"-0.012": 0.0,
			"-0.011": 0.0,
			"-0.01": 0.0,
			"-0.009": 0.135659123453,
			"-0.008": 3.50659488322,
			"-0.007": 4.80955885791,
			"-0.006": 5.84842686086,
			"-0.005": 8.3449693684,
			"-0.004": 22.7417245185,
			"-0.003": 31.0157973097,
			"-0.002": 28.1198067036,
			"-0.001": 24.9916833755,
			"0.0": 25.1447470529,
			"0.001": 8.38892596007,
			"0.002": 5.15855610517,
			"0.003": 5.66497961372,
			"0.004": 4.34636850671,
			"0.005": 4.57204537649,
			"0.006": 4.50268594429,
			"0.007": 3.82004203087,
			"0.008": 3.90274900751,
			"0.009": 3.76092771953,
			"0.01": 4.16713614336,
			"0.011": 5.01392410283,
			"0.012": 6.2168909457,
			"0.013": 2.71797604244,
			"0.014": 0.401899910185,
			"0.015": 0.0,
			"0.016": 0.0,
			"0.017": 0.0,
			"0.018": 0.0,
			"0.019": 0.0,
			"0.02": 0.0,
			"0.021": 0.0,
			"0.022": 0.0,
			"0.023": 0.0,
			"0.024": 0.0,
			"0.025": 0.0
		}
	}
}
