{
	 "smiles": "FC(F)(F)C1=C(C#N)C(S)=NC2=C1CCCC2", 
	 "Tm": 491.15, 
	 "num_atms": 26, 
	 "gaussian": { 
		 "optdone": 1, 
		 "sigma_profile": "yes", 
		 "theory": "DFT", 
		 "functional": "B3LYP", 
		 "basiset": "6-31G**", 
		 "properties": { 
			 "R2extent": 4807.6464, 
			 "electric_dipole_moment_norm": 6.16337732903, 
			 "electric_quadrupole_moment_norm": 17.9151679498, 
			 "total_energy": -1231.80079874, 
			 "HOMO_LUMO_gap": 0.16676, 
			 "cosmo_polarized_energy": -10.26, 
			 "cosmo_cavitation_energy": 32.08, 
			 "cosmo_dispersion_energy": -23.34, 
			 "cosmo_repulsion_energy": 1.71, 
			 "cosmo_total_nonelectrostatic_energy": 10.46, 
			 "SMD_solvation_energy": 4.99 
		},
		"coords": [
			{
				"x": 1.5898821057,
				"y": -2.1420456073,
				"z": -1.2182034521,
				"element": "F" 
			},
			{
				"x": 0.4358283871,
				"y": -1.844698999,
				"z": -1.8603629901,
				"element": "C" 
			},
			{
				"x": -0.4043410901,
				"y": -2.8881366194,
				"z": -1.6821900123,
				"element": "F" 
			},
			{
				"x": 0.7148667217,
				"y": -1.7861868396,
				"z": -3.1691211728,
				"element": "F" 
			},
			{
				"x": -0.168454433,
				"y": -0.5614103849,
				"z": -1.309554806,
				"element": "C" 
			},
			{
				"x": -0.2499092577,
				"y": 0.5999933594,
				"z": -2.1001082201,
				"element": "C" 
			},
			{
				"x": 0.2072101111,
				"y": 0.7086450519,
				"z": -3.4518406263,
				"element": "C" 
			},
			{
				"x": 0.5463734978,
				"y": 0.9159342686,
				"z": -4.5452786865,
				"element": "N" 
			},
			{
				"x": -0.8243245594,
				"y": 1.7556010933,
				"z": -1.5092748367,
				"element": "C" 
			},
			{
				"x": -0.9593323273,
				"y": 3.2566381802,
				"z": -2.4554525287,
				"element": "S" 
			},
			{
				"x": -1.2756478268,
				"y": 1.7681812657,
				"z": -0.2629627039,
				"element": "N" 
			},
			{
				"x": -1.1882154854,
				"y": 0.6610933569,
				"z": 0.4892038317,
				"element": "C" 
			},
			{
				"x": -0.6315387513,
				"y": -0.5459360988,
				"z": 0.0192210692,
				"element": "C" 
			},
			{
				"x": -0.5730945822,
				"y": -1.7693910948,
				"z": 0.9246530902,
				"element": "C" 
			},
			{
				"x": -0.7353631877,
				"y": -1.4318746355,
				"z": 2.4116961424,
				"element": "C" 
			},
			{
				"x": -1.9385586791,
				"y": -0.5119753835,
				"z": 2.628072369,
				"element": "C" 
			},
			{
				"x": -1.7129906339,
				"y": 0.8163388733,
				"z": 1.9012705357,
				"element": "C" 
			},
			{
				"x": -1.5346497658,
				"y": 3.9259497675,
				"z": -1.438383399,
				"element": "H" 
			},
			{
				"x": -1.3702285963,
				"y": -2.4609990358,
				"z": 0.6235653174,
				"element": "H" 
			},
			{
				"x": 0.3644291178,
				"y": -2.3059091886,
				"z": 0.7647016144,
				"element": "H" 
			},
			{
				"x": -0.8445036387,
				"y": -2.3620629337,
				"z": 2.9790922917,
				"element": "H" 
			},
			{
				"x": 0.1731710465,
				"y": -0.9397772388,
				"z": 2.7836513019,
				"element": "H" 
			},
			{
				"x": -2.1078201005,
				"y": -0.3273093262,
				"z": 3.6939900847,
				"element": "H" 
			},
			{
				"x": -2.8444774273,
				"y": -0.9996366366,
				"z": 2.2442833848,
				"element": "H" 
			},
			{
				"x": -0.9823962891,
				"y": 1.4231258584,
				"z": 2.4552548902,
				"element": "H" 
			},
			{
				"x": -2.6252143561,
				"y": 1.4197489473,
				"z": 1.8568775114,
				"element": "H" 
			}
		],
		 "valence_orbital": [ 
			{
				"type": "occ",
				"energy": -0.33497,
				"method": "rhf"
			},
			{
				"type": "occ",
				"energy": -0.31983,
				"method": "rhf"
			},
			{
				"type": "occ",
				"energy": -0.29365,
				"method": "rhf"
			},
			{
				"type": "occ",
				"energy": -0.28305,
				"method": "rhf"
			},
			{
				"type": "occ",
				"energy": -0.24565,
				"method": "rhf"
			},
			{
				"type": "unocc",
				"energy": -0.07889,
				"method": "rhf"
			},
			{
				"type": "unocc",
				"energy": -0.05058,
				"method": "rhf"
			},
			{
				"type": "unocc",
				"energy": 0.00057,
				"method": "rhf"
			},
			{
				"type": "unocc",
				"energy": 0.03242,
				"method": "rhf"
			},
			{
				"type": "unocc",
				"energy": 0.04883,
				"method": "rhf"
			}
		],
		"cosmo_sigma_profile": { 
			"-0.025": 0.0,
			"-0.024": 0.0,
			"-0.023": 0.0,
			"-0.022": 0.0,
			"-0.021": 0.0,
			"-0.02": 0.0,
			"-0.019": 0.0,
			"-0.018": 0.0,
			"-0.017": 0.0,
			"-0.016": 0.0,
			"-0.015": 0.0,
			"-0.014": 0.0,
			"-0.013": 0.0,
			"-0.012": 0.27393332396,
			"-0.011": 1.53889272074,
			"-0.01": 1.10183952995,
			"-0.009": 1.42040279007,
			"-0.008": 1.33816219284,
			"-0.007": 1.92484201989,
			"-0.006": 3.0516631483,
			"-0.005": 6.88605609278,
			"-0.004": 21.3338398058,
			"-0.003": 35.3195675297,
			"-0.002": 35.1977690607,
			"-0.001": 26.914114484,
			"0.0": 19.1722057652,
			"0.001": 18.6728902966,
			"0.002": 28.6850318085,
			"0.003": 12.6462111381,
			"0.004": 9.38116438649,
			"0.005": 7.16586512328,
			"0.006": 6.22066299752,
			"0.007": 4.2717122381,
			"0.008": 3.96175678291,
			"0.009": 3.96366575357,
			"0.01": 3.18401485298,
			"0.011": 2.62146424016,
			"0.012": 2.0266623292,
			"0.013": 0.206653516616,
			"0.014": 0.0,
			"0.015": 0.0,
			"0.016": 0.0,
			"0.017": 0.0,
			"0.018": 0.0,
			"0.019": 0.0,
			"0.02": 0.0,
			"0.021": 0.0,
			"0.022": 0.0,
			"0.023": 0.0,
			"0.024": 0.0,
			"0.025": 0.0
		}
	}
}
