{
	 "smiles": "FC1(F)C(F)(F)C(F)(Cl)C1(F)Cl", 
	 "Tm": 258.15, 
	 "num_atms": 12, 
	 "gaussian": { 
		 "optdone": 1, 
		 "sigma_profile": "yes", 
		 "theory": "DFT", 
		 "functional": "B3LYP", 
		 "basiset": "6-31G**", 
		 "properties": { 
			 "R2extent": 2514.7736, 
			 "electric_dipole_moment_norm": 0.026869685521, 
			 "electric_quadrupole_moment_norm": 1.48580731927, 
			 "total_energy": -1671.77492398, 
			 "HOMO_LUMO_gap": 0.27079, 
			 "cosmo_polarized_energy": -1.96, 
			 "cosmo_cavitation_energy": 22.36, 
			 "cosmo_dispersion_energy": -15.68, 
			 "cosmo_repulsion_energy": 1.15, 
			 "cosmo_total_nonelectrostatic_energy": 7.82, 
			 "SMD_solvation_energy": 5.49 
		},
		"coords": [
			{
				"x": -0.720359214,
				"y": -0.9032871005,
				"z": 1.655268241,
				"element": "F" 
			},
			{
				"x": 0.3934309925,
				"y": -0.2147418233,
				"z": 1.3809078611,
				"element": "C" 
			},
			{
				"x": 0.6641453698,
				"y": 0.6542075827,
				"z": 2.368422793,
				"element": "F" 
			},
			{
				"x": 1.6447343524,
				"y": -1.0701891242,
				"z": 1.0012079382,
				"element": "C" 
			},
			{
				"x": 1.3064409346,
				"y": -2.3235556819,
				"z": 0.6574311701,
				"element": "F" 
			},
			{
				"x": 2.6355788432,
				"y": -1.0823789036,
				"z": 1.9000948991,
				"element": "F" 
			},
			{
				"x": 1.8894554449,
				"y": -0.1299415027,
				"z": -0.2321860533,
				"element": "C" 
			},
			{
				"x": 2.8161568409,
				"y": 0.799863837,
				"z": 0.0902534191,
				"element": "F" 
			},
			{
				"x": 2.257231317,
				"y": -0.885088938,
				"z": -1.7797446029,
				"element": "Cl" 
			},
			{
				"x": 0.4277867162,
				"y": 0.4349163025,
				"z": -0.048077446,
				"element": "C" 
			},
			{
				"x": -0.4483581934,
				"y": -0.2067259067,
				"z": -0.8530293796,
				"element": "F" 
			},
			{
				"x": 0.2340565961,
				"y": 2.1814212586,
				"z": -0.1606488398,
				"element": "Cl" 
			}
		],
		 "valence_orbital": [ 
			{
				"type": "occ",
				"energy": -0.36501,
				"method": "rhf"
			},
			{
				"type": "occ",
				"energy": -0.36044,
				"method": "rhf"
			},
			{
				"type": "occ",
				"energy": -0.34691,
				"method": "rhf"
			},
			{
				"type": "occ",
				"energy": -0.34601,
				"method": "rhf"
			},
			{
				"type": "occ",
				"energy": -0.31893,
				"method": "rhf"
			},
			{
				"type": "unocc",
				"energy": -0.04814,
				"method": "rhf"
			},
			{
				"type": "unocc",
				"energy": -0.00419,
				"method": "rhf"
			},
			{
				"type": "unocc",
				"energy": 0.04391,
				"method": "rhf"
			},
			{
				"type": "unocc",
				"energy": 0.09197,
				"method": "rhf"
			},
			{
				"type": "unocc",
				"energy": 0.093,
				"method": "rhf"
			}
		],
		"cosmo_sigma_profile": { 
			"-0.025": 0.0,
			"-0.024": 0.0,
			"-0.023": 0.0,
			"-0.022": 0.0,
			"-0.021": 0.0,
			"-0.02": 0.0,
			"-0.019": 0.0,
			"-0.018": 0.0,
			"-0.017": 0.0,
			"-0.016": 0.0,
			"-0.015": 0.0,
			"-0.014": 0.0,
			"-0.013": 0.0,
			"-0.012": 0.0,
			"-0.011": 0.0,
			"-0.01": 0.0,
			"-0.009": 0.201084552319,
			"-0.008": 0.838533176139,
			"-0.007": 1.65776301819,
			"-0.006": 2.70744384726,
			"-0.005": 5.12232869282,
			"-0.004": 6.89446612155,
			"-0.003": 10.2450834771,
			"-0.002": 10.3605361777,
			"-0.001": 16.0286660788,
			"0.0": 21.5272958667,
			"0.001": 62.0101460115,
			"0.002": 45.2436005426,
			"0.003": 1.76126509828,
			"0.004": 0.0,
			"0.005": 0.0,
			"0.006": 0.0,
			"0.007": 0.0,
			"0.008": 0.0,
			"0.009": 0.0,
			"0.01": 0.0,
			"0.011": 0.0,
			"0.012": 0.0,
			"0.013": 0.0,
			"0.014": 0.0,
			"0.015": 0.0,
			"0.016": 0.0,
			"0.017": 0.0,
			"0.018": 0.0,
			"0.019": 0.0,
			"0.02": 0.0,
			"0.021": 0.0,
			"0.022": 0.0,
			"0.023": 0.0,
			"0.024": 0.0,
			"0.025": 0.0
		}
	}
}
