{
	 "smiles": "ClC1=CC=C(C=C1)C(C#N)C1=C(Cl)C=C(C=C1Cl)N1N=CC(=O)NC1=O", 
	 "Tm": 568.15, 
	 "num_atms": 35, 
	 "gaussian": { 
		 "optdone": 1, 
		 "sigma_profile": "yes", 
		 "theory": "DFT", 
		 "functional": "B3LYP", 
		 "basiset": "6-31G**", 
		 "properties": { 
			 "R2extent": 15082.5287, 
			 "electric_dipole_moment_norm": 3.53271944824, 
			 "electric_quadrupole_moment_norm": 11.8527252276, 
			 "total_energy": -2403.22969559, 
			 "HOMO_LUMO_gap": 0.15218, 
			 "cosmo_polarized_energy": -19.59, 
			 "cosmo_cavitation_energy": 46.96, 
			 "cosmo_dispersion_energy": -32.64, 
			 "cosmo_repulsion_energy": 2.45, 
			 "cosmo_total_nonelectrostatic_energy": 16.77, 
			 "SMD_solvation_energy": 9.57 
		},
		"coords": [
			{
				"x": 1.3777913322,
				"y": 5.8564000151,
				"z": 2.6175823314,
				"element": "Cl" 
			},
			{
				"x": 1.5195342692,
				"y": 4.6206097923,
				"z": 1.3775679313,
				"element": "C" 
			},
			{
				"x": 2.7547353145,
				"y": 4.0225436195,
				"z": 1.1394352964,
				"element": "C" 
			},
			{
				"x": 2.8598480297,
				"y": 3.039615807,
				"z": 0.1543982785,
				"element": "C" 
			},
			{
				"x": 1.7425489307,
				"y": 2.6524618138,
				"z": -0.5894430615,
				"element": "C" 
			},
			{
				"x": 0.5115223531,
				"y": 3.2700682775,
				"z": -0.3370073412,
				"element": "C" 
			},
			{
				"x": 0.3918186301,
				"y": 4.2518129073,
				"z": 0.6440580742,
				"element": "C" 
			},
			{
				"x": 1.8300217852,
				"y": 1.620992475,
				"z": -1.7260385066,
				"element": "C" 
			},
			{
				"x": 3.1691927623,
				"y": 1.0276549633,
				"z": -1.8718179637,
				"element": "C" 
			},
			{
				"x": 4.2296410919,
				"y": 0.5825300943,
				"z": -2.0265997581,
				"element": "N" 
			},
			{
				"x": 0.7502887175,
				"y": 0.5380752011,
				"z": -1.6733145218,
				"element": "C" 
			},
			{
				"x": -0.2461073196,
				"y": 0.4355787833,
				"z": -2.6564885969,
				"element": "C" 
			},
			{
				"x": -0.292508698,
				"y": 1.565363806,
				"z": -4.0081985949,
				"element": "Cl" 
			},
			{
				"x": -1.2511449952,
				"y": -0.5308740134,
				"z": -2.6438123368,
				"element": "C" 
			},
			{
				"x": -1.2835190642,
				"y": -1.4638778078,
				"z": -1.6029118342,
				"element": "C" 
			},
			{
				"x": -0.3089485839,
				"y": -1.4023907104,
				"z": -0.5992833637,
				"element": "C" 
			},
			{
				"x": 0.67378707,
				"y": -0.4219233659,
				"z": -0.6475944275,
				"element": "C" 
			},
			{
				"x": 1.8498416951,
				"y": -0.4282424703,
				"z": 0.6497239351,
				"element": "Cl" 
			},
			{
				"x": -2.2858188438,
				"y": -2.4967150412,
				"z": -1.5158676672,
				"element": "N" 
			},
			{
				"x": -2.1607159686,
				"y": -3.3036044244,
				"z": -0.4260769119,
				"element": "N" 
			},
			{
				"x": -2.9826972293,
				"y": -4.2716498743,
				"z": -0.2219969098,
				"element": "C" 
			},
			{
				"x": -4.107706542,
				"y": -4.6031936566,
				"z": -1.109529857,
				"element": "C" 
			},
			{
				"x": -4.9009514432,
				"y": -5.5093829754,
				"z": -0.9459577464,
				"element": "O" 
			},
			{
				"x": -4.1606531025,
				"y": -3.7295189674,
				"z": -2.1941890418,
				"element": "N" 
			},
			{
				"x": -3.3122667608,
				"y": -2.6681356475,
				"z": -2.4752347695,
				"element": "C" 
			},
			{
				"x": -3.4706843699,
				"y": -1.9768240264,
				"z": -3.4618618687,
				"element": "O" 
			},
			{
				"x": 3.6237215775,
				"y": 4.3172727623,
				"z": 1.7169773613,
				"element": "H" 
			},
			{
				"x": 3.8222020006,
				"y": 2.5720297803,
				"z": -0.0271145116,
				"element": "H" 
			},
			{
				"x": -0.3675301686,
				"y": 2.9854395041,
				"z": -0.9078083329,
				"element": "H" 
			},
			{
				"x": -0.5634514444,
				"y": 4.7270298156,
				"z": 0.8370115784,
				"element": "H" 
			},
			{
				"x": 1.6672551589,
				"y": 2.1710452394,
				"z": -2.659366035,
				"element": "H" 
			},
			{
				"x": -1.9845500512,
				"y": -0.5494101307,
				"z": -3.4321071282,
				"element": "H" 
			},
			{
				"x": -0.313656869,
				"y": -2.112954571,
				"z": 0.2127023767,
				"element": "H" 
			},
			{
				"x": -2.8281500249,
				"y": -4.877326578,
				"z": 0.6647814407,
				"element": "H" 
			},
			{
				"x": -4.9014892398,
				"y": -3.8666003965,
				"z": -2.8736175171,
				"element": "H" 
			}
		],
		 "valence_orbital": [ 
			{
				"type": "occ",
				"energy": -0.29752,
				"method": "rhf"
			},
			{
				"type": "occ",
				"energy": -0.27397,
				"method": "rhf"
			},
			{
				"type": "occ",
				"energy": -0.27035,
				"method": "rhf"
			},
			{
				"type": "occ",
				"energy": -0.26484,
				"method": "rhf"
			},
			{
				"type": "occ",
				"energy": -0.25148,
				"method": "rhf"
			},
			{
				"type": "unocc",
				"energy": -0.0993,
				"method": "rhf"
			},
			{
				"type": "unocc",
				"energy": -0.05432,
				"method": "rhf"
			},
			{
				"type": "unocc",
				"energy": -0.04465,
				"method": "rhf"
			},
			{
				"type": "unocc",
				"energy": -0.0313,
				"method": "rhf"
			},
			{
				"type": "unocc",
				"energy": -0.02351,
				"method": "rhf"
			}
		],
		"cosmo_sigma_profile": { 
			"-0.025": 0.0,
			"-0.024": 0.0,
			"-0.023": 0.0,
			"-0.022": 0.0,
			"-0.021": 0.0,
			"-0.02": 0.0,
			"-0.019": 0.0,
			"-0.018": 0.032363369649,
			"-0.017": 0.823670984216,
			"-0.016": 1.25328952359,
			"-0.015": 0.752960499396,
			"-0.014": 0.595308460487,
			"-0.013": 1.50540445761,
			"-0.012": 0.578216703562,
			"-0.011": 0.960357174208,
			"-0.01": 3.2713316262,
			"-0.009": 5.40828718629,
			"-0.008": 6.66760089337,
			"-0.007": 12.6677756973,
			"-0.006": 17.5867551314,
			"-0.005": 19.5059463895,
			"-0.004": 22.1328324678,
			"-0.003": 22.867030548,
			"-0.002": 26.1418604047,
			"-0.001": 33.4483552689,
			"0.0": 38.1643294251,
			"0.001": 29.7280430554,
			"0.002": 30.2714795402,
			"0.003": 34.3599950671,
			"0.004": 21.7782084044,
			"0.005": 10.6442108972,
			"0.006": 4.92662417237,
			"0.007": 5.83241262572,
			"0.008": 5.00868857808,
			"0.009": 7.4017408787,
			"0.01": 7.4656409388,
			"0.011": 9.93432206372,
			"0.012": 4.56713615401,
			"0.013": 0.581646847958,
			"0.014": 0.0,
			"0.015": 0.0,
			"0.016": 0.0,
			"0.017": 0.0,
			"0.018": 0.0,
			"0.019": 0.0,
			"0.02": 0.0,
			"0.021": 0.0,
			"0.022": 0.0,
			"0.023": 0.0,
			"0.024": 0.0,
			"0.025": 0.0
		}
	}
}
