{
	 "smiles": "CC1CC(CCO1)C(O)=O", 
	 "Tm": 318.15, 
	 "num_atms": 22, 
	 "gaussian": { 
		 "optdone": 1, 
		 "sigma_profile": "yes", 
		 "theory": "DFT", 
		 "functional": "B3LYP", 
		 "basiset": "6-31G**", 
		 "properties": { 
			 "R2extent": 1904.6543, 
			 "electric_dipole_moment_norm": 0.794549998427, 
			 "electric_quadrupole_moment_norm": 8.93562336214, 
			 "total_energy": -499.658407583, 
			 "HOMO_LUMO_gap": 0.25623, 
			 "cosmo_polarized_energy": -10.4, 
			 "cosmo_cavitation_energy": 23.94, 
			 "cosmo_dispersion_energy": -17.65, 
			 "cosmo_repulsion_energy": 1.45, 
			 "cosmo_total_nonelectrostatic_energy": 7.73, 
			 "SMD_solvation_energy": 4.92 
		},
		"coords": [
			{
				"x": 2.8358646039,
				"y": -0.5752676794,
				"z": 1.3477429996,
				"element": "C" 
			},
			{
				"x": 1.6161168666,
				"y": -0.2390226454,
				"z": 0.4908165794,
				"element": "C" 
			},
			{
				"x": 0.3191948536,
				"y": -0.8893260174,
				"z": 1.0132181714,
				"element": "C" 
			},
			{
				"x": -0.8916330434,
				"y": -0.0955847413,
				"z": 0.5135163992,
				"element": "C" 
			},
			{
				"x": -0.850857167,
				"y": 1.3507776176,
				"z": 1.0849172272,
				"element": "C" 
			},
			{
				"x": 0.615984814,
				"y": 1.7714642444,
				"z": 1.3119699257,
				"element": "C" 
			},
			{
				"x": 1.4760499638,
				"y": 1.186987367,
				"z": 0.345968867,
				"element": "O" 
			},
			{
				"x": -2.2010579711,
				"y": -0.7787278759,
				"z": 0.8446530562,
				"element": "C" 
			},
			{
				"x": -3.2563080185,
				"y": -0.133121808,
				"z": 0.2859365434,
				"element": "O" 
			},
			{
				"x": -2.3383337932,
				"y": -1.7718798372,
				"z": 1.5260385471,
				"element": "O" 
			},
			{
				"x": 2.9830833932,
				"y": -1.6596031656,
				"z": 1.4041155363,
				"element": "H" 
			},
			{
				"x": 3.7364436668,
				"y": -0.1237116367,
				"z": 0.9227679326,
				"element": "H" 
			},
			{
				"x": 2.7131829624,
				"y": -0.2002056849,
				"z": 2.3698116543,
				"element": "H" 
			},
			{
				"x": 1.793287195,
				"y": -0.591940924,
				"z": -0.5334783512,
				"element": "H" 
			},
			{
				"x": 0.3071137029,
				"y": -0.9170810537,
				"z": 2.1094866546,
				"element": "H" 
			},
			{
				"x": 0.2671953033,
				"y": -1.9310815472,
				"z": 0.6841969353,
				"element": "H" 
			},
			{
				"x": -0.8418482664,
				"y": -0.0210401302,
				"z": -0.5801965888,
				"element": "H" 
			},
			{
				"x": -1.391734102,
				"y": 1.4041937788,
				"z": 2.0377518386,
				"element": "H" 
			},
			{
				"x": -1.3535710281,
				"y": 2.0309595175,
				"z": 0.3923367162,
				"element": "H" 
			},
			{
				"x": 0.7321633507,
				"y": 2.854226098,
				"z": 1.210623386,
				"element": "H" 
			},
			{
				"x": 0.9347562839,
				"y": 1.5060019133,
				"z": 2.331585593,
				"element": "H" 
			},
			{
				"x": -4.0482935703,
				"y": -0.6248157896,
				"z": 0.5614203768,
				"element": "H" 
			}
		],
		 "valence_orbital": [ 
			{
				"type": "occ",
				"energy": -0.329,
				"method": "rhf"
			},
			{
				"type": "occ",
				"energy": -0.31876,
				"method": "rhf"
			},
			{
				"type": "occ",
				"energy": -0.29611,
				"method": "rhf"
			},
			{
				"type": "occ",
				"energy": -0.27312,
				"method": "rhf"
			},
			{
				"type": "occ",
				"energy": -0.24704,
				"method": "rhf"
			},
			{
				"type": "unocc",
				"energy": 0.00919,
				"method": "rhf"
			},
			{
				"type": "unocc",
				"energy": 0.07299,
				"method": "rhf"
			},
			{
				"type": "unocc",
				"energy": 0.08154,
				"method": "rhf"
			},
			{
				"type": "unocc",
				"energy": 0.10015,
				"method": "rhf"
			},
			{
				"type": "unocc",
				"energy": 0.12061,
				"method": "rhf"
			}
		],
		"cosmo_sigma_profile": { 
			"-0.025": 0.0,
			"-0.024": 0.0,
			"-0.023": 0.0,
			"-0.022": 0.0,
			"-0.021": 0.0,
			"-0.02": 0.0,
			"-0.019": 0.0,
			"-0.018": 0.606166015678,
			"-0.017": 0.659418168777,
			"-0.016": 0.922469615686,
			"-0.015": 0.831435528907,
			"-0.014": 1.21347800801,
			"-0.013": 0.729380280954,
			"-0.012": 0.295623067591,
			"-0.011": 0.483608712128,
			"-0.01": 0.705066230295,
			"-0.009": 0.486654596702,
			"-0.008": 0.633541661235,
			"-0.007": 0.916397227906,
			"-0.006": 1.67205926106,
			"-0.005": 7.33744497187,
			"-0.004": 23.9669781975,
			"-0.003": 29.8867647733,
			"-0.002": 21.410980201,
			"-0.001": 15.7296782114,
			"0.0": 12.8599194001,
			"0.001": 11.458818447,
			"0.002": 5.75748347017,
			"0.003": 4.7137858223,
			"0.004": 4.21211946064,
			"0.005": 4.6399841334,
			"0.006": 3.51522561932,
			"0.007": 3.98539693343,
			"0.008": 4.44205550182,
			"0.009": 3.493020264,
			"0.01": 3.52303437521,
			"0.011": 4.67183953185,
			"0.012": 6.13388036207,
			"0.013": 1.99997423579,
			"0.014": 1.37285850965,
			"0.015": 0.0194643431925,
			"0.016": 0.0,
			"0.017": 0.0,
			"0.018": 0.0,
			"0.019": 0.0,
			"0.02": 0.0,
			"0.021": 0.0,
			"0.022": 0.0,
			"0.023": 0.0,
			"0.024": 0.0,
			"0.025": 0.0
		}
	}
}
