{
	 "smiles": "C1=CC=C(C=C1)C1=CC=C(C=C1)C1=CC=CC=C1", 
	 "Tm": 485.15, 
	 "num_atms": 32, 
	 "gaussian": { 
		 "optdone": 1, 
		 "sigma_profile": "yes", 
		 "theory": "DFT", 
		 "functional": "B3LYP", 
		 "basiset": "6-31G**", 
		 "properties": { 
			 "R2extent": 7232.2267, 
			 "electric_dipole_moment_norm": 0.0, 
			 "electric_quadrupole_moment_norm": 12.9371771442, 
			 "total_energy": -694.370882578, 
			 "HOMO_LUMO_gap": 0.17449, 
			 "cosmo_polarized_energy": -6.92, 
			 "cosmo_cavitation_energy": 35.7, 
			 "cosmo_dispersion_energy": -26.09, 
			 "cosmo_repulsion_energy": 1.97, 
			 "cosmo_total_nonelectrostatic_energy": 11.58, 
			 "SMD_solvation_energy": 5.55 
		},
		"coords": [
			{
				"x": 5.169117907,
				"y": -1.0226494752,
				"z": -0.2764678666,
				"element": "C" 
			},
			{
				"x": 4.6863803376,
				"y": -0.283592694,
				"z": 0.8052845351,
				"element": "C" 
			},
			{
				"x": 3.3136147262,
				"y": -0.1450985025,
				"z": 1.0049236003,
				"element": "C" 
			},
			{
				"x": 2.3913303219,
				"y": -0.74377183,
				"z": 0.1290875988,
				"element": "C" 
			},
			{
				"x": 2.8929659589,
				"y": -1.4853804077,
				"z": -0.9546508584,
				"element": "C" 
			},
			{
				"x": 4.26563912,
				"y": -1.6225208881,
				"z": -1.1558414104,
				"element": "C" 
			},
			{
				"x": 0.9298387954,
				"y": -0.5971155692,
				"z": 0.3424641466,
				"element": "C" 
			},
			{
				"x": 0.0457052578,
				"y": -0.4578423321,
				"z": -0.7408176529,
				"element": "C" 
			},
			{
				"x": -1.3244543469,
				"y": -0.320331105,
				"z": -0.5408153942,
				"element": "C" 
			},
			{
				"x": -1.8752265779,
				"y": -0.315603313,
				"z": 0.7519337264,
				"element": "C" 
			},
			{
				"x": -0.9910928672,
				"y": -0.4548764118,
				"z": 1.8352156307,
				"element": "C" 
			},
			{
				"x": 0.3790665598,
				"y": -0.5923876138,
				"z": 1.6352133004,
				"element": "C" 
			},
			{
				"x": -3.3367180146,
				"y": -0.1689467011,
				"z": 0.9653108321,
				"element": "C" 
			},
			{
				"x": -3.8383523744,
				"y": 0.572661191,
				"z": 2.049050965,
				"element": "C" 
			},
			{
				"x": -5.211025131,
				"y": 0.709801682,
				"z": 2.2502428827,
				"element": "C" 
			},
			{
				"x": -6.1145052108,
				"y": 0.109930748,
				"z": 1.370869854,
				"element": "C" 
			},
			{
				"x": -5.6317688699,
				"y": -0.6291256981,
				"z": 0.2891169608,
				"element": "C" 
			},
			{
				"x": -4.2590032944,
				"y": -0.7676201021,
				"z": 0.0894764381,
				"element": "C" 
			},
			{
				"x": 6.2386101057,
				"y": -1.1300244095,
				"z": -0.4326003772,
				"element": "H" 
			},
			{
				"x": 5.3802558904,
				"y": 0.1947311713,
				"z": 1.4909553683,
				"element": "H" 
			},
			{
				"x": 2.9495016031,
				"y": 0.4551471151,
				"z": 1.8335564047,
				"element": "H" 
			},
			{
				"x": 2.1995681743,
				"y": -1.9794384709,
				"z": -1.6289033798,
				"element": "H" 
			},
			{
				"x": 4.6300382636,
				"y": -2.2070698666,
				"z": -1.9960294431,
				"element": "H" 
			},
			{
				"x": 0.441466766,
				"y": -0.4211380166,
				"z": -1.7515259046,
				"element": "H" 
			},
			{
				"x": -1.9751030213,
				"y": -0.1786508723,
				"z": -1.3987727773,
				"element": "H" 
			},
			{
				"x": -1.3868546518,
				"y": -0.4915798828,
				"z": 2.8459238626,
				"element": "H" 
			},
			{
				"x": 1.0297154097,
				"y": -0.734067064,
				"z": 2.4931706464,
				"element": "H" 
			},
			{
				"x": -3.1449535407,
				"y": 1.0667183331,
				"z": 2.723302894,
				"element": "H" 
			},
			{
				"x": -5.5754237444,
				"y": 1.2943503675,
				"z": 3.090431438,
				"element": "H" 
			},
			{
				"x": -7.1839970309,
				"y": 0.2173061573,
				"z": 1.5270043995,
				"element": "H" 
			},
			{
				"x": -6.3256448071,
				"y": -1.1074494437,
				"z": -0.3965535087,
				"element": "H" 
			},
			{
				"x": -3.8948917139,
				"y": -1.3678660955,
				"z": -0.739156911,
				"element": "H" 
			}
		],
		 "valence_orbital": [ 
			{
				"type": "occ",
				"energy": -0.25105,
				"method": "rhf"
			},
			{
				"type": "occ",
				"energy": -0.24961,
				"method": "rhf"
			},
			{
				"type": "occ",
				"energy": -0.24937,
				"method": "rhf"
			},
			{
				"type": "occ",
				"energy": -0.24768,
				"method": "rhf"
			},
			{
				"type": "occ",
				"energy": -0.21247,
				"method": "rhf"
			},
			{
				"type": "unocc",
				"energy": -0.03798,
				"method": "rhf"
			},
			{
				"type": "unocc",
				"energy": -0.0051,
				"method": "rhf"
			},
			{
				"type": "unocc",
				"energy": -0.00099,
				"method": "rhf"
			},
			{
				"type": "unocc",
				"energy": 0.00128,
				"method": "rhf"
			},
			{
				"type": "unocc",
				"energy": 0.00219,
				"method": "rhf"
			}
		],
		"cosmo_sigma_profile": { 
			"-0.025": 0.0,
			"-0.024": 0.0,
			"-0.023": 0.0,
			"-0.022": 0.0,
			"-0.021": 0.0,
			"-0.02": 0.0,
			"-0.019": 0.0,
			"-0.018": 0.0,
			"-0.017": 0.0,
			"-0.016": 0.0,
			"-0.015": 0.0,
			"-0.014": 0.0,
			"-0.013": 0.0,
			"-0.012": 0.0,
			"-0.011": 0.0,
			"-0.01": 0.0,
			"-0.009": 0.0,
			"-0.008": 0.0,
			"-0.007": 0.0,
			"-0.006": 9.91331245508,
			"-0.005": 31.3600099481,
			"-0.004": 30.2315440268,
			"-0.003": 28.0672158181,
			"-0.002": 19.0580103193,
			"-0.001": 17.0006965964,
			"0.0": 17.4672129907,
			"0.001": 17.3844415764,
			"0.002": 21.1249773737,
			"0.003": 26.0369077929,
			"0.004": 25.4521348198,
			"0.005": 28.3365650685,
			"0.006": 15.2731900827,
			"0.007": 0.08357218948,
			"0.008": 0.0,
			"0.009": 0.0,
			"0.01": 0.0,
			"0.011": 0.0,
			"0.012": 0.0,
			"0.013": 0.0,
			"0.014": 0.0,
			"0.015": 0.0,
			"0.016": 0.0,
			"0.017": 0.0,
			"0.018": 0.0,
			"0.019": 0.0,
			"0.02": 0.0,
			"0.021": 0.0,
			"0.022": 0.0,
			"0.023": 0.0,
			"0.024": 0.0,
			"0.025": 0.0
		}
	}
}
