{
	 "smiles": "COC1=CC=C(OC2=CC=C(NC(=O)N(C)C)C=C2)C=C1", 
	 "Tm": 411.15, 
	 "num_atms": 39, 
	 "gaussian": { 
		 "optdone": 1, 
		 "sigma_profile": "yes", 
		 "theory": "DFT", 
		 "functional": "B3LYP", 
		 "basiset": "6-31G**", 
		 "properties": { 
			 "R2extent": 11586.9297, 
			 "electric_dipole_moment_norm": 3.78448940413, 
			 "electric_quadrupole_moment_norm": 27.8214739374, 
			 "total_energy": -955.717300668, 
			 "HOMO_LUMO_gap": 0.18491, 
			 "cosmo_polarized_energy": -15.3, 
			 "cosmo_cavitation_energy": 42.77, 
			 "cosmo_dispersion_energy": -30.25, 
			 "cosmo_repulsion_energy": 2.32, 
			 "cosmo_total_nonelectrostatic_energy": 14.84, 
			 "SMD_solvation_energy": 9.45 
		},
		"coords": [
			{
				"x": -2.3549380224,
				"y": 6.7818727213,
				"z": -4.1324188762,
				"element": "C" 
			},
			{
				"x": -1.5297761414,
				"y": 6.3009779432,
				"z": -3.0845589105,
				"element": "O" 
			},
			{
				"x": -1.7199475689,
				"y": 5.0189997808,
				"z": -2.6515018238,
				"element": "C" 
			},
			{
				"x": -2.6716984397,
				"y": 4.1339343334,
				"z": -3.1693823019,
				"element": "C" 
			},
			{
				"x": -2.7709988993,
				"y": 2.8388632378,
				"z": -2.6503903418,
				"element": "C" 
			},
			{
				"x": -1.9364351233,
				"y": 2.4304051726,
				"z": -1.6155805215,
				"element": "C" 
			},
			{
				"x": -2.1394902087,
				"y": 1.1701362535,
				"z": -1.0749427822,
				"element": "O" 
			},
			{
				"x": -1.0827893871,
				"y": 0.2909443956,
				"z": -0.9541023179,
				"element": "C" 
			},
			{
				"x": 0.0444803415,
				"y": 0.3130839096,
				"z": -1.7801133931,
				"element": "C" 
			},
			{
				"x": 1.0427004022,
				"y": -0.6437824646,
				"z": -1.608138554,
				"element": "C" 
			},
			{
				"x": 0.9249794699,
				"y": -1.6512563833,
				"z": -0.6401620138,
				"element": "C" 
			},
			{
				"x": 1.9621846845,
				"y": -2.6178318594,
				"z": -0.5523514954,
				"element": "N" 
			},
			{
				"x": 2.1612812485,
				"y": -3.601135419,
				"z": 0.4279298902,
				"element": "C" 
			},
			{
				"x": 2.4789323456,
				"y": -4.7401746621,
				"z": 0.0993440223,
				"element": "O" 
			},
			{
				"x": 2.0072918691,
				"y": -3.2142027515,
				"z": 1.7443952183,
				"element": "N" 
			},
			{
				"x": 2.2570024139,
				"y": -1.8584407729,
				"z": 2.2195486053,
				"element": "C" 
			},
			{
				"x": 2.1240934941,
				"y": -4.257454103,
				"z": 2.7544062417,
				"element": "C" 
			},
			{
				"x": -0.2227476076,
				"y": -1.6755546472,
				"z": 0.1662997052,
				"element": "C" 
			},
			{
				"x": -1.2085076267,
				"y": -0.7033686016,
				"z": 0.0190445754,
				"element": "C" 
			},
			{
				"x": -0.9889699842,
				"y": 3.316556191,
				"z": -1.0874659962,
				"element": "C" 
			},
			{
				"x": -0.8797439207,
				"y": 4.5993539379,
				"z": -1.6077997322,
				"element": "C" 
			},
			{
				"x": -2.0413345288,
				"y": 7.8106538462,
				"z": -4.3163482673,
				"element": "H" 
			},
			{
				"x": -3.4159398046,
				"y": 6.7739723662,
				"z": -3.850079489,
				"element": "H" 
			},
			{
				"x": -2.2260081913,
				"y": 6.196516733,
				"z": -5.0523978555,
				"element": "H" 
			},
			{
				"x": -3.3348626048,
				"y": 4.432230174,
				"z": -3.9724395014,
				"element": "H" 
			},
			{
				"x": -3.5044431236,
				"y": 2.1413915552,
				"z": -3.0414630469,
				"element": "H" 
			},
			{
				"x": 0.1468498002,
				"y": 1.0752666641,
				"z": -2.5442971732,
				"element": "H" 
			},
			{
				"x": 1.9278195215,
				"y": -0.6136370453,
				"z": -2.2379184872,
				"element": "H" 
			},
			{
				"x": 2.2636500398,
				"y": -2.9870462837,
				"z": -1.4452784716,
				"element": "H" 
			},
			{
				"x": 3.1452813366,
				"y": -1.8487247141,
				"z": 2.8658661284,
				"element": "H" 
			},
			{
				"x": 2.4359801103,
				"y": -1.1846049763,
				"z": 1.3844350263,
				"element": "H" 
			},
			{
				"x": 1.4077287185,
				"y": -1.4769317061,
				"z": 2.7989342792,
				"element": "H" 
			},
			{
				"x": 3.1561360558,
				"y": -4.3550453191,
				"z": 3.1204797606,
				"element": "H" 
			},
			{
				"x": 1.4771103586,
				"y": -4.0131452465,
				"z": 3.6037437942,
				"element": "H" 
			},
			{
				"x": 1.8228465009,
				"y": -5.2105251131,
				"z": 2.3229233426,
				"element": "H" 
			},
			{
				"x": -0.3423851032,
				"y": -2.4549733655,
				"z": 0.9101512783,
				"element": "H" 
			},
			{
				"x": -2.0968732807,
				"y": -0.7149800912,
				"z": 0.6420648868,
				"element": "H" 
			},
			{
				"x": -0.3470203444,
				"y": 2.9975523475,
				"z": -0.272897318,
				"element": "H" 
			},
			{
				"x": -0.1537388,
				"y": 5.3029039628,
				"z": -1.2137380842,
				"element": "H" 
			}
		],
		 "valence_orbital": [ 
			{
				"type": "occ",
				"energy": -0.25585,
				"method": "rhf"
			},
			{
				"type": "occ",
				"energy": -0.2545,
				"method": "rhf"
			},
			{
				"type": "occ",
				"energy": -0.23357,
				"method": "rhf"
			},
			{
				"type": "occ",
				"energy": -0.2198,
				"method": "rhf"
			},
			{
				"type": "occ",
				"energy": -0.19905,
				"method": "rhf"
			},
			{
				"type": "unocc",
				"energy": -0.01414,
				"method": "rhf"
			},
			{
				"type": "unocc",
				"energy": -0.00298,
				"method": "rhf"
			},
			{
				"type": "unocc",
				"energy": 0.00106,
				"method": "rhf"
			},
			{
				"type": "unocc",
				"energy": 0.01615,
				"method": "rhf"
			},
			{
				"type": "unocc",
				"energy": 0.05426,
				"method": "rhf"
			}
		],
		"cosmo_sigma_profile": { 
			"-0.025": 0.0,
			"-0.024": 0.0,
			"-0.023": 0.0,
			"-0.022": 0.0,
			"-0.021": 0.0,
			"-0.02": 0.0,
			"-0.019": 0.0,
			"-0.018": 0.0,
			"-0.017": 0.0,
			"-0.016": 0.0,
			"-0.015": 0.0,
			"-0.014": 0.212804425641,
			"-0.013": 0.760410226355,
			"-0.012": 0.695298859663,
			"-0.011": 0.958147382544,
			"-0.01": 1.42780334431,
			"-0.009": 0.853169318939,
			"-0.008": 0.77828943546,
			"-0.007": 3.54889557147,
			"-0.006": 15.5348887707,
			"-0.005": 26.7502305799,
			"-0.004": 35.3809116211,
			"-0.003": 35.4599057477,
			"-0.002": 32.4656998804,
			"-0.001": 26.7172823066,
			"0.0": 20.4632949929,
			"0.001": 19.4370941678,
			"0.002": 19.5697439603,
			"0.003": 21.4921575267,
			"0.004": 26.2018848087,
			"0.005": 17.4447172918,
			"0.006": 5.40981935078,
			"0.007": 2.96141987263,
			"0.008": 4.01863883404,
			"0.009": 4.67183016498,
			"0.01": 2.79105080637,
			"0.011": 2.29997196986,
			"0.012": 1.12532449398,
			"0.013": 2.64493908737,
			"0.014": 5.87269200675,
			"0.015": 1.50598640829,
			"0.016": 0.0,
			"0.017": 0.0,
			"0.018": 0.0,
			"0.019": 0.0,
			"0.02": 0.0,
			"0.021": 0.0,
			"0.022": 0.0,
			"0.023": 0.0,
			"0.024": 0.0,
			"0.025": 0.0
		}
	}
}
