{
	 "smiles": "CNC(=O)COC1CCN(CC1)C(=O)OC(C)(C)C", 
	 "Tm": 368.15, 
	 "num_atms": 43, 
	 "gaussian": { 
		 "optdone": 1, 
		 "sigma_profile": "yes", 
		 "theory": "DFT", 
		 "functional": "B3LYP", 
		 "basiset": "6-31G**", 
		 "properties": { 
			 "R2extent": 8362.3801, 
			 "electric_dipole_moment_norm": 5.77058279033, 
			 "electric_quadrupole_moment_norm": 16.8075565839, 
			 "total_energy": -920.284283245, 
			 "HOMO_LUMO_gap": 0.23456, 
			 "cosmo_polarized_energy": -19.08, 
			 "cosmo_cavitation_energy": 43.24, 
			 "cosmo_dispersion_energy": -30.24, 
			 "cosmo_repulsion_energy": 2.38, 
			 "cosmo_total_nonelectrostatic_energy": 15.38, 
			 "SMD_solvation_energy": 7.62 
		},
		"coords": [
			{
				"x": 3.133912336,
				"y": 2.1709812337,
				"z": -3.7290826539,
				"element": "C" 
			},
			{
				"x": 3.3562738295,
				"y": 1.8784053533,
				"z": -2.3235378985,
				"element": "N" 
			},
			{
				"x": 2.6632691723,
				"y": 0.9101084668,
				"z": -1.6570863901,
				"element": "C" 
			},
			{
				"x": 1.8089086833,
				"y": 0.2088920964,
				"z": -2.1861316324,
				"element": "O" 
			},
			{
				"x": 3.0881766346,
				"y": 0.7256480771,
				"z": -0.1898010277,
				"element": "C" 
			},
			{
				"x": 1.9816876596,
				"y": 0.5711299865,
				"z": 0.6641710742,
				"element": "O" 
			},
			{
				"x": 1.7815569925,
				"y": -0.7271266483,
				"z": 1.2467182786,
				"element": "C" 
			},
			{
				"x": 1.1876515752,
				"y": -1.7409757346,
				"z": 0.2543332648,
				"element": "C" 
			},
			{
				"x": -0.3166494223,
				"y": -1.5491272013,
				"z": 0.068758904,
				"element": "C" 
			},
			{
				"x": -1.0041436772,
				"y": -1.7128303115,
				"z": 1.3616585229,
				"element": "N" 
			},
			{
				"x": -0.2137015027,
				"y": -1.6031820876,
				"z": 2.5891551543,
				"element": "C" 
			},
			{
				"x": 0.8354614268,
				"y": -0.4980822598,
				"z": 2.4458102858,
				"element": "C" 
			},
			{
				"x": -2.3595576979,
				"y": -1.8498457112,
				"z": 1.4693846746,
				"element": "C" 
			},
			{
				"x": -2.9596809703,
				"y": -1.9605826609,
				"z": 2.5327161099,
				"element": "O" 
			},
			{
				"x": -2.9354666159,
				"y": -1.8473856755,
				"z": 0.238342136,
				"element": "O" 
			},
			{
				"x": -4.3859748439,
				"y": -2.0070231553,
				"z": 0.0855881743,
				"element": "C" 
			},
			{
				"x": -4.8313537838,
				"y": -3.365360532,
				"z": 0.6394691077,
				"element": "C" 
			},
			{
				"x": -5.1186732425,
				"y": -0.8396163014,
				"z": 0.7569176699,
				"element": "C" 
			},
			{
				"x": -4.5678463369,
				"y": -1.9566711742,
				"z": -1.4343115546,
				"element": "C" 
			},
			{
				"x": 4.0691382191,
				"y": 2.1110795244,
				"z": -4.2959641417,
				"element": "H" 
			},
			{
				"x": 2.4332982244,
				"y": 1.4267131268,
				"z": -4.1086466759,
				"element": "H" 
			},
			{
				"x": 2.7003681931,
				"y": 3.1680530752,
				"z": -3.8667246086,
				"element": "H" 
			},
			{
				"x": 3.9850112179,
				"y": 2.4694611564,
				"z": -1.8012897612,
				"element": "H" 
			},
			{
				"x": 3.6686695673,
				"y": 1.5947686234,
				"z": 0.153493041,
				"element": "H" 
			},
			{
				"x": 3.7591776104,
				"y": -0.1458310743,
				"z": -0.1519212371,
				"element": "H" 
			},
			{
				"x": 2.756974868,
				"y": -1.1025427408,
				"z": 1.5941760244,
				"element": "H" 
			},
			{
				"x": 1.3882094914,
				"y": -2.754082837,
				"z": 0.6255022676,
				"element": "H" 
			},
			{
				"x": 1.6729227396,
				"y": -1.6373484903,
				"z": -0.7185306181,
				"element": "H" 
			},
			{
				"x": -0.7105807225,
				"y": -2.2786094706,
				"z": -0.6422358643,
				"element": "H" 
			},
			{
				"x": -0.504746806,
				"y": -0.5539199111,
				"z": -0.351847125,
				"element": "H" 
			},
			{
				"x": 0.2678438208,
				"y": -2.563960404,
				"z": 2.825347146,
				"element": "H" 
			},
			{
				"x": -0.9055249096,
				"y": -1.3857012655,
				"z": 3.4033753299,
				"element": "H" 
			},
			{
				"x": 1.4027418925,
				"y": -0.3961271758,
				"z": 3.3767389932,
				"element": "H" 
			},
			{
				"x": 0.3230794184,
				"y": 0.4541687682,
				"z": 2.273878879,
				"element": "H" 
			},
			{
				"x": -4.6827231903,
				"y": -3.4124372305,
				"z": 1.7182857243,
				"element": "H" 
			},
			{
				"x": -4.2619015458,
				"y": -4.1721284432,
				"z": 0.166642089,
				"element": "H" 
			},
			{
				"x": -5.8921048759,
				"y": -3.5238581364,
				"z": 0.4182349853,
				"element": "H" 
			},
			{
				"x": -6.1906942892,
				"y": -0.9046619709,
				"z": 0.54274801,
				"element": "H" 
			},
			{
				"x": -4.7509462971,
				"y": 0.1137428986,
				"z": 0.363931824,
				"element": "H" 
			},
			{
				"x": -4.9700880776,
				"y": -0.8583891724,
				"z": 1.8366063444,
				"element": "H" 
			},
			{
				"x": -5.6264730034,
				"y": -2.0607042319,
				"z": -1.6909825977,
				"element": "H" 
			},
			{
				"x": -4.0127761918,
				"y": -2.7666526801,
				"z": -1.9167044655,
				"element": "H" 
			},
			{
				"x": -4.2048255702,
				"y": -1.0055876987,
				"z": -1.8345857631,
				"element": "H" 
			}
		],
		 "valence_orbital": [ 
			{
				"type": "occ",
				"energy": -0.27098,
				"method": "rhf"
			},
			{
				"type": "occ",
				"energy": -0.26047,
				"method": "rhf"
			},
			{
				"type": "occ",
				"energy": -0.24644,
				"method": "rhf"
			},
			{
				"type": "occ",
				"energy": -0.2426,
				"method": "rhf"
			},
			{
				"type": "occ",
				"energy": -0.21842,
				"method": "rhf"
			},
			{
				"type": "unocc",
				"energy": 0.01614,
				"method": "rhf"
			},
			{
				"type": "unocc",
				"energy": 0.06545,
				"method": "rhf"
			},
			{
				"type": "unocc",
				"energy": 0.06879,
				"method": "rhf"
			},
			{
				"type": "unocc",
				"energy": 0.08942,
				"method": "rhf"
			},
			{
				"type": "unocc",
				"energy": 0.09756,
				"method": "rhf"
			}
		],
		"cosmo_sigma_profile": { 
			"-0.025": 0.0,
			"-0.024": 0.0,
			"-0.023": 0.0,
			"-0.022": 0.0,
			"-0.021": 0.0,
			"-0.02": 0.0,
			"-0.019": 0.0,
			"-0.018": 0.0,
			"-0.017": 0.0,
			"-0.016": 0.0,
			"-0.015": 0.283017906427,
			"-0.014": 1.32350782053,
			"-0.013": 1.82244450741,
			"-0.012": 1.16394202648,
			"-0.011": 1.48496152582,
			"-0.01": 1.37289106703,
			"-0.009": 1.59465032322,
			"-0.008": 1.47627821595,
			"-0.007": 2.23411714773,
			"-0.006": 6.64146138175,
			"-0.005": 12.2121090977,
			"-0.004": 34.5288332901,
			"-0.003": 40.4924445626,
			"-0.002": 38.7148054015,
			"-0.001": 36.2206315697,
			"0.0": 36.116950231,
			"0.001": 30.9650928173,
			"0.002": 14.7782341194,
			"0.003": 9.46690659224,
			"0.004": 7.4306328178,
			"0.005": 8.0127626323,
			"0.006": 7.51078104605,
			"0.007": 6.03622892611,
			"0.008": 6.12681250952,
			"0.009": 5.03547774422,
			"0.01": 5.42491537349,
			"0.011": 4.19415603762,
			"0.012": 3.91041663685,
			"0.013": 4.61882362811,
			"0.014": 4.35880548133,
			"0.015": 0.0402116457523,
			"0.016": 0.0,
			"0.017": 0.0,
			"0.018": 0.0,
			"0.019": 0.0,
			"0.02": 0.0,
			"0.021": 0.0,
			"0.022": 0.0,
			"0.023": 0.0,
			"0.024": 0.0,
			"0.025": 0.0
		}
	}
}
