{
	 "smiles": "FC(F)(F)C1=CC(=NN1)C1=CC2=C(OCO2)C=C1", 
	 "Tm": 451.15, 
	 "num_atms": 25, 
	 "gaussian": { 
		 "optdone": 1, 
		 "sigma_profile": "yes", 
		 "theory": "DFT", 
		 "functional": "B3LYP", 
		 "basiset": "6-31G**", 
		 "properties": { 
			 "R2extent": 6667.3285, 
			 "electric_dipole_moment_norm": 0.847101534646, 
			 "electric_quadrupole_moment_norm": 11.7015873278, 
			 "total_energy": -982.819497072, 
			 "HOMO_LUMO_gap": 0.17717, 
			 "cosmo_polarized_energy": -11.28, 
			 "cosmo_cavitation_energy": 31.68, 
			 "cosmo_dispersion_energy": -23.43, 
			 "cosmo_repulsion_energy": 1.72, 
			 "cosmo_total_nonelectrostatic_energy": 9.97, 
			 "SMD_solvation_energy": 6.24 
		},
		"coords": [
			{
				"x": 4.0024415371,
				"y": 0.1205150566,
				"z": -1.5811996497,
				"element": "F" 
			},
			{
				"x": 3.4212827831,
				"y": 1.3140783684,
				"z": -1.3497838193,
				"element": "C" 
			},
			{
				"x": 3.9982394901,
				"y": 1.8255391496,
				"z": -0.2446022798,
				"element": "F" 
			},
			{
				"x": 3.7286853802,
				"y": 2.1297461155,
				"z": -2.3893206292,
				"element": "F" 
			},
			{
				"x": 1.9419083959,
				"y": 1.1991649853,
				"z": -1.2078076645,
				"element": "C" 
			},
			{
				"x": 1.1587125012,
				"y": 0.497682907,
				"z": -0.3155900224,
				"element": "C" 
			},
			{
				"x": -0.1785533328,
				"y": 0.79261424,
				"z": -0.695619033,
				"element": "C" 
			},
			{
				"x": -0.1983238216,
				"y": 1.621139909,
				"z": -1.7522898434,
				"element": "N" 
			},
			{
				"x": 1.0898174507,
				"y": 1.8508716474,
				"z": -2.0414427532,
				"element": "N" 
			},
			{
				"x": -1.4311775921,
				"y": 0.3131803503,
				"z": -0.0880169806,
				"element": "C" 
			},
			{
				"x": -1.389876994,
				"y": -0.5600568152,
				"z": 1.024816631,
				"element": "C" 
			},
			{
				"x": -2.5945329944,
				"y": -0.9749476433,
				"z": 1.5500666638,
				"element": "C" 
			},
			{
				"x": -3.8155684393,
				"y": -0.5637206778,
				"z": 1.0225822053,
				"element": "C" 
			},
			{
				"x": -4.8444842606,
				"y": -1.1262825509,
				"z": 1.7365592882,
				"element": "O" 
			},
			{
				"x": -4.2306098459,
				"y": -1.924863367,
				"z": 2.7560475677,
				"element": "C" 
			},
			{
				"x": -2.8090343807,
				"y": -1.8134511458,
				"z": 2.6179979162,
				"element": "O" 
			},
			{
				"x": -3.8838696516,
				"y": 0.2883215691,
				"z": -0.0632376078,
				"element": "C" 
			},
			{
				"x": -2.6671773341,
				"y": 0.7212717532,
				"z": -0.6114437874,
				"element": "C" 
			},
			{
				"x": 1.5084703064,
				"y": -0.131530699,
				"z": 0.4878892882,
				"element": "H" 
			},
			{
				"x": 1.3379156534,
				"y": 2.454542203,
				"z": -2.8105184378,
				"element": "H" 
			},
			{
				"x": -0.4556067501,
				"y": -0.897567,
				"z": 1.4575511722,
				"element": "H" 
			},
			{
				"x": -4.5299125422,
				"y": -2.9726911589,
				"z": 2.62888321,
				"element": "H" 
			},
			{
				"x": -4.5329956297,
				"y": -1.5528651793,
				"z": 3.7429006787,
				"element": "H" 
			},
			{
				"x": -4.8366207678,
				"y": 0.6063300496,
				"z": -0.4711210874,
				"element": "H" 
			},
			{
				"x": -2.6713291616,
				"y": 1.3903779333,
				"z": -1.4640010258,
				"element": "H" 
			}
		],
		 "valence_orbital": [ 
			{
				"type": "occ",
				"energy": -0.30192,
				"method": "rhf"
			},
			{
				"type": "occ",
				"energy": -0.27665,
				"method": "rhf"
			},
			{
				"type": "occ",
				"energy": -0.26792,
				"method": "rhf"
			},
			{
				"type": "occ",
				"energy": -0.24239,
				"method": "rhf"
			},
			{
				"type": "occ",
				"energy": -0.2009,
				"method": "rhf"
			},
			{
				"type": "unocc",
				"energy": -0.02373,
				"method": "rhf"
			},
			{
				"type": "unocc",
				"energy": -0.00835,
				"method": "rhf"
			},
			{
				"type": "unocc",
				"energy": 0.00847,
				"method": "rhf"
			},
			{
				"type": "unocc",
				"energy": 0.07422,
				"method": "rhf"
			},
			{
				"type": "unocc",
				"energy": 0.08539,
				"method": "rhf"
			}
		],
		"cosmo_sigma_profile": { 
			"-0.025": 0.0,
			"-0.024": 0.0,
			"-0.023": 0.0,
			"-0.022": 0.0,
			"-0.021": 0.0,
			"-0.02": 0.0,
			"-0.019": 0.0,
			"-0.018": 0.0852118444331,
			"-0.017": 1.04046757855,
			"-0.016": 0.558542452556,
			"-0.015": 1.20789381716,
			"-0.014": 0.585103914286,
			"-0.013": 1.28462754874,
			"-0.012": 1.00853635849,
			"-0.011": 0.619118128703,
			"-0.01": 1.29967067358,
			"-0.009": 3.3292684832,
			"-0.008": 6.22894528696,
			"-0.007": 13.0008988549,
			"-0.006": 12.3233323599,
			"-0.005": 10.9565612804,
			"-0.004": 10.5254264797,
			"-0.003": 10.1772774899,
			"-0.002": 10.3140684919,
			"-0.001": 10.8026870002,
			"0.0": 15.4782603651,
			"0.001": 19.6605887431,
			"0.002": 44.5077417092,
			"0.003": 32.7198067905,
			"0.004": 16.2023872133,
			"0.005": 8.85569172394,
			"0.006": 4.59267406156,
			"0.007": 4.44117559568,
			"0.008": 4.29980376045,
			"0.009": 4.09271068358,
			"0.01": 2.30194052339,
			"0.011": 1.30567980075,
			"0.012": 1.09635277882,
			"0.013": 0.417220970878,
			"0.014": 0.0,
			"0.015": 0.0,
			"0.016": 0.0,
			"0.017": 0.0,
			"0.018": 0.0,
			"0.019": 0.0,
			"0.02": 0.0,
			"0.021": 0.0,
			"0.022": 0.0,
			"0.023": 0.0,
			"0.024": 0.0,
			"0.025": 0.0
		}
	}
}
