{
	 "smiles": "CC(C)(C)OC(=O)N1CCC2(CC2C(O)=O)CC1", 
	 "Tm": 397.15, 
	 "num_atms": 39, 
	 "gaussian": { 
		 "optdone": 1, 
		 "sigma_profile": "yes", 
		 "theory": "DFT", 
		 "functional": "B3LYP", 
		 "basiset": "6-31G**", 
		 "properties": { 
			 "R2extent": 7138.4254, 
			 "electric_dipole_moment_norm": 4.50077245592, 
			 "electric_quadrupole_moment_norm": 34.1250266306, 
			 "total_energy": -863.702488924, 
			 "HOMO_LUMO_gap": 0.23661, 
			 "cosmo_polarized_energy": -20.28, 
			 "cosmo_cavitation_energy": 39.48, 
			 "cosmo_dispersion_energy": -27.28, 
			 "cosmo_repulsion_energy": 2.12, 
			 "cosmo_total_nonelectrostatic_energy": 14.32, 
			 "SMD_solvation_energy": 7.51 
		},
		"coords": [
			{
				"x": 0.9435482574,
				"y": -0.7598059291,
				"z": 3.7281959951,
				"element": "C" 
			},
			{
				"x": -0.3436395337,
				"y": -0.1053918504,
				"z": 3.219498365,
				"element": "C" 
			},
			{
				"x": -1.5570251557,
				"y": -0.996019408,
				"z": 3.5068546264,
				"element": "C" 
			},
			{
				"x": -0.5039934829,
				"y": 1.30240925,
				"z": 3.8028131626,
				"element": "C" 
			},
			{
				"x": -0.1079626066,
				"y": -0.026067455,
				"z": 1.7684885709,
				"element": "O" 
			},
			{
				"x": -1.0408345527,
				"y": 0.5055708373,
				"z": 0.9403743101,
				"element": "C" 
			},
			{
				"x": -2.1240555932,
				"y": 0.9617090696,
				"z": 1.2827402365,
				"element": "O" 
			},
			{
				"x": -0.6052680197,
				"y": 0.4613223412,
				"z": -0.358819242,
				"element": "N" 
			},
			{
				"x": 0.7183120319,
				"y": -0.0557638251,
				"z": -0.7322755172,
				"element": "C" 
			},
			{
				"x": 0.7780080587,
				"y": -0.2735810435,
				"z": -2.2460707238,
				"element": "C" 
			},
			{
				"x": 0.5007947911,
				"y": 1.013157829,
				"z": -3.0253917431,
				"element": "C" 
			},
			{
				"x": 0.6057607454,
				"y": 0.9620158859,
				"z": -4.5212932405,
				"element": "C" 
			},
			{
				"x": 1.6899473787,
				"y": 1.6752775349,
				"z": -3.7364594347,
				"element": "C" 
			},
			{
				"x": 1.9128440801,
				"y": 3.1575534537,
				"z": -3.7044512923,
				"element": "C" 
			},
			{
				"x": 0.9451449444,
				"y": 3.9635192291,
				"z": -4.2222638322,
				"element": "O" 
			},
			{
				"x": 2.8997161753,
				"y": 3.6478078862,
				"z": -3.2106283861,
				"element": "O" 
			},
			{
				"x": -0.5644365247,
				"y": 1.8979940352,
				"z": -2.3551112981,
				"element": "C" 
			},
			{
				"x": -1.4343688812,
				"y": 1.0801618896,
				"z": -1.3945806846,
				"element": "C" 
			},
			{
				"x": 1.8137070317,
				"y": -0.1450175146,
				"z": 3.4803038196,
				"element": "H" 
			},
			{
				"x": 1.0794221945,
				"y": -1.7478483611,
				"z": 3.2784145533,
				"element": "H" 
			},
			{
				"x": 0.9009868623,
				"y": -0.877643079,
				"z": 4.8150596682,
				"element": "H" 
			},
			{
				"x": -2.4717544429,
				"y": -0.543192355,
				"z": 3.124078604,
				"element": "H" 
			},
			{
				"x": -1.4251704851,
				"y": -1.9788611943,
				"z": 3.0429380748,
				"element": "H" 
			},
			{
				"x": -1.6581550674,
				"y": -1.1419535431,
				"z": 4.5873047719,
				"element": "H" 
			},
			{
				"x": 0.3604836341,
				"y": 1.9216674891,
				"z": 3.5429517865,
				"element": "H" 
			},
			{
				"x": -1.4081518308,
				"y": 1.7799703249,
				"z": 3.4252514463,
				"element": "H" 
			},
			{
				"x": -0.5626675018,
				"y": 1.242842757,
				"z": 4.8945557676,
				"element": "H" 
			},
			{
				"x": 0.8975172189,
				"y": -0.9977771217,
				"z": -0.2090104067,
				"element": "H" 
			},
			{
				"x": 1.509453673,
				"y": 0.6403251482,
				"z": -0.4197292489,
				"element": "H" 
			},
			{
				"x": 0.0347109311,
				"y": -1.0317349138,
				"z": -2.5248287121,
				"element": "H" 
			},
			{
				"x": 1.7581233001,
				"y": -0.6822174265,
				"z": -2.5122538414,
				"element": "H" 
			},
			{
				"x": -0.1064825839,
				"y": 1.5415789063,
				"z": -5.1080219324,
				"element": "H" 
			},
			{
				"x": 0.8846449284,
				"y": 0.0281667355,
				"z": -5.0021795707,
				"element": "H" 
			},
			{
				"x": 2.6368765247,
				"y": 1.1546020941,
				"z": -3.6360885919,
				"element": "H" 
			},
			{
				"x": 0.2776392462,
				"y": 3.4381231286,
				"z": -4.6831684512,
				"element": "H" 
			},
			{
				"x": -1.2107663368,
				"y": 2.377897251,
				"z": -3.0979929792,
				"element": "H" 
			},
			{
				"x": -0.0863331913,
				"y": 2.7020648576,
				"z": -1.7838549577,
				"element": "H" 
			},
			{
				"x": -1.9979684286,
				"y": 0.3155800295,
				"z": -1.948838749,
				"element": "H" 
			},
			{
				"x": -2.1633077892,
				"y": 1.7145570567,
				"z": -0.8898109235,
				"element": "H" 
			}
		],
		 "valence_orbital": [ 
			{
				"type": "occ",
				"energy": -0.29232,
				"method": "rhf"
			},
			{
				"type": "occ",
				"energy": -0.2857,
				"method": "rhf"
			},
			{
				"type": "occ",
				"energy": -0.26459,
				"method": "rhf"
			},
			{
				"type": "occ",
				"energy": -0.25895,
				"method": "rhf"
			},
			{
				"type": "occ",
				"energy": -0.23609,
				"method": "rhf"
			},
			{
				"type": "unocc",
				"energy": 0.00052,
				"method": "rhf"
			},
			{
				"type": "unocc",
				"energy": 0.03924,
				"method": "rhf"
			},
			{
				"type": "unocc",
				"energy": 0.05549,
				"method": "rhf"
			},
			{
				"type": "unocc",
				"energy": 0.07223,
				"method": "rhf"
			},
			{
				"type": "unocc",
				"energy": 0.08233,
				"method": "rhf"
			}
		],
		"cosmo_sigma_profile": { 
			"-0.025": 0.0,
			"-0.024": 0.0,
			"-0.023": 0.0,
			"-0.022": 0.0,
			"-0.021": 0.0,
			"-0.02": 0.0,
			"-0.019": 0.0,
			"-0.018": 0.463992772525,
			"-0.017": 0.933594018304,
			"-0.016": 0.93608291758,
			"-0.015": 0.66318509442,
			"-0.014": 1.02681640813,
			"-0.013": 0.93900011551,
			"-0.012": 1.29711712297,
			"-0.011": 1.51478616891,
			"-0.01": 0.921484575876,
			"-0.009": 1.1095878495,
			"-0.008": 1.29230632545,
			"-0.007": 3.33817151591,
			"-0.006": 7.26085051602,
			"-0.005": 10.431631975,
			"-0.004": 31.079220612,
			"-0.003": 42.4237937705,
			"-0.002": 34.188627162,
			"-0.001": 29.215294688,
			"0.0": 31.7583505582,
			"0.001": 28.5742688382,
			"0.002": 11.6215543629,
			"0.003": 5.79177452547,
			"0.004": 5.58687252295,
			"0.005": 6.60158062567,
			"0.006": 5.97181437485,
			"0.007": 4.85302259686,
			"0.008": 3.6057149699,
			"0.009": 4.89648270022,
			"0.01": 5.32148394056,
			"0.011": 6.37936159645,
			"0.012": 7.75443321998,
			"0.013": 6.65038903008,
			"0.014": 2.5690842712,
			"0.015": 0.0,
			"0.016": 0.0,
			"0.017": 0.0,
			"0.018": 0.0,
			"0.019": 0.0,
			"0.02": 0.0,
			"0.021": 0.0,
			"0.022": 0.0,
			"0.023": 0.0,
			"0.024": 0.0,
			"0.025": 0.0
		}
	}
}
