{
	 "smiles": "CC(=O)C1=C(C)N=C(S1)C1=CC=C(Br)C=C1", 
	 "Tm": 377.15, 
	 "num_atms": 26, 
	 "gaussian": { 
		 "optdone": 1, 
		 "sigma_profile": "yes", 
		 "theory": "DFT", 
		 "functional": "B3LYP", 
		 "basiset": "6-31G**", 
		 "properties": { 
			 "R2extent": 10274.9003, 
			 "electric_dipole_moment_norm": 2.70226206353, 
			 "electric_quadrupole_moment_norm": 14.1248027615, 
			 "total_energy": -3562.88084362, 
			 "HOMO_LUMO_gap": 0.14674, 
			 "cosmo_polarized_energy": -10.77, 
			 "cosmo_cavitation_energy": 34.29, 
			 "cosmo_dispersion_energy": -25.86, 
			 "cosmo_repulsion_energy": 1.95, 
			 "cosmo_total_nonelectrostatic_energy": 10.38, 
			 "SMD_solvation_energy": 3.9 
		},
		"coords": [
			{
				"x": -2.6992156406,
				"y": 1.9591414921,
				"z": 2.6795530069,
				"element": "C" 
			},
			{
				"x": -1.393383582,
				"y": 2.073702701,
				"z": 1.9148982885,
				"element": "C" 
			},
			{
				"x": -0.7444156533,
				"y": 3.1136940939,
				"z": 1.9376721841,
				"element": "O" 
			},
			{
				"x": -0.898561477,
				"y": 0.9234473224,
				"z": 1.1381230641,
				"element": "C" 
			},
			{
				"x": -1.3749455735,
				"y": -0.3607942205,
				"z": 0.9097856256,
				"element": "C" 
			},
			{
				"x": -2.6373067047,
				"y": -0.9871752233,
				"z": 1.438190944,
				"element": "C" 
			},
			{
				"x": -0.5846926123,
				"y": -1.1334436925,
				"z": 0.1036639648,
				"element": "N" 
			},
			{
				"x": 0.4915244045,
				"y": -0.4911177859,
				"z": -0.3024355353,
				"element": "C" 
			},
			{
				"x": 0.6141097895,
				"y": 1.147242821,
				"z": 0.2901073779,
				"element": "S" 
			},
			{
				"x": 1.4978768364,
				"y": -1.1038997129,
				"z": -1.1772241019,
				"element": "C" 
			},
			{
				"x": 1.3149496752,
				"y": -2.4312100685,
				"z": -1.6047777789,
				"element": "C" 
			},
			{
				"x": 2.2462974535,
				"y": -3.0470350016,
				"z": -2.4337454979,
				"element": "C" 
			},
			{
				"x": 3.3740536002,
				"y": -2.3339089552,
				"z": -2.8428651921,
				"element": "C" 
			},
			{
				"x": 4.6557258852,
				"y": -3.1731909781,
				"z": -3.9796259673,
				"element": "Br" 
			},
			{
				"x": 3.5793666054,
				"y": -1.0163781524,
				"z": -2.4334268796,
				"element": "C" 
			},
			{
				"x": 2.6415319876,
				"y": -0.4087893079,
				"z": -1.6037887318,
				"element": "C" 
			},
			{
				"x": -2.6544174427,
				"y": 1.1568658386,
				"z": 3.4232811357,
				"element": "H" 
			},
			{
				"x": -2.8825434007,
				"y": 2.9093886245,
				"z": 3.1820102359,
				"element": "H" 
			},
			{
				"x": -3.534142499,
				"y": 1.735803261,
				"z": 2.0073940283,
				"element": "H" 
			},
			{
				"x": -2.7005467798,
				"y": -2.0083795922,
				"z": 1.0600686098,
				"element": "H" 
			},
			{
				"x": -3.5308883032,
				"y": -0.4435268107,
				"z": 1.1157791936,
				"element": "H" 
			},
			{
				"x": -2.650646435,
				"y": -1.0224825117,
				"z": 2.5320697283,
				"element": "H" 
			},
			{
				"x": 0.4319540298,
				"y": -2.9668093576,
				"z": -1.2750487705,
				"element": "H" 
			},
			{
				"x": 2.1009990463,
				"y": -4.0703176983,
				"z": -2.7606174558,
				"element": "H" 
			},
			{
				"x": 4.45965787,
				"y": -0.4744243293,
				"z": -2.7588620729,
				"element": "H" 
			},
			{
				"x": 2.8089589203,
				"y": 0.6173972441,
				"z": -1.2894794033,
				"element": "H" 
			}
		],
		 "valence_orbital": [ 
			{
				"type": "occ",
				"energy": -0.28907,
				"method": "rhf"
			},
			{
				"type": "occ",
				"energy": -0.27433,
				"method": "rhf"
			},
			{
				"type": "occ",
				"energy": -0.27266,
				"method": "rhf"
			},
			{
				"type": "occ",
				"energy": -0.25183,
				"method": "rhf"
			},
			{
				"type": "occ",
				"energy": -0.23004,
				"method": "rhf"
			},
			{
				"type": "unocc",
				"energy": -0.0833,
				"method": "rhf"
			},
			{
				"type": "unocc",
				"energy": -0.02916,
				"method": "rhf"
			},
			{
				"type": "unocc",
				"energy": -0.02167,
				"method": "rhf"
			},
			{
				"type": "unocc",
				"energy": -0.00064,
				"method": "rhf"
			},
			{
				"type": "unocc",
				"energy": 0.01855,
				"method": "rhf"
			}
		],
		"cosmo_sigma_profile": { 
			"-0.025": 0.0,
			"-0.024": 0.0,
			"-0.023": 0.0,
			"-0.022": 0.0,
			"-0.021": 0.0,
			"-0.02": 0.0,
			"-0.019": 0.0,
			"-0.018": 0.0,
			"-0.017": 0.0,
			"-0.016": 0.0,
			"-0.015": 0.0,
			"-0.014": 0.0,
			"-0.013": 0.0,
			"-0.012": 0.0,
			"-0.011": 0.0,
			"-0.01": 0.0,
			"-0.009": 0.0299294010017,
			"-0.008": 2.65875312711,
			"-0.007": 11.795604667,
			"-0.006": 15.1219561632,
			"-0.005": 14.7490136745,
			"-0.004": 18.149296921,
			"-0.003": 18.6409124891,
			"-0.002": 22.8106583427,
			"-0.001": 28.0252760356,
			"0.0": 23.8707495912,
			"0.001": 27.1239028847,
			"0.002": 32.969968281,
			"0.003": 18.3329265419,
			"0.004": 15.3720389741,
			"0.005": 6.14728548669,
			"0.006": 3.60452761141,
			"0.007": 2.54864850394,
			"0.008": 2.75200985029,
			"0.009": 3.46805523005,
			"0.01": 3.15142136622,
			"0.011": 3.12954759114,
			"0.012": 4.187332104,
			"0.013": 1.39839317998,
			"0.014": 0.110340027121,
			"0.015": 0.0,
			"0.016": 0.0,
			"0.017": 0.0,
			"0.018": 0.0,
			"0.019": 0.0,
			"0.02": 0.0,
			"0.021": 0.0,
			"0.022": 0.0,
			"0.023": 0.0,
			"0.024": 0.0,
			"0.025": 0.0
		}
	}
}
