{
	 "smiles": "CC(C)(C)C1=CC(=CC(Br)=C1)C(C)(C)C", 
	 "Tm": 337.15, 
	 "num_atms": 36, 
	 "gaussian": { 
		 "optdone": 1, 
		 "sigma_profile": "yes", 
		 "theory": "DFT", 
		 "functional": "B3LYP", 
		 "basiset": "6-31G**", 
		 "properties": { 
			 "R2extent": 6637.4964, 
			 "electric_dipole_moment_norm": 2.35406734186, 
			 "electric_quadrupole_moment_norm": 9.50293601736, 
			 "total_energy": -3117.58222682, 
			 "HOMO_LUMO_gap": 0.2249, 
			 "cosmo_polarized_energy": -4.22, 
			 "cosmo_cavitation_energy": 37.83, 
			 "cosmo_dispersion_energy": -26.0, 
			 "cosmo_repulsion_energy": 2.05, 
			 "cosmo_total_nonelectrostatic_energy": 13.88, 
			 "SMD_solvation_energy": 5.52 
		},
		"coords": [
			{
				"x": -2.240996779,
				"y": 1.1641751673,
				"z": 2.9428704665,
				"element": "C" 
			},
			{
				"x": -2.3347165813,
				"y": 0.7647503246,
				"z": 1.4508947589,
				"element": "C" 
			},
			{
				"x": -2.1276540234,
				"y": 2.0328466045,
				"z": 0.6011822371,
				"element": "C" 
			},
			{
				"x": -3.7495882115,
				"y": 0.2124679619,
				"z": 1.1552544602,
				"element": "C" 
			},
			{
				"x": -1.2872746634,
				"y": -0.3238235426,
				"z": 1.146137965,
				"element": "C" 
			},
			{
				"x": -0.2727009605,
				"y": -0.1580794243,
				"z": 0.198885883,
				"element": "C" 
			},
			{
				"x": 0.6827113274,
				"y": -1.1535029293,
				"z": -0.0786048166,
				"element": "C" 
			},
			{
				"x": 0.6046209623,
				"y": -2.356043974,
				"z": 0.6294646052,
				"element": "C" 
			},
			{
				"x": -0.4046234252,
				"y": -2.5288592338,
				"z": 1.5762332449,
				"element": "C" 
			},
			{
				"x": -0.4943922487,
				"y": -4.1867079804,
				"z": 2.5377462245,
				"element": "Br" 
			},
			{
				"x": -1.3422484699,
				"y": -1.5435117026,
				"z": 1.8438409731,
				"element": "C" 
			},
			{
				"x": 1.7703278388,
				"y": -0.8929607592,
				"z": -1.138781568,
				"element": "C" 
			},
			{
				"x": 2.6118142493,
				"y": 0.3363916266,
				"z": -0.7203979308,
				"element": "C" 
			},
			{
				"x": 1.0998625496,
				"y": -0.6160045828,
				"z": -2.5056154548,
				"element": "C" 
			},
			{
				"x": 2.7233872666,
				"y": -2.0915016835,
				"z": -1.3066045309,
				"element": "C" 
			},
			{
				"x": -1.2497963249,
				"y": 1.5644148007,
				"z": 3.1799459042,
				"element": "H" 
			},
			{
				"x": -2.9839151971,
				"y": 1.9347929746,
				"z": 3.1774226569,
				"element": "H" 
			},
			{
				"x": -2.4244127726,
				"y": 0.3135850724,
				"z": 3.6057951241,
				"element": "H" 
			},
			{
				"x": -1.1516157463,
				"y": 2.4935784908,
				"z": 0.7857990989,
				"element": "H" 
			},
			{
				"x": -2.8936813969,
				"y": 2.7728528309,
				"z": 0.8541608911,
				"element": "H" 
			},
			{
				"x": -2.2124576954,
				"y": 1.8249952283,
				"z": -0.4705523908,
				"element": "H" 
			},
			{
				"x": -3.979445224,
				"y": -0.6678421319,
				"z": 1.7625941653,
				"element": "H" 
			},
			{
				"x": -3.8466123928,
				"y": -0.0735874715,
				"z": 0.1028126966,
				"element": "H" 
			},
			{
				"x": -4.5077042527,
				"y": 0.9733994785,
				"z": 1.3721525771,
				"element": "H" 
			},
			{
				"x": -0.2146246376,
				"y": 0.7745827657,
				"z": -0.3480332998,
				"element": "H" 
			},
			{
				"x": 1.3099864382,
				"y": -3.1581617285,
				"z": 0.4603907677,
				"element": "H" 
			},
			{
				"x": -2.1073177321,
				"y": -1.7259839717,
				"z": 2.5890021488,
				"element": "H" 
			},
			{
				"x": 3.3879477506,
				"y": 0.5375969026,
				"z": -1.467364418,
				"element": "H" 
			},
			{
				"x": 1.9993641664,
				"y": 1.2379987006,
				"z": -0.6266908637,
				"element": "H" 
			},
			{
				"x": 3.103672603,
				"y": 0.1648163229,
				"z": 0.242650182,
				"element": "H" 
			},
			{
				"x": 0.501375726,
				"y": -1.4738913362,
				"z": -2.8291285112,
				"element": "H" 
			},
			{
				"x": 1.8610633305,
				"y": -0.4248951495,
				"z": -3.2703892622,
				"element": "H" 
			},
			{
				"x": 0.4405157973,
				"y": 0.2561289254,
				"z": -2.4681234715,
				"element": "H" 
			},
			{
				"x": 3.255756673,
				"y": -2.3229819986,
				"z": -0.3782296526,
				"element": "H" 
			},
			{
				"x": 2.1930132483,
				"y": -2.9925109213,
				"z": -1.6318245982,
				"element": "H" 
			},
			{
				"x": 3.4751588079,
				"y": -1.8595236565,
				"z": -2.0677962617,
				"element": "H" 
			}
		],
		 "valence_orbital": [ 
			{
				"type": "occ",
				"energy": -0.31406,
				"method": "rhf"
			},
			{
				"type": "occ",
				"energy": -0.2964,
				"method": "rhf"
			},
			{
				"type": "occ",
				"energy": -0.27937,
				"method": "rhf"
			},
			{
				"type": "occ",
				"energy": -0.24358,
				"method": "rhf"
			},
			{
				"type": "occ",
				"energy": -0.23281,
				"method": "rhf"
			},
			{
				"type": "unocc",
				"energy": -0.00791,
				"method": "rhf"
			},
			{
				"type": "unocc",
				"energy": -0.00442,
				"method": "rhf"
			},
			{
				"type": "unocc",
				"energy": 0.01395,
				"method": "rhf"
			},
			{
				"type": "unocc",
				"energy": 0.07433,
				"method": "rhf"
			},
			{
				"type": "unocc",
				"energy": 0.08873,
				"method": "rhf"
			}
		],
		"cosmo_sigma_profile": { 
			"-0.025": 0.0,
			"-0.024": 0.0,
			"-0.023": 0.0,
			"-0.022": 0.0,
			"-0.021": 0.0,
			"-0.02": 0.0,
			"-0.019": 0.0,
			"-0.018": 0.0,
			"-0.017": 0.0,
			"-0.016": 0.0,
			"-0.015": 0.0,
			"-0.014": 0.0,
			"-0.013": 0.0,
			"-0.012": 0.0,
			"-0.011": 0.0,
			"-0.01": 0.0,
			"-0.009": 0.0,
			"-0.008": 0.0,
			"-0.007": 0.011804275837,
			"-0.006": 2.38292024165,
			"-0.005": 6.06446416481,
			"-0.004": 10.2028926081,
			"-0.003": 34.8011969092,
			"-0.002": 43.4351541167,
			"-0.001": 38.0460667633,
			"0.0": 37.2485637385,
			"0.001": 48.5505383662,
			"0.002": 23.7342994708,
			"0.003": 16.3425080992,
			"0.004": 16.7475821059,
			"0.005": 18.3016224819,
			"0.006": 1.54453683994,
			"0.007": 0.0,
			"0.008": 0.0,
			"0.009": 0.0,
			"0.01": 0.0,
			"0.011": 0.0,
			"0.012": 0.0,
			"0.013": 0.0,
			"0.014": 0.0,
			"0.015": 0.0,
			"0.016": 0.0,
			"0.017": 0.0,
			"0.018": 0.0,
			"0.019": 0.0,
			"0.02": 0.0,
			"0.021": 0.0,
			"0.022": 0.0,
			"0.023": 0.0,
			"0.024": 0.0,
			"0.025": 0.0
		}
	}
}
