{
	 "smiles": "CN1C2=C(C=CC=C2)C(=O)NCC1=O", 
	 "Tm": 449.15, 
	 "num_atms": 24, 
	 "gaussian": { 
		 "optdone": 1, 
		 "sigma_profile": "yes", 
		 "theory": "DFT", 
		 "functional": "B3LYP", 
		 "basiset": "6-31G**", 
		 "properties": { 
			 "R2extent": 4281.4662, 
			 "electric_dipole_moment_norm": 3.12846068219, 
			 "electric_quadrupole_moment_norm": 12.4111740154, 
			 "total_energy": -647.063671565, 
			 "HOMO_LUMO_gap": 0.19196, 
			 "cosmo_polarized_energy": -15.97, 
			 "cosmo_cavitation_energy": 27.08, 
			 "cosmo_dispersion_energy": -20.04, 
			 "cosmo_repulsion_energy": 1.56, 
			 "cosmo_total_nonelectrostatic_energy": 8.6, 
			 "SMD_solvation_energy": 5.24 
		},
		"coords": [
			{
				"x": 2.2191085271,
				"y": -1.2997319734,
				"z": 1.9058225287,
				"element": "C" 
			},
			{
				"x": 1.1397092116,
				"y": -2.1159914169,
				"z": 1.3369594488,
				"element": "N" 
			},
			{
				"x": 0.2391777806,
				"y": -1.5130729673,
				"z": 0.4112183721,
				"element": "C" 
			},
			{
				"x": -1.1500552375,
				"y": -1.7819909987,
				"z": 0.3812622207,
				"element": "C" 
			},
			{
				"x": -1.9661692438,
				"y": -1.0606681939,
				"z": -0.50371174,
				"element": "C" 
			},
			{
				"x": -1.443344833,
				"y": -0.1100071844,
				"z": -1.3708009577,
				"element": "C" 
			},
			{
				"x": -0.0708961322,
				"y": 0.146179073,
				"z": -1.3484218656,
				"element": "C" 
			},
			{
				"x": 0.7549590754,
				"y": -0.5423775167,
				"z": -0.4665049757,
				"element": "C" 
			},
			{
				"x": -1.8775179912,
				"y": -2.7386754671,
				"z": 1.2843571936,
				"element": "C" 
			},
			{
				"x": -3.0129573877,
				"y": -2.5096090595,
				"z": 1.6880949711,
				"element": "O" 
			},
			{
				"x": -1.2235780243,
				"y": -3.8979155795,
				"z": 1.5949015239,
				"element": "N" 
			},
			{
				"x": 0.0548818519,
				"y": -4.3089212839,
				"z": 1.0427485044,
				"element": "C" 
			},
			{
				"x": 1.196668813,
				"y": -3.4717833413,
				"z": 1.6103299357,
				"element": "C" 
			},
			{
				"x": 2.0877507065,
				"y": -3.9628706034,
				"z": 2.2877988211,
				"element": "O" 
			},
			{
				"x": 3.1074972721,
				"y": -1.2847348001,
				"z": 1.2638354782,
				"element": "H" 
			},
			{
				"x": 1.8591644602,
				"y": -0.2803950386,
				"z": 2.0515809929,
				"element": "H" 
			},
			{
				"x": 2.5054165963,
				"y": -1.7390558913,
				"z": 2.8606542733,
				"element": "H" 
			},
			{
				"x": -3.0313120355,
				"y": -1.2629091101,
				"z": -0.4709276769,
				"element": "H" 
			},
			{
				"x": -2.0957187419,
				"y": 0.4302235825,
				"z": -2.0494318889,
				"element": "H" 
			},
			{
				"x": 0.3618340391,
				"y": 0.8839886023,
				"z": -2.0177600736,
				"element": "H" 
			},
			{
				"x": 1.8184491901,
				"y": -0.3321500792,
				"z": -0.4580650481,
				"element": "H" 
			},
			{
				"x": -1.7180236006,
				"y": -4.5150807474,
				"z": 2.2241078726,
				"element": "H" 
			},
			{
				"x": 0.0420351326,
				"y": -4.2512597646,
				"z": -0.0532972843,
				"element": "H" 
			},
			{
				"x": 0.2510205711,
				"y": -5.3412902408,
				"z": 1.3294493737,
				"element": "H" 
			}
		],
		 "valence_orbital": [ 
			{
				"type": "occ",
				"energy": -0.28639,
				"method": "rhf"
			},
			{
				"type": "occ",
				"energy": -0.27024,
				"method": "rhf"
			},
			{
				"type": "occ",
				"energy": -0.25309,
				"method": "rhf"
			},
			{
				"type": "occ",
				"energy": -0.24654,
				"method": "rhf"
			},
			{
				"type": "occ",
				"energy": -0.23191,
				"method": "rhf"
			},
			{
				"type": "unocc",
				"energy": -0.03995,
				"method": "rhf"
			},
			{
				"type": "unocc",
				"energy": -0.02313,
				"method": "rhf"
			},
			{
				"type": "unocc",
				"energy": 0.01547,
				"method": "rhf"
			},
			{
				"type": "unocc",
				"energy": 0.04738,
				"method": "rhf"
			},
			{
				"type": "unocc",
				"energy": 0.08118,
				"method": "rhf"
			}
		],
		"cosmo_sigma_profile": { 
			"-0.025": 0.0,
			"-0.024": 0.0,
			"-0.023": 0.0,
			"-0.022": 0.0,
			"-0.021": 0.0,
			"-0.02": 0.0,
			"-0.019": 0.0,
			"-0.018": 0.0,
			"-0.017": 0.0,
			"-0.016": 0.0,
			"-0.015": 0.359470928979,
			"-0.014": 1.42452057391,
			"-0.013": 1.39209546051,
			"-0.012": 1.10519619101,
			"-0.011": 0.790657668602,
			"-0.01": 1.53467065127,
			"-0.009": 1.38953807004,
			"-0.008": 2.68425157047,
			"-0.007": 8.49275047467,
			"-0.006": 14.6587767001,
			"-0.005": 19.2854200789,
			"-0.004": 18.5341374565,
			"-0.003": 16.5233552884,
			"-0.002": 17.5956224648,
			"-0.001": 12.6377825575,
			"0.0": 13.8464102213,
			"0.001": 10.3969255866,
			"0.002": 10.3600403871,
			"0.003": 11.435574568,
			"0.004": 11.3285377738,
			"0.005": 2.99886157441,
			"0.006": 2.59420480516,
			"0.007": 2.48731546447,
			"0.008": 2.16601537223,
			"0.009": 3.34496142802,
			"0.01": 3.31458612841,
			"0.011": 3.57020270347,
			"0.012": 5.47365680238,
			"0.013": 8.10213403548,
			"0.014": 5.27505417805,
			"0.015": 0.384763072462,
			"0.016": 0.0,
			"0.017": 0.0,
			"0.018": 0.0,
			"0.019": 0.0,
			"0.02": 0.0,
			"0.021": 0.0,
			"0.022": 0.0,
			"0.023": 0.0,
			"0.024": 0.0,
			"0.025": 0.0
		}
	}
}
