{
	 "smiles": "CCOC(=O)C(=CNC1=C(F)C=CC=C1)C#N", 
	 "Tm": 416.15, 
	 "num_atms": 28, 
	 "gaussian": { 
		 "optdone": 1, 
		 "sigma_profile": "yes", 
		 "theory": "DFT", 
		 "functional": "B3LYP", 
		 "basiset": "6-31G**", 
		 "properties": { 
			 "R2extent": 4136.6285, 
			 "electric_dipole_moment_norm": 7.73369897591, 
			 "electric_quadrupole_moment_norm": 19.9383645613, 
			 "total_energy": -823.665335169, 
			 "HOMO_LUMO_gap": 0.16093, 
			 "cosmo_polarized_energy": -20.26, 
			 "cosmo_cavitation_energy": 34.24, 
			 "cosmo_dispersion_energy": -22.33, 
			 "cosmo_repulsion_energy": 1.74, 
			 "cosmo_total_nonelectrostatic_energy": 13.65, 
			 "SMD_solvation_energy": 8.64 
		},
		"coords": [
			{
				"x": -1.1511898167,
				"y": -1.885715263,
				"z": -2.5336549909,
				"element": "C" 
			},
			{
				"x": -0.6969760275,
				"y": -0.440256437,
				"z": -2.4687417967,
				"element": "C" 
			},
			{
				"x": 0.40369522,
				"y": -0.371098535,
				"z": -1.5300525252,
				"element": "O" 
			},
			{
				"x": 0.9572397503,
				"y": 0.850013842,
				"z": -1.3685236001,
				"element": "C" 
			},
			{
				"x": 0.6126758287,
				"y": 1.8374591041,
				"z": -1.9852438496,
				"element": "O" 
			},
			{
				"x": 2.0844841292,
				"y": 0.8216791382,
				"z": -0.3983875515,
				"element": "C" 
			},
			{
				"x": 2.3222338756,
				"y": -0.0761497957,
				"z": 0.6125313404,
				"element": "C" 
			},
			{
				"x": 1.5338237452,
				"y": -1.0238589566,
				"z": 1.1891797055,
				"element": "N" 
			},
			{
				"x": 0.1358959926,
				"y": -1.1439190878,
				"z": 1.284847414,
				"element": "C" 
			},
			{
				"x": -0.3743347264,
				"y": -2.4031962176,
				"z": 1.6234954232,
				"element": "C" 
			},
			{
				"x": 0.5168461225,
				"y": -3.4128522127,
				"z": 1.7891430328,
				"element": "F" 
			},
			{
				"x": -1.7258312404,
				"y": -2.6365704143,
				"z": 1.8162969367,
				"element": "C" 
			},
			{
				"x": -2.6174688726,
				"y": -1.5714312252,
				"z": 1.6708113552,
				"element": "C" 
			},
			{
				"x": -2.1328651497,
				"y": -0.299677429,
				"z": 1.3545925005,
				"element": "C" 
			},
			{
				"x": -0.7684619809,
				"y": -0.0808619902,
				"z": 1.1685403575,
				"element": "C" 
			},
			{
				"x": 3.0881680242,
				"y": 1.8199050995,
				"z": -0.6023115688,
				"element": "C" 
			},
			{
				"x": 3.9248359396,
				"y": 2.6169237909,
				"z": -0.74532507,
				"element": "N" 
			},
			{
				"x": -0.3363103792,
				"y": -2.536870851,
				"z": -2.8627996057,
				"element": "H" 
			},
			{
				"x": -1.4994431757,
				"y": -2.2318231262,
				"z": -1.5565708461,
				"element": "H" 
			},
			{
				"x": -1.9757343619,
				"y": -1.9805183791,
				"z": -3.247185672,
				"element": "H" 
			},
			{
				"x": -1.4943396366,
				"y": 0.2263991742,
				"z": -2.1257913337,
				"element": "H" 
			},
			{
				"x": -0.3510023621,
				"y": -0.0705596153,
				"z": -3.4384110075,
				"element": "H" 
			},
			{
				"x": 3.3097272742,
				"y": -0.0338629852,
				"z": 1.0667911384,
				"element": "H" 
			},
			{
				"x": 2.0299612296,
				"y": -1.7204059146,
				"z": 1.7278714315,
				"element": "H" 
			},
			{
				"x": -2.0566678219,
				"y": -3.6362918921,
				"z": 2.0756485358,
				"element": "H" 
			},
			{
				"x": -3.680538644,
				"y": -1.735058411,
				"z": 1.813335862,
				"element": "H" 
			},
			{
				"x": -2.8195940838,
				"y": 0.535257987,
				"z": 1.2589958312,
				"element": "H" 
			},
			{
				"x": -0.4028288521,
				"y": 0.914340603,
				"z": 0.944218553,
				"element": "H" 
			}
		],
		 "valence_orbital": [ 
			{
				"type": "occ",
				"energy": -0.30536,
				"method": "rhf"
			},
			{
				"type": "occ",
				"energy": -0.2799,
				"method": "rhf"
			},
			{
				"type": "occ",
				"energy": -0.27898,
				"method": "rhf"
			},
			{
				"type": "occ",
				"energy": -0.26987,
				"method": "rhf"
			},
			{
				"type": "occ",
				"energy": -0.22628,
				"method": "rhf"
			},
			{
				"type": "unocc",
				"energy": -0.06535,
				"method": "rhf"
			},
			{
				"type": "unocc",
				"energy": -0.02208,
				"method": "rhf"
			},
			{
				"type": "unocc",
				"energy": -0.00692,
				"method": "rhf"
			},
			{
				"type": "unocc",
				"energy": 0.02271,
				"method": "rhf"
			},
			{
				"type": "unocc",
				"energy": 0.04259,
				"method": "rhf"
			}
		],
		"cosmo_sigma_profile": { 
			"-0.025": 0.0,
			"-0.024": 0.0,
			"-0.023": 0.0,
			"-0.022": 0.0,
			"-0.021": 0.0,
			"-0.02": 0.0,
			"-0.019": 0.0,
			"-0.018": 0.0,
			"-0.017": 0.512522071897,
			"-0.016": 1.27721052891,
			"-0.015": 1.29875174196,
			"-0.014": 1.19422676289,
			"-0.013": 1.2009984363,
			"-0.012": 1.56661323372,
			"-0.011": 2.37822838348,
			"-0.01": 2.22816665208,
			"-0.009": 2.22554362657,
			"-0.008": 3.7815317804,
			"-0.007": 6.24817772748,
			"-0.006": 10.7941158434,
			"-0.005": 17.906852,
			"-0.004": 20.6085882885,
			"-0.003": 19.4806955751,
			"-0.002": 19.3692014752,
			"-0.001": 21.1448961343,
			"0.0": 29.3353586324,
			"0.001": 20.3116882276,
			"0.002": 15.884054548,
			"0.003": 14.3493711276,
			"0.004": 11.6676107909,
			"0.005": 5.47730535828,
			"0.006": 4.21655055779,
			"0.007": 5.83776350089,
			"0.008": 5.3326481882,
			"0.009": 5.26503047905,
			"0.01": 5.46210651424,
			"0.011": 6.79259272621,
			"0.012": 7.42758998655,
			"0.013": 2.67203157153,
			"0.014": 1.00228889674,
			"0.015": 0.0,
			"0.016": 0.0,
			"0.017": 0.0,
			"0.018": 0.0,
			"0.019": 0.0,
			"0.02": 0.0,
			"0.021": 0.0,
			"0.022": 0.0,
			"0.023": 0.0,
			"0.024": 0.0,
			"0.025": 0.0
		}
	}
}
