{
	 "smiles": "CC(C1CC1)N(C)C(=O)C1=CC=CNC1=O", 
	 "Tm": 461.15, 
	 "num_atms": 32, 
	 "gaussian": { 
		 "optdone": 1, 
		 "sigma_profile": "yes", 
		 "theory": "DFT", 
		 "functional": "B3LYP", 
		 "basiset": "6-31G**", 
		 "properties": { 
			 "R2extent": 4296.8928, 
			 "electric_dipole_moment_norm": 4.65240012574, 
			 "electric_quadrupole_moment_norm": 29.4686380856, 
			 "total_energy": -726.854920556, 
			 "HOMO_LUMO_gap": 0.16614, 
			 "cosmo_polarized_energy": -19.27, 
			 "cosmo_cavitation_energy": 33.68, 
			 "cosmo_dispersion_energy": -23.67, 
			 "cosmo_repulsion_energy": 1.84, 
			 "cosmo_total_nonelectrostatic_energy": 11.85, 
			 "SMD_solvation_energy": 6.8 
		},
		"coords": [
			{
				"x": 1.512630459,
				"y": -0.0560214253,
				"z": 0.8109364128,
				"element": "C" 
			},
			{
				"x": 0.0853062736,
				"y": 0.3286698426,
				"z": 0.4029462324,
				"element": "C" 
			},
			{
				"x": -0.3866560565,
				"y": 1.7101955208,
				"z": 0.8658220096,
				"element": "C" 
			},
			{
				"x": 0.0677914081,
				"y": 2.3781906377,
				"z": 2.1426487892,
				"element": "C" 
			},
			{
				"x": 0.4958414255,
				"y": 2.9340145478,
				"z": 0.8065898312,
				"element": "C" 
			},
			{
				"x": -0.8883919999,
				"y": -0.7007233391,
				"z": 0.8231302557,
				"element": "N" 
			},
			{
				"x": -1.1579264196,
				"y": -0.8537246978,
				"z": 2.2523660541,
				"element": "C" 
			},
			{
				"x": -1.7922999912,
				"y": -1.2996064212,
				"z": -0.0118768177,
				"element": "C" 
			},
			{
				"x": -2.7832749049,
				"y": -1.8880672571,
				"z": 0.427622136,
				"element": "O" 
			},
			{
				"x": -1.607699551,
				"y": -1.2417581224,
				"z": -1.5115972848,
				"element": "C" 
			},
			{
				"x": -2.7340098663,
				"y": -1.0070093526,
				"z": -2.2653418082,
				"element": "C" 
			},
			{
				"x": -2.7282406955,
				"y": -1.0395101749,
				"z": -3.6849093309,
				"element": "C" 
			},
			{
				"x": -1.5618268719,
				"y": -1.3697889475,
				"z": -4.3120946071,
				"element": "C" 
			},
			{
				"x": -0.4506482584,
				"y": -1.6427341292,
				"z": -3.574563625,
				"element": "N" 
			},
			{
				"x": -0.3586582238,
				"y": -1.618011482,
				"z": -2.1663172482,
				"element": "C" 
			},
			{
				"x": 0.7131452015,
				"y": -1.9138504883,
				"z": -1.6397190441,
				"element": "O" 
			},
			{
				"x": 1.7470967788,
				"y": -1.0258225624,
				"z": 0.3715318348,
				"element": "H" 
			},
			{
				"x": 2.2332115069,
				"y": 0.6748003016,
				"z": 0.4317248558,
				"element": "H" 
			},
			{
				"x": 1.6387136292,
				"y": -0.115257066,
				"z": 1.8961404775,
				"element": "H" 
			},
			{
				"x": 0.0584302787,
				"y": 0.3393893713,
				"z": -0.6876138682,
				"element": "H" 
			},
			{
				"x": -1.4276181981,
				"y": 1.8884559684,
				"z": 0.6003028441,
				"element": "H" 
			},
			{
				"x": -0.6686033921,
				"y": 2.9251489307,
				"z": 2.7238800465,
				"element": "H" 
			},
			{
				"x": 0.8264813198,
				"y": 1.8866128463,
				"z": 2.743638992,
				"element": "H" 
			},
			{
				"x": 1.5361469915,
				"y": 2.8121023107,
				"z": 0.5209542689,
				"element": "H" 
			},
			{
				"x": 0.0516300494,
				"y": 3.8635032972,
				"z": 0.4629010108,
				"element": "H" 
			},
			{
				"x": -0.2518368485,
				"y": -0.6368377262,
				"z": 2.8186865848,
				"element": "H" 
			},
			{
				"x": -1.9553027099,
				"y": -0.1822801215,
				"z": 2.5927249939,
				"element": "H" 
			},
			{
				"x": -1.4766864536,
				"y": -1.8775922734,
				"z": 2.4479460338,
				"element": "H" 
			},
			{
				"x": -3.6609313309,
				"y": -0.8044819892,
				"z": -1.7370666791,
				"element": "H" 
			},
			{
				"x": -3.6214426162,
				"y": -0.8274895684,
				"z": -4.2584850898,
				"element": "H" 
			},
			{
				"x": -1.453591996,
				"y": -1.4367199034,
				"z": -5.3890610554,
				"element": "H" 
			},
			{
				"x": 0.4134210623,
				"y": -1.9145965274,
				"z": -4.0278472054,
				"element": "H" 
			}
		],
		 "valence_orbital": [ 
			{
				"type": "occ",
				"energy": -0.28186,
				"method": "rhf"
			},
			{
				"type": "occ",
				"energy": -0.26,
				"method": "rhf"
			},
			{
				"type": "occ",
				"energy": -0.24216,
				"method": "rhf"
			},
			{
				"type": "occ",
				"energy": -0.22419,
				"method": "rhf"
			},
			{
				"type": "occ",
				"energy": -0.21915,
				"method": "rhf"
			},
			{
				"type": "unocc",
				"energy": -0.05301,
				"method": "rhf"
			},
			{
				"type": "unocc",
				"energy": 0.00468,
				"method": "rhf"
			},
			{
				"type": "unocc",
				"energy": 0.04289,
				"method": "rhf"
			},
			{
				"type": "unocc",
				"energy": 0.06314,
				"method": "rhf"
			},
			{
				"type": "unocc",
				"energy": 0.09109,
				"method": "rhf"
			}
		],
		"cosmo_sigma_profile": { 
			"-0.025": 0.0,
			"-0.024": 0.0,
			"-0.023": 0.0,
			"-0.022": 0.0,
			"-0.021": 0.0,
			"-0.02": 0.0,
			"-0.019": 0.0,
			"-0.018": 0.0,
			"-0.017": 0.10381517878,
			"-0.016": 1.3878738179,
			"-0.015": 1.37573182218,
			"-0.014": 1.16676048222,
			"-0.013": 1.0898588578,
			"-0.012": 1.42708211681,
			"-0.011": 1.25055193565,
			"-0.01": 3.30524372381,
			"-0.009": 2.07812197276,
			"-0.008": 3.12105167344,
			"-0.007": 5.12896552748,
			"-0.006": 7.48013687213,
			"-0.005": 12.2376837447,
			"-0.004": 19.8810542926,
			"-0.003": 24.7455357047,
			"-0.002": 26.2217374077,
			"-0.001": 29.224530395,
			"0.0": 24.5386129158,
			"0.001": 21.05009171,
			"0.002": 17.1520641187,
			"0.003": 10.6497695461,
			"0.004": 6.83554129564,
			"0.005": 5.74604730541,
			"0.006": 3.47099324439,
			"0.007": 3.36904769313,
			"0.008": 3.0464817807,
			"0.009": 3.63580456577,
			"0.01": 3.15334957067,
			"0.011": 3.63003397561,
			"0.012": 3.33629492302,
			"0.013": 5.43259265836,
			"0.014": 7.29755424374,
			"0.015": 2.06234969348,
			"0.016": 0.00212946785302,
			"0.017": 0.0,
			"0.018": 0.0,
			"0.019": 0.0,
			"0.02": 0.0,
			"0.021": 0.0,
			"0.022": 0.0,
			"0.023": 0.0,
			"0.024": 0.0,
			"0.025": 0.0
		}
	}
}
