{
	 "smiles": "O=C(NC1CCC(=O)CC1)OCC1=CC=CC=C1", 
	 "Tm": 355.15, 
	 "num_atms": 35, 
	 "gaussian": { 
		 "optdone": 1, 
		 "sigma_profile": "yes", 
		 "theory": "DFT", 
		 "functional": "B3LYP", 
		 "basiset": "6-31G**", 
		 "properties": { 
			 "R2extent": 5814.3762, 
			 "electric_dipole_moment_norm": 1.72765320884, 
			 "electric_quadrupole_moment_norm": 21.9594913293, 
			 "total_energy": -824.18740077, 
			 "HOMO_LUMO_gap": 0.22167, 
			 "cosmo_polarized_energy": -16.22, 
			 "cosmo_cavitation_energy": 37.59, 
			 "cosmo_dispersion_energy": -26.06, 
			 "cosmo_repulsion_energy": 2.06, 
			 "cosmo_total_nonelectrostatic_energy": 13.59, 
			 "SMD_solvation_energy": 6.93 
		},
		"coords": [
			{
				"x": -2.4602355771,
				"y": 1.2913403825,
				"z": 1.9904281452,
				"element": "O" 
			},
			{
				"x": -1.7884912611,
				"y": 0.3114286071,
				"z": 1.7093299876,
				"element": "C" 
			},
			{
				"x": -2.3167982062,
				"y": -0.9336866404,
				"z": 1.5200847761,
				"element": "N" 
			},
			{
				"x": -1.6509048512,
				"y": -2.181299009,
				"z": 1.1282834531,
				"element": "C" 
			},
			{
				"x": -0.6456701756,
				"y": -2.6813958625,
				"z": 2.1833476955,
				"element": "C" 
			},
			{
				"x": -0.0490232001,
				"y": -4.0470128875,
				"z": 1.7889347419,
				"element": "C" 
			},
			{
				"x": 0.5230943289,
				"y": -4.0382828716,
				"z": 0.3760883987,
				"element": "C" 
			},
			{
				"x": 1.6293747238,
				"y": -4.4702661263,
				"z": 0.1158289444,
				"element": "O" 
			},
			{
				"x": -0.4038578394,
				"y": -3.4613041212,
				"z": -0.687254417,
				"element": "C" 
			},
			{
				"x": -1.0002382441,
				"y": -2.1032142491,
				"z": -0.2667053489,
				"element": "C" 
			},
			{
				"x": -0.4362678087,
				"y": 0.3188752388,
				"z": 1.560749628,
				"element": "O" 
			},
			{
				"x": 0.2124593249,
				"y": 1.612844457,
				"z": 1.6983578525,
				"element": "C" 
			},
			{
				"x": 0.3675060369,
				"y": 2.3066044335,
				"z": 0.3676149342,
				"element": "C" 
			},
			{
				"x": 1.5620765586,
				"y": 2.1958855271,
				"z": -0.3545199033,
				"element": "C" 
			},
			{
				"x": 1.7073108092,
				"y": 2.8278210823,
				"z": -1.5905827739,
				"element": "C" 
			},
			{
				"x": 0.6541716857,
				"y": 3.5774331398,
				"z": -2.1172106371,
				"element": "C" 
			},
			{
				"x": -0.5418156416,
				"y": 3.6926239762,
				"z": -1.4040276853,
				"element": "C" 
			},
			{
				"x": -0.6857498478,
				"y": 3.0622875839,
				"z": -0.1682170913,
				"element": "C" 
			},
			{
				"x": -3.3202141853,
				"y": -0.9396001184,
				"z": 1.6178898996,
				"element": "H" 
			},
			{
				"x": -2.4653014474,
				"y": -2.9166320639,
				"z": 1.0742063435,
				"element": "H" 
			},
			{
				"x": -1.1428081608,
				"y": -2.7551584931,
				"z": 3.1565493025,
				"element": "H" 
			},
			{
				"x": 0.1548034626,
				"y": -1.9429762055,
				"z": 2.2863070089,
				"element": "H" 
			},
			{
				"x": 0.7361255127,
				"y": -4.361750958,
				"z": 2.4808778233,
				"element": "H" 
			},
			{
				"x": -0.8401780448,
				"y": -4.8117807326,
				"z": 1.8166167674,
				"element": "H" 
			},
			{
				"x": 0.147537334,
				"y": -3.3879630493,
				"z": -1.6278968085,
				"element": "H" 
			},
			{
				"x": -1.2187329743,
				"y": -4.1859687531,
				"z": -0.8373144798,
				"element": "H" 
			},
			{
				"x": -0.2152977107,
				"y": -1.341594445,
				"z": -0.2485701968,
				"element": "H" 
			},
			{
				"x": -1.7453880677,
				"y": -1.7778234194,
				"z": -1.0006055353,
				"element": "H" 
			},
			{
				"x": 1.1868461842,
				"y": 1.3816212078,
				"z": 2.1340573731,
				"element": "H" 
			},
			{
				"x": -0.3711989841,
				"y": 2.2142822716,
				"z": 2.3969836049,
				"element": "H" 
			},
			{
				"x": 2.3845956588,
				"y": 1.6146637678,
				"z": 0.0558149239,
				"element": "H" 
			},
			{
				"x": 2.6405180481,
				"y": 2.73695383,
				"z": -2.139144172,
				"element": "H" 
			},
			{
				"x": 0.7655457744,
				"y": 4.0724456264,
				"z": -3.0778444793,
				"element": "H" 
			},
			{
				"x": -1.3622273709,
				"y": 4.277964833,
				"z": -1.8097184179,
				"element": "H" 
			},
			{
				"x": -1.614665844,
				"y": 3.1402340409,
				"z": 0.3883603419,
				"element": "H" 
			}
		],
		 "valence_orbital": [ 
			{
				"type": "occ",
				"energy": -0.27392,
				"method": "rhf"
			},
			{
				"type": "occ",
				"energy": -0.25592,
				"method": "rhf"
			},
			{
				"type": "occ",
				"energy": -0.25118,
				"method": "rhf"
			},
			{
				"type": "occ",
				"energy": -0.24841,
				"method": "rhf"
			},
			{
				"type": "occ",
				"energy": -0.23944,
				"method": "rhf"
			},
			{
				"type": "unocc",
				"energy": -0.01777,
				"method": "rhf"
			},
			{
				"type": "unocc",
				"energy": -0.01083,
				"method": "rhf"
			},
			{
				"type": "unocc",
				"energy": -0.00231,
				"method": "rhf"
			},
			{
				"type": "unocc",
				"energy": 0.05073,
				"method": "rhf"
			},
			{
				"type": "unocc",
				"energy": 0.07143,
				"method": "rhf"
			}
		],
		"cosmo_sigma_profile": { 
			"-0.025": 0.0,
			"-0.024": 0.0,
			"-0.023": 0.0,
			"-0.022": 0.0,
			"-0.021": 0.0,
			"-0.02": 0.0,
			"-0.019": 0.0,
			"-0.018": 0.0,
			"-0.017": 0.0,
			"-0.016": 0.0,
			"-0.015": 0.0241942457151,
			"-0.014": 0.769776486232,
			"-0.013": 1.15413520859,
			"-0.012": 1.20847532445,
			"-0.011": 1.13986731377,
			"-0.01": 0.825228176039,
			"-0.009": 0.816459494799,
			"-0.008": 0.955792380142,
			"-0.007": 5.2321711576,
			"-0.006": 16.5621378226,
			"-0.005": 21.9775937657,
			"-0.004": 27.0586182046,
			"-0.003": 32.7244598737,
			"-0.002": 27.1448000801,
			"-0.001": 24.7071129116,
			"0.0": 18.6173777524,
			"0.001": 16.7133154722,
			"0.002": 17.4369116993,
			"0.003": 15.8043500967,
			"0.004": 12.4278989057,
			"0.005": 13.0556956421,
			"0.006": 7.78762464567,
			"0.007": 2.58616175328,
			"0.008": 2.67687317075,
			"0.009": 3.62563348632,
			"0.01": 2.93846350028,
			"0.011": 4.58737367495,
			"0.012": 6.38462050192,
			"0.013": 6.6851110261,
			"0.014": 2.33016608801,
			"0.015": 0.0015718767663,
			"0.016": 0.0,
			"0.017": 0.0,
			"0.018": 0.0,
			"0.019": 0.0,
			"0.02": 0.0,
			"0.021": 0.0,
			"0.022": 0.0,
			"0.023": 0.0,
			"0.024": 0.0,
			"0.025": 0.0
		}
	}
}
