{
	 "smiles": "OC(=O)CS(=O)(=O)C1=CC=C(C=C1)[N+]([O-])=O", 
	 "Tm": 436.15, 
	 "num_atms": 23, 
	 "gaussian": { 
		 "optdone": 1, 
		 "sigma_profile": "yes", 
		 "theory": "DFT", 
		 "functional": "B3LYP", 
		 "basiset": "6-31G**", 
		 "properties": { 
			 "R2extent": 5419.2905, 
			 "electric_dipole_moment_norm": 2.94764242913, 
			 "electric_quadrupole_moment_norm": 28.1478858801, 
			 "total_energy": -1213.18566942, 
			 "HOMO_LUMO_gap": 0.16588, 
			 "cosmo_polarized_energy": -22.67, 
			 "cosmo_cavitation_energy": 30.51, 
			 "cosmo_dispersion_energy": -22.46, 
			 "cosmo_repulsion_energy": 1.69, 
			 "cosmo_total_nonelectrostatic_energy": 9.75, 
			 "SMD_solvation_energy": 8.25 
		},
		"coords": [
			{
				"x": 2.9921273594,
				"y": 0.3857565737,
				"z": -2.6392071961,
				"element": "O" 
			},
			{
				"x": 1.7745545667,
				"y": 0.0515690362,
				"z": -3.0721729231,
				"element": "C" 
			},
			{
				"x": 1.4980665333,
				"y": -0.0570303458,
				"z": -4.2387244005,
				"element": "O" 
			},
			{
				"x": 0.7085645996,
				"y": -0.2835444473,
				"z": -2.0031101542,
				"element": "C" 
			},
			{
				"x": 0.8128358317,
				"y": 0.7190848522,
				"z": -0.4838010548,
				"element": "S" 
			},
			{
				"x": 0.2280681629,
				"y": 2.0399694147,
				"z": -0.7329651518,
				"element": "O" 
			},
			{
				"x": 2.2182540488,
				"y": 0.5803339962,
				"z": -0.0217552934,
				"element": "O" 
			},
			{
				"x": -0.2239637966,
				"y": -0.1494025292,
				"z": 0.7035613685,
				"element": "C" 
			},
			{
				"x": -1.5668139043,
				"y": 0.2198360972,
				"z": 0.812879882,
				"element": "C" 
			},
			{
				"x": -2.377968367,
				"y": -0.4498864839,
				"z": 1.7263483182,
				"element": "C" 
			},
			{
				"x": -1.8145273591,
				"y": -1.461717074,
				"z": 2.500501255,
				"element": "C" 
			},
			{
				"x": -0.4727930536,
				"y": -1.8259896829,
				"z": 2.4072090041,
				"element": "C" 
			},
			{
				"x": 0.3371766214,
				"y": -1.1565521647,
				"z": 1.4930474404,
				"element": "C" 
			},
			{
				"x": -2.6756655554,
				"y": -2.1752004715,
				"z": 3.4692284136,
				"element": "N" 
			},
			{
				"x": -2.1542023001,
				"y": -3.0617926744,
				"z": 4.1404123452,
				"element": "O" 
			},
			{
				"x": -3.8534780274,
				"y": -1.8336468753,
				"z": 3.5345954496,
				"element": "O" 
			},
			{
				"x": 3.0185026224,
				"y": 0.45458055,
				"z": -1.6588556457,
				"element": "H" 
			},
			{
				"x": -0.2802633263,
				"y": -0.1470579917,
				"z": -2.4406440741,
				"element": "H" 
			},
			{
				"x": 0.8363110867,
				"y": -1.3269153093,
				"z": -1.6967423656,
				"element": "H" 
			},
			{
				"x": -1.9596812649,
				"y": 1.0296325034,
				"z": 0.207901271,
				"element": "H" 
			},
			{
				"x": -3.4240414238,
				"y": -0.2003539303,
				"z": 1.8513758175,
				"element": "H" 
			},
			{
				"x": -0.0863461201,
				"y": -2.6105267647,
				"z": 3.0454434314,
				"element": "H" 
			},
			{
				"x": 1.3918830655,
				"y": -1.3930462785,
				"z": 1.4062742628,
				"element": "H" 
			}
		],
		 "valence_orbital": [ 
			{
				"type": "occ",
				"energy": -0.32913,
				"method": "rhf"
			},
			{
				"type": "occ",
				"energy": -0.32226,
				"method": "rhf"
			},
			{
				"type": "occ",
				"energy": -0.3188,
				"method": "rhf"
			},
			{
				"type": "occ",
				"energy": -0.3156,
				"method": "rhf"
			},
			{
				"type": "occ",
				"energy": -0.29068,
				"method": "rhf"
			},
			{
				"type": "unocc",
				"energy": -0.1248,
				"method": "rhf"
			},
			{
				"type": "unocc",
				"energy": -0.06627,
				"method": "rhf"
			},
			{
				"type": "unocc",
				"energy": -0.05276,
				"method": "rhf"
			},
			{
				"type": "unocc",
				"energy": -0.01758,
				"method": "rhf"
			},
			{
				"type": "unocc",
				"energy": 0.02828,
				"method": "rhf"
			}
		],
		"cosmo_sigma_profile": { 
			"-0.025": 0.0,
			"-0.024": 0.0,
			"-0.023": 0.0,
			"-0.022": 0.0,
			"-0.021": 0.0,
			"-0.02": 0.0,
			"-0.019": 0.0,
			"-0.018": 0.0,
			"-0.017": 0.0,
			"-0.016": 0.0,
			"-0.015": 0.0,
			"-0.014": 0.0,
			"-0.013": 0.0214288111398,
			"-0.012": 2.66210932734,
			"-0.011": 5.63778153916,
			"-0.01": 4.8188900647,
			"-0.009": 8.90928700483,
			"-0.008": 13.4744949437,
			"-0.007": 13.4274429589,
			"-0.006": 10.3518119585,
			"-0.005": 10.7578566919,
			"-0.004": 12.2650200504,
			"-0.003": 14.3823991772,
			"-0.002": 19.1725329689,
			"-0.001": 17.2575935866,
			"0.0": 9.82796051107,
			"0.001": 5.88745649672,
			"0.002": 5.10499194666,
			"0.003": 6.39466114052,
			"0.004": 7.35979736844,
			"0.005": 9.04880805178,
			"0.006": 10.5398579677,
			"0.007": 13.5785644728,
			"0.008": 11.0749642127,
			"0.009": 13.5884033717,
			"0.01": 11.7611923194,
			"0.011": 6.57420835734,
			"0.012": 1.48439857091,
			"0.013": 0.0,
			"0.014": 0.0,
			"0.015": 0.0,
			"0.016": 0.0,
			"0.017": 0.0,
			"0.018": 0.0,
			"0.019": 0.0,
			"0.02": 0.0,
			"0.021": 0.0,
			"0.022": 0.0,
			"0.023": 0.0,
			"0.024": 0.0,
			"0.025": 0.0
		}
	}
}
