{
	 "smiles": "COC1=CC=C(C=C1)C1=NN=C(O1)SCC(O)=O", 
	 "Tm": 415.15, 
	 "num_atms": 28, 
	 "gaussian": { 
		 "optdone": 1, 
		 "sigma_profile": "yes", 
		 "theory": "DFT", 
		 "functional": "B3LYP", 
		 "basiset": "6-31G**", 
		 "properties": { 
			 "R2extent": 9457.581, 
			 "electric_dipole_moment_norm": 6.57075949491, 
			 "electric_quadrupole_moment_norm": 42.3889716129, 
			 "total_energy": -1233.74364197, 
			 "HOMO_LUMO_gap": 0.17432, 
			 "cosmo_polarized_energy": -20.31, 
			 "cosmo_cavitation_energy": 35.73, 
			 "cosmo_dispersion_energy": -26.53, 
			 "cosmo_repulsion_energy": 2.0, 
			 "cosmo_total_nonelectrostatic_energy": 11.21, 
			 "SMD_solvation_energy": 6.52 
		},
		"coords": [
			{
				"x": 4.7351434237,
				"y": -0.5974988881,
				"z": 3.793812276,
				"element": "C" 
			},
			{
				"x": 3.5125591537,
				"y": 0.0848359968,
				"z": 3.5455914633,
				"element": "O" 
			},
			{
				"x": 2.7649161227,
				"y": -0.2892991301,
				"z": 2.4754016188,
				"element": "C" 
			},
			{
				"x": 1.569644934,
				"y": 0.4253460272,
				"z": 2.2887457605,
				"element": "C" 
			},
			{
				"x": 0.7335411381,
				"y": 0.1226566536,
				"z": 1.2264286396,
				"element": "C" 
			},
			{
				"x": 1.0719285629,
				"y": -0.9023512374,
				"z": 0.3239035223,
				"element": "C" 
			},
			{
				"x": 2.2659965716,
				"y": -1.6122720246,
				"z": 0.515148962,
				"element": "C" 
			},
			{
				"x": 3.1102067614,
				"y": -1.3133301183,
				"z": 1.5800362031,
				"element": "C" 
			},
			{
				"x": 0.213957807,
				"y": -1.2411269036,
				"z": -0.7989715338,
				"element": "C" 
			},
			{
				"x": 0.3837896848,
				"y": -2.1457904041,
				"z": -1.7176871096,
				"element": "N" 
			},
			{
				"x": -0.7219618257,
				"y": -2.0756238316,
				"z": -2.5692454096,
				"element": "N" 
			},
			{
				"x": -1.4693712216,
				"y": -1.1306835975,
				"z": -2.0963633003,
				"element": "C" 
			},
			{
				"x": -0.9633976855,
				"y": -0.5462079904,
				"z": -0.9795656206,
				"element": "O" 
			},
			{
				"x": -3.0033167271,
				"y": -0.5118249794,
				"z": -2.6920242195,
				"element": "S" 
			},
			{
				"x": -3.2126766765,
				"y": -1.6425916659,
				"z": -4.124257966,
				"element": "C" 
			},
			{
				"x": -3.825814757,
				"y": -3.0254252695,
				"z": -3.8509383499,
				"element": "C" 
			},
			{
				"x": -4.3297576072,
				"y": -3.2622295507,
				"z": -2.627977548,
				"element": "O" 
			},
			{
				"x": -3.8759365586,
				"y": -3.8406460099,
				"z": -4.7355222276,
				"element": "O" 
			},
			{
				"x": 4.5693681749,
				"y": -1.6657022719,
				"z": 3.9802752588,
				"element": "H" 
			},
			{
				"x": 5.4379452077,
				"y": -0.4806266809,
				"z": 2.959701636,
				"element": "H" 
			},
			{
				"x": 5.1579180068,
				"y": -0.1375331788,
				"z": 4.6877282502,
				"element": "H" 
			},
			{
				"x": 1.3226858619,
				"y": 1.2126704663,
				"z": 2.9927567761,
				"element": "H" 
			},
			{
				"x": -0.1871284081,
				"y": 0.6798772019,
				"z": 1.0899728022,
				"element": "H" 
			},
			{
				"x": 2.5262630046,
				"y": -2.4028474576,
				"z": -0.1806608812,
				"element": "H" 
			},
			{
				"x": 4.0262148426,
				"y": -1.8778071827,
				"z": 1.704164448,
				"element": "H" 
			},
			{
				"x": -3.8677923395,
				"y": -1.1119686223,
				"z": -4.8202524041,
				"element": "H" 
			},
			{
				"x": -2.244293962,
				"y": -1.7898646938,
				"z": -4.6036391786,
				"element": "H" 
			},
			{
				"x": -4.1937314896,
				"y": -2.4836346568,
				"z": -2.0597618681,
				"element": "H" 
			}
		],
		 "valence_orbital": [ 
			{
				"type": "occ",
				"energy": -0.28952,
				"method": "rhf"
			},
			{
				"type": "occ",
				"energy": -0.28377,
				"method": "rhf"
			},
			{
				"type": "occ",
				"energy": -0.27147,
				"method": "rhf"
			},
			{
				"type": "occ",
				"energy": -0.26394,
				"method": "rhf"
			},
			{
				"type": "occ",
				"energy": -0.22496,
				"method": "rhf"
			},
			{
				"type": "unocc",
				"energy": -0.05064,
				"method": "rhf"
			},
			{
				"type": "unocc",
				"energy": -0.0199,
				"method": "rhf"
			},
			{
				"type": "unocc",
				"energy": -0.00983,
				"method": "rhf"
			},
			{
				"type": "unocc",
				"energy": 0.00444,
				"method": "rhf"
			},
			{
				"type": "unocc",
				"energy": 0.00502,
				"method": "rhf"
			}
		],
		"cosmo_sigma_profile": { 
			"-0.025": 0.0,
			"-0.024": 0.0,
			"-0.023": 0.0,
			"-0.022": 0.0,
			"-0.021": 0.0,
			"-0.02": 0.0,
			"-0.019": 0.0,
			"-0.018": 0.0,
			"-0.017": 0.0,
			"-0.016": 0.0,
			"-0.015": 0.298902120478,
			"-0.014": 1.05557206686,
			"-0.013": 0.848085150763,
			"-0.012": 1.16626067402,
			"-0.011": 4.6989848863,
			"-0.01": 4.51330729545,
			"-0.009": 2.91919193795,
			"-0.008": 4.10692043587,
			"-0.007": 9.3231572441,
			"-0.006": 19.3779027712,
			"-0.005": 20.3957898354,
			"-0.004": 19.8096546035,
			"-0.003": 19.0972144084,
			"-0.002": 18.6233661291,
			"-0.001": 17.3618972543,
			"0.0": 17.0732266138,
			"0.001": 19.3710438308,
			"0.002": 19.9316330806,
			"0.003": 21.6058569052,
			"0.004": 11.227805908,
			"0.005": 5.1060654923,
			"0.006": 5.70529076989,
			"0.007": 6.04079231422,
			"0.008": 5.68511140608,
			"0.009": 8.63902981214,
			"0.01": 7.94257521421,
			"0.011": 8.10572990911,
			"0.012": 6.26611517462,
			"0.013": 1.7150685616,
			"0.014": 0.673507769171,
			"0.015": 0.0139785936166,
			"0.016": 0.0,
			"0.017": 0.0,
			"0.018": 0.0,
			"0.019": 0.0,
			"0.02": 0.0,
			"0.021": 0.0,
			"0.022": 0.0,
			"0.023": 0.0,
			"0.024": 0.0,
			"0.025": 0.0
		}
	}
}
