{
	 "smiles": "CCOC1=CC=C2C=CC=CC2=C1C(O)=O", 
	 "Tm": 417.15, 
	 "num_atms": 28, 
	 "gaussian": { 
		 "optdone": 1, 
		 "sigma_profile": "yes", 
		 "theory": "DFT", 
		 "functional": "B3LYP", 
		 "basiset": "6-31G**", 
		 "properties": { 
			 "R2extent": 3734.4802, 
			 "electric_dipole_moment_norm": 3.39847900538, 
			 "electric_quadrupole_moment_norm": 13.2574837986, 
			 "total_energy": -728.301102029, 
			 "HOMO_LUMO_gap": 0.15966, 
			 "cosmo_polarized_energy": -13.14, 
			 "cosmo_cavitation_energy": 31.49, 
			 "cosmo_dispersion_energy": -22.88, 
			 "cosmo_repulsion_energy": 1.78, 
			 "cosmo_total_nonelectrostatic_energy": 10.39, 
			 "SMD_solvation_energy": 6.58 
		},
		"coords": [
			{
				"x": -3.2622561984,
				"y": 1.61017,
				"z": -1.5265979497,
				"element": "C" 
			},
			{
				"x": -3.2542343602,
				"y": 0.382000204,
				"z": -0.6236428133,
				"element": "C" 
			},
			{
				"x": -2.0094551716,
				"y": -0.3228033128,
				"z": -0.6637582404,
				"element": "O" 
			},
			{
				"x": -0.900740675,
				"y": 0.1760476216,
				"z": -0.0531313001,
				"element": "C" 
			},
			{
				"x": -0.9573355451,
				"y": 1.2192584363,
				"z": 0.9080072382,
				"element": "C" 
			},
			{
				"x": 0.184692963,
				"y": 1.6263498439,
				"z": 1.5528383798,
				"element": "C" 
			},
			{
				"x": 1.4387044385,
				"y": 1.0184015323,
				"z": 1.2979952464,
				"element": "C" 
			},
			{
				"x": 2.6137265093,
				"y": 1.4428646452,
				"z": 1.9739565177,
				"element": "C" 
			},
			{
				"x": 3.8265922269,
				"y": 0.8463458138,
				"z": 1.7227652821,
				"element": "C" 
			},
			{
				"x": 3.9033605006,
				"y": -0.2051075536,
				"z": 0.7789002561,
				"element": "C" 
			},
			{
				"x": 2.783923674,
				"y": -0.6416460746,
				"z": 0.1055983701,
				"element": "C" 
			},
			{
				"x": 1.510764675,
				"y": -0.0460373309,
				"z": 0.3391149642,
				"element": "C" 
			},
			{
				"x": 0.3175237359,
				"y": -0.4350879631,
				"z": -0.3560350953,
				"element": "C" 
			},
			{
				"x": 0.3838712966,
				"y": -1.5161322215,
				"z": -1.3855993003,
				"element": "C" 
			},
			{
				"x": -0.2377536912,
				"y": -1.1915419724,
				"z": -2.5437041328,
				"element": "O" 
			},
			{
				"x": 0.9679040453,
				"y": -2.5753732738,
				"z": -1.2557483405,
				"element": "O" 
			},
			{
				"x": -4.259119922,
				"y": 2.0634994125,
				"z": -1.5328621787,
				"element": "H" 
			},
			{
				"x": -3.0022196939,
				"y": 1.3255610592,
				"z": -2.5497253939,
				"element": "H" 
			},
			{
				"x": -2.5463489574,
				"y": 2.3652560115,
				"z": -1.1901313635,
				"element": "H" 
			},
			{
				"x": -3.9815301255,
				"y": -0.3543693673,
				"z": -0.9752117114,
				"element": "H" 
			},
			{
				"x": -3.5234630271,
				"y": 0.6344331749,
				"z": 0.409664983,
				"element": "H" 
			},
			{
				"x": -1.9014617051,
				"y": 1.6946737657,
				"z": 1.1422631122,
				"element": "H" 
			},
			{
				"x": 0.1317201428,
				"y": 2.4287400211,
				"z": 2.284323276,
				"element": "H" 
			},
			{
				"x": 2.5324039265,
				"y": 2.2517903767,
				"z": 2.6957181968,
				"element": "H" 
			},
			{
				"x": 4.7206628537,
				"y": 1.1751716807,
				"z": 2.2440211906,
				"element": "H" 
			},
			{
				"x": 4.8607671359,
				"y": -0.6801702788,
				"z": 0.584044733,
				"element": "H" 
			},
			{
				"x": 2.8608923285,
				"y": -1.4618337952,
				"z": -0.5960707875,
				"element": "H" 
			},
			{
				"x": -0.1321913801,
				"y": -1.9706604553,
				"z": -3.1158931386,
				"element": "H" 
			}
		],
		 "valence_orbital": [ 
			{
				"type": "occ",
				"energy": -0.29993,
				"method": "rhf"
			},
			{
				"type": "occ",
				"energy": -0.28368,
				"method": "rhf"
			},
			{
				"type": "occ",
				"energy": -0.26195,
				"method": "rhf"
			},
			{
				"type": "occ",
				"energy": -0.23446,
				"method": "rhf"
			},
			{
				"type": "occ",
				"energy": -0.20802,
				"method": "rhf"
			},
			{
				"type": "unocc",
				"energy": -0.04836,
				"method": "rhf"
			},
			{
				"type": "unocc",
				"energy": -0.00462,
				"method": "rhf"
			},
			{
				"type": "unocc",
				"energy": 0.00375,
				"method": "rhf"
			},
			{
				"type": "unocc",
				"energy": 0.05135,
				"method": "rhf"
			},
			{
				"type": "unocc",
				"energy": 0.08285,
				"method": "rhf"
			}
		],
		"cosmo_sigma_profile": { 
			"-0.025": 0.0,
			"-0.024": 0.0,
			"-0.023": 0.0,
			"-0.022": 0.0,
			"-0.021": 0.0,
			"-0.02": 0.0,
			"-0.019": 0.0,
			"-0.018": 0.343708264174,
			"-0.017": 0.92181887056,
			"-0.016": 0.848675954195,
			"-0.015": 1.18245395594,
			"-0.014": 0.379353491789,
			"-0.013": 0.738584307884,
			"-0.012": 0.199829469454,
			"-0.011": 0.627487736471,
			"-0.01": 1.50664088577,
			"-0.009": 0.476157326814,
			"-0.008": 1.61599406267,
			"-0.007": 5.10951578959,
			"-0.006": 13.1922607583,
			"-0.005": 16.1717313616,
			"-0.004": 22.7677373869,
			"-0.003": 21.5720523815,
			"-0.002": 17.5488670196,
			"-0.001": 16.7430567312,
			"0.0": 16.2323338967,
			"0.001": 13.4992780367,
			"0.002": 17.859292139,
			"0.003": 21.0093320641,
			"0.004": 17.4870666978,
			"0.005": 13.2106082441,
			"0.006": 4.91540298944,
			"0.007": 3.8078932221,
			"0.008": 5.03883257261,
			"0.009": 4.27734674173,
			"0.01": 3.20284264465,
			"0.011": 4.50044314454,
			"0.012": 3.71667231339,
			"0.013": 0.242178488695,
			"0.014": 0.0,
			"0.015": 0.0,
			"0.016": 0.0,
			"0.017": 0.0,
			"0.018": 0.0,
			"0.019": 0.0,
			"0.02": 0.0,
			"0.021": 0.0,
			"0.022": 0.0,
			"0.023": 0.0,
			"0.024": 0.0,
			"0.025": 0.0
		}
	}
}
