{
	 "smiles": "OCC1C(CC2OC(=O)CC12)OC(=O)C1=CC=C(C=C1)C1=CC=CC=C1", 
	 "Tm": 404.15, 
	 "num_atms": 46, 
	 "gaussian": { 
		 "optdone": 1, 
		 "sigma_profile": "yes", 
		 "theory": "DFT", 
		 "functional": "B3LYP", 
		 "basiset": "6-31G**", 
		 "properties": { 
			 "R2extent": 16312.7032, 
			 "electric_dipole_moment_norm": 7.41270629325, 
			 "electric_quadrupole_moment_norm": 35.1042603028, 
			 "total_energy": -1188.43205974, 
			 "HOMO_LUMO_gap": 0.17758, 
			 "cosmo_polarized_energy": -24.04, 
			 "cosmo_cavitation_energy": 48.98, 
			 "cosmo_dispersion_energy": -34.45, 
			 "cosmo_repulsion_energy": 2.57, 
			 "cosmo_total_nonelectrostatic_energy": 17.1, 
			 "SMD_solvation_energy": 9.33 
		},
		"coords": [
			{
				"x": 0.4558334974,
				"y": -0.9007810847,
				"z": 2.4717259211,
				"element": "O" 
			},
			{
				"x": 1.1867606077,
				"y": 0.2071669664,
				"z": 2.9800368672,
				"element": "C" 
			},
			{
				"x": 0.2054108619,
				"y": 1.3146343597,
				"z": 3.3875002614,
				"element": "C" 
			},
			{
				"x": -0.321954621,
				"y": 2.1800458579,
				"z": 2.2080059077,
				"element": "C" 
			},
			{
				"x": 0.5904242659,
				"y": 3.4131550755,
				"z": 2.1632771576,
				"element": "C" 
			},
			{
				"x": 0.8466579854,
				"y": 3.7124093245,
				"z": 3.6317310557,
				"element": "C" 
			},
			{
				"x": -0.2867921215,
				"y": 4.4123385373,
				"z": 4.1972216506,
				"element": "O" 
			},
			{
				"x": -0.7162397336,
				"y": 3.837901617,
				"z": 5.3592467889,
				"element": "C" 
			},
			{
				"x": -1.6279799243,
				"y": 4.2852137921,
				"z": 6.0027843205,
				"element": "O" 
			},
			{
				"x": 0.1418604859,
				"y": 2.6125861259,
				"z": 5.6616630995,
				"element": "C" 
			},
			{
				"x": 0.8896306171,
				"y": 2.3351805406,
				"z": 4.3539605814,
				"element": "C" 
			},
			{
				"x": -0.3051422442,
				"y": 1.4219848149,
				"z": 0.9916294354,
				"element": "O" 
			},
			{
				"x": -1.0542623468,
				"y": 1.8866295864,
				"z": -0.0384848633,
				"element": "C" 
			},
			{
				"x": -1.640918352,
				"y": 2.9517913566,
				"z": -0.0126768634,
				"element": "O" 
			},
			{
				"x": -1.0609362675,
				"y": 0.9396602805,
				"z": -1.185061008,
				"element": "C" 
			},
			{
				"x": -0.5374040712,
				"y": -0.3574085853,
				"z": -1.0847467346,
				"element": "C" 
			},
			{
				"x": -0.5773439766,
				"y": -1.2079224999,
				"z": -2.1849838855,
				"element": "C" 
			},
			{
				"x": -1.1337504199,
				"y": -0.7923620639,
				"z": -3.4083828524,
				"element": "C" 
			},
			{
				"x": -1.6598290783,
				"y": 0.5102381503,
				"z": -3.4901898426,
				"element": "C" 
			},
			{
				"x": -1.6276301572,
				"y": 1.363965799,
				"z": -2.3940976328,
				"element": "C" 
			},
			{
				"x": -1.1688820063,
				"y": -1.703949837,
				"z": -4.5794412857,
				"element": "C" 
			},
			{
				"x": -1.4160579523,
				"y": -3.0782236523,
				"z": -4.4178712777,
				"element": "C" 
			},
			{
				"x": -1.4489982123,
				"y": -3.9336355558,
				"z": -5.518061424,
				"element": "C" 
			},
			{
				"x": -1.234324678,
				"y": -3.4339795161,
				"z": -6.8040410462,
				"element": "C" 
			},
			{
				"x": -0.987423999,
				"y": -2.0711011198,
				"z": -6.9801466584,
				"element": "C" 
			},
			{
				"x": -0.9557432581,
				"y": -1.2154389812,
				"z": -5.8800994473,
				"element": "C" 
			},
			{
				"x": 1.0869129108,
				"y": -1.5959780344,
				"z": 2.2474838379,
				"element": "H" 
			},
			{
				"x": 1.9091239657,
				"y": 0.5894297639,
				"z": 2.2416089554,
				"element": "H" 
			},
			{
				"x": 1.7568199895,
				"y": -0.0899265961,
				"z": 3.8749374831,
				"element": "H" 
			},
			{
				"x": -0.6299658813,
				"y": 0.8106214323,
				"z": 3.8845534761,
				"element": "H" 
			},
			{
				"x": -1.3494515448,
				"y": 2.5022135054,
				"z": 2.3976785649,
				"element": "H" 
			},
			{
				"x": 0.1450396785,
				"y": 4.2499600014,
				"z": 1.623363853,
				"element": "H" 
			},
			{
				"x": 1.538209937,
				"y": 3.1495442928,
				"z": 1.6775678086,
				"element": "H" 
			},
			{
				"x": 1.7350187548,
				"y": 4.328735326,
				"z": 3.8041848364,
				"element": "H" 
			},
			{
				"x": 0.8238111651,
				"y": 2.8783097527,
				"z": 6.4779593864,
				"element": "H" 
			},
			{
				"x": -0.4855274578,
				"y": 1.7925102023,
				"z": 6.0174154434,
				"element": "H" 
			},
			{
				"x": 1.9252904752,
				"y": 2.036341806,
				"z": 4.5418308389,
				"element": "H" 
			},
			{
				"x": -0.1163987034,
				"y": -0.687682283,
				"z": -0.1408892479,
				"element": "H" 
			},
			{
				"x": -0.1512961564,
				"y": -2.2035632505,
				"z": -2.105921287,
				"element": "H" 
			},
			{
				"x": -2.1223974447,
				"y": 0.8422139581,
				"z": -4.4145379811,
				"element": "H" 
			},
			{
				"x": -2.0463963772,
				"y": 2.363265917,
				"z": -2.4503219355,
				"element": "H" 
			},
			{
				"x": -1.6114027726,
				"y": -3.4724357087,
				"z": -3.4250170039,
				"element": "H" 
			},
			{
				"x": -1.6515520978,
				"y": -4.9907883302,
				"z": -5.3712721327,
				"element": "H" 
			},
			{
				"x": -1.2599065118,
				"y": -4.1005003505,
				"z": -7.6611918699,
				"element": "H" 
			},
			{
				"x": -0.8112885078,
				"y": -1.6735982696,
				"z": -7.9756725887,
				"element": "H" 
			},
			{
				"x": -0.7377083223,
				"y": -0.1615724236,
				"z": -6.0254586626,
				"element": "H" 
			}
		],
		 "valence_orbital": [ 
			{
				"type": "occ",
				"energy": -0.27057,
				"method": "rhf"
			},
			{
				"type": "occ",
				"energy": -0.26572,
				"method": "rhf"
			},
			{
				"type": "occ",
				"energy": -0.25795,
				"method": "rhf"
			},
			{
				"type": "occ",
				"energy": -0.25562,
				"method": "rhf"
			},
			{
				"type": "occ",
				"energy": -0.23141,
				"method": "rhf"
			},
			{
				"type": "unocc",
				"energy": -0.05383,
				"method": "rhf"
			},
			{
				"type": "unocc",
				"energy": -0.00963,
				"method": "rhf"
			},
			{
				"type": "unocc",
				"energy": -0.00523,
				"method": "rhf"
			},
			{
				"type": "unocc",
				"energy": 0.00124,
				"method": "rhf"
			},
			{
				"type": "unocc",
				"energy": 0.01024,
				"method": "rhf"
			}
		],
		"cosmo_sigma_profile": { 
			"-0.025": 0.0,
			"-0.024": 0.0,
			"-0.023": 0.0,
			"-0.022": 0.0,
			"-0.021": 0.0,
			"-0.02": 0.0,
			"-0.019": 0.0,
			"-0.018": 0.0,
			"-0.017": 0.0,
			"-0.016": 0.289735109452,
			"-0.015": 1.11676925107,
			"-0.014": 1.36130500769,
			"-0.013": 0.546643653386,
			"-0.012": 0.772123535525,
			"-0.011": 0.809123591634,
			"-0.01": 1.12801684853,
			"-0.009": 0.905430268229,
			"-0.008": 1.59327404807,
			"-0.007": 8.96169612044,
			"-0.006": 32.2952490851,
			"-0.005": 39.6280481866,
			"-0.004": 34.2988817193,
			"-0.003": 32.026439904,
			"-0.002": 26.1634158283,
			"-0.001": 21.6670663833,
			"0.0": 17.8698992644,
			"0.001": 22.0266194991,
			"0.002": 24.2943180138,
			"0.003": 26.0436820376,
			"0.004": 22.7506129577,
			"0.005": 15.5810148803,
			"0.006": 8.04368208317,
			"0.007": 5.70154358404,
			"0.008": 5.69696232569,
			"0.009": 4.92638133186,
			"0.01": 8.24244423519,
			"0.011": 8.72950476117,
			"0.012": 9.48965316122,
			"0.013": 4.17102587037,
			"0.014": 1.07347073588,
			"0.015": 0.00165651095162,
			"0.016": 0.0,
			"0.017": 0.0,
			"0.018": 0.0,
			"0.019": 0.0,
			"0.02": 0.0,
			"0.021": 0.0,
			"0.022": 0.0,
			"0.023": 0.0,
			"0.024": 0.0,
			"0.025": 0.0
		}
	}
}
