{
	 "smiles": "ClS(=O)(=O)C1=CC=C(S1)C1=CN=CO1", 
	 "Tm": 354.15, 
	 "num_atms": 18, 
	 "gaussian": { 
		 "optdone": 1, 
		 "sigma_profile": "yes", 
		 "theory": "DFT", 
		 "functional": "B3LYP", 
		 "basiset": "6-31G**", 
		 "properties": { 
			 "R2extent": 5948.7482, 
			 "electric_dipole_moment_norm": 5.24943717555, 
			 "electric_quadrupole_moment_norm": 12.5722075532, 
			 "total_energy": -1806.03374308, 
			 "HOMO_LUMO_gap": 0.14146, 
			 "cosmo_polarized_energy": -12.35, 
			 "cosmo_cavitation_energy": 29.02, 
			 "cosmo_dispersion_energy": -22.08, 
			 "cosmo_repulsion_energy": 1.63, 
			 "cosmo_total_nonelectrostatic_energy": 8.56, 
			 "SMD_solvation_energy": 2.71 
		},
		"coords": [
			{
				"x": 0.1172414838,
				"y": 4.1849780898,
				"z": -2.5995164472,
				"element": "Cl" 
			},
			{
				"x": -0.5419042416,
				"y": 2.2259000939,
				"z": -3.1274823665,
				"element": "S" 
			},
			{
				"x": -1.9394899666,
				"y": 2.3689669088,
				"z": -3.5129074823,
				"element": "O" 
			},
			{
				"x": 0.4799740348,
				"y": 1.6889681776,
				"z": -4.0151180133,
				"element": "O" 
			},
			{
				"x": -0.4587948474,
				"y": 1.3749084562,
				"z": -1.5983848858,
				"element": "C" 
			},
			{
				"x": 0.6320097305,
				"y": 0.678315337,
				"z": -1.1348058098,
				"element": "C" 
			},
			{
				"x": 0.3997495382,
				"y": 0.1206008687,
				"z": 0.1432598539,
				"element": "C" 
			},
			{
				"x": -0.85973651,
				"y": 0.4104509969,
				"z": 0.6389498104,
				"element": "C" 
			},
			{
				"x": -1.7919783091,
				"y": 1.3738645789,
				"z": -0.478153073,
				"element": "S" 
			},
			{
				"x": -1.4198792382,
				"y": -0.0106427706,
				"z": 1.8969948037,
				"element": "C" 
			},
			{
				"x": -2.6007336656,
				"y": 0.1902163577,
				"z": 2.5600177945,
				"element": "C" 
			},
			{
				"x": -2.5735749855,
				"y": -0.4803895817,
				"z": 3.7690106403,
				"element": "N" 
			},
			{
				"x": -1.4080513352,
				"y": -1.0466308354,
				"z": 3.7938534708,
				"element": "C" 
			},
			{
				"x": -0.6418239535,
				"y": -0.8156445105,
				"z": 2.6986590555,
				"element": "O" 
			},
			{
				"x": 1.5502422308,
				"y": 0.5763832128,
				"z": -1.6999117708,
				"element": "H" 
			},
			{
				"x": 1.118566036,
				"y": -0.4778436225,
				"z": 0.6882358623,
				"element": "H" 
			},
			{
				"x": -3.4592857843,
				"y": 0.7687627327,
				"z": 2.25026728,
				"element": "H" 
			},
			{
				"x": -0.977830217,
				"y": -1.66856449,
				"z": 4.5648312774,
				"element": "H" 
			}
		],
		 "valence_orbital": [ 
			{
				"type": "occ",
				"energy": -0.31706,
				"method": "rhf"
			},
			{
				"type": "occ",
				"energy": -0.31667,
				"method": "rhf"
			},
			{
				"type": "occ",
				"energy": -0.31567,
				"method": "rhf"
			},
			{
				"type": "occ",
				"energy": -0.29595,
				"method": "rhf"
			},
			{
				"type": "occ",
				"energy": -0.24755,
				"method": "rhf"
			},
			{
				"type": "unocc",
				"energy": -0.10609,
				"method": "rhf"
			},
			{
				"type": "unocc",
				"energy": -0.06915,
				"method": "rhf"
			},
			{
				"type": "unocc",
				"energy": -0.01995,
				"method": "rhf"
			},
			{
				"type": "unocc",
				"energy": -0.01542,
				"method": "rhf"
			},
			{
				"type": "unocc",
				"energy": 0.01287,
				"method": "rhf"
			}
		],
		"cosmo_sigma_profile": { 
			"-0.025": 0.0,
			"-0.024": 0.0,
			"-0.023": 0.0,
			"-0.022": 0.0,
			"-0.021": 0.0,
			"-0.02": 0.0,
			"-0.019": 0.0,
			"-0.018": 0.0,
			"-0.017": 0.0,
			"-0.016": 0.0,
			"-0.015": 0.0,
			"-0.014": 0.0,
			"-0.013": 0.0,
			"-0.012": 0.798653587714,
			"-0.011": 2.19667002296,
			"-0.01": 3.44188118259,
			"-0.009": 6.99680833642,
			"-0.008": 6.22201234352,
			"-0.007": 6.92362851612,
			"-0.006": 7.37879538945,
			"-0.005": 8.37375928714,
			"-0.004": 8.80600163596,
			"-0.003": 12.4066037628,
			"-0.002": 21.7467607728,
			"-0.001": 28.9515534105,
			"0.0": 24.3485595758,
			"0.001": 19.5404060457,
			"0.002": 13.3345498099,
			"0.003": 18.0643817882,
			"0.004": 10.7683384207,
			"0.005": 4.82492074917,
			"0.006": 5.81451985701,
			"0.007": 8.24878276722,
			"0.008": 10.9999253402,
			"0.009": 3.89598960882,
			"0.01": 1.00577445924,
			"0.011": 0.965981154855,
			"0.012": 1.3232313459,
			"0.013": 0.772581301547,
			"0.014": 1.17391750658,
			"0.015": 0.631816609338,
			"0.016": 0.0224812538877,
			"0.017": 0.0,
			"0.018": 0.0,
			"0.019": 0.0,
			"0.02": 0.0,
			"0.021": 0.0,
			"0.022": 0.0,
			"0.023": 0.0,
			"0.024": 0.0,
			"0.025": 0.0
		}
	}
}
