{
	 "smiles": "OC(=O)C1=CC(=CC=C1)S(=O)(=O)N1CCCCCC1", 
	 "Tm": 447.15, 
	 "num_atms": 36, 
	 "gaussian": { 
		 "optdone": 1, 
		 "sigma_profile": "yes", 
		 "theory": "DFT", 
		 "functional": "B3LYP", 
		 "basiset": "6-31G**", 
		 "properties": { 
			 "R2extent": 6135.7324, 
			 "electric_dipole_moment_norm": 3.97109856337, 
			 "electric_quadrupole_moment_norm": 16.5004199574, 
			 "total_energy": -1259.41018652, 
			 "HOMO_LUMO_gap": 0.18107, 
			 "cosmo_polarized_energy": -16.81, 
			 "cosmo_cavitation_energy": 38.84, 
			 "cosmo_dispersion_energy": -27.07, 
			 "cosmo_repulsion_energy": 2.05, 
			 "cosmo_total_nonelectrostatic_energy": 13.81, 
			 "SMD_solvation_energy": 6.15 
		},
		"coords": [
			{
				"x": 0.5258387592,
				"y": 2.1313765187,
				"z": 2.940437438,
				"element": "O" 
			},
			{
				"x": 0.1556435523,
				"y": 3.2470779523,
				"z": 2.2680881552,
				"element": "C" 
			},
			{
				"x": -0.2126663927,
				"y": 4.2569526126,
				"z": 2.8330967082,
				"element": "O" 
			},
			{
				"x": 0.2481705729,
				"y": 3.0917335714,
				"z": 0.7895439256,
				"element": "C" 
			},
			{
				"x": 0.6882976649,
				"y": 1.9049539233,
				"z": 0.1956862534,
				"element": "C" 
			},
			{
				"x": 0.7448080195,
				"y": 1.8281548766,
				"z": -1.1961825899,
				"element": "C" 
			},
			{
				"x": 0.3930704099,
				"y": 2.912465004,
				"z": -2.0004665251,
				"element": "C" 
			},
			{
				"x": -0.0436896091,
				"y": 4.0956762108,
				"z": -1.3970854413,
				"element": "C" 
			},
			{
				"x": -0.1186402146,
				"y": 4.1848653885,
				"z": -0.0106003545,
				"element": "C" 
			},
			{
				"x": 1.3564157072,
				"y": 0.3194161485,
				"z": -1.9658554544,
				"element": "S" 
			},
			{
				"x": 2.5521345286,
				"y": -0.121602765,
				"z": -1.2411063072,
				"element": "O" 
			},
			{
				"x": 1.4146783135,
				"y": 0.5736289197,
				"z": -3.413051262,
				"element": "O" 
			},
			{
				"x": 0.137284257,
				"y": -0.7871407593,
				"z": -1.5754657746,
				"element": "N" 
			},
			{
				"x": 0.6200663825,
				"y": -2.1711062896,
				"z": -1.3440013406,
				"element": "C" 
			},
			{
				"x": -0.5312105111,
				"y": -3.112188801,
				"z": -0.9781673227,
				"element": "C" 
			},
			{
				"x": -1.4285154337,
				"y": -2.6596905142,
				"z": 0.1846667766,
				"element": "C" 
			},
			{
				"x": -2.0850584009,
				"y": -1.2718404966,
				"z": -0.0045052279,
				"element": "C" 
			},
			{
				"x": -2.3848370178,
				"y": -0.9116865164,
				"z": -1.4674836143,
				"element": "C" 
			},
			{
				"x": -1.1176636589,
				"y": -0.6389034176,
				"z": -2.3373092678,
				"element": "C" 
			},
			{
				"x": 0.434968611,
				"y": 2.3439221803,
				"z": 3.8838496928,
				"element": "H" 
			},
			{
				"x": 0.9878679611,
				"y": 1.0620800925,
				"z": 0.8065788729,
				"element": "H" 
			},
			{
				"x": 0.4731998874,
				"y": 2.8213288732,
				"z": -3.0782700924,
				"element": "H" 
			},
			{
				"x": -0.3203383374,
				"y": 4.9453919069,
				"z": -2.0132332377,
				"element": "H" 
			},
			{
				"x": -0.4540655323,
				"y": 5.0925825283,
				"z": 0.479381092,
				"element": "H" 
			},
			{
				"x": 1.1288864904,
				"y": -2.5672360341,
				"z": -2.2353856603,
				"element": "H" 
			},
			{
				"x": 1.355817304,
				"y": -2.128495666,
				"z": -0.5386752882,
				"element": "H" 
			},
			{
				"x": -1.1507717147,
				"y": -3.2899285692,
				"z": -1.8653092694,
				"element": "H" 
			},
			{
				"x": -0.0827282768,
				"y": -4.0833794006,
				"z": -0.7364608304,
				"element": "H" 
			},
			{
				"x": -2.2118442364,
				"y": -3.4185690024,
				"z": 0.3053621339,
				"element": "H" 
			},
			{
				"x": -0.8548151497,
				"y": -2.6642671679,
				"z": 1.119697452,
				"element": "H" 
			},
			{
				"x": -3.0218239628,
				"y": -1.238808217,
				"z": 0.5642050679,
				"element": "H" 
			},
			{
				"x": -1.4401392456,
				"y": -0.4957776516,
				"z": 0.417438204,
				"element": "H" 
			},
			{
				"x": -3.017328713,
				"y": -0.0172801153,
				"z": -1.4830963231,
				"element": "H" 
			},
			{
				"x": -2.977945244,
				"y": -1.7083452169,
				"z": -1.9323714766,
				"element": "H" 
			},
			{
				"x": -1.0997573156,
				"y": -1.2840464912,
				"z": -3.2253874622,
				"element": "H" 
			},
			{
				"x": -1.1519094544,
				"y": 0.3852863841,
				"z": -2.7134616501,
				"element": "H" 
			}
		],
		 "valence_orbital": [ 
			{
				"type": "occ",
				"energy": -0.29761,
				"method": "rhf"
			},
			{
				"type": "occ",
				"energy": -0.28757,
				"method": "rhf"
			},
			{
				"type": "occ",
				"energy": -0.28275,
				"method": "rhf"
			},
			{
				"type": "occ",
				"energy": -0.28085,
				"method": "rhf"
			},
			{
				"type": "occ",
				"energy": -0.24598,
				"method": "rhf"
			},
			{
				"type": "unocc",
				"energy": -0.06491,
				"method": "rhf"
			},
			{
				"type": "unocc",
				"energy": -0.04365,
				"method": "rhf"
			},
			{
				"type": "unocc",
				"energy": 0.03438,
				"method": "rhf"
			},
			{
				"type": "unocc",
				"energy": 0.05201,
				"method": "rhf"
			},
			{
				"type": "unocc",
				"energy": 0.0672,
				"method": "rhf"
			}
		],
		"cosmo_sigma_profile": { 
			"-0.025": 0.0,
			"-0.024": 0.0,
			"-0.023": 0.0,
			"-0.022": 0.0,
			"-0.021": 0.0,
			"-0.02": 0.0,
			"-0.019": 0.21100426323,
			"-0.018": 0.997071106353,
			"-0.017": 0.850986461717,
			"-0.016": 0.561075796395,
			"-0.015": 0.876745631684,
			"-0.014": 1.29523311853,
			"-0.013": 0.320761532414,
			"-0.012": 0.524371498497,
			"-0.011": 1.05508751367,
			"-0.01": 0.599378483662,
			"-0.009": 0.327987419426,
			"-0.008": 2.1249492712,
			"-0.007": 6.21643730464,
			"-0.006": 7.35498127361,
			"-0.005": 10.5089650796,
			"-0.004": 24.0588363645,
			"-0.003": 33.1061828666,
			"-0.002": 37.6107788935,
			"-0.001": 37.854827916,
			"0.0": 36.5443941306,
			"0.001": 25.8308853457,
			"0.002": 11.2391392718,
			"0.003": 6.41458594727,
			"0.004": 5.77759481896,
			"0.005": 6.1307232206,
			"0.006": 4.2282534891,
			"0.007": 4.79384821295,
			"0.008": 4.79321122241,
			"0.009": 5.73102075537,
			"0.01": 8.17465973989,
			"0.011": 13.5619187362,
			"0.012": 5.85059794614,
			"0.013": 0.00124708478394,
			"0.014": 0.0,
			"0.015": 0.0,
			"0.016": 0.0,
			"0.017": 0.0,
			"0.018": 0.0,
			"0.019": 0.0,
			"0.02": 0.0,
			"0.021": 0.0,
			"0.022": 0.0,
			"0.023": 0.0,
			"0.024": 0.0,
			"0.0": 0.0
		}
	}
}
