{
	 "smiles": "CC1=CC=C(C=C1)S(=O)(=O)NCC(O)=O", 
	 "Tm": 421.15, 
	 "num_atms": 26, 
	 "gaussian": { 
		 "optdone": 1, 
		 "sigma_profile": "yes", 
		 "theory": "DFT", 
		 "functional": "B3LYP", 
		 "basiset": "6-31G**", 
		 "properties": { 
			 "R2extent": 4522.6791, 
			 "electric_dipole_moment_norm": 3.70216764882, 
			 "electric_quadrupole_moment_norm": 23.1307938487, 
			 "total_energy": -1103.36741287, 
			 "HOMO_LUMO_gap": 0.2205, 
			 "cosmo_polarized_energy": -18.38, 
			 "cosmo_cavitation_energy": 32.26, 
			 "cosmo_dispersion_energy": -23.42, 
			 "cosmo_repulsion_energy": 1.82, 
			 "cosmo_total_nonelectrostatic_energy": 10.66, 
			 "SMD_solvation_energy": 5.51 
		},
		"coords": [
			{
				"x": -4.0316560783,
				"y": 0.3218939586,
				"z": 3.1974341976,
				"element": "C" 
			},
			{
				"x": -2.6591967761,
				"y": 0.028256697,
				"z": 2.6417769267,
				"element": "C" 
			},
			{
				"x": -2.3811011538,
				"y": -1.1868511276,
				"z": 2.0050244142,
				"element": "C" 
			},
			{
				"x": -1.1078619314,
				"y": -1.4652105096,
				"z": 1.5045524724,
				"element": "C" 
			},
			{
				"x": -0.1037427923,
				"y": -0.5087598641,
				"z": 1.6416817931,
				"element": "C" 
			},
			{
				"x": -0.350057994,
				"y": 0.7117780268,
				"z": 2.2781831983,
				"element": "C" 
			},
			{
				"x": -1.6240694441,
				"y": 0.9705435405,
				"z": 2.7703344437,
				"element": "C" 
			},
			{
				"x": 1.5358371587,
				"y": -0.8554706846,
				"z": 1.0171383098,
				"element": "S" 
			},
			{
				"x": 1.560617032,
				"y": -2.2635585823,
				"z": 0.5984030165,
				"element": "O" 
			},
			{
				"x": 2.5352983709,
				"y": -0.3162557396,
				"z": 1.9429972571,
				"element": "O" 
			},
			{
				"x": 1.629074107,
				"y": 0.1595993841,
				"z": -0.3406923236,
				"element": "N" 
			},
			{
				"x": 1.1150378295,
				"y": -0.3809889271,
				"z": -1.6014130965,
				"element": "C" 
			},
			{
				"x": 1.4664243609,
				"y": 0.5019279445,
				"z": -2.7835105276,
				"element": "C" 
			},
			{
				"x": 2.6400773671,
				"y": 1.1521544034,
				"z": -2.6031604685,
				"element": "O" 
			},
			{
				"x": 0.8113624352,
				"y": 0.5811052567,
				"z": -3.7949337631,
				"element": "O" 
			},
			{
				"x": -4.7607829892,
				"y": -0.4295894947,
				"z": 2.8839596645,
				"element": "H" 
			},
			{
				"x": -4.0166882387,
				"y": 0.3350832351,
				"z": 4.2937137709,
				"element": "H" 
			},
			{
				"x": -4.3919309938,
				"y": 1.3026070653,
				"z": 2.8691202586,
				"element": "H" 
			},
			{
				"x": -3.1678881583,
				"y": -1.9289667356,
				"z": 1.9010271864,
				"element": "H" 
			},
			{
				"x": -0.8863271831,
				"y": -2.4118507926,
				"z": 1.0242463494,
				"element": "H" 
			},
			{
				"x": 0.4483352655,
				"y": 1.4375397624,
				"z": 2.388991393,
				"element": "H" 
			},
			{
				"x": -1.8219254039,
				"y": 1.9173464202,
				"z": 3.2661314103,
				"element": "H" 
			},
			{
				"x": 2.5887579531,
				"y": 0.4932374644,
				"z": -0.4094455289,
				"element": "H" 
			},
			{
				"x": 1.4997872482,
				"y": -1.3890524391,
				"z": -1.8174523995,
				"element": "H" 
			},
			{
				"x": 0.0253537676,
				"y": -0.4476338036,
				"z": -1.5611151224,
				"element": "H" 
			},
			{
				"x": 2.8031662415,
				"y": 1.6648155414,
				"z": -3.4126928324,
				"element": "H" 
			}
		],
		 "valence_orbital": [ 
			{
				"type": "occ",
				"energy": -0.30836,
				"method": "rhf"
			},
			{
				"type": "occ",
				"energy": -0.29202,
				"method": "rhf"
			},
			{
				"type": "occ",
				"energy": -0.28099,
				"method": "rhf"
			},
			{
				"type": "occ",
				"energy": -0.27057,
				"method": "rhf"
			},
			{
				"type": "occ",
				"energy": -0.25895,
				"method": "rhf"
			},
			{
				"type": "unocc",
				"energy": -0.03845,
				"method": "rhf"
			},
			{
				"type": "unocc",
				"energy": -0.02127,
				"method": "rhf"
			},
			{
				"type": "unocc",
				"energy": -0.00846,
				"method": "rhf"
			},
			{
				"type": "unocc",
				"energy": 0.05299,
				"method": "rhf"
			},
			{
				"type": "unocc",
				"energy": 0.06724,
				"method": "rhf"
			}
		],
		"cosmo_sigma_profile": { 
			"-0.025": 0.0,
			"-0.024": 0.0,
			"-0.023": 0.0,
			"-0.022": 0.0,
			"-0.021": 0.0,
			"-0.02": 0.0,
			"-0.019": 0.588428865012,
			"-0.018": 1.06096361638,
			"-0.017": 1.04575814829,
			"-0.016": 0.674800264601,
			"-0.015": 0.722123968412,
			"-0.014": 0.736596861905,
			"-0.013": 0.423034376439,
			"-0.012": 2.01436391844,
			"-0.011": 1.73786933198,
			"-0.01": 0.899858514031,
			"-0.009": 1.88954813249,
			"-0.008": 4.12935899689,
			"-0.007": 9.24294298046,
			"-0.006": 14.1547664939,
			"-0.005": 19.1303671859,
			"-0.004": 18.6056812539,
			"-0.003": 19.3266628527,
			"-0.002": 17.0752662773,
			"-0.001": 16.0838238774,
			"0.0": 16.6933202802,
			"0.001": 15.0998977547,
			"0.002": 14.0520220128,
			"0.003": 18.240081258,
			"0.004": 8.8188649119,
			"0.005": 5.77685430274,
			"0.006": 4.54982125478,
			"0.007": 4.84884566569,
			"0.008": 5.22581947662,
			"0.009": 5.25417061338,
			"0.01": 10.9251249537,
			"0.011": 13.4381529129,
			"0.012": 3.74431200669,
			"0.013": 0.00201863145564,
			"0.014": 0.0,
			"0.015": 0.0,
			"0.016": 0.0,
			"0.017": 0.0,
			"0.018": 0.0,
			"0.019": 0.0,
			"0.02": 0.0,
			"0.021": 0.0,
			"0.022": 0.0,
			"0.023": 0.0,
			"0.024": 0.0,
			"0.025": 0.0
		}
	}
}
