{
	 "smiles": "NC1=CC(=CC(=C1)C(F)(F)F)[N+]([O-])=O", 
	 "Tm": 352.15, 
	 "num_atms": 19, 
	 "gaussian": { 
		 "optdone": 1, 
		 "sigma_profile": "yes", 
		 "theory": "DFT", 
		 "functional": "B3LYP", 
		 "basiset": "6-31G**", 
		 "properties": { 
			 "R2extent": 3117.3363, 
			 "electric_dipole_moment_norm": 5.46974107065, 
			 "electric_quadrupole_moment_norm": 15.7286716515, 
			 "total_energy": -829.139190883, 
			 "HOMO_LUMO_gap": 0.14457, 
			 "cosmo_polarized_energy": -12.63, 
			 "cosmo_cavitation_energy": 25.99, 
			 "cosmo_dispersion_energy": -18.52, 
			 "cosmo_repulsion_energy": 1.4, 
			 "cosmo_total_nonelectrostatic_energy": 8.88, 
			 "SMD_solvation_energy": 7.92 
		},
		"coords": [
			{
				"x": 0.7902486405,
				"y": 1.8881873078,
				"z": -2.5568077779,
				"element": "N" 
			},
			{
				"x": 0.4486270121,
				"y": 1.2471072738,
				"z": -1.3783897085,
				"element": "C" 
			},
			{
				"x": -0.8837894424,
				"y": 0.8845876196,
				"z": -1.1192222693,
				"element": "C" 
			},
			{
				"x": -1.2012075285,
				"y": 0.2961642012,
				"z": 0.0982222121,
				"element": "C" 
			},
			{
				"x": -0.2604033233,
				"y": 0.0398015706,
				"z": 1.0902345749,
				"element": "C" 
			},
			{
				"x": 1.0594884668,
				"y": 0.4014064682,
				"z": 0.8211555284,
				"element": "C" 
			},
			{
				"x": 1.4164070773,
				"y": 0.9958353644,
				"z": -0.3878696377,
				"element": "C" 
			},
			{
				"x": 2.1349384321,
				"y": 0.0868158154,
				"z": 1.8309814142,
				"element": "C" 
			},
			{
				"x": 2.6777168809,
				"y": -1.1310003729,
				"z": 1.6055015527,
				"element": "F" 
			},
			{
				"x": 3.1453348491,
				"y": 0.9829993856,
				"z": 1.7809896627,
				"element": "F" 
			},
			{
				"x": 1.6538552214,
				"y": 0.0809975349,
				"z": 3.0901683041,
				"element": "F" 
			},
			{
				"x": -2.6086910712,
				"y": -0.0729767692,
				"z": 0.3476134418,
				"element": "N" 
			},
			{
				"x": -3.4240609484,
				"y": 0.1510746794,
				"z": -0.546111392,
				"element": "O" 
			},
			{
				"x": -2.8788302978,
				"y": -0.5830824946,
				"z": 1.4327248148,
				"element": "O" 
			},
			{
				"x": 1.7610031421,
				"y": 1.851827805,
				"z": -2.830473612,
				"element": "H" 
			},
			{
				"x": 0.1501342667,
				"y": 1.7878717996,
				"z": -3.3306567572,
				"element": "H" 
			},
			{
				"x": -1.6704273184,
				"y": 1.0589147477,
				"z": -1.8434131413,
				"element": "H" 
			},
			{
				"x": -0.5568109897,
				"y": -0.4149705367,
				"z": 2.0248388655,
				"element": "H" 
			},
			{
				"x": 2.4498669305,
				"y": 1.2789386004,
				"z": -0.5600860754,
				"element": "H" 
			}
		],
		 "valence_orbital": [ 
			{
				"type": "occ",
				"energy": -0.31423,
				"method": "rhf"
			},
			{
				"type": "occ",
				"energy": -0.31206,
				"method": "rhf"
			},
			{
				"type": "occ",
				"energy": -0.29578,
				"method": "rhf"
			},
			{
				"type": "occ",
				"energy": -0.29184,
				"method": "rhf"
			},
			{
				"type": "occ",
				"energy": -0.23884,
				"method": "rhf"
			},
			{
				"type": "unocc",
				"energy": -0.09427,
				"method": "rhf"
			},
			{
				"type": "unocc",
				"energy": -0.03638,
				"method": "rhf"
			},
			{
				"type": "unocc",
				"energy": -0.0012,
				"method": "rhf"
			},
			{
				"type": "unocc",
				"energy": 0.05628,
				"method": "rhf"
			},
			{
				"type": "unocc",
				"energy": 0.09,
				"method": "rhf"
			}
		],
		"cosmo_sigma_profile": { 
			"-0.025": 0.0,
			"-0.024": 0.0,
			"-0.023": 0.0,
			"-0.022": 0.0,
			"-0.021": 0.0,
			"-0.02": 0.0,
			"-0.019": 0.0,
			"-0.018": 0.0,
			"-0.017": 0.0,
			"-0.016": 0.0,
			"-0.015": 0.0,
			"-0.014": 1.28208763547,
			"-0.013": 3.63779900566,
			"-0.012": 3.57490082408,
			"-0.011": 3.21156447108,
			"-0.01": 3.70515187984,
			"-0.009": 3.80388944575,
			"-0.008": 2.91598932352,
			"-0.007": 4.13953354279,
			"-0.006": 6.06937136418,
			"-0.005": 6.79433931393,
			"-0.004": 6.55130192164,
			"-0.003": 6.78915942153,
			"-0.002": 10.6189391686,
			"-0.001": 14.6302190952,
			"0.0": 18.7474752759,
			"0.001": 23.952705617,
			"0.002": 26.2942347906,
			"0.003": 23.7997287863,
			"0.004": 3.93105386244,
			"0.005": 4.14862031269,
			"0.006": 4.56799331333,
			"0.007": 9.83874775534,
			"0.008": 7.15575356188,
			"0.009": 4.49522475042,
			"0.01": 2.71415849822,
			"0.011": 0.606279375842,
			"0.012": 0.352885973758,
			"0.013": 0.0,
			"0.014": 0.0,
			"0.015": 0.0,
			"0.016": 0.0,
			"0.017": 0.0,
			"0.018": 0.0,
			"0.019": 0.0,
			"0.02": 0.0,
			"0.021": 0.0,
			"0.022": 0.0,
			"0.023": 0.0,
			"0.024": 0.0,
			"0.025": 0.0
		}
	}
}
