{
	 "smiles": "COC1=CC=C(C=C1)N=NC1=C(C)N=C(S1)C(=NNC1=CC=C(F)C=C1)C#N", 
	 "Tm": 487.15, 
	 "num_atms": 43, 
	 "gaussian": { 
		 "optdone": 1, 
		 "sigma_profile": "yes", 
		 "theory": "DFT", 
		 "functional": "B3LYP", 
		 "basiset": "6-31G**", 
		 "properties": { 
			 "R2extent": 19452.9372, 
			 "electric_dipole_moment_norm": 5.25205845931, 
			 "electric_quadrupole_moment_norm": 31.5689327523, 
			 "total_energy": -1634.67843727, 
			 "HOMO_LUMO_gap": 0.10408, 
			 "cosmo_polarized_energy": -20.73, 
			 "cosmo_cavitation_energy": 52.72, 
			 "cosmo_dispersion_energy": -36.38, 
			 "cosmo_repulsion_energy": 2.68, 
			 "cosmo_total_nonelectrostatic_energy": 19.01, 
			 "SMD_solvation_energy": 6.87 
		},
		"coords": [
			{
				"x": -0.6577033344,
				"y": 4.1239652443,
				"z": 5.866384534,
				"element": "C" 
			},
			{
				"x": -0.1325536297,
				"y": 3.9258388066,
				"z": 4.5604648191,
				"element": "O" 
			},
			{
				"x": -0.9350252714,
				"y": 3.3694781679,
				"z": 3.6161264511,
				"element": "C" 
			},
			{
				"x": -0.3582282611,
				"y": 3.2189475991,
				"z": 2.341082797,
				"element": "C" 
			},
			{
				"x": -1.0766109884,
				"y": 2.6461801662,
				"z": 1.3055334143,
				"element": "C" 
			},
			{
				"x": -2.4066552506,
				"y": 2.2233403954,
				"z": 1.5134552644,
				"element": "C" 
			},
			{
				"x": -2.9899696261,
				"y": 2.4300761348,
				"z": 2.7709821242,
				"element": "C" 
			},
			{
				"x": -2.2615169517,
				"y": 2.9691653818,
				"z": 3.8287415243,
				"element": "C" 
			},
			{
				"x": -3.2911997123,
				"y": 1.7609029247,
				"z": 0.5023056839,
				"element": "N" 
			},
			{
				"x": -2.9448587878,
				"y": 1.0742281524,
				"z": -0.4953591078,
				"element": "N" 
			},
			{
				"x": -1.7089996058,
				"y": 0.4220381426,
				"z": -0.6230595391,
				"element": "C" 
			},
			{
				"x": -1.0891044786,
				"y": -0.508655837,
				"z": 0.2043640441,
				"element": "C" 
			},
			{
				"x": -1.5097833008,
				"y": -0.8632117014,
				"z": 1.5984523726,
				"element": "C" 
			},
			{
				"x": -0.0419429135,
				"y": -1.1756037714,
				"z": -0.3678811544,
				"element": "N" 
			},
			{
				"x": 0.1618482068,
				"y": -0.8118356906,
				"z": -1.6083112203,
				"element": "C" 
			},
			{
				"x": -0.9769828185,
				"y": 0.3895907695,
				"z": -2.2139154525,
				"element": "S" 
			},
			{
				"x": 1.2456025128,
				"y": -1.3042739913,
				"z": -2.4514765006,
				"element": "C" 
			},
			{
				"x": 2.1303636091,
				"y": -2.1360761174,
				"z": -1.9561079604,
				"element": "N" 
			},
			{
				"x": 3.1031643451,
				"y": -2.5966072906,
				"z": -2.7109679187,
				"element": "N" 
			},
			{
				"x": 4.062442087,
				"y": -3.4911217648,
				"z": -2.2072854648,
				"element": "C" 
			},
			{
				"x": 4.0187887561,
				"y": -3.9360521136,
				"z": -0.8783097585,
				"element": "C" 
			},
			{
				"x": 4.988556381,
				"y": -4.8221257398,
				"z": -0.4191598485,
				"element": "C" 
			},
			{
				"x": 5.9877057525,
				"y": -5.2536743614,
				"z": -1.2869116336,
				"element": "C" 
			},
			{
				"x": 6.9246996625,
				"y": -6.1126145371,
				"z": -0.8353327789,
				"element": "F" 
			},
			{
				"x": 6.0445604927,
				"y": -4.8222393689,
				"z": -2.6070914403,
				"element": "C" 
			},
			{
				"x": 5.0748196087,
				"y": -3.9352026457,
				"z": -3.0683145595,
				"element": "C" 
			},
			{
				"x": 1.3352681222,
				"y": -0.8802725262,
				"z": -3.8211613741,
				"element": "C" 
			},
			{
				"x": 1.523195072,
				"y": -0.6148113871,
				"z": -4.9404903136,
				"element": "N" 
			},
			{
				"x": -0.9548231946,
				"y": 3.1746495684,
				"z": 6.3291909559,
				"element": "H" 
			},
			{
				"x": -1.5175115051,
				"y": 4.8052040904,
				"z": 5.8553926824,
				"element": "H" 
			},
			{
				"x": 0.1486083717,
				"y": 4.5713915703,
				"z": 6.4487277241,
				"element": "H" 
			},
			{
				"x": 0.658372615,
				"y": 3.5675135217,
				"z": 2.1920519163,
				"element": "H" 
			},
			{
				"x": -0.6190680421,
				"y": 2.5533492278,
				"z": 0.3277341993,
				"element": "H" 
			},
			{
				"x": -4.0302985728,
				"y": 2.1512975642,
				"z": 2.9057713315,
				"element": "H" 
			},
			{
				"x": -2.7361976568,
				"y": 3.0936736385,
				"z": 4.7944094176,
				"element": "H" 
			},
			{
				"x": -1.2300489762,
				"y": -1.8981364895,
				"z": 1.8069927631,
				"element": "H" 
			},
			{
				"x": -1.0181363699,
				"y": -0.2192154872,
				"z": 2.3374275233,
				"element": "H" 
			},
			{
				"x": -2.5887949593,
				"y": -0.7488167254,
				"z": 1.7307301684,
				"element": "H" 
			},
			{
				"x": 3.1760030988,
				"y": -2.3095737685,
				"z": -3.6877484504,
				"element": "H" 
			},
			{
				"x": 3.2291097021,
				"y": -3.5841943625,
				"z": -0.2257403737,
				"element": "H" 
			},
			{
				"x": 4.9778046453,
				"y": -5.1820626327,
				"z": 0.6038220308,
				"element": "H" 
			},
			{
				"x": 6.8363781344,
				"y": -5.1783151634,
				"z": -3.256529352,
				"element": "H" 
			},
			{
				"x": 5.1064230317,
				"y": -3.5890375931,
				"z": -4.09808954,
				"element": "H" 
			}
		],
		 "valence_orbital": [ 
			{
				"type": "occ",
				"energy": -0.27026,
				"method": "rhf"
			},
			{
				"type": "occ",
				"energy": -0.25535,
				"method": "rhf"
			},
			{
				"type": "occ",
				"energy": -0.24417,
				"method": "rhf"
			},
			{
				"type": "occ",
				"energy": -0.2243,
				"method": "rhf"
			},
			{
				"type": "occ",
				"energy": -0.19707,
				"method": "rhf"
			},
			{
				"type": "unocc",
				"energy": -0.09299,
				"method": "rhf"
			},
			{
				"type": "unocc",
				"energy": -0.06981,
				"method": "rhf"
			},
			{
				"type": "unocc",
				"energy": -0.02437,
				"method": "rhf"
			},
			{
				"type": "unocc",
				"energy": -0.0193,
				"method": "rhf"
			},
			{
				"type": "unocc",
				"energy": -0.01242,
				"method": "rhf"
			}
		],
		"cosmo_sigma_profile": { 
			"-0.025": 0.0,
			"-0.024": 0.0,
			"-0.023": 0.0,
			"-0.022": 0.0,
			"-0.021": 0.0,
			"-0.02": 0.0,
			"-0.019": 0.0,
			"-0.018": 0.0,
			"-0.017": 0.0,
			"-0.016": 0.0504130564157,
			"-0.015": 1.23658480168,
			"-0.014": 1.3793531143,
			"-0.013": 1.28558563101,
			"-0.012": 0.843186885532,
			"-0.011": 1.33128167101,
			"-0.01": 1.99685110354,
			"-0.009": 2.05176385923,
			"-0.008": 4.20298204858,
			"-0.007": 12.2235734918,
			"-0.006": 22.7178401791,
			"-0.005": 29.4365535193,
			"-0.004": 29.2584086889,
			"-0.003": 30.0500144109,
			"-0.002": 28.1022092874,
			"-0.001": 34.6745830731,
			"0.0": 37.8640129316,
			"0.001": 35.9245591277,
			"0.002": 38.4217342531,
			"0.003": 30.5336728638,
			"0.004": 21.9314445314,
			"0.005": 10.1842821975,
			"0.006": 8.55038536998,
			"0.007": 6.72217798234,
			"0.008": 6.84208247549,
			"0.009": 6.8607264652,
			"0.01": 6.66251190015,
			"0.011": 5.47619171287,
			"0.012": 4.96950473918,
			"0.013": 2.81710574385,
			"0.014": 1.84417075875,
			"0.015": 0.407017440064,
			"0.016": 0.0,
			"0.017": 0.0,
			"0.018": 0.0,
			"0.019": 0.0,
			"0.02": 0.0,
			"0.021": 0.0,
			"0.022": 0.0,
			"0.023": 0.0,
			"0.024": 0.0,
			"0.025": 0.0
		}
	}
}
