{
	 "smiles": "CC(C)(C)NC[C@H](O)COC1=CC=CC2=C1CCCC2=O", 
	 "Tm": 483.15, 
	 "num_atms": 46, 
	 "gaussian": { 
		 "optdone": 1, 
		 "sigma_profile": "yes", 
		 "theory": "DFT", 
		 "functional": "B3LYP", 
		 "basiset": "6-31G**", 
		 "properties": { 
			 "R2extent": 11006.4861, 
			 "electric_dipole_moment_norm": 3.90960623337, 
			 "electric_quadrupole_moment_norm": 20.8673895387, 
			 "total_energy": -943.304029042, 
			 "HOMO_LUMO_gap": 0.15959, 
			 "cosmo_polarized_energy": -14.4, 
			 "cosmo_cavitation_energy": 45.66, 
			 "cosmo_dispersion_energy": -32.14, 
			 "cosmo_repulsion_energy": 2.46, 
			 "cosmo_total_nonelectrostatic_energy": 15.98, 
			 "SMD_solvation_energy": 6.15 
		},
		"coords": [
			{
				"x": 3.6228088964,
				"y": -0.3929649301,
				"z": 5.0444094963,
				"element": "C" 
			},
			{
				"x": 3.7352837994,
				"y": -0.2964307211,
				"z": 3.5129494945,
				"element": "C" 
			},
			{
				"x": 3.5276123323,
				"y": 1.1755763762,
				"z": 3.0839289904,
				"element": "C" 
			},
			{
				"x": 5.1391072669,
				"y": -0.7635583184,
				"z": 3.0841354821,
				"element": "C" 
			},
			{
				"x": 2.7321549831,
				"y": -1.2385401825,
				"z": 2.9761203889,
				"element": "N" 
			},
			{
				"x": 2.4711058609,
				"y": -1.3025271273,
				"z": 1.54425758,
				"element": "C" 
			},
			{
				"x": 1.3065531423,
				"y": -0.4283032921,
				"z": 1.0510551996,
				"element": "C" 
			},
			{
				"x": 0.1650907823,
				"y": -0.8011027194,
				"z": 1.8246259281,
				"element": "O" 
			},
			{
				"x": 1.0417451948,
				"y": -0.6314708047,
				"z": -0.4390806523,
				"element": "C" 
			},
			{
				"x": -0.0721667275,
				"y": 0.1712105466,
				"z": -0.8615355215,
				"element": "O" 
			},
			{
				"x": -1.2335187465,
				"y": -0.4392344531,
				"z": -1.2838072838,
				"element": "C" 
			},
			{
				"x": -1.7382315294,
				"y": -1.600471996,
				"z": -0.6909980716,
				"element": "C" 
			},
			{
				"x": -2.9406745266,
				"y": -2.1498118053,
				"z": -1.1479793462,
				"element": "C" 
			},
			{
				"x": -3.64228588,
				"y": -1.5365822794,
				"z": -2.1759279271,
				"element": "C" 
			},
			{
				"x": -3.1450996563,
				"y": -0.3603612994,
				"z": -2.7590256622,
				"element": "C" 
			},
			{
				"x": -1.9258391902,
				"y": 0.2005368173,
				"z": -2.3304408213,
				"element": "C" 
			},
			{
				"x": -1.3659811139,
				"y": 1.4544935626,
				"z": -2.9654623832,
				"element": "C" 
			},
			{
				"x": -1.8948239995,
				"y": 1.6653397299,
				"z": -4.3885221118,
				"element": "C" 
			},
			{
				"x": -3.4251501625,
				"y": 1.593654744,
				"z": -4.4126433424,
				"element": "C" 
			},
			{
				"x": -3.9494012885,
				"y": 0.2823806746,
				"z": -3.8457261922,
				"element": "C" 
			},
			{
				"x": -4.9941400686,
				"y": -0.210316797,
				"z": -4.2449281449,
				"element": "O" 
			},
			{
				"x": 2.6373302641,
				"y": -0.0543295111,
				"z": 5.3866259637,
				"element": "H" 
			},
			{
				"x": 3.7592292461,
				"y": -1.4278162422,
				"z": 5.3715249571,
				"element": "H" 
			},
			{
				"x": 4.3770245991,
				"y": 0.231726307,
				"z": 5.5329118649,
				"element": "H" 
			},
			{
				"x": 2.5332216063,
				"y": 1.5313946088,
				"z": 3.3757207779,
				"element": "H" 
			},
			{
				"x": 3.6311710423,
				"y": 1.2988233778,
				"z": 2.000500426,
				"element": "H" 
			},
			{
				"x": 4.2694568384,
				"y": 1.8295247073,
				"z": 3.5562940994,
				"element": "H" 
			},
			{
				"x": 5.9108882117,
				"y": -0.1348955389,
				"z": 3.5405432751,
				"element": "H" 
			},
			{
				"x": 5.3025262258,
				"y": -1.8002427256,
				"z": 3.3917194299,
				"element": "H" 
			},
			{
				"x": 5.2754978429,
				"y": -0.7065640173,
				"z": 1.9987915696,
				"element": "H" 
			},
			{
				"x": 1.845667949,
				"y": -1.133947743,
				"z": 3.4615839043,
				"element": "H" 
			},
			{
				"x": 3.3764616845,
				"y": -1.043270367,
				"z": 0.9860336786,
				"element": "H" 
			},
			{
				"x": 2.2277916758,
				"y": -2.3422258631,
				"z": 1.278591298,
				"element": "H" 
			},
			{
				"x": 1.5358581736,
				"y": 0.6335428535,
				"z": 1.2173903376,
				"element": "H" 
			},
			{
				"x": -0.5452802907,
				"y": -0.1829848103,
				"z": 1.6062092107,
				"element": "H" 
			},
			{
				"x": 1.9098734017,
				"y": -0.3011205848,
				"z": -1.0230604174,
				"element": "H" 
			},
			{
				"x": 0.8575115164,
				"y": -1.6883264292,
				"z": -0.6589357714,
				"element": "H" 
			},
			{
				"x": -1.2098429762,
				"y": -2.0497187637,
				"z": 0.1428720946,
				"element": "H" 
			},
			{
				"x": -3.3263094324,
				"y": -3.0509160174,
				"z": -0.6802316455,
				"element": "H" 
			},
			{
				"x": -4.5820598057,
				"y": -1.9323138948,
				"z": -2.5448579832,
				"element": "H" 
			},
			{
				"x": -0.2733543008,
				"y": 1.4086252296,
				"z": -2.9538823345,
				"element": "H" 
			},
			{
				"x": -1.6309853994,
				"y": 2.3241397017,
				"z": -2.3448281358,
				"element": "H" 
			},
			{
				"x": -1.5522441366,
				"y": 2.6294606312,
				"z": -4.7794740978,
				"element": "H" 
			},
			{
				"x": -1.483063572,
				"y": 0.8914288244,
				"z": -5.0490416655,
				"element": "H" 
			},
			{
				"x": -3.8409597899,
				"y": 2.402873828,
				"z": -3.7927144901,
				"element": "H" 
			},
			{
				"x": -3.841959943,
				"y": 1.7168167136,
				"z": -5.4159914457,
				"element": "H" 
			}
		],
		 "valence_orbital": [ 
			{
				"type": "occ",
				"energy": -0.28162,
				"method": "rhf"
			},
			{
				"type": "occ",
				"energy": -0.2528,
				"method": "rhf"
			},
			{
				"type": "occ",
				"energy": -0.23856,
				"method": "rhf"
			},
			{
				"type": "occ",
				"energy": -0.22966,
				"method": "rhf"
			},
			{
				"type": "occ",
				"energy": -0.21116,
				"method": "rhf"
			},
			{
				"type": "unocc",
				"energy": -0.05157,
				"method": "rhf"
			},
			{
				"type": "unocc",
				"energy": -0.00192,
				"method": "rhf"
			},
			{
				"type": "unocc",
				"energy": 0.04346,
				"method": "rhf"
			},
			{
				"type": "unocc",
				"energy": 0.0645,
				"method": "rhf"
			},
			{
				"type": "unocc",
				"energy": 0.08162,
				"method": "rhf"
			}
		],
		"cosmo_sigma_profile": { 
			"-0.025": 0.0,
			"-0.024": 0.0,
			"-0.023": 0.0,
			"-0.022": 0.0,
			"-0.021": 0.0,
			"-0.02": 0.0,
			"-0.019": 0.0,
			"-0.018": 0.0,
			"-0.017": 0.0,
			"-0.016": 0.0,
			"-0.015": 0.0878488210981,
			"-0.014": 0.643081263891,
			"-0.013": 0.651944716867,
			"-0.012": 0.520534910569,
			"-0.011": 0.786159110014,
			"-0.01": 0.716786051115,
			"-0.009": 0.42375249339,
			"-0.008": 0.702842531897,
			"-0.007": 1.27024968751,
			"-0.006": 8.24941935228,
			"-0.005": 20.3413739974,
			"-0.004": 31.9787009544,
			"-0.003": 38.2514041822,
			"-0.002": 47.4208099387,
			"-0.001": 38.7386687891,
			"0.0": 31.7798352549,
			"0.001": 32.4081473992,
			"0.002": 25.5139017229,
			"0.003": 15.9359478701,
			"0.004": 13.7056575966,
			"0.005": 7.89319236665,
			"0.006": 5.60273035644,
			"0.007": 5.07845848997,
			"0.008": 3.05689866611,
			"0.009": 4.66205794012,
			"0.01": 4.1864442889,
			"0.011": 3.65677265897,
			"0.012": 5.21349553321,
			"0.013": 3.84514878145,
			"0.014": 1.02391768728,
			"0.015": 0.324424316277,
			"0.016": 0.362048454149,
			"0.017": 0.29203900338,
			"0.018": 0.092954664869,
			"0.019": 0.0,
			"0.02": 0.0,
			"0.021": 0.0,
			"0.022": 0.0,
			"0.023": 0.0,
			"0.024": 0.0,
			"0.025": 0.0
		}
	}
}
