{
	 "smiles": "CN1C2=C(C=C(C)C(C)=C2)N=C2C(=O)NC(=O)N=C12", 
	 "Tm": 593.15, 
	 "num_atms": 31, 
	 "gaussian": { 
		 "optdone": 1, 
		 "sigma_profile": "yes", 
		 "theory": "DFT", 
		 "functional": "B3LYP", 
		 "basiset": "6-31G**", 
		 "properties": { 
			 "R2extent": 7400.3423, 
			 "electric_dipole_moment_norm": 9.06151485459, 
			 "electric_quadrupole_moment_norm": 20.2035259574, 
			 "total_energy": -872.115953594, 
			 "HOMO_LUMO_gap": 0.12561, 
			 "cosmo_polarized_energy": -24.53, 
			 "cosmo_cavitation_energy": 34.88, 
			 "cosmo_dispersion_energy": -25.75, 
			 "cosmo_repulsion_energy": 1.93, 
			 "cosmo_total_nonelectrostatic_energy": 11.07, 
			 "SMD_solvation_energy": 5.02 
		},
		"coords": [
			{
				"x": 1.7766254351,
				"y": 2.2695034958,
				"z": -1.018859673,
				"element": "C" 
			},
			{
				"x": 0.5380416001,
				"y": 1.5674885887,
				"z": -1.3744145856,
				"element": "N" 
			},
			{
				"x": 0.5194332795,
				"y": 0.182018949,
				"z": -1.4447848623,
				"element": "C" 
			},
			{
				"x": -0.6964998935,
				"y": -0.4623114406,
				"z": -1.7917972181,
				"element": "C" 
			},
			{
				"x": -0.7346362024,
				"y": -1.8689872118,
				"z": -1.8683864973,
				"element": "C" 
			},
			{
				"x": 0.3808715232,
				"y": -2.6487677835,
				"z": -1.6149820108,
				"element": "C" 
			},
			{
				"x": 0.3052728695,
				"y": -4.1530928549,
				"z": -1.706086485,
				"element": "C" 
			},
			{
				"x": 1.5982463887,
				"y": -1.9964694363,
				"z": -1.2670826976,
				"element": "C" 
			},
			{
				"x": 2.8384711146,
				"y": -2.8055979412,
				"z": -0.982447154,
				"element": "C" 
			},
			{
				"x": 1.653207027,
				"y": -0.606896045,
				"z": -1.1869385469,
				"element": "C" 
			},
			{
				"x": -1.8407056514,
				"y": 0.2427896951,
				"z": -2.0562494393,
				"element": "N" 
			},
			{
				"x": -1.7954060541,
				"y": 1.5390448704,
				"z": -1.9831923488,
				"element": "C" 
			},
			{
				"x": -3.0451149483,
				"y": 2.3166646194,
				"z": -2.2717446892,
				"element": "C" 
			},
			{
				"x": -4.1121428518,
				"y": 1.8147524878,
				"z": -2.5729082133,
				"element": "O" 
			},
			{
				"x": -2.8568962164,
				"y": 3.6805891114,
				"z": -2.1588147524,
				"element": "N" 
			},
			{
				"x": -1.6689197572,
				"y": 4.3704328465,
				"z": -1.8168683037,
				"element": "C" 
			},
			{
				"x": -1.6865201047,
				"y": 5.5863019384,
				"z": -1.7642582295,
				"element": "O" 
			},
			{
				"x": -0.5391333988,
				"y": 3.612995835,
				"z": -1.5582724681,
				"element": "N" 
			},
			{
				"x": -0.6016733205,
				"y": 2.3112568052,
				"z": -1.6359921521,
				"element": "C" 
			},
			{
				"x": 2.5571454628,
				"y": 2.0409280646,
				"z": -1.749807684,
				"element": "H" 
			},
			{
				"x": 1.5617592348,
				"y": 3.3351800678,
				"z": -1.0247164391,
				"element": "H" 
			},
			{
				"x": 2.1076853564,
				"y": 1.9597876522,
				"z": -0.0237560399,
				"element": "H" 
			},
			{
				"x": -1.6859774235,
				"y": -2.3173443184,
				"z": -2.1373213743,
				"element": "H" 
			},
			{
				"x": 0.5596708127,
				"y": -4.6301334054,
				"z": -0.7521336448,
				"element": "H" 
			},
			{
				"x": 1.0020563822,
				"y": -4.5492985486,
				"z": -2.4543135705,
				"element": "H" 
			},
			{
				"x": -0.7006832293,
				"y": -4.4767222963,
				"z": -1.9829231125,
				"element": "H" 
			},
			{
				"x": 3.1221736228,
				"y": -3.4172719082,
				"z": -1.8469569299,
				"element": "H" 
			},
			{
				"x": 3.6861621798,
				"y": -2.1639323018,
				"z": -0.7312688334,
				"element": "H" 
			},
			{
				"x": 2.6795103716,
				"y": -3.4978471049,
				"z": -0.1472608609,
				"element": "H" 
			},
			{
				"x": 2.592742804,
				"y": -0.1387257706,
				"z": -0.9200911297,
				"element": "H" 
			},
			{
				"x": -3.6630664128,
				"y": 4.26706334,
				"z": -2.3409700539,
				"element": "H" 
			}
		],
		 "valence_orbital": [ 
			{
				"type": "occ",
				"energy": -0.27251,
				"method": "rhf"
			},
			{
				"type": "occ",
				"energy": -0.2664,
				"method": "rhf"
			},
			{
				"type": "occ",
				"energy": -0.26611,
				"method": "rhf"
			},
			{
				"type": "occ",
				"energy": -0.25181,
				"method": "rhf"
			},
			{
				"type": "occ",
				"energy": -0.23041,
				"method": "rhf"
			},
			{
				"type": "unocc",
				"energy": -0.1048,
				"method": "rhf"
			},
			{
				"type": "unocc",
				"energy": -0.03912,
				"method": "rhf"
			},
			{
				"type": "unocc",
				"energy": -0.01498,
				"method": "rhf"
			},
			{
				"type": "unocc",
				"energy": 0.01465,
				"method": "rhf"
			},
			{
				"type": "unocc",
				"energy": 0.04198,
				"method": "rhf"
			}
		],
		"cosmo_sigma_profile": { 
			"-0.025": 0.0,
			"-0.024": 0.0,
			"-0.023": 0.0,
			"-0.022": 0.0,
			"-0.021": 0.0,
			"-0.02": 0.0,
			"-0.019": 0.0,
			"-0.018": 0.0,
			"-0.017": 0.0,
			"-0.016": 0.156151071708,
			"-0.015": 0.820711256239,
			"-0.014": 0.836959930915,
			"-0.013": 0.860635830491,
			"-0.012": 0.704286357219,
			"-0.011": 0.629076828475,
			"-0.01": 0.734924208463,
			"-0.009": 0.949607169658,
			"-0.008": 3.5043930942,
			"-0.007": 13.6777180754,
			"-0.006": 16.2832362939,
			"-0.005": 25.9308210699,
			"-0.004": 25.938338207,
			"-0.003": 25.2882637172,
			"-0.002": 21.2171229293,
			"-0.001": 27.4561789215,
			"0.0": 20.2794661354,
			"0.001": 15.7504207915,
			"0.002": 12.3324896839,
			"0.003": 5.71907951301,
			"0.004": 4.03128038107,
			"0.005": 2.67842528002,
			"0.006": 4.09446228207,
			"0.007": 4.23097151799,
			"0.008": 3.26642401881,
			"0.009": 3.29552292642,
			"0.01": 4.22744165478,
			"0.011": 6.43199575107,
			"0.012": 8.73785981688,
			"0.013": 9.93262699995,
			"0.014": 4.59649511719,
			"0.015": 3.02741310749,
			"0.016": 0.861970184335,
			"0.017": 0.0240682956346,
			"0.018": 0.0,
			"0.019": 0.0,
			"0.02": 0.0,
			"0.021": 0.0,
			"0.022": 0.0,
			"0.023": 0.0,
			"0.024": 0.0,
			"0.025": 0.0
		}
	}
}
