{
	 "smiles": "CN1C=CN=C1SCC1=CC(=CC=C1)C(O)=O", 
	 "Tm": 431.15, 
	 "num_atms": 29, 
	 "gaussian": { 
		 "optdone": 1, 
		 "sigma_profile": "yes", 
		 "theory": "DFT", 
		 "functional": "B3LYP", 
		 "basiset": "6-31G**", 
		 "properties": { 
			 "R2extent": 5782.8367, 
			 "electric_dipole_moment_norm": 3.1227587723, 
			 "electric_quadrupole_moment_norm": 17.6049745217, 
			 "total_energy": -1122.66065853, 
			 "HOMO_LUMO_gap": 0.15941, 
			 "cosmo_polarized_energy": -15.2, 
			 "cosmo_cavitation_energy": 35.14, 
			 "cosmo_dispersion_energy": -25.22, 
			 "cosmo_repulsion_energy": 1.92, 
			 "cosmo_total_nonelectrostatic_energy": 11.84, 
			 "SMD_solvation_energy": 6.55 
		},
		"coords": [
			{
				"x": -0.662544849,
				"y": -3.201770847,
				"z": 1.8092000892,
				"element": "C" 
			},
			{
				"x": -1.5006331739,
				"y": -2.5920568837,
				"z": 0.7894901899,
				"element": "N" 
			},
			{
				"x": -2.8844319266,
				"y": -2.5146100282,
				"z": 0.8026138705,
				"element": "C" 
			},
			{
				"x": -3.2338414209,
				"y": -1.8818455575,
				"z": -0.3602422294,
				"element": "C" 
			},
			{
				"x": -2.1138815166,
				"y": -1.5807733618,
				"z": -1.1043196265,
				"element": "N" 
			},
			{
				"x": -1.0954666786,
				"y": -2.0206048316,
				"z": -0.3896940573,
				"element": "C" 
			},
			{
				"x": 0.6145921612,
				"y": -1.9628114597,
				"z": -0.8492197831,
				"element": "S" 
			},
			{
				"x": 0.5619456947,
				"y": -0.5568590753,
				"z": -2.0593231529,
				"element": "C" 
			},
			{
				"x": 0.5682462376,
				"y": 0.8132084441,
				"z": -1.433782412,
				"element": "C" 
			},
			{
				"x": 1.7756368867,
				"y": 1.4479037022,
				"z": -1.1233142408,
				"element": "C" 
			},
			{
				"x": 1.7817347319,
				"y": 2.7229516593,
				"z": -0.5452187188,
				"element": "C" 
			},
			{
				"x": 0.5707052016,
				"y": 3.3740957808,
				"z": -0.2722129245,
				"element": "C" 
			},
			{
				"x": -0.6330943659,
				"y": 2.7476413041,
				"z": -0.5805916471,
				"element": "C" 
			},
			{
				"x": -0.637220714,
				"y": 1.4762738302,
				"z": -1.1590784398,
				"element": "C" 
			},
			{
				"x": 3.0443144434,
				"y": 3.4298587357,
				"z": -0.2062628765,
				"element": "C" 
			},
			{
				"x": 4.1573714296,
				"y": 2.7183798659,
				"z": -0.5217083462,
				"element": "O" 
			},
			{
				"x": 3.1109868786,
				"y": 4.5321325049,
				"z": 0.3021238116,
				"element": "O" 
			},
			{
				"x": 0.2824721642,
				"y": -2.6580860199,
				"z": 1.8762179113,
				"element": "H" 
			},
			{
				"x": -1.1719860026,
				"y": -3.1421174362,
				"z": 2.7729371152,
				"element": "H" 
			},
			{
				"x": -0.452201571,
				"y": -4.2523445147,
				"z": 1.5817549241,
				"element": "H" 
			},
			{
				"x": -3.4632237886,
				"y": -2.9075723597,
				"z": 1.6244849887,
				"element": "H" 
			},
			{
				"x": -4.2241931932,
				"y": -1.622001316,
				"z": -0.7073023086,
				"element": "H" 
			},
			{
				"x": 1.4509854828,
				"y": -0.7189230028,
				"z": -2.6738450245,
				"element": "H" 
			},
			{
				"x": -0.3262954549,
				"y": -0.7224839065,
				"z": -2.6704000723,
				"element": "H" 
			},
			{
				"x": 2.7194785808,
				"y": 0.9539751597,
				"z": -1.3302042186,
				"element": "H" 
			},
			{
				"x": 0.5998596111,
				"y": 4.3623114588,
				"z": 0.1738801221,
				"element": "H" 
			},
			{
				"x": -1.5740223961,
				"y": 3.2493721824,
				"z": -0.3748098881,
				"element": "H" 
			},
			{
				"x": -1.5732834776,
				"y": 0.9792793788,
				"z": -1.3940701919,
				"element": "H" 
			},
			{
				"x": 4.9067910253,
				"y": 3.2760765938,
				"z": -0.2563028639,
				"element": "H" 
			}
		],
		 "valence_orbital": [ 
			{
				"type": "occ",
				"energy": -0.27316,
				"method": "rhf"
			},
			{
				"type": "occ",
				"energy": -0.26718,
				"method": "rhf"
			},
			{
				"type": "occ",
				"energy": -0.25853,
				"method": "rhf"
			},
			{
				"type": "occ",
				"energy": -0.25049,
				"method": "rhf"
			},
			{
				"type": "occ",
				"energy": -0.20489,
				"method": "rhf"
			},
			{
				"type": "unocc",
				"energy": -0.04548,
				"method": "rhf"
			},
			{
				"type": "unocc",
				"energy": -0.01934,
				"method": "rhf"
			},
			{
				"type": "unocc",
				"energy": 0.01964,
				"method": "rhf"
			},
			{
				"type": "unocc",
				"energy": 0.03553,
				"method": "rhf"
			},
			{
				"type": "unocc",
				"energy": 0.05629,
				"method": "rhf"
			}
		],
		"cosmo_sigma_profile": { 
			"-0.025": 0.0,
			"-0.024": 0.0,
			"-0.023": 0.0,
			"-0.022": 0.0,
			"-0.021": 0.0,
			"-0.02": 0.0,
			"-0.019": 0.0359842104373,
			"-0.018": 0.6197201145,
			"-0.017": 0.858572277553,
			"-0.016": 0.960725519418,
			"-0.015": 0.655957366943,
			"-0.014": 1.24953843889,
			"-0.013": 0.578435623334,
			"-0.012": 0.34327748077,
			"-0.011": 0.558461318748,
			"-0.01": 0.935528936221,
			"-0.009": 1.15055403267,
			"-0.008": 4.71190500082,
			"-0.007": 10.4170893933,
			"-0.006": 16.0382899891,
			"-0.005": 17.3715072678,
			"-0.004": 21.8087179334,
			"-0.003": 23.1483240432,
			"-0.002": 17.9096222673,
			"-0.001": 15.1977200119,
			"0.0": 15.8499853065,
			"0.001": 17.3496674917,
			"0.002": 19.3138455004,
			"0.003": 24.3872029432,
			"0.004": 20.3278511001,
			"0.005": 13.181805597,
			"0.006": 9.27671223032,
			"0.007": 6.38422195453,
			"0.008": 4.59158728132,
			"0.009": 3.2892041093,
			"0.01": 2.95446629283,
			"0.011": 4.26911725178,
			"0.012": 4.83271480208,
			"0.013": 1.12386873583,
			"0.014": 0.845173537326,
			"0.015": 0.166794386547,
			"0.016": 0.0,
			"0.017": 0.0,
			"0.018": 0.0,
			"0.019": 0.0,
			"0.02": 0.0,
			"0.021": 0.0,
			"0.022": 0.0,
			"0.023": 0.0,
			"0.024": 0.0,
			"0.025": 0.0
		}
	}
}
