{
	 "smiles": "BrC1=C(N=C=O)C(=CC=C1)C#N", 
	 "Tm": 338.15, 
	 "num_atms": 15, 
	 "gaussian": { 
		 "optdone": 1, 
		 "sigma_profile": "yes", 
		 "theory": "DFT", 
		 "functional": "B3LYP", 
		 "basiset": "6-31G**", 
		 "properties": { 
			 "R2extent": 4202.5176, 
			 "electric_dipole_moment_norm": 5.18522968247, 
			 "electric_quadrupole_moment_norm": 9.44994688821, 
			 "total_energy": -3062.76637398, 
			 "HOMO_LUMO_gap": 0.1892, 
			 "cosmo_polarized_energy": -9.81, 
			 "cosmo_cavitation_energy": 24.46, 
			 "cosmo_dispersion_energy": -17.41, 
			 "cosmo_repulsion_energy": 1.39, 
			 "cosmo_total_nonelectrostatic_energy": 8.44, 
			 "SMD_solvation_energy": 6.68 
		},
		"coords": [
			{
				"x": -2.7676767481,
				"y": 1.2881308748,
				"z": 2.1508165784,
				"element": "Br" 
			},
			{
				"x": -1.3634093073,
				"y": 0.3144928447,
				"z": 1.3179574541,
				"element": "C" 
			},
			{
				"x": -0.0206148901,
				"y": 0.6391586251,
				"z": 1.5929702878,
				"element": "C" 
			},
			{
				"x": 0.3789850916,
				"y": 1.6420768664,
				"z": 2.4479451259,
				"element": "N" 
			},
			{
				"x": -0.077228763,
				"y": 2.4972816522,
				"z": 3.1802861585,
				"element": "C" 
			},
			{
				"x": -0.3451994069,
				"y": 3.3653372006,
				"z": 3.9222473058,
				"element": "O" 
			},
			{
				"x": 0.9889853899,
				"y": -0.1160124908,
				"z": 0.9463341393,
				"element": "C" 
			},
			{
				"x": 0.6538482951,
				"y": -1.1515717257,
				"z": 0.0633153471,
				"element": "C" 
			},
			{
				"x": -0.6809797606,
				"y": -1.449711107,
				"z": -0.1884037902,
				"element": "C" 
			},
			{
				"x": -1.6880042389,
				"y": -0.7162297135,
				"z": 0.4391551771,
				"element": "C" 
			},
			{
				"x": 2.3672529115,
				"y": 0.1820623026,
				"z": 1.1978345903,
				"element": "C" 
			},
			{
				"x": 3.4964407778,
				"y": 0.3946971894,
				"z": 1.3768089078,
				"element": "N" 
			},
			{
				"x": 1.4496101271,
				"y": -1.7109270157,
				"z": -0.4155581921,
				"element": "H" 
			},
			{
				"x": -0.9433393583,
				"y": -2.2506160143,
				"z": -0.8712152133,
				"element": "H" 
			},
			{
				"x": -2.7316701198,
				"y": -0.9397694888,
				"z": 0.2503061233,
				"element": "H" 
			}
		],
		 "valence_orbital": [ 
			{
				"type": "occ",
				"energy": -0.33351,
				"method": "rhf"
			},
			{
				"type": "occ",
				"energy": -0.3288,
				"method": "rhf"
			},
			{
				"type": "occ",
				"energy": -0.31732,
				"method": "rhf"
			},
			{
				"type": "occ",
				"energy": -0.27538,
				"method": "rhf"
			},
			{
				"type": "occ",
				"energy": -0.26073,
				"method": "rhf"
			},
			{
				"type": "unocc",
				"energy": -0.07153,
				"method": "rhf"
			},
			{
				"type": "unocc",
				"energy": -0.05307,
				"method": "rhf"
			},
			{
				"type": "unocc",
				"energy": -0.0273,
				"method": "rhf"
			},
			{
				"type": "unocc",
				"energy": 0.00172,
				"method": "rhf"
			},
			{
				"type": "unocc",
				"energy": 0.03796,
				"method": "rhf"
			}
		],
		"cosmo_sigma_profile": { 
			"-0.025": 0.0,
			"-0.024": 0.0,
			"-0.023": 0.0,
			"-0.022": 0.0,
			"-0.021": 0.0,
			"-0.02": 0.0,
			"-0.019": 0.0,
			"-0.018": 0.0,
			"-0.017": 0.0,
			"-0.016": 0.0,
			"-0.015": 0.0,
			"-0.014": 0.0,
			"-0.013": 0.0,
			"-0.012": 0.0,
			"-0.011": 0.0,
			"-0.01": 0.0,
			"-0.009": 2.50123857424,
			"-0.008": 6.53562677436,
			"-0.007": 7.80592313812,
			"-0.006": 7.49492709392,
			"-0.005": 8.74452294384,
			"-0.004": 12.4730706903,
			"-0.003": 17.5672878576,
			"-0.002": 17.7232746778,
			"-0.001": 20.5969007206,
			"0.0": 18.7500457488,
			"0.001": 18.9936913895,
			"0.002": 11.5495679575,
			"0.003": 9.86704624024,
			"0.004": 5.52366734135,
			"0.005": 6.40797278846,
			"0.006": 8.77044065565,
			"0.007": 6.72942107128,
			"0.008": 3.57504459937,
			"0.009": 3.22843640198,
			"0.01": 2.84453765917,
			"0.011": 2.63097322832,
			"0.012": 2.36602082332,
			"0.013": 0.516070621424,
			"0.014": 0.0,
			"0.015": 0.0,
			"0.016": 0.0,
			"0.017": 0.0,
			"0.018": 0.0,
			"0.019": 0.0,
			"0.02": 0.0,
			"0.021": 0.0,
			"0.022": 0.0,
			"0.023": 0.0,
			"0.024": 0.0,
			"0.025": 0.0
		}
	}
}
