{
	 "smiles": "FC(F)(F)OC1=C(Cl)C=C(C=C1)C#N", 
	 "Tm": 313.15, 
	 "num_atms": 17, 
	 "gaussian": { 
		 "optdone": 1, 
		 "sigma_profile": "yes", 
		 "theory": "DFT", 
		 "functional": "B3LYP", 
		 "basiset": "6-31G**", 
		 "properties": { 
			 "R2extent": 6753.7442, 
			 "electric_dipole_moment_norm": 2.16601355721, 
			 "electric_quadrupole_moment_norm": 18.0225385887, 
			 "total_energy": -1196.32470896, 
			 "HOMO_LUMO_gap": 0.20374, 
			 "cosmo_polarized_energy": -8.54, 
			 "cosmo_cavitation_energy": 26.73, 
			 "cosmo_dispersion_energy": -18.37, 
			 "cosmo_repulsion_energy": 1.39, 
			 "cosmo_total_nonelectrostatic_energy": 9.75, 
			 "SMD_solvation_energy": 7.28 
		},
		"coords": [
			{
				"x": -1.4484779105,
				"y": -0.0210301798,
				"z": -2.7054560883,
				"element": "F" 
			},
			{
				"x": -0.3576711874,
				"y": -0.0659367072,
				"z": -3.4977586424,
				"element": "C" 
			},
			{
				"x": -0.4022222774,
				"y": -1.1806045288,
				"z": -4.2174218875,
				"element": "F" 
			},
			{
				"x": -0.4140412935,
				"y": 0.9963684812,
				"z": -4.3142786612,
				"element": "F" 
			},
			{
				"x": 0.8000242168,
				"y": -0.0940166357,
				"z": -2.7731588893,
				"element": "O" 
			},
			{
				"x": 1.1294438577,
				"y": 1.030001185,
				"z": -2.0279226231,
				"element": "C" 
			},
			{
				"x": 2.2076672064,
				"y": 1.8254881204,
				"z": -2.4391521724,
				"element": "C" 
			},
			{
				"x": 3.0546231533,
				"y": 1.4678585417,
				"z": -3.9171303585,
				"element": "Cl" 
			},
			{
				"x": 2.606286891,
				"y": 2.9082189827,
				"z": -1.6597572564,
				"element": "C" 
			},
			{
				"x": 1.9220494376,
				"y": 3.1982480205,
				"z": -0.4693897719,
				"element": "C" 
			},
			{
				"x": 0.8439286612,
				"y": 2.3969690777,
				"z": -0.0601235399,
				"element": "C" 
			},
			{
				"x": 0.4562178827,
				"y": 1.3130951869,
				"z": -0.8393550121,
				"element": "C" 
			},
			{
				"x": 2.3334209257,
				"y": 4.315482403,
				"z": 0.3305413619,
				"element": "C" 
			},
			{
				"x": 2.6639690134,
				"y": 5.2205773358,
				"z": 0.9814603656,
				"element": "N" 
			},
			{
				"x": 3.4399261828,
				"y": 3.5229070743,
				"z": -1.9774885767,
				"element": "H" 
			},
			{
				"x": 0.3232773803,
				"y": 2.6221353777,
				"z": 0.8635983949,
				"element": "H" 
			},
			{
				"x": -0.3639221401,
				"y": 0.6734382644,
				"z": -0.5372066426,
				"element": "H" 
			}
		],
		 "valence_orbital": [ 
			{
				"type": "occ",
				"energy": -0.34838,
				"method": "rhf"
			},
			{
				"type": "occ",
				"energy": -0.34741,
				"method": "rhf"
			},
			{
				"type": "occ",
				"energy": -0.33742,
				"method": "rhf"
			},
			{
				"type": "occ",
				"energy": -0.29169,
				"method": "rhf"
			},
			{
				"type": "occ",
				"energy": -0.27787,
				"method": "rhf"
			},
			{
				"type": "unocc",
				"energy": -0.07413,
				"method": "rhf"
			},
			{
				"type": "unocc",
				"energy": -0.05146,
				"method": "rhf"
			},
			{
				"type": "unocc",
				"energy": -0.0017,
				"method": "rhf"
			},
			{
				"type": "unocc",
				"energy": 0.02307,
				"method": "rhf"
			},
			{
				"type": "unocc",
				"energy": 0.05422,
				"method": "rhf"
			}
		],
		"cosmo_sigma_profile": { 
			"-0.025": 0.0,
			"-0.024": 0.0,
			"-0.023": 0.0,
			"-0.022": 0.0,
			"-0.021": 0.0,
			"-0.02": 0.0,
			"-0.019": 0.0,
			"-0.018": 0.0,
			"-0.017": 0.0,
			"-0.016": 0.0,
			"-0.015": 0.0,
			"-0.014": 0.0,
			"-0.013": 0.0,
			"-0.012": 0.0,
			"-0.011": 0.0,
			"-0.01": 1.49733591134,
			"-0.009": 5.47347464128,
			"-0.008": 6.86307251864,
			"-0.007": 5.44555993815,
			"-0.006": 5.02708245702,
			"-0.005": 5.78957867914,
			"-0.004": 6.6594743331,
			"-0.003": 13.9548585394,
			"-0.002": 22.4459112052,
			"-0.001": 25.1010347663,
			"0.0": 21.4482816753,
			"0.001": 29.0547356683,
			"0.002": 27.0018227757,
			"0.003": 12.3762147966,
			"0.004": 5.82876342158,
			"0.005": 4.33665527362,
			"0.006": 3.56379698381,
			"0.007": 3.02868057115,
			"0.008": 3.46842191535,
			"0.009": 3.14709812166,
			"0.01": 2.89705333886,
			"0.011": 2.51109153265,
			"0.012": 2.12692330377,
			"0.013": 0.45781660521,
			"0.014": 0.0,
			"0.015": 0.0,
			"0.016": 0.0,
			"0.017": 0.0,
			"0.018": 0.0,
			"0.019": 0.0,
			"0.02": 0.0,
			"0.021": 0.0,
			"0.022": 0.0,
			"0.023": 0.0,
			"0.024": 0.0,
			"0.025": 0.0
		}
	}
}
