{
	 "smiles": "CON(C1CCCCC1)C(=O)C1=C(C)OC(C)=C1", 
	 "Tm": 306.15, 
	 "num_atms": 39, 
	 "gaussian": { 
		 "optdone": 1, 
		 "sigma_profile": "yes", 
		 "theory": "DFT", 
		 "functional": "B3LYP", 
		 "basiset": "6-31G**", 
		 "properties": { 
			 "R2extent": 5370.0441, 
			 "electric_dipole_moment_norm": 2.93546562916, 
			 "electric_quadrupole_moment_norm": 13.9162984436, 
			 "total_energy": -826.513391304, 
			 "HOMO_LUMO_gap": 0.20062, 
			 "cosmo_polarized_energy": -11.08, 
			 "cosmo_cavitation_energy": 39.45, 
			 "cosmo_dispersion_energy": -27.01, 
			 "cosmo_repulsion_energy": 2.13, 
			 "cosmo_total_nonelectrostatic_energy": 14.57, 
			 "SMD_solvation_energy": 7.96 
		},
		"coords": [
			{
				"x": 0.8075524696,
				"y": 2.3575462687,
				"z": 2.9386573584,
				"element": "C" 
			},
			{
				"x": -0.2208570546,
				"y": 2.1859161837,
				"z": 1.9654179954,
				"element": "O" 
			},
			{
				"x": 0.0697798425,
				"y": 1.0827250166,
				"z": 1.1224635125,
				"element": "N" 
			},
			{
				"x": -0.3247412862,
				"y": 1.4400568248,
				"z": -0.2601603892,
				"element": "C" 
			},
			{
				"x": 0.6309749208,
				"y": 2.504136971,
				"z": -0.8306308581,
				"element": "C" 
			},
			{
				"x": 0.0253398442,
				"y": 3.1512506298,
				"z": -2.0842717504,
				"element": "C" 
			},
			{
				"x": -1.2613428773,
				"y": 3.9474835574,
				"z": -1.7501644847,
				"element": "C" 
			},
			{
				"x": -1.9708705028,
				"y": 3.4058849542,
				"z": -0.4886543498,
				"element": "C" 
			},
			{
				"x": -1.8165065171,
				"y": 1.8845565652,
				"z": -0.3625690132,
				"element": "C" 
			},
			{
				"x": -0.3415650145,
				"y": -0.1380138314,
				"z": 1.6960985413,
				"element": "C" 
			},
			{
				"x": -0.8086629498,
				"y": -0.2031280365,
				"z": 2.8238976491,
				"element": "O" 
			},
			{
				"x": -0.0840436097,
				"y": -1.3666063576,
				"z": 0.9033401582,
				"element": "C" 
			},
			{
				"x": 0.9725428462,
				"y": -1.7019951331,
				"z": 0.0920319462,
				"element": "C" 
			},
			{
				"x": 2.2087233208,
				"y": -1.0018671488,
				"z": -0.352788243,
				"element": "C" 
			},
			{
				"x": 0.8348930288,
				"y": -2.9973192238,
				"z": -0.3169403548,
				"element": "O" 
			},
			{
				"x": -0.3185095821,
				"y": -3.5029912175,
				"z": 0.2406605828,
				"element": "C" 
			},
			{
				"x": -0.6559721586,
				"y": -4.9129520367,
				"z": -0.0935787927,
				"element": "C" 
			},
			{
				"x": -0.9042188604,
				"y": -2.5471671573,
				"z": 1.0060233109,
				"element": "C" 
			},
			{
				"x": 1.7870399754,
				"y": 2.4859914876,
				"z": 2.4622038789,
				"element": "H" 
			},
			{
				"x": 0.8328441904,
				"y": 1.5144504847,
				"z": 3.6351650158,
				"element": "H" 
			},
			{
				"x": 0.5369739919,
				"y": 3.2680485095,
				"z": 3.4790716521,
				"element": "H" 
			},
			{
				"x": -0.2035821131,
				"y": 0.5160904787,
				"z": -0.828781175,
				"element": "H" 
			},
			{
				"x": 0.8053998267,
				"y": 3.2700288787,
				"z": -0.0674438419,
				"element": "H" 
			},
			{
				"x": 1.6015004931,
				"y": 2.0479553462,
				"z": -1.0535718458,
				"element": "H" 
			},
			{
				"x": -0.2024455207,
				"y": 2.3616569375,
				"z": -2.8131202163,
				"element": "H" 
			},
			{
				"x": 0.7622579152,
				"y": 3.8019875663,
				"z": -2.5672041593,
				"element": "H" 
			},
			{
				"x": -1.0170968742,
				"y": 5.0055786881,
				"z": -1.5991330099,
				"element": "H" 
			},
			{
				"x": -1.9421639227,
				"y": 3.910884459,
				"z": -2.6090051204,
				"element": "H" 
			},
			{
				"x": -1.5503595062,
				"y": 3.8702143912,
				"z": 0.4088154328,
				"element": "H" 
			},
			{
				"x": -3.0328869807,
				"y": 3.675356694,
				"z": -0.5083776968,
				"element": "H" 
			},
			{
				"x": -2.3650463721,
				"y": 1.5152826348,
				"z": 0.5092635568,
				"element": "H" 
			},
			{
				"x": -2.2623747005,
				"y": 1.4016378563,
				"z": -1.2416403781,
				"element": "H" 
			},
			{
				"x": 2.1867928371,
				"y": -0.778495324,
				"z": -1.4268234525,
				"element": "H" 
			},
			{
				"x": 3.090078469,
				"y": -1.6249387095,
				"z": -0.1671753353,
				"element": "H" 
			},
			{
				"x": 2.317188249,
				"y": -0.0625129672,
				"z": 0.191437625,
				"element": "H" 
			},
			{
				"x": -0.8078717227,
				"y": -5.0469075593,
				"z": -1.170998531,
				"element": "H" 
			},
			{
				"x": 0.1415285129,
				"y": -5.5993022722,
				"z": 0.2134724728,
				"element": "H" 
			},
			{
				"x": -1.5749036386,
				"y": -5.2040861377,
				"z": 0.4201179731,
				"element": "H" 
			},
			{
				"x": -1.809188969,
				"y": -2.6378382712,
				"z": 1.588094336,
				"element": "H" 
			}
		],
		 "valence_orbital": [ 
			{
				"type": "occ",
				"energy": -0.28466,
				"method": "rhf"
			},
			{
				"type": "occ",
				"energy": -0.27127,
				"method": "rhf"
			},
			{
				"type": "occ",
				"energy": -0.2508,
				"method": "rhf"
			},
			{
				"type": "occ",
				"energy": -0.23032,
				"method": "rhf"
			},
			{
				"type": "occ",
				"energy": -0.21582,
				"method": "rhf"
			},
			{
				"type": "unocc",
				"energy": -0.0152,
				"method": "rhf"
			},
			{
				"type": "unocc",
				"energy": 0.0276,
				"method": "rhf"
			},
			{
				"type": "unocc",
				"energy": 0.06662,
				"method": "rhf"
			},
			{
				"type": "unocc",
				"energy": 0.08138,
				"method": "rhf"
			},
			{
				"type": "unocc",
				"energy": 0.09988,
				"method": "rhf"
			}
		],
		"cosmo_sigma_profile": { 
			"-0.025": 0.0,
			"-0.024": 0.0,
			"-0.023": 0.0,
			"-0.022": 0.0,
			"-0.021": 0.0,
			"-0.02": 0.0,
			"-0.019": 0.0,
			"-0.018": 0.0,
			"-0.017": 0.0,
			"-0.016": 0.0,
			"-0.015": 0.0,
			"-0.014": 0.0,
			"-0.013": 0.0,
			"-0.012": 0.0,
			"-0.011": 0.0,
			"-0.01": 0.0,
			"-0.009": 0.0,
			"-0.008": 0.0,
			"-0.007": 0.515018933198,
			"-0.006": 4.31737444641,
			"-0.005": 14.9047586359,
			"-0.004": 20.5674027926,
			"-0.003": 36.1825735441,
			"-0.002": 47.3487541643,
			"-0.001": 49.3360456466,
			"0.0": 38.3828332671,
			"0.001": 28.5117774561,
			"0.002": 15.0404815256,
			"0.003": 7.74003812121,
			"0.004": 9.32603193994,
			"0.005": 6.22322856599,
			"0.006": 5.11587157828,
			"0.007": 3.76407069471,
			"0.008": 3.52125803206,
			"0.009": 2.10881825176,
			"0.01": 1.88710344642,
			"0.011": 2.37809669956,
			"0.012": 3.29691744131,
			"0.013": 4.77202736938,
			"0.014": 2.11371714001,
			"0.015": 0.672221463419,
			"0.016": 0.0,
			"0.017": 0.0,
			"0.018": 0.0,
			"0.019": 0.0,
			"0.02": 0.0,
			"0.021": 0.0,
			"0.022": 0.0,
			"0.023": 0.0,
			"0.024": 0.0,
			"0.025": 0.0
		}
	}
}
