{
	 "smiles": "CS(=O)(=O)C1=CC=C(C=C1)C(O)C(CF)NC(=O)C(Cl)Cl", 
	 "Tm": 426.15, 
	 "num_atms": 35, 
	 "gaussian": { 
		 "optdone": 1, 
		 "sigma_profile": "yes", 
		 "theory": "DFT", 
		 "functional": "B3LYP", 
		 "basiset": "6-31G**", 
		 "properties": { 
			 "R2extent": 13791.2446, 
			 "electric_dipole_moment_norm": 6.42537251838, 
			 "electric_quadrupole_moment_norm": 25.2008434908, 
			 "total_energy": -2239.70749604, 
			 "HOMO_LUMO_gap": 0.21099, 
			 "cosmo_polarized_energy": -25.15, 
			 "cosmo_cavitation_energy": 43.89, 
			 "cosmo_dispersion_energy": -30.71, 
			 "cosmo_repulsion_energy": 2.31, 
			 "cosmo_total_nonelectrostatic_energy": 15.49, 
			 "SMD_solvation_energy": 6.7 
		},
		"coords": [
			{
				"x": 1.6708142512,
				"y": -3.8723761269,
				"z": 2.6014677798,
				"element": "C" 
			},
			{
				"x": -0.1077940604,
				"y": -3.9794814218,
				"z": 2.2836096427,
				"element": "S" 
			},
			{
				"x": -0.7872093131,
				"y": -3.9795749709,
				"z": 3.5885489417,
				"element": "O" 
			},
			{
				"x": -0.3146477067,
				"y": -5.0657128601,
				"z": 1.3136232896,
				"element": "O" 
			},
			{
				"x": -0.4851237399,
				"y": -2.422019477,
				"z": 1.463199691,
				"element": "C" 
			},
			{
				"x": -0.3967376752,
				"y": -2.3394595721,
				"z": 0.0725839353,
				"element": "C" 
			},
			{
				"x": -0.6936081803,
				"y": -1.1313725089,
				"z": -0.5571970231,
				"element": "C" 
			},
			{
				"x": -1.0741471869,
				"y": -0.0121885751,
				"z": 0.1923222443,
				"element": "C" 
			},
			{
				"x": -1.180333223,
				"y": -0.1243930347,
				"z": 1.586897202,
				"element": "C" 
			},
			{
				"x": -0.8864484131,
				"y": -1.3257387996,
				"z": 2.2292476317,
				"element": "C" 
			},
			{
				"x": -1.3952293414,
				"y": 1.3077486003,
				"z": -0.5014589272,
				"element": "C" 
			},
			{
				"x": -1.8683886637,
				"y": 1.0886818553,
				"z": -1.815805459,
				"element": "O" 
			},
			{
				"x": -0.180476436,
				"y": 2.2823490364,
				"z": -0.5122937016,
				"element": "C" 
			},
			{
				"x": 0.4137530165,
				"y": 2.568656649,
				"z": 0.8578714154,
				"element": "C" 
			},
			{
				"x": -0.5691423057,
				"y": 3.1711766616,
				"z": 1.6530096636,
				"element": "F" 
			},
			{
				"x": -0.5454335698,
				"y": 3.5687811886,
				"z": -1.1097420987,
				"element": "N" 
			},
			{
				"x": -0.5240251952,
				"y": 3.7815550088,
				"z": -2.4396077421,
				"element": "C" 
			},
			{
				"x": -0.2628118998,
				"y": 2.9218846046,
				"z": -3.2786532091,
				"element": "O" 
			},
			{
				"x": -0.7843104903,
				"y": 5.218508514,
				"z": -2.922710404,
				"element": "C" 
			},
			{
				"x": 0.7338012577,
				"y": 6.1775516054,
				"z": -2.7914579403,
				"element": "Cl" 
			},
			{
				"x": -2.1417527385,
				"y": 6.0177201361,
				"z": -2.0495012057,
				"element": "Cl" 
			},
			{
				"x": 1.8696104072,
				"y": -3.0196790445,
				"z": 3.2521100735,
				"element": "H" 
			},
			{
				"x": 1.9471810298,
				"y": -4.8034296557,
				"z": 3.1007060034,
				"element": "H" 
			},
			{
				"x": 2.2011577017,
				"y": -3.7788285656,
				"z": 1.6528279844,
				"element": "H" 
			},
			{
				"x": -0.1286758619,
				"y": -3.2192407564,
				"z": -0.5032350122,
				"element": "H" 
			},
			{
				"x": -0.6718464969,
				"y": -1.0561507707,
				"z": -1.6386690843,
				"element": "H" 
			},
			{
				"x": -1.5019891266,
				"y": 0.7342219165,
				"z": 2.1708710423,
				"element": "H" 
			},
			{
				"x": -0.9932612835,
				"y": -1.4289398406,
				"z": 3.3039718465,
				"element": "H" 
			},
			{
				"x": -2.1946968691,
				"y": 1.8019849657,
				"z": 0.0678221213,
				"element": "H" 
			},
			{
				"x": -1.2395789932,
				"y": 1.4502237819,
				"z": -2.4634677404,
				"element": "H" 
			},
			{
				"x": 0.6046888228,
				"y": 1.8414491998,
				"z": -1.1391579721,
				"element": "H" 
			},
			{
				"x": 1.2529711035,
				"y": 3.266577161,
				"z": 0.7720938777,
				"element": "H" 
			},
			{
				"x": 0.7437011556,
				"y": 1.6512594355,
				"z": 1.3489925185,
				"element": "H" 
			},
			{
				"x": -0.9060608228,
				"y": 4.2840934841,
				"z": -0.4909254655,
				"element": "H" 
			},
			{
				"x": -1.0500491528,
				"y": 5.1769621759,
				"z": -3.9754939193,
				"element": "H" 
			}
		],
		 "valence_orbital": [ 
			{
				"type": "occ",
				"energy": -0.29562,
				"method": "rhf"
			},
			{
				"type": "occ",
				"energy": -0.28916,
				"method": "rhf"
			},
			{
				"type": "occ",
				"energy": -0.28646,
				"method": "rhf"
			},
			{
				"type": "occ",
				"energy": -0.27548,
				"method": "rhf"
			},
			{
				"type": "occ",
				"energy": -0.26658,
				"method": "rhf"
			},
			{
				"type": "unocc",
				"energy": -0.05559,
				"method": "rhf"
			},
			{
				"type": "unocc",
				"energy": -0.04523,
				"method": "rhf"
			},
			{
				"type": "unocc",
				"energy": -0.03408,
				"method": "rhf"
			},
			{
				"type": "unocc",
				"energy": -0.02791,
				"method": "rhf"
			},
			{
				"type": "unocc",
				"energy": 0.04573,
				"method": "rhf"
			}
		],
		"cosmo_sigma_profile": { 
			"-0.025": 0.0,
			"-0.024": 0.0,
			"-0.023": 0.0,
			"-0.022": 0.0,
			"-0.021": 0.0,
			"-0.02": 0.0,
			"-0.019": 0.0,
			"-0.018": 0.0,
			"-0.017": 0.0,
			"-0.016": 0.0,
			"-0.015": 0.0,
			"-0.014": 0.0,
			"-0.013": 0.0,
			"-0.012": 0.606845389505,
			"-0.011": 2.59120637424,
			"-0.01": 3.10185800159,
			"-0.009": 4.45409303806,
			"-0.008": 13.1748554617,
			"-0.007": 20.1167455653,
			"-0.006": 22.6357538608,
			"-0.005": 26.601474845,
			"-0.004": 23.4015977824,
			"-0.003": 21.1199330154,
			"-0.002": 18.3174497673,
			"-0.001": 17.8240940268,
			"0.0": 20.6269151776,
			"0.001": 21.4153170053,
			"0.002": 25.2918537468,
			"0.003": 29.8829139735,
			"0.004": 16.2574258701,
			"0.005": 8.03969534801,
			"0.006": 6.92518771659,
			"0.007": 4.84005950423,
			"0.008": 6.39131395439,
			"0.009": 5.40862857636,
			"0.01": 7.03076121647,
			"0.011": 11.9715351727,
			"0.012": 11.2822548942,
			"0.013": 2.74584141117,
			"0.014": 1.0135525543,
			"0.015": 0.0,
			"0.016": 0.0,
			"0.017": 0.0,
			"0.018": 0.0,
			"0.019": 0.0,
			"0.02": 0.0,
			"0.021": 0.0,
			"0.022": 0.0,
			"0.023": 0.0,
			"0.024": 0.0,
			"0.025": 0.0
		}
	}
}
