{
	 "smiles": "CC1=C(C)C(Br)=CC(C(Cl)=O)=C1C", 
	 "Tm": 334.15, 
	 "num_atms": 23, 
	 "gaussian": { 
		 "optdone": 1, 
		 "sigma_profile": "yes", 
		 "theory": "DFT", 
		 "functional": "B3LYP", 
		 "basiset": "6-31G**", 
		 "properties": { 
			 "R2extent": 5025.8648, 
			 "electric_dipole_moment_norm": 4.60606132504, 
			 "electric_quadrupole_moment_norm": 10.6295000861, 
			 "total_energy": -3493.931642, 
			 "HOMO_LUMO_gap": 0.17376, 
			 "cosmo_polarized_energy": -6.3, 
			 "cosmo_cavitation_energy": 29.54, 
			 "cosmo_dispersion_energy": -22.14, 
			 "cosmo_repulsion_energy": 1.74, 
			 "cosmo_total_nonelectrostatic_energy": 9.14, 
			 "SMD_solvation_energy": 4.44 
		},
		"coords": [
			{
				"x": 1.4738582316,
				"y": 1.1880473067,
				"z": -1.1041775182,
				"element": "C" 
			},
			{
				"x": 0.4447728622,
				"y": 0.3870638218,
				"z": -0.3299684023,
				"element": "C" 
			},
			{
				"x": -0.3003154296,
				"y": -0.6132164101,
				"z": -1.0000410915,
				"element": "C" 
			},
			{
				"x": -0.1084816097,
				"y": -0.8488946727,
				"z": -2.4787081137,
				"element": "C" 
			},
			{
				"x": -1.2169198005,
				"y": -1.3606192246,
				"z": -0.2446503867,
				"element": "C" 
			},
			{
				"x": -2.2685589216,
				"y": -2.7624789262,
				"z": -1.0286356328,
				"element": "Br" 
			},
			{
				"x": -1.4049889022,
				"y": -1.1364076126,
				"z": 1.1085995335,
				"element": "C" 
			},
			{
				"x": -0.6739441242,
				"y": -0.1392980609,
				"z": 1.7638662387,
				"element": "C" 
			},
			{
				"x": -0.8235689182,
				"y": 0.0338383483,
				"z": 3.2299947471,
				"element": "C" 
			},
			{
				"x": -2.4049681425,
				"y": -0.6034934727,
				"z": 3.9313075455,
				"element": "Cl" 
			},
			{
				"x": -0.0467890819,
				"y": 0.5338622675,
				"z": 3.9865450941,
				"element": "O" 
			},
			{
				"x": 0.2542349879,
				"y": 0.6550941123,
				"z": 1.0426116061,
				"element": "C" 
			},
			{
				"x": 1.0142335166,
				"y": 1.7917981782,
				"z": 1.6897625213,
				"element": "C" 
			},
			{
				"x": 1.0814220911,
				"y": 2.1682353434,
				"z": -1.4053019912,
				"element": "H" 
			},
			{
				"x": 1.7910129798,
				"y": 0.6746728325,
				"z": -2.0114177354,
				"element": "H" 
			},
			{
				"x": 2.3692681453,
				"y": 1.3696214323,
				"z": -0.5054084721,
				"element": "H" 
			},
			{
				"x": -0.1638020071,
				"y": 0.0894652857,
				"z": -3.0384576338,
				"element": "H" 
			},
			{
				"x": -0.8652507827,
				"y": -1.5247307746,
				"z": -2.8733807426,
				"element": "H" 
			},
			{
				"x": 0.8726409078,
				"y": -1.2937245697,
				"z": -2.6839539519,
				"element": "H" 
			},
			{
				"x": -2.1129843533,
				"y": -1.7380277565,
				"z": 1.660560187,
				"element": "H" 
			},
			{
				"x": 0.4767205157,
				"y": 2.2131621136,
				"z": 2.5369759704,
				"element": "H" 
			},
			{
				"x": 1.2039999957,
				"y": 2.5919145242,
				"z": 0.9723606476,
				"element": "H" 
			},
			{
				"x": 1.9839078393,
				"y": 1.453215914,
				"z": 2.075217581,
				"element": "H" 
			}
		],
		 "valence_orbital": [ 
			{
				"type": "occ",
				"energy": -0.31358,
				"method": "rhf"
			},
			{
				"type": "occ",
				"energy": -0.29527,
				"method": "rhf"
			},
			{
				"type": "occ",
				"energy": -0.28847,
				"method": "rhf"
			},
			{
				"type": "occ",
				"energy": -0.26607,
				"method": "rhf"
			},
			{
				"type": "occ",
				"energy": -0.24894,
				"method": "rhf"
			},
			{
				"type": "unocc",
				"energy": -0.07518,
				"method": "rhf"
			},
			{
				"type": "unocc",
				"energy": -0.02658,
				"method": "rhf"
			},
			{
				"type": "unocc",
				"energy": -0.0026,
				"method": "rhf"
			},
			{
				"type": "unocc",
				"energy": 0.01028,
				"method": "rhf"
			},
			{
				"type": "unocc",
				"energy": 0.02506,
				"method": "rhf"
			}
		],
		"cosmo_sigma_profile": { 
			"-0.025": 0.0,
			"-0.024": 0.0,
			"-0.023": 0.0,
			"-0.022": 0.0,
			"-0.021": 0.0,
			"-0.02": 0.0,
			"-0.019": 0.0,
			"-0.018": 0.0,
			"-0.017": 0.0,
			"-0.016": 0.0,
			"-0.015": 0.0,
			"-0.014": 0.0,
			"-0.013": 0.0,
			"-0.012": 0.0,
			"-0.011": 0.0,
			"-0.01": 0.0,
			"-0.009": 0.0,
			"-0.008": 0.0,
			"-0.007": 0.0,
			"-0.006": 2.07322309761,
			"-0.005": 14.1697750034,
			"-0.004": 24.0493061435,
			"-0.003": 23.7962970332,
			"-0.002": 22.249949109,
			"-0.001": 28.7788765656,
			"0.0": 26.79794166,
			"0.001": 25.7908260766,
			"0.002": 19.4722113256,
			"0.003": 13.0505892306,
			"0.004": 16.8399204797,
			"0.005": 10.4214924603,
			"0.006": 4.05927229843,
			"0.007": 2.57449262726,
			"0.008": 3.70232684238,
			"0.009": 2.67873579324,
			"0.01": 0.265238269668,
			"0.011": 0.0,
			"0.012": 0.0,
			"0.013": 0.0,
			"0.014": 0.0,
			"0.015": 0.0,
			"0.016": 0.0,
			"0.017": 0.0,
			"0.018": 0.0,
			"0.019": 0.0,
			"0.02": 0.0,
			"0.021": 0.0,
			"0.022": 0.0,
			"0.023": 0.0,
			"0.024": 0.0,
			"0.025": 0.0
		}
	}
}
