{
	 "smiles": "CC1=C(SC=C1S(=O)(=O)C1=CC=C(Cl)C=C1)C(=O)NN", 
	 "Tm": 439.15, 
	 "num_atms": 31, 
	 "gaussian": { 
		 "optdone": 1, 
		 "sigma_profile": "yes", 
		 "theory": "DFT", 
		 "functional": "B3LYP", 
		 "basiset": "6-31G**", 
		 "properties": { 
			 "R2extent": 9305.4062, 
			 "electric_dipole_moment_norm": 3.06092537152, 
			 "electric_quadrupole_moment_norm": 19.9829182821, 
			 "total_energy": -2055.55047595, 
			 "HOMO_LUMO_gap": 0.19157, 
			 "cosmo_polarized_energy": -19.42, 
			 "cosmo_cavitation_energy": 40.13, 
			 "cosmo_dispersion_energy": -29.38, 
			 "cosmo_repulsion_energy": 2.18, 
			 "cosmo_total_nonelectrostatic_energy": 12.93, 
			 "SMD_solvation_energy": 6.83 
		},
		"coords": [
			{
				"x": -0.7651850111,
				"y": 1.5379502837,
				"z": 0.2755279691,
				"element": "C" 
			},
			{
				"x": -1.518323106,
				"y": 0.2525502633,
				"z": 0.0714597942,
				"element": "C" 
			},
			{
				"x": -2.2735755735,
				"y": -0.0637673858,
				"z": -1.040831689,
				"element": "C" 
			},
			{
				"x": -3.0129608284,
				"y": -1.652166545,
				"z": -0.9068307913,
				"element": "S" 
			},
			{
				"x": -2.3272224317,
				"y": -1.8954562976,
				"z": 0.6478036127,
				"element": "C" 
			},
			{
				"x": -1.567804665,
				"y": -0.8215301975,
				"z": 1.0298437316,
				"element": "C" 
			},
			{
				"x": -0.79394973,
				"y": -0.8478174622,
				"z": 2.6477763148,
				"element": "S" 
			},
			{
				"x": -1.2336704656,
				"y": -2.0966834125,
				"z": 3.2891987993,
				"element": "O" 
			},
			{
				"x": -1.0058933601,
				"y": 0.45841199,
				"z": 3.2898802812,
				"element": "O" 
			},
			{
				"x": 0.9680564856,
				"y": -1.0038724998,
				"z": 2.3156394786,
				"element": "C" 
			},
			{
				"x": 1.7970973995,
				"y": 0.1047097376,
				"z": 2.4898247701,
				"element": "C" 
			},
			{
				"x": 3.1672844992,
				"y": -0.0210516424,
				"z": 2.2612548206,
				"element": "C" 
			},
			{
				"x": 3.6794938189,
				"y": -1.2564685276,
				"z": 1.8632145111,
				"element": "C" 
			},
			{
				"x": 5.3990774794,
				"y": -1.4172856796,
				"z": 1.5703336518,
				"element": "Cl" 
			},
			{
				"x": 2.8532949074,
				"y": -2.371817768,
				"z": 1.7000060344,
				"element": "C" 
			},
			{
				"x": 1.4867483666,
				"y": -2.2436056832,
				"z": 1.9333431094,
				"element": "C" 
			},
			{
				"x": -2.4929924743,
				"y": 0.7725099145,
				"z": -2.2506335948,
				"element": "C" 
			},
			{
				"x": -1.7107138801,
				"y": 1.6438974671,
				"z": -2.6202399358,
				"element": "O" 
			},
			{
				"x": -3.6439434045,
				"y": 0.4940841938,
				"z": -2.9551946195,
				"element": "N" 
			},
			{
				"x": -4.0053042078,
				"y": 1.2972551541,
				"z": -4.0581761413,
				"element": "N" 
			},
			{
				"x": -0.9819002758,
				"y": 2.2423864788,
				"z": -0.5246790309,
				"element": "H" 
			},
			{
				"x": 0.3145976603,
				"y": 1.3489530068,
				"z": 0.2669227907,
				"element": "H" 
			},
			{
				"x": -1.0140988868,
				"y": 1.9703665383,
				"z": 1.2479633705,
				"element": "H" 
			},
			{
				"x": -2.5019309694,
				"y": -2.7982616616,
				"z": 1.2156253884,
				"element": "H" 
			},
			{
				"x": 1.3718550339,
				"y": 1.0465293413,
				"z": 2.8181438919,
				"element": "H" 
			},
			{
				"x": 3.830801446,
				"y": 0.8258325379,
				"z": 2.3944690722,
				"element": "H" 
			},
			{
				"x": 3.278263657,
				"y": -3.3238676685,
				"z": 1.4030899141,
				"element": "H" 
			},
			{
				"x": 0.8316443681,
				"y": -3.1024850039,
				"z": 1.8346402906,
				"element": "H" 
			},
			{
				"x": -4.4343532232,
				"y": 0.0906160936,
				"z": -2.4705304242,
				"element": "H" 
			},
			{
				"x": -3.6242568252,
				"y": 2.22820573,
				"z": -3.8814365728,
				"element": "H" 
			},
			{
				"x": -3.4978358036,
				"y": 0.9455787041,
				"z": -4.8693087977,
				"element": "H" 
			}
		],
		 "valence_orbital": [ 
			{
				"type": "occ",
				"energy": -0.28549,
				"method": "rhf"
			},
			{
				"type": "occ",
				"energy": -0.27636,
				"method": "rhf"
			},
			{
				"type": "occ",
				"energy": -0.2689,
				"method": "rhf"
			},
			{
				"type": "occ",
				"energy": -0.26633,
				"method": "rhf"
			},
			{
				"type": "occ",
				"energy": -0.25972,
				"method": "rhf"
			},
			{
				"type": "unocc",
				"energy": -0.06815,
				"method": "rhf"
			},
			{
				"type": "unocc",
				"energy": -0.05198,
				"method": "rhf"
			},
			{
				"type": "unocc",
				"energy": -0.03775,
				"method": "rhf"
			},
			{
				"type": "unocc",
				"energy": -0.00914,
				"method": "rhf"
			},
			{
				"type": "unocc",
				"energy": 0.00201,
				"method": "rhf"
			}
		],
		"cosmo_sigma_profile": { 
			"-0.025": 0.0,
			"-0.024": 0.0,
			"-0.023": 0.0,
			"-0.022": 0.0,
			"-0.021": 0.0,
			"-0.02": 0.0,
			"-0.019": 0.0,
			"-0.018": 0.0,
			"-0.017": 0.0,
			"-0.016": 0.0,
			"-0.015": 0.157809090092,
			"-0.014": 0.765260520465,
			"-0.013": 0.949366895221,
			"-0.012": 1.75829069144,
			"-0.011": 3.16081933198,
			"-0.01": 4.46825831667,
			"-0.009": 5.82599605371,
			"-0.008": 11.6891755591,
			"-0.007": 11.3478965446,
			"-0.006": 10.2503913474,
			"-0.005": 11.4104087875,
			"-0.004": 16.2845172108,
			"-0.003": 18.4671389509,
			"-0.002": 23.6683412702,
			"-0.001": 33.3074893952,
			"0.0": 41.6881654384,
			"0.001": 31.6567045193,
			"0.002": 16.8763192192,
			"0.003": 13.5716650285,
			"0.004": 14.0773210266,
			"0.005": 4.94008798198,
			"0.006": 4.00889281202,
			"0.007": 5.52727295635,
			"0.008": 5.99904396491,
			"0.009": 5.70689954987,
			"0.01": 7.57529259073,
			"0.011": 9.83259801112,
			"0.012": 6.27451053602,
			"0.013": 2.81415547408,
			"0.014": 0.369290306823,
			"0.015": 0.722298864834,
			"0.016": 0.577232119696,
			"0.017": 0.0366289983407,
			"0.018": 0.0,
			"0.019": 0.0,
			"0.02": 0.0,
			"0.021": 0.0,
			"0.022": 0.0,
			"0.023": 0.0,
			"0.024": 0.0,
			"0.025": 0.0
		}
	}
}
