{
	 "smiles": "CN(C)C=C(C#N)C(N)=O", 
	 "Tm": 440.15, 
	 "num_atms": 19, 
	 "gaussian": { 
		 "optdone": 1, 
		 "sigma_profile": "yes", 
		 "theory": "DFT", 
		 "functional": "B3LYP", 
		 "basiset": "6-31G**", 
		 "properties": { 
			 "R2extent": 1748.6933, 
			 "electric_dipole_moment_norm": 4.44733782616, 
			 "electric_quadrupole_moment_norm": 17.3300048179, 
			 "total_energy": -473.522773235, 
			 "HOMO_LUMO_gap": 0.18463, 
			 "cosmo_polarized_energy": -17.36, 
			 "cosmo_cavitation_energy": 23.55, 
			 "cosmo_dispersion_energy": -16.73, 
			 "cosmo_repulsion_energy": 1.38, 
			 "cosmo_total_nonelectrostatic_energy": 8.19, 
			 "SMD_solvation_energy": 6.28 
		},
		"coords": [
			{
				"x": -1.6860653856,
				"y": 0.5939002806,
				"z": -0.1886150064,
				"element": "C" 
			},
			{
				"x": -1.182577875,
				"y": -0.6857576697,
				"z": -0.6821998264,
				"element": "N" 
			},
			{
				"x": -2.1764582229,
				"y": -1.577254726,
				"z": -1.2701943527,
				"element": "C" 
			},
			{
				"x": 0.1017744873,
				"y": -1.0760933356,
				"z": -0.6224799064,
				"element": "C" 
			},
			{
				"x": 1.1851550862,
				"y": -0.5666569925,
				"z": 0.0725354296,
				"element": "C" 
			},
			{
				"x": 2.4616343756,
				"y": -1.0600923369,
				"z": -0.3275775494,
				"element": "C" 
			},
			{
				"x": 3.5309502064,
				"y": -1.4234311524,
				"z": -0.6241371766,
				"element": "N" 
			},
			{
				"x": 1.1332754819,
				"y": 0.305869373,
				"z": 1.2819629455,
				"element": "C" 
			},
			{
				"x": 2.3248733059,
				"y": 0.8755369299,
				"z": 1.6441768012,
				"element": "N" 
			},
			{
				"x": 0.1074117759,
				"y": 0.4893308623,
				"z": 1.9364251079,
				"element": "O" 
			},
			{
				"x": -1.9882236788,
				"y": 0.5411314134,
				"z": 0.8586836504,
				"element": "H" 
			},
			{
				"x": -0.9052761281,
				"y": 1.349394736,
				"z": -0.2727892368,
				"element": "H" 
			},
			{
				"x": -2.5342562305,
				"y": 0.8837425,
				"z": -0.8164467814,
				"element": "H" 
			},
			{
				"x": -2.7539022807,
				"y": -1.0504912588,
				"z": -2.0379178451,
				"element": "H" 
			},
			{
				"x": -2.8725211791,
				"y": -1.9445054037,
				"z": -0.5061056236,
				"element": "H" 
			},
			{
				"x": -1.6845432427,
				"y": -2.4386515119,
				"z": -1.7258334727,
				"element": "H" 
			},
			{
				"x": 0.3167717098,
				"y": -1.9209785378,
				"z": -1.2744637196,
				"element": "H" 
			},
			{
				"x": 3.1934322863,
				"y": 0.6098458185,
				"z": 1.2054154521,
				"element": "H" 
			},
			{
				"x": 2.355945508,
				"y": 1.3092610116,
				"z": 2.5539611106,
				"element": "H" 
			}
		],
		 "valence_orbital": [ 
			{
				"type": "occ",
				"energy": -0.32656,
				"method": "rhf"
			},
			{
				"type": "occ",
				"energy": -0.31907,
				"method": "rhf"
			},
			{
				"type": "occ",
				"energy": -0.26284,
				"method": "rhf"
			},
			{
				"type": "occ",
				"energy": -0.24985,
				"method": "rhf"
			},
			{
				"type": "occ",
				"energy": -0.21846,
				"method": "rhf"
			},
			{
				"type": "unocc",
				"energy": -0.03383,
				"method": "rhf"
			},
			{
				"type": "unocc",
				"energy": 0.03353,
				"method": "rhf"
			},
			{
				"type": "unocc",
				"energy": 0.04869,
				"method": "rhf"
			},
			{
				"type": "unocc",
				"energy": 0.06684,
				"method": "rhf"
			},
			{
				"type": "unocc",
				"energy": 0.09434,
				"method": "rhf"
			}
		],
		"cosmo_sigma_profile": { 
			"-0.025": 0.0,
			"-0.024": 0.0,
			"-0.023": 0.0,
			"-0.022": 0.0,
			"-0.021": 0.0,
			"-0.02": 0.0,
			"-0.019": 0.0,
			"-0.018": 0.0,
			"-0.017": 0.0,
			"-0.016": 0.0,
			"-0.015": 0.0,
			"-0.014": 0.380827144272,
			"-0.013": 1.48799062703,
			"-0.012": 1.5657383889,
			"-0.011": 1.86855180142,
			"-0.01": 4.16095115285,
			"-0.009": 4.75710185592,
			"-0.008": 4.38596845804,
			"-0.007": 5.13294703783,
			"-0.006": 11.8423889813,
			"-0.005": 13.8499268234,
			"-0.004": 16.6537869477,
			"-0.003": 19.1958846049,
			"-0.002": 13.1515988794,
			"-0.001": 9.49167077887,
			"0.0": 7.78680712805,
			"0.001": 8.46039408549,
			"0.002": 7.03127220317,
			"0.003": 4.72923413568,
			"0.004": 4.0046280495,
			"0.005": 4.10129797164,
			"0.006": 4.69696248944,
			"0.007": 4.18452785964,
			"0.008": 4.0127592403,
			"0.009": 4.43059744944,
			"0.01": 4.74109112094,
			"0.011": 4.83569094549,
			"0.012": 4.72690244162,
			"0.013": 5.38752225606,
			"0.014": 4.60815450067,
			"0.015": 1.34520585305,
			"0.016": 0.0,
			"0.017": 0.0,
			"0.018": 0.0,
			"0.019": 0.0,
			"0.02": 0.0,
			"0.021": 0.0,
			"0.022": 0.0,
			"0.023": 0.0,
			"0.024": 0.0,
			"0.025": 0.0
		}
	}
}
