{
	 "smiles": "OC(=O)C1=COC(C=O)=C1", 
	 "Tm": 439.15, 
	 "num_atms": 14, 
	 "gaussian": { 
		 "optdone": 1, 
		 "sigma_profile": "yes", 
		 "theory": "DFT", 
		 "functional": "B3LYP", 
		 "basiset": "6-31G**", 
		 "properties": { 
			 "R2extent": 1841.2542, 
			 "electric_dipole_moment_norm": 5.19735650788, 
			 "electric_quadrupole_moment_norm": 9.45563226019, 
			 "total_energy": -531.906328854, 
			 "HOMO_LUMO_gap": 0.19201, 
			 "cosmo_polarized_energy": -19.49, 
			 "cosmo_cavitation_energy": 20.34, 
			 "cosmo_dispersion_energy": -14.78, 
			 "cosmo_repulsion_energy": 1.2, 
			 "cosmo_total_nonelectrostatic_energy": 6.76, 
			 "SMD_solvation_energy": 6.92 
		},
		"coords": [
			{
				"x": -2.0217875213,
				"y": -1.4432184021,
				"z": -1.9446774714,
				"element": "O" 
			},
			{
				"x": -2.01218034,
				"y": -1.0743312385,
				"z": -0.6361806911,
				"element": "C" 
			},
			{
				"x": -2.8032688125,
				"y": -1.5567659539,
				"z": 0.1364618822,
				"element": "O" 
			},
			{
				"x": -1.001341821,
				"y": -0.0696673568,
				"z": -0.2165670853,
				"element": "C" 
			},
			{
				"x": -0.0315503667,
				"y": 0.5828979208,
				"z": -0.9425008672,
				"element": "C" 
			},
			{
				"x": 0.6737952997,
				"y": 1.4187628038,
				"z": -0.1606378706,
				"element": "O" 
			},
			{
				"x": 0.1549862888,
				"y": 1.3141658722,
				"z": 1.1141730158,
				"element": "C" 
			},
			{
				"x": 0.7697952229,
				"y": 2.1408950222,
				"z": 2.1514691494,
				"element": "C" 
			},
			{
				"x": 0.4010704451,
				"y": 2.1360417808,
				"z": 3.310372113,
				"element": "O" 
			},
			{
				"x": -0.8726110601,
				"y": 0.4126396017,
				"z": 1.1217191535,
				"element": "C" 
			},
			{
				"x": -1.3389967,
				"y": -0.9818677645,
				"z": -2.4498333122,
				"element": "H" 
			},
			{
				"x": 0.2669230041,
				"y": 0.5587645663,
				"z": -1.9815378771,
				"element": "H" 
			},
			{
				"x": 1.6055781827,
				"y": 2.7768440559,
				"z": 1.7933835263,
				"element": "H" 
			},
			{
				"x": -1.4729118217,
				"y": 0.1185390921,
				"z": 1.9692563348,
				"element": "H" 
			}
		],
		 "valence_orbital": [ 
			{
				"type": "occ",
				"energy": -0.33701,
				"method": "rhf"
			},
			{
				"type": "occ",
				"energy": -0.31351,
				"method": "rhf"
			},
			{
				"type": "occ",
				"energy": -0.29107,
				"method": "rhf"
			},
			{
				"type": "occ",
				"energy": -0.27442,
				"method": "rhf"
			},
			{
				"type": "occ",
				"energy": -0.27306,
				"method": "rhf"
			},
			{
				"type": "unocc",
				"energy": -0.08105,
				"method": "rhf"
			},
			{
				"type": "unocc",
				"energy": -0.05121,
				"method": "rhf"
			},
			{
				"type": "unocc",
				"energy": 0.02944,
				"method": "rhf"
			},
			{
				"type": "unocc",
				"energy": 0.05484,
				"method": "rhf"
			},
			{
				"type": "unocc",
				"energy": 0.09499,
				"method": "rhf"
			}
		],
		"cosmo_sigma_profile": { 
			"-0.025": 0.0,
			"-0.024": 0.0,
			"-0.023": 0.0,
			"-0.022": 0.0,
			"-0.021": 0.229604314964,
			"-0.02": 1.25795575699,
			"-0.019": 1.21716767393,
			"-0.018": 1.09175831341,
			"-0.017": 0.708415529251,
			"-0.016": 1.23861516126,
			"-0.015": 1.32870561478,
			"-0.014": 1.10368415564,
			"-0.013": 1.32499828713,
			"-0.012": 2.73388807816,
			"-0.011": 1.69113327413,
			"-0.01": 1.7924973431,
			"-0.009": 2.01654875315,
			"-0.008": 4.69058727281,
			"-0.007": 6.25950602652,
			"-0.006": 5.902502278,
			"-0.005": 6.63620233305,
			"-0.004": 7.76984812011,
			"-0.003": 9.259655581,
			"-0.002": 13.1706543616,
			"-0.001": 11.7269619546,
			"0.0": 12.2106848209,
			"0.001": 5.47671204348,
			"0.002": 4.92214462065,
			"0.003": 5.55508635333,
			"0.004": 5.082493197,
			"0.005": 4.01902864682,
			"0.006": 4.23014630276,
			"0.007": 3.98173217149,
			"0.008": 4.59999679362,
			"0.009": 6.21273850653,
			"0.01": 7.93797916929,
			"0.011": 10.5644582763,
			"0.012": 5.1361941599,
			"0.013": 0.979823368271,
			"0.014": 0.0,
			"0.015": 0.0,
			"0.016": 0.0,
			"0.017": 0.0,
			"0.018": 0.0,
			"0.019": 0.0,
			"0.02": 0.0,
			"0.021": 0.0,
			"0.022": 0.0,
			"0.023": 0.0,
			"0.024": 0.0,
			"0.025": 0.0
		}
	}
}
