{
	 "smiles": "OC(=O)CCC(=O)N1CCSC2=C1C=CC=C2", 
	 "Tm": 408.15, 
	 "num_atms": 30, 
	 "gaussian": { 
		 "optdone": 1, 
		 "sigma_profile": "yes", 
		 "theory": "DFT", 
		 "functional": "B3LYP", 
		 "basiset": "6-31G**", 
		 "properties": { 
			 "R2extent": 5094.5181, 
			 "electric_dipole_moment_norm": 4.82510820708, 
			 "electric_quadrupole_moment_norm": 14.1397163851, 
			 "total_energy": -1143.75000781, 
			 "HOMO_LUMO_gap": 0.19651, 
			 "cosmo_polarized_energy": -17.92, 
			 "cosmo_cavitation_energy": 34.43, 
			 "cosmo_dispersion_energy": -24.96, 
			 "cosmo_repulsion_energy": 1.91, 
			 "cosmo_total_nonelectrostatic_energy": 11.39, 
			 "SMD_solvation_energy": 6.31 
		},
		"coords": [
			{
				"x": -3.7092710412,
				"y": -0.91340399,
				"z": -1.1474265111,
				"element": "O" 
			},
			{
				"x": -3.8261674596,
				"y": 0.0249333573,
				"z": -0.1714456425,
				"element": "C" 
			},
			{
				"x": -4.6948607898,
				"y": 0.8659561197,
				"z": -0.1829349162,
				"element": "O" 
			},
			{
				"x": -2.8248851554,
				"y": -0.1790142698,
				"z": 0.9476720653,
				"element": "C" 
			},
			{
				"x": -1.4630776594,
				"y": -0.7387206113,
				"z": 0.523000078,
				"element": "C" 
			},
			{
				"x": -0.7259050602,
				"y": 0.2589331844,
				"z": -0.3684934399,
				"element": "C" 
			},
			{
				"x": -1.3327846155,
				"y": 1.171518222,
				"z": -0.9190192064,
				"element": "O" 
			},
			{
				"x": 0.6530651238,
				"y": 0.1634846935,
				"z": -0.4958041517,
				"element": "N" 
			},
			{
				"x": 1.3006922833,
				"y": 1.3296791936,
				"z": -1.1360825257,
				"element": "C" 
			},
			{
				"x": 2.771303824,
				"y": 1.4780663732,
				"z": -0.7549418425,
				"element": "C" 
			},
			{
				"x": 3.0568260951,
				"y": 1.0734067138,
				"z": 1.0170303795,
				"element": "S" 
			},
			{
				"x": 2.5591838424,
				"y": -0.6245586052,
				"z": 0.8251462187,
				"element": "C" 
			},
			{
				"x": 1.4320989099,
				"y": -0.9065725356,
				"z": 0.0246144035,
				"element": "C" 
			},
			{
				"x": 1.115433333,
				"y": -2.2434349299,
				"z": -0.2533274367,
				"element": "C" 
			},
			{
				"x": 1.837814849,
				"y": -3.2802944813,
				"z": 0.3351064704,
				"element": "C" 
			},
			{
				"x": 2.9187123581,
				"y": -2.9951088805,
				"z": 1.1718014739,
				"element": "C" 
			},
			{
				"x": 3.2942402327,
				"y": -1.6702808744,
				"z": 1.3914516859,
				"element": "C" 
			},
			{
				"x": -4.3979168364,
				"y": -0.6993395243,
				"z": -1.7984344094,
				"element": "H" 
			},
			{
				"x": -2.7257091099,
				"y": 0.7802005017,
				"z": 1.4586314999,
				"element": "H" 
			},
			{
				"x": -3.2854264833,
				"y": -0.8796575086,
				"z": 1.6563064626,
				"element": "H" 
			},
			{
				"x": -1.6142621482,
				"y": -1.676052619,
				"z": -0.0188333985,
				"element": "H" 
			},
			{
				"x": -0.8608101401,
				"y": -0.9787390014,
				"z": 1.4042726416,
				"element": "H" 
			},
			{
				"x": 1.2107109034,
				"y": 1.2515899639,
				"z": -2.2279509215,
				"element": "H" 
			},
			{
				"x": 0.733313016,
				"y": 2.2099326723,
				"z": -0.8304240209,
				"element": "H" 
			},
			{
				"x": 3.4196184468,
				"y": 0.8272097645,
				"z": -1.3475385378,
				"element": "H" 
			},
			{
				"x": 3.0895434194,
				"y": 2.5113803999,
				"z": -0.9131331,
				"element": "H" 
			},
			{
				"x": 0.2982927782,
				"y": -2.4645778207,
				"z": -0.9314514755,
				"element": "H" 
			},
			{
				"x": 1.566883116,
				"y": -4.3100058229,
				"z": 0.1227213878,
				"element": "H" 
			},
			{
				"x": 3.488478114,
				"y": -3.8005801206,
				"z": 1.6249682435,
				"element": "H" 
			},
			{
				"x": 4.1657658538,
				"y": -1.4368495642,
				"z": 1.9953185258,
				"element": "H" 
			}
		],
		 "valence_orbital": [ 
			{
				"type": "occ",
				"energy": -0.28322,
				"method": "rhf"
			},
			{
				"type": "occ",
				"energy": -0.26093,
				"method": "rhf"
			},
			{
				"type": "occ",
				"energy": -0.25796,
				"method": "rhf"
			},
			{
				"type": "occ",
				"energy": -0.24209,
				"method": "rhf"
			},
			{
				"type": "occ",
				"energy": -0.22371,
				"method": "rhf"
			},
			{
				"type": "unocc",
				"energy": -0.0272,
				"method": "rhf"
			},
			{
				"type": "unocc",
				"energy": -0.02129,
				"method": "rhf"
			},
			{
				"type": "unocc",
				"energy": 0.02001,
				"method": "rhf"
			},
			{
				"type": "unocc",
				"energy": 0.02262,
				"method": "rhf"
			},
			{
				"type": "unocc",
				"energy": 0.02921,
				"method": "rhf"
			}
		],
		"cosmo_sigma_profile": { 
			"-0.025": 0.0,
			"-0.024": 0.0,
			"-0.023": 0.0,
			"-0.022": 0.0,
			"-0.021": 0.0,
			"-0.02": 0.0,
			"-0.019": 0.0,
			"-0.018": 0.294249000769,
			"-0.017": 1.06326388156,
			"-0.016": 0.606480296664,
			"-0.015": 0.966826092407,
			"-0.014": 0.948986489332,
			"-0.013": 0.807690685477,
			"-0.012": 0.248457032051,
			"-0.011": 0.281075966573,
			"-0.01": 1.04257376181,
			"-0.009": 1.14494539233,
			"-0.008": 2.5755833061,
			"-0.007": 8.82299365708,
			"-0.006": 19.102440479,
			"-0.005": 28.0152299,
			"-0.004": 27.0980763349,
			"-0.003": 20.7013639054,
			"-0.002": 16.2606057826,
			"-0.001": 15.3265933364,
			"0.0": 13.1104921334,
			"0.001": 13.4486945457,
			"0.002": 13.7926109873,
			"0.003": 15.259505631,
			"0.004": 16.2179415353,
			"0.005": 9.27572001453,
			"0.006": 6.580657404,
			"0.007": 6.95389199988,
			"0.008": 6.38079659612,
			"0.009": 4.8102352977,
			"0.01": 4.65812808791,
			"0.011": 5.30824476915,
			"0.012": 8.46697953767,
			"0.013": 4.72458824394,
			"0.014": 0.171727169017,
			"0.015": 0.0,
			"0.016": 0.0,
			"0.017": 0.0,
			"0.018": 0.0,
			"0.019": 0.0,
			"0.02": 0.0,
			"0.021": 0.0,
			"0.022": 0.0,
			"0.023": 0.0,
			"0.024": 0.0,
			"0.025": 0.0
		}
	}
}
