{
	 "smiles": "CC(Br)C(=O)C1=CC=C(OC2=CC=CC=C2)C=C1", 
	 "Tm": 360.15, 
	 "num_atms": 31, 
	 "gaussian": { 
		 "optdone": 1, 
		 "sigma_profile": "yes", 
		 "theory": "DFT", 
		 "functional": "B3LYP", 
		 "basiset": "6-31G**", 
		 "properties": { 
			 "R2extent": 9737.5769, 
			 "electric_dipole_moment_norm": 4.30235704469, 
			 "electric_quadrupole_moment_norm": 13.7109119689, 
			 "total_energy": -3301.2823878, 
			 "HOMO_LUMO_gap": 0.16701, 
			 "cosmo_polarized_energy": -10.72, 
			 "cosmo_cavitation_energy": 37.66, 
			 "cosmo_dispersion_energy": -27.08, 
			 "cosmo_repulsion_energy": 2.1, 
			 "cosmo_total_nonelectrostatic_energy": 12.68, 
			 "SMD_solvation_energy": 5.96 
		},
		"coords": [
			{
				"x": 2.9070624849,
				"y": -2.4289088333,
				"z": 4.5852824844,
				"element": "C" 
			},
			{
				"x": 2.0850463529,
				"y": -1.4205840824,
				"z": 3.8065951891,
				"element": "C" 
			},
			{
				"x": 1.6322733233,
				"y": 0.1396363961,
				"z": 4.9869164483,
				"element": "Br" 
			},
			{
				"x": 2.8244173991,
				"y": -0.8591664363,
				"z": 2.5813937079,
				"element": "C" 
			},
			{
				"x": 4.0366552688,
				"y": -1.0004350462,
				"z": 2.5109950835,
				"element": "O" 
			},
			{
				"x": 2.0528013054,
				"y": -0.2090299564,
				"z": 1.4879630085,
				"element": "C" 
			},
			{
				"x": 0.6701532832,
				"y": 0.0281634042,
				"z": 1.5383013609,
				"element": "C" 
			},
			{
				"x": 0.0009226464,
				"y": 0.6193520083,
				"z": 0.4701856788,
				"element": "C" 
			},
			{
				"x": 0.7205364643,
				"y": 0.9812837402,
				"z": -0.674803948,
				"element": "C" 
			},
			{
				"x": 0.1634927065,
				"y": 1.593611639,
				"z": -1.7657839792,
				"element": "O" 
			},
			{
				"x": -1.2164419406,
				"y": 1.6355270323,
				"z": -1.9262127647,
				"element": "C" 
			},
			{
				"x": -1.9390718324,
				"y": 0.4685126186,
				"z": -2.1828034555,
				"element": "C" 
			},
			{
				"x": -3.3106957183,
				"y": 0.5585100834,
				"z": -2.421738268,
				"element": "C" 
			},
			{
				"x": -3.9500057365,
				"y": 1.8009337434,
				"z": -2.4123677735,
				"element": "C" 
			},
			{
				"x": -3.2121865105,
				"y": 2.9595548894,
				"z": -2.1623292531,
				"element": "C" 
			},
			{
				"x": -1.8402889074,
				"y": 2.881879327,
				"z": -1.9149064532,
				"element": "C" 
			},
			{
				"x": 2.1043988939,
				"y": 0.7605522457,
				"z": -0.7412321388,
				"element": "C" 
			},
			{
				"x": 2.7567319213,
				"y": 0.1747244453,
				"z": 0.3305101824,
				"element": "C" 
			},
			{
				"x": 3.8731347827,
				"y": -2.0060801157,
				"z": 4.8628607733,
				"element": "H" 
			},
			{
				"x": 2.374648729,
				"y": -2.7510375242,
				"z": 5.4823848235,
				"element": "H" 
			},
			{
				"x": 3.093408835,
				"y": -3.3043660855,
				"z": 3.9526943684,
				"element": "H" 
			},
			{
				"x": 1.108701856,
				"y": -1.8192470615,
				"z": 3.530911499,
				"element": "H" 
			},
			{
				"x": 0.101063292,
				"y": -0.21706924,
				"z": 2.4282374384,
				"element": "H" 
			},
			{
				"x": -1.06453249,
				"y": 0.8071866547,
				"z": 0.5282330778,
				"element": "H" 
			},
			{
				"x": -1.4270055184,
				"y": -0.4881094009,
				"z": -2.2001567761,
				"element": "H" 
			},
			{
				"x": -3.8785780031,
				"y": -0.3449284248,
				"z": -2.623787317,
				"element": "H" 
			},
			{
				"x": -5.0168278694,
				"y": 1.8651490994,
				"z": -2.6033297314,
				"element": "H" 
			},
			{
				"x": -3.7029085729,
				"y": 3.9283134846,
				"z": -2.1574618326,
				"element": "H" 
			},
			{
				"x": -1.2463649081,
				"y": 3.76891727,
				"z": -1.7212091688,
				"element": "H" 
			},
			{
				"x": 2.6372474805,
				"y": 1.0559744937,
				"z": -1.6388352649,
				"element": "H" 
			},
			{
				"x": 3.8256109825,
				"y": -0.0064203683,
				"z": 0.2975930008,
				"element": "H" 
			}
		],
		 "valence_orbital": [ 
			{
				"type": "occ",
				"energy": -0.26797,
				"method": "rhf"
			},
			{
				"type": "occ",
				"energy": -0.26318,
				"method": "rhf"
			},
			{
				"type": "occ",
				"energy": -0.25796,
				"method": "rhf"
			},
			{
				"type": "occ",
				"energy": -0.25296,
				"method": "rhf"
			},
			{
				"type": "occ",
				"energy": -0.23363,
				"method": "rhf"
			},
			{
				"type": "unocc",
				"energy": -0.06662,
				"method": "rhf"
			},
			{
				"type": "unocc",
				"energy": -0.02131,
				"method": "rhf"
			},
			{
				"type": "unocc",
				"energy": -0.01301,
				"method": "rhf"
			},
			{
				"type": "unocc",
				"energy": -0.00896,
				"method": "rhf"
			},
			{
				"type": "unocc",
				"energy": -0.00447,
				"method": "rhf"
			}
		],
		"cosmo_sigma_profile": { 
			"-0.025": 0.0,
			"-0.024": 0.0,
			"-0.023": 0.0,
			"-0.022": 0.0,
			"-0.021": 0.0,
			"-0.02": 0.0,
			"-0.019": 0.0,
			"-0.018": 0.0,
			"-0.017": 0.0,
			"-0.016": 0.0,
			"-0.015": 0.0,
			"-0.014": 0.0,
			"-0.013": 0.0,
			"-0.012": 0.0,
			"-0.011": 0.0,
			"-0.01": 0.058551527407,
			"-0.009": 1.65695629126,
			"-0.008": 3.07219162125,
			"-0.007": 8.52321312106,
			"-0.006": 17.5888991521,
			"-0.005": 21.6406004718,
			"-0.004": 22.7680404343,
			"-0.003": 20.6504290132,
			"-0.002": 19.8044997269,
			"-0.001": 23.6991906768,
			"0.0": 20.9451085122,
			"0.001": 23.3430741525,
			"0.002": 28.7750641666,
			"0.003": 30.734371195,
			"0.004": 22.3920118351,
			"0.005": 17.6782846194,
			"0.006": 5.5379591087,
			"0.007": 2.91232840446,
			"0.008": 2.89490403065,
			"0.009": 1.92809565699,
			"0.01": 2.43264929729,
			"0.011": 3.65898317659,
			"0.012": 1.62217736251,
			"0.013": 0.0,
			"0.014": 0.0,
			"0.015": 0.0,
			"0.016": 0.0,
			"0.017": 0.0,
			"0.018": 0.0,
			"0.019": 0.0,
			"0.02": 0.0,
			"0.021": 0.0,
			"0.022": 0.0,
			"0.023": 0.0,
			"0.024": 0.0,
			"0.025": 0.0
		}
	}
}
