{
	 "smiles": "NC(=S)C1CN(CCO1)C(=O)OCC1=CC=CC=C1", 
	 "Tm": 421.15, 
	 "num_atms": 35, 
	 "gaussian": { 
		 "optdone": 1, 
		 "sigma_profile": "yes", 
		 "theory": "DFT", 
		 "functional": "B3LYP", 
		 "basiset": "6-31G**", 
		 "properties": { 
			 "R2extent": 7082.426, 
			 "electric_dipole_moment_norm": 3.51695559966, 
			 "electric_quadrupole_moment_norm": 18.8448844698, 
			 "total_energy": -1238.39931113, 
			 "HOMO_LUMO_gap": 0.17831, 
			 "cosmo_polarized_energy": -20.9, 
			 "cosmo_cavitation_energy": 39.81, 
			 "cosmo_dispersion_energy": -27.74, 
			 "cosmo_repulsion_energy": 2.1, 
			 "cosmo_total_nonelectrostatic_energy": 14.16, 
			 "SMD_solvation_energy": 6.08 
		},
		"coords": [
			{
				"x": -3.3151385771,
				"y": 1.5741900886,
				"z": -1.7848457934,
				"element": "N" 
			},
			{
				"x": -2.7088974346,
				"y": 0.3852653428,
				"z": -1.7835922769,
				"element": "C" 
			},
			{
				"x": -3.3238414919,
				"y": -0.9851680687,
				"z": -1.0639726705,
				"element": "S" 
			},
			{
				"x": -1.3772174479,
				"y": 0.3623462731,
				"z": -2.5565959251,
				"element": "C" 
			},
			{
				"x": -0.1951763834,
				"y": -0.0711357502,
				"z": -1.6722313462,
				"element": "C" 
			},
			{
				"x": 0.2013601705,
				"y": 1.0183803291,
				"z": -0.7898564822,
				"element": "N" 
			},
			{
				"x": 0.3290081024,
				"y": 2.3571771492,
				"z": -1.3681884377,
				"element": "C" 
			},
			{
				"x": 0.096176117,
				"y": 2.2641438923,
				"z": -2.8705654406,
				"element": "C" 
			},
			{
				"x": -1.1543549344,
				"y": 1.6409587167,
				"z": -3.1753817835,
				"element": "O" 
			},
			{
				"x": 0.4338457505,
				"y": 0.8943302966,
				"z": 0.5535714049,
				"element": "C" 
			},
			{
				"x": 0.7179931791,
				"y": 1.8371176476,
				"z": 1.2752541141,
				"element": "O" 
			},
			{
				"x": 0.3245976571,
				"y": -0.3901061832,
				"z": 0.9728432842,
				"element": "O" 
			},
			{
				"x": 0.4794006845,
				"y": -0.5846855754,
				"z": 2.3959265968,
				"element": "C" 
			},
			{
				"x": 0.110552372,
				"y": -2.0075115054,
				"z": 2.7288963928,
				"element": "C" 
			},
			{
				"x": -1.0707097556,
				"y": -2.5774936174,
				"z": 2.2336879705,
				"element": "C" 
			},
			{
				"x": -1.4217506595,
				"y": -3.8808720928,
				"z": 2.5824187398,
				"element": "C" 
			},
			{
				"x": -0.6047361899,
				"y": -4.626786192,
				"z": 3.4364944447,
				"element": "C" 
			},
			{
				"x": 0.5709181626,
				"y": -4.0646582238,
				"z": 3.9341665438,
				"element": "C" 
			},
			{
				"x": 0.928218787,
				"y": -2.7629923494,
				"z": 3.5757404412,
				"element": "C" 
			},
			{
				"x": -2.8940184978,
				"y": 2.3301198937,
				"z": -2.3101277279,
				"element": "H" 
			},
			{
				"x": -4.2157982982,
				"y": 1.6764299782,
				"z": -1.341362958,
				"element": "H" 
			},
			{
				"x": -1.5005039425,
				"y": -0.383612687,
				"z": -3.3518347628,
				"element": "H" 
			},
			{
				"x": 0.6390589779,
				"y": -0.3774577918,
				"z": -2.3176388781,
				"element": "H" 
			},
			{
				"x": -0.4933402049,
				"y": -0.9327751053,
				"z": -1.0796900182,
				"element": "H" 
			},
			{
				"x": -0.4034768586,
				"y": 3.0341186037,
				"z": -0.9114723829,
				"element": "H" 
			},
			{
				"x": 1.3223896905,
				"y": 2.773282979,
				"z": -1.1614453877,
				"element": "H" 
			},
			{
				"x": 0.0465173237,
				"y": 3.2644264552,
				"z": -3.3076750629,
				"element": "H" 
			},
			{
				"x": 0.9187808734,
				"y": 1.7268842446,
				"z": -3.3621997573,
				"element": "H" 
			},
			{
				"x": -0.1628732547,
				"y": 0.1355387852,
				"z": 2.9141473845,
				"element": "H" 
			},
			{
				"x": 1.5126386414,
				"y": -0.3627594475,
				"z": 2.6807937362,
				"element": "H" 
			},
			{
				"x": -1.7054928738,
				"y": -2.0040621954,
				"z": 1.5641893695,
				"element": "H" 
			},
			{
				"x": -2.3360864132,
				"y": -4.3144890835,
				"z": 2.1874444045,
				"element": "H" 
			},
			{
				"x": -0.8822064978,
				"y": -5.6412769636,
				"z": 3.7085230665,
				"element": "H" 
			},
			{
				"x": 1.2151760063,
				"y": -4.6395102772,
				"z": 4.5934671644,
				"element": "H" 
			},
			{
				"x": 1.8508872198,
				"y": -2.331657566,
				"z": 3.9567120332,
				"element": "H" 
			}
		],
		 "valence_orbital": [ 
			{
				"type": "occ",
				"energy": -0.24768,
				"method": "rhf"
			},
			{
				"type": "occ",
				"energy": -0.24496,
				"method": "rhf"
			},
			{
				"type": "occ",
				"energy": -0.23892,
				"method": "rhf"
			},
			{
				"type": "occ",
				"energy": -0.23305,
				"method": "rhf"
			},
			{
				"type": "occ",
				"energy": -0.21339,
				"method": "rhf"
			},
			{
				"type": "unocc",
				"energy": -0.03508,
				"method": "rhf"
			},
			{
				"type": "unocc",
				"energy": -0.00149,
				"method": "rhf"
			},
			{
				"type": "unocc",
				"energy": 0.0042,
				"method": "rhf"
			},
			{
				"type": "unocc",
				"energy": 0.04894,
				"method": "rhf"
			},
			{
				"type": "unocc",
				"energy": 0.06161,
				"method": "rhf"
			}
		],
		"cosmo_sigma_profile": { 
			"-0.025": 0.0,
			"-0.024": 0.0,
			"-0.023": 0.0,
			"-0.022": 0.0,
			"-0.021": 0.0,
			"-0.02": 0.0,
			"-0.019": 0.0,
			"-0.018": 0.0,
			"-0.017": 0.0,
			"-0.016": 0.101852512906,
			"-0.015": 1.16283318015,
			"-0.014": 1.40106767016,
			"-0.013": 1.58992128604,
			"-0.012": 2.42451657582,
			"-0.011": 2.2166136557,
			"-0.01": 1.6709779131,
			"-0.009": 0.846776904369,
			"-0.008": 1.17031140185,
			"-0.007": 10.1271389097,
			"-0.006": 23.454528703,
			"-0.005": 31.0808075554,
			"-0.004": 25.9028589779,
			"-0.003": 21.2230191966,
			"-0.002": 17.5881065203,
			"-0.001": 19.3718142189,
			"0.0": 18.1442467282,
			"0.001": 15.2813529271,
			"0.002": 16.0722755957,
			"0.003": 19.0420754668,
			"0.004": 18.0289779358,
			"0.005": 16.4378889634,
			"0.006": 12.6006345073,
			"0.007": 6.43093260661,
			"0.008": 6.28163120032,
			"0.009": 6.76248518287,
			"0.01": 5.91840075678,
			"0.011": 5.04408956662,
			"0.012": 3.50042015546,
			"0.013": 5.08468429707,
			"0.014": 1.59980176715,
			"0.015": 0.0,
			"0.016": 0.0,
			"0.017": 0.0,
			"0.018": 0.0,
			"0.019": 0.0,
			"0.02": 0.0,
			"0.021": 0.0,
			"0.022": 0.0,
			"0.023": 0.0,
			"0.024": 0.0,
			"0.025": 0.0
		}
	}
}
