{
	 "smiles": "CC(=O)CS(C)(=O)=O", 
	 "Tm": 327.15, 
	 "num_atms": 16, 
	 "gaussian": { 
		 "optdone": 1, 
		 "sigma_profile": "yes", 
		 "theory": "DFT", 
		 "functional": "B3LYP", 
		 "basiset": "6-31G**", 
		 "properties": { 
			 "R2extent": 1169.5085, 
			 "electric_dipole_moment_norm": 2.56717345733, 
			 "electric_quadrupole_moment_norm": 15.0262952091, 
			 "total_energy": -781.04190323, 
			 "HOMO_LUMO_gap": 0.21981, 
			 "cosmo_polarized_energy": -15.53, 
			 "cosmo_cavitation_energy": 20.9, 
			 "cosmo_dispersion_energy": -15.65, 
			 "cosmo_repulsion_energy": 1.25, 
			 "cosmo_total_nonelectrostatic_energy": 6.5, 
			 "SMD_solvation_energy": 4.22 
		},
		"coords": [
			{
				"x": 2.0423474244,
				"y": -0.7537507344,
				"z": -1.5252762776,
				"element": "C" 
			},
			{
				"x": 1.4653224125,
				"y": 0.1855711968,
				"z": -0.4975342729,
				"element": "C" 
			},
			{
				"x": 1.9656475638,
				"y": 0.3760496955,
				"z": 0.5953105518,
				"element": "O" 
			},
			{
				"x": 0.1505461472,
				"y": 0.8800169026,
				"z": -0.8592553338,
				"element": "C" 
			},
			{
				"x": -1.2840997495,
				"y": -0.0180621771,
				"z": -0.1516913789,
				"element": "S" 
			},
			{
				"x": -1.1377330677,
				"y": 0.2849176122,
				"z": 1.6213916311,
				"element": "C" 
			},
			{
				"x": -1.0567442306,
				"y": -1.4518584313,
				"z": -0.3977695929,
				"element": "O" 
			},
			{
				"x": -2.4988292645,
				"y": 0.643176795,
				"z": -0.645952561,
				"element": "O" 
			},
			{
				"x": 2.229214492,
				"y": -0.2280165551,
				"z": -2.468880339,
				"element": "H" 
			},
			{
				"x": 2.9678573605,
				"y": -1.1934037634,
				"z": -1.1523736997,
				"element": "H" 
			},
			{
				"x": 1.3056061028,
				"y": -1.5397628642,
				"z": -1.7295898352,
				"element": "H" 
			},
			{
				"x": -0.0558502657,
				"y": 0.8951995974,
				"z": -1.9322616478,
				"element": "H" 
			},
			{
				"x": 0.1276374022,
				"y": 1.8962020139,
				"z": -0.4596658865,
				"element": "H" 
			},
			{
				"x": -1.8728824014,
				"y": -0.3657482487,
				"z": 2.0983108703,
				"element": "H" 
			},
			{
				"x": -1.3681769372,
				"y": 1.3325617883,
				"z": 1.8187901787,
				"element": "H" 
			},
			{
				"x": -0.1257629888,
				"y": 0.0371071727,
				"z": 1.9430475936,
				"element": "H" 
			}
		],
		 "valence_orbital": [ 
			{
				"type": "occ",
				"energy": -0.33425,
				"method": "rhf"
			},
			{
				"type": "occ",
				"energy": -0.32278,
				"method": "rhf"
			},
			{
				"type": "occ",
				"energy": -0.30594,
				"method": "rhf"
			},
			{
				"type": "occ",
				"energy": -0.29828,
				"method": "rhf"
			},
			{
				"type": "occ",
				"energy": -0.27063,
				"method": "rhf"
			},
			{
				"type": "unocc",
				"energy": -0.05082,
				"method": "rhf"
			},
			{
				"type": "unocc",
				"energy": 0.05661,
				"method": "rhf"
			},
			{
				"type": "unocc",
				"energy": 0.06377,
				"method": "rhf"
			},
			{
				"type": "unocc",
				"energy": 0.0802,
				"method": "rhf"
			},
			{
				"type": "unocc",
				"energy": 0.09009,
				"method": "rhf"
			}
		],
		"cosmo_sigma_profile": { 
			"-0.025": 0.0,
			"-0.024": 0.0,
			"-0.023": 0.0,
			"-0.022": 0.0,
			"-0.021": 0.0,
			"-0.02": 0.0,
			"-0.019": 0.0,
			"-0.018": 0.0,
			"-0.017": 0.0,
			"-0.016": 0.0,
			"-0.015": 0.0,
			"-0.014": 0.0,
			"-0.013": 0.0,
			"-0.012": 0.350829457196,
			"-0.011": 0.990887212469,
			"-0.01": 2.94682328767,
			"-0.009": 8.21291461352,
			"-0.008": 9.01416636858,
			"-0.007": 9.61045067213,
			"-0.006": 10.7325098826,
			"-0.005": 12.6583926824,
			"-0.004": 13.1840732278,
			"-0.003": 10.7623977599,
			"-0.002": 10.6625242136,
			"-0.001": 7.0366398881,
			"0.0": 4.36692737138,
			"0.001": 4.84229206828,
			"0.002": 4.15123399152,
			"0.003": 3.816261073,
			"0.004": 2.9135992197,
			"0.005": 2.80459671188,
			"0.006": 3.30629151247,
			"0.007": 4.90791668692,
			"0.008": 3.65483839459,
			"0.009": 5.07272834554,
			"0.01": 8.11702501467,
			"0.011": 13.1024219904,
			"0.012": 7.50442604489,
			"0.013": 0.196248976733,
			"0.014": 0.0,
			"0.015": 0.0,
			"0.016": 0.0,
			"0.017": 0.0,
			"0.018": 0.0,
			"0.019": 0.0,
			"0.02": 0.0,
			"0.021": 0.0,
			"0.022": 0.0,
			"0.023": 0.0,
			"0.024": 0.0,
			"0.025": 0.0
		}
	}
}
