{
	 "smiles": "OC(=O)C1=CC(=C(NC2=CC=CC=C2)C=C1)[N+]([O-])=O", 
	 "Tm": 524.15, 
	 "num_atms": 29, 
	 "gaussian": { 
		 "optdone": 1, 
		 "sigma_profile": "yes", 
		 "theory": "DFT", 
		 "functional": "B3LYP", 
		 "basiset": "6-31G**", 
		 "properties": { 
			 "R2extent": 6218.6959, 
			 "electric_dipole_moment_norm": 5.32419054975, 
			 "electric_quadrupole_moment_norm": 21.6047561581, 
			 "total_energy": -911.708688799, 
			 "HOMO_LUMO_gap": 0.13146, 
			 "cosmo_polarized_energy": -23.53, 
			 "cosmo_cavitation_energy": 34.45, 
			 "cosmo_dispersion_energy": -24.53, 
			 "cosmo_repulsion_energy": 1.86, 
			 "cosmo_total_nonelectrostatic_energy": 11.77, 
			 "SMD_solvation_energy": 8.99 
		},
		"coords": [
			{
				"x": -3.2789163376,
				"y": 4.3554004124,
				"z": -1.2381147881,
				"element": "O" 
			},
			{
				"x": -3.3068912293,
				"y": 3.5792016326,
				"z": -0.1235459438,
				"element": "C" 
			},
			{
				"x": -4.1315481984,
				"y": 3.7866850311,
				"z": 0.7367782199,
				"element": "O" 
			},
			{
				"x": -2.2924198433,
				"y": 2.486240165,
				"z": -0.0233762848,
				"element": "C" 
			},
			{
				"x": -1.1402045687,
				"y": 2.4222177261,
				"z": -0.7987878515,
				"element": "C" 
			},
			{
				"x": -0.2102388681,
				"y": 1.3913227859,
				"z": -0.6358493402,
				"element": "C" 
			},
			{
				"x": -0.437157043,
				"y": 0.3307515722,
				"z": 0.2796071696,
				"element": "C" 
			},
			{
				"x": 0.351528901,
				"y": -0.7807124126,
				"z": 0.46559153,
				"element": "N" 
			},
			{
				"x": 1.1152016294,
				"y": -1.5293561545,
				"z": -0.4612382061,
				"element": "C" 
			},
			{
				"x": 2.1207268282,
				"y": -2.3641619738,
				"z": 0.0439684149,
				"element": "C" 
			},
			{
				"x": 2.8504658568,
				"y": -3.1807399213,
				"z": -0.8165785504,
				"element": "C" 
			},
			{
				"x": 2.595176688,
				"y": -3.1668593291,
				"z": -2.1891321875,
				"element": "C" 
			},
			{
				"x": 1.5927970179,
				"y": -2.3347083936,
				"z": -2.6905619775,
				"element": "C" 
			},
			{
				"x": 0.8462610064,
				"y": -1.5258807792,
				"z": -1.8360331552,
				"element": "C" 
			},
			{
				"x": -1.5990821557,
				"y": 0.4462625934,
				"z": 1.0868149348,
				"element": "C" 
			},
			{
				"x": -2.4862838403,
				"y": 1.4927402983,
				"z": 0.9568999111,
				"element": "C" 
			},
			{
				"x": 1.0472315837,
				"y": 1.5552575187,
				"z": -1.3678495296,
				"element": "N" 
			},
			{
				"x": 2.0625002609,
				"y": 1.0595021903,
				"z": -0.8841900916,
				"element": "O" 
			},
			{
				"x": 1.0180475561,
				"y": 2.2171266579,
				"z": -2.4097923405,
				"element": "O" 
			},
			{
				"x": -2.6831593582,
				"y": 3.9834191725,
				"z": -1.9027343115,
				"element": "H" 
			},
			{
				"x": -0.8770656762,
				"y": 3.1900470181,
				"z": -1.518121016,
				"element": "H" 
			},
			{
				"x": 0.1579209055,
				"y": -1.2742889105,
				"z": 1.3258467804,
				"element": "H" 
			},
			{
				"x": 2.3350013958,
				"y": -2.3585351533,
				"z": 1.1093790882,
				"element": "H" 
			},
			{
				"x": 3.6280115557,
				"y": -3.8218375047,
				"z": -0.4119254068,
				"element": "H" 
			},
			{
				"x": 3.1704865633,
				"y": -3.796839731,
				"z": -2.8601203365,
				"element": "H" 
			},
			{
				"x": 1.3790826685,
				"y": -2.3194818114,
				"z": -3.7551375163,
				"element": "H" 
			},
			{
				"x": 0.0514950432,
				"y": -0.9050068478,
				"z": -2.2369313435,
				"element": "H" 
			},
			{
				"x": -1.7985328703,
				"y": -0.3410811841,
				"z": 1.8091253632,
				"element": "H" 
			},
			{
				"x": -3.3654354713,
				"y": 1.5584153326,
				"z": 1.5886087653,
				"element": "H" 
			}
		],
		 "valence_orbital": [ 
			{
				"type": "occ",
				"energy": -0.28608,
				"method": "rhf"
			},
			{
				"type": "occ",
				"energy": -0.28023,
				"method": "rhf"
			},
			{
				"type": "occ",
				"energy": -0.27456,
				"method": "rhf"
			},
			{
				"type": "occ",
				"energy": -0.2638,
				"method": "rhf"
			},
			{
				"type": "occ",
				"energy": -0.2239,
				"method": "rhf"
			},
			{
				"type": "unocc",
				"energy": -0.09244,
				"method": "rhf"
			},
			{
				"type": "unocc",
				"energy": -0.0614,
				"method": "rhf"
			},
			{
				"type": "unocc",
				"energy": -0.02212,
				"method": "rhf"
			},
			{
				"type": "unocc",
				"energy": -0.01497,
				"method": "rhf"
			},
			{
				"type": "unocc",
				"energy": -0.00391,
				"method": "rhf"
			}
		],
		"cosmo_sigma_profile": { 
			"-0.025": 0.0,
			"-0.024": 0.0,
			"-0.023": 0.0,
			"-0.022": 0.0,
			"-0.021": 0.0,
			"-0.02": 0.143985273768,
			"-0.019": 0.830074037432,
			"-0.018": 0.788246663771,
			"-0.017": 0.903210066739,
			"-0.016": 1.26965344547,
			"-0.015": 2.377374921,
			"-0.014": 3.1726556761,
			"-0.013": 2.57653779868,
			"-0.012": 2.53286391744,
			"-0.011": 2.42499608122,
			"-0.01": 2.66844367007,
			"-0.009": 2.50806733939,
			"-0.008": 3.95457773081,
			"-0.007": 7.81950467462,
			"-0.006": 16.3359540128,
			"-0.005": 16.5885789582,
			"-0.004": 17.3456714358,
			"-0.003": 13.7563777254,
			"-0.002": 15.8547359808,
			"-0.001": 19.1940859581,
			"0.0": 18.1835875722,
			"0.001": 16.0855991785,
			"0.002": 12.2942354276,
			"0.003": 12.1493202302,
			"0.004": 11.6968667022,
			"0.005": 12.1628621344,
			"0.006": 9.0587764881,
			"0.007": 9.47207353073,
			"0.008": 13.919079796,
			"0.009": 8.55838876619,
			"0.01": 8.19411076113,
			"0.011": 5.57920447426,
			"0.012": 4.43387200368,
			"0.013": 1.60435782519,
			"0.014": 0.0422953160517,
			"0.015": 0.0,
			"0.016": 0.0,
			"0.017": 0.0,
			"0.018": 0.0,
			"0.019": 0.0,
			"0.02": 0.0,
			"0.021": 0.0,
			"0.022": 0.0,
			"0.023": 0.0,
			"0.024": 0.0,
			"0.025": 0.0
		}
	}
}
