{
	 "smiles": "[O-][N+](=O)C1=CC(=C(C=C1C(Cl)=CC1=CC=CC=C1)C(Cl)=C/C1=CC=CC=C1)[N+]([O-])=O", 
	 "Tm": 419.15, 
	 "num_atms": 44, 
	 "gaussian": { 
		 "optdone": 1, 
		 "sigma_profile": "yes", 
		 "theory": "DFT", 
		 "functional": "B3LYP", 
		 "basiset": "6-31G**", 
		 "properties": { 
			 "R2extent": 15946.5588, 
			 "electric_dipole_moment_norm": 7.08711547599, 
			 "electric_quadrupole_moment_norm": 19.8076392919, 
			 "total_energy": -2177.31405353, 
			 "HOMO_LUMO_gap": 0.11967, 
			 "cosmo_polarized_energy": -16.87, 
			 "cosmo_cavitation_energy": 54.57, 
			 "cosmo_dispersion_energy": -34.78, 
			 "cosmo_repulsion_energy": 2.62, 
			 "cosmo_total_nonelectrostatic_energy": 22.41, 
			 "SMD_solvation_energy": 12.57 
		},
		"coords": [
			{
				"x": -3.1383298226,
				"y": 0.7136535613,
				"z": -3.3642255418,
				"element": "O" 
			},
			{
				"x": -2.2524666925,
				"y": 0.5537740315,
				"z": -4.198004474,
				"element": "N" 
			},
			{
				"x": -2.4063224065,
				"y": 0.5883097384,
				"z": -5.4169356662,
				"element": "O" 
			},
			{
				"x": -0.8780924407,
				"y": 0.3474226411,
				"z": -3.7000890944,
				"element": "C" 
			},
			{
				"x": 0.1433769032,
				"y": 0.782271843,
				"z": -4.5341074067,
				"element": "C" 
			},
			{
				"x": 1.4565517629,
				"y": 0.7444179699,
				"z": -4.0834221384,
				"element": "C" 
			},
			{
				"x": 1.7896069954,
				"y": 0.2238299203,
				"z": -2.8211837139,
				"element": "C" 
			},
			{
				"x": 0.7307546684,
				"y": -0.2507349094,
				"z": -2.0348276163,
				"element": "C" 
			},
			{
				"x": -0.615617127,
				"y": -0.1801407427,
				"z": -2.4209568396,
				"element": "C" 
			},
			{
				"x": -1.6314951157,
				"y": -0.7054199481,
				"z": -1.4737362823,
				"element": "C" 
			},
			{
				"x": -2.5900861003,
				"y": -2.0388141681,
				"z": -2.1030188864,
				"element": "Cl" 
			},
			{
				"x": -1.6991132997,
				"y": -0.2421516763,
				"z": -0.210420258,
				"element": "C" 
			},
			{
				"x": -2.5237041491,
				"y": -0.5748187322,
				"z": 0.9530528465,
				"element": "C" 
			},
			{
				"x": -2.131026983,
				"y": -0.007470915,
				"z": 2.1837565525,
				"element": "C" 
			},
			{
				"x": -2.8397734554,
				"y": -0.258334985,
				"z": 3.3544082339,
				"element": "C" 
			},
			{
				"x": -3.9715193532,
				"y": -1.0755325049,
				"z": 3.3218745394,
				"element": "C" 
			},
			{
				"x": -4.3837247581,
				"y": -1.6328564359,
				"z": 2.1094242396,
				"element": "C" 
			},
			{
				"x": -3.6728145604,
				"y": -1.3903994993,
				"z": 0.9363399812,
				"element": "C" 
			},
			{
				"x": 3.1679954969,
				"y": 0.0344630082,
				"z": -2.3009133834,
				"element": "C" 
			},
			{
				"x": 4.1554572546,
				"y": -1.0670959836,
				"z": -3.2647303138,
				"element": "Cl" 
			},
			{
				"x": 3.6520695786,
				"y": 0.4948488476,
				"z": -1.1360677168,
				"element": "C" 
			},
			{
				"x": 2.996023838,
				"y": 1.4433480166,
				"z": -0.2197128441,
				"element": "C" 
			},
			{
				"x": 3.1753163234,
				"y": 1.2828812446,
				"z": 1.1662437823,
				"element": "C" 
			},
			{
				"x": 2.5596255893,
				"y": 2.1470880593,
				"z": 2.0695771,
				"element": "C" 
			},
			{
				"x": 1.7684587869,
				"y": 3.2002900929,
				"z": 1.6039877313,
				"element": "C" 
			},
			{
				"x": 1.60954615,
				"y": 3.3905765458,
				"z": 0.2287113129,
				"element": "C" 
			},
			{
				"x": 2.2202762442,
				"y": 2.5243521219,
				"z": -0.6762912772,
				"element": "C" 
			},
			{
				"x": 2.4723172274,
				"y": 1.3508892802,
				"z": -4.9621155395,
				"element": "N" 
			},
			{
				"x": 2.2298233008,
				"y": 1.3826067805,
				"z": -6.1656326075,
				"element": "O" 
			},
			{
				"x": 3.474785641,
				"y": 1.8155615997,
				"z": -4.4244618213,
				"element": "O" 
			},
			{
				"x": -0.0855217963,
				"y": 1.1808672944,
				"z": -5.5134076158,
				"element": "H" 
			},
			{
				"x": 0.9666298298,
				"y": -0.7120222294,
				"z": -1.0836958021,
				"element": "H" 
			},
			{
				"x": -0.9865327656,
				"y": 0.5586056877,
				"z": -0.0163379824,
				"element": "H" 
			},
			{
				"x": -1.2534635971,
				"y": 0.6336519414,
				"z": 2.2137246387,
				"element": "H" 
			},
			{
				"x": -2.5126794373,
				"y": 0.186477519,
				"z": 4.2896447941,
				"element": "H" 
			},
			{
				"x": -4.5309014491,
				"y": -1.2717644067,
				"z": 4.2318614021,
				"element": "H" 
			},
			{
				"x": -5.2693115912,
				"y": -2.2606242526,
				"z": 2.0742100276,
				"element": "H" 
			},
			{
				"x": -4.0185978321,
				"y": -1.8229284879,
				"z": 0.0077814519,
				"element": "H" 
			},
			{
				"x": 4.6299190154,
				"y": 0.1305799103,
				"z": -0.8306692073,
				"element": "H" 
			},
			{
				"x": 3.7920050893,
				"y": 0.4663380173,
				"z": 1.5325257405,
				"element": "H" 
			},
			{
				"x": 2.7029231282,
				"y": 2.0028601237,
				"z": 3.1364885374,
				"element": "H" 
			},
			{
				"x": 1.2953437117,
				"y": 3.8798047491,
				"z": 2.3067209987,
				"element": "H" 
			},
			{
				"x": 1.0215414267,
				"y": 4.2257471568,
				"z": -0.1405794434,
				"element": "H" 
			},
			{
				"x": 2.1312467708,
				"y": 2.7024921746,
				"z": -1.742590438,
				"element": "H" 
			}
		],
		 "valence_orbital": [ 
			{
				"type": "occ",
				"energy": -0.29339,
				"method": "rhf"
			},
			{
				"type": "occ",
				"energy": -0.27084,
				"method": "rhf"
			},
			{
				"type": "occ",
				"energy": -0.26397,
				"method": "rhf"
			},
			{
				"type": "occ",
				"energy": -0.24324,
				"method": "rhf"
			},
			{
				"type": "occ",
				"energy": -0.23742,
				"method": "rhf"
			},
			{
				"type": "unocc",
				"energy": -0.11775,
				"method": "rhf"
			},
			{
				"type": "unocc",
				"energy": -0.09807,
				"method": "rhf"
			},
			{
				"type": "unocc",
				"energy": -0.05992,
				"method": "rhf"
			},
			{
				"type": "unocc",
				"energy": -0.05514,
				"method": "rhf"
			},
			{
				"type": "unocc",
				"energy": -0.04309,
				"method": "rhf"
			}
		],
		"cosmo_sigma_profile": { 
			"-0.025": 0.0,
			"-0.024": 0.0,
			"-0.023": 0.0,
			"-0.022": 0.0,
			"-0.021": 0.0,
			"-0.02": 0.0,
			"-0.019": 0.0,
			"-0.018": 0.0,
			"-0.017": 0.0,
			"-0.016": 0.0,
			"-0.015": 0.0,
			"-0.014": 0.0,
			"-0.013": 0.0,
			"-0.012": 0.0,
			"-0.011": 0.0,
			"-0.01": 0.0,
			"-0.009": 0.918408760401,
			"-0.008": 5.0417737691,
			"-0.007": 9.75663119289,
			"-0.006": 24.9907913893,
			"-0.005": 32.5628578294,
			"-0.004": 41.0224686221,
			"-0.003": 33.898706647,
			"-0.002": 33.4521734362,
			"-0.001": 27.6624473644,
			"0.0": 29.5553562695,
			"0.001": 32.8993460333,
			"0.002": 35.4854122413,
			"0.003": 33.2872694054,
			"0.004": 34.042408891,
			"0.005": 21.1851436898,
			"0.006": 14.7127277411,
			"0.007": 18.7503295735,
			"0.008": 8.89585360249,
			"0.009": 5.26799870424,
			"0.01": 0.262537408795,
			"0.011": 0.0,
			"0.012": 0.0,
			"0.013": 0.0,
			"0.014": 0.0,
			"0.015": 0.0,
			"0.016": 0.0,
			"0.017": 0.0,
			"0.018": 0.0,
			"0.019": 0.0,
			"0.02": 0.0,
			"0.021": 0.0,
			"0.022": 0.0,
			"0.023": 0.0,
			"0.024": 0.0,
			"0.025": 0.0
		}
	}
}
