{
	 "smiles": "OC(=O)C1=C2C=CC=CN2N=C1", 
	 "Tm": 473.15, 
	 "num_atms": 18, 
	 "gaussian": { 
		 "optdone": 1, 
		 "sigma_profile": "yes", 
		 "theory": "DFT", 
		 "functional": "B3LYP", 
		 "basiset": "6-31G**", 
		 "properties": { 
			 "R2extent": 2241.0377, 
			 "electric_dipole_moment_norm": 2.0607179283, 
			 "electric_quadrupole_moment_norm": 13.9257375722, 
			 "total_energy": -568.415303062, 
			 "HOMO_LUMO_gap": 0.17396, 
			 "cosmo_polarized_energy": -11.68, 
			 "cosmo_cavitation_energy": 23.02, 
			 "cosmo_dispersion_energy": -17.24, 
			 "cosmo_repulsion_energy": 1.35, 
			 "cosmo_total_nonelectrostatic_energy": 7.12, 
			 "SMD_solvation_energy": 4.59 
		},
		"coords": [
			{
				"x": 1.766980296,
				"y": -1.0603529674,
				"z": 2.3392955443,
				"element": "O" 
			},
			{
				"x": 1.7268416721,
				"y": 0.096627206,
				"z": 1.6249796097,
				"element": "C" 
			},
			{
				"x": 2.6225292361,
				"y": 0.9241812296,
				"z": 1.6844248112,
				"element": "O" 
			},
			{
				"x": 0.5271331314,
				"y": 0.2121638931,
				"z": 0.8134627214,
				"element": "C" 
			},
			{
				"x": 0.2149460629,
				"y": 1.2975520487,
				"z": -0.0276281686,
				"element": "C" 
			},
			{
				"x": 0.8198622779,
				"y": 2.5228540434,
				"z": -0.3845843144,
				"element": "C" 
			},
			{
				"x": 0.1739622841,
				"y": 3.3481268872,
				"z": -1.2768856998,
				"element": "C" 
			},
			{
				"x": -1.0813992539,
				"y": 2.9747834315,
				"z": -1.8309760879,
				"element": "C" 
			},
			{
				"x": -1.660353043,
				"y": 1.7850337322,
				"z": -1.4791914367,
				"element": "C" 
			},
			{
				"x": -1.0117332342,
				"y": 0.9734526705,
				"z": -0.5933903888,
				"element": "N" 
			},
			{
				"x": -1.4928825011,
				"y": -0.2318127613,
				"z": -0.1717851806,
				"element": "N" 
			},
			{
				"x": -0.5605315957,
				"y": -0.6747895867,
				"z": 0.6696026756,
				"element": "C" 
			},
			{
				"x": 2.6006674828,
				"y": -1.0301092431,
				"z": 2.8364872316,
				"element": "H" 
			},
			{
				"x": 1.7759984411,
				"y": 2.7665200677,
				"z": 0.061718317,
				"element": "H" 
			},
			{
				"x": 0.6228037595,
				"y": 4.2936748333,
				"z": -1.5634597885,
				"element": "H" 
			},
			{
				"x": -1.5924416144,
				"y": 3.6223176445,
				"z": -2.533721085,
				"element": "H" 
			},
			{
				"x": -2.6085630603,
				"y": 1.4117810882,
				"z": -1.8432401686,
				"element": "H" 
			},
			{
				"x": -0.6935203414,
				"y": -1.6306042177,
				"z": 1.1577914082,
				"element": "H" 
			}
		],
		 "valence_orbital": [ 
			{
				"type": "occ",
				"energy": -0.30637,
				"method": "rhf"
			},
			{
				"type": "occ",
				"energy": -0.30577,
				"method": "rhf"
			},
			{
				"type": "occ",
				"energy": -0.26911,
				"method": "rhf"
			},
			{
				"type": "occ",
				"energy": -0.26807,
				"method": "rhf"
			},
			{
				"type": "occ",
				"energy": -0.22295,
				"method": "rhf"
			},
			{
				"type": "unocc",
				"energy": -0.04899,
				"method": "rhf"
			},
			{
				"type": "unocc",
				"energy": -0.02064,
				"method": "rhf"
			},
			{
				"type": "unocc",
				"energy": 0.00324,
				"method": "rhf"
			},
			{
				"type": "unocc",
				"energy": 0.08289,
				"method": "rhf"
			},
			{
				"type": "unocc",
				"energy": 0.08648,
				"method": "rhf"
			}
		],
		"cosmo_sigma_profile": { 
			"-0.025": 0.0,
			"-0.024": 0.0,
			"-0.023": 0.0,
			"-0.022": 0.0,
			"-0.021": 0.0,
			"-0.02": 0.0,
			"-0.019": 0.0,
			"-0.018": 0.271464333302,
			"-0.017": 1.13148983683,
			"-0.016": 0.816314068507,
			"-0.015": 0.87720872421,
			"-0.014": 0.302896485102,
			"-0.013": 0.355303236583,
			"-0.012": 0.793010294897,
			"-0.011": 0.968978574066,
			"-0.01": 1.9332172622,
			"-0.009": 2.79661590128,
			"-0.008": 5.319175558,
			"-0.007": 8.57427166229,
			"-0.006": 10.9355895646,
			"-0.005": 7.59377558101,
			"-0.004": 7.29598469675,
			"-0.003": 6.8780646903,
			"-0.002": 9.74748067348,
			"-0.001": 15.3107668605,
			"0.0": 16.116953895,
			"0.001": 21.9925476908,
			"0.002": 18.6971290625,
			"0.003": 6.31902870255,
			"0.004": 5.41676425784,
			"0.005": 4.4802562307,
			"0.006": 4.21909308518,
			"0.007": 3.82843703277,
			"0.008": 4.34144753919,
			"0.009": 3.64595633446,
			"0.01": 2.18510458266,
			"0.011": 4.17189579772,
			"0.012": 4.55645727323,
			"0.013": 2.63015848747,
			"0.014": 0.771824626559,
			"0.015": 0.275628874522,
			"0.016": 0.0,
			"0.017": 0.0,
			"0.018": 0.0,
			"0.019": 0.0,
			"0.02": 0.0,
			"0.021": 0.0,
			"0.022": 0.0,
			"0.023": 0.0,
			"0.024": 0.0,
			"0.025": 0.0
		}
	}
}
