{
	 "smiles": "COC1=CC=C(C=C1)C(=O)CC(=O)C(F)(F)F", 
	 "Tm": 330.65, 
	 "num_atms": 26, 
	 "gaussian": { 
		 "optdone": 1, 
		 "sigma_profile": "yes", 
		 "theory": "DFT", 
		 "functional": "B3LYP", 
		 "basiset": "6-31G**", 
		 "properties": { 
			 "R2extent": 5991.6302, 
			 "electric_dipole_moment_norm": 4.11719769989, 
			 "electric_quadrupole_moment_norm": 14.7915778327, 
			 "total_energy": -949.763782899, 
			 "HOMO_LUMO_gap": 0.16394, 
			 "cosmo_polarized_energy": -11.37, 
			 "cosmo_cavitation_energy": 32.52, 
			 "cosmo_dispersion_energy": -22.54, 
			 "cosmo_repulsion_energy": 1.69, 
			 "cosmo_total_nonelectrostatic_energy": 11.66, 
			 "SMD_solvation_energy": 8.59 
		},
		"coords": [
			{
				"x": 1.2105747361,
				"y": 3.5428383751,
				"z": 2.9811222097,
				"element": "C" 
			},
			{
				"x": 0.1981594932,
				"y": 2.5491476406,
				"z": 2.8723838884,
				"element": "O" 
			},
			{
				"x": 0.4879915344,
				"y": 1.3903294711,
				"z": 2.2312491121,
				"element": "C" 
			},
			{
				"x": -0.5605784455,
				"y": 0.4576362987,
				"z": 2.1569789713,
				"element": "C" 
			},
			{
				"x": -0.3679866288,
				"y": -0.7609064888,
				"z": 1.5258316904,
				"element": "C" 
			},
			{
				"x": 0.8771409774,
				"y": -1.0804086252,
				"z": 0.9478353867,
				"element": "C" 
			},
			{
				"x": 1.9147972399,
				"y": -0.1371795969,
				"z": 1.02678489,
				"element": "C" 
			},
			{
				"x": 1.7346678799,
				"y": 1.0866523561,
				"z": 1.6587529007,
				"element": "C" 
			},
			{
				"x": 1.162087921,
				"y": -2.3644037354,
				"z": 0.2638379187,
				"element": "C" 
			},
			{
				"x": 2.2511286869,
				"y": -2.6184300333,
				"z": -0.2230557731,
				"element": "O" 
			},
			{
				"x": 0.0472737749,
				"y": -3.4435885089,
				"z": 0.1926208672,
				"element": "C" 
			},
			{
				"x": -1.0737012479,
				"y": -3.1076700317,
				"z": -0.7700176356,
				"element": "C" 
			},
			{
				"x": -2.1669036503,
				"y": -2.7036404993,
				"z": -0.4474592582,
				"element": "O" 
			},
			{
				"x": -0.7487149435,
				"y": -3.3010489341,
				"z": -2.2737804638,
				"element": "C" 
			},
			{
				"x": 0.224662255,
				"y": -2.4422649142,
				"z": -2.637057788,
				"element": "F" 
			},
			{
				"x": -0.305858339,
				"y": -4.5559612692,
				"z": -2.4986556635,
				"element": "F" 
			},
			{
				"x": -1.8193988055,
				"y": -3.0840754236,
				"z": -3.0378191441,
				"element": "F" 
			},
			{
				"x": 1.5389534481,
				"y": 3.8914282833,
				"z": 1.994526935,
				"element": "H" 
			},
			{
				"x": 2.077444313,
				"y": 3.1736930864,
				"z": 3.5424569993,
				"element": "H" 
			},
			{
				"x": 0.7566795062,
				"y": 4.3727083843,
				"z": 3.523837539,
				"element": "H" 
			},
			{
				"x": -1.515238279,
				"y": 0.7174853704,
				"z": 2.6015696011,
				"element": "H" 
			},
			{
				"x": -1.19996445,
				"y": -1.4540292824,
				"z": 1.4679453296,
				"element": "H" 
			},
			{
				"x": 2.8700399473,
				"y": -0.389383786,
				"z": 0.5786054555,
				"element": "H" 
			},
			{
				"x": 2.5556144037,
				"y": 1.7921006474,
				"z": 1.7028825639,
				"element": "H" 
			},
			{
				"x": -0.4011145548,
				"y": -3.5942290321,
				"z": 1.1774091579,
				"element": "H" 
			},
			{
				"x": 0.5459432273,
				"y": -4.3580997523,
				"z": -0.1337856904,
				"element": "H" 
			}
		],
		 "valence_orbital": [ 
			{
				"type": "occ",
				"energy": -0.33112,
				"method": "rhf"
			},
			{
				"type": "occ",
				"energy": -0.28838,
				"method": "rhf"
			},
			{
				"type": "occ",
				"energy": -0.269,
				"method": "rhf"
			},
			{
				"type": "occ",
				"energy": -0.25866,
				"method": "rhf"
			},
			{
				"type": "occ",
				"energy": -0.23793,
				"method": "rhf"
			},
			{
				"type": "unocc",
				"energy": -0.07399,
				"method": "rhf"
			},
			{
				"type": "unocc",
				"energy": -0.04854,
				"method": "rhf"
			},
			{
				"type": "unocc",
				"energy": -0.01643,
				"method": "rhf"
			},
			{
				"type": "unocc",
				"energy": 0.0398,
				"method": "rhf"
			},
			{
				"type": "unocc",
				"energy": 0.08453,
				"method": "rhf"
			}
		],
		"cosmo_sigma_profile": { 
			"-0.025": 0.0,
			"-0.024": 0.0,
			"-0.023": 0.0,
			"-0.022": 0.0,
			"-0.021": 0.0,
			"-0.02": 0.0,
			"-0.019": 0.0,
			"-0.018": 0.0,
			"-0.017": 0.0,
			"-0.016": 0.0,
			"-0.015": 0.0,
			"-0.014": 0.0,
			"-0.013": 0.0,
			"-0.012": 0.0,
			"-0.011": 0.0,
			"-0.01": 0.0,
			"-0.009": 0.57433395406,
			"-0.008": 3.83996098731,
			"-0.007": 9.89162953264,
			"-0.006": 20.976869685,
			"-0.005": 21.4386374988,
			"-0.004": 17.5721813805,
			"-0.003": 15.6554684978,
			"-0.002": 13.0057429053,
			"-0.001": 11.8646626659,
			"0.0": 14.9567198463,
			"0.001": 26.3047600347,
			"0.002": 38.2634802713,
			"0.003": 20.2729904654,
			"0.004": 8.71312712313,
			"0.005": 5.78645702527,
			"0.006": 5.12673017224,
			"0.007": 5.30627623853,
			"0.008": 5.46719671905,
			"0.009": 6.45022116109,
			"0.01": 3.19494844148,
			"0.011": 3.7163463424,
			"0.012": 1.78869475397,
			"0.013": 0.0621314807045,
			"0.014": 0.0,
			"0.015": 0.0,
			"0.016": 0.0,
			"0.017": 0.0,
			"0.018": 0.0,
			"0.019": 0.0,
			"0.02": 0.0,
			"0.021": 0.0,
			"0.022": 0.0,
			"0.023": 0.0,
			"0.024": 0.0,
			"0.025": 0.0
		}
	}
}
