{
	 "smiles": "CN(CC1=CC=CC=C1)C1=NC=C(C=C1)[N+]([O-])=O", 
	 "Tm": 330.15, 
	 "num_atms": 31, 
	 "gaussian": { 
		 "optdone": 1, 
		 "sigma_profile": "yes", 
		 "theory": "DFT", 
		 "functional": "B3LYP", 
		 "basiset": "6-31G**", 
		 "properties": { 
			 "R2extent": 7210.3348, 
			 "electric_dipole_moment_norm": 7.20002492079, 
			 "electric_quadrupole_moment_norm": 28.0406012464, 
			 "total_energy": -817.821252776, 
			 "HOMO_LUMO_gap": 0.15095, 
			 "cosmo_polarized_energy": -13.36, 
			 "cosmo_cavitation_energy": 35.34, 
			 "cosmo_dispersion_energy": -25.09, 
			 "cosmo_repulsion_energy": 1.93, 
			 "cosmo_total_nonelectrostatic_energy": 12.18, 
			 "SMD_solvation_energy": 7.52 
		},
		"coords": [
			{
				"x": 1.2592233005,
				"y": 1.1681932572,
				"z": 3.8033539738,
				"element": "C" 
			},
			{
				"x": 0.3449251457,
				"y": 1.0412865055,
				"z": 2.671181656,
				"element": "N" 
			},
			{
				"x": 0.4598535905,
				"y": 2.0369393777,
				"z": 1.6140700918,
				"element": "C" 
			},
			{
				"x": 1.1754080094,
				"y": 1.5819939508,
				"z": 0.3456573117,
				"element": "C" 
			},
			{
				"x": 1.9024026149,
				"y": 0.389695094,
				"z": 0.2875848642,
				"element": "C" 
			},
			{
				"x": 2.5722554965,
				"y": 0.024851859,
				"z": -0.8830988035,
				"element": "C" 
			},
			{
				"x": 2.5226238515,
				"y": 0.8480599151,
				"z": -2.0077664703,
				"element": "C" 
			},
			{
				"x": 1.7955481916,
				"y": 2.0402211236,
				"z": -1.9581177195,
				"element": "C" 
			},
			{
				"x": 1.1261987418,
				"y": 2.4020361372,
				"z": -0.790039416,
				"element": "C" 
			},
			{
				"x": -0.6715239514,
				"y": 0.1233296769,
				"z": 2.6771993209,
				"element": "C" 
			},
			{
				"x": -0.8024694098,
				"y": -0.6355024049,
				"z": 3.7896765495,
				"element": "N" 
			},
			{
				"x": -1.7843578111,
				"y": -1.5279548777,
				"z": 3.8454697714,
				"element": "C" 
			},
			{
				"x": -2.6956819922,
				"y": -1.7157920913,
				"z": 2.8062051116,
				"element": "C" 
			},
			{
				"x": -2.5639081168,
				"y": -0.9547720646,
				"z": 1.6385605891,
				"element": "C" 
			},
			{
				"x": -1.5437425158,
				"y": -0.030810102,
				"z": 1.561094795,
				"element": "C" 
			},
			{
				"x": -3.7547394376,
				"y": -2.6969779922,
				"z": 2.9287946289,
				"element": "N" 
			},
			{
				"x": -4.5304227922,
				"y": -2.8256351648,
				"z": 1.9767128786,
				"element": "O" 
			},
			{
				"x": -3.8207696667,
				"y": -3.3466099565,
				"z": 3.9764405067,
				"element": "O" 
			},
			{
				"x": 2.2763827385,
				"y": 1.3247466434,
				"z": 3.4313344047,
				"element": "H" 
			},
			{
				"x": 1.2219000893,
				"y": 0.2601439233,
				"z": 4.4005967867,
				"element": "H" 
			},
			{
				"x": 0.9853287157,
				"y": 2.0173946277,
				"z": 4.4436972703,
				"element": "H" 
			},
			{
				"x": -0.5369731229,
				"y": 2.4165642614,
				"z": 1.3571874556,
				"element": "H" 
			},
			{
				"x": 0.998829871,
				"y": 2.8908088355,
				"z": 2.040480956,
				"element": "H" 
			},
			{
				"x": 1.9369266634,
				"y": -0.25937929,
				"z": 1.1570855653,
				"element": "H" 
			},
			{
				"x": 3.1305225328,
				"y": -0.9064735269,
				"z": -0.9140649799,
				"element": "H" 
			},
			{
				"x": 3.0418929112,
				"y": 0.5627902687,
				"z": -2.9179165305,
				"element": "H" 
			},
			{
				"x": 1.746126396,
				"y": 2.6855898698,
				"z": -2.8305100449,
				"element": "H" 
			},
			{
				"x": 0.5592744173,
				"y": 3.3303773169,
				"z": -0.7598170354,
				"element": "H" 
			},
			{
				"x": -1.8673263749,
				"y": -2.1253113023,
				"z": 4.748420007,
				"element": "H" 
			},
			{
				"x": -3.2540301465,
				"y": -1.1123286621,
				"z": 0.8184194555,
				"element": "H" 
			},
			{
				"x": -1.3974779397,
				"y": 0.5372247917,
				"z": 0.6520070494,
				"element": "H" 
			}
		],
		 "valence_orbital": [ 
			{
				"type": "occ",
				"energy": -0.27787,
				"method": "rhf"
			},
			{
				"type": "occ",
				"energy": -0.27054,
				"method": "rhf"
			},
			{
				"type": "occ",
				"energy": -0.2622,
				"method": "rhf"
			},
			{
				"type": "occ",
				"energy": -0.25591,
				"method": "rhf"
			},
			{
				"type": "occ",
				"energy": -0.22562,
				"method": "rhf"
			},
			{
				"type": "unocc",
				"energy": -0.07467,
				"method": "rhf"
			},
			{
				"type": "unocc",
				"energy": -0.03536,
				"method": "rhf"
			},
			{
				"type": "unocc",
				"energy": -0.01543,
				"method": "rhf"
			},
			{
				"type": "unocc",
				"energy": -0.01244,
				"method": "rhf"
			},
			{
				"type": "unocc",
				"energy": 0.01609,
				"method": "rhf"
			}
		],
		"cosmo_sigma_profile": { 
			"-0.025": 0.0,
			"-0.024": 0.0,
			"-0.023": 0.0,
			"-0.022": 0.0,
			"-0.021": 0.0,
			"-0.02": 0.0,
			"-0.019": 0.0,
			"-0.018": 0.0,
			"-0.017": 0.0,
			"-0.016": 0.0,
			"-0.015": 0.0,
			"-0.014": 0.0,
			"-0.013": 0.0,
			"-0.012": 0.0,
			"-0.011": 0.0,
			"-0.01": 0.0,
			"-0.009": 0.00331286149236,
			"-0.008": 1.10291701444,
			"-0.007": 6.27867438559,
			"-0.006": 15.6328594382,
			"-0.005": 26.326410952,
			"-0.004": 26.1625592962,
			"-0.003": 27.805476474,
			"-0.002": 24.7183465607,
			"-0.001": 22.8148611864,
			"0.0": 21.8633594555,
			"0.001": 15.2941742699,
			"0.002": 15.4002645676,
			"0.003": 11.3438050474,
			"0.004": 11.6092921304,
			"0.005": 12.1430257746,
			"0.006": 12.1237767124,
			"0.007": 3.8342055873,
			"0.008": 11.5664983815,
			"0.009": 7.81390091781,
			"0.01": 5.19166281833,
			"0.011": 3.26169863437,
			"0.012": 0.0914911248324,
			"0.013": 0.0,
			"0.014": 0.0,
			"0.015": 0.0,
			"0.016": 0.0,
			"0.017": 0.0,
			"0.018": 0.0,
			"0.019": 0.0,
			"0.02": 0.0,
			"0.021": 0.0,
			"0.022": 0.0,
			"0.023": 0.0,
			"0.024": 0.0,
			"0.025": 0.0
		}
	}
}
