{
	 "smiles": "COC(=O)C1=CC2=CN=CN2C=C1", 
	 "Tm": 367.15, 
	 "num_atms": 21, 
	 "gaussian": { 
		 "optdone": 1, 
		 "sigma_profile": "yes", 
		 "theory": "DFT", 
		 "functional": "B3LYP", 
		 "basiset": "6-31G**", 
		 "properties": { 
			 "R2extent": 3332.8554, 
			 "electric_dipole_moment_norm": 1.35545544006, 
			 "electric_quadrupole_moment_norm": 23.126007089, 
			 "total_energy": -607.724609561, 
			 "HOMO_LUMO_gap": 0.14587, 
			 "cosmo_polarized_energy": -12.13, 
			 "cosmo_cavitation_energy": 25.87, 
			 "cosmo_dispersion_energy": -19.19, 
			 "cosmo_repulsion_energy": 1.48, 
			 "cosmo_total_nonelectrostatic_energy": 8.16, 
			 "SMD_solvation_energy": 5.23 
		},
		"coords": [
			{
				"x": 0.0666813185,
				"y": -3.8846999386,
				"z": -1.139989778,
				"element": "C" 
			},
			{
				"x": 0.7083128262,
				"y": -2.699448527,
				"z": -0.6451710675,
				"element": "O" 
			},
			{
				"x": -0.0057768705,
				"y": -1.5580468914,
				"z": -0.7836364089,
				"element": "C" 
			},
			{
				"x": -1.1127006253,
				"y": -1.5218833498,
				"z": -1.2886032974,
				"element": "O" 
			},
			{
				"x": 0.7071315366,
				"y": -0.3693898239,
				"z": -0.2555348302,
				"element": "C" 
			},
			{
				"x": 1.9604768406,
				"y": -0.4431321211,
				"z": 0.3106245224,
				"element": "C" 
			},
			{
				"x": 2.5826046888,
				"y": 0.7280867256,
				"z": 0.7936423754,
				"element": "C" 
			},
			{
				"x": 3.7892994548,
				"y": 1.0627314311,
				"z": 1.4064829327,
				"element": "C" 
			},
			{
				"x": 3.8470578953,
				"y": 2.3963235795,
				"z": 1.6561849586,
				"element": "N" 
			},
			{
				"x": 2.7071952128,
				"y": 2.911495657,
				"z": 1.2162313597,
				"element": "C" 
			},
			{
				"x": 1.891926542,
				"y": 1.9553913761,
				"z": 0.6801217062,
				"element": "N" 
			},
			{
				"x": 0.6313357062,
				"y": 2.0308194564,
				"z": 0.1110111258,
				"element": "C" 
			},
			{
				"x": 0.0398681693,
				"y": 0.9007441002,
				"z": -0.3509942181,
				"element": "C" 
			},
			{
				"x": 0.7675099954,
				"y": -4.6982025339,
				"z": -0.9528735719,
				"element": "H" 
			},
			{
				"x": -0.1392209255,
				"y": -3.7935616842,
				"z": -2.2094545183,
				"element": "H" 
			},
			{
				"x": -0.8753411441,
				"y": -4.0608881792,
				"z": -0.6146244009,
				"element": "H" 
			},
			{
				"x": 2.4777892608,
				"y": -1.3916181075,
				"z": 0.3907438564,
				"element": "H" 
			},
			{
				"x": 4.5987437869,
				"y": 0.3954946395,
				"z": 1.66844931,
				"element": "H" 
			},
			{
				"x": 2.4222860348,
				"y": 3.9532252577,
				"z": 1.2589492954,
				"element": "H" 
			},
			{
				"x": 0.182229342,
				"y": 3.0155625775,
				"z": 0.0684660796,
				"element": "H" 
			},
			{
				"x": -0.9450090454,
				"y": 0.938696356,
				"z": -0.7992254312,
				"element": "H" 
			}
		],
		 "valence_orbital": [ 
			{
				"type": "occ",
				"energy": -0.30554,
				"method": "rhf"
			},
			{
				"type": "occ",
				"energy": -0.28287,
				"method": "rhf"
			},
			{
				"type": "occ",
				"energy": -0.27325,
				"method": "rhf"
			},
			{
				"type": "occ",
				"energy": -0.26941,
				"method": "rhf"
			},
			{
				"type": "occ",
				"energy": -0.2081,
				"method": "rhf"
			},
			{
				"type": "unocc",
				"energy": -0.06223,
				"method": "rhf"
			},
			{
				"type": "unocc",
				"energy": -0.01768,
				"method": "rhf"
			},
			{
				"type": "unocc",
				"energy": 0.04361,
				"method": "rhf"
			},
			{
				"type": "unocc",
				"energy": 0.06818,
				"method": "rhf"
			},
			{
				"type": "unocc",
				"energy": 0.09304,
				"method": "rhf"
			}
		],
		"cosmo_sigma_profile": { 
			"-0.025": 0.0,
			"-0.024": 0.0,
			"-0.023": 0.0,
			"-0.022": 0.0,
			"-0.021": 0.0,
			"-0.02": 0.0,
			"-0.019": 0.0,
			"-0.018": 0.0,
			"-0.017": 0.0,
			"-0.016": 0.0,
			"-0.015": 0.0,
			"-0.014": 0.0,
			"-0.013": 0.0,
			"-0.012": 0.0,
			"-0.011": 0.497839915717,
			"-0.01": 3.09531295698,
			"-0.009": 4.81174984865,
			"-0.008": 4.10402138632,
			"-0.007": 7.78914687682,
			"-0.006": 12.343168825,
			"-0.005": 12.7997107644,
			"-0.004": 13.2411704778,
			"-0.003": 16.0285312756,
			"-0.002": 13.1886524201,
			"-0.001": 15.8845629721,
			"0.0": 17.1648122187,
			"0.001": 19.4254681204,
			"0.002": 14.406096571,
			"0.003": 9.34363060917,
			"0.004": 7.17121309449,
			"0.005": 5.72600409511,
			"0.006": 4.13130825071,
			"0.007": 2.87126500802,
			"0.008": 3.39761593652,
			"0.009": 2.95497085138,
			"0.01": 3.50888563684,
			"0.011": 3.84260203571,
			"0.012": 5.43717649483,
			"0.013": 0.969419681385,
			"0.014": 0.965418108909,
			"0.015": 1.29436064506,
			"0.016": 0.980976423956,
			"0.017": 0.692144466775,
			"0.018": 0.0609235277052,
			"0.019": 0.0,
			"0.02": 0.0,
			"0.021": 0.0,
			"0.022": 0.0,
			"0.023": 0.0,
			"0.024": 0.0,
			"0.025": 0.0
		}
	}
}
