{
	 "smiles": "ClC1=C2C(SC3=C2CCCC3)=NC(=N1)C1CC1", 
	 "Tm": 386.15, 
	 "num_atms": 30, 
	 "gaussian": { 
		 "optdone": 1, 
		 "sigma_profile": "yes", 
		 "theory": "DFT", 
		 "functional": "B3LYP", 
		 "basiset": "6-31G**", 
		 "properties": { 
			 "R2extent": 5941.0807, 
			 "electric_dipole_moment_norm": 2.58371299683, 
			 "electric_quadrupole_moment_norm": 11.8376849819, 
			 "total_energy": -1471.09785872, 
			 "HOMO_LUMO_gap": 0.17475, 
			 "cosmo_polarized_energy": -6.48, 
			 "cosmo_cavitation_energy": 35.06, 
			 "cosmo_dispersion_energy": -26.63, 
			 "cosmo_repulsion_energy": 2.03, 
			 "cosmo_total_nonelectrostatic_energy": 10.46, 
			 "SMD_solvation_energy": 1.34 
		},
		"coords": [
			{
				"x": 2.4919093864,
				"y": -0.4977170097,
				"z": 1.1720926861,
				"element": "Cl" 
			},
			{
				"x": 0.8212191746,
				"y": -0.1330652701,
				"z": 1.6092505607,
				"element": "C" 
			},
			{
				"x": -0.1977249957,
				"y": -0.1420984512,
				"z": 0.6408388971,
				"element": "C" 
			},
			{
				"x": -1.4598474316,
				"y": 0.2101785867,
				"z": 1.1931182972,
				"element": "C" 
			},
			{
				"x": -2.7086392051,
				"y": 0.2253141258,
				"z": -0.0353307374,
				"element": "S" 
			},
			{
				"x": -1.5341981606,
				"y": -0.243982754,
				"z": -1.2643326712,
				"element": "C" 
			},
			{
				"x": -0.2674733277,
				"y": -0.4132592965,
				"z": -0.7810450685,
				"element": "C" 
			},
			{
				"x": 0.8726133703,
				"y": -0.8337711053,
				"z": -1.6829555118,
				"element": "C" 
			},
			{
				"x": 0.3685728093,
				"y": -1.3497374101,
				"z": -3.0418854968,
				"element": "C" 
			},
			{
				"x": -0.7288696116,
				"y": -0.4490504952,
				"z": -3.6211356889,
				"element": "C" 
			},
			{
				"x": -1.9574999789,
				"y": -0.4256757983,
				"z": -2.6961532079,
				"element": "C" 
			},
			{
				"x": -1.6989188117,
				"y": 0.502103638,
				"z": 2.4652550249,
				"element": "N" 
			},
			{
				"x": -0.6337581648,
				"y": 0.4549360998,
				"z": 3.2747738624,
				"element": "C" 
			},
			{
				"x": 0.6218423129,
				"y": 0.1494208857,
				"z": 2.8779887736,
				"element": "N" 
			},
			{
				"x": -0.8203706503,
				"y": 0.7598046964,
				"z": 4.7112232156,
				"element": "C" 
			},
			{
				"x": -2.1130512116,
				"y": 0.3576854828,
				"z": 5.405166215,
				"element": "C" 
			},
			{
				"x": -1.8444058107,
				"y": 1.802438065,
				"z": 5.1338582697,
				"element": "C" 
			},
			{
				"x": 1.4721018668,
				"y": -1.6059279656,
				"z": -1.1924967794,
				"element": "H" 
			},
			{
				"x": 1.5512580372,
				"y": 0.0171396688,
				"z": -1.8321436325,
				"element": "H" 
			},
			{
				"x": -0.0298636685,
				"y": -2.3656394402,
				"z": -2.9193119267,
				"element": "H" 
			},
			{
				"x": 1.2110424324,
				"y": -1.4245874675,
				"z": -3.7377792901,
				"element": "H" 
			},
			{
				"x": -0.3418340664,
				"y": 0.5715060062,
				"z": -3.7365284131,
				"element": "H" 
			},
			{
				"x": -1.0261086641,
				"y": -0.791699332,
				"z": -4.6181303833,
				"element": "H" 
			},
			{
				"x": -2.5199892673,
				"y": -1.3652870251,
				"z": -2.7963502025,
				"element": "H" 
			},
			{
				"x": -2.6466832902,
				"y": 0.3739137777,
				"z": -2.9936686007,
				"element": "H" 
			},
			{
				"x": 0.0983480584,
				"y": 0.6965219737,
				"z": 5.283155022,
				"element": "H" 
			},
			{
				"x": -2.8545045161,
				"y": -0.1390731446,
				"z": 4.7880793777,
				"element": "H" 
			},
			{
				"x": -2.031860133,
				"y": -0.0113473001,
				"z": 6.4229130796,
				"element": "H" 
			},
			{
				"x": -2.4053069809,
				"y": 2.2752344439,
				"z": 4.3343979069,
				"element": "H" 
			},
			{
				"x": -1.5736995014,
				"y": 2.452321815,
				"z": 5.9602364221,
				"element": "H" 
			}
		],
		 "valence_orbital": [ 
			{
				"type": "occ",
				"energy": -0.29718,
				"method": "rhf"
			},
			{
				"type": "occ",
				"energy": -0.2948,
				"method": "rhf"
			},
			{
				"type": "occ",
				"energy": -0.26119,
				"method": "rhf"
			},
			{
				"type": "occ",
				"energy": -0.25983,
				"method": "rhf"
			},
			{
				"type": "occ",
				"energy": -0.22252,
				"method": "rhf"
			},
			{
				"type": "unocc",
				"energy": -0.04777,
				"method": "rhf"
			},
			{
				"type": "unocc",
				"energy": -0.0312,
				"method": "rhf"
			},
			{
				"type": "unocc",
				"energy": 0.00604,
				"method": "rhf"
			},
			{
				"type": "unocc",
				"energy": 0.02714,
				"method": "rhf"
			},
			{
				"type": "unocc",
				"energy": 0.04036,
				"method": "rhf"
			}
		],
		"cosmo_sigma_profile": { 
			"-0.025": 0.0,
			"-0.024": 0.0,
			"-0.023": 0.0,
			"-0.022": 0.0,
			"-0.021": 0.0,
			"-0.02": 0.0,
			"-0.019": 0.0,
			"-0.018": 0.0,
			"-0.017": 0.0,
			"-0.016": 0.0,
			"-0.015": 0.0,
			"-0.014": 0.0,
			"-0.013": 0.0,
			"-0.012": 0.0,
			"-0.011": 0.0,
			"-0.01": 0.0,
			"-0.009": 0.0,
			"-0.008": 0.0,
			"-0.007": 0.0,
			"-0.006": 1.3370452416,
			"-0.005": 10.1769255037,
			"-0.004": 18.8168572602,
			"-0.003": 31.9306119843,
			"-0.002": 39.4861432147,
			"-0.001": 37.598774222,
			"0.0": 34.0031669911,
			"0.001": 28.3305785265,
			"0.002": 27.4785614775,
			"0.003": 18.3453797181,
			"0.004": 14.390194578,
			"0.005": 6.09027393582,
			"0.006": 3.63126843245,
			"0.007": 2.19164084702,
			"0.008": 2.59836704382,
			"0.009": 1.93463193546,
			"0.01": 1.28466159835,
			"0.011": 1.12081395008,
			"0.012": 0.727077251832,
			"0.013": 0.893239205726,
			"0.014": 0.00196184368289,
			"0.015": 0.0,
			"0.016": 0.0,
			"0.017": 0.0,
			"0.018": 0.0,
			"0.019": 0.0,
			"0.02": 0.0,
			"0.021": 0.0,
			"0.022": 0.0,
			"0.023": 0.0,
			"0.024": 0.0,
			"0.025": 0.0
		}
	}
}
