{
	 "smiles": "[O-][N+](=O)C1=CC(C(Cl)=O)=C(Br)C=C1", 
	 "Tm": 336.15, 
	 "num_atms": 16, 
	 "gaussian": { 
		 "optdone": 1, 
		 "sigma_profile": "yes", 
		 "theory": "DFT", 
		 "functional": "B3LYP", 
		 "basiset": "6-31G**", 
		 "properties": { 
			 "R2extent": 4698.082, 
			 "electric_dipole_moment_norm": 3.56202358358, 
			 "electric_quadrupole_moment_norm": 13.7312547599, 
			 "total_energy": -3580.46012362, 
			 "HOMO_LUMO_gap": 0.17434, 
			 "cosmo_polarized_energy": -9.52, 
			 "cosmo_cavitation_energy": 26.47, 
			 "cosmo_dispersion_energy": -19.47, 
			 "cosmo_repulsion_energy": 1.55, 
			 "cosmo_total_nonelectrostatic_energy": 8.56, 
			 "SMD_solvation_energy": 6.35 
		},
		"coords": [
			{
				"x": -1.0574888429,
				"y": 1.0226124386,
				"z": 4.9251568359,
				"element": "O" 
			},
			{
				"x": -1.2299884011,
				"y": 1.3526025406,
				"z": 3.7536500334,
				"element": "N" 
			},
			{
				"x": -1.61030387,
				"y": 2.4584430973,
				"z": 3.3762156306,
				"element": "O" 
			},
			{
				"x": -0.9587527667,
				"y": 0.3386244841,
				"z": 2.7203609018,
				"element": "C" 
			},
			{
				"x": -1.1339109417,
				"y": 0.6780420186,
				"z": 1.3850690977,
				"element": "C" 
			},
			{
				"x": -0.9011905296,
				"y": -0.2830533802,
				"z": 0.394798925,
				"element": "C" 
			},
			{
				"x": -1.1339972949,
				"y": 0.1767771734,
				"z": -1.0118925892,
				"element": "C" 
			},
			{
				"x": -2.3779159261,
				"y": -0.7755528922,
				"z": -1.908974877,
				"element": "Cl" 
			},
			{
				"x": -0.645386291,
				"y": 1.1487102145,
				"z": -1.4978577163,
				"element": "O" 
			},
			{
				"x": -0.4414805078,
				"y": -1.5553995709,
				"z": 0.7734827646,
				"element": "C" 
			},
			{
				"x": 0.0296500005,
				"y": -2.8707630453,
				"z": -0.5105113882,
				"element": "Br" 
			},
			{
				"x": -0.2555296629,
				"y": -1.8703611098,
				"z": 2.12247722,
				"element": "C" 
			},
			{
				"x": -0.5261167372,
				"y": -0.9269994177,
				"z": 3.107492675,
				"element": "C" 
			},
			{
				"x": -1.4579909487,
				"y": 1.6774223833,
				"z": 1.1223667699,
				"element": "H" 
			},
			{
				"x": 0.1088698737,
				"y": -2.8540755425,
				"z": 2.3932016689,
				"element": "H" 
			},
			{
				"x": -0.3974671536,
				"y": -1.1518293917,
				"z": 4.1588640479,
				"element": "H" 
			}
		],
		 "valence_orbital": [ 
			{
				"type": "occ",
				"energy": -0.32126,
				"method": "rhf"
			},
			{
				"type": "occ",
				"energy": -0.31452,
				"method": "rhf"
			},
			{
				"type": "occ",
				"energy": -0.30981,
				"method": "rhf"
			},
			{
				"type": "occ",
				"energy": -0.30295,
				"method": "rhf"
			},
			{
				"type": "occ",
				"energy": -0.28717,
				"method": "rhf"
			},
			{
				"type": "unocc",
				"energy": -0.11283,
				"method": "rhf"
			},
			{
				"type": "unocc",
				"energy": -0.0848,
				"method": "rhf"
			},
			{
				"type": "unocc",
				"energy": -0.04792,
				"method": "rhf"
			},
			{
				"type": "unocc",
				"energy": -0.03476,
				"method": "rhf"
			},
			{
				"type": "unocc",
				"energy": -0.0181,
				"method": "rhf"
			}
		],
		"cosmo_sigma_profile": { 
			"-0.025": 0.0,
			"-0.024": 0.0,
			"-0.023": 0.0,
			"-0.022": 0.0,
			"-0.021": 0.0,
			"-0.02": 0.0,
			"-0.019": 0.0,
			"-0.018": 0.0,
			"-0.017": 0.0,
			"-0.016": 0.0,
			"-0.015": 0.0,
			"-0.014": 0.0,
			"-0.013": 0.0,
			"-0.012": 0.0,
			"-0.011": 0.0,
			"-0.01": 1.15894868974,
			"-0.009": 5.39658870772,
			"-0.008": 5.24624852678,
			"-0.007": 6.93894212075,
			"-0.006": 8.15770661776,
			"-0.005": 9.51890521506,
			"-0.004": 12.6961783627,
			"-0.003": 18.7861499917,
			"-0.002": 21.9325943333,
			"-0.001": 17.4859471741,
			"0.0": 13.0349956714,
			"0.001": 15.0123807842,
			"0.002": 16.320849311,
			"0.003": 19.0800500862,
			"0.004": 9.57733827732,
			"0.005": 5.81354439131,
			"0.006": 7.78502283976,
			"0.007": 13.4799215658,
			"0.008": 7.79395414335,
			"0.009": 3.62246634394,
			"0.01": 0.566052218142,
			"0.011": 0.0,
			"0.012": 0.0,
			"0.013": 0.0,
			"0.014": 0.0,
			"0.015": 0.0,
			"0.016": 0.0,
			"0.017": 0.0,
			"0.018": 0.0,
			"0.019": 0.0,
			"0.02": 0.0,
			"0.021": 0.0,
			"0.022": 0.0,
			"0.023": 0.0,
			"0.024": 0.0,
			"0.025": 0.0
		}
	}
}
