{
	 "smiles": "CC(Cl)C(=O)NC1=C(C#N)C2=C(CCC2)S1", 
	 "Tm": 478.15, 
	 "num_atms": 27, 
	 "gaussian": { 
		 "optdone": 1, 
		 "sigma_profile": "yes", 
		 "theory": "DFT", 
		 "functional": "B3LYP", 
		 "basiset": "6-31G**", 
		 "properties": { 
			 "R2extent": 5570.6708, 
			 "electric_dipole_moment_norm": 2.99553723228, 
			 "electric_quadrupole_moment_norm": 22.5192776132, 
			 "total_energy": -1468.90516756, 
			 "HOMO_LUMO_gap": 0.16668, 
			 "cosmo_polarized_energy": -12.51, 
			 "cosmo_cavitation_energy": 34.52, 
			 "cosmo_dispersion_energy": -24.94, 
			 "cosmo_repulsion_energy": 1.93, 
			 "cosmo_total_nonelectrostatic_energy": 11.52, 
			 "SMD_solvation_energy": 6.33 
		},
		"coords": [
			{
				"x": -3.7839826673,
				"y": -1.9046106911,
				"z": 0.2111843337,
				"element": "C" 
			},
			{
				"x": -2.4457508336,
				"y": -1.7463822076,
				"z": 0.9291667934,
				"element": "C" 
			},
			{
				"x": -2.6235191549,
				"y": -0.6224331972,
				"z": 2.3618273654,
				"element": "Cl" 
			},
			{
				"x": -1.3439574525,
				"y": -1.3289424475,
				"z": -0.0534423043,
				"element": "C" 
			},
			{
				"x": -1.0899983104,
				"y": -2.0707718825,
				"z": -0.9941554497,
				"element": "O" 
			},
			{
				"x": -0.699727974,
				"y": -0.1423832002,
				"z": 0.1544179104,
				"element": "N" 
			},
			{
				"x": 0.3041002154,
				"y": 0.3654226141,
				"z": -0.6585262727,
				"element": "C" 
			},
			{
				"x": 0.9510460841,
				"y": 1.5779234808,
				"z": -0.4419347371,
				"element": "C" 
			},
			{
				"x": 0.6207250739,
				"y": 2.4277852002,
				"z": 0.6474743165,
				"element": "C" 
			},
			{
				"x": 0.322596612,
				"y": 3.0999446161,
				"z": 1.5520546998,
				"element": "N" 
			},
			{
				"x": 1.9582234654,
				"y": 1.8215061909,
				"z": -1.4334268863,
				"element": "C" 
			},
			{
				"x": 2.0495917147,
				"y": 0.8219751962,
				"z": -2.350991191,
				"element": "C" 
			},
			{
				"x": 3.0524665404,
				"y": 1.0963662637,
				"z": -3.4371760467,
				"element": "C" 
			},
			{
				"x": 3.8319681916,
				"y": 2.3057018309,
				"z": -2.8285950846,
				"element": "C" 
			},
			{
				"x": 2.9077760185,
				"y": 2.947749427,
				"z": -1.7477510224,
				"element": "C" 
			},
			{
				"x": 0.9151618128,
				"y": -0.4714525566,
				"z": -2.0694606728,
				"element": "S" 
			},
			{
				"x": -3.6457004304,
				"y": -2.5875927371,
				"z": -0.6308184814,
				"element": "H" 
			},
			{
				"x": -4.1399450635,
				"y": -0.9429567559,
				"z": -0.1676476031,
				"element": "H" 
			},
			{
				"x": -4.5341057536,
				"y": -2.3152613602,
				"z": 0.8898083636,
				"element": "H" 
			},
			{
				"x": -2.128935344,
				"y": -2.6990963301,
				"z": 1.3583559811,
				"element": "H" 
			},
			{
				"x": -0.9603491521,
				"y": 0.4130819685,
				"z": 0.9636595427,
				"element": "H" 
			},
			{
				"x": 2.5544096928,
				"y": 1.3652464168,
				"z": -4.3787813741,
				"element": "H" 
			},
			{
				"x": 3.7124662949,
				"y": 0.2501334557,
				"z": -3.6562318279,
				"element": "H" 
			},
			{
				"x": 4.1400556798,
				"y": 3.0236867565,
				"z": -3.5931009804,
				"element": "H" 
			},
			{
				"x": 4.7403312623,
				"y": 1.9332340886,
				"z": -2.3452218915,
				"element": "H" 
			},
			{
				"x": 3.4718131955,
				"y": 3.29843282,
				"z": -0.8769945599,
				"element": "H" 
			},
			{
				"x": 2.3635402821,
				"y": 3.8165930397,
				"z": -2.1415929208,
				"element": "H" 
			}
		],
		 "valence_orbital": [ 
			{
				"type": "occ",
				"energy": -0.32232,
				"method": "rhf"
			},
			{
				"type": "occ",
				"energy": -0.3139,
				"method": "rhf"
			},
			{
				"type": "occ",
				"energy": -0.28135,
				"method": "rhf"
			},
			{
				"type": "occ",
				"energy": -0.25873,
				"method": "rhf"
			},
			{
				"type": "occ",
				"energy": -0.21931,
				"method": "rhf"
			},
			{
				"type": "unocc",
				"energy": -0.05263,
				"method": "rhf"
			},
			{
				"type": "unocc",
				"energy": -0.0008,
				"method": "rhf"
			},
			{
				"type": "unocc",
				"energy": 0.00944,
				"method": "rhf"
			},
			{
				"type": "unocc",
				"energy": 0.01318,
				"method": "rhf"
			},
			{
				"type": "unocc",
				"energy": 0.01662,
				"method": "rhf"
			}
		],
		"cosmo_sigma_profile": { 
			"-0.025": 0.0,
			"-0.024": 0.0,
			"-0.023": 0.0,
			"-0.022": 0.0,
			"-0.021": 0.0,
			"-0.02": 0.0,
			"-0.019": 0.0,
			"-0.018": 0.0,
			"-0.017": 0.0,
			"-0.016": 0.0,
			"-0.015": 0.0,
			"-0.014": 0.0,
			"-0.013": 0.0,
			"-0.012": 0.0,
			"-0.011": 0.00143032803042,
			"-0.01": 0.887973086399,
			"-0.009": 4.08104503962,
			"-0.008": 4.71673526089,
			"-0.007": 4.50536522334,
			"-0.006": 7.10897073933,
			"-0.005": 13.3929185406,
			"-0.004": 23.9285370656,
			"-0.003": 31.8700511866,
			"-0.002": 33.710650063,
			"-0.001": 29.7047809474,
			"0.0": 24.1189310653,
			"0.001": 17.6530408786,
			"0.002": 14.0140502941,
			"0.003": 13.5409475966,
			"0.004": 9.877939596,
			"0.005": 10.7664271033,
			"0.006": 4.2159892716,
			"0.007": 4.45485451171,
			"0.008": 4.93714654037,
			"0.009": 4.68663509092,
			"0.01": 5.74468202459,
			"0.011": 5.74653778152,
			"0.012": 3.86667566169,
			"0.013": 1.70727217659,
			"0.014": 0.0913924932722,
			"0.015": 0.0,
			"0.016": 0.0,
			"0.017": 0.0,
			"0.018": 0.0,
			"0.019": 0.0,
			"0.02": 0.0,
			"0.021": 0.0,
			"0.022": 0.0,
			"0.023": 0.0,
			"0.024": 0.0,
			"0.025": 0.0
		}
	}
}
