{
	 "smiles": "COC1=CC=C(SSC2=CC=C(OC)C=C2)C=C1", 
	 "Tm": 314.15, 
	 "num_atms": 32, 
	 "gaussian": { 
		 "optdone": 1, 
		 "sigma_profile": "yes", 
		 "theory": "DFT", 
		 "functional": "B3LYP", 
		 "basiset": "6-31G**", 
		 "properties": { 
			 "R2extent": 8296.38, 
			 "electric_dipole_moment_norm": 4.46999619015, 
			 "electric_quadrupole_moment_norm": 18.4655857798, 
			 "total_energy": -1488.72754733, 
			 "HOMO_LUMO_gap": 0.16658, 
			 "cosmo_polarized_energy": -11.49, 
			 "cosmo_cavitation_energy": 39.99, 
			 "cosmo_dispersion_energy": -28.44, 
			 "cosmo_repulsion_energy": 2.14, 
			 "cosmo_total_nonelectrostatic_energy": 13.69, 
			 "SMD_solvation_energy": 7.05 
		},
		"coords": [
			{
				"x": -2.2492313828,
				"y": -3.2052543504,
				"z": -5.0942562168,
				"element": "C" 
			},
			{
				"x": -0.9852524719,
				"y": -3.7150204321,
				"z": -4.696048527,
				"element": "O" 
			},
			{
				"x": -0.169850632,
				"y": -2.9179070352,
				"z": -3.952369356,
				"element": "C" 
			},
			{
				"x": 1.0678420276,
				"y": -3.4806013297,
				"z": -3.5964797677,
				"element": "C" 
			},
			{
				"x": 1.9740960619,
				"y": -2.7507694106,
				"z": -2.8424243779,
				"element": "C" 
			},
			{
				"x": 1.6660841233,
				"y": -1.4446173688,
				"z": -2.4217866637,
				"element": "C" 
			},
			{
				"x": 2.8499730465,
				"y": -0.474463942,
				"z": -1.4999179273,
				"element": "S" 
			},
			{
				"x": 2.5465273685,
				"y": -1.0285741817,
				"z": 0.5344023311,
				"element": "S" 
			},
			{
				"x": 1.1656229556,
				"y": -0.0335748488,
				"z": 1.0785466403,
				"element": "C" 
			},
			{
				"x": 1.3724083719,
				"y": 1.2357269621,
				"z": 1.6300962165,
				"element": "C" 
			},
			{
				"x": 0.3019596086,
				"y": 1.9996733046,
				"z": 2.0966002278,
				"element": "C" 
			},
			{
				"x": -1.000864197,
				"y": 1.4888975975,
				"z": 2.0133503635,
				"element": "C" 
			},
			{
				"x": -2.1165704904,
				"y": 2.144534462,
				"z": 2.436748726,
				"element": "O" 
			},
			{
				"x": -1.9662466187,
				"y": 3.4353375418,
				"z": 3.0093320568,
				"element": "C" 
			},
			{
				"x": -1.2171060474,
				"y": 0.2146785852,
				"z": 1.4641869545,
				"element": "C" 
			},
			{
				"x": -0.1453082759,
				"y": -0.5369349442,
				"z": 1.0031035483,
				"element": "C" 
			},
			{
				"x": 0.431692003,
				"y": -0.8914266124,
				"z": -2.780022456,
				"element": "C" 
			},
			{
				"x": -0.4870287926,
				"y": -1.6165980969,
				"z": -3.5421511897,
				"element": "C" 
			},
			{
				"x": -2.8784154316,
				"y": -2.9627262378,
				"z": -4.228461268,
				"element": "H" 
			},
			{
				"x": -2.7247389065,
				"y": -3.9988102194,
				"z": -5.6723586498,
				"element": "H" 
			},
			{
				"x": -2.144859251,
				"y": -2.3125717314,
				"z": -5.7238980156,
				"element": "H" 
			},
			{
				"x": 1.2919912467,
				"y": -4.488879742,
				"z": -3.9289892204,
				"element": "H" 
			},
			{
				"x": 2.9301679164,
				"y": -3.1872610129,
				"z": -2.5718187414,
				"element": "H" 
			},
			{
				"x": 2.3811657023,
				"y": 1.6311315353,
				"z": 1.6943577704,
				"element": "H" 
			},
			{
				"x": 0.4925923962,
				"y": 2.9786837026,
				"z": 2.5198511425,
				"element": "H" 
			},
			{
				"x": -2.9717131869,
				"y": 3.7653616664,
				"z": 3.2742873303,
				"element": "H" 
			},
			{
				"x": -1.3457026751,
				"y": 3.406624825,
				"z": 3.9138871196,
				"element": "H" 
			},
			{
				"x": -1.5293468006,
				"y": 4.1457593264,
				"z": 2.2961428516,
				"element": "H" 
			},
			{
				"x": -2.2337168614,
				"y": -0.1616603921,
				"z": 1.4150809402,
				"element": "H" 
			},
			{
				"x": -0.3149367258,
				"y": -1.5229254068,
				"z": 0.5830179422,
				"element": "H" 
			},
			{
				"x": 0.1870283316,
				"y": 0.1170277993,
				"z": -2.4624796307,
				"element": "H" 
			},
			{
				"x": -1.4339624125,
				"y": -1.1615600127,
				"z": -3.8071301538,
				"element": "H" 
			}
		],
		 "valence_orbital": [ 
			{
				"type": "occ",
				"energy": -0.25599,
				"method": "rhf"
			},
			{
				"type": "occ",
				"energy": -0.24269,
				"method": "rhf"
			},
			{
				"type": "occ",
				"energy": -0.23104,
				"method": "rhf"
			},
			{
				"type": "occ",
				"energy": -0.22948,
				"method": "rhf"
			},
			{
				"type": "occ",
				"energy": -0.21568,
				"method": "rhf"
			},
			{
				"type": "unocc",
				"energy": -0.0491,
				"method": "rhf"
			},
			{
				"type": "unocc",
				"energy": -0.01025,
				"method": "rhf"
			},
			{
				"type": "unocc",
				"energy": -0.00401,
				"method": "rhf"
			},
			{
				"type": "unocc",
				"energy": 0.00488,
				"method": "rhf"
			},
			{
				"type": "unocc",
				"energy": 0.03089,
				"method": "rhf"
			}
		],
		"cosmo_sigma_profile": { 
			"-0.025": 0.0,
			"-0.024": 0.0,
			"-0.023": 0.0,
			"-0.022": 0.0,
			"-0.021": 0.0,
			"-0.02": 0.0,
			"-0.019": 0.0,
			"-0.018": 0.0,
			"-0.017": 0.0,
			"-0.016": 0.0,
			"-0.015": 0.0,
			"-0.014": 0.0,
			"-0.013": 0.0,
			"-0.012": 0.0,
			"-0.011": 0.0,
			"-0.01": 0.0,
			"-0.009": 0.0,
			"-0.008": 0.00601033043704,
			"-0.007": 5.68801254121,
			"-0.006": 23.7492797577,
			"-0.005": 32.3740853261,
			"-0.004": 28.5219673477,
			"-0.003": 24.2453538522,
			"-0.002": 14.7143472429,
			"-0.001": 16.0802779751,
			"0.0": 19.1804820467,
			"0.001": 24.215233375,
			"0.002": 29.5857646584,
			"0.003": 31.6317514897,
			"0.004": 32.3238757222,
			"0.005": 14.2172797526,
			"0.006": 7.78976746502,
			"0.007": 7.88330528278,
			"0.008": 5.78596392205,
			"0.009": 3.20699880669,
			"0.01": 1.94946851668,
			"0.011": 0.00240496985563,
			"0.012": 0.0,
			"0.013": 0.0,
			"0.014": 0.0,
			"0.015": 0.0,
			"0.016": 0.0,
			"0.017": 0.0,
			"0.018": 0.0,
			"0.019": 0.0,
			"0.02": 0.0,
			"0.021": 0.0,
			"0.022": 0.0,
			"0.023": 0.0,
			"0.024": 0.0,
			"0.025": 0.0
		}
	}
}
