{
	 "smiles": "CN(CC12CC3CC(CC(C3)C1)C2)C(=O)CCl", 
	 "Tm": 326.15, 
	 "num_atms": 39, 
	 "gaussian": { 
		 "optdone": 1, 
		 "sigma_profile": "yes", 
		 "theory": "DFT", 
		 "functional": "B3LYP", 
		 "basiset": "6-31G**", 
		 "properties": { 
			 "R2extent": 5663.6698, 
			 "electric_dipole_moment_norm": 3.34319736929, 
			 "electric_quadrupole_moment_norm": 11.3210502406, 
			 "total_energy": -1136.9572963, 
			 "HOMO_LUMO_gap": 0.2246, 
			 "cosmo_polarized_energy": -9.75, 
			 "cosmo_cavitation_energy": 36.99, 
			 "cosmo_dispersion_energy": -26.89, 
			 "cosmo_repulsion_energy": 2.05, 
			 "cosmo_total_nonelectrostatic_energy": 12.15, 
			 "SMD_solvation_energy": 4.93 
		},
		"coords": [
			{
				"x": 0.1662050638,
				"y": 2.8424904741,
				"z": -0.9204420669,
				"element": "C" 
			},
			{
				"x": 0.8818367514,
				"y": 1.9334534811,
				"z": -0.0275050518,
				"element": "N" 
			},
			{
				"x": 0.0575664909,
				"y": 1.0949453695,
				"z": 0.8593625875,
				"element": "C" 
			},
			{
				"x": -0.2237605898,
				"y": -0.3502874615,
				"z": 0.386908271,
				"element": "C" 
			},
			{
				"x": -1.1082656455,
				"y": -1.0246510064,
				"z": 1.4678021192,
				"element": "C" 
			},
			{
				"x": -1.4337008401,
				"y": -2.4810583736,
				"z": 1.0798580276,
				"element": "C" 
			},
			{
				"x": -0.1206386198,
				"y": -3.2775544012,
				"z": 0.9368385878,
				"element": "C" 
			},
			{
				"x": 0.7557689462,
				"y": -2.6307706842,
				"z": -0.1551950796,
				"element": "C" 
			},
			{
				"x": -0.003824056,
				"y": -2.6477489462,
				"z": -1.4974639223,
				"element": "C" 
			},
			{
				"x": -1.3159363659,
				"y": -1.8498371777,
				"z": -1.3548152167,
				"element": "C" 
			},
			{
				"x": -2.193203165,
				"y": -2.4943324684,
				"z": -0.2624841126,
				"element": "C" 
			},
			{
				"x": -0.9871362383,
				"y": -0.3940146533,
				"z": -0.9601271941,
				"element": "C" 
			},
			{
				"x": 1.0790361586,
				"y": -1.173998256,
				"z": 0.2377769109,
				"element": "C" 
			},
			{
				"x": 2.2131653375,
				"y": 2.0517795881,
				"z": 0.2747934714,
				"element": "C" 
			},
			{
				"x": 2.7628675469,
				"y": 1.3809321087,
				"z": 1.1432512308,
				"element": "O" 
			},
			{
				"x": 3.0675071217,
				"y": 3.0300366555,
				"z": -0.5372545189,
				"element": "C" 
			},
			{
				"x": 2.7472171091,
				"y": 4.7684588255,
				"z": -0.108197675,
				"element": "Cl" 
			},
			{
				"x": -0.2637519231,
				"y": 3.690829579,
				"z": -0.3730388787,
				"element": "H" 
			},
			{
				"x": 0.8230578821,
				"y": 3.2388637455,
				"z": -1.6936937373,
				"element": "H" 
			},
			{
				"x": -0.6418997435,
				"y": 2.301315492,
				"z": -1.41519597,
				"element": "H" 
			},
			{
				"x": -0.8984995851,
				"y": 1.6151264318,
				"z": 1.0004133623,
				"element": "H" 
			},
			{
				"x": 0.5653069348,
				"y": 1.0539845243,
				"z": 1.8264995816,
				"element": "H" 
			},
			{
				"x": -2.0397530294,
				"y": -0.4547602716,
				"z": 1.5948235548,
				"element": "H" 
			},
			{
				"x": -0.5883464553,
				"y": -1.0015536021,
				"z": 2.4350498256,
				"element": "H" 
			},
			{
				"x": -2.0576035724,
				"y": -2.9326329164,
				"z": 1.8616835991,
				"element": "H" 
			},
			{
				"x": -0.3397723113,
				"y": -4.321962813,
				"z": 0.678469607,
				"element": "H" 
			},
			{
				"x": 0.418049495,
				"y": -3.2914067534,
				"z": 1.8932803986,
				"element": "H" 
			},
			{
				"x": 1.6930969134,
				"y": -3.1925584532,
				"z": -0.2552101271,
				"element": "H" 
			},
			{
				"x": 0.6191448849,
				"y": -2.2110830656,
				"z": -2.2894174309,
				"element": "H" 
			},
			{
				"x": -0.22221274,
				"y": -3.6811364129,
				"z": -1.7973767312,
				"element": "H" 
			},
			{
				"x": -1.8558972902,
				"y": -1.8514207431,
				"z": -2.3104506405,
				"element": "H" 
			},
			{
				"x": -3.1405925547,
				"y": -1.9471480757,
				"z": -0.1664460593,
				"element": "H" 
			},
			{
				"x": -2.447677175,
				"y": -3.524816182,
				"z": -0.5427824588,
				"element": "H" 
			},
			{
				"x": -0.3774006974,
				"y": 0.0672385261,
				"z": -1.7476771515,
				"element": "H" 
			},
			{
				"x": -1.9162762036,
				"y": 0.1893409593,
				"z": -0.8836535792,
				"element": "H" 
			},
			{
				"x": 1.720148349,
				"y": -0.7155240259,
				"z": -0.5246581725,
				"element": "H" 
			},
			{
				"x": 1.6455015524,
				"y": -1.1441984981,
				"z": 1.1751016376,
				"element": "H" 
			},
			{
				"x": 4.1035145212,
				"y": 2.830812515,
				"z": -0.2747723871,
				"element": "H" 
			},
			{
				"x": 2.9284577423,
				"y": 2.936246966,
				"z": -1.6154546107,
				"element": "H" 
			}
		],
		 "valence_orbital": [ 
			{
				"type": "occ",
				"energy": -0.2896,
				"method": "rhf"
			},
			{
				"type": "occ",
				"energy": -0.2783,
				"method": "rhf"
			},
			{
				"type": "occ",
				"energy": -0.27756,
				"method": "rhf"
			},
			{
				"type": "occ",
				"energy": -0.25234,
				"method": "rhf"
			},
			{
				"type": "occ",
				"energy": -0.24252,
				"method": "rhf"
			},
			{
				"type": "unocc",
				"energy": -0.01792,
				"method": "rhf"
			},
			{
				"type": "unocc",
				"energy": 0.04952,
				"method": "rhf"
			},
			{
				"type": "unocc",
				"energy": 0.06892,
				"method": "rhf"
			},
			{
				"type": "unocc",
				"energy": 0.09246,
				"method": "rhf"
			},
			{
				"type": "unocc",
				"energy": 0.10667,
				"method": "rhf"
			}
		],
		"cosmo_sigma_profile": { 
			"-0.025": 0.0,
			"-0.024": 0.0,
			"-0.023": 0.0,
			"-0.022": 0.0,
			"-0.021": 0.0,
			"-0.02": 0.0,
			"-0.019": 0.0,
			"-0.018": 0.0,
			"-0.017": 0.0,
			"-0.016": 0.0,
			"-0.015": 0.0,
			"-0.014": 0.0,
			"-0.013": 0.0,
			"-0.012": 0.0,
			"-0.011": 0.0,
			"-0.01": 0.640617268319,
			"-0.009": 2.54314635467,
			"-0.008": 3.64048982401,
			"-0.007": 3.81823236627,
			"-0.006": 3.94048127591,
			"-0.005": 6.51106573863,
			"-0.004": 14.7574549837,
			"-0.003": 17.1206395592,
			"-0.002": 37.4479178129,
			"-0.001": 54.1319807551,
			"0.0": 43.7490631903,
			"0.001": 35.4949245337,
			"0.002": 16.4708712952,
			"0.003": 7.40224098851,
			"0.004": 7.71357837767,
			"0.005": 8.30738127925,
			"0.006": 6.84589861215,
			"0.007": 2.06742552829,
			"0.008": 1.82693714767,
			"0.009": 1.25755383578,
			"0.01": 1.57250260399,
			"0.011": 1.81415982545,
			"0.012": 1.74467890317,
			"0.013": 3.3987552193,
			"0.014": 2.50595193828,
			"0.015": 0.127029538539,
			"0.016": 0.0,
			"0.017": 0.0,
			"0.018": 0.0,
			"0.019": 0.0,
			"0.02": 0.0,
			"0.021": 0.0,
			"0.022": 0.0,
			"0.023": 0.0,
			"0.024": 0.0,
			"0.025": 0.0
		}
	}
}
