{
	 "smiles": "CN1N=CC2=C1N=NNC2=O", 
	 "Tm": 426.15, 
	 "num_atms": 16, 
	 "gaussian": { 
		 "optdone": 1, 
		 "sigma_profile": "yes", 
		 "theory": "DFT", 
		 "functional": "B3LYP", 
		 "basiset": "6-31G**", 
		 "properties": { 
			 "R2extent": 2150.7895, 
			 "electric_dipole_moment_norm": 2.33692067901, 
			 "electric_quadrupole_moment_norm": 11.2342490568, 
			 "total_energy": -542.462326465, 
			 "HOMO_LUMO_gap": 0.18204, 
			 "cosmo_polarized_energy": -12.66, 
			 "cosmo_cavitation_energy": 21.11, 
			 "cosmo_dispersion_energy": -16.02, 
			 "cosmo_repulsion_energy": 1.28, 
			 "cosmo_total_nonelectrostatic_energy": 6.37, 
			 "SMD_solvation_energy": 2.71 
		},
		"coords": [
			{
				"x": -0.3280626346,
				"y": -2.7191099323,
				"z": -2.32547383,
				"element": "C" 
			},
			{
				"x": -1.1879194966,
				"y": -1.812470868,
				"z": -1.5837250493,
				"element": "N" 
			},
			{
				"x": -2.4765721004,
				"y": -2.1394198557,
				"z": -1.3169425154,
				"element": "N" 
			},
			{
				"x": -2.9897710047,
				"y": -1.1186623525,
				"z": -0.6341174514,
				"element": "C" 
			},
			{
				"x": -2.025082094,
				"y": -0.1042910199,
				"z": -0.4477565506,
				"element": "C" 
			},
			{
				"x": -0.8754170809,
				"y": -0.5936905384,
				"z": -1.0772207002,
				"element": "C" 
			},
			{
				"x": 0.3471732456,
				"y": 0.014763601,
				"z": -1.1806295971,
				"element": "N" 
			},
			{
				"x": 0.4525644316,
				"y": 1.1685627582,
				"z": -0.6373988876,
				"element": "N" 
			},
			{
				"x": -0.6202333746,
				"y": 1.7028983087,
				"z": -0.0110741853,
				"element": "N" 
			},
			{
				"x": -1.9412891343,
				"y": 1.1925362595,
				"z": 0.1745228752,
				"element": "C" 
			},
			{
				"x": -2.7749235731,
				"y": 1.842669587,
				"z": 0.7788212024,
				"element": "O" 
			},
			{
				"x": 0.6521676258,
				"y": -2.2516522372,
				"z": -2.4187674472,
				"element": "H" 
			},
			{
				"x": -0.2404070021,
				"y": -3.667093323,
				"z": -1.7897714825,
				"element": "H" 
			},
			{
				"x": -0.7504875394,
				"y": -2.9021200724,
				"z": -3.3161301052,
				"element": "H" 
			},
			{
				"x": -4.0184081919,
				"y": -1.1460016124,
				"z": -0.3042473018,
				"element": "H" 
			},
			{
				"x": -0.4338320764,
				"y": 2.6172812975,
				"z": 0.3850110259,
				"element": "H" 
			}
		],
		 "valence_orbital": [ 
			{
				"type": "occ",
				"energy": -0.31594,
				"method": "rhf"
			},
			{
				"type": "occ",
				"energy": -0.3001,
				"method": "rhf"
			},
			{
				"type": "occ",
				"energy": -0.27886,
				"method": "rhf"
			},
			{
				"type": "occ",
				"energy": -0.26607,
				"method": "rhf"
			},
			{
				"type": "occ",
				"energy": -0.25774,
				"method": "rhf"
			},
			{
				"type": "unocc",
				"energy": -0.0757,
				"method": "rhf"
			},
			{
				"type": "unocc",
				"energy": -0.02484,
				"method": "rhf"
			},
			{
				"type": "unocc",
				"energy": 0.01893,
				"method": "rhf"
			},
			{
				"type": "unocc",
				"energy": 0.08299,
				"method": "rhf"
			},
			{
				"type": "unocc",
				"energy": 0.10248,
				"method": "rhf"
			}
		],
		"cosmo_sigma_profile": { 
			"-0.025": 0.0,
			"-0.024": 0.0,
			"-0.023": 0.0,
			"-0.022": 0.0,
			"-0.021": 0.0,
			"-0.02": 0.0,
			"-0.019": 0.0,
			"-0.018": 0.0,
			"-0.017": 1.06916448515,
			"-0.016": 1.03395366095,
			"-0.015": 0.856235244568,
			"-0.014": 1.3836482035,
			"-0.013": 0.624929266481,
			"-0.012": 0.877304724098,
			"-0.011": 0.614742921949,
			"-0.01": 0.876940982877,
			"-0.009": 2.49166055275,
			"-0.008": 3.11718594129,
			"-0.007": 6.55513834953,
			"-0.006": 9.95073622602,
			"-0.005": 11.6683487376,
			"-0.004": 16.1953627008,
			"-0.003": 16.1311222321,
			"-0.002": 11.2628685936,
			"-0.001": 9.55186589355,
			"0.0": 9.54835481354,
			"0.001": 7.14536931261,
			"0.002": 5.2820129428,
			"0.003": 4.67995642965,
			"0.004": 4.34326005951,
			"0.005": 4.97058930752,
			"0.006": 4.59108438825,
			"0.007": 4.27662759292,
			"0.008": 5.18734233865,
			"0.009": 5.04883078533,
			"0.01": 4.80799576696,
			"0.011": 5.67047723326,
			"0.012": 7.32938664045,
			"0.013": 2.50541028498,
			"0.014": 0.412975813744,
			"0.015": 0.0,
			"0.016": 0.0,
			"0.017": 0.0,
			"0.018": 0.0,
			"0.019": 0.0,
			"0.02": 0.0,
			"0.021": 0.0,
			"0.022": 0.0,
			"0.023": 0.0,
			"0.024": 0.0,
			"0.025": 0.0
		}
	}
}
