{
	 "smiles": "ClC1=CC(C=O)=C(Cl)C(Cl)=C1", 
	 "Tm": 347.15, 
	 "num_atms": 14, 
	 "gaussian": { 
		 "optdone": 1, 
		 "sigma_profile": "yes", 
		 "theory": "DFT", 
		 "functional": "B3LYP", 
		 "basiset": "6-31G**", 
		 "properties": { 
			 "R2extent": 3534.3371, 
			 "electric_dipole_moment_norm": 2.63436517211, 
			 "electric_quadrupole_moment_norm": 4.64599331037, 
			 "total_energy": -1724.32965194, 
			 "HOMO_LUMO_gap": 0.17417, 
			 "cosmo_polarized_energy": -8.44, 
			 "cosmo_cavitation_energy": 24.38, 
			 "cosmo_dispersion_energy": -18.32, 
			 "cosmo_repulsion_energy": 1.46, 
			 "cosmo_total_nonelectrostatic_energy": 7.52, 
			 "SMD_solvation_energy": 4.48 
		},
		"coords": [
			{
				"x": 2.7703283009,
				"y": 0.1817516942,
				"z": -3.3106181989,
				"element": "Cl" 
			},
			{
				"x": 1.351582994,
				"y": 0.3605900015,
				"z": -2.3025481732,
				"element": "C" 
			},
			{
				"x": 1.4897859352,
				"y": 0.6254405605,
				"z": -0.9462617305,
				"element": "C" 
			},
			{
				"x": 0.3617969589,
				"y": 0.7708434834,
				"z": -0.1280797443,
				"element": "C" 
			},
			{
				"x": 0.65672764,
				"y": 1.0532106959,
				"z": 1.3092627104,
				"element": "C" 
			},
			{
				"x": -0.1433546462,
				"y": 1.2169135707,
				"z": 2.201981125,
				"element": "O" 
			},
			{
				"x": -0.9280665585,
				"y": 0.6466859646,
				"z": -0.6889931905,
				"element": "C" 
			},
			{
				"x": -2.3578675362,
				"y": 0.8170021336,
				"z": 0.2759281106,
				"element": "Cl" 
			},
			{
				"x": -1.0449110393,
				"y": 0.3785571922,
				"z": -2.0633837696,
				"element": "C" 
			},
			{
				"x": -2.6042063847,
				"y": 0.2120736956,
				"z": -2.825626067,
				"element": "Cl" 
			},
			{
				"x": 0.0866187999,
				"y": 0.2356027778,
				"z": -2.869212192,
				"element": "C" 
			},
			{
				"x": 2.478067517,
				"y": 0.7222835013,
				"z": -0.5075693311,
				"element": "H" 
			},
			{
				"x": 1.7505375721,
				"y": 1.1049333666,
				"z": 1.508225619,
				"element": "H" 
			},
			{
				"x": -0.0298395531,
				"y": 0.0291113623,
				"z": -3.9261051679,
				"element": "H" 
			}
		],
		 "valence_orbital": [ 
			{
				"type": "occ",
				"energy": -0.33292,
				"method": "rhf"
			},
			{
				"type": "occ",
				"energy": -0.32157,
				"method": "rhf"
			},
			{
				"type": "occ",
				"energy": -0.28669,
				"method": "rhf"
			},
			{
				"type": "occ",
				"energy": -0.26909,
				"method": "rhf"
			},
			{
				"type": "occ",
				"energy": -0.26405,
				"method": "rhf"
			},
			{
				"type": "unocc",
				"energy": -0.08988,
				"method": "rhf"
			},
			{
				"type": "unocc",
				"energy": -0.04865,
				"method": "rhf"
			},
			{
				"type": "unocc",
				"energy": -0.01808,
				"method": "rhf"
			},
			{
				"type": "unocc",
				"energy": 0.01006,
				"method": "rhf"
			},
			{
				"type": "unocc",
				"energy": 0.01735,
				"method": "rhf"
			}
		],
		"cosmo_sigma_profile": { 
			"-0.025": 0.0,
			"-0.024": 0.0,
			"-0.023": 0.0,
			"-0.022": 0.0,
			"-0.021": 0.0,
			"-0.02": 0.0,
			"-0.019": 0.0,
			"-0.018": 0.0,
			"-0.017": 0.0,
			"-0.016": 0.0,
			"-0.015": 0.0,
			"-0.014": 0.0,
			"-0.013": 0.0,
			"-0.012": 0.0,
			"-0.011": 0.280496977713,
			"-0.01": 3.12263073485,
			"-0.009": 4.42800113,
			"-0.008": 4.33610366231,
			"-0.007": 5.18854156292,
			"-0.006": 5.12744408957,
			"-0.005": 6.67928520546,
			"-0.004": 7.96740192067,
			"-0.003": 12.5921072982,
			"-0.002": 23.1179922047,
			"-0.001": 26.4453939606,
			"0.0": 15.5974088863,
			"0.001": 13.6880744563,
			"0.002": 14.6653677959,
			"0.003": 25.4279086251,
			"0.004": 14.7126292899,
			"0.005": 2.54722871039,
			"0.006": 2.38733491453,
			"0.007": 2.13101276467,
			"0.008": 1.87345438387,
			"0.009": 2.66479826271,
			"0.01": 4.37835193601,
			"0.011": 3.65038298559,
			"0.012": 0.639903294792,
			"0.013": 0.0,
			"0.014": 0.0,
			"0.015": 0.0,
			"0.016": 0.0,
			"0.017": 0.0,
			"0.018": 0.0,
			"0.019": 0.0,
			"0.02": 0.0,
			"0.021": 0.0,
			"0.022": 0.0,
			"0.023": 0.0,
			"0.024": 0.0,
			"0.025": 0.0
		}
	}
}
