{
	 "smiles": "CC1=C(O)C(Cl)=NC=C1", 
	 "Tm": 371.15, 
	 "num_atms": 15, 
	 "gaussian": { 
		 "optdone": 1, 
		 "sigma_profile": "yes", 
		 "theory": "DFT", 
		 "functional": "B3LYP", 
		 "basiset": "6-31G**", 
		 "properties": { 
			 "R2extent": 2138.8657, 
			 "electric_dipole_moment_norm": 5.31235363751, 
			 "electric_quadrupole_moment_norm": 10.7338760739, 
			 "total_energy": -822.417050479, 
			 "HOMO_LUMO_gap": 0.20648, 
			 "cosmo_polarized_energy": -12.89, 
			 "cosmo_cavitation_energy": 20.63, 
			 "cosmo_dispersion_energy": -15.75, 
			 "cosmo_repulsion_energy": 1.29, 
			 "cosmo_total_nonelectrostatic_energy": 6.17, 
			 "SMD_solvation_energy": 2.34 
		},
		"coords": [
			{
				"x": 2.8452425149,
				"y": 1.0700689915,
				"z": -1.6437406282,
				"element": "C" 
			},
			{
				"x": 1.4780649992,
				"y": 0.5295394424,
				"z": -1.3035374594,
				"element": "C" 
			},
			{
				"x": 0.3367678228,
				"y": 1.034146001,
				"z": -1.9476322788,
				"element": "C" 
			},
			{
				"x": 0.3825400291,
				"y": 2.0109356598,
				"z": -2.8899590973,
				"element": "O" 
			},
			{
				"x": -0.9130447682,
				"y": 0.494330834,
				"z": -1.5921994694,
				"element": "C" 
			},
			{
				"x": -2.3505424024,
				"y": 1.1157933747,
				"z": -2.3898168624,
				"element": "Cl" 
			},
			{
				"x": -1.0807839977,
				"y": -0.4538150454,
				"z": -0.6942590752,
				"element": "N" 
			},
			{
				"x": 0.0058984386,
				"y": -0.9372406472,
				"z": -0.0781336747,
				"element": "C" 
			},
			{
				"x": 1.2899795433,
				"y": -0.4774499062,
				"z": -0.3511471123,
				"element": "C" 
			},
			{
				"x": 3.0922422442,
				"y": 0.9162035213,
				"z": -2.7025602017,
				"element": "H" 
			},
			{
				"x": 2.9211801976,
				"y": 2.1457375423,
				"z": -1.4364763776,
				"element": "H" 
			},
			{
				"x": 3.6188238309,
				"y": 0.5721024945,
				"z": -1.0556282432,
				"element": "H" 
			},
			{
				"x": 1.2982900125,
				"y": 2.2832197145,
				"z": -3.0306415612,
				"element": "H" 
			},
			{
				"x": -0.1650243493,
				"y": -1.718822386,
				"z": 0.6576964356,
				"element": "H" 
			},
			{
				"x": 2.1445658846,
				"y": -0.8968495912,
				"z": 0.1715356058,
				"element": "H" 
			}
		],
		 "valence_orbital": [ 
			{
				"type": "occ",
				"energy": -0.32964,
				"method": "rhf"
			},
			{
				"type": "occ",
				"energy": -0.30294,
				"method": "rhf"
			},
			{
				"type": "occ",
				"energy": -0.27555,
				"method": "rhf"
			},
			{
				"type": "occ",
				"energy": -0.2695,
				"method": "rhf"
			},
			{
				"type": "occ",
				"energy": -0.23529,
				"method": "rhf"
			},
			{
				"type": "unocc",
				"energy": -0.02881,
				"method": "rhf"
			},
			{
				"type": "unocc",
				"energy": -0.00947,
				"method": "rhf"
			},
			{
				"type": "unocc",
				"energy": 0.04007,
				"method": "rhf"
			},
			{
				"type": "unocc",
				"energy": 0.05234,
				"method": "rhf"
			},
			{
				"type": "unocc",
				"energy": 0.1014,
				"method": "rhf"
			}
		],
		"cosmo_sigma_profile": { 
			"-0.025": 0.0,
			"-0.024": 0.0,
			"-0.023": 0.0,
			"-0.022": 0.0,
			"-0.021": 0.0,
			"-0.02": 0.0,
			"-0.019": 0.0,
			"-0.018": 0.0841690184652,
			"-0.017": 0.636040124872,
			"-0.016": 0.742308728769,
			"-0.015": 1.38869843434,
			"-0.014": 0.845923274844,
			"-0.013": 1.15292671445,
			"-0.012": 1.07044552173,
			"-0.011": 1.65652534778,
			"-0.01": 1.06541822018,
			"-0.009": 1.2490210547,
			"-0.008": 1.70273055285,
			"-0.007": 5.81371215069,
			"-0.006": 10.0633912208,
			"-0.005": 9.33791546958,
			"-0.004": 8.27840788943,
			"-0.003": 8.43544763376,
			"-0.002": 11.1896442334,
			"-0.001": 10.7214435201,
			"0.0": 12.694029203,
			"0.001": 11.6680444992,
			"0.002": 12.8208032459,
			"0.003": 9.97020683869,
			"0.004": 8.63627713484,
			"0.005": 10.4738148019,
			"0.006": 5.22359343492,
			"0.007": 4.19325852434,
			"0.008": 3.61819303217,
			"0.009": 3.76351365347,
			"0.01": 3.31851621061,
			"0.011": 2.03293642567,
			"0.012": 0.721794667696,
			"0.013": 0.998927725542,
			"0.014": 0.790151341884,
			"0.015": 0.589653204707,
			"0.016": 0.0119932046464,
			"0.017": 0.0,
			"0.018": 0.0,
			"0.019": 0.0,
			"0.02": 0.0,
			"0.021": 0.0,
			"0.022": 0.0,
			"0.023": 0.0,
			"0.024": 0.0,
			"0.025": 0.0
		}
	}
}
