{
	 "smiles": "CCC1=NCCO1", 
	 "Tm": 211.15, 
	 "num_atms": 16, 
	 "gaussian": { 
		 "optdone": 1, 
		 "sigma_profile": "yes", 
		 "theory": "DFT", 
		 "functional": "B3LYP", 
		 "basiset": "6-31G**", 
		 "properties": { 
			 "R2extent": 1000.7368, 
			 "electric_dipole_moment_norm": 1.33674088364, 
			 "electric_quadrupole_moment_norm": 6.62388025858, 
			 "total_energy": -325.924109885, 
			 "HOMO_LUMO_gap": 0.26917, 
			 "cosmo_polarized_energy": -6.52, 
			 "cosmo_cavitation_energy": 18.71, 
			 "cosmo_dispersion_energy": -14.25, 
			 "cosmo_repulsion_energy": 1.24, 
			 "cosmo_total_nonelectrostatic_energy": 5.7, 
			 "SMD_solvation_energy": 0.08 
		},
		"coords": [
			{
				"x": -1.453472429,
				"y": 1.9344224062,
				"z": 1.6402629218,
				"element": "C" 
			},
			{
				"x": -1.4649024525,
				"y": 0.770686681,
				"z": 0.6354749504,
				"element": "C" 
			},
			{
				"x": -0.2191091213,
				"y": -0.0586332493,
				"z": 0.6905428605,
				"element": "C" 
			},
			{
				"x": 0.6075840617,
				"y": -0.2477755687,
				"z": -0.2601570518,
				"element": "N" 
			},
			{
				"x": 1.6620121285,
				"y": -1.1266888121,
				"z": 0.2678825759,
				"element": "C" 
			},
			{
				"x": 1.2684989476,
				"y": -1.3799747711,
				"z": 1.74789011,
				"element": "C" 
			},
			{
				"x": 0.025607925,
				"y": -0.6534913628,
				"z": 1.9007248326,
				"element": "O" 
			},
			{
				"x": -2.3850805759,
				"y": 2.5041241692,
				"z": 1.5747304102,
				"element": "H" 
			},
			{
				"x": -0.6236214507,
				"y": 2.6184498854,
				"z": 1.4370061508,
				"element": "H" 
			},
			{
				"x": -1.3474578704,
				"y": 1.5654675203,
				"z": 2.6637339104,
				"element": "H" 
			},
			{
				"x": -1.5668862336,
				"y": 1.1358531552,
				"z": -0.3889000002,
				"element": "H" 
			},
			{
				"x": -2.3207758836,
				"y": 0.1165740476,
				"z": 0.8443889724,
				"element": "H" 
			},
			{
				"x": 2.6385952681,
				"y": -0.6389776383,
				"z": 0.171906667,
				"element": "H" 
			},
			{
				"x": 1.7037868397,
				"y": -2.0517732699,
				"z": -0.3186052469,
				"element": "H" 
			},
			{
				"x": 1.9900528311,
				"y": -0.9814930572,
				"z": 2.4678199126,
				"element": "H" 
			},
			{
				"x": 1.0812680153,
				"y": -2.4324701354,
				"z": 1.9802980242,
				"element": "H" 
			}
		],
		 "valence_orbital": [ 
			{
				"type": "occ",
				"energy": -0.35377,
				"method": "rhf"
			},
			{
				"type": "occ",
				"energy": -0.34708,
				"method": "rhf"
			},
			{
				"type": "occ",
				"energy": -0.33664,
				"method": "rhf"
			},
			{
				"type": "occ",
				"energy": -0.26549,
				"method": "rhf"
			},
			{
				"type": "occ",
				"energy": -0.23947,
				"method": "rhf"
			},
			{
				"type": "unocc",
				"energy": 0.0297,
				"method": "rhf"
			},
			{
				"type": "unocc",
				"energy": 0.09082,
				"method": "rhf"
			},
			{
				"type": "unocc",
				"energy": 0.11072,
				"method": "rhf"
			},
			{
				"type": "unocc",
				"energy": 0.12905,
				"method": "rhf"
			},
			{
				"type": "unocc",
				"energy": 0.13718,
				"method": "rhf"
			}
		],
		"cosmo_sigma_profile": { 
			"-0.025": 0.0,
			"-0.024": 0.0,
			"-0.023": 0.0,
			"-0.022": 0.0,
			"-0.021": 0.0,
			"-0.02": 0.0,
			"-0.019": 0.0,
			"-0.018": 0.0,
			"-0.017": 0.0,
			"-0.016": 0.0,
			"-0.015": 0.0,
			"-0.014": 0.0,
			"-0.013": 0.0,
			"-0.012": 0.0,
			"-0.011": 0.0,
			"-0.01": 0.0,
			"-0.009": 0.0,
			"-0.008": 0.0,
			"-0.007": 0.0,
			"-0.006": 2.63280145219,
			"-0.005": 12.7697774737,
			"-0.004": 19.3015945784,
			"-0.003": 19.2249851376,
			"-0.002": 18.6154581626,
			"-0.001": 16.7533873712,
			"0.0": 12.8745002184,
			"0.001": 9.68944085359,
			"0.002": 4.32696905799,
			"0.003": 3.40546511161,
			"0.004": 3.25938984346,
			"0.005": 3.25689709625,
			"0.006": 2.90176471336,
			"0.007": 2.63435136417,
			"0.008": 2.56728873077,
			"0.009": 2.01271883516,
			"0.01": 1.99225269947,
			"0.011": 1.32555446418,
			"0.012": 1.44719643722,
			"0.013": 1.06773612224,
			"0.014": 0.947078650364,
			"0.015": 1.10002542665,
			"0.016": 0.876750343716,
			"0.017": 1.15220164767,
			"0.018": 0.372786321021,
			"0.019": 0.0,
			"0.02": 0.0,
			"0.021": 0.0,
			"0.022": 0.0,
			"0.023": 0.0,
			"0.024": 0.0,
			"0.025": 0.0
		}
	}
}
