{
	 "smiles": "ON=CC1=CC=C(OC(F)(F)F)C=C1", 
	 "Tm": 314.15, 
	 "num_atms": 20, 
	 "gaussian": { 
		 "optdone": 1, 
		 "sigma_profile": "yes", 
		 "theory": "DFT", 
		 "functional": "B3LYP", 
		 "basiset": "6-31G**", 
		 "properties": { 
			 "R2extent": 4099.3302, 
			 "electric_dipole_moment_norm": 1.1490968497, 
			 "electric_quadrupole_moment_norm": 9.82287813016, 
			 "total_energy": -813.125876732, 
			 "HOMO_LUMO_gap": 0.18537, 
			 "cosmo_polarized_energy": -7.78, 
			 "cosmo_cavitation_energy": 26.48, 
			 "cosmo_dispersion_energy": -19.29, 
			 "cosmo_repulsion_energy": 1.46, 
			 "cosmo_total_nonelectrostatic_energy": 8.65, 
			 "SMD_solvation_energy": 6.25 
		},
		"coords": [
			{
				"x": 0.6611363299,
				"y": 2.3083274958,
				"z": -3.0447484624,
				"element": "O" 
			},
			{
				"x": -0.5508030681,
				"y": 2.2182080837,
				"z": -3.741235092,
				"element": "N" 
			},
			{
				"x": -1.4490909026,
				"y": 1.5259449461,
				"z": -3.135598894,
				"element": "C" 
			},
			{
				"x": -1.4759714947,
				"y": 0.8034566595,
				"z": -1.8586026907,
				"element": "C" 
			},
			{
				"x": -0.4067018928,
				"y": 0.7165395255,
				"z": -0.9466212032,
				"element": "C" 
			},
			{
				"x": -0.529217276,
				"y": 0.004062651,
				"z": 0.2451798225,
				"element": "C" 
			},
			{
				"x": -1.7347962635,
				"y": -0.6340878832,
				"z": 0.5381086928,
				"element": "C" 
			},
			{
				"x": -1.9871824121,
				"y": -1.3765673991,
				"z": 1.6909540289,
				"element": "O" 
			},
			{
				"x": -1.044294549,
				"y": -1.5320350422,
				"z": 2.6536216765,
				"element": "C" 
			},
			{
				"x": -1.5808664956,
				"y": -2.278909545,
				"z": 3.6164130137,
				"element": "F" 
			},
			{
				"x": -0.6541877599,
				"y": -0.3588554652,
				"z": 3.1884309952,
				"element": "F" 
			},
			{
				"x": 0.0619323146,
				"y": -2.1511276502,
				"z": 2.1976631858,
				"element": "F" 
			},
			{
				"x": -2.8129015758,
				"y": -0.5669313282,
				"z": -0.3449563366,
				"element": "C" 
			},
			{
				"x": -2.6775480891,
				"y": 0.1454492087,
				"z": -1.5278315244,
				"element": "C" 
			},
			{
				"x": 1.1958104377,
				"y": 2.850809792,
				"z": -3.6390218208,
				"element": "H" 
			},
			{
				"x": -2.3722371505,
				"y": 1.4837219079,
				"z": -3.7134547546,
				"element": "H" 
			},
			{
				"x": 0.5273486304,
				"y": 1.2098771213,
				"z": -1.1715374699,
				"element": "H" 
			},
			{
				"x": 0.3108469137,
				"y": -0.0441430868,
				"z": 0.9249830571,
				"element": "H" 
			},
			{
				"x": -3.7373539834,
				"y": -1.0732831707,
				"z": -0.0899043703,
				"element": "H" 
			},
			{
				"x": -3.5193217132,
				"y": 0.1955431791,
				"z": -2.2130418536,
				"element": "H" 
			}
		],
		 "valence_orbital": [ 
			{
				"type": "occ",
				"energy": -0.3553,
				"method": "rhf"
			},
			{
				"type": "occ",
				"energy": -0.28994,
				"method": "rhf"
			},
			{
				"type": "occ",
				"energy": -0.27628,
				"method": "rhf"
			},
			{
				"type": "occ",
				"energy": -0.26901,
				"method": "rhf"
			},
			{
				"type": "occ",
				"energy": -0.23292,
				"method": "rhf"
			},
			{
				"type": "unocc",
				"energy": -0.04755,
				"method": "rhf"
			},
			{
				"type": "unocc",
				"energy": -0.01787,
				"method": "rhf"
			},
			{
				"type": "unocc",
				"energy": 0.0491,
				"method": "rhf"
			},
			{
				"type": "unocc",
				"energy": 0.06183,
				"method": "rhf"
			},
			{
				"type": "unocc",
				"energy": 0.09111,
				"method": "rhf"
			}
		],
		"cosmo_sigma_profile": { 
			"-0.025": 0.0,
			"-0.024": 0.0,
			"-0.023": 0.0,
			"-0.022": 0.0,
			"-0.021": 0.0,
			"-0.02": 0.0,
			"-0.019": 0.0,
			"-0.018": 0.145261720645,
			"-0.017": 1.1268789864,
			"-0.016": 0.883134529746,
			"-0.015": 0.996807972173,
			"-0.014": 1.04308161577,
			"-0.013": 0.432736829012,
			"-0.012": 0.434461012043,
			"-0.011": 0.52470850039,
			"-0.01": 0.891874592641,
			"-0.009": 1.10718609353,
			"-0.008": 4.5024765673,
			"-0.007": 7.61920192598,
			"-0.006": 7.74065910628,
			"-0.005": 6.89423417008,
			"-0.004": 6.94639003919,
			"-0.003": 8.29646882041,
			"-0.002": 9.80730163552,
			"-0.001": 13.9118865721,
			"0.0": 19.0615540212,
			"0.001": 33.1214050622,
			"0.002": 40.1338442,
			"0.003": 19.1093681677,
			"0.004": 6.68426921658,
			"0.005": 6.39351817231,
			"0.006": 4.55956451999,
			"0.007": 2.56538574701,
			"0.008": 2.16138794104,
			"0.009": 1.37410102397,
			"0.01": 1.41432802489,
			"0.011": 0.946093584327,
			"0.012": 0.884745118617,
			"0.013": 0.871216962732,
			"0.014": 0.234236973239,
			"0.015": 0.0,
			"0.016": 0.0,
			"0.017": 0.0,
			"0.018": 0.0,
			"0.019": 0.0,
			"0.02": 0.0,
			"0.021": 0.0,
			"0.022": 0.0,
			"0.023": 0.0,
			"0.024": 0.0,
			"0.025": 0.0
		}
	}
}
