{
	 "smiles": "OCCNC1=NN=C(Cl)C=C1", 
	 "Tm": 407.15, 
	 "num_atms": 19, 
	 "gaussian": { 
		 "optdone": 1, 
		 "sigma_profile": "yes", 
		 "theory": "DFT", 
		 "functional": "B3LYP", 
		 "basiset": "6-31G**", 
		 "properties": { 
			 "R2extent": 4023.6024, 
			 "electric_dipole_moment_norm": 6.89218324843, 
			 "electric_quadrupole_moment_norm": 21.5276906925, 
			 "total_energy": -933.080327701, 
			 "HOMO_LUMO_gap": 0.17116, 
			 "cosmo_polarized_energy": -16.94, 
			 "cosmo_cavitation_energy": 25.13, 
			 "cosmo_dispersion_energy": -19.04, 
			 "cosmo_repulsion_energy": 1.56, 
			 "cosmo_total_nonelectrostatic_energy": 7.65, 
			 "SMD_solvation_energy": 1.53 
		},
		"coords": [
			{
				"x": -1.1345782847,
				"y": -2.8862645019,
				"z": 0.3429163013,
				"element": "O" 
			},
			{
				"x": 0.0243316949,
				"y": -2.4961925789,
				"z": 1.0699125605,
				"element": "C" 
			},
			{
				"x": 0.2558237032,
				"y": -1.0185501866,
				"z": 0.7866809556,
				"element": "C" 
			},
			{
				"x": 0.4202623042,
				"y": -0.8263236133,
				"z": -0.6410961765,
				"element": "N" 
			},
			{
				"x": 0.7149054383,
				"y": 0.3778202018,
				"z": -1.2232850916,
				"element": "C" 
			},
			{
				"x": 0.4719208457,
				"y": 0.4400912418,
				"z": -2.5495450822,
				"element": "N" 
			},
			{
				"x": 0.7669227423,
				"y": 1.5416659178,
				"z": -3.2321091828,
				"element": "N" 
			},
			{
				"x": 1.2903954923,
				"y": 2.5801125444,
				"z": -2.6066347952,
				"element": "C" 
			},
			{
				"x": 1.6480179494,
				"y": 3.9919384906,
				"z": -3.5883675823,
				"element": "Cl" 
			},
			{
				"x": 1.5568704763,
				"y": 2.6102903194,
				"z": -1.2302413041,
				"element": "C" 
			},
			{
				"x": 1.2577855111,
				"y": 1.4744992239,
				"z": -0.5112682232,
				"element": "C" 
			},
			{
				"x": -1.2018036807,
				"y": -3.8483804233,
				"z": 0.3599136763,
				"element": "H" 
			},
			{
				"x": 0.9080038735,
				"y": -3.0682434449,
				"z": 0.7511897653,
				"element": "H" 
			},
			{
				"x": -0.1071022841,
				"y": -2.6386063336,
				"z": 2.1529865888,
				"element": "H" 
			},
			{
				"x": 1.1620192366,
				"y": -0.7052154602,
				"z": 1.318799534,
				"element": "H" 
			},
			{
				"x": -0.5874498526,
				"y": -0.4349053644,
				"z": 1.1901700403,
				"element": "H" 
			},
			{
				"x": -0.1607291662,
				"y": -1.4239191646,
				"z": -1.2180071376,
				"element": "H" 
			},
			{
				"x": 1.9745978309,
				"y": 3.4942022394,
				"z": -0.7619059487,
				"element": "H" 
			},
			{
				"x": 1.4312061699,
				"y": 1.4284808925,
				"z": 0.5578911021,
				"element": "H" 
			}
		],
		 "valence_orbital": [ 
			{
				"type": "occ",
				"energy": -0.30858,
				"method": "rhf"
			},
			{
				"type": "occ",
				"energy": -0.29613,
				"method": "rhf"
			},
			{
				"type": "occ",
				"energy": -0.29298,
				"method": "rhf"
			},
			{
				"type": "occ",
				"energy": -0.23386,
				"method": "rhf"
			},
			{
				"type": "occ",
				"energy": -0.22051,
				"method": "rhf"
			},
			{
				"type": "unocc",
				"energy": -0.04935,
				"method": "rhf"
			},
			{
				"type": "unocc",
				"energy": -0.00897,
				"method": "rhf"
			},
			{
				"type": "unocc",
				"energy": 0.03669,
				"method": "rhf"
			},
			{
				"type": "unocc",
				"energy": 0.05532,
				"method": "rhf"
			},
			{
				"type": "unocc",
				"energy": 0.08728,
				"method": "rhf"
			}
		],
		"cosmo_sigma_profile": { 
			"-0.025": 0.0,
			"-0.024": 0.0,
			"-0.023": 0.0,
			"-0.022": 0.0,
			"-0.021": 0.0,
			"-0.02": 0.0,
			"-0.019": 0.0,
			"-0.018": 0.0,
			"-0.017": 0.108793015115,
			"-0.016": 1.10384957913,
			"-0.015": 0.907341545759,
			"-0.014": 0.518918541858,
			"-0.013": 1.51979796519,
			"-0.012": 0.774855027206,
			"-0.011": 1.01780176904,
			"-0.01": 0.951406808534,
			"-0.009": 3.30544518662,
			"-0.008": 6.27758224371,
			"-0.007": 7.59952910428,
			"-0.006": 7.37496885217,
			"-0.005": 11.4382062448,
			"-0.004": 18.4572014319,
			"-0.003": 13.8848333777,
			"-0.002": 13.1568986255,
			"-0.001": 16.6756708095,
			"0.0": 14.3928622877,
			"0.001": 10.2795240964,
			"0.002": 8.21147945795,
			"0.003": 8.95380237254,
			"0.004": 13.2110024841,
			"0.005": 8.25987359005,
			"0.006": 4.92801843957,
			"0.007": 4.13426705538,
			"0.008": 3.73837020673,
			"0.009": 2.78269555731,
			"0.01": 3.38834807999,
			"0.011": 2.53647445853,
			"0.012": 3.2081161572,
			"0.013": 3.84195770381,
			"0.014": 3.07191057172,
			"0.015": 1.70689332654,
			"0.016": 0.0113149745715,
			"0.017": 0.0,
			"0.018": 0.0,
			"0.019": 0.0,
			"0.02": 0.0,
			"0.021": 0.0,
			"0.022": 0.0,
			"0.023": 0.0,
			"0.024": 0.0,
			"0.025": 0.0
		}
	}
}
