{
	 "smiles": "OC(=O)C1=C(Br)N=CC(Cl)=N1", 
	 "Tm": 373.15, 
	 "num_atms": 13, 
	 "gaussian": { 
		 "optdone": 1, 
		 "sigma_profile": "yes", 
		 "theory": "DFT", 
		 "functional": "B3LYP", 
		 "basiset": "6-31G**", 
		 "properties": { 
			 "R2extent": 4423.4433, 
			 "electric_dipole_moment_norm": 4.10072903396, 
			 "electric_quadrupole_moment_norm": 5.86494294516, 
			 "total_energy": -3483.26903171, 
			 "HOMO_LUMO_gap": 0.16696, 
			 "cosmo_polarized_energy": -12.12, 
			 "cosmo_cavitation_energy": 22.81, 
			 "cosmo_dispersion_energy": -17.72, 
			 "cosmo_repulsion_energy": 1.43, 
			 "cosmo_total_nonelectrostatic_energy": 6.52, 
			 "SMD_solvation_energy": 1.88 
		},
		"coords": [
			{
				"x": 1.537791998,
				"y": 1.2416665661,
				"z": -0.357510317,
				"element": "O" 
			},
			{
				"x": 1.386666007,
				"y": 1.0098500324,
				"z": 0.9550672832,
				"element": "C" 
			},
			{
				"x": 1.7935365597,
				"y": 1.7648327252,
				"z": 1.8030083302,
				"element": "O" 
			},
			{
				"x": 0.6555308411,
				"y": -0.2886834483,
				"z": 1.252273315,
				"element": "C" 
			},
			{
				"x": 0.3437609003,
				"y": -0.8068323803,
				"z": 2.5243152118,
				"element": "C" 
			},
			{
				"x": 0.7971987033,
				"y": 0.0554074331,
				"z": 4.1464919921,
				"element": "Br" 
			},
			{
				"x": -0.3042650778,
				"y": -1.9622182606,
				"z": 2.6579684706,
				"element": "N" 
			},
			{
				"x": -0.6573052316,
				"y": -2.6279118859,
				"z": 1.564664053,
				"element": "C" 
			},
			{
				"x": -0.3500970014,
				"y": -2.1175849709,
				"z": 0.2955565284,
				"element": "C" 
			},
			{
				"x": -0.8135935823,
				"y": -2.9912663888,
				"z": -1.1393387795,
				"element": "Cl" 
			},
			{
				"x": 0.2910003717,
				"y": -0.9749297592,
				"z": 0.154849001,
				"element": "N" 
			},
			{
				"x": 1.1300741666,
				"y": 0.4973327735,
				"z": -0.8428191849,
				"element": "H" 
			},
			{
				"x": -1.1852986546,
				"y": -3.5688624364,
				"z": 1.6872740963,
				"element": "H" 
			}
		],
		 "valence_orbital": [ 
			{
				"type": "occ",
				"energy": -0.32404,
				"method": "rhf"
			},
			{
				"type": "occ",
				"energy": -0.32329,
				"method": "rhf"
			},
			{
				"type": "occ",
				"energy": -0.30361,
				"method": "rhf"
			},
			{
				"type": "occ",
				"energy": -0.28209,
				"method": "rhf"
			},
			{
				"type": "occ",
				"energy": -0.27465,
				"method": "rhf"
			},
			{
				"type": "unocc",
				"energy": -0.10769,
				"method": "rhf"
			},
			{
				"type": "unocc",
				"energy": -0.08205,
				"method": "rhf"
			},
			{
				"type": "unocc",
				"energy": -0.01101,
				"method": "rhf"
			},
			{
				"type": "unocc",
				"energy": 0.00135,
				"method": "rhf"
			},
			{
				"type": "unocc",
				"energy": 0.0169,
				"method": "rhf"
			}
		],
		"cosmo_sigma_profile": { 
			"-0.025": 0.0,
			"-0.024": 0.0,
			"-0.023": 0.0,
			"-0.022": 0.0,
			"-0.021": 0.0,
			"-0.02": 0.0,
			"-0.019": 0.0,
			"-0.018": 0.0,
			"-0.017": 0.0,
			"-0.016": 0.0,
			"-0.015": 0.052446578685,
			"-0.014": 0.724999193075,
			"-0.013": 0.437620310192,
			"-0.012": 0.379079319206,
			"-0.011": 1.68304131752,
			"-0.01": 2.58948746388,
			"-0.009": 2.78630533647,
			"-0.008": 5.49609340742,
			"-0.007": 8.28995712096,
			"-0.006": 11.9271500792,
			"-0.005": 12.636533669,
			"-0.004": 11.0090936387,
			"-0.003": 9.97908103984,
			"-0.002": 10.3314119276,
			"-0.001": 11.4235615643,
			"0.0": 10.3806765645,
			"0.001": 12.708106065,
			"0.002": 18.8467105986,
			"0.003": 15.7021634488,
			"0.004": 5.4652563706,
			"0.005": 5.34324877765,
			"0.006": 3.93917683996,
			"0.007": 4.17984030111,
			"0.008": 5.20434087253,
			"0.009": 5.94389655119,
			"0.01": 6.01655248092,
			"0.011": 5.4711705827,
			"0.012": 1.61090780232,
			"0.013": 0.0267085089916,
			"0.014": 0.0,
			"0.015": 0.0,
			"0.016": 0.0,
			"0.017": 0.0,
			"0.018": 0.0,
			"0.019": 0.0,
			"0.02": 0.0,
			"0.021": 0.0,
			"0.022": 0.0,
			"0.023": 0.0,
			"0.024": 0.0,
			"0.025": 0.0
		}
	}
}
