{
	 "smiles": "CCOC(=O)C(=NOC(C)(C)C(=O)OC(C)(C)C)C1=CSC(N)=N1", 
	 "Tm": 444.15, 
	 "num_atms": 47, 
	 "gaussian": { 
		 "optdone": 1, 
		 "sigma_profile": "yes", 
		 "theory": "DFT", 
		 "functional": "B3LYP", 
		 "basiset": "6-31G**", 
		 "properties": { 
			 "R2extent": 9982.1804, 
			 "electric_dipole_moment_norm": 2.32275376224, 
			 "electric_quadrupole_moment_norm": 24.8241695611, 
			 "total_energy": -1523.99260517, 
			 "HOMO_LUMO_gap": 0.16412, 
			 "cosmo_polarized_energy": -21.73, 
			 "cosmo_cavitation_energy": 52.74, 
			 "cosmo_dispersion_energy": -32.9, 
			 "cosmo_repulsion_energy": 2.57, 
			 "cosmo_total_nonelectrostatic_energy": 22.4, 
			 "SMD_solvation_energy": 9.68 
		},
		"coords": [
			{
				"x": 2.4485234651,
				"y": -2.9798662269,
				"z": 4.244898714,
				"element": "C" 
			},
			{
				"x": 1.6393429009,
				"y": -1.6929326373,
				"z": 4.1968869182,
				"element": "C" 
			},
			{
				"x": 1.8090206321,
				"y": -1.0111750092,
				"z": 2.9273823617,
				"element": "O" 
			},
			{
				"x": 0.9886561315,
				"y": -1.3790833654,
				"z": 1.9336751161,
				"element": "C" 
			},
			{
				"x": 0.1669864218,
				"y": -2.2704078272,
				"z": 2.0040278629,
				"element": "O" 
			},
			{
				"x": 1.2390646686,
				"y": -0.5736819357,
				"z": 0.6759857099,
				"element": "C" 
			},
			{
				"x": 1.1322133321,
				"y": 0.7080069234,
				"z": 0.6049655695,
				"element": "N" 
			},
			{
				"x": 0.7343783792,
				"y": 1.2843025183,
				"z": 1.8000024109,
				"element": "O" 
			},
			{
				"x": 0.6723123799,
				"y": 2.7222567778,
				"z": 1.6574444417,
				"element": "C" 
			},
			{
				"x": 2.0801189281,
				"y": 3.2992495189,
				"z": 1.5218898158,
				"element": "C" 
			},
			{
				"x": -0.0323945325,
				"y": 3.1914359687,
				"z": 2.9348586911,
				"element": "C" 
			},
			{
				"x": -0.1878277659,
				"y": 3.1137630723,
				"z": 0.4327453543,
				"element": "C" 
			},
			{
				"x": 0.0652690224,
				"y": 4.0770545395,
				"z": -0.2621081294,
				"element": "O" 
			},
			{
				"x": -1.2430780661,
				"y": 2.3021746572,
				"z": 0.3075283199,
				"element": "O" 
			},
			{
				"x": -2.1567242386,
				"y": 2.3887978348,
				"z": -0.8503984201,
				"element": "C" 
			},
			{
				"x": -1.3629645656,
				"y": 2.2056811203,
				"z": -2.1485744111,
				"element": "C" 
			},
			{
				"x": -3.0998956468,
				"y": 1.2068525193,
				"z": -0.6158134237,
				"element": "C" 
			},
			{
				"x": -2.9177619044,
				"y": 3.7175092534,
				"z": -0.8101050744,
				"element": "C" 
			},
			{
				"x": 1.5762178008,
				"y": -1.3118580841,
				"z": -0.5490650513,
				"element": "C" 
			},
			{
				"x": 1.5916267073,
				"y": -2.6775995317,
				"z": -0.6533520096,
				"element": "C" 
			},
			{
				"x": 2.0347878932,
				"y": -3.1520652731,
				"z": -2.2691202558,
				"element": "S" 
			},
			{
				"x": 2.1842708344,
				"y": -1.4283069739,
				"z": -2.670907396,
				"element": "C" 
			},
			{
				"x": 2.4898341578,
				"y": -1.0263204276,
				"z": -3.949286774,
				"element": "N" 
			},
			{
				"x": 1.9184356892,
				"y": -0.6134920649,
				"z": -1.6965766404,
				"element": "N" 
			},
			{
				"x": 3.5042758337,
				"y": -2.7844531242,
				"z": 4.0358394497,
				"element": "H" 
			},
			{
				"x": 2.070097194,
				"y": -3.7010724786,
				"z": 3.5164820849,
				"element": "H" 
			},
			{
				"x": 2.3723772036,
				"y": -3.4277301339,
				"z": 5.241309561,
				"element": "H" 
			},
			{
				"x": 1.9901444353,
				"y": -0.9700752529,
				"z": 4.9367174955,
				"element": "H" 
			},
			{
				"x": 0.5756174867,
				"y": -1.8863190448,
				"z": 4.3522957928,
				"element": "H" 
			},
			{
				"x": 2.0381987635,
				"y": 4.3842991513,
				"z": 1.4120870857,
				"element": "H" 
			},
			{
				"x": 2.5724903869,
				"y": 2.8832688357,
				"z": 0.6404206423,
				"element": "H" 
			},
			{
				"x": 2.6650760335,
				"y": 3.0446766454,
				"z": 2.4102837193,
				"element": "H" 
			},
			{
				"x": -1.0266617825,
				"y": 2.7447454061,
				"z": 3.006597507,
				"element": "H" 
			},
			{
				"x": -0.1289995859,
				"y": 4.2804781464,
				"z": 2.9308534908,
				"element": "H" 
			},
			{
				"x": 0.5532139193,
				"y": 2.8949584418,
				"z": 3.8096437654,
				"element": "H" 
			},
			{
				"x": -2.0591890411,
				"y": 2.0805866076,
				"z": -2.9844703326,
				"element": "H" 
			},
			{
				"x": -0.7314811367,
				"y": 1.3146957852,
				"z": -2.0850464638,
				"element": "H" 
			},
			{
				"x": -0.7271779735,
				"y": 3.0688164978,
				"z": -2.3481581163,
				"element": "H" 
			},
			{
				"x": -3.8493054604,
				"y": 1.1609737845,
				"z": -1.4118189414,
				"element": "H" 
			},
			{
				"x": -3.6176265533,
				"y": 1.3101759873,
				"z": 0.34235273,
				"element": "H" 
			},
			{
				"x": -2.5426825002,
				"y": 0.2661689929,
				"z": -0.6059359632,
				"element": "H" 
			},
			{
				"x": -3.6669952403,
				"y": 3.7348948895,
				"z": -1.6085498386,
				"element": "H" 
			},
			{
				"x": -2.2397103014,
				"y": 4.5605984154,
				"z": -0.9463864132,
				"element": "H" 
			},
			{
				"x": -3.4391900928,
				"y": 3.8305737196,
				"z": 0.1458247523,
				"element": "H" 
			},
			{
				"x": 1.3326667361,
				"y": -3.4107184868,
				"z": 0.0941032657,
				"element": "H" 
			},
			{
				"x": 2.7244206045,
				"y": -0.0438316836,
				"z": -4.0087454664,
				"element": "H" 
			},
			{
				"x": 3.0911284464,
				"y": -1.6295064485,
				"z": -4.4915835075,
				"element": "H" 
			}
		],
		 "valence_orbital": [ 
			{
				"type": "occ",
				"energy": -0.27694,
				"method": "rhf"
			},
			{
				"type": "occ",
				"energy": -0.26135,
				"method": "rhf"
			},
			{
				"type": "occ",
				"energy": -0.2598,
				"method": "rhf"
			},
			{
				"type": "occ",
				"energy": -0.24265,
				"method": "rhf"
			},
			{
				"type": "occ",
				"energy": -0.20788,
				"method": "rhf"
			},
			{
				"type": "unocc",
				"energy": -0.04376,
				"method": "rhf"
			},
			{
				"type": "unocc",
				"energy": -0.00806,
				"method": "rhf"
			},
			{
				"type": "unocc",
				"energy": 0.00747,
				"method": "rhf"
			},
			{
				"type": "unocc",
				"energy": 0.01572,
				"method": "rhf"
			},
			{
				"type": "unocc",
				"energy": 0.02691,
				"method": "rhf"
			}
		],
		"cosmo_sigma_profile": { 
			"-0.025": 0.0,
			"-0.024": 0.0,
			"-0.023": 0.0,
			"-0.022": 0.0,
			"-0.021": 0.0,
			"-0.02": 0.0,
			"-0.019": 0.0,
			"-0.018": 0.0,
			"-0.017": 0.0,
			"-0.016": 0.0,
			"-0.015": 0.755394508974,
			"-0.014": 2.62201288273,
			"-0.013": 3.02820583348,
			"-0.012": 2.0227601104,
			"-0.011": 3.04478609705,
			"-0.01": 2.02252284165,
			"-0.009": 2.34600365747,
			"-0.008": 3.18148502325,
			"-0.007": 3.51997601963,
			"-0.006": 6.79362244827,
			"-0.005": 15.8271729806,
			"-0.004": 37.6644177316,
			"-0.003": 38.7395134425,
			"-0.002": 38.1083127388,
			"-0.001": 43.5486675055,
			"0.0": 50.6132118979,
			"0.001": 34.9315718614,
			"0.002": 24.1884399463,
			"0.003": 19.8930319503,
			"0.004": 17.2405006403,
			"0.005": 13.6593131494,
			"0.006": 10.2423270176,
			"0.007": 8.04909956784,
			"0.008": 6.98625212761,
			"0.009": 6.97257145187,
			"0.01": 7.04555041105,
			"0.011": 6.56920718773,
			"0.012": 3.59666449286,
			"0.013": 0.995096456704,
			"0.014": 0.387958685289,
			"0.015": 0.926722642524,
			"0.016": 0.626167025633,
			"0.017": 0.0683009407889,
			"0.018": 0.0,
			"0.019": 0.0,
			"0.02": 0.0,
			"0.021": 0.0,
			"0.022": 0.0,
			"0.023": 0.0,
			"0.024": 0.0,
			"0.025": 0.0
		}
	}
}
