{
	 "smiles": "CC1=CC(=O)OC2=C1C=CC(O)=C2C", 
	 "Tm": 527.15, 
	 "num_atms": 24, 
	 "gaussian": { 
		 "optdone": 1, 
		 "sigma_profile": "yes", 
		 "theory": "DFT", 
		 "functional": "B3LYP", 
		 "basiset": "6-31G**", 
		 "properties": { 
			 "R2extent": 2803.6717, 
			 "electric_dipole_moment_norm": 3.82931588799, 
			 "electric_quadrupole_moment_norm": 21.0885833576, 
			 "total_energy": -650.886503226, 
			 "HOMO_LUMO_gap": 0.16467, 
			 "cosmo_polarized_energy": -14.37, 
			 "cosmo_cavitation_energy": 27.56, 
			 "cosmo_dispersion_energy": -20.49, 
			 "cosmo_repulsion_energy": 1.58, 
			 "cosmo_total_nonelectrostatic_energy": 8.65, 
			 "SMD_solvation_energy": 6.13 
		},
		"coords": [
			{
				"x": -2.7550755333,
				"y": -0.3601635299,
				"z": -1.5515160761,
				"element": "C" 
			},
			{
				"x": -1.8077705602,
				"y": 0.1896677872,
				"z": -0.5186578958,
				"element": "C" 
			},
			{
				"x": -2.1987701064,
				"y": 1.1759874737,
				"z": 0.3306509088,
				"element": "C" 
			},
			{
				"x": -1.3244738696,
				"y": 1.7394184782,
				"z": 1.3425533284,
				"element": "C" 
			},
			{
				"x": -1.5987798182,
				"y": 2.6134835881,
				"z": 2.1321408003,
				"element": "O" 
			},
			{
				"x": -0.0337724475,
				"y": 1.2021972404,
				"z": 1.3990484194,
				"element": "O" 
			},
			{
				"x": 0.3965295627,
				"y": 0.2122526572,
				"z": 0.564594663,
				"element": "C" 
			},
			{
				"x": -0.4572271092,
				"y": -0.332373457,
				"z": -0.4188722302,
				"element": "C" 
			},
			{
				"x": 0.0598288369,
				"y": -1.3515979607,
				"z": -1.2425778016,
				"element": "C" 
			},
			{
				"x": 1.3579680116,
				"y": -1.8029871266,
				"z": -1.0934056565,
				"element": "C" 
			},
			{
				"x": 2.1801919051,
				"y": -1.2389351039,
				"z": -0.1045973216,
				"element": "C" 
			},
			{
				"x": 3.4461697762,
				"y": -1.7296211517,
				"z": -0.0120692588,
				"element": "O" 
			},
			{
				"x": 1.7189298039,
				"y": -0.2217637671,
				"z": 0.7438282804,
				"element": "C" 
			},
			{
				"x": 2.6168907021,
				"y": 0.3728916298,
				"z": 1.801337099,
				"element": "C" 
			},
			{
				"x": -2.9115948661,
				"y": -1.4355942549,
				"z": -1.4097144583,
				"element": "H" 
			},
			{
				"x": -3.7256905678,
				"y": 0.1366062014,
				"z": -1.4957064472,
				"element": "H" 
			},
			{
				"x": -2.3574254274,
				"y": -0.2232344958,
				"z": -2.5635830609,
				"element": "H" 
			},
			{
				"x": -3.1965254608,
				"y": 1.5979868908,
				"z": 0.2954411905,
				"element": "H" 
			},
			{
				"x": -0.5703849461,
				"y": -1.7911868759,
				"z": -2.00800052,
				"element": "H" 
			},
			{
				"x": 1.7647043094,
				"y": -2.5867945366,
				"z": -1.7225073446,
				"element": "H" 
			},
			{
				"x": 3.9204180976,
				"y": -1.2739197277,
				"z": 0.695560412,
				"element": "H" 
			},
			{
				"x": 2.0925867865,
				"y": 1.145870972,
				"z": 2.3622209798,
				"element": "H" 
			},
			{
				"x": 3.5101211226,
				"y": 0.8355597811,
				"z": 1.3604239591,
				"element": "H" 
			},
			{
				"x": 2.9515517979,
				"y": -0.3858507123,
				"z": 2.5215080306,
				"element": "H" 
			}
		],
		 "valence_orbital": [ 
			{
				"type": "occ",
				"energy": -0.3339,
				"method": "rhf"
			},
			{
				"type": "occ",
				"energy": -0.28651,
				"method": "rhf"
			},
			{
				"type": "occ",
				"energy": -0.26673,
				"method": "rhf"
			},
			{
				"type": "occ",
				"energy": -0.24376,
				"method": "rhf"
			},
			{
				"type": "occ",
				"energy": -0.22044,
				"method": "rhf"
			},
			{
				"type": "unocc",
				"energy": -0.05577,
				"method": "rhf"
			},
			{
				"type": "unocc",
				"energy": -0.00823,
				"method": "rhf"
			},
			{
				"type": "unocc",
				"energy": 0.01177,
				"method": "rhf"
			},
			{
				"type": "unocc",
				"energy": 0.05767,
				"method": "rhf"
			},
			{
				"type": "unocc",
				"energy": 0.08892,
				"method": "rhf"
			}
		],
		"cosmo_sigma_profile": { 
			"-0.025": 0.0,
			"-0.024": 0.0,
			"-0.023": 0.0,
			"-0.022": 0.0,
			"-0.021": 0.0,
			"-0.02": 0.0,
			"-0.019": 0.0,
			"-0.018": 0.0,
			"-0.017": 0.253671617938,
			"-0.016": 0.868454477276,
			"-0.015": 0.866794131679,
			"-0.014": 0.743052068973,
			"-0.013": 0.963439064414,
			"-0.012": 1.17545457135,
			"-0.011": 1.07571154208,
			"-0.01": 1.67436227022,
			"-0.009": 1.09234115183,
			"-0.008": 1.64363050185,
			"-0.007": 4.23912259329,
			"-0.006": 12.595676383,
			"-0.005": 15.6476506984,
			"-0.004": 14.3446073498,
			"-0.003": 15.8232293727,
			"-0.002": 17.6123799017,
			"-0.001": 19.6316967747,
			"0.0": 19.7741761941,
			"0.001": 16.1890311057,
			"0.002": 17.4486715412,
			"0.003": 12.2348239503,
			"0.004": 8.36438452311,
			"0.005": 3.16575981219,
			"0.006": 3.50679609781,
			"0.007": 3.17576799652,
			"0.008": 3.00803303933,
			"0.009": 3.19937098976,
			"0.01": 4.40012518587,
			"0.011": 3.48742663201,
			"0.012": 5.42633555221,
			"0.013": 5.08506458335,
			"0.014": 0.915571907284,
			"0.015": 0.0,
			"0.016": 0.0,
			"0.017": 0.0,
			"0.018": 0.0,
			"0.019": 0.0,
			"0.02": 0.0,
			"0.021": 0.0,
			"0.022": 0.0,
			"0.023": 0.0,
			"0.024": 0.0,
			"0.025": 0.0
		}
	}
}
