{
	 "smiles": "CC(C)(C)NCC(O)C1=CC=C(O)C(CO)=C1", 
	 "Tm": 427.4, 
	 "num_atms": 38, 
	 "gaussian": { 
		 "optdone": 1, 
		 "sigma_profile": "yes", 
		 "theory": "DFT", 
		 "functional": "B3LYP", 
		 "basiset": "6-31G**", 
		 "properties": { 
			 "R2extent": 6111.6066, 
			 "electric_dipole_moment_norm": 2.03706779465, 
			 "electric_quadrupole_moment_norm": 12.6873370453, 
			 "total_energy": -788.449071827, 
			 "HOMO_LUMO_gap": 0.21202, 
			 "cosmo_polarized_energy": -17.71, 
			 "cosmo_cavitation_energy": 39.28, 
			 "cosmo_dispersion_energy": -26.58, 
			 "cosmo_repulsion_energy": 2.12, 
			 "cosmo_total_nonelectrostatic_energy": 14.82, 
			 "SMD_solvation_energy": 5.66 
		},
		"coords": [
			{
				"x": 2.9007261718,
				"y": 1.4271395977,
				"z": -0.2112143496,
				"element": "C" 
			},
			{
				"x": 1.8318488246,
				"y": 1.0570671518,
				"z": -1.2641182204,
				"element": "C" 
			},
			{
				"x": 2.482346305,
				"y": 0.9467429686,
				"z": -2.6549652347,
				"element": "C" 
			},
			{
				"x": 0.7513908749,
				"y": 2.151312765,
				"z": -1.3022375731,
				"element": "C" 
			},
			{
				"x": 1.1218295177,
				"y": -0.2045782653,
				"z": -0.9531532297,
				"element": "N" 
			},
			{
				"x": 1.9125354568,
				"y": -1.4086418649,
				"z": -0.7383525684,
				"element": "C" 
			},
			{
				"x": 1.0046184242,
				"y": -2.6537076363,
				"z": -0.6196277842,
				"element": "C" 
			},
			{
				"x": 1.8097024759,
				"y": -3.827757877,
				"z": -0.5094917236,
				"element": "O" 
			},
			{
				"x": 0.1002161548,
				"y": -2.5981700504,
				"z": 0.5953787608,
				"element": "C" 
			},
			{
				"x": 0.532316376,
				"y": -3.0867598472,
				"z": 1.8323532701,
				"element": "C" 
			},
			{
				"x": -0.2902854924,
				"y": -2.9958957083,
				"z": 2.9544643841,
				"element": "C" 
			},
			{
				"x": -1.5553566967,
				"y": -2.4130179333,
				"z": 2.8534408077,
				"element": "C" 
			},
			{
				"x": -2.4001981641,
				"y": -2.292940457,
				"z": 3.9275387654,
				"element": "O" 
			},
			{
				"x": -2.0169151299,
				"y": -1.9232190876,
				"z": 1.6208463049,
				"element": "C" 
			},
			{
				"x": -3.4004089894,
				"y": -1.3082553546,
				"z": 1.5170891753,
				"element": "C" 
			},
			{
				"x": -3.8636213616,
				"y": -1.1683703117,
				"z": 0.1819110012,
				"element": "O" 
			},
			{
				"x": -1.1757182736,
				"y": -2.0240387153,
				"z": 0.5113515401,
				"element": "C" 
			},
			{
				"x": 3.6974270563,
				"y": 0.6777002995,
				"z": -0.1636131948,
				"element": "H" 
			},
			{
				"x": 2.4527864766,
				"y": 1.5068837751,
				"z": 0.7861012782,
				"element": "H" 
			},
			{
				"x": 3.3679402282,
				"y": 2.3898527376,
				"z": -0.4463616895,
				"element": "H" 
			},
			{
				"x": 3.2992163193,
				"y": 0.2178453172,
				"z": -2.6706984253,
				"element": "H" 
			},
			{
				"x": 2.9038935419,
				"y": 1.9113012023,
				"z": -2.9558727602,
				"element": "H" 
			},
			{
				"x": 1.7386345937,
				"y": 0.6444404539,
				"z": -3.3982643237,
				"element": "H" 
			},
			{
				"x": 0.2682752286,
				"y": 2.2592865285,
				"z": -0.3235771323,
				"element": "H" 
			},
			{
				"x": 1.1843755629,
				"y": 3.1209834509,
				"z": -1.5672804705,
				"element": "H" 
			},
			{
				"x": -0.0211703351,
				"y": 1.8993736373,
				"z": -2.0345024445,
				"element": "H" 
			},
			{
				"x": 0.5377107079,
				"y": -0.0526918256,
				"z": -0.1337458061,
				"element": "H" 
			},
			{
				"x": 2.5664353335,
				"y": -1.3856449362,
				"z": 0.1509304135,
				"element": "H" 
			},
			{
				"x": 2.5643742028,
				"y": -1.5576402117,
				"z": -1.6094346203,
				"element": "H" 
			},
			{
				"x": 0.3777250453,
				"y": -2.6912483274,
				"z": -1.5235069321,
				"element": "H" 
			},
			{
				"x": 2.4212324214,
				"y": -3.8339360944,
				"z": -1.2570693084,
				"element": "H" 
			},
			{
				"x": 1.5073568471,
				"y": -3.555164204,
				"z": 1.908027057,
				"element": "H" 
			},
			{
				"x": 0.0492709166,
				"y": -3.3841810834,
				"z": 3.9132910987,
				"element": "H" 
			},
			{
				"x": -1.9857812064,
				"y": -2.6971668846,
				"z": 4.7006140251,
				"element": "H" 
			},
			{
				"x": -4.1043502371,
				"y": -1.886959871,
				"z": 2.1325412492,
				"element": "H" 
			},
			{
				"x": -3.3932874538,
				"y": -0.29374048,
				"z": 1.9335019856,
				"element": "H" 
			},
			{
				"x": -3.9424314084,
				"y": -2.0565614608,
				"z": -0.1909699691,
				"element": "H" 
			},
			{
				"x": -1.5366603156,
				"y": -1.6413413973,
				"z": -0.4388233564,
				"element": "H" 
			}
		],
		 "valence_orbital": [ 
			{
				"type": "occ",
				"energy": -0.27104,
				"method": "rhf"
			},
			{
				"type": "occ",
				"energy": -0.26669,
				"method": "rhf"
			},
			{
				"type": "occ",
				"energy": -0.24228,
				"method": "rhf"
			},
			{
				"type": "occ",
				"energy": -0.21699,
				"method": "rhf"
			},
			{
				"type": "occ",
				"energy": -0.21132,
				"method": "rhf"
			},
			{
				"type": "unocc",
				"energy": 0.0007,
				"method": "rhf"
			},
			{
				"type": "unocc",
				"energy": 0.01136,
				"method": "rhf"
			},
			{
				"type": "unocc",
				"energy": 0.06774,
				"method": "rhf"
			},
			{
				"type": "unocc",
				"energy": 0.07558,
				"method": "rhf"
			},
			{
				"type": "unocc",
				"energy": 0.07998,
				"method": "rhf"
			}
		],
		"cosmo_sigma_profile": { 
			"-0.025": 0.0,
			"-0.024": 0.0,
			"-0.023": 0.0,
			"-0.022": 0.0,
			"-0.021": 0.0,
			"-0.02": 0.0,
			"-0.019": 0.0,
			"-0.018": 0.276375853167,
			"-0.017": 1.31680073129,
			"-0.016": 1.01218866984,
			"-0.015": 2.8308704668,
			"-0.014": 2.8769319236,
			"-0.013": 2.67318671189,
			"-0.012": 2.76257082376,
			"-0.011": 2.47022294679,
			"-0.01": 2.72009425205,
			"-0.009": 3.32157944338,
			"-0.008": 3.25514516595,
			"-0.007": 3.91327149742,
			"-0.006": 5.47490011209,
			"-0.005": 7.96663422611,
			"-0.004": 13.4634907276,
			"-0.003": 24.0161812513,
			"-0.002": 32.5790991159,
			"-0.001": 29.0911422988,
			"0.0": 30.3195787024,
			"0.001": 31.3555666589,
			"0.002": 20.7548224359,
			"0.003": 12.1229348114,
			"0.004": 11.8061832564,
			"0.005": 11.4109881833,
			"0.006": 10.4920784494,
			"0.007": 5.29297587539,
			"0.008": 5.56363870603,
			"0.009": 4.91551654453,
			"0.01": 4.54423171983,
			"0.011": 3.78947492438,
			"0.012": 3.31392485581,
			"0.013": 2.42798974208,
			"0.014": 3.71041486858,
			"0.015": 0.25848418175,
			"0.016": 0.343682464545,
			"0.017": 0.0488791965806,
			"0.018": 0.0,
			"0.019": 0.0,
			"0.02": 0.0,
			"0.021": 0.0,
			"0.022": 0.0,
			"0.023": 0.0,
			"0.024": 0.0,
			"0.025": 0.0
		}
	}
}
