{
	 "smiles": "CC(=NO)C1=CC=C(OCC2=CC=C(F)C=C2)C=C1", 
	 "Tm": 425.15, 
	 "num_atms": 33, 
	 "gaussian": { 
		 "optdone": 1, 
		 "sigma_profile": "yes", 
		 "theory": "DFT", 
		 "functional": "B3LYP", 
		 "basiset": "6-31G**", 
		 "properties": { 
			 "R2extent": 7821.826, 
			 "electric_dipole_moment_norm": 1.18692175816, 
			 "electric_quadrupole_moment_norm": 12.9321756395, 
			 "total_energy": -885.006811869, 
			 "HOMO_LUMO_gap": 0.17888, 
			 "cosmo_polarized_energy": -11.83, 
			 "cosmo_cavitation_energy": 37.9, 
			 "cosmo_dispersion_energy": -26.93, 
			 "cosmo_repulsion_energy": 2.06, 
			 "cosmo_total_nonelectrostatic_energy": 13.04, 
			 "SMD_solvation_energy": 7.34 
		},
		"coords": [
			{
				"x": -3.1500666443,
				"y": 4.499770881,
				"z": -1.0284790471,
				"element": "C" 
			},
			{
				"x": -2.5933371936,
				"y": 3.1559053322,
				"z": -1.4266459368,
				"element": "C" 
			},
			{
				"x": -2.5463917071,
				"y": 2.7256979478,
				"z": -2.6407964368,
				"element": "N" 
			},
			{
				"x": -3.0680326562,
				"y": 3.640716947,
				"z": -3.5699841711,
				"element": "O" 
			},
			{
				"x": -2.0578966828,
				"y": 2.2427942347,
				"z": -0.3855665732,
				"element": "C" 
			},
			{
				"x": -1.485543804,
				"y": 1.005437603,
				"z": -0.7259461356,
				"element": "C" 
			},
			{
				"x": -0.9812088463,
				"y": 0.1409589789,
				"z": 0.2405565925,
				"element": "C" 
			},
			{
				"x": -1.0439300545,
				"y": 0.4996055442,
				"z": 1.5945981346,
				"element": "C" 
			},
			{
				"x": -0.5942106816,
				"y": -0.2713183264,
				"z": 2.6335403446,
				"element": "O" 
			},
			{
				"x": -0.1418254684,
				"y": -1.5982219936,
				"z": 2.3747411789,
				"element": "C" 
			},
			{
				"x": 1.2665304603,
				"y": -1.6750274332,
				"z": 1.8164307024,
				"element": "C" 
			},
			{
				"x": 1.6386858137,
				"y": -2.739471017,
				"z": 0.9870004718,
				"element": "C" 
			},
			{
				"x": 2.9464277792,
				"y": -2.860232369,
				"z": 0.5155359212,
				"element": "C" 
			},
			{
				"x": 3.8757134471,
				"y": -1.8933204813,
				"z": 0.8802492555,
				"element": "C" 
			},
			{
				"x": 5.1415112956,
				"y": -1.9965401167,
				"z": 0.4239627042,
				"element": "F" 
			},
			{
				"x": 3.5376348236,
				"y": -0.819824202,
				"z": 1.6972436131,
				"element": "C" 
			},
			{
				"x": 2.2287149485,
				"y": -0.7198198992,
				"z": 2.1663463066,
				"element": "C" 
			},
			{
				"x": -1.6054038461,
				"y": 1.7300349513,
				"z": 1.9542617887,
				"element": "C" 
			},
			{
				"x": -2.1023645952,
				"y": 2.5852315044,
				"z": 0.9774591254,
				"element": "C" 
			},
			{
				"x": -2.3985957139,
				"y": 5.0810238599,
				"z": -0.4836944418,
				"element": "H" 
			},
			{
				"x": -4.0128951926,
				"y": 4.3775396118,
				"z": -0.3643533011,
				"element": "H" 
			},
			{
				"x": -3.4626132084,
				"y": 5.0627113137,
				"z": -1.9054347125,
				"element": "H" 
			},
			{
				"x": -2.9491581651,
				"y": 3.1645419104,
				"z": -4.4017698915,
				"element": "H" 
			},
			{
				"x": -1.4329459471,
				"y": 0.7270853477,
				"z": -1.7722920451,
				"element": "H" 
			},
			{
				"x": -0.5239838466,
				"y": -0.7909346224,
				"z": -0.0688615981,
				"element": "H" 
			},
			{
				"x": -0.1838095552,
				"y": -2.0860732068,
				"z": 3.3549367218,
				"element": "H" 
			},
			{
				"x": -0.8468342016,
				"y": -2.1242429335,
				"z": 1.7176762164,
				"element": "H" 
			},
			{
				"x": 0.9011353047,
				"y": -3.4859960909,
				"z": 0.7015947498,
				"element": "H" 
			},
			{
				"x": 3.247493412,
				"y": -3.6782731129,
				"z": -0.1298352114,
				"element": "H" 
			},
			{
				"x": 4.2922686705,
				"y": -0.0840938664,
				"z": 1.9537152022,
				"element": "H" 
			},
			{
				"x": 1.9436951002,
				"y": 0.1124365923,
				"z": 2.801763426,
				"element": "H" 
			},
			{
				"x": -1.6489326362,
				"y": 1.9945927333,
				"z": 3.0057230527,
				"element": "H" 
			},
			{
				"x": -2.5348304083,
				"y": 3.5295043777,
				"z": 1.2901239935,
				"element": "H" 
			}
		],
		 "valence_orbital": [ 
			{
				"type": "occ",
				"energy": -0.26448,
				"method": "rhf"
			},
			{
				"type": "occ",
				"energy": -0.26247,
				"method": "rhf"
			},
			{
				"type": "occ",
				"energy": -0.25229,
				"method": "rhf"
			},
			{
				"type": "occ",
				"energy": -0.24282,
				"method": "rhf"
			},
			{
				"type": "occ",
				"energy": -0.20517,
				"method": "rhf"
			},
			{
				"type": "unocc",
				"energy": -0.02629,
				"method": "rhf"
			},
			{
				"type": "unocc",
				"energy": -0.01646,
				"method": "rhf"
			},
			{
				"type": "unocc",
				"energy": -0.00764,
				"method": "rhf"
			},
			{
				"type": "unocc",
				"energy": 0.002,
				"method": "rhf"
			},
			{
				"type": "unocc",
				"energy": 0.05914,
				"method": "rhf"
			}
		],
		"cosmo_sigma_profile": { 
			"-0.025": 0.0,
			"-0.024": 0.0,
			"-0.023": 0.0,
			"-0.022": 0.0,
			"-0.021": 0.0,
			"-0.02": 0.0,
			"-0.019": 0.0,
			"-0.018": 0.0449930066337,
			"-0.017": 0.585852023889,
			"-0.016": 0.979246673457,
			"-0.015": 1.08996448457,
			"-0.014": 1.05731698799,
			"-0.013": 0.449886374458,
			"-0.012": 0.248923306625,
			"-0.011": 0.686105612451,
			"-0.01": 0.911675457006,
			"-0.009": 0.691682597288,
			"-0.008": 0.624865139578,
			"-0.007": 7.98552253537,
			"-0.006": 17.0613020726,
			"-0.005": 23.5894997133,
			"-0.004": 23.7047409403,
			"-0.003": 19.4067705835,
			"-0.002": 16.9195443375,
			"-0.001": 18.7053653473,
			"0.0": 19.3781630462,
			"0.001": 20.3951849974,
			"0.002": 21.8263321482,
			"0.003": 26.0757254231,
			"0.004": 34.8883572061,
			"0.005": 21.1511589006,
			"0.006": 5.6837329194,
			"0.007": 5.01670937502,
			"0.008": 5.37094874646,
			"0.009": 4.14974145279,
			"0.01": 3.45029708551,
			"0.011": 0.223296857416,
			"0.012": 0.0,
			"0.013": 0.0,
			"0.014": 0.0,
			"0.015": 0.0,
			"0.016": 0.0,
			"0.017": 0.0,
			"0.018": 0.0,
			"0.019": 0.0,
			"0.02": 0.0,
			"0.021": 0.0,
			"0.022": 0.0,
			"0.023": 0.0,
			"0.024": 0.0,
			"0.025": 0.0
		}
	}
}
