{
	 "smiles": "OC(=O)CC1=CC(F)=C(O)C=C1", 
	 "Tm": 406.15, 
	 "num_atms": 19, 
	 "gaussian": { 
		 "optdone": 1, 
		 "sigma_profile": "yes", 
		 "theory": "DFT", 
		 "functional": "B3LYP", 
		 "basiset": "6-31G**", 
		 "properties": { 
			 "R2extent": 3142.0069, 
			 "electric_dipole_moment_norm": 3.82755635491, 
			 "electric_quadrupole_moment_norm": 13.2603499871, 
			 "total_energy": -634.581898571, 
			 "HOMO_LUMO_gap": 0.21312, 
			 "cosmo_polarized_energy": -15.27, 
			 "cosmo_cavitation_energy": 24.64, 
			 "cosmo_dispersion_energy": -17.72, 
			 "cosmo_repulsion_energy": 1.41, 
			 "cosmo_total_nonelectrostatic_energy": 8.33, 
			 "SMD_solvation_energy": 6.22 
		},
		"coords": [
			{
				"x": 2.4362993348,
				"y": -0.0018974588,
				"z": 2.9771578389,
				"element": "O" 
			},
			{
				"x": 2.8440897726,
				"y": 0.8641985757,
				"z": 2.0209168422,
				"element": "C" 
			},
			{
				"x": 3.0646320546,
				"y": 2.0341238171,
				"z": 2.2468816488,
				"element": "O" 
			},
			{
				"x": 2.9540133787,
				"y": 0.2040780287,
				"z": 0.6582096758,
				"element": "C" 
			},
			{
				"x": 1.7365260974,
				"y": 0.5034033687,
				"z": -0.2025205573,
				"element": "C" 
			},
			{
				"x": 1.4059456627,
				"y": 1.8292528841,
				"z": -0.5250657644,
				"element": "C" 
			},
			{
				"x": 0.3046777191,
				"y": 2.0943265018,
				"z": -1.3187815794,
				"element": "C" 
			},
			{
				"x": -0.0095414598,
				"y": 3.3663761117,
				"z": -1.6279729751,
				"element": "F" 
			},
			{
				"x": -0.5088153458,
				"y": 1.0674808914,
				"z": -1.8216715702,
				"element": "C" 
			},
			{
				"x": -1.5696803371,
				"y": 1.4262025652,
				"z": -2.5971186902,
				"element": "O" 
			},
			{
				"x": -0.1789330432,
				"y": -0.2480818785,
				"z": -1.4954222051,
				"element": "C" 
			},
			{
				"x": 0.9309499143,
				"y": -0.5258434871,
				"z": -0.6921894362,
				"element": "C" 
			},
			{
				"x": 2.3612607684,
				"y": 0.5161639,
				"z": 3.7968821028,
				"element": "H" 
			},
			{
				"x": 3.8584762051,
				"y": 0.6030538003,
				"z": 0.1871404319,
				"element": "H" 
			},
			{
				"x": 3.0722618733,
				"y": -0.8744813263,
				"z": 0.7801670086,
				"element": "H" 
			},
			{
				"x": 1.9943564853,
				"y": 2.6594424887,
				"z": -0.1487992589,
				"element": "H" 
			},
			{
				"x": -2.0398153243,
				"y": 0.6284214029,
				"z": -2.8717745873,
				"element": "H" 
			},
			{
				"x": -0.7956693199,
				"y": -1.0615645495,
				"z": -1.8714219868,
				"element": "H" 
			},
			{
				"x": 1.1658655638,
				"y": -1.5584556362,
				"z": -0.4512169379,
				"element": "H" 
			}
		],
		 "valence_orbital": [ 
			{
				"type": "occ",
				"energy": -0.33495,
				"method": "rhf"
			},
			{
				"type": "occ",
				"energy": -0.32138,
				"method": "rhf"
			},
			{
				"type": "occ",
				"energy": -0.27879,
				"method": "rhf"
			},
			{
				"type": "occ",
				"energy": -0.2529,
				"method": "rhf"
			},
			{
				"type": "occ",
				"energy": -0.22364,
				"method": "rhf"
			},
			{
				"type": "unocc",
				"energy": -0.01052,
				"method": "rhf"
			},
			{
				"type": "unocc",
				"energy": -0.00514,
				"method": "rhf"
			},
			{
				"type": "unocc",
				"energy": 0.01898,
				"method": "rhf"
			},
			{
				"type": "unocc",
				"energy": 0.06121,
				"method": "rhf"
			},
			{
				"type": "unocc",
				"energy": 0.07643,
				"method": "rhf"
			}
		],
		"cosmo_sigma_profile": { 
			"-0.025": 0.0,
			"-0.024": 0.0,
			"-0.023": 0.0,
			"-0.022": 0.0,
			"-0.021": 0.0,
			"-0.02": 0.0,
			"-0.019": 0.0772708856249,
			"-0.018": 1.79173755127,
			"-0.017": 2.42715739507,
			"-0.016": 1.39298913913,
			"-0.015": 2.09856633661,
			"-0.014": 2.00491206091,
			"-0.013": 1.18880077973,
			"-0.012": 0.714891783305,
			"-0.011": 3.12168738342,
			"-0.01": 1.55338105417,
			"-0.009": 1.29019662017,
			"-0.008": 2.24366153199,
			"-0.007": 5.16614085546,
			"-0.006": 9.63839277231,
			"-0.005": 10.0092918989,
			"-0.004": 10.8376074787,
			"-0.003": 10.1060591399,
			"-0.002": 8.76040378309,
			"-0.001": 7.40702845456,
			"0.0": 8.61601590021,
			"0.001": 15.1626739817,
			"0.002": 15.9439968378,
			"0.003": 14.0433552711,
			"0.004": 18.2625849383,
			"0.005": 10.0308485843,
			"0.006": 4.69946062155,
			"0.007": 4.26752594112,
			"0.008": 5.28288829465,
			"0.009": 4.53701035828,
			"0.01": 4.57476697647,
			"0.011": 4.99651661338,
			"0.012": 3.69019291238,
			"0.013": 0.0771654405314,
			"0.014": 0.0,
			"0.015": 0.0,
			"0.016": 0.0,
			"0.017": 0.0,
			"0.018": 0.0,
			"0.019": 0.0,
			"0.02": 0.0,
			"0.021": 0.0,
			"0.022": 0.0,
			"0.023": 0.0,
			"0.024": 0.0,
			"0.025": 0.0
		}
	}
}
