{
	 "smiles": "CC1=NC2=C(C(=NN2C2=CC=CC=C2)C2=CC=CC=C2)C(C)=C1", 
	 "Tm": 387.15, 
	 "num_atms": 40, 
	 "gaussian": { 
		 "optdone": 1, 
		 "sigma_profile": "yes", 
		 "theory": "DFT", 
		 "functional": "B3LYP", 
		 "basiset": "6-31G**", 
		 "properties": { 
			 "R2extent": 9059.0399, 
			 "electric_dipole_moment_norm": 2.79241093681, 
			 "electric_quadrupole_moment_norm": 13.6005638949, 
			 "total_energy": -936.642875256, 
			 "HOMO_LUMO_gap": 0.15735, 
			 "cosmo_polarized_energy": -9.7, 
			 "cosmo_cavitation_energy": 43.15, 
			 "cosmo_dispersion_energy": -30.73, 
			 "cosmo_repulsion_energy": 2.31, 
			 "cosmo_total_nonelectrostatic_energy": 14.72, 
			 "SMD_solvation_energy": 5.53 
		},
		"coords": [
			{
				"x": 2.3540580457,
				"y": -1.7635566167,
				"z": -2.3953550764,
				"element": "C" 
			},
			{
				"x": 1.9375610456,
				"y": -1.0850188278,
				"z": -1.1143217117,
				"element": "C" 
			},
			{
				"x": 0.7167757278,
				"y": -0.5456737683,
				"z": -1.0876030011,
				"element": "N" 
			},
			{
				"x": 0.3922238882,
				"y": 0.0804414026,
				"z": 0.0494578046,
				"element": "C" 
			},
			{
				"x": 1.2156592666,
				"y": 0.2376936541,
				"z": 1.1950947303,
				"element": "C" 
			},
			{
				"x": 0.3943363227,
				"y": 0.9635577785,
				"z": 2.1283593471,
				"element": "C" 
			},
			{
				"x": -0.7984487133,
				"y": 1.1970568598,
				"z": 1.603699765,
				"element": "N" 
			},
			{
				"x": -0.8204609075,
				"y": 0.6722762031,
				"z": 0.3442026202,
				"element": "N" 
			},
			{
				"x": -2.0005920232,
				"y": 0.8199789021,
				"z": -0.4397789486,
				"element": "C" 
			},
			{
				"x": -2.0874147169,
				"y": 0.2871148644,
				"z": -1.733463983,
				"element": "C" 
			},
			{
				"x": -3.2643112594,
				"y": 0.4543735363,
				"z": -2.4639736966,
				"element": "C" 
			},
			{
				"x": -4.3528251718,
				"y": 1.1412833177,
				"z": -1.9271371017,
				"element": "C" 
			},
			{
				"x": -4.2552974599,
				"y": 1.6682923231,
				"z": -0.6375770665,
				"element": "C" 
			},
			{
				"x": -3.0898243037,
				"y": 1.5137558242,
				"z": 0.1083013477,
				"element": "C" 
			},
			{
				"x": 0.6723433087,
				"y": 1.4480027017,
				"z": 3.4968245874,
				"element": "C" 
			},
			{
				"x": 1.8517679989,
				"y": 2.1442737053,
				"z": 3.8035565459,
				"element": "C" 
			},
			{
				"x": 2.0786762848,
				"y": 2.6241125723,
				"z": 5.0933546801,
				"element": "C" 
			},
			{
				"x": 1.1273293537,
				"y": 2.4219625044,
				"z": 6.0949020952,
				"element": "C" 
			},
			{
				"x": -0.0567843981,
				"y": 1.7438059811,
				"z": 5.7962751615,
				"element": "C" 
			},
			{
				"x": -0.2840226479,
				"y": 1.2619018085,
				"z": 4.5084811328,
				"element": "C" 
			},
			{
				"x": 2.4871801992,
				"y": -0.379226004,
				"z": 1.1709814194,
				"element": "C" 
			},
			{
				"x": 3.4435552457,
				"y": -0.3783286423,
				"z": 2.3353577055,
				"element": "C" 
			},
			{
				"x": 2.8206797243,
				"y": -1.0322725876,
				"z": -0.0115086637,
				"element": "C" 
			},
			{
				"x": 2.9951667452,
				"y": -2.628877483,
				"z": -2.2027655358,
				"element": "H" 
			},
			{
				"x": 2.9193645554,
				"y": -1.0713476809,
				"z": -3.0318327964,
				"element": "H" 
			},
			{
				"x": 1.4729381461,
				"y": -2.0850942667,
				"z": -2.9540051658,
				"element": "H" 
			},
			{
				"x": -1.2436781089,
				"y": -0.2448711748,
				"z": -2.1503548418,
				"element": "H" 
			},
			{
				"x": -3.3233037551,
				"y": 0.0384843535,
				"z": -3.4659068205,
				"element": "H" 
			},
			{
				"x": -5.2642316364,
				"y": 1.2654551628,
				"z": -2.5043290641,
				"element": "H" 
			},
			{
				"x": -5.0925592426,
				"y": 2.2075991601,
				"z": -0.2036204489,
				"element": "H" 
			},
			{
				"x": -3.0069917649,
				"y": 1.9217536072,
				"z": 1.106977567,
				"element": "H" 
			},
			{
				"x": 2.5788139317,
				"y": 2.3353921623,
				"z": 3.020723782,
				"element": "H" 
			},
			{
				"x": 2.9941592226,
				"y": 3.1662982289,
				"z": 5.3125875854,
				"element": "H" 
			},
			{
				"x": 1.3048171114,
				"y": 2.795024427,
				"z": 7.0994673641,
				"element": "H" 
			},
			{
				"x": -0.8039977166,
				"y": 1.5870890827,
				"z": 6.5690868793,
				"element": "H" 
			},
			{
				"x": -1.2024944433,
				"y": 0.7353864177,
				"z": 4.2706845102,
				"element": "H" 
			},
			{
				"x": 2.9241803836,
				"y": -0.5339139535,
				"z": 3.2840508442,
				"element": "H" 
			},
			{
				"x": 4.1940978097,
				"y": -1.163764908,
				"z": 2.2140269161,
				"element": "H" 
			},
			{
				"x": 3.9745115076,
				"y": 0.5767760837,
				"z": 2.4154899139,
				"element": "H" 
			},
			{
				"x": 3.7826424439,
				"y": -1.5305967115,
				"z": -0.0905103825,
				"element": "H" 
			}
		],
		 "valence_orbital": [ 
			{
				"type": "occ",
				"energy": -0.25193,
				"method": "rhf"
			},
			{
				"type": "occ",
				"energy": -0.2516,
				"method": "rhf"
			},
			{
				"type": "occ",
				"energy": -0.24439,
				"method": "rhf"
			},
			{
				"type": "occ",
				"energy": -0.23901,
				"method": "rhf"
			},
			{
				"type": "occ",
				"energy": -0.20463,
				"method": "rhf"
			},
			{
				"type": "unocc",
				"energy": -0.04728,
				"method": "rhf"
			},
			{
				"type": "unocc",
				"energy": -0.01427,
				"method": "rhf"
			},
			{
				"type": "unocc",
				"energy": -0.00903,
				"method": "rhf"
			},
			{
				"type": "unocc",
				"energy": -0.00291,
				"method": "rhf"
			},
			{
				"type": "unocc",
				"energy": 0.00689,
				"method": "rhf"
			}
		],
		"cosmo_sigma_profile": { 
			"-0.025": 0.0,
			"-0.024": 0.0,
			"-0.023": 0.0,
			"-0.022": 0.0,
			"-0.021": 0.0,
			"-0.02": 0.0,
			"-0.019": 0.0,
			"-0.018": 0.0,
			"-0.017": 0.0,
			"-0.016": 0.0,
			"-0.015": 0.0,
			"-0.014": 0.0,
			"-0.013": 0.0,
			"-0.012": 0.0,
			"-0.011": 0.0,
			"-0.01": 0.0,
			"-0.009": 0.0,
			"-0.008": 0.0,
			"-0.007": 1.03592670302,
			"-0.006": 13.6085470015,
			"-0.005": 27.3302401937,
			"-0.004": 30.9133794094,
			"-0.003": 29.4705122145,
			"-0.002": 26.0144236115,
			"-0.001": 31.2525464467,
			"0.0": 32.4916994543,
			"0.001": 30.0447896125,
			"0.002": 28.6086148787,
			"0.003": 26.6390973731,
			"0.004": 22.6979290859,
			"0.005": 26.2128846638,
			"0.006": 10.2480107154,
			"0.007": 3.99025950987,
			"0.008": 3.1158491312,
			"0.009": 1.25009546726,
			"0.01": 0.913166172555,
			"0.011": 0.0905323000329,
			"0.012": 0.0,
			"0.013": 0.0,
			"0.014": 0.0,
			"0.015": 0.0,
			"0.016": 0.0,
			"0.017": 0.0,
			"0.018": 0.0,
			"0.019": 0.0,
			"0.02": 0.0,
			"0.021": 0.0,
			"0.022": 0.0,
			"0.023": 0.0,
			"0.024": 0.0,
			"0.025": 0.0
		}
	}
}
