{
	 "smiles": "NCC1=CC(NC(=O)C2=CC=C(F)C=C2)=CC=C1", 
	 "Tm": 406.15, 
	 "num_atms": 31, 
	 "gaussian": { 
		 "optdone": 1, 
		 "sigma_profile": "yes", 
		 "theory": "DFT", 
		 "functional": "B3LYP", 
		 "basiset": "6-31G**", 
		 "properties": { 
			 "R2extent": 5602.1898, 
			 "electric_dipole_moment_norm": 2.92154082977, 
			 "electric_quadrupole_moment_norm": 10.0104010104, 
			 "total_energy": -825.896843762, 
			 "HOMO_LUMO_gap": 0.18403, 
			 "cosmo_polarized_energy": -15.1, 
			 "cosmo_cavitation_energy": 36.01, 
			 "cosmo_dispersion_energy": -24.16, 
			 "cosmo_repulsion_energy": 1.86, 
			 "cosmo_total_nonelectrostatic_energy": 13.71, 
			 "SMD_solvation_energy": 5.65 
		},
		"coords": [
			{
				"x": -2.2724976056,
				"y": 3.1720586849,
				"z": -1.075545404,
				"element": "N" 
			},
			{
				"x": -2.2032773837,
				"y": 2.7848191064,
				"z": 0.3425625544,
				"element": "C" 
			},
			{
				"x": -1.800305768,
				"y": 1.3418039728,
				"z": 0.5987460897,
				"element": "C" 
			},
			{
				"x": -0.4458936628,
				"y": 0.9913007687,
				"z": 0.6397737377,
				"element": "C" 
			},
			{
				"x": -0.052208938,
				"y": -0.3449129922,
				"z": 0.7851151857,
				"element": "C" 
			},
			{
				"x": 1.3123719688,
				"y": -0.7280649954,
				"z": 0.8390748408,
				"element": "N" 
			},
			{
				"x": 2.4391523723,
				"y": -0.1568585574,
				"z": 0.2684972084,
				"element": "C" 
			},
			{
				"x": 3.5391015423,
				"y": -0.3534834677,
				"z": 0.7735783356,
				"element": "O" 
			},
			{
				"x": 2.3044202358,
				"y": 0.6289881561,
				"z": -1.0010682785,
				"element": "C" 
			},
			{
				"x": 1.3439470319,
				"y": 0.3479742751,
				"z": -1.9845329454,
				"element": "C" 
			},
			{
				"x": 1.3280238925,
				"y": 1.0595935438,
				"z": -3.182645211,
				"element": "C" 
			},
			{
				"x": 2.2783753359,
				"y": 2.0570697151,
				"z": -3.3806176838,
				"element": "C" 
			},
			{
				"x": 2.2594165092,
				"y": 2.7533603427,
				"z": -4.5331135264,
				"element": "F" 
			},
			{
				"x": 3.2514979684,
				"y": 2.3513181346,
				"z": -2.4304882847,
				"element": "C" 
			},
			{
				"x": 3.2659908779,
				"y": 1.6202976106,
				"z": -1.246105697,
				"element": "C" 
			},
			{
				"x": -1.0301383476,
				"y": -1.3384171732,
				"z": 0.9369920157,
				"element": "C" 
			},
			{
				"x": -2.3794685751,
				"y": -0.9902786227,
				"z": 0.9334834256,
				"element": "C" 
			},
			{
				"x": -2.7658985328,
				"y": 0.3386697478,
				"z": 0.7547465135,
				"element": "C" 
			},
			{
				"x": -2.9298107799,
				"y": 2.5618812105,
				"z": -1.5578510484,
				"element": "H" 
			},
			{
				"x": -1.3691366763,
				"y": 3.0038664024,
				"z": -1.514947549,
				"element": "H" 
			},
			{
				"x": -3.1847529459,
				"y": 2.9781120269,
				"z": 0.7896113404,
				"element": "H" 
			},
			{
				"x": -1.4941403679,
				"y": 3.4594781525,
				"z": 0.8356378714,
				"element": "H" 
			},
			{
				"x": 0.3103570153,
				"y": 1.7664274735,
				"z": 0.5634802809,
				"element": "H" 
			},
			{
				"x": 1.5685673301,
				"y": -1.3615846578,
				"z": 1.587438624,
				"element": "H" 
			},
			{
				"x": 0.6140965825,
				"y": -0.4375120856,
				"z": -1.824254,
				"element": "H" 
			},
			{
				"x": 0.6042008828,
				"y": 0.8476411277,
				"z": -3.9620540622,
				"element": "H" 
			},
			{
				"x": 3.9798332836,
				"y": 3.1292316859,
				"z": -2.6315919303,
				"element": "H" 
			},
			{
				"x": 4.0276480611,
				"y": 1.8000902404,
				"z": -0.4951926376,
				"element": "H" 
			},
			{
				"x": -0.7260855789,
				"y": -2.3747880654,
				"z": 1.0538554537,
				"element": "H" 
			},
			{
				"x": -3.1319780145,
				"y": -1.7628657194,
				"z": 1.0631664539,
				"element": "H" 
			},
			{
				"x": -3.8208077134,
				"y": 0.6015839582,
				"z": 0.7467483271,
				"element": "H" 
			}
		],
		 "valence_orbital": [ 
			{
				"type": "occ",
				"energy": -0.26779,
				"method": "rhf"
			},
			{
				"type": "occ",
				"energy": -0.26222,
				"method": "rhf"
			},
			{
				"type": "occ",
				"energy": -0.24947,
				"method": "rhf"
			},
			{
				"type": "occ",
				"energy": -0.23891,
				"method": "rhf"
			},
			{
				"type": "occ",
				"energy": -0.22856,
				"method": "rhf"
			},
			{
				"type": "unocc",
				"energy": -0.04453,
				"method": "rhf"
			},
			{
				"type": "unocc",
				"energy": -0.02525,
				"method": "rhf"
			},
			{
				"type": "unocc",
				"energy": -0.01136,
				"method": "rhf"
			},
			{
				"type": "unocc",
				"energy": -0.00808,
				"method": "rhf"
			},
			{
				"type": "unocc",
				"energy": 0.05193,
				"method": "rhf"
			}
		],
		"cosmo_sigma_profile": { 
			"-0.025": 0.0,
			"-0.024": 0.0,
			"-0.023": 0.0,
			"-0.022": 0.0,
			"-0.021": 0.0,
			"-0.02": 0.0,
			"-0.019": 0.0,
			"-0.018": 0.0,
			"-0.017": 0.0,
			"-0.016": 0.0,
			"-0.015": 0.0269784435248,
			"-0.014": 1.05039455968,
			"-0.013": 0.579087215429,
			"-0.012": 0.72233165188,
			"-0.011": 1.16255056042,
			"-0.01": 1.69532381991,
			"-0.009": 2.1482864863,
			"-0.008": 3.63110495205,
			"-0.007": 8.14081548991,
			"-0.006": 16.848283083,
			"-0.005": 22.2078847138,
			"-0.004": 22.8263671542,
			"-0.003": 20.0243491743,
			"-0.002": 18.4704541947,
			"-0.001": 20.7059837523,
			"0.0": 25.6695198686,
			"0.001": 21.1606966857,
			"0.002": 20.0969352987,
			"0.003": 18.8921190676,
			"0.004": 20.2646112369,
			"0.005": 10.6658300551,
			"0.006": 3.43612566964,
			"0.007": 2.08429782259,
			"0.008": 1.60177152205,
			"0.009": 2.38152568595,
			"0.01": 1.95251609296,
			"0.011": 3.33166308687,
			"0.012": 2.75576608316,
			"0.013": 6.70450779791,
			"0.014": 1.84802177587,
			"0.015": 0.286772871289,
			"0.016": 0.739615577662,
			"0.017": 0.807092519627,
			"0.018": 0.824074133019,
			"0.019": 0.477744060965,
			"0.02": 0.290139470314,
			"0.021": 0.0,
			"0.022": 0.0,
			"0.023": 0.0,
			"0.024": 0.0,
			"0.025": 0.0
		}
	}
}
