{
	 "smiles": "OC1=CC=CC=C1C(=O)C=CC1=CC=CC=C1", 
	 "Tm": 363.15, 
	 "num_atms": 29, 
	 "gaussian": { 
		 "optdone": 1, 
		 "sigma_profile": "yes", 
		 "theory": "DFT", 
		 "functional": "B3LYP", 
		 "basiset": "6-31G**", 
		 "properties": { 
			 "R2extent": 6025.2178, 
			 "electric_dipole_moment_norm": 4.41604405209, 
			 "electric_quadrupole_moment_norm": 13.2404471552, 
			 "total_energy": -729.272444958, 
			 "HOMO_LUMO_gap": 0.14244, 
			 "cosmo_polarized_energy": -10.05, 
			 "cosmo_cavitation_energy": 33.38, 
			 "cosmo_dispersion_energy": -24.47, 
			 "cosmo_repulsion_energy": 1.87, 
			 "cosmo_total_nonelectrostatic_energy": 10.77, 
			 "SMD_solvation_energy": 6.29 
		},
		"coords": [
			{
				"x": -1.670369993,
				"y": -4.3029553942,
				"z": 1.5934402514,
				"element": "O" 
			},
			{
				"x": -1.0149703884,
				"y": -3.9676512959,
				"z": 0.4762645149,
				"element": "C" 
			},
			{
				"x": -0.6095743915,
				"y": -4.9998654099,
				"z": -0.3876607533,
				"element": "C" 
			},
			{
				"x": 0.0282579813,
				"y": -4.7016903809,
				"z": -1.5819490593,
				"element": "C" 
			},
			{
				"x": 0.2756942389,
				"y": -3.3702055441,
				"z": -1.9526764679,
				"element": "C" 
			},
			{
				"x": -0.0942713252,
				"y": -2.3466312533,
				"z": -1.0944910621,
				"element": "C" 
			},
			{
				"x": -0.7152280719,
				"y": -2.6122645167,
				"z": 0.1458064523,
				"element": "C" 
			},
			{
				"x": -1.1056744631,
				"y": -1.5550099451,
				"z": 1.0962973546,
				"element": "C" 
			},
			{
				"x": -1.8963465779,
				"y": -1.8048116597,
				"z": 2.0312126622,
				"element": "O" 
			},
			{
				"x": -0.5860981603,
				"y": -0.1712056962,
				"z": 1.0234811628,
				"element": "C" 
			},
			{
				"x": 0.6655839971,
				"y": 0.1830600197,
				"z": 0.6673210554,
				"element": "C" 
			},
			{
				"x": 1.2522818616,
				"y": 1.5256533488,
				"z": 0.7209060149,
				"element": "C" 
			},
			{
				"x": 0.5188889663,
				"y": 2.6762134953,
				"z": 1.070696017,
				"element": "C" 
			},
			{
				"x": 1.1295583391,
				"y": 3.9254042843,
				"z": 1.1007648572,
				"element": "C" 
			},
			{
				"x": 2.4853979958,
				"y": 4.0576925468,
				"z": 0.7825362039,
				"element": "C" 
			},
			{
				"x": 3.2261038615,
				"y": 2.9283789922,
				"z": 0.4317330684,
				"element": "C" 
			},
			{
				"x": 2.6138790739,
				"y": 1.6769735172,
				"z": 0.4004399759,
				"element": "C" 
			},
			{
				"x": -1.947468516,
				"y": -3.445345346,
				"z": 2.0156367009,
				"element": "H" 
			},
			{
				"x": -0.8323563855,
				"y": -6.0216545242,
				"z": -0.0992053849,
				"element": "H" 
			},
			{
				"x": 0.3211281459,
				"y": -5.5105743955,
				"z": -2.2457894024,
				"element": "H" 
			},
			{
				"x": 0.7424760962,
				"y": -3.1431740573,
				"z": -2.9055728353,
				"element": "H" 
			},
			{
				"x": 0.0650614469,
				"y": -1.3161307843,
				"z": -1.3897641339,
				"element": "H" 
			},
			{
				"x": -1.2699892698,
				"y": 0.553681659,
				"z": 1.4574632656,
				"element": "H" 
			},
			{
				"x": 1.3454455638,
				"y": -0.5962689842,
				"z": 0.3302433526,
				"element": "H" 
			},
			{
				"x": -0.5350469701,
				"y": 2.5936056432,
				"z": 1.3166413575,
				"element": "H" 
			},
			{
				"x": 0.5478897449,
				"y": 4.8015289667,
				"z": 1.3722274521,
				"element": "H" 
			},
			{
				"x": 2.9580138598,
				"y": 5.0351472537,
				"z": 0.8076687883,
				"element": "H" 
			},
			{
				"x": 4.2790108123,
				"y": 3.0213805365,
				"z": 0.1823734186,
				"element": "H" 
			},
			{
				"x": 3.1936225275,
				"y": 0.7989189243,
				"z": 0.1271551728,
				"element": "H" 
			}
		],
		 "valence_orbital": [ 
			{
				"type": "occ",
				"energy": -0.26489,
				"method": "rhf"
			},
			{
				"type": "occ",
				"energy": -0.26433,
				"method": "rhf"
			},
			{
				"type": "occ",
				"energy": -0.25829,
				"method": "rhf"
			},
			{
				"type": "occ",
				"energy": -0.23987,
				"method": "rhf"
			},
			{
				"type": "occ",
				"energy": -0.22226,
				"method": "rhf"
			},
			{
				"type": "unocc",
				"energy": -0.07982,
				"method": "rhf"
			},
			{
				"type": "unocc",
				"energy": -0.03439,
				"method": "rhf"
			},
			{
				"type": "unocc",
				"energy": -0.01354,
				"method": "rhf"
			},
			{
				"type": "unocc",
				"energy": 0.00479,
				"method": "rhf"
			},
			{
				"type": "unocc",
				"energy": 0.02701,
				"method": "rhf"
			}
		],
		"cosmo_sigma_profile": { 
			"-0.025": 0.0,
			"-0.024": 0.0,
			"-0.023": 0.0,
			"-0.022": 0.0,
			"-0.021": 0.0,
			"-0.02": 0.0,
			"-0.019": 0.0,
			"-0.018": 0.0,
			"-0.017": 0.0,
			"-0.016": 0.0,
			"-0.015": 0.0,
			"-0.014": 0.0,
			"-0.013": 0.0,
			"-0.012": 0.0,
			"-0.011": 0.0,
			"-0.01": 0.0,
			"-0.009": 0.0486615005489,
			"-0.008": 2.20075668361,
			"-0.007": 6.0250128675,
			"-0.006": 19.0956193756,
			"-0.005": 21.7688364019,
			"-0.004": 22.9329023244,
			"-0.003": 17.9712517978,
			"-0.002": 20.0534348171,
			"-0.001": 18.5744016407,
			"0.0": 18.4113643122,
			"0.001": 18.4735102522,
			"0.002": 22.5490334045,
			"0.003": 22.9527204818,
			"0.004": 23.8181197673,
			"0.005": 12.6851803202,
			"0.006": 2.81538830795,
			"0.007": 2.71340418483,
			"0.008": 2.42946131072,
			"0.009": 2.96417904564,
			"0.01": 3.77325979023,
			"0.011": 3.03632594002,
			"0.012": 2.37284851838,
			"0.013": 0.824542392009,
			"0.014": 0.0,
			"0.015": 0.0,
			"0.016": 0.0,
			"0.017": 0.0,
			"0.018": 0.0,
			"0.019": 0.0,
			"0.02": 0.0,
			"0.021": 0.0,
			"0.022": 0.0,
			"0.023": 0.0,
			"0.024": 0.0,
			"0.025": 0.0
		}
	}
}
