{
	 "smiles": "CCC1=CC(=O)NC(=N1)C1=CN=CC=C1", 
	 "Tm": 425.15, 
	 "num_atms": 26, 
	 "gaussian": { 
		 "optdone": 1, 
		 "sigma_profile": "yes", 
		 "theory": "DFT", 
		 "functional": "B3LYP", 
		 "basiset": "6-31G**", 
		 "properties": { 
			 "R2extent": 4038.6826, 
			 "electric_dipole_moment_norm": 4.11173092626, 
			 "electric_quadrupole_moment_norm": 12.6695642684, 
			 "total_energy": -665.299699355, 
			 "HOMO_LUMO_gap": 0.16382, 
			 "cosmo_polarized_energy": -14.89, 
			 "cosmo_cavitation_energy": 30.44, 
			 "cosmo_dispersion_energy": -22.09, 
			 "cosmo_repulsion_energy": 1.73, 
			 "cosmo_total_nonelectrostatic_energy": 10.09, 
			 "SMD_solvation_energy": 3.62 
		},
		"coords": [
			{
				"x": 1.1496006035,
				"y": 0.5331933807,
				"z": -2.9757730067,
				"element": "C" 
			},
			{
				"x": 0.8643606383,
				"y": -0.85960247,
				"z": -2.3892343931,
				"element": "C" 
			},
			{
				"x": -0.2684016821,
				"y": -0.8448175171,
				"z": -1.3927497944,
				"element": "C" 
			},
			{
				"x": -1.4556270268,
				"y": -1.4852984721,
				"z": -1.6233240086,
				"element": "C" 
			},
			{
				"x": -2.5189482627,
				"y": -1.4545412572,
				"z": -0.6436925522,
				"element": "C" 
			},
			{
				"x": -3.6170974268,
				"y": -1.9900490778,
				"z": -0.6980263343,
				"element": "O" 
			},
			{
				"x": -2.1587795927,
				"y": -0.6966940218,
				"z": 0.5012410241,
				"element": "N" 
			},
			{
				"x": -0.9607499189,
				"y": -0.0632072927,
				"z": 0.6591772605,
				"element": "C" 
			},
			{
				"x": -0.0180184666,
				"y": -0.1205922935,
				"z": -0.2455560292,
				"element": "N" 
			},
			{
				"x": -0.7246941396,
				"y": 0.7089126887,
				"z": 1.9019368879,
				"element": "C" 
			},
			{
				"x": -1.7636521745,
				"y": 1.1552548504,
				"z": 2.7328939381,
				"element": "C" 
			},
			{
				"x": -1.5755498041,
				"y": 1.8483305691,
				"z": 3.8592663475,
				"element": "N" 
			},
			{
				"x": -0.3143564491,
				"y": 2.1343810381,
				"z": 4.203007932,
				"element": "C" 
			},
			{
				"x": 0.7955178659,
				"y": 1.7600263818,
				"z": 3.4404947592,
				"element": "C" 
			},
			{
				"x": 0.5874400518,
				"y": 1.0386414744,
				"z": 2.2718167299,
				"element": "C" 
			},
			{
				"x": 2.0094323293,
				"y": 0.497959805,
				"z": -3.6516634009,
				"element": "H" 
			},
			{
				"x": 1.3667683916,
				"y": 1.2467266778,
				"z": -2.1765117518,
				"element": "H" 
			},
			{
				"x": 0.2886427053,
				"y": 0.9056543113,
				"z": -3.5401144631,
				"element": "H" 
			},
			{
				"x": 0.6376554249,
				"y": -1.5707640063,
				"z": -3.1899171062,
				"element": "H" 
			},
			{
				"x": 1.7626851852,
				"y": -1.2223816181,
				"z": -1.874204127,
				"element": "H" 
			},
			{
				"x": -1.636215717,
				"y": -2.046671786,
				"z": -2.5322038604,
				"element": "H" 
			},
			{
				"x": -2.8570548801,
				"y": -0.6892150859,
				"z": 1.2346221511,
				"element": "H" 
			},
			{
				"x": -2.8059293853,
				"y": 0.9746265393,
				"z": 2.4723200498,
				"element": "H" 
			},
			{
				"x": -0.1854710488,
				"y": 2.6923939333,
				"z": 5.1284540345,
				"element": "H" 
			},
			{
				"x": 1.7970107964,
				"y": 2.0272375528,
				"z": 3.7620785038,
				"element": "H" 
			},
			{
				"x": 1.4066319827,
				"y": 0.7213956957,
				"z": 1.6363612096,
				"element": "H" 
			}
		],
		 "valence_orbital": [ 
			{
				"type": "occ",
				"energy": -0.28526,
				"method": "rhf"
			},
			{
				"type": "occ",
				"energy": -0.28179,
				"method": "rhf"
			},
			{
				"type": "occ",
				"energy": -0.27228,
				"method": "rhf"
			},
			{
				"type": "occ",
				"energy": -0.25732,
				"method": "rhf"
			},
			{
				"type": "occ",
				"energy": -0.23619,
				"method": "rhf"
			},
			{
				"type": "unocc",
				"energy": -0.07237,
				"method": "rhf"
			},
			{
				"type": "unocc",
				"energy": -0.04092,
				"method": "rhf"
			},
			{
				"type": "unocc",
				"energy": -0.01875,
				"method": "rhf"
			},
			{
				"type": "unocc",
				"energy": 0.01839,
				"method": "rhf"
			},
			{
				"type": "unocc",
				"energy": 0.06973,
				"method": "rhf"
			}
		],
		"cosmo_sigma_profile": { 
			"-0.025": 0.0,
			"-0.024": 0.0,
			"-0.023": 0.0,
			"-0.022": 0.0,
			"-0.021": 0.0,
			"-0.02": 0.0,
			"-0.019": 0.0,
			"-0.018": 0.0,
			"-0.017": 0.00964736462867,
			"-0.016": 1.03152700907,
			"-0.015": 1.37029700257,
			"-0.014": 1.16464024928,
			"-0.013": 0.957006390943,
			"-0.012": 1.14031642074,
			"-0.011": 1.4377415352,
			"-0.01": 1.20441933531,
			"-0.009": 1.49438385518,
			"-0.008": 2.35508182852,
			"-0.007": 7.49884465431,
			"-0.006": 11.3983333867,
			"-0.005": 10.3706824133,
			"-0.004": 13.7082756639,
			"-0.003": 19.4462786992,
			"-0.002": 23.3488669015,
			"-0.001": 25.5162513991,
			"0.0": 26.0762337582,
			"0.001": 27.6472014578,
			"0.002": 14.4414500429,
			"0.003": 5.89640147957,
			"0.004": 5.38803379851,
			"0.005": 4.12493049817,
			"0.006": 3.88617736654,
			"0.007": 4.56526491785,
			"0.008": 4.96625778918,
			"0.009": 2.28449909387,
			"0.01": 1.79893925975,
			"0.011": 2.09495090004,
			"0.012": 2.57409339175,
			"0.013": 6.47451884596,
			"0.014": 5.53800537349,
			"0.015": 1.49793064831,
			"0.016": 0.538775935673,
			"0.017": 0.0372234311263,
			"0.018": 0.0,
			"0.019": 0.0,
			"0.02": 0.0,
			"0.021": 0.0,
			"0.022": 0.0,
			"0.023": 0.0,
			"0.024": 0.0,
			"0.025": 0.0
		}
	}
}
