{
	 "smiles": "CCOC(=O)CSCCC1NC(CS1)C(O)=O", 
	 "Tm": 415.15, 
	 "num_atms": 34, 
	 "gaussian": { 
		 "optdone": 1, 
		 "sigma_profile": "yes", 
		 "theory": "DFT", 
		 "functional": "B3LYP", 
		 "basiset": "6-31G**", 
		 "properties": { 
			 "R2extent": 5845.5406, 
			 "electric_dipole_moment_norm": 3.35568815744, 
			 "electric_quadrupole_moment_norm": 14.1313507104, 
			 "total_energy": -1543.34022725, 
			 "HOMO_LUMO_gap": 0.21551, 
			 "cosmo_polarized_energy": -23.07, 
			 "cosmo_cavitation_energy": 38.96, 
			 "cosmo_dispersion_energy": -26.88, 
			 "cosmo_repulsion_energy": 2.0, 
			 "cosmo_total_nonelectrostatic_energy": 14.08, 
			 "SMD_solvation_energy": 5.06 
		},
		"coords": [
			{
				"x": 3.0782192126,
				"y": 2.3174395068,
				"z": 0.1044082945,
				"element": "C" 
			},
			{
				"x": 1.8509582446,
				"y": 2.0344656784,
				"z": 0.9559231415,
				"element": "C" 
			},
			{
				"x": 1.55715859,
				"y": 0.6062588526,
				"z": 1.0148624512,
				"element": "O" 
			},
			{
				"x": 2.2499090764,
				"y": -0.1156047185,
				"z": 1.9304489761,
				"element": "C" 
			},
			{
				"x": 3.0872862692,
				"y": 0.3483841415,
				"z": 2.6709489738,
				"element": "O" 
			},
			{
				"x": 1.8245772023,
				"y": -1.5724088806,
				"z": 1.9168136321,
				"element": "C" 
			},
			{
				"x": 2.6221385172,
				"y": -2.5742164897,
				"z": 0.5948658126,
				"element": "S" 
			},
			{
				"x": 1.7886949688,
				"y": -1.9338801549,
				"z": -0.9109459451,
				"element": "C" 
			},
			{
				"x": 0.3029586677,
				"y": -2.3016046499,
				"z": -1.0383203546,
				"element": "C" 
			},
			{
				"x": -0.3961766773,
				"y": -1.4514113708,
				"z": -2.1159515521,
				"element": "C" 
			},
			{
				"x": -0.6160312513,
				"y": -0.0492957635,
				"z": -1.7676531915,
				"element": "N" 
			},
			{
				"x": -1.853430909,
				"y": 0.116374173,
				"z": -1.0271291724,
				"element": "C" 
			},
			{
				"x": -2.9160669607,
				"y": -0.5474859351,
				"z": -1.9154508003,
				"element": "C" 
			},
			{
				"x": -2.1087807764,
				"y": -2.1005263294,
				"z": -2.4822509652,
				"element": "S" 
			},
			{
				"x": -2.0759322342,
				"y": 1.5993150791,
				"z": -0.7166905134,
				"element": "C" 
			},
			{
				"x": -3.3423351356,
				"y": 1.9581638335,
				"z": -0.3958246416,
				"element": "O" 
			},
			{
				"x": -1.187070428,
				"y": 2.4137973773,
				"z": -0.6877301144,
				"element": "O" 
			},
			{
				"x": 3.9701692802,
				"y": 1.8641264835,
				"z": 0.5430796976,
				"element": "H" 
			},
			{
				"x": 3.2366339027,
				"y": 3.3992071829,
				"z": 0.0428190351,
				"element": "H" 
			},
			{
				"x": 2.9483423317,
				"y": 1.9391322587,
				"z": -0.9143983744,
				"element": "H" 
			},
			{
				"x": 1.9902786641,
				"y": 2.3944367338,
				"z": 1.9776702445,
				"element": "H" 
			},
			{
				"x": 0.9479524229,
				"y": 2.4694300817,
				"z": 0.5254768984,
				"element": "H" 
			},
			{
				"x": 0.737243962,
				"y": -1.6540704669,
				"z": 1.843544868,
				"element": "H" 
			},
			{
				"x": 2.1560885404,
				"y": -2.0251879004,
				"z": 2.8521611228,
				"element": "H" 
			},
			{
				"x": 2.3629703691,
				"y": -2.3624094064,
				"z": -1.7388049625,
				"element": "H" 
			},
			{
				"x": 1.9420805679,
				"y": -0.852917403,
				"z": -0.9373667393,
				"element": "H" 
			},
			{
				"x": -0.2206651931,
				"y": -2.1549547392,
				"z": -0.087470926,
				"element": "H" 
			},
			{
				"x": 0.2101330849,
				"y": -3.3658768803,
				"z": -1.2790908017,
				"element": "H" 
			},
			{
				"x": 0.1764849113,
				"y": -1.4970446168,
				"z": -3.0493623715,
				"element": "H" 
			},
			{
				"x": 0.1679326384,
				"y": 0.3646915126,
				"z": -1.2714313479,
				"element": "H" 
			},
			{
				"x": -1.8654366865,
				"y": -0.3976484868,
				"z": -0.043892944,
				"element": "H" 
			},
			{
				"x": -3.1641197482,
				"y": 0.084199341,
				"z": -2.7720115198,
				"element": "H" 
			},
			{
				"x": -3.8271999415,
				"y": -0.8145447722,
				"z": -1.371265988,
				"element": "H" 
			},
			{
				"x": -3.9428654824,
				"y": 1.2028667278,
				"z": -0.4719799226,
				"element": "H" 
			}
		],
		 "valence_orbital": [ 
			{
				"type": "occ",
				"energy": -0.28776,
				"method": "rhf"
			},
			{
				"type": "occ",
				"energy": -0.28256,
				"method": "rhf"
			},
			{
				"type": "occ",
				"energy": -0.24963,
				"method": "rhf"
			},
			{
				"type": "occ",
				"energy": -0.24193,
				"method": "rhf"
			},
			{
				"type": "occ",
				"energy": -0.22996,
				"method": "rhf"
			},
			{
				"type": "unocc",
				"energy": -0.01445,
				"method": "rhf"
			},
			{
				"type": "unocc",
				"energy": -0.0126,
				"method": "rhf"
			},
			{
				"type": "unocc",
				"energy": 0.00539,
				"method": "rhf"
			},
			{
				"type": "unocc",
				"energy": 0.02196,
				"method": "rhf"
			},
			{
				"type": "unocc",
				"energy": 0.04272,
				"method": "rhf"
			}
		],
		"cosmo_sigma_profile": { 
			"-0.025": 0.0,
			"-0.024": 0.0,
			"-0.023": 0.0,
			"-0.022": 0.0,
			"-0.021": 0.0,
			"-0.02": 0.0,
			"-0.019": 0.347624942075,
			"-0.018": 1.17142235171,
			"-0.017": 1.32491026054,
			"-0.016": 1.44200830824,
			"-0.015": 0.930190065998,
			"-0.014": 0.953008338677,
			"-0.013": 0.852018291922,
			"-0.012": 1.32243160613,
			"-0.011": 1.31362152369,
			"-0.01": 1.43768591004,
			"-0.009": 2.09934380902,
			"-0.008": 5.58040956072,
			"-0.007": 11.1207476219,
			"-0.006": 16.5446055171,
			"-0.005": 21.7806298776,
			"-0.004": 27.7467740537,
			"-0.003": 25.6894915525,
			"-0.002": 22.4627815059,
			"-0.001": 20.9858223735,
			"0.0": 19.6255659567,
			"0.001": 12.9806529167,
			"0.002": 12.4057553519,
			"0.003": 10.2030757209,
			"0.004": 12.3456688159,
			"0.005": 11.5745550335,
			"0.006": 10.8476195453,
			"0.007": 10.5236785211,
			"0.008": 8.80721465913,
			"0.009": 9.76076683044,
			"0.01": 10.8821902894,
			"0.011": 7.12651196135,
			"0.012": 5.55004056744,
			"0.013": 1.21565176403,
			"0.014": 0.576167805689,
			"0.015": 0.336818618615,
			"0.016": 0.0,
			"0.017": 0.0,
			"0.018": 0.0,
			"0.019": 0.0,
			"0.02": 0.0,
			"0.021": 0.0,
			"0.022": 0.0,
			"0.023": 0.0,
			"0.024": 0.0,
			"0.025": 0.0
		}
	}
}
