{
	 "smiles": "NC1(CCOC1)C(O)=O", 
	 "Tm": 518.15, 
	 "num_atms": 18, 
	 "gaussian": { 
		 "optdone": 1, 
		 "sigma_profile": "yes", 
		 "theory": "DFT", 
		 "functional": "B3LYP", 
		 "basiset": "6-31G**", 
		 "properties": { 
			 "R2extent": 1254.9176, 
			 "electric_dipole_moment_norm": 2.49654430163, 
			 "electric_quadrupole_moment_norm": 14.1758302219, 
			 "total_energy": -476.358378595, 
			 "HOMO_LUMO_gap": 0.25095, 
			 "cosmo_polarized_energy": -18.65, 
			 "cosmo_cavitation_energy": 20.7, 
			 "cosmo_dispersion_energy": -15.41, 
			 "cosmo_repulsion_energy": 1.27, 
			 "cosmo_total_nonelectrostatic_energy": 6.56, 
			 "SMD_solvation_energy": 3.88 
		},
		"coords": [
			{
				"x": -0.0308846547,
				"y": -1.8856242578,
				"z": 1.3835611173,
				"element": "N" 
			},
			{
				"x": 0.279263283,
				"y": -0.623646564,
				"z": 0.6858904006,
				"element": "C" 
			},
			{
				"x": -0.8463304684,
				"y": 0.3847710005,
				"z": 0.9639121414,
				"element": "C" 
			},
			{
				"x": -1.9066843862,
				"y": -0.0582757728,
				"z": -0.0414094662,
				"element": "C" 
			},
			{
				"x": -1.1710782688,
				"y": -0.4183969396,
				"z": -1.2171765856,
				"element": "O" 
			},
			{
				"x": 0.1334634033,
				"y": -0.8373204476,
				"z": -0.8467730116,
				"element": "C" 
			},
			{
				"x": 1.6602854164,
				"y": -0.0959930611,
				"z": 1.1036767959,
				"element": "C" 
			},
			{
				"x": 2.7330586064,
				"y": -0.7785816921,
				"z": 0.6037465356,
				"element": "O" 
			},
			{
				"x": 1.8398986866,
				"y": 0.807772768,
				"z": 1.880946411,
				"element": "O" 
			},
			{
				"x": 0.6464239414,
				"y": -2.611168764,
				"z": 1.1593987879,
				"element": "H" 
			},
			{
				"x": 0.0111610888,
				"y": -1.7440280198,
				"z": 2.390877937,
				"element": "H" 
			},
			{
				"x": -0.4956215989,
				"y": 1.3978174316,
				"z": 0.7507704467,
				"element": "H" 
			},
			{
				"x": -1.1838307563,
				"y": 0.3523622116,
				"z": 2.0029868831,
				"element": "H" 
			},
			{
				"x": -2.6091166818,
				"y": 0.7333909566,
				"z": -0.3173070743,
				"element": "H" 
			},
			{
				"x": -2.4692281357,
				"y": -0.9216894625,
				"z": 0.3377049347,
				"element": "H" 
			},
			{
				"x": 0.8656836134,
				"y": -0.2406063267,
				"z": -1.4089554372,
				"element": "H" 
			},
			{
				"x": 0.2805154371,
				"y": -1.8983248456,
				"z": -1.1045988937,
				"element": "H" 
			},
			{
				"x": 2.4497214744,
				"y": -1.4453582147,
				"z": -0.0379519224,
				"element": "H" 
			}
		],
		 "valence_orbital": [ 
			{
				"type": "occ",
				"energy": -0.32729,
				"method": "rhf"
			},
			{
				"type": "occ",
				"energy": -0.32331,
				"method": "rhf"
			},
			{
				"type": "occ",
				"energy": -0.30147,
				"method": "rhf"
			},
			{
				"type": "occ",
				"energy": -0.25678,
				"method": "rhf"
			},
			{
				"type": "occ",
				"energy": -0.25171,
				"method": "rhf"
			},
			{
				"type": "unocc",
				"energy": -0.00076,
				"method": "rhf"
			},
			{
				"type": "unocc",
				"energy": 0.02786,
				"method": "rhf"
			},
			{
				"type": "unocc",
				"energy": 0.07621,
				"method": "rhf"
			},
			{
				"type": "unocc",
				"energy": 0.11456,
				"method": "rhf"
			},
			{
				"type": "unocc",
				"energy": 0.11636,
				"method": "rhf"
			}
		],
		"cosmo_sigma_profile": { 
			"-0.025": 0.0,
			"-0.024": 0.0,
			"-0.023": 0.0,
			"-0.022": 0.0,
			"-0.021": 0.0,
			"-0.02": 0.000221156332817,
			"-0.019": 0.567917997993,
			"-0.018": 1.52466126046,
			"-0.017": 1.10744880934,
			"-0.016": 1.42222540454,
			"-0.015": 1.08248525388,
			"-0.014": 1.27750003568,
			"-0.013": 1.43181153016,
			"-0.012": 1.66031320566,
			"-0.011": 2.82475028799,
			"-0.01": 3.27058612635,
			"-0.009": 3.98663145181,
			"-0.008": 4.64899356381,
			"-0.007": 5.18950183381,
			"-0.006": 6.17973042695,
			"-0.005": 9.47678604361,
			"-0.004": 10.0925741182,
			"-0.003": 12.7250752421,
			"-0.002": 11.3900011737,
			"-0.001": 7.68149346664,
			"0.0": 5.56076483826,
			"0.001": 4.77197140853,
			"0.002": 4.5376037336,
			"0.003": 4.59596634543,
			"0.004": 3.77618149792,
			"0.005": 4.42013763948,
			"0.006": 4.12609814224,
			"0.007": 4.7358873331,
			"0.008": 4.97198403709,
			"0.009": 5.02746260239,
			"0.01": 7.17838506505,
			"0.011": 7.51504744135,
			"0.012": 6.84939843124,
			"0.013": 3.78893762885,
			"0.014": 0.922442568487,
			"0.015": 0.550814615204,
			"0.016": 0.113512122631,
			"0.017": 0.0,
			"0.018": 0.0,
			"0.019": 0.0,
			"0.02": 0.0,
			"0.021": 0.0,
			"0.022": 0.0,
			"0.023": 0.0,
			"0.024": 0.0,
			"0.025": 0.0
		}
	}
}
