{
	 "smiles": "OC(=O)C1=CC(NS(=O)(=O)C2=CC=C(F)C=C2)=C(Cl)C=C1", 
	 "Tm": 485.15, 
	 "num_atms": 30, 
	 "gaussian": { 
		 "optdone": 1, 
		 "sigma_profile": "yes", 
		 "theory": "DFT", 
		 "functional": "B3LYP", 
		 "basiset": "6-31G**", 
		 "properties": { 
			 "R2extent": 8045.8903, 
			 "electric_dipole_moment_norm": 3.28516181337, 
			 "electric_quadrupole_moment_norm": 14.9413476598, 
			 "total_energy": -1814.61473284, 
			 "HOMO_LUMO_gap": 0.18108, 
			 "cosmo_polarized_energy": -17.54, 
			 "cosmo_cavitation_energy": 39.35, 
			 "cosmo_dispersion_energy": -27.59, 
			 "cosmo_repulsion_energy": 2.04, 
			 "cosmo_total_nonelectrostatic_energy": 13.8, 
			 "SMD_solvation_energy": 7.31 
		},
		"coords": [
			{
				"x": 3.3837419064,
				"y": -1.4118592559,
				"z": 0.191155731,
				"element": "O" 
			},
			{
				"x": 3.1589756364,
				"y": -2.6042262631,
				"z": -0.4151184208,
				"element": "C" 
			},
			{
				"x": 4.0161792733,
				"y": -3.4607188005,
				"z": -0.4960521689,
				"element": "O" 
			},
			{
				"x": 1.7777903819,
				"y": -2.7370058652,
				"z": -0.952621033,
				"element": "C" 
			},
			{
				"x": 0.8396252834,
				"y": -1.7106408537,
				"z": -0.8213382109,
				"element": "C" 
			},
			{
				"x": -0.4525952864,
				"y": -1.8513090551,
				"z": -1.3422351097,
				"element": "C" 
			},
			{
				"x": -1.431034001,
				"y": -0.8517890416,
				"z": -1.1901011524,
				"element": "N" 
			},
			{
				"x": -1.1328357683,
				"y": 0.825930334,
				"z": -1.3062026685,
				"element": "S" 
			},
			{
				"x": 0.0934524475,
				"y": 1.0726621631,
				"z": -2.0632071894,
				"element": "O" 
			},
			{
				"x": -2.4325660352,
				"y": 1.3546900258,
				"z": -1.7221661568,
				"element": "O" 
			},
			{
				"x": -0.8315602889,
				"y": 1.3177052668,
				"z": 0.3876420127,
				"element": "C" 
			},
			{
				"x": 0.4304550288,
				"y": 1.7965400675,
				"z": 0.7443214521,
				"element": "C" 
			},
			{
				"x": 0.6578137763,
				"y": 2.2135063798,
				"z": 2.055378206,
				"element": "C" 
			},
			{
				"x": -0.3883472265,
				"y": 2.1431209342,
				"z": 2.9690050226,
				"element": "C" 
			},
			{
				"x": -0.1731786789,
				"y": 2.5425465271,
				"z": 4.2333481579,
				"element": "F" 
			},
			{
				"x": -1.6554732477,
				"y": 1.6770566309,
				"z": 2.6215108745,
				"element": "C" 
			},
			{
				"x": -1.8794824033,
				"y": 1.2637050803,
				"z": 1.3126182468,
				"element": "C" 
			},
			{
				"x": -0.7740005742,
				"y": -3.0646177471,
				"z": -1.9812029978,
				"element": "C" 
			},
			{
				"x": -2.3869298221,
				"y": -3.2984069077,
				"z": -2.6401912196,
				"element": "Cl" 
			},
			{
				"x": 0.1546472326,
				"y": -4.0973926241,
				"z": -2.1004435871,
				"element": "C" 
			},
			{
				"x": 1.4369662525,
				"y": -3.9348482832,
				"z": -1.5918543523,
				"element": "C" 
			},
			{
				"x": 4.3062901809,
				"y": -1.4401075937,
				"z": 0.4936713169,
				"element": "H" 
			},
			{
				"x": 1.1198216341,
				"y": -0.7998478662,
				"z": -0.3111009166,
				"element": "H" 
			},
			{
				"x": -2.3220975831,
				"y": -1.0486232114,
				"z": -1.6376142569,
				"element": "H" 
			},
			{
				"x": 1.2166573272,
				"y": 1.8466143686,
				"z": -0.0006421868,
				"element": "H" 
			},
			{
				"x": 1.6230447654,
				"y": 2.592241748,
				"z": 2.3719520658,
				"element": "H" 
			},
			{
				"x": -2.4398988044,
				"y": 1.649743771,
				"z": 3.3694312072,
				"element": "H" 
			},
			{
				"x": -2.858352664,
				"y": 0.9089288283,
				"z": 1.009463785,
				"element": "H" 
			},
			{
				"x": -0.1363381224,
				"y": -5.0157837411,
				"z": -2.5976083186,
				"element": "H" 
			},
			{
				"x": 2.1802293799,
				"y": -4.718715016,
				"z": -1.6786981323,
				"element": "H" 
			}
		],
		 "valence_orbital": [ 
			{
				"type": "occ",
				"energy": -0.29054,
				"method": "rhf"
			},
			{
				"type": "occ",
				"energy": -0.28727,
				"method": "rhf"
			},
			{
				"type": "occ",
				"energy": -0.27753,
				"method": "rhf"
			},
			{
				"type": "occ",
				"energy": -0.27091,
				"method": "rhf"
			},
			{
				"type": "occ",
				"energy": -0.24325,
				"method": "rhf"
			},
			{
				"type": "unocc",
				"energy": -0.06217,
				"method": "rhf"
			},
			{
				"type": "unocc",
				"energy": -0.04886,
				"method": "rhf"
			},
			{
				"type": "unocc",
				"energy": -0.04056,
				"method": "rhf"
			},
			{
				"type": "unocc",
				"energy": -0.02538,
				"method": "rhf"
			},
			{
				"type": "unocc",
				"energy": 0.00984,
				"method": "rhf"
			}
		],
		"cosmo_sigma_profile": { 
			"-0.025": 0.0,
			"-0.024": 0.0,
			"-0.023": 0.0,
			"-0.022": 0.0,
			"-0.021": 0.0,
			"-0.02": 0.0,
			"-0.019": 0.214113433271,
			"-0.018": 0.823863744884,
			"-0.017": 1.11570526073,
			"-0.016": 0.704946570123,
			"-0.015": 0.376829805645,
			"-0.014": 0.809574098963,
			"-0.013": 0.672673316833,
			"-0.012": 1.30997183464,
			"-0.011": 1.52282153148,
			"-0.01": 1.34776805482,
			"-0.009": 3.80315026146,
			"-0.008": 9.95833394784,
			"-0.007": 13.0666240518,
			"-0.006": 12.5149027079,
			"-0.005": 12.2081807665,
			"-0.004": 13.9586127589,
			"-0.003": 15.1080645521,
			"-0.002": 22.351616962,
			"-0.001": 29.2752901817,
			"0.0": 33.8602862245,
			"0.001": 34.852579355,
			"0.002": 23.531395043,
			"0.003": 20.7275662457,
			"0.004": 14.8325798794,
			"0.005": 5.79987809537,
			"0.006": 5.36449721287,
			"0.007": 5.40642277458,
			"0.008": 4.88145115544,
			"0.009": 7.83360810162,
			"0.01": 11.2824698216,
			"0.011": 7.46582966815,
			"0.012": 2.34478370112,
			"0.013": 0.0,
			"0.014": 0.0,
			"0.015": 0.0,
			"0.016": 0.0,
			"0.017": 0.0,
			"0.018": 0.0,
			"0.019": 0.0,
			"0.02": 0.0,
			"0.021": 0.0,
			"0.022": 0.0,
			"0.023": 0.0,
			"0.024": 0.0,
			"0.025": 0.0
		}
	}
}
