{
	 "smiles": "COC1=C(C=CC(=C1)[N+]([O-])=O)N1CCCC1", 
	 "Tm": 333.15, 
	 "num_atms": 30, 
	 "gaussian": { 
		 "optdone": 1, 
		 "sigma_profile": "yes", 
		 "theory": "DFT", 
		 "functional": "B3LYP", 
		 "basiset": "6-31G**", 
		 "properties": { 
			 "R2extent": 5519.126, 
			 "electric_dipole_moment_norm": 7.70717300312, 
			 "electric_quadrupole_moment_norm": 30.8054865763, 
			 "total_energy": -762.671538591, 
			 "HOMO_LUMO_gap": 0.13251, 
			 "cosmo_polarized_energy": -12.72, 
			 "cosmo_cavitation_energy": 32.48, 
			 "cosmo_dispersion_energy": -23.84, 
			 "cosmo_repulsion_energy": 1.85, 
			 "cosmo_total_nonelectrostatic_energy": 10.49, 
			 "SMD_solvation_energy": 7.15 
		},
		"coords": [
			{
				"x": -0.0487220419,
				"y": 3.2911665736,
				"z": 1.2962744313,
				"element": "C" 
			},
			{
				"x": 0.0101562589,
				"y": 1.9828524469,
				"z": 0.7482532735,
				"element": "O" 
			},
			{
				"x": -0.8691052825,
				"y": 1.658536781,
				"z": -0.250148555,
				"element": "C" 
			},
			{
				"x": -0.7930258634,
				"y": 0.3163902908,
				"z": -0.7536920809,
				"element": "C" 
			},
			{
				"x": -1.7495223456,
				"y": -0.0567618499,
				"z": -1.7270839572,
				"element": "C" 
			},
			{
				"x": -2.7036005793,
				"y": 0.8286908306,
				"z": -2.2110513664,
				"element": "C" 
			},
			{
				"x": -2.721752728,
				"y": 2.1290026218,
				"z": -1.7234410244,
				"element": "C" 
			},
			{
				"x": -1.810577551,
				"y": 2.5456054001,
				"z": -0.7442150632,
				"element": "C" 
			},
			{
				"x": -3.7025152599,
				"y": 3.0766594797,
				"z": -2.2196665653,
				"element": "N" 
			},
			{
				"x": -4.5074521022,
				"y": 2.6863323979,
				"z": -3.0717492408,
				"element": "O" 
			},
			{
				"x": -3.6804329586,
				"y": 4.2262132596,
				"z": -1.7636454075,
				"element": "O" 
			},
			{
				"x": 0.1286554839,
				"y": -0.5964249938,
				"z": -0.2978494498,
				"element": "N" 
			},
			{
				"x": 1.4324515898,
				"y": -0.2828660226,
				"z": 0.3292467462,
				"element": "C" 
			},
			{
				"x": 2.2611147738,
				"y": -1.5574487292,
				"z": 0.1110699992,
				"element": "C" 
			},
			{
				"x": 1.2011924985,
				"y": -2.666223057,
				"z": 0.0750369902,
				"element": "C" 
			},
			{
				"x": 0.0597760166,
				"y": -2.005247042,
				"z": -0.7026730585,
				"element": "C" 
			},
			{
				"x": 0.7193262025,
				"y": 3.3262230664,
				"z": 2.0703777906,
				"element": "H" 
			},
			{
				"x": -1.02814258,
				"y": 3.4948368056,
				"z": 1.7468067952,
				"element": "H" 
			},
			{
				"x": 0.1635627665,
				"y": 4.0566846601,
				"z": 0.5394055667,
				"element": "H" 
			},
			{
				"x": -1.7330944892,
				"y": -1.0629157019,
				"z": -2.1249146571,
				"element": "H" 
			},
			{
				"x": -3.4206241271,
				"y": 0.5278886436,
				"z": -2.9640494232,
				"element": "H" 
			},
			{
				"x": -1.8840306075,
				"y": 3.5604248572,
				"z": -0.380845548,
				"element": "H" 
			},
			{
				"x": 1.3062370637,
				"y": -0.0669310394,
				"z": 1.3951125101,
				"element": "H" 
			},
			{
				"x": 1.8877158438,
				"y": 0.5959336745,
				"z": -0.1321119727,
				"element": "H" 
			},
			{
				"x": 3.0123032522,
				"y": -1.697997108,
				"z": 0.8929413095,
				"element": "H" 
			},
			{
				"x": 2.7841692891,
				"y": -1.5090082524,
				"z": -0.8509804584,
				"element": "H" 
			},
			{
				"x": 0.8712868943,
				"y": -2.9128248393,
				"z": 1.0904428186,
				"element": "H" 
			},
			{
				"x": 1.5481057831,
				"y": -3.5870429562,
				"z": -0.4009016834,
				"element": "H" 
			},
			{
				"x": -0.9223336229,
				"y": -2.4286843189,
				"z": -0.4634301257,
				"element": "H" 
			},
			{
				"x": 0.2147784226,
				"y": -2.1187658789,
				"z": -1.7880185937,
				"element": "H" 
			}
		],
		 "valence_orbital": [ 
			{
				"type": "occ",
				"energy": -0.28504,
				"method": "rhf"
			},
			{
				"type": "occ",
				"energy": -0.28473,
				"method": "rhf"
			},
			{
				"type": "occ",
				"energy": -0.26574,
				"method": "rhf"
			},
			{
				"type": "occ",
				"energy": -0.24569,
				"method": "rhf"
			},
			{
				"type": "occ",
				"energy": -0.19755,
				"method": "rhf"
			},
			{
				"type": "unocc",
				"energy": -0.06504,
				"method": "rhf"
			},
			{
				"type": "unocc",
				"energy": -0.00051,
				"method": "rhf"
			},
			{
				"type": "unocc",
				"energy": 0.02793,
				"method": "rhf"
			},
			{
				"type": "unocc",
				"energy": 0.07169,
				"method": "rhf"
			},
			{
				"type": "unocc",
				"energy": 0.08746,
				"method": "rhf"
			}
		],
		"cosmo_sigma_profile": { 
			"-0.025": 0.0,
			"-0.024": 0.0,
			"-0.023": 0.0,
			"-0.022": 0.0,
			"-0.021": 0.0,
			"-0.02": 0.0,
			"-0.019": 0.0,
			"-0.018": 0.0,
			"-0.017": 0.0,
			"-0.016": 0.0,
			"-0.015": 0.0,
			"-0.014": 0.0,
			"-0.013": 0.0,
			"-0.012": 0.0,
			"-0.011": 0.0,
			"-0.01": 0.0,
			"-0.009": 0.0,
			"-0.008": 0.0,
			"-0.007": 1.82964549406,
			"-0.006": 10.9132742404,
			"-0.005": 16.5535775316,
			"-0.004": 26.2550539408,
			"-0.003": 35.6779238217,
			"-0.002": 29.9842795241,
			"-0.001": 20.4799759929,
			"0.0": 18.7830156732,
			"0.001": 15.1788107538,
			"0.002": 17.4538613553,
			"0.003": 15.2055918818,
			"0.004": 10.5452729381,
			"0.005": 4.20368448693,
			"0.006": 3.35257410712,
			"0.007": 3.58028572646,
			"0.008": 4.45772461571,
			"0.009": 11.1141649655,
			"0.01": 5.02111362181,
			"0.011": 4.20876224409,
			"0.012": 1.5244886776,
			"0.013": 0.0,
			"0.014": 0.0,
			"0.015": 0.0,
			"0.016": 0.0,
			"0.017": 0.0,
			"0.018": 0.0,
			"0.019": 0.0,
			"0.02": 0.0,
			"0.021": 0.0,
			"0.022": 0.0,
			"0.023": 0.0,
			"0.024": 0.0,
			"0.025": 0.0
		}
	}
}
