{
	 "smiles": "CC(=O)NC1C(O)CC(O)(OC1C(O)C(O)CO)C(O)=O", 
	 "Tm": 458.15, 
	 "num_atms": 40, 
	 "gaussian": { 
		 "optdone": 1, 
		 "sigma_profile": "yes", 
		 "theory": "DFT", 
		 "functional": "B3LYP", 
		 "basiset": "6-31G**", 
		 "properties": { 
			 "R2extent": 6110.8689, 
			 "electric_dipole_moment_norm": 8.88975765361, 
			 "electric_quadrupole_moment_norm": 14.6994298216, 
			 "total_energy": -1162.37906203, 
			 "HOMO_LUMO_gap": 0.24323, 
			 "cosmo_polarized_energy": -32.58, 
			 "cosmo_cavitation_energy": 39.85, 
			 "cosmo_dispersion_energy": -27.56, 
			 "cosmo_repulsion_energy": 2.1, 
			 "cosmo_total_nonelectrostatic_energy": 14.39, 
			 "SMD_solvation_energy": 7.99 
		},
		"coords": [
			{
				"x": -0.9570483442,
				"y": -3.8542190924,
				"z": -1.3781386912,
				"element": "C" 
			},
			{
				"x": -1.6787014538,
				"y": -2.7105206423,
				"z": -0.6895734045,
				"element": "C" 
			},
			{
				"x": -2.8113632069,
				"y": -2.8577621463,
				"z": -0.2211661729,
				"element": "O" 
			},
			{
				"x": -1.015262576,
				"y": -1.5219706353,
				"z": -0.6455970006,
				"element": "N" 
			},
			{
				"x": -1.5168999896,
				"y": -0.4102188022,
				"z": 0.1731764582,
				"element": "C" 
			},
			{
				"x": -2.6250477127,
				"y": 0.405954745,
				"z": -0.5323332759,
				"element": "C" 
			},
			{
				"x": -3.6689961089,
				"y": -0.3825493711,
				"z": -1.0559309912,
				"element": "O" 
			},
			{
				"x": -2.0236954343,
				"y": 1.203236206,
				"z": -1.6943797397,
				"element": "C" 
			},
			{
				"x": -0.8464400891,
				"y": 2.068448755,
				"z": -1.2457923982,
				"element": "C" 
			},
			{
				"x": -0.1494136963,
				"y": 2.5008500966,
				"z": -2.4062889104,
				"element": "O" 
			},
			{
				"x": 0.0974986599,
				"y": 1.3335421638,
				"z": -0.4889933039,
				"element": "O" 
			},
			{
				"x": -0.3902062997,
				"y": 0.5384043372,
				"z": 0.618768193,
				"element": "C" 
			},
			{
				"x": 0.8102138384,
				"y": -0.178215835,
				"z": 1.282819209,
				"element": "C" 
			},
			{
				"x": 0.8468254982,
				"y": 0.268787997,
				"z": 2.6294591579,
				"element": "O" 
			},
			{
				"x": 2.2121840213,
				"y": 0.0586975742,
				"z": 0.6653081885,
				"element": "C" 
			},
			{
				"x": 3.1585734049,
				"y": -0.5792739519,
				"z": 1.5329246086,
				"element": "O" 
			},
			{
				"x": 2.4337185912,
				"y": -0.4193275536,
				"z": -0.7646064697,
				"element": "C" 
			},
			{
				"x": 2.075826078,
				"y": -1.8146275922,
				"z": -0.8211808342,
				"element": "O" 
			},
			{
				"x": -1.3306339948,
				"y": 3.3204262949,
				"z": -0.4512767871,
				"element": "C" 
			},
			{
				"x": -1.3711275814,
				"y": 4.4462450707,
				"z": -1.1852195493,
				"element": "O" 
			},
			{
				"x": -1.677922357,
				"y": 3.2881691855,
				"z": 0.70537407,
				"element": "O" 
			},
			{
				"x": -1.3933572359,
				"y": -4.004445164,
				"z": -2.3708884798,
				"element": "H" 
			},
			{
				"x": -1.1278738753,
				"y": -4.7667661892,
				"z": -0.8034534296,
				"element": "H" 
			},
			{
				"x": 0.1166161332,
				"y": -3.6818202607,
				"z": -1.4829962326,
				"element": "H" 
			},
			{
				"x": -0.0423721819,
				"y": -1.5245472764,
				"z": -0.9316969847,
				"element": "H" 
			},
			{
				"x": -1.9487199879,
				"y": -0.8488542124,
				"z": 1.0819167921,
				"element": "H" 
			},
			{
				"x": -3.0135338121,
				"y": 1.1070762493,
				"z": 0.2225698083,
				"element": "H" 
			},
			{
				"x": -3.6496865368,
				"y": -1.2549494521,
				"z": -0.6175640817,
				"element": "H" 
			},
			{
				"x": -1.6481722214,
				"y": 0.5041572241,
				"z": -2.447885383,
				"element": "H" 
			},
			{
				"x": -2.7957390242,
				"y": 1.8199449645,
				"z": -2.1644420206,
				"element": "H" 
			},
			{
				"x": 0.7503193156,
				"y": 2.7192450157,
				"z": -2.1159936991,
				"element": "H" 
			},
			{
				"x": -0.8028555327,
				"y": 1.2152848267,
				"z": 1.3698665975,
				"element": "H" 
			},
			{
				"x": 0.6296969508,
				"y": -1.2642925703,
				"z": 1.2575279579,
				"element": "H" 
			},
			{
				"x": 1.6889119696,
				"y": -0.057832645,
				"z": 2.9842589619,
				"element": "H" 
			},
			{
				"x": 2.4318706786,
				"y": 1.1289869523,
				"z": 0.7133957518,
				"element": "H" 
			},
			{
				"x": 3.1039514389,
				"y": -1.5271124839,
				"z": 1.3350082974,
				"element": "H" 
			},
			{
				"x": 3.497890697,
				"y": -0.2914895743,
				"z": -0.9999836155,
				"element": "H" 
			},
			{
				"x": 1.8328544446,
				"y": 0.1642864786,
				"z": -1.4668187047,
				"element": "H" 
			},
			{
				"x": 2.4808667992,
				"y": -2.2014916465,
				"z": -1.6071292776,
				"element": "H" 
			},
			{
				"x": -1.0191492662,
				"y": 4.21744296,
				"z": -2.0664446146,
				"element": "H" 
			}
		],
		 "valence_orbital": [ 
			{
				"type": "occ",
				"energy": -0.27015,
				"method": "rhf"
			},
			{
				"type": "occ",
				"energy": -0.26353,
				"method": "rhf"
			},
			{
				"type": "occ",
				"energy": -0.25927,
				"method": "rhf"
			},
			{
				"type": "occ",
				"energy": -0.25837,
				"method": "rhf"
			},
			{
				"type": "occ",
				"energy": -0.24825,
				"method": "rhf"
			},
			{
				"type": "unocc",
				"energy": -0.00502,
				"method": "rhf"
			},
			{
				"type": "unocc",
				"energy": 0.01245,
				"method": "rhf"
			},
			{
				"type": "unocc",
				"energy": 0.02305,
				"method": "rhf"
			},
			{
				"type": "unocc",
				"energy": 0.04497,
				"method": "rhf"
			},
			{
				"type": "unocc",
				"energy": 0.07285,
				"method": "rhf"
			}
		],
		"cosmo_sigma_profile": { 
			"-0.025": 0.0,
			"-0.024": 0.0,
			"-0.023": 0.0,
			"-0.022": 0.0,
			"-0.021": 0.0,
			"-0.02": 0.0,
			"-0.019": 0.0,
			"-0.018": 0.212235403007,
			"-0.017": 1.48126333592,
			"-0.016": 2.28601630598,
			"-0.015": 2.57852092174,
			"-0.014": 2.56770606467,
			"-0.013": 3.13044989177,
			"-0.012": 3.59225605966,
			"-0.011": 4.00120820297,
			"-0.01": 3.96178054446,
			"-0.009": 3.33388193212,
			"-0.008": 5.73679495804,
			"-0.007": 7.51432287238,
			"-0.006": 15.8174629156,
			"-0.005": 21.8062828425,
			"-0.004": 24.3011929013,
			"-0.003": 23.1535362358,
			"-0.002": 24.0620538047,
			"-0.001": 19.7726305462,
			"0.0": 12.7129286888,
			"0.001": 11.0325915949,
			"0.002": 12.1179787265,
			"0.003": 12.2106911682,
			"0.004": 8.85624331257,
			"0.005": 9.43687181267,
			"0.006": 8.69426361011,
			"0.007": 9.1646233931,
			"0.008": 8.40522985224,
			"0.009": 8.56080535304,
			"0.01": 10.635576205,
			"0.011": 8.94156716499,
			"0.012": 7.71140431083,
			"0.013": 6.93500252152,
			"0.014": 4.12605523761,
			"0.015": 0.967170159017,
			"0.016": 0.0,
			"0.017": 0.0,
			"0.018": 0.0,
			"0.019": 0.0,
			"0.02": 0.0,
			"0.021": 0.0,
			"0.022": 0.0,
			"0.023": 0.0,
			"0.024": 0.0,
			"0.025": 0.0
		}
	}
}
