{
	 "smiles": "[O-][N+](=O)C1=CC(C=C)=CC=C1", 
	 "Tm": 265.65, 
	 "num_atms": 18, 
	 "gaussian": { 
		 "optdone": 1, 
		 "sigma_profile": "yes", 
		 "theory": "DFT", 
		 "functional": "B3LYP", 
		 "basiset": "6-31G**", 
		 "properties": { 
			 "R2extent": 2369.3669, 
			 "electric_dipole_moment_norm": 4.55139359427, 
			 "electric_quadrupole_moment_norm": 17.1866688104, 
			 "total_energy": -514.150496123, 
			 "HOMO_LUMO_gap": 0.15831, 
			 "cosmo_polarized_energy": -8.06, 
			 "cosmo_cavitation_energy": 23.18, 
			 "cosmo_dispersion_energy": -16.78, 
			 "cosmo_repulsion_energy": 1.33, 
			 "cosmo_total_nonelectrostatic_energy": 7.73, 
			 "SMD_solvation_energy": 6.95 
		},
		"coords": [
			{
				"x": 0.9931496281,
				"y": 4.3342875589,
				"z": 0.0869109018,
				"element": "O" 
			},
			{
				"x": 0.0945739921,
				"y": 3.5314547228,
				"z": 0.3351194083,
				"element": "N" 
			},
			{
				"x": -1.0278109108,
				"y": 3.8383466585,
				"z": 0.7350768247,
				"element": "O" 
			},
			{
				"x": 0.3858567323,
				"y": 2.0990204918,
				"z": 0.138426821,
				"element": "C" 
			},
			{
				"x": -0.6135665089,
				"y": 1.1746556579,
				"z": 0.4121778691,
				"element": "C" 
			},
			{
				"x": -0.357519738,
				"y": -0.1942644858,
				"z": 0.2316816201,
				"element": "C" 
			},
			{
				"x": -1.3633549791,
				"y": -1.2361500221,
				"z": 0.4994773388,
				"element": "C" 
			},
			{
				"x": -2.6155895193,
				"y": -1.0573539329,
				"z": 0.9356446543,
				"element": "C" 
			},
			{
				"x": 0.9181956639,
				"y": -0.572410966,
				"z": -0.2248428905,
				"element": "C" 
			},
			{
				"x": 1.9088379903,
				"y": 0.3729761539,
				"z": -0.4941412895,
				"element": "C" 
			},
			{
				"x": 1.6527475182,
				"y": 1.7293030308,
				"z": -0.3145128791,
				"element": "C" 
			},
			{
				"x": -1.572231883,
				"y": 1.5366196647,
				"z": 0.7604974195,
				"element": "H" 
			},
			{
				"x": -1.0214529751,
				"y": -2.2532536627,
				"z": 0.3130432649,
				"element": "H" 
			},
			{
				"x": -3.2727832837,
				"y": -1.9048300568,
				"z": 1.0990066315,
				"element": "H" 
			},
			{
				"x": -3.033638415,
				"y": -0.0772874978,
				"z": 1.1454408432,
				"element": "H" 
			},
			{
				"x": 1.1329905773,
				"y": -1.6278114606,
				"z": -0.3699005964,
				"element": "H" 
			},
			{
				"x": 2.8839500304,
				"y": 0.0506082988,
				"z": -0.8453580611,
				"element": "H" 
			},
			{
				"x": 2.3953460802,
				"y": 2.4912898465,
				"z": -0.5127478805,
				"element": "H" 
			}
		],
		 "valence_orbital": [ 
			{
				"type": "occ",
				"energy": -0.30943,
				"method": "rhf"
			},
			{
				"type": "occ",
				"energy": -0.3071,
				"method": "rhf"
			},
			{
				"type": "occ",
				"energy": -0.29096,
				"method": "rhf"
			},
			{
				"type": "occ",
				"energy": -0.28235,
				"method": "rhf"
			},
			{
				"type": "occ",
				"energy": -0.24689,
				"method": "rhf"
			},
			{
				"type": "unocc",
				"energy": -0.08858,
				"method": "rhf"
			},
			{
				"type": "unocc",
				"energy": -0.05464,
				"method": "rhf"
			},
			{
				"type": "unocc",
				"energy": -0.00347,
				"method": "rhf"
			},
			{
				"type": "unocc",
				"energy": 0.04473,
				"method": "rhf"
			},
			{
				"type": "unocc",
				"energy": 0.07884,
				"method": "rhf"
			}
		],
		"cosmo_sigma_profile": { 
			"-0.025": 0.0,
			"-0.024": 0.0,
			"-0.023": 0.0,
			"-0.022": 0.0,
			"-0.021": 0.0,
			"-0.02": 0.0,
			"-0.019": 0.0,
			"-0.018": 0.0,
			"-0.017": 0.0,
			"-0.016": 0.0,
			"-0.015": 0.0,
			"-0.014": 0.0,
			"-0.013": 0.0,
			"-0.012": 0.0,
			"-0.011": 0.0,
			"-0.01": 0.0,
			"-0.009": 0.501520165446,
			"-0.008": 2.68939121048,
			"-0.007": 8.88745310103,
			"-0.006": 12.9746247768,
			"-0.005": 12.5654165649,
			"-0.004": 11.6287219976,
			"-0.003": 11.1534131376,
			"-0.002": 12.4104072523,
			"-0.001": 14.6860981688,
			"0.0": 14.6629148634,
			"0.001": 17.7208034322,
			"0.002": 18.6947095738,
			"0.003": 8.46379224532,
			"0.004": 6.02177861422,
			"0.005": 5.74814966188,
			"0.006": 5.06453176554,
			"0.007": 7.60829425861,
			"0.008": 7.7886781641,
			"0.009": 4.46200540659,
			"0.01": 2.68243608867,
			"0.011": 0.0191546507472,
			"0.012": 0.0,
			"0.013": 0.0,
			"0.014": 0.0,
			"0.015": 0.0,
			"0.016": 0.0,
			"0.017": 0.0,
			"0.018": 0.0,
			"0.019": 0.0,
			"0.02": 0.0,
			"0.021": 0.0,
			"0.022": 0.0,
			"0.023": 0.0,
			"0.024": 0.0,
			"0.025": 0.0
		}
	}
}
