{
	 "smiles": "CC(=O)C1=CC=C(C=C1)S(=O)(=O)NCC1=CC=C(F)C=C1", 
	 "Tm": 423.15, 
	 "num_atms": 35, 
	 "gaussian": { 
		 "optdone": 1, 
		 "sigma_profile": "yes", 
		 "theory": "DFT", 
		 "functional": "B3LYP", 
		 "basiset": "6-31G**", 
		 "properties": { 
			 "R2extent": 7053.6878, 
			 "electric_dipole_moment_norm": 3.8107800645, 
			 "electric_quadrupole_moment_norm": 23.4417312443, 
			 "total_energy": -1358.41097255, 
			 "HOMO_LUMO_gap": 0.17099, 
			 "cosmo_polarized_energy": -18.73, 
			 "cosmo_cavitation_energy": 41.38, 
			 "cosmo_dispersion_energy": -27.87, 
			 "cosmo_repulsion_energy": 2.08, 
			 "cosmo_total_nonelectrostatic_energy": 15.58, 
			 "SMD_solvation_energy": 6.76 
		},
		"coords": [
			{
				"x": 1.7113924128,
				"y": -2.8183259729,
				"z": 4.2349505866,
				"element": "C" 
			},
			{
				"x": 1.4694703181,
				"y": -1.4431621445,
				"z": 3.6392044821,
				"element": "C" 
			},
			{
				"x": 1.3553568607,
				"y": -0.4620550171,
				"z": 4.3561686142,
				"element": "O" 
			},
			{
				"x": 1.371715924,
				"y": -1.3047545657,
				"z": 2.1440618893,
				"element": "C" 
			},
			{
				"x": 1.1597986034,
				"y": -0.0225432728,
				"z": 1.6149406986,
				"element": "C" 
			},
			{
				"x": 1.0631854156,
				"y": 0.1714378319,
				"z": 0.240955459,
				"element": "C" 
			},
			{
				"x": 1.1735346422,
				"y": -0.9341342146,
				"z": -0.6055194889,
				"element": "C" 
			},
			{
				"x": 1.3937337197,
				"y": -2.2181780464,
				"z": -0.1053367151,
				"element": "C" 
			},
			{
				"x": 1.4908359594,
				"y": -2.3981952202,
				"z": 1.2728305823,
				"element": "C" 
			},
			{
				"x": 1.0660177241,
				"y": -0.708193313,
				"z": -2.3848822442,
				"element": "S" 
			},
			{
				"x": 1.7928081848,
				"y": -1.8152816364,
				"z": -3.0170953919,
				"element": "O" 
			},
			{
				"x": 1.383751815,
				"y": 0.6946102826,
				"z": -2.672667208,
				"element": "O" 
			},
			{
				"x": -0.5703118173,
				"y": -1.0026854809,
				"z": -2.7439009781,
				"element": "N" 
			},
			{
				"x": -1.4431355614,
				"y": 0.1598426258,
				"z": -3.0195032214,
				"element": "C" 
			},
			{
				"x": -1.9215684693,
				"y": 0.8547520447,
				"z": -1.7622385821,
				"element": "C" 
			},
			{
				"x": -1.6840328804,
				"y": 2.2207773614,
				"z": -1.5735225018,
				"element": "C" 
			},
			{
				"x": -2.1475390343,
				"y": 2.8814979272,
				"z": -0.4337447308,
				"element": "C" 
			},
			{
				"x": -2.8489994835,
				"y": 2.1517909567,
				"z": 0.5175695833,
				"element": "C" 
			},
			{
				"x": -3.3005122323,
				"y": 2.7781096598,
				"z": 1.6231486645,
				"element": "F" 
			},
			{
				"x": -3.0975592655,
				"y": 0.7903255874,
				"z": 0.3658193359,
				"element": "C" 
			},
			{
				"x": -2.6304872614,
				"y": 0.1497198646,
				"z": -0.7791269448,
				"element": "C" 
			},
			{
				"x": 1.7496666502,
				"y": -2.725965395,
				"z": 5.3204998715,
				"element": "H" 
			},
			{
				"x": 2.6543229815,
				"y": -3.2429060236,
				"z": 3.8728620274,
				"element": "H" 
			},
			{
				"x": 0.9118223754,
				"y": -3.514035004,
				"z": 3.9571602143,
				"element": "H" 
			},
			{
				"x": 1.0785521389,
				"y": 0.8102560657,
				"z": 2.3049196453,
				"element": "H" 
			},
			{
				"x": 0.9103003753,
				"y": 1.1599112331,
				"z": -0.1762025224,
				"element": "H" 
			},
			{
				"x": 1.5046487952,
				"y": -3.0527726389,
				"z": -0.7884271422,
				"element": "H" 
			},
			{
				"x": 1.66639824,
				"y": -3.3954580864,
				"z": 1.6619422972,
				"element": "H" 
			},
			{
				"x": -0.5679713246,
				"y": -1.6902768572,
				"z": -3.4937735115,
				"element": "H" 
			},
			{
				"x": -0.9509768624,
				"y": 0.8836595584,
				"z": -3.6781260895,
				"element": "H" 
			},
			{
				"x": -2.2994370472,
				"y": -0.2541286037,
				"z": -3.5641503544,
				"element": "H" 
			},
			{
				"x": -1.1223887685,
				"y": 2.7741649808,
				"z": -2.3206874826,
				"element": "H" 
			},
			{
				"x": -1.9693967613,
				"y": 3.9395698559,
				"z": -0.2755611119,
				"element": "H" 
			},
			{
				"x": -3.6466486541,
				"y": 0.2580954104,
				"z": 1.1350167538,
				"element": "H" 
			},
			{
				"x": -2.806847713,
				"y": -0.9142697533,
				"z": -0.9081844838,
				"element": "H" 
			}
		],
		 "valence_orbital": [ 
			{
				"type": "occ",
				"energy": -0.27694,
				"method": "rhf"
			},
			{
				"type": "occ",
				"energy": -0.26892,
				"method": "rhf"
			},
			{
				"type": "occ",
				"energy": -0.26617,
				"method": "rhf"
			},
			{
				"type": "occ",
				"energy": -0.25945,
				"method": "rhf"
			},
			{
				"type": "occ",
				"energy": -0.2473,
				"method": "rhf"
			},
			{
				"type": "unocc",
				"energy": -0.07631,
				"method": "rhf"
			},
			{
				"type": "unocc",
				"energy": -0.0263,
				"method": "rhf"
			},
			{
				"type": "unocc",
				"energy": -0.019,
				"method": "rhf"
			},
			{
				"type": "unocc",
				"energy": -0.01155,
				"method": "rhf"
			},
			{
				"type": "unocc",
				"energy": 0.01087,
				"method": "rhf"
			}
		],
		"cosmo_sigma_profile": { 
			"-0.025": 0.0,
			"-0.024": 0.0,
			"-0.023": 0.0,
			"-0.022": 0.0,
			"-0.021": 0.0,
			"-0.02": 0.0,
			"-0.019": 0.0,
			"-0.018": 0.0,
			"-0.017": 0.0,
			"-0.016": 0.0,
			"-0.015": 0.398125983791,
			"-0.014": 1.20165739391,
			"-0.013": 1.12806290852,
			"-0.012": 0.924106474081,
			"-0.011": 1.42601999706,
			"-0.01": 1.06820749095,
			"-0.009": 1.17100476001,
			"-0.008": 3.01320905992,
			"-0.007": 15.4272297855,
			"-0.006": 24.7772691507,
			"-0.005": 22.204407193,
			"-0.004": 21.8310471925,
			"-0.003": 20.9118504142,
			"-0.002": 20.9880175551,
			"-0.001": 21.2433837482,
			"0.0": 19.6311284437,
			"0.001": 33.0867707891,
			"0.002": 25.3246045715,
			"0.003": 19.4495040921,
			"0.004": 19.7193688694,
			"0.005": 9.65071958338,
			"0.006": 5.35343122821,
			"0.007": 5.75809682207,
			"0.008": 4.5692157567,
			"0.009": 4.85772339898,
			"0.01": 9.97439720419,
			"0.011": 10.8247010907,
			"0.012": 3.92930276755,
			"0.013": 0.590420721968,
			"0.014": 0.0,
			"0.015": 0.0,
			"0.016": 0.0,
			"0.017": 0.0,
			"0.018": 0.0,
			"0.019": 0.0,
			"0.02": 0.0,
			"0.021": 0.0,
			"0.022": 0.0,
			"0.023": 0.0,
			"0.024": 0.0,
			"0.025": 0.0
		}
	}
}
