{
	 "smiles": "NNS(=O)(=O)CC1=CC(=CC=C1)C#N", 
	 "Tm": 413.15, 
	 "num_atms": 23, 
	 "gaussian": { 
		 "optdone": 1, 
		 "sigma_profile": "yes", 
		 "theory": "DFT", 
		 "functional": "B3LYP", 
		 "basiset": "6-31G**", 
		 "properties": { 
			 "R2extent": 3888.1463, 
			 "electric_dipole_moment_norm": 2.37246982278, 
			 "electric_quadrupole_moment_norm": 27.7181785597, 
			 "total_energy": -1023.05047584, 
			 "HOMO_LUMO_gap": 0.20762, 
			 "cosmo_polarized_energy": -21.74, 
			 "cosmo_cavitation_energy": 30.17, 
			 "cosmo_dispersion_energy": -21.14, 
			 "cosmo_repulsion_energy": 1.64, 
			 "cosmo_total_nonelectrostatic_energy": 10.67, 
			 "SMD_solvation_energy": 6.2 
		},
		"coords": [
			{
				"x": 4.0813949993,
				"y": 0.3210048017,
				"z": -1.5226936361,
				"element": "N" 
			},
			{
				"x": 3.0129195376,
				"y": -0.2570346731,
				"z": -0.8034898146,
				"element": "N" 
			},
			{
				"x": 1.7514581363,
				"y": -0.991319873,
				"z": -1.7144751301,
				"element": "S" 
			},
			{
				"x": 1.3099554194,
				"y": -2.1509869893,
				"z": -0.9327296954,
				"element": "O" 
			},
			{
				"x": 2.187987385,
				"y": -1.1150989349,
				"z": -3.1124196222,
				"element": "O" 
			},
			{
				"x": 0.429720962,
				"y": 0.274278475,
				"z": -1.6958341774,
				"element": "C" 
			},
			{
				"x": -0.1421685093,
				"y": 0.5432557952,
				"z": -0.3328281542,
				"element": "C" 
			},
			{
				"x": 0.2485617176,
				"y": 1.6755168246,
				"z": 0.3848992006,
				"element": "C" 
			},
			{
				"x": -0.2866368779,
				"y": 1.9272158212,
				"z": 1.6578816259,
				"element": "C" 
			},
			{
				"x": -1.2136634286,
				"y": 1.0352292465,
				"z": 2.2209593503,
				"element": "C" 
			},
			{
				"x": -1.5947045825,
				"y": -0.0977751182,
				"z": 1.506378783,
				"element": "C" 
			},
			{
				"x": -1.064950561,
				"y": -0.344202396,
				"z": 0.2401607227,
				"element": "C" 
			},
			{
				"x": 0.1145930797,
				"y": 3.1004872654,
				"z": 2.3794024559,
				"element": "C" 
			},
			{
				"x": 0.4393979376,
				"y": 4.0533265445,
				"z": 2.9620872773,
				"element": "N" 
			},
			{
				"x": 4.2355096099,
				"y": -0.175993464,
				"z": -2.4007625495,
				"element": "H" 
			},
			{
				"x": 3.8423709032,
				"y": 1.2851966698,
				"z": -1.7348552878,
				"element": "H" 
			},
			{
				"x": 3.3472426201,
				"y": -0.9649105718,
				"z": -0.1515783355,
				"element": "H" 
			},
			{
				"x": -0.312695085,
				"y": -0.1296405202,
				"z": -2.3903757148,
				"element": "H" 
			},
			{
				"x": 0.8721430916,
				"y": 1.1637679765,
				"z": -2.1510880361,
				"element": "H" 
			},
			{
				"x": 0.9674263998,
				"y": 2.3708850262,
				"z": -0.0358427423,
				"element": "H" 
			},
			{
				"x": -1.6238715572,
				"y": 1.2369179759,
				"z": 3.2045768446,
				"element": "H" 
			},
			{
				"x": -2.30835001,
				"y": -0.7923954486,
				"z": 1.9377053379,
				"element": "H" 
			},
			{
				"x": -1.3573411875,
				"y": -1.2358244335,
				"z": -0.3051787024,
				"element": "H" 
			}
		],
		 "valence_orbital": [ 
			{
				"type": "occ",
				"energy": -0.32121,
				"method": "rhf"
			},
			{
				"type": "occ",
				"energy": -0.29749,
				"method": "rhf"
			},
			{
				"type": "occ",
				"energy": -0.2879,
				"method": "rhf"
			},
			{
				"type": "occ",
				"energy": -0.27654,
				"method": "rhf"
			},
			{
				"type": "occ",
				"energy": -0.26967,
				"method": "rhf"
			},
			{
				"type": "unocc",
				"energy": -0.06205,
				"method": "rhf"
			},
			{
				"type": "unocc",
				"energy": -0.0418,
				"method": "rhf"
			},
			{
				"type": "unocc",
				"energy": 0.02962,
				"method": "rhf"
			},
			{
				"type": "unocc",
				"energy": 0.04341,
				"method": "rhf"
			},
			{
				"type": "unocc",
				"energy": 0.04439,
				"method": "rhf"
			}
		],
		"cosmo_sigma_profile": { 
			"-0.025": 0.0,
			"-0.024": 0.0,
			"-0.023": 0.0,
			"-0.022": 0.0,
			"-0.021": 0.0,
			"-0.02": 0.0,
			"-0.019": 0.0,
			"-0.018": 0.0,
			"-0.017": 0.0,
			"-0.016": 0.0,
			"-0.015": 0.0420761843655,
			"-0.014": 0.944063561446,
			"-0.013": 1.06311255874,
			"-0.012": 2.30556934499,
			"-0.011": 3.97736085544,
			"-0.01": 7.56966706083,
			"-0.009": 9.06982311095,
			"-0.008": 10.9381524047,
			"-0.007": 14.5976174149,
			"-0.006": 13.6766412063,
			"-0.005": 12.4629610399,
			"-0.004": 9.95364383873,
			"-0.003": 9.34270908398,
			"-0.002": 11.2130325623,
			"-0.001": 12.0078048641,
			"0.0": 10.8293481843,
			"0.001": 15.977637071,
			"0.002": 13.8083323526,
			"0.003": 8.01986410738,
			"0.004": 5.51890960613,
			"0.005": 6.47626552999,
			"0.006": 7.11712059541,
			"0.007": 7.80933422345,
			"0.008": 7.90654213556,
			"0.009": 7.87793553868,
			"0.01": 11.4983564409,
			"0.011": 11.3247704613,
			"0.012": 4.66150539718,
			"0.013": 1.97319214091,
			"0.014": 0.588602774463,
			"0.015": 0.608104842692,
			"0.016": 0.00480206830188,
			"0.017": 0.0,
			"0.018": 0.0,
			"0.019": 0.0,
			"0.02": 0.0,
			"0.021": 0.0,
			"0.022": 0.0,
			"0.023": 0.0,
			"0.024": 0.0,
			"0.025": 0.0
		}
	}
}
