{
	 "smiles": "C[C@H]1CC11[C@@H](OC(C)=O)C(=O)C2=C([C@H](O)[C@@H](OC(C)=O)[C@H]3C(C)(C)[C@@H](CC[C@]23C)OC(C)=O)C1=O", 
	 "Tm": 389.15, 
	 "num_atms": 69, 
	 "gaussian": { 
		 "optdone": 1, 
		 "sigma_profile": "yes", 
		 "theory": "DFT", 
		 "functional": "B3LYP", 
		 "basiset": "6-31G**", 
		 "properties": { 
			 "R2extent": 17354.5309, 
			 "electric_dipole_moment_norm": 2.82915363492, 
			 "electric_quadrupole_moment_norm": 28.4308773885, 
			 "total_energy": -1688.27798149, 
			 "HOMO_LUMO_gap": 0.15536, 
			 "cosmo_polarized_energy": -23.7, 
			 "cosmo_cavitation_energy": 65.25, 
			 "cosmo_dispersion_energy": -40.72, 
			 "cosmo_repulsion_energy": 3.03, 
			 "cosmo_total_nonelectrostatic_energy": 27.56, 
			 "SMD_solvation_energy": 14.39 
		},
		"coords": [
			{
				"x": -2.6864218292,
				"y": -3.9364056394,
				"z": 2.7239167095,
				"element": "C" 
			},
			{
				"x": -2.5663758584,
				"y": -2.5281922374,
				"z": 3.2660147572,
				"element": "C" 
			},
			{
				"x": -1.7965796884,
				"y": -2.1759938383,
				"z": 4.4998524053,
				"element": "C" 
			},
			{
				"x": -1.2924510546,
				"y": -1.6545400389,
				"z": 3.1704519483,
				"element": "C" 
			},
			{
				"x": 0.0394922107,
				"y": -2.096000318,
				"z": 2.5841666824,
				"element": "C" 
			},
			{
				"x": 0.2861052461,
				"y": -3.4790787716,
				"z": 2.8030568231,
				"element": "O" 
			},
			{
				"x": 1.6014382248,
				"y": -3.8581849701,
				"z": 2.8011508197,
				"element": "C" 
			},
			{
				"x": 1.7175489319,
				"y": -5.3579529965,
				"z": 2.8687925338,
				"element": "C" 
			},
			{
				"x": 2.5181199594,
				"y": -3.0730271119,
				"z": 2.7522642993,
				"element": "O" 
			},
			{
				"x": 0.0986300952,
				"y": -1.7685816199,
				"z": 1.0867762921,
				"element": "C" 
			},
			{
				"x": 0.4612916326,
				"y": -2.6017494526,
				"z": 0.277660938,
				"element": "O" 
			},
			{
				"x": -0.2257716453,
				"y": -0.3401684753,
				"z": 0.7436249724,
				"element": "C" 
			},
			{
				"x": -0.9089171147,
				"y": 0.3944837657,
				"z": 1.6617630215,
				"element": "C" 
			},
			{
				"x": -1.1697901007,
				"y": 1.8844634994,
				"z": 1.5273651863,
				"element": "C" 
			},
			{
				"x": -2.5322670396,
				"y": 2.1430378449,
				"z": 1.2131808304,
				"element": "O" 
			},
			{
				"x": -0.3177675553,
				"y": 2.5161605574,
				"z": 0.4265954906,
				"element": "C" 
			},
			{
				"x": 1.0339314413,
				"y": 2.6595531892,
				"z": 0.9343058211,
				"element": "O" 
			},
			{
				"x": 1.4025977723,
				"y": 3.8812619527,
				"z": 1.4042121403,
				"element": "C" 
			},
			{
				"x": 2.829557826,
				"y": 3.8510052708,
				"z": 1.8960097996,
				"element": "C" 
			},
			{
				"x": 0.6807717708,
				"y": 4.8530522831,
				"z": 1.4057752551,
				"element": "O" 
			},
			{
				"x": -0.3573581841,
				"y": 1.6351090748,
				"z": -0.8229594466,
				"element": "C" 
			},
			{
				"x": 0.0256631515,
				"y": 2.3676661916,
				"z": -2.1636013748,
				"element": "C" 
			},
			{
				"x": 1.2748989318,
				"y": 3.2683948626,
				"z": -2.0671669253,
				"element": "C" 
			},
			{
				"x": -1.1743423243,
				"y": 3.2610099192,
				"z": -2.5599722525,
				"element": "C" 
			},
			{
				"x": 0.2638940957,
				"y": 1.2813761552,
				"z": -3.2504538438,
				"element": "C" 
			},
			{
				"x": -0.636692394,
				"y": 0.0655731399,
				"z": -3.0608164142,
				"element": "C" 
			},
			{
				"x": -0.2945942648,
				"y": -0.7022998768,
				"z": -1.7628413406,
				"element": "C" 
			},
			{
				"x": 0.2590788065,
				"y": 0.2128440547,
				"z": -0.6033164261,
				"element": "C" 
			},
			{
				"x": 1.8130940295,
				"y": 0.1576538235,
				"z": -0.5888132126,
				"element": "C" 
			},
			{
				"x": 0.0294246131,
				"y": 1.8850522972,
				"z": -4.5514077102,
				"element": "O" 
			},
			{
				"x": 0.7216298889,
				"y": 1.3817051746,
				"z": -5.6010704341,
				"element": "C" 
			},
			{
				"x": 0.3637825786,
				"y": 2.1140566221,
				"z": -6.8735458695,
				"element": "C" 
			},
			{
				"x": 1.5150544816,
				"y": 0.4688259198,
				"z": -5.5192753557,
				"element": "O" 
			},
			{
				"x": -1.5898543732,
				"y": -0.2323556066,
				"z": 2.8350435557,
				"element": "C" 
			},
			{
				"x": -2.4448448967,
				"y": 0.4104735274,
				"z": 3.4472327962,
				"element": "O" 
			},
			{
				"x": -3.5702869424,
				"y": -4.4144409997,
				"z": 3.1613940521,
				"element": "H" 
			},
			{
				"x": -1.8134361614,
				"y": -4.5446412093,
				"z": 2.9569401531,
				"element": "H" 
			},
			{
				"x": -2.8171134912,
				"y": -3.9333720658,
				"z": 1.6364547793,
				"element": "H" 
			},
			{
				"x": -3.4593973986,
				"y": -1.9231694097,
				"z": 3.12096481,
				"element": "H" 
			},
			{
				"x": -2.212284356,
				"y": -1.4410423272,
				"z": 5.181743278,
				"element": "H" 
			},
			{
				"x": -1.1942949928,
				"y": -2.9593216265,
				"z": 4.9504849626,
				"element": "H" 
			},
			{
				"x": 0.8468588445,
				"y": -1.522254075,
				"z": 3.0574586027,
				"element": "H" 
			},
			{
				"x": 1.3787597648,
				"y": -5.7829594601,
				"z": 1.9187222789,
				"element": "H" 
			},
			{
				"x": 1.0794916851,
				"y": -5.7617697824,
				"z": 3.6592210295,
				"element": "H" 
			},
			{
				"x": 2.7572796179,
				"y": -5.6336962987,
				"z": 3.0413457962,
				"element": "H" 
			},
			{
				"x": -0.9032256737,
				"y": 2.3577868243,
				"z": 2.4833799351,
				"element": "H" 
			},
			{
				"x": -3.0322756184,
				"y": 1.814727173,
				"z": 1.9772630727,
				"element": "H" 
			},
			{
				"x": -0.7191999636,
				"y": 3.5112360017,
				"z": 0.2337140552,
				"element": "H" 
			},
			{
				"x": 3.0730058135,
				"y": 4.8062811534,
				"z": 2.3598397832,
				"element": "H" 
			},
			{
				"x": 3.5054691421,
				"y": 3.6685280872,
				"z": 1.0545926153,
				"element": "H" 
			},
			{
				"x": 2.9705894732,
				"y": 3.0358710678,
				"z": 2.6109324352,
				"element": "H" 
			},
			{
				"x": -1.4345199393,
				"y": 1.4403551635,
				"z": -0.9146343318,
				"element": "H" 
			},
			{
				"x": 1.0964390932,
				"y": 4.1323615051,
				"z": -1.4203408051,
				"element": "H" 
			},
			{
				"x": 2.1498750879,
				"y": 2.7341551619,
				"z": -1.6900867446,
				"element": "H" 
			},
			{
				"x": 1.5178008174,
				"y": 3.6535126827,
				"z": -3.0632074322,
				"element": "H" 
			},
			{
				"x": -2.0676569601,
				"y": 2.6690300568,
				"z": -2.7832572614,
				"element": "H" 
			},
			{
				"x": -0.9401159401,
				"y": 3.8575797383,
				"z": -3.4434183903,
				"element": "H" 
			},
			{
				"x": -1.4283349514,
				"y": 3.9478152348,
				"z": -1.7474705913,
				"element": "H" 
			},
			{
				"x": 1.3058707676,
				"y": 0.9557160786,
				"z": -3.2467147375,
				"element": "H" 
			},
			{
				"x": -0.518141396,
				"y": -0.6063216459,
				"z": -3.9155734829,
				"element": "H" 
			},
			{
				"x": -1.6823713646,
				"y": 0.3939842041,
				"z": -3.0574054633,
				"element": "H" 
			},
			{
				"x": 0.441024876,
				"y": -1.4801464294,
				"z": -1.9702900231,
				"element": "H" 
			},
			{
				"x": -1.1955902035,
				"y": -1.2239596968,
				"z": -1.4258146875,
				"element": "H" 
			},
			{
				"x": 2.2252794308,
				"y": 0.7875862565,
				"z": 0.1991507335,
				"element": "H" 
			},
			{
				"x": 2.1426594157,
				"y": -0.8713118525,
				"z": -0.428745736,
				"element": "H" 
			},
			{
				"x": 2.2343554442,
				"y": 0.4837404996,
				"z": -1.5405952392,
				"element": "H" 
			},
			{
				"x": 0.5669307093,
				"y": 3.1832683463,
				"z": -6.7633969997,
				"element": "H" 
			},
			{
				"x": 0.9436124235,
				"y": 1.7072374971,
				"z": -7.7013797371,
				"element": "H" 
			},
			{
				"x": -0.7054344186,
				"y": 2.0058059734,
				"z": -7.0788431817,
				"element": "H" 
			}
		],
		 "valence_orbital": [ 
			{
				"type": "occ",
				"energy": -0.27973,
				"method": "rhf"
			},
			{
				"type": "occ",
				"energy": -0.27526,
				"method": "rhf"
			},
			{
				"type": "occ",
				"energy": -0.26772,
				"method": "rhf"
			},
			{
				"type": "occ",
				"energy": -0.26666,
				"method": "rhf"
			},
			{
				"type": "occ",
				"energy": -0.25369,
				"method": "rhf"
			},
			{
				"type": "unocc",
				"energy": -0.09833,
				"method": "rhf"
			},
			{
				"type": "unocc",
				"energy": -0.0257,
				"method": "rhf"
			},
			{
				"type": "unocc",
				"energy": 2e-05,
				"method": "rhf"
			},
			{
				"type": "unocc",
				"energy": 0.00626,
				"method": "rhf"
			},
			{
				"type": "unocc",
				"energy": 0.01395,
				"method": "rhf"
			}
		],
		"cosmo_sigma_profile": { 
			"-0.025": 0.0,
			"-0.024": 0.0,
			"-0.023": 0.0,
			"-0.022": 0.0,
			"-0.021": 0.0,
			"-0.02": 0.0,
			"-0.019": 0.0,
			"-0.018": 0.0,
			"-0.017": 0.0,
			"-0.016": 0.0,
			"-0.015": 0.0,
			"-0.014": 0.0,
			"-0.013": 0.0,
			"-0.012": 0.0,
			"-0.011": 0.204733753546,
			"-0.01": 0.462299949004,
			"-0.009": 1.7839780268,
			"-0.008": 2.22928335701,
			"-0.007": 6.23495268461,
			"-0.006": 20.9085767315,
			"-0.005": 33.0955390982,
			"-0.004": 47.5957374247,
			"-0.003": 56.5736359736,
			"-0.002": 69.4600656249,
			"-0.001": 57.2265167467,
			"0.0": 46.6607935108,
			"0.001": 35.9592154922,
			"0.002": 19.1182831582,
			"0.003": 13.3154470757,
			"0.004": 10.93142506,
			"0.005": 10.7088657597,
			"0.006": 11.3523093408,
			"0.007": 9.54546946852,
			"0.008": 7.9636884561,
			"0.009": 8.84037424491,
			"0.01": 11.747992567,
			"0.011": 12.6623358787,
			"0.012": 11.5900011953,
			"0.013": 3.10829876415,
			"0.014": 0.466537661172,
			"0.015": 0.109606308229,
			"0.016": 0.0,
			"0.017": 0.0,
			"0.018": 0.0,
			"0.019": 0.0,
			"0.02": 0.0,
			"0.021": 0.0,
			"0.022": 0.0,
			"0.023": 0.0,
			"0.024": 0.0,
			"0.025": 0.0
		}
	}
}
