{
	 "smiles": "CC1=C(SCC(O)=O)C=CC=C1", 
	 "Tm": 382.15, 
	 "num_atms": 22, 
	 "gaussian": { 
		 "optdone": 1, 
		 "sigma_profile": "yes", 
		 "theory": "DFT", 
		 "functional": "B3LYP", 
		 "basiset": "6-31G**", 
		 "properties": { 
			 "R2extent": 3478.9357, 
			 "electric_dipole_moment_norm": 3.65374672768, 
			 "electric_quadrupole_moment_norm": 18.3941097895, 
			 "total_energy": -897.631076754, 
			 "HOMO_LUMO_gap": 0.20935, 
			 "cosmo_polarized_energy": -12.12, 
			 "cosmo_cavitation_energy": 27.13, 
			 "cosmo_dispersion_energy": -19.76, 
			 "cosmo_repulsion_energy": 1.53, 
			 "cosmo_total_nonelectrostatic_energy": 8.91, 
			 "SMD_solvation_energy": 5.54 
		},
		"coords": [
			{
				"x": 0.5240226316,
				"y": -1.6277005005,
				"z": 2.1260941867,
				"element": "C" 
			},
			{
				"x": 1.0636301144,
				"y": -0.9338792045,
				"z": 0.8974552408,
				"element": "C" 
			},
			{
				"x": 1.1360280691,
				"y": -1.5545104944,
				"z": -0.3669182973,
				"element": "C" 
			},
			{
				"x": 0.6420638285,
				"y": -3.2737202164,
				"z": -0.6146699222,
				"element": "S" 
			},
			{
				"x": -0.9184663467,
				"y": -3.0834504198,
				"z": -1.5728974983,
				"element": "C" 
			},
			{
				"x": -2.1901629979,
				"y": -2.8034652246,
				"z": -0.7626249159,
				"element": "C" 
			},
			{
				"x": -2.1801035413,
				"y": -3.2094390263,
				"z": 0.5234051122,
				"element": "O" 
			},
			{
				"x": -3.1613668798,
				"y": -2.2967529962,
				"z": -1.2655766452,
				"element": "O" 
			},
			{
				"x": 1.6545460975,
				"y": -0.865280293,
				"z": -1.4718399835,
				"element": "C" 
			},
			{
				"x": 2.0777952076,
				"y": 0.4563815521,
				"z": -1.3512672198,
				"element": "C" 
			},
			{
				"x": 2.0050101075,
				"y": 1.086350182,
				"z": -0.1091336839,
				"element": "C" 
			},
			{
				"x": 1.5109298907,
				"y": 0.3924400034,
				"z": 0.9939346574,
				"element": "C" 
			},
			{
				"x": 1.0311609042,
				"y": -2.579026057,
				"z": 2.3141735212,
				"element": "H" 
			},
			{
				"x": -0.5455420739,
				"y": -1.8397700919,
				"z": 2.0241124538,
				"element": "H" 
			},
			{
				"x": 0.6527229568,
				"y": -0.9970712352,
				"z": 3.0092632185,
				"element": "H" 
			},
			{
				"x": -1.0596336735,
				"y": -4.0369298906,
				"z": -2.094169479,
				"element": "H" 
			},
			{
				"x": -0.8124169117,
				"y": -2.3052218182,
				"z": -2.3292131588,
				"element": "H" 
			},
			{
				"x": -1.2852182411,
				"y": -3.5412244092,
				"z": 0.730812235,
				"element": "H" 
			},
			{
				"x": 1.7298618689,
				"y": -1.3759342495,
				"z": -2.4272079457,
				"element": "H" 
			},
			{
				"x": 2.4714973046,
				"y": 0.981657791,
				"z": -2.2161221316,
				"element": "H" 
			},
			{
				"x": 2.3382732396,
				"y": 2.113772618,
				"z": 0.0043940096,
				"element": "H" 
			},
			{
				"x": 1.4623684446,
				"y": 0.8882739806,
				"z": 1.9596962462,
				"element": "H" 
			}
		],
		 "valence_orbital": [ 
			{
				"type": "occ",
				"energy": -0.31469,
				"method": "rhf"
			},
			{
				"type": "occ",
				"energy": -0.28473,
				"method": "rhf"
			},
			{
				"type": "occ",
				"energy": -0.27156,
				"method": "rhf"
			},
			{
				"type": "occ",
				"energy": -0.25847,
				"method": "rhf"
			},
			{
				"type": "occ",
				"energy": -0.24313,
				"method": "rhf"
			},
			{
				"type": "unocc",
				"energy": -0.03378,
				"method": "rhf"
			},
			{
				"type": "unocc",
				"energy": -0.01506,
				"method": "rhf"
			},
			{
				"type": "unocc",
				"energy": 0.00426,
				"method": "rhf"
			},
			{
				"type": "unocc",
				"energy": 0.03097,
				"method": "rhf"
			},
			{
				"type": "unocc",
				"energy": 0.05581,
				"method": "rhf"
			}
		],
		"cosmo_sigma_profile": { 
			"-0.025": 0.0,
			"-0.024": 0.0,
			"-0.023": 0.0,
			"-0.022": 0.0,
			"-0.021": 0.0,
			"-0.02": 0.0,
			"-0.019": 0.0,
			"-0.018": 0.0,
			"-0.017": 0.0,
			"-0.016": 0.0,
			"-0.015": 0.0,
			"-0.014": 0.0,
			"-0.013": 0.209381417543,
			"-0.012": 0.434026746633,
			"-0.011": 0.950398251027,
			"-0.01": 2.92381822939,
			"-0.009": 4.33110269929,
			"-0.008": 3.27446015654,
			"-0.007": 4.52595269404,
			"-0.006": 12.2852885008,
			"-0.005": 16.289950712,
			"-0.004": 17.0863699048,
			"-0.003": 17.4413952094,
			"-0.002": 16.7219402502,
			"-0.001": 15.4191023009,
			"0.0": 15.71677537,
			"0.001": 11.5811865714,
			"0.002": 12.2318482075,
			"0.003": 11.4294181208,
			"0.004": 13.2483701861,
			"0.005": 11.6051358126,
			"0.006": 3.53752593514,
			"0.007": 3.32536884469,
			"0.008": 3.07135315489,
			"0.009": 4.31223539611,
			"0.01": 4.44559951842,
			"0.011": 5.0584340482,
			"0.012": 5.15450417485,
			"0.013": 1.14437142965,
			"0.014": 0.0,
			"0.015": 0.0,
			"0.016": 0.0,
			"0.017": 0.0,
			"0.018": 0.0,
			"0.019": 0.0,
			"0.02": 0.0,
			"0.021": 0.0,
			"0.022": 0.0,
			"0.023": 0.0,
			"0.024": 0.0,
			"0.025": 0.0
		}
	}
}
