{
	 "smiles": "COC1=CC=C(OCCBr)C=C1", 
	 "Tm": 321.15, 
	 "num_atms": 23, 
	 "gaussian": { 
		 "optdone": 1, 
		 "sigma_profile": "yes", 
		 "theory": "DFT", 
		 "functional": "B3LYP", 
		 "basiset": "6-31G**", 
		 "properties": { 
			 "R2extent": 5897.7222, 
			 "electric_dipole_moment_norm": 2.34670698213, 
			 "electric_quadrupole_moment_norm": 4.48974579681, 
			 "total_energy": -3071.4167498, 
			 "HOMO_LUMO_gap": 0.19319, 
			 "cosmo_polarized_energy": -8.42, 
			 "cosmo_cavitation_energy": 28.79, 
			 "cosmo_dispersion_energy": -21.64, 
			 "cosmo_repulsion_energy": 1.74, 
			 "cosmo_total_nonelectrostatic_energy": 8.9, 
			 "SMD_solvation_energy": 4.6 
		},
		"coords": [
			{
				"x": 1.7144964646,
				"y": -3.7388052402,
				"z": 1.7568854965,
				"element": "C" 
			},
			{
				"x": 1.5289330199,
				"y": -3.0747682454,
				"z": 0.5193320086,
				"element": "O" 
			},
			{
				"x": 0.8690828933,
				"y": -1.8754426948,
				"z": 0.525788549,
				"element": "C" 
			},
			{
				"x": 0.3591985172,
				"y": -1.2478148493,
				"z": 1.6696995622,
				"element": "C" 
			},
			{
				"x": -0.2985689299,
				"y": -0.0234955568,
				"z": 1.5568385943,
				"element": "C" 
			},
			{
				"x": -0.4584993154,
				"y": 0.5931957838,
				"z": 0.3136242477,
				"element": "C" 
			},
			{
				"x": -1.1121592684,
				"y": 1.8062108396,
				"z": 0.3341575301,
				"element": "O" 
			},
			{
				"x": -1.3258275307,
				"y": 2.5107770167,
				"z": -0.881498205,
				"element": "C" 
			},
			{
				"x": -2.5595752568,
				"y": 1.9714391213,
				"z": -1.5993026467,
				"element": "C" 
			},
			{
				"x": -2.8613696197,
				"y": 2.985073326,
				"z": -3.2672331237,
				"element": "Br" 
			},
			{
				"x": 0.0482178795,
				"y": -0.0354093429,
				"z": -0.8316079714,
				"element": "C" 
			},
			{
				"x": 0.7065964044,
				"y": -1.2583540839,
				"z": -0.7190453032,
				"element": "C" 
			},
			{
				"x": 2.3116829,
				"y": -3.1383931087,
				"z": 2.4562325972,
				"element": "H" 
			},
			{
				"x": 2.2526512913,
				"y": -4.6603564284,
				"z": 1.5286938549,
				"element": "H" 
			},
			{
				"x": 0.7568725728,
				"y": -3.9907313432,
				"z": 2.2320182986,
				"element": "H" 
			},
			{
				"x": 0.4675152135,
				"y": -1.6971925643,
				"z": 2.6497164524,
				"element": "H" 
			},
			{
				"x": -0.694394826,
				"y": 0.473544757,
				"z": 2.4364864455,
				"element": "H" 
			},
			{
				"x": -1.4891871482,
				"y": 3.55260076,
				"z": -0.5956317354,
				"element": "H" 
			},
			{
				"x": -0.4443293891,
				"y": 2.4750141667,
				"z": -1.5311869591,
				"element": "H" 
			},
			{
				"x": -2.4506101786,
				"y": 0.928131523,
				"z": -1.8910092068,
				"element": "H" 
			},
			{
				"x": -3.4565899868,
				"y": 2.094470215,
				"z": -0.9941810147,
				"element": "H" 
			},
			{
				"x": -0.0582978932,
				"y": 0.408692285,
				"z": -1.8147514056,
				"element": "H" 
			},
			{
				"x": 1.1025621862,
				"y": -1.7543863363,
				"z": -1.5991260654,
				"element": "H" 
			}
		],
		 "valence_orbital": [ 
			{
				"type": "occ",
				"energy": -0.29479,
				"method": "rhf"
			},
			{
				"type": "occ",
				"energy": -0.27858,
				"method": "rhf"
			},
			{
				"type": "occ",
				"energy": -0.27825,
				"method": "rhf"
			},
			{
				"type": "occ",
				"energy": -0.255,
				"method": "rhf"
			},
			{
				"type": "occ",
				"energy": -0.20235,
				"method": "rhf"
			},
			{
				"type": "unocc",
				"energy": -0.00916,
				"method": "rhf"
			},
			{
				"type": "unocc",
				"energy": -0.00196,
				"method": "rhf"
			},
			{
				"type": "unocc",
				"energy": 0.02261,
				"method": "rhf"
			},
			{
				"type": "unocc",
				"energy": 0.08221,
				"method": "rhf"
			},
			{
				"type": "unocc",
				"energy": 0.10019,
				"method": "rhf"
			}
		],
		"cosmo_sigma_profile": { 
			"-0.025": 0.0,
			"-0.024": 0.0,
			"-0.023": 0.0,
			"-0.022": 0.0,
			"-0.021": 0.0,
			"-0.02": 0.0,
			"-0.019": 0.0,
			"-0.018": 0.0,
			"-0.017": 0.0,
			"-0.016": 0.0,
			"-0.015": 0.0,
			"-0.014": 0.0,
			"-0.013": 0.0,
			"-0.012": 0.0,
			"-0.011": 0.0,
			"-0.01": 0.0,
			"-0.009": 0.000191223890641,
			"-0.008": 1.90887288516,
			"-0.007": 6.8686827245,
			"-0.006": 15.4380628961,
			"-0.005": 22.9268482279,
			"-0.004": 21.5968787894,
			"-0.003": 21.2912831133,
			"-0.002": 13.955307128,
			"-0.001": 12.2261748825,
			"0.0": 10.7652000243,
			"0.001": 11.2165308484,
			"0.002": 11.9553387512,
			"0.003": 13.1147459515,
			"0.004": 19.2012510921,
			"0.005": 22.4199925914,
			"0.006": 14.856300397,
			"0.007": 3.18086231786,
			"0.008": 1.90616461288,
			"0.009": 2.79755424285,
			"0.01": 3.08113464886,
			"0.011": 0.987451350831,
			"0.012": 0.0,
			"0.013": 0.0,
			"0.014": 0.0,
			"0.015": 0.0,
			"0.016": 0.0,
			"0.017": 0.0,
			"0.018": 0.0,
			"0.019": 0.0,
			"0.02": 0.0,
			"0.021": 0.0,
			"0.022": 0.0,
			"0.023": 0.0,
			"0.024": 0.0,
			"0.025": 0.0
		}
	}
}
