{
	 "smiles": "N#CCC1=CC=CC=C1OCC1=CC=CC=C1", 
	 "Tm": 350.15, 
	 "num_atms": 30, 
	 "gaussian": { 
		 "optdone": 1, 
		 "sigma_profile": "yes", 
		 "theory": "DFT", 
		 "functional": "B3LYP", 
		 "basiset": "6-31G**", 
		 "properties": { 
			 "R2extent": 4966.4143, 
			 "electric_dipole_moment_norm": 4.45549304342, 
			 "electric_quadrupole_moment_norm": 23.6020759731, 
			 "total_energy": -709.382224002, 
			 "HOMO_LUMO_gap": 0.21214, 
			 "cosmo_polarized_energy": -12.96, 
			 "cosmo_cavitation_energy": 34.98, 
			 "cosmo_dispersion_energy": -23.7, 
			 "cosmo_repulsion_energy": 1.86, 
			 "cosmo_total_nonelectrostatic_energy": 13.14, 
			 "SMD_solvation_energy": 7.36 
		},
		"coords": [
			{
				"x": 2.4311469561,
				"y": 4.234064773,
				"z": -1.1398847446,
				"element": "N" 
			},
			{
				"x": 1.6638401442,
				"y": 3.4907752225,
				"z": -1.5934110874,
				"element": "C" 
			},
			{
				"x": 0.6954971878,
				"y": 2.5534966101,
				"z": -2.1817700853,
				"element": "C" 
			},
			{
				"x": 1.2265455438,
				"y": 1.1340739088,
				"z": -2.2885682789,
				"element": "C" 
			},
			{
				"x": 1.5797245501,
				"y": 0.5826660871,
				"z": -3.5189566476,
				"element": "C" 
			},
			{
				"x": 2.071696011,
				"y": -0.7217662542,
				"z": -3.6109710572,
				"element": "C" 
			},
			{
				"x": 2.2072280644,
				"y": -1.4815870797,
				"z": -2.4517622904,
				"element": "C" 
			},
			{
				"x": 1.8555965929,
				"y": -0.9536066031,
				"z": -1.2065140238,
				"element": "C" 
			},
			{
				"x": 1.3699085436,
				"y": 0.3546315535,
				"z": -1.1237408048,
				"element": "C" 
			},
			{
				"x": 0.9993142119,
				"y": 0.9774623761,
				"z": 0.0372956707,
				"element": "O" 
			},
			{
				"x": 1.3422024836,
				"y": 0.3889618428,
				"z": 1.2935115575,
				"element": "C" 
			},
			{
				"x": 0.4052187035,
				"y": -0.7172987423,
				"z": 1.7382669156,
				"element": "C" 
			},
			{
				"x": 0.8835829186,
				"y": -1.7546406647,
				"z": 2.5473805421,
				"element": "C" 
			},
			{
				"x": 0.019260899,
				"y": -2.7458017974,
				"z": 3.0158321799,
				"element": "C" 
			},
			{
				"x": -1.3328467902,
				"y": -2.7134786864,
				"z": 2.6712780727,
				"element": "C" 
			},
			{
				"x": -1.8151472351,
				"y": -1.6840709451,
				"z": 1.8597081185,
				"element": "C" 
			},
			{
				"x": -0.9525126218,
				"y": -0.6892934622,
				"z": 1.3992503129,
				"element": "C" 
			},
			{
				"x": 0.4246090303,
				"y": 2.9250157056,
				"z": -3.1756531603,
				"element": "H" 
			},
			{
				"x": -0.2090918352,
				"y": 2.5809113776,
				"z": -1.5639027273,
				"element": "H" 
			},
			{
				"x": 1.4726830746,
				"y": 1.1863968072,
				"z": -4.4166326233,
				"element": "H" 
			},
			{
				"x": 2.3430232565,
				"y": -1.1354445458,
				"z": -4.576885832,
				"element": "H" 
			},
			{
				"x": 2.5822958005,
				"y": -2.4994261127,
				"z": -2.5068444587,
				"element": "H" 
			},
			{
				"x": 1.939832324,
				"y": -1.566509918,
				"z": -0.317662389,
				"element": "H" 
			},
			{
				"x": 1.2956833111,
				"y": 1.2274757179,
				"z": 1.9965159926,
				"element": "H" 
			},
			{
				"x": 2.3803994985,
				"y": 0.0345338126,
				"z": 1.2725194527,
				"element": "H" 
			},
			{
				"x": 1.9379888207,
				"y": -1.7883489524,
				"z": 2.8132179567,
				"element": "H" 
			},
			{
				"x": 0.4039404538,
				"y": -3.5456146779,
				"z": 3.6421863578,
				"element": "H" 
			},
			{
				"x": -2.0059147299,
				"y": -3.48685559,
				"z": 3.0297653912,
				"element": "H" 
			},
			{
				"x": -2.865979956,
				"y": -1.6550205712,
				"z": 1.5857026531,
				"element": "H" 
			},
			{
				"x": -1.3252252121,
				"y": 0.1102988081,
				"z": 0.7666290367,
				"element": "H" 
			}
		],
		 "valence_orbital": [ 
			{
				"type": "occ",
				"energy": -0.31066,
				"method": "rhf"
			},
			{
				"type": "occ",
				"energy": -0.25889,
				"method": "rhf"
			},
			{
				"type": "occ",
				"energy": -0.25781,
				"method": "rhf"
			},
			{
				"type": "occ",
				"energy": -0.2513,
				"method": "rhf"
			},
			{
				"type": "occ",
				"energy": -0.22884,
				"method": "rhf"
			},
			{
				"type": "unocc",
				"energy": -0.0167,
				"method": "rhf"
			},
			{
				"type": "unocc",
				"energy": -0.01134,
				"method": "rhf"
			},
			{
				"type": "unocc",
				"energy": -0.00761,
				"method": "rhf"
			},
			{
				"type": "unocc",
				"energy": 0.00179,
				"method": "rhf"
			},
			{
				"type": "unocc",
				"energy": 0.04834,
				"method": "rhf"
			}
		],
		"cosmo_sigma_profile": { 
			"-0.025": 0.0,
			"-0.024": 0.0,
			"-0.023": 0.0,
			"-0.022": 0.0,
			"-0.021": 0.0,
			"-0.02": 0.0,
			"-0.019": 0.0,
			"-0.018": 0.0,
			"-0.017": 0.0,
			"-0.016": 0.0,
			"-0.015": 0.0,
			"-0.014": 0.0,
			"-0.013": 0.0,
			"-0.012": 0.0,
			"-0.011": 0.0,
			"-0.01": 0.0,
			"-0.009": 1.38448269584,
			"-0.008": 4.83132471349,
			"-0.007": 7.35773823608,
			"-0.006": 18.9363598915,
			"-0.005": 27.1127509209,
			"-0.004": 26.38477038,
			"-0.003": 21.6417598179,
			"-0.002": 16.6994168503,
			"-0.001": 15.1525933542,
			"0.0": 15.1007084823,
			"0.001": 16.2824781223,
			"0.002": 18.2077630399,
			"0.003": 18.9202169646,
			"0.004": 19.3122889335,
			"0.005": 19.6146094861,
			"0.006": 11.7521051785,
			"0.007": 2.82825110608,
			"0.008": 3.34308332355,
			"0.009": 3.81803558924,
			"0.01": 3.66984110053,
			"0.011": 2.85885140049,
			"0.012": 2.74065674013,
			"0.013": 1.93979557212,
			"0.014": 0.626708352494,
			"0.015": 0.0,
			"0.016": 0.0,
			"0.017": 0.0,
			"0.018": 0.0,
			"0.019": 0.0,
			"0.02": 0.0,
			"0.021": 0.0,
			"0.022": 0.0,
			"0.023": 0.0,
			"0.024": 0.0,
			"0.025": 0.0
		}
	}
}
