{
	 "smiles": "CC1=CC2=CC=CC=C2C=C1CCl", 
	 "Tm": 338.15, 
	 "num_atms": 24, 
	 "gaussian": { 
		 "optdone": 1, 
		 "sigma_profile": "yes", 
		 "theory": "DFT", 
		 "functional": "B3LYP", 
		 "basiset": "6-31G**", 
		 "properties": { 
			 "R2extent": 3851.4591, 
			 "electric_dipole_moment_norm": 2.31124958843, 
			 "electric_quadrupole_moment_norm": 15.3256648172, 
			 "total_energy": -924.124956157, 
			 "HOMO_LUMO_gap": 0.17203, 
			 "cosmo_polarized_energy": -7.18, 
			 "cosmo_cavitation_energy": 28.59, 
			 "cosmo_dispersion_energy": -21.03, 
			 "cosmo_repulsion_energy": 1.64, 
			 "cosmo_total_nonelectrostatic_energy": 9.19, 
			 "SMD_solvation_energy": 4.19 
		},
		"coords": [
			{
				"x": -2.030964964,
				"y": 2.9598296024,
				"z": -0.8181725839,
				"element": "C" 
			},
			{
				"x": -1.2185040405,
				"y": 1.6876625836,
				"z": -0.8525225888,
				"element": "C" 
			},
			{
				"x": 0.1591553185,
				"y": 1.7380719671,
				"z": -0.883667797,
				"element": "C" 
			},
			{
				"x": 0.965447545,
				"y": 0.5689750228,
				"z": -0.9111977988,
				"element": "C" 
			},
			{
				"x": 2.3844111531,
				"y": 0.6212511289,
				"z": -0.9423183107,
				"element": "C" 
			},
			{
				"x": 3.1306018263,
				"y": -0.5363805107,
				"z": -0.9671421678,
				"element": "C" 
			},
			{
				"x": 2.4924954499,
				"y": -1.8013222642,
				"z": -0.9617122725,
				"element": "C" 
			},
			{
				"x": 1.1183080464,
				"y": -1.8846310716,
				"z": -0.9310643655,
				"element": "C" 
			},
			{
				"x": 0.3220232412,
				"y": -0.7085264838,
				"z": -0.9053690533,
				"element": "C" 
			},
			{
				"x": -1.095024251,
				"y": -0.7468388152,
				"z": -0.8746417649,
				"element": "C" 
			},
			{
				"x": -1.858313179,
				"y": 0.4033368574,
				"z": -0.8481317033,
				"element": "C" 
			},
			{
				"x": -3.3509002262,
				"y": 0.2815491768,
				"z": -0.8034027452,
				"element": "C" 
			},
			{
				"x": -4.1399645299,
				"y": 0.5399842522,
				"z": -2.4517921439,
				"element": "Cl" 
			},
			{
				"x": -1.3809231885,
				"y": 3.8365418624,
				"z": -0.873296091,
				"element": "H" 
			},
			{
				"x": -2.6162446261,
				"y": 3.0422818566,
				"z": 0.1065024553,
				"element": "H" 
			},
			{
				"x": -2.7395605787,
				"y": 3.0071022548,
				"z": -1.6515343825,
				"element": "H" 
			},
			{
				"x": 0.6558872218,
				"y": 2.7057681785,
				"z": -0.8864026179,
				"element": "H" 
			},
			{
				"x": 2.8734554926,
				"y": 1.5920244115,
				"z": -0.9468813992,
				"element": "H" 
			},
			{
				"x": 4.215251536,
				"y": -0.4833841733,
				"z": -0.9913994336,
				"element": "H" 
			},
			{
				"x": 3.0931328691,
				"y": -2.7059579958,
				"z": -0.9822029848,
				"element": "H" 
			},
			{
				"x": 0.6242309127,
				"y": -2.8529215683,
				"z": -0.927816926,
				"element": "H" 
			},
			{
				"x": -1.5880301221,
				"y": -1.7166656337,
				"z": -0.8754648525,
				"element": "H" 
			},
			{
				"x": -3.6617209316,
				"y": -0.7159485972,
				"z": -0.4952424038,
				"element": "H" 
			},
			{
				"x": -3.819449975,
				"y": 1.0209979589,
				"z": -0.1543260683,
				"element": "H" 
			}
		],
		 "valence_orbital": [ 
			{
				"type": "occ",
				"energy": -0.29284,
				"method": "rhf"
			},
			{
				"type": "occ",
				"energy": -0.2908,
				"method": "rhf"
			},
			{
				"type": "occ",
				"energy": -0.28547,
				"method": "rhf"
			},
			{
				"type": "occ",
				"energy": -0.24096,
				"method": "rhf"
			},
			{
				"type": "occ",
				"energy": -0.21774,
				"method": "rhf"
			},
			{
				"type": "unocc",
				"energy": -0.04571,
				"method": "rhf"
			},
			{
				"type": "unocc",
				"energy": -0.02235,
				"method": "rhf"
			},
			{
				"type": "unocc",
				"energy": 0.02436,
				"method": "rhf"
			},
			{
				"type": "unocc",
				"energy": 0.03731,
				"method": "rhf"
			},
			{
				"type": "unocc",
				"energy": 0.08657,
				"method": "rhf"
			}
		],
		"cosmo_sigma_profile": { 
			"-0.025": 0.0,
			"-0.024": 0.0,
			"-0.023": 0.0,
			"-0.022": 0.0,
			"-0.021": 0.0,
			"-0.02": 0.0,
			"-0.019": 0.0,
			"-0.018": 0.0,
			"-0.017": 0.0,
			"-0.016": 0.0,
			"-0.015": 0.0,
			"-0.014": 0.0,
			"-0.013": 0.0,
			"-0.012": 0.0,
			"-0.011": 0.0,
			"-0.01": 0.0,
			"-0.009": 0.0,
			"-0.008": 1.33856893696,
			"-0.007": 6.22628024542,
			"-0.006": 14.0258198453,
			"-0.005": 19.507401956,
			"-0.004": 19.0974146706,
			"-0.003": 16.1189712117,
			"-0.002": 13.5119597083,
			"-0.001": 16.5145949825,
			"0.0": 15.0070201352,
			"0.001": 14.7270540371,
			"0.002": 14.6014732779,
			"0.003": 17.1959548858,
			"0.004": 27.7740226187,
			"0.005": 18.3920036363,
			"0.006": 8.87202521449,
			"0.007": 6.75971236236,
			"0.008": 0.298555189298,
			"0.009": 0.0,
			"0.01": 0.0,
			"0.011": 0.0,
			"0.012": 0.0,
			"0.013": 0.0,
			"0.014": 0.0,
			"0.015": 0.0,
			"0.016": 0.0,
			"0.017": 0.0,
			"0.018": 0.0,
			"0.019": 0.0,
			"0.02": 0.0,
			"0.021": 0.0,
			"0.022": 0.0,
			"0.023": 0.0,
			"0.024": 0.0,
			"0.025": 0.0
		}
	}
}
