{
	 "smiles": "CC1=C(C(=CC=C1)[N+]([O-])=O)S(Cl)(=O)=O", 
	 "Tm": 365.15, 
	 "num_atms": 20, 
	 "gaussian": { 
		 "optdone": 1, 
		 "sigma_profile": "yes", 
		 "theory": "DFT", 
		 "functional": "B3LYP", 
		 "basiset": "6-31G**", 
		 "properties": { 
			 "R2extent": 4011.0329, 
			 "electric_dipole_moment_norm": 7.14408304193, 
			 "electric_quadrupole_moment_norm": 12.8899012467, 
			 "total_energy": -1484.1974787, 
			 "HOMO_LUMO_gap": 0.18216, 
			 "cosmo_polarized_energy": -13.81, 
			 "cosmo_cavitation_energy": 27.79, 
			 "cosmo_dispersion_energy": -20.5, 
			 "cosmo_repulsion_energy": 1.54, 
			 "cosmo_total_nonelectrostatic_energy": 8.83, 
			 "SMD_solvation_energy": 5.98 
		},
		"coords": [
			{
				"x": -0.3207718391,
				"y": -2.1536341013,
				"z": 0.9636807834,
				"element": "C" 
			},
			{
				"x": -0.104109163,
				"y": -0.8888912237,
				"z": 0.1644295034,
				"element": "C" 
			},
			{
				"x": 1.110468954,
				"y": -0.1725163344,
				"z": 0.1017077707,
				"element": "C" 
			},
			{
				"x": 1.1839166613,
				"y": 1.0261175927,
				"z": -0.6287511821,
				"element": "C" 
			},
			{
				"x": 0.1064410218,
				"y": 1.4871413544,
				"z": -1.3731981818,
				"element": "C" 
			},
			{
				"x": -1.089432145,
				"y": 0.7750036117,
				"z": -1.338006819,
				"element": "C" 
			},
			{
				"x": -1.1898434494,
				"y": -0.3760612508,
				"z": -0.5655766302,
				"element": "C" 
			},
			{
				"x": 2.3498219997,
				"y": 1.9396616271,
				"z": -0.5917256156,
				"element": "N" 
			},
			{
				"x": 2.7264539177,
				"y": 2.3010935382,
				"z": 0.5158923774,
				"element": "O" 
			},
			{
				"x": 2.7809029355,
				"y": 2.3262082954,
				"z": -1.6716941115,
				"element": "O" 
			},
			{
				"x": 2.6189871317,
				"y": -0.8760919268,
				"z": 0.8167230645,
				"element": "S" 
			},
			{
				"x": 2.5303692519,
				"y": -0.1806719546,
				"z": 2.8139671785,
				"element": "Cl" 
			},
			{
				"x": 2.4800574531,
				"y": -2.3239430131,
				"z": 0.8935680205,
				"element": "O" 
			},
			{
				"x": 3.7761685286,
				"y": -0.273840303,
				"z": 0.1747528574,
				"element": "O" 
			},
			{
				"x": -1.3918744956,
				"y": -2.3544302143,
				"z": 1.036898897,
				"element": "H" 
			},
			{
				"x": 0.0866901957,
				"y": -2.0772456551,
				"z": 1.9740533401,
				"element": "H" 
			},
			{
				"x": 0.1648926184,
				"y": -3.0114430226,
				"z": 0.4926172452,
				"element": "H" 
			},
			{
				"x": 0.2145466497,
				"y": 2.4002151958,
				"z": -1.9463535218,
				"element": "H" 
			},
			{
				"x": -1.9458058486,
				"y": 1.1288676543,
				"z": -1.9029000274,
				"element": "H" 
			},
			{
				"x": -2.1326803782,
				"y": -0.9124398699,
				"z": -0.5241849488,
				"element": "H" 
			}
		],
		 "valence_orbital": [ 
			{
				"type": "occ",
				"energy": -0.32239,
				"method": "rhf"
			},
			{
				"type": "occ",
				"energy": -0.32019,
				"method": "rhf"
			},
			{
				"type": "occ",
				"energy": -0.31711,
				"method": "rhf"
			},
			{
				"type": "occ",
				"energy": -0.30256,
				"method": "rhf"
			},
			{
				"type": "occ",
				"energy": -0.288,
				"method": "rhf"
			},
			{
				"type": "unocc",
				"energy": -0.10584,
				"method": "rhf"
			},
			{
				"type": "unocc",
				"energy": -0.08404,
				"method": "rhf"
			},
			{
				"type": "unocc",
				"energy": -0.06374,
				"method": "rhf"
			},
			{
				"type": "unocc",
				"energy": -0.04477,
				"method": "rhf"
			},
			{
				"type": "unocc",
				"energy": 0.03392,
				"method": "rhf"
			}
		],
		"cosmo_sigma_profile": { 
			"-0.025": 0.0,
			"-0.024": 0.0,
			"-0.023": 0.0,
			"-0.022": 0.0,
			"-0.021": 0.0,
			"-0.02": 0.0,
			"-0.019": 0.0,
			"-0.018": 0.0,
			"-0.017": 0.0,
			"-0.016": 0.0,
			"-0.015": 0.0,
			"-0.014": 0.0,
			"-0.013": 0.0,
			"-0.012": 0.0,
			"-0.011": 0.0,
			"-0.01": 0.552376821183,
			"-0.009": 5.28269769994,
			"-0.008": 10.2603580951,
			"-0.007": 7.94197292505,
			"-0.006": 8.03002618235,
			"-0.005": 10.0646947783,
			"-0.004": 13.6347672297,
			"-0.003": 16.3739448822,
			"-0.002": 21.8257153167,
			"-0.001": 18.7013701267,
			"0.0": 16.8666965665,
			"0.001": 10.7313807053,
			"0.002": 12.5218199156,
			"0.003": 13.091843771,
			"0.004": 7.45414828319,
			"0.005": 9.37986276238,
			"0.006": 13.1148007771,
			"0.007": 15.348283649,
			"0.008": 11.2863899952,
			"0.009": 2.94541493662,
			"0.01": 0.0,
			"0.011": 0.0,
			"0.012": 0.0,
			"0.013": 0.0,
			"0.014": 0.0,
			"0.015": 0.0,
			"0.016": 0.0,
			"0.017": 0.0,
			"0.018": 0.0,
			"0.019": 0.0,
			"0.02": 0.0,
			"0.021": 0.0,
			"0.022": 0.0,
			"0.023": 0.0,
			"0.024": 0.0,
			"0.025": 0.0
		}
	}
}
