{
	 "smiles": "CN1N=C(C)C(N)=C1C", 
	 "Tm": 375.15, 
	 "num_atms": 20, 
	 "gaussian": { 
		 "optdone": 1, 
		 "sigma_profile": "yes", 
		 "theory": "DFT", 
		 "functional": "B3LYP", 
		 "basiset": "6-31G**", 
		 "properties": { 
			 "R2extent": 1493.1029, 
			 "electric_dipole_moment_norm": 1.0614850258, 
			 "electric_quadrupole_moment_norm": 8.17212343091, 
			 "total_energy": -399.510564835, 
			 "HOMO_LUMO_gap": 0.25355, 
			 "cosmo_polarized_energy": -9.8, 
			 "cosmo_cavitation_energy": 23.07, 
			 "cosmo_dispersion_energy": -16.76, 
			 "cosmo_repulsion_energy": 1.4, 
			 "cosmo_total_nonelectrostatic_energy": 7.71, 
			 "SMD_solvation_energy": 3.41 
		},
		"coords": [
			{
				"x": -1.0151387573,
				"y": 1.3078376575,
				"z": 1.7618913603,
				"element": "C" 
			},
			{
				"x": -0.118208715,
				"y": 0.4439959847,
				"z": 1.0230587072,
				"element": "N" 
			},
			{
				"x": -0.5161352643,
				"y": -0.0645317406,
				"z": -0.1735904282,
				"element": "N" 
			},
			{
				"x": 0.5089451398,
				"y": -0.8035784657,
				"z": -0.5967200665,
				"element": "C" 
			},
			{
				"x": 0.4419561789,
				"y": -1.5348913332,
				"z": -1.9022230983,
				"element": "C" 
			},
			{
				"x": 1.5796519207,
				"y": -0.77057709,
				"z": 0.3380184233,
				"element": "C" 
			},
			{
				"x": 2.8573795383,
				"y": -1.4055414558,
				"z": 0.3001162613,
				"element": "N" 
			},
			{
				"x": 1.1375817621,
				"y": 0.0454550004,
				"z": 1.3710932439,
				"element": "C" 
			},
			{
				"x": 1.8298477122,
				"y": 0.4492884525,
				"z": 2.6292780167,
				"element": "C" 
			},
			{
				"x": -0.5812128012,
				"y": 2.3036847617,
				"z": 1.9048077719,
				"element": "H" 
			},
			{
				"x": -1.255399453,
				"y": 0.885252317,
				"z": 2.743713566,
				"element": "H" 
			},
			{
				"x": -1.9293286291,
				"y": 1.3956608054,
				"z": 1.1755004623,
				"element": "H" 
			},
			{
				"x": -0.5224180256,
				"y": -1.3513859842,
				"z": -2.381045603,
				"element": "H" 
			},
			{
				"x": 0.5569070197,
				"y": -2.617458145,
				"z": -1.7674718526,
				"element": "H" 
			},
			{
				"x": 1.2328802886,
				"y": -1.2111191659,
				"z": -2.589914417,
				"element": "H" 
			},
			{
				"x": 3.3877608858,
				"y": -1.1164793931,
				"z": -0.5182245046,
				"element": "H" 
			},
			{
				"x": 2.7642856089,
				"y": -2.416905562,
				"z": 0.2450239882,
				"element": "H" 
			},
			{
				"x": 1.2848264655,
				"y": 0.1259667657,
				"z": 3.5247703279,
				"element": "H" 
			},
			{
				"x": 1.9603514846,
				"y": 1.5362030598,
				"z": 2.7004151479,
				"element": "H" 
			},
			{
				"x": 2.8174676405,
				"y": -0.0170764694,
				"z": 2.6408026931,
				"element": "H" 
			}
		],
		 "valence_orbital": [ 
			{
				"type": "occ",
				"energy": -0.35671,
				"method": "rhf"
			},
			{
				"type": "occ",
				"energy": -0.28324,
				"method": "rhf"
			},
			{
				"type": "occ",
				"energy": -0.23572,
				"method": "rhf"
			},
			{
				"type": "occ",
				"energy": -0.22236,
				"method": "rhf"
			},
			{
				"type": "occ",
				"energy": -0.21695,
				"method": "rhf"
			},
			{
				"type": "unocc",
				"energy": 0.0366,
				"method": "rhf"
			},
			{
				"type": "unocc",
				"energy": 0.08119,
				"method": "rhf"
			},
			{
				"type": "unocc",
				"energy": 0.08194,
				"method": "rhf"
			},
			{
				"type": "unocc",
				"energy": 0.0964,
				"method": "rhf"
			},
			{
				"type": "unocc",
				"energy": 0.13089,
				"method": "rhf"
			}
		],
		"cosmo_sigma_profile": { 
			"-0.025": 0.0,
			"-0.024": 0.0,
			"-0.023": 0.0,
			"-0.022": 0.0,
			"-0.021": 0.0,
			"-0.02": 0.0,
			"-0.019": 0.0,
			"-0.018": 0.0,
			"-0.017": 0.0,
			"-0.016": 0.0,
			"-0.015": 0.0,
			"-0.014": 0.0,
			"-0.013": 0.0,
			"-0.012": 0.0,
			"-0.011": 0.237991862819,
			"-0.01": 2.38852382132,
			"-0.009": 2.47070462032,
			"-0.008": 2.44596364171,
			"-0.007": 2.6878118861,
			"-0.006": 4.57289425506,
			"-0.005": 12.8296183058,
			"-0.004": 18.9910994004,
			"-0.003": 19.367019721,
			"-0.002": 20.6890098124,
			"-0.001": 15.8154769648,
			"0.0": 15.2789365225,
			"0.001": 9.62314848831,
			"0.002": 5.93957894822,
			"0.003": 6.11327830599,
			"0.004": 6.21767465104,
			"0.005": 6.98785282685,
			"0.006": 5.42472757418,
			"0.007": 4.08591665823,
			"0.008": 3.13925117561,
			"0.009": 2.70802040242,
			"0.01": 2.19821099354,
			"0.011": 2.12827551361,
			"0.012": 1.81217077081,
			"0.013": 1.74734432798,
			"0.014": 1.66324521268,
			"0.015": 1.55002020975,
			"0.016": 1.07811976524,
			"0.017": 0.424773395362,
			"0.018": 0.0,
			"0.019": 0.0,
			"0.02": 0.0,
			"0.021": 0.0,
			"0.022": 0.0,
			"0.023": 0.0,
			"0.024": 0.0,
			"0.025": 0.0
		}
	}
}
