{
	 "smiles": "OC(=O)C1=CC=C(CNC(=O)C23CC4CC(CC(C4)C2)C3)C=C1", 
	 "Tm": 469.15, 
	 "num_atms": 46, 
	 "gaussian": { 
		 "optdone": 1, 
		 "sigma_profile": "yes", 
		 "theory": "DFT", 
		 "functional": "B3LYP", 
		 "basiset": "6-31G**", 
		 "properties": { 
			 "R2extent": 11032.7424, 
			 "electric_dipole_moment_norm": 2.99533565899, 
			 "electric_quadrupole_moment_norm": 15.9485731475, 
			 "total_energy": -1018.37851701, 
			 "HOMO_LUMO_gap": 0.19402, 
			 "cosmo_polarized_energy": -16.98, 
			 "cosmo_cavitation_energy": 44.88, 
			 "cosmo_dispersion_energy": -32.09, 
			 "cosmo_repulsion_energy": 2.41, 
			 "cosmo_total_nonelectrostatic_energy": 15.21, 
			 "SMD_solvation_energy": 7.14 
		},
		"coords": [
			{
				"x": 0.9665173612,
				"y": 6.9313376546,
				"z": -0.4088307241,
				"element": "O" 
			},
			{
				"x": 0.0752604098,
				"y": 6.4749302104,
				"z": -1.3254475279,
				"element": "C" 
			},
			{
				"x": -0.2050062777,
				"y": 7.1130135597,
				"z": -2.3218703312,
				"element": "O" 
			},
			{
				"x": -0.4943439959,
				"y": 5.1481723015,
				"z": -0.9755305071,
				"element": "C" 
			},
			{
				"x": -1.4298829225,
				"y": 4.5837382269,
				"z": -1.8506495129,
				"element": "C" 
			},
			{
				"x": -1.9907987759,
				"y": 3.341757979,
				"z": -1.5638654663,
				"element": "C" 
			},
			{
				"x": -1.630150393,
				"y": 2.6446159272,
				"z": -0.4042574933,
				"element": "C" 
			},
			{
				"x": -2.2286140504,
				"y": 1.2845058805,
				"z": -0.0926855801,
				"element": "C" 
			},
			{
				"x": -1.2708060331,
				"y": 0.1870065296,
				"z": -0.1943223843,
				"element": "N" 
			},
			{
				"x": -0.5918643915,
				"y": -0.290878009,
				"z": 0.8962249557,
				"element": "C" 
			},
			{
				"x": -0.7989301744,
				"y": 0.1492277115,
				"z": 2.0246433478,
				"element": "O" 
			},
			{
				"x": 0.4231631414,
				"y": -1.4159631944,
				"z": 0.618258964,
				"element": "C" 
			},
			{
				"x": -0.2763251731,
				"y": -2.6554398365,
				"z": -0.0075891188,
				"element": "C" 
			},
			{
				"x": 0.7513560818,
				"y": -3.781192809,
				"z": -0.248377863,
				"element": "C" 
			},
			{
				"x": 1.8456287408,
				"y": -3.2782484721,
				"z": -1.2127617948,
				"element": "C" 
			},
			{
				"x": 2.5617519547,
				"y": -2.0598615459,
				"z": -0.5932120678,
				"element": "C" 
			},
			{
				"x": 3.204014307,
				"y": -2.4682089466,
				"z": 0.7478764179,
				"element": "C" 
			},
			{
				"x": 2.1070442669,
				"y": -2.9666609205,
				"z": 1.7104232377,
				"element": "C" 
			},
			{
				"x": 1.3957323482,
				"y": -4.1877506137,
				"z": 1.0923857364,
				"element": "C" 
			},
			{
				"x": 1.0824447072,
				"y": -1.8409464515,
				"z": 1.9513965347,
				"element": "C" 
			},
			{
				"x": 1.5370420684,
				"y": -0.9313048633,
				"z": -0.352760867,
				"element": "C" 
			},
			{
				"x": -0.6939979794,
				"y": 3.2172900523,
				"z": 0.4717078348,
				"element": "C" 
			},
			{
				"x": -0.1294792601,
				"y": 4.4571953031,
				"z": 0.1905032464,
				"element": "C" 
			},
			{
				"x": 1.2645186273,
				"y": 7.7939320697,
				"z": -0.7408779226,
				"element": "H" 
			},
			{
				"x": -1.7023574672,
				"y": 5.1325728378,
				"z": -2.7458529771,
				"element": "H" 
			},
			{
				"x": -2.7194477216,
				"y": 2.9100380814,
				"z": -2.2459417585,
				"element": "H" 
			},
			{
				"x": -3.0674136727,
				"y": 1.0805420205,
				"z": -0.7664586551,
				"element": "H" 
			},
			{
				"x": -2.6019394026,
				"y": 1.2649325872,
				"z": 0.9341937198,
				"element": "H" 
			},
			{
				"x": -0.9880231073,
				"y": -0.1109267758,
				"z": -1.1155095939,
				"element": "H" 
			},
			{
				"x": -1.0725806456,
				"y": -3.0035999647,
				"z": 0.6624002372,
				"element": "H" 
			},
			{
				"x": -0.758522422,
				"y": -2.3880214824,
				"z": -0.9568993259,
				"element": "H" 
			},
			{
				"x": 0.238368754,
				"y": -4.644814206,
				"z": -0.6903926406,
				"element": "H" 
			},
			{
				"x": 1.4020536756,
				"y": -3.0054199622,
				"z": -2.1799283985,
				"element": "H" 
			},
			{
				"x": 2.5697804754,
				"y": -4.0789201792,
				"z": -1.4106629145,
				"element": "H" 
			},
			{
				"x": 3.3365780741,
				"y": -1.6977812952,
				"z": -1.2807977492,
				"element": "H" 
			},
			{
				"x": 3.7331877306,
				"y": -1.6133757403,
				"z": 1.1886721383,
				"element": "H" 
			},
			{
				"x": 3.9510730933,
				"y": -3.2552943108,
				"z": 0.58184431,
				"element": "H" 
			},
			{
				"x": 2.5595126926,
				"y": -3.2505109842,
				"z": 2.6688070438,
				"element": "H" 
			},
			{
				"x": 2.1117091844,
				"y": -5.0044725972,
				"z": 0.9324853388,
				"element": "H" 
			},
			{
				"x": 0.6284629534,
				"y": -4.5657032259,
				"z": 1.7804897656,
				"element": "H" 
			},
			{
				"x": 1.5637400225,
				"y": -0.9717786222,
				"z": 2.4123491577,
				"element": "H" 
			},
			{
				"x": 0.30636568,
				"y": -2.1667842526,
				"z": 2.6520022867,
				"element": "H" 
			},
			{
				"x": 2.0338655482,
				"y": -0.0483051901,
				"z": 0.0686433934,
				"element": "H" 
			},
			{
				"x": 1.1081448471,
				"y": -0.6210920834,
				"z": -1.3152251383,
				"element": "H" 
			},
			{
				"x": -0.4202019127,
				"y": 2.6799623989,
				"z": 1.374891974,
				"element": "H" 
			},
			{
				"x": 0.5896690326,
				"y": 4.898685203,
				"z": 0.8712086724,
				"element": "H" 
			}
		],
		 "valence_orbital": [ 
			{
				"type": "occ",
				"energy": -0.27484,
				"method": "rhf"
			},
			{
				"type": "occ",
				"energy": -0.26543,
				"method": "rhf"
			},
			{
				"type": "occ",
				"energy": -0.26001,
				"method": "rhf"
			},
			{
				"type": "occ",
				"energy": -0.2477,
				"method": "rhf"
			},
			{
				"type": "occ",
				"energy": -0.24244,
				"method": "rhf"
			},
			{
				"type": "unocc",
				"energy": -0.04842,
				"method": "rhf"
			},
			{
				"type": "unocc",
				"energy": -0.00925,
				"method": "rhf"
			},
			{
				"type": "unocc",
				"energy": 0.02361,
				"method": "rhf"
			},
			{
				"type": "unocc",
				"energy": 0.0517,
				"method": "rhf"
			},
			{
				"type": "unocc",
				"energy": 0.05885,
				"method": "rhf"
			}
		],
		"cosmo_sigma_profile": { 
			"-0.025": 0.0,
			"-0.024": 0.0,
			"-0.023": 0.0,
			"-0.022": 0.0,
			"-0.021": 0.0,
			"-0.02": 0.0,
			"-0.019": 0.0403985892813,
			"-0.018": 0.727912151468,
			"-0.017": 0.773904606027,
			"-0.016": 0.869169750159,
			"-0.015": 1.26061912439,
			"-0.014": 0.96786002185,
			"-0.013": 1.14493644227,
			"-0.012": 1.30622209791,
			"-0.011": 2.00200858056,
			"-0.01": 2.68586996807,
			"-0.009": 2.02789532181,
			"-0.008": 2.2583134512,
			"-0.007": 3.62424249637,
			"-0.006": 10.2399541321,
			"-0.005": 10.7584241551,
			"-0.004": 11.8530178919,
			"-0.003": 17.0487016461,
			"-0.002": 49.0819140574,
			"-0.001": 50.9774111817,
			"0.0": 49.2754123727,
			"0.001": 37.289239313,
			"0.002": 20.7283634555,
			"0.003": 17.3819073908,
			"0.004": 13.2573922957,
			"0.005": 5.11078774538,
			"0.006": 4.79548954457,
			"0.007": 4.99252141453,
			"0.008": 3.31743124257,
			"0.009": 3.0363553332,
			"0.01": 3.23854391657,
			"0.011": 5.00370628859,
			"0.012": 6.15025937316,
			"0.013": 2.12169834557,
			"0.014": 3.64913406212,
			"0.015": 0.806884491407,
			"0.016": 0.0,
			"0.017": 0.0,
			"0.018": 0.0,
			"0.019": 0.0,
			"0.02": 0.0,
			"0.021": 0.0,
			"0.022": 0.0,
			"0.023": 0.0,
			"0.024": 0.0,
			"0.025": 0.0
		}
	}
}
