{
	 "smiles": "NC(=O)C1CNC2=C(N1)C=CC=C2", 
	 "Tm": 373.15, 
	 "num_atms": 24, 
	 "gaussian": { 
		 "optdone": 1, 
		 "sigma_profile": "yes", 
		 "theory": "DFT", 
		 "functional": "B3LYP", 
		 "basiset": "6-31G**", 
		 "properties": { 
			 "R2extent": 2319.4305, 
			 "electric_dipole_moment_norm": 3.34791725704, 
			 "electric_quadrupole_moment_norm": 12.9552596385, 
			 "total_energy": -589.082138802, 
			 "HOMO_LUMO_gap": 0.19292, 
			 "cosmo_polarized_energy": -15.55, 
			 "cosmo_cavitation_energy": 26.44, 
			 "cosmo_dispersion_energy": -19.76, 
			 "cosmo_repulsion_energy": 1.57, 
			 "cosmo_total_nonelectrostatic_energy": 8.25, 
			 "SMD_solvation_energy": 3.79 
		},
		"coords": [
			{
				"x": 1.5204248674,
				"y": 1.3027110748,
				"z": 2.0857195192,
				"element": "N" 
			},
			{
				"x": 1.5089533612,
				"y": 1.9087515652,
				"z": 0.8689586396,
				"element": "C" 
			},
			{
				"x": 1.5502931049,
				"y": 3.1229213063,
				"z": 0.7068433555,
				"element": "O" 
			},
			{
				"x": 1.4023161512,
				"y": 0.9852593653,
				"z": -0.3691641985,
				"element": "C" 
			},
			{
				"x": 1.8348158215,
				"y": -0.4737036631,
				"z": -0.1854423838,
				"element": "C" 
			},
			{
				"x": 0.8925066178,
				"y": -1.152177279,
				"z": 0.7091144231,
				"element": "N" 
			},
			{
				"x": -0.4789816242,
				"y": -1.0319954462,
				"z": 0.3648405842,
				"element": "C" 
			},
			{
				"x": -0.9026398421,
				"y": 0.0925731915,
				"z": -0.3803536935,
				"element": "C" 
			},
			{
				"x": 0.0402885719,
				"y": 0.9909412332,
				"z": -0.8971248412,
				"element": "N" 
			},
			{
				"x": -2.2704661085,
				"y": 0.2518746523,
				"z": -0.6402324039,
				"element": "C" 
			},
			{
				"x": -3.2030697959,
				"y": -0.6791005593,
				"z": -0.1855644539,
				"element": "C" 
			},
			{
				"x": -2.7800975748,
				"y": -1.7940148022,
				"z": 0.5391822899,
				"element": "C" 
			},
			{
				"x": -1.4214557339,
				"y": -1.9625022282,
				"z": 0.8084544563,
				"element": "C" 
			},
			{
				"x": 1.2786334806,
				"y": 0.3178398011,
				"z": 2.1476219747,
				"element": "H" 
			},
			{
				"x": 1.450014719,
				"y": 1.8974378261,
				"z": 2.8986816073,
				"element": "H" 
			},
			{
				"x": 2.0524425448,
				"y": 1.4494298107,
				"z": -1.1181793537,
				"element": "H" 
			},
			{
				"x": 2.8330558641,
				"y": -0.5139485578,
				"z": 0.2598923528,
				"element": "H" 
			},
			{
				"x": 1.8820805833,
				"y": -0.9423381388,
				"z": -1.1796945916,
				"element": "H" 
			},
			{
				"x": 1.1579859825,
				"y": -2.1112412338,
				"z": 0.9018476943,
				"element": "H" 
			},
			{
				"x": -0.3125875369,
				"y": 1.9220639218,
				"z": -1.0790633009,
				"element": "H" 
			},
			{
				"x": -2.5952109547,
				"y": 1.1155440359,
				"z": -1.2155797859,
				"element": "H" 
			},
			{
				"x": -4.2568226776,
				"y": -0.531192467,
				"z": -0.4015154171,
				"element": "H" 
			},
			{
				"x": -3.4967394309,
				"y": -2.5279542697,
				"z": 0.8940005777,
				"element": "H" 
			},
			{
				"x": -1.0801403905,
				"y": -2.8214791392,
				"z": 1.3827569496,
				"element": "H" 
			}
		],
		 "valence_orbital": [ 
			{
				"type": "occ",
				"energy": -0.29754,
				"method": "rhf"
			},
			{
				"type": "occ",
				"energy": -0.26204,
				"method": "rhf"
			},
			{
				"type": "occ",
				"energy": -0.24455,
				"method": "rhf"
			},
			{
				"type": "occ",
				"energy": -0.22064,
				"method": "rhf"
			},
			{
				"type": "occ",
				"energy": -0.18598,
				"method": "rhf"
			},
			{
				"type": "unocc",
				"energy": 0.00694,
				"method": "rhf"
			},
			{
				"type": "unocc",
				"energy": 0.01878,
				"method": "rhf"
			},
			{
				"type": "unocc",
				"energy": 0.03159,
				"method": "rhf"
			},
			{
				"type": "unocc",
				"energy": 0.07012,
				"method": "rhf"
			},
			{
				"type": "unocc",
				"energy": 0.10101,
				"method": "rhf"
			}
		],
		"cosmo_sigma_profile": { 
			"-0.025": 0.0,
			"-0.024": 0.0,
			"-0.023": 0.0,
			"-0.022": 0.0,
			"-0.021": 0.0,
			"-0.02": 0.0,
			"-0.019": 0.0,
			"-0.018": 0.0,
			"-0.017": 0.0,
			"-0.016": 0.0,
			"-0.015": 0.0,
			"-0.014": 0.23114657983,
			"-0.013": 1.65507433855,
			"-0.012": 3.32261658349,
			"-0.011": 3.30171061373,
			"-0.01": 3.58365498265,
			"-0.009": 3.87270108556,
			"-0.008": 4.36774386955,
			"-0.007": 4.73907500719,
			"-0.006": 10.2463649896,
			"-0.005": 15.1708844976,
			"-0.004": 17.9301727222,
			"-0.003": 15.9760055967,
			"-0.002": 14.6846559076,
			"-0.001": 10.9570163708,
			"0.0": 8.87026669938,
			"0.001": 10.9966129821,
			"0.002": 8.80070856625,
			"0.003": 8.52277507249,
			"0.004": 8.87527727545,
			"0.005": 9.23645451278,
			"0.006": 10.1623523602,
			"0.007": 9.41684037784,
			"0.008": 5.67241856262,
			"0.009": 2.09020999188,
			"0.01": 1.60187879562,
			"0.011": 1.90247813215,
			"0.012": 1.6451785653,
			"0.013": 2.66252530659,
			"0.014": 5.72877781837,
			"0.015": 2.33742629138,
			"0.016": 0.0366720056246,
			"0.017": 0.0,
			"0.018": 0.0,
			"0.019": 0.0,
			"0.02": 0.0,
			"0.021": 0.0,
			"0.022": 0.0,
			"0.023": 0.0,
			"0.024": 0.0,
			"0.025": 0.0
		}
	}
}
