{
	 "smiles": "FC1=CC=C(C(Cl)=C1)C1(CCCCC1)C#N", 
	 "Tm": 334.65, 
	 "num_atms": 29, 
	 "gaussian": { 
		 "optdone": 1, 
		 "sigma_profile": "yes", 
		 "theory": "DFT", 
		 "functional": "B3LYP", 
		 "basiset": "6-31G**", 
		 "properties": { 
			 "R2extent": 4298.7857, 
			 "electric_dipole_moment_norm": 4.71741816357, 
			 "electric_quadrupole_moment_norm": 21.2755163575, 
			 "total_energy": -1117.98281744, 
			 "HOMO_LUMO_gap": 0.22404, 
			 "cosmo_polarized_energy": -10.3, 
			 "cosmo_cavitation_energy": 32.45, 
			 "cosmo_dispersion_energy": -22.92, 
			 "cosmo_repulsion_energy": 1.75, 
			 "cosmo_total_nonelectrostatic_energy": 11.28, 
			 "SMD_solvation_energy": 6.21 
		},
		"coords": [
			{
				"x": 4.0951519493,
				"y": 2.0314903069,
				"z": 1.2573828432,
				"element": "F" 
			},
			{
				"x": 3.124029266,
				"y": 1.1632415257,
				"z": 0.9229024849,
				"element": "C" 
			},
			{
				"x": 2.7805234075,
				"y": 0.9942088637,
				"z": -0.4092095472,
				"element": "C" 
			},
			{
				"x": 1.7660871783,
				"y": 0.0918397716,
				"z": -0.7205674476,
				"element": "C" 
			},
			{
				"x": 1.0658597111,
				"y": -0.647889641,
				"z": 0.2473476372,
				"element": "C" 
			},
			{
				"x": 1.4849405752,
				"y": -0.4572822442,
				"z": 1.5828155583,
				"element": "C" 
			},
			{
				"x": 0.814713359,
				"y": -1.3708431879,
				"z": 2.9297104805,
				"element": "Cl" 
			},
			{
				"x": 2.4945036513,
				"y": 0.4425645866,
				"z": 1.926765007,
				"element": "C" 
			},
			{
				"x": -0.0568123461,
				"y": -1.6347452275,
				"z": -0.1642384521,
				"element": "C" 
			},
			{
				"x": -0.2904878879,
				"y": -1.7362986081,
				"z": -1.7121988702,
				"element": "C" 
			},
			{
				"x": -1.0347229442,
				"y": -0.5453073805,
				"z": -2.3445272418,
				"element": "C" 
			},
			{
				"x": -2.3476406665,
				"y": -0.2326497868,
				"z": -1.6162804002,
				"element": "C" 
			},
			{
				"x": -2.0973488771,
				"y": -0.0511590977,
				"z": -0.1152165119,
				"element": "C" 
			},
			{
				"x": -1.4388439929,
				"y": -1.2946708656,
				"z": 0.4941272155,
				"element": "C" 
			},
			{
				"x": 0.3533280711,
				"y": -2.993006425,
				"z": 0.256677917,
				"element": "C" 
			},
			{
				"x": 0.6585499022,
				"y": -4.0815078244,
				"z": 0.5225141782,
				"element": "N" 
			},
			{
				"x": 3.2985028906,
				"y": 1.5515664545,
				"z": -1.1812624794,
				"element": "H" 
			},
			{
				"x": 1.5231081825,
				"y": -0.0402690022,
				"z": -1.7653373559,
				"element": "H" 
			},
			{
				"x": 2.7957972199,
				"y": 0.5698822499,
				"z": 2.959125878,
				"element": "H" 
			},
			{
				"x": -0.8959231061,
				"y": -2.6364175764,
				"z": -1.8670116038,
				"element": "H" 
			},
			{
				"x": 0.6600345298,
				"y": -1.9270741805,
				"z": -2.2202558133,
				"element": "H" 
			},
			{
				"x": -1.2266659147,
				"y": -0.7825710365,
				"z": -3.3975903621,
				"element": "H" 
			},
			{
				"x": -0.4104403453,
				"y": 0.3548392029,
				"z": -2.3410989476,
				"element": "H" 
			},
			{
				"x": -2.8106817512,
				"y": 0.6639127029,
				"z": -2.043852993,
				"element": "H" 
			},
			{
				"x": -3.0586517627,
				"y": -1.0569666315,
				"z": -1.7665782997,
				"element": "H" 
			},
			{
				"x": -3.0393069094,
				"y": 0.1414987412,
				"z": 0.4107155494,
				"element": "H" 
			},
			{
				"x": -1.4612216842,
				"y": 0.8279479826,
				"z": 0.0530524823,
				"element": "H" 
			},
			{
				"x": -2.0924969208,
				"y": -2.1617538782,
				"z": 0.3378449412,
				"element": "H" 
			},
			{
				"x": -1.3242847848,
				"y": -1.1817797944,
				"z": 1.5712441531,
				"element": "H" 
			}
		],
		 "valence_orbital": [ 
			{
				"type": "occ",
				"energy": -0.32742,
				"method": "rhf"
			},
			{
				"type": "occ",
				"energy": -0.31171,
				"method": "rhf"
			},
			{
				"type": "occ",
				"energy": -0.29901,
				"method": "rhf"
			},
			{
				"type": "occ",
				"energy": -0.26948,
				"method": "rhf"
			},
			{
				"type": "occ",
				"energy": -0.25721,
				"method": "rhf"
			},
			{
				"type": "unocc",
				"energy": -0.03317,
				"method": "rhf"
			},
			{
				"type": "unocc",
				"energy": -0.0258,
				"method": "rhf"
			},
			{
				"type": "unocc",
				"energy": 0.01372,
				"method": "rhf"
			},
			{
				"type": "unocc",
				"energy": 0.04133,
				"method": "rhf"
			},
			{
				"type": "unocc",
				"energy": 0.05329,
				"method": "rhf"
			}
		],
		"cosmo_sigma_profile": { 
			"-0.025": 0.0,
			"-0.024": 0.0,
			"-0.023": 0.0,
			"-0.022": 0.0,
			"-0.021": 0.0,
			"-0.02": 0.0,
			"-0.019": 0.0,
			"-0.018": 0.0,
			"-0.017": 0.0,
			"-0.016": 0.0,
			"-0.015": 0.0,
			"-0.014": 0.0,
			"-0.013": 0.0,
			"-0.012": 0.0,
			"-0.011": 0.0,
			"-0.01": 0.0,
			"-0.009": 0.524961190127,
			"-0.008": 3.15502372575,
			"-0.007": 5.82367900505,
			"-0.006": 7.35668895239,
			"-0.005": 10.6170245911,
			"-0.004": 13.285231641,
			"-0.003": 24.0390843007,
			"-0.002": 34.7811811938,
			"-0.001": 34.0181870673,
			"0.0": 31.4145673869,
			"0.001": 25.2189403119,
			"0.002": 13.5069796461,
			"0.003": 13.4025859352,
			"0.004": 14.5647750387,
			"0.005": 3.08758604383,
			"0.006": 3.08307373277,
			"0.007": 2.77224593462,
			"0.008": 3.71762541072,
			"0.009": 3.21451227269,
			"0.01": 3.55465944536,
			"0.011": 2.87709164961,
			"0.012": 2.63871398447,
			"0.013": 2.19922445016,
			"0.014": 0.390617160636,
			"0.015": 0.0,
			"0.016": 0.0,
			"0.017": 0.0,
			"0.018": 0.0,
			"0.019": 0.0,
			"0.02": 0.0,
			"0.021": 0.0,
			"0.022": 0.0,
			"0.023": 0.0,
			"0.024": 0.0,
			"0.025": 0.0
		}
	}
}
