{
	 "smiles": "OC(=O)C1=CC=C(CSC2=CC=C(Cl)C=C2)C=C1", 
	 "Tm": 456.15, 
	 "num_atms": 29, 
	 "gaussian": { 
		 "optdone": 1, 
		 "sigma_profile": "yes", 
		 "theory": "DFT", 
		 "functional": "B3LYP", 
		 "basiset": "6-31G**", 
		 "properties": { 
			 "R2extent": 7191.3355, 
			 "electric_dipole_moment_norm": 2.03990183587, 
			 "electric_quadrupole_moment_norm": 10.7999216298, 
			 "total_energy": -1548.9696364, 
			 "HOMO_LUMO_gap": 0.17993, 
			 "cosmo_polarized_energy": -12.89, 
			 "cosmo_cavitation_energy": 37.82, 
			 "cosmo_dispersion_energy": -26.33, 
			 "cosmo_repulsion_energy": 2.02, 
			 "cosmo_total_nonelectrostatic_energy": 13.51, 
			 "SMD_solvation_energy": 6.65 
		},
		"coords": [
			{
				"x": -4.6080478606,
				"y": 0.4236165841,
				"z": -2.5600343966,
				"element": "O" 
			},
			{
				"x": -4.2297606765,
				"y": 1.5621302787,
				"z": -1.9249606297,
				"element": "C" 
			},
			{
				"x": -5.0348941993,
				"y": 2.4060497062,
				"z": -1.5824704643,
				"element": "O" 
			},
			{
				"x": -2.7628279777,
				"y": 1.6481654603,
				"z": -1.7061617595,
				"element": "C" 
			},
			{
				"x": -1.8822400595,
				"y": 0.6427623905,
				"z": -2.1234223207,
				"element": "C" 
			},
			{
				"x": -0.5140707355,
				"y": 0.7781670999,
				"z": -1.8947456706,
				"element": "C" 
			},
			{
				"x": -0.0010905559,
				"y": 1.9124096569,
				"z": -1.2508173791,
				"element": "C" 
			},
			{
				"x": 1.4770337259,
				"y": 2.0489946172,
				"z": -1.0057684364,
				"element": "C" 
			},
			{
				"x": 2.0101483826,
				"y": 1.7220526635,
				"z": 0.7480457967,
				"element": "S" 
			},
			{
				"x": 1.6768544006,
				"y": -0.032781948,
				"z": 0.9045500566,
				"element": "C" 
			},
			{
				"x": 2.6598703377,
				"y": -0.9713269452,
				"z": 0.5604146764,
				"element": "C" 
			},
			{
				"x": 2.4232449515,
				"y": -2.3371975669,
				"z": 0.7113583123,
				"element": "C" 
			},
			{
				"x": 1.1936377333,
				"y": -2.7606357181,
				"z": 1.2168735205,
				"element": "C" 
			},
			{
				"x": 0.8896002236,
				"y": -4.4794938893,
				"z": 1.4132044453,
				"element": "Cl" 
			},
			{
				"x": 0.2038885272,
				"y": -1.8451040055,
				"z": 1.573014608,
				"element": "C" 
			},
			{
				"x": 0.4511414096,
				"y": -0.4812631756,
				"z": 1.415024549,
				"element": "C" 
			},
			{
				"x": -0.8937315175,
				"y": 2.9133468435,
				"z": -0.833179315,
				"element": "C" 
			},
			{
				"x": -2.2581250042,
				"y": 2.7859726678,
				"z": -1.0584965234,
				"element": "C" 
			},
			{
				"x": -5.5738228367,
				"y": 0.479664067,
				"z": -2.6457406966,
				"element": "H" 
			},
			{
				"x": -2.2695838313,
				"y": -0.2370176152,
				"z": -2.6245046202,
				"element": "H" 
			},
			{
				"x": 0.1651089267,
				"y": -0.0038182059,
				"z": -2.2226217335,
				"element": "H" 
			},
			{
				"x": 2.0517535792,
				"y": 1.393656448,
				"z": -1.6644826613,
				"element": "H" 
			},
			{
				"x": 1.8119894875,
				"y": 3.0766115458,
				"z": -1.1765129867,
				"element": "H" 
			},
			{
				"x": 3.6172844751,
				"y": -0.6295441182,
				"z": 0.1799103444,
				"element": "H" 
			},
			{
				"x": 3.1829658037,
				"y": -3.064605746,
				"z": 0.4474586413,
				"element": "H" 
			},
			{
				"x": -0.7438840293,
				"y": -2.1939146915,
				"z": 1.9678235111,
				"element": "H" 
			},
			{
				"x": -0.3100702997,
				"y": 0.2404913749,
				"z": 1.6909233026,
				"element": "H" 
			},
			{
				"x": -0.509774717,
				"y": 3.7941968633,
				"z": -0.3256681615,
				"element": "H" 
			},
			{
				"x": -2.9543976634,
				"y": 3.5564153579,
				"z": -0.7449140092,
				"element": "H" 
			}
		],
		 "valence_orbital": [ 
			{
				"type": "occ",
				"energy": -0.27352,
				"method": "rhf"
			},
			{
				"type": "occ",
				"energy": -0.26671,
				"method": "rhf"
			},
			{
				"type": "occ",
				"energy": -0.26199,
				"method": "rhf"
			},
			{
				"type": "occ",
				"energy": -0.25127,
				"method": "rhf"
			},
			{
				"type": "occ",
				"energy": -0.23676,
				"method": "rhf"
			},
			{
				"type": "unocc",
				"energy": -0.05683,
				"method": "rhf"
			},
			{
				"type": "unocc",
				"energy": -0.03231,
				"method": "rhf"
			},
			{
				"type": "unocc",
				"energy": -0.02312,
				"method": "rhf"
			},
			{
				"type": "unocc",
				"energy": -0.01403,
				"method": "rhf"
			},
			{
				"type": "unocc",
				"energy": 0.02101,
				"method": "rhf"
			}
		],
		"cosmo_sigma_profile": { 
			"-0.025": 0.0,
			"-0.024": 0.0,
			"-0.023": 0.0,
			"-0.022": 0.0,
			"-0.021": 0.0,
			"-0.02": 0.0,
			"-0.019": 0.0,
			"-0.018": 1.00878461249,
			"-0.017": 0.45595382943,
			"-0.016": 0.93916442608,
			"-0.015": 0.50919864475,
			"-0.014": 1.41471446626,
			"-0.013": 0.420281114118,
			"-0.012": 0.404209108507,
			"-0.011": 0.716477053365,
			"-0.01": 0.818094531969,
			"-0.009": 0.54540541333,
			"-0.008": 2.03133361972,
			"-0.007": 10.5758443445,
			"-0.006": 20.0311857333,
			"-0.005": 18.9901988254,
			"-0.004": 17.6765154399,
			"-0.003": 16.5237255121,
			"-0.002": 18.3077011316,
			"-0.001": 18.1084296642,
			"0.0": 21.4213063024,
			"0.001": 30.3579863477,
			"0.002": 32.2813972959,
			"0.003": 34.0808541917,
			"0.004": 19.9463613106,
			"0.005": 10.9233900197,
			"0.006": 5.42290327639,
			"0.007": 5.88594700314,
			"0.008": 3.974034641,
			"0.009": 2.94937785464,
			"0.01": 1.88459646593,
			"0.011": 3.54342817118,
			"0.012": 4.56197026607,
			"0.013": 0.136296363462,
			"0.014": 0.0,
			"0.015": 0.0,
			"0.016": 0.0,
			"0.017": 0.0,
			"0.018": 0.0,
			"0.019": 0.0,
			"0.02": 0.0,
			"0.021": 0.0,
			"0.022": 0.0,
			"0.023": 0.0,
			"0.024": 0.0,
			"0.0": 0.0
		}
	}
}
