{
	 "smiles": "CC(C)CCC[C@@H](C)[C@H]1CC[C@H]2[C@@H]3CC=C4C[C@H](CC[C@]4(C)[C@H]3CC[C@]12C)OC(Cl)=O", 
	 "Tm": 391.15, 
	 "num_atms": 76, 
	 "gaussian": { 
		 "optdone": 1, 
		 "sigma_profile": "yes", 
		 "theory": "DFT", 
		 "functional": "B3LYP", 
		 "basiset": "6-31G**", 
		 "properties": { 
			 "R2extent": 24980.9165, 
			 "electric_dipole_moment_norm": 4.21262299524, 
			 "electric_quadrupole_moment_norm": 32.4763141677, 
			 "total_energy": -1704.78865758, 
			 "HOMO_LUMO_gap": 0.23834, 
			 "cosmo_polarized_energy": -6.66, 
			 "cosmo_cavitation_energy": 67.35, 
			 "cosmo_dispersion_energy": -44.87, 
			 "cosmo_repulsion_energy": 3.35, 
			 "cosmo_total_nonelectrostatic_energy": 25.83, 
			 "SMD_solvation_energy": 10.32 
		},
		"coords": [
			{
				"x": 0.3999374491,
				"y": 0.6245310804,
				"z": 5.6875815039,
				"element": "C" 
			},
			{
				"x": 0.2624384722,
				"y": 2.1047352377,
				"z": 6.0778120926,
				"element": "C" 
			},
			{
				"x": 1.6188267241,
				"y": 2.6937787732,
				"z": 6.4967773866,
				"element": "C" 
			},
			{
				"x": -0.4424977774,
				"y": 2.9435765785,
				"z": 4.9861689178,
				"element": "C" 
			},
			{
				"x": 0.2704523152,
				"y": 3.0228726234,
				"z": 3.6265830839,
				"element": "C" 
			},
			{
				"x": -0.3949907984,
				"y": 3.9841944288,
				"z": 2.6237045613,
				"element": "C" 
			},
			{
				"x": -1.8448224849,
				"y": 3.6696831767,
				"z": 2.1819065304,
				"element": "C" 
			},
			{
				"x": -2.4001368151,
				"y": 4.8826263515,
				"z": 1.4098032837,
				"element": "C" 
			},
			{
				"x": -2.032375877,
				"y": 2.2728388668,
				"z": 1.5236537925,
				"element": "C" 
			},
			{
				"x": -3.533419983,
				"y": 1.8610002118,
				"z": 1.391308558,
				"element": "C" 
			},
			{
				"x": -3.5983745854,
				"y": 0.7677006036,
				"z": 0.2871451637,
				"element": "C" 
			},
			{
				"x": -2.1211739394,
				"y": 0.484914766,
				"z": -0.0376091695,
				"element": "C" 
			},
			{
				"x": -1.7742285121,
				"y": -0.2684815775,
				"z": -1.3278515303,
				"element": "C" 
			},
			{
				"x": -2.4705169826,
				"y": -1.6382890476,
				"z": -1.3674912962,
				"element": "C" 
			},
			{
				"x": -1.8855038936,
				"y": -2.5677602303,
				"z": -2.3907350977,
				"element": "C" 
			},
			{
				"x": -0.725056951,
				"y": -2.3741338346,
				"z": -3.0294188543,
				"element": "C" 
			},
			{
				"x": -0.2627542842,
				"y": -3.366798555,
				"z": -4.0815568446,
				"element": "C" 
			},
			{
				"x": 1.1651646925,
				"y": -3.8389119872,
				"z": -3.8072064022,
				"element": "C" 
			},
			{
				"x": 2.1233859497,
				"y": -2.6653145966,
				"z": -3.6845926918,
				"element": "C" 
			},
			{
				"x": 1.647037983,
				"y": -1.7115231066,
				"z": -2.5778240037,
				"element": "C" 
			},
			{
				"x": 0.1932691518,
				"y": -1.1751236814,
				"z": -2.7570165996,
				"element": "C" 
			},
			{
				"x": 0.1392470905,
				"y": -0.2142638465,
				"z": -3.9730802135,
				"element": "C" 
			},
			{
				"x": -0.23700943,
				"y": -0.4558535267,
				"z": -1.4310658842,
				"element": "C" 
			},
			{
				"x": 0.5313356819,
				"y": 0.8607545663,
				"z": -1.1667155276,
				"element": "C" 
			},
			{
				"x": 0.0986473907,
				"y": 1.5890109355,
				"z": 0.1221874771,
				"element": "C" 
			},
			{
				"x": -1.417550876,
				"y": 1.8615997595,
				"z": 0.1408910424,
				"element": "C" 
			},
			{
				"x": -1.7940896993,
				"y": 2.8513458368,
				"z": -0.9848430887,
				"element": "C" 
			},
			{
				"x": 1.6510323654,
				"y": -4.6576843431,
				"z": -4.9304920501,
				"element": "O" 
			},
			{
				"x": 1.282995782,
				"y": -5.9297836421,
				"z": -4.9291191283,
				"element": "C" 
			},
			{
				"x": 1.9845327255,
				"y": -6.7235301857,
				"z": -6.3702049333,
				"element": "Cl" 
			},
			{
				"x": 0.6074901458,
				"y": -6.5180438764,
				"z": -4.1361997488,
				"element": "O" 
			},
			{
				"x": 1.0885640959,
				"y": 0.4909879026,
				"z": 4.8457786566,
				"element": "H" 
			},
			{
				"x": 0.7901220671,
				"y": 0.0344120261,
				"z": 6.5240289785,
				"element": "H" 
			},
			{
				"x": -0.5666496573,
				"y": 0.1955662561,
				"z": 5.3995483561,
				"element": "H" 
			},
			{
				"x": -0.3926110391,
				"y": 2.1466664801,
				"z": 6.9602884946,
				"element": "H" 
			},
			{
				"x": 2.3544705951,
				"y": 2.6368787775,
				"z": 5.6867731466,
				"element": "H" 
			},
			{
				"x": 2.0336644067,
				"y": 2.1473322147,
				"z": 7.3508840922,
				"element": "H" 
			},
			{
				"x": 1.5242794734,
				"y": 3.7459357957,
				"z": 6.7881858523,
				"element": "H" 
			},
			{
				"x": -1.4518816086,
				"y": 2.5351203126,
				"z": 4.8448604948,
				"element": "H" 
			},
			{
				"x": -0.5815171179,
				"y": 3.964748901,
				"z": 5.369753137,
				"element": "H" 
			},
			{
				"x": 0.353373409,
				"y": 2.0211507516,
				"z": 3.1901490189,
				"element": "H" 
			},
			{
				"x": 1.3012003249,
				"y": 3.3675604264,
				"z": 3.7767515512,
				"element": "H" 
			},
			{
				"x": -0.3986015304,
				"y": 4.9884763071,
				"z": 3.0710400288,
				"element": "H" 
			},
			{
				"x": 0.2411117548,
				"y": 4.0640201768,
				"z": 1.7330171048,
				"element": "H" 
			},
			{
				"x": -2.4472834314,
				"y": 3.6048837474,
				"z": 3.1006445669,
				"element": "H" 
			},
			{
				"x": -3.4006815829,
				"y": 4.7052464323,
				"z": 1.0053702657,
				"element": "H" 
			},
			{
				"x": -2.4705636826,
				"y": 5.7449147538,
				"z": 2.0820070698,
				"element": "H" 
			},
			{
				"x": -1.7520943963,
				"y": 5.1754815475,
				"z": 0.5790265885,
				"element": "H" 
			},
			{
				"x": -1.5895049635,
				"y": 1.5648551095,
				"z": 2.2377877857,
				"element": "H" 
			},
			{
				"x": -3.9125525169,
				"y": 1.495606138,
				"z": 2.3514969331,
				"element": "H" 
			},
			{
				"x": -4.1586931872,
				"y": 2.7181378842,
				"z": 1.1233229978,
				"element": "H" 
			},
			{
				"x": -4.125428942,
				"y": 1.1367833097,
				"z": -0.6009073141,
				"element": "H" 
			},
			{
				"x": -4.1314911255,
				"y": -0.1285434659,
				"z": 0.6187180443,
				"element": "H" 
			},
			{
				"x": -1.7369052772,
				"y": -0.1442589401,
				"z": 0.7827365924,
				"element": "H" 
			},
			{
				"x": -2.125127312,
				"y": 0.3093241089,
				"z": -2.1939558089,
				"element": "H" 
			},
			{
				"x": -2.4103246963,
				"y": -2.1126416005,
				"z": -0.3741365138,
				"element": "H" 
			},
			{
				"x": -3.5438434437,
				"y": -1.5110292128,
				"z": -1.5603061574,
				"element": "H" 
			},
			{
				"x": -2.4646012423,
				"y": -3.4619717908,
				"z": -2.6211051978,
				"element": "H" 
			},
			{
				"x": -0.940418992,
				"y": -4.2242692136,
				"z": -4.1118311534,
				"element": "H" 
			},
			{
				"x": -0.2709833446,
				"y": -2.9082848187,
				"z": -5.0802114944,
				"element": "H" 
			},
			{
				"x": 1.189923184,
				"y": -4.4657606828,
				"z": -2.9108677023,
				"element": "H" 
			},
			{
				"x": 3.1321123824,
				"y": -3.0284455906,
				"z": -3.460038262,
				"element": "H" 
			},
			{
				"x": 2.1793200277,
				"y": -2.1503635354,
				"z": -4.6506626194,
				"element": "H" 
			},
			{
				"x": 2.3456768708,
				"y": -0.8710907516,
				"z": -2.5134261592,
				"element": "H" 
			},
			{
				"x": 1.7041938558,
				"y": -2.2387302525,
				"z": -1.6160583796,
				"element": "H" 
			},
			{
				"x": 0.9059380536,
				"y": 0.5633661654,
				"z": -3.9053685721,
				"element": "H" 
			},
			{
				"x": -0.836934258,
				"y": 0.2739573178,
				"z": -4.0469473887,
				"element": "H" 
			},
			{
				"x": 0.3027659666,
				"y": -0.7445373324,
				"z": -4.9148205346,
				"element": "H" 
			},
			{
				"x": 0.0290732489,
				"y": -1.1475384374,
				"z": -0.615112009,
				"element": "H" 
			},
			{
				"x": 0.4037471087,
				"y": 1.542954299,
				"z": -2.0134215107,
				"element": "H" 
			},
			{
				"x": 1.6060528736,
				"y": 0.655010243,
				"z": -1.1066452986,
				"element": "H" 
			},
			{
				"x": 0.3614371067,
				"y": 0.9717266283,
				"z": 0.9924266321,
				"element": "H" 
			},
			{
				"x": 0.6738431762,
				"y": 2.5178906628,
				"z": 0.2121266076,
				"element": "H" 
			},
			{
				"x": -1.1721358571,
				"y": 3.7494739628,
				"z": -0.9345416077,
				"element": "H" 
			},
			{
				"x": -1.6491390756,
				"y": 2.4192473401,
				"z": -1.9781269721,
				"element": "H" 
			},
			{
				"x": -2.8371927316,
				"y": 3.1714818871,
				"z": -0.9239326704,
				"element": "H" 
			}
		],
		 "valence_orbital": [ 
			{
				"type": "occ",
				"energy": -0.29449,
				"method": "rhf"
			},
			{
				"type": "occ",
				"energy": -0.2919,
				"method": "rhf"
			},
			{
				"type": "occ",
				"energy": -0.28141,
				"method": "rhf"
			},
			{
				"type": "occ",
				"energy": -0.26831,
				"method": "rhf"
			},
			{
				"type": "occ",
				"energy": -0.23909,
				"method": "rhf"
			},
			{
				"type": "unocc",
				"energy": -0.00075,
				"method": "rhf"
			},
			{
				"type": "unocc",
				"energy": 0.01306,
				"method": "rhf"
			},
			{
				"type": "unocc",
				"energy": 0.02225,
				"method": "rhf"
			},
			{
				"type": "unocc",
				"energy": 0.06021,
				"method": "rhf"
			},
			{
				"type": "unocc",
				"energy": 0.07039,
				"method": "rhf"
			}
		],
		"cosmo_sigma_profile": { 
			"-0.025": 0.0,
			"-0.024": 0.0,
			"-0.023": 0.0,
			"-0.022": 0.0,
			"-0.021": 0.0,
			"-0.02": 0.0,
			"-0.019": 0.0,
			"-0.018": 0.0,
			"-0.017": 0.0,
			"-0.016": 0.0,
			"-0.015": 0.0,
			"-0.014": 0.0,
			"-0.013": 0.0,
			"-0.012": 0.0,
			"-0.011": 0.0,
			"-0.01": 0.0,
			"-0.009": 0.0,
			"-0.008": 0.0,
			"-0.007": 0.000217242855135,
			"-0.006": 2.04595731949,
			"-0.005": 7.78270953411,
			"-0.004": 15.1851432861,
			"-0.003": 31.0292149691,
			"-0.002": 73.4954776927,
			"-0.001": 107.567687661,
			"0.0": 99.3242596288,
			"0.001": 73.3369475865,
			"0.002": 52.3859616898,
			"0.003": 20.4836773646,
			"0.004": 12.1819607236,
			"0.005": 7.46596746068,
			"0.006": 5.11231512222,
			"0.007": 2.4515393083,
			"0.008": 2.7367893993,
			"0.009": 4.51480140321,
			"0.01": 2.10397239308,
			"0.011": 0.0279513202134,
			"0.012": 0.0,
			"0.013": 0.0,
			"0.014": 0.0,
			"0.015": 0.0,
			"0.016": 0.0,
			"0.017": 0.0,
			"0.018": 0.0,
			"0.019": 0.0,
			"0.02": 0.0,
			"0.021": 0.0,
			"0.022": 0.0,
			"0.023": 0.0,
			"0.024": 0.0,
			"0.025": 0.0
		}
	}
}
