{
	 "smiles": "NC1=NN=C2CCCCN12", 
	 "Tm": 544.15, 
	 "num_atms": 20, 
	 "gaussian": { 
		 "optdone": 1, 
		 "sigma_profile": "yes", 
		 "theory": "DFT", 
		 "functional": "B3LYP", 
		 "basiset": "6-31G**", 
		 "properties": { 
			 "R2extent": 1447.3194, 
			 "electric_dipole_moment_norm": 5.80435804978, 
			 "electric_quadrupole_moment_norm": 14.9570775829, 
			 "total_energy": -453.663270449, 
			 "HOMO_LUMO_gap": 0.24561, 
			 "cosmo_polarized_energy": -20.17, 
			 "cosmo_cavitation_energy": 22.23, 
			 "cosmo_dispersion_energy": -17.02, 
			 "cosmo_repulsion_energy": 1.39, 
			 "cosmo_total_nonelectrostatic_energy": 6.59, 
			 "SMD_solvation_energy": 0.77 
		},
		"coords": [
			{
				"x": -1.5535864182,
				"y": -1.7811934931,
				"z": 1.7457726241,
				"element": "N" 
			},
			{
				"x": -1.0577436599,
				"y": -0.490332011,
				"z": 1.566778267,
				"element": "C" 
			},
			{
				"x": -1.2529592339,
				"y": 0.5356373357,
				"z": 2.3602341283,
				"element": "N" 
			},
			{
				"x": -0.4727844774,
				"y": 1.5805342115,
				"z": 1.8739538821,
				"element": "N" 
			},
			{
				"x": 0.1421860327,
				"y": 1.1499366217,
				"z": 0.8033972516,
				"element": "C" 
			},
			{
				"x": 1.068623616,
				"y": 1.8984885587,
				"z": -0.1036028981,
				"element": "C" 
			},
			{
				"x": 1.9931176228,
				"y": 0.9208668586,
				"z": -0.8524371492,
				"element": "C" 
			},
			{
				"x": 1.1741096024,
				"y": -0.2145236989,
				"z": -1.4865654197,
				"element": "C" 
			},
			{
				"x": 0.4459903855,
				"y": -1.0485431533,
				"z": -0.4241026486,
				"element": "C" 
			},
			{
				"x": -0.195189566,
				"y": -0.1674821413,
				"z": 0.54920483,
				"element": "N" 
			},
			{
				"x": -2.1309884938,
				"y": -1.799944503,
				"z": 2.5797829115,
				"element": "H" 
			},
			{
				"x": -2.0908487114,
				"y": -2.1216838786,
				"z": 0.9536343189,
				"element": "H" 
			},
			{
				"x": 0.4842924018,
				"y": 2.4758657858,
				"z": -0.8339962169,
				"element": "H" 
			},
			{
				"x": 1.6352550915,
				"y": 2.623498603,
				"z": 0.4870739946,
				"element": "H" 
			},
			{
				"x": 2.5557949321,
				"y": 1.4549683403,
				"z": -1.6247520009,
				"element": "H" 
			},
			{
				"x": 2.7290889246,
				"y": 0.4978973195,
				"z": -0.1563020235,
				"element": "H" 
			},
			{
				"x": 1.816145437,
				"y": -0.8819423146,
				"z": -2.0707619827,
				"element": "H" 
			},
			{
				"x": 0.4394477949,
				"y": 0.2129643238,
				"z": -2.1808595957,
				"element": "H" 
			},
			{
				"x": 1.1502621637,
				"y": -1.7051998748,
				"z": 0.1026508437,
				"element": "H" 
			},
			{
				"x": -0.3099134442,
				"y": -1.6898128902,
				"z": -0.8897031164,
				"element": "H" 
			}
		],
		 "valence_orbital": [ 
			{
				"type": "occ",
				"energy": -0.31509,
				"method": "rhf"
			},
			{
				"type": "occ",
				"energy": -0.28602,
				"method": "rhf"
			},
			{
				"type": "occ",
				"energy": -0.26981,
				"method": "rhf"
			},
			{
				"type": "occ",
				"energy": -0.23594,
				"method": "rhf"
			},
			{
				"type": "occ",
				"energy": -0.21166,
				"method": "rhf"
			},
			{
				"type": "unocc",
				"energy": 0.03395,
				"method": "rhf"
			},
			{
				"type": "unocc",
				"energy": 0.06219,
				"method": "rhf"
			},
			{
				"type": "unocc",
				"energy": 0.0635,
				"method": "rhf"
			},
			{
				"type": "unocc",
				"energy": 0.08777,
				"method": "rhf"
			},
			{
				"type": "unocc",
				"energy": 0.11349,
				"method": "rhf"
			}
		],
		"cosmo_sigma_profile": { 
			"-0.025": 0.0,
			"-0.024": 0.0,
			"-0.023": 0.0,
			"-0.022": 0.0,
			"-0.021": 0.0,
			"-0.02": 0.0,
			"-0.019": 0.0,
			"-0.018": 0.0,
			"-0.017": 0.0,
			"-0.016": 0.0,
			"-0.015": 0.0,
			"-0.014": 0.185683158101,
			"-0.013": 2.02770082304,
			"-0.012": 2.89928857219,
			"-0.011": 3.5551277596,
			"-0.01": 2.46209237115,
			"-0.009": 2.87309321983,
			"-0.008": 2.03724497354,
			"-0.007": 3.1373068793,
			"-0.006": 4.09020434349,
			"-0.005": 11.6380009319,
			"-0.004": 24.9665776645,
			"-0.003": 22.4802421518,
			"-0.002": 18.3019187305,
			"-0.001": 13.2919749626,
			"0.0": 7.26464251586,
			"0.001": 4.22442855823,
			"0.002": 3.62830180509,
			"0.003": 3.51591513945,
			"0.004": 3.28563040635,
			"0.005": 2.47342590487,
			"0.006": 2.4865134224,
			"0.007": 1.90916510902,
			"0.008": 2.97375175167,
			"0.009": 2.18303580715,
			"0.01": 2.54675765292,
			"0.011": 1.84234712403,
			"0.012": 3.28928012653,
			"0.013": 2.73709130047,
			"0.014": 3.42831644622,
			"0.015": 3.63149227515,
			"0.016": 3.70908677614,
			"0.017": 2.66653873222,
			"0.018": 1.98991422544,
			"0.019": 0.300112354243,
			"0.02": 0.0,
			"0.021": 0.0,
			"0.022": 0.0,
			"0.023": 0.0,
			"0.024": 0.0,
			"0.025": 0.0
		}
	}
}
