{
	 "smiles": "NC1=CC(=CC=C1)C#CC1=CC=CC=C1", 
	 "Tm": 321.15, 
	 "num_atms": 26, 
	 "gaussian": { 
		 "optdone": 1, 
		 "sigma_profile": "yes", 
		 "theory": "DFT", 
		 "functional": "B3LYP", 
		 "basiset": "6-31G**", 
		 "properties": { 
			 "R2extent": 5659.6081, 
			 "electric_dipole_moment_norm": 1.81408476924, 
			 "electric_quadrupole_moment_norm": 20.1231723396, 
			 "total_energy": -594.823466338, 
			 "HOMO_LUMO_gap": 0.15716, 
			 "cosmo_polarized_energy": -11.05, 
			 "cosmo_cavitation_energy": 31.82, 
			 "cosmo_dispersion_energy": -23.0, 
			 "cosmo_repulsion_energy": 1.82, 
			 "cosmo_total_nonelectrostatic_energy": 10.64, 
			 "SMD_solvation_energy": 5.38 
		},
		"coords": [
			{
				"x": 0.4798183755,
				"y": 3.8495736464,
				"z": -2.3184262391,
				"element": "N" 
			},
			{
				"x": -0.1786710519,
				"y": 2.8900756895,
				"z": -1.5464003382,
				"element": "C" 
			},
			{
				"x": 0.4968391363,
				"y": 1.7437490281,
				"z": -1.1053540438,
				"element": "C" 
			},
			{
				"x": -0.1735750124,
				"y": 0.7459738791,
				"z": -0.3761456272,
				"element": "C" 
			},
			{
				"x": -1.5433905746,
				"y": 0.8992647011,
				"z": -0.0827474541,
				"element": "C" 
			},
			{
				"x": -2.2103464959,
				"y": 2.0394195454,
				"z": -0.5227106597,
				"element": "C" 
			},
			{
				"x": -1.5458483921,
				"y": 3.0280455195,
				"z": -1.2456269554,
				"element": "C" 
			},
			{
				"x": 0.5331932293,
				"y": -0.4113591216,
				"z": 0.0646054422,
				"element": "C" 
			},
			{
				"x": 1.1334029425,
				"y": -1.3993762586,
				"z": 0.4433148587,
				"element": "C" 
			},
			{
				"x": 1.8348757595,
				"y": -2.5577180168,
				"z": 0.8868786014,
				"element": "C" 
			},
			{
				"x": 3.2022714942,
				"y": -2.7278680399,
				"z": 0.5881882505,
				"element": "C" 
			},
			{
				"x": 3.8831707634,
				"y": -3.8613303835,
				"z": 1.0238785172,
				"element": "C" 
			},
			{
				"x": 3.2183314959,
				"y": -4.8435682305,
				"z": 1.7625461417,
				"element": "C" 
			},
			{
				"x": 1.8631920231,
				"y": -4.6852667535,
				"z": 2.0642126628,
				"element": "C" 
			},
			{
				"x": 1.1740438472,
				"y": -3.5551610996,
				"z": 1.6328119901,
				"element": "C" 
			},
			{
				"x": 1.4839651292,
				"y": 3.8752726963,
				"z": -2.2062620624,
				"element": "H" 
			},
			{
				"x": 0.0747754658,
				"y": 4.7750744847,
				"z": -2.2889084565,
				"element": "H" 
			},
			{
				"x": 1.5519071079,
				"y": 1.6166248048,
				"z": -1.3301511789,
				"element": "H" 
			},
			{
				"x": -2.0604915523,
				"y": 0.1311273943,
				"z": 0.4811742247,
				"element": "H" 
			},
			{
				"x": -3.2660021807,
				"y": 2.1646146509,
				"z": -0.2985651293,
				"element": "H" 
			},
			{
				"x": -2.0824995926,
				"y": 3.9101790708,
				"z": -1.5858829362,
				"element": "H" 
			},
			{
				"x": 3.7158104937,
				"y": -1.9634703577,
				"z": 0.0138908884,
				"element": "H" 
			},
			{
				"x": 4.9365660528,
				"y": -3.9793475631,
				"z": 0.7862354879,
				"element": "H" 
			},
			{
				"x": 3.7526732578,
				"y": -5.7265821064,
				"z": 2.1006980466,
				"element": "H" 
			},
			{
				"x": 1.341287882,
				"y": -5.4457752273,
				"z": 2.6380198871,
				"element": "H" 
			},
			{
				"x": 0.121500396,
				"y": -3.4293719527,
				"z": 1.8654260816,
				"element": "H" 
			}
		],
		 "valence_orbital": [ 
			{
				"type": "occ",
				"energy": -0.2616,
				"method": "rhf"
			},
			{
				"type": "occ",
				"energy": -0.26002,
				"method": "rhf"
			},
			{
				"type": "occ",
				"energy": -0.25208,
				"method": "rhf"
			},
			{
				"type": "occ",
				"energy": -0.21345,
				"method": "rhf"
			},
			{
				"type": "occ",
				"energy": -0.19903,
				"method": "rhf"
			},
			{
				"type": "unocc",
				"energy": -0.04187,
				"method": "rhf"
			},
			{
				"type": "unocc",
				"energy": -0.00075,
				"method": "rhf"
			},
			{
				"type": "unocc",
				"energy": 0.00995,
				"method": "rhf"
			},
			{
				"type": "unocc",
				"energy": 0.01968,
				"method": "rhf"
			},
			{
				"type": "unocc",
				"energy": 0.06007,
				"method": "rhf"
			}
		],
		"cosmo_sigma_profile": { 
			"-0.025": 0.0,
			"-0.024": 0.0,
			"-0.023": 0.0,
			"-0.022": 0.0,
			"-0.021": 0.0,
			"-0.02": 0.0,
			"-0.019": 0.0,
			"-0.018": 0.0,
			"-0.017": 0.0,
			"-0.016": 0.0,
			"-0.015": 0.0,
			"-0.014": 0.0,
			"-0.013": 0.546333364992,
			"-0.012": 2.38857092487,
			"-0.011": 2.95184301793,
			"-0.01": 2.93899820097,
			"-0.009": 2.90579282496,
			"-0.008": 3.04316718894,
			"-0.007": 4.34788968068,
			"-0.006": 14.0243364042,
			"-0.005": 18.4753421109,
			"-0.004": 19.9576148025,
			"-0.003": 15.3422788493,
			"-0.002": 13.156662119,
			"-0.001": 13.3824634621,
			"0.0": 12.2725111923,
			"0.001": 13.4136793102,
			"0.002": 16.6865777664,
			"0.003": 23.2782486368,
			"0.004": 28.5525447608,
			"0.005": 27.6867742568,
			"0.006": 13.7392425349,
			"0.007": 2.01775417997,
			"0.008": 0.498951348309,
			"0.009": 0.597697348423,
			"0.01": 0.672754408762,
			"0.011": 0.961037472754,
			"0.012": 0.606320623541,
			"0.013": 0.602223950941,
			"0.014": 0.558504721431,
			"0.015": 0.172887708257,
			"0.016": 0.0,
			"0.017": 0.0,
			"0.018": 0.0,
			"0.019": 0.0,
			"0.02": 0.0,
			"0.021": 0.0,
			"0.022": 0.0,
			"0.023": 0.0,
			"0.024": 0.0,
			"0.025": 0.0
		}
	}
}
