{
	 "smiles": "CCCCCCC1=CC=CC=C1", 
	 "Tm": 212.15, 
	 "num_atms": 30, 
	 "gaussian": { 
		 "optdone": 1, 
		 "sigma_profile": "yes", 
		 "theory": "DFT", 
		 "functional": "B3LYP", 
		 "basiset": "6-31G**", 
		 "properties": { 
			 "R2extent": 3166.241, 
			 "electric_dipole_moment_norm": 0.22410127175, 
			 "electric_quadrupole_moment_norm": 3.71558232314, 
			 "total_energy": -468.145852214, 
			 "HOMO_LUMO_gap": 0.23804, 
			 "cosmo_polarized_energy": -3.15, 
			 "cosmo_cavitation_energy": 31.29, 
			 "cosmo_dispersion_energy": -21.89, 
			 "cosmo_repulsion_energy": 1.79, 
			 "cosmo_total_nonelectrostatic_energy": 11.19, 
			 "SMD_solvation_energy": 4.67 
		},
		"coords": [
			{
				"x": -1.0430922209,
				"y": 3.5004609814,
				"z": 1.267033694,
				"element": "C" 
			},
			{
				"x": -1.64078876,
				"y": 2.1227991412,
				"z": 1.5840727463,
				"element": "C" 
			},
			{
				"x": -2.181099767,
				"y": 1.3426660456,
				"z": 0.3647543974,
				"element": "C" 
			},
			{
				"x": -1.1820076939,
				"y": 0.4115887971,
				"z": -0.3464629097,
				"element": "C" 
			},
			{
				"x": 0.0087898479,
				"y": 1.0968347478,
				"z": -1.0291996946,
				"element": "C" 
			},
			{
				"x": 0.8977578404,
				"y": 0.1312169485,
				"z": -1.8454622458,
				"element": "C" 
			},
			{
				"x": 1.6291806951,
				"y": -0.8976181187,
				"z": -1.0067167809,
				"element": "C" 
			},
			{
				"x": 2.7521154895,
				"y": -0.529890442,
				"z": -0.2499538453,
				"element": "C" 
			},
			{
				"x": 3.4242774626,
				"y": -1.4619779442,
				"z": 0.5402958637,
				"element": "C" 
			},
			{
				"x": 2.9853777112,
				"y": -2.7873295722,
				"z": 0.5881663033,
				"element": "C" 
			},
			{
				"x": 1.8722247671,
				"y": -3.1691182203,
				"z": -0.1612784376,
				"element": "C" 
			},
			{
				"x": 1.2029527955,
				"y": -2.2311822655,
				"z": -0.9506502411,
				"element": "C" 
			},
			{
				"x": -0.1841945209,
				"y": 3.4371641294,
				"z": 0.5928515574,
				"element": "H" 
			},
			{
				"x": -1.7881610381,
				"y": 4.1465516754,
				"z": 0.7883442034,
				"element": "H" 
			},
			{
				"x": -0.7089317846,
				"y": 4.0033958529,
				"z": 2.1810983219,
				"element": "H" 
			},
			{
				"x": -2.4614957106,
				"y": 2.2680385847,
				"z": 2.2978310854,
				"element": "H" 
			},
			{
				"x": -0.8973984854,
				"y": 1.5068212238,
				"z": 2.1084484186,
				"element": "H" 
			},
			{
				"x": -3.0220320716,
				"y": 0.7200212925,
				"z": 0.6954953553,
				"element": "H" 
			},
			{
				"x": -2.6043084349,
				"y": 2.0519874828,
				"z": -0.3611509218,
				"element": "H" 
			},
			{
				"x": -0.8083302559,
				"y": -0.3271301524,
				"z": 0.3744854885,
				"element": "H" 
			},
			{
				"x": -1.7325712262,
				"y": -0.1621977534,
				"z": -1.1058810295,
				"element": "H" 
			},
			{
				"x": -0.3600624549,
				"y": 1.8820619614,
				"z": -1.7031158848,
				"element": "H" 
			},
			{
				"x": 0.633979717,
				"y": 1.5984710534,
				"z": -0.2809836617,
				"element": "H" 
			},
			{
				"x": 1.6315663169,
				"y": 0.7250093275,
				"z": -2.4050060309,
				"element": "H" 
			},
			{
				"x": 0.2782676619,
				"y": -0.3801926388,
				"z": -2.5928293969,
				"element": "H" 
			},
			{
				"x": 3.1063097274,
				"y": 0.4980612615,
				"z": -0.2867573368,
				"element": "H" 
			},
			{
				"x": 4.2942757648,
				"y": -1.1556445533,
				"z": 1.114839284,
				"element": "H" 
			},
			{
				"x": 3.5095173274,
				"y": -3.5155173876,
				"z": 1.2005568155,
				"element": "H" 
			},
			{
				"x": 1.5245889248,
				"y": -4.1983131816,
				"z": -0.1352104533,
				"element": "H" 
			},
			{
				"x": 0.3392923752,
				"y": -2.5384382769,
				"z": -1.5355146639,
				"element": "H" 
			}
		],
		 "valence_orbital": [ 
			{
				"type": "occ",
				"energy": -0.31256,
				"method": "rhf"
			},
			{
				"type": "occ",
				"energy": -0.30636,
				"method": "rhf"
			},
			{
				"type": "occ",
				"energy": -0.30459,
				"method": "rhf"
			},
			{
				"type": "occ",
				"energy": -0.24427,
				"method": "rhf"
			},
			{
				"type": "occ",
				"energy": -0.23547,
				"method": "rhf"
			},
			{
				"type": "unocc",
				"energy": 0.00257,
				"method": "rhf"
			},
			{
				"type": "unocc",
				"energy": 0.0054,
				"method": "rhf"
			},
			{
				"type": "unocc",
				"energy": 0.08878,
				"method": "rhf"
			},
			{
				"type": "unocc",
				"energy": 0.09827,
				"method": "rhf"
			},
			{
				"type": "unocc",
				"energy": 0.1109,
				"method": "rhf"
			}
		],
		"cosmo_sigma_profile": { 
			"-0.025": 0.0,
			"-0.024": 0.0,
			"-0.023": 0.0,
			"-0.022": 0.0,
			"-0.021": 0.0,
			"-0.02": 0.0,
			"-0.019": 0.0,
			"-0.018": 0.0,
			"-0.017": 0.0,
			"-0.016": 0.0,
			"-0.015": 0.0,
			"-0.014": 0.0,
			"-0.013": 0.0,
			"-0.012": 0.0,
			"-0.011": 0.0,
			"-0.01": 0.0,
			"-0.009": 0.0,
			"-0.008": 0.0,
			"-0.007": 0.0,
			"-0.006": 0.810960054906,
			"-0.005": 7.6806060059,
			"-0.004": 12.4418962895,
			"-0.003": 18.7490893587,
			"-0.002": 31.6997347781,
			"-0.001": 38.8250337759,
			"0.0": 41.7349096152,
			"0.001": 34.9083496167,
			"0.002": 19.558640962,
			"0.003": 8.85938266389,
			"0.004": 8.51340999299,
			"0.005": 7.36731111719,
			"0.006": 8.11043958667,
			"0.007": 4.45433668282,
			"0.008": 0.0118961585184,
			"0.009": 0.0,
			"0.01": 0.0,
			"0.011": 0.0,
			"0.012": 0.0,
			"0.013": 0.0,
			"0.014": 0.0,
			"0.015": 0.0,
			"0.016": 0.0,
			"0.017": 0.0,
			"0.018": 0.0,
			"0.019": 0.0,
			"0.02": 0.0,
			"0.021": 0.0,
			"0.022": 0.0,
			"0.023": 0.0,
			"0.024": 0.0,
			"0.025": 0.0
		}
	}
}
