{
	 "smiles": "COC1=CC=C2NC(=NC2=C1)S(=O)CC1=NC=C(C)C(OC)=C1C", 
	 "Tm": 429.15, 
	 "num_atms": 43, 
	 "gaussian": { 
		 "optdone": 1, 
		 "sigma_profile": "yes", 
		 "theory": "DFT", 
		 "functional": "B3LYP", 
		 "basiset": "6-31G**", 
		 "properties": { 
			 "R2extent": 9336.3909, 
			 "electric_dipole_moment_norm": 4.60148691077, 
			 "electric_quadrupole_moment_norm": 19.4871975084, 
			 "total_energy": -1447.31101495, 
			 "HOMO_LUMO_gap": 0.17484, 
			 "cosmo_polarized_energy": -21.51, 
			 "cosmo_cavitation_energy": 47.36, 
			 "cosmo_dispersion_energy": -32.27, 
			 "cosmo_repulsion_energy": 2.44, 
			 "cosmo_total_nonelectrostatic_energy": 17.52, 
			 "SMD_solvation_energy": 5.7 
		},
		"coords": [
			{
				"x": 3.5841567128,
				"y": -3.3585903176,
				"z": -2.3388539831,
				"element": "C" 
			},
			{
				"x": 3.8999983394,
				"y": -1.9853047756,
				"z": -2.1902716827,
				"element": "O" 
			},
			{
				"x": 3.2766036172,
				"y": -1.2889196738,
				"z": -1.1907772865,
				"element": "C" 
			},
			{
				"x": 3.6512958403,
				"y": 0.0762989973,
				"z": -1.1089865007,
				"element": "C" 
			},
			{
				"x": 3.1142550666,
				"y": 0.9227729715,
				"z": -0.1523217665,
				"element": "C" 
			},
			{
				"x": 2.1824912902,
				"y": 0.3727821016,
				"z": 0.7341419627,
				"element": "C" 
			},
			{
				"x": 1.4545424358,
				"y": 0.8915737876,
				"z": 1.7915171466,
				"element": "N" 
			},
			{
				"x": 0.7005840544,
				"y": -0.136086273,
				"z": 2.2728794149,
				"element": "C" 
			},
			{
				"x": 0.8693681035,
				"y": -1.2799664685,
				"z": 1.656243671,
				"element": "N" 
			},
			{
				"x": 1.7994607868,
				"y": -0.988273412,
				"z": 0.6643562304,
				"element": "C" 
			},
			{
				"x": 2.3488484655,
				"y": -1.8385154874,
				"z": -0.3096573621,
				"element": "C" 
			},
			{
				"x": -0.2782537455,
				"y": 0.2049472242,
				"z": 3.753047323,
				"element": "S" 
			},
			{
				"x": 0.0012245961,
				"y": 1.6693768925,
				"z": 4.0178523439,
				"element": "O" 
			},
			{
				"x": -1.9913697147,
				"y": -0.0233477243,
				"z": 3.0044632862,
				"element": "C" 
			},
			{
				"x": -2.2911363987,
				"y": 0.7589137459,
				"z": 1.758250433,
				"element": "C" 
			},
			{
				"x": -2.4286001076,
				"y": 2.0803270682,
				"z": 1.9458761001,
				"element": "N" 
			},
			{
				"x": -2.6760451775,
				"y": 2.846850224,
				"z": 0.8833988117,
				"element": "C" 
			},
			{
				"x": -2.8411134282,
				"y": 2.365137295,
				"z": -0.4174577013,
				"element": "C" 
			},
			{
				"x": -3.1103574377,
				"y": 3.2845898989,
				"z": -1.5794389179,
				"element": "C" 
			},
			{
				"x": -2.7318609672,
				"y": 0.9766650821,
				"z": -0.5839146204,
				"element": "C" 
			},
			{
				"x": -2.8682244255,
				"y": 0.4505116681,
				"z": -1.8531214534,
				"element": "O" 
			},
			{
				"x": -4.1912572065,
				"y": 0.0275449623,
				"z": -2.1863983567,
				"element": "C" 
			},
			{
				"x": -2.4311748545,
				"y": 0.1346354609,
				"z": 0.4990538515,
				"element": "C" 
			},
			{
				"x": -2.2882815922,
				"y": -1.3556066492,
				"z": 0.297219924,
				"element": "C" 
			},
			{
				"x": 3.8407520047,
				"y": -3.9333767859,
				"z": -1.4391202253,
				"element": "H" 
			},
			{
				"x": 2.5198491745,
				"y": -3.507839195,
				"z": -2.5644012741,
				"element": "H" 
			},
			{
				"x": 4.1825558145,
				"y": -3.718395253,
				"z": -3.1774808804,
				"element": "H" 
			},
			{
				"x": 4.3793522658,
				"y": 0.439774662,
				"z": -1.8261472488,
				"element": "H" 
			},
			{
				"x": 3.4100921442,
				"y": 1.9656985444,
				"z": -0.1017061153,
				"element": "H" 
			},
			{
				"x": 1.4186994957,
				"y": 1.8241661323,
				"z": 2.1846067587,
				"element": "H" 
			},
			{
				"x": 2.0459824028,
				"y": -2.8769008035,
				"z": -0.3488109987,
				"element": "H" 
			},
			{
				"x": -2.6360608815,
				"y": 0.3064747631,
				"z": 3.8239620288,
				"element": "H" 
			},
			{
				"x": -2.0816217949,
				"y": -1.105053623,
				"z": 2.8845229909,
				"element": "H" 
			},
			{
				"x": -2.7590877267,
				"y": 3.9167487741,
				"z": 1.0737391212,
				"element": "H" 
			},
			{
				"x": -4.1357545207,
				"y": 3.1822050119,
				"z": -1.9540807441,
				"element": "H" 
			},
			{
				"x": -2.9701646119,
				"y": 4.3284564096,
				"z": -1.2860084331,
				"element": "H" 
			},
			{
				"x": -2.44258711,
				"y": 3.063464901,
				"z": -2.4171388583,
				"element": "H" 
			},
			{
				"x": -4.5260324358,
				"y": -0.7922515421,
				"z": -1.5386775041,
				"element": "H" 
			},
			{
				"x": -4.1534450575,
				"y": -0.3227373783,
				"z": -3.2197807305,
				"element": "H" 
			},
			{
				"x": -4.9093364695,
				"y": 0.8534911168,
				"z": -2.1106690643,
				"element": "H" 
			},
			{
				"x": -1.3759421902,
				"y": -1.7350288516,
				"z": 0.7651347693,
				"element": "H" 
			},
			{
				"x": -3.1396940269,
				"y": -1.9015097204,
				"z": 0.723676014,
				"element": "H" 
			},
			{
				"x": -2.2398107293,
				"y": -1.5859037609,
				"z": -0.7680204737,
				"element": "H" 
			}
		],
		 "valence_orbital": [ 
			{
				"type": "occ",
				"energy": -0.25648,
				"method": "rhf"
			},
			{
				"type": "occ",
				"energy": -0.24911,
				"method": "rhf"
			},
			{
				"type": "occ",
				"energy": -0.23572,
				"method": "rhf"
			},
			{
				"type": "occ",
				"energy": -0.22072,
				"method": "rhf"
			},
			{
				"type": "occ",
				"energy": -0.2073,
				"method": "rhf"
			},
			{
				"type": "unocc",
				"energy": -0.03246,
				"method": "rhf"
			},
			{
				"type": "unocc",
				"energy": -0.02129,
				"method": "rhf"
			},
			{
				"type": "unocc",
				"energy": -0.01025,
				"method": "rhf"
			},
			{
				"type": "unocc",
				"energy": 0.02435,
				"method": "rhf"
			},
			{
				"type": "unocc",
				"energy": 0.03052,
				"method": "rhf"
			}
		],
		"cosmo_sigma_profile": { 
			"-0.025": 0.0,
			"-0.024": 0.0,
			"-0.023": 0.0,
			"-0.022": 0.0,
			"-0.021": 0.0,
			"-0.02": 0.0,
			"-0.019": 0.0,
			"-0.018": 0.0,
			"-0.017": 0.0,
			"-0.016": 0.201043898125,
			"-0.015": 0.632729733442,
			"-0.014": 1.02870197282,
			"-0.013": 0.497571247606,
			"-0.012": 0.674977705591,
			"-0.011": 0.99220381114,
			"-0.01": 0.935438348018,
			"-0.009": 2.39794372307,
			"-0.008": 5.01475754049,
			"-0.007": 6.50725479371,
			"-0.006": 17.5741781349,
			"-0.005": 30.3136200181,
			"-0.004": 36.5708734908,
			"-0.003": 37.535605059,
			"-0.002": 30.1716925722,
			"-0.001": 26.5154383848,
			"0.0": 27.2243147535,
			"0.001": 28.118876079,
			"0.002": 24.7315205505,
			"0.003": 19.4997851216,
			"0.004": 21.345482682,
			"0.005": 11.0995317876,
			"0.006": 7.00039340458,
			"0.007": 4.85516905327,
			"0.008": 4.47964883158,
			"0.009": 6.03421308241,
			"0.01": 4.36654697779,
			"0.011": 3.63117394607,
			"0.012": 4.20474709434,
			"0.013": 3.84545912308,
			"0.014": 4.44424470504,
			"0.015": 2.1584434744,
			"0.016": 1.57029780587,
			"0.017": 1.04618741618,
			"0.018": 0.464559688384,
			"0.019": 0.0,
			"0.02": 0.0,
			"0.021": 0.0,
			"0.022": 0.0,
			"0.023": 0.0,
			"0.024": 0.0,
			"0.025": 0.0
		}
	}
}
