{
	 "smiles": "ClCC(=O)NC1=C(C=CS1)C#N", 
	 "Tm": 438.15, 
	 "num_atms": 17, 
	 "gaussian": { 
		 "optdone": 1, 
		 "sigma_profile": "yes", 
		 "theory": "DFT", 
		 "functional": "B3LYP", 
		 "basiset": "6-31G**", 
		 "properties": { 
			 "R2extent": 3834.2426, 
			 "electric_dipole_moment_norm": 6.00039432871, 
			 "electric_quadrupole_moment_norm": 13.6948031848, 
			 "total_energy": -1312.83105582, 
			 "HOMO_LUMO_gap": 0.17759, 
			 "cosmo_polarized_energy": -17.73, 
			 "cosmo_cavitation_energy": 26.21, 
			 "cosmo_dispersion_energy": -19.39, 
			 "cosmo_repulsion_energy": 1.51, 
			 "cosmo_total_nonelectrostatic_energy": 8.33, 
			 "SMD_solvation_energy": 6.35 
		},
		"coords": [
			{
				"x": -2.0976608846,
				"y": -4.320269987,
				"z": 1.3642033943,
				"element": "Cl" 
			},
			{
				"x": -1.1534619563,
				"y": -2.8088713752,
				"z": 1.4648847657,
				"element": "C" 
			},
			{
				"x": -1.1446526139,
				"y": -2.0456506754,
				"z": 0.142328846,
				"element": "C" 
			},
			{
				"x": -1.7105486585,
				"y": -2.4163899848,
				"z": -0.8631836236,
				"element": "O" 
			},
			{
				"x": -0.430338702,
				"y": -0.8444567915,
				"z": 0.114668792,
				"element": "N" 
			},
			{
				"x": 0.3158204754,
				"y": -0.1242001549,
				"z": 1.0308880207,
				"element": "C" 
			},
			{
				"x": 0.9409663488,
				"y": 1.0826839203,
				"z": 0.7310771637,
				"element": "C" 
			},
			{
				"x": 1.6551343061,
				"y": 1.6374219238,
				"z": 1.8461966346,
				"element": "C" 
			},
			{
				"x": 1.5717760618,
				"y": 0.8684135765,
				"z": 2.9618206781,
				"element": "C" 
			},
			{
				"x": 0.6150994187,
				"y": -0.5671631304,
				"z": 2.6929875692,
				"element": "S" 
			},
			{
				"x": 0.8544624405,
				"y": 1.6690928819,
				"z": -0.5604047093,
				"element": "C" 
			},
			{
				"x": 0.7546992527,
				"y": 2.1104324692,
				"z": -1.6342276375,
				"element": "N" 
			},
			{
				"x": -1.5921239979,
				"y": -2.1936551313,
				"z": 2.2544732106,
				"element": "H" 
			},
			{
				"x": -0.1338159658,
				"y": -3.0715928771,
				"z": 1.7575656858,
				"element": "H" 
			},
			{
				"x": -0.486735841,
				"y": -0.4168885606,
				"z": -0.806816398,
				"element": "H" 
			},
			{
				"x": 2.1991272243,
				"y": 2.5719251179,
				"z": 1.7899406483,
				"element": "H" 
			},
			{
				"x": 2.004353092,
				"y": 1.0345687785,
				"z": 3.9375969595,
				"element": "H" 
			}
		],
		 "valence_orbital": [ 
			{
				"type": "occ",
				"energy": -0.31439,
				"method": "rhf"
			},
			{
				"type": "occ",
				"energy": -0.31302,
				"method": "rhf"
			},
			{
				"type": "occ",
				"energy": -0.29429,
				"method": "rhf"
			},
			{
				"type": "occ",
				"energy": -0.28748,
				"method": "rhf"
			},
			{
				"type": "occ",
				"energy": -0.24236,
				"method": "rhf"
			},
			{
				"type": "unocc",
				"energy": -0.06477,
				"method": "rhf"
			},
			{
				"type": "unocc",
				"energy": -0.02927,
				"method": "rhf"
			},
			{
				"type": "unocc",
				"energy": -0.01183,
				"method": "rhf"
			},
			{
				"type": "unocc",
				"energy": 0.00045,
				"method": "rhf"
			},
			{
				"type": "unocc",
				"energy": 0.01597,
				"method": "rhf"
			}
		],
		"cosmo_sigma_profile": { 
			"-0.025": 0.0,
			"-0.024": 0.0,
			"-0.023": 0.0,
			"-0.022": 0.0,
			"-0.021": 0.0,
			"-0.02": 0.0,
			"-0.019": 0.0,
			"-0.018": 0.0,
			"-0.017": 0.0,
			"-0.016": 0.0,
			"-0.015": 0.0,
			"-0.014": 0.0,
			"-0.013": 0.651589439105,
			"-0.012": 1.61399901968,
			"-0.011": 3.11834429637,
			"-0.01": 6.82295257421,
			"-0.009": 7.78062014951,
			"-0.008": 9.59263143998,
			"-0.007": 8.09215027257,
			"-0.006": 9.38405704456,
			"-0.005": 9.97264189868,
			"-0.004": 9.33908883693,
			"-0.003": 10.0777148533,
			"-0.002": 13.9341058185,
			"-0.001": 14.0469042998,
			"0.0": 14.8396572755,
			"0.001": 15.2304747441,
			"0.002": 10.9757704965,
			"0.003": 8.39082260335,
			"0.004": 9.6391782317,
			"0.005": 10.7121862605,
			"0.006": 6.22003704525,
			"0.007": 4.32548731309,
			"0.008": 5.03828132213,
			"0.009": 5.21148785236,
			"0.01": 5.69376291304,
			"0.011": 7.94244878405,
			"0.012": 5.35814180741,
			"0.013": 2.12274880857,
			"0.014": 0.00380310717283,
			"0.015": 0.0,
			"0.016": 0.0,
			"0.017": 0.0,
			"0.018": 0.0,
			"0.019": 0.0,
			"0.02": 0.0,
			"0.021": 0.0,
			"0.022": 0.0,
			"0.023": 0.0,
			"0.024": 0.0,
			"0.025": 0.0
		}
	}
}
