{
	 "smiles": "OC1=C(C2CC(CC3=CC=CC=C23)C2=CC=C(C=C2)C2=CC=C(Br)C=C2)C(=O)C2=C(S1)C=CC=C2", 
	 "Tm": 508.15, 
	 "num_atms": 58, 
	 "gaussian": { 
		 "optdone": 1, 
		 "sigma_profile": "yes", 
		 "theory": "DFT", 
		 "functional": "B3LYP", 
		 "basiset": "6-31G**", 
		 "properties": { 
			 "R2extent": 31583.7927, 
			 "electric_dipole_moment_norm": 6.83941170643, 
			 "electric_quadrupole_moment_norm": 19.9157922978, 
			 "total_energy": -4315.21401728, 
			 "HOMO_LUMO_gap": 0.15447, 
			 "cosmo_polarized_energy": -20.42, 
			 "cosmo_cavitation_energy": 63.79, 
			 "cosmo_dispersion_energy": -44.23, 
			 "cosmo_repulsion_energy": 3.22, 
			 "cosmo_total_nonelectrostatic_energy": 22.79, 
			 "SMD_solvation_energy": 8.82 
		},
		"coords": [
			{
				"x": -0.703543494,
				"y": -1.2934692182,
				"z": -4.2928487147,
				"element": "O" 
			},
			{
				"x": -1.7359818977,
				"y": -0.745455692,
				"z": -3.6021715114,
				"element": "C" 
			},
			{
				"x": -1.5755349355,
				"y": -0.3961684722,
				"z": -2.2992871056,
				"element": "C" 
			},
			{
				"x": -0.2599154408,
				"y": -0.6600017416,
				"z": -1.571799764,
				"element": "C" 
			},
			{
				"x": 0.840077312,
				"y": 0.3064019939,
				"z": -2.0593718639,
				"element": "C" 
			},
			{
				"x": 2.2189522831,
				"y": -0.0037130975,
				"z": -1.4334000366,
				"element": "C" 
			},
			{
				"x": 2.6287384482,
				"y": -1.4270224041,
				"z": -1.8505234585,
				"element": "C" 
			},
			{
				"x": 1.5418537684,
				"y": -2.4739513148,
				"z": -1.6748630813,
				"element": "C" 
			},
			{
				"x": 1.9054156885,
				"y": -3.8281353562,
				"z": -1.6167289624,
				"element": "C" 
			},
			{
				"x": 0.9529628601,
				"y": -4.8325383202,
				"z": -1.469097736,
				"element": "C" 
			},
			{
				"x": -0.3955838522,
				"y": -4.484924317,
				"z": -1.3657920629,
				"element": "C" 
			},
			{
				"x": -0.7672084418,
				"y": -3.1442039698,
				"z": -1.4205432231,
				"element": "C" 
			},
			{
				"x": 0.1817530717,
				"y": -2.1238889711,
				"z": -1.5858324781,
				"element": "C" 
			},
			{
				"x": 2.254931721,
				"y": 0.2749791941,
				"z": 0.0656560297,
				"element": "C" 
			},
			{
				"x": 2.2382796254,
				"y": -0.7260689365,
				"z": 1.0456475512,
				"element": "C" 
			},
			{
				"x": 2.2677677676,
				"y": -0.4070391021,
				"z": 2.4034583924,
				"element": "C" 
			},
			{
				"x": 2.3165312905,
				"y": 0.9253526253,
				"z": 2.8387342842,
				"element": "C" 
			},
			{
				"x": 2.3375730525,
				"y": 1.9303002573,
				"z": 1.8562650728,
				"element": "C" 
			},
			{
				"x": 2.3086435521,
				"y": 1.6078642116,
				"z": 0.5038295923,
				"element": "C" 
			},
			{
				"x": 2.3478713342,
				"y": 1.2634650133,
				"z": 4.2830596077,
				"element": "C" 
			},
			{
				"x": 1.6591108236,
				"y": 2.3828848934,
				"z": 4.7805812963,
				"element": "C" 
			},
			{
				"x": 1.6840566778,
				"y": 2.7087852456,
				"z": 6.1353352126,
				"element": "C" 
			},
			{
				"x": 2.4063552348,
				"y": 1.9049974446,
				"z": 7.0150676782,
				"element": "C" 
			},
			{
				"x": 2.4468861286,
				"y": 2.3426094317,
				"z": 8.876808606,
				"element": "Br" 
			},
			{
				"x": 3.0995228324,
				"y": 0.7865481743,
				"z": 6.5564920212,
				"element": "C" 
			},
			{
				"x": 3.0664269733,
				"y": 0.4756112153,
				"z": 5.198389225,
				"element": "C" 
			},
			{
				"x": -2.6328216499,
				"y": 0.279003768,
				"z": -1.5290729393,
				"element": "C" 
			},
			{
				"x": -2.4264109152,
				"y": 0.65018341,
				"z": -0.3703463408,
				"element": "O" 
			},
			{
				"x": -3.9871664491,
				"y": 0.4851319766,
				"z": -2.1283866197,
				"element": "C" 
			},
			{
				"x": -4.3343289663,
				"y": 0.1552749674,
				"z": -3.4474737465,
				"element": "C" 
			},
			{
				"x": -3.1657533291,
				"y": -0.4967537634,
				"z": -4.6017842893,
				"element": "S" 
			},
			{
				"x": -5.6370502815,
				"y": 0.368350979,
				"z": -3.9258460565,
				"element": "C" 
			},
			{
				"x": -6.599244808,
				"y": 0.9121803616,
				"z": -3.0853315182,
				"element": "C" 
			},
			{
				"x": -6.271847425,
				"y": 1.2476594885,
				"z": -1.7643167102,
				"element": "C" 
			},
			{
				"x": -4.9833339869,
				"y": 1.0345162727,
				"z": -1.2992710587,
				"element": "C" 
			},
			{
				"x": -1.0218916911,
				"y": -1.8228166653,
				"z": -5.0380614038,
				"element": "H" 
			},
			{
				"x": -0.4720999118,
				"y": -0.4000163986,
				"z": -0.5279982566,
				"element": "H" 
			},
			{
				"x": 0.9364550268,
				"y": 0.2382861849,
				"z": -3.1486738378,
				"element": "H" 
			},
			{
				"x": 0.5355619181,
				"y": 1.3311024588,
				"z": -1.8222021944,
				"element": "H" 
			},
			{
				"x": 2.9370734458,
				"y": 0.6893316993,
				"z": -1.8916006388,
				"element": "H" 
			},
			{
				"x": 2.9105475062,
				"y": -1.3930859725,
				"z": -2.9123745626,
				"element": "H" 
			},
			{
				"x": 3.5310594843,
				"y": -1.7386444904,
				"z": -1.3114658176,
				"element": "H" 
			},
			{
				"x": 2.9589852146,
				"y": -4.0911036234,
				"z": -1.6864097106,
				"element": "H" 
			},
			{
				"x": 1.2594603467,
				"y": -5.8738609537,
				"z": -1.424886178,
				"element": "H" 
			},
			{
				"x": -1.1530927488,
				"y": -5.2531155711,
				"z": -1.2368429464,
				"element": "H" 
			},
			{
				"x": -1.8168852241,
				"y": -2.8776201034,
				"z": -1.3326833461,
				"element": "H" 
			},
			{
				"x": 2.1869064292,
				"y": -1.7700415351,
				"z": 0.7557253694,
				"element": "H" 
			},
			{
				"x": 2.2234743496,
				"y": -1.2082069646,
				"z": 3.135647545,
				"element": "H" 
			},
			{
				"x": 2.4091091266,
				"y": 2.971968405,
				"z": 2.1557478167,
				"element": "H" 
			},
			{
				"x": 2.3428836794,
				"y": 2.4085749533,
				"z": -0.2317784346,
				"element": "H" 
			},
			{
				"x": 1.0719286627,
				"y": 2.9946980014,
				"z": 4.1025838606,
				"element": "H" 
			},
			{
				"x": 1.1401454784,
				"y": 3.5708166118,
				"z": 6.5047684464,
				"element": "H" 
			},
			{
				"x": 3.6651796163,
				"y": 0.1731333873,
				"z": 7.2487352537,
				"element": "H" 
			},
			{
				"x": 3.6294828757,
				"y": -0.3810448978,
				"z": 4.840681843,
				"element": "H" 
			},
			{
				"x": -5.8880017606,
				"y": 0.1066919718,
				"z": -4.9498464181,
				"element": "H" 
			},
			{
				"x": -7.6062731466,
				"y": 1.0737452265,
				"z": -3.4583598674,
				"element": "H" 
			},
			{
				"x": -7.0249031829,
				"y": 1.6722044271,
				"z": -1.1076355941,
				"element": "H" 
			},
			{
				"x": -4.6937900674,
				"y": 1.2816376012,
				"z": -0.2838062195,
				"element": "H" 
			}
		],
		 "valence_orbital": [ 
			{
				"type": "occ",
				"energy": -0.24462,
				"method": "rhf"
			},
			{
				"type": "occ",
				"energy": -0.23672,
				"method": "rhf"
			},
			{
				"type": "occ",
				"energy": -0.23069,
				"method": "rhf"
			},
			{
				"type": "occ",
				"energy": -0.22263,
				"method": "rhf"
			},
			{
				"type": "occ",
				"energy": -0.21334,
				"method": "rhf"
			},
			{
				"type": "unocc",
				"energy": -0.05887,
				"method": "rhf"
			},
			{
				"type": "unocc",
				"energy": -0.02824,
				"method": "rhf"
			},
			{
				"type": "unocc",
				"energy": -0.02621,
				"method": "rhf"
			},
			{
				"type": "unocc",
				"energy": -0.01354,
				"method": "rhf"
			},
			{
				"type": "unocc",
				"energy": -0.00846,
				"method": "rhf"
			}
		],
		"cosmo_sigma_profile": { 
			"-0.025": 0.0,
			"-0.024": 0.0,
			"-0.023": 0.0,
			"-0.022": 0.0,
			"-0.021": 0.0,
			"-0.02": 0.195493030851,
			"-0.019": 0.966528660049,
			"-0.018": 1.17484926358,
			"-0.017": 0.915760013221,
			"-0.016": 0.948194382799,
			"-0.015": 0.863382489574,
			"-0.014": 0.952284050899,
			"-0.013": 1.00391579333,
			"-0.012": 0.768933228012,
			"-0.011": 0.708835772235,
			"-0.01": 0.587774695138,
			"-0.009": 0.496592251421,
			"-0.008": 2.44110254203,
			"-0.007": 8.046711793,
			"-0.006": 18.5942329224,
			"-0.005": 30.494053464,
			"-0.004": 37.1017221827,
			"-0.003": 45.3577844998,
			"-0.002": 40.8075668532,
			"-0.001": 39.7689566894,
			"0.0": 38.553232185,
			"0.001": 44.0148494457,
			"0.002": 47.1578434488,
			"0.003": 50.7818471826,
			"0.004": 40.1656086094,
			"0.005": 26.2158142478,
			"0.006": 13.4161728232,
			"0.007": 7.50444197807,
			"0.008": 3.09101713103,
			"0.009": 1.68593329312,
			"0.01": 1.6260987596,
			"0.011": 1.69879069675,
			"0.012": 2.40944021512,
			"0.013": 3.96949318305,
			"0.014": 0.696024827151,
			"0.015": 0.0,
			"0.016": 0.0,
			"0.017": 0.0,
			"0.018": 0.0,
			"0.019": 0.0,
			"0.02": 0.0,
			"0.021": 0.0,
			"0.022": 0.0,
			"0.023": 0.0,
			"0.024": 0.0,
			"0.025": 0.0
		}
	}
}
