{
	 "smiles": "NC(=O)C1=CC(=CC=C1)C(N)=S", 
	 "Tm": 484.15, 
	 "num_atms": 20, 
	 "gaussian": { 
		 "optdone": 1, 
		 "sigma_profile": "yes", 
		 "theory": "DFT", 
		 "functional": "B3LYP", 
		 "basiset": "6-31G**", 
		 "properties": { 
			 "R2extent": 3674.3083, 
			 "electric_dipole_moment_norm": 5.36288749276, 
			 "electric_quadrupole_moment_norm": 19.5338097311, 
			 "total_energy": -892.615773831, 
			 "HOMO_LUMO_gap": 0.14275, 
			 "cosmo_polarized_energy": -22.76, 
			 "cosmo_cavitation_energy": 26.27, 
			 "cosmo_dispersion_energy": -19.84, 
			 "cosmo_repulsion_energy": 1.55, 
			 "cosmo_total_nonelectrostatic_energy": 7.97, 
			 "SMD_solvation_energy": 4.39 
		},
		"coords": [
			{
				"x": 0.8355492172,
				"y": 2.9981991804,
				"z": -0.2509386458,
				"element": "N" 
			},
			{
				"x": -0.0859892143,
				"y": 2.0239554642,
				"z": 0.0398147314,
				"element": "C" 
			},
			{
				"x": -1.2634422554,
				"y": 2.1327250592,
				"z": -0.2818812115,
				"element": "O" 
			},
			{
				"x": 0.426803892,
				"y": 0.8049164859,
				"z": 0.7578831381,
				"element": "C" 
			},
			{
				"x": -0.5336880545,
				"y": -0.0510381173,
				"z": 1.3075618882,
				"element": "C" 
			},
			{
				"x": -0.1613412722,
				"y": -1.2133411988,
				"z": 1.9954864118,
				"element": "C" 
			},
			{
				"x": 1.2046397764,
				"y": -1.5219727191,
				"z": 2.1086545811,
				"element": "C" 
			},
			{
				"x": 2.1649771863,
				"y": -0.6811140083,
				"z": 1.5548441121,
				"element": "C" 
			},
			{
				"x": 1.7833443544,
				"y": 0.4801388376,
				"z": 0.8798657828,
				"element": "C" 
			},
			{
				"x": -1.1860177123,
				"y": -2.1232318083,
				"z": 2.5888731717,
				"element": "C" 
			},
			{
				"x": -2.3561779753,
				"y": -1.5357111134,
				"z": 2.9175538207,
				"element": "N" 
			},
			{
				"x": -0.9381404178,
				"y": -3.7582718295,
				"z": 2.8185879756,
				"element": "S" 
			},
			{
				"x": 1.7005964865,
				"y": 3.0652431245,
				"z": 0.2610717387,
				"element": "H" 
			},
			{
				"x": 0.4580672616,
				"y": 3.8541631014,
				"z": -0.6308765689,
				"element": "H" 
			},
			{
				"x": -1.5734557475,
				"y": 0.2073073272,
				"z": 1.1355372245,
				"element": "H" 
			},
			{
				"x": 1.4901356254,
				"y": -2.4305729015,
				"z": 2.6271049797,
				"element": "H" 
			},
			{
				"x": 3.2170730576,
				"y": -0.9349128748,
				"z": 1.641218811,
				"element": "H" 
			},
			{
				"x": 2.5461020958,
				"y": 1.1025361427,
				"z": 0.4213594455,
				"element": "H" 
			},
			{
				"x": -2.4700082126,
				"y": -0.5332826619,
				"z": 2.9164768239,
				"element": "H" 
			},
			{
				"x": -3.0846280913,
				"y": -2.1083354902,
				"z": 3.3175017891,
				"element": "H" 
			}
		],
		 "valence_orbital": [ 
			{
				"type": "occ",
				"energy": -0.27423,
				"method": "rhf"
			},
			{
				"type": "occ",
				"energy": -0.27115,
				"method": "rhf"
			},
			{
				"type": "occ",
				"energy": -0.2601,
				"method": "rhf"
			},
			{
				"type": "occ",
				"energy": -0.23075,
				"method": "rhf"
			},
			{
				"type": "occ",
				"energy": -0.20986,
				"method": "rhf"
			},
			{
				"type": "unocc",
				"energy": -0.06711,
				"method": "rhf"
			},
			{
				"type": "unocc",
				"energy": -0.04516,
				"method": "rhf"
			},
			{
				"type": "unocc",
				"energy": 0.00744,
				"method": "rhf"
			},
			{
				"type": "unocc",
				"energy": 0.0546,
				"method": "rhf"
			},
			{
				"type": "unocc",
				"energy": 0.06265,
				"method": "rhf"
			}
		],
		"cosmo_sigma_profile": { 
			"-0.025": 0.0,
			"-0.024": 0.0,
			"-0.023": 0.0,
			"-0.022": 0.0,
			"-0.021": 0.0,
			"-0.02": 0.0,
			"-0.019": 0.0,
			"-0.018": 0.0,
			"-0.017": 0.0,
			"-0.016": 0.55263386243,
			"-0.015": 2.44657726858,
			"-0.014": 4.33939046642,
			"-0.013": 5.39982525709,
			"-0.012": 4.88335020964,
			"-0.011": 5.30146133439,
			"-0.01": 3.83433751498,
			"-0.009": 4.65046214112,
			"-0.008": 4.89135786775,
			"-0.007": 5.96852708307,
			"-0.006": 6.81197173391,
			"-0.005": 7.97535933557,
			"-0.004": 8.86900773086,
			"-0.003": 7.96870841115,
			"-0.002": 7.63099288422,
			"-0.001": 11.6992932366,
			"0.0": 12.6313359113,
			"0.001": 12.1134659034,
			"0.002": 17.1946270955,
			"0.003": 13.8593522169,
			"0.004": 7.25136991013,
			"0.005": 5.8112649433,
			"0.006": 6.70538628176,
			"0.007": 6.51969068338,
			"0.008": 8.01020591117,
			"0.009": 7.83047071774,
			"0.01": 5.23484052768,
			"0.011": 5.27041342785,
			"0.012": 2.9983540435,
			"0.013": 5.08811793314,
			"0.014": 2.58069918476,
			"0.015": 0.125276023748,
			"0.016": 0.0,
			"0.017": 0.0,
			"0.018": 0.0,
			"0.019": 0.0,
			"0.02": 0.0,
			"0.021": 0.0,
			"0.022": 0.0,
			"0.023": 0.0,
			"0.024": 0.0,
			"0.025": 0.0
		}
	}
}
