{
	 "smiles": "CNC1CCS(=O)(=O)C2=C1C=C(Br)C=C2", 
	 "Tm": 382.15, 
	 "num_atms": 27, 
	 "gaussian": { 
		 "optdone": 1, 
		 "sigma_profile": "yes", 
		 "theory": "DFT", 
		 "functional": "B3LYP", 
		 "basiset": "6-31G**", 
		 "properties": { 
			 "R2extent": 6222.4131, 
			 "electric_dipole_moment_norm": 4.90705615415, 
			 "electric_quadrupole_moment_norm": 20.0434842358, 
			 "total_energy": -3563.01238119, 
			 "HOMO_LUMO_gap": 0.19956, 
			 "cosmo_polarized_energy": -16.82, 
			 "cosmo_cavitation_energy": 32.29, 
			 "cosmo_dispersion_energy": -24.19, 
			 "cosmo_repulsion_energy": 1.84, 
			 "cosmo_total_nonelectrostatic_energy": 9.94, 
			 "SMD_solvation_energy": 2.22 
		},
		"coords": [
			{
				"x": -0.3838691516,
				"y": -1.6595569501,
				"z": -1.4025015781,
				"element": "C" 
			},
			{
				"x": 0.7335695126,
				"y": -0.9043056768,
				"z": -1.9627759224,
				"element": "N" 
			},
			{
				"x": 1.6543502331,
				"y": -0.2722701044,
				"z": -1.007715341,
				"element": "C" 
			},
			{
				"x": 2.3457591199,
				"y": -1.2352925474,
				"z": 0.0028809159,
				"element": "C" 
			},
			{
				"x": 1.678561551,
				"y": -1.3653889616,
				"z": 1.373218379,
				"element": "C" 
			},
			{
				"x": 1.7617343897,
				"y": 0.2330940352,
				"z": 2.208202415,
				"element": "S" 
			},
			{
				"x": 3.1821687839,
				"y": 0.614891641,
				"z": 2.3029094438,
				"element": "O" 
			},
			{
				"x": 0.9283640773,
				"y": 0.2129479496,
				"z": 3.4208817228,
				"element": "O" 
			},
			{
				"x": 0.9448997365,
				"y": 1.2635765462,
				"z": 0.9845453923,
				"element": "C" 
			},
			{
				"x": 0.9668514939,
				"y": 0.9510072904,
				"z": -0.3833375689,
				"element": "C" 
			},
			{
				"x": 0.3055824507,
				"y": 1.8283109268,
				"z": -1.2575024406,
				"element": "C" 
			},
			{
				"x": -0.3223948027,
				"y": 2.9693568848,
				"z": -0.7738879031,
				"element": "C" 
			},
			{
				"x": -1.1946813301,
				"y": 4.1447387847,
				"z": -1.9997622569,
				"element": "Br" 
			},
			{
				"x": -0.3400976185,
				"y": 3.2721059754,
				"z": 0.5891649048,
				"element": "C" 
			},
			{
				"x": 0.2923510984,
				"y": 2.402765517,
				"z": 1.4687887641,
				"element": "C" 
			},
			{
				"x": -1.004619574,
				"y": -0.9954856199,
				"z": -0.7926462203,
				"element": "H" 
			},
			{
				"x": -1.0070716111,
				"y": -2.0293886495,
				"z": -2.221823324,
				"element": "H" 
			},
			{
				"x": -0.098935409,
				"y": -2.5257191774,
				"z": -0.7816863679,
				"element": "H" 
			},
			{
				"x": 1.2684970549,
				"y": -1.493829372,
				"z": -2.5936617783,
				"element": "H" 
			},
			{
				"x": 2.4623231498,
				"y": 0.1298492747,
				"z": -1.6325135662,
				"element": "H" 
			},
			{
				"x": 3.3739378448,
				"y": -0.8995957507,
				"z": 0.170472666,
				"element": "H" 
			},
			{
				"x": 2.4110695267,
				"y": -2.2269833137,
				"z": -0.4589161847,
				"element": "H" 
			},
			{
				"x": 0.6249977222,
				"y": -1.6508522742,
				"z": 1.335578898,
				"element": "H" 
			},
			{
				"x": 2.2145555623,
				"y": -2.0618704369,
				"z": 2.0244412702,
				"element": "H" 
			},
			{
				"x": 0.280010428,
				"y": 1.5873507258,
				"z": -2.3132308214,
				"element": "H" 
			},
			{
				"x": -0.8465098437,
				"y": 4.1590615658,
				"z": 0.9511725633,
				"element": "H" 
			},
			{
				"x": 0.268895605,
				"y": 2.5866817176,
				"z": 2.5378039385,
				"element": "H" 
			}
		],
		 "valence_orbital": [ 
			{
				"type": "occ",
				"energy": -0.29532,
				"method": "rhf"
			},
			{
				"type": "occ",
				"energy": -0.28563,
				"method": "rhf"
			},
			{
				"type": "occ",
				"energy": -0.27482,
				"method": "rhf"
			},
			{
				"type": "occ",
				"energy": -0.25562,
				"method": "rhf"
			},
			{
				"type": "occ",
				"energy": -0.24223,
				"method": "rhf"
			},
			{
				"type": "unocc",
				"energy": -0.04267,
				"method": "rhf"
			},
			{
				"type": "unocc",
				"energy": -0.03436,
				"method": "rhf"
			},
			{
				"type": "unocc",
				"energy": -0.00204,
				"method": "rhf"
			},
			{
				"type": "unocc",
				"energy": 0.05679,
				"method": "rhf"
			},
			{
				"type": "unocc",
				"energy": 0.06386,
				"method": "rhf"
			}
		],
		"cosmo_sigma_profile": { 
			"-0.025": 0.0,
			"-0.024": 0.0,
			"-0.023": 0.0,
			"-0.022": 0.0,
			"-0.021": 0.0,
			"-0.02": 0.0,
			"-0.019": 0.0,
			"-0.018": 0.0,
			"-0.017": 0.0,
			"-0.016": 0.0,
			"-0.015": 0.0,
			"-0.014": 0.0,
			"-0.013": 0.0,
			"-0.012": 0.0,
			"-0.011": 0.607367738143,
			"-0.01": 1.66558017622,
			"-0.009": 2.83348866149,
			"-0.008": 7.06692167092,
			"-0.007": 11.268137281,
			"-0.006": 14.958858569,
			"-0.005": 19.4511042396,
			"-0.004": 21.9515094321,
			"-0.003": 18.5571126458,
			"-0.002": 16.3830246919,
			"-0.001": 15.9091802448,
			"0.0": 18.5878357438,
			"0.001": 22.8823274017,
			"0.002": 16.6397384829,
			"0.003": 11.8706022063,
			"0.004": 14.6495083821,
			"0.005": 4.0045094247,
			"0.006": 3.05518334984,
			"0.007": 3.16975278465,
			"0.008": 3.10744931559,
			"0.009": 4.33848972282,
			"0.01": 5.20243966616,
			"0.011": 10.771669811,
			"0.012": 8.82373452052,
			"0.013": 0.965775676901,
			"0.014": 0.0,
			"0.015": 0.0,
			"0.016": 0.0,
			"0.017": 0.0,
			"0.018": 0.0,
			"0.019": 0.0,
			"0.02": 0.0,
			"0.021": 0.0,
			"0.022": 0.0,
			"0.023": 0.0,
			"0.024": 0.0,
			"0.025": 0.0
		}
	}
}
