{
	 "smiles": "N#CCC1=NC(=CS1)C12CC3CC(CC(C3)C1)C2", 
	 "Tm": 331.15, 
	 "num_atms": 36, 
	 "gaussian": { 
		 "optdone": 1, 
		 "sigma_profile": "yes", 
		 "theory": "DFT", 
		 "functional": "B3LYP", 
		 "basiset": "6-31G**", 
		 "properties": { 
			 "R2extent": 6730.8735, 
			 "electric_dipole_moment_norm": 3.97171669936, 
			 "electric_quadrupole_moment_norm": 33.6872424018, 
			 "total_energy": -1090.14097115, 
			 "HOMO_LUMO_gap": 0.20935, 
			 "cosmo_polarized_energy": -9.97, 
			 "cosmo_cavitation_energy": 36.96, 
			 "cosmo_dispersion_energy": -27.02, 
			 "cosmo_repulsion_energy": 2.03, 
			 "cosmo_total_nonelectrostatic_energy": 11.97, 
			 "SMD_solvation_energy": 4.92 
		},
		"coords": [
			{
				"x": -7.3862203525,
				"y": -0.2400819143,
				"z": -0.4378735585,
				"element": "N" 
			},
			{
				"x": -6.4068166384,
				"y": -0.0522214199,
				"z": 0.1550184963,
				"element": "C" 
			},
			{
				"x": -5.1757314192,
				"y": 0.1771549173,
				"z": 0.9171262113,
				"element": "C" 
			},
			{
				"x": -3.9567152026,
				"y": -0.5206986203,
				"z": 0.3573802232,
				"element": "C" 
			},
			{
				"x": -2.7806324707,
				"y": 0.029690935,
				"z": 0.3686802177,
				"element": "N" 
			},
			{
				"x": -1.8066115453,
				"y": -0.8186739898,
				"z": -0.1338224771,
				"element": "C" 
			},
			{
				"x": -2.2799839294,
				"y": -2.0403930991,
				"z": -0.5311000904,
				"element": "C" 
			},
			{
				"x": -3.992549491,
				"y": -2.1527739644,
				"z": -0.2811611782,
				"element": "S" 
			},
			{
				"x": -0.377666138,
				"y": -0.3229534565,
				"z": -0.1954177494,
				"element": "C" 
			},
			{
				"x": -0.3029609058,
				"y": 0.9513403932,
				"z": -1.084241206,
				"element": "C" 
			},
			{
				"x": 1.1392800286,
				"y": 1.4950440676,
				"z": -1.1264546704,
				"element": "C" 
			},
			{
				"x": 2.0758835056,
				"y": 0.4183834469,
				"z": -1.7113317578,
				"element": "C" 
			},
			{
				"x": 2.0259499363,
				"y": -0.8424631131,
				"z": -0.8240793871,
				"element": "C" 
			},
			{
				"x": 2.4865535382,
				"y": -0.4835240791,
				"z": 0.6037069234,
				"element": "C" 
			},
			{
				"x": 1.5503011419,
				"y": 0.5928639937,
				"z": 1.1895997087,
				"element": "C" 
			},
			{
				"x": 1.5965889316,
				"y": 1.8538496855,
				"z": 0.3024025802,
				"element": "C" 
			},
			{
				"x": 0.1087705813,
				"y": 0.0478583076,
				"z": 1.2347634929,
				"element": "C" 
			},
			{
				"x": 0.5821762527,
				"y": -1.3857948777,
				"z": -0.7799238762,
				"element": "C" 
			},
			{
				"x": -4.9552469679,
				"y": 1.2489474496,
				"z": 0.9419337277,
				"element": "H" 
			},
			{
				"x": -5.3517034968,
				"y": -0.1385640138,
				"z": 1.9541974023,
				"element": "H" 
			},
			{
				"x": -1.7365378134,
				"y": -2.8658794554,
				"z": -0.9654779568,
				"element": "H" 
			},
			{
				"x": -0.6460202665,
				"y": 0.7076170125,
				"z": -2.0982710387,
				"element": "H" 
			},
			{
				"x": -0.9895902144,
				"y": 1.7073108682,
				"z": -0.6874558297,
				"element": "H" 
			},
			{
				"x": 1.1662292112,
				"y": 2.3914358757,
				"z": -1.758976003,
				"element": "H" 
			},
			{
				"x": 3.1040615738,
				"y": 0.7992496889,
				"z": -1.7656093503,
				"element": "H" 
			},
			{
				"x": 1.772844587,
				"y": 0.1710228932,
				"z": -2.7373054858,
				"element": "H" 
			},
			{
				"x": 2.6851948854,
				"y": -1.6139768221,
				"z": -1.2415602586,
				"element": "H" 
			},
			{
				"x": 3.5208480982,
				"y": -0.1161230479,
				"z": 0.5837144408,
				"element": "H" 
			},
			{
				"x": 2.4781739344,
				"y": -1.3783838357,
				"z": 1.240016903,
				"element": "H" 
			},
			{
				"x": 1.8702521824,
				"y": 0.8460562374,
				"z": 2.208415887,
				"element": "H" 
			},
			{
				"x": 0.9474837245,
				"y": 2.6337422818,
				"z": 0.7213487283,
				"element": "H" 
			},
			{
				"x": 2.6151700658,
				"y": 2.2629739065,
				"z": 0.2810927223,
				"element": "H" 
			},
			{
				"x": 0.0600022949,
				"y": -0.8413308388,
				"z": 1.8771090654,
				"element": "H" 
			},
			{
				"x": -0.5720941038,
				"y": 0.7909805654,
				"z": 1.6645136302,
				"element": "H" 
			},
			{
				"x": 0.2593211991,
				"y": -1.6634488807,
				"z": -1.7922166691,
				"element": "H" 
			},
			{
				"x": 0.5467952827,
				"y": -2.2971370973,
				"z": -0.1680418176,
				"element": "H" 
			}
		],
		 "valence_orbital": [ 
			{
				"type": "occ",
				"energy": -0.28963,
				"method": "rhf"
			},
			{
				"type": "occ",
				"energy": -0.28898,
				"method": "rhf"
			},
			{
				"type": "occ",
				"energy": -0.28235,
				"method": "rhf"
			},
			{
				"type": "occ",
				"energy": -0.27658,
				"method": "rhf"
			},
			{
				"type": "occ",
				"energy": -0.24438,
				"method": "rhf"
			},
			{
				"type": "unocc",
				"energy": -0.03503,
				"method": "rhf"
			},
			{
				"type": "unocc",
				"energy": 0.00277,
				"method": "rhf"
			},
			{
				"type": "unocc",
				"energy": 0.02806,
				"method": "rhf"
			},
			{
				"type": "unocc",
				"energy": 0.0367,
				"method": "rhf"
			},
			{
				"type": "unocc",
				"energy": 0.0459,
				"method": "rhf"
			}
		],
		"cosmo_sigma_profile": { 
			"-0.025": 0.0,
			"-0.024": 0.0,
			"-0.023": 0.0,
			"-0.022": 0.0,
			"-0.021": 0.0,
			"-0.02": 0.0,
			"-0.019": 0.0,
			"-0.018": 0.0,
			"-0.017": 0.0,
			"-0.016": 0.0,
			"-0.015": 0.0,
			"-0.014": 0.0,
			"-0.013": 0.0,
			"-0.012": 0.0,
			"-0.011": 0.167216740283,
			"-0.01": 3.9050867898,
			"-0.009": 5.23229437825,
			"-0.008": 5.94685108059,
			"-0.007": 6.60107609321,
			"-0.006": 5.67140398097,
			"-0.005": 4.81743050262,
			"-0.004": 5.80718621356,
			"-0.003": 8.38241154709,
			"-0.002": 37.2108319377,
			"-0.001": 50.1369982896,
			"0.0": 46.6161999277,
			"0.001": 39.1611742513,
			"0.002": 20.494828092,
			"0.003": 12.3492642562,
			"0.004": 5.86058283784,
			"0.005": 4.76083325621,
			"0.006": 3.93612982498,
			"0.007": 4.54262125186,
			"0.008": 4.8202300245,
			"0.009": 4.01471570567,
			"0.01": 3.72844357611,
			"0.011": 3.04499089241,
			"0.012": 2.85947650969,
			"0.013": 1.0247352819,
			"0.014": 0.0,
			"0.015": 0.0,
			"0.016": 0.0,
			"0.017": 0.0,
			"0.018": 0.0,
			"0.019": 0.0,
			"0.02": 0.0,
			"0.021": 0.0,
			"0.022": 0.0,
			"0.023": 0.0,
			"0.024": 0.0,
			"0.025": 0.0
		}
	}
}
