{
	 "smiles": "CC(=O)C1=C(C)N=C(S1)C1=CC=CS1", 
	 "Tm": 395.15, 
	 "num_atms": 23, 
	 "gaussian": { 
		 "optdone": 1, 
		 "sigma_profile": "yes", 
		 "theory": "DFT", 
		 "functional": "B3LYP", 
		 "basiset": "6-31G**", 
		 "properties": { 
			 "R2extent": 4200.4606, 
			 "electric_dipole_moment_norm": 3.80871891979, 
			 "electric_quadrupole_moment_norm": 5.68365182519, 
			 "total_energy": -1312.8323271, 
			 "HOMO_LUMO_gap": 0.13907, 
			 "cosmo_polarized_energy": -10.16, 
			 "cosmo_cavitation_energy": 30.58, 
			 "cosmo_dispersion_energy": -23.21, 
			 "cosmo_repulsion_energy": 1.73, 
			 "cosmo_total_nonelectrostatic_energy": 9.1, 
			 "SMD_solvation_energy": 4.3 
		},
		"coords": [
			{
				"x": -0.3390517098,
				"y": -4.1109303232,
				"z": 0.1296173699,
				"element": "C" 
			},
			{
				"x": 0.6201471503,
				"y": -3.1841261648,
				"z": 0.8579267038,
				"element": "C" 
			},
			{
				"x": 1.4910810703,
				"y": -3.6277113547,
				"z": 1.5984396614,
				"element": "O" 
			},
			{
				"x": 0.4795720852,
				"y": -1.7334007828,
				"z": 0.6536846959,
				"element": "C" 
			},
			{
				"x": 1.2503060716,
				"y": -0.7268112184,
				"z": 1.2228716275,
				"element": "C" 
			},
			{
				"x": 2.3943762196,
				"y": -0.9248748848,
				"z": 2.1718651151,
				"element": "C" 
			},
			{
				"x": 0.9048555663,
				"y": 0.5448019215,
				"z": 0.8615979209,
				"element": "N" 
			},
			{
				"x": -0.1120221521,
				"y": 0.5702096622,
				"z": 0.0272155761,
				"element": "C" 
			},
			{
				"x": -0.7375680336,
				"y": -1.0154828262,
				"z": -0.3872085005,
				"element": "S" 
			},
			{
				"x": -0.6703668227,
				"y": 1.7913977488,
				"z": -0.5054197738,
				"element": "C" 
			},
			{
				"x": -1.7238922075,
				"y": 1.9706001068,
				"z": -1.3792892751,
				"element": "C" 
			},
			{
				"x": -1.97782972,
				"y": 3.3368565199,
				"z": -1.6716682594,
				"element": "C" 
			},
			{
				"x": -1.1169296156,
				"y": 4.1820519844,
				"z": -1.0188197829,
				"element": "C" 
			},
			{
				"x": 0.0203739424,
				"y": 3.3290206141,
				"z": -0.0346845866,
				"element": "S" 
			},
			{
				"x": -1.377281675,
				"y": -3.8975973462,
				"z": 0.4087909448,
				"element": "H" 
			},
			{
				"x": -0.259697311,
				"y": -3.9817631198,
				"z": -0.9559193369,
				"element": "H" 
			},
			{
				"x": -0.0987229377,
				"y": -5.1422340787,
				"z": 0.3900165691,
				"element": "H" 
			},
			{
				"x": 2.0706125116,
				"y": -1.4591822452,
				"z": 3.0694673328,
				"element": "H" 
			},
			{
				"x": 3.1755907077,
				"y": -1.5424520213,
				"z": 1.7198706382,
				"element": "H" 
			},
			{
				"x": 2.8041285425,
				"y": 0.0482282156,
				"z": 2.4473264516,
				"element": "H" 
			},
			{
				"x": -2.295120841,
				"y": 1.1484166082,
				"z": -1.796325613,
				"element": "H" 
			},
			{
				"x": -2.763518117,
				"y": 3.6767346053,
				"z": -2.3361393398,
				"element": "H" 
			},
			{
				"x": -1.0868427247,
				"y": 5.2623483792,
				"z": -1.0609161388,
				"element": "H" 
			}
		],
		 "valence_orbital": [ 
			{
				"type": "occ",
				"energy": -0.28336,
				"method": "rhf"
			},
			{
				"type": "occ",
				"energy": -0.27791,
				"method": "rhf"
			},
			{
				"type": "occ",
				"energy": -0.26399,
				"method": "rhf"
			},
			{
				"type": "occ",
				"energy": -0.24982,
				"method": "rhf"
			},
			{
				"type": "occ",
				"energy": -0.22048,
				"method": "rhf"
			},
			{
				"type": "unocc",
				"energy": -0.08141,
				"method": "rhf"
			},
			{
				"type": "unocc",
				"energy": -0.02552,
				"method": "rhf"
			},
			{
				"type": "unocc",
				"energy": 0.00506,
				"method": "rhf"
			},
			{
				"type": "unocc",
				"energy": 0.02383,
				"method": "rhf"
			},
			{
				"type": "unocc",
				"energy": 0.0245,
				"method": "rhf"
			}
		],
		"cosmo_sigma_profile": { 
			"-0.025": 0.0,
			"-0.024": 0.0,
			"-0.023": 0.0,
			"-0.022": 0.0,
			"-0.021": 0.0,
			"-0.02": 0.0,
			"-0.019": 0.0,
			"-0.018": 0.0,
			"-0.017": 0.0,
			"-0.016": 0.0,
			"-0.015": 0.0,
			"-0.014": 0.0,
			"-0.013": 0.0,
			"-0.012": 0.0,
			"-0.011": 0.0,
			"-0.01": 0.207115697473,
			"-0.009": 2.00319692739,
			"-0.008": 3.56182585168,
			"-0.007": 7.19078710741,
			"-0.006": 11.4335035037,
			"-0.005": 14.2076963952,
			"-0.004": 16.7868679085,
			"-0.003": 18.5972720163,
			"-0.002": 18.0988143933,
			"-0.001": 25.8913810434,
			"0.0": 26.7064075911,
			"0.001": 21.7298338905,
			"0.002": 21.5177793454,
			"0.003": 21.4278696832,
			"0.004": 10.8762703341,
			"0.005": 4.22173583973,
			"0.006": 3.51460925472,
			"0.007": 2.94893043336,
			"0.008": 3.234216805,
			"0.009": 3.2034780231,
			"0.01": 2.75335457985,
			"0.011": 3.6291817788,
			"0.012": 3.06231756405,
			"0.013": 1.97816660174,
			"0.014": 0.183182288051,
			"0.015": 0.0,
			"0.016": 0.0,
			"0.017": 0.0,
			"0.018": 0.0,
			"0.019": 0.0,
			"0.02": 0.0,
			"0.021": 0.0,
			"0.022": 0.0,
			"0.023": 0.0,
			"0.024": 0.0,
			"0.025": 0.0
		}
	}
}
