{
	 "smiles": "CC1(C)OCC(CC(N)=O)O1", 
	 "Tm": 381.15, 
	 "num_atms": 24, 
	 "gaussian": { 
		 "optdone": 1, 
		 "sigma_profile": "yes", 
		 "theory": "DFT", 
		 "functional": "B3LYP", 
		 "basiset": "6-31G**", 
		 "properties": { 
			 "R2extent": 2253.4659, 
			 "electric_dipole_moment_norm": 3.4282512758, 
			 "electric_quadrupole_moment_norm": 15.2653985788, 
			 "total_energy": -555.020341106, 
			 "HOMO_LUMO_gap": 0.27313, 
			 "cosmo_polarized_energy": -13.29, 
			 "cosmo_cavitation_energy": 26.31, 
			 "cosmo_dispersion_energy": -18.84, 
			 "cosmo_repulsion_energy": 1.55, 
			 "cosmo_total_nonelectrostatic_energy": 9.02, 
			 "SMD_solvation_energy": 5.27 
		},
		"coords": [
			{
				"x": 3.0322875512,
				"y": -0.5133916048,
				"z": -0.2800391931,
				"element": "C" 
			},
			{
				"x": 2.1691982845,
				"y": 0.3533562873,
				"z": 0.6331432537,
				"element": "C" 
			},
			{
				"x": 2.9097533179,
				"y": 1.5622261195,
				"z": 1.195091772,
				"element": "C" 
			},
			{
				"x": 1.6662043696,
				"y": -0.4097812703,
				"z": 1.7327163718,
				"element": "O" 
			},
			{
				"x": 0.3088656372,
				"y": -0.7317299931,
				"z": 1.4605047292,
				"element": "C" 
			},
			{
				"x": -0.1686055003,
				"y": 0.4647560903,
				"z": 0.6390059018,
				"element": "C" 
			},
			{
				"x": -1.3372621944,
				"y": 0.1882289191,
				"z": -0.3002248755,
				"element": "C" 
			},
			{
				"x": -1.8728207101,
				"y": 1.3914736621,
				"z": -1.0871255509,
				"element": "C" 
			},
			{
				"x": -0.9211477782,
				"y": 2.2365692323,
				"z": -1.573892316,
				"element": "N" 
			},
			{
				"x": -3.07048284,
				"y": 1.5486269981,
				"z": -1.2801206862,
				"element": "O" 
			},
			{
				"x": 1.0132084155,
				"y": 0.7749409787,
				"z": -0.117473224,
				"element": "O" 
			},
			{
				"x": 3.3455388788,
				"y": 0.0530634842,
				"z": -1.1617581159,
				"element": "H" 
			},
			{
				"x": 3.9235600334,
				"y": -0.8530166877,
				"z": 0.2544446068,
				"element": "H" 
			},
			{
				"x": 2.4658117023,
				"y": -1.3869521642,
				"z": -0.6124525291,
				"element": "H" 
			},
			{
				"x": 3.7367988022,
				"y": 1.2350837964,
				"z": 1.831315224,
				"element": "H" 
			},
			{
				"x": 3.312635661,
				"y": 2.1752890587,
				"z": 0.3840407416,
				"element": "H" 
			},
			{
				"x": 2.2285191221,
				"y": 2.1694262075,
				"z": 1.7962670112,
				"element": "H" 
			},
			{
				"x": -0.2164794341,
				"y": -0.8511385267,
				"z": 2.4115516105,
				"element": "H" 
			},
			{
				"x": 0.2207683175,
				"y": -1.6643510514,
				"z": 0.8815798427,
				"element": "H" 
			},
			{
				"x": -0.4090279501,
				"y": 1.3042961362,
				"z": 1.3088534051,
				"element": "H" 
			},
			{
				"x": -2.1851073371,
				"y": -0.2009585196,
				"z": 0.2699473567,
				"element": "H" 
			},
			{
				"x": -1.0350939353,
				"y": -0.5859125904,
				"z": -1.0170204453,
				"element": "H" 
			},
			{
				"x": 0.0604567065,
				"y": 2.0824470168,
				"z": -1.3907645017,
				"element": "H" 
			},
			{
				"x": -1.2278791202,
				"y": 3.0316484211,
				"z": -2.1128903896,
				"element": "H" 
			}
		],
		 "valence_orbital": [ 
			{
				"type": "occ",
				"energy": -0.344,
				"method": "rhf"
			},
			{
				"type": "occ",
				"energy": -0.28011,
				"method": "rhf"
			},
			{
				"type": "occ",
				"energy": -0.26456,
				"method": "rhf"
			},
			{
				"type": "occ",
				"energy": -0.25701,
				"method": "rhf"
			},
			{
				"type": "occ",
				"energy": -0.23876,
				"method": "rhf"
			},
			{
				"type": "unocc",
				"energy": 0.03437,
				"method": "rhf"
			},
			{
				"type": "unocc",
				"energy": 0.07821,
				"method": "rhf"
			},
			{
				"type": "unocc",
				"energy": 0.0901,
				"method": "rhf"
			},
			{
				"type": "unocc",
				"energy": 0.09883,
				"method": "rhf"
			},
			{
				"type": "unocc",
				"energy": 0.1099,
				"method": "rhf"
			}
		],
		"cosmo_sigma_profile": { 
			"-0.025": 0.0,
			"-0.024": 0.0,
			"-0.023": 0.0,
			"-0.022": 0.0,
			"-0.021": 0.0,
			"-0.02": 0.0,
			"-0.019": 0.0,
			"-0.018": 0.0,
			"-0.017": 0.0,
			"-0.016": 0.0,
			"-0.015": 0.0,
			"-0.014": 0.288140207737,
			"-0.013": 1.13226366701,
			"-0.012": 1.10799911814,
			"-0.011": 0.925200392421,
			"-0.01": 1.45300195354,
			"-0.009": 1.42098856557,
			"-0.008": 1.85778944406,
			"-0.007": 1.64840880519,
			"-0.006": 9.11529970351,
			"-0.005": 16.5365430918,
			"-0.004": 25.4025834638,
			"-0.003": 20.6556811492,
			"-0.002": 18.1379160591,
			"-0.001": 16.6280534576,
			"0.0": 18.0884658184,
			"0.001": 12.799588449,
			"0.002": 6.25893016312,
			"0.003": 7.82617710083,
			"0.004": 6.19580383813,
			"0.005": 4.95504583431,
			"0.006": 2.918070587,
			"0.007": 2.9754218177,
			"0.008": 2.91113058081,
			"0.009": 2.38771177683,
			"0.01": 2.49310543701,
			"0.011": 2.53209440053,
			"0.012": 3.19068092427,
			"0.013": 3.7188212323,
			"0.014": 5.81084851468,
			"0.015": 3.05617115356,
			"0.016": 0.136608733832,
			"0.017": 0.0,
			"0.018": 0.0,
			"0.019": 0.0,
			"0.02": 0.0,
			"0.021": 0.0,
			"0.022": 0.0,
			"0.023": 0.0,
			"0.024": 0.0,
			"0.025": 0.0
		}
	}
}
