{
	 "smiles": "COC(=O)C1=C(OC2OC(COC3OCC(O)C(O)C3O)C(O)C(O)C2O)C=CC=C1", 
	 "Tm": 453.15, 
	 "num_atms": 57, 
	 "gaussian": { 
		 "optdone": 1, 
		 "sigma_profile": "yes", 
		 "theory": "DFT", 
		 "functional": "B3LYP", 
		 "basiset": "6-31G**", 
		 "properties": { 
			 "R2extent": 19154.9671, 
			 "electric_dipole_moment_norm": 6.00645012133, 
			 "electric_quadrupole_moment_norm": 16.2554994553, 
			 "total_energy": -1642.31922345, 
			 "HOMO_LUMO_gap": 0.18603, 
			 "cosmo_polarized_energy": -25.73, 
			 "cosmo_cavitation_energy": 56.91, 
			 "cosmo_dispersion_energy": -39.58, 
			 "cosmo_repulsion_energy": 2.95, 
			 "cosmo_total_nonelectrostatic_energy": 20.28, 
			 "SMD_solvation_energy": 9.67 
		},
		"coords": [
			{
				"x": -2.3854342709,
				"y": 6.6864801306,
				"z": 2.1337049183,
				"element": "C" 
			},
			{
				"x": -2.2567697283,
				"y": 5.4366798111,
				"z": 2.8303661675,
				"element": "O" 
			},
			{
				"x": -1.905367029,
				"y": 4.3782618047,
				"z": 2.0669865009,
				"element": "C" 
			},
			{
				"x": -1.7214505312,
				"y": 4.494464242,
				"z": 0.8656595186,
				"element": "O" 
			},
			{
				"x": -1.7629096518,
				"y": 3.1383578033,
				"z": 2.8827968209,
				"element": "C" 
			},
			{
				"x": -1.5981823351,
				"y": 1.8725093054,
				"z": 2.2767469819,
				"element": "C" 
			},
			{
				"x": -1.6818119884,
				"y": 1.8052498179,
				"z": 0.9185378076,
				"element": "O" 
			},
			{
				"x": -0.8177288716,
				"y": 0.9736935772,
				"z": 0.1918656086,
				"element": "C" 
			},
			{
				"x": -1.4858525073,
				"y": -0.2588371007,
				"z": -0.0253236926,
				"element": "O" 
			},
			{
				"x": -0.7544524557,
				"y": -1.222623419,
				"z": -0.7993159438,
				"element": "C" 
			},
			{
				"x": 0.0143029754,
				"y": -2.1560468472,
				"z": 0.140479555,
				"element": "C" 
			},
			{
				"x": 0.7319537487,
				"y": -3.0716800914,
				"z": -0.6722503539,
				"element": "O" 
			},
			{
				"x": 1.7172400637,
				"y": -3.8596967211,
				"z": -0.0244818458,
				"element": "C" 
			},
			{
				"x": 1.2360960444,
				"y": -5.1295288968,
				"z": 0.3411453242,
				"element": "O" 
			},
			{
				"x": 0.8440670045,
				"y": -5.9545465116,
				"z": -0.7662683055,
				"element": "C" 
			},
			{
				"x": 2.0041953106,
				"y": -6.16278807,
				"z": -1.7418762652,
				"element": "C" 
			},
			{
				"x": 1.5327667243,
				"y": -6.9495182623,
				"z": -2.8228065675,
				"element": "O" 
			},
			{
				"x": 2.5082725108,
				"y": -4.8019610277,
				"z": -2.2083488219,
				"element": "C" 
			},
			{
				"x": 3.6155222255,
				"y": -5.008902955,
				"z": -3.0744288973,
				"element": "O" 
			},
			{
				"x": 2.9013536243,
				"y": -3.9521834699,
				"z": -0.9979213756,
				"element": "C" 
			},
			{
				"x": 3.3817771381,
				"y": -2.6791606743,
				"z": -1.3907450073,
				"element": "O" 
			},
			{
				"x": 0.1337645645,
				"y": -0.5910263386,
				"z": -1.8928042957,
				"element": "C" 
			},
			{
				"x": 1.4703185646,
				"y": -0.3852556388,
				"z": -1.4122714765,
				"element": "O" 
			},
			{
				"x": -0.4589498896,
				"y": 0.7468819122,
				"z": -2.3105954889,
				"element": "C" 
			},
			{
				"x": 0.3505607869,
				"y": 1.248639589,
				"z": -3.3690854929,
				"element": "O" 
			},
			{
				"x": -0.4901457113,
				"y": 1.7257974336,
				"z": -1.1300829382,
				"element": "C" 
			},
			{
				"x": -1.41409351,
				"y": 2.7294660513,
				"z": -1.470685985,
				"element": "O" 
			},
			{
				"x": -1.412312462,
				"y": 0.7289236811,
				"z": 3.0597612267,
				"element": "C" 
			},
			{
				"x": -1.3792556913,
				"y": 0.8360224033,
				"z": 4.4479367874,
				"element": "C" 
			},
			{
				"x": -1.5489810424,
				"y": 2.0774499976,
				"z": 5.0663426314,
				"element": "C" 
			},
			{
				"x": -1.7455609491,
				"y": 3.2121401442,
				"z": 4.2867644618,
				"element": "C" 
			},
			{
				"x": -2.6762262113,
				"y": 7.4134114059,
				"z": 2.8917014646,
				"element": "H" 
			},
			{
				"x": -3.1487652301,
				"y": 6.6152651401,
				"z": 1.3553554989,
				"element": "H" 
			},
			{
				"x": -1.4364098216,
				"y": 6.9702297913,
				"z": 1.6722024484,
				"element": "H" 
			},
			{
				"x": 0.1085334198,
				"y": 0.8030890271,
				"z": 0.7591178295,
				"element": "H" 
			},
			{
				"x": -1.5263219324,
				"y": -1.802652286,
				"z": -1.3158001023,
				"element": "H" 
			},
			{
				"x": 0.7083101846,
				"y": -1.5711857953,
				"z": 0.7583031248,
				"element": "H" 
			},
			{
				"x": -0.6938242037,
				"y": -2.6736303087,
				"z": 0.8004453943,
				"element": "H" 
			},
			{
				"x": 2.0244168882,
				"y": -3.3794489915,
				"z": 0.9123332219,
				"element": "H" 
			},
			{
				"x": -0.004878598,
				"y": -5.5089722809,
				"z": -1.2989911498,
				"element": "H" 
			},
			{
				"x": 0.5249126695,
				"y": -6.9055436317,
				"z": -0.3353554791,
				"element": "H" 
			},
			{
				"x": 2.8291179655,
				"y": -6.6716548299,
				"z": -1.2159951159,
				"element": "H" 
			},
			{
				"x": 2.2164628805,
				"y": -6.9009626647,
				"z": -3.5060515476,
				"element": "H" 
			},
			{
				"x": 1.6900635042,
				"y": -4.2970707523,
				"z": -2.7468180631,
				"element": "H" 
			},
			{
				"x": 4.0180176494,
				"y": -4.1370631986,
				"z": -3.2023077138,
				"element": "H" 
			},
			{
				"x": 3.7270515781,
				"y": -4.4556727041,
				"z": -0.4806972627,
				"element": "H" 
			},
			{
				"x": 2.6188024593,
				"y": -2.0750315411,
				"z": -1.4747393601,
				"element": "H" 
			},
			{
				"x": 0.1575835864,
				"y": -1.2691630833,
				"z": -2.75432224,
				"element": "H" 
			},
			{
				"x": 1.8763815569,
				"y": 0.2265079699,
				"z": -2.0471585696,
				"element": "H" 
			},
			{
				"x": -1.4972789108,
				"y": 0.5989879582,
				"z": -2.6390290752,
				"element": "H" 
			},
			{
				"x": 0.0591140627,
				"y": 2.1563386429,
				"z": -3.5356154658,
				"element": "H" 
			},
			{
				"x": 0.5218033742,
				"y": 2.1449039186,
				"z": -1.0085241396,
				"element": "H" 
			},
			{
				"x": -1.5473519758,
				"y": 3.3018105978,
				"z": -0.6916430004,
				"element": "H" 
			},
			{
				"x": -1.3334830181,
				"y": -0.2335925562,
				"z": 2.5676906247,
				"element": "H" 
			},
			{
				"x": -1.2361364568,
				"y": -0.0577874688,
				"z": 5.0483165029,
				"element": "H" 
			},
			{
				"x": -1.5315167965,
				"y": 2.1586828155,
				"z": 6.1483078676,
				"element": "H" 
			},
			{
				"x": -1.8757112853,
				"y": 4.1800431457,
				"z": 4.7550727503,
				"element": "H" 
			}
		],
		 "valence_orbital": [ 
			{
				"type": "occ",
				"energy": -0.2708,
				"method": "rhf"
			},
			{
				"type": "occ",
				"energy": -0.26076,
				"method": "rhf"
			},
			{
				"type": "occ",
				"energy": -0.25949,
				"method": "rhf"
			},
			{
				"type": "occ",
				"energy": -0.24535,
				"method": "rhf"
			},
			{
				"type": "occ",
				"energy": -0.24416,
				"method": "rhf"
			},
			{
				"type": "unocc",
				"energy": -0.05813,
				"method": "rhf"
			},
			{
				"type": "unocc",
				"energy": -0.01399,
				"method": "rhf"
			},
			{
				"type": "unocc",
				"energy": 0.04069,
				"method": "rhf"
			},
			{
				"type": "unocc",
				"energy": 0.05567,
				"method": "rhf"
			},
			{
				"type": "unocc",
				"energy": 0.06966,
				"method": "rhf"
			}
		],
		"cosmo_sigma_profile": { 
			"-0.025": 0.0,
			"-0.024": 0.0,
			"-0.023": 0.0,
			"-0.022": 0.0,
			"-0.021": 0.0,
			"-0.02": 0.0,
			"-0.019": 0.0,
			"-0.018": 0.0,
			"-0.017": 0.0,
			"-0.016": 0.013595564045,
			"-0.015": 0.508779270972,
			"-0.014": 0.692913433068,
			"-0.013": 2.52495852206,
			"-0.012": 2.74348169807,
			"-0.011": 2.68194844509,
			"-0.01": 2.05470309107,
			"-0.009": 2.00124145016,
			"-0.008": 2.37714059413,
			"-0.007": 11.1933930386,
			"-0.006": 29.0697822217,
			"-0.005": 39.1828674482,
			"-0.004": 42.040199216,
			"-0.003": 38.3714258261,
			"-0.002": 34.5673558284,
			"-0.001": 25.1653657009,
			"0.0": 23.6658425303,
			"0.001": 25.3811162767,
			"0.002": 26.0752483347,
			"0.003": 24.4205117943,
			"0.004": 20.8934020064,
			"0.005": 14.2621237753,
			"0.006": 11.3330599907,
			"0.007": 10.607283814,
			"0.008": 9.72609488624,
			"0.009": 10.8657800512,
			"0.01": 9.77323932364,
			"0.011": 7.61502175569,
			"0.012": 7.7616243972,
			"0.013": 5.40002703052,
			"0.014": 1.61572320785,
			"0.015": 0.164869542579,
			"0.016": 0.0,
			"0.017": 0.0,
			"0.018": 0.0,
			"0.019": 0.0,
			"0.02": 0.0,
			"0.021": 0.0,
			"0.022": 0.0,
			"0.023": 0.0,
			"0.024": 0.0,
			"0.025": 0.0
		}
	}
}
