{
	 "smiles": "CC(SC1=C(C=CC=N1)C(O)=O)C(=O)N1CCCC1", 
	 "Tm": 466.15, 
	 "num_atms": 35, 
	 "gaussian": { 
		 "optdone": 1, 
		 "sigma_profile": "yes", 
		 "theory": "DFT", 
		 "functional": "B3LYP", 
		 "basiset": "6-31G**", 
		 "properties": { 
			 "R2extent": 6320.1208, 
			 "electric_dipole_moment_norm": 5.97484213181, 
			 "electric_quadrupole_moment_norm": 26.7744561099, 
			 "total_energy": -1238.40822873, 
			 "HOMO_LUMO_gap": 0.17648, 
			 "cosmo_polarized_energy": -19.64, 
			 "cosmo_cavitation_energy": 38.49, 
			 "cosmo_dispersion_energy": -26.81, 
			 "cosmo_repulsion_energy": 2.02, 
			 "cosmo_total_nonelectrostatic_energy": 13.7, 
			 "SMD_solvation_energy": 5.66 
		},
		"coords": [
			{
				"x": -0.0008842736,
				"y": -1.5237770052,
				"z": 2.7323909977,
				"element": "C" 
			},
			{
				"x": 0.2051845126,
				"y": -1.3019114108,
				"z": 1.2375296232,
				"element": "C" 
			},
			{
				"x": -1.3773775866,
				"y": -0.843366552,
				"z": 0.3422745386,
				"element": "S" 
			},
			{
				"x": -1.7304617222,
				"y": 0.8097389896,
				"z": 0.9972034485,
				"element": "C" 
			},
			{
				"x": -2.6933553448,
				"y": 1.0490269413,
				"z": 2.0029989461,
				"element": "C" 
			},
			{
				"x": -2.8841608846,
				"y": 2.3877259422,
				"z": 2.3815325334,
				"element": "C" 
			},
			{
				"x": -2.1454468985,
				"y": 3.3980728552,
				"z": 1.7834572005,
				"element": "C" 
			},
			{
				"x": -1.2218753956,
				"y": 3.0419495583,
				"z": 0.8007098514,
				"element": "C" 
			},
			{
				"x": -1.0269783477,
				"y": 1.7810070116,
				"z": 0.4087159284,
				"element": "N" 
			},
			{
				"x": -3.5620410838,
				"y": 0.0513377432,
				"z": 2.7558021651,
				"element": "C" 
			},
			{
				"x": -3.4983205827,
				"y": -1.2460570749,
				"z": 2.4347383169,
				"element": "O" 
			},
			{
				"x": -4.3060643336,
				"y": 0.4332872322,
				"z": 3.6339288289,
				"element": "O" 
			},
			{
				"x": 1.3022809487,
				"y": -0.2535557336,
				"z": 0.9768275383,
				"element": "C" 
			},
			{
				"x": 1.5895604182,
				"y": 0.5653861341,
				"z": 1.8469201255,
				"element": "O" 
			},
			{
				"x": 1.9373752134,
				"y": -0.2829167011,
				"z": -0.2249395632,
				"element": "N" 
			},
			{
				"x": 1.677490335,
				"y": -1.1726675711,
				"z": -1.3674864182,
				"element": "C" 
			},
			{
				"x": 2.8060334725,
				"y": -0.8226790156,
				"z": -2.350291404,
				"element": "C" 
			},
			{
				"x": 3.0639808424,
				"y": 0.6674241031,
				"z": -2.0726374454,
				"element": "C" 
			},
			{
				"x": 2.9085881583,
				"y": 0.7756119654,
				"z": -0.5499340858,
				"element": "C" 
			},
			{
				"x": -0.7981933157,
				"y": -2.2468044996,
				"z": 2.9177290132,
				"element": "H" 
			},
			{
				"x": 0.9262041511,
				"y": -1.8999617669,
				"z": 3.1765289606,
				"element": "H" 
			},
			{
				"x": -0.2362273343,
				"y": -0.5821744115,
				"z": 3.2309128537,
				"element": "H" 
			},
			{
				"x": 0.4525317097,
				"y": -2.2463978503,
				"z": 0.7421778975,
				"element": "H" 
			},
			{
				"x": -3.6175498886,
				"y": 2.5904739048,
				"z": 3.1539176582,
				"element": "H" 
			},
			{
				"x": -2.2794392227,
				"y": 4.436860604,
				"z": 2.0666839847,
				"element": "H" 
			},
			{
				"x": -0.6179044778,
				"y": 3.7962741238,
				"z": 0.3009134623,
				"element": "H" 
			},
			{
				"x": -2.8565593572,
				"y": -1.3931940534,
				"z": 1.7010532778,
				"element": "H" 
			},
			{
				"x": 1.7042238971,
				"y": -2.2267277833,
				"z": -1.0704556173,
				"element": "H" 
			},
			{
				"x": 0.6914312101,
				"y": -0.9679987854,
				"z": -1.8028242667,
				"element": "H" 
			},
			{
				"x": 3.7008020147,
				"y": -1.4107206118,
				"z": -2.1162782211,
				"element": "H" 
			},
			{
				"x": 2.5288951638,
				"y": -1.031916259,
				"z": -3.3868450371,
				"element": "H" 
			},
			{
				"x": 4.0445869951,
				"y": 1.0052935051,
				"z": -2.4178925629,
				"element": "H" 
			},
			{
				"x": 2.3030481691,
				"y": 1.2786654217,
				"z": -2.5706485431,
				"element": "H" 
			},
			{
				"x": 2.5282753766,
				"y": 1.7412278223,
				"z": -0.2091627214,
				"element": "H" 
			},
			{
				"x": 3.8556474618,
				"y": 0.5919632275,
				"z": -0.0261512643,
				"element": "H" 
			}
		],
		 "valence_orbital": [ 
			{
				"type": "occ",
				"energy": -0.28323,
				"method": "rhf"
			},
			{
				"type": "occ",
				"energy": -0.26894,
				"method": "rhf"
			},
			{
				"type": "occ",
				"energy": -0.26085,
				"method": "rhf"
			},
			{
				"type": "occ",
				"energy": -0.24495,
				"method": "rhf"
			},
			{
				"type": "occ",
				"energy": -0.24003,
				"method": "rhf"
			},
			{
				"type": "unocc",
				"energy": -0.06355,
				"method": "rhf"
			},
			{
				"type": "unocc",
				"energy": -0.0501,
				"method": "rhf"
			},
			{
				"type": "unocc",
				"energy": 0.00076,
				"method": "rhf"
			},
			{
				"type": "unocc",
				"energy": 0.03304,
				"method": "rhf"
			},
			{
				"type": "unocc",
				"energy": 0.04677,
				"method": "rhf"
			}
		],
		"cosmo_sigma_profile": { 
			"-0.025": 0.0,
			"-0.024": 0.0,
			"-0.023": 0.0,
			"-0.022": 0.0,
			"-0.021": 0.0,
			"-0.02": 0.0,
			"-0.019": 0.0,
			"-0.018": 0.0,
			"-0.017": 0.0,
			"-0.016": 0.0,
			"-0.015": 0.0,
			"-0.014": 0.0,
			"-0.013": 0.0,
			"-0.012": 0.0,
			"-0.011": 0.0,
			"-0.01": 0.11282723208,
			"-0.009": 2.19385911915,
			"-0.008": 7.38012046872,
			"-0.007": 11.8122034657,
			"-0.006": 12.4675557208,
			"-0.005": 15.2477785471,
			"-0.004": 29.5696793194,
			"-0.003": 37.2434985458,
			"-0.002": 33.1558261074,
			"-0.001": 31.8122047829,
			"0.0": 28.1370059888,
			"0.001": 13.0848088995,
			"0.002": 9.29701266946,
			"0.003": 6.83855214015,
			"0.004": 6.67722751881,
			"0.005": 6.82882168955,
			"0.006": 6.26294485358,
			"0.007": 4.76183832939,
			"0.008": 6.48350778407,
			"0.009": 7.1748106544,
			"0.01": 7.09843809059,
			"0.011": 7.24484634108,
			"0.012": 6.37844754735,
			"0.013": 3.91004958208,
			"0.014": 4.36532522086,
			"0.015": 0.404061688196,
			"0.016": 0.0,
			"0.017": 0.0,
			"0.018": 0.0,
			"0.019": 0.0,
			"0.02": 0.0,
			"0.021": 0.0,
			"0.022": 0.0,
			"0.023": 0.0,
			"0.024": 0.0,
			"0.025": 0.0
		}
	}
}
