{
	 "smiles": "CCCCCCC#C", 
	 "Tm": 213.15, 
	 "num_atms": 22, 
	 "gaussian": { 
		 "optdone": 1, 
		 "sigma_profile": "yes", 
		 "theory": "DFT", 
		 "functional": "B3LYP", 
		 "basiset": "6-31G**", 
		 "properties": { 
			 "R2extent": 2010.4619, 
			 "electric_dipole_moment_norm": 0.891228146997, 
			 "electric_quadrupole_moment_norm": 0.791889480925, 
			 "total_energy": -313.234671503, 
			 "HOMO_LUMO_gap": 0.31534, 
			 "cosmo_polarized_energy": -3.72, 
			 "cosmo_cavitation_energy": 25.0, 
			 "cosmo_dispersion_energy": -17.4, 
			 "cosmo_repulsion_energy": 1.48, 
			 "cosmo_total_nonelectrostatic_energy": 9.07, 
			 "SMD_solvation_energy": 5.26 
		},
		"coords": [
			{
				"x": 2.0787696167,
				"y": -2.8717060877,
				"z": 0.360424969,
				"element": "C" 
			},
			{
				"x": 0.8520416005,
				"y": -2.4051780405,
				"z": -0.4296854703,
				"element": "C" 
			},
			{
				"x": 0.7345554095,
				"y": -0.8778952454,
				"z": -0.5205327527,
				"element": "C" 
			},
			{
				"x": -0.4948909566,
				"y": -0.412138702,
				"z": -1.3133861079,
				"element": "C" 
			},
			{
				"x": -0.6080566078,
				"y": 1.1084980645,
				"z": -1.5004771601,
				"element": "C" 
			},
			{
				"x": -0.8570026772,
				"y": 1.8814540857,
				"z": -0.1858613395,
				"element": "C" 
			},
			{
				"x": -1.0219271306,
				"y": 3.3202638068,
				"z": -0.3924174766,
				"element": "C" 
			},
			{
				"x": -1.1553685612,
				"y": 4.505981111,
				"z": -0.5811618388,
				"element": "C" 
			},
			{
				"x": 2.0531277128,
				"y": -2.4975635439,
				"z": 1.3903559496,
				"element": "H" 
			},
			{
				"x": 2.1344059663,
				"y": -3.964272025,
				"z": 0.4056084214,
				"element": "H" 
			},
			{
				"x": 3.0064532687,
				"y": -2.5103646308,
				"z": -0.097976889,
				"element": "H" 
			},
			{
				"x": 0.8876194691,
				"y": -2.8251389496,
				"z": -1.4441818252,
				"element": "H" 
			},
			{
				"x": -0.0579838693,
				"y": -2.8105019479,
				"z": 0.0334731735,
				"element": "H" 
			},
			{
				"x": 0.708564732,
				"y": -0.4642902639,
				"z": 0.4967732745,
				"element": "H" 
			},
			{
				"x": 1.6423364278,
				"y": -0.471819685,
				"z": -0.989971153,
				"element": "H" 
			},
			{
				"x": -0.4707038713,
				"y": -0.8802223994,
				"z": -2.3065099683,
				"element": "H" 
			},
			{
				"x": -1.4065527565,
				"y": -0.7874532996,
				"z": -0.826257895,
				"element": "H" 
			},
			{
				"x": -1.430109425,
				"y": 1.3302355937,
				"z": -2.1905286046,
				"element": "H" 
			},
			{
				"x": 0.3034705855,
				"y": 1.495741061,
				"z": -1.9724846643,
				"element": "H" 
			},
			{
				"x": -1.7542885529,
				"y": 1.480204147,
				"z": 0.3057548619,
				"element": "H" 
			},
			{
				"x": -0.0275026242,
				"y": 1.7140086031,
				"z": 0.5125237837,
				"element": "H" 
			},
			{
				"x": -1.2734577564,
				"y": 5.5520583478,
				"z": -0.7427812884,
				"element": "H" 
			}
		],
		 "valence_orbital": [ 
			{
				"type": "occ",
				"energy": -0.32564,
				"method": "rhf"
			},
			{
				"type": "occ",
				"energy": -0.32281,
				"method": "rhf"
			},
			{
				"type": "occ",
				"energy": -0.31469,
				"method": "rhf"
			},
			{
				"type": "occ",
				"energy": -0.25653,
				"method": "rhf"
			},
			{
				"type": "occ",
				"energy": -0.25578,
				"method": "rhf"
			},
			{
				"type": "unocc",
				"energy": 0.05956,
				"method": "rhf"
			},
			{
				"type": "unocc",
				"energy": 0.06321,
				"method": "rhf"
			},
			{
				"type": "unocc",
				"energy": 0.0895,
				"method": "rhf"
			},
			{
				"type": "unocc",
				"energy": 0.10578,
				"method": "rhf"
			},
			{
				"type": "unocc",
				"energy": 0.11706,
				"method": "rhf"
			}
		],
		"cosmo_sigma_profile": { 
			"-0.025": 0.0,
			"-0.024": 0.0,
			"-0.023": 0.0,
			"-0.022": 0.0,
			"-0.021": 0.0,
			"-0.02": 0.0,
			"-0.019": 0.0,
			"-0.018": 0.0,
			"-0.017": 0.0,
			"-0.016": 0.0,
			"-0.015": 0.0,
			"-0.014": 0.0,
			"-0.013": 0.0,
			"-0.012": 0.0290680588291,
			"-0.011": 0.772103719189,
			"-0.01": 1.20463170358,
			"-0.009": 1.01646998213,
			"-0.008": 0.627431810984,
			"-0.007": 1.86028543527,
			"-0.006": 0.599588326937,
			"-0.005": 3.43268048246,
			"-0.004": 6.39806505993,
			"-0.003": 13.2347211245,
			"-0.002": 29.69380079,
			"-0.001": 36.4854586489,
			"0.0": 30.9206721407,
			"0.001": 24.3811472301,
			"0.002": 13.9290858247,
			"0.003": 3.77537541474,
			"0.004": 3.88749388569,
			"0.005": 3.98519074609,
			"0.006": 4.91477403917,
			"0.007": 7.53872412172,
			"0.008": 6.05817935895,
			"0.009": 0.0454328243959,
			"0.01": 0.0,
			"0.011": 0.0,
			"0.012": 0.0,
			"0.013": 0.0,
			"0.014": 0.0,
			"0.015": 0.0,
			"0.016": 0.0,
			"0.017": 0.0,
			"0.018": 0.0,
			"0.019": 0.0,
			"0.02": 0.0,
			"0.021": 0.0,
			"0.022": 0.0,
			"0.023": 0.0,
			"0.024": 0.0,
			"0.025": 0.0
		}
	}
}
