{
	 "smiles": "ClCCS(=O)(=O)C1=CC(Br)=CC=C1", 
	 "Tm": 337.15, 
	 "num_atms": 21, 
	 "gaussian": { 
		 "optdone": 1, 
		 "sigma_profile": "yes", 
		 "theory": "DFT", 
		 "functional": "B3LYP", 
		 "basiset": "6-31G**", 
		 "properties": { 
			 "R2extent": 6495.1927, 
			 "electric_dipole_moment_norm": 6.0347375991, 
			 "electric_quadrupole_moment_norm": 16.3916110148, 
			 "total_energy": -3889.83659549, 
			 "HOMO_LUMO_gap": 0.20831, 
			 "cosmo_polarized_energy": -17.75, 
			 "cosmo_cavitation_energy": 30.74, 
			 "cosmo_dispersion_energy": -22.89, 
			 "cosmo_repulsion_energy": 1.79, 
			 "cosmo_total_nonelectrostatic_energy": 9.64, 
			 "SMD_solvation_energy": 3.05 
		},
		"coords": [
			{
				"x": -4.2996475339,
				"y": 2.7034269158,
				"z": -0.5053860544,
				"element": "Cl" 
			},
			{
				"x": -3.7972529503,
				"y": 1.0410479241,
				"z": -0.0080356712,
				"element": "C" 
			},
			{
				"x": -2.2905651391,
				"y": 0.8302616418,
				"z": -0.0534781128,
				"element": "C" 
			},
			{
				"x": -1.6623906324,
				"y": 0.592354968,
				"z": -1.7625028099,
				"element": "S" 
			},
			{
				"x": -2.5282043012,
				"y": -0.4255998692,
				"z": -2.3823803242,
				"element": "O" 
			},
			{
				"x": -1.4370693163,
				"y": 1.8998594412,
				"z": -2.3906750627,
				"element": "O" 
			},
			{
				"x": -0.0474268471,
				"y": -0.1622892964,
				"z": -1.4748684805,
				"element": "C" 
			},
			{
				"x": 1.0671660195,
				"y": 0.6705604331,
				"z": -1.3668459345,
				"element": "C" 
			},
			{
				"x": 2.3079374095,
				"y": 0.0782502905,
				"z": -1.1395416041,
				"element": "C" 
			},
			{
				"x": 3.8558944002,
				"y": 1.1815025734,
				"z": -0.9832504563,
				"element": "Br" 
			},
			{
				"x": 2.4387217538,
				"y": -1.3070988956,
				"z": -1.0307828623,
				"element": "C" 
			},
			{
				"x": 1.308493748,
				"y": -2.117309129,
				"z": -1.1571100277,
				"element": "C" 
			},
			{
				"x": 0.0534670045,
				"y": -1.55115729,
				"z": -1.3817258539,
				"element": "C" 
			},
			{
				"x": -4.3049481599,
				"y": 0.3356273577,
				"z": -0.6673446544,
				"element": "H" 
			},
			{
				"x": -4.1509771142,
				"y": 0.9009822991,
				"z": 1.0146172666,
				"element": "H" 
			},
			{
				"x": -1.7368007041,
				"y": 1.6586635632,
				"z": 0.3936291428,
				"element": "H" 
			},
			{
				"x": -2.0461250475,
				"y": -0.0971877834,
				"z": 0.474634004,
				"element": "H" 
			},
			{
				"x": 0.9645530185,
				"y": 1.7434326779,
				"z": -1.479206362,
				"element": "H" 
			},
			{
				"x": 3.4149290906,
				"y": -1.7453830922,
				"z": -0.8574129919,
				"element": "H" 
			},
			{
				"x": 1.4131717326,
				"y": -3.1956058581,
				"z": -1.0873767634,
				"element": "H" 
			},
			{
				"x": -0.8306264312,
				"y": -2.1667388717,
				"z": -1.5070563871,
				"element": "H" 
			}
		],
		 "valence_orbital": [ 
			{
				"type": "occ",
				"energy": -0.30392,
				"method": "rhf"
			},
			{
				"type": "occ",
				"energy": -0.30188,
				"method": "rhf"
			},
			{
				"type": "occ",
				"energy": -0.29336,
				"method": "rhf"
			},
			{
				"type": "occ",
				"energy": -0.28806,
				"method": "rhf"
			},
			{
				"type": "occ",
				"energy": -0.26597,
				"method": "rhf"
			},
			{
				"type": "unocc",
				"energy": -0.05766,
				"method": "rhf"
			},
			{
				"type": "unocc",
				"energy": -0.0408,
				"method": "rhf"
			},
			{
				"type": "unocc",
				"energy": -0.01266,
				"method": "rhf"
			},
			{
				"type": "unocc",
				"energy": 0.01597,
				"method": "rhf"
			},
			{
				"type": "unocc",
				"energy": 0.04994,
				"method": "rhf"
			}
		],
		"cosmo_sigma_profile": { 
			"-0.025": 0.0,
			"-0.024": 0.0,
			"-0.023": 0.0,
			"-0.022": 0.0,
			"-0.021": 0.0,
			"-0.02": 0.0,
			"-0.019": 0.0,
			"-0.018": 0.0,
			"-0.017": 0.0,
			"-0.016": 0.0,
			"-0.015": 0.0,
			"-0.014": 0.0,
			"-0.013": 0.0,
			"-0.012": 0.0,
			"-0.011": 0.0,
			"-0.01": 1.51937581201,
			"-0.009": 8.18610586937,
			"-0.008": 12.252252999,
			"-0.007": 15.4917896089,
			"-0.006": 16.3022655937,
			"-0.005": 12.2936343454,
			"-0.004": 11.339162617,
			"-0.003": 9.40765293344,
			"-0.002": 12.2512724708,
			"-0.001": 13.4159848566,
			"0.0": 19.7454242352,
			"0.001": 23.6398083438,
			"0.002": 15.5042900218,
			"0.003": 13.9618508802,
			"0.004": 16.5388390446,
			"0.005": 8.89519394646,
			"0.006": 9.35802706419,
			"0.007": 3.98870922298,
			"0.008": 4.70013953148,
			"0.009": 3.56993166314,
			"0.01": 7.32877448925,
			"0.011": 8.24048030223,
			"0.012": 3.36868508841,
			"0.013": 0.0,
			"0.014": 0.0,
			"0.015": 0.0,
			"0.016": 0.0,
			"0.017": 0.0,
			"0.018": 0.0,
			"0.019": 0.0,
			"0.02": 0.0,
			"0.021": 0.0,
			"0.022": 0.0,
			"0.023": 0.0,
			"0.024": 0.0,
			"0.025": 0.0
		}
	}
}
