{
	 "smiles": "CC1=CC(C)=C(NC(=O)C(F)(F)C(F)(F)C(F)(F)C(F)(F)C(F)(F)C(F)(F)C(F)(F)C(F)(F)F)C(C)=C1", 
	 "Tm": 336.15, 
	 "num_atms": 49, 
	 "gaussian": { 
		 "optdone": 1, 
		 "sigma_profile": "yes", 
		 "theory": "DFT", 
		 "functional": "B3LYP", 
		 "basiset": "6-31G**", 
		 "properties": { 
			 "R2extent": 22887.1242, 
			 "electric_dipole_moment_norm": 3.81520508754, 
			 "electric_quadrupole_moment_norm": 15.5181767605, 
			 "total_energy": -2520.3695427, 
			 "HOMO_LUMO_gap": 0.20415, 
			 "cosmo_polarized_energy": -10.63, 
			 "cosmo_cavitation_energy": 57.52, 
			 "cosmo_dispersion_energy": -36.62, 
			 "cosmo_repulsion_energy": 2.44, 
			 "cosmo_total_nonelectrostatic_energy": 23.33, 
			 "SMD_solvation_energy": 15.25 
		},
		"coords": [
			{
				"x": -1.3354155344,
				"y": 2.758196365,
				"z": -6.2589969063,
				"element": "C" 
			},
			{
				"x": -0.8359417115,
				"y": 1.8663722985,
				"z": -5.1469930489,
				"element": "C" 
			},
			{
				"x": -1.2143895643,
				"y": 2.0888023678,
				"z": -3.8211313779,
				"element": "C" 
			},
			{
				"x": -0.7896082972,
				"y": 1.2662034622,
				"z": -2.7709226856,
				"element": "C" 
			},
			{
				"x": -1.2022132806,
				"y": 1.5759256013,
				"z": -1.3544751263,
				"element": "C" 
			},
			{
				"x": 0.033583993,
				"y": 0.171684575,
				"z": -3.089457774,
				"element": "C" 
			},
			{
				"x": 0.5235883726,
				"y": -0.6940740197,
				"z": -2.0609870289,
				"element": "N" 
			},
			{
				"x": -0.2515880219,
				"y": -1.4324607396,
				"z": -1.2234701923,
				"element": "C" 
			},
			{
				"x": -1.4666884185,
				"y": -1.4549545212,
				"z": -1.1644126554,
				"element": "O" 
			},
			{
				"x": 0.5664204798,
				"y": -2.3017525488,
				"z": -0.2266463712,
				"element": "C" 
			},
			{
				"x": 0.0513111013,
				"y": -3.546954454,
				"z": -0.2078599688,
				"element": "F" 
			},
			{
				"x": 1.8846494245,
				"y": -2.3845159419,
				"z": -0.6071258629,
				"element": "F" 
			},
			{
				"x": 0.5226571911,
				"y": -1.7127952207,
				"z": 1.2108364405,
				"element": "C" 
			},
			{
				"x": -0.7122635012,
				"y": -1.9073536129,
				"z": 1.7138057106,
				"element": "F" 
			},
			{
				"x": 0.7568983176,
				"y": -0.3755053596,
				"z": 1.1147347871,
				"element": "F" 
			},
			{
				"x": 1.5799758716,
				"y": -2.3173691815,
				"z": 2.1811920666,
				"element": "C" 
			},
			{
				"x": 1.6079394005,
				"y": -3.6585383437,
				"z": 1.9898162805,
				"element": "F" 
			},
			{
				"x": 2.7967361309,
				"y": -1.8072702972,
				"z": 1.8763933047,
				"element": "F" 
			},
			{
				"x": 1.3500530613,
				"y": -2.1225812365,
				"z": 3.7111793673,
				"element": "C" 
			},
			{
				"x": 0.1905960809,
				"y": -2.7320836877,
				"z": 4.0447859824,
				"element": "F" 
			},
			{
				"x": 2.3658228884,
				"y": -2.7657421679,
				"z": 4.3314657856,
				"element": "F" 
			},
			{
				"x": 1.2650323051,
				"y": -0.6809571923,
				"z": 4.299423349,
				"element": "C" 
			},
			{
				"x": 1.0563122395,
				"y": -0.8426109548,
				"z": 5.6280140842,
				"element": "F" 
			},
			{
				"x": 0.184891848,
				"y": -0.0674537159,
				"z": 3.7573280808,
				"element": "F" 
			},
			{
				"x": 2.4952798451,
				"y": 0.2495266554,
				"z": 4.113200663,
				"element": "C" 
			},
			{
				"x": 2.5144574095,
				"y": 0.6965169307,
				"z": 2.8380302393,
				"element": "F" 
			},
			{
				"x": 3.6244037174,
				"y": -0.4575610216,
				"z": 4.3501293476,
				"element": "F" 
			},
			{
				"x": 2.5657035005,
				"y": 1.4939645272,
				"z": 5.0526100841,
				"element": "C" 
			},
			{
				"x": 2.7657805067,
				"y": 1.079456937,
				"z": 6.3211994072,
				"element": "F" 
			},
			{
				"x": 3.6464270962,
				"y": 2.2012556561,
				"z": 4.6458282203,
				"element": "F" 
			},
			{
				"x": 1.3574883034,
				"y": 2.4614822811,
				"z": 5.0456695576,
				"element": "C" 
			},
			{
				"x": 0.2971231622,
				"y": 1.8912957855,
				"z": 5.6317678776,
				"element": "F" 
			},
			{
				"x": 1.0361256018,
				"y": 2.8045065924,
				"z": 3.7922758326,
				"element": "F" 
			},
			{
				"x": 1.6831591137,
				"y": 3.5646587513,
				"z": 5.7283309242,
				"element": "F" 
			},
			{
				"x": 0.4476065112,
				"y": -0.0767097575,
				"z": -4.4121126984,
				"element": "C" 
			},
			{
				"x": 1.3495319458,
				"y": -1.2437419337,
				"z": -4.7386540334,
				"element": "C" 
			},
			{
				"x": 0.006139176,
				"y": 0.7826315543,
				"z": -5.4195540504,
				"element": "C" 
			},
			{
				"x": -1.5785481769,
				"y": 3.7590862112,
				"z": -5.890545828,
				"element": "H" 
			},
			{
				"x": -2.245566805,
				"y": 2.3485075765,
				"z": -6.7146872391,
				"element": "H" 
			},
			{
				"x": -0.5922792806,
				"y": 2.8606575739,
				"z": -7.0557663837,
				"element": "H" 
			},
			{
				"x": -1.8513348268,
				"y": 2.9384758737,
				"z": -3.5863533603,
				"element": "H" 
			},
			{
				"x": -0.3762884888,
				"y": 1.4254064385,
				"z": -0.6523758061,
				"element": "H" 
			},
			{
				"x": -2.0136319121,
				"y": 0.9152023212,
				"z": -1.0328628601,
				"element": "H" 
			},
			{
				"x": -1.5408855094,
				"y": 2.6116853166,
				"z": -1.2703559445,
				"element": "H" 
			},
			{
				"x": 1.512567878,
				"y": -0.9035885674,
				"z": -2.0527410917,
				"element": "H" 
			},
			{
				"x": 2.3553055739,
				"y": -1.1212865124,
				"z": -4.3139577408,
				"element": "H" 
			},
			{
				"x": 0.9491833088,
				"y": -2.1858061842,
				"z": -4.3485453974,
				"element": "H" 
			},
			{
				"x": 1.4694362743,
				"y": -1.349179895,
				"z": -5.8194034119,
				"element": "H" 
			},
			{
				"x": 0.3222556984,
				"y": 0.5955454153,
				"z": -6.4432225484,
				"element": "H" 
			}
		],
		 "valence_orbital": [ 
			{
				"type": "occ",
				"energy": -0.3419,
				"method": "rhf"
			},
			{
				"type": "occ",
				"energy": -0.29693,
				"method": "rhf"
			},
			{
				"type": "occ",
				"energy": -0.27749,
				"method": "rhf"
			},
			{
				"type": "occ",
				"energy": -0.24406,
				"method": "rhf"
			},
			{
				"type": "occ",
				"energy": -0.23507,
				"method": "rhf"
			},
			{
				"type": "unocc",
				"energy": -0.03092,
				"method": "rhf"
			},
			{
				"type": "unocc",
				"energy": -0.0039,
				"method": "rhf"
			},
			{
				"type": "unocc",
				"energy": -0.00014,
				"method": "rhf"
			},
			{
				"type": "unocc",
				"energy": 0.01098,
				"method": "rhf"
			},
			{
				"type": "unocc",
				"energy": 0.01818,
				"method": "rhf"
			}
		],
		"cosmo_sigma_profile": { 
			"-0.025": 0.0,
			"-0.024": 0.0,
			"-0.023": 0.0,
			"-0.022": 0.0,
			"-0.021": 0.0,
			"-0.02": 0.0,
			"-0.019": 0.0,
			"-0.018": 0.0,
			"-0.017": 0.0,
			"-0.016": 0.0,
			"-0.015": 0.141750222177,
			"-0.014": 0.487162956955,
			"-0.013": 0.8443817799,
			"-0.012": 0.993502047666,
			"-0.011": 1.13183406446,
			"-0.01": 1.49613484671,
			"-0.009": 0.982458319628,
			"-0.008": 2.20376003998,
			"-0.007": 2.77640692893,
			"-0.006": 3.18204999355,
			"-0.005": 12.5418734603,
			"-0.004": 22.6640171958,
			"-0.003": 24.5049645037,
			"-0.002": 34.0222662982,
			"-0.001": 48.9743765074,
			"0.0": 98.8740154478,
			"0.001": 128.625224429,
			"0.002": 25.2101138212,
			"0.003": 9.09770680688,
			"0.004": 9.11859119251,
			"0.005": 11.0669341074,
			"0.006": 5.20688288183,
			"0.007": 2.42897871985,
			"0.008": 2.46210582755,
			"0.009": 1.91545716473,
			"0.01": 2.27330575155,
			"0.011": 3.91119912582,
			"0.012": 1.68454146428,
			"0.013": 0.0,
			"0.014": 0.0,
			"0.015": 0.0,
			"0.016": 0.0,
			"0.017": 0.0,
			"0.018": 0.0,
			"0.019": 0.0,
			"0.02": 0.0,
			"0.021": 0.0,
			"0.022": 0.0,
			"0.023": 0.0,
			"0.024": 0.0,
			"0.025": 0.0
		}
	}
}
