{
	 "smiles": "[O-][N+](=O)C1=CC=C(C=C1)C(=O)C1=CC=C(F)C=C1", 
	 "Tm": 361.15, 
	 "num_atms": 26, 
	 "gaussian": { 
		 "optdone": 1, 
		 "sigma_profile": "yes", 
		 "theory": "DFT", 
		 "functional": "B3LYP", 
		 "basiset": "6-31G**", 
		 "properties": { 
			 "R2extent": 6577.5591, 
			 "electric_dipole_moment_norm": 3.60665088968, 
			 "electric_quadrupole_moment_norm": 18.2571398461, 
			 "total_energy": -880.361549, 
			 "HOMO_LUMO_gap": 0.15643, 
			 "cosmo_polarized_energy": -11.99, 
			 "cosmo_cavitation_energy": 32.67, 
			 "cosmo_dispersion_energy": -23.41, 
			 "cosmo_repulsion_energy": 1.75, 
			 "cosmo_total_nonelectrostatic_energy": 11.02, 
			 "SMD_solvation_energy": 8.77 
		},
		"coords": [
			{
				"x": 2.508734852,
				"y": -1.1802763278,
				"z": 4.9099443306,
				"element": "O" 
			},
			{
				"x": 1.7403374704,
				"y": -1.8000227558,
				"z": 4.1768100965,
				"element": "N" 
			},
			{
				"x": 1.5233957514,
				"y": -3.0088698996,
				"z": 4.2448360849,
				"element": "O" 
			},
			{
				"x": 1.0262229035,
				"y": -1.0364349643,
				"z": 3.1367741897,
				"element": "C" 
			},
			{
				"x": 1.2479981864,
				"y": 0.3369332026,
				"z": 3.0361163849,
				"element": "C" 
			},
			{
				"x": 0.5666663825,
				"y": 1.0483851175,
				"z": 2.0560915575,
				"element": "C" 
			},
			{
				"x": -0.3039696545,
				"y": 0.3937140784,
				"z": 1.1694888215,
				"element": "C" 
			},
			{
				"x": -0.5132461187,
				"y": -0.9879537276,
				"z": 1.3027748394,
				"element": "C" 
			},
			{
				"x": 0.1477310104,
				"y": -1.7110284755,
				"z": 2.293320257,
				"element": "C" 
			},
			{
				"x": -1.0512450688,
				"y": 1.2422633536,
				"z": 0.1730273386,
				"element": "C" 
			},
			{
				"x": -1.3360375914,
				"y": 2.3952566901,
				"z": 0.4751055528,
				"element": "O" 
			},
			{
				"x": -1.4421039119,
				"y": 0.6888870602,
				"z": -1.1587343836,
				"element": "C" 
			},
			{
				"x": -2.5029864921,
				"y": 1.3149587334,
				"z": -1.8373238418,
				"element": "C" 
			},
			{
				"x": -2.8948331433,
				"y": 0.8856367079,
				"z": -3.0988559384,
				"element": "C" 
			},
			{
				"x": -2.1966332064,
				"y": -0.165222737,
				"z": -3.6909673728,
				"element": "C" 
			},
			{
				"x": -2.5665436098,
				"y": -0.583003846,
				"z": -4.9138681821,
				"element": "F" 
			},
			{
				"x": -1.1260980937,
				"y": -0.7919000008,
				"z": -3.0617451754,
				"element": "C" 
			},
			{
				"x": -0.7551112055,
				"y": -0.3619772688,
				"z": -1.7893008081,
				"element": "C" 
			},
			{
				"x": 1.934928994,
				"y": 0.8179444981,
				"z": 3.7209866516,
				"element": "H" 
			},
			{
				"x": 0.6924716454,
				"y": 2.1213855889,
				"z": 1.9627419891,
				"element": "H" 
			},
			{
				"x": -1.2119636494,
				"y": -1.4981724609,
				"z": 0.6490808301,
				"element": "H" 
			},
			{
				"x": -0.0055247972,
				"y": -2.7748982096,
				"z": 2.4232033084,
				"element": "H" 
			},
			{
				"x": -3.008169716,
				"y": 2.1430348616,
				"z": -1.3521446906,
				"element": "H" 
			},
			{
				"x": -3.7191407722,
				"y": 1.3475626277,
				"z": -3.6310791316,
				"element": "H" 
			},
			{
				"x": -0.5999606675,
				"y": -1.5926054626,
				"z": -3.5695388536,
				"element": "H" 
			},
			{
				"x": 0.0913805023,
				"y": -0.8315963835,
				"z": -1.3004438547,
				"element": "H" 
			}
		],
		 "valence_orbital": [ 
			{
				"type": "occ",
				"energy": -0.29255,
				"method": "rhf"
			},
			{
				"type": "occ",
				"energy": -0.28884,
				"method": "rhf"
			},
			{
				"type": "occ",
				"energy": -0.28303,
				"method": "rhf"
			},
			{
				"type": "occ",
				"energy": -0.2727,
				"method": "rhf"
			},
			{
				"type": "occ",
				"energy": -0.26292,
				"method": "rhf"
			},
			{
				"type": "unocc",
				"energy": -0.10649,
				"method": "rhf"
			},
			{
				"type": "unocc",
				"energy": -0.06674,
				"method": "rhf"
			},
			{
				"type": "unocc",
				"energy": -0.03949,
				"method": "rhf"
			},
			{
				"type": "unocc",
				"energy": -0.03015,
				"method": "rhf"
			},
			{
				"type": "unocc",
				"energy": -0.01601,
				"method": "rhf"
			}
		],
		"cosmo_sigma_profile": { 
			"-0.025": 0.0,
			"-0.024": 0.0,
			"-0.023": 0.0,
			"-0.022": 0.0,
			"-0.021": 0.0,
			"-0.02": 0.0,
			"-0.019": 0.0,
			"-0.018": 0.0,
			"-0.017": 0.0,
			"-0.016": 0.0,
			"-0.015": 0.0,
			"-0.014": 0.0,
			"-0.013": 0.0,
			"-0.012": 0.0,
			"-0.011": 0.0,
			"-0.01": 0.0,
			"-0.009": 0.0604204343041,
			"-0.008": 5.79973823325,
			"-0.007": 14.4291039622,
			"-0.006": 15.9712260574,
			"-0.005": 17.7592472411,
			"-0.004": 15.8525708079,
			"-0.003": 15.2614838743,
			"-0.002": 18.4379453239,
			"-0.001": 22.185780502,
			"0.0": 26.7577781712,
			"0.001": 23.7622725378,
			"0.002": 18.0966397932,
			"0.003": 12.1135951107,
			"0.004": 12.2928591203,
			"0.005": 5.71972848902,
			"0.006": 5.71413506686,
			"0.007": 10.3682543785,
			"0.008": 8.41922247152,
			"0.009": 5.58014215001,
			"0.01": 3.82896473,
			"0.011": 3.98372392564,
			"0.012": 1.64117142103,
			"0.013": 0.0,
			"0.014": 0.0,
			"0.015": 0.0,
			"0.016": 0.0,
			"0.017": 0.0,
			"0.018": 0.0,
			"0.019": 0.0,
			"0.02": 0.0,
			"0.021": 0.0,
			"0.022": 0.0,
			"0.023": 0.0,
			"0.024": 0.0,
			"0.025": 0.0
		}
	}
}
