{
	 "smiles": "CC(C)(C)OC(=O)N1CCCC(CO)C1", 
	 "Tm": 350.15, 
	 "num_atms": 36, 
	 "gaussian": { 
		 "optdone": 1, 
		 "sigma_profile": "yes", 
		 "theory": "DFT", 
		 "functional": "B3LYP", 
		 "basiset": "6-31G**", 
		 "properties": { 
			 "R2extent": 4599.0059, 
			 "electric_dipole_moment_norm": 1.76539374928, 
			 "electric_quadrupole_moment_norm": 13.0985593257, 
			 "total_energy": -712.288194383, 
			 "HOMO_LUMO_gap": 0.28782, 
			 "cosmo_polarized_energy": -11.88, 
			 "cosmo_cavitation_energy": 35.84, 
			 "cosmo_dispersion_energy": -25.02, 
			 "cosmo_repulsion_energy": 2.0, 
			 "cosmo_total_nonelectrostatic_energy": 12.82, 
			 "SMD_solvation_energy": 6.26 
		},
		"coords": [
			{
				"x": 3.1819820317,
				"y": -1.4082178576,
				"z": -2.9648152812,
				"element": "C" 
			},
			{
				"x": 2.7549970916,
				"y": -1.5747156752,
				"z": -1.5022530612,
				"element": "C" 
			},
			{
				"x": 2.3358317587,
				"y": -3.0132085993,
				"z": -1.1794728563,
				"element": "C" 
			},
			{
				"x": 3.8685416788,
				"y": -1.1114491362,
				"z": -0.5584124214,
				"element": "C" 
			},
			{
				"x": 1.6618842451,
				"y": -0.6445302364,
				"z": -1.1845413819,
				"element": "O" 
			},
			{
				"x": 0.4683553134,
				"y": -0.7287620201,
				"z": -1.8273743192,
				"element": "C" 
			},
			{
				"x": 0.1940895692,
				"y": -1.5480311018,
				"z": -2.6946764769,
				"element": "O" 
			},
			{
				"x": -0.4083982084,
				"y": 0.2244079679,
				"z": -1.3758671431,
				"element": "N" 
			},
			{
				"x": -1.7371081318,
				"y": 0.3148757169,
				"z": -1.9805970065,
				"element": "C" 
			},
			{
				"x": -2.8250351252,
				"y": 0.3039218437,
				"z": -0.8999083548,
				"element": "C" 
			},
			{
				"x": -2.561733889,
				"y": 1.3828476493,
				"z": 0.1594060152,
				"element": "C" 
			},
			{
				"x": -1.1490435869,
				"y": 1.2488252998,
				"z": 0.7503124141,
				"element": "C" 
			},
			{
				"x": -0.8394807751,
				"y": 2.3483942378,
				"z": 1.7734512013,
				"element": "C" 
			},
			{
				"x": -1.7683109795,
				"y": 2.3920862604,
				"z": 2.848919323,
				"element": "O" 
			},
			{
				"x": -0.0966750568,
				"y": 1.2402450452,
				"z": -0.3735221993,
				"element": "C" 
			},
			{
				"x": 3.4364950038,
				"y": -0.3631496684,
				"z": -3.168715976,
				"element": "H" 
			},
			{
				"x": 4.0702378153,
				"y": -2.0180420686,
				"z": -3.1600228634,
				"element": "H" 
			},
			{
				"x": 2.3845518353,
				"y": -1.716865342,
				"z": -3.6405956217,
				"element": "H" 
			},
			{
				"x": 2.0003513506,
				"y": -3.0861600085,
				"z": -0.1398404533,
				"element": "H" 
			},
			{
				"x": 1.5293267902,
				"y": -3.3399832159,
				"z": -1.8357191447,
				"element": "H" 
			},
			{
				"x": 3.1924640167,
				"y": -3.6832245357,
				"z": -1.3069948068,
				"element": "H" 
			},
			{
				"x": 3.5493676054,
				"y": -1.1910103411,
				"z": 0.4850992486,
				"element": "H" 
			},
			{
				"x": 4.7597469934,
				"y": -1.731114279,
				"z": -0.6952791888,
				"element": "H" 
			},
			{
				"x": 4.1371885867,
				"y": -0.0700905684,
				"z": -0.7592257882,
				"element": "H" 
			},
			{
				"x": -1.8409841953,
				"y": -0.5194915095,
				"z": -2.6733592617,
				"element": "H" 
			},
			{
				"x": -1.8036822997,
				"y": 1.249333747,
				"z": -2.5604765836,
				"element": "H" 
			},
			{
				"x": -2.8457447861,
				"y": -0.6861924427,
				"z": -0.4267073752,
				"element": "H" 
			},
			{
				"x": -3.8037077591,
				"y": 0.4568106213,
				"z": -1.3697428898,
				"element": "H" 
			},
			{
				"x": -2.6562816857,
				"y": 2.3776901115,
				"z": -0.3018913067,
				"element": "H" 
			},
			{
				"x": -3.3040635224,
				"y": 1.3428668181,
				"z": 0.962115137,
				"element": "H" 
			},
			{
				"x": -1.0785535279,
				"y": 0.2758604678,
				"z": 1.2635880746,
				"element": "H" 
			},
			{
				"x": -0.9016081349,
				"y": 3.3323053234,
				"z": 1.2935377302,
				"element": "H" 
			},
			{
				"x": 0.1929099441,
				"y": 2.2338910832,
				"z": 2.1436177101,
				"element": "H" 
			},
			{
				"x": -1.6988405456,
				"y": 1.557365423,
				"z": 3.3305135462,
				"element": "H" 
			},
			{
				"x": 0.8995496561,
				"y": 1.0497202424,
				"z": 0.0216938115,
				"element": "H" 
			},
			{
				"x": -0.0804190767,
				"y": 2.2304907476,
				"z": -0.8589424501,
				"element": "H" 
			}
		],
		 "valence_orbital": [ 
			{
				"type": "occ",
				"energy": -0.31853,
				"method": "rhf"
			},
			{
				"type": "occ",
				"energy": -0.28339,
				"method": "rhf"
			},
			{
				"type": "occ",
				"energy": -0.27075,
				"method": "rhf"
			},
			{
				"type": "occ",
				"energy": -0.255,
				"method": "rhf"
			},
			{
				"type": "occ",
				"energy": -0.23089,
				"method": "rhf"
			},
			{
				"type": "unocc",
				"energy": 0.05693,
				"method": "rhf"
			},
			{
				"type": "unocc",
				"energy": 0.06826,
				"method": "rhf"
			},
			{
				"type": "unocc",
				"energy": 0.08507,
				"method": "rhf"
			},
			{
				"type": "unocc",
				"energy": 0.10134,
				"method": "rhf"
			},
			{
				"type": "unocc",
				"energy": 0.10509,
				"method": "rhf"
			}
		],
		"cosmo_sigma_profile": { 
			"-0.025": 0.0,
			"-0.024": 0.0,
			"-0.023": 0.0,
			"-0.022": 0.0,
			"-0.021": 0.0,
			"-0.02": 0.0,
			"-0.019": 0.0,
			"-0.018": 0.0,
			"-0.017": 0.0,
			"-0.016": 0.0529351202731,
			"-0.015": 0.803869843223,
			"-0.014": 1.03617761495,
			"-0.013": 1.15384710267,
			"-0.012": 0.644522073273,
			"-0.011": 1.02735331937,
			"-0.01": 1.23826876465,
			"-0.009": 0.459610459214,
			"-0.008": 0.625786626888,
			"-0.007": 0.868493015361,
			"-0.006": 1.82396857795,
			"-0.005": 2.36170805132,
			"-0.004": 22.7535932705,
			"-0.003": 40.7348315535,
			"-0.002": 38.1778027042,
			"-0.001": 34.6516627701,
			"0.0": 36.2685594755,
			"0.001": 31.3034277431,
			"0.002": 11.4333763853,
			"0.003": 6.42117651183,
			"0.004": 5.50264635854,
			"0.005": 6.80909273181,
			"0.006": 4.20762741771,
			"0.007": 2.67170409679,
			"0.008": 3.15815674589,
			"0.009": 3.40798556583,
			"0.01": 1.66013504656,
			"0.011": 3.27363374129,
			"0.012": 2.54433402127,
			"0.013": 4.01265184431,
			"0.014": 4.23159612776,
			"0.015": 0.993644347068,
			"0.016": 0.0,
			"0.017": 0.0,
			"0.018": 0.0,
			"0.019": 0.0,
			"0.02": 0.0,
			"0.021": 0.0,
			"0.022": 0.0,
			"0.023": 0.0,
			"0.024": 0.0,
			"0.025": 0.0
		}
	}
}
