{
	 "smiles": "[O-][N+](=O)C1=CC(OC2=CC=C(C=O)C=C2)=CC=C1", 
	 "Tm": 333.15, 
	 "num_atms": 27, 
	 "gaussian": { 
		 "optdone": 1, 
		 "sigma_profile": "yes", 
		 "theory": "DFT", 
		 "functional": "B3LYP", 
		 "basiset": "6-31G**", 
		 "properties": { 
			 "R2extent": 6274.6051, 
			 "electric_dipole_moment_norm": 5.40457088768, 
			 "electric_quadrupole_moment_norm": 24.1543346909, 
			 "total_energy": -856.335680874, 
			 "HOMO_LUMO_gap": 0.15082, 
			 "cosmo_polarized_energy": -13.95, 
			 "cosmo_cavitation_energy": 33.67, 
			 "cosmo_dispersion_energy": -23.81, 
			 "cosmo_repulsion_energy": 1.83, 
			 "cosmo_total_nonelectrostatic_energy": 11.69, 
			 "SMD_solvation_energy": 9.31 
		},
		"coords": [
			{
				"x": -0.4434956028,
				"y": -2.1500692858,
				"z": -5.22782607,
				"element": "O" 
			},
			{
				"x": -0.4187137978,
				"y": -1.3023304907,
				"z": -4.3375373737,
				"element": "N" 
			},
			{
				"x": -0.0966693074,
				"y": -0.1258170722,
				"z": -4.4950245218,
				"element": "O" 
			},
			{
				"x": -0.8036320738,
				"y": -1.729666478,
				"z": -2.978588226,
				"element": "C" 
			},
			{
				"x": -0.7902484438,
				"y": -0.7780158777,
				"z": -1.9620751026,
				"element": "C" 
			},
			{
				"x": -1.1541560693,
				"y": -1.1904156823,
				"z": -0.6798878022,
				"element": "C" 
			},
			{
				"x": -1.2499866612,
				"y": -0.3167156591,
				"z": 0.3803855183,
				"element": "O" 
			},
			{
				"x": -0.3301481727,
				"y": 0.6924459591,
				"z": 0.5696823916,
				"element": "C" 
			},
			{
				"x": 1.0344764799,
				"y": 0.5387326483,
				"z": 0.2843368828,
				"element": "C" 
			},
			{
				"x": 1.9058048745,
				"y": 1.5804569743,
				"z": 0.5730389089,
				"element": "C" 
			},
			{
				"x": 1.4327027864,
				"y": 2.7700441937,
				"z": 1.1490577649,
				"element": "C" 
			},
			{
				"x": 2.3674459009,
				"y": 3.8724808501,
				"z": 1.4572075938,
				"element": "C" 
			},
			{
				"x": 3.5656568939,
				"y": 3.8414866032,
				"z": 1.2477736527,
				"element": "O" 
			},
			{
				"x": 0.0670053754,
				"y": 2.9008915865,
				"z": 1.43563796,
				"element": "C" 
			},
			{
				"x": -0.818489816,
				"y": 1.868232415,
				"z": 1.1469698957,
				"element": "C" 
			},
			{
				"x": -1.5322657913,
				"y": -2.5149855799,
				"z": -0.4360775537,
				"element": "C" 
			},
			{
				"x": -1.5429012079,
				"y": -3.4380879939,
				"z": -1.4812496417,
				"element": "C" 
			},
			{
				"x": -1.1724892157,
				"y": -3.0563033238,
				"z": -2.7702591914,
				"element": "C" 
			},
			{
				"x": -0.5074978075,
				"y": 0.2429971957,
				"z": -2.181798236,
				"element": "H" 
			},
			{
				"x": 1.4005235011,
				"y": -0.3856070239,
				"z": -0.148589166,
				"element": "H" 
			},
			{
				"x": 2.9679410859,
				"y": 1.4929045585,
				"z": 0.367416018,
				"element": "H" 
			},
			{
				"x": 1.8901662783,
				"y": 4.7691934312,
				"z": 1.9124559033,
				"element": "H" 
			},
			{
				"x": -0.3025919261,
				"y": 3.8205503051,
				"z": 1.8829621691,
				"element": "H" 
			},
			{
				"x": -1.8791801394,
				"y": 1.9480981933,
				"z": 1.3586049176,
				"element": "H" 
			},
			{
				"x": -1.8168398642,
				"y": -2.7984588653,
				"z": 0.5715108669,
				"element": "H" 
			},
			{
				"x": -1.8369374369,
				"y": -4.4644974683,
				"z": -1.2874113075,
				"element": "H" 
			},
			{
				"x": -1.1648798426,
				"y": -3.7512441131,
				"z": -3.5996162509,
				"element": "H" 
			}
		],
		 "valence_orbital": [ 
			{
				"type": "occ",
				"energy": -0.29297,
				"method": "rhf"
			},
			{
				"type": "occ",
				"energy": -0.28291,
				"method": "rhf"
			},
			{
				"type": "occ",
				"energy": -0.27695,
				"method": "rhf"
			},
			{
				"type": "occ",
				"energy": -0.25874,
				"method": "rhf"
			},
			{
				"type": "occ",
				"energy": -0.24758,
				"method": "rhf"
			},
			{
				"type": "unocc",
				"energy": -0.09676,
				"method": "rhf"
			},
			{
				"type": "unocc",
				"energy": -0.06759,
				"method": "rhf"
			},
			{
				"type": "unocc",
				"energy": -0.0353,
				"method": "rhf"
			},
			{
				"type": "unocc",
				"energy": -0.02503,
				"method": "rhf"
			},
			{
				"type": "unocc",
				"energy": -0.00592,
				"method": "rhf"
			}
		],
		"cosmo_sigma_profile": { 
			"-0.025": 0.0,
			"-0.024": 0.0,
			"-0.023": 0.0,
			"-0.022": 0.0,
			"-0.021": 0.0,
			"-0.02": 0.0,
			"-0.019": 0.0,
			"-0.018": 0.0,
			"-0.017": 0.0,
			"-0.016": 0.0,
			"-0.015": 0.0,
			"-0.014": 0.0,
			"-0.013": 0.0,
			"-0.012": 0.0,
			"-0.011": 0.0,
			"-0.01": 0.0,
			"-0.009": 0.105611933479,
			"-0.008": 6.27845161884,
			"-0.007": 15.3553644035,
			"-0.006": 19.8464105236,
			"-0.005": 17.7339307933,
			"-0.004": 17.1744940126,
			"-0.003": 16.3497092715,
			"-0.002": 18.0500920363,
			"-0.001": 21.2108205018,
			"0.0": 22.9857602795,
			"0.001": 25.7184448438,
			"0.002": 22.9986448921,
			"0.003": 10.7504442068,
			"0.004": 5.60346119845,
			"0.005": 6.02119477251,
			"0.006": 6.6872333584,
			"0.007": 11.2246923497,
			"0.008": 8.66180351803,
			"0.009": 5.81007395037,
			"0.01": 4.5205011901,
			"0.011": 3.921501474,
			"0.012": 3.42441111029,
			"0.013": 1.00738260583,
			"0.014": 0.00912036808595,
			"0.015": 0.0,
			"0.016": 0.0,
			"0.017": 0.0,
			"0.018": 0.0,
			"0.019": 0.0,
			"0.02": 0.0,
			"0.021": 0.0,
			"0.022": 0.0,
			"0.023": 0.0,
			"0.024": 0.0,
			"0.025": 0.0
		}
	}
}
