{
	 "smiles": "CC1=CC=C(O1)C(C1=CC=C(C)O1)C1=C(O)C(Br)=CC(=C1)[N+]([O-])=O", 
	 "Tm": 426.15, 
	 "num_atms": 38, 
	 "gaussian": { 
		 "optdone": 1, 
		 "sigma_profile": "yes", 
		 "theory": "DFT", 
		 "functional": "B3LYP", 
		 "basiset": "6-31G**", 
		 "properties": { 
			 "R2extent": 11298.0733, 
			 "electric_dipole_moment_norm": 4.44439980875, 
			 "electric_quadrupole_moment_norm": 23.3139411866, 
			 "total_energy": -3658.39152957, 
			 "HOMO_LUMO_gap": 0.12841, 
			 "cosmo_polarized_energy": -13.56, 
			 "cosmo_cavitation_energy": 46.35, 
			 "cosmo_dispersion_energy": -31.26, 
			 "cosmo_repulsion_energy": 2.46, 
			 "cosmo_total_nonelectrostatic_energy": 17.56, 
			 "SMD_solvation_energy": 10.24 
		},
		"coords": [
			{
				"x": -0.4699140289,
				"y": -4.3011526213,
				"z": 2.3162998261,
				"element": "C" 
			},
			{
				"x": -1.1902732226,
				"y": -3.0042829571,
				"z": 2.1976310675,
				"element": "C" 
			},
			{
				"x": -2.3455689198,
				"y": -2.5125831026,
				"z": 2.7290055721,
				"element": "C" 
			},
			{
				"x": -2.4994695647,
				"y": -1.1791487849,
				"z": 2.2224514236,
				"element": "C" 
			},
			{
				"x": -1.4252130007,
				"y": -0.9441492253,
				"z": 1.4193593605,
				"element": "C" 
			},
			{
				"x": -0.6179350816,
				"y": -2.0531252763,
				"z": 1.3908109177,
				"element": "O" 
			},
			{
				"x": -1.0138089539,
				"y": 0.2310628102,
				"z": 0.5803419841,
				"element": "C" 
			},
			{
				"x": 0.2896381197,
				"y": 0.8345366889,
				"z": 1.0231090306,
				"element": "C" 
			},
			{
				"x": 1.3396624718,
				"y": 0.4088580462,
				"z": 1.7803146158,
				"element": "C" 
			},
			{
				"x": 2.282838629,
				"y": 1.4903329681,
				"z": 1.8098113187,
				"element": "C" 
			},
			{
				"x": 1.7479347889,
				"y": 2.5003692528,
				"z": 1.0670957539,
				"element": "C" 
			},
			{
				"x": 2.2073647662,
				"y": 3.8688122912,
				"z": 0.7048127766,
				"element": "C" 
			},
			{
				"x": 0.5266573857,
				"y": 2.1113204048,
				"z": 0.5794784926,
				"element": "O" 
			},
			{
				"x": -1.0157311564,
				"y": -0.1358905982,
				"z": -0.9115289279,
				"element": "C" 
			},
			{
				"x": -2.2083822485,
				"y": -0.000315358,
				"z": -1.6527923644,
				"element": "C" 
			},
			{
				"x": -3.2981779981,
				"y": 0.478063683,
				"z": -1.0174239038,
				"element": "O" 
			},
			{
				"x": -2.2204022899,
				"y": -0.3596045721,
				"z": -3.0135339996,
				"element": "C" 
			},
			{
				"x": -3.8533380576,
				"y": -0.1442003432,
				"z": -3.9921390334,
				"element": "Br" 
			},
			{
				"x": -1.0936534769,
				"y": -0.8565282147,
				"z": -3.6467919085,
				"element": "C" 
			},
			{
				"x": 0.0684792816,
				"y": -0.9893594273,
				"z": -2.8907568226,
				"element": "C" 
			},
			{
				"x": 0.1173967257,
				"y": -0.6348936828,
				"z": -1.5432685583,
				"element": "C" 
			},
			{
				"x": 1.2713583712,
				"y": -1.5145423791,
				"z": -3.5414051522,
				"element": "N" 
			},
			{
				"x": 2.2891314493,
				"y": -1.6250924889,
				"z": -2.8579549902,
				"element": "O" 
			},
			{
				"x": 1.1917283978,
				"y": -1.8146965997,
				"z": -4.7340267994,
				"element": "O" 
			},
			{
				"x": -0.3565127452,
				"y": -4.7883782425,
				"z": 1.3410801009,
				"element": "H" 
			},
			{
				"x": -1.0262157741,
				"y": -4.9741645215,
				"z": 2.9727601156,
				"element": "H" 
			},
			{
				"x": 0.5346605377,
				"y": -4.1682052305,
				"z": 2.7345240983,
				"element": "H" 
			},
			{
				"x": -3.0104445525,
				"y": -3.0378410864,
				"z": 3.3999295465,
				"element": "H" 
			},
			{
				"x": -3.3046147297,
				"y": -0.4877466824,
				"z": 2.4257629591,
				"element": "H" 
			},
			{
				"x": -1.7921091264,
				"y": 0.9871892919,
				"z": 0.7249644129,
				"element": "H" 
			},
			{
				"x": 1.4287663944,
				"y": -0.5558836167,
				"z": 2.2559425559,
				"element": "H" 
			},
			{
				"x": 3.2360338004,
				"y": 1.5104260349,
				"z": 2.3187579095,
				"element": "H" 
			},
			{
				"x": 1.5112511062,
				"y": 4.635523946,
				"z": 1.0644359775,
				"element": "H" 
			},
			{
				"x": 2.2954185122,
				"y": 3.9887332525,
				"z": -0.3811940096,
				"element": "H" 
			},
			{
				"x": 3.1864616972,
				"y": 4.0601339681,
				"z": 1.1498749982,
				"element": "H" 
			},
			{
				"x": -4.0340479688,
				"y": 0.5313702997,
				"z": -1.6506299675,
				"element": "H" 
			},
			{
				"x": -1.0981633871,
				"y": -1.1347442104,
				"z": -4.6919350766,
				"element": "H" 
			},
			{
				"x": 1.0454938482,
				"y": -0.7451037166,
				"z": -0.9963733002,
				"element": "H" 
			}
		],
		 "valence_orbital": [ 
			{
				"type": "occ",
				"energy": -0.27448,
				"method": "rhf"
			},
			{
				"type": "occ",
				"energy": -0.26929,
				"method": "rhf"
			},
			{
				"type": "occ",
				"energy": -0.25258,
				"method": "rhf"
			},
			{
				"type": "occ",
				"energy": -0.21938,
				"method": "rhf"
			},
			{
				"type": "occ",
				"energy": -0.21167,
				"method": "rhf"
			},
			{
				"type": "unocc",
				"energy": -0.08326,
				"method": "rhf"
			},
			{
				"type": "unocc",
				"energy": -0.03534,
				"method": "rhf"
			},
			{
				"type": "unocc",
				"energy": -0.02115,
				"method": "rhf"
			},
			{
				"type": "unocc",
				"energy": 0.00577,
				"method": "rhf"
			},
			{
				"type": "unocc",
				"energy": 0.01002,
				"method": "rhf"
			}
		],
		"cosmo_sigma_profile": { 
			"-0.025": 0.0,
			"-0.024": 0.0,
			"-0.023": 0.0,
			"-0.022": 0.0,
			"-0.021": 0.0,
			"-0.02": 0.0,
			"-0.019": 0.0,
			"-0.018": 0.0,
			"-0.017": 0.0,
			"-0.016": 0.17169191085,
			"-0.015": 0.661046078022,
			"-0.014": 0.370094616245,
			"-0.013": 0.474804788877,
			"-0.012": 1.14314024198,
			"-0.011": 1.00762258703,
			"-0.01": 0.943379720255,
			"-0.009": 1.19398099573,
			"-0.008": 2.48061645492,
			"-0.007": 4.2798432481,
			"-0.006": 12.9853414203,
			"-0.005": 23.9886477277,
			"-0.004": 25.6151839282,
			"-0.003": 29.9279139934,
			"-0.002": 35.7894365778,
			"-0.001": 44.2345118508,
			"0.0": 34.8072532085,
			"0.001": 24.2592347088,
			"0.002": 26.2463085089,
			"0.003": 24.244468269,
			"0.004": 19.30046378,
			"0.005": 17.985719375,
			"0.006": 15.5947951547,
			"0.007": 8.5338041115,
			"0.008": 9.76352036851,
			"0.009": 4.84890724731,
			"0.01": 3.01574112768,
			"0.011": 0.315480704929,
			"0.012": 0.0,
			"0.013": 0.0,
			"0.014": 0.0,
			"0.015": 0.0,
			"0.016": 0.0,
			"0.017": 0.0,
			"0.018": 0.0,
			"0.019": 0.0,
			"0.02": 0.0,
			"0.021": 0.0,
			"0.022": 0.0,
			"0.023": 0.0,
			"0.024": 0.0,
			"0.025": 0.0
		}
	}
}
