{
	 "smiles": "C1=CC=C(C=C1)C1=CC=CC2=CC=CC=C12", 
	 "Tm": 318.15, 
	 "num_atms": 28, 
	 "gaussian": { 
		 "optdone": 1, 
		 "sigma_profile": "yes", 
		 "theory": "DFT", 
		 "functional": "B3LYP", 
		 "basiset": "6-31G**", 
		 "properties": { 
			 "R2extent": 3905.2743, 
			 "electric_dipole_moment_norm": 0.165643140516, 
			 "electric_quadrupole_moment_norm": 6.17130671333, 
			 "total_energy": -616.950555105, 
			 "HOMO_LUMO_gap": 0.17524, 
			 "cosmo_polarized_energy": -5.65, 
			 "cosmo_cavitation_energy": 31.6, 
			 "cosmo_dispersion_energy": -22.61, 
			 "cosmo_repulsion_energy": 1.74, 
			 "cosmo_total_nonelectrostatic_energy": 10.74, 
			 "SMD_solvation_energy": 4.97 
		},
		"coords": [
			{
				"x": -1.0142658448,
				"y": -2.0101391542,
				"z": 2.6576329212,
				"element": "C" 
			},
			{
				"x": 0.0429635606,
				"y": -2.5313974388,
				"z": 1.9095830335,
				"element": "C" 
			},
			{
				"x": 0.3491731398,
				"y": -1.9931948919,
				"z": 0.6585519736,
				"element": "C" 
			},
			{
				"x": -0.3975625126,
				"y": -0.9268009402,
				"z": 0.135838814,
				"element": "C" 
			},
			{
				"x": -1.4565019037,
				"y": -0.4099576542,
				"z": 0.8971018018,
				"element": "C" 
			},
			{
				"x": -1.7631744442,
				"y": -0.9477650464,
				"z": 2.1481929797,
				"element": "C" 
			},
			{
				"x": -0.0850793001,
				"y": -0.3666512721,
				"z": -1.2169029426,
				"element": "C" 
			},
			{
				"x": -0.7001505552,
				"y": -0.898082028,
				"z": -2.3353452014,
				"element": "C" 
			},
			{
				"x": -0.4327049724,
				"y": -0.3980665001,
				"z": -3.6318124124,
				"element": "C" 
			},
			{
				"x": 0.4545594418,
				"y": 0.637887777,
				"z": -3.8045432964,
				"element": "C" 
			},
			{
				"x": 1.1129492653,
				"y": 1.2190106391,
				"z": -2.6880841181,
				"element": "C" 
			},
			{
				"x": 2.0339579239,
				"y": 2.290555593,
				"z": -2.842015601,
				"element": "C" 
			},
			{
				"x": 2.665329372,
				"y": 2.8449882661,
				"z": -1.7522248348,
				"element": "C" 
			},
			{
				"x": 2.4015097127,
				"y": 2.3489209328,
				"z": -0.4528731139,
				"element": "C" 
			},
			{
				"x": 1.5146903716,
				"y": 1.3115679217,
				"z": -0.2677139908,
				"element": "C" 
			},
			{
				"x": 0.8440893478,
				"y": 0.7144851069,
				"z": -1.3713721956,
				"element": "C" 
			},
			{
				"x": -1.2533077902,
				"y": -2.4293980893,
				"z": 3.6308392687,
				"element": "H" 
			},
			{
				"x": 0.6297334744,
				"y": -3.3589532616,
				"z": 2.2985854815,
				"element": "H" 
			},
			{
				"x": 1.1712040459,
				"y": -2.4007721556,
				"z": 0.0768693176,
				"element": "H" 
			},
			{
				"x": -2.041018074,
				"y": 0.4157888916,
				"z": 0.5012616551,
				"element": "H" 
			},
			{
				"x": -2.5882819927,
				"y": -0.5373627846,
				"z": 2.7237249836,
				"element": "H" 
			},
			{
				"x": -1.4032165754,
				"y": -1.7169855892,
				"z": -2.2126516555,
				"element": "H" 
			},
			{
				"x": -0.934010944,
				"y": -0.8394930079,
				"z": -4.488403212,
				"element": "H" 
			},
			{
				"x": 0.6651581264,
				"y": 1.0272872795,
				"z": -4.7974051936,
				"element": "H" 
			},
			{
				"x": 2.2312188509,
				"y": 2.6659573979,
				"z": -3.8431260107,
				"element": "H" 
			},
			{
				"x": 3.3668755794,
				"y": 3.6635887045,
				"z": -1.8852298201,
				"element": "H" 
			},
			{
				"x": 2.9032976174,
				"y": 2.7911248273,
				"z": 0.4031210818,
				"element": "H" 
			},
			{
				"x": 1.3163650795,
				"y": 0.9354564765,
				"z": 0.7303002866,
				"element": "H" 
			}
		],
		 "valence_orbital": [ 
			{
				"type": "occ",
				"energy": -0.27782,
				"method": "rhf"
			},
			{
				"type": "occ",
				"energy": -0.25016,
				"method": "rhf"
			},
			{
				"type": "occ",
				"energy": -0.24551,
				"method": "rhf"
			},
			{
				"type": "occ",
				"energy": -0.23975,
				"method": "rhf"
			},
			{
				"type": "occ",
				"energy": -0.21109,
				"method": "rhf"
			},
			{
				"type": "unocc",
				"energy": -0.03585,
				"method": "rhf"
			},
			{
				"type": "unocc",
				"energy": -0.01061,
				"method": "rhf"
			},
			{
				"type": "unocc",
				"energy": -0.00138,
				"method": "rhf"
			},
			{
				"type": "unocc",
				"energy": 0.00475,
				"method": "rhf"
			},
			{
				"type": "unocc",
				"energy": 0.03516,
				"method": "rhf"
			}
		],
		"cosmo_sigma_profile": { 
			"-0.025": 0.0,
			"-0.024": 0.0,
			"-0.023": 0.0,
			"-0.022": 0.0,
			"-0.021": 0.0,
			"-0.02": 0.0,
			"-0.019": 0.0,
			"-0.018": 0.0,
			"-0.017": 0.0,
			"-0.016": 0.0,
			"-0.015": 0.0,
			"-0.014": 0.0,
			"-0.013": 0.0,
			"-0.012": 0.0,
			"-0.011": 0.0,
			"-0.01": 0.0,
			"-0.009": 0.0,
			"-0.008": 0.0,
			"-0.007": 0.0,
			"-0.006": 11.0258535826,
			"-0.005": 22.8970161208,
			"-0.004": 24.6201655808,
			"-0.003": 24.6285742978,
			"-0.002": 17.1215509046,
			"-0.001": 15.7291234938,
			"0.0": 16.4251117009,
			"0.001": 20.7841664597,
			"0.002": 20.1121796388,
			"0.003": 19.8306514044,
			"0.004": 28.2989128991,
			"0.005": 24.5227682561,
			"0.006": 7.80825849515,
			"0.007": 0.0362798884467,
			"0.008": 0.0,
			"0.009": 0.0,
			"0.01": 0.0,
			"0.011": 0.0,
			"0.012": 0.0,
			"0.013": 0.0,
			"0.014": 0.0,
			"0.015": 0.0,
			"0.016": 0.0,
			"0.017": 0.0,
			"0.018": 0.0,
			"0.019": 0.0,
			"0.02": 0.0,
			"0.021": 0.0,
			"0.022": 0.0,
			"0.023": 0.0,
			"0.024": 0.0,
			"0.025": 0.0
		}
	}
}
