{
	 "smiles": "CS(=O)(=O)C1=C(C(O)=O)C(Cl)=CC=C1", 
	 "Tm": 421.15, 
	 "num_atms": 21, 
	 "gaussian": { 
		 "optdone": 1, 
		 "sigma_profile": "yes", 
		 "theory": "DFT", 
		 "functional": "B3LYP", 
		 "basiset": "6-31G**", 
		 "properties": { 
			 "R2extent": 3733.3081, 
			 "electric_dipole_moment_norm": 3.78781044668, 
			 "electric_quadrupole_moment_norm": 22.0127444618, 
			 "total_energy": -1468.27911049, 
			 "HOMO_LUMO_gap": 0.20179, 
			 "cosmo_polarized_energy": -17.01, 
			 "cosmo_cavitation_energy": 27.84, 
			 "cosmo_dispersion_energy": -21.01, 
			 "cosmo_repulsion_energy": 1.58, 
			 "cosmo_total_nonelectrostatic_energy": 8.41, 
			 "SMD_solvation_energy": 5.28 
		},
		"coords": [
			{
				"x": -0.522781592,
				"y": -3.1237723427,
				"z": 0.4474883273,
				"element": "C" 
			},
			{
				"x": 0.0353587511,
				"y": -1.936629871,
				"z": -0.78943263,
				"element": "S" 
			},
			{
				"x": -1.0126377221,
				"y": -1.8264322062,
				"z": -1.8103638138,
				"element": "O" 
			},
			{
				"x": 1.4125369739,
				"y": -2.3010008757,
				"z": -1.203724735,
				"element": "O" 
			},
			{
				"x": 0.1574166686,
				"y": -0.3364417045,
				"z": 0.0588495246,
				"element": "C" 
			},
			{
				"x": 1.0616588079,
				"y": -0.0944877427,
				"z": 1.1156142291,
				"element": "C" 
			},
			{
				"x": 1.8208724053,
				"y": -1.186712269,
				"z": 1.8590716483,
				"element": "C" 
			},
			{
				"x": 2.6576086772,
				"y": -1.9631027428,
				"z": 1.1606547823,
				"element": "O" 
			},
			{
				"x": 1.6634563325,
				"y": -1.3369054661,
				"z": 3.046974825,
				"element": "O" 
			},
			{
				"x": 1.1514732668,
				"y": 1.2320504666,
				"z": 1.5747472421,
				"element": "C" 
			},
			{
				"x": 2.2775159949,
				"y": 1.678727221,
				"z": 2.8359534572,
				"element": "Cl" 
			},
			{
				"x": 0.3789578833,
				"y": 2.2543530245,
				"z": 1.018253036,
				"element": "C" 
			},
			{
				"x": -0.5214174188,
				"y": 1.972187862,
				"z": -0.0032410022,
				"element": "C" 
			},
			{
				"x": -0.6328067729,
				"y": 0.6720746587,
				"z": -0.4911712606,
				"element": "C" 
			},
			{
				"x": 0.1979808286,
				"y": -3.1924729147,
				"z": 1.2624424399,
				"element": "H" 
			},
			{
				"x": -0.5945797214,
				"y": -4.0792304586,
				"z": -0.0765437059,
				"element": "H" 
			},
			{
				"x": -1.5040484757,
				"y": -2.810803798,
				"z": 0.8064484152,
				"element": "H" 
			},
			{
				"x": 2.5156651731,
				"y": -1.8925599951,
				"z": 0.191598557,
				"element": "H" 
			},
			{
				"x": 0.4915253526,
				"y": 3.2639353004,
				"z": 1.3969817472,
				"element": "H" 
			},
			{
				"x": -1.1281191865,
				"y": 2.7665041355,
				"z": -0.4257921779,
				"element": "H" 
			},
			{
				"x": -1.3115362264,
				"y": 0.4265197183,
				"z": -1.2996089058,
				"element": "H" 
			}
		],
		 "valence_orbital": [ 
			{
				"type": "occ",
				"energy": -0.31791,
				"method": "rhf"
			},
			{
				"type": "occ",
				"energy": -0.31607,
				"method": "rhf"
			},
			{
				"type": "occ",
				"energy": -0.30294,
				"method": "rhf"
			},
			{
				"type": "occ",
				"energy": -0.28562,
				"method": "rhf"
			},
			{
				"type": "occ",
				"energy": -0.27378,
				"method": "rhf"
			},
			{
				"type": "unocc",
				"energy": -0.07199,
				"method": "rhf"
			},
			{
				"type": "unocc",
				"energy": -0.05411,
				"method": "rhf"
			},
			{
				"type": "unocc",
				"energy": -0.00226,
				"method": "rhf"
			},
			{
				"type": "unocc",
				"energy": 0.00555,
				"method": "rhf"
			},
			{
				"type": "unocc",
				"energy": 0.04549,
				"method": "rhf"
			}
		],
		"cosmo_sigma_profile": { 
			"-0.025": 0.0,
			"-0.024": 0.0,
			"-0.023": 0.0,
			"-0.022": 0.0,
			"-0.021": 0.0,
			"-0.02": 0.0,
			"-0.019": 0.0,
			"-0.018": 0.0,
			"-0.017": 0.0,
			"-0.016": 0.0,
			"-0.015": 0.0,
			"-0.014": 0.0,
			"-0.013": 0.0,
			"-0.012": 0.0482023576995,
			"-0.011": 1.13072715165,
			"-0.01": 4.35053170366,
			"-0.009": 6.94515286377,
			"-0.008": 11.7274363882,
			"-0.007": 13.9327282259,
			"-0.006": 12.0081776345,
			"-0.005": 12.9507859554,
			"-0.004": 9.85960251253,
			"-0.003": 11.7057628573,
			"-0.002": 13.9541037153,
			"-0.001": 17.3001534999,
			"0.0": 17.2962266969,
			"0.001": 10.7077338215,
			"0.002": 10.2452985613,
			"0.003": 10.9087804483,
			"0.004": 6.39944916012,
			"0.005": 4.12483014502,
			"0.006": 5.25894281988,
			"0.007": 6.177757572,
			"0.008": 6.88155755653,
			"0.009": 9.23032427355,
			"0.01": 11.5857505986,
			"0.011": 9.55967803023,
			"0.012": 1.51091202102,
			"0.013": 0.00800670324255,
			"0.014": 0.0,
			"0.015": 0.0,
			"0.016": 0.0,
			"0.017": 0.0,
			"0.018": 0.0,
			"0.019": 0.0,
			"0.02": 0.0,
			"0.021": 0.0,
			"0.022": 0.0,
			"0.023": 0.0,
			"0.024": 0.0,
			"0.025": 0.0
		}
	}
}
