{
	 "smiles": "CC1=NC(=NC(O)=C1)C1=NC=CC=C1", 
	 "Tm": 388.15, 
	 "num_atms": 23, 
	 "gaussian": { 
		 "optdone": 1, 
		 "sigma_profile": "yes", 
		 "theory": "DFT", 
		 "functional": "B3LYP", 
		 "basiset": "6-31G**", 
		 "properties": { 
			 "R2extent": 3229.1188, 
			 "electric_dipole_moment_norm": 1.46944904641, 
			 "electric_quadrupole_moment_norm": 8.71839889716, 
			 "total_energy": -625.981319567, 
			 "HOMO_LUMO_gap": 0.18486, 
			 "cosmo_polarized_energy": -12.77, 
			 "cosmo_cavitation_energy": 27.9, 
			 "cosmo_dispersion_energy": -20.77, 
			 "cosmo_repulsion_energy": 1.64, 
			 "cosmo_total_nonelectrostatic_energy": 8.77, 
			 "SMD_solvation_energy": 2.03 
		},
		"coords": [
			{
				"x": -2.1489032592,
				"y": -2.1183313898,
				"z": -1.8730483891,
				"element": "C" 
			},
			{
				"x": -0.7818076433,
				"y": -1.5507338834,
				"z": -1.5892208131,
				"element": "C" 
			},
			{
				"x": -0.7054885513,
				"y": -0.557786465,
				"z": -0.6852865553,
				"element": "N" 
			},
			{
				"x": 0.5089928518,
				"y": -0.0490999256,
				"z": -0.4290186093,
				"element": "C" 
			},
			{
				"x": 1.6550337412,
				"y": -0.4460719962,
				"z": -0.9974751413,
				"element": "N" 
			},
			{
				"x": 1.5635684489,
				"y": -1.4287860253,
				"z": -1.88929043,
				"element": "C" 
			},
			{
				"x": 2.7039406256,
				"y": -1.8414945231,
				"z": -2.4712827347,
				"element": "O" 
			},
			{
				"x": 0.353164663,
				"y": -2.0352388216,
				"z": -2.2365674847,
				"element": "C" 
			},
			{
				"x": 0.5753322008,
				"y": 1.0543067182,
				"z": 0.5787304741,
				"element": "C" 
			},
			{
				"x": 1.7843428648,
				"y": 1.5744746554,
				"z": 0.8467053324,
				"element": "N" 
			},
			{
				"x": 1.8529332906,
				"y": 2.5591035643,
				"z": 1.7444279527,
				"element": "C" 
			},
			{
				"x": 0.7434877805,
				"y": 3.0769878808,
				"z": 2.4180746503,
				"element": "C" 
			},
			{
				"x": -0.5083621209,
				"y": 2.5328365178,
				"z": 2.1354305172,
				"element": "C" 
			},
			{
				"x": -0.5985067563,
				"y": 1.5046565581,
				"z": 1.201258956,
				"element": "C" 
			},
			{
				"x": -2.1824764248,
				"y": -3.1896103195,
				"z": -1.646400927,
				"element": "H" 
			},
			{
				"x": -2.408576875,
				"y": -2.0026619068,
				"z": -2.931030259,
				"element": "H" 
			},
			{
				"x": -2.896160244,
				"y": -1.6046244851,
				"z": -1.2668809927,
				"element": "H" 
			},
			{
				"x": 3.4092584893,
				"y": -1.2930261108,
				"z": -2.0887261648,
				"element": "H" 
			},
			{
				"x": 0.3149711523,
				"y": -2.8339220991,
				"z": -2.9677384229,
				"element": "H" 
			},
			{
				"x": 2.8471523747,
				"y": 2.9590821382,
				"z": 1.9391460376,
				"element": "H" 
			},
			{
				"x": 0.8634193497,
				"y": 3.8798575074,
				"z": 3.138824383,
				"element": "H" 
			},
			{
				"x": -1.4003769926,
				"y": 2.9021256468,
				"z": 2.6335147133,
				"element": "H" 
			},
			{
				"x": -1.5435389658,
				"y": 1.0440567645,
				"z": 0.9418539075,
				"element": "H" 
			}
		],
		 "valence_orbital": [ 
			{
				"type": "occ",
				"energy": -0.28063,
				"method": "rhf"
			},
			{
				"type": "occ",
				"energy": -0.27197,
				"method": "rhf"
			},
			{
				"type": "occ",
				"energy": -0.2601,
				"method": "rhf"
			},
			{
				"type": "occ",
				"energy": -0.24264,
				"method": "rhf"
			},
			{
				"type": "occ",
				"energy": -0.24013,
				"method": "rhf"
			},
			{
				"type": "unocc",
				"energy": -0.05527,
				"method": "rhf"
			},
			{
				"type": "unocc",
				"energy": -0.02107,
				"method": "rhf"
			},
			{
				"type": "unocc",
				"energy": -0.00991,
				"method": "rhf"
			},
			{
				"type": "unocc",
				"energy": 0.02855,
				"method": "rhf"
			},
			{
				"type": "unocc",
				"energy": 0.09077,
				"method": "rhf"
			}
		],
		"cosmo_sigma_profile": { 
			"-0.025": 0.0,
			"-0.024": 0.0,
			"-0.023": 0.0,
			"-0.022": 0.0,
			"-0.021": 0.0,
			"-0.02": 0.0,
			"-0.019": 0.0,
			"-0.018": 0.256815678042,
			"-0.017": 0.628033015142,
			"-0.016": 0.722635418752,
			"-0.015": 0.711588438622,
			"-0.014": 0.720663625724,
			"-0.013": 0.805565733589,
			"-0.012": 0.967000364248,
			"-0.011": 0.541316807969,
			"-0.01": 0.457991583112,
			"-0.009": 0.566632412058,
			"-0.008": 1.25258289941,
			"-0.007": 6.89783535294,
			"-0.006": 11.6481700417,
			"-0.005": 15.6671878627,
			"-0.004": 15.6596387383,
			"-0.003": 14.3945675081,
			"-0.002": 14.1484592183,
			"-0.001": 21.7998777506,
			"0.0": 21.8387623974,
			"0.001": 19.9611764489,
			"0.002": 21.2356972345,
			"0.003": 10.4387132627,
			"0.004": 6.83323765839,
			"0.005": 5.96050781113,
			"0.006": 3.45969812351,
			"0.007": 4.82038024871,
			"0.008": 4.60591369983,
			"0.009": 5.44286905679,
			"0.01": 2.96315240222,
			"0.011": 0.917787246693,
			"0.012": 0.721804583566,
			"0.013": 0.93849208905,
			"0.014": 1.63242461707,
			"0.015": 0.459962166181,
			"0.016": 0.652340346789,
			"0.017": 0.80304570406,
			"0.018": 0.571549790485,
			"0.019": 1.09285451177,
			"0.02": 0.596167923105,
			"0.021": 0.111265237797,
			"0.022": 0.0,
			"0.023": 0.0,
			"0.024": 0.0,
			"0.025": 0.0
		}
	}
}
