{
	 "smiles": "OC(=O)CCC1CCNCC1", 
	 "Tm": 549.15, 
	 "num_atms": 26, 
	 "gaussian": { 
		 "optdone": 1, 
		 "sigma_profile": "yes", 
		 "theory": "DFT", 
		 "functional": "B3LYP", 
		 "basiset": "6-31G**", 
		 "properties": { 
			 "R2extent": 2415.946, 
			 "electric_dipole_moment_norm": 1.89606359071, 
			 "electric_quadrupole_moment_norm": 9.15052132886, 
			 "total_energy": -519.103031968, 
			 "HOMO_LUMO_gap": 0.2198, 
			 "cosmo_polarized_energy": -11.21, 
			 "cosmo_cavitation_energy": 26.93, 
			 "cosmo_dispersion_energy": -19.58, 
			 "cosmo_repulsion_energy": 1.59, 
			 "cosmo_total_nonelectrostatic_energy": 8.94, 
			 "SMD_solvation_energy": 2.23 
		},
		"coords": [
			{
				"x": -2.6831161582,
				"y": -0.4480214135,
				"z": -0.3661901346,
				"element": "O" 
			},
			{
				"x": -2.1210162354,
				"y": -0.4138766028,
				"z": 0.8702956582,
				"element": "C" 
			},
			{
				"x": -1.9011257991,
				"y": -1.4225477776,
				"z": 1.5049846977,
				"element": "O" 
			},
			{
				"x": -1.8610435138,
				"y": 1.002512049,
				"z": 1.3357849425,
				"element": "C" 
			},
			{
				"x": -1.0244706688,
				"y": 1.8851427869,
				"z": 0.3855401998,
				"element": "C" 
			},
			{
				"x": 0.4781220118,
				"y": 1.5605627006,
				"z": 0.3309702052,
				"element": "C" 
			},
			{
				"x": 0.7887173687,
				"y": 0.1545194542,
				"z": -0.2419230435,
				"element": "C" 
			},
			{
				"x": 2.2532301539,
				"y": 0.0550901709,
				"z": -0.7554211493,
				"element": "C" 
			},
			{
				"x": 3.1752415879,
				"y": 0.9910810231,
				"z": -0.1112819125,
				"element": "N" 
			},
			{
				"x": 2.7855538044,
				"y": 2.388653946,
				"z": -0.3570484406,
				"element": "C" 
			},
			{
				"x": 1.2534207091,
				"y": 2.6147952488,
				"z": -0.4766054118,
				"element": "C" 
			},
			{
				"x": -2.8250120753,
				"y": -1.3883497749,
				"z": -0.5671641971,
				"element": "H" 
			},
			{
				"x": -2.8459097393,
				"y": 1.4687013372,
				"z": 1.4670177171,
				"element": "H" 
			},
			{
				"x": -1.3958346537,
				"y": 0.9332744872,
				"z": 2.3225912102,
				"element": "H" 
			},
			{
				"x": -1.4536304508,
				"y": 1.836262663,
				"z": -0.6223604563,
				"element": "H" 
			},
			{
				"x": -1.1400857269,
				"y": 2.9235513278,
				"z": 0.7207304707,
				"element": "H" 
			},
			{
				"x": 0.8552190112,
				"y": 1.5975230344,
				"z": 1.3652978569,
				"element": "H" 
			},
			{
				"x": 0.6070418355,
				"y": -0.6047231964,
				"z": 0.5265669074,
				"element": "H" 
			},
			{
				"x": 0.098246776,
				"y": -0.0657694139,
				"z": -1.0669114813,
				"element": "H" 
			},
			{
				"x": 2.6351255631,
				"y": -0.9632266267,
				"z": -0.6266647923,
				"element": "H" 
			},
			{
				"x": 2.2859160196,
				"y": 0.2614821305,
				"z": -1.8327240198,
				"element": "H" 
			},
			{
				"x": 3.1789103296,
				"y": 0.8132296288,
				"z": 0.889766125,
				"element": "H" 
			},
			{
				"x": 3.1930503071,
				"y": 2.9947188866,
				"z": 0.4596665536,
				"element": "H" 
			},
			{
				"x": 3.2769822592,
				"y": 2.7349048065,
				"z": -1.2764052732,
				"element": "H" 
			},
			{
				"x": 0.9422731707,
				"y": 2.5511094434,
				"z": -1.5282630586,
				"element": "H" 
			},
			{
				"x": 0.9977941135,
				"y": 3.6278996809,
				"z": -0.1427491734,
				"element": "H" 
			}
		],
		 "valence_orbital": [ 
			{
				"type": "occ",
				"energy": -0.31961,
				"method": "rhf"
			},
			{
				"type": "occ",
				"energy": -0.30861,
				"method": "rhf"
			},
			{
				"type": "occ",
				"energy": -0.30305,
				"method": "rhf"
			},
			{
				"type": "occ",
				"energy": -0.27068,
				"method": "rhf"
			},
			{
				"type": "occ",
				"energy": -0.21168,
				"method": "rhf"
			},
			{
				"type": "unocc",
				"energy": 0.00812,
				"method": "rhf"
			},
			{
				"type": "unocc",
				"energy": 0.06733,
				"method": "rhf"
			},
			{
				"type": "unocc",
				"energy": 0.07735,
				"method": "rhf"
			},
			{
				"type": "unocc",
				"energy": 0.09874,
				"method": "rhf"
			},
			{
				"type": "unocc",
				"energy": 0.10987,
				"method": "rhf"
			}
		],
		"cosmo_sigma_profile": { 
			"-0.025": 0.0,
			"-0.024": 0.0,
			"-0.023": 0.0,
			"-0.022": 0.0,
			"-0.021": 0.0,
			"-0.02": 0.0,
			"-0.019": 0.0,
			"-0.018": 0.422309335199,
			"-0.017": 0.954499822417,
			"-0.016": 0.701677538054,
			"-0.015": 0.895405157462,
			"-0.014": 1.22016111789,
			"-0.013": 0.525267716414,
			"-0.012": 0.134750394566,
			"-0.011": 0.122888142785,
			"-0.01": 1.16257260026,
			"-0.009": 1.80076006826,
			"-0.008": 1.88391762652,
			"-0.007": 1.91982802639,
			"-0.006": 5.56060027878,
			"-0.005": 6.3861518771,
			"-0.004": 8.45848072958,
			"-0.003": 18.9500086172,
			"-0.002": 37.79110856,
			"-0.001": 33.7790574084,
			"0.0": 21.1858535788,
			"0.001": 12.7802345225,
			"0.002": 6.68270888596,
			"0.003": 4.64760042827,
			"0.004": 3.85146601561,
			"0.005": 3.87934474903,
			"0.006": 4.20779123055,
			"0.007": 2.92203223762,
			"0.008": 3.12596730572,
			"0.009": 3.05396751303,
			"0.01": 3.20237202377,
			"0.011": 3.32927980804,
			"0.012": 5.59287350955,
			"0.013": 2.77611020108,
			"0.014": 0.337962340736,
			"0.015": 0.465270402314,
			"0.016": 0.83286744747,
			"0.017": 0.62205074062,
			"0.018": 0.475956474138,
			"0.019": 0.467052129901,
			"0.02": 0.0,
			"0.021": 0.0,
			"0.022": 0.0,
			"0.023": 0.0,
			"0.024": 0.0,
			"0.025": 0.0
		}
	}
}
