{
	 "smiles": "CCOC(=O)C1=C(N)C(Br)=CC(C)=C1", 
	 "Tm": 318.15, 
	 "num_atms": 26, 
	 "gaussian": { 
		 "optdone": 1, 
		 "sigma_profile": "yes", 
		 "theory": "DFT", 
		 "functional": "B3LYP", 
		 "basiset": "6-31G**", 
		 "properties": { 
			 "R2extent": 5786.1918, 
			 "electric_dipole_moment_norm": 1.99255541705, 
			 "electric_quadrupole_moment_norm": 13.6211707335, 
			 "total_energy": -3164.93420375, 
			 "HOMO_LUMO_gap": 0.16204, 
			 "cosmo_polarized_energy": -8.8, 
			 "cosmo_cavitation_energy": 31.67, 
			 "cosmo_dispersion_energy": -23.51, 
			 "cosmo_repulsion_energy": 1.87, 
			 "cosmo_total_nonelectrostatic_energy": 10.02, 
			 "SMD_solvation_energy": 5.22 
		},
		"coords": [
			{
				"x": -3.4525723925,
				"y": 0.5740928643,
				"z": -2.3838319584,
				"element": "C" 
			},
			{
				"x": -2.7138025937,
				"y": -0.3998770178,
				"z": -1.4855566647,
				"element": "C" 
			},
			{
				"x": -1.4892758112,
				"y": 0.2417366343,
				"z": -1.0562282389,
				"element": "O" 
			},
			{
				"x": -0.698721872,
				"y": -0.4955426155,
				"z": -0.2226856997,
				"element": "C" 
			},
			{
				"x": -1.0179293848,
				"y": -1.6191432459,
				"z": 0.1188798513,
				"element": "O" 
			},
			{
				"x": 0.5529998199,
				"y": 0.1836879211,
				"z": 0.2026769547,
				"element": "C" 
			},
			{
				"x": 0.9298912713,
				"y": 1.5142503115,
				"z": -0.1464328653,
				"element": "C" 
			},
			{
				"x": 0.1483688443,
				"y": 2.3566821389,
				"z": -0.8816849299,
				"element": "N" 
			},
			{
				"x": 2.1849368799,
				"y": 1.950402597,
				"z": 0.352633615,
				"element": "C" 
			},
			{
				"x": 2.7917739547,
				"y": 3.7230985165,
				"z": -0.0803289759,
				"element": "Br" 
			},
			{
				"x": 3.0004842261,
				"y": 1.1586715907,
				"z": 1.1392289784,
				"element": "C" 
			},
			{
				"x": 2.6190771875,
				"y": -0.1469056355,
				"z": 1.4911908456,
				"element": "C" 
			},
			{
				"x": 3.5101695126,
				"y": -1.0061421484,
				"z": 2.3566077587,
				"element": "C" 
			},
			{
				"x": 1.3993839187,
				"y": -0.6000072876,
				"z": 1.0089958856,
				"element": "C" 
			},
			{
				"x": -2.8554902557,
				"y": 0.8293041584,
				"z": -3.2647153807,
				"element": "H" 
			},
			{
				"x": -4.3883692965,
				"y": 0.1224929386,
				"z": -2.7272281181,
				"element": "H" 
			},
			{
				"x": -3.6962056529,
				"y": 1.4966358233,
				"z": -1.8482861254,
				"element": "H" 
			},
			{
				"x": -2.4595353751,
				"y": -1.3285119233,
				"z": -2.0049831003,
				"element": "H" 
			},
			{
				"x": -3.2973337749,
				"y": -0.6677202387,
				"z": -0.600000491,
				"element": "H" 
			},
			{
				"x": 0.5660594041,
				"y": 3.2056315952,
				"z": -1.2277401202,
				"element": "H" 
			},
			{
				"x": -0.6517765204,
				"y": 1.9688497185,
				"z": -1.353714163,
				"element": "H" 
			},
			{
				"x": 3.9478195037,
				"y": 1.5615007545,
				"z": 1.4838601186,
				"element": "H" 
			},
			{
				"x": 3.0744465373,
				"y": -1.99799965,
				"z": 2.5031972679,
				"element": "H" 
			},
			{
				"x": 3.6625376428,
				"y": -0.5604767436,
				"z": 3.3467847124,
				"element": "H" 
			},
			{
				"x": 4.5012856956,
				"y": -1.1404830188,
				"z": 1.9077095884,
				"element": "H" 
			},
			{
				"x": 1.0546785313,
				"y": -1.6015280375,
				"z": 1.2433512547,
				"element": "H" 
			}
		],
		 "valence_orbital": [ 
			{
				"type": "occ",
				"energy": -0.29934,
				"method": "rhf"
			},
			{
				"type": "occ",
				"energy": -0.2948,
				"method": "rhf"
			},
			{
				"type": "occ",
				"energy": -0.27273,
				"method": "rhf"
			},
			{
				"type": "occ",
				"energy": -0.2465,
				"method": "rhf"
			},
			{
				"type": "occ",
				"energy": -0.20412,
				"method": "rhf"
			},
			{
				"type": "unocc",
				"energy": -0.04208,
				"method": "rhf"
			},
			{
				"type": "unocc",
				"energy": 0.00522,
				"method": "rhf"
			},
			{
				"type": "unocc",
				"energy": 0.00937,
				"method": "rhf"
			},
			{
				"type": "unocc",
				"energy": 0.05364,
				"method": "rhf"
			},
			{
				"type": "unocc",
				"energy": 0.08831,
				"method": "rhf"
			}
		],
		"cosmo_sigma_profile": { 
			"-0.025": 0.0,
			"-0.024": 0.0,
			"-0.023": 0.0,
			"-0.022": 0.0,
			"-0.021": 0.0,
			"-0.02": 0.0,
			"-0.019": 0.0,
			"-0.018": 0.0,
			"-0.017": 0.0,
			"-0.016": 0.0,
			"-0.015": 0.0,
			"-0.014": 0.0,
			"-0.013": 0.0,
			"-0.012": 0.24053216212,
			"-0.011": 0.81567787139,
			"-0.01": 0.923975956734,
			"-0.009": 1.66349244772,
			"-0.008": 1.38638473424,
			"-0.007": 3.18967388339,
			"-0.006": 2.94344200064,
			"-0.005": 12.1959000889,
			"-0.004": 24.9848501102,
			"-0.003": 27.1451635715,
			"-0.002": 25.6438594951,
			"-0.001": 22.2445972142,
			"0.0": 27.0860992097,
			"0.001": 18.8854556891,
			"0.002": 21.5032005995,
			"0.003": 21.3064243606,
			"0.004": 17.1275688288,
			"0.005": 6.4379835928,
			"0.006": 2.64347906321,
			"0.007": 2.41978406409,
			"0.008": 1.96031572009,
			"0.009": 1.87403602027,
			"0.01": 1.83740382865,
			"0.011": 2.6462519763,
			"0.012": 4.22242745293,
			"0.013": 0.879854459859,
			"0.014": 0.0,
			"0.015": 0.0,
			"0.016": 0.0,
			"0.017": 0.0,
			"0.018": 0.0,
			"0.019": 0.0,
			"0.02": 0.0,
			"0.021": 0.0,
			"0.022": 0.0,
			"0.023": 0.0,
			"0.024": 0.0,
			"0.025": 0.0
		}
	}
}
