{
	 "smiles": "CC1=CC=C(C=C1)C1=NOC(N)=C1", 
	 "Tm": 422.15, 
	 "num_atms": 23, 
	 "gaussian": { 
		 "optdone": 1, 
		 "sigma_profile": "yes", 
		 "theory": "DFT", 
		 "functional": "B3LYP", 
		 "basiset": "6-31G**", 
		 "properties": { 
			 "R2extent": 3812.166, 
			 "electric_dipole_moment_norm": 3.38560518372, 
			 "electric_quadrupole_moment_norm": 21.5575101818, 
			 "total_energy": -571.779413684, 
			 "HOMO_LUMO_gap": 0.18843, 
			 "cosmo_polarized_energy": -14.33, 
			 "cosmo_cavitation_energy": 27.35, 
			 "cosmo_dispersion_energy": -20.41, 
			 "cosmo_repulsion_energy": 1.61, 
			 "cosmo_total_nonelectrostatic_energy": 8.56, 
			 "SMD_solvation_energy": 4.83 
		},
		"coords": [
			{
				"x": 0.7034143091,
				"y": 2.6293848489,
				"z": -3.7276487224,
				"element": "C" 
			},
			{
				"x": 0.6843857549,
				"y": 2.1066435193,
				"z": -2.3111086365,
				"element": "C" 
			},
			{
				"x": 0.6752355236,
				"y": 0.7340363924,
				"z": -2.0412844024,
				"element": "C" 
			},
			{
				"x": 0.642823707,
				"y": 0.2557608114,
				"z": -0.731409179,
				"element": "C" 
			},
			{
				"x": 0.6186773866,
				"y": 1.1410954339,
				"z": 0.3533830028,
				"element": "C" 
			},
			{
				"x": 0.6297843517,
				"y": 2.5217258462,
				"z": 0.0881703746,
				"element": "C" 
			},
			{
				"x": 0.6632537059,
				"y": 2.989882269,
				"z": -1.2195105318,
				"element": "C" 
			},
			{
				"x": 0.5862150454,
				"y": 0.6452886608,
				"z": 1.741374686,
				"element": "C" 
			},
			{
				"x": 0.6484496314,
				"y": 1.4999943849,
				"z": 2.7469626761,
				"element": "N" 
			},
			{
				"x": 0.5886949698,
				"y": 0.7036745642,
				"z": 3.9138873403,
				"element": "O" 
			},
			{
				"x": 0.4971142744,
				"y": -0.5887138924,
				"z": 3.5560778634,
				"element": "C" 
			},
			{
				"x": 0.4873744675,
				"y": -1.4998693751,
				"z": 4.5856491643,
				"element": "N" 
			},
			{
				"x": 0.4881122251,
				"y": -0.7057551584,
				"z": 2.1924063105,
				"element": "C" 
			},
			{
				"x": 0.8862804755,
				"y": 1.8273319682,
				"z": -4.4481862966,
				"element": "H" 
			},
			{
				"x": -0.2519799824,
				"y": 3.0997764883,
				"z": -3.9907369626,
				"element": "H" 
			},
			{
				"x": 1.4816892843,
				"y": 3.3884345956,
				"z": -3.8630579636,
				"element": "H" 
			},
			{
				"x": 0.6960003714,
				"y": 0.0267300562,
				"z": -2.8666719519,
				"element": "H" 
			},
			{
				"x": 0.6434345094,
				"y": -0.8161816697,
				"z": -0.5588811289,
				"element": "H" 
			},
			{
				"x": 0.6134975711,
				"y": 3.2165247458,
				"z": 0.9210056113,
				"element": "H" 
			},
			{
				"x": 0.6730444314,
				"y": 4.0621926341,
				"z": -1.4007098948,
				"element": "H" 
			},
			{
				"x": 0.0543863535,
				"y": -2.3859171136,
				"z": 4.3689470652,
				"element": "H" 
			},
			{
				"x": 0.195314587,
				"y": -1.1187820406,
				"z": 5.4758396996,
				"element": "H" 
			},
			{
				"x": 0.4225970464,
				"y": -1.6103579694,
				"z": 1.6101018764,
				"element": "H" 
			}
		],
		 "valence_orbital": [ 
			{
				"type": "occ",
				"energy": -0.29749,
				"method": "rhf"
			},
			{
				"type": "occ",
				"energy": -0.29,
				"method": "rhf"
			},
			{
				"type": "occ",
				"energy": -0.24746,
				"method": "rhf"
			},
			{
				"type": "occ",
				"energy": -0.22728,
				"method": "rhf"
			},
			{
				"type": "occ",
				"energy": -0.2134,
				"method": "rhf"
			},
			{
				"type": "unocc",
				"energy": -0.02497,
				"method": "rhf"
			},
			{
				"type": "unocc",
				"energy": 0.00173,
				"method": "rhf"
			},
			{
				"type": "unocc",
				"energy": 0.03641,
				"method": "rhf"
			},
			{
				"type": "unocc",
				"energy": 0.06367,
				"method": "rhf"
			},
			{
				"type": "unocc",
				"energy": 0.09305,
				"method": "rhf"
			}
		],
		"cosmo_sigma_profile": { 
			"-0.025": 0.0,
			"-0.024": 0.0,
			"-0.023": 0.0,
			"-0.022": 0.0,
			"-0.021": 0.0,
			"-0.02": 0.0,
			"-0.019": 0.0,
			"-0.018": 0.0,
			"-0.017": 0.0,
			"-0.016": 0.0,
			"-0.015": 0.38014291105,
			"-0.014": 2.74741040921,
			"-0.013": 2.79087458413,
			"-0.012": 2.86515432112,
			"-0.011": 2.54349581272,
			"-0.01": 2.26776962435,
			"-0.009": 2.46102313112,
			"-0.008": 3.3810010335,
			"-0.007": 5.01616044272,
			"-0.006": 5.90887727503,
			"-0.005": 9.80007179219,
			"-0.004": 16.5457236963,
			"-0.003": 14.3560590713,
			"-0.002": 15.772157458,
			"-0.001": 14.0559070458,
			"0.0": 14.1197642603,
			"0.001": 12.0203527085,
			"0.002": 14.0870438271,
			"0.003": 16.9881650873,
			"0.004": 17.2071963435,
			"0.005": 14.7924603481,
			"0.006": 5.76516022981,
			"0.007": 2.92413362752,
			"0.008": 4.33257718541,
			"0.009": 5.28417568859,
			"0.01": 3.07209163494,
			"0.011": 1.74758091704,
			"0.012": 1.671765515,
			"0.013": 1.64833501037,
			"0.014": 1.29158084446,
			"0.015": 0.220467830588,
			"0.016": 0.0,
			"0.017": 0.0,
			"0.018": 0.0,
			"0.019": 0.0,
			"0.02": 0.0,
			"0.021": 0.0,
			"0.022": 0.0,
			"0.023": 0.0,
			"0.024": 0.0,
			"0.025": 0.0
		}
	}
}
