{
	 "smiles": "COC1=CC2=C(C(O)=C1)C(=O)C(O[C@@H]1O[C@H](CO)C(O)[C@H](O)C1O[C@@H]1OC(C)[C@H](O)C(O)C1O)=C(O2)C1=CC(O)=CC=C1", 
	 "Tm": 458.15, 
	 "num_atms": 75, 
	 "gaussian": { 
		 "optdone": 1, 
		 "sigma_profile": "yes", 
		 "theory": "DFT", 
		 "functional": "B3LYP", 
		 "basiset": "6-31G**", 
		 "properties": { 
			 "R2extent": 27028.4237, 
			 "electric_dipole_moment_norm": 6.4589455192, 
			 "electric_quadrupole_moment_norm": 33.7372245509, 
			 "total_energy": -2214.55299167, 
			 "HOMO_LUMO_gap": 0.14874, 
			 "cosmo_polarized_energy": -36.86, 
			 "cosmo_cavitation_energy": 73.13, 
			 "cosmo_dispersion_energy": -47.97, 
			 "cosmo_repulsion_energy": 3.53, 
			 "cosmo_total_nonelectrostatic_energy": 28.68, 
			 "SMD_solvation_energy": 12.94 
		},
		"coords": [
			{
				"x": 0.7111049878,
				"y": 7.9159544613,
				"z": -3.2559316507,
				"element": "C" 
			},
			{
				"x": 1.7758614071,
				"y": 6.9962426376,
				"z": -3.4579439377,
				"element": "O" 
			},
			{
				"x": 1.6326533338,
				"y": 5.7232466002,
				"z": -3.0102345538,
				"element": "C" 
			},
			{
				"x": 0.4794186464,
				"y": 5.254833383,
				"z": -2.3665516303,
				"element": "C" 
			},
			{
				"x": 0.4661848691,
				"y": 3.9226547083,
				"z": -1.9576799598,
				"element": "C" 
			},
			{
				"x": 1.5459494146,
				"y": 3.0540011205,
				"z": -2.1645246423,
				"element": "C" 
			},
			{
				"x": 2.707131504,
				"y": 3.5623182303,
				"z": -2.8231068556,
				"element": "C" 
			},
			{
				"x": 3.7600610694,
				"y": 2.7643865439,
				"z": -3.0380724028,
				"element": "O" 
			},
			{
				"x": 2.7387709681,
				"y": 4.8868010006,
				"z": -3.2401660079,
				"element": "C" 
			},
			{
				"x": 1.4814133478,
				"y": 1.6863204189,
				"z": -1.6985917015,
				"element": "C" 
			},
			{
				"x": 2.419354477,
				"y": 0.8696629942,
				"z": -1.850537224,
				"element": "O" 
			},
			{
				"x": 0.2362337653,
				"y": 1.3125913251,
				"z": -1.04123505,
				"element": "C" 
			},
			{
				"x": 0.1161773648,
				"y": 0.0538667304,
				"z": -0.5096445585,
				"element": "O" 
			},
			{
				"x": 0.2268110872,
				"y": -1.0808658514,
				"z": -1.3518227771,
				"element": "C" 
			},
			{
				"x": -0.4615488727,
				"y": -0.8039996264,
				"z": -2.5605459356,
				"element": "O" 
			},
			{
				"x": -0.4539055339,
				"y": -1.9376439913,
				"z": -3.43690439,
				"element": "C" 
			},
			{
				"x": -0.832616226,
				"y": -1.468487443,
				"z": -4.8335675936,
				"element": "C" 
			},
			{
				"x": 0.2680689566,
				"y": -0.7522193919,
				"z": -5.3589264515,
				"element": "O" 
			},
			{
				"x": -1.4322916842,
				"y": -2.9526534522,
				"z": -2.8434322702,
				"element": "C" 
			},
			{
				"x": -2.7493923708,
				"y": -2.3944583962,
				"z": -2.767754121,
				"element": "O" 
			},
			{
				"x": -0.9830330955,
				"y": -3.3786490747,
				"z": -1.4283283753,
				"element": "C" 
			},
			{
				"x": -2.094362978,
				"y": -4.0093920442,
				"z": -0.7716745612,
				"element": "O" 
			},
			{
				"x": -0.485149643,
				"y": -2.19907847,
				"z": -0.5700803758,
				"element": "C" 
			},
			{
				"x": 0.3614780765,
				"y": -2.6985321251,
				"z": 0.4581816284,
				"element": "O" 
			},
			{
				"x": -0.0020069243,
				"y": -2.3399985296,
				"z": 1.7945673983,
				"element": "C" 
			},
			{
				"x": 1.1290126956,
				"y": -2.3756592694,
				"z": 2.6078784796,
				"element": "O" 
			},
			{
				"x": 1.3624997259,
				"y": -3.6139543722,
				"z": 3.3099156822,
				"element": "C" 
			},
			{
				"x": 2.7242937131,
				"y": -3.4961165498,
				"z": 3.9701256051,
				"element": "C" 
			},
			{
				"x": 0.216160629,
				"y": -3.9031270285,
				"z": 4.3154031162,
				"element": "C" 
			},
			{
				"x": 0.0450575792,
				"y": -5.3077979757,
				"z": 4.3567306903,
				"element": "O" 
			},
			{
				"x": -1.0909910616,
				"y": -3.2206862466,
				"z": 3.8431088136,
				"element": "C" 
			},
			{
				"x": -2.187348466,
				"y": -3.9287515841,
				"z": 4.4011647225,
				"element": "O" 
			},
			{
				"x": -1.1088718377,
				"y": -3.2639981943,
				"z": 2.322376434,
				"element": "C" 
			},
			{
				"x": -2.4023241207,
				"y": -2.8820142506,
				"z": 1.8356524593,
				"element": "O" 
			},
			{
				"x": -0.8006297244,
				"y": 2.1968407176,
				"z": -0.8957588197,
				"element": "C" 
			},
			{
				"x": -0.6665799564,
				"y": 3.4860102936,
				"z": -1.3309241718,
				"element": "O" 
			},
			{
				"x": -2.1477993336,
				"y": 1.9418912156,
				"z": -0.3430107294,
				"element": "C" 
			},
			{
				"x": -2.4120313008,
				"y": 0.8584107291,
				"z": 0.5171494566,
				"element": "C" 
			},
			{
				"x": -3.7113533774,
				"y": 0.594290244,
				"z": 0.9630091376,
				"element": "C" 
			},
			{
				"x": -4.017138998,
				"y": -0.460714817,
				"z": 1.7610002928,
				"element": "O" 
			},
			{
				"x": -4.7589597754,
				"y": 1.4498199688,
				"z": 0.5919838988,
				"element": "C" 
			},
			{
				"x": -4.4935889663,
				"y": 2.5422883577,
				"z": -0.228940128,
				"element": "C" 
			},
			{
				"x": -3.2069955859,
				"y": 2.7939775961,
				"z": -0.7050472104,
				"element": "C" 
			},
			{
				"x": 1.0481422448,
				"y": 8.861073566,
				"z": -3.6833331627,
				"element": "H" 
			},
			{
				"x": -0.2030497207,
				"y": 7.5921897486,
				"z": -3.7686126074,
				"element": "H" 
			},
			{
				"x": 0.4976193069,
				"y": 8.0560277008,
				"z": -2.1892600814,
				"element": "H" 
			},
			{
				"x": -0.3843257987,
				"y": 5.8758852736,
				"z": -2.175194877,
				"element": "H" 
			},
			{
				"x": 3.5228423242,
				"y": 1.8749924036,
				"z": -2.6595983738,
				"element": "H" 
			},
			{
				"x": 3.6148319055,
				"y": 5.2807737569,
				"z": -3.7404706078,
				"element": "H" 
			},
			{
				"x": 1.2804029687,
				"y": -1.3015491143,
				"z": -1.5580093656,
				"element": "H" 
			},
			{
				"x": 0.5575192138,
				"y": -2.3694074899,
				"z": -3.485099487,
				"element": "H" 
			},
			{
				"x": -1.0739835855,
				"y": -2.3556374195,
				"z": -5.4419943815,
				"element": "H" 
			},
			{
				"x": -1.7409852511,
				"y": -0.854075398,
				"z": -4.7687578477,
				"element": "H" 
			},
			{
				"x": -0.0200098229,
				"y": -0.2853420946,
				"z": -6.152180282,
				"element": "H" 
			},
			{
				"x": -1.5199686659,
				"y": -3.8405773577,
				"z": -3.4779096512,
				"element": "H" 
			},
			{
				"x": -2.6373227747,
				"y": -1.478685581,
				"z": -2.4611354832,
				"element": "H" 
			},
			{
				"x": -0.1768477861,
				"y": -4.116392236,
				"z": -1.5010614708,
				"element": "H" 
			},
			{
				"x": -2.872666655,
				"y": -3.6466578048,
				"z": -1.2366607541,
				"element": "H" 
			},
			{
				"x": -1.3753602318,
				"y": -1.7240988249,
				"z": -0.1498018146,
				"element": "H" 
			},
			{
				"x": -0.354133243,
				"y": -1.3011955903,
				"z": 1.8025018117,
				"element": "H" 
			},
			{
				"x": 1.3698814018,
				"y": -4.4468733266,
				"z": 2.5954603329,
				"element": "H" 
			},
			{
				"x": 2.7440390276,
				"y": -2.6415177803,
				"z": 4.653988448,
				"element": "H" 
			},
			{
				"x": 2.9375786118,
				"y": -4.4056738032,
				"z": 4.5393277882,
				"element": "H" 
			},
			{
				"x": 3.5062162935,
				"y": -3.3563806926,
				"z": 3.2193894196,
				"element": "H" 
			},
			{
				"x": 0.4787354146,
				"y": -3.5158558367,
				"z": 5.312319069,
				"element": "H" 
			},
			{
				"x": -0.8724241924,
				"y": -5.4451425913,
				"z": 4.6446635179,
				"element": "H" 
			},
			{
				"x": -1.1024956495,
				"y": -2.1738260736,
				"z": 4.1811410796,
				"element": "H" 
			},
			{
				"x": -2.9341500641,
				"y": -3.7861242507,
				"z": 3.7996675906,
				"element": "H" 
			},
			{
				"x": -0.9049408134,
				"y": -4.292293668,
				"z": 2.0025272747,
				"element": "H" 
			},
			{
				"x": -2.4968410716,
				"y": -3.3248911803,
				"z": 0.9664433517,
				"element": "H" 
			},
			{
				"x": -1.6001433324,
				"y": 0.2322626994,
				"z": 0.8521284473,
				"element": "H" 
			},
			{
				"x": -3.2852317468,
				"y": -1.103991846,
				"z": 1.8212794006,
				"element": "H" 
			},
			{
				"x": -5.7603201279,
				"y": 1.2391245538,
				"z": 0.9525993187,
				"element": "H" 
			},
			{
				"x": -5.3063619767,
				"y": 3.203861793,
				"z": -0.5146343364,
				"element": "H" 
			},
			{
				"x": -3.0227239889,
				"y": 3.6372878721,
				"z": -1.3582319959,
				"element": "H" 
			}
		],
		 "valence_orbital": [ 
			{
				"type": "occ",
				"energy": -0.24926,
				"method": "rhf"
			},
			{
				"type": "occ",
				"energy": -0.24329,
				"method": "rhf"
			},
			{
				"type": "occ",
				"energy": -0.23577,
				"method": "rhf"
			},
			{
				"type": "occ",
				"energy": -0.22476,
				"method": "rhf"
			},
			{
				"type": "occ",
				"energy": -0.216,
				"method": "rhf"
			},
			{
				"type": "unocc",
				"energy": -0.06726,
				"method": "rhf"
			},
			{
				"type": "unocc",
				"energy": -0.02473,
				"method": "rhf"
			},
			{
				"type": "unocc",
				"energy": 0.00061,
				"method": "rhf"
			},
			{
				"type": "unocc",
				"energy": 0.00779,
				"method": "rhf"
			},
			{
				"type": "unocc",
				"energy": 0.03055,
				"method": "rhf"
			}
		],
		"cosmo_sigma_profile": { 
			"-0.025": 0.0,
			"-0.024": 0.0,
			"-0.023": 0.0,
			"-0.022": 0.0,
			"-0.021": 0.0,
			"-0.02": 0.0,
			"-0.019": 0.0,
			"-0.018": 0.0,
			"-0.017": 0.0,
			"-0.016": 1.09924029981,
			"-0.015": 0.83172400593,
			"-0.014": 0.832578198251,
			"-0.013": 1.17043836484,
			"-0.012": 2.69146749307,
			"-0.011": 4.52072086325,
			"-0.01": 6.83967830813,
			"-0.009": 8.27881030818,
			"-0.008": 10.7429385174,
			"-0.007": 21.2729416319,
			"-0.006": 29.8712221633,
			"-0.005": 34.6806562588,
			"-0.004": 47.1779870099,
			"-0.003": 42.8028385689,
			"-0.002": 40.2672392055,
			"-0.001": 38.178725424,
			"0.0": 37.570448554,
			"0.001": 33.1954848324,
			"0.002": 34.3935082831,
			"0.003": 34.6016353975,
			"0.004": 28.0160606567,
			"0.005": 19.832567336,
			"0.006": 14.0681634345,
			"0.007": 14.8521895213,
			"0.008": 13.4113895033,
			"0.009": 12.1043664907,
			"0.01": 13.1735018828,
			"0.011": 12.0399637719,
			"0.012": 10.9276545202,
			"0.013": 4.91589093728,
			"0.014": 1.42138697611,
			"0.015": 0.0,
			"0.016": 0.0,
			"0.017": 0.0,
			"0.018": 0.0,
			"0.019": 0.0,
			"0.02": 0.0,
			"0.021": 0.0,
			"0.022": 0.0,
			"0.023": 0.0,
			"0.024": 0.0,
			"0.025": 0.0
		}
	}
}
