{
	 "smiles": "OC1=CC=C(OC2=CC=NC=C2)C=C1", 
	 "Tm": 455.15, 
	 "num_atms": 23, 
	 "gaussian": { 
		 "optdone": 1, 
		 "sigma_profile": "yes", 
		 "theory": "DFT", 
		 "functional": "B3LYP", 
		 "basiset": "6-31G**", 
		 "properties": { 
			 "R2extent": 3843.9903, 
			 "electric_dipole_moment_norm": 3.61619049554, 
			 "electric_quadrupole_moment_norm": 16.6087059267, 
			 "total_energy": -629.7721952, 
			 "HOMO_LUMO_gap": 0.20807, 
			 "cosmo_polarized_energy": -12.68, 
			 "cosmo_cavitation_energy": 28.0, 
			 "cosmo_dispersion_energy": -20.39, 
			 "cosmo_repulsion_energy": 1.6, 
			 "cosmo_total_nonelectrostatic_energy": 9.21, 
			 "SMD_solvation_energy": 4.01 
		},
		"coords": [
			{
				"x": 0.816223731,
				"y": 3.9452728648,
				"z": -0.6234939642,
				"element": "O" 
			},
			{
				"x": 0.4050078262,
				"y": 2.6559078981,
				"z": -0.8052186257,
				"element": "C" 
			},
			{
				"x": 0.4929376236,
				"y": 1.9981991004,
				"z": -2.0372092677,
				"element": "C" 
			},
			{
				"x": 0.05490461,
				"y": 0.678816627,
				"z": -2.1581533731,
				"element": "C" 
			},
			{
				"x": -0.4697576891,
				"y": 0.0219894481,
				"z": -1.0481853799,
				"element": "C" 
			},
			{
				"x": -0.9810170185,
				"y": -1.266410842,
				"z": -1.1921016684,
				"element": "O" 
			},
			{
				"x": -0.1878247211,
				"y": -2.3440785794,
				"z": -0.9078832104,
				"element": "C" 
			},
			{
				"x": -0.7761429679,
				"y": -3.606138042,
				"z": -1.0447056268,
				"element": "C" 
			},
			{
				"x": 0.0001295953,
				"y": -4.7264107209,
				"z": -0.7684914387,
				"element": "C" 
			},
			{
				"x": 1.2829055321,
				"y": -4.6808111864,
				"z": -0.3769198717,
				"element": "N" 
			},
			{
				"x": 1.8213672064,
				"y": -3.4626153918,
				"z": -0.2540043268,
				"element": "C" 
			},
			{
				"x": 1.1468811575,
				"y": -2.2657074895,
				"z": -0.5020723768,
				"element": "C" 
			},
			{
				"x": -0.5641151662,
				"y": 0.6734744342,
				"z": 0.1829487099,
				"element": "C" 
			},
			{
				"x": -0.1263232682,
				"y": 1.9888142108,
				"z": 0.3058942752,
				"element": "C" 
			},
			{
				"x": 1.1539456946,
				"y": 4.293927639,
				"z": -1.4585292507,
				"element": "H" 
			},
			{
				"x": 0.8998462702,
				"y": 2.5147429404,
				"z": -2.9037019384,
				"element": "H" 
			},
			{
				"x": 0.1101597803,
				"y": 0.1602349221,
				"z": -3.1096153424,
				"element": "H" 
			},
			{
				"x": -1.810738767,
				"y": -3.6909431809,
				"z": -1.3585477962,
				"element": "H" 
			},
			{
				"x": -0.4352578475,
				"y": -5.7193716334,
				"z": -0.8675130518,
				"element": "H" 
			},
			{
				"x": 2.8625587365,
				"y": -3.429106649,
				"z": 0.0635964288,
				"element": "H" 
			},
			{
				"x": 1.6467030178,
				"y": -1.312259083,
				"z": -0.3821217305,
				"element": "H" 
			},
			{
				"x": -0.9867852664,
				"y": 0.1482393525,
				"z": 1.03326372,
				"element": "H" 
			},
			{
				"x": -0.1926080695,
				"y": 2.5161333608,
				"z": 1.2514651064,
				"element": "H" 
			}
		],
		 "valence_orbital": [ 
			{
				"type": "occ",
				"energy": -0.26872,
				"method": "rhf"
			},
			{
				"type": "occ",
				"energy": -0.2589,
				"method": "rhf"
			},
			{
				"type": "occ",
				"energy": -0.2497,
				"method": "rhf"
			},
			{
				"type": "occ",
				"energy": -0.24732,
				"method": "rhf"
			},
			{
				"type": "occ",
				"energy": -0.22915,
				"method": "rhf"
			},
			{
				"type": "unocc",
				"energy": -0.02108,
				"method": "rhf"
			},
			{
				"type": "unocc",
				"energy": -0.00551,
				"method": "rhf"
			},
			{
				"type": "unocc",
				"energy": -0.00378,
				"method": "rhf"
			},
			{
				"type": "unocc",
				"energy": 0.00209,
				"method": "rhf"
			},
			{
				"type": "unocc",
				"energy": 0.06057,
				"method": "rhf"
			}
		],
		"cosmo_sigma_profile": { 
			"-0.025": 0.0,
			"-0.024": 0.0,
			"-0.023": 0.0,
			"-0.022": 0.0,
			"-0.021": 0.0,
			"-0.02": 0.0,
			"-0.019": 0.0,
			"-0.018": 0.542167766458,
			"-0.017": 1.1144324658,
			"-0.016": 1.26694521578,
			"-0.015": 1.39822802564,
			"-0.014": 0.730056089707,
			"-0.013": 0.631314637278,
			"-0.012": 1.11758400373,
			"-0.011": 0.79276408234,
			"-0.01": 1.01319733813,
			"-0.009": 1.36463789696,
			"-0.008": 1.57335562347,
			"-0.007": 7.30514385848,
			"-0.006": 14.882800704,
			"-0.005": 15.8919360067,
			"-0.004": 12.9870809889,
			"-0.003": 12.213890832,
			"-0.002": 11.3211872002,
			"-0.001": 13.2517133192,
			"0.0": 14.532607386,
			"0.001": 14.209033005,
			"0.002": 23.2687857819,
			"0.003": 24.6312809716,
			"0.004": 14.7670075141,
			"0.005": 6.73007964415,
			"0.006": 3.99219837651,
			"0.007": 4.25800927411,
			"0.008": 4.23974694129,
			"0.009": 3.73159338187,
			"0.01": 2.64848087081,
			"0.011": 2.40736353806,
			"0.012": 1.28043207321,
			"0.013": 1.09106134078,
			"0.014": 1.2103166459,
			"0.015": 0.669233740756,
			"0.016": 1.00094221803,
			"0.017": 0.646277577079,
			"0.018": 0.078012398207,
			"0.019": 0.0,
			"0.02": 0.0,
			"0.021": 0.0,
			"0.022": 0.0,
			"0.023": 0.0,
			"0.024": 0.0,
			"0.025": 0.0
		}
	}
}
