{
	 "smiles": "CCC1=CC=C2C=CC=CC2=C1", 
	 "Tm": 265.75, 
	 "num_atms": 24, 
	 "gaussian": { 
		 "optdone": 1, 
		 "sigma_profile": "yes", 
		 "theory": "DFT", 
		 "functional": "B3LYP", 
		 "basiset": "6-31G**", 
		 "properties": { 
			 "R2extent": 2463.5476, 
			 "electric_dipole_moment_norm": 0.405651944406, 
			 "electric_quadrupole_moment_norm": 6.48787906792, 
			 "total_energy": -464.53260102, 
			 "HOMO_LUMO_gap": 0.17641, 
			 "cosmo_polarized_energy": -4.43, 
			 "cosmo_cavitation_energy": 26.81, 
			 "cosmo_dispersion_energy": -19.68, 
			 "cosmo_repulsion_energy": 1.55, 
			 "cosmo_total_nonelectrostatic_energy": 8.68, 
			 "SMD_solvation_energy": 4.22 
		},
		"coords": [
			{
				"x": 1.9555438238,
				"y": -0.4573579185,
				"z": -3.0308565709,
				"element": "C" 
			},
			{
				"x": 2.4093047076,
				"y": -0.8230291751,
				"z": -1.606078591,
				"element": "C" 
			},
			{
				"x": 1.2749485768,
				"y": -0.8180550566,
				"z": -0.6037420826,
				"element": "C" 
			},
			{
				"x": 0.3461509279,
				"y": -1.8970631774,
				"z": -0.5768619706,
				"element": "C" 
			},
			{
				"x": -0.7112855683,
				"y": -1.9078493309,
				"z": 0.3016698426,
				"element": "C" 
			},
			{
				"x": -0.912936701,
				"y": -0.8377065409,
				"z": 1.2151059741,
				"element": "C" 
			},
			{
				"x": -1.9924167982,
				"y": -0.8136798945,
				"z": 2.1381099318,
				"element": "C" 
			},
			{
				"x": -2.1521978076,
				"y": 0.2407286329,
				"z": 3.0095026432,
				"element": "C" 
			},
			{
				"x": -1.2356736365,
				"y": 1.3209717795,
				"z": 2.9971265628,
				"element": "C" 
			},
			{
				"x": -0.17825794,
				"y": 1.3259699436,
				"z": 2.1148524406,
				"element": "C" 
			},
			{
				"x": 0.0143989816,
				"y": 0.2539855921,
				"z": 1.2018290729,
				"element": "C" 
			},
			{
				"x": 1.0950911588,
				"y": 0.2275118727,
				"z": 0.2791483406,
				"element": "C" 
			},
			{
				"x": 2.7985457656,
				"y": -0.4837359534,
				"z": -3.7293525403,
				"element": "H" 
			},
			{
				"x": 1.5224606166,
				"y": 0.5476986299,
				"z": -3.0561237501,
				"element": "H" 
			},
			{
				"x": 1.1940177951,
				"y": -1.154745926,
				"z": -3.3950952997,
				"element": "H" 
			},
			{
				"x": 3.1851361579,
				"y": -0.1203631722,
				"z": -1.2812401783,
				"element": "H" 
			},
			{
				"x": 2.8767352361,
				"y": -1.8161236122,
				"z": -1.6227749958,
				"element": "H" 
			},
			{
				"x": 0.4853261194,
				"y": -2.7286305106,
				"z": -1.2638434157,
				"element": "H" 
			},
			{
				"x": -1.4077166489,
				"y": -2.7427980186,
				"z": 0.3112954715,
				"element": "H" 
			},
			{
				"x": -2.6932812707,
				"y": -1.6448787414,
				"z": 2.1449281805,
				"element": "H" 
			},
			{
				"x": -2.9820362747,
				"y": 0.2480913473,
				"z": 3.7103698288,
				"element": "H" 
			},
			{
				"x": -1.3709629076,
				"y": 2.1474829241,
				"z": 3.6889866677,
				"element": "H" 
			},
			{
				"x": 0.5259816515,
				"y": 2.154231165,
				"z": 2.1048041248,
				"element": "H" 
			},
			{
				"x": 1.7958240349,
				"y": 1.0602451411,
				"z": 0.2792403132,
				"element": "H" 
			}
		],
		 "valence_orbital": [ 
			{
				"type": "occ",
				"energy": -0.32187,
				"method": "rhf"
			},
			{
				"type": "occ",
				"energy": -0.31359,
				"method": "rhf"
			},
			{
				"type": "occ",
				"energy": -0.27819,
				"method": "rhf"
			},
			{
				"type": "occ",
				"energy": -0.23433,
				"method": "rhf"
			},
			{
				"type": "occ",
				"energy": -0.20964,
				"method": "rhf"
			},
			{
				"type": "unocc",
				"energy": -0.03323,
				"method": "rhf"
			},
			{
				"type": "unocc",
				"energy": -0.00461,
				"method": "rhf"
			},
			{
				"type": "unocc",
				"energy": 0.03712,
				"method": "rhf"
			},
			{
				"type": "unocc",
				"energy": 0.09188,
				"method": "rhf"
			},
			{
				"type": "unocc",
				"energy": 0.10114,
				"method": "rhf"
			}
		],
		"cosmo_sigma_profile": { 
			"-0.025": 0.0,
			"-0.024": 0.0,
			"-0.023": 0.0,
			"-0.022": 0.0,
			"-0.021": 0.0,
			"-0.02": 0.0,
			"-0.019": 0.0,
			"-0.018": 0.0,
			"-0.017": 0.0,
			"-0.016": 0.0,
			"-0.015": 0.0,
			"-0.014": 0.0,
			"-0.013": 0.0,
			"-0.012": 0.0,
			"-0.011": 0.0,
			"-0.01": 0.0,
			"-0.009": 0.0,
			"-0.008": 0.0,
			"-0.007": 0.0,
			"-0.006": 3.9085079394,
			"-0.005": 16.7151939488,
			"-0.004": 17.2671163296,
			"-0.003": 23.9359418768,
			"-0.002": 19.9823828211,
			"-0.001": 20.0391893561,
			"0.0": 20.222892409,
			"0.001": 18.338749943,
			"0.002": 12.4937653489,
			"0.003": 12.3557810622,
			"0.004": 17.8433471466,
			"0.005": 22.6015265668,
			"0.006": 7.04041330174,
			"0.007": 0.0,
			"0.008": 0.0,
			"0.009": 0.0,
			"0.01": 0.0,
			"0.011": 0.0,
			"0.012": 0.0,
			"0.013": 0.0,
			"0.014": 0.0,
			"0.015": 0.0,
			"0.016": 0.0,
			"0.017": 0.0,
			"0.018": 0.0,
			"0.019": 0.0,
			"0.02": 0.0,
			"0.021": 0.0,
			"0.022": 0.0,
			"0.023": 0.0,
			"0.024": 0.0,
			"0.025": 0.0
		}
	}
}
