{
	 "smiles": "CCOC(=O)NC(=S)NC1=C(C)C=CC=N1", 
	 "Tm": 398.15, 
	 "num_atms": 29, 
	 "gaussian": { 
		 "optdone": 1, 
		 "sigma_profile": "yes", 
		 "theory": "DFT", 
		 "functional": "B3LYP", 
		 "basiset": "6-31G**", 
		 "properties": { 
			 "R2extent": 5386.9835, 
			 "electric_dipole_moment_norm": 4.36083730722, 
			 "electric_quadrupole_moment_norm": 21.7707884905, 
			 "total_energy": -1101.81847149, 
			 "HOMO_LUMO_gap": 0.15607, 
			 "cosmo_polarized_energy": -17.81, 
			 "cosmo_cavitation_energy": 34.89, 
			 "cosmo_dispersion_energy": -24.62, 
			 "cosmo_repulsion_energy": 1.91, 
			 "cosmo_total_nonelectrostatic_energy": 12.18, 
			 "SMD_solvation_energy": 5.16 
		},
		"coords": [
			{
				"x": -0.2961447052,
				"y": 2.2787918164,
				"z": 3.9208844856,
				"element": "C" 
			},
			{
				"x": 0.432733917,
				"y": 0.9477291267,
				"z": 3.837570462,
				"element": "C" 
			},
			{
				"x": -0.1317020452,
				"y": 0.1042533891,
				"z": 2.7994664841,
				"element": "O" 
			},
			{
				"x": 0.3081729398,
				"y": 0.324408474,
				"z": 1.5659203832,
				"element": "C" 
			},
			{
				"x": 1.164094128,
				"y": 1.1238806581,
				"z": 1.2330233966,
				"element": "O" 
			},
			{
				"x": -0.2761633226,
				"y": -0.4992973955,
				"z": 0.5969878435,
				"element": "N" 
			},
			{
				"x": -1.2740506401,
				"y": -1.4594625202,
				"z": 0.6385035249,
				"element": "C" 
			},
			{
				"x": -2.4113252,
				"y": -1.6750269563,
				"z": 1.8330164478,
				"element": "S" 
			},
			{
				"x": -1.2944798018,
				"y": -2.2530691431,
				"z": -0.4891094879,
				"element": "N" 
			},
			{
				"x": -0.4562313951,
				"y": -2.2332880475,
				"z": -1.6359443082,
				"element": "C" 
			},
			{
				"x": 0.9414123477,
				"y": -2.423502217,
				"z": -1.5540265595,
				"element": "C" 
			},
			{
				"x": 1.6712822625,
				"y": -2.7157829505,
				"z": -0.2657437504,
				"element": "C" 
			},
			{
				"x": 1.633225449,
				"y": -2.3889405782,
				"z": -2.771732497,
				"element": "C" 
			},
			{
				"x": 0.9526050513,
				"y": -2.2272458283,
				"z": -3.9746043136,
				"element": "C" 
			},
			{
				"x": -0.4376815666,
				"y": -2.1236545609,
				"z": -3.9296467632,
				"element": "C" 
			},
			{
				"x": -1.1284100496,
				"y": -2.1160674047,
				"z": -2.7883937675,
				"element": "N" 
			},
			{
				"x": -1.3681251709,
				"y": 2.1239817625,
				"z": 4.0704396657,
				"element": "H" 
			},
			{
				"x": 0.0918444578,
				"y": 2.8584260502,
				"z": 4.7651397481,
				"element": "H" 
			},
			{
				"x": -0.1432794723,
				"y": 2.8594205305,
				"z": 3.0078665134,
				"element": "H" 
			},
			{
				"x": 0.3025505442,
				"y": 0.3587818697,
				"z": 4.7474779214,
				"element": "H" 
			},
			{
				"x": 1.4979621241,
				"y": 1.0857035241,
				"z": 3.6385457221,
				"element": "H" 
			},
			{
				"x": 0.1495532496,
				"y": -0.3200384705,
				"z": -0.3051427921,
				"element": "H" 
			},
			{
				"x": -2.1958651564,
				"y": -2.6880165328,
				"z": -0.6425287063,
				"element": "H" 
			},
			{
				"x": 2.5282302801,
				"y": -3.366527788,
				"z": -0.461412994,
				"element": "H" 
			},
			{
				"x": 2.054277778,
				"y": -1.805969815,
				"z": 0.2098510504,
				"element": "H" 
			},
			{
				"x": 1.018972644,
				"y": -3.2139796266,
				"z": 0.4557331461,
				"element": "H" 
			},
			{
				"x": 2.7116859956,
				"y": -2.5248031406,
				"z": -2.7676116203,
				"element": "H" 
			},
			{
				"x": 1.479713653,
				"y": -2.2098780819,
				"z": -4.9226851921,
				"element": "H" 
			},
			{
				"x": -1.022158296,
				"y": -2.0400261436,
				"z": -4.8435440428,
				"element": "H" 
			}
		],
		 "valence_orbital": [ 
			{
				"type": "occ",
				"energy": -0.29087,
				"method": "rhf"
			},
			{
				"type": "occ",
				"energy": -0.27936,
				"method": "rhf"
			},
			{
				"type": "occ",
				"energy": -0.26445,
				"method": "rhf"
			},
			{
				"type": "occ",
				"energy": -0.22376,
				"method": "rhf"
			},
			{
				"type": "occ",
				"energy": -0.20901,
				"method": "rhf"
			},
			{
				"type": "unocc",
				"energy": -0.05294,
				"method": "rhf"
			},
			{
				"type": "unocc",
				"energy": -0.03628,
				"method": "rhf"
			},
			{
				"type": "unocc",
				"energy": -0.01432,
				"method": "rhf"
			},
			{
				"type": "unocc",
				"energy": 0.05245,
				"method": "rhf"
			},
			{
				"type": "unocc",
				"energy": 0.08063,
				"method": "rhf"
			}
		],
		"cosmo_sigma_profile": { 
			"-0.025": 0.0,
			"-0.024": 0.0,
			"-0.023": 0.0,
			"-0.022": 0.0,
			"-0.021": 0.0,
			"-0.02": 0.0,
			"-0.019": 0.0,
			"-0.018": 0.0,
			"-0.017": 0.0,
			"-0.016": 0.0,
			"-0.015": 0.0917323150824,
			"-0.014": 1.07258691166,
			"-0.013": 1.06159211579,
			"-0.012": 1.92858090306,
			"-0.011": 1.89444490322,
			"-0.01": 2.16317886313,
			"-0.009": 0.900583662899,
			"-0.008": 1.70987317729,
			"-0.007": 8.5325995584,
			"-0.006": 14.4945312774,
			"-0.005": 18.9450945253,
			"-0.004": 25.8512856331,
			"-0.003": 28.1235442495,
			"-0.002": 23.8929500131,
			"-0.001": 24.3404961254,
			"0.0": 21.1518832786,
			"0.001": 14.8370239066,
			"0.002": 13.7748728433,
			"0.003": 7.98091871205,
			"0.004": 7.02660583241,
			"0.005": 6.69347684232,
			"0.006": 6.66094299051,
			"0.007": 6.51503216928,
			"0.008": 8.61558594125,
			"0.009": 8.78466094614,
			"0.01": 6.54536484875,
			"0.011": 7.93422875338,
			"0.012": 6.5126347511,
			"0.013": 1.00621835328,
			"0.014": 0.649709466117,
			"0.015": 0.107097254718,
			"0.016": 0.0,
			"0.017": 0.0,
			"0.018": 0.0,
			"0.019": 0.0,
			"0.02": 0.0,
			"0.021": 0.0,
			"0.022": 0.0,
			"0.023": 0.0,
			"0.024": 0.0,
			"0.025": 0.0
		}
	}
}
