{
	 "smiles": "CCC(C)(C)C1CCC2=C(C1)SC(NC(=O)CCl)=C2C#N", 
	 "Tm": 374.15, 
	 "num_atms": 42, 
	 "gaussian": { 
		 "optdone": 1, 
		 "sigma_profile": "yes", 
		 "theory": "DFT", 
		 "functional": "B3LYP", 
		 "basiset": "6-31G**", 
		 "properties": { 
			 "R2extent": 13290.3292, 
			 "electric_dipole_moment_norm": 8.35406658999, 
			 "electric_quadrupole_moment_norm": 50.2491542662, 
			 "total_energy": -1665.47012681, 
			 "HOMO_LUMO_gap": 0.18003, 
			 "cosmo_polarized_energy": -17.66, 
			 "cosmo_cavitation_energy": 46.08, 
			 "cosmo_dispersion_energy": -31.63, 
			 "cosmo_repulsion_energy": 2.39, 
			 "cosmo_total_nonelectrostatic_energy": 16.84, 
			 "SMD_solvation_energy": 8.17 
		},
		"coords": [
			{
				"x": -2.833635377,
				"y": -1.1592017269,
				"z": -2.4036970716,
				"element": "C" 
			},
			{
				"x": -1.6173727424,
				"y": -0.4420411227,
				"z": -3.0034447822,
				"element": "C" 
			},
			{
				"x": -1.0737844621,
				"y": 0.8053882386,
				"z": -2.2443026042,
				"element": "C" 
			},
			{
				"x": -2.1564994972,
				"y": 1.908003037,
				"z": -2.2605861085,
				"element": "C" 
			},
			{
				"x": 0.1516768663,
				"y": 1.3176109857,
				"z": -3.0317837525,
				"element": "C" 
			},
			{
				"x": -0.7058092713,
				"y": 0.4432048371,
				"z": -0.7642219424,
				"element": "C" 
			},
			{
				"x": 0.404447375,
				"y": -0.6217190166,
				"z": -0.6260193113,
				"element": "C" 
			},
			{
				"x": 0.525992241,
				"y": -1.1435824491,
				"z": 0.8159333523,
				"element": "C" 
			},
			{
				"x": 0.554222279,
				"y": -0.0042707376,
				"z": 1.8005666196,
				"element": "C" 
			},
			{
				"x": 0.1542777944,
				"y": 1.2566329889,
				"z": 1.4547393495,
				"element": "C" 
			},
			{
				"x": -0.3360918826,
				"y": 1.6789585619,
				"z": 0.0961704883,
				"element": "C" 
			},
			{
				"x": 0.2860405882,
				"y": 2.3679478538,
				"z": 2.7977643717,
				"element": "S" 
			},
			{
				"x": 0.9249769691,
				"y": 1.1203452551,
				"z": 3.8447621091,
				"element": "C" 
			},
			{
				"x": 1.2828371129,
				"y": 1.4032377907,
				"z": 5.165426726,
				"element": "N" 
			},
			{
				"x": 0.6821692594,
				"y": 0.9798090148,
				"z": 6.3528153535,
				"element": "C" 
			},
			{
				"x": 1.0918098491,
				"y": 1.3828241564,
				"z": 7.4193328319,
				"element": "O" 
			},
			{
				"x": -0.4651101882,
				"y": -0.0166298569,
				"z": 6.1827594738,
				"element": "C" 
			},
			{
				"x": -1.4975768736,
				"y": -0.1012657594,
				"z": 7.6424870954,
				"element": "Cl" 
			},
			{
				"x": 1.0062347074,
				"y": -0.0831720324,
				"z": 3.1672931928,
				"element": "C" 
			},
			{
				"x": 1.5095448178,
				"y": -1.2757912677,
				"z": 3.7617456909,
				"element": "C" 
			},
			{
				"x": 1.9063733888,
				"y": -2.2595981076,
				"z": 4.2419815754,
				"element": "N" 
			},
			{
				"x": -2.6126035312,
				"y": -1.6155770049,
				"z": -1.4334009736,
				"element": "H" 
			},
			{
				"x": -3.1609101851,
				"y": -1.9640925347,
				"z": -3.0697248074,
				"element": "H" 
			},
			{
				"x": -3.6845833085,
				"y": -0.484307119,
				"z": -2.2675453832,
				"element": "H" 
			},
			{
				"x": -0.8063331664,
				"y": -1.1687112411,
				"z": -3.133750742,
				"element": "H" 
			},
			{
				"x": -1.873111394,
				"y": -0.1104308727,
				"z": -4.0182758166,
				"element": "H" 
			},
			{
				"x": -1.7630948959,
				"y": 2.8709483757,
				"z": -1.9208818799,
				"element": "H" 
			},
			{
				"x": -3.0116850888,
				"y": 1.6556589701,
				"z": -1.6245732379,
				"element": "H" 
			},
			{
				"x": -2.5324191109,
				"y": 2.0560421093,
				"z": -3.2788149766,
				"element": "H" 
			},
			{
				"x": 0.9331504559,
				"y": 0.5557729819,
				"z": -3.1147068293,
				"element": "H" 
			},
			{
				"x": -0.1445514385,
				"y": 1.5924809764,
				"z": -4.0499967201,
				"element": "H" 
			},
			{
				"x": 0.5963057053,
				"y": 2.2079520833,
				"z": -2.5752918837,
				"element": "H" 
			},
			{
				"x": -1.6144817,
				"y": 0.0220512343,
				"z": -0.3120858723,
				"element": "H" 
			},
			{
				"x": 0.2160349433,
				"y": -1.4685839582,
				"z": -1.2913912982,
				"element": "H" 
			},
			{
				"x": 1.3661924127,
				"y": -0.1900672566,
				"z": -0.9298020577,
				"element": "H" 
			},
			{
				"x": 1.4269178375,
				"y": -1.7586910814,
				"z": 0.9244372112,
				"element": "H" 
			},
			{
				"x": -0.3195381411,
				"y": -1.8064824228,
				"z": 1.0485956627,
				"element": "H" 
			},
			{
				"x": 0.4421705347,
				"y": 2.2737690474,
				"z": -0.4007090681,
				"element": "H" 
			},
			{
				"x": -1.2036842241,
				"y": 2.3374976083,
				"z": 0.2044842097,
				"element": "H" 
			},
			{
				"x": 2.0165011116,
				"y": 2.083654682,
				"z": 5.3317357494,
				"element": "H" 
			},
			{
				"x": -0.0531771698,
				"y": -1.013445794,
				"z": 6.0083829224,
				"element": "H" 
			},
			{
				"x": -1.0986226008,
				"y": 0.2506705736,
				"z": 5.3358931335,
				"element": "H" 
			}
		],
		 "valence_orbital": [ 
			{
				"type": "occ",
				"energy": -0.29902,
				"method": "rhf"
			},
			{
				"type": "occ",
				"energy": -0.2925,
				"method": "rhf"
			},
			{
				"type": "occ",
				"energy": -0.2785,
				"method": "rhf"
			},
			{
				"type": "occ",
				"energy": -0.27237,
				"method": "rhf"
			},
			{
				"type": "occ",
				"energy": -0.24477,
				"method": "rhf"
			},
			{
				"type": "unocc",
				"energy": -0.06474,
				"method": "rhf"
			},
			{
				"type": "unocc",
				"energy": -0.01441,
				"method": "rhf"
			},
			{
				"type": "unocc",
				"energy": -0.00638,
				"method": "rhf"
			},
			{
				"type": "unocc",
				"energy": 0.00065,
				"method": "rhf"
			},
			{
				"type": "unocc",
				"energy": 0.02984,
				"method": "rhf"
			}
		],
		"cosmo_sigma_profile": { 
			"-0.025": 0.0,
			"-0.024": 0.0,
			"-0.023": 0.0,
			"-0.022": 0.0,
			"-0.021": 0.0,
			"-0.02": 0.0,
			"-0.019": 0.0,
			"-0.018": 0.0,
			"-0.017": 0.0,
			"-0.016": 0.633343084152,
			"-0.015": 1.08851990166,
			"-0.014": 0.985261156828,
			"-0.013": 1.11718703863,
			"-0.012": 1.21985765353,
			"-0.011": 0.913376250683,
			"-0.01": 1.46293189962,
			"-0.009": 1.46441682328,
			"-0.008": 3.94500005667,
			"-0.007": 5.32906175489,
			"-0.006": 6.85613754513,
			"-0.005": 10.7090363392,
			"-0.004": 20.1029943052,
			"-0.003": 34.3651971639,
			"-0.002": 56.3121151682,
			"-0.001": 46.3236102256,
			"0.0": 37.1337242984,
			"0.001": 38.9079474657,
			"0.002": 26.8160761873,
			"0.003": 9.67940563422,
			"0.004": 6.41592262493,
			"0.005": 10.4079504092,
			"0.006": 7.95729034324,
			"0.007": 3.75265738669,
			"0.008": 5.50907023069,
			"0.009": 4.28568589293,
			"0.01": 5.53126353323,
			"0.011": 6.56155447719,
			"0.012": 7.54321803306,
			"0.013": 2.63655262071,
			"0.014": 0.0481957284023,
			"0.015": 0.0,
			"0.016": 0.0,
			"0.017": 0.0,
			"0.018": 0.0,
			"0.019": 0.0,
			"0.02": 0.0,
			"0.021": 0.0,
			"0.022": 0.0,
			"0.023": 0.0,
			"0.024": 0.0,
			"0.025": 0.0
		}
	}
}
