{
	 "smiles": "CN(C1CCCN(C)C1)C(=O)C1=CC=C(N)C=C1", 
	 "Tm": 390.15, 
	 "num_atms": 39, 
	 "gaussian": { 
		 "optdone": 1, 
		 "sigma_profile": "yes", 
		 "theory": "DFT", 
		 "functional": "B3LYP", 
		 "basiset": "6-31G**", 
		 "properties": { 
			 "R2extent": 5741.1386, 
			 "electric_dipole_moment_norm": 4.91538961731, 
			 "electric_quadrupole_moment_norm": 24.1826827943, 
			 "total_energy": -785.632599019, 
			 "HOMO_LUMO_gap": 0.1869, 
			 "cosmo_polarized_energy": -17.56, 
			 "cosmo_cavitation_energy": 39.05, 
			 "cosmo_dispersion_energy": -26.88, 
			 "cosmo_repulsion_energy": 2.07, 
			 "cosmo_total_nonelectrostatic_energy": 14.24, 
			 "SMD_solvation_energy": 3.74 
		},
		"coords": [
			{
				"x": -2.1719169703,
				"y": 0.3330481248,
				"z": -0.8410220963,
				"element": "C" 
			},
			{
				"x": -0.8256254691,
				"y": 0.1824216287,
				"z": -0.2845617887,
				"element": "N" 
			},
			{
				"x": -0.503609098,
				"y": -1.0770659672,
				"z": 0.4092834129,
				"element": "C" 
			},
			{
				"x": -1.5219978495,
				"y": -1.4342964852,
				"z": 1.5122419095,
				"element": "C" 
			},
			{
				"x": -1.1371362318,
				"y": -2.760483779,
				"z": 2.1894609841,
				"element": "C" 
			},
			{
				"x": -0.9555797342,
				"y": -3.8679971486,
				"z": 1.1350963211,
				"element": "C" 
			},
			{
				"x": -0.0020288882,
				"y": -3.5298414044,
				"z": 0.075225209,
				"element": "N" 
			},
			{
				"x": 1.3967165618,
				"y": -3.6284633265,
				"z": 0.4737160739,
				"element": "C" 
			},
			{
				"x": -0.354674453,
				"y": -2.2658731703,
				"z": -0.5728153134,
				"element": "C" 
			},
			{
				"x": -0.1707011452,
				"y": 1.3790639136,
				"z": -0.034813086,
				"element": "C" 
			},
			{
				"x": -0.7423647858,
				"y": 2.4548805176,
				"z": -0.2130105877,
				"element": "O" 
			},
			{
				"x": 1.2637897326,
				"y": 1.3608893819,
				"z": 0.4031700513,
				"element": "C" 
			},
			{
				"x": 2.2340208866,
				"y": 0.4925134482,
				"z": -0.118847604,
				"element": "C" 
			},
			{
				"x": 3.5701813665,
				"y": 0.5969785455,
				"z": 0.2532078817,
				"element": "C" 
			},
			{
				"x": 3.9820860545,
				"y": 1.5795277374,
				"z": 1.1715691175,
				"element": "C" 
			},
			{
				"x": 5.3226853105,
				"y": 1.7161857747,
				"z": 1.5147154154,
				"element": "N" 
			},
			{
				"x": 3.0137316886,
				"y": 2.4638813805,
				"z": 1.6841740906,
				"element": "C" 
			},
			{
				"x": 1.6867701287,
				"y": 2.3621544612,
				"z": 1.2908812755,
				"element": "C" 
			},
			{
				"x": -2.144271012,
				"y": 1.0682004626,
				"z": -1.6455656508,
				"element": "H" 
			},
			{
				"x": -2.5135034512,
				"y": -0.623985125,
				"z": -1.2392218681,
				"element": "H" 
			},
			{
				"x": -2.8938942627,
				"y": 0.6890445916,
				"z": -0.0959985322,
				"element": "H" 
			},
			{
				"x": 0.4599111792,
				"y": -0.9208862797,
				"z": 0.8967913836,
				"element": "H" 
			},
			{
				"x": -1.5771595378,
				"y": -0.6197762051,
				"z": 2.2439886144,
				"element": "H" 
			},
			{
				"x": -2.5234101766,
				"y": -1.536077338,
				"z": 1.0730390025,
				"element": "H" 
			},
			{
				"x": -0.2068782602,
				"y": -2.630886725,
				"z": 2.7578692179,
				"element": "H" 
			},
			{
				"x": -1.9065544337,
				"y": -3.0557141979,
				"z": 2.913440716,
				"element": "H" 
			},
			{
				"x": -0.6352376923,
				"y": -4.8047032711,
				"z": 1.6048599402,
				"element": "H" 
			},
			{
				"x": -1.9269609885,
				"y": -4.0661318572,
				"z": 0.6585721704,
				"element": "H" 
			},
			{
				"x": 2.0326984193,
				"y": -3.474998546,
				"z": -0.4049028497,
				"element": "H" 
			},
			{
				"x": 1.7258265373,
				"y": -2.9141066391,
				"z": 1.2494919439,
				"element": "H" 
			},
			{
				"x": 1.5915699742,
				"y": -4.6379000459,
				"z": 0.8515701811,
				"element": "H" 
			},
			{
				"x": 0.3994672079,
				"y": -2.0306434432,
				"z": -1.3320974944,
				"element": "H" 
			},
			{
				"x": -1.3033954022,
				"y": -2.4189210413,
				"z": -1.1053148684,
				"element": "H" 
			},
			{
				"x": 1.9490826574,
				"y": -0.2596544401,
				"z": -0.8481199943,
				"element": "H" 
			},
			{
				"x": 4.307902928,
				"y": -0.0745310764,
				"z": -0.1792938906,
				"element": "H" 
			},
			{
				"x": 5.8972200793,
				"y": 0.8943693143,
				"z": 1.3944495129,
				"element": "H" 
			},
			{
				"x": 5.5098177828,
				"y": 2.1995069625,
				"z": 2.3815384022,
				"element": "H" 
			},
			{
				"x": 3.3159614607,
				"y": 3.2415355023,
				"z": 2.3814960843,
				"element": "H" 
			},
			{
				"x": 0.9509598865,
				"y": 3.0671357646,
				"z": 1.6638367128,
				"element": "H" 
			}
		],
		 "valence_orbital": [ 
			{
				"type": "occ",
				"energy": -0.25107,
				"method": "rhf"
			},
			{
				"type": "occ",
				"energy": -0.24124,
				"method": "rhf"
			},
			{
				"type": "occ",
				"energy": -0.23218,
				"method": "rhf"
			},
			{
				"type": "occ",
				"energy": -0.2041,
				"method": "rhf"
			},
			{
				"type": "occ",
				"energy": -0.1982,
				"method": "rhf"
			},
			{
				"type": "unocc",
				"energy": -0.0113,
				"method": "rhf"
			},
			{
				"type": "unocc",
				"energy": -0.00021,
				"method": "rhf"
			},
			{
				"type": "unocc",
				"energy": 0.06028,
				"method": "rhf"
			},
			{
				"type": "unocc",
				"energy": 0.07134,
				"method": "rhf"
			},
			{
				"type": "unocc",
				"energy": 0.07851,
				"method": "rhf"
			}
		],
		"cosmo_sigma_profile": { 
			"-0.025": 0.0,
			"-0.024": 0.0,
			"-0.023": 0.0,
			"-0.022": 0.0,
			"-0.021": 0.0,
			"-0.02": 0.0,
			"-0.019": 0.0,
			"-0.018": 0.0,
			"-0.017": 0.0,
			"-0.016": 0.0,
			"-0.015": 0.0,
			"-0.014": 0.0,
			"-0.013": 1.07010278919,
			"-0.012": 3.00240115113,
			"-0.011": 2.51453131374,
			"-0.01": 3.0505500682,
			"-0.009": 3.57405310009,
			"-0.008": 2.60536920292,
			"-0.007": 3.21144305834,
			"-0.006": 6.77231573181,
			"-0.005": 10.9276924691,
			"-0.004": 19.9953017259,
			"-0.003": 36.5223178324,
			"-0.002": 39.2417853832,
			"-0.001": 39.9461429805,
			"0.0": 29.7538140131,
			"0.001": 17.59640156,
			"0.002": 11.6097507575,
			"0.003": 10.3532575402,
			"0.004": 9.05289073499,
			"0.005": 13.2585322155,
			"0.006": 9.01694137428,
			"0.007": 3.8457124484,
			"0.008": 3.18643838202,
			"0.009": 3.27798531357,
			"0.01": 3.07706165898,
			"0.011": 2.55855348322,
			"0.012": 2.62026385601,
			"0.013": 4.25534244748,
			"0.014": 4.97264397342,
			"0.015": 3.13146793976,
			"0.016": 0.601859881411,
			"0.017": 0.164827038752,
			"0.018": 0.0,
			"0.019": 0.0,
			"0.02": 0.0,
			"0.021": 0.0,
			"0.022": 0.0,
			"0.023": 0.0,
			"0.024": 0.0,
			"0.025": 0.0
		}
	}
}
