{
	 "smiles": "CC1=C(CP(O)(O)=O)C=CC=C1", 
	 "Tm": 469.15, 
	 "num_atms": 23, 
	 "gaussian": { 
		 "optdone": 1, 
		 "sigma_profile": "yes", 
		 "theory": "DFT", 
		 "functional": "B3LYP", 
		 "basiset": "6-31G**", 
		 "properties": { 
			 "R2extent": 2607.8507, 
			 "electric_dipole_moment_norm": 1.54266248091, 
			 "electric_quadrupole_moment_norm": 7.64289984365, 
			 "total_energy": -878.589902967, 
			 "HOMO_LUMO_gap": 0.23164, 
			 "cosmo_polarized_energy": -16.47, 
			 "cosmo_cavitation_energy": 27.93, 
			 "cosmo_dispersion_energy": -20.14, 
			 "cosmo_repulsion_energy": 1.59, 
			 "cosmo_total_nonelectrostatic_energy": 9.38, 
			 "SMD_solvation_energy": 6.96 
		},
		"coords": [
			{
				"x": -1.7347694628,
				"y": -1.3658895059,
				"z": -2.3903782279,
				"element": "C" 
			},
			{
				"x": -0.5526306615,
				"y": -1.8577406503,
				"z": -1.5857089149,
				"element": "C" 
			},
			{
				"x": 0.417116333,
				"y": -0.9720626687,
				"z": -1.0693762969,
				"element": "C" 
			},
			{
				"x": 0.3257059146,
				"y": 0.5249120055,
				"z": -1.2892233055,
				"element": "C" 
			},
			{
				"x": -0.3151026877,
				"y": 1.4108896539,
				"z": 0.1655768511,
				"element": "P" 
			},
			{
				"x": -1.8345790375,
				"y": 0.8483890293,
				"z": 0.3634236456,
				"element": "O" 
			},
			{
				"x": -0.5513334007,
				"y": 2.8837345026,
				"z": -0.4736132706,
				"element": "O" 
			},
			{
				"x": 0.4890872515,
				"y": 1.3677112614,
				"z": 1.4142654114,
				"element": "O" 
			},
			{
				"x": 1.4843784135,
				"y": -1.4775022279,
				"z": -0.3148240332,
				"element": "C" 
			},
			{
				"x": 1.6159302196,
				"y": -2.8442898743,
				"z": -0.0759203494,
				"element": "C" 
			},
			{
				"x": 0.6680971314,
				"y": -3.7256379009,
				"z": -0.5943780845,
				"element": "C" 
			},
			{
				"x": -0.4011759525,
				"y": -3.228906096,
				"z": -1.3391519742,
				"element": "C" 
			},
			{
				"x": -1.420312062,
				"y": -0.8706278411,
				"z": -3.3175792488,
				"element": "H" 
			},
			{
				"x": -2.3849506769,
				"y": -2.1985717358,
				"z": -2.67118229,
				"element": "H" 
			},
			{
				"x": -2.3340771233,
				"y": -0.645776134,
				"z": -1.8234915837,
				"element": "H" 
			},
			{
				"x": 1.3152232774,
				"y": 0.9514373369,
				"z": -1.4845107097,
				"element": "H" 
			},
			{
				"x": -0.3109410934,
				"y": 0.784462403,
				"z": -2.1383446451,
				"element": "H" 
			},
			{
				"x": -1.8935919469,
				"y": 0.3764962998,
				"z": 1.2064774937,
				"element": "H" 
			},
			{
				"x": -0.6247627839,
				"y": 3.5519389969,
				"z": 0.2234750113,
				"element": "H" 
			},
			{
				"x": 2.2131031393,
				"y": -0.7841604853,
				"z": 0.0958369955,
				"element": "H" 
			},
			{
				"x": 2.4516918255,
				"y": -3.2147608928,
				"z": 0.5102921062,
				"element": "H" 
			},
			{
				"x": 0.7579226597,
				"y": -4.7942301293,
				"z": -0.4207363401,
				"element": "H" 
			},
			{
				"x": -1.1408292765,
				"y": -3.9174153471,
				"z": -1.7402282402,
				"element": "H" 
			}
		],
		 "valence_orbital": [ 
			{
				"type": "occ",
				"energy": -0.33226,
				"method": "rhf"
			},
			{
				"type": "occ",
				"energy": -0.29003,
				"method": "rhf"
			},
			{
				"type": "occ",
				"energy": -0.28871,
				"method": "rhf"
			},
			{
				"type": "occ",
				"energy": -0.24466,
				"method": "rhf"
			},
			{
				"type": "occ",
				"energy": -0.23804,
				"method": "rhf"
			},
			{
				"type": "unocc",
				"energy": -0.0064,
				"method": "rhf"
			},
			{
				"type": "unocc",
				"energy": 0.00177,
				"method": "rhf"
			},
			{
				"type": "unocc",
				"energy": 0.04677,
				"method": "rhf"
			},
			{
				"type": "unocc",
				"energy": 0.07304,
				"method": "rhf"
			},
			{
				"type": "unocc",
				"energy": 0.08926,
				"method": "rhf"
			}
		],
		"cosmo_sigma_profile": { 
			"-0.025": 0.0,
			"-0.024": 0.0,
			"-0.023": 0.0,
			"-0.022": 0.0,
			"-0.021": 0.0,
			"-0.02": 0.0,
			"-0.019": 1.04429456689,
			"-0.018": 1.97199988915,
			"-0.017": 2.10333677079,
			"-0.016": 1.29570108266,
			"-0.015": 1.17906413676,
			"-0.014": 1.19443219336,
			"-0.013": 1.38716644552,
			"-0.012": 1.41550255285,
			"-0.011": 1.39148338959,
			"-0.01": 1.91448505923,
			"-0.009": 1.66643546484,
			"-0.008": 1.30193876169,
			"-0.007": 3.94270828229,
			"-0.006": 7.63788186081,
			"-0.005": 16.7000975993,
			"-0.004": 15.8734632323,
			"-0.003": 16.0731662371,
			"-0.002": 14.216945604,
			"-0.001": 13.7030697141,
			"0.0": 15.4812765696,
			"0.001": 13.2685739702,
			"0.002": 9.74193471118,
			"0.003": 11.7982507197,
			"0.004": 10.3308342701,
			"0.005": 10.7353789418,
			"0.006": 10.6520851824,
			"0.007": 4.12480677676,
			"0.008": 3.86986759709,
			"0.009": 3.7054679784,
			"0.01": 3.53358843279,
			"0.011": 1.87281162275,
			"0.012": 1.60291675995,
			"0.013": 1.61163867199,
			"0.014": 3.94416869268,
			"0.015": 5.12074647751,
			"0.016": 0.163416232728,
			"0.017": 0.0,
			"0.018": 0.0,
			"0.019": 0.0,
			"0.02": 0.0,
			"0.021": 0.0,
			"0.022": 0.0,
			"0.023": 0.0,
			"0.024": 0.0,
			"0.025": 0.0
		}
	}
}
