{
	 "smiles": "C(N(CC1=CC=CC=C1)CC1=CC=CC=C1)N1N=NC2=C1C=CC=C2", 
	 "Tm": 392.15, 
	 "num_atms": 45, 
	 "gaussian": { 
		 "optdone": 1, 
		 "sigma_profile": "yes", 
		 "theory": "DFT", 
		 "functional": "B3LYP", 
		 "basiset": "6-31G**", 
		 "properties": { 
			 "R2extent": 8264.265, 
			 "electric_dipole_moment_norm": 4.120763223, 
			 "electric_quadrupole_moment_norm": 15.2865192395, 
			 "total_energy": -1031.25216471, 
			 "HOMO_LUMO_gap": 0.19224, 
			 "cosmo_polarized_energy": -15.53, 
			 "cosmo_cavitation_energy": 47.97, 
			 "cosmo_dispersion_energy": -30.7, 
			 "cosmo_repulsion_energy": 2.31, 
			 "cosmo_total_nonelectrostatic_energy": 19.59, 
			 "SMD_solvation_energy": 5.6 
		},
		"coords": [
			{
				"x": 0.1848238098,
				"y": -0.7273667703,
				"z": -1.599860553,
				"element": "C" 
			},
			{
				"x": -0.6697870996,
				"y": -1.5593730326,
				"z": -0.7581488935,
				"element": "N" 
			},
			{
				"x": 0.0257689289,
				"y": -2.755748543,
				"z": -0.2441733455,
				"element": "C" 
			},
			{
				"x": 0.7874610799,
				"y": -2.5301458389,
				"z": 1.050406947,
				"element": "C" 
			},
			{
				"x": 0.1500721766,
				"y": -1.950075415,
				"z": 2.1556473744,
				"element": "C" 
			},
			{
				"x": 0.8212529466,
				"y": -1.8060500648,
				"z": 3.3685882286,
				"element": "C" 
			},
			{
				"x": 2.1427284226,
				"y": -2.2429053038,
				"z": 3.4952312987,
				"element": "C" 
			},
			{
				"x": 2.7865760066,
				"y": -2.8178896329,
				"z": 2.3998572181,
				"element": "C" 
			},
			{
				"x": 2.1116334076,
				"y": -2.9589294198,
				"z": 1.1850930674,
				"element": "C" 
			},
			{
				"x": -1.9181503459,
				"y": -1.8823897348,
				"z": -1.4711373395,
				"element": "C" 
			},
			{
				"x": -2.824144894,
				"y": -0.6802225549,
				"z": -1.6622000263,
				"element": "C" 
			},
			{
				"x": -3.2217431218,
				"y": 0.0878683449,
				"z": -0.5573158735,
				"element": "C" 
			},
			{
				"x": -4.0820205571,
				"y": 1.1729745378,
				"z": -0.7189639543,
				"element": "C" 
			},
			{
				"x": -4.5603603987,
				"y": 1.5072212827,
				"z": -1.9896306773,
				"element": "C" 
			},
			{
				"x": -4.1717624796,
				"y": 0.7499302666,
				"z": -3.0941527154,
				"element": "C" 
			},
			{
				"x": -3.3071185626,
				"y": -0.3357288174,
				"z": -2.9290967507,
				"element": "C" 
			},
			{
				"x": 1.2789922022,
				"y": -0.1047149249,
				"z": -0.8839149388,
				"element": "N" 
			},
			{
				"x": 2.5640584925,
				"y": -0.5190832577,
				"z": -1.1136663327,
				"element": "N" 
			},
			{
				"x": 3.375754918,
				"y": 0.1824264064,
				"z": -0.3968349199,
				"element": "N" 
			},
			{
				"x": 2.6375393172,
				"y": 1.0926956857,
				"z": 0.3335401713,
				"element": "C" 
			},
			{
				"x": 1.2735089531,
				"y": 0.9173007574,
				"z": 0.0249928182,
				"element": "C" 
			},
			{
				"x": 0.2678788852,
				"y": 1.7103136351,
				"z": 0.597248189,
				"element": "C" 
			},
			{
				"x": 0.6899333845,
				"y": 2.6849266088,
				"z": 1.4901210612,
				"element": "C" 
			},
			{
				"x": 2.0571972168,
				"y": 2.8694786703,
				"z": 1.8118871547,
				"element": "C" 
			},
			{
				"x": 3.04525602,
				"y": 2.0819398393,
				"z": 1.2426780783,
				"element": "C" 
			},
			{
				"x": 0.6631355459,
				"y": -1.2959103273,
				"z": -2.4139146814,
				"element": "H" 
			},
			{
				"x": -0.4354137254,
				"y": 0.0582428027,
				"z": -2.0405773714,
				"element": "H" 
			},
			{
				"x": -0.7430199475,
				"y": -3.5151008315,
				"z": -0.0588555552,
				"element": "H" 
			},
			{
				"x": 0.7043615293,
				"y": -3.1820984557,
				"z": -1.0018978136,
				"element": "H" 
			},
			{
				"x": -0.8744880528,
				"y": -1.6036828071,
				"z": 2.054661343,
				"element": "H" 
			},
			{
				"x": 0.314532849,
				"y": -1.3525679252,
				"z": 4.2160897195,
				"element": "H" 
			},
			{
				"x": 2.6670891634,
				"y": -2.1293803994,
				"z": 4.4398321764,
				"element": "H" 
			},
			{
				"x": 3.8176997579,
				"y": -3.1488109021,
				"z": 2.4842819776,
				"element": "H" 
			},
			{
				"x": 2.6237933275,
				"y": -3.3920826575,
				"z": 0.3302218566,
				"element": "H" 
			},
			{
				"x": -1.7307496049,
				"y": -2.3568054999,
				"z": -2.4526885462,
				"element": "H" 
			},
			{
				"x": -2.4434687764,
				"y": -2.628724836,
				"z": -0.8651274191,
				"element": "H" 
			},
			{
				"x": -2.847329653,
				"y": -0.1726299754,
				"z": 0.4285183803,
				"element": "H" 
			},
			{
				"x": -4.3848081438,
				"y": 1.7562595059,
				"z": 0.1462437156,
				"element": "H" 
			},
			{
				"x": -5.2309545151,
				"y": 2.3523455482,
				"z": -2.1152044576,
				"element": "H" 
			},
			{
				"x": -4.5362348296,
				"y": 1.0038586069,
				"z": -4.0854494705,
				"element": "H" 
			},
			{
				"x": -3.0053567442,
				"y": -0.922122771,
				"z": -3.79384627,
				"element": "H" 
			},
			{
				"x": -0.7796776858,
				"y": 1.5696372039,
				"z": 0.3557584129,
				"element": "H" 
			},
			{
				"x": -0.0498317779,
				"y": 3.3268877887,
				"z": 1.9598311284,
				"element": "H" 
			},
			{
				"x": 2.3295019692,
				"y": 3.6466094911,
				"z": 2.5196267371,
				"element": "H" 
			},
			{
				"x": 4.0956706056,
				"y": 2.2145237167,
				"z": 1.4791008513,
				"element": "H" 
			}
		],
		 "valence_orbital": [ 
			{
				"type": "occ",
				"energy": -0.24613,
				"method": "rhf"
			},
			{
				"type": "occ",
				"energy": -0.23946,
				"method": "rhf"
			},
			{
				"type": "occ",
				"energy": -0.23791,
				"method": "rhf"
			},
			{
				"type": "occ",
				"energy": -0.23334,
				"method": "rhf"
			},
			{
				"type": "occ",
				"energy": -0.22709,
				"method": "rhf"
			},
			{
				"type": "unocc",
				"energy": -0.03485,
				"method": "rhf"
			},
			{
				"type": "unocc",
				"energy": -0.01714,
				"method": "rhf"
			},
			{
				"type": "unocc",
				"energy": -0.01025,
				"method": "rhf"
			},
			{
				"type": "unocc",
				"energy": 0.00406,
				"method": "rhf"
			},
			{
				"type": "unocc",
				"energy": 0.00865,
				"method": "rhf"
			}
		],
		"cosmo_sigma_profile": { 
			"-0.025": 0.0,
			"-0.024": 0.0,
			"-0.023": 0.0,
			"-0.022": 0.0,
			"-0.021": 0.0,
			"-0.02": 0.0,
			"-0.019": 0.0,
			"-0.018": 0.0,
			"-0.017": 0.0,
			"-0.016": 0.0,
			"-0.015": 0.0,
			"-0.014": 0.0,
			"-0.013": 0.0,
			"-0.012": 0.0,
			"-0.011": 0.0,
			"-0.01": 0.0,
			"-0.009": 0.0,
			"-0.008": 0.0357983002895,
			"-0.007": 2.84002860093,
			"-0.006": 16.8213067235,
			"-0.005": 37.1345419347,
			"-0.004": 43.3525427542,
			"-0.003": 41.3882662991,
			"-0.002": 33.0671695388,
			"-0.001": 25.236271785,
			"0.0": 21.7846997822,
			"0.001": 21.6600157151,
			"0.002": 22.4815592184,
			"0.003": 24.9346380573,
			"0.004": 30.4167760955,
			"0.005": 26.3004137911,
			"0.006": 14.2858672766,
			"0.007": 4.62846263738,
			"0.008": 1.38107541358,
			"0.009": 2.25046281349,
			"0.01": 2.96734574774,
			"0.011": 3.01854000244,
			"0.012": 2.13515238458,
			"0.013": 1.91298839824,
			"0.014": 1.07272775053,
			"0.015": 1.22719538029,
			"0.016": 0.22895659911,
			"0.017": 0.0,
			"0.018": 0.0,
			"0.019": 0.0,
			"0.02": 0.0,
			"0.021": 0.0,
			"0.022": 0.0,
			"0.023": 0.0,
			"0.024": 0.0,
			"0.025": 0.0
		}
	}
}
