{
	 "smiles": "CC1=C(C(O)=O)C(C)=NN1", 
	 "Tm": 547.15, 
	 "num_atms": 18, 
	 "gaussian": { 
		 "optdone": 1, 
		 "sigma_profile": "yes", 
		 "theory": "DFT", 
		 "functional": "B3LYP", 
		 "basiset": "6-31G**", 
		 "properties": { 
			 "R2extent": 2086.5204, 
			 "electric_dipole_moment_norm": 3.63237862839, 
			 "electric_quadrupole_moment_norm": 18.6289876096, 
			 "total_energy": -493.41603643, 
			 "HOMO_LUMO_gap": 0.23453, 
			 "cosmo_polarized_energy": -17.41, 
			 "cosmo_cavitation_energy": 21.86, 
			 "cosmo_dispersion_energy": -16.34, 
			 "cosmo_repulsion_energy": 1.32, 
			 "cosmo_total_nonelectrostatic_energy": 6.85, 
			 "SMD_solvation_energy": 3.93 
		},
		"coords": [
			{
				"x": -1.9169591163,
				"y": 1.3847317369,
				"z": 1.220913834,
				"element": "C" 
			},
			{
				"x": -1.3491972984,
				"y": 0.6775329728,
				"z": 0.0356953521,
				"element": "C" 
			},
			{
				"x": -1.4824105134,
				"y": -0.6392270894,
				"z": -0.4147131717,
				"element": "C" 
			},
			{
				"x": -2.2950578233,
				"y": -1.642743141,
				"z": 0.2912059158,
				"element": "C" 
			},
			{
				"x": -2.3497867748,
				"y": -2.8952189097,
				"z": -0.2413778995,
				"element": "O" 
			},
			{
				"x": -2.909024684,
				"y": -1.4064645707,
				"z": 1.3114097924,
				"element": "O" 
			},
			{
				"x": -0.6947731479,
				"y": -0.703484966,
				"z": -1.6086798248,
				"element": "C" 
			},
			{
				"x": -0.4491305368,
				"y": -1.8559288193,
				"z": -2.5378287411,
				"element": "C" 
			},
			{
				"x": -0.1272156456,
				"y": 0.4683522555,
				"z": -1.8704359315,
				"element": "N" 
			},
			{
				"x": -0.5406145511,
				"y": 1.2787931545,
				"z": -0.8621070565,
				"element": "N" 
			},
			{
				"x": -1.6125255193,
				"y": 0.8894347572,
				"z": 2.1465023128,
				"element": "H" 
			},
			{
				"x": -3.0093008678,
				"y": 1.3523199873,
				"z": 1.2010362114,
				"element": "H" 
			},
			{
				"x": -1.5901391015,
				"y": 2.4288500026,
				"z": 1.2494255173,
				"element": "H" 
			},
			{
				"x": -1.8205912325,
				"y": -2.9521052494,
				"z": -1.0478475896,
				"element": "H" 
			},
			{
				"x": -1.3779969714,
				"y": -2.2230958793,
				"z": -2.993153256,
				"element": "H" 
			},
			{
				"x": 0.2068582585,
				"y": -1.5308024057,
				"z": -3.3476676117,
				"element": "H" 
			},
			{
				"x": 0.0439913564,
				"y": -2.6956475438,
				"z": -2.0312000122,
				"element": "H" 
			},
			{
				"x": -0.229025831,
				"y": 2.2385037074,
				"z": -0.8500778412,
				"element": "H" 
			}
		],
		 "valence_orbital": [ 
			{
				"type": "occ",
				"energy": -0.30728,
				"method": "rhf"
			},
			{
				"type": "occ",
				"energy": -0.30662,
				"method": "rhf"
			},
			{
				"type": "occ",
				"energy": -0.26604,
				"method": "rhf"
			},
			{
				"type": "occ",
				"energy": -0.26225,
				"method": "rhf"
			},
			{
				"type": "occ",
				"energy": -0.25212,
				"method": "rhf"
			},
			{
				"type": "unocc",
				"energy": -0.01759,
				"method": "rhf"
			},
			{
				"type": "unocc",
				"energy": 0.01509,
				"method": "rhf"
			},
			{
				"type": "unocc",
				"energy": 0.0677,
				"method": "rhf"
			},
			{
				"type": "unocc",
				"energy": 0.06863,
				"method": "rhf"
			},
			{
				"type": "unocc",
				"energy": 0.10143,
				"method": "rhf"
			}
		],
		"cosmo_sigma_profile": { 
			"-0.025": 0.0,
			"-0.024": 0.0,
			"-0.023": 0.0,
			"-0.022": 0.0,
			"-0.021": 0.0,
			"-0.02": 0.0,
			"-0.019": 0.0,
			"-0.018": 0.0,
			"-0.017": 0.709417803095,
			"-0.016": 1.41176868736,
			"-0.015": 1.82589871575,
			"-0.014": 1.05217718763,
			"-0.013": 2.44354735994,
			"-0.012": 2.99801290622,
			"-0.011": 3.37648695825,
			"-0.01": 2.65992277148,
			"-0.009": 3.17278405401,
			"-0.008": 2.76759807257,
			"-0.007": 3.67491669979,
			"-0.006": 6.01600206627,
			"-0.005": 9.45836010038,
			"-0.004": 9.30589465632,
			"-0.003": 11.6989299519,
			"-0.002": 16.1445499444,
			"-0.001": 15.0462028345,
			"0.0": 7.49950956999,
			"0.001": 8.77286039792,
			"0.002": 9.40201460053,
			"0.003": 6.28850871423,
			"0.004": 3.63869177105,
			"0.005": 3.71531296315,
			"0.006": 4.90325538329,
			"0.007": 3.27538026051,
			"0.008": 3.57553253292,
			"0.009": 4.22667691031,
			"0.01": 5.11903912811,
			"0.011": 5.53670213068,
			"0.012": 5.41083781786,
			"0.013": 4.09903674332,
			"0.014": 2.81301315174,
			"0.015": 0.866809102186,
			"0.016": 0.225528525293,
			"0.017": 0.0,
			"0.018": 0.0,
			"0.019": 0.0,
			"0.02": 0.0,
			"0.021": 0.0,
			"0.022": 0.0,
			"0.023": 0.0,
			"0.024": 0.0,
			"0.025": 0.0
		}
	}
}
