{
	 "smiles": "COC1=CC(=NC=C1)N1CCNCC1", 
	 "Tm": 310.15, 
	 "num_atms": 29, 
	 "gaussian": { 
		 "optdone": 1, 
		 "sigma_profile": "yes", 
		 "theory": "DFT", 
		 "functional": "B3LYP", 
		 "basiset": "6-31G**", 
		 "properties": { 
			 "R2extent": 3965.7467, 
			 "electric_dipole_moment_norm": 0.931260935506, 
			 "electric_quadrupole_moment_norm": 16.23537627, 
			 "total_energy": -629.555870948, 
			 "HOMO_LUMO_gap": 0.19346, 
			 "cosmo_polarized_energy": -10.66, 
			 "cosmo_cavitation_energy": 30.35, 
			 "cosmo_dispersion_energy": -22.97, 
			 "cosmo_repulsion_energy": 1.81, 
			 "cosmo_total_nonelectrostatic_energy": 9.18, 
			 "SMD_solvation_energy": 1.63 
		},
		"coords": [
			{
				"x": 2.2443504484,
				"y": -2.1244862225,
				"z": -4.7016205986,
				"element": "C" 
			},
			{
				"x": 1.5845795303,
				"y": -1.1941090751,
				"z": -3.854859879,
				"element": "O" 
			},
			{
				"x": 1.3705117777,
				"y": -1.5439727546,
				"z": -2.5576684502,
				"element": "C" 
			},
			{
				"x": 0.729818123,
				"y": -0.5882956722,
				"z": -1.7699865397,
				"element": "C" 
			},
			{
				"x": 0.4731252003,
				"y": -0.8854085302,
				"z": -0.415430492,
				"element": "C" 
			},
			{
				"x": 0.842838051,
				"y": -2.0618107711,
				"z": 0.1416340438,
				"element": "N" 
			},
			{
				"x": 1.4598003207,
				"y": -2.9475375232,
				"z": -0.6382366372,
				"element": "C" 
			},
			{
				"x": 1.7523217898,
				"y": -2.7684646852,
				"z": -1.9888950186,
				"element": "C" 
			},
			{
				"x": -0.1731988873,
				"y": 0.0144596604,
				"z": 0.4031480066,
				"element": "N" 
			},
			{
				"x": -0.6266240401,
				"y": 1.3038173907,
				"z": -0.1114303274,
				"element": "C" 
			},
			{
				"x": -1.4659382779,
				"y": 2.0252331662,
				"z": 0.9405017881,
				"element": "C" 
			},
			{
				"x": -0.6761932758,
				"y": 2.2435236364,
				"z": 2.1522018233,
				"element": "N" 
			},
			{
				"x": 0.0588424165,
				"y": 1.0465355532,
				"z": 2.6149935014,
				"element": "C" 
			},
			{
				"x": -0.3147329533,
				"y": -0.2208302006,
				"z": 1.8396950546,
				"element": "C" 
			},
			{
				"x": 3.2543864412,
				"y": -2.3542507586,
				"z": -4.3403239766,
				"element": "H" 
			},
			{
				"x": 2.3129518814,
				"y": -1.6444294537,
				"z": -5.6790322015,
				"element": "H" 
			},
			{
				"x": 1.6760374689,
				"y": -3.0579974467,
				"z": -4.7970439977,
				"element": "H" 
			},
			{
				"x": 0.4618349059,
				"y": 0.3564041355,
				"z": -2.2232529507,
				"element": "H" 
			},
			{
				"x": 1.7444281323,
				"y": -3.8813076216,
				"z": -0.1535668128,
				"element": "H" 
			},
			{
				"x": 2.2517992225,
				"y": -3.5473010541,
				"z": -2.5495061284,
				"element": "H" 
			},
			{
				"x": -1.2352861818,
				"y": 1.156375191,
				"z": -1.0135576645,
				"element": "H" 
			},
			{
				"x": 0.2285287,
				"y": 1.9394044666,
				"z": -0.3903684767,
				"element": "H" 
			},
			{
				"x": -1.7714582224,
				"y": 2.9968491967,
				"z": 0.5355873241,
				"element": "H" 
			},
			{
				"x": -2.3909289219,
				"y": 1.4437386269,
				"z": 1.1060985096,
				"element": "H" 
			},
			{
				"x": -1.2734494953,
				"y": 2.6007717367,
				"z": 2.8890891576,
				"element": "H" 
			},
			{
				"x": 1.1384379152,
				"y": 1.2160518142,
				"z": 2.4997640303,
				"element": "H" 
			},
			{
				"x": -0.123380703,
				"y": 0.878993006,
				"z": 3.6834988447,
				"element": "H" 
			},
			{
				"x": -1.342160984,
				"y": -0.5304470254,
				"z": 2.0837946588,
				"element": "H" 
			},
			{
				"x": 0.3413596176,
				"y": -1.0483087857,
				"z": 2.1082734088,
				"element": "H" 
			}
		],
		 "valence_orbital": [ 
			{
				"type": "occ",
				"energy": -0.27702,
				"method": "rhf"
			},
			{
				"type": "occ",
				"energy": -0.24394,
				"method": "rhf"
			},
			{
				"type": "occ",
				"energy": -0.2323,
				"method": "rhf"
			},
			{
				"type": "occ",
				"energy": -0.21397,
				"method": "rhf"
			},
			{
				"type": "occ",
				"energy": -0.18846,
				"method": "rhf"
			},
			{
				"type": "unocc",
				"energy": 0.005,
				"method": "rhf"
			},
			{
				"type": "unocc",
				"energy": 0.02633,
				"method": "rhf"
			},
			{
				"type": "unocc",
				"energy": 0.07841,
				"method": "rhf"
			},
			{
				"type": "unocc",
				"energy": 0.10118,
				"method": "rhf"
			},
			{
				"type": "unocc",
				"energy": 0.10839,
				"method": "rhf"
			}
		],
		"cosmo_sigma_profile": { 
			"-0.025": 0.0,
			"-0.024": 0.0,
			"-0.023": 0.0,
			"-0.022": 0.0,
			"-0.021": 0.0,
			"-0.02": 0.0,
			"-0.019": 0.0,
			"-0.018": 0.0,
			"-0.017": 0.0,
			"-0.016": 0.0,
			"-0.015": 0.0,
			"-0.014": 0.0,
			"-0.013": 0.0,
			"-0.012": 0.0,
			"-0.011": 0.100155928384,
			"-0.01": 1.07269217719,
			"-0.009": 1.67234715548,
			"-0.008": 0.912244056696,
			"-0.007": 1.54245171647,
			"-0.006": 8.55392905475,
			"-0.005": 18.9052051032,
			"-0.004": 24.4012066595,
			"-0.003": 34.1964937528,
			"-0.002": 27.6844155162,
			"-0.001": 18.41865567,
			"0.0": 11.2227149592,
			"0.001": 10.084592555,
			"0.002": 9.29162345106,
			"0.003": 12.0063082401,
			"0.004": 16.5284186226,
			"0.005": 13.0921660498,
			"0.006": 5.23862853384,
			"0.007": 4.22682591196,
			"0.008": 3.42990195684,
			"0.009": 3.42253411176,
			"0.01": 3.73017162123,
			"0.011": 2.53779341768,
			"0.012": 1.48237552013,
			"0.013": 1.14851324016,
			"0.014": 1.35564697764,
			"0.015": 0.513096550256,
			"0.016": 0.43190766342,
			"0.017": 0.459173411337,
			"0.018": 0.416205452068,
			"0.019": 0.0403004952117,
			"0.02": 0.0,
			"0.021": 0.0,
			"0.022": 0.0,
			"0.023": 0.0,
			"0.024": 0.0,
			"0.025": 0.0
		}
	}
}
