{
	 "smiles": "NC1=C(NCCCN2C=CN=C2)C=CC=C1", 
	 "Tm": 434.15, 
	 "num_atms": 32, 
	 "gaussian": { 
		 "optdone": 1, 
		 "sigma_profile": "yes", 
		 "theory": "DFT", 
		 "functional": "B3LYP", 
		 "basiset": "6-31G**", 
		 "properties": { 
			 "R2extent": 5379.8868, 
			 "electric_dipole_moment_norm": 4.67454980078, 
			 "electric_quadrupole_moment_norm": 16.8943283628, 
			 "total_energy": -685.917860356, 
			 "HOMO_LUMO_gap": 0.19795, 
			 "cosmo_polarized_energy": -17.79, 
			 "cosmo_cavitation_energy": 34.81, 
			 "cosmo_dispersion_energy": -24.48, 
			 "cosmo_repulsion_energy": 1.92, 
			 "cosmo_total_nonelectrostatic_energy": 12.24, 
			 "SMD_solvation_energy": 3.72 
		},
		"coords": [
			{
				"x": 0.6080224464,
				"y": -1.1954552516,
				"z": -4.2112883008,
				"element": "N" 
			},
			{
				"x": 0.0454309626,
				"y": 0.0907509859,
				"z": -4.0027664849,
				"element": "C" 
			},
			{
				"x": 0.6263141876,
				"y": 0.9005576009,
				"z": -2.9894722572,
				"element": "C" 
			},
			{
				"x": 1.7300375445,
				"y": 0.3666201273,
				"z": -2.3151814208,
				"element": "N" 
			},
			{
				"x": 2.3020623411,
				"y": 0.9314580027,
				"z": -1.1022282345,
				"element": "C" 
			},
			{
				"x": 1.6789557589,
				"y": 0.4457150828,
				"z": 0.2212466971,
				"element": "C" 
			},
			{
				"x": 0.2210219225,
				"y": 0.8728376077,
				"z": 0.4440179218,
				"element": "C" 
			},
			{
				"x": -0.3313299425,
				"y": 0.3437243024,
				"z": 1.6859952691,
				"element": "N" 
			},
			{
				"x": -0.0485569871,
				"y": 0.7695093487,
				"z": 2.9701993742,
				"element": "C" 
			},
			{
				"x": -0.7557590395,
				"y": -0.0646127484,
				"z": 3.8012454939,
				"element": "C" 
			},
			{
				"x": -1.4626027109,
				"y": -0.9932923612,
				"z": 3.0716021425,
				"element": "N" 
			},
			{
				"x": -1.183041088,
				"y": -0.7200751784,
				"z": 1.8144721406,
				"element": "C" 
			},
			{
				"x": 0.0909344714,
				"y": 2.1763694263,
				"z": -2.7660841046,
				"element": "C" 
			},
			{
				"x": -1.0139825753,
				"y": 2.6295724563,
				"z": -3.4938910424,
				"element": "C" 
			},
			{
				"x": -1.607264834,
				"y": 1.8154819979,
				"z": -4.4538357517,
				"element": "C" 
			},
			{
				"x": -1.0625878059,
				"y": 0.5529776154,
				"z": -4.709512231,
				"element": "C" 
			},
			{
				"x": 0.1208703249,
				"y": -1.7115853935,
				"z": -4.9351060124,
				"element": "H" 
			},
			{
				"x": 1.5945406393,
				"y": -1.1409243832,
				"z": -4.4556209547,
				"element": "H" 
			},
			{
				"x": 1.715153236,
				"y": -0.648047926,
				"z": -2.3260752554,
				"element": "H" 
			},
			{
				"x": 2.2643034909,
				"y": 2.0227890366,
				"z": -1.1684224138,
				"element": "H" 
			},
			{
				"x": 3.3676890839,
				"y": 0.6713611958,
				"z": -1.0842600176,
				"element": "H" 
			},
			{
				"x": 2.2941663096,
				"y": 0.8167104952,
				"z": 1.0509870609,
				"element": "H" 
			},
			{
				"x": 1.7335354335,
				"y": -0.6497446156,
				"z": 0.264545574,
				"element": "H" 
			},
			{
				"x": 0.1392186165,
				"y": 1.9652458917,
				"z": 0.4637242303,
				"element": "H" 
			},
			{
				"x": -0.412166882,
				"y": 0.52243034,
				"z": -0.3743487495,
				"element": "H" 
			},
			{
				"x": 0.6030968175,
				"y": 1.6088229486,
				"z": 3.1617013733,
				"element": "H" 
			},
			{
				"x": -0.800253233,
				"y": -0.0431594183,
				"z": 4.8816867045,
				"element": "H" 
			},
			{
				"x": -1.5678115102,
				"y": -1.2450124952,
				"z": 0.9495921562,
				"element": "H" 
			},
			{
				"x": 0.527397328,
				"y": 2.8246073866,
				"z": -2.0140000817,
				"element": "H" 
			},
			{
				"x": -1.4107451864,
				"y": 3.620515587,
				"z": -3.2935226643,
				"element": "H" 
			},
			{
				"x": -2.4713789346,
				"y": 2.1577503956,
				"z": -5.0144244279,
				"element": "H" 
			},
			{
				"x": -1.4977701857,
				"y": -0.08339806,
				"z": -5.477375733,
				"element": "H" 
			}
		],
		 "valence_orbital": [ 
			{
				"type": "occ",
				"energy": -0.25835,
				"method": "rhf"
			},
			{
				"type": "occ",
				"energy": -0.25415,
				"method": "rhf"
			},
			{
				"type": "occ",
				"energy": -0.2257,
				"method": "rhf"
			},
			{
				"type": "occ",
				"energy": -0.21775,
				"method": "rhf"
			},
			{
				"type": "occ",
				"energy": -0.18843,
				"method": "rhf"
			},
			{
				"type": "unocc",
				"energy": 0.00952,
				"method": "rhf"
			},
			{
				"type": "unocc",
				"energy": 0.0206,
				"method": "rhf"
			},
			{
				"type": "unocc",
				"energy": 0.03501,
				"method": "rhf"
			},
			{
				"type": "unocc",
				"energy": 0.07137,
				"method": "rhf"
			},
			{
				"type": "unocc",
				"energy": 0.07562,
				"method": "rhf"
			}
		],
		"cosmo_sigma_profile": { 
			"-0.025": 0.0,
			"-0.024": 0.0,
			"-0.023": 0.0,
			"-0.022": 0.0,
			"-0.021": 0.0,
			"-0.02": 0.0,
			"-0.019": 0.0,
			"-0.018": 0.0,
			"-0.017": 0.0,
			"-0.016": 0.0,
			"-0.015": 0.0,
			"-0.014": 0.0,
			"-0.013": 0.0,
			"-0.012": 0.423659657288,
			"-0.011": 2.28881855067,
			"-0.01": 2.99151623562,
			"-0.009": 3.67048678896,
			"-0.008": 7.63860216412,
			"-0.007": 10.5892635146,
			"-0.006": 15.8418801088,
			"-0.005": 18.5740199268,
			"-0.004": 24.5896389768,
			"-0.003": 24.597973724,
			"-0.002": 22.6071491921,
			"-0.001": 15.5634113323,
			"0.0": 15.4264883522,
			"0.001": 11.0079315147,
			"0.002": 11.1812477032,
			"0.003": 10.4537952853,
			"0.004": 11.872288112,
			"0.005": 13.2026998122,
			"0.006": 14.3682119679,
			"0.007": 10.2397672052,
			"0.008": 8.5997103655,
			"0.009": 3.63939059926,
			"0.01": 2.97747838369,
			"0.011": 1.83452089,
			"0.012": 1.64193815449,
			"0.013": 2.44315534183,
			"0.014": 1.79730723697,
			"0.015": 1.55037662204,
			"0.016": 0.840882081118,
			"0.017": 1.07036433668,
			"0.018": 1.23788197641,
			"0.019": 0.211474173327,
			"0.02": 0.0,
			"0.021": 0.0,
			"0.022": 0.0,
			"0.023": 0.0,
			"0.024": 0.0,
			"0.025": 0.0
		}
	}
}
