{
	 "smiles": "CC(C)(C)NS(=O)(=O)C1=CN=C(NN)C=C1", 
	 "Tm": 398.15, 
	 "num_atms": 32, 
	 "gaussian": { 
		 "optdone": 1, 
		 "sigma_profile": "yes", 
		 "theory": "DFT", 
		 "functional": "B3LYP", 
		 "basiset": "6-31G**", 
		 "properties": { 
			 "R2extent": 5442.1948, 
			 "electric_dipole_moment_norm": 5.54935888369, 
			 "electric_quadrupole_moment_norm": 19.9740665174, 
			 "total_energy": -1120.15250274, 
			 "HOMO_LUMO_gap": 0.19079, 
			 "cosmo_polarized_energy": -20.17, 
			 "cosmo_cavitation_energy": 36.16, 
			 "cosmo_dispersion_energy": -25.27, 
			 "cosmo_repulsion_energy": 1.93, 
			 "cosmo_total_nonelectrostatic_energy": 12.83, 
			 "SMD_solvation_energy": 4.31 
		},
		"coords": [
			{
				"x": 0.4878338632,
				"y": 1.2068348556,
				"z": 0.9953484171,
				"element": "C" 
			},
			{
				"x": 1.7361257214,
				"y": 0.3370791933,
				"z": 1.2045018166,
				"element": "C" 
			},
			{
				"x": 2.0792614742,
				"y": 0.2254530723,
				"z": 2.7022979997,
				"element": "C" 
			},
			{
				"x": 2.9230757765,
				"y": 0.9449277095,
				"z": 0.4365995813,
				"element": "C" 
			},
			{
				"x": 1.5311133659,
				"y": -1.008334906,
				"z": 0.5828435921,
				"element": "N" 
			},
			{
				"x": 0.2349376549,
				"y": -2.0343953279,
				"z": 0.9404455852,
				"element": "S" 
			},
			{
				"x": 0.7863869392,
				"y": -3.3766039068,
				"z": 0.7128600895,
				"element": "O" 
			},
			{
				"x": -0.4117637032,
				"y": -1.6943891814,
				"z": 2.2163025929,
				"element": "O" 
			},
			{
				"x": -0.9439093579,
				"y": -1.6765949168,
				"z": -0.3439760135,
				"element": "C" 
			},
			{
				"x": -2.2470043181,
				"y": -1.2907658719,
				"z": -0.0217183519,
				"element": "C" 
			},
			{
				"x": -3.1876061482,
				"y": -1.0615145777,
				"z": -0.9368647453,
				"element": "N" 
			},
			{
				"x": -2.8623739648,
				"y": -1.2258723238,
				"z": -2.2338184249,
				"element": "C" 
			},
			{
				"x": -3.8835671647,
				"y": -0.9943428443,
				"z": -3.1168278591,
				"element": "N" 
			},
			{
				"x": -3.741740214,
				"y": -0.8917710024,
				"z": -4.5019444219,
				"element": "N" 
			},
			{
				"x": -1.5722659644,
				"y": -1.6236314991,
				"z": -2.6584608218,
				"element": "C" 
			},
			{
				"x": -0.609670437,
				"y": -1.853707021,
				"z": -1.6926653443,
				"element": "C" 
			},
			{
				"x": -0.3676328974,
				"y": 0.8186368309,
				"z": 1.5523979412,
				"element": "H" 
			},
			{
				"x": 0.6891362285,
				"y": 2.2208063975,
				"z": 1.3539230396,
				"element": "H" 
			},
			{
				"x": 0.2239353591,
				"y": 1.2638105933,
				"z": -0.0646777804,
				"element": "H" 
			},
			{
				"x": 1.2581770197,
				"y": -0.233689918,
				"z": 3.2556144663,
				"element": "H" 
			},
			{
				"x": 2.9785373132,
				"y": -0.38393029,
				"z": 2.8486064924,
				"element": "H" 
			},
			{
				"x": 2.2765574411,
				"y": 1.2174540786,
				"z": 3.1229132689,
				"element": "H" 
			},
			{
				"x": 3.1560595694,
				"y": 1.9390365735,
				"z": 0.8305346752,
				"element": "H" 
			},
			{
				"x": 2.6940663391,
				"y": 1.0349182445,
				"z": -0.6290200224,
				"element": "H" 
			},
			{
				"x": 3.8223853511,
				"y": 0.3271599577,
				"z": 0.5439000698,
				"element": "H" 
			},
			{
				"x": 2.3624571594,
				"y": -1.5930097083,
				"z": 0.6436691156,
				"element": "H" 
			},
			{
				"x": -2.5296501128,
				"y": -1.1611530776,
				"z": 1.0194441043,
				"element": "H" 
			},
			{
				"x": -4.727248691,
				"y": -0.5976099359,
				"z": -2.7275120899,
				"element": "H" 
			},
			{
				"x": -2.9763092124,
				"y": -0.2633787458,
				"z": -4.7433551543,
				"element": "H" 
			},
			{
				"x": -3.5503985795,
				"y": -1.8072823593,
				"z": -4.9023442734,
				"element": "H" 
			},
			{
				"x": -1.3489137103,
				"y": -1.7554005551,
				"z": -3.710522157,
				"element": "H" 
			},
			{
				"x": 0.3916078998,
				"y": -2.164639538,
				"z": -1.9721953875,
				"element": "H" 
			}
		],
		 "valence_orbital": [ 
			{
				"type": "occ",
				"energy": -0.29487,
				"method": "rhf"
			},
			{
				"type": "occ",
				"energy": -0.28746,
				"method": "rhf"
			},
			{
				"type": "occ",
				"energy": -0.26941,
				"method": "rhf"
			},
			{
				"type": "occ",
				"energy": -0.26398,
				"method": "rhf"
			},
			{
				"type": "occ",
				"energy": -0.22671,
				"method": "rhf"
			},
			{
				"type": "unocc",
				"energy": -0.03592,
				"method": "rhf"
			},
			{
				"type": "unocc",
				"energy": -0.02153,
				"method": "rhf"
			},
			{
				"type": "unocc",
				"energy": 0.05641,
				"method": "rhf"
			},
			{
				"type": "unocc",
				"energy": 0.0618,
				"method": "rhf"
			},
			{
				"type": "unocc",
				"energy": 0.07481,
				"method": "rhf"
			}
		],
		"cosmo_sigma_profile": { 
			"-0.025": 0.0,
			"-0.024": 0.0,
			"-0.023": 0.0,
			"-0.022": 0.0,
			"-0.021": 0.0,
			"-0.02": 0.0,
			"-0.019": 0.0,
			"-0.018": 0.0,
			"-0.017": 0.0,
			"-0.016": 0.0,
			"-0.015": 0.0,
			"-0.014": 0.0769038844488,
			"-0.013": 1.31679156318,
			"-0.012": 2.79630004883,
			"-0.011": 5.63239826067,
			"-0.01": 6.84735434951,
			"-0.009": 5.86910232211,
			"-0.008": 6.21041051012,
			"-0.007": 6.93295238438,
			"-0.006": 8.41247188741,
			"-0.005": 7.53755989542,
			"-0.004": 15.674885194,
			"-0.003": 19.6360556771,
			"-0.002": 22.7531507162,
			"-0.001": 26.8247775846,
			"0.0": 33.3633513276,
			"0.001": 27.9415371639,
			"0.002": 13.9175724712,
			"0.003": 9.3752315561,
			"0.004": 8.44949901031,
			"0.005": 6.46345763271,
			"0.006": 5.71138092901,
			"0.007": 6.31046888713,
			"0.008": 4.15875380359,
			"0.009": 3.25646967315,
			"0.01": 6.06464525242,
			"0.011": 10.1380344178,
			"0.012": 7.71835740648,
			"0.013": 1.29766053239,
			"0.014": 1.53146405056,
			"0.015": 0.455421548079,
			"0.016": 0.490381560703,
			"0.017": 0.0,
			"0.018": 0.0,
			"0.019": 0.0,
			"0.02": 0.0,
			"0.021": 0.0,
			"0.022": 0.0,
			"0.023": 0.0,
			"0.024": 0.0,
			"0.025": 0.0
		}
	}
}
