{
	 "smiles": "CCCCCCCCC(=O)NCC1=CC=C(O)C(OC)=C1", 
	 "Tm": 330.15, 
	 "num_atms": 48, 
	 "gaussian": { 
		 "optdone": 1, 
		 "sigma_profile": "yes", 
		 "theory": "DFT", 
		 "functional": "B3LYP", 
		 "basiset": "6-31G**", 
		 "properties": { 
			 "R2extent": 12000.2607, 
			 "electric_dipole_moment_norm": 1.54861348632, 
			 "electric_quadrupole_moment_norm": 17.0797688061, 
			 "total_energy": -944.524837004, 
			 "HOMO_LUMO_gap": 0.21383, 
			 "cosmo_polarized_energy": -18.05, 
			 "cosmo_cavitation_energy": 49.81, 
			 "cosmo_dispersion_energy": -33.9, 
			 "cosmo_repulsion_energy": 2.74, 
			 "cosmo_total_nonelectrostatic_energy": 18.65, 
			 "SMD_solvation_energy": 8.47 
		},
		"coords": [
			{
				"x": 2.1368531318,
				"y": 1.6591086318,
				"z": -3.3710331702,
				"element": "C" 
			},
			{
				"x": 2.9316956134,
				"y": 2.4570956272,
				"z": -2.3325735281,
				"element": "C" 
			},
			{
				"x": 2.4489680548,
				"y": 2.2300428902,
				"z": -0.8935165696,
				"element": "C" 
			},
			{
				"x": 3.2426493387,
				"y": 3.0394369821,
				"z": 0.1410934037,
				"element": "C" 
			},
			{
				"x": 2.8957426632,
				"y": 2.7794929621,
				"z": 1.6184127633,
				"element": "C" 
			},
			{
				"x": 1.4633220999,
				"y": 3.1731450592,
				"z": 2.049663314,
				"element": "C" 
			},
			{
				"x": 0.3960746228,
				"y": 2.067154454,
				"z": 1.9717250401,
				"element": "C" 
			},
			{
				"x": 0.5720674226,
				"y": 0.961761104,
				"z": 3.0233562036,
				"element": "C" 
			},
			{
				"x": -0.6128052981,
				"y": -0.002130166,
				"z": 3.0355882943,
				"element": "C" 
			},
			{
				"x": -1.7728318584,
				"y": 0.3910726446,
				"z": 2.9405005961,
				"element": "O" 
			},
			{
				"x": -0.2946247272,
				"y": -1.3216915653,
				"z": 3.201425717,
				"element": "N" 
			},
			{
				"x": -1.3121804976,
				"y": -2.3727552786,
				"z": 3.2000002958,
				"element": "C" 
			},
			{
				"x": -1.5095839191,
				"y": -3.0314402227,
				"z": 1.8481627893,
				"element": "C" 
			},
			{
				"x": -2.1423067591,
				"y": -2.3400784894,
				"z": 0.8076377583,
				"element": "C" 
			},
			{
				"x": -2.3002389652,
				"y": -2.9390906308,
				"z": -0.4406155087,
				"element": "C" 
			},
			{
				"x": -1.8330145079,
				"y": -4.2348742341,
				"z": -0.6794597755,
				"element": "C" 
			},
			{
				"x": -1.9450341374,
				"y": -4.8483222763,
				"z": -1.8986082378,
				"element": "O" 
			},
			{
				"x": -1.2119233509,
				"y": -4.9470066326,
				"z": 0.3638978086,
				"element": "C" 
			},
			{
				"x": -0.6865400761,
				"y": -6.2030004213,
				"z": 0.1820151306,
				"element": "O" 
			},
			{
				"x": -1.6215436891,
				"y": -7.2389441163,
				"z": -0.1304449852,
				"element": "C" 
			},
			{
				"x": -1.059085072,
				"y": -4.3337933383,
				"z": 1.6081398521,
				"element": "C" 
			},
			{
				"x": 1.0748049882,
				"y": 1.9294169347,
				"z": -3.3504406939,
				"element": "H" 
			},
			{
				"x": 2.5062341135,
				"y": 1.8413939123,
				"z": -4.385626358,
				"element": "H" 
			},
			{
				"x": 2.2059133664,
				"y": 0.5818664139,
				"z": -3.1807106599,
				"element": "H" 
			},
			{
				"x": 2.8707550009,
				"y": 3.528323252,
				"z": -2.5688554812,
				"element": "H" 
			},
			{
				"x": 3.9956935133,
				"y": 2.1924606808,
				"z": -2.4025282781,
				"element": "H" 
			},
			{
				"x": 2.5198077666,
				"y": 1.1589141312,
				"z": -0.6538120527,
				"element": "H" 
			},
			{
				"x": 1.3832199624,
				"y": 2.4863680042,
				"z": -0.8334225441,
				"element": "H" 
			},
			{
				"x": 3.1136654299,
				"y": 4.1111353389,
				"z": -0.0689419953,
				"element": "H" 
			},
			{
				"x": 4.3127564337,
				"y": 2.8334142282,
				"z": -0.001674374,
				"element": "H" 
			},
			{
				"x": 3.0828917062,
				"y": 1.7223706679,
				"z": 1.8525907788,
				"element": "H" 
			},
			{
				"x": 3.6124829372,
				"y": 3.3445973185,
				"z": 2.227155573,
				"element": "H" 
			},
			{
				"x": 1.1338356674,
				"y": 4.0266463382,
				"z": 1.4420733713,
				"element": "H" 
			},
			{
				"x": 1.4894912536,
				"y": 3.5416358623,
				"z": 3.0840574864,
				"element": "H" 
			},
			{
				"x": 0.3836545361,
				"y": 1.614153269,
				"z": 0.9737639694,
				"element": "H" 
			},
			{
				"x": -0.5969589017,
				"y": 2.5021887918,
				"z": 2.122240528,
				"element": "H" 
			},
			{
				"x": 1.5142296575,
				"y": 0.418895477,
				"z": 2.8818944596,
				"element": "H" 
			},
			{
				"x": 0.6218356731,
				"y": 1.417555762,
				"z": 4.0220210955,
				"element": "H" 
			},
			{
				"x": 0.6727343041,
				"y": -1.5981530541,
				"z": 3.1218402069,
				"element": "H" 
			},
			{
				"x": -2.2360666609,
				"y": -1.8911767674,
				"z": 3.5287142567,
				"element": "H" 
			},
			{
				"x": -1.0345751112,
				"y": -3.1235574817,
				"z": 3.9473725148,
				"element": "H" 
			},
			{
				"x": -2.5039226332,
				"y": -1.3307663973,
				"z": 0.9792253091,
				"element": "H" 
			},
			{
				"x": -2.7880877639,
				"y": -2.3945036988,
				"z": -1.2474405535,
				"element": "H" 
			},
			{
				"x": -2.3829295103,
				"y": -4.2427979093,
				"z": -2.5106853724,
				"element": "H" 
			},
			{
				"x": -2.1120959645,
				"y": -7.0641536329,
				"z": -1.0920894713,
				"element": "H" 
			},
			{
				"x": -2.3814486782,
				"y": -7.3304336941,
				"z": 0.6567711177,
				"element": "H" 
			},
			{
				"x": -1.0425777492,
				"y": -8.1636562999,
				"z": -0.1783855243,
				"element": "H" 
			},
			{
				"x": -0.5693034263,
				"y": -4.9089204308,
				"z": 2.3895254998,
				"element": "H" 
			}
		],
		 "valence_orbital": [ 
			{
				"type": "occ",
				"energy": -0.27545,
				"method": "rhf"
			},
			{
				"type": "occ",
				"energy": -0.25331,
				"method": "rhf"
			},
			{
				"type": "occ",
				"energy": -0.24278,
				"method": "rhf"
			},
			{
				"type": "occ",
				"energy": -0.23812,
				"method": "rhf"
			},
			{
				"type": "occ",
				"energy": -0.21153,
				"method": "rhf"
			},
			{
				"type": "unocc",
				"energy": 0.0023,
				"method": "rhf"
			},
			{
				"type": "unocc",
				"energy": 0.00683,
				"method": "rhf"
			},
			{
				"type": "unocc",
				"energy": 0.03375,
				"method": "rhf"
			},
			{
				"type": "unocc",
				"energy": 0.06434,
				"method": "rhf"
			},
			{
				"type": "unocc",
				"energy": 0.07558,
				"method": "rhf"
			}
		],
		"cosmo_sigma_profile": { 
			"-0.025": 0.0,
			"-0.024": 0.0,
			"-0.023": 0.0,
			"-0.022": 0.0,
			"-0.021": 0.0,
			"-0.02": 0.0,
			"-0.019": 0.0,
			"-0.018": 0.585416866181,
			"-0.017": 1.01037459222,
			"-0.016": 1.15153313409,
			"-0.015": 1.10814960489,
			"-0.014": 1.45354330298,
			"-0.013": 1.91375395276,
			"-0.012": 2.27496698527,
			"-0.011": 2.07893021196,
			"-0.01": 2.63133936695,
			"-0.009": 2.97118664434,
			"-0.008": 1.96863611892,
			"-0.007": 2.91129405295,
			"-0.006": 7.81530692266,
			"-0.005": 12.5575532509,
			"-0.004": 16.8641880423,
			"-0.003": 22.7899596042,
			"-0.002": 44.7955722066,
			"-0.001": 56.1496897743,
			"0.0": 53.6569600422,
			"0.001": 44.9764434071,
			"0.002": 25.1737056063,
			"0.003": 13.5137159185,
			"0.004": 13.9756135042,
			"0.005": 13.5631784202,
			"0.006": 8.48527733194,
			"0.007": 3.84846251508,
			"0.008": 3.77544656282,
			"0.009": 4.40360708539,
			"0.01": 4.58300303387,
			"0.011": 3.8908244595,
			"0.012": 3.03656751248,
			"0.013": 2.39950051671,
			"0.014": 3.8384552752,
			"0.015": 1.36294874918,
			"0.016": 0.0,
			"0.017": 0.0,
			"0.018": 0.0,
			"0.019": 0.0,
			"0.02": 0.0,
			"0.021": 0.0,
			"0.022": 0.0,
			"0.023": 0.0,
			"0.024": 0.0,
			"0.025": 0.0
		}
	}
}
