{
	 "smiles": "OC(=O)C1=CC=C(CCl)C=C1", 
	 "Tm": 474.15, 
	 "num_atms": 18, 
	 "gaussian": { 
		 "optdone": 1, 
		 "sigma_profile": "yes", 
		 "theory": "DFT", 
		 "functional": "B3LYP", 
		 "basiset": "6-31G**", 
		 "properties": { 
			 "R2extent": 2855.55, 
			 "electric_dipole_moment_norm": 3.55147214687, 
			 "electric_quadrupole_moment_norm": 21.0046382797, 
			 "total_energy": -919.723289068, 
			 "HOMO_LUMO_gap": 0.20204, 
			 "cosmo_polarized_energy": -16.17, 
			 "cosmo_cavitation_energy": 24.53, 
			 "cosmo_dispersion_energy": -18.0, 
			 "cosmo_repulsion_energy": 1.46, 
			 "cosmo_total_nonelectrostatic_energy": 7.98, 
			 "SMD_solvation_energy": 5.0 
		},
		"coords": [
			{
				"x": 4.0138838215,
				"y": -0.7728046105,
				"z": 1.1506100046,
				"element": "O" 
			},
			{
				"x": 2.7831401337,
				"y": -0.9763103126,
				"z": 1.6919159271,
				"element": "C" 
			},
			{
				"x": 2.6792892766,
				"y": -1.4423943686,
				"z": 2.8016679411,
				"element": "O" 
			},
			{
				"x": 1.6028184812,
				"y": -0.5954984261,
				"z": 0.8475628989,
				"element": "C" 
			},
			{
				"x": 0.3654055832,
				"y": -1.1741633545,
				"z": 1.1596295782,
				"element": "C" 
			},
			{
				"x": -0.7655430991,
				"y": -0.8542964166,
				"z": 0.4168252167,
				"element": "C" 
			},
			{
				"x": -0.690747652,
				"y": 0.0656080793,
				"z": -0.6388188921,
				"element": "C" 
			},
			{
				"x": -1.9140189873,
				"y": 0.4142448051,
				"z": -1.434661492,
				"element": "C" 
			},
			{
				"x": -2.1043344428,
				"y": -0.6603505946,
				"z": -2.9078286816,
				"element": "Cl" 
			},
			{
				"x": 0.5421221027,
				"y": 0.6606066959,
				"z": -0.9341338003,
				"element": "C" 
			},
			{
				"x": 1.6794533135,
				"y": 0.3331113853,
				"z": -0.2001812023,
				"element": "C" 
			},
			{
				"x": 3.9359848007,
				"y": -0.561780584,
				"z": 0.209951987,
				"element": "H" 
			},
			{
				"x": 0.3149267477,
				"y": -1.8711979586,
				"z": 1.9889794399,
				"element": "H" 
			},
			{
				"x": -1.7180903426,
				"y": -1.3188519192,
				"z": 0.6565797176,
				"element": "H" 
			},
			{
				"x": -2.8277962381,
				"y": 0.2820032195,
				"z": -0.8553740317,
				"element": "H" 
			},
			{
				"x": -1.8736724259,
				"y": 1.433220623,
				"z": -1.8199508092,
				"element": "H" 
			},
			{
				"x": 0.6102176024,
				"y": 1.3865246926,
				"z": -1.7395816446,
				"element": "H" 
			},
			{
				"x": 2.6136613245,
				"y": 0.8412290446,
				"z": -0.4266921573,
				"element": "H" 
			}
		],
		 "valence_orbital": [ 
			{
				"type": "occ",
				"energy": -0.3081,
				"method": "rhf"
			},
			{
				"type": "occ",
				"energy": -0.30509,
				"method": "rhf"
			},
			{
				"type": "occ",
				"energy": -0.283,
				"method": "rhf"
			},
			{
				"type": "occ",
				"energy": -0.28015,
				"method": "rhf"
			},
			{
				"type": "occ",
				"energy": -0.26956,
				"method": "rhf"
			},
			{
				"type": "unocc",
				"energy": -0.06752,
				"method": "rhf"
			},
			{
				"type": "unocc",
				"energy": -0.03172,
				"method": "rhf"
			},
			{
				"type": "unocc",
				"energy": 0.00819,
				"method": "rhf"
			},
			{
				"type": "unocc",
				"energy": 0.05003,
				"method": "rhf"
			},
			{
				"type": "unocc",
				"energy": 0.058,
				"method": "rhf"
			}
		],
		"cosmo_sigma_profile": { 
			"-0.025": 0.0,
			"-0.024": 0.0,
			"-0.023": 0.0,
			"-0.022": 0.0,
			"-0.021": 0.0,
			"-0.02": 0.0,
			"-0.019": 0.300708332855,
			"-0.018": 0.76714824055,
			"-0.017": 1.14374263589,
			"-0.016": 0.817532876391,
			"-0.015": 1.00454496382,
			"-0.014": 0.561284244836,
			"-0.013": 1.57336914492,
			"-0.012": 1.23294520893,
			"-0.011": 1.42681113861,
			"-0.01": 0.499660722789,
			"-0.009": 1.8207709393,
			"-0.008": 8.078169969,
			"-0.007": 12.2787136768,
			"-0.006": 11.6090304673,
			"-0.005": 10.9075812104,
			"-0.004": 10.0457138055,
			"-0.003": 8.70148859998,
			"-0.002": 8.80647575872,
			"-0.001": 8.72606939873,
			"0.0": 9.49835404836,
			"0.001": 10.1819047434,
			"0.002": 16.7041374934,
			"0.003": 14.4637299949,
			"0.004": 8.2743204312,
			"0.005": 7.78211453465,
			"0.006": 12.3987876972,
			"0.007": 6.59125767728,
			"0.008": 2.69224558769,
			"0.009": 3.484093549,
			"0.01": 4.56014581636,
			"0.011": 5.6274782898,
			"0.012": 4.34731386582,
			"0.013": 1.38268164922,
			"0.014": 0.0323428604016,
			"0.015": 0.0,
			"0.016": 0.0,
			"0.017": 0.0,
			"0.018": 0.0,
			"0.019": 0.0,
			"0.02": 0.0,
			"0.021": 0.0,
			"0.022": 0.0,
			"0.023": 0.0,
			"0.024": 0.0,
			"0.025": 0.0
		}
	}
}
