{
	 "smiles": "C1=CC=C(C=C1)N1N=C2C=CC=CC2=N1", 
	 "Tm": 380.15, 
	 "num_atms": 24, 
	 "gaussian": { 
		 "optdone": 1, 
		 "sigma_profile": "yes", 
		 "theory": "DFT", 
		 "functional": "B3LYP", 
		 "basiset": "6-31G**", 
		 "properties": { 
			 "R2extent": 4420.6593, 
			 "electric_dipole_moment_norm": 0.354935867447, 
			 "electric_quadrupole_moment_norm": 13.1588652262, 
			 "total_energy": -626.92603602, 
			 "HOMO_LUMO_gap": 0.16443, 
			 "cosmo_polarized_energy": -6.71, 
			 "cosmo_cavitation_energy": 28.46, 
			 "cosmo_dispersion_energy": -21.54, 
			 "cosmo_repulsion_energy": 1.64, 
			 "cosmo_total_nonelectrostatic_energy": 8.57, 
			 "SMD_solvation_energy": 2.92 
		},
		"coords": [
			{
				"x": 3.2782011224,
				"y": 0.7093021396,
				"z": 3.2609081863,
				"element": "C" 
			},
			{
				"x": 2.4066964754,
				"y": -0.2381507065,
				"z": 3.802726179,
				"element": "C" 
			},
			{
				"x": 1.1877978416,
				"y": -0.5139428268,
				"z": 3.1866545625,
				"element": "C" 
			},
			{
				"x": 0.8491915968,
				"y": 0.1722947477,
				"z": 2.0166874986,
				"element": "C" 
			},
			{
				"x": 1.7097024286,
				"y": 1.1236474612,
				"z": 1.460954959,
				"element": "C" 
			},
			{
				"x": 2.9242691453,
				"y": 1.3858324988,
				"z": 2.0913806724,
				"element": "C" 
			},
			{
				"x": -0.3958655306,
				"y": -0.1030381596,
				"z": 1.3789786547,
				"element": "N" 
			},
			{
				"x": -1.2467061693,
				"y": -1.0033000834,
				"z": 1.8760709337,
				"element": "N" 
			},
			{
				"x": -2.273082758,
				"y": -0.9643671603,
				"z": 1.0019954749,
				"element": "C" 
			},
			{
				"x": -3.4880593124,
				"y": -1.6893712272,
				"z": 0.9775892762,
				"element": "C" 
			},
			{
				"x": -4.3517784203,
				"y": -1.4244520288,
				"z": -0.0620316194,
				"element": "C" 
			},
			{
				"x": -4.0455191461,
				"y": -0.4638153223,
				"z": -1.0749725429,
				"element": "C" 
			},
			{
				"x": -2.869018425,
				"y": 0.2523111315,
				"z": -1.0698082096,
				"element": "C" 
			},
			{
				"x": -1.9670633635,
				"y": -0.0045012041,
				"z": -0.0101315544,
				"element": "C" 
			},
			{
				"x": -0.758209845,
				"y": 0.5288357995,
				"z": 0.2605160595,
				"element": "N" 
			},
			{
				"x": 4.226393686,
				"y": 0.9189184772,
				"z": 3.7466001557,
				"element": "H" 
			},
			{
				"x": 2.6742182835,
				"y": -0.7685804917,
				"z": 4.7116634328,
				"element": "H" 
			},
			{
				"x": 0.4997195704,
				"y": -1.2449598339,
				"z": 3.5921326721,
				"element": "H" 
			},
			{
				"x": 1.4186029864,
				"y": 1.6382023419,
				"z": 0.5538968567,
				"element": "H" 
			},
			{
				"x": 3.5960681349,
				"y": 2.1239232614,
				"z": 1.6635970653,
				"element": "H" 
			},
			{
				"x": -3.7180455008,
				"y": -2.4178935159,
				"z": 1.7475850928,
				"element": "H" 
			},
			{
				"x": -5.2962743096,
				"y": -1.9571501611,
				"z": -0.1214891062,
				"element": "H" 
			},
			{
				"x": -4.7678882992,
				"y": -0.2997601598,
				"z": -1.8691024177,
				"element": "H" 
			},
			{
				"x": -2.6341501915,
				"y": 0.9819150227,
				"z": -1.837302282,
				"element": "H" 
			}
		],
		 "valence_orbital": [ 
			{
				"type": "occ",
				"energy": -0.29603,
				"method": "rhf"
			},
			{
				"type": "occ",
				"energy": -0.28423,
				"method": "rhf"
			},
			{
				"type": "occ",
				"energy": -0.26088,
				"method": "rhf"
			},
			{
				"type": "occ",
				"energy": -0.2316,
				"method": "rhf"
			},
			{
				"type": "occ",
				"energy": -0.22921,
				"method": "rhf"
			},
			{
				"type": "unocc",
				"energy": -0.06478,
				"method": "rhf"
			},
			{
				"type": "unocc",
				"energy": -0.01063,
				"method": "rhf"
			},
			{
				"type": "unocc",
				"energy": 0.00278,
				"method": "rhf"
			},
			{
				"type": "unocc",
				"energy": 0.02285,
				"method": "rhf"
			},
			{
				"type": "unocc",
				"energy": 0.04078,
				"method": "rhf"
			}
		],
		"cosmo_sigma_profile": { 
			"-0.025": 0.0,
			"-0.024": 0.0,
			"-0.023": 0.0,
			"-0.022": 0.0,
			"-0.021": 0.0,
			"-0.02": 0.0,
			"-0.019": 0.0,
			"-0.018": 0.0,
			"-0.017": 0.0,
			"-0.016": 0.0,
			"-0.015": 0.0,
			"-0.014": 0.0,
			"-0.013": 0.0,
			"-0.012": 0.0,
			"-0.011": 0.0,
			"-0.01": 0.0,
			"-0.009": 0.0,
			"-0.008": 0.0391154996564,
			"-0.007": 4.98799525329,
			"-0.006": 16.5832328438,
			"-0.005": 18.5617152507,
			"-0.004": 18.2797338167,
			"-0.003": 12.565294959,
			"-0.002": 13.5255289353,
			"-0.001": 14.0728786613,
			"0.0": 17.1556128995,
			"0.001": 21.7485826327,
			"0.002": 24.408424605,
			"0.003": 25.9421992128,
			"0.004": 22.4189834009,
			"0.005": 5.66272323734,
			"0.006": 3.71944891398,
			"0.007": 2.10693266406,
			"0.008": 2.54413908287,
			"0.009": 2.8267717884,
			"0.01": 2.21322570789,
			"0.011": 0.780871251962,
			"0.012": 0.0,
			"0.013": 0.0,
			"0.014": 0.0,
			"0.015": 0.0,
			"0.016": 0.0,
			"0.017": 0.0,
			"0.018": 0.0,
			"0.019": 0.0,
			"0.02": 0.0,
			"0.021": 0.0,
			"0.022": 0.0,
			"0.023": 0.0,
			"0.024": 0.0,
			"0.025": 0.0
		}
	}
}
