{
	 "smiles": "CCOC(=O)C(CCC(O)=O)(CCC(O)=O)C(C)=O", 
	 "Tm": 379.15, 
	 "num_atms": 37, 
	 "gaussian": { 
		 "optdone": 1, 
		 "sigma_profile": "yes", 
		 "theory": "DFT", 
		 "functional": "B3LYP", 
		 "basiset": "6-31G**", 
		 "properties": { 
			 "R2extent": 5095.4591, 
			 "electric_dipole_moment_norm": 5.72201820777, 
			 "electric_quadrupole_moment_norm": 17.4859354477, 
			 "total_energy": -994.729711376, 
			 "HOMO_LUMO_gap": 0.22658, 
			 "cosmo_polarized_energy": -23.27, 
			 "cosmo_cavitation_energy": 38.43, 
			 "cosmo_dispersion_energy": -25.54, 
			 "cosmo_repulsion_energy": 1.96, 
			 "cosmo_total_nonelectrostatic_energy": 14.85, 
			 "SMD_solvation_energy": 9.35 
		},
		"coords": [
			{
				"x": -1.0067207059,
				"y": -3.6784038495,
				"z": -1.8125530665,
				"element": "C" 
			},
			{
				"x": -1.5556119257,
				"y": -2.8823712133,
				"z": -0.6390333992,
				"element": "C" 
			},
			{
				"x": -1.0723842385,
				"y": -1.5171062359,
				"z": -0.6710732139,
				"element": "O" 
			},
			{
				"x": 0.1208025078,
				"y": -1.2775324386,
				"z": -0.0940496945,
				"element": "C" 
			},
			{
				"x": 0.7636928218,
				"y": -2.1108007908,
				"z": 0.5079627805,
				"element": "O" 
			},
			{
				"x": 0.5358137966,
				"y": 0.1915353632,
				"z": -0.3028008199,
				"element": "C" 
			},
			{
				"x": 1.981824696,
				"y": 0.4265019928,
				"z": 0.236738743,
				"element": "C" 
			},
			{
				"x": 2.2636698815,
				"y": 0.2181528263,
				"z": 1.7402915015,
				"element": "C" 
			},
			{
				"x": 2.2840913831,
				"y": 1.5162182073,
				"z": 2.5425073576,
				"element": "C" 
			},
			{
				"x": 1.7071118176,
				"y": 1.4795041075,
				"z": 3.7639192696,
				"element": "O" 
			},
			{
				"x": 2.8166520394,
				"y": 2.5271371356,
				"z": 2.1420435126,
				"element": "O" 
			},
			{
				"x": -0.5828545953,
				"y": 1.1534642942,
				"z": 0.1954898863,
				"element": "C" 
			},
			{
				"x": -0.8883438004,
				"y": 1.3003143978,
				"z": 1.7078943353,
				"element": "C" 
			},
			{
				"x": -1.1374234702,
				"y": 0.0448515646,
				"z": 2.5130134097,
				"element": "C" 
			},
			{
				"x": -2.2190300043,
				"y": -0.6407973911,
				"z": 2.1036702769,
				"element": "O" 
			},
			{
				"x": -0.4713748455,
				"y": -0.3255873282,
				"z": 3.4670177721,
				"element": "O" 
			},
			{
				"x": 0.7100436964,
				"y": 0.3407576598,
				"z": -1.851963646,
				"element": "C" 
			},
			{
				"x": 0.5448649461,
				"y": 1.7032689883,
				"z": -2.4976638501,
				"element": "C" 
			},
			{
				"x": 1.040245856,
				"y": -0.6265023664,
				"z": -2.5088102592,
				"element": "O" 
			},
			{
				"x": -1.2650991043,
				"y": -3.2007271553,
				"z": -2.7613882609,
				"element": "H" 
			},
			{
				"x": 0.0808459244,
				"y": -3.7565682088,
				"z": -1.7482624167,
				"element": "H" 
			},
			{
				"x": -1.4295316839,
				"y": -4.6886240244,
				"z": -1.8044964791,
				"element": "H" 
			},
			{
				"x": -2.6429227206,
				"y": -2.7865054676,
				"z": -0.6867529058,
				"element": "H" 
			},
			{
				"x": -1.2703406723,
				"y": -3.3332803957,
				"z": 0.3144798689,
				"element": "H" 
			},
			{
				"x": 2.3040712031,
				"y": 1.4406942037,
				"z": -0.0233813462,
				"element": "H" 
			},
			{
				"x": 2.6157920308,
				"y": -0.2633588744,
				"z": -0.3250479915,
				"element": "H" 
			},
			{
				"x": 3.2819150997,
				"y": -0.1792946856,
				"z": 1.8322940855,
				"element": "H" 
			},
			{
				"x": 1.6113070887,
				"y": -0.5363911044,
				"z": 2.1756971636,
				"element": "H" 
			},
			{
				"x": 1.1291841284,
				"y": 0.6940009117,
				"z": 3.8456909506,
				"element": "H" 
			},
			{
				"x": -0.337255855,
				"y": 2.1648168696,
				"z": -0.139610009,
				"element": "H" 
			},
			{
				"x": -1.5058759236,
				"y": 0.8633228508,
				"z": -0.3135523327,
				"element": "H" 
			},
			{
				"x": -0.1103885244,
				"y": 1.8604986465,
				"z": 2.2213512988,
				"element": "H" 
			},
			{
				"x": -1.8053506992,
				"y": 1.8977216852,
				"z": 1.7797956385,
				"element": "H" 
			},
			{
				"x": -2.2916862223,
				"y": -1.4188455579,
				"z": 2.6834244306,
				"element": "H" 
			},
			{
				"x": 1.0904773202,
				"y": 2.481652912,
				"z": -1.954757844,
				"element": "H" 
			},
			{
				"x": 0.9094133566,
				"y": 1.6433937446,
				"z": -3.5237676936,
				"element": "H" 
			},
			{
				"x": -0.5111246031,
				"y": 1.9950887263,
				"z": -2.5121170529,
				"element": "H" 
			}
		],
		 "valence_orbital": [ 
			{
				"type": "occ",
				"energy": -0.30564,
				"method": "rhf"
			},
			{
				"type": "occ",
				"energy": -0.29813,
				"method": "rhf"
			},
			{
				"type": "occ",
				"energy": -0.28144,
				"method": "rhf"
			},
			{
				"type": "occ",
				"energy": -0.25886,
				"method": "rhf"
			},
			{
				"type": "occ",
				"energy": -0.25851,
				"method": "rhf"
			},
			{
				"type": "unocc",
				"energy": -0.03193,
				"method": "rhf"
			},
			{
				"type": "unocc",
				"energy": -0.03045,
				"method": "rhf"
			},
			{
				"type": "unocc",
				"energy": 0.00485,
				"method": "rhf"
			},
			{
				"type": "unocc",
				"energy": 0.01754,
				"method": "rhf"
			},
			{
				"type": "unocc",
				"energy": 0.0493,
				"method": "rhf"
			}
		],
		"cosmo_sigma_profile": { 
			"-0.025": 0.0,
			"-0.024": 0.0,
			"-0.023": 0.0,
			"-0.022": 0.0,
			"-0.021": 0.0,
			"-0.02": 0.0,
			"-0.019": 0.454554841028,
			"-0.018": 1.0356815651,
			"-0.017": 0.490624622025,
			"-0.016": 0.849599449391,
			"-0.015": 0.64642510791,
			"-0.014": 0.579925662133,
			"-0.013": 0.768783636161,
			"-0.012": 0.999338166876,
			"-0.011": 0.647356674794,
			"-0.01": 0.599274045436,
			"-0.009": 1.50750049816,
			"-0.008": 3.19192546458,
			"-0.007": 13.4390563253,
			"-0.006": 21.505949139,
			"-0.005": 25.8512491511,
			"-0.004": 31.1080295774,
			"-0.003": 24.7902842394,
			"-0.002": 22.0963121652,
			"-0.001": 19.8325831235,
			"0.0": 14.5627328965,
			"0.001": 10.0479462204,
			"0.002": 10.0373752876,
			"0.003": 9.86623664902,
			"0.004": 8.20665607851,
			"0.005": 11.1235257499,
			"0.006": 11.1413177993,
			"0.007": 9.03619722873,
			"0.008": 7.33335412392,
			"0.009": 7.0343936774,
			"0.01": 9.31614169291,
			"0.011": 11.0358360728,
			"0.012": 7.96649320116,
			"0.013": 3.01396954222,
			"0.014": 0.413206132155,
			"0.015": 0.0,
			"0.016": 0.0,
			"0.017": 0.0,
			"0.018": 0.0,
			"0.019": 0.0,
			"0.02": 0.0,
			"0.021": 0.0,
			"0.022": 0.0,
			"0.023": 0.0,
			"0.024": 0.0,
			"0.025": 0.0
		}
	}
}
