{
	 "smiles": "CC1=CC=C(Cl)C=C1NC(N)=S", 
	 "Tm": 433.15, 
	 "num_atms": 21, 
	 "gaussian": { 
		 "optdone": 1, 
		 "sigma_profile": "yes", 
		 "theory": "DFT", 
		 "functional": "B3LYP", 
		 "basiset": "6-31G**", 
		 "properties": { 
			 "R2extent": 3908.0016, 
			 "electric_dipole_moment_norm": 4.57092893622, 
			 "electric_quadrupole_moment_norm": 16.0717181406, 
			 "total_energy": -1278.18436296, 
			 "HOMO_LUMO_gap": 0.17052, 
			 "cosmo_polarized_energy": -16.75, 
			 "cosmo_cavitation_energy": 28.33, 
			 "cosmo_dispersion_energy": -21.07, 
			 "cosmo_repulsion_energy": 1.66, 
			 "cosmo_total_nonelectrostatic_energy": 8.92, 
			 "SMD_solvation_energy": 3.77 
		},
		"coords": [
			{
				"x": -1.8556191224,
				"y": 0.3856154454,
				"z": -0.2894772176,
				"element": "C" 
			},
			{
				"x": -0.75836525,
				"y": -0.519198922,
				"z": -0.7934789201,
				"element": "C" 
			},
			{
				"x": -0.9950653382,
				"y": -1.4355869113,
				"z": -1.8215797856,
				"element": "C" 
			},
			{
				"x": 0.0033275149,
				"y": -2.274744874,
				"z": -2.3173096899,
				"element": "C" 
			},
			{
				"x": 1.270912216,
				"y": -2.2054469354,
				"z": -1.7469623217,
				"element": "C" 
			},
			{
				"x": 2.546315851,
				"y": -3.2645374911,
				"z": -2.3298282882,
				"element": "Cl" 
			},
			{
				"x": 1.5490691875,
				"y": -1.3244987337,
				"z": -0.7046512004,
				"element": "C" 
			},
			{
				"x": 0.5410984586,
				"y": -0.4658147533,
				"z": -0.2409540625,
				"element": "C" 
			},
			{
				"x": 0.7834519236,
				"y": 0.4324558033,
				"z": 0.8248544378,
				"element": "N" 
			},
			{
				"x": 1.88098828,
				"y": 1.2095658425,
				"z": 1.0997572077,
				"element": "C" 
			},
			{
				"x": 2.8853910874,
				"y": 1.2091103595,
				"z": 0.1855217456,
				"element": "N" 
			},
			{
				"x": 1.9517882223,
				"y": 2.1105020698,
				"z": 2.5158269261,
				"element": "S" 
			},
			{
				"x": -2.1643164438,
				"y": 0.128631422,
				"z": 0.7328714814,
				"element": "H" 
			},
			{
				"x": -2.7433813137,
				"y": 0.306904312,
				"z": -0.9211817039,
				"element": "H" 
			},
			{
				"x": -1.5384367773,
				"y": 1.4339175177,
				"z": -0.2750676256,
				"element": "H" 
			},
			{
				"x": -1.9883372395,
				"y": -1.4850454949,
				"z": -2.2592195949,
				"element": "H" 
			},
			{
				"x": -0.1990903344,
				"y": -2.9674158051,
				"z": -3.1259012741,
				"element": "H" 
			},
			{
				"x": 2.5266436552,
				"y": -1.3250617452,
				"z": -0.2385581842,
				"element": "H" 
			},
			{
				"x": 0.0446997824,
				"y": 0.5636732498,
				"z": 1.5020286871,
				"element": "H" 
			},
			{
				"x": 2.7296504892,
				"y": 0.8865334424,
				"z": -0.7594467893,
				"element": "H" 
			},
			{
				"x": 3.6172751511,
				"y": 1.8843422015,
				"z": 0.3414561722,
				"element": "H" 
			}
		],
		 "valence_orbital": [ 
			{
				"type": "occ",
				"energy": -0.30996,
				"method": "rhf"
			},
			{
				"type": "occ",
				"energy": -0.26403,
				"method": "rhf"
			},
			{
				"type": "occ",
				"energy": -0.25087,
				"method": "rhf"
			},
			{
				"type": "occ",
				"energy": -0.2157,
				"method": "rhf"
			},
			{
				"type": "occ",
				"energy": -0.21033,
				"method": "rhf"
			},
			{
				"type": "unocc",
				"energy": -0.03981,
				"method": "rhf"
			},
			{
				"type": "unocc",
				"energy": -0.02858,
				"method": "rhf"
			},
			{
				"type": "unocc",
				"energy": 0.00878,
				"method": "rhf"
			},
			{
				"type": "unocc",
				"energy": 0.01937,
				"method": "rhf"
			},
			{
				"type": "unocc",
				"energy": 0.06021,
				"method": "rhf"
			}
		],
		"cosmo_sigma_profile": { 
			"-0.025": 0.0,
			"-0.024": 0.0,
			"-0.023": 0.0,
			"-0.022": 0.0,
			"-0.021": 0.0,
			"-0.02": 0.0,
			"-0.019": 0.0,
			"-0.018": 0.0,
			"-0.017": 0.0,
			"-0.016": 0.0,
			"-0.015": 0.464478951237,
			"-0.014": 2.12672929538,
			"-0.013": 2.93191229331,
			"-0.012": 3.07521447109,
			"-0.011": 3.26980604243,
			"-0.01": 3.28400419681,
			"-0.009": 3.60463929016,
			"-0.008": 2.4859804281,
			"-0.007": 6.5783875063,
			"-0.006": 11.1970725562,
			"-0.005": 10.9634461953,
			"-0.004": 13.4388974884,
			"-0.003": 12.7823068378,
			"-0.002": 14.2938337032,
			"-0.001": 16.5840788494,
			"0.0": 15.5911057096,
			"0.001": 15.8161477313,
			"0.002": 16.6487526787,
			"0.003": 16.3830481197,
			"0.004": 16.0459273167,
			"0.005": 9.14548909693,
			"0.006": 3.90762406554,
			"0.007": 3.10624530416,
			"0.008": 3.07108852845,
			"0.009": 4.54306672494,
			"0.01": 5.58730548972,
			"0.011": 7.87242317467,
			"0.012": 5.18385010285,
			"0.013": 0.657001811624,
			"0.014": 0.0,
			"0.015": 0.0,
			"0.016": 0.0,
			"0.017": 0.0,
			"0.018": 0.0,
			"0.019": 0.0,
			"0.02": 0.0,
			"0.021": 0.0,
			"0.022": 0.0,
			"0.023": 0.0,
			"0.024": 0.0,
			"0.025": 0.0
		}
	}
}
