{
	 "smiles": "[O-][N+](=O)C1=CC=C(C=C1)C1=NN=C2SC(NN12)C1=CC=CC=C1", 
	 "Tm": 493.15, 
	 "num_atms": 34, 
	 "gaussian": { 
		 "optdone": 1, 
		 "sigma_profile": "yes", 
		 "theory": "DFT", 
		 "functional": "B3LYP", 
		 "basiset": "6-31G**", 
		 "properties": { 
			 "R2extent": 12487.9271, 
			 "electric_dipole_moment_norm": 8.40025494911, 
			 "electric_quadrupole_moment_norm": 36.1730129804, 
			 "total_energy": -1400.45078629, 
			 "HOMO_LUMO_gap": 0.13871, 
			 "cosmo_polarized_energy": -22.12, 
			 "cosmo_cavitation_energy": 41.38, 
			 "cosmo_dispersion_energy": -30.29, 
			 "cosmo_repulsion_energy": 2.21, 
			 "cosmo_total_nonelectrostatic_energy": 13.3, 
			 "SMD_solvation_energy": 6.06 
		},
		"coords": [
			{
				"x": -4.9780447699,
				"y": -4.0775137072,
				"z": 0.1138795673,
				"element": "O" 
			},
			{
				"x": -5.6046359844,
				"y": -3.019573715,
				"z": 0.0446694573,
				"element": "N" 
			},
			{
				"x": -6.8257909929,
				"y": -2.9352570589,
				"z": -0.0844796039,
				"element": "O" 
			},
			{
				"x": -4.8394720116,
				"y": -1.7676021757,
				"z": 0.1223279608,
				"element": "C" 
			},
			{
				"x": -3.4554013209,
				"y": -1.8299952658,
				"z": 0.2654985638,
				"element": "C" 
			},
			{
				"x": -2.7315630798,
				"y": -0.6447280516,
				"z": 0.3430225873,
				"element": "C" 
			},
			{
				"x": -3.3914764487,
				"y": 0.5954233475,
				"z": 0.2770268067,
				"element": "C" 
			},
			{
				"x": -4.7917663949,
				"y": 0.6287237189,
				"z": 0.1279670382,
				"element": "C" 
			},
			{
				"x": -5.5188532187,
				"y": -0.5502743393,
				"z": 0.0500522646,
				"element": "C" 
			},
			{
				"x": -2.6757088874,
				"y": 1.8683503833,
				"z": 0.3464601658,
				"element": "C" 
			},
			{
				"x": -3.2275804464,
				"y": 3.058015921,
				"z": 0.1648272121,
				"element": "N" 
			},
			{
				"x": -2.2593477326,
				"y": 4.0391481115,
				"z": 0.2733889029,
				"element": "N" 
			},
			{
				"x": -1.1387897339,
				"y": 3.4165401321,
				"z": 0.5422545878,
				"element": "C" 
			},
			{
				"x": 0.5390388165,
				"y": 3.8562211786,
				"z": 0.8262812671,
				"element": "S" 
			},
			{
				"x": 0.9518684579,
				"y": 2.0077269398,
				"z": 0.5202033489,
				"element": "C" 
			},
			{
				"x": -0.2351990299,
				"y": 1.2419937998,
				"z": 0.9259246172,
				"element": "N" 
			},
			{
				"x": -1.3338583442,
				"y": 2.0609680451,
				"z": 0.5977680794,
				"element": "N" 
			},
			{
				"x": 2.198045754,
				"y": 1.5399407883,
				"z": 1.2204649275,
				"element": "C" 
			},
			{
				"x": 2.3964248716,
				"y": 1.7663592258,
				"z": 2.5904055338,
				"element": "C" 
			},
			{
				"x": 3.5377680652,
				"y": 1.2778692499,
				"z": 3.2248678352,
				"element": "C" 
			},
			{
				"x": 4.4938461239,
				"y": 0.5653690206,
				"z": 2.4973176158,
				"element": "C" 
			},
			{
				"x": 4.3061307455,
				"y": 0.342908584,
				"z": 1.1323346763,
				"element": "C" 
			},
			{
				"x": 3.1628030999,
				"y": 0.8278632374,
				"z": 0.4969893118,
				"element": "C" 
			},
			{
				"x": -2.9688931571,
				"y": -2.7961148052,
				"z": 0.3117184506,
				"element": "H" 
			},
			{
				"x": -1.652736302,
				"y": -0.6798238425,
				"z": 0.4437261943,
				"element": "H" 
			},
			{
				"x": -5.2873263266,
				"y": 1.5911881268,
				"z": 0.0736078966,
				"element": "H" 
			},
			{
				"x": -6.5956146054,
				"y": -0.5473584765,
				"z": -0.0631422861,
				"element": "H" 
			},
			{
				"x": 1.0507839551,
				"y": 1.9174032927,
				"z": -0.5631898867,
				"element": "H" 
			},
			{
				"x": -0.2277309289,
				"y": 1.1280423537,
				"z": 1.9432132611,
				"element": "H" 
			},
			{
				"x": 1.669831401,
				"y": 2.3451274634,
				"z": 3.1539893906,
				"element": "H" 
			},
			{
				"x": 3.6848394284,
				"y": 1.4616792981,
				"z": 4.2847972999,
				"element": "H" 
			},
			{
				"x": 5.3846460371,
				"y": 0.1902098903,
				"z": 2.9921855744,
				"element": "H" 
			},
			{
				"x": 5.0483686472,
				"y": -0.2064866973,
				"z": 0.5613529401,
				"element": "H" 
			},
			{
				"x": 3.015794313,
				"y": 0.6505560263,
				"z": -0.5649115585,
				"element": "H" 
			}
		],
		 "valence_orbital": [ 
			{
				"type": "occ",
				"energy": -0.2812,
				"method": "rhf"
			},
			{
				"type": "occ",
				"energy": -0.2799,
				"method": "rhf"
			},
			{
				"type": "occ",
				"energy": -0.27898,
				"method": "rhf"
			},
			{
				"type": "occ",
				"energy": -0.2662,
				"method": "rhf"
			},
			{
				"type": "occ",
				"energy": -0.23387,
				"method": "rhf"
			},
			{
				"type": "unocc",
				"energy": -0.09516,
				"method": "rhf"
			},
			{
				"type": "unocc",
				"energy": -0.05338,
				"method": "rhf"
			},
			{
				"type": "unocc",
				"energy": -0.03587,
				"method": "rhf"
			},
			{
				"type": "unocc",
				"energy": -0.02924,
				"method": "rhf"
			},
			{
				"type": "unocc",
				"energy": -0.02809,
				"method": "rhf"
			}
		],
		"cosmo_sigma_profile": { 
			"-0.025": 0.0,
			"-0.024": 0.0,
			"-0.023": 0.0,
			"-0.022": 0.0,
			"-0.021": 0.0,
			"-0.02": 0.0,
			"-0.019": 0.0,
			"-0.018": 0.0,
			"-0.017": 0.0,
			"-0.016": 0.0,
			"-0.015": 0.664232499305,
			"-0.014": 1.35058746645,
			"-0.013": 1.95084300533,
			"-0.012": 1.38143428192,
			"-0.011": 1.80463680127,
			"-0.01": 1.41453809677,
			"-0.009": 3.76855219399,
			"-0.008": 6.38593700325,
			"-0.007": 11.9699160329,
			"-0.006": 21.0598146315,
			"-0.005": 19.7829734398,
			"-0.004": 21.6831851159,
			"-0.003": 20.1287572549,
			"-0.002": 22.7710353995,
			"-0.001": 23.6216012252,
			"0.0": 30.1433662856,
			"0.001": 30.2762487046,
			"0.002": 19.0115449098,
			"0.003": 17.6596108109,
			"0.004": 18.0623605525,
			"0.005": 9.5431136407,
			"0.006": 7.61131579435,
			"0.007": 9.48379054056,
			"0.008": 9.55868847697,
			"0.009": 6.1654141661,
			"0.01": 4.61018475995,
			"0.011": 3.06461330111,
			"0.012": 3.23418135308,
			"0.013": 3.38354276332,
			"0.014": 2.31227424049,
			"0.015": 1.5589007753,
			"0.016": 0.555231161635,
			"0.017": 0.0,
			"0.018": 0.0,
			"0.019": 0.0,
			"0.02": 0.0,
			"0.021": 0.0,
			"0.022": 0.0,
			"0.023": 0.0,
			"0.024": 0.0,
			"0.025": 0.0
		}
	}
}
