{
	 "smiles": "CCOC1=CC=C(C=C1)C1CCCN1", 
	 "Tm": 290.15, 
	 "num_atms": 31, 
	 "gaussian": { 
		 "optdone": 1, 
		 "sigma_profile": "yes", 
		 "theory": "DFT", 
		 "functional": "B3LYP", 
		 "basiset": "6-31G**", 
		 "properties": { 
			 "R2extent": 4447.729, 
			 "electric_dipole_moment_norm": 2.32830869302, 
			 "electric_quadrupole_moment_norm": 10.971350307, 
			 "total_energy": -597.489338829, 
			 "HOMO_LUMO_gap": 0.20919, 
			 "cosmo_polarized_energy": -8.66, 
			 "cosmo_cavitation_energy": 32.46, 
			 "cosmo_dispersion_energy": -23.93, 
			 "cosmo_repulsion_energy": 1.91, 
			 "cosmo_total_nonelectrostatic_energy": 10.44, 
			 "SMD_solvation_energy": 2.52 
		},
		"coords": [
			{
				"x": 5.3187250586,
				"y": 1.4730236941,
				"z": -1.3330743372,
				"element": "C" 
			},
			{
				"x": 4.1444393793,
				"y": 0.6748494169,
				"z": -0.7936055351,
				"element": "C" 
			},
			{
				"x": 2.9498945211,
				"y": 1.3346899849,
				"z": -1.2069530786,
				"element": "O" 
			},
			{
				"x": 1.746254105,
				"y": 0.8013755387,
				"z": -0.8457069369,
				"element": "C" 
			},
			{
				"x": 0.6113063395,
				"y": 1.4954679465,
				"z": -1.2880897409,
				"element": "C" 
			},
			{
				"x": -0.6592683797,
				"y": 1.0304715995,
				"z": -0.9706598891,
				"element": "C" 
			},
			{
				"x": -0.8454811561,
				"y": -0.1284753691,
				"z": -0.2027443455,
				"element": "C" 
			},
			{
				"x": 0.2983192334,
				"y": -0.8079480808,
				"z": 0.2302487621,
				"element": "C" 
			},
			{
				"x": 1.5848657452,
				"y": -0.3610194729,
				"z": -0.0811817516,
				"element": "C" 
			},
			{
				"x": -2.2368008652,
				"y": -0.6382401542,
				"z": 0.1124971931,
				"element": "C" 
			},
			{
				"x": -2.5183030086,
				"y": -0.9569663121,
				"z": 1.628697806,
				"element": "C" 
			},
			{
				"x": -3.1162573711,
				"y": -2.3825654608,
				"z": 1.6335236389,
				"element": "C" 
			},
			{
				"x": -3.5421963899,
				"y": -2.5905208541,
				"z": 0.1651727487,
				"element": "C" 
			},
			{
				"x": -2.5589575387,
				"y": -1.8698073582,
				"z": -0.6514480738,
				"element": "N" 
			},
			{
				"x": 5.2809777527,
				"y": 1.5233076023,
				"z": -2.4248279199,
				"element": "H" 
			},
			{
				"x": 5.3030958598,
				"y": 2.4937708824,
				"z": -0.9409743232,
				"element": "H" 
			},
			{
				"x": 6.2616540706,
				"y": 1.0018561492,
				"z": -1.0389338479,
				"element": "H" 
			},
			{
				"x": 4.1591470346,
				"y": -0.3535488385,
				"z": -1.182394734,
				"element": "H" 
			},
			{
				"x": 4.1816656351,
				"y": 0.618058921,
				"z": 0.3038683472,
				"element": "H" 
			},
			{
				"x": 0.7521055142,
				"y": 2.3938579296,
				"z": -1.8803873363,
				"element": "H" 
			},
			{
				"x": -1.5287461054,
				"y": 1.5767193028,
				"z": -1.3273833314,
				"element": "H" 
			},
			{
				"x": 0.1961806433,
				"y": -1.7089715783,
				"z": 0.8313307761,
				"element": "H" 
			},
			{
				"x": 2.4426202862,
				"y": -0.9176777747,
				"z": 0.2772171444,
				"element": "H" 
			},
			{
				"x": -2.9530369168,
				"y": 0.1296796427,
				"z": -0.2069950373,
				"element": "H" 
			},
			{
				"x": -1.6091186512,
				"y": -0.8912959572,
				"z": 2.2319010751,
				"element": "H" 
			},
			{
				"x": -3.2239118981,
				"y": -0.2273016537,
				"z": 2.0390808208,
				"element": "H" 
			},
			{
				"x": -2.3493334948,
				"y": -3.1196782323,
				"z": 1.9013757394,
				"element": "H" 
			},
			{
				"x": -3.9410703572,
				"y": -2.4990201562,
				"z": 2.3440319131,
				"element": "H" 
			},
			{
				"x": -3.5987072243,
				"y": -3.6409699059,
				"z": -0.1360853225,
				"element": "H" 
			},
			{
				"x": -4.5328972031,
				"y": -2.1471079353,
				"z": -0.0059109382,
				"element": "H" 
			},
			{
				"x": -1.7118646182,
				"y": -2.4308135165,
				"z": -0.7238894853,
				"element": "H" 
			}
		],
		 "valence_orbital": [ 
			{
				"type": "occ",
				"energy": -0.31362,
				"method": "rhf"
			},
			{
				"type": "occ",
				"energy": -0.30538,
				"method": "rhf"
			},
			{
				"type": "occ",
				"energy": -0.24731,
				"method": "rhf"
			},
			{
				"type": "occ",
				"energy": -0.22039,
				"method": "rhf"
			},
			{
				"type": "occ",
				"energy": -0.20946,
				"method": "rhf"
			},
			{
				"type": "unocc",
				"energy": -0.00027,
				"method": "rhf"
			},
			{
				"type": "unocc",
				"energy": 0.01456,
				"method": "rhf"
			},
			{
				"type": "unocc",
				"energy": 0.08017,
				"method": "rhf"
			},
			{
				"type": "unocc",
				"energy": 0.09581,
				"method": "rhf"
			},
			{
				"type": "unocc",
				"energy": 0.09777,
				"method": "rhf"
			}
		],
		"cosmo_sigma_profile": { 
			"-0.025": 0.0,
			"-0.024": 0.0,
			"-0.023": 0.0,
			"-0.022": 0.0,
			"-0.021": 0.0,
			"-0.02": 0.0,
			"-0.019": 0.0,
			"-0.018": 0.0,
			"-0.017": 0.0,
			"-0.016": 0.0,
			"-0.015": 0.0,
			"-0.014": 0.0,
			"-0.013": 0.0,
			"-0.012": 0.0,
			"-0.011": 0.0,
			"-0.01": 0.0,
			"-0.009": 0.348276897924,
			"-0.008": 0.87819326845,
			"-0.007": 1.84789797148,
			"-0.006": 4.88514832607,
			"-0.005": 14.2383509635,
			"-0.004": 23.2413480109,
			"-0.003": 30.5142112751,
			"-0.002": 34.2971054575,
			"-0.001": 29.2466161639,
			"0.0": 25.057428581,
			"0.001": 19.575925173,
			"0.002": 12.0802582593,
			"0.003": 8.91345316071,
			"0.004": 10.7906234162,
			"0.005": 12.5152686622,
			"0.006": 10.2529556902,
			"0.007": 2.336301357,
			"0.008": 2.21011207173,
			"0.009": 2.15175226197,
			"0.01": 2.30745463656,
			"0.011": 1.45455035208,
			"0.012": 0.804294674177,
			"0.013": 0.528792750453,
			"0.014": 0.259057105148,
			"0.015": 0.806901579963,
			"0.016": 0.644480139983,
			"0.017": 0.70920816003,
			"0.018": 0.560759497926,
			"0.019": 0.452956268407,
			"0.02": 0.0211891181366,
			"0.021": 0.0,
			"0.022": 0.0,
			"0.023": 0.0,
			"0.024": 0.0,
			"0.025": 0.0
		}
	}
}
