{
	 "smiles": "CC(=O)C1=CC=C(C=C1)C1CC1Cl", 
	 "Tm": 318.15, 
	 "num_atms": 24, 
	 "gaussian": { 
		 "optdone": 1, 
		 "sigma_profile": "yes", 
		 "theory": "DFT", 
		 "functional": "B3LYP", 
		 "basiset": "6-31G**", 
		 "properties": { 
			 "R2extent": 3953.0919, 
			 "electric_dipole_moment_norm": 4.05057817601, 
			 "electric_quadrupole_moment_norm": 16.0173293757, 
			 "total_energy": -961.191381822, 
			 "HOMO_LUMO_gap": 0.19065, 
			 "cosmo_polarized_energy": -11.2, 
			 "cosmo_cavitation_energy": 29.48, 
			 "cosmo_dispersion_energy": -21.09, 
			 "cosmo_repulsion_energy": 1.68, 
			 "cosmo_total_nonelectrostatic_energy": 10.07, 
			 "SMD_solvation_energy": 5.0 
		},
		"coords": [
			{
				"x": 1.8386071389,
				"y": 3.1270464411,
				"z": 2.5189845192,
				"element": "C" 
			},
			{
				"x": 2.5297276044,
				"y": 1.851210046,
				"z": 2.0664078793,
				"element": "C" 
			},
			{
				"x": 3.6693918432,
				"y": 1.6008667176,
				"z": 2.4298396381,
				"element": "O" 
			},
			{
				"x": 1.7900702977,
				"y": 0.9065948294,
				"z": 1.1680634654,
				"element": "C" 
			},
			{
				"x": 0.4894428165,
				"y": 1.1513496029,
				"z": 0.7078797771,
				"element": "C" 
			},
			{
				"x": -0.1506561028,
				"y": 0.2371922159,
				"z": -0.1286775409,
				"element": "C" 
			},
			{
				"x": 0.4887742944,
				"y": -0.9437365832,
				"z": -0.5212975506,
				"element": "C" 
			},
			{
				"x": 1.7951366035,
				"y": -1.1843332469,
				"z": -0.0616602095,
				"element": "C" 
			},
			{
				"x": 2.4354352769,
				"y": -0.2757559399,
				"z": 0.7694617215,
				"element": "C" 
			},
			{
				"x": -0.1547340322,
				"y": -1.932872819,
				"z": -1.4429554758,
				"element": "C" 
			},
			{
				"x": -1.656151212,
				"y": -2.0989180472,
				"z": -1.5533248877,
				"element": "C" 
			},
			{
				"x": -0.83265635,
				"y": -3.1969346627,
				"z": -0.9527242179,
				"element": "C" 
			},
			{
				"x": -0.9628519159,
				"y": -3.5487693357,
				"z": 0.787107073,
				"element": "Cl" 
			},
			{
				"x": 1.561666467,
				"y": 3.7501241035,
				"z": 1.6613188184,
				"element": "H" 
			},
			{
				"x": 0.9185753911,
				"y": 2.9021949942,
				"z": 3.069693722,
				"element": "H" 
			},
			{
				"x": 2.520194862,
				"y": 3.6823196154,
				"z": 3.1638131562,
				"element": "H" 
			},
			{
				"x": -0.0329753543,
				"y": 2.0585544951,
				"z": 0.9940739984,
				"element": "H" 
			},
			{
				"x": -1.1533822415,
				"y": 0.449899154,
				"z": -0.4859080822,
				"element": "H" 
			},
			{
				"x": 2.3034731199,
				"y": -2.0978952706,
				"z": -0.3580627622,
				"element": "H" 
			},
			{
				"x": 3.4420234556,
				"y": -0.4562445233,
				"z": 1.1315033098,
				"element": "H" 
			},
			{
				"x": 0.4065303867,
				"y": -2.0916158585,
				"z": -2.3635345161,
				"element": "H" 
			},
			{
				"x": -2.2719525826,
				"y": -1.5275215086,
				"z": -0.866453447,
				"element": "H" 
			},
			{
				"x": -2.1025743355,
				"y": -2.2641437719,
				"z": -2.5294595605,
				"element": "H" 
			},
			{
				"x": -0.675615431,
				"y": -4.1123106473,
				"z": -1.5116888281,
				"element": "H" 
			}
		],
		 "valence_orbital": [ 
			{
				"type": "occ",
				"energy": -0.29267,
				"method": "rhf"
			},
			{
				"type": "occ",
				"energy": -0.28229,
				"method": "rhf"
			},
			{
				"type": "occ",
				"energy": -0.26035,
				"method": "rhf"
			},
			{
				"type": "occ",
				"energy": -0.24995,
				"method": "rhf"
			},
			{
				"type": "occ",
				"energy": -0.24629,
				"method": "rhf"
			},
			{
				"type": "unocc",
				"energy": -0.05564,
				"method": "rhf"
			},
			{
				"type": "unocc",
				"energy": -0.01025,
				"method": "rhf"
			},
			{
				"type": "unocc",
				"energy": 0.02505,
				"method": "rhf"
			},
			{
				"type": "unocc",
				"energy": 0.03423,
				"method": "rhf"
			},
			{
				"type": "unocc",
				"energy": 0.08259,
				"method": "rhf"
			}
		],
		"cosmo_sigma_profile": { 
			"-0.025": 0.0,
			"-0.024": 0.0,
			"-0.023": 0.0,
			"-0.022": 0.0,
			"-0.021": 0.0,
			"-0.02": 0.0,
			"-0.019": 0.0,
			"-0.018": 0.0,
			"-0.017": 0.0,
			"-0.016": 0.0,
			"-0.015": 0.0,
			"-0.014": 0.0,
			"-0.013": 0.0,
			"-0.012": 0.0,
			"-0.011": 0.0,
			"-0.01": 0.0,
			"-0.009": 0.0,
			"-0.008": 1.56483942553,
			"-0.007": 6.8700692193,
			"-0.006": 19.9154059334,
			"-0.005": 20.7308242448,
			"-0.004": 18.9299750624,
			"-0.003": 16.0771906391,
			"-0.002": 16.6702083741,
			"-0.001": 17.5489600964,
			"0.0": 16.3935986009,
			"0.001": 14.1016567071,
			"0.002": 16.1479344691,
			"0.003": 15.1021547861,
			"0.004": 15.7630654516,
			"0.005": 12.1172982563,
			"0.006": 12.315584526,
			"0.007": 2.33995028153,
			"0.008": 1.2481810882,
			"0.009": 1.30037567397,
			"0.01": 2.47140392439,
			"0.011": 2.92071481591,
			"0.012": 3.93372096669,
			"0.013": 1.85698201026,
			"0.014": 0.280478938959,
			"0.015": 0.0,
			"0.016": 0.0,
			"0.017": 0.0,
			"0.018": 0.0,
			"0.019": 0.0,
			"0.02": 0.0,
			"0.021": 0.0,
			"0.022": 0.0,
			"0.023": 0.0,
			"0.024": 0.0,
			"0.025": 0.0
		}
	}
}
