{
	 "smiles": "CC1=CC(NC(=O)NC2=C3NCCCC3=CC=C2)=CC=C1", 
	 "Tm": 442.15, 
	 "num_atms": 40, 
	 "gaussian": { 
		 "optdone": 1, 
		 "sigma_profile": "yes", 
		 "theory": "DFT", 
		 "functional": "B3LYP", 
		 "basiset": "6-31G**", 
		 "properties": { 
			 "R2extent": 9866.6881, 
			 "electric_dipole_moment_norm": 4.27647230436, 
			 "electric_quadrupole_moment_norm": 11.3309919425, 
			 "total_energy": -898.784861639, 
			 "HOMO_LUMO_gap": 0.18662, 
			 "cosmo_polarized_energy": -18.82, 
			 "cosmo_cavitation_energy": 42.03, 
			 "cosmo_dispersion_energy": -31.09, 
			 "cosmo_repulsion_energy": 2.37, 
			 "cosmo_total_nonelectrostatic_energy": 13.3, 
			 "SMD_solvation_energy": 6.2 
		},
		"coords": [
			{
				"x": -0.2749311598,
				"y": -6.4487764334,
				"z": 0.8866815983,
				"element": "C" 
			},
			{
				"x": -1.2005165479,
				"y": -5.3468821436,
				"z": 0.4234686436,
				"element": "C" 
			},
			{
				"x": -0.690598212,
				"y": -4.0592921113,
				"z": 0.2117623609,
				"element": "C" 
			},
			{
				"x": -1.5390928862,
				"y": -3.0189812143,
				"z": -0.1914708892,
				"element": "C" 
			},
			{
				"x": -1.1002622576,
				"y": -1.6994235726,
				"z": -0.4264448233,
				"element": "N" 
			},
			{
				"x": 0.1829325056,
				"y": -1.1813579053,
				"z": -0.3052289599,
				"element": "C" 
			},
			{
				"x": 1.1610215382,
				"y": -1.8363805331,
				"z": 0.0275512881,
				"element": "O" 
			},
			{
				"x": 0.2258196195,
				"y": 0.1774773691,
				"z": -0.5879312483,
				"element": "N" 
			},
			{
				"x": 1.3885697868,
				"y": 0.977822557,
				"z": -0.7216328271,
				"element": "C" 
			},
			{
				"x": 1.1964234302,
				"y": 2.3731092893,
				"z": -0.576682081,
				"element": "C" 
			},
			{
				"x": -0.0998492273,
				"y": 2.8335832083,
				"z": -0.2483945864,
				"element": "N" 
			},
			{
				"x": -0.2637879197,
				"y": 4.2529985937,
				"z": 0.0792245365,
				"element": "C" 
			},
			{
				"x": 0.5627775929,
				"y": 5.109206622,
				"z": -0.8775774653,
				"element": "C" 
			},
			{
				"x": 2.0472795469,
				"y": 4.7506417032,
				"z": -0.7382405925,
				"element": "C" 
			},
			{
				"x": 2.2645600997,
				"y": 3.2517447984,
				"z": -0.8275435143,
				"element": "C" 
			},
			{
				"x": 3.5153929758,
				"y": 2.7203246438,
				"z": -1.1590326309,
				"element": "C" 
			},
			{
				"x": 3.7161765332,
				"y": 1.3446398049,
				"z": -1.2347032441,
				"element": "C" 
			},
			{
				"x": 2.6500901484,
				"y": 0.4673875315,
				"z": -1.0314006513,
				"element": "C" 
			},
			{
				"x": -2.9067470844,
				"y": -3.2776730293,
				"z": -0.3843915743,
				"element": "C" 
			},
			{
				"x": -3.4092181395,
				"y": -4.5573752518,
				"z": -0.1763305834,
				"element": "C" 
			},
			{
				"x": -2.5639640254,
				"y": -5.5925342561,
				"z": 0.2251588476,
				"element": "C" 
			},
			{
				"x": -0.6970044916,
				"y": -7.4374148917,
				"z": 0.6841035403,
				"element": "H" 
			},
			{
				"x": -0.0934456339,
				"y": -6.3834110232,
				"z": 1.9667139575,
				"element": "H" 
			},
			{
				"x": 0.699589514,
				"y": -6.385767899,
				"z": 0.3927531089,
				"element": "H" 
			},
			{
				"x": 0.3609301268,
				"y": -3.8529623745,
				"z": 0.3559923468,
				"element": "H" 
			},
			{
				"x": -1.832482,
				"y": -1.063383704,
				"z": -0.706183036,
				"element": "H" 
			},
			{
				"x": -0.6131681643,
				"y": 0.6271336072,
				"z": -0.9332791498,
				"element": "H" 
			},
			{
				"x": -0.5268396979,
				"y": 2.238392569,
				"z": 0.4545619497,
				"element": "H" 
			},
			{
				"x": 0.0507595689,
				"y": 4.4693131859,
				"z": 1.1140846532,
				"element": "H" 
			},
			{
				"x": -1.3289161823,
				"y": 4.4993253759,
				"z": 0.0043323418,
				"element": "H" 
			},
			{
				"x": 0.2259412652,
				"y": 4.9259801687,
				"z": -1.9049436558,
				"element": "H" 
			},
			{
				"x": 0.3957563041,
				"y": 6.1695006564,
				"z": -0.6612535396,
				"element": "H" 
			},
			{
				"x": 2.6378800268,
				"y": 5.2551863949,
				"z": -1.5115993111,
				"element": "H" 
			},
			{
				"x": 2.4211844514,
				"y": 5.1279532839,
				"z": 0.2245848675,
				"element": "H" 
			},
			{
				"x": 4.3407370281,
				"y": 3.4025117711,
				"z": -1.3489390957,
				"element": "H" 
			},
			{
				"x": 4.697231652,
				"y": 0.9476575145,
				"z": -1.4768336364,
				"element": "H" 
			},
			{
				"x": 2.782322018,
				"y": -0.6035022985,
				"z": -1.1030441847,
				"element": "H" 
			},
			{
				"x": -3.5711109608,
				"y": -2.4762188589,
				"z": -0.701351802,
				"element": "H" 
			},
			{
				"x": -4.4673491976,
				"y": -4.7476609141,
				"z": -0.3326590254,
				"element": "H" 
			},
			{
				"x": -2.9626919441,
				"y": -6.5908922341,
				"z": 0.3830180669,
				"element": "H" 
			}
		],
		 "valence_orbital": [ 
			{
				"type": "occ",
				"energy": -0.26038,
				"method": "rhf"
			},
			{
				"type": "occ",
				"energy": -0.23651,
				"method": "rhf"
			},
			{
				"type": "occ",
				"energy": -0.22258,
				"method": "rhf"
			},
			{
				"type": "occ",
				"energy": -0.20977,
				"method": "rhf"
			},
			{
				"type": "occ",
				"energy": -0.19124,
				"method": "rhf"
			},
			{
				"type": "unocc",
				"energy": -0.00462,
				"method": "rhf"
			},
			{
				"type": "unocc",
				"energy": 0.00553,
				"method": "rhf"
			},
			{
				"type": "unocc",
				"energy": 0.0158,
				"method": "rhf"
			},
			{
				"type": "unocc",
				"energy": 0.02112,
				"method": "rhf"
			},
			{
				"type": "unocc",
				"energy": 0.05016,
				"method": "rhf"
			}
		],
		"cosmo_sigma_profile": { 
			"-0.025": 0.0,
			"-0.024": 0.0,
			"-0.023": 0.0,
			"-0.022": 0.0,
			"-0.021": 0.0,
			"-0.02": 0.0,
			"-0.019": 0.432426196473,
			"-0.018": 0.776723071306,
			"-0.017": 1.19193128723,
			"-0.016": 1.22900588191,
			"-0.015": 1.31897182043,
			"-0.014": 1.1065531429,
			"-0.013": 1.44603963356,
			"-0.012": 2.06949898818,
			"-0.011": 2.9108370707,
			"-0.01": 2.87978480504,
			"-0.009": 2.25839986757,
			"-0.008": 2.17267758519,
			"-0.007": 3.44629265218,
			"-0.006": 4.39864270828,
			"-0.005": 8.97156742688,
			"-0.004": 22.4416142035,
			"-0.003": 36.2902472454,
			"-0.002": 36.1988288937,
			"-0.001": 32.5648681843,
			"0.0": 30.5790881128,
			"0.001": 21.1286643101,
			"0.002": 16.6079487965,
			"0.003": 17.8756624084,
			"0.004": 17.1869647463,
			"0.005": 17.4822635094,
			"0.006": 18.0760099281,
			"0.007": 12.9420827105,
			"0.008": 3.85131692919,
			"0.009": 2.81597060344,
			"0.01": 2.1620249899,
			"0.011": 2.76664548229,
			"0.012": 2.06147900064,
			"0.013": 2.49813559229,
			"0.014": 0.421093662391,
			"0.015": 0.0,
			"0.016": 0.0,
			"0.017": 0.0,
			"0.018": 0.0,
			"0.019": 0.0,
			"0.02": 0.0,
			"0.021": 0.0,
			"0.022": 0.0,
			"0.023": 0.0,
			"0.024": 0.0,
			"0.025": 0.0
		}
	}
}
