{
	 "smiles": "SC1=NN=C(O1)C1=CC=C(Cl)C=C1", 
	 "Tm": 362.15, 
	 "num_atms": 18, 
	 "gaussian": { 
		 "optdone": 1, 
		 "sigma_profile": "yes", 
		 "theory": "DFT", 
		 "functional": "B3LYP", 
		 "basiset": "6-31G**", 
		 "properties": { 
			 "R2extent": 5186.469, 
			 "electric_dipole_moment_norm": 3.47517779401, 
			 "electric_quadrupole_moment_norm": 16.4079741504, 
			 "total_energy": -1350.93308297, 
			 "HOMO_LUMO_gap": 0.17437, 
			 "cosmo_polarized_energy": -11.87, 
			 "cosmo_cavitation_energy": 27.34, 
			 "cosmo_dispersion_energy": -20.98, 
			 "cosmo_repulsion_energy": 1.6, 
			 "cosmo_total_nonelectrostatic_energy": 7.97, 
			 "SMD_solvation_energy": 2.41 
		},
		"coords": [
			{
				"x": 1.5181562315,
				"y": -1.1848989244,
				"z": 4.3540734964,
				"element": "S" 
			},
			{
				"x": 1.6343053148,
				"y": -1.5729134384,
				"z": 2.6457065605,
				"element": "C" 
			},
			{
				"x": 2.5558737205,
				"y": -2.2849563833,
				"z": 2.0782159911,
				"element": "N" 
			},
			{
				"x": 2.229823659,
				"y": -2.3165827389,
				"z": 0.7231002359,
				"element": "N" 
			},
			{
				"x": 1.1408676993,
				"y": -1.6239531752,
				"z": 0.5759356183,
				"element": "C" 
			},
			{
				"x": 0.6953979026,
				"y": -1.1115105176,
				"z": 1.7739960543,
				"element": "O" 
			},
			{
				"x": 0.3912463524,
				"y": -1.3506351808,
				"z": -0.6421264405,
				"element": "C" 
			},
			{
				"x": 0.8527651173,
				"y": -1.877342732,
				"z": -1.860178149,
				"element": "C" 
			},
			{
				"x": 0.157993182,
				"y": -1.6331079068,
				"z": -3.0389362387,
				"element": "C" 
			},
			{
				"x": -1.0039975763,
				"y": -0.8584294144,
				"z": -2.9997801589,
				"element": "C" 
			},
			{
				"x": -1.88287698,
				"y": -0.5484943929,
				"z": -4.4855286934,
				"element": "Cl" 
			},
			{
				"x": -1.4777468824,
				"y": -0.3269974793,
				"z": -1.8001588468,
				"element": "C" 
			},
			{
				"x": -0.7774602679,
				"y": -0.5750750797,
				"z": -0.6224876188,
				"element": "C" 
			},
			{
				"x": 0.3886781875,
				"y": -0.4632560891,
				"z": 4.2228051734,
				"element": "H" 
			},
			{
				"x": 1.7570551718,
				"y": -2.4761229087,
				"z": -1.868182808,
				"element": "H" 
			},
			{
				"x": 0.5096722623,
				"y": -2.0371036409,
				"z": -3.9815046426,
				"element": "H" 
			},
			{
				"x": -2.3814428924,
				"y": 0.2717374445,
				"z": -1.790298016,
				"element": "H" 
			},
			{
				"x": -1.1394102021,
				"y": -0.1653574422,
				"z": 0.3142484827,
				"element": "H" 
			}
		],
		 "valence_orbital": [ 
			{
				"type": "occ",
				"energy": -0.32353,
				"method": "rhf"
			},
			{
				"type": "occ",
				"energy": -0.28782,
				"method": "rhf"
			},
			{
				"type": "occ",
				"energy": -0.28061,
				"method": "rhf"
			},
			{
				"type": "occ",
				"energy": -0.27953,
				"method": "rhf"
			},
			{
				"type": "occ",
				"energy": -0.23747,
				"method": "rhf"
			},
			{
				"type": "unocc",
				"energy": -0.0631,
				"method": "rhf"
			},
			{
				"type": "unocc",
				"energy": -0.02926,
				"method": "rhf"
			},
			{
				"type": "unocc",
				"energy": -0.01045,
				"method": "rhf"
			},
			{
				"type": "unocc",
				"energy": 0.00358,
				"method": "rhf"
			},
			{
				"type": "unocc",
				"energy": 0.0192,
				"method": "rhf"
			}
		],
		"cosmo_sigma_profile": { 
			"-0.025": 0.0,
			"-0.024": 0.0,
			"-0.023": 0.0,
			"-0.022": 0.0,
			"-0.021": 0.0,
			"-0.02": 0.0,
			"-0.019": 0.0,
			"-0.018": 0.0,
			"-0.017": 0.0,
			"-0.016": 0.0,
			"-0.015": 0.0,
			"-0.014": 0.13608643108,
			"-0.013": 2.16034384116,
			"-0.012": 1.4527277887,
			"-0.011": 1.81373413929,
			"-0.01": 1.46115088101,
			"-0.009": 1.30937248071,
			"-0.008": 4.72429444339,
			"-0.007": 7.68991274968,
			"-0.006": 9.75260993722,
			"-0.005": 10.1977978042,
			"-0.004": 10.3482346596,
			"-0.003": 13.8723094186,
			"-0.002": 15.2191115003,
			"-0.001": 17.1225055957,
			"0.0": 20.5517736313,
			"0.001": 28.8918819805,
			"0.002": 24.4659312751,
			"0.003": 12.5227440987,
			"0.004": 14.6486129623,
			"0.005": 5.89403684544,
			"0.006": 2.42825023686,
			"0.007": 2.51656405064,
			"0.008": 2.06742903263,
			"0.009": 2.51404267858,
			"0.01": 2.57142496876,
			"0.011": 3.35022843485,
			"0.012": 2.54244216584,
			"0.013": 2.53252745326,
			"0.014": 1.29823221558,
			"0.015": 0.146348425032,
			"0.016": 0.0,
			"0.017": 0.0,
			"0.018": 0.0,
			"0.019": 0.0,
			"0.02": 0.0,
			"0.021": 0.0,
			"0.022": 0.0,
			"0.023": 0.0,
			"0.024": 0.0,
			"0.025": 0.0
		}
	}
}
