{
	 "smiles": "O=C(C1=CC=CC=C1)C1=CC=C(C=C1)N1CCOCC1", 
	 "Tm": 417.15, 
	 "num_atms": 37, 
	 "gaussian": { 
		 "optdone": 1, 
		 "sigma_profile": "yes", 
		 "theory": "DFT", 
		 "functional": "B3LYP", 
		 "basiset": "6-31G**", 
		 "properties": { 
			 "R2extent": 9224.7828, 
			 "electric_dipole_moment_norm": 3.85074677693, 
			 "electric_quadrupole_moment_norm": 19.7022972554, 
			 "total_energy": -863.232995788, 
			 "HOMO_LUMO_gap": 0.15113, 
			 "cosmo_polarized_energy": -14.97, 
			 "cosmo_cavitation_energy": 39.14, 
			 "cosmo_dispersion_energy": -28.82, 
			 "cosmo_repulsion_energy": 2.18, 
			 "cosmo_total_nonelectrostatic_energy": 12.5, 
			 "SMD_solvation_energy": 5.84 
		},
		"coords": [
			{
				"x": -4.0206991765,
				"y": -0.176442809,
				"z": 0.9238824269,
				"element": "O" 
			},
			{
				"x": -3.0910558762,
				"y": -0.6619970485,
				"z": 0.281401701,
				"element": "C" 
			},
			{
				"x": -3.4002749648,
				"y": -1.4651599258,
				"z": -0.9528338375,
				"element": "C" 
			},
			{
				"x": -4.5566003588,
				"y": -1.1310656369,
				"z": -1.6755105228,
				"element": "C" 
			},
			{
				"x": -4.9267189848,
				"y": -1.8654725985,
				"z": -2.7985354165,
				"element": "C" 
			},
			{
				"x": -4.1607092158,
				"y": -2.9643439198,
				"z": -3.1998072595,
				"element": "C" 
			},
			{
				"x": -3.0256180896,
				"y": -3.3233101709,
				"z": -2.4715404345,
				"element": "C" 
			},
			{
				"x": -2.6427006006,
				"y": -2.5751051067,
				"z": -1.3569070905,
				"element": "C" 
			},
			{
				"x": -1.6848576026,
				"y": -0.4547713197,
				"z": 0.7201029234,
				"element": "C" 
			},
			{
				"x": -0.5700168879,
				"y": -0.5322936121,
				"z": -0.1315491135,
				"element": "C" 
			},
			{
				"x": 0.7128672731,
				"y": -0.2602918064,
				"z": 0.3254248597,
				"element": "C" 
			},
			{
				"x": 0.9445089695,
				"y": 0.0920920705,
				"z": 1.6763394166,
				"element": "C" 
			},
			{
				"x": -0.1824782252,
				"y": 0.1778520178,
				"z": 2.5328366576,
				"element": "C" 
			},
			{
				"x": -1.4565086416,
				"y": -0.0746038684,
				"z": 2.0550370454,
				"element": "C" 
			},
			{
				"x": 2.2185371904,
				"y": 0.3472014113,
				"z": 2.1423471651,
				"element": "N" 
			},
			{
				"x": 3.406524376,
				"y": 0.0113733568,
				"z": 1.3620433322,
				"element": "C" 
			},
			{
				"x": 4.5916245587,
				"y": -0.2212791908,
				"z": 2.2974123093,
				"element": "C" 
			},
			{
				"x": 4.8999007839,
				"y": 0.9053796292,
				"z": 3.1103112754,
				"element": "O" 
			},
			{
				"x": 3.7844939389,
				"y": 1.7388763044,
				"z": 3.4047394646,
				"element": "C" 
			},
			{
				"x": 2.4556665562,
				"y": 0.9860351645,
				"z": 3.4350147468,
				"element": "C" 
			},
			{
				"x": -5.1527988375,
				"y": -0.2916559551,
				"z": -1.3331682412,
				"element": "H" 
			},
			{
				"x": -5.815557295,
				"y": -1.5886444572,
				"z": -3.3584001887,
				"element": "H" 
			},
			{
				"x": -4.4529952158,
				"y": -3.5425994335,
				"z": -4.0718973164,
				"element": "H" 
			},
			{
				"x": -2.4396554671,
				"y": -4.1888745386,
				"z": -2.7674944899,
				"element": "H" 
			},
			{
				"x": -1.7702815868,
				"y": -2.870979693,
				"z": -0.7837079089,
				"element": "H" 
			},
			{
				"x": -0.7069360306,
				"y": -0.7701687197,
				"z": -1.181175347,
				"element": "H" 
			},
			{
				"x": 1.5347759748,
				"y": -0.2859381621,
				"z": -0.3803244398,
				"element": "H" 
			},
			{
				"x": -0.0533626824,
				"y": 0.4206188337,
				"z": 3.5811108862,
				"element": "H" 
			},
			{
				"x": -2.3136037125,
				"y": 0.0056965581,
				"z": 2.7157849082,
				"element": "H" 
			},
			{
				"x": 3.6528148108,
				"y": 0.795837576,
				"z": 0.6289135431,
				"element": "H" 
			},
			{
				"x": 3.2275918068,
				"y": -0.9132406974,
				"z": 0.8028076595,
				"element": "H" 
			},
			{
				"x": 4.3787012301,
				"y": -1.0965703536,
				"z": 2.9305638259,
				"element": "H" 
			},
			{
				"x": 5.4870377606,
				"y": -0.4455028784,
				"z": 1.7083552588,
				"element": "H" 
			},
			{
				"x": 3.7159003108,
				"y": 2.5528739729,
				"z": 2.6665050385,
				"element": "H" 
			},
			{
				"x": 3.9735232437,
				"y": 2.1914364767,
				"z": 4.3836590109,
				"element": "H" 
			},
			{
				"x": 2.4541350954,
				"y": 0.256234023,
				"z": 4.2598627149,
				"element": "H" 
			},
			{
				"x": 1.6599255725,
				"y": 1.7104045071,
				"z": 3.6379954365,
				"element": "H" 
			}
		],
		 "valence_orbital": [ 
			{
				"type": "occ",
				"energy": -0.25425,
				"method": "rhf"
			},
			{
				"type": "occ",
				"energy": -0.25227,
				"method": "rhf"
			},
			{
				"type": "occ",
				"energy": -0.25129,
				"method": "rhf"
			},
			{
				"type": "occ",
				"energy": -0.23326,
				"method": "rhf"
			},
			{
				"type": "occ",
				"energy": -0.20051,
				"method": "rhf"
			},
			{
				"type": "unocc",
				"energy": -0.04938,
				"method": "rhf"
			},
			{
				"type": "unocc",
				"energy": -0.00698,
				"method": "rhf"
			},
			{
				"type": "unocc",
				"energy": 0.0012,
				"method": "rhf"
			},
			{
				"type": "unocc",
				"energy": 0.00204,
				"method": "rhf"
			},
			{
				"type": "unocc",
				"energy": 0.06937,
				"method": "rhf"
			}
		],
		"cosmo_sigma_profile": { 
			"-0.025": 0.0,
			"-0.024": 0.0,
			"-0.023": 0.0,
			"-0.022": 0.0,
			"-0.021": 0.0,
			"-0.02": 0.0,
			"-0.019": 0.0,
			"-0.018": 0.0,
			"-0.017": 0.0,
			"-0.016": 0.0,
			"-0.015": 0.0,
			"-0.014": 0.0,
			"-0.013": 0.0,
			"-0.012": 0.0,
			"-0.011": 0.0,
			"-0.01": 0.0,
			"-0.009": 0.0,
			"-0.008": 0.0,
			"-0.007": 1.30674448944,
			"-0.006": 17.7023662441,
			"-0.005": 31.7304861452,
			"-0.004": 44.8735436592,
			"-0.003": 31.75627883,
			"-0.002": 21.8237681309,
			"-0.001": 19.3588557572,
			"0.0": 17.1374259345,
			"0.001": 16.4182885408,
			"0.002": 16.7313216166,
			"0.003": 18.6515759551,
			"0.004": 20.7053399098,
			"0.005": 21.0440053703,
			"0.006": 4.70550529713,
			"0.007": 2.9749487617,
			"0.008": 2.89717204356,
			"0.009": 2.8609053166,
			"0.01": 3.59139189505,
			"0.011": 2.74591059844,
			"0.012": 4.69896744227,
			"0.013": 6.04401782333,
			"0.014": 1.16454677286,
			"0.015": 0.0,
			"0.016": 0.0,
			"0.017": 0.0,
			"0.018": 0.0,
			"0.019": 0.0,
			"0.02": 0.0,
			"0.021": 0.0,
			"0.022": 0.0,
			"0.023": 0.0,
			"0.024": 0.0,
			"0.025": 0.0
		}
	}
}
