{
	 "smiles": "OC(=O)CCNC(=O)C1=CC2=C(NN=C2)C=C1", 
	 "Tm": 514.15, 
	 "num_atms": 28, 
	 "gaussian": { 
		 "optdone": 1, 
		 "sigma_profile": "yes", 
		 "theory": "DFT", 
		 "functional": "B3LYP", 
		 "basiset": "6-31G**", 
		 "properties": { 
			 "R2extent": 6036.5474, 
			 "electric_dipole_moment_norm": 5.83015602193, 
			 "electric_quadrupole_moment_norm": 17.9955794058, 
			 "total_energy": -815.743505798, 
			 "HOMO_LUMO_gap": 0.18852, 
			 "cosmo_polarized_energy": -25.67, 
			 "cosmo_cavitation_energy": 33.16, 
			 "cosmo_dispersion_energy": -23.65, 
			 "cosmo_repulsion_energy": 1.84, 
			 "cosmo_total_nonelectrostatic_energy": 11.34, 
			 "SMD_solvation_energy": 5.75 
		},
		"coords": [
			{
				"x": -3.4553007881,
				"y": -1.0896074345,
				"z": -1.0597663181,
				"element": "O" 
			},
			{
				"x": -3.4312690482,
				"y": -0.1528752455,
				"z": -2.0394065767,
				"element": "C" 
			},
			{
				"x": -4.1247366155,
				"y": 0.8385199594,
				"z": -2.0171269082,
				"element": "O" 
			},
			{
				"x": -2.4353753227,
				"y": -0.4967142094,
				"z": -3.1269032736,
				"element": "C" 
			},
			{
				"x": -1.001688992,
				"y": -0.0240827932,
				"z": -2.7845213055,
				"element": "C" 
			},
			{
				"x": -0.3783407416,
				"y": -0.7566462728,
				"z": -1.6983066129,
				"element": "N" 
			},
			{
				"x": -0.3640909924,
				"y": -0.2760719852,
				"z": -0.4134549161,
				"element": "C" 
			},
			{
				"x": -0.8297601256,
				"y": 0.8251003523,
				"z": -0.1299952054,
				"element": "O" 
			},
			{
				"x": 0.2814907871,
				"y": -1.1522693622,
				"z": 0.6211553524,
				"element": "C" 
			},
			{
				"x": 0.7393199761,
				"y": -0.5257832081,
				"z": 1.7764934157,
				"element": "C" 
			},
			{
				"x": 1.3570469015,
				"y": -1.2989207434,
				"z": 2.7690412638,
				"element": "C" 
			},
			{
				"x": 1.487572404,
				"y": -2.7012807591,
				"z": 2.5893124964,
				"element": "C" 
			},
			{
				"x": 2.1160493536,
				"y": -3.1586377743,
				"z": 3.7116038473,
				"element": "N" 
			},
			{
				"x": 2.3999245406,
				"y": -2.1636313175,
				"z": 4.5982259006,
				"element": "N" 
			},
			{
				"x": 1.9522802942,
				"y": -1.0514557291,
				"z": 4.0469205715,
				"element": "C" 
			},
			{
				"x": 1.0061056362,
				"y": -3.3509417459,
				"z": 1.4413050453,
				"element": "C" 
			},
			{
				"x": 0.4102621483,
				"y": -2.5598622989,
				"z": 0.4731884703,
				"element": "C" 
			},
			{
				"x": -4.0572331347,
				"y": -0.7469135506,
				"z": -0.3773668429,
				"element": "H" 
			},
			{
				"x": -2.7626531287,
				"y": 0.0124003461,
				"z": -4.0371120216,
				"element": "H" 
			},
			{
				"x": -2.4369742537,
				"y": -1.5769111781,
				"z": -3.3040434962,
				"element": "H" 
			},
			{
				"x": -0.3798778814,
				"y": -0.1239876017,
				"z": -3.6802144799,
				"element": "H" 
			},
			{
				"x": -1.0217701557,
				"y": 1.0293337548,
				"z": -2.4964174754,
				"element": "H" 
			},
			{
				"x": 0.0857933763,
				"y": -1.6262980533,
				"z": -1.9055811122,
				"element": "H" 
			},
			{
				"x": 0.6037222814,
				"y": 0.5456437413,
				"z": 1.8783710317,
				"element": "H" 
			},
			{
				"x": 2.376335381,
				"y": -4.1034389325,
				"z": 3.944103952,
				"element": "H" 
			},
			{
				"x": 2.0630570113,
				"y": -0.1097755153,
				"z": 4.5675459783,
				"element": "H" 
			},
			{
				"x": 1.0811110791,
				"y": -4.4268591966,
				"z": 1.318852035,
				"element": "H" 
			},
			{
				"x": -0.0083999905,
				"y": -3.0481332468,
				"z": -0.4020028156,
				"element": "H" 
			}
		],
		 "valence_orbital": [ 
			{
				"type": "occ",
				"energy": -0.26919,
				"method": "rhf"
			},
			{
				"type": "occ",
				"energy": -0.25646,
				"method": "rhf"
			},
			{
				"type": "occ",
				"energy": -0.25347,
				"method": "rhf"
			},
			{
				"type": "occ",
				"energy": -0.24886,
				"method": "rhf"
			},
			{
				"type": "occ",
				"energy": -0.22931,
				"method": "rhf"
			},
			{
				"type": "unocc",
				"energy": -0.04079,
				"method": "rhf"
			},
			{
				"type": "unocc",
				"energy": -0.02175,
				"method": "rhf"
			},
			{
				"type": "unocc",
				"energy": 0.01136,
				"method": "rhf"
			},
			{
				"type": "unocc",
				"energy": 0.04602,
				"method": "rhf"
			},
			{
				"type": "unocc",
				"energy": 0.06857,
				"method": "rhf"
			}
		],
		"cosmo_sigma_profile": { 
			"-0.025": 0.0,
			"-0.024": 0.0,
			"-0.023": 0.0,
			"-0.022": 0.0,
			"-0.021": 0.0,
			"-0.02": 0.0,
			"-0.019": 0.0,
			"-0.018": 0.380657769063,
			"-0.017": 1.52404674709,
			"-0.016": 2.49644539232,
			"-0.015": 2.0552675865,
			"-0.014": 3.12616972681,
			"-0.013": 3.22284930771,
			"-0.012": 3.12172842386,
			"-0.011": 3.20184532151,
			"-0.01": 3.68748605516,
			"-0.009": 2.61465187275,
			"-0.008": 5.07715288281,
			"-0.007": 9.21636103089,
			"-0.006": 15.3656199779,
			"-0.005": 17.1111903351,
			"-0.004": 15.8208743442,
			"-0.003": 13.7144308384,
			"-0.002": 11.5112832179,
			"-0.001": 10.8239803803,
			"0.0": 10.9281011647,
			"0.001": 13.9682262669,
			"0.002": 19.0713290413,
			"0.003": 21.5514500637,
			"0.004": 13.2998097217,
			"0.005": 7.70923398247,
			"0.006": 5.9998872824,
			"0.007": 6.01230379733,
			"0.008": 6.07424146991,
			"0.009": 5.05067409529,
			"0.01": 6.06937236564,
			"0.011": 5.59301296873,
			"0.012": 7.48349893504,
			"0.013": 6.14459614543,
			"0.014": 3.94215356681,
			"0.015": 0.891014755422,
			"0.016": 0.0384759140761,
			"0.017": 0.0,
			"0.018": 0.0,
			"0.019": 0.0,
			"0.02": 0.0,
			"0.021": 0.0,
			"0.022": 0.0,
			"0.023": 0.0,
			"0.024": 0.0,
			"0.025": 0.0
		}
	}
}
