{
	 "smiles": "NC1=CN=CC=C1", 
	 "Tm": 335.95, 
	 "num_atms": 13, 
	 "gaussian": { 
		 "optdone": 1, 
		 "sigma_profile": "yes", 
		 "theory": "DFT", 
		 "functional": "B3LYP", 
		 "basiset": "6-31G**", 
		 "properties": { 
			 "R2extent": 1065.7955, 
			 "electric_dipole_moment_norm": 3.25692697186, 
			 "electric_quadrupole_moment_norm": 9.59036430486, 
			 "total_energy": -303.644498383, 
			 "HOMO_LUMO_gap": 0.19774, 
			 "cosmo_polarized_energy": -10.65, 
			 "cosmo_cavitation_energy": 16.74, 
			 "cosmo_dispersion_energy": -12.78, 
			 "cosmo_repulsion_energy": 1.08, 
			 "cosmo_total_nonelectrostatic_energy": 5.04, 
			 "SMD_solvation_energy": 1.63 
		},
		"coords": [
			{
				"x": -1.1760567858,
				"y": 2.2260535078,
				"z": 1.4135899305,
				"element": "N" 
			},
			{
				"x": -0.027240882,
				"y": 1.4940143875,
				"z": 1.1220306494,
				"element": "C" 
			},
			{
				"x": 0.2334209183,
				"y": 0.2672907631,
				"z": 1.7639518931,
				"element": "C" 
			},
			{
				"x": 1.2819641241,
				"y": -0.5093724187,
				"z": 1.4956212138,
				"element": "N" 
			},
			{
				"x": 2.1448975549,
				"y": -0.0996843393,
				"z": 0.556657291,
				"element": "C" 
			},
			{
				"x": 1.9850415193,
				"y": 1.0988683378,
				"z": -0.1399222299,
				"element": "C" 
			},
			{
				"x": 0.8883876573,
				"y": 1.9074671908,
				"z": 0.1431938995,
				"element": "C" 
			},
			{
				"x": -1.1211892815,
				"y": 3.2167447453,
				"z": 1.221013472,
				"element": "H" 
			},
			{
				"x": -1.5879152662,
				"y": 2.0385747393,
				"z": 2.3176180144,
				"element": "H" 
			},
			{
				"x": -0.4540642424,
				"y": -0.0904903428,
				"z": 2.5318945882,
				"element": "H" 
			},
			{
				"x": 2.9922726888,
				"y": -0.751865802,
				"z": 0.3571823475,
				"element": "H" 
			},
			{
				"x": 2.7094376682,
				"y": 1.3968010297,
				"z": -0.8921386122,
				"element": "H" 
			},
			{
				"x": 0.7357443269,
				"y": 2.8450982015,
				"z": -0.3860924574,
				"element": "H" 
			}
		],
		 "valence_orbital": [ 
			{
				"type": "occ",
				"energy": -0.36628,
				"method": "rhf"
			},
			{
				"type": "occ",
				"energy": -0.32907,
				"method": "rhf"
			},
			{
				"type": "occ",
				"energy": -0.2712,
				"method": "rhf"
			},
			{
				"type": "occ",
				"energy": -0.24459,
				"method": "rhf"
			},
			{
				"type": "occ",
				"energy": -0.21158,
				"method": "rhf"
			},
			{
				"type": "unocc",
				"energy": -0.01384,
				"method": "rhf"
			},
			{
				"type": "unocc",
				"energy": 0.01021,
				"method": "rhf"
			},
			{
				"type": "unocc",
				"energy": 0.075,
				"method": "rhf"
			},
			{
				"type": "unocc",
				"energy": 0.10553,
				"method": "rhf"
			},
			{
				"type": "unocc",
				"energy": 0.12698,
				"method": "rhf"
			}
		],
		"cosmo_sigma_profile": { 
			"-0.025": 0.0,
			"-0.024": 0.0,
			"-0.023": 0.0,
			"-0.022": 0.0,
			"-0.021": 0.0,
			"-0.02": 0.0,
			"-0.019": 0.0,
			"-0.018": 0.0,
			"-0.017": 0.0,
			"-0.016": 0.0,
			"-0.015": 0.0,
			"-0.014": 0.0,
			"-0.013": 1.17566224537,
			"-0.012": 3.01558970803,
			"-0.011": 2.67195556219,
			"-0.01": 3.1906582906,
			"-0.009": 3.56657843532,
			"-0.008": 3.24187435869,
			"-0.007": 3.97724508168,
			"-0.006": 6.67232628398,
			"-0.005": 9.23104705199,
			"-0.004": 8.11653146837,
			"-0.003": 6.3076293087,
			"-0.002": 6.48699636867,
			"-0.001": 5.13193350865,
			"0.0": 7.03813508886,
			"0.001": 5.52505041607,
			"0.002": 7.22817432661,
			"0.003": 10.2851496672,
			"0.004": 13.3079161184,
			"0.005": 5.33292661765,
			"0.006": 3.66511158979,
			"0.007": 2.1942135512,
			"0.008": 2.32959600587,
			"0.009": 2.47873078357,
			"0.01": 2.09552547499,
			"0.011": 1.88924432481,
			"0.012": 1.35172587566,
			"0.013": 1.61313986788,
			"0.014": 1.39115957905,
			"0.015": 1.03366812206,
			"0.016": 0.99125745501,
			"0.017": 0.584874986077,
			"0.018": 0.184623324083,
			"0.019": 0.0,
			"0.02": 0.0,
			"0.021": 0.0,
			"0.022": 0.0,
			"0.023": 0.0,
			"0.024": 0.0,
			"0.025": 0.0
		}
	}
}
