{
	 "smiles": "CC(=O)OC1C(OC2OC(C)(C)OC12)C1COC(C)(C)O1", 
	 "Tm": 334.15, 
	 "num_atms": 43, 
	 "gaussian": { 
		 "optdone": 1, 
		 "sigma_profile": "yes", 
		 "theory": "DFT", 
		 "functional": "B3LYP", 
		 "basiset": "6-31G**", 
		 "properties": { 
			 "R2extent": 7998.0592, 
			 "electric_dipole_moment_norm": 2.00083332639, 
			 "electric_quadrupole_moment_norm": 7.21291579113, 
			 "total_energy": -1073.31499629, 
			 "HOMO_LUMO_gap": 0.24736, 
			 "cosmo_polarized_energy": -16.18, 
			 "cosmo_cavitation_energy": 43.87, 
			 "cosmo_dispersion_energy": -29.65, 
			 "cosmo_repulsion_energy": 2.33, 
			 "cosmo_total_nonelectrostatic_energy": 16.55, 
			 "SMD_solvation_energy": 8.17 
		},
		"coords": [
			{
				"x": -0.5242744061,
				"y": -3.4657236121,
				"z": 1.4564464287,
				"element": "C" 
			},
			{
				"x": 0.3186910889,
				"y": -2.2628233196,
				"z": 1.7951260702,
				"element": "C" 
			},
			{
				"x": 1.3019253826,
				"y": -2.2573313613,
				"z": 2.5014668618,
				"element": "O" 
			},
			{
				"x": -0.1678188809,
				"y": -1.1477323827,
				"z": 1.1877478943,
				"element": "O" 
			},
			{
				"x": 0.5597721843,
				"y": 0.0604119326,
				"z": 1.4138501991,
				"element": "C" 
			},
			{
				"x": -0.234159791,
				"y": 1.2500372656,
				"z": 0.8580551054,
				"element": "C" 
			},
			{
				"x": 0.7645504024,
				"y": 2.2697958497,
				"z": 0.7415228144,
				"element": "O" 
			},
			{
				"x": 2.0075589663,
				"y": 1.6869371292,
				"z": 0.3821826833,
				"element": "C" 
			},
			{
				"x": 2.2862407638,
				"y": 1.7929817933,
				"z": -0.9911049356,
				"element": "O" 
			},
			{
				"x": 2.3215040374,
				"y": 0.4926021785,
				"z": -1.5984985586,
				"element": "C" 
			},
			{
				"x": 1.4526831055,
				"y": 0.4941284627,
				"z": -2.8472546134,
				"element": "C" 
			},
			{
				"x": 3.7753538659,
				"y": 0.1075584143,
				"z": -1.8779170913,
				"element": "C" 
			},
			{
				"x": 1.7418211668,
				"y": -0.3971197228,
				"z": -0.642262835,
				"element": "O" 
			},
			{
				"x": 1.8874387057,
				"y": 0.1682827183,
				"z": 0.6504159216,
				"element": "C" 
			},
			{
				"x": -1.3962197956,
				"y": 1.714178918,
				"z": 1.7305310805,
				"element": "C" 
			},
			{
				"x": -1.0028092402,
				"y": 2.4199554319,
				"z": 3.0463875078,
				"element": "C" 
			},
			{
				"x": -1.9625043186,
				"y": 3.4583614137,
				"z": 3.1694462409,
				"element": "O" 
			},
			{
				"x": -2.3223909713,
				"y": 3.8573911713,
				"z": 1.8494503017,
				"element": "C" 
			},
			{
				"x": -1.3862578232,
				"y": 4.9472368541,
				"z": 1.3213574327,
				"element": "C" 
			},
			{
				"x": -3.784524789,
				"y": 4.2797719244,
				"z": 1.8661508271,
				"element": "C" 
			},
			{
				"x": -2.1885478186,
				"y": 2.6768590583,
				"z": 1.0404585552,
				"element": "O" 
			},
			{
				"x": -0.1706333001,
				"y": -4.3272014989,
				"z": 2.021691979,
				"element": "H" 
			},
			{
				"x": -0.45201826,
				"y": -3.6711281152,
				"z": 0.3839894509,
				"element": "H" 
			},
			{
				"x": -1.5762878832,
				"y": -3.2700660772,
				"z": 1.6813845522,
				"element": "H" 
			},
			{
				"x": 0.7563237291,
				"y": 0.17617246,
				"z": 2.4854542592,
				"element": "H" 
			},
			{
				"x": -0.6310244559,
				"y": 0.9820231288,
				"z": -0.1300011022,
				"element": "H" 
			},
			{
				"x": 2.7779571819,
				"y": 2.219979303,
				"z": 0.9460996175,
				"element": "H" 
			},
			{
				"x": 0.4352488192,
				"y": 0.7953331386,
				"z": -2.5889617169,
				"element": "H" 
			},
			{
				"x": 1.4278032525,
				"y": -0.5045798057,
				"z": -3.2914539321,
				"element": "H" 
			},
			{
				"x": 1.8535930734,
				"y": 1.19641599,
				"z": -3.5826063237,
				"element": "H" 
			},
			{
				"x": 3.8251963048,
				"y": -0.8868847756,
				"z": -2.3300332671,
				"element": "H" 
			},
			{
				"x": 4.352071153,
				"y": 0.0968682215,
				"z": -0.9486373583,
				"element": "H" 
			},
			{
				"x": 4.2341282855,
				"y": 0.8295711729,
				"z": -2.5589081301,
				"element": "H" 
			},
			{
				"x": 2.7316624049,
				"y": -0.2679747614,
				"z": 1.1925482061,
				"element": "H" 
			},
			{
				"x": -2.0169025207,
				"y": 0.8282488286,
				"z": 1.9295746185,
				"element": "H" 
			},
			{
				"x": 0.0187681281,
				"y": 2.8155297002,
				"z": 2.9891406167,
				"element": "H" 
			},
			{
				"x": -1.089358183,
				"y": 1.7723154266,
				"z": 3.9229654441,
				"element": "H" 
			},
			{
				"x": -1.4359724525,
				"y": 5.8325131876,
				"z": 1.9621862441,
				"element": "H" 
			},
			{
				"x": -1.6770753718,
				"y": 5.2304325835,
				"z": 0.3056411072,
				"element": "H" 
			},
			{
				"x": -0.3577238735,
				"y": 4.5816080463,
				"z": 1.2856950389,
				"element": "H" 
			},
			{
				"x": -3.9176476699,
				"y": 5.1586694513,
				"z": 2.502988733,
				"element": "H" 
			},
			{
				"x": -4.3959260955,
				"y": 3.4627279715,
				"z": 2.2554407409,
				"element": "H" 
			},
			{
				"x": -4.1177141012,
				"y": 4.5251663064,
				"z": 0.8544433311,
				"element": "H" 
			}
		],
		 "valence_orbital": [ 
			{
				"type": "occ",
				"energy": -0.28437,
				"method": "rhf"
			},
			{
				"type": "occ",
				"energy": -0.28092,
				"method": "rhf"
			},
			{
				"type": "occ",
				"energy": -0.2677,
				"method": "rhf"
			},
			{
				"type": "occ",
				"energy": -0.25901,
				"method": "rhf"
			},
			{
				"type": "occ",
				"energy": -0.24592,
				"method": "rhf"
			},
			{
				"type": "unocc",
				"energy": 0.00144,
				"method": "rhf"
			},
			{
				"type": "unocc",
				"energy": 0.06926,
				"method": "rhf"
			},
			{
				"type": "unocc",
				"energy": 0.07788,
				"method": "rhf"
			},
			{
				"type": "unocc",
				"energy": 0.08955,
				"method": "rhf"
			},
			{
				"type": "unocc",
				"energy": 0.09203,
				"method": "rhf"
			}
		],
		"cosmo_sigma_profile": { 
			"-0.025": 0.0,
			"-0.024": 0.0,
			"-0.023": 0.0,
			"-0.022": 0.0,
			"-0.021": 0.0,
			"-0.02": 0.0,
			"-0.019": 0.0,
			"-0.018": 0.0,
			"-0.017": 0.0,
			"-0.016": 0.0,
			"-0.015": 0.0,
			"-0.014": 0.0,
			"-0.013": 0.0,
			"-0.012": 0.0,
			"-0.011": 0.0,
			"-0.01": 0.0,
			"-0.009": 0.133751877339,
			"-0.008": 2.88699284217,
			"-0.007": 11.7131602991,
			"-0.006": 17.0453830957,
			"-0.005": 19.473452036,
			"-0.004": 38.3241118051,
			"-0.003": 35.3447053182,
			"-0.002": 35.1961495146,
			"-0.001": 31.0068004099,
			"0.0": 33.6273778859,
			"0.001": 19.9083338975,
			"0.002": 12.9733139006,
			"0.003": 9.49917859033,
			"0.004": 9.5606421311,
			"0.005": 8.95610241622,
			"0.006": 7.49601994542,
			"0.007": 7.825700511,
			"0.008": 7.59195210872,
			"0.009": 7.42929722721,
			"0.01": 8.88594231995,
			"0.011": 8.83626337013,
			"0.012": 6.50268637384,
			"0.013": 1.32063778613,
			"0.014": 0.0,
			"0.015": 0.0,
			"0.016": 0.0,
			"0.017": 0.0,
			"0.018": 0.0,
			"0.019": 0.0,
			"0.02": 0.0,
			"0.021": 0.0,
			"0.022": 0.0,
			"0.023": 0.0,
			"0.024": 0.0,
			"0.025": 0.0
		}
	}
}
