{
	 "smiles": "NC1=NNC(=C1)C1=CC=C(I)C=C1", 
	 "Tm": 460.15, 
	 "num_atms": 21, 
	 "gaussian": { 
		 "optdone": 1, 
		 "sigma_profile": "yes", 
		 "theory": "DFT", 
		 "functional": "B3LYP", 
		 "basiset": "6-31G**", 
		 "properties": { 
			 "R2extent": 3458.3254, 
			 "electric_dipole_moment_norm": 1.49315403425, 
			 "electric_quadrupole_moment_norm": 16.0190343045, 
			 "total_energy": -523.404444043, 
			 "HOMO_LUMO_gap": 0.16354, 
			 "cosmo_polarized_energy": -14.04, 
			 "cosmo_cavitation_energy": 28.92, 
			 "cosmo_dispersion_energy": -22.88, 
			 "cosmo_repulsion_energy": 1.78, 
			 "cosmo_total_nonelectrostatic_energy": 7.82, 
			 "SMD_solvation_energy": 2.79 
		},
		"coords": [
			{
				"x": 2.6014452568,
				"y": 2.0316742937,
				"z": -3.0342547585,
				"element": "N" 
			},
			{
				"x": 1.9504848326,
				"y": 1.0446363653,
				"z": -2.2950748156,
				"element": "C" 
			},
			{
				"x": 2.4685480241,
				"y": -0.1796610877,
				"z": -2.188167142,
				"element": "N" 
			},
			{
				"x": 1.520652778,
				"y": -0.8832418594,
				"z": -1.5136380913,
				"element": "N" 
			},
			{
				"x": 0.4485657122,
				"y": -0.1267177813,
				"z": -1.1414733167,
				"element": "C" 
			},
			{
				"x": 0.6904648317,
				"y": 1.1425646281,
				"z": -1.6503952206,
				"element": "C" 
			},
			{
				"x": -0.6818672209,
				"y": -0.6686764564,
				"z": -0.3852769444,
				"element": "C" 
			},
			{
				"x": -1.4566006074,
				"y": 0.1695500382,
				"z": 0.4340893504,
				"element": "C" 
			},
			{
				"x": -2.5349497761,
				"y": -0.3289419202,
				"z": 1.1608058024,
				"element": "C" 
			},
			{
				"x": -2.8466220055,
				"y": -1.6884353832,
				"z": 1.0823782541,
				"element": "C" 
			},
			{
				"x": -4.4793309271,
				"y": -2.4582401866,
				"z": 2.1934189775,
				"element": "I" 
			},
			{
				"x": -2.0935011016,
				"y": -2.5438547047,
				"z": 0.2763071065,
				"element": "C" 
			},
			{
				"x": -1.0241660165,
				"y": -2.0300084765,
				"z": -0.4549981834,
				"element": "C" 
			},
			{
				"x": 2.5451735895,
				"y": 2.9530209,
				"z": -2.6196435992,
				"element": "H" 
			},
			{
				"x": 3.5621239377,
				"y": 1.7793833094,
				"z": -3.2333072915,
				"element": "H" 
			},
			{
				"x": 1.7504676348,
				"y": -1.8089457502,
				"z": -1.1898301036,
				"element": "H" 
			},
			{
				"x": 0.0266406767,
				"y": 1.9935611721,
				"z": -1.6223049834,
				"element": "H" 
			},
			{
				"x": -1.1999013113,
				"y": 1.2210432537,
				"z": 0.5166396457,
				"element": "H" 
			},
			{
				"x": -3.1178259347,
				"y": 0.3352730675,
				"z": 1.788985442,
				"element": "H" 
			},
			{
				"x": -2.3421110467,
				"y": -3.5967300198,
				"z": 0.2046556192,
				"element": "H" 
			},
			{
				"x": -0.4704913263,
				"y": -2.695153402,
				"z": -1.1116157474,
				"element": "H" 
			}
		],
		 "valence_orbital": [ 
			{
				"type": "occ",
				"energy": -0.27143,
				"method": "rhf"
			},
			{
				"type": "occ",
				"energy": -0.2712,
				"method": "rhf"
			},
			{
				"type": "occ",
				"energy": -0.26042,
				"method": "rhf"
			},
			{
				"type": "occ",
				"energy": -0.22536,
				"method": "rhf"
			},
			{
				"type": "occ",
				"energy": -0.20503,
				"method": "rhf"
			},
			{
				"type": "unocc",
				"energy": -0.04149,
				"method": "rhf"
			},
			{
				"type": "unocc",
				"energy": -0.04059,
				"method": "rhf"
			},
			{
				"type": "unocc",
				"energy": -0.02186,
				"method": "rhf"
			},
			{
				"type": "unocc",
				"energy": 0.03925,
				"method": "rhf"
			},
			{
				"type": "unocc",
				"energy": 0.04134,
				"method": "rhf"
			}
		],
		"cosmo_sigma_profile": { 
			"-0.025": 0.0,
			"-0.024": 0.0,
			"-0.023": 0.0,
			"-0.022": 0.0,
			"-0.021": 0.0,
			"-0.02": 0.0,
			"-0.019": 0.0,
			"-0.018": 0.0,
			"-0.017": 0.0,
			"-0.016": 0.291051505587,
			"-0.015": 1.40634285455,
			"-0.014": 0.721861998639,
			"-0.013": 1.76362738612,
			"-0.012": 2.71206376991,
			"-0.011": 3.52314197696,
			"-0.01": 3.94080811367,
			"-0.009": 3.48517424507,
			"-0.008": 3.6620314384,
			"-0.007": 8.2017570342,
			"-0.006": 15.2519722754,
			"-0.005": 12.854758809,
			"-0.004": 11.7107350441,
			"-0.003": 10.2132045148,
			"-0.002": 10.6979278766,
			"-0.001": 10.9055257916,
			"0.0": 12.3837702037,
			"0.001": 14.5387685463,
			"0.002": 20.1691877946,
			"0.003": 26.8509668392,
			"0.004": 23.1134650868,
			"0.005": 11.9267063725,
			"0.006": 5.75507344203,
			"0.007": 2.75291594601,
			"0.008": 3.05661443208,
			"0.009": 1.31548298261,
			"0.01": 2.01386133229,
			"0.011": 2.60460316824,
			"0.012": 1.87436566856,
			"0.013": 1.70314749187,
			"0.014": 1.98184475717,
			"0.015": 1.61267542164,
			"0.016": 1.14161527212,
			"0.017": 0.323348600809,
			"0.018": 0.0,
			"0.019": 0.0,
			"0.02": 0.0,
			"0.021": 0.0,
			"0.022": 0.0,
			"0.023": 0.0,
			"0.024": 0.0,
			"0.025": 0.0
		}
	}
}
