{
	 "smiles": "CC1=NC2=C(N=NC3=CC(Cl)=CC=C3Cl)C(N)=NN2C(C)=C1", 
	 "Tm": 552.15, 
	 "num_atms": 34, 
	 "gaussian": { 
		 "optdone": 1, 
		 "sigma_profile": "yes", 
		 "theory": "DFT", 
		 "functional": "B3LYP", 
		 "basiset": "6-31G**", 
		 "properties": { 
			 "R2extent": 11273.1547, 
			 "electric_dipole_moment_norm": 5.20275403801, 
			 "electric_quadrupole_moment_norm": 17.8400459268, 
			 "total_energy": -1789.58235223, 
			 "HOMO_LUMO_gap": 0.12872, 
			 "cosmo_polarized_energy": -14.86, 
			 "cosmo_cavitation_energy": 42.87, 
			 "cosmo_dispersion_energy": -31.21, 
			 "cosmo_repulsion_energy": 2.39, 
			 "cosmo_total_nonelectrostatic_energy": 14.06, 
			 "SMD_solvation_energy": 3.31 
		},
		"coords": [
			{
				"x": 0.3654249906,
				"y": 0.9261749299,
				"z": 4.288724306,
				"element": "C" 
			},
			{
				"x": -0.5436210264,
				"y": 1.1440372685,
				"z": 3.1080274724,
				"element": "C" 
			},
			{
				"x": -0.0895705172,
				"y": 0.7385665444,
				"z": 1.9205238603,
				"element": "N" 
			},
			{
				"x": -0.882339258,
				"y": 0.9245547132,
				"z": 0.8652031518,
				"element": "C" 
			},
			{
				"x": -0.7358961391,
				"y": 0.6280089884,
				"z": -0.5112246777,
				"element": "C" 
			},
			{
				"x": 0.3543592391,
				"y": 0.037781803,
				"z": -1.0634101224,
				"element": "N" 
			},
			{
				"x": 0.2902126553,
				"y": -0.1448212999,
				"z": -2.3301584904,
				"element": "N" 
			},
			{
				"x": 1.4280968872,
				"y": -0.7569148248,
				"z": -2.8850129338,
				"element": "C" 
			},
			{
				"x": 2.5534189597,
				"y": -1.1421706815,
				"z": -2.1310600635,
				"element": "C" 
			},
			{
				"x": 3.6363150646,
				"y": -1.7404648592,
				"z": -2.7545032289,
				"element": "C" 
			},
			{
				"x": 5.0330118467,
				"y": -2.2142946843,
				"z": -1.794043453,
				"element": "Cl" 
			},
			{
				"x": 3.6485974446,
				"y": -1.9784626288,
				"z": -4.1319743852,
				"element": "C" 
			},
			{
				"x": 2.5409394484,
				"y": -1.6015479823,
				"z": -4.8871883019,
				"element": "C" 
			},
			{
				"x": 1.4451789394,
				"y": -0.9987337096,
				"z": -4.2719435509,
				"element": "C" 
			},
			{
				"x": 0.0744784906,
				"y": -0.5436977993,
				"z": -5.2733075034,
				"element": "Cl" 
			},
			{
				"x": -1.963194747,
				"y": 1.0876186517,
				"z": -1.1156913596,
				"element": "C" 
			},
			{
				"x": -2.2557575863,
				"y": 1.0028644812,
				"z": -2.4256985859,
				"element": "N" 
			},
			{
				"x": -2.8097254249,
				"y": 1.623047332,
				"z": -0.2238010077,
				"element": "N" 
			},
			{
				"x": -2.1437484706,
				"y": 1.5183659616,
				"z": 0.9711277385,
				"element": "N" 
			},
			{
				"x": -2.6325638775,
				"y": 1.9403343394,
				"z": 2.1625896066,
				"element": "C" 
			},
			{
				"x": -3.9901657505,
				"y": 2.5630960493,
				"z": 2.179763247,
				"element": "C" 
			},
			{
				"x": -1.8123009126,
				"y": 1.749162322,
				"z": 3.2622526455,
				"element": "C" 
			},
			{
				"x": 1.3167075424,
				"y": 1.4444955954,
				"z": 4.1315595541,
				"element": "H" 
			},
			{
				"x": -0.0812058813,
				"y": 1.2837999946,
				"z": 5.2193524245,
				"element": "H" 
			},
			{
				"x": 0.5963395282,
				"y": -0.1386415144,
				"z": 4.3940648996,
				"element": "H" 
			},
			{
				"x": 2.5412078436,
				"y": -0.9566234753,
				"z": -1.0640861485,
				"element": "H" 
			},
			{
				"x": 4.505004984,
				"y": -2.4477081813,
				"z": -4.6020437772,
				"element": "H" 
			},
			{
				"x": 2.523896974,
				"y": -1.7744131777,
				"z": -5.9574256887,
				"element": "H" 
			},
			{
				"x": -1.558663084,
				"y": 0.582530737,
				"z": -3.0290832359,
				"element": "H" 
			},
			{
				"x": -3.1377661786,
				"y": 1.3473333943,
				"z": -2.7678343348,
				"element": "H" 
			},
			{
				"x": -4.262319829,
				"y": 2.8561770424,
				"z": 3.194907509,
				"element": "H" 
			},
			{
				"x": -4.7356925998,
				"y": 1.8634329181,
				"z": 1.7884234999,
				"element": "H" 
			},
			{
				"x": -4.0154400385,
				"y": 3.4409566162,
				"z": 1.5261412803,
				"element": "H" 
			},
			{
				"x": -2.157219517,
				"y": 2.069455136,
				"z": 4.238029654,
				"element": "H" 
			}
		],
		 "valence_orbital": [ 
			{
				"type": "occ",
				"energy": -0.2703,
				"method": "rhf"
			},
			{
				"type": "occ",
				"energy": -0.24026,
				"method": "rhf"
			},
			{
				"type": "occ",
				"energy": -0.22639,
				"method": "rhf"
			},
			{
				"type": "occ",
				"energy": -0.22633,
				"method": "rhf"
			},
			{
				"type": "occ",
				"energy": -0.20361,
				"method": "rhf"
			},
			{
				"type": "unocc",
				"energy": -0.07489,
				"method": "rhf"
			},
			{
				"type": "unocc",
				"energy": -0.05122,
				"method": "rhf"
			},
			{
				"type": "unocc",
				"energy": -0.01249,
				"method": "rhf"
			},
			{
				"type": "unocc",
				"energy": -0.00256,
				"method": "rhf"
			},
			{
				"type": "unocc",
				"energy": 0.02264,
				"method": "rhf"
			}
		],
		"cosmo_sigma_profile": { 
			"-0.025": 0.0,
			"-0.024": 0.0,
			"-0.023": 0.0,
			"-0.022": 0.0,
			"-0.021": 0.0,
			"-0.02": 0.0,
			"-0.019": 0.0,
			"-0.018": 0.0,
			"-0.017": 0.0,
			"-0.016": 0.0,
			"-0.015": 0.0641692975125,
			"-0.014": 1.24039560124,
			"-0.013": 0.928483577677,
			"-0.012": 0.931868839007,
			"-0.011": 1.04202848257,
			"-0.01": 0.831346115912,
			"-0.009": 1.43201893866,
			"-0.008": 5.35304507391,
			"-0.007": 9.67372184101,
			"-0.006": 12.9179050758,
			"-0.005": 18.7452029588,
			"-0.004": 18.5755665079,
			"-0.003": 26.7172561551,
			"-0.002": 30.1276070216,
			"-0.001": 28.3301630432,
			"0.0": 25.2618680701,
			"0.001": 37.8733447512,
			"0.002": 38.0136083876,
			"0.003": 25.1854939647,
			"0.004": 27.0631629426,
			"0.005": 15.1048434184,
			"0.006": 3.90672898521,
			"0.007": 2.03164409652,
			"0.008": 3.28747571186,
			"0.009": 2.75817887775,
			"0.01": 2.96611156682,
			"0.011": 2.12487196085,
			"0.012": 2.39428618124,
			"0.013": 2.01324292801,
			"0.014": 0.965486299191,
			"0.015": 0.721351847074,
			"0.016": 0.048949748953,
			"0.017": 0.0,
			"0.018": 0.0,
			"0.019": 0.0,
			"0.02": 0.0,
			"0.021": 0.0,
			"0.022": 0.0,
			"0.023": 0.0,
			"0.024": 0.0,
			"0.025": 0.0
		}
	}
}
