{
	 "smiles": "NC(=O)C1=CC(N)=CC=C1", 
	 "Tm": 387.15, 
	 "num_atms": 18, 
	 "gaussian": { 
		 "optdone": 1, 
		 "sigma_profile": "yes", 
		 "theory": "DFT", 
		 "functional": "B3LYP", 
		 "basiset": "6-31G**", 
		 "properties": { 
			 "R2extent": 1584.1029, 
			 "electric_dipole_moment_norm": 5.23069709025, 
			 "electric_quadrupole_moment_norm": 10.1312142007, 
			 "total_energy": -456.314342024, 
			 "HOMO_LUMO_gap": 0.17802, 
			 "cosmo_polarized_energy": -17.83, 
			 "cosmo_cavitation_energy": 22.16, 
			 "cosmo_dispersion_energy": -16.57, 
			 "cosmo_repulsion_energy": 1.36, 
			 "cosmo_total_nonelectrostatic_energy": 6.95, 
			 "SMD_solvation_energy": 4.58 
		},
		"coords": [
			{
				"x": -1.3882668089,
				"y": -0.161575928,
				"z": 2.4298016748,
				"element": "N" 
			},
			{
				"x": -0.1047210058,
				"y": 0.2208002593,
				"z": 2.1058177973,
				"element": "C" 
			},
			{
				"x": 0.7468102484,
				"y": 0.4011860279,
				"z": 2.9671658568,
				"element": "O" 
			},
			{
				"x": 0.1907838735,
				"y": 0.3802257639,
				"z": 0.6406769365,
				"element": "C" 
			},
			{
				"x": -0.59716932,
				"y": -0.2092720179,
				"z": -0.354831332,
				"element": "C" 
			},
			{
				"x": -0.2867476972,
				"y": -0.0356652113,
				"z": -1.7136139426,
				"element": "C" 
			},
			{
				"x": -1.0307644785,
				"y": -0.6820037375,
				"z": -2.7021576361,
				"element": "N" 
			},
			{
				"x": 0.8290642475,
				"y": 0.7494427083,
				"z": -2.0527517008,
				"element": "C" 
			},
			{
				"x": 1.6159320223,
				"y": 1.3254563713,
				"z": -1.057552627,
				"element": "C" 
			},
			{
				"x": 1.3108628395,
				"y": 1.1429894113,
				"z": 0.2896165908,
				"element": "C" 
			},
			{
				"x": -2.1458190865,
				"y": 0.0360667704,
				"z": 1.7946675132,
				"element": "H" 
			},
			{
				"x": -1.6042732486,
				"y": -0.1349512555,
				"z": 3.4161805895,
				"element": "H" 
			},
			{
				"x": -1.4318858226,
				"y": -0.8514446016,
				"z": -0.0852243448,
				"element": "H" 
			},
			{
				"x": -1.9790246482,
				"y": -0.9198518415,
				"z": -2.4470673562,
				"element": "H" 
			},
			{
				"x": -0.9785905215,
				"y": -0.2678556569,
				"z": -3.6223409672,
				"element": "H" 
			},
			{
				"x": 1.0825150917,
				"y": 0.8925378651,
				"z": -3.1004930516,
				"element": "H" 
			},
			{
				"x": 2.4769826011,
				"y": 1.9239204073,
				"z": -1.3415606683,
				"element": "H" 
			},
			{
				"x": 1.9160117137,
				"y": 1.5749946653,
				"z": 1.0779666677,
				"element": "H" 
			}
		],
		 "valence_orbital": [ 
			{
				"type": "occ",
				"energy": -0.30965,
				"method": "rhf"
			},
			{
				"type": "occ",
				"energy": -0.26754,
				"method": "rhf"
			},
			{
				"type": "occ",
				"energy": -0.25316,
				"method": "rhf"
			},
			{
				"type": "occ",
				"energy": -0.24373,
				"method": "rhf"
			},
			{
				"type": "occ",
				"energy": -0.20771,
				"method": "rhf"
			},
			{
				"type": "unocc",
				"energy": -0.02969,
				"method": "rhf"
			},
			{
				"type": "unocc",
				"energy": 0.00967,
				"method": "rhf"
			},
			{
				"type": "unocc",
				"energy": 0.06269,
				"method": "rhf"
			},
			{
				"type": "unocc",
				"energy": 0.07808,
				"method": "rhf"
			},
			{
				"type": "unocc",
				"energy": 0.08588,
				"method": "rhf"
			}
		],
		"cosmo_sigma_profile": { 
			"-0.025": 0.0,
			"-0.024": 0.0,
			"-0.023": 0.0,
			"-0.022": 0.0,
			"-0.021": 0.0,
			"-0.02": 0.0,
			"-0.019": 0.0,
			"-0.018": 0.0,
			"-0.017": 0.0,
			"-0.016": 0.0,
			"-0.015": 0.0,
			"-0.014": 0.888083664681,
			"-0.013": 2.80198414307,
			"-0.012": 4.91383568853,
			"-0.011": 5.51435138399,
			"-0.01": 5.08091669592,
			"-0.009": 6.05956125065,
			"-0.008": 6.19709472744,
			"-0.007": 5.16373996858,
			"-0.006": 6.67028174861,
			"-0.005": 6.44475055716,
			"-0.004": 8.42917325553,
			"-0.003": 9.21434308681,
			"-0.002": 6.91087240262,
			"-0.001": 6.47824325853,
			"0.0": 8.36836701873,
			"0.001": 9.17703455189,
			"0.002": 9.03855200595,
			"0.003": 9.15512699702,
			"0.004": 9.51422952913,
			"0.005": 14.606805796,
			"0.006": 8.51663909878,
			"0.007": 2.91733055394,
			"0.008": 2.89716190277,
			"0.009": 2.94010714953,
			"0.01": 1.84883405224,
			"0.011": 2.82825513312,
			"0.012": 2.61933317696,
			"0.013": 4.38884849254,
			"0.014": 5.4884831026,
			"0.015": 0.547271115657,
			"0.016": 0.0,
			"0.017": 0.0,
			"0.018": 0.0,
			"0.019": 0.0,
			"0.02": 0.0,
			"0.021": 0.0,
			"0.022": 0.0,
			"0.023": 0.0,
			"0.024": 0.0,
			"0.025": 0.0
		}
	}
}
