{
	 "smiles": "NC1=NC(=CS1)C1=C(Br)C=CS1", 
	 "Tm": 425.15, 
	 "num_atms": 17, 
	 "gaussian": { 
		 "optdone": 1, 
		 "sigma_profile": "yes", 
		 "theory": "DFT", 
		 "functional": "B3LYP", 
		 "basiset": "6-31G**", 
		 "properties": { 
			 "R2extent": 3791.8422, 
			 "electric_dipole_moment_norm": 1.97177130013, 
			 "electric_quadrupole_moment_norm": 18.1951480522, 
			 "total_energy": -3747.0156159, 
			 "HOMO_LUMO_gap": 0.16409, 
			 "cosmo_polarized_energy": -12.36, 
			 "cosmo_cavitation_energy": 27.21, 
			 "cosmo_dispersion_energy": -21.45, 
			 "cosmo_repulsion_energy": 1.63, 
			 "cosmo_total_nonelectrostatic_energy": 7.39, 
			 "SMD_solvation_energy": 2.25 
		},
		"coords": [
			{
				"x": 1.5873149999,
				"y": -4.0550054257,
				"z": -0.6919526963,
				"element": "N" 
			},
			{
				"x": 1.68748531,
				"y": -2.8241351528,
				"z": -0.0873353287,
				"element": "C" 
			},
			{
				"x": 0.9625722508,
				"y": -1.7956173903,
				"z": -0.4095702906,
				"element": "N" 
			},
			{
				"x": 1.2322502061,
				"y": -0.7190108328,
				"z": 0.4200695073,
				"element": "C" 
			},
			{
				"x": 2.1857950552,
				"y": -0.9338566793,
				"z": 1.3808877282,
				"element": "C" 
			},
			{
				"x": 2.7893588727,
				"y": -2.56554668,
				"z": 1.2780601551,
				"element": "S" 
			},
			{
				"x": 0.5379400639,
				"y": 0.5518805952,
				"z": 0.2144602752,
				"element": "C" 
			},
			{
				"x": -0.7407006051,
				"y": 0.8295688817,
				"z": -0.2143197797,
				"element": "C" 
			},
			{
				"x": -2.0560034667,
				"y": -0.4646137329,
				"z": -0.6512264782,
				"element": "Br" 
			},
			{
				"x": -1.057285789,
				"y": 2.2203283901,
				"z": -0.2662281879,
				"element": "C" 
			},
			{
				"x": -0.0108743486,
				"y": 3.0051887296,
				"z": 0.121704627,
				"element": "C" 
			},
			{
				"x": 1.3773985529,
				"y": 2.0571994777,
				"z": 0.5395438067,
				"element": "S" 
			},
			{
				"x": 1.0645794027,
				"y": -4.0267258921,
				"z": -1.5577525799,
				"element": "H" 
			},
			{
				"x": 2.4247628887,
				"y": -4.6177209459,
				"z": -0.7328455601,
				"element": "H" 
			},
			{
				"x": 2.5444757284,
				"y": -0.2557666214,
				"z": 2.1408396038,
				"element": "H" 
			},
			{
				"x": -2.025123431,
				"y": 2.5950499778,
				"z": -0.5739564964,
				"element": "H" 
			},
			{
				"x": 0.0302543094,
				"y": 4.0838833012,
				"z": 0.1792216944,
				"element": "H" 
			}
		],
		 "valence_orbital": [ 
			{
				"type": "occ",
				"energy": -0.28411,
				"method": "rhf"
			},
			{
				"type": "occ",
				"energy": -0.26347,
				"method": "rhf"
			},
			{
				"type": "occ",
				"energy": -0.25063,
				"method": "rhf"
			},
			{
				"type": "occ",
				"energy": -0.23697,
				"method": "rhf"
			},
			{
				"type": "occ",
				"energy": -0.20316,
				"method": "rhf"
			},
			{
				"type": "unocc",
				"energy": -0.03907,
				"method": "rhf"
			},
			{
				"type": "unocc",
				"energy": -0.00014,
				"method": "rhf"
			},
			{
				"type": "unocc",
				"energy": 0.0051,
				"method": "rhf"
			},
			{
				"type": "unocc",
				"energy": 0.0083,
				"method": "rhf"
			},
			{
				"type": "unocc",
				"energy": 0.0422,
				"method": "rhf"
			}
		],
		"cosmo_sigma_profile": { 
			"-0.025": 0.0,
			"-0.024": 0.0,
			"-0.023": 0.0,
			"-0.022": 0.0,
			"-0.021": 0.0,
			"-0.02": 0.0,
			"-0.019": 0.0,
			"-0.018": 0.0,
			"-0.017": 0.0,
			"-0.016": 0.0,
			"-0.015": 0.538015985106,
			"-0.014": 2.08912170865,
			"-0.013": 2.99992075438,
			"-0.012": 2.26470987409,
			"-0.011": 2.75675317904,
			"-0.01": 2.48521038609,
			"-0.009": 4.8681759332,
			"-0.008": 5.73156558067,
			"-0.007": 6.95520501577,
			"-0.006": 7.74420307165,
			"-0.005": 7.5844669781,
			"-0.004": 8.09501069497,
			"-0.003": 8.46300587744,
			"-0.002": 9.87083060092,
			"-0.001": 11.2744259686,
			"0.0": 13.4624773261,
			"0.001": 20.6937497749,
			"0.002": 26.7590489829,
			"0.003": 31.9333982408,
			"0.004": 21.6243205065,
			"0.005": 9.80413562028,
			"0.006": 3.48265720147,
			"0.007": 2.46400922797,
			"0.008": 3.80247711864,
			"0.009": 2.47716970248,
			"0.01": 1.73763023714,
			"0.011": 1.79656813425,
			"0.012": 1.19753385853,
			"0.013": 1.05120882999,
			"0.014": 0.452812412586,
			"0.015": 0.0162772017862,
			"0.016": 0.0,
			"0.017": 0.0,
			"0.018": 0.0,
			"0.019": 0.0,
			"0.02": 0.0,
			"0.021": 0.0,
			"0.022": 0.0,
			"0.023": 0.0,
			"0.024": 0.0,
			"0.025": 0.0
		}
	}
}
