{
	 "smiles": "NC1=C(NS(=O)(=O)C2=CC=CS2)C=CC=C1", 
	 "Tm": 462.15, 
	 "num_atms": 26, 
	 "gaussian": { 
		 "optdone": 1, 
		 "sigma_profile": "yes", 
		 "theory": "DFT", 
		 "functional": "B3LYP", 
		 "basiset": "6-31G**", 
		 "properties": { 
			 "R2extent": 5166.2152, 
			 "electric_dipole_moment_norm": 6.64672534486, 
			 "electric_quadrupole_moment_norm": 18.8779362649, 
			 "total_energy": -1443.32661586, 
			 "HOMO_LUMO_gap": 0.16132, 
			 "cosmo_polarized_energy": -18.73, 
			 "cosmo_cavitation_energy": 32.77, 
			 "cosmo_dispersion_energy": -23.78, 
			 "cosmo_repulsion_energy": 1.76, 
			 "cosmo_total_nonelectrostatic_energy": 10.76, 
			 "SMD_solvation_energy": 4.52 
		},
		"coords": [
			{
				"x": 1.3056895757,
				"y": -0.0050485938,
				"z": 2.2140661275,
				"element": "N" 
			},
			{
				"x": 0.2154067297,
				"y": 0.7754034398,
				"z": 1.7916820355,
				"element": "C" 
			},
			{
				"x": 0.4429273585,
				"y": 1.909235796,
				"z": 0.9792000029,
				"element": "C" 
			},
			{
				"x": 1.7811991829,
				"y": 2.2509260232,
				"z": 0.6268220536,
				"element": "N" 
			},
			{
				"x": 2.3596208883,
				"y": 2.1693244759,
				"z": -0.9544194142,
				"element": "S" 
			},
			{
				"x": 3.7902313968,
				"y": 2.4489997394,
				"z": -0.8376339524,
				"element": "O" 
			},
			{
				"x": 1.4534835931,
				"y": 2.9522344966,
				"z": -1.7892414032,
				"element": "O" 
			},
			{
				"x": 2.1874095886,
				"y": 0.4815068966,
				"z": -1.4816040236,
				"element": "C" 
			},
			{
				"x": 1.0888415884,
				"y": -0.0663570532,
				"z": -2.0933983701,
				"element": "C" 
			},
			{
				"x": 1.2423558746,
				"y": -1.4642115907,
				"z": -2.3255751814,
				"element": "C" 
			},
			{
				"x": 2.4456046523,
				"y": -1.9444852162,
				"z": -1.8811515585,
				"element": "C" 
			},
			{
				"x": 3.4327865365,
				"y": -0.7030350941,
				"z": -1.1824731299,
				"element": "S" 
			},
			{
				"x": -0.6228833821,
				"y": 2.718210107,
				"z": 0.5771272496,
				"element": "C" 
			},
			{
				"x": -1.9238652955,
				"y": 2.4195968826,
				"z": 0.9792941476,
				"element": "C" 
			},
			{
				"x": -2.1521501709,
				"y": 1.3243184424,
				"z": 1.814593629,
				"element": "C" 
			},
			{
				"x": -1.0938964456,
				"y": 0.5115931829,
				"z": 2.2169987457,
				"element": "C" 
			},
			{
				"x": 1.9406005609,
				"y": -0.265000813,
				"z": 1.4667726145,
				"element": "H" 
			},
			{
				"x": 1.0277759317,
				"y": -0.8285944924,
				"z": 2.732923183,
				"element": "H" 
			},
			{
				"x": 2.4947624767,
				"y": 1.9617626794,
				"z": 1.2908033014,
				"element": "H" 
			},
			{
				"x": 0.2209889027,
				"y": 0.5192769307,
				"z": -2.3697744019,
				"element": "H" 
			},
			{
				"x": 0.4939583454,
				"y": -2.0817553518,
				"z": -2.8083482578,
				"element": "H" 
			},
			{
				"x": 2.8267463121,
				"y": -2.9547612613,
				"z": -1.9477405408,
				"element": "H" 
			},
			{
				"x": -0.4093306561,
				"y": 3.5794694267,
				"z": -0.045348113,
				"element": "H" 
			},
			{
				"x": -2.7472511087,
				"y": 3.0509613225,
				"z": 0.6613184729,
				"element": "H" 
			},
			{
				"x": -3.1590572321,
				"y": 1.0934431576,
				"z": 2.1500821282,
				"element": "H" 
			},
			{
				"x": -1.2790552039,
				"y": -0.3500135329,
				"z": 2.8541246556,
				"element": "H" 
			}
		],
		 "valence_orbital": [ 
			{
				"type": "occ",
				"energy": -0.30582,
				"method": "rhf"
			},
			{
				"type": "occ",
				"energy": -0.27859,
				"method": "rhf"
			},
			{
				"type": "occ",
				"energy": -0.26323,
				"method": "rhf"
			},
			{
				"type": "occ",
				"energy": -0.24225,
				"method": "rhf"
			},
			{
				"type": "occ",
				"energy": -0.21541,
				"method": "rhf"
			},
			{
				"type": "unocc",
				"energy": -0.05409,
				"method": "rhf"
			},
			{
				"type": "unocc",
				"energy": -0.01122,
				"method": "rhf"
			},
			{
				"type": "unocc",
				"energy": 0.00365,
				"method": "rhf"
			},
			{
				"type": "unocc",
				"energy": 0.00722,
				"method": "rhf"
			},
			{
				"type": "unocc",
				"energy": 0.03326,
				"method": "rhf"
			}
		],
		"cosmo_sigma_profile": { 
			"-0.025": 0.0,
			"-0.024": 0.0,
			"-0.023": 0.0,
			"-0.022": 0.0,
			"-0.021": 0.0,
			"-0.02": 0.0,
			"-0.019": 0.00120452156867,
			"-0.018": 0.0824670488444,
			"-0.017": 0.169986430368,
			"-0.016": 0.21870592555,
			"-0.015": 0.232154445836,
			"-0.014": 0.391248593831,
			"-0.013": 1.77551049182,
			"-0.012": 2.66248654763,
			"-0.011": 2.64214243029,
			"-0.01": 3.73689661234,
			"-0.009": 5.89037408206,
			"-0.008": 7.5558456427,
			"-0.007": 9.32275548668,
			"-0.006": 12.5685743627,
			"-0.005": 15.0538890217,
			"-0.004": 14.5139124803,
			"-0.003": 15.2418927982,
			"-0.002": 11.98609358,
			"-0.001": 15.0974161292,
			"0.0": 15.571528747,
			"0.001": 19.6001617006,
			"0.002": 20.7849624703,
			"0.003": 17.8028551863,
			"0.004": 15.5202023076,
			"0.005": 14.1300923511,
			"0.006": 10.216563649,
			"0.007": 4.98725925358,
			"0.008": 3.84092907656,
			"0.009": 5.42558606737,
			"0.01": 8.58241214608,
			"0.011": 7.6588293976,
			"0.012": 0.839359505995,
			"0.013": 0.384241131177,
			"0.014": 0.106347992254,
			"0.015": 0.0,
			"0.016": 0.0,
			"0.017": 0.0,
			"0.018": 0.0,
			"0.019": 0.0,
			"0.02": 0.0,
			"0.021": 0.0,
			"0.022": 0.0,
			"0.023": 0.0,
			"0.024": 0.0,
			"0.025": 0.0
		}
	}
}
