{
	 "smiles": "CC1=CC=C(C)C(OCCCC(C)(C)C(O)=O)=C1", 
	 "Tm": 334.15, 
	 "num_atms": 40, 
	 "gaussian": { 
		 "optdone": 1, 
		 "sigma_profile": "yes", 
		 "theory": "DFT", 
		 "functional": "B3LYP", 
		 "basiset": "6-31G**", 
		 "properties": { 
			 "R2extent": 7656.5024, 
			 "electric_dipole_moment_norm": 1.57980826052, 
			 "electric_quadrupole_moment_norm": 15.1502770952, 
			 "total_energy": -810.566112989, 
			 "HOMO_LUMO_gap": 0.21607, 
			 "cosmo_polarized_energy": -11.69, 
			 "cosmo_cavitation_energy": 41.93, 
			 "cosmo_dispersion_energy": -28.39, 
			 "cosmo_repulsion_energy": 2.23, 
			 "cosmo_total_nonelectrostatic_energy": 15.77, 
			 "SMD_solvation_energy": 8.19 
		},
		"coords": [
			{
				"x": 3.7010215237,
				"y": -4.0279300334,
				"z": 1.3722249509,
				"element": "C" 
			},
			{
				"x": 2.6860243647,
				"y": -3.4666936555,
				"z": 0.4033330945,
				"element": "C" 
			},
			{
				"x": 2.2251886642,
				"y": -4.2123621,
				"z": -0.6807062859,
				"element": "C" 
			},
			{
				"x": 1.2849666879,
				"y": -3.6692892263,
				"z": -1.563366313,
				"element": "C" 
			},
			{
				"x": 0.7778381899,
				"y": -2.3830165038,
				"z": -1.3986037861,
				"element": "C" 
			},
			{
				"x": -0.2348231993,
				"y": -1.7901171521,
				"z": -2.3442307908,
				"element": "C" 
			},
			{
				"x": 1.2476720821,
				"y": -1.6322140444,
				"z": -0.2983485324,
				"element": "C" 
			},
			{
				"x": 0.7175478931,
				"y": -0.374148887,
				"z": -0.1848766449,
				"element": "O" 
			},
			{
				"x": 1.139844627,
				"y": 0.4611809076,
				"z": 0.8900387256,
				"element": "C" 
			},
			{
				"x": 0.3949537247,
				"y": 1.7863755397,
				"z": 0.7794312181,
				"element": "C" 
			},
			{
				"x": -1.1211752776,
				"y": 1.6348203345,
				"z": 0.9635826288,
				"element": "C" 
			},
			{
				"x": -1.9491150008,
				"y": 2.9453676619,
				"z": 0.8640317385,
				"element": "C" 
			},
			{
				"x": -1.8518584956,
				"y": 3.57683836,
				"z": -0.5340581892,
				"element": "C" 
			},
			{
				"x": -3.4276879885,
				"y": 2.6208668315,
				"z": 1.1858651859,
				"element": "C" 
			},
			{
				"x": -1.4490036883,
				"y": 3.9553505715,
				"z": 1.8981830024,
				"element": "C" 
			},
			{
				"x": -1.4484798918,
				"y": 3.445969384,
				"z": 3.1593120678,
				"element": "O" 
			},
			{
				"x": -1.091154883,
				"y": 5.0915235294,
				"z": 1.6742079643,
				"element": "O" 
			},
			{
				"x": 2.1862674906,
				"y": -2.1661677892,
				"z": 0.5860063607,
				"element": "C" 
			},
			{
				"x": 3.9976083177,
				"y": -5.0426946173,
				"z": 1.0931986431,
				"element": "H" 
			},
			{
				"x": 4.6077682819,
				"y": -3.4123260962,
				"z": 1.4046879893,
				"element": "H" 
			},
			{
				"x": 3.3027631991,
				"y": -4.0657876492,
				"z": 2.3931632161,
				"element": "H" 
			},
			{
				"x": 2.5983595447,
				"y": -5.2200531227,
				"z": -0.8417605865,
				"element": "H" 
			},
			{
				"x": 0.9362954084,
				"y": -4.2632366843,
				"z": -2.4049241435,
				"element": "H" 
			},
			{
				"x": 0.1321738248,
				"y": -0.8595684958,
				"z": -2.7912370423,
				"element": "H" 
			},
			{
				"x": -1.167678972,
				"y": -1.5390739961,
				"z": -1.8262652556,
				"element": "H" 
			},
			{
				"x": -0.4697936501,
				"y": -2.4901906897,
				"z": -3.1505186709,
				"element": "H" 
			},
			{
				"x": 2.2251961812,
				"y": 0.6250748628,
				"z": 0.8322327341,
				"element": "H" 
			},
			{
				"x": 0.9231398807,
				"y": -0.026313503,
				"z": 1.8522736081,
				"element": "H" 
			},
			{
				"x": 0.6270068011,
				"y": 2.2306689985,
				"z": -0.1943919245,
				"element": "H" 
			},
			{
				"x": 0.8053155999,
				"y": 2.4593434159,
				"z": 1.5432343523,
				"element": "H" 
			},
			{
				"x": -1.5033372497,
				"y": 0.9408966032,
				"z": 0.2069638335,
				"element": "H" 
			},
			{
				"x": -1.3134817906,
				"y": 1.1752062689,
				"z": 1.9400562115,
				"element": "H" 
			},
			{
				"x": -2.1862074258,
				"y": 2.8585819081,
				"z": -1.2896231007,
				"element": "H" 
			},
			{
				"x": -0.8317608725,
				"y": 3.8843826807,
				"z": -0.7739629081,
				"element": "H" 
			},
			{
				"x": -2.4807716908,
				"y": 4.4683103086,
				"z": -0.6009590324,
				"element": "H" 
			},
			{
				"x": -4.049111383,
				"y": 3.5210342773,
				"z": 1.135633249,
				"element": "H" 
			},
			{
				"x": -3.5320086913,
				"y": 2.1856998448,
				"z": 2.1829663261,
				"element": "H" 
			},
			{
				"x": -3.8145293364,
				"y": 1.904337261,
				"z": 0.4538960696,
				"element": "H" 
			},
			{
				"x": -1.1341376226,
				"y": 4.1645604389,
				"z": 3.7332841946,
				"element": "H" 
			},
			{
				"x": 2.542364822,
				"y": -1.5814057427,
				"z": 1.4271258421,
				"element": "H" 
			}
		],
		 "valence_orbital": [ 
			{
				"type": "occ",
				"energy": -0.3131,
				"method": "rhf"
			},
			{
				"type": "occ",
				"energy": -0.30446,
				"method": "rhf"
			},
			{
				"type": "occ",
				"energy": -0.2696,
				"method": "rhf"
			},
			{
				"type": "occ",
				"energy": -0.23234,
				"method": "rhf"
			},
			{
				"type": "occ",
				"energy": -0.20853,
				"method": "rhf"
			},
			{
				"type": "unocc",
				"energy": 0.00754,
				"method": "rhf"
			},
			{
				"type": "unocc",
				"energy": 0.00854,
				"method": "rhf"
			},
			{
				"type": "unocc",
				"energy": 0.02106,
				"method": "rhf"
			},
			{
				"type": "unocc",
				"energy": 0.06924,
				"method": "rhf"
			},
			{
				"type": "unocc",
				"energy": 0.09148,
				"method": "rhf"
			}
		],
		"cosmo_sigma_profile": { 
			"-0.025": 0.0,
			"-0.024": 0.0,
			"-0.023": 0.0,
			"-0.022": 0.0,
			"-0.021": 0.0,
			"-0.02": 0.0,
			"-0.019": 0.0,
			"-0.018": 0.360360984598,
			"-0.017": 1.01498642369,
			"-0.016": 0.923640380703,
			"-0.015": 0.510272751591,
			"-0.014": 0.702309721559,
			"-0.013": 0.627965426884,
			"-0.012": 1.1650706271,
			"-0.011": 0.782318991437,
			"-0.01": 0.360531231514,
			"-0.009": 0.61683762416,
			"-0.008": 0.414446796396,
			"-0.007": 0.741501258139,
			"-0.006": 1.91251812353,
			"-0.005": 8.72393400886,
			"-0.004": 29.8118292094,
			"-0.003": 46.9063326842,
			"-0.002": 36.4902979464,
			"-0.001": 34.8203340249,
			"0.0": 36.8432630655,
			"0.001": 30.7183673612,
			"0.002": 14.5341351496,
			"0.003": 13.4593881992,
			"0.004": 13.1541495603,
			"0.005": 12.8949070684,
			"0.006": 11.8935659542,
			"0.007": 9.80632183736,
			"0.008": 3.56797266325,
			"0.009": 2.29988139245,
			"0.01": 1.55348034354,
			"0.011": 3.14771508701,
			"0.012": 4.9824595912,
			"0.013": 0.896536299659,
			"0.014": 0.0,
			"0.015": 0.0,
			"0.016": 0.0,
			"0.017": 0.0,
			"0.018": 0.0,
			"0.019": 0.0,
			"0.02": 0.0,
			"0.021": 0.0,
			"0.022": 0.0,
			"0.023": 0.0,
			"0.024": 0.0,
			"0.025": 0.0
		}
	}
}
