{
	 "smiles": "OC(=O)CN1C(=O)C2=C(C=CC=C2)C1=O", 
	 "Tm": 469.15, 
	 "num_atms": 22, 
	 "gaussian": { 
		 "optdone": 1, 
		 "sigma_profile": "yes", 
		 "theory": "DFT", 
		 "functional": "B3LYP", 
		 "basiset": "6-31G**", 
		 "properties": { 
			 "R2extent": 3859.8699, 
			 "electric_dipole_moment_norm": 7.51799650239, 
			 "electric_quadrupole_moment_norm": 12.5766277336, 
			 "total_energy": -740.969352275, 
			 "HOMO_LUMO_gap": 0.15577, 
			 "cosmo_polarized_energy": -16.56, 
			 "cosmo_cavitation_energy": 27.43, 
			 "cosmo_dispersion_energy": -20.02, 
			 "cosmo_repulsion_energy": 1.54, 
			 "cosmo_total_nonelectrostatic_energy": 8.94, 
			 "SMD_solvation_energy": 6.88 
		},
		"coords": [
			{
				"x": 1.8305926873,
				"y": 2.3776049583,
				"z": 2.8426755362,
				"element": "O" 
			},
			{
				"x": 1.0536649645,
				"y": 1.3396047411,
				"z": 3.1853557129,
				"element": "C" 
			},
			{
				"x": 0.2223574368,
				"y": 1.4174574657,
				"z": 4.0559764338,
				"element": "O" 
			},
			{
				"x": 1.3227307601,
				"y": 0.0136390755,
				"z": 2.4453991862,
				"element": "C" 
			},
			{
				"x": 1.2657119822,
				"y": 0.0932331258,
				"z": 0.9888571543,
				"element": "N" 
			},
			{
				"x": 2.1929709531,
				"y": 0.7516242149,
				"z": 0.1883951309,
				"element": "C" 
			},
			{
				"x": 3.1109112493,
				"y": 1.4477569245,
				"z": 0.6103283813,
				"element": "O" 
			},
			{
				"x": 1.8274294905,
				"y": 0.4497397979,
				"z": -1.2201181755,
				"element": "C" 
			},
			{
				"x": 0.6996280286,
				"y": -0.3757991572,
				"z": -1.207201634,
				"element": "C" 
			},
			{
				"x": 0.1128694569,
				"y": -0.8200127092,
				"z": -2.3824356726,
				"element": "C" 
			},
			{
				"x": 0.6970729663,
				"y": -0.407694609,
				"z": -3.5883559478,
				"element": "C" 
			},
			{
				"x": 1.8265562448,
				"y": 0.4204822745,
				"z": -3.600789135,
				"element": "C" 
			},
			{
				"x": 2.4114056502,
				"y": 0.8661910068,
				"z": -2.4075277894,
				"element": "C" 
			},
			{
				"x": 0.3275586484,
				"y": -0.639086792,
				"z": 0.2123851528,
				"element": "C" 
			},
			{
				"x": -0.5558465576,
				"y": -1.3310812756,
				"z": 0.6653175653,
				"element": "O" 
			},
			{
				"x": 2.4696531287,
				"y": 2.1276842211,
				"z": 2.1384285088,
				"element": "H" 
			},
			{
				"x": 0.5597294415,
				"y": -0.7000190241,
				"z": 2.7534087578,
				"element": "H" 
			},
			{
				"x": 2.3103903798,
				"y": -0.3602481672,
				"z": 2.743178493,
				"element": "H" 
			},
			{
				"x": -0.76301829,
				"y": -1.46004778,
				"z": -2.3621128022,
				"element": "H" 
			},
			{
				"x": 0.2673357643,
				"y": -0.7345489298,
				"z": -4.5302845829,
				"element": "H" 
			},
			{
				"x": 2.254543435,
				"y": 0.7221203624,
				"z": -4.5518297444,
				"element": "H" 
			},
			{
				"x": 3.2851521793,
				"y": 1.5094002758,
				"z": -2.4060505295,
				"element": "H" 
			}
		],
		 "valence_orbital": [ 
			{
				"type": "occ",
				"energy": -0.30759,
				"method": "rhf"
			},
			{
				"type": "occ",
				"energy": -0.29557,
				"method": "rhf"
			},
			{
				"type": "occ",
				"energy": -0.29519,
				"method": "rhf"
			},
			{
				"type": "occ",
				"energy": -0.29342,
				"method": "rhf"
			},
			{
				"type": "occ",
				"energy": -0.26099,
				"method": "rhf"
			},
			{
				"type": "unocc",
				"energy": -0.10522,
				"method": "rhf"
			},
			{
				"type": "unocc",
				"energy": -0.05953,
				"method": "rhf"
			},
			{
				"type": "unocc",
				"energy": 0.00648,
				"method": "rhf"
			},
			{
				"type": "unocc",
				"energy": 0.00881,
				"method": "rhf"
			},
			{
				"type": "unocc",
				"energy": 0.04882,
				"method": "rhf"
			}
		],
		"cosmo_sigma_profile": { 
			"-0.025": 0.0,
			"-0.024": 0.0,
			"-0.023": 0.0,
			"-0.022": 0.0,
			"-0.021": 0.0,
			"-0.02": 0.0,
			"-0.019": 0.0,
			"-0.018": 0.0,
			"-0.017": 0.0,
			"-0.016": 0.0,
			"-0.015": 0.0,
			"-0.014": 0.0,
			"-0.013": 0.0,
			"-0.012": 0.0,
			"-0.011": 0.142434750745,
			"-0.01": 1.68607925698,
			"-0.009": 2.89031443359,
			"-0.008": 7.73527947197,
			"-0.007": 17.3534372976,
			"-0.006": 19.3199498034,
			"-0.005": 15.1647129223,
			"-0.004": 13.9619291244,
			"-0.003": 10.9266629866,
			"-0.002": 13.39808916,
			"-0.001": 14.4996469774,
			"0.0": 14.3411175968,
			"0.001": 17.0692304904,
			"0.002": 10.2612133228,
			"0.003": 5.27324126496,
			"0.004": 3.53980158717,
			"0.005": 4.81588998641,
			"0.006": 4.58282840545,
			"0.007": 5.13293566121,
			"0.008": 5.67157751888,
			"0.009": 8.80640830064,
			"0.01": 10.4152244158,
			"0.011": 8.68726031555,
			"0.012": 4.4544093549,
			"0.013": 1.01847570186,
			"0.014": 0.0,
			"0.015": 0.0,
			"0.016": 0.0,
			"0.017": 0.0,
			"0.018": 0.0,
			"0.019": 0.0,
			"0.02": 0.0,
			"0.021": 0.0,
			"0.022": 0.0,
			"0.023": 0.0,
			"0.024": 0.0,
			"0.025": 0.0
		}
	}
}
