{
	 "smiles": "O=S(=O)(N1CCNCC1)C1=CC=CC=C1", 
	 "Tm": 385.15, 
	 "num_atms": 29, 
	 "gaussian": { 
		 "optdone": 1, 
		 "sigma_profile": "yes", 
		 "theory": "DFT", 
		 "functional": "B3LYP", 
		 "basiset": "6-31G**", 
		 "properties": { 
			 "R2extent": 3936.242, 
			 "electric_dipole_moment_norm": 5.75399314998, 
			 "electric_quadrupole_moment_norm": 17.6620048035, 
			 "total_energy": -1047.54931777, 
			 "HOMO_LUMO_gap": 0.18844, 
			 "cosmo_polarized_energy": -16.09, 
			 "cosmo_cavitation_energy": 31.84, 
			 "cosmo_dispersion_energy": -23.26, 
			 "cosmo_repulsion_energy": 1.77, 
			 "cosmo_total_nonelectrostatic_energy": 10.35, 
			 "SMD_solvation_energy": 0.79 
		},
		"coords": [
			{
				"x": 2.8393746065,
				"y": 2.0165473226,
				"z": -0.4668368561,
				"element": "O" 
			},
			{
				"x": 1.7623587495,
				"y": 1.2014018544,
				"z": -1.0347643466,
				"element": "S" 
			},
			{
				"x": 1.8527997122,
				"y": 0.5895349805,
				"z": -2.362289324,
				"element": "O" 
			},
			{
				"x": 1.5032303291,
				"y": -0.0580866896,
				"z": 0.0371937422,
				"element": "N" 
			},
			{
				"x": 0.5357869469,
				"y": -1.1004837849,
				"z": -0.3600841995,
				"element": "C" 
			},
			{
				"x": 0.4152549671,
				"y": -2.1002072808,
				"z": 0.7962787204,
				"element": "C" 
			},
			{
				"x": -0.0410310268,
				"y": -1.5010843371,
				"z": 2.0570506781,
				"element": "N" 
			},
			{
				"x": 0.3768109623,
				"y": -0.1007932111,
				"z": 2.2457623332,
				"element": "C" 
			},
			{
				"x": 1.6747784927,
				"y": 0.1701716404,
				"z": 1.486909098,
				"element": "C" 
			},
			{
				"x": 0.2723139667,
				"y": 2.2144293214,
				"z": -1.0289221053,
				"element": "C" 
			},
			{
				"x": 0.1619199929,
				"y": 3.2679768043,
				"z": -0.1160676173,
				"element": "C" 
			},
			{
				"x": -1.0104834369,
				"y": 4.0231616707,
				"z": -0.0879460014,
				"element": "C" 
			},
			{
				"x": -2.0574227101,
				"y": 3.7276603803,
				"z": -0.9651974328,
				"element": "C" 
			},
			{
				"x": -1.9313285295,
				"y": 2.6824544919,
				"z": -1.8826489861,
				"element": "C" 
			},
			{
				"x": -0.7626704136,
				"y": 1.9199725946,
				"z": -1.9211812931,
				"element": "C" 
			},
			{
				"x": 0.895877189,
				"y": -1.5894521392,
				"z": -1.2687011943,
				"element": "H" 
			},
			{
				"x": -0.4548232186,
				"y": -0.668163823,
				"z": -0.5741244822,
				"element": "H" 
			},
			{
				"x": -0.2784864121,
				"y": -2.8970696345,
				"z": 0.5123383074,
				"element": "H" 
			},
			{
				"x": 1.3925318731,
				"y": -2.5767641203,
				"z": 0.9465967103,
				"element": "H" 
			},
			{
				"x": -1.0506922833,
				"y": -1.5659810001,
				"z": 2.1241779966,
				"element": "H" 
			},
			{
				"x": 0.5401656793,
				"y": 0.0941173274,
				"z": 3.3138870145,
				"element": "H" 
			},
			{
				"x": -0.3815952548,
				"y": 0.6198555134,
				"z": 1.899191448,
				"element": "H" 
			},
			{
				"x": 2.4682542785,
				"y": -0.4903602209,
				"z": 1.8566568838,
				"element": "H" 
			},
			{
				"x": 2.0171562993,
				"y": 1.1931076737,
				"z": 1.6469848917,
				"element": "H" 
			},
			{
				"x": 0.9962483682,
				"y": 3.504950467,
				"z": 0.5349707325,
				"element": "H" 
			},
			{
				"x": -1.1019829246,
				"y": 4.8492257101,
				"z": 0.6109899986,
				"element": "H" 
			},
			{
				"x": -2.9668363194,
				"y": 4.3209265576,
				"z": -0.9417407892,
				"element": "H" 
			},
			{
				"x": -2.7381476639,
				"y": 2.4658008998,
				"z": -2.5764637571,
				"element": "H" 
			},
			{
				"x": -0.6335622196,
				"y": 1.1265510315,
				"z": -2.6489201705,
				"element": "H" 
			}
		],
		 "valence_orbital": [ 
			{
				"type": "occ",
				"energy": -0.29748,
				"method": "rhf"
			},
			{
				"type": "occ",
				"energy": -0.27727,
				"method": "rhf"
			},
			{
				"type": "occ",
				"energy": -0.27149,
				"method": "rhf"
			},
			{
				"type": "occ",
				"energy": -0.24455,
				"method": "rhf"
			},
			{
				"type": "occ",
				"energy": -0.22566,
				"method": "rhf"
			},
			{
				"type": "unocc",
				"energy": -0.03722,
				"method": "rhf"
			},
			{
				"type": "unocc",
				"energy": -0.02307,
				"method": "rhf"
			},
			{
				"type": "unocc",
				"energy": 0.05452,
				"method": "rhf"
			},
			{
				"type": "unocc",
				"energy": 0.07084,
				"method": "rhf"
			},
			{
				"type": "unocc",
				"energy": 0.08652,
				"method": "rhf"
			}
		],
		"cosmo_sigma_profile": { 
			"-0.025": 0.0,
			"-0.024": 0.0,
			"-0.023": 0.0,
			"-0.022": 0.0,
			"-0.021": 0.0,
			"-0.02": 0.0,
			"-0.019": 0.0,
			"-0.018": 0.0,
			"-0.017": 0.0,
			"-0.016": 0.0,
			"-0.015": 0.0,
			"-0.014": 0.0,
			"-0.013": 0.0,
			"-0.012": 0.0,
			"-0.011": 0.264961822029,
			"-0.01": 1.71548493272,
			"-0.009": 0.723579537842,
			"-0.008": 1.85182971201,
			"-0.007": 7.01242433543,
			"-0.006": 15.3924499228,
			"-0.005": 21.8313284253,
			"-0.004": 28.4987104599,
			"-0.003": 27.6475932384,
			"-0.002": 22.2318835815,
			"-0.001": 16.0510437334,
			"0.0": 11.7713410425,
			"0.001": 12.2138449699,
			"0.002": 13.6711598637,
			"0.003": 14.9355655171,
			"0.004": 8.62192653955,
			"0.005": 5.1683460807,
			"0.006": 4.85903079667,
			"0.007": 4.55645244988,
			"0.008": 4.28614232882,
			"0.009": 4.29819256405,
			"0.01": 5.74670454918,
			"0.011": 8.94828232597,
			"0.012": 5.85510216627,
			"0.013": 0.60354691383,
			"0.014": 0.54038895057,
			"0.015": 0.583514188276,
			"0.016": 0.512857365971,
			"0.017": 0.466710441504,
			"0.018": 0.329522447371,
			"0.019": 0.0,
			"0.02": 0.0,
			"0.021": 0.0,
			"0.022": 0.0,
			"0.023": 0.0,
			"0.024": 0.0,
			"0.025": 0.0
		}
	}
}
