{
	 "smiles": "CC(C)C1=CN=C(S)N1C1CC1", 
	 "Tm": 449.15, 
	 "num_atms": 26, 
	 "gaussian": { 
		 "optdone": 1, 
		 "sigma_profile": "yes", 
		 "theory": "DFT", 
		 "functional": "B3LYP", 
		 "basiset": "6-31G**", 
		 "properties": { 
			 "R2extent": 3262.0982, 
			 "electric_dipole_moment_norm": 4.85804663831, 
			 "electric_quadrupole_moment_norm": 15.3545618902, 
			 "total_energy": -859.048360733, 
			 "HOMO_LUMO_gap": 0.21649, 
			 "cosmo_polarized_energy": -12.03, 
			 "cosmo_cavitation_energy": 29.48, 
			 "cosmo_dispersion_energy": -21.02, 
			 "cosmo_repulsion_energy": 1.65, 
			 "cosmo_total_nonelectrostatic_energy": 10.1, 
			 "SMD_solvation_energy": 2.35 
		},
		"coords": [
			{
				"x": -2.2206446882,
				"y": 2.6642383741,
				"z": -0.3792377902,
				"element": "C" 
			},
			{
				"x": -1.2158938682,
				"y": 1.4966622153,
				"z": -0.4373297997,
				"element": "C" 
			},
			{
				"x": -1.4487013082,
				"y": 0.6396477565,
				"z": -1.6986377697,
				"element": "C" 
			},
			{
				"x": -1.2805388024,
				"y": 0.6619612808,
				"z": 0.8180809152,
				"element": "C" 
			},
			{
				"x": -2.3499200618,
				"y": 0.0523342887,
				"z": 1.4300204936,
				"element": "C" 
			},
			{
				"x": -1.9810287631,
				"y": -0.5553335715,
				"z": 2.6053600979,
				"element": "N" 
			},
			{
				"x": -0.6908794327,
				"y": -0.3357449022,
				"z": 2.7186107275,
				"element": "C" 
			},
			{
				"x": 0.267330365,
				"y": -0.9905667453,
				"z": 4.0589656907,
				"element": "S" 
			},
			{
				"x": -0.1871669472,
				"y": 0.3778013223,
				"z": 1.6410336355,
				"element": "N" 
			},
			{
				"x": 1.1599185894,
				"y": 0.8578236349,
				"z": 1.4728723455,
				"element": "C" 
			},
			{
				"x": 2.3119396429,
				"y": -0.116218334,
				"z": 1.5099316172,
				"element": "C" 
			},
			{
				"x": 1.9229145445,
				"y": 0.5264809684,
				"z": 0.2094937101,
				"element": "C" 
			},
			{
				"x": -2.1411253673,
				"y": 3.2861958361,
				"z": -1.2775510558,
				"element": "H" 
			},
			{
				"x": -2.0431092807,
				"y": 3.2983154767,
				"z": 0.4944465764,
				"element": "H" 
			},
			{
				"x": -3.2496204284,
				"y": 2.294757806,
				"z": -0.3185709731,
				"element": "H" 
			},
			{
				"x": -0.2117608899,
				"y": 1.928294224,
				"z": -0.5058204251,
				"element": "H" 
			},
			{
				"x": -1.3654125493,
				"y": 1.2507633276,
				"z": -2.6041219273,
				"element": "H" 
			},
			{
				"x": -2.4479295199,
				"y": 0.1920120966,
				"z": -1.6835262262,
				"element": "H" 
			},
			{
				"x": -0.7235574269,
				"y": -0.1769834686,
				"z": -1.770339075,
				"element": "H" 
			},
			{
				"x": -3.377589689,
				"y": 0.0301970689,
				"z": 1.092912419,
				"element": "H" 
			},
			{
				"x": 0.8804386859,
				"y": 0.1569638941,
				"z": 4.4211360557,
				"element": "H" 
			},
			{
				"x": 1.3342054652,
				"y": 1.8433347598,
				"z": 1.901512419,
				"element": "H" 
			},
			{
				"x": 2.069953678,
				"y": -1.16308353,
				"z": 1.6487238328,
				"element": "H" 
			},
			{
				"x": 3.2203322245,
				"y": 0.2068175008,
				"z": 2.0083628333,
				"element": "H" 
			},
			{
				"x": 2.5551986695,
				"y": 1.3022755294,
				"z": -0.210931091,
				"element": "H" 
			},
			{
				"x": 1.4239471583,
				"y": -0.0978468092,
				"z": -0.5237972364,
				"element": "H" 
			}
		],
		 "valence_orbital": [ 
			{
				"type": "occ",
				"energy": -0.31612,
				"method": "rhf"
			},
			{
				"type": "occ",
				"energy": -0.27143,
				"method": "rhf"
			},
			{
				"type": "occ",
				"energy": -0.26094,
				"method": "rhf"
			},
			{
				"type": "occ",
				"energy": -0.25618,
				"method": "rhf"
			},
			{
				"type": "occ",
				"energy": -0.20667,
				"method": "rhf"
			},
			{
				"type": "unocc",
				"energy": 0.00982,
				"method": "rhf"
			},
			{
				"type": "unocc",
				"energy": 0.04098,
				"method": "rhf"
			},
			{
				"type": "unocc",
				"energy": 0.06794,
				"method": "rhf"
			},
			{
				"type": "unocc",
				"energy": 0.06888,
				"method": "rhf"
			},
			{
				"type": "unocc",
				"energy": 0.0769,
				"method": "rhf"
			}
		],
		"cosmo_sigma_profile": { 
			"-0.025": 0.0,
			"-0.024": 0.0,
			"-0.023": 0.0,
			"-0.022": 0.0,
			"-0.021": 0.0,
			"-0.02": 0.0,
			"-0.019": 0.0,
			"-0.018": 0.0,
			"-0.017": 0.0,
			"-0.016": 0.0,
			"-0.015": 0.0,
			"-0.014": 0.0,
			"-0.013": 0.0,
			"-0.012": 0.0,
			"-0.011": 0.278898293822,
			"-0.01": 1.87375924908,
			"-0.009": 1.62179961709,
			"-0.008": 2.02638470524,
			"-0.007": 2.29491257373,
			"-0.006": 7.55766302436,
			"-0.005": 14.1577169895,
			"-0.004": 16.3714863596,
			"-0.003": 24.7754585286,
			"-0.002": 30.0343256767,
			"-0.001": 24.4934554175,
			"0.0": 21.2258013247,
			"0.001": 22.9054292587,
			"0.002": 12.2617472759,
			"0.003": 9.59148648244,
			"0.004": 8.73591142611,
			"0.005": 7.33309203298,
			"0.006": 5.09991365905,
			"0.007": 3.76150285759,
			"0.008": 2.59120800361,
			"0.009": 3.12863191851,
			"0.01": 1.96014136823,
			"0.011": 1.43089389347,
			"0.012": 1.48656043062,
			"0.013": 1.77642724554,
			"0.014": 0.966943836632,
			"0.015": 1.55111260049,
			"0.016": 0.864678580713,
			"0.017": 1.01786622307,
			"0.018": 0.689180199402,
			"0.019": 0.00578966718178,
			"0.02": 0.0,
			"0.021": 0.0,
			"0.022": 0.0,
			"0.023": 0.0,
			"0.024": 0.0,
			"0.025": 0.0
		}
	}
}
