{
	 "smiles": "COC1=C(OCCO)C=CC(CN)=C1", 
	 "Tm": 387.15, 
	 "num_atms": 29, 
	 "gaussian": { 
		 "optdone": 1, 
		 "sigma_profile": "yes", 
		 "theory": "DFT", 
		 "functional": "B3LYP", 
		 "basiset": "6-31G**", 
		 "properties": { 
			 "R2extent": 3680.0767, 
			 "electric_dipole_moment_norm": 2.97927622922, 
			 "electric_quadrupole_moment_norm": 15.0615848675, 
			 "total_energy": -670.487853657, 
			 "HOMO_LUMO_gap": 0.21252, 
			 "cosmo_polarized_energy": -13.52, 
			 "cosmo_cavitation_energy": 31.45, 
			 "cosmo_dispersion_energy": -22.75, 
			 "cosmo_repulsion_energy": 1.83, 
			 "cosmo_total_nonelectrostatic_energy": 10.53, 
			 "SMD_solvation_energy": 5.2 
		},
		"coords": [
			{
				"x": 1.1837220096,
				"y": 1.9585330953,
				"z": 0.7866495892,
				"element": "C" 
			},
			{
				"x": 0.0681142256,
				"y": 1.0806129559,
				"z": 0.7205546581,
				"element": "O" 
			},
			{
				"x": 0.2651031156,
				"y": -0.1825559718,
				"z": 0.2221659858,
				"element": "C" 
			},
			{
				"x": -0.8784045184,
				"y": -1.0079431215,
				"z": 0.1720775088,
				"element": "C" 
			},
			{
				"x": -2.0567403289,
				"y": -0.518519744,
				"z": 0.6768307287,
				"element": "O" 
			},
			{
				"x": -3.1264380277,
				"y": -0.2513198738,
				"z": -0.251154641,
				"element": "C" 
			},
			{
				"x": -3.5538221567,
				"y": 1.196566647,
				"z": -0.0530123134,
				"element": "C" 
			},
			{
				"x": -2.5154412726,
				"y": 2.0990569065,
				"z": -0.3667152517,
				"element": "O" 
			},
			{
				"x": -0.7677762593,
				"y": -2.2939378267,
				"z": -0.3495561808,
				"element": "C" 
			},
			{
				"x": 0.4589745003,
				"y": -2.7775272255,
				"z": -0.8110623138,
				"element": "C" 
			},
			{
				"x": 1.59747721,
				"y": -1.9720565972,
				"z": -0.7508238878,
				"element": "C" 
			},
			{
				"x": 2.9508999126,
				"y": -2.4918402367,
				"z": -1.201763583,
				"element": "C" 
			},
			{
				"x": 2.8277864508,
				"y": -3.440262823,
				"z": -2.3115661574,
				"element": "N" 
			},
			{
				"x": 1.4896867135,
				"y": -0.6714274792,
				"z": -0.2353217453,
				"element": "C" 
			},
			{
				"x": 0.8064484523,
				"y": 2.8918035863,
				"z": 1.2067489797,
				"element": "H" 
			},
			{
				"x": 1.6049117649,
				"y": 2.1526702549,
				"z": -0.2076309106,
				"element": "H" 
			},
			{
				"x": 1.9677920458,
				"y": 1.5571017889,
				"z": 1.4400817447,
				"element": "H" 
			},
			{
				"x": -3.9580545441,
				"y": -0.9386270201,
				"z": -0.0465678487,
				"element": "H" 
			},
			{
				"x": -2.7777813354,
				"y": -0.4087372682,
				"z": -1.2778025703,
				"element": "H" 
			},
			{
				"x": -4.3964473617,
				"y": 1.4201556628,
				"z": -0.7183575469,
				"element": "H" 
			},
			{
				"x": -3.9076055028,
				"y": 1.3202336606,
				"z": 0.9840985527,
				"element": "H" 
			},
			{
				"x": -1.7385978043,
				"y": 1.823391016,
				"z": 0.14881358,
				"element": "H" 
			},
			{
				"x": -1.6551099861,
				"y": -2.9196583617,
				"z": -0.3769965304,
				"element": "H" 
			},
			{
				"x": 0.5424961016,
				"y": -3.7782499054,
				"z": -1.220194151,
				"element": "H" 
			},
			{
				"x": 3.6055265232,
				"y": -1.6276848821,
				"z": -1.4135857972,
				"element": "H" 
			},
			{
				"x": 3.424310461,
				"y": -3.0306462906,
				"z": -0.3688464808,
				"element": "H" 
			},
			{
				"x": 2.4972431846,
				"y": -2.9579336599,
				"z": -3.1439772416,
				"element": "H" 
			},
			{
				"x": 3.7376909975,
				"y": -3.8325656385,
				"z": -2.537596532,
				"element": "H" 
			},
			{
				"x": 2.372635429,
				"y": -0.0416316484,
				"z": -0.2090896439,
				"element": "H" 
			}
		],
		 "valence_orbital": [ 
			{
				"type": "occ",
				"energy": -0.27889,
				"method": "rhf"
			},
			{
				"type": "occ",
				"energy": -0.24961,
				"method": "rhf"
			},
			{
				"type": "occ",
				"energy": -0.24165,
				"method": "rhf"
			},
			{
				"type": "occ",
				"energy": -0.23585,
				"method": "rhf"
			},
			{
				"type": "occ",
				"energy": -0.21108,
				"method": "rhf"
			},
			{
				"type": "unocc",
				"energy": 0.00144,
				"method": "rhf"
			},
			{
				"type": "unocc",
				"energy": 0.01168,
				"method": "rhf"
			},
			{
				"type": "unocc",
				"energy": 0.08057,
				"method": "rhf"
			},
			{
				"type": "unocc",
				"energy": 0.08951,
				"method": "rhf"
			},
			{
				"type": "unocc",
				"energy": 0.09473,
				"method": "rhf"
			}
		],
		"cosmo_sigma_profile": { 
			"-0.025": 0.0,
			"-0.024": 0.0,
			"-0.023": 0.0,
			"-0.022": 0.0,
			"-0.021": 0.0,
			"-0.02": 0.0,
			"-0.019": 0.0,
			"-0.018": 0.0,
			"-0.017": 0.0,
			"-0.016": 0.0,
			"-0.015": 0.0,
			"-0.014": 0.0,
			"-0.013": 0.0,
			"-0.012": 0.0,
			"-0.011": 0.00412406807724,
			"-0.01": 1.30881930861,
			"-0.009": 2.71803343066,
			"-0.008": 2.59266144783,
			"-0.007": 3.29470304746,
			"-0.006": 10.619550432,
			"-0.005": 23.6336033333,
			"-0.004": 28.9878431473,
			"-0.003": 30.6753243361,
			"-0.002": 22.9399788978,
			"-0.001": 16.312335999,
			"0.0": 11.7555278184,
			"0.001": 10.1616372335,
			"0.002": 9.86638694987,
			"0.003": 11.3374457958,
			"0.004": 11.5774962564,
			"0.005": 12.3298202352,
			"0.006": 7.73373136704,
			"0.007": 3.16590441664,
			"0.008": 2.98906866279,
			"0.009": 3.6441561992,
			"0.01": 4.37492084286,
			"0.011": 3.84177308185,
			"0.012": 2.30706602168,
			"0.013": 1.70473485723,
			"0.014": 3.25356212551,
			"0.015": 2.53217973359,
			"0.016": 0.529268134735,
			"0.017": 0.344563436856,
			"0.018": 0.0224808275968,
			"0.019": 0.0,
			"0.02": 0.0,
			"0.021": 0.0,
			"0.022": 0.0,
			"0.023": 0.0,
			"0.024": 0.0,
			"0.025": 0.0
		}
	}
}
