{
	 "smiles": "CN1C(CC#N)=NC2=C1C=CC=C2", 
	 "Tm": 403.15, 
	 "num_atms": 22, 
	 "gaussian": { 
		 "optdone": 1, 
		 "sigma_profile": "yes", 
		 "theory": "DFT", 
		 "functional": "B3LYP", 
		 "basiset": "6-31G**", 
		 "properties": { 
			 "R2extent": 2571.8262, 
			 "electric_dipole_moment_norm": 3.62432258636, 
			 "electric_quadrupole_moment_norm": 14.7627010632, 
			 "total_energy": -550.735346657, 
			 "HOMO_LUMO_gap": 0.2033, 
			 "cosmo_polarized_energy": -14.57, 
			 "cosmo_cavitation_energy": 26.75, 
			 "cosmo_dispersion_energy": -19.01, 
			 "cosmo_repulsion_energy": 1.49, 
			 "cosmo_total_nonelectrostatic_energy": 9.23, 
			 "SMD_solvation_energy": 3.78 
		},
		"coords": [
			{
				"x": -1.2275626603,
				"y": -1.6215038218,
				"z": 0.0149485639,
				"element": "C" 
			},
			{
				"x": -0.5271679969,
				"y": -0.4078958047,
				"z": -0.3713250241,
				"element": "N" 
			},
			{
				"x": -0.9971415912,
				"y": 0.8922222623,
				"z": -0.4117735035,
				"element": "C" 
			},
			{
				"x": -2.3995157813,
				"y": 1.2894574205,
				"z": -0.0294023858,
				"element": "C" 
			},
			{
				"x": -2.7496891691,
				"y": 0.9937382132,
				"z": 1.3663048441,
				"element": "C" 
			},
			{
				"x": -3.0287959599,
				"y": 0.7345777353,
				"z": 2.4625789019,
				"element": "N" 
			},
			{
				"x": -0.1165530469,
				"y": 1.7613554012,
				"z": -0.8444037445,
				"element": "N" 
			},
			{
				"x": 1.0175291386,
				"y": 1.0121588389,
				"z": -1.1201723589,
				"element": "C" 
			},
			{
				"x": 0.7805081977,
				"y": -0.3520663871,
				"z": -0.8322788564,
				"element": "C" 
			},
			{
				"x": 1.7514315119,
				"y": -1.3391823866,
				"z": -1.0191345209,
				"element": "C" 
			},
			{
				"x": 2.9857301079,
				"y": -0.9156820928,
				"z": -1.5059149808,
				"element": "C" 
			},
			{
				"x": 3.2395891294,
				"y": 0.4406416448,
				"z": -1.796059658,
				"element": "C" 
			},
			{
				"x": 2.2662557228,
				"y": 1.4164882665,
				"z": -1.6087827562,
				"element": "C" 
			},
			{
				"x": -2.1494796565,
				"y": -1.3720413495,
				"z": 0.539601199,
				"element": "H" 
			},
			{
				"x": -1.4655390426,
				"y": -2.2348854897,
				"z": -0.8612015172,
				"element": "H" 
			},
			{
				"x": -0.6031302033,
				"y": -2.2064798163,
				"z": 0.6961795862,
				"element": "H" 
			},
			{
				"x": -2.470491819,
				"y": 2.3675701326,
				"z": -0.196766475,
				"element": "H" 
			},
			{
				"x": -3.1428452334,
				"y": 0.8075259884,
				"z": -0.6781823829,
				"element": "H" 
			},
			{
				"x": 1.5615061568,
				"y": -2.385436725,
				"z": -0.8005716192,
				"element": "H" 
			},
			{
				"x": 3.7711251547,
				"y": -1.6481992422,
				"z": -1.6667071082,
				"element": "H" 
			},
			{
				"x": 4.2172108637,
				"y": 0.7247201468,
				"z": -2.1737760324,
				"element": "H" 
			},
			{
				"x": 2.4547261769,
				"y": 2.4620170651,
				"z": -1.8297601711,
				"element": "H" 
			}
		],
		 "valence_orbital": [ 
			{
				"type": "occ",
				"energy": -0.33462,
				"method": "rhf"
			},
			{
				"type": "occ",
				"energy": -0.30305,
				"method": "rhf"
			},
			{
				"type": "occ",
				"energy": -0.28004,
				"method": "rhf"
			},
			{
				"type": "occ",
				"energy": -0.23255,
				"method": "rhf"
			},
			{
				"type": "occ",
				"energy": -0.22921,
				"method": "rhf"
			},
			{
				"type": "unocc",
				"energy": -0.02591,
				"method": "rhf"
			},
			{
				"type": "unocc",
				"energy": 0.01373,
				"method": "rhf"
			},
			{
				"type": "unocc",
				"energy": 0.02198,
				"method": "rhf"
			},
			{
				"type": "unocc",
				"energy": 0.02705,
				"method": "rhf"
			},
			{
				"type": "unocc",
				"energy": 0.05088,
				"method": "rhf"
			}
		],
		"cosmo_sigma_profile": { 
			"-0.025": 0.0,
			"-0.024": 0.0,
			"-0.023": 0.0,
			"-0.022": 0.0,
			"-0.021": 0.0,
			"-0.02": 0.0,
			"-0.019": 0.0,
			"-0.018": 0.0,
			"-0.017": 0.0,
			"-0.016": 0.0,
			"-0.015": 0.0,
			"-0.014": 0.0,
			"-0.013": 0.0,
			"-0.012": 0.0,
			"-0.011": 0.064591764726,
			"-0.01": 4.85529308834,
			"-0.009": 5.51911695806,
			"-0.008": 4.06980421644,
			"-0.007": 7.53147297441,
			"-0.006": 16.9094511149,
			"-0.005": 17.0651562908,
			"-0.004": 18.7071453347,
			"-0.003": 16.4634947,
			"-0.002": 11.2289607581,
			"-0.001": 10.7610220626,
			"0.0": 9.20443790903,
			"0.001": 8.53346138734,
			"0.002": 9.01792544755,
			"0.003": 11.6818635326,
			"0.004": 11.7493577359,
			"0.005": 13.6470169691,
			"0.006": 10.0430158002,
			"0.007": 4.49666478746,
			"0.008": 3.62558333309,
			"0.009": 4.28658776583,
			"0.01": 3.82060494004,
			"0.011": 3.88351353348,
			"0.012": 3.38047888936,
			"0.013": 1.82856192336,
			"0.014": 0.706033535563,
			"0.015": 0.88615803577,
			"0.016": 0.818205157145,
			"0.017": 0.463675272014,
			"0.018": 0.0,
			"0.019": 0.0,
			"0.02": 0.0,
			"0.021": 0.0,
			"0.022": 0.0,
			"0.023": 0.0,
			"0.024": 0.0,
			"0.0": 0.0
		}
	}
}
