{
	 "smiles": "O=C1CC(CN1)C1CC1", 
	 "Tm": 373.15, 
	 "num_atms": 20, 
	 "gaussian": { 
		 "optdone": 1, 
		 "sigma_profile": "yes", 
		 "theory": "DFT", 
		 "functional": "B3LYP", 
		 "basiset": "6-31G**", 
		 "properties": { 
			 "R2extent": 2272.8831, 
			 "electric_dipole_moment_norm": 3.82230723778, 
			 "electric_quadrupole_moment_norm": 19.1182571162, 
			 "total_energy": -403.333950787, 
			 "HOMO_LUMO_gap": 0.27331, 
			 "cosmo_polarized_energy": -11.46, 
			 "cosmo_cavitation_energy": 21.76, 
			 "cosmo_dispersion_energy": -16.28, 
			 "cosmo_repulsion_energy": 1.36, 
			 "cosmo_total_nonelectrostatic_energy": 6.84, 
			 "SMD_solvation_energy": 3.52 
		},
		"coords": [
			{
				"x": -3.1445115562,
				"y": 3.1591154533,
				"z": 1.5733878422,
				"element": "O" 
			},
			{
				"x": -2.4293862583,
				"y": 2.1742580146,
				"z": 1.6296983145,
				"element": "C" 
			},
			{
				"x": -2.8355554282,
				"y": 0.7455962336,
				"z": 2.0002968737,
				"element": "C" 
			},
			{
				"x": -1.6237404424,
				"y": -0.140737599,
				"z": 1.6250200265,
				"element": "C" 
			},
			{
				"x": -0.4376031502,
				"y": 0.8654174885,
				"z": 1.6464542966,
				"element": "C" 
			},
			{
				"x": -1.0783092099,
				"y": 2.1450199896,
				"z": 1.3906520873,
				"element": "N" 
			},
			{
				"x": -1.843405702,
				"y": -0.8483194985,
				"z": 0.2901267098,
				"element": "C" 
			},
			{
				"x": -1.5282497823,
				"y": -0.2213592946,
				"z": -1.0464261125,
				"element": "C" 
			},
			{
				"x": -0.7218470649,
				"y": -1.4005067762,
				"z": -0.5538867816,
				"element": "C" 
			},
			{
				"x": -3.7593776153,
				"y": 0.4691757979,
				"z": 1.4865930513,
				"element": "H" 
			},
			{
				"x": -3.0420272727,
				"y": 0.7278248116,
				"z": 3.0771418792,
				"element": "H" 
			},
			{
				"x": -1.45389428,
				"y": -0.9105273396,
				"z": 2.3858218999,
				"element": "H" 
			},
			{
				"x": 0.0634534337,
				"y": 0.8514941159,
				"z": 2.6251112782,
				"element": "H" 
			},
			{
				"x": 0.3224045393,
				"y": 0.6451794201,
				"z": 0.8898321181,
				"element": "H" 
			},
			{
				"x": -0.5711232876,
				"y": 3.0085939233,
				"z": 1.2613565923,
				"element": "H" 
			},
			{
				"x": -2.7423440958,
				"y": -1.4631682454,
				"z": 0.3067031936,
				"element": "H" 
			},
			{
				"x": -1.051132271,
				"y": 0.753882797,
				"z": -1.054423151,
				"element": "H" 
			},
			{
				"x": -2.2263254256,
				"y": -0.3749708882,
				"z": -1.8636704118,
				"element": "H" 
			},
			{
				"x": 0.3039466865,
				"y": -1.2207211436,
				"z": -0.2431693828,
				"element": "H" 
			},
			{
				"x": -0.8690718172,
				"y": -2.3658472602,
				"z": -1.0290203236,
				"element": "H" 
			}
		],
		 "valence_orbital": [ 
			{
				"type": "occ",
				"energy": -0.33201,
				"method": "rhf"
			},
			{
				"type": "occ",
				"energy": -0.29108,
				"method": "rhf"
			},
			{
				"type": "occ",
				"energy": -0.28739,
				"method": "rhf"
			},
			{
				"type": "occ",
				"energy": -0.24816,
				"method": "rhf"
			},
			{
				"type": "occ",
				"energy": -0.23586,
				"method": "rhf"
			},
			{
				"type": "unocc",
				"energy": 0.03745,
				"method": "rhf"
			},
			{
				"type": "unocc",
				"energy": 0.07673,
				"method": "rhf"
			},
			{
				"type": "unocc",
				"energy": 0.09248,
				"method": "rhf"
			},
			{
				"type": "unocc",
				"energy": 0.10239,
				"method": "rhf"
			},
			{
				"type": "unocc",
				"energy": 0.10701,
				"method": "rhf"
			}
		],
		"cosmo_sigma_profile": { 
			"-0.025": 0.0,
			"-0.024": 0.0,
			"-0.023": 0.0,
			"-0.022": 0.0,
			"-0.021": 0.0,
			"-0.02": 0.0,
			"-0.019": 0.0,
			"-0.018": 0.0,
			"-0.017": 0.0,
			"-0.016": 0.0,
			"-0.015": 0.0,
			"-0.014": 0.720741333604,
			"-0.013": 1.15760301497,
			"-0.012": 1.15082720993,
			"-0.011": 1.04125689757,
			"-0.01": 0.861493468103,
			"-0.009": 0.852052891444,
			"-0.008": 0.546005322223,
			"-0.007": 1.3698251177,
			"-0.006": 2.91575182347,
			"-0.005": 9.28316967934,
			"-0.004": 21.6832127898,
			"-0.003": 25.4318697246,
			"-0.002": 19.6845079907,
			"-0.001": 14.6917873254,
			"0.0": 10.8975853118,
			"0.001": 9.64021040862,
			"0.002": 9.11370075655,
			"0.003": 6.60060917676,
			"0.004": 5.58150945311,
			"0.005": 3.1041654182,
			"0.006": 2.56720777942,
			"0.007": 1.07863543721,
			"0.008": 1.20835966456,
			"0.009": 1.9053476837,
			"0.01": 0.954688966751,
			"0.011": 1.20359716151,
			"0.012": 1.66540657313,
			"0.013": 2.78676029608,
			"0.014": 6.55158421866,
			"0.015": 3.43241582841,
			"0.016": 0.251355977866,
			"0.017": 0.0,
			"0.018": 0.0,
			"0.019": 0.0,
			"0.02": 0.0,
			"0.021": 0.0,
			"0.022": 0.0,
			"0.023": 0.0,
			"0.024": 0.0,
			"0.025": 0.0
		}
	}
}
