{
	 "smiles": "CC1CC2C3CCC4=CC(=O)C=CC4(C)C3(F)C(O)CC2(C)C1(O)C(=O)COC(C)=O", 
	 "Tm": 536.15, 
	 "num_atms": 62, 
	 "gaussian": { 
		 "optdone": 1, 
		 "sigma_profile": "yes", 
		 "theory": "DFT", 
		 "functional": "B3LYP", 
		 "basiset": "6-31G**", 
		 "properties": { 
			 "R2extent": 11336.1735, 
			 "electric_dipole_moment_norm": 4.81614236501, 
			 "electric_quadrupole_moment_norm": 32.0046605072, 
			 "total_energy": -1484.3793142, 
			 "HOMO_LUMO_gap": 0.16519, 
			 "cosmo_polarized_energy": -24.6, 
			 "cosmo_cavitation_energy": 54.21, 
			 "cosmo_dispersion_energy": -35.56, 
			 "cosmo_repulsion_energy": 2.55, 
			 "cosmo_total_nonelectrostatic_energy": 21.19, 
			 "SMD_solvation_energy": 10.56 
		},
		"coords": [
			{
				"x": -4.5636589092,
				"y": -0.6819770027,
				"z": -1.5884241935,
				"element": "C" 
			},
			{
				"x": -3.1524230003,
				"y": -1.2693164646,
				"z": -1.6976137141,
				"element": "C" 
			},
			{
				"x": -2.0454785264,
				"y": -0.2710559772,
				"z": -2.1503221232,
				"element": "C" 
			},
			{
				"x": -0.9053124597,
				"y": -0.4161020709,
				"z": -1.1180157757,
				"element": "C" 
			},
			{
				"x": 0.531517215,
				"y": -0.0505826756,
				"z": -1.555177034,
				"element": "C" 
			},
			{
				"x": 0.604970631,
				"y": 1.4628314514,
				"z": -1.9076099542,
				"element": "C" 
			},
			{
				"x": 1.0165821243,
				"y": 2.3428098548,
				"z": -0.7219577616,
				"element": "C" 
			},
			{
				"x": 2.2918781141,
				"y": 1.8910533802,
				"z": -0.0387842465,
				"element": "C" 
			},
			{
				"x": 2.9474825865,
				"y": 2.6959429783,
				"z": 0.8184883967,
				"element": "C" 
			},
			{
				"x": 4.1156256358,
				"y": 2.2663474294,
				"z": 1.6113987874,
				"element": "C" 
			},
			{
				"x": 4.7177198439,
				"y": 3.0411019836,
				"z": 2.3532394306,
				"element": "O" 
			},
			{
				"x": 4.4886178536,
				"y": 0.845125614,
				"z": 1.4850243123,
				"element": "C" 
			},
			{
				"x": 3.8364988027,
				"y": 0.0224740516,
				"z": 0.6522951787,
				"element": "C" 
			},
			{
				"x": 2.7941745014,
				"y": 0.4884935265,
				"z": -0.3408195602,
				"element": "C" 
			},
			{
				"x": 3.5944836503,
				"y": 0.4897183766,
				"z": -1.6959517477,
				"element": "C" 
			},
			{
				"x": 1.5822400908,
				"y": -0.4977725029,
				"z": -0.4658777586,
				"element": "C" 
			},
			{
				"x": 2.1637432549,
				"y": -1.7318715789,
				"z": -0.8824462102,
				"element": "F" 
			},
			{
				"x": 0.8710852638,
				"y": -0.8221302223,
				"z": 0.872065763,
				"element": "C" 
			},
			{
				"x": 1.7563743425,
				"y": -1.1466143485,
				"z": 1.9318775489,
				"element": "O" 
			},
			{
				"x": -0.1880356172,
				"y": -1.9486968021,
				"z": 0.7325724233,
				"element": "C" 
			},
			{
				"x": -1.0421710854,
				"y": -1.8484314207,
				"z": -0.5586650473,
				"element": "C" 
			},
			{
				"x": -0.5746692986,
				"y": -2.9221706407,
				"z": -1.5688885215,
				"element": "C" 
			},
			{
				"x": -2.6222297606,
				"y": -2.0129020899,
				"z": -0.4200429895,
				"element": "C" 
			},
			{
				"x": -3.0361925976,
				"y": -3.3597182188,
				"z": -0.492134545,
				"element": "O" 
			},
			{
				"x": -3.1624586526,
				"y": -1.4865998114,
				"z": 0.933276344,
				"element": "C" 
			},
			{
				"x": -3.5747502785,
				"y": -2.3010107097,
				"z": 1.7432735357,
				"element": "O" 
			},
			{
				"x": -3.2181741121,
				"y": -0.0087959499,
				"z": 1.3378160027,
				"element": "C" 
			},
			{
				"x": -2.4757331709,
				"y": 0.1294927886,
				"z": 2.56370372,
				"element": "O" 
			},
			{
				"x": -1.5892017704,
				"y": 1.1560779301,
				"z": 2.6458234685,
				"element": "C" 
			},
			{
				"x": -0.8273767317,
				"y": 1.1042344897,
				"z": 3.9435328308,
				"element": "C" 
			},
			{
				"x": -1.4198816041,
				"y": 1.9680437996,
				"z": 1.7591810633,
				"element": "O" 
			},
			{
				"x": -4.9269268813,
				"y": -0.3744380775,
				"z": -2.5743654252,
				"element": "H" 
			},
			{
				"x": -5.2632815736,
				"y": -1.4292848359,
				"z": -1.1988019296,
				"element": "H" 
			},
			{
				"x": -4.6079850693,
				"y": 0.2039984298,
				"z": -0.9449640663,
				"element": "H" 
			},
			{
				"x": -3.2116427955,
				"y": -2.0801408706,
				"z": -2.4291924518,
				"element": "H" 
			},
			{
				"x": -2.4257244133,
				"y": 0.7551807536,
				"z": -2.1908058838,
				"element": "H" 
			},
			{
				"x": -1.7010175432,
				"y": -0.5158846501,
				"z": -3.1613354051,
				"element": "H" 
			},
			{
				"x": -1.1437421814,
				"y": 0.2744659645,
				"z": -0.3024693496,
				"element": "H" 
			},
			{
				"x": 0.7853852115,
				"y": -0.6265626071,
				"z": -2.4514042886,
				"element": "H" 
			},
			{
				"x": -0.3749254206,
				"y": 1.7894817757,
				"z": -2.2678467415,
				"element": "H" 
			},
			{
				"x": 1.2891814739,
				"y": 1.6281147452,
				"z": -2.7433689303,
				"element": "H" 
			},
			{
				"x": 1.1187835918,
				"y": 3.3852098557,
				"z": -1.0441699534,
				"element": "H" 
			},
			{
				"x": 0.214300093,
				"y": 2.3452901139,
				"z": 0.0282052289,
				"element": "H" 
			},
			{
				"x": 2.6116497853,
				"y": 3.7153688152,
				"z": 0.9949708157,
				"element": "H" 
			},
			{
				"x": 5.3027048332,
				"y": 0.4992482809,
				"z": 2.1150234007,
				"element": "H" 
			},
			{
				"x": 4.1409327259,
				"y": -1.0160093655,
				"z": 0.5538813268,
				"element": "H" 
			},
			{
				"x": 4.0144041613,
				"y": -0.5023823937,
				"z": -1.8726167636,
				"element": "H" 
			},
			{
				"x": 2.9808345174,
				"y": 0.7502436143,
				"z": -2.5569953602,
				"element": "H" 
			},
			{
				"x": 4.4113583825,
				"y": 1.2102788068,
				"z": -1.6229633459,
				"element": "H" 
			},
			{
				"x": 0.3923477882,
				"y": 0.1046434223,
				"z": 1.1971523185,
				"element": "H" 
			},
			{
				"x": 2.1708409398,
				"y": -1.9934331781,
				"z": 1.7152268682,
				"element": "H" 
			},
			{
				"x": -0.7911951706,
				"y": -1.9296897078,
				"z": 1.6453829283,
				"element": "H" 
			},
			{
				"x": 0.3447103543,
				"y": -2.9062139144,
				"z": 0.7466153789,
				"element": "H" 
			},
			{
				"x": 0.5039779731,
				"y": -2.8713662466,
				"z": -1.7079306976,
				"element": "H" 
			},
			{
				"x": -1.0543186177,
				"y": -2.8156433769,
				"z": -2.5459962846,
				"element": "H" 
			},
			{
				"x": -0.8354222261,
				"y": -3.9114756169,
				"z": -1.189264452,
				"element": "H" 
			},
			{
				"x": -3.3013875127,
				"y": -3.6046539467,
				"z": 0.4131335033,
				"element": "H" 
			},
			{
				"x": -2.8418763268,
				"y": 0.6878241202,
				"z": 0.5930516919,
				"element": "H" 
			},
			{
				"x": -4.2658790524,
				"y": 0.2259458714,
				"z": 1.5531428608,
				"element": "H" 
			},
			{
				"x": 0.0122830588,
				"y": 0.4089979764,
				"z": 3.8248555767,
				"element": "H" 
			},
			{
				"x": -1.456547495,
				"y": 0.7402341811,
				"z": 4.7575036553,
				"element": "H" 
			},
			{
				"x": -0.4294689457,
				"y": 2.0935528934,
				"z": 4.1694081521,
				"element": "H" 
			}
		],
		 "valence_orbital": [ 
			{
				"type": "occ",
				"energy": -0.28004,
				"method": "rhf"
			},
			{
				"type": "occ",
				"energy": -0.26234,
				"method": "rhf"
			},
			{
				"type": "occ",
				"energy": -0.25218,
				"method": "rhf"
			},
			{
				"type": "occ",
				"energy": -0.24571,
				"method": "rhf"
			},
			{
				"type": "occ",
				"energy": -0.22645,
				"method": "rhf"
			},
			{
				"type": "unocc",
				"energy": -0.06126,
				"method": "rhf"
			},
			{
				"type": "unocc",
				"energy": -0.05013,
				"method": "rhf"
			},
			{
				"type": "unocc",
				"energy": -0.01168,
				"method": "rhf"
			},
			{
				"type": "unocc",
				"energy": 0.00447,
				"method": "rhf"
			},
			{
				"type": "unocc",
				"energy": 0.05928,
				"method": "rhf"
			}
		],
		"cosmo_sigma_profile": { 
			"-0.025": -9.29173614671,
			"-0.024": 0.02924538108,
			"-0.023": 0.039169620908,
			"-0.022": 0.0117987787805,
			"-0.021": 0.00526243661957,
			"-0.02": 0.0,
			"-0.019": 0.0,
			"-0.018": 0.0,
			"-0.017": 0.00887962488103,
			"-0.016": 0.00187757511897,
			"-0.015": 0.496841964751,
			"-0.014": 0.538273107133,
			"-0.013": 0.770958881894,
			"-0.012": 1.00194767851,
			"-0.011": 0.487488991473,
			"-0.01": 1.51137283268,
			"-0.009": 2.54176575697,
			"-0.008": 5.71941150636,
			"-0.007": 8.37694681652,
			"-0.006": 13.920863445,
			"-0.005": 18.6031198451,
			"-0.004": 40.6008114367,
			"-0.003": 48.8807752339,
			"-0.002": 46.5140832302,
			"-0.001": 46.4507385355,
			"0.0": 36.9284994821,
			"0.001": 25.8877257217,
			"0.002": 21.6472976843,
			"0.003": 13.7280371952,
			"0.004": 11.4246002386,
			"0.005": 12.6023443859,
			"0.006": 7.84597609035,
			"0.007": 6.33309531611,
			"0.008": 7.54732625608,
			"0.009": 9.04876302388,
			"0.01": 9.49542041873,
			"0.011": 6.46323442526,
			"0.012": 4.34175008887,
			"0.013": 5.10154017074,
			"0.014": 4.94799111031,
			"0.015": 1.88358339908,
			"0.016": 0.0,
			"0.017": 0.0,
			"0.018": 0.0,
			"0.019": 0.0,
			"0.02": 0.0,
			"0.021": 0.0,
			"0.022": 0.0,
			"0.023": 0.0,
			"0.024": 0.134051203664,
			"0.025": 0.10752827666
		}
	}
}
