{
	 "smiles": "OC(=O)CS(=O)(=O)CCCC1=CC=CC=C1", 
	 "Tm": 371.15, 
	 "num_atms": 30, 
	 "gaussian": { 
		 "optdone": 1, 
		 "sigma_profile": "yes", 
		 "theory": "DFT", 
		 "functional": "B3LYP", 
		 "basiset": "6-31G**", 
		 "properties": { 
			 "R2extent": 4667.5089, 
			 "electric_dipole_moment_norm": 6.4278446302, 
			 "electric_quadrupole_moment_norm": 23.7443211164, 
			 "total_energy": -1126.64013827, 
			 "HOMO_LUMO_gap": 0.23116, 
			 "cosmo_polarized_energy": -24.13, 
			 "cosmo_cavitation_energy": 34.48, 
			 "cosmo_dispersion_energy": -24.17, 
			 "cosmo_repulsion_energy": 1.86, 
			 "cosmo_total_nonelectrostatic_energy": 12.17, 
			 "SMD_solvation_energy": 6.12 
		},
		"coords": [
			{
				"x": -1.1451335901,
				"y": -1.7067048618,
				"z": -3.4515613943,
				"element": "O" 
			},
			{
				"x": -1.0976881605,
				"y": -2.9045309785,
				"z": -2.8669514123,
				"element": "C" 
			},
			{
				"x": -1.4881839994,
				"y": -3.9129331838,
				"z": -3.3991170637,
				"element": "O" 
			},
			{
				"x": -0.4358462585,
				"y": -2.9857669427,
				"z": -1.4735360063,
				"element": "C" 
			},
			{
				"x": -0.7069626121,
				"y": -1.5262527183,
				"z": -0.4095483346,
				"element": "S" 
			},
			{
				"x": -2.0548907567,
				"y": -1.5986509817,
				"z": 0.1700134082,
				"element": "O" 
			},
			{
				"x": -0.3161359095,
				"y": -0.3674283592,
				"z": -1.2557836272,
				"element": "O" 
			},
			{
				"x": 0.5273534619,
				"y": -1.7560521417,
				"z": 0.9251927271,
				"element": "C" 
			},
			{
				"x": 0.1343989725,
				"y": -1.1175877503,
				"z": 2.267519609,
				"element": "C" 
			},
			{
				"x": 0.6022714769,
				"y": 0.3344005555,
				"z": 2.4917995864,
				"element": "C" 
			},
			{
				"x": -0.0419582368,
				"y": 1.391809941,
				"z": 1.6169240714,
				"element": "C" 
			},
			{
				"x": -1.4233818021,
				"y": 1.6278054841,
				"z": 1.6741518455,
				"element": "C" 
			},
			{
				"x": -2.0118234821,
				"y": 2.615516492,
				"z": 0.885959414,
				"element": "C" 
			},
			{
				"x": -1.2266293382,
				"y": 3.390917894,
				"z": 0.0298982412,
				"element": "C" 
			},
			{
				"x": 0.1488886559,
				"y": 3.1701622454,
				"z": -0.0319097451,
				"element": "C" 
			},
			{
				"x": 0.73342105,
				"y": 2.1777439683,
				"z": 0.7564654358,
				"element": "C" 
			},
			{
				"x": -0.8156388564,
				"y": -1.0025922479,
				"z": -2.8445717691,
				"element": "H" 
			},
			{
				"x": -0.8141613449,
				"y": -3.8707465385,
				"z": -0.9618509158,
				"element": "H" 
			},
			{
				"x": 0.6473750748,
				"y": -3.0725676803,
				"z": -1.6131442319,
				"element": "H" 
			},
			{
				"x": 0.5955513604,
				"y": -2.8432775662,
				"z": 1.0335849999,
				"element": "H" 
			},
			{
				"x": 1.4751636716,
				"y": -1.3816818832,
				"z": 0.5284657296,
				"element": "H" 
			},
			{
				"x": -0.9502682175,
				"y": -1.2014267972,
				"z": 2.3919777475,
				"element": "H" 
			},
			{
				"x": 0.580961332,
				"y": -1.7417233605,
				"z": 3.0503635621,
				"element": "H" 
			},
			{
				"x": 0.4058658147,
				"y": 0.5706099631,
				"z": 3.545948386,
				"element": "H" 
			},
			{
				"x": 1.6916880022,
				"y": 0.3785269953,
				"z": 2.3714802918,
				"element": "H" 
			},
			{
				"x": -2.0461783166,
				"y": 1.0334996737,
				"z": 2.3380545521,
				"element": "H" 
			},
			{
				"x": -3.0840471137,
				"y": 2.7803880942,
				"z": 0.9407048911,
				"element": "H" 
			},
			{
				"x": -1.6852766976,
				"y": 4.1604616192,
				"z": -0.5842347778,
				"element": "H" 
			},
			{
				"x": 0.7684420407,
				"y": 3.7674669587,
				"z": -0.6948643873,
				"element": "H" 
			},
			{
				"x": 1.807023779,
				"y": 2.0121141074,
				"z": 0.7032691669,
				"element": "H" 
			}
		],
		 "valence_orbital": [ 
			{
				"type": "occ",
				"energy": -0.31603,
				"method": "rhf"
			},
			{
				"type": "occ",
				"energy": -0.30833,
				"method": "rhf"
			},
			{
				"type": "occ",
				"energy": -0.27753,
				"method": "rhf"
			},
			{
				"type": "occ",
				"energy": -0.24689,
				"method": "rhf"
			},
			{
				"type": "occ",
				"energy": -0.24143,
				"method": "rhf"
			},
			{
				"type": "unocc",
				"energy": -0.01027,
				"method": "rhf"
			},
			{
				"type": "unocc",
				"energy": -0.00227,
				"method": "rhf"
			},
			{
				"type": "unocc",
				"energy": 0.0014,
				"method": "rhf"
			},
			{
				"type": "unocc",
				"energy": 0.03063,
				"method": "rhf"
			},
			{
				"type": "unocc",
				"energy": 0.05011,
				"method": "rhf"
			}
		],
		"cosmo_sigma_profile": { 
			"-0.025": 0.0,
			"-0.024": 0.0,
			"-0.023": 0.0,
			"-0.022": 0.0,
			"-0.021": 0.0,
			"-0.02": 0.0,
			"-0.019": 0.0,
			"-0.018": 0.0,
			"-0.017": 0.0,
			"-0.016": 0.0,
			"-0.015": 0.0,
			"-0.014": 0.00101914345897,
			"-0.013": 0.712567080269,
			"-0.012": 2.78344936335,
			"-0.011": 5.42245777677,
			"-0.01": 5.98091768857,
			"-0.009": 6.71579875929,
			"-0.008": 5.96401147364,
			"-0.007": 6.34834587935,
			"-0.006": 10.6578983749,
			"-0.005": 24.0190162318,
			"-0.004": 26.0196758988,
			"-0.003": 23.0233160174,
			"-0.002": 17.2718995816,
			"-0.001": 13.9626487934,
			"0.0": 9.29889348066,
			"0.001": 10.0194850726,
			"0.002": 9.7970008521,
			"0.003": 9.33021055772,
			"0.004": 10.4270776163,
			"0.005": 10.5244663846,
			"0.006": 10.1930600852,
			"0.007": 7.28788636783,
			"0.008": 8.77154866269,
			"0.009": 10.3417111393,
			"0.01": 13.8030555017,
			"0.011": 10.2877375022,
			"0.012": 3.31660619609,
			"0.013": 0.27291662838,
			"0.014": 0.0,
			"0.015": 0.0,
			"0.016": 0.0,
			"0.017": 0.0,
			"0.018": 0.0,
			"0.019": 0.0,
			"0.02": 0.0,
			"0.021": 0.0,
			"0.022": 0.0,
			"0.023": 0.0,
			"0.024": 0.0,
			"0.025": 0.0
		}
	}
}
