{
	 "smiles": "OCCNCC1=CC(Cl)=C(Cl)C=C1", 
	 "Tm": 328.15, 
	 "num_atms": 24, 
	 "gaussian": { 
		 "optdone": 1, 
		 "sigma_profile": "yes", 
		 "theory": "DFT", 
		 "functional": "B3LYP", 
		 "basiset": "6-31G**", 
		 "properties": { 
			 "R2extent": 4877.1655, 
			 "electric_dipole_moment_norm": 0.6733797517, 
			 "electric_quadrupole_moment_norm": 16.680957183, 
			 "total_energy": -1399.92565966, 
			 "HOMO_LUMO_gap": 0.20259, 
			 "cosmo_polarized_energy": -12.26, 
			 "cosmo_cavitation_energy": 31.32, 
			 "cosmo_dispersion_energy": -22.54, 
			 "cosmo_repulsion_energy": 1.83, 
			 "cosmo_total_nonelectrostatic_energy": 10.62, 
			 "SMD_solvation_energy": 2.4 
		},
		"coords": [
			{
				"x": 3.4010653955,
				"y": -1.1789744331,
				"z": 2.6354621835,
				"element": "O" 
			},
			{
				"x": 2.1201530761,
				"y": -1.762113006,
				"z": 2.4549769915,
				"element": "C" 
			},
			{
				"x": 1.5098980572,
				"y": -1.4099722245,
				"z": 1.0960710825,
				"element": "C" 
			},
			{
				"x": 0.2124961195,
				"y": -2.0586751295,
				"z": 0.9371376414,
				"element": "N" 
			},
			{
				"x": -0.4078262726,
				"y": -1.9129338772,
				"z": -0.3833464311,
				"element": "C" 
			},
			{
				"x": -0.7658091295,
				"y": -0.4911875811,
				"z": -0.7961887531,
				"element": "C" 
			},
			{
				"x": -1.949787419,
				"y": 0.0941207447,
				"z": -0.3344525948,
				"element": "C" 
			},
			{
				"x": -2.2792650162,
				"y": 1.4112191094,
				"z": -0.6561988215,
				"element": "C" 
			},
			{
				"x": -3.7785295833,
				"y": 2.0750716777,
				"z": -0.0498028319,
				"element": "Cl" 
			},
			{
				"x": -1.4152804577,
				"y": 2.1700994745,
				"z": -1.4580694583,
				"element": "C" 
			},
			{
				"x": -1.781954234,
				"y": 3.8219723374,
				"z": -1.8915733261,
				"element": "Cl" 
			},
			{
				"x": -0.2339127732,
				"y": 1.5933897669,
				"z": -1.9279831512,
				"element": "C" 
			},
			{
				"x": 0.0849038213,
				"y": 0.277609698,
				"z": -1.5997877308,
				"element": "C" 
			},
			{
				"x": 3.2907440231,
				"y": -0.2194074453,
				"z": 2.6497875651,
				"element": "H" 
			},
			{
				"x": 2.2584248073,
				"y": -2.8444986239,
				"z": 2.5230419523,
				"element": "H" 
			},
			{
				"x": 1.4259184319,
				"y": -1.4720181467,
				"z": 3.2626816574,
				"element": "H" 
			},
			{
				"x": 1.4755726496,
				"y": -0.3082333924,
				"z": 0.9908652034,
				"element": "H" 
			},
			{
				"x": 2.1800837561,
				"y": -1.7770550344,
				"z": 0.3091052295,
				"element": "H" 
			},
			{
				"x": -0.4299340766,
				"y": -1.7194659948,
				"z": 1.6502882303,
				"element": "H" 
			},
			{
				"x": -1.3131318827,
				"y": -2.5307230009,
				"z": -0.3906331588,
				"element": "H" 
			},
			{
				"x": 0.2778128177,
				"y": -2.3439337858,
				"z": -1.1222186824,
				"element": "H" 
			},
			{
				"x": -2.639604554,
				"y": -0.4771579258,
				"z": 0.2800038151,
				"element": "H" 
			},
			{
				"x": 0.426813385,
				"y": 2.1845771222,
				"z": -2.5526086245,
				"element": "H" 
			},
			{
				"x": 1.0046490584,
				"y": -0.1567103292,
				"z": -1.9817579877,
				"element": "H" 
			}
		],
		 "valence_orbital": [ 
			{
				"type": "occ",
				"energy": -0.31198,
				"method": "rhf"
			},
			{
				"type": "occ",
				"energy": -0.2723,
				"method": "rhf"
			},
			{
				"type": "occ",
				"energy": -0.26698,
				"method": "rhf"
			},
			{
				"type": "occ",
				"energy": -0.25312,
				"method": "rhf"
			},
			{
				"type": "occ",
				"energy": -0.23249,
				"method": "rhf"
			},
			{
				"type": "unocc",
				"energy": -0.0299,
				"method": "rhf"
			},
			{
				"type": "unocc",
				"energy": -0.02753,
				"method": "rhf"
			},
			{
				"type": "unocc",
				"energy": -0.00045,
				"method": "rhf"
			},
			{
				"type": "unocc",
				"energy": 0.05781,
				"method": "rhf"
			},
			{
				"type": "unocc",
				"energy": 0.07071,
				"method": "rhf"
			}
		],
		"cosmo_sigma_profile": { 
			"-0.025": 0.0,
			"-0.024": 0.0,
			"-0.023": 0.0,
			"-0.022": 0.0,
			"-0.021": 0.0,
			"-0.02": 0.0,
			"-0.019": 0.0,
			"-0.018": 0.0,
			"-0.017": 0.0,
			"-0.016": 0.0388447403452,
			"-0.015": 0.891222088359,
			"-0.014": 1.13367095514,
			"-0.013": 0.687913754099,
			"-0.012": 0.729098953606,
			"-0.011": 1.38593049524,
			"-0.01": 1.7634024437,
			"-0.009": 2.73321755141,
			"-0.008": 4.27905889135,
			"-0.007": 8.42800195777,
			"-0.006": 9.94164135053,
			"-0.005": 11.8639774795,
			"-0.004": 17.0800781716,
			"-0.003": 16.3238825872,
			"-0.002": 16.8368051215,
			"-0.001": 18.4915969086,
			"0.0": 21.0034018505,
			"0.001": 22.6004725851,
			"0.002": 24.0323910998,
			"0.003": 21.0189436185,
			"0.004": 19.7626365366,
			"0.005": 8.79079501005,
			"0.006": 2.55493812415,
			"0.007": 2.29125884683,
			"0.008": 1.90110910692,
			"0.009": 1.80576121937,
			"0.01": 2.15758683358,
			"0.011": 1.50257275006,
			"0.012": 2.04455910616,
			"0.013": 2.00299714674,
			"0.014": 2.83130445928,
			"0.015": 1.48020866212,
			"0.016": 0.640623846137,
			"0.017": 0.247430673193,
			"0.018": 0.0173139650266,
			"0.019": 0.0,
			"0.02": 0.0,
			"0.021": 0.0,
			"0.022": 0.0,
			"0.023": 0.0,
			"0.024": 0.0,
			"0.025": 0.0
		}
	}
}
