{
	 "smiles": "COC1=CC=C(NC(=O)C(O)=O)C=C1", 
	 "Tm": 480.15, 
	 "num_atms": 23, 
	 "gaussian": { 
		 "optdone": 1, 
		 "sigma_profile": "yes", 
		 "theory": "DFT", 
		 "functional": "B3LYP", 
		 "basiset": "6-31G**", 
		 "properties": { 
			 "R2extent": 4713.1349, 
			 "electric_dipole_moment_norm": 4.59734278252, 
			 "electric_quadrupole_moment_norm": 18.8060040902, 
			 "total_energy": -704.025153219, 
			 "HOMO_LUMO_gap": 0.20172, 
			 "cosmo_polarized_energy": -17.08, 
			 "cosmo_cavitation_energy": 28.6, 
			 "cosmo_dispersion_energy": -20.39, 
			 "cosmo_repulsion_energy": 1.64, 
			 "cosmo_total_nonelectrostatic_energy": 9.85, 
			 "SMD_solvation_energy": 7.71 
		},
		"coords": [
			{
				"x": 1.151252009,
				"y": 2.8869180455,
				"z": -1.4518322908,
				"element": "C" 
			},
			{
				"x": 1.5053772149,
				"y": 2.7257394495,
				"z": -0.0864311884,
				"element": "O" 
			},
			{
				"x": 0.6662091011,
				"y": 2.0157042718,
				"z": 0.7188798958,
				"element": "C" 
			},
			{
				"x": -0.5316020207,
				"y": 1.4247133775,
				"z": 0.3019262231,
				"element": "C" 
			},
			{
				"x": -1.3247405244,
				"y": 0.73058062,
				"z": 1.219664684,
				"element": "C" 
			},
			{
				"x": -0.9137207778,
				"y": 0.5883396038,
				"z": 2.5463145515,
				"element": "C" 
			},
			{
				"x": -1.7112385979,
				"y": -0.1044077652,
				"z": 3.5038948683,
				"element": "N" 
			},
			{
				"x": -2.2326768873,
				"y": -1.3635273542,
				"z": 3.4314999606,
				"element": "C" 
			},
			{
				"x": -2.9075721154,
				"y": -1.8693850272,
				"z": 4.3136917412,
				"element": "O" 
			},
			{
				"x": -1.970941217,
				"y": -2.1723872176,
				"z": 2.155045276,
				"element": "C" 
			},
			{
				"x": -0.8915808352,
				"y": -2.9616318462,
				"z": 2.294599477,
				"element": "O" 
			},
			{
				"x": -2.6984734764,
				"y": -2.1754148049,
				"z": 1.1885423794,
				"element": "O" 
			},
			{
				"x": 0.2908081765,
				"y": 1.1792865156,
				"z": 2.9585593649,
				"element": "C" 
			},
			{
				"x": 1.0673907882,
				"y": 1.8943879649,
				"z": 2.0593347042,
				"element": "C" 
			},
			{
				"x": 1.9524692856,
				"y": 3.4737538806,
				"z": -1.9031395676,
				"element": "H" 
			},
			{
				"x": 0.2021691846,
				"y": 3.4267631273,
				"z": -1.5626660469,
				"element": "H" 
			},
			{
				"x": 1.0770360702,
				"y": 1.9207878882,
				"z": -1.9672252055,
				"element": "H" 
			},
			{
				"x": -0.8708578983,
				"y": 1.5113389286,
				"z": -0.723143812,
				"element": "H" 
			},
			{
				"x": -2.2647400128,
				"y": 0.2969999113,
				"z": 0.8977647002,
				"element": "H" 
			},
			{
				"x": -1.8872860987,
				"y": 0.3441172008,
				"z": 4.3959377799,
				"element": "H" 
			},
			{
				"x": -0.8426931484,
				"y": -3.5112574167,
				"z": 1.4922619571,
				"element": "H" 
			},
			{
				"x": 0.6165541367,
				"y": 1.0689458607,
				"z": 3.9889647362,
				"element": "H" 
			},
			{
				"x": 1.9982576434,
				"y": 2.3591347858,
				"z": 2.3664558118,
				"element": "H" 
			}
		],
		 "valence_orbital": [ 
			{
				"type": "occ",
				"energy": -0.30924,
				"method": "rhf"
			},
			{
				"type": "occ",
				"energy": -0.28278,
				"method": "rhf"
			},
			{
				"type": "occ",
				"energy": -0.26565,
				"method": "rhf"
			},
			{
				"type": "occ",
				"energy": -0.25738,
				"method": "rhf"
			},
			{
				"type": "occ",
				"energy": -0.22162,
				"method": "rhf"
			},
			{
				"type": "unocc",
				"energy": -0.0199,
				"method": "rhf"
			},
			{
				"type": "unocc",
				"energy": -0.01258,
				"method": "rhf"
			},
			{
				"type": "unocc",
				"energy": -0.00205,
				"method": "rhf"
			},
			{
				"type": "unocc",
				"energy": 0.01946,
				"method": "rhf"
			},
			{
				"type": "unocc",
				"energy": 0.07598,
				"method": "rhf"
			}
		],
		"cosmo_sigma_profile": { 
			"-0.025": 0.0,
			"-0.024": 0.0,
			"-0.023": 0.0,
			"-0.022": 0.0,
			"-0.021": 0.0,
			"-0.02": 0.0633665584121,
			"-0.019": 0.789748281411,
			"-0.018": 1.30741293594,
			"-0.017": 0.926272722863,
			"-0.016": 0.582190586113,
			"-0.015": 1.37398389972,
			"-0.014": 2.0502878727,
			"-0.013": 2.2279625148,
			"-0.012": 1.57891461703,
			"-0.011": 2.18307219679,
			"-0.01": 1.64379120153,
			"-0.009": 1.72290394048,
			"-0.008": 2.10954688658,
			"-0.007": 5.61435265428,
			"-0.006": 12.3966404804,
			"-0.005": 17.0957457053,
			"-0.004": 16.0737394683,
			"-0.003": 16.0323946635,
			"-0.002": 10.0862919258,
			"-0.001": 10.8719325074,
			"0.0": 13.479053436,
			"0.001": 13.138887193,
			"0.002": 12.6376680876,
			"0.003": 16.1417578526,
			"0.004": 16.6061846179,
			"0.005": 6.90892926363,
			"0.006": 5.60456608357,
			"0.007": 5.90833553139,
			"0.008": 5.80149442085,
			"0.009": 4.65049637897,
			"0.01": 7.80099991633,
			"0.011": 5.2672375836,
			"0.012": 5.88020441396,
			"0.013": 1.18660211627,
			"0.014": 0.0,
			"0.015": 0.0,
			"0.016": 0.0,
			"0.017": 0.0,
			"0.018": 0.0,
			"0.019": 0.0,
			"0.02": 0.0,
			"0.021": 0.0,
			"0.022": 0.0,
			"0.023": 0.0,
			"0.024": 0.0,
			"0.025": 0.0
		}
	}
}
