{
	 "smiles": "OC(=O)CCSCC1=NC=CC=C1", 
	 "Tm": 348.15, 
	 "num_atms": 24, 
	 "gaussian": { 
		 "optdone": 1, 
		 "sigma_profile": "yes", 
		 "theory": "DFT", 
		 "functional": "B3LYP", 
		 "basiset": "6-31G**", 
		 "properties": { 
			 "R2extent": 3820.9814, 
			 "electric_dipole_moment_norm": 6.15889040656, 
			 "electric_quadrupole_moment_norm": 10.1142046015, 
			 "total_energy": -952.981523477, 
			 "HOMO_LUMO_gap": 0.18568, 
			 "cosmo_polarized_energy": -17.55, 
			 "cosmo_cavitation_energy": 29.81, 
			 "cosmo_dispersion_energy": -21.31, 
			 "cosmo_repulsion_energy": 1.67, 
			 "cosmo_total_nonelectrostatic_energy": 10.16, 
			 "SMD_solvation_energy": 5.02 
		},
		"coords": [
			{
				"x": -3.2088694077,
				"y": -0.7102779069,
				"z": 1.3977926427,
				"element": "O" 
			},
			{
				"x": -2.2042595686,
				"y": -0.5382139086,
				"z": 2.3015322702,
				"element": "C" 
			},
			{
				"x": -2.4591353468,
				"y": -0.4508851213,
				"z": 3.4771506486,
				"element": "O" 
			},
			{
				"x": -0.8051575484,
				"y": -0.4764293126,
				"z": 1.7068706604,
				"element": "C" 
			},
			{
				"x": 0.2572754242,
				"y": -0.2209082052,
				"z": 2.7742603859,
				"element": "C" 
			},
			{
				"x": 1.9844221273,
				"y": -0.2093684606,
				"z": 2.1577019877,
				"element": "S" 
			},
			{
				"x": 2.082524711,
				"y": 1.4244136146,
				"z": 1.2888429108,
				"element": "C" 
			},
			{
				"x": 1.8579782101,
				"y": 1.373509137,
				"z": -0.2030045582,
				"element": "C" 
			},
			{
				"x": 0.5902752813,
				"y": 1.4804245692,
				"z": -0.6365225331,
				"element": "N" 
			},
			{
				"x": 0.3680207151,
				"y": 1.4454488812,
				"z": -1.9558215994,
				"element": "C" 
			},
			{
				"x": 1.3769845143,
				"y": 1.3041527874,
				"z": -2.9081142721,
				"element": "C" 
			},
			{
				"x": 2.6917097051,
				"y": 1.1920805482,
				"z": -2.4571983404,
				"element": "C" 
			},
			{
				"x": 2.936188838,
				"y": 1.2298395752,
				"z": -1.0868089519,
				"element": "C" 
			},
			{
				"x": -2.84371495,
				"y": -0.7431758052,
				"z": 0.5020025657,
				"element": "H" 
			},
			{
				"x": -0.7670676918,
				"y": 0.3072717298,
				"z": 0.938747861,
				"element": "H" 
			},
			{
				"x": -0.6009872039,
				"y": -1.4232072326,
				"z": 1.1891962654,
				"element": "H" 
			},
			{
				"x": 0.0593323207,
				"y": 0.7174123668,
				"z": 3.2992252622,
				"element": "H" 
			},
			{
				"x": 0.2355186408,
				"y": -1.0114142585,
				"z": 3.5290162625,
				"element": "H" 
			},
			{
				"x": 1.3553247796,
				"y": 2.0942972851,
				"z": 1.7539520949,
				"element": "H" 
			},
			{
				"x": 3.0841037057,
				"y": 1.8035598588,
				"z": 1.5071733314,
				"element": "H" 
			},
			{
				"x": -0.670890902,
				"y": 1.5415692103,
				"z": -2.2674021791,
				"element": "H" 
			},
			{
				"x": 1.1362938991,
				"y": 1.2856231364,
				"z": -3.9660499408,
				"element": "H" 
			},
			{
				"x": 3.5125524852,
				"y": 1.0821273307,
				"z": -3.1600356391,
				"element": "H" 
			},
			{
				"x": 3.9476772619,
				"y": 1.149850181,
				"z": -0.7002071351,
				"element": "H" 
			}
		],
		 "valence_orbital": [ 
			{
				"type": "occ",
				"energy": -0.29772,
				"method": "rhf"
			},
			{
				"type": "occ",
				"energy": -0.27378,
				"method": "rhf"
			},
			{
				"type": "occ",
				"energy": -0.26854,
				"method": "rhf"
			},
			{
				"type": "occ",
				"energy": -0.2658,
				"method": "rhf"
			},
			{
				"type": "occ",
				"energy": -0.2263,
				"method": "rhf"
			},
			{
				"type": "unocc",
				"energy": -0.04062,
				"method": "rhf"
			},
			{
				"type": "unocc",
				"energy": -0.02852,
				"method": "rhf"
			},
			{
				"type": "unocc",
				"energy": 0.01614,
				"method": "rhf"
			},
			{
				"type": "unocc",
				"energy": 0.04085,
				"method": "rhf"
			},
			{
				"type": "unocc",
				"energy": 0.06101,
				"method": "rhf"
			}
		],
		"cosmo_sigma_profile": { 
			"-0.025": 0.0,
			"-0.024": 0.0,
			"-0.023": 0.0,
			"-0.022": 0.0,
			"-0.021": 0.0,
			"-0.02": 0.00249470328548,
			"-0.019": 0.474465912416,
			"-0.018": 0.931372448656,
			"-0.017": 1.241425007,
			"-0.016": 0.572134777108,
			"-0.015": 0.884931139844,
			"-0.014": 0.862216496234,
			"-0.013": 1.04960376147,
			"-0.012": 1.64972789232,
			"-0.011": 1.02740691253,
			"-0.01": 0.928035971567,
			"-0.009": 1.00791277549,
			"-0.008": 1.29656519541,
			"-0.007": 10.4738053289,
			"-0.006": 20.7229918846,
			"-0.005": 19.4555480322,
			"-0.004": 16.6027734633,
			"-0.003": 14.228912984,
			"-0.002": 13.3060276201,
			"-0.001": 11.8917989108,
			"0.0": 11.5064347057,
			"0.001": 10.9971419563,
			"0.002": 17.6893123015,
			"0.003": 16.5317273735,
			"0.004": 9.60002930786,
			"0.005": 6.98362899631,
			"0.006": 6.31740005502,
			"0.007": 6.6635197976,
			"0.008": 5.44205056001,
			"0.009": 6.38268737377,
			"0.01": 6.88386052818,
			"0.011": 6.21310545172,
			"0.012": 6.24166318525,
			"0.013": 2.16435290106,
			"0.014": 0.117821735014,
			"0.015": 0.0,
			"0.016": 0.0,
			"0.017": 0.0,
			"0.018": 0.0,
			"0.019": 0.0,
			"0.02": 0.0,
			"0.021": 0.0,
			"0.022": 0.0,
			"0.023": 0.0,
			"0.024": 0.0,
			"0.025": 0.0
		}
	}
}
