{
	 "smiles": "CC1=CC(C(O)=O)=C(C)N1CC1=CC=NC=C1", 
	 "Tm": 445.15, 
	 "num_atms": 31, 
	 "gaussian": { 
		 "optdone": 1, 
		 "sigma_profile": "yes", 
		 "theory": "DFT", 
		 "functional": "B3LYP", 
		 "basiset": "6-31G**", 
		 "properties": { 
			 "R2extent": 4888.4503, 
			 "electric_dipole_moment_norm": 3.78238497908, 
			 "electric_quadrupole_moment_norm": 20.7815836706, 
			 "total_energy": -763.791363005, 
			 "HOMO_LUMO_gap": 0.17767, 
			 "cosmo_polarized_energy": -17.06, 
			 "cosmo_cavitation_energy": 34.71, 
			 "cosmo_dispersion_energy": -24.07, 
			 "cosmo_repulsion_energy": 1.87, 
			 "cosmo_total_nonelectrostatic_energy": 12.5, 
			 "SMD_solvation_energy": 5.61 
		},
		"coords": [
			{
				"x": 0.8955634176,
				"y": -0.0029337638,
				"z": 2.2362799029,
				"element": "C" 
			},
			{
				"x": 0.5810633412,
				"y": -0.5789270358,
				"z": 0.8926618246,
				"element": "C" 
			},
			{
				"x": 1.3644315578,
				"y": -1.3001258482,
				"z": 0.032437618,
				"element": "C" 
			},
			{
				"x": 0.579658606,
				"y": -1.6223455343,
				"z": -1.1197063199,
				"element": "C" 
			},
			{
				"x": 1.122312935,
				"y": -2.3984031917,
				"z": -2.2333416924,
				"element": "C" 
			},
			{
				"x": 0.2383443979,
				"y": -2.634214912,
				"z": -3.2482677482,
				"element": "O" 
			},
			{
				"x": 2.2641862997,
				"y": -2.8190950277,
				"z": -2.2915652289,
				"element": "O" 
			},
			{
				"x": -0.6898919197,
				"y": -1.0772451833,
				"z": -0.9328471906,
				"element": "C" 
			},
			{
				"x": -1.9155517342,
				"y": -1.0882216867,
				"z": -1.791174226,
				"element": "C" 
			},
			{
				"x": -0.6776004339,
				"y": -0.4513243122,
				"z": 0.2968454413,
				"element": "N" 
			},
			{
				"x": -1.7788441902,
				"y": 0.3155951224,
				"z": 0.8511228939,
				"element": "C" 
			},
			{
				"x": -1.7946319297,
				"y": 1.7885827175,
				"z": 0.465827779,
				"element": "C" 
			},
			{
				"x": -0.8164403588,
				"y": 2.3708558259,
				"z": -0.3417287983,
				"element": "C" 
			},
			{
				"x": -0.9129342959,
				"y": 3.7329882792,
				"z": -0.6403021641,
				"element": "C" 
			},
			{
				"x": -1.892329791,
				"y": 4.529250042,
				"z": -0.1992566737,
				"element": "N" 
			},
			{
				"x": -2.826988595,
				"y": 3.9609644156,
				"z": 0.5754269332,
				"element": "C" 
			},
			{
				"x": -2.8243524294,
				"y": 2.6144938963,
				"z": 0.932398972,
				"element": "C" 
			},
			{
				"x": 0.2906492124,
				"y": -0.4481139371,
				"z": 3.0371724125,
				"element": "H" 
			},
			{
				"x": 0.7445192858,
				"y": 1.082790678,
				"z": 2.2746615412,
				"element": "H" 
			},
			{
				"x": 1.9435113631,
				"y": -0.1995272148,
				"z": 2.4732000929,
				"element": "H" 
			},
			{
				"x": 2.393205228,
				"y": -1.5914921244,
				"z": 0.1843638184,
				"element": "H" 
			},
			{
				"x": 0.7410748872,
				"y": -3.1479332377,
				"z": -3.9015934541,
				"element": "H" 
			},
			{
				"x": -1.6944462573,
				"y": -1.5781885088,
				"z": -2.7371432328,
				"element": "H" 
			},
			{
				"x": -2.7404640554,
				"y": -1.6339295357,
				"z": -1.3142191956,
				"element": "H" 
			},
			{
				"x": -2.272202346,
				"y": -0.0729721489,
				"z": -2.0021906204,
				"element": "H" 
			},
			{
				"x": -1.7429349056,
				"y": 0.2292064607,
				"z": 1.9418167087,
				"element": "H" 
			},
			{
				"x": -2.7193235356,
				"y": -0.1494335099,
				"z": 0.5401483258,
				"element": "H" 
			},
			{
				"x": 0.0065312175,
				"y": 1.7818200203,
				"z": -0.7325595921,
				"element": "H" 
			},
			{
				"x": -0.1587724342,
				"y": 4.2037816117,
				"z": -1.2687337511,
				"element": "H" 
			},
			{
				"x": -3.6203173776,
				"y": 4.6173242133,
				"z": 0.9291265481,
				"element": "H" 
			},
			{
				"x": -3.6152251598,
				"y": 2.2185734302,
				"z": 1.5647390758,
				"element": "H" 
			}
		],
		 "valence_orbital": [ 
			{
				"type": "occ",
				"energy": -0.27033,
				"method": "rhf"
			},
			{
				"type": "occ",
				"energy": -0.26216,
				"method": "rhf"
			},
			{
				"type": "occ",
				"energy": -0.2606,
				"method": "rhf"
			},
			{
				"type": "occ",
				"energy": -0.2451,
				"method": "rhf"
			},
			{
				"type": "occ",
				"energy": -0.21079,
				"method": "rhf"
			},
			{
				"type": "unocc",
				"energy": -0.03312,
				"method": "rhf"
			},
			{
				"type": "unocc",
				"energy": -0.02018,
				"method": "rhf"
			},
			{
				"type": "unocc",
				"energy": -0.01187,
				"method": "rhf"
			},
			{
				"type": "unocc",
				"energy": 0.03755,
				"method": "rhf"
			},
			{
				"type": "unocc",
				"energy": 0.07747,
				"method": "rhf"
			}
		],
		"cosmo_sigma_profile": { 
			"-0.025": 0.0,
			"-0.024": 0.0,
			"-0.023": 0.0,
			"-0.022": 0.0,
			"-0.021": 0.0,
			"-0.02": 0.0,
			"-0.019": 0.0,
			"-0.018": 0.134996972043,
			"-0.017": 0.73695382195,
			"-0.016": 1.09784866306,
			"-0.015": 0.657640506533,
			"-0.014": 0.29602312102,
			"-0.013": 0.634096132136,
			"-0.012": 0.493286408297,
			"-0.011": 0.668064374842,
			"-0.01": 1.49185138426,
			"-0.009": 0.722192662281,
			"-0.008": 1.35153743393,
			"-0.007": 11.0546592038,
			"-0.006": 15.9075057033,
			"-0.005": 19.869389715,
			"-0.004": 20.5293160797,
			"-0.003": 20.2075528166,
			"-0.002": 21.7761581933,
			"-0.001": 24.3259023547,
			"0.0": 21.1389009128,
			"0.001": 15.5146549576,
			"0.002": 21.067120996,
			"0.003": 15.668774387,
			"0.004": 10.9603464462,
			"0.005": 10.6499758109,
			"0.006": 8.25596482025,
			"0.007": 4.85722961438,
			"0.008": 3.87118610671,
			"0.009": 2.49953667731,
			"0.01": 2.2742786284,
			"0.011": 2.741309098,
			"0.012": 4.99538793363,
			"0.013": 6.16010762833,
			"0.014": 1.21837590447,
			"0.015": 0.578746834741,
			"0.016": 1.092616314,
			"0.017": 0.359602442671,
			"0.018": 0.0,
			"0.019": 0.0,
			"0.02": 0.0,
			"0.021": 0.0,
			"0.022": 0.0,
			"0.023": 0.0,
			"0.024": 0.0,
			"0.025": 0.0
		}
	}
}
