{
	 "smiles": "FC1=CC(=CC=C1)C1=CC(F)=CC=C1", 
	 "Tm": 281.15, 
	 "num_atms": 22, 
	 "gaussian": { 
		 "optdone": 1, 
		 "sigma_profile": "yes", 
		 "theory": "DFT", 
		 "functional": "B3LYP", 
		 "basiset": "6-31G**", 
		 "properties": { 
			 "R2extent": 3396.1538, 
			 "electric_dipole_moment_norm": 2.1976658777, 
			 "electric_quadrupole_moment_norm": 4.71580394207, 
			 "total_energy": -661.774287669, 
			 "HOMO_LUMO_gap": 0.19402, 
			 "cosmo_polarized_energy": -5.17, 
			 "cosmo_cavitation_energy": 27.35, 
			 "cosmo_dispersion_energy": -19.74, 
			 "cosmo_repulsion_energy": 1.48, 
			 "cosmo_total_nonelectrostatic_energy": 9.09, 
			 "SMD_solvation_energy": 5.5 
		},
		"coords": [
			{
				"x": 3.0691282339,
				"y": 1.6862584909,
				"z": -2.1552635957,
				"element": "F" 
			},
			{
				"x": 2.4899459623,
				"y": 0.7096338997,
				"z": -1.4249797013,
				"element": "C" 
			},
			{
				"x": 1.1552748395,
				"y": 0.8483967456,
				"z": -1.0689726583,
				"element": "C" 
			},
			{
				"x": 0.5371493762,
				"y": -0.1517941278,
				"z": -0.3012345998,
				"element": "C" 
			},
			{
				"x": 1.2970727301,
				"y": -1.2698207972,
				"z": 0.0843199562,
				"element": "C" 
			},
			{
				"x": 2.6365644929,
				"y": -1.3836658738,
				"z": -0.2863378038,
				"element": "C" 
			},
			{
				"x": 3.2523831891,
				"y": -0.3900992318,
				"z": -1.0485622113,
				"element": "C" 
			},
			{
				"x": -0.890269693,
				"y": -0.0269696274,
				"z": 0.0917782422,
				"element": "C" 
			},
			{
				"x": -1.8282331845,
				"y": 0.5254707615,
				"z": -0.7953134014,
				"element": "C" 
			},
			{
				"x": -3.1564748829,
				"y": 0.6325150523,
				"z": -0.4058676532,
				"element": "C" 
			},
			{
				"x": -4.0450229105,
				"y": 1.1575618803,
				"z": -1.2761392795,
				"element": "F" 
			},
			{
				"x": -3.6053928895,
				"y": 0.209798168,
				"z": 0.8400008436,
				"element": "C" 
			},
			{
				"x": -2.6719953622,
				"y": -0.3381631355,
				"z": 1.7208560009,
				"element": "C" 
			},
			{
				"x": -1.3314533416,
				"y": -0.4565852779,
				"z": 1.3554527699,
				"element": "C" 
			},
			{
				"x": 0.6200937863,
				"y": 1.7427486087,
				"z": -1.3683102724,
				"element": "H" 
			},
			{
				"x": 0.8269509296,
				"y": -2.0654451835,
				"z": 0.6529040847,
				"element": "H" 
			},
			{
				"x": 3.2061137875,
				"y": -2.2584148322,
				"z": 0.0130885525,
				"element": "H" 
			},
			{
				"x": 4.2922277387,
				"y": -0.4540632471,
				"z": -1.3493083358,
				"element": "H" 
			},
			{
				"x": -1.5433774787,
				"y": 0.8464685869,
				"z": -1.7911617662,
				"element": "H" 
			},
			{
				"x": -4.6532948883,
				"y": 0.3124559017,
				"z": 1.0991870817,
				"element": "H" 
			},
			{
				"x": -2.9935804342,
				"y": -0.6673734071,
				"z": 2.7044362691,
				"element": "H" 
			},
			{
				"x": -0.6145100007,
				"y": -0.8588133542,
				"z": 2.063627478,
				"element": "H" 
			}
		],
		 "valence_orbital": [ 
			{
				"type": "occ",
				"energy": -0.34162,
				"method": "rhf"
			},
			{
				"type": "occ",
				"energy": -0.28341,
				"method": "rhf"
			},
			{
				"type": "occ",
				"energy": -0.25354,
				"method": "rhf"
			},
			{
				"type": "occ",
				"energy": -0.25089,
				"method": "rhf"
			},
			{
				"type": "occ",
				"energy": -0.23387,
				"method": "rhf"
			},
			{
				"type": "unocc",
				"energy": -0.03985,
				"method": "rhf"
			},
			{
				"type": "unocc",
				"energy": -0.0077,
				"method": "rhf"
			},
			{
				"type": "unocc",
				"energy": -0.00538,
				"method": "rhf"
			},
			{
				"type": "unocc",
				"energy": 0.0226,
				"method": "rhf"
			},
			{
				"type": "unocc",
				"energy": 0.08898,
				"method": "rhf"
			}
		],
		"cosmo_sigma_profile": { 
			"-0.025": 0.0,
			"-0.024": 0.0,
			"-0.023": 0.0,
			"-0.022": 0.0,
			"-0.021": 0.0,
			"-0.02": 0.0,
			"-0.019": 0.0,
			"-0.018": 0.0,
			"-0.017": 0.0,
			"-0.016": 0.0,
			"-0.015": 0.0,
			"-0.014": 0.0,
			"-0.013": 0.0,
			"-0.012": 0.0,
			"-0.011": 0.0,
			"-0.01": 0.0,
			"-0.009": 0.0,
			"-0.008": 0.444265832408,
			"-0.007": 7.50412786112,
			"-0.006": 14.1035674438,
			"-0.005": 15.5999088176,
			"-0.004": 15.5610186695,
			"-0.003": 10.7172034109,
			"-0.002": 11.4009357342,
			"-0.001": 10.3129332501,
			"0.0": 15.4831668041,
			"0.001": 23.3922151621,
			"0.002": 24.538091464,
			"0.003": 25.7800091404,
			"0.004": 34.1619009121,
			"0.005": 11.5183315925,
			"0.006": 0.0,
			"0.007": 0.0,
			"0.008": 0.0,
			"0.009": 0.0,
			"0.01": 0.0,
			"0.011": 0.0,
			"0.012": 0.0,
			"0.013": 0.0,
			"0.014": 0.0,
			"0.015": 0.0,
			"0.016": 0.0,
			"0.017": 0.0,
			"0.018": 0.0,
			"0.019": 0.0,
			"0.02": 0.0,
			"0.021": 0.0,
			"0.022": 0.0,
			"0.023": 0.0,
			"0.024": 0.0,
			"0.025": 0.0
		}
	}
}
