{
	 "smiles": "COC1=C(C)C(C)=CC=C1", 
	 "Tm": 302.15, 
	 "num_atms": 22, 
	 "gaussian": { 
		 "optdone": 1, 
		 "sigma_profile": "yes", 
		 "theory": "DFT", 
		 "functional": "B3LYP", 
		 "basiset": "6-31G**", 
		 "properties": { 
			 "R2extent": 1703.1982, 
			 "electric_dipole_moment_norm": 0.886170920308, 
			 "electric_quadrupole_moment_norm": 6.67841531353, 
			 "total_energy": -425.41436724, 
			 "HOMO_LUMO_gap": 0.2162, 
			 "cosmo_polarized_energy": -4.83, 
			 "cosmo_cavitation_energy": 24.23, 
			 "cosmo_dispersion_energy": -17.97, 
			 "cosmo_repulsion_energy": 1.45, 
			 "cosmo_total_nonelectrostatic_energy": 7.71, 
			 "SMD_solvation_energy": 5.01 
		},
		"coords": [
			{
				"x": -2.7239214226,
				"y": -1.1819663054,
				"z": 0.9551345262,
				"element": "C" 
			},
			{
				"x": -1.7582476929,
				"y": -0.2337332366,
				"z": 1.3713780768,
				"element": "O" 
			},
			{
				"x": -0.5909011006,
				"y": -0.1295165899,
				"z": 0.6582685829,
				"element": "C" 
			},
			{
				"x": 0.3305220701,
				"y": 0.8335861388,
				"z": 1.1221909148,
				"element": "C" 
			},
			{
				"x": 0.0104359838,
				"y": 1.6769051941,
				"z": 2.3340644188,
				"element": "C" 
			},
			{
				"x": 1.547476643,
				"y": 0.9898831447,
				"z": 0.4346793492,
				"element": "C" 
			},
			{
				"x": 2.5581219265,
				"y": 2.0110681676,
				"z": 0.9024862278,
				"element": "C" 
			},
			{
				"x": 1.8251176083,
				"y": 0.1970583578,
				"z": -0.6878906431,
				"element": "C" 
			},
			{
				"x": 0.9054452483,
				"y": -0.7470633933,
				"z": -1.1311830183,
				"element": "C" 
			},
			{
				"x": -0.3071743994,
				"y": -0.9173091108,
				"z": -0.4629150821,
				"element": "C" 
			},
			{
				"x": -3.0852450643,
				"y": -0.977134029,
				"z": -0.0612787795,
				"element": "H" 
			},
			{
				"x": -3.5567342019,
				"y": -1.091671058,
				"z": 1.6549369476,
				"element": "H" 
			},
			{
				"x": -2.332262381,
				"y": -2.2070189281,
				"z": 0.9935725085,
				"element": "H" 
			},
			{
				"x": 0.7542365817,
				"y": 1.5323371371,
				"z": 3.1272460472,
				"element": "H" 
			},
			{
				"x": -0.9693692283,
				"y": 1.4287567062,
				"z": 2.7400747669,
				"element": "H" 
			},
			{
				"x": 0.0164756883,
				"y": 2.7457994078,
				"z": 2.0878868949,
				"element": "H" 
			},
			{
				"x": 2.1440264809,
				"y": 3.026668031,
				"z": 0.8915277198,
				"element": "H" 
			},
			{
				"x": 3.4455826655,
				"y": 2.0058577455,
				"z": 0.2643387288,
				"element": "H" 
			},
			{
				"x": 2.88460834,
				"y": 1.817404004,
				"z": 1.9315126016,
				"element": "H" 
			},
			{
				"x": 2.7683806542,
				"y": 0.3261713359,
				"z": -1.2115081874,
				"element": "H" 
			},
			{
				"x": 1.1263716058,
				"y": -1.3583725355,
				"z": -2.0016900232,
				"element": "H" 
			},
			{
				"x": -1.0160460054,
				"y": -1.6558101838,
				"z": -0.8171325782,
				"element": "H" 
			}
		],
		 "valence_orbital": [ 
			{
				"type": "occ",
				"energy": -0.33419,
				"method": "rhf"
			},
			{
				"type": "occ",
				"energy": -0.31337,
				"method": "rhf"
			},
			{
				"type": "occ",
				"energy": -0.30675,
				"method": "rhf"
			},
			{
				"type": "occ",
				"energy": -0.22864,
				"method": "rhf"
			},
			{
				"type": "occ",
				"energy": -0.20819,
				"method": "rhf"
			},
			{
				"type": "unocc",
				"energy": 0.00801,
				"method": "rhf"
			},
			{
				"type": "unocc",
				"energy": 0.02423,
				"method": "rhf"
			},
			{
				"type": "unocc",
				"energy": 0.09834,
				"method": "rhf"
			},
			{
				"type": "unocc",
				"energy": 0.10077,
				"method": "rhf"
			},
			{
				"type": "unocc",
				"energy": 0.11608,
				"method": "rhf"
			}
		],
		"cosmo_sigma_profile": { 
			"-0.025": 0.0,
			"-0.024": 0.0,
			"-0.023": 0.0,
			"-0.022": 0.0,
			"-0.021": 0.0,
			"-0.02": 0.0,
			"-0.019": 0.0,
			"-0.018": 0.0,
			"-0.017": 0.0,
			"-0.016": 0.0,
			"-0.015": 0.0,
			"-0.014": 0.0,
			"-0.013": 0.0,
			"-0.012": 0.0,
			"-0.011": 0.0,
			"-0.01": 0.0,
			"-0.009": 0.0,
			"-0.008": 0.0,
			"-0.007": 0.0,
			"-0.006": 2.29328792251,
			"-0.005": 12.6318655288,
			"-0.004": 20.0978624005,
			"-0.003": 25.8724050899,
			"-0.002": 19.0195087955,
			"-0.001": 17.1179275782,
			"0.0": 19.1777169717,
			"0.001": 16.0868093646,
			"0.002": 8.74284373262,
			"0.003": 9.19685153441,
			"0.004": 10.6858303592,
			"0.005": 9.2086342955,
			"0.006": 9.71415307819,
			"0.007": 8.02816168865,
			"0.008": 2.46575668507,
			"0.009": 0.548994584695,
			"0.01": 0.0,
			"0.011": 0.0,
			"0.012": 0.0,
			"0.013": 0.0,
			"0.014": 0.0,
			"0.015": 0.0,
			"0.016": 0.0,
			"0.017": 0.0,
			"0.018": 0.0,
			"0.019": 0.0,
			"0.02": 0.0,
			"0.021": 0.0,
			"0.022": 0.0,
			"0.023": 0.0,
			"0.024": 0.0,
			"0.025": 0.0
		}
	}
}
