{
	 "smiles": "COC(=O)N(C)C(=O)CSP(C)(=S)OC", 
	 "Tm": 309.15, 
	 "num_atms": 29, 
	 "gaussian": { 
		 "optdone": 1, 
		 "sigma_profile": "yes", 
		 "theory": "DFT", 
		 "functional": "B3LYP", 
		 "basiset": "6-31G**", 
		 "properties": { 
			 "R2extent": 6418.204, 
			 "electric_dipole_moment_norm": 4.03553400308, 
			 "electric_quadrupole_moment_norm": 12.0221993208, 
			 "total_energy": -1768.61370208, 
			 "HOMO_LUMO_gap": 0.21555, 
			 "cosmo_polarized_energy": -17.95, 
			 "cosmo_cavitation_energy": 37.26, 
			 "cosmo_dispersion_energy": -26.03, 
			 "cosmo_repulsion_energy": 1.95, 
			 "cosmo_total_nonelectrostatic_energy": 13.17, 
			 "SMD_solvation_energy": 9.03 
		},
		"coords": [
			{
				"x": 5.2411029763,
				"y": 0.8596587793,
				"z": 1.7631370124,
				"element": "C" 
			},
			{
				"x": 4.191468686,
				"y": 0.7182630242,
				"z": 0.792278585,
				"element": "O" 
			},
			{
				"x": 3.8153236481,
				"y": -0.5411693371,
				"z": 0.5576864136,
				"element": "C" 
			},
			{
				"x": 4.2748004038,
				"y": -1.5103977086,
				"z": 1.1313304961,
				"element": "O" 
			},
			{
				"x": 2.7781941724,
				"y": -0.6430891538,
				"z": -0.3964182715,
				"element": "N" 
			},
			{
				"x": 2.1515286138,
				"y": -1.9721158789,
				"z": -0.5074241566,
				"element": "C" 
			},
			{
				"x": 2.4067822782,
				"y": 0.399975673,
				"z": -1.2632971625,
				"element": "C" 
			},
			{
				"x": 3.0571146209,
				"y": 1.4100610664,
				"z": -1.4370292343,
				"element": "O" 
			},
			{
				"x": 1.0959397437,
				"y": 0.2210741977,
				"z": -2.0374628356,
				"element": "C" 
			},
			{
				"x": -0.3713978701,
				"y": 0.5343659884,
				"z": -0.9563951725,
				"element": "S" 
			},
			{
				"x": -1.6328864545,
				"y": -1.133656774,
				"z": -1.3666174173,
				"element": "P" 
			},
			{
				"x": -3.2901769964,
				"y": -0.3811698715,
				"z": -1.2022518872,
				"element": "C" 
			},
			{
				"x": -1.307144343,
				"y": -2.1287634467,
				"z": -3.017665024,
				"element": "S" 
			},
			{
				"x": -1.4567350014,
				"y": -1.9909254644,
				"z": 0.0244969934,
				"element": "O" 
			},
			{
				"x": -2.0187842571,
				"y": -3.3116737539,
				"z": 0.1424425201,
				"element": "C" 
			},
			{
				"x": 5.4385799266,
				"y": 1.9299264936,
				"z": 1.8141183716,
				"element": "H" 
			},
			{
				"x": 4.9215104688,
				"y": 0.4787798596,
				"z": 2.7362361868,
				"element": "H" 
			},
			{
				"x": 6.1352445885,
				"y": 0.3181753782,
				"z": 1.445745195,
				"element": "H" 
			},
			{
				"x": 2.6985974939,
				"y": -2.6412773274,
				"z": 0.1517843212,
				"element": "H" 
			},
			{
				"x": 1.104603591,
				"y": -1.937314007,
				"z": -0.199303067,
				"element": "H" 
			},
			{
				"x": 2.2218758402,
				"y": -2.3526124063,
				"z": -1.5291592679,
				"element": "H" 
			},
			{
				"x": 0.9723804344,
				"y": -0.7571734071,
				"z": -2.510323968,
				"element": "H" 
			},
			{
				"x": 1.0970279375,
				"y": 0.9898288441,
				"z": -2.8085705835,
				"element": "H" 
			},
			{
				"x": -3.4743866216,
				"y": 0.2745458708,
				"z": -2.0548016967,
				"element": "H" 
			},
			{
				"x": -4.0409267757,
				"y": -1.175752591,
				"z": -1.192602631,
				"element": "H" 
			},
			{
				"x": -3.3508458619,
				"y": 0.190668469,
				"z": -0.2720996589,
				"element": "H" 
			},
			{
				"x": -3.1136102559,
				"y": -3.2725790688,
				"z": 0.1548747509,
				"element": "H" 
			},
			{
				"x": -1.6604390944,
				"y": -3.7067758323,
				"z": 1.0938793738,
				"element": "H" 
			},
			{
				"x": -1.684141892,
				"y": -3.9496776154,
				"z": -0.679788185,
				"element": "H" 
			}
		],
		 "valence_orbital": [ 
			{
				"type": "occ",
				"energy": -0.27913,
				"method": "rhf"
			},
			{
				"type": "occ",
				"energy": -0.2691,
				"method": "rhf"
			},
			{
				"type": "occ",
				"energy": -0.25902,
				"method": "rhf"
			},
			{
				"type": "occ",
				"energy": -0.25073,
				"method": "rhf"
			},
			{
				"type": "occ",
				"energy": -0.24912,
				"method": "rhf"
			},
			{
				"type": "unocc",
				"energy": -0.03357,
				"method": "rhf"
			},
			{
				"type": "unocc",
				"energy": -0.02686,
				"method": "rhf"
			},
			{
				"type": "unocc",
				"energy": 0.01916,
				"method": "rhf"
			},
			{
				"type": "unocc",
				"energy": 0.02449,
				"method": "rhf"
			},
			{
				"type": "unocc",
				"energy": 0.04428,
				"method": "rhf"
			}
		],
		"cosmo_sigma_profile": { 
			"-0.025": 0.0,
			"-0.024": 0.0,
			"-0.023": 0.0,
			"-0.022": 0.0,
			"-0.021": 0.0,
			"-0.02": 0.0,
			"-0.019": 0.0,
			"-0.018": 0.0,
			"-0.017": 0.0,
			"-0.016": 0.0,
			"-0.015": 0.0,
			"-0.014": 0.0,
			"-0.013": 0.0,
			"-0.012": 0.0,
			"-0.011": 0.0131166144064,
			"-0.01": 0.397306691777,
			"-0.009": 1.49431191643,
			"-0.008": 5.86459982674,
			"-0.007": 13.7660272662,
			"-0.006": 19.172763748,
			"-0.005": 24.8575578053,
			"-0.004": 29.6521588003,
			"-0.003": 31.1243746355,
			"-0.002": 23.6446578452,
			"-0.001": 18.6958258922,
			"0.0": 14.0701016456,
			"0.001": 11.8619659365,
			"0.002": 11.3401259469,
			"0.003": 10.7778566763,
			"0.004": 11.9985629891,
			"0.005": 10.7186238674,
			"0.006": 10.953207621,
			"0.007": 9.75198061157,
			"0.008": 7.67922638057,
			"0.009": 8.54426026583,
			"0.01": 4.77410117954,
			"0.011": 7.07865745401,
			"0.012": 6.53013408237,
			"0.013": 1.96570384524,
			"0.014": 0.955604376079,
			"0.015": 0.0,
			"0.016": 0.0,
			"0.017": 0.0,
			"0.018": 0.0,
			"0.019": 0.0,
			"0.02": 0.0,
			"0.021": 0.0,
			"0.022": 0.0,
			"0.023": 0.0,
			"0.024": 0.0,
			"0.025": 0.0
		}
	}
}
