{
	 "smiles": "CC1C2CC3=C(C=C(O)C=C3)C1(C)CCN2CC1CC1", 
	 "Tm": 475.15, 
	 "num_atms": 45, 
	 "gaussian": { 
		 "optdone": 1, 
		 "sigma_profile": "yes", 
		 "theory": "DFT", 
		 "functional": "B3LYP", 
		 "basiset": "6-31G**", 
		 "properties": { 
			 "R2extent": 6195.5137, 
			 "electric_dipole_moment_norm": 2.17874343143, 
			 "electric_quadrupole_moment_norm": 11.5025716929, 
			 "total_energy": -830.925609092, 
			 "HOMO_LUMO_gap": 0.19765, 
			 "cosmo_polarized_energy": -10.25, 
			 "cosmo_cavitation_energy": 41.74, 
			 "cosmo_dispersion_energy": -29.15, 
			 "cosmo_repulsion_energy": 2.21, 
			 "cosmo_total_nonelectrostatic_energy": 14.8, 
			 "SMD_solvation_energy": 4.9 
		},
		"coords": [
			{
				"x": 0.7504317389,
				"y": 2.1500440112,
				"z": -1.7846560324,
				"element": "C" 
			},
			{
				"x": 0.6478578947,
				"y": 1.3802172761,
				"z": -0.4585474046,
				"element": "C" 
			},
			{
				"x": -0.8066883981,
				"y": 0.9769361226,
				"z": -0.1372590354,
				"element": "C" 
			},
			{
				"x": -1.3594293402,
				"y": 0.1158100078,
				"z": -1.2820773558,
				"element": "C" 
			},
			{
				"x": -0.4044396503,
				"y": -0.9921771673,
				"z": -1.6813687399,
				"element": "C" 
			},
			{
				"x": 0.9486960079,
				"y": -0.9930173179,
				"z": -1.2893437532,
				"element": "C" 
			},
			{
				"x": 1.7682227485,
				"y": -2.0537553366,
				"z": -1.7100311741,
				"element": "C" 
			},
			{
				"x": 1.2768663187,
				"y": -3.0900618999,
				"z": -2.5035173248,
				"element": "C" 
			},
			{
				"x": 2.0607900298,
				"y": -4.1317827035,
				"z": -2.9241577914,
				"element": "O" 
			},
			{
				"x": -0.0635571932,
				"y": -3.0869850751,
				"z": -2.8981908991,
				"element": "C" 
			},
			{
				"x": -0.8788754009,
				"y": -2.0436999011,
				"z": -2.4797002569,
				"element": "C" 
			},
			{
				"x": 1.5296138622,
				"y": 0.1052518808,
				"z": -0.376328069,
				"element": "C" 
			},
			{
				"x": 2.9885575106,
				"y": 0.4381115105,
				"z": -0.7530698709,
				"element": "C" 
			},
			{
				"x": 1.503192883,
				"y": -0.3813521173,
				"z": 1.1213181926,
				"element": "C" 
			},
			{
				"x": 0.328857764,
				"y": 0.1955061744,
				"z": 1.9270121166,
				"element": "C" 
			},
			{
				"x": -0.8824514394,
				"y": 0.2050051633,
				"z": 1.1214751567,
				"element": "N" 
			},
			{
				"x": -2.1220427483,
				"y": 0.3618316793,
				"z": 1.8734323044,
				"element": "C" 
			},
			{
				"x": -2.3623693639,
				"y": 1.7049798264,
				"z": 2.5584897311,
				"element": "C" 
			},
			{
				"x": -3.74558508,
				"y": 2.0339756168,
				"z": 3.0657985068,
				"element": "C" 
			},
			{
				"x": -3.1731326669,
				"y": 2.7967299379,
				"z": 1.8967480168,
				"element": "C" 
			},
			{
				"x": 1.7347275728,
				"y": 2.6137774293,
				"z": -1.8935839387,
				"element": "H" 
			},
			{
				"x": 0.5915948985,
				"y": 1.5040519839,
				"z": -2.6530286241,
				"element": "H" 
			},
			{
				"x": 0.0059201897,
				"y": 2.9533029737,
				"z": -1.8209796589,
				"element": "H" 
			},
			{
				"x": 0.9935914039,
				"y": 2.0631563236,
				"z": 0.3281487241,
				"element": "H" 
			},
			{
				"x": -1.4006305847,
				"y": 1.8993402964,
				"z": -0.0584062573,
				"element": "H" 
			},
			{
				"x": -2.3194882577,
				"y": -0.3193772361,
				"z": -0.9804137858,
				"element": "H" 
			},
			{
				"x": -1.5788960306,
				"y": 0.7524799402,
				"z": -2.1508709814,
				"element": "H" 
			},
			{
				"x": 2.8139139582,
				"y": -2.0803966867,
				"z": -1.4131767356,
				"element": "H" 
			},
			{
				"x": 2.9544917992,
				"y": -4.0085538815,
				"z": -2.5792671011,
				"element": "H" 
			},
			{
				"x": -0.4409155803,
				"y": -3.8961008107,
				"z": -3.5146028634,
				"element": "H" 
			},
			{
				"x": -1.9251301709,
				"y": -2.0409185923,
				"z": -2.7780776948,
				"element": "H" 
			},
			{
				"x": 3.6704566744,
				"y": -0.3745351991,
				"z": -0.4835750355,
				"element": "H" 
			},
			{
				"x": 3.1063435143,
				"y": 0.6328296202,
				"z": -1.8226524625,
				"element": "H" 
			},
			{
				"x": 3.3212740267,
				"y": 1.3260713856,
				"z": -0.203410195,
				"element": "H" 
			},
			{
				"x": 2.4381740615,
				"y": -0.0908711042,
				"z": 1.6163415794,
				"element": "H" 
			},
			{
				"x": 1.4577097406,
				"y": -1.474116176,
				"z": 1.1384368069,
				"element": "H" 
			},
			{
				"x": 0.6013589722,
				"y": 1.192093727,
				"z": 2.3253555911,
				"element": "H" 
			},
			{
				"x": 0.1454503546,
				"y": -0.4361446672,
				"z": 2.8045070151,
				"element": "H" 
			},
			{
				"x": -2.9665488432,
				"y": 0.1572193289,
				"z": 1.2005398855,
				"element": "H" 
			},
			{
				"x": -2.1425319658,
				"y": -0.4295861278,
				"z": 2.6354529177,
				"element": "H" 
			},
			{
				"x": -1.5421043151,
				"y": 2.0421908502,
				"z": 3.1895321388,
				"element": "H" 
			},
			{
				"x": -3.84200934,
				"y": 2.5419547118,
				"z": 4.0206433722,
				"element": "H" 
			},
			{
				"x": -4.5405954774,
				"y": 1.3201475205,
				"z": 2.8634545942,
				"element": "H" 
			},
			{
				"x": -3.5929300546,
				"y": 2.5971727776,
				"z": 0.914251858,
				"element": "H" 
			},
			{
				"x": -2.8761420238,
				"y": 3.8305439245,
				"z": 2.0483545336,
				"element": "H" 
			}
		],
		 "valence_orbital": [ 
			{
				"type": "occ",
				"energy": -0.28345,
				"method": "rhf"
			},
			{
				"type": "occ",
				"energy": -0.27817,
				"method": "rhf"
			},
			{
				"type": "occ",
				"energy": -0.23424,
				"method": "rhf"
			},
			{
				"type": "occ",
				"energy": -0.20443,
				"method": "rhf"
			},
			{
				"type": "occ",
				"energy": -0.19122,
				"method": "rhf"
			},
			{
				"type": "unocc",
				"energy": 0.00643,
				"method": "rhf"
			},
			{
				"type": "unocc",
				"energy": 0.02429,
				"method": "rhf"
			},
			{
				"type": "unocc",
				"energy": 0.07648,
				"method": "rhf"
			},
			{
				"type": "unocc",
				"energy": 0.08096,
				"method": "rhf"
			},
			{
				"type": "unocc",
				"energy": 0.09146,
				"method": "rhf"
			}
		],
		"cosmo_sigma_profile": { 
			"-0.025": 0.0,
			"-0.024": 0.0,
			"-0.023": 0.0,
			"-0.022": 0.0,
			"-0.021": 0.0,
			"-0.02": 0.0,
			"-0.019": 0.0,
			"-0.018": 0.131313981266,
			"-0.017": 0.698739844754,
			"-0.016": 1.04765785456,
			"-0.015": 0.805937315171,
			"-0.014": 1.32753870502,
			"-0.013": 0.568446103903,
			"-0.012": 0.883611201414,
			"-0.011": 0.915747796131,
			"-0.01": 0.994070879077,
			"-0.009": 1.36378068905,
			"-0.008": 1.13245346205,
			"-0.007": 0.905634662228,
			"-0.006": 1.81411251208,
			"-0.005": 4.98119453416,
			"-0.004": 12.6768360966,
			"-0.003": 31.9153095402,
			"-0.002": 50.7238860086,
			"-0.001": 52.4650089161,
			"0.0": 43.0419702305,
			"0.001": 30.2768822882,
			"0.002": 18.199737382,
			"0.003": 12.0333762648,
			"0.004": 11.9116182935,
			"0.005": 12.0515540972,
			"0.006": 10.5014004334,
			"0.007": 6.65892640526,
			"0.008": 2.97972960182,
			"0.009": 1.42744659816,
			"0.01": 2.82579101558,
			"0.011": 2.52116818973,
			"0.012": 2.41274441373,
			"0.013": 0.741027687326,
			"0.014": 0.650492510935,
			"0.015": 0.0326416464506,
			"0.016": 0.0,
			"0.017": 0.0,
			"0.018": 0.0,
			"0.019": 0.0,
			"0.02": 0.0,
			"0.021": 0.0,
			"0.022": 0.0,
			"0.023": 0.0,
			"0.024": 0.0,
			"0.025": 0.0
		}
	}
}
