{
	 "smiles": "SC1=NC(=NO1)C1=NC=CC=C1", 
	 "Tm": 420.15, 
	 "num_atms": 17, 
	 "gaussian": { 
		 "optdone": 1, 
		 "sigma_profile": "yes", 
		 "theory": "DFT", 
		 "functional": "B3LYP", 
		 "basiset": "6-31G**", 
		 "properties": { 
			 "R2extent": 3532.9632, 
			 "electric_dipole_moment_norm": 4.12737037955, 
			 "electric_quadrupole_moment_norm": 13.2374080832, 
			 "total_energy": -907.36627713, 
			 "HOMO_LUMO_gap": 0.19533, 
			 "cosmo_polarized_energy": -12.68, 
			 "cosmo_cavitation_energy": 24.49, 
			 "cosmo_dispersion_energy": -18.96, 
			 "cosmo_repulsion_energy": 1.46, 
			 "cosmo_total_nonelectrostatic_energy": 6.98, 
			 "SMD_solvation_energy": 1.11 
		},
		"coords": [
			{
				"x": 3.839592079,
				"y": 2.8970538568,
				"z": -1.7790856406,
				"element": "S" 
			},
			{
				"x": 2.8320425476,
				"y": 2.0236559279,
				"z": -0.6377830305,
				"element": "C" 
			},
			{
				"x": 1.8407190568,
				"y": 1.2154877269,
				"z": -0.8685099025,
				"element": "N" 
			},
			{
				"x": 1.4655427065,
				"y": 0.858208361,
				"z": 0.4151737142,
				"element": "C" 
			},
			{
				"x": 2.1768786716,
				"y": 1.4076672908,
				"z": 1.3735572105,
				"element": "N" 
			},
			{
				"x": 3.1059486176,
				"y": 2.2007801007,
				"z": 0.6616037494,
				"element": "O" 
			},
			{
				"x": 0.347223336,
				"y": -0.0728290108,
				"z": 0.6673455733,
				"element": "C" 
			},
			{
				"x": 0.062904633,
				"y": -0.3550004452,
				"z": 1.9490592676,
				"element": "N" 
			},
			{
				"x": -0.9457862412,
				"y": -1.1951604958,
				"z": 2.1845571848,
				"element": "C" 
			},
			{
				"x": -1.7126229565,
				"y": -1.7896301078,
				"z": 1.1773730361,
				"element": "C" 
			},
			{
				"x": -1.4082070286,
				"y": -1.4892695809,
				"z": -0.1486610752,
				"element": "C" 
			},
			{
				"x": -0.357771369,
				"y": -0.6135142162,
				"z": -0.4154577631,
				"element": "C" 
			},
			{
				"x": 3.1891535729,
				"y": 2.4018179163,
				"z": -2.848660541,
				"element": "H" 
			},
			{
				"x": -1.1548676686,
				"y": -1.4065480088,
				"z": 3.2317108047,
				"element": "H" 
			},
			{
				"x": -2.5220725063,
				"y": -2.466295668,
				"z": 1.432151302,
				"element": "H" 
			},
			{
				"x": -1.977263874,
				"y": -1.9279380033,
				"z": -0.9630310891,
				"element": "H" 
			},
			{
				"x": -0.0780135767,
				"y": -0.3451856435,
				"z": -1.4273428003,
				"element": "H" 
			}
		],
		 "valence_orbital": [ 
			{
				"type": "occ",
				"energy": -0.30636,
				"method": "rhf"
			},
			{
				"type": "occ",
				"energy": -0.29604,
				"method": "rhf"
			},
			{
				"type": "occ",
				"energy": -0.27386,
				"method": "rhf"
			},
			{
				"type": "occ",
				"energy": -0.26284,
				"method": "rhf"
			},
			{
				"type": "occ",
				"energy": -0.25401,
				"method": "rhf"
			},
			{
				"type": "unocc",
				"energy": -0.05868,
				"method": "rhf"
			},
			{
				"type": "unocc",
				"energy": -0.0274,
				"method": "rhf"
			},
			{
				"type": "unocc",
				"energy": -0.01065,
				"method": "rhf"
			},
			{
				"type": "unocc",
				"energy": -0.00869,
				"method": "rhf"
			},
			{
				"type": "unocc",
				"energy": 0.03778,
				"method": "rhf"
			}
		],
		"cosmo_sigma_profile": { 
			"-0.025": 0.0,
			"-0.024": 0.0,
			"-0.023": 0.0,
			"-0.022": 0.0,
			"-0.021": 0.0,
			"-0.02": 0.0,
			"-0.019": 0.0,
			"-0.018": 0.0,
			"-0.017": 0.0,
			"-0.016": 0.0,
			"-0.015": 0.0,
			"-0.014": 0.523545589477,
			"-0.013": 1.69650455881,
			"-0.012": 1.50558421775,
			"-0.011": 1.83640396172,
			"-0.01": 0.736056299779,
			"-0.009": 1.16883228298,
			"-0.008": 3.10042610613,
			"-0.007": 8.86881247523,
			"-0.006": 10.9815204134,
			"-0.005": 10.3711529101,
			"-0.004": 10.128643682,
			"-0.003": 11.9772551774,
			"-0.002": 15.7208700271,
			"-0.001": 16.2463621182,
			"0.0": 17.9410106407,
			"0.001": 22.727578044,
			"0.002": 14.4298657311,
			"0.003": 7.5371329236,
			"0.004": 8.25508896283,
			"0.005": 7.1497736496,
			"0.006": 5.31721265762,
			"0.007": 3.68865916483,
			"0.008": 3.65408979719,
			"0.009": 3.13821942949,
			"0.01": 2.24342483839,
			"0.011": 2.04639487849,
			"0.012": 2.19498639968,
			"0.013": 2.07015568473,
			"0.014": 1.65626421384,
			"0.015": 1.33102627183,
			"0.016": 0.750463929647,
			"0.017": 0.0476977073208,
			"0.018": 0.0,
			"0.019": 0.0,
			"0.02": 0.0,
			"0.021": 0.0,
			"0.022": 0.0,
			"0.023": 0.0,
			"0.024": 0.0,
			"0.025": 0.0
		}
	}
}
