{
	 "smiles": "OC(=O)C1CCSC1", 
	 "Tm": 334.15, 
	 "num_atms": 16, 
	 "gaussian": { 
		 "optdone": 1, 
		 "sigma_profile": "yes", 
		 "theory": "DFT", 
		 "functional": "B3LYP", 
		 "basiset": "6-31G**", 
		 "properties": { 
			 "R2extent": 1490.3221, 
			 "electric_dipole_moment_norm": 2.67968680259, 
			 "electric_quadrupole_moment_norm": 5.68640484313, 
			 "total_energy": -744.007694428, 
			 "HOMO_LUMO_gap": 0.21568, 
			 "cosmo_polarized_energy": -10.49, 
			 "cosmo_cavitation_energy": 20.44, 
			 "cosmo_dispersion_energy": -15.84, 
			 "cosmo_repulsion_energy": 1.28, 
			 "cosmo_total_nonelectrostatic_energy": 5.88, 
			 "SMD_solvation_energy": 3.9 
		},
		"coords": [
			{
				"x": -1.7957311966,
				"y": 1.2404275899,
				"z": -1.528084473,
				"element": "O" 
			},
			{
				"x": -0.5244652429,
				"y": 0.8771090181,
				"z": -1.2326095733,
				"element": "C" 
			},
			{
				"x": 0.4363803194,
				"y": 1.5375090071,
				"z": -1.5620449947,
				"element": "O" 
			},
			{
				"x": -0.4827788552,
				"y": -0.4508503406,
				"z": -0.4998306484,
				"element": "C" 
			},
			{
				"x": -0.4288461848,
				"y": -1.632732342,
				"z": -1.4970721476,
				"element": "C" 
			},
			{
				"x": -0.1653418449,
				"y": -2.8906898196,
				"z": -0.6654770625,
				"element": "C" 
			},
			{
				"x": 1.0094622183,
				"y": -2.3923088813,
				"z": 0.6764269018,
				"element": "S" 
			},
			{
				"x": 0.7585655544,
				"y": -0.5825284548,
				"z": 0.3914648978,
				"element": "C" 
			},
			{
				"x": -1.7312676451,
				"y": 2.0723194205,
				"z": -2.0277058982,
				"element": "H" 
			},
			{
				"x": -1.394236635,
				"y": -0.5433010412,
				"z": 0.1000726598,
				"element": "H" 
			},
			{
				"x": -1.3563213827,
				"y": -1.7176747768,
				"z": -2.0724600579,
				"element": "H" 
			},
			{
				"x": 0.3950644409,
				"y": -1.4662446769,
				"z": -2.1999568133,
				"element": "H" 
			},
			{
				"x": -1.0865049688,
				"y": -3.2701242379,
				"z": -0.2141903361,
				"element": "H" 
			},
			{
				"x": 0.2857454156,
				"y": -3.689301933,
				"z": -1.2584836242,
				"element": "H" 
			},
			{
				"x": 1.6285315803,
				"y": -0.1559793149,
				"z": -0.1112754592,
				"element": "H" 
			},
			{
				"x": 0.6285444271,
				"y": -0.0831292168,
				"z": 1.3540266291,
				"element": "H" 
			}
		],
		 "valence_orbital": [ 
			{
				"type": "occ",
				"energy": -0.35053,
				"method": "rhf"
			},
			{
				"type": "occ",
				"energy": -0.32567,
				"method": "rhf"
			},
			{
				"type": "occ",
				"energy": -0.30988,
				"method": "rhf"
			},
			{
				"type": "occ",
				"energy": -0.2832,
				"method": "rhf"
			},
			{
				"type": "occ",
				"energy": -0.21883,
				"method": "rhf"
			},
			{
				"type": "unocc",
				"energy": -0.00315,
				"method": "rhf"
			},
			{
				"type": "unocc",
				"energy": 0.03165,
				"method": "rhf"
			},
			{
				"type": "unocc",
				"energy": 0.06414,
				"method": "rhf"
			},
			{
				"type": "unocc",
				"energy": 0.07273,
				"method": "rhf"
			},
			{
				"type": "unocc",
				"energy": 0.09637,
				"method": "rhf"
			}
		],
		"cosmo_sigma_profile": { 
			"-0.025": 0.0,
			"-0.024": 0.0,
			"-0.023": 0.0,
			"-0.022": 0.0,
			"-0.021": 0.0,
			"-0.02": 0.0,
			"-0.019": 0.0489730491989,
			"-0.018": 0.671254395038,
			"-0.017": 1.16062544684,
			"-0.016": 0.856661017233,
			"-0.015": 0.457442759277,
			"-0.014": 0.990173940477,
			"-0.013": 0.504636656576,
			"-0.012": 0.584152220176,
			"-0.011": 1.02711187505,
			"-0.01": 0.816094376776,
			"-0.009": 0.602994129853,
			"-0.008": 0.528158885662,
			"-0.007": 0.787197296198,
			"-0.006": 6.00800329147,
			"-0.005": 15.8010178881,
			"-0.004": 16.8799672336,
			"-0.003": 18.3245302072,
			"-0.002": 17.0892664686,
			"-0.001": 10.2093751794,
			"0.0": 7.15787031956,
			"0.001": 4.03473781951,
			"0.002": 5.31772649231,
			"0.003": 5.46115299579,
			"0.004": 6.06398740263,
			"0.005": 5.57795008914,
			"0.006": 5.31667454918,
			"0.007": 5.31320476442,
			"0.008": 4.92161263652,
			"0.009": 5.4734279157,
			"0.01": 4.76233044795,
			"0.011": 5.58022474054,
			"0.012": 3.80152794758,
			"0.013": 0.00788980151289,
			"0.014": 0.0,
			"0.015": 0.0,
			"0.016": 0.0,
			"0.017": 0.0,
			"0.018": 0.0,
			"0.019": 0.0,
			"0.02": 0.0,
			"0.021": 0.0,
			"0.022": 0.0,
			"0.023": 0.0,
			"0.024": 0.0,
			"0.025": 0.0
		}
	}
}
