{
	 "smiles": "NC1=NC=C(CC2=C(Cl)C=CC(Cl)=C2)S1", 
	 "Tm": 385.15, 
	 "num_atms": 23, 
	 "gaussian": { 
		 "optdone": 1, 
		 "sigma_profile": "yes", 
		 "theory": "DFT", 
		 "functional": "B3LYP", 
		 "basiset": "6-31G**", 
		 "properties": { 
			 "R2extent": 5104.8735, 
			 "electric_dipole_moment_norm": 1.36650611415, 
			 "electric_quadrupole_moment_norm": 13.8593555806, 
			 "total_energy": -1813.95838798, 
			 "HOMO_LUMO_gap": 0.17952, 
			 "cosmo_polarized_energy": -12.6, 
			 "cosmo_cavitation_energy": 32.8, 
			 "cosmo_dispersion_energy": -23.94, 
			 "cosmo_repulsion_energy": 1.85, 
			 "cosmo_total_nonelectrostatic_energy": 10.72, 
			 "SMD_solvation_energy": 2.78 
		},
		"coords": [
			{
				"x": 1.3483575982,
				"y": -1.6399226239,
				"z": -4.4660241516,
				"element": "N" 
			},
			{
				"x": 0.4393426438,
				"y": -1.5040343696,
				"z": -3.4396411166,
				"element": "C" 
			},
			{
				"x": -0.4784433047,
				"y": -2.3829125129,
				"z": -3.158911763,
				"element": "N" 
			},
			{
				"x": -1.2789146065,
				"y": -1.9296028481,
				"z": -2.1317700998,
				"element": "C" 
			},
			{
				"x": -0.9951219269,
				"y": -0.7092084046,
				"z": -1.5982097245,
				"element": "C" 
			},
			{
				"x": -1.701033696,
				"y": 0.0257803479,
				"z": -0.4910127525,
				"element": "C" 
			},
			{
				"x": -0.8362304498,
				"y": 0.3152326349,
				"z": 0.7251785329,
				"element": "C" 
			},
			{
				"x": -0.5697824665,
				"y": -0.6364580357,
				"z": 1.7213188835,
				"element": "C" 
			},
			{
				"x": -1.2771033943,
				"y": -2.2447757946,
				"z": 1.6330876019,
				"element": "Cl" 
			},
			{
				"x": 0.243805439,
				"y": -0.3435505105,
				"z": 2.8156711321,
				"element": "C" 
			},
			{
				"x": 0.8185481363,
				"y": 0.9193077659,
				"z": 2.9420832595,
				"element": "C" 
			},
			{
				"x": 0.5585211365,
				"y": 1.875489425,
				"z": 1.9630447222,
				"element": "C" 
			},
			{
				"x": 1.2630338303,
				"y": 3.477897888,
				"z": 2.1066242162,
				"element": "Cl" 
			},
			{
				"x": -0.2578971211,
				"y": 1.5830385321,
				"z": 0.8732706089,
				"element": "C" 
			},
			{
				"x": 0.3926393881,
				"y": -0.0328391034,
				"z": -2.456005214,
				"element": "S" 
			},
			{
				"x": 1.3942839352,
				"y": -2.5876319015,
				"z": -4.8184695329,
				"element": "H" 
			},
			{
				"x": 2.2534703901,
				"y": -1.2119129138,
				"z": -4.3313993831,
				"element": "H" 
			},
			{
				"x": -2.0884557339,
				"y": -2.5614782033,
				"z": -1.7826981651,
				"element": "H" 
			},
			{
				"x": -2.5632529712,
				"y": -0.5805716736,
				"z": -0.1967002654,
				"element": "H" 
			},
			{
				"x": -2.0979846663,
				"y": 0.9785154827,
				"z": -0.8624048076,
				"element": "H" 
			},
			{
				"x": 0.4240599887,
				"y": -1.1033859322,
				"z": 3.5679070159,
				"element": "H" 
			},
			{
				"x": 1.4523252,
				"y": 1.1557232035,
				"z": 3.789093859,
				"element": "H" 
			},
			{
				"x": -0.451667349,
				"y": 2.3480995476,
				"z": 0.1283671437,
				"element": "H" 
			}
		],
		 "valence_orbital": [ 
			{
				"type": "occ",
				"energy": -0.27859,
				"method": "rhf"
			},
			{
				"type": "occ",
				"energy": -0.27221,
				"method": "rhf"
			},
			{
				"type": "occ",
				"energy": -0.26456,
				"method": "rhf"
			},
			{
				"type": "occ",
				"energy": -0.24543,
				"method": "rhf"
			},
			{
				"type": "occ",
				"energy": -0.20831,
				"method": "rhf"
			},
			{
				"type": "unocc",
				"energy": -0.02879,
				"method": "rhf"
			},
			{
				"type": "unocc",
				"energy": -0.02635,
				"method": "rhf"
			},
			{
				"type": "unocc",
				"energy": -0.00504,
				"method": "rhf"
			},
			{
				"type": "unocc",
				"energy": 0.01234,
				"method": "rhf"
			},
			{
				"type": "unocc",
				"energy": 0.01779,
				"method": "rhf"
			}
		],
		"cosmo_sigma_profile": { 
			"-0.025": 0.0,
			"-0.024": 0.0,
			"-0.023": 0.0,
			"-0.022": 0.0,
			"-0.021": 0.0,
			"-0.02": 0.0,
			"-0.019": 0.0,
			"-0.018": 0.0,
			"-0.017": 0.0,
			"-0.016": 0.0,
			"-0.015": 0.310655642602,
			"-0.014": 1.7389976962,
			"-0.013": 2.97781142799,
			"-0.012": 1.87563254715,
			"-0.011": 2.92072343723,
			"-0.01": 2.48919666531,
			"-0.009": 1.52255745637,
			"-0.008": 7.16274563031,
			"-0.007": 9.59431438759,
			"-0.006": 10.5110193991,
			"-0.005": 11.5336916438,
			"-0.004": 11.2326100699,
			"-0.003": 12.4929974253,
			"-0.002": 14.9081944144,
			"-0.001": 14.2442663931,
			"0.0": 17.8733195501,
			"0.001": 25.4588030151,
			"0.002": 34.4112945586,
			"0.003": 26.4102716756,
			"0.004": 26.0244293344,
			"0.005": 15.1677811894,
			"0.006": 3.43307165556,
			"0.007": 1.96416257162,
			"0.008": 2.24471174041,
			"0.009": 1.66019408346,
			"0.01": 2.24333297795,
			"0.011": 1.93620734205,
			"0.012": 0.966616629345,
			"0.013": 1.03179697252,
			"0.014": 1.35290102145,
			"0.015": 0.849323719908,
			"0.016": 0.455744096337,
			"0.017": 0.0,
			"0.018": 0.0,
			"0.019": 0.0,
			"0.02": 0.0,
			"0.021": 0.0,
			"0.022": 0.0,
			"0.023": 0.0,
			"0.024": 0.0,
			"0.025": 0.0
		}
	}
}
