{
	 "smiles": "ClCCC(Cl)Cl", 
	 "Tm": 214.15, 
	 "num_atms": 11, 
	 "gaussian": { 
		 "optdone": 1, 
		 "sigma_profile": "yes", 
		 "theory": "DFT", 
		 "functional": "B3LYP", 
		 "basiset": "6-31G**", 
		 "properties": { 
			 "R2extent": 1988.0201, 
			 "electric_dipole_moment_norm": 1.98912056447, 
			 "electric_quadrupole_moment_norm": 4.50851076854, 
			 "total_energy": -1497.91796065, 
			 "HOMO_LUMO_gap": 0.28677, 
			 "cosmo_polarized_energy": -6.12, 
			 "cosmo_cavitation_energy": 19.39, 
			 "cosmo_dispersion_energy": -14.68, 
			 "cosmo_repulsion_energy": 1.27, 
			 "cosmo_total_nonelectrostatic_energy": 5.98, 
			 "SMD_solvation_energy": 2.26 
		},
		"coords": [
			{
				"x": 0.0626530259,
				"y": 2.9814475303,
				"z": -1.332547191,
				"element": "Cl" 
			},
			{
				"x": -0.3105447033,
				"y": 1.6378304755,
				"z": -0.1653325118,
				"element": "C" 
			},
			{
				"x": 0.2045188133,
				"y": 0.2904109362,
				"z": -0.6583031537,
				"element": "C" 
			},
			{
				"x": 1.7216218528,
				"y": 0.2022714508,
				"z": -0.7846319894,
				"element": "C" 
			},
			{
				"x": 2.1884940505,
				"y": -1.3755641766,
				"z": -1.5246334505,
				"element": "Cl" 
			},
			{
				"x": 2.5327416076,
				"y": 0.4104269828,
				"z": 0.8175142816,
				"element": "Cl" 
			},
			{
				"x": 0.1357048198,
				"y": 1.9217917558,
				"z": 0.7875874018,
				"element": "H" 
			},
			{
				"x": -1.3959329053,
				"y": 1.6128053527,
				"z": -0.064954554,
				"element": "H" 
			},
			{
				"x": -0.2227910359,
				"y": 0.0694484612,
				"z": -1.6413263319,
				"element": "H" 
			},
			{
				"x": -0.1388701302,
				"y": -0.4853076236,
				"z": 0.0352851882,
				"element": "H" 
			},
			{
				"x": 2.1266046049,
				"y": 0.9782388548,
				"z": -1.4302576894,
				"element": "H" 
			}
		],
		 "valence_orbital": [ 
			{
				"type": "occ",
				"energy": -0.32887,
				"method": "rhf"
			},
			{
				"type": "occ",
				"energy": -0.32,
				"method": "rhf"
			},
			{
				"type": "occ",
				"energy": -0.31165,
				"method": "rhf"
			},
			{
				"type": "occ",
				"energy": -0.30874,
				"method": "rhf"
			},
			{
				"type": "occ",
				"energy": -0.30393,
				"method": "rhf"
			},
			{
				"type": "unocc",
				"energy": -0.01716,
				"method": "rhf"
			},
			{
				"type": "unocc",
				"energy": 0.01137,
				"method": "rhf"
			},
			{
				"type": "unocc",
				"energy": 0.01673,
				"method": "rhf"
			},
			{
				"type": "unocc",
				"energy": 0.09365,
				"method": "rhf"
			},
			{
				"type": "unocc",
				"energy": 0.10379,
				"method": "rhf"
			}
		],
		"cosmo_sigma_profile": { 
			"-0.025": 0.0,
			"-0.024": 0.0,
			"-0.023": 0.0,
			"-0.022": 0.0,
			"-0.021": 0.0,
			"-0.02": 0.0,
			"-0.019": 0.0,
			"-0.018": 0.0,
			"-0.017": 0.0,
			"-0.016": 0.0,
			"-0.015": 0.0,
			"-0.014": 0.0,
			"-0.013": 0.0,
			"-0.012": 0.0,
			"-0.011": 0.0,
			"-0.01": 0.283992387927,
			"-0.009": 1.10269047501,
			"-0.008": 3.61359389829,
			"-0.007": 9.5493603695,
			"-0.006": 11.4158237636,
			"-0.005": 9.19887876996,
			"-0.004": 8.54790016437,
			"-0.003": 7.87708716674,
			"-0.002": 8.01535749104,
			"-0.001": 8.31087801937,
			"0.0": 9.41833768408,
			"0.001": 10.0267462607,
			"0.002": 12.0598160811,
			"0.003": 11.9465331284,
			"0.004": 19.9365077596,
			"0.005": 19.8827731364,
			"0.006": 7.17388645882,
			"0.007": 1.51253315207,
			"0.008": 0.0,
			"0.009": 0.0,
			"0.01": 0.0,
			"0.011": 0.0,
			"0.012": 0.0,
			"0.013": 0.0,
			"0.014": 0.0,
			"0.015": 0.0,
			"0.016": 0.0,
			"0.017": 0.0,
			"0.018": 0.0,
			"0.019": 0.0,
			"0.02": 0.0,
			"0.021": 0.0,
			"0.022": 0.0,
			"0.023": 0.0,
			"0.024": 0.0,
			"0.025": 0.0
		}
	}
}
