{
	 "smiles": "CC1=NN(C(C)=C1C=O)C1=CC=CC=C1", 
	 "Tm": 399.15, 
	 "num_atms": 27, 
	 "gaussian": { 
		 "optdone": 1, 
		 "sigma_profile": "yes", 
		 "theory": "DFT", 
		 "functional": "B3LYP", 
		 "basiset": "6-31G**", 
		 "properties": { 
			 "R2extent": 3895.7277, 
			 "electric_dipole_moment_norm": 2.93327539791, 
			 "electric_quadrupole_moment_norm": 14.6797547132, 
			 "total_energy": -649.225511784, 
			 "HOMO_LUMO_gap": 0.19025, 
			 "cosmo_polarized_energy": -10.73, 
			 "cosmo_cavitation_energy": 30.86, 
			 "cosmo_dispersion_energy": -22.15, 
			 "cosmo_repulsion_energy": 1.73, 
			 "cosmo_total_nonelectrostatic_energy": 10.44, 
			 "SMD_solvation_energy": 5.57 
		},
		"coords": [
			{
				"x": 2.5467412669,
				"y": 0.4049643142,
				"z": 2.2412407127,
				"element": "C" 
			},
			{
				"x": 1.3765885208,
				"y": 0.7299682413,
				"z": 1.3633591042,
				"element": "C" 
			},
			{
				"x": 1.2879905902,
				"y": 0.2032726031,
				"z": 0.1538144652,
				"element": "N" 
			},
			{
				"x": 0.1241678749,
				"y": 0.707111146,
				"z": -0.3805109364,
				"element": "N" 
			},
			{
				"x": -0.5315404069,
				"y": 1.5316808722,
				"z": 0.4827862016,
				"element": "C" 
			},
			{
				"x": -1.8526791118,
				"y": 2.1804085817,
				"z": 0.2246470905,
				"element": "C" 
			},
			{
				"x": 0.2601963062,
				"y": 1.5802193926,
				"z": 1.6358771194,
				"element": "C" 
			},
			{
				"x": -0.0123052376,
				"y": 2.3050518463,
				"z": 2.8664739778,
				"element": "C" 
			},
			{
				"x": -0.9892211172,
				"y": 3.0115183645,
				"z": 3.0803857165,
				"element": "O" 
			},
			{
				"x": -0.2563713479,
				"y": 0.2743257398,
				"z": -1.683780178,
				"element": "C" 
			},
			{
				"x": -0.8067137581,
				"y": 1.1690519338,
				"z": -2.6068007559,
				"element": "C" 
			},
			{
				"x": -1.1717544712,
				"y": 0.7127897871,
				"z": -3.8741843868,
				"element": "C" 
			},
			{
				"x": -0.971900932,
				"y": -0.6214828489,
				"z": -4.2289995699,
				"element": "C" 
			},
			{
				"x": -0.3998901561,
				"y": -1.5036242535,
				"z": -3.3085731233,
				"element": "C" 
			},
			{
				"x": -0.0436352464,
				"y": -1.0634206679,
				"z": -2.0361574258,
				"element": "C" 
			},
			{
				"x": 2.2275698212,
				"y": -0.0596093286,
				"z": 3.1805217633,
				"element": "H" 
			},
			{
				"x": 3.1179340901,
				"y": 1.3036191912,
				"z": 2.4981223146,
				"element": "H" 
			},
			{
				"x": 3.2103654219,
				"y": -0.2882397635,
				"z": 1.7203867527,
				"element": "H" 
			},
			{
				"x": -1.7371966028,
				"y": 3.1294653631,
				"z": -0.3123011136,
				"element": "H" 
			},
			{
				"x": -2.3165057261,
				"y": 2.4134147398,
				"z": 1.1833390306,
				"element": "H" 
			},
			{
				"x": -2.5077074087,
				"y": 1.5372986052,
				"z": -0.3693586263,
				"element": "H" 
			},
			{
				"x": 0.7595628529,
				"y": 2.1719957047,
				"z": 3.6560378662,
				"element": "H" 
			},
			{
				"x": -0.9261001703,
				"y": 2.2146745617,
				"z": -2.348987871,
				"element": "H" 
			},
			{
				"x": -1.5989667971,
				"y": 1.4100920203,
				"z": -4.5885805426,
				"element": "H" 
			},
			{
				"x": -1.2524823674,
				"y": -0.97063004,
				"z": -5.2180609738,
				"element": "H" 
			},
			{
				"x": -0.2342893344,
				"y": -2.5420352185,
				"z": -3.5796957059,
				"element": "H" 
			},
			{
				"x": 0.405343447,
				"y": -1.7325808876,
				"z": -1.312000906,
				"element": "H" 
			}
		],
		 "valence_orbital": [ 
			{
				"type": "occ",
				"energy": -0.28601,
				"method": "rhf"
			},
			{
				"type": "occ",
				"energy": -0.2645,
				"method": "rhf"
			},
			{
				"type": "occ",
				"energy": -0.24906,
				"method": "rhf"
			},
			{
				"type": "occ",
				"energy": -0.24305,
				"method": "rhf"
			},
			{
				"type": "occ",
				"energy": -0.23598,
				"method": "rhf"
			},
			{
				"type": "unocc",
				"energy": -0.04573,
				"method": "rhf"
			},
			{
				"type": "unocc",
				"energy": -0.01579,
				"method": "rhf"
			},
			{
				"type": "unocc",
				"energy": -0.01494,
				"method": "rhf"
			},
			{
				"type": "unocc",
				"energy": 0.02623,
				"method": "rhf"
			},
			{
				"type": "unocc",
				"energy": 0.07982,
				"method": "rhf"
			}
		],
		"cosmo_sigma_profile": { 
			"-0.025": 0.0,
			"-0.024": 0.0,
			"-0.023": 0.0,
			"-0.022": 0.0,
			"-0.021": 0.0,
			"-0.02": 0.0,
			"-0.019": 0.0,
			"-0.018": 0.0,
			"-0.017": 0.0,
			"-0.016": 0.0,
			"-0.015": 0.0,
			"-0.014": 0.0,
			"-0.013": 0.0,
			"-0.012": 0.0,
			"-0.011": 0.0,
			"-0.01": 0.0,
			"-0.009": 0.0101188617043,
			"-0.008": 1.27987714661,
			"-0.007": 3.67634977249,
			"-0.006": 13.1477027467,
			"-0.005": 24.817653953,
			"-0.004": 23.7246317652,
			"-0.003": 20.2057481898,
			"-0.002": 21.0176105061,
			"-0.001": 24.9217380377,
			"0.0": 17.6646977499,
			"0.001": 16.7663052655,
			"0.002": 14.5678618883,
			"0.003": 12.8995611391,
			"0.004": 15.2640712322,
			"0.005": 8.45762696519,
			"0.006": 3.98258858732,
			"0.007": 3.43164493426,
			"0.008": 2.64441583451,
			"0.009": 3.22371029312,
			"0.01": 2.82712617973,
			"0.011": 3.06903304995,
			"0.012": 4.91408307247,
			"0.013": 2.7550871586,
			"0.014": 1.14607545549,
			"0.015": 0.162719554106,
			"0.016": 0.0,
			"0.017": 0.0,
			"0.018": 0.0,
			"0.019": 0.0,
			"0.02": 0.0,
			"0.021": 0.0,
			"0.022": 0.0,
			"0.023": 0.0,
			"0.024": 0.0,
			"0.025": 0.0
		}
	}
}
