{
	 "smiles": "ClCC(=O)NC1=CC=C(C=C1)C1=NNC(=O)CC1", 
	 "Tm": 495.15, 
	 "num_atms": 30, 
	 "gaussian": { 
		 "optdone": 1, 
		 "sigma_profile": "yes", 
		 "theory": "DFT", 
		 "functional": "B3LYP", 
		 "basiset": "6-31G**", 
		 "properties": { 
			 "R2extent": 8473.4875, 
			 "electric_dipole_moment_norm": 3.24602061146, 
			 "electric_quadrupole_moment_norm": 43.6485813939, 
			 "total_energy": -1239.40205525, 
			 "HOMO_LUMO_gap": 0.15885, 
			 "cosmo_polarized_energy": -21.24, 
			 "cosmo_cavitation_energy": 36.0, 
			 "cosmo_dispersion_energy": -26.46, 
			 "cosmo_repulsion_energy": 2.06, 
			 "cosmo_total_nonelectrostatic_energy": 11.6, 
			 "SMD_solvation_energy": 6.3 
		},
		"coords": [
			{
				"x": 5.4151493008,
				"y": 0.3140768606,
				"z": -1.6566148163,
				"element": "Cl" 
			},
			{
				"x": 4.9183946958,
				"y": -1.0585938289,
				"z": -0.5796498958,
				"element": "C" 
			},
			{
				"x": 4.869841208,
				"y": -0.6198035789,
				"z": 0.8806439516,
				"element": "C" 
			},
			{
				"x": 5.8832047475,
				"y": -0.5953571911,
				"z": 1.5599380562,
				"element": "O" 
			},
			{
				"x": 3.6465916696,
				"y": -0.3019292301,
				"z": 1.4363741407,
				"element": "N" 
			},
			{
				"x": 2.3355082446,
				"y": -0.2743542095,
				"z": 0.9072352981,
				"element": "C" 
			},
			{
				"x": 2.0376448216,
				"y": 0.2495776084,
				"z": -0.3615792583,
				"element": "C" 
			},
			{
				"x": 0.7265227469,
				"y": 0.2662198003,
				"z": -0.8191191055,
				"element": "C" 
			},
			{
				"x": -0.3368372505,
				"y": -0.2021418255,
				"z": -0.0252066047,
				"element": "C" 
			},
			{
				"x": -0.0287475051,
				"y": -0.6916772161,
				"z": 1.2551835349,
				"element": "C" 
			},
			{
				"x": 1.2850027726,
				"y": -0.7367570325,
				"z": 1.7111810023,
				"element": "C" 
			},
			{
				"x": -1.7234865557,
				"y": -0.1818266164,
				"z": -0.5387294647,
				"element": "C" 
			},
			{
				"x": -1.8800803027,
				"y": 0.027305195,
				"z": -1.8050881433,
				"element": "N" 
			},
			{
				"x": -3.1618839698,
				"y": 0.0319558921,
				"z": -2.3017411875,
				"element": "N" 
			},
			{
				"x": -4.3361577464,
				"y": 0.2442905928,
				"z": -1.6015392169,
				"element": "C" 
			},
			{
				"x": -5.4063297506,
				"y": 0.3587553989,
				"z": -2.1747109018,
				"element": "O" 
			},
			{
				"x": -4.1290799553,
				"y": 0.3634453729,
				"z": -0.104862283,
				"element": "C" 
			},
			{
				"x": -2.9104653947,
				"y": -0.4403305927,
				"z": 0.3669268221,
				"element": "C" 
			},
			{
				"x": 5.6985419324,
				"y": -1.8132287339,
				"z": -0.6627350167,
				"element": "H" 
			},
			{
				"x": 3.9697944642,
				"y": -1.4385493837,
				"z": -0.9565313974,
				"element": "H" 
			},
			{
				"x": 3.7311763322,
				"y": -0.1599660756,
				"z": 2.4363756956,
				"element": "H" 
			},
			{
				"x": 2.8246685597,
				"y": 0.6740182495,
				"z": -0.9745111374,
				"element": "H" 
			},
			{
				"x": 0.5034543619,
				"y": 0.6707898796,
				"z": -1.7997326651,
				"element": "H" 
			},
			{
				"x": -0.8116694564,
				"y": -1.0707288946,
				"z": 1.9032904608,
				"element": "H" 
			},
			{
				"x": 1.502763003,
				"y": -1.145273822,
				"z": 2.6941869803,
				"element": "H" 
			},
			{
				"x": -3.2162403427,
				"y": 0.1083401139,
				"z": -3.3088562727,
				"element": "H" 
			},
			{
				"x": -5.0484657659,
				"y": 0.0534022232,
				"z": 0.395660688,
				"element": "H" 
			},
			{
				"x": -3.9859312472,
				"y": 1.430437403,
				"z": 0.1131557461,
				"element": "H" 
			},
			{
				"x": -2.6807101673,
				"y": -0.1940139306,
				"z": 1.4056476474,
				"element": "H" 
			},
			{
				"x": -3.1401734506,
				"y": -1.515782428,
				"z": 0.3395073432,
				"element": "H" 
			}
		],
		 "valence_orbital": [ 
			{
				"type": "occ",
				"energy": -0.27333,
				"method": "rhf"
			},
			{
				"type": "occ",
				"energy": -0.27028,
				"method": "rhf"
			},
			{
				"type": "occ",
				"energy": -0.26479,
				"method": "rhf"
			},
			{
				"type": "occ",
				"energy": -0.25497,
				"method": "rhf"
			},
			{
				"type": "occ",
				"energy": -0.22258,
				"method": "rhf"
			},
			{
				"type": "unocc",
				"energy": -0.06373,
				"method": "rhf"
			},
			{
				"type": "unocc",
				"energy": -0.03039,
				"method": "rhf"
			},
			{
				"type": "unocc",
				"energy": -0.02408,
				"method": "rhf"
			},
			{
				"type": "unocc",
				"energy": 0.0066,
				"method": "rhf"
			},
			{
				"type": "unocc",
				"energy": 0.0373,
				"method": "rhf"
			}
		],
		"cosmo_sigma_profile": { 
			"-0.025": 0.0,
			"-0.024": 0.0,
			"-0.023": 0.0,
			"-0.022": 0.0,
			"-0.021": 0.0,
			"-0.02": 0.0,
			"-0.019": 0.0,
			"-0.018": 0.0,
			"-0.017": 0.0,
			"-0.016": 0.0,
			"-0.015": 1.43099052851,
			"-0.014": 2.06305620589,
			"-0.013": 1.73522108025,
			"-0.012": 1.8861205466,
			"-0.011": 1.81579325782,
			"-0.01": 2.73558982418,
			"-0.009": 2.82409211453,
			"-0.008": 6.29007531474,
			"-0.007": 12.7979345475,
			"-0.006": 19.8173221844,
			"-0.005": 22.2792063067,
			"-0.004": 19.8804841062,
			"-0.003": 18.5482371879,
			"-0.002": 15.0463163055,
			"-0.001": 15.0166829158,
			"0.0": 15.0640719616,
			"0.001": 16.0823675037,
			"0.002": 16.4503815205,
			"0.003": 20.0944469408,
			"0.004": 19.0592906477,
			"0.005": 11.0573622873,
			"0.006": 7.05770450084,
			"0.007": 4.9032677611,
			"0.008": 3.14738857126,
			"0.009": 3.88652642686,
			"0.01": 3.51017304326,
			"0.011": 4.53816313223,
			"0.012": 8.14894907284,
			"0.013": 9.48361262809,
			"0.014": 2.19636714254,
			"0.015": 0.0667161709008,
			"0.016": 0.0,
			"0.017": 0.0,
			"0.018": 0.0,
			"0.019": 0.0,
			"0.02": 0.0,
			"0.021": 0.0,
			"0.022": 0.0,
			"0.023": 0.0,
			"0.024": 0.0,
			"0.025": 0.0
		}
	}
}
