{
	 "smiles": "OC(=O)C1=CC(=C(Br)S1)S(Cl)(=O)=O", 
	 "Tm": 383.15, 
	 "num_atms": 15, 
	 "gaussian": { 
		 "optdone": 1, 
		 "sigma_profile": "yes", 
		 "theory": "DFT", 
		 "functional": "B3LYP", 
		 "basiset": "6-31G**", 
		 "properties": { 
			 "R2extent": 4547.5547, 
			 "electric_dipole_moment_norm": 5.01621758798, 
			 "electric_quadrupole_moment_norm": 5.5141013665, 
			 "total_energy": -4320.51630755, 
			 "HOMO_LUMO_gap": 0.17328, 
			 "cosmo_polarized_energy": -12.49, 
			 "cosmo_cavitation_energy": 28.28, 
			 "cosmo_dispersion_energy": -21.74, 
			 "cosmo_repulsion_energy": 1.64, 
			 "cosmo_total_nonelectrostatic_energy": 8.18, 
			 "SMD_solvation_energy": 3.63 
		},
		"coords": [
			{
				"x": 3.6997155629,
				"y": 1.5606252155,
				"z": -1.7933719544,
				"element": "O" 
			},
			{
				"x": 2.8624381169,
				"y": 1.9014213749,
				"z": -0.7858076492,
				"element": "C" 
			},
			{
				"x": 3.0688707434,
				"y": 2.811476377,
				"z": -0.013259082,
				"element": "O" 
			},
			{
				"x": 1.673725197,
				"y": 1.0319816575,
				"z": -0.7430688074,
				"element": "C" 
			},
			{
				"x": 0.6517790571,
				"y": 1.1380027034,
				"z": 0.1633340006,
				"element": "C" 
			},
			{
				"x": -0.3624745803,
				"y": 0.165885628,
				"z": -0.0563200612,
				"element": "C" 
			},
			{
				"x": -0.0956606384,
				"y": -0.6741169423,
				"z": -1.121035449,
				"element": "C" 
			},
			{
				"x": -1.1021326276,
				"y": -2.1104919872,
				"z": -1.7671560772,
				"element": "Br" 
			},
			{
				"x": 1.4064189312,
				"y": -0.27176204,
				"z": -1.8754602802,
				"element": "S" 
			},
			{
				"x": -1.8069453865,
				"y": 0.1269430911,
				"z": 0.9808319887,
				"element": "S" 
			},
			{
				"x": -1.3770551688,
				"y": -1.5321681403,
				"z": 2.2350558264,
				"element": "Cl" 
			},
			{
				"x": -1.7665193062,
				"y": 1.309009348,
				"z": 1.8302413725,
				"element": "O" 
			},
			{
				"x": -2.9804218552,
				"y": -0.2359959409,
				"z": 0.2019317057,
				"element": "O" 
			},
			{
				"x": 4.4525935985,
				"y": 2.1735291751,
				"z": -1.7546499971,
				"element": "H" 
			},
			{
				"x": 0.6219683559,
				"y": 1.8839604804,
				"z": 0.9469344637,
				"element": "H" 
			}
		],
		 "valence_orbital": [ 
			{
				"type": "occ",
				"energy": -0.3254,
				"method": "rhf"
			},
			{
				"type": "occ",
				"energy": -0.32129,
				"method": "rhf"
			},
			{
				"type": "occ",
				"energy": -0.30727,
				"method": "rhf"
			},
			{
				"type": "occ",
				"energy": -0.30692,
				"method": "rhf"
			},
			{
				"type": "occ",
				"energy": -0.27574,
				"method": "rhf"
			},
			{
				"type": "unocc",
				"energy": -0.10246,
				"method": "rhf"
			},
			{
				"type": "unocc",
				"energy": -0.08749,
				"method": "rhf"
			},
			{
				"type": "unocc",
				"energy": -0.03859,
				"method": "rhf"
			},
			{
				"type": "unocc",
				"energy": -0.03191,
				"method": "rhf"
			},
			{
				"type": "unocc",
				"energy": -0.01868,
				"method": "rhf"
			}
		],
		"cosmo_sigma_profile": { 
			"-0.025": 0.0,
			"-0.024": 0.0,
			"-0.023": 0.0,
			"-0.022": 0.0,
			"-0.021": 0.0,
			"-0.02": 0.21070602412,
			"-0.019": 0.775874677651,
			"-0.018": 1.00063993948,
			"-0.017": 1.2761332924,
			"-0.016": 0.279598037356,
			"-0.015": 0.527145701038,
			"-0.014": 0.78421066936,
			"-0.013": 1.11377311079,
			"-0.012": 0.606789128196,
			"-0.011": 0.750190091634,
			"-0.01": 0.406759321526,
			"-0.009": 1.16142332532,
			"-0.008": 3.4355511627,
			"-0.007": 4.08806059525,
			"-0.006": 5.42992500879,
			"-0.005": 8.11838927761,
			"-0.004": 17.1852205355,
			"-0.003": 22.3955574335,
			"-0.002": 22.6302222336,
			"-0.001": 22.2290778288,
			"0.0": 19.2908551137,
			"0.001": 18.137669451,
			"0.002": 17.4697935472,
			"0.003": 16.3010507678,
			"0.004": 6.43777054555,
			"0.005": 6.33951235474,
			"0.006": 7.06921738693,
			"0.007": 10.4315421197,
			"0.008": 9.02953011934,
			"0.009": 3.33824989925,
			"0.01": 3.38772800209,
			"0.011": 4.27753835214,
			"0.012": 0.0951384271635,
			"0.013": 0.0,
			"0.014": 0.0,
			"0.015": 0.0,
			"0.016": 0.0,
			"0.017": 0.0,
			"0.018": 0.0,
			"0.019": 0.0,
			"0.02": 0.0,
			"0.021": 0.0,
			"0.022": 0.0,
			"0.023": 0.0,
			"0.024": 0.0,
			"0.025": 0.0
		}
	}
}
