{
	 "smiles": "COC(=O)C1=C(C)C(C(=O)OC)=C(S1)S(Cl)(=O)=O", 
	 "Tm": 363.15, 
	 "num_atms": 27, 
	 "gaussian": { 
		 "optdone": 1, 
		 "sigma_profile": "yes", 
		 "theory": "DFT", 
		 "functional": "B3LYP", 
		 "basiset": "6-31G**", 
		 "properties": { 
			 "R2extent": 6283.023, 
			 "electric_dipole_moment_norm": 3.19308658981, 
			 "electric_quadrupole_moment_norm": 26.1612558707, 
			 "total_energy": -2056.21716979, 
			 "HOMO_LUMO_gap": 0.16796, 
			 "cosmo_polarized_energy": -12.01, 
			 "cosmo_cavitation_energy": 36.84, 
			 "cosmo_dispersion_energy": -26.7, 
			 "cosmo_repulsion_energy": 1.99, 
			 "cosmo_total_nonelectrostatic_energy": 12.13, 
			 "SMD_solvation_energy": 7.87 
		},
		"coords": [
			{
				"x": 2.1160870361,
				"y": -2.9641356505,
				"z": 4.5105442615,
				"element": "C" 
			},
			{
				"x": 1.4472937785,
				"y": -2.2953971647,
				"z": 3.4257897799,
				"element": "O" 
			},
			{
				"x": 2.2116938817,
				"y": -1.4549017446,
				"z": 2.6951355563,
				"element": "C" 
			},
			{
				"x": 3.3885232498,
				"y": -1.2529481905,
				"z": 2.9159510247,
				"element": "O" 
			},
			{
				"x": 1.4117286182,
				"y": -0.8327643501,
				"z": 1.6142070432,
				"element": "C" 
			},
			{
				"x": 1.8338946711,
				"y": 0.0678313314,
				"z": 0.6480967697,
				"element": "C" 
			},
			{
				"x": 3.2318127063,
				"y": 0.6025175932,
				"z": 0.5001586379,
				"element": "C" 
			},
			{
				"x": 0.7505583251,
				"y": 0.4459984701,
				"z": -0.2148856073,
				"element": "C" 
			},
			{
				"x": 0.9393544094,
				"y": 1.3981410424,
				"z": -1.3538987576,
				"element": "C" 
			},
			{
				"x": 1.9253214945,
				"y": 1.4136800132,
				"z": -2.0596260345,
				"element": "O" 
			},
			{
				"x": -0.0993550399,
				"y": 2.2345673096,
				"z": -1.4719245921,
				"element": "O" 
			},
			{
				"x": -0.0717085936,
				"y": 3.1134019196,
				"z": -2.6134484022,
				"element": "C" 
			},
			{
				"x": -0.4280788956,
				"y": -0.1959893245,
				"z": 0.1181242623,
				"element": "C" 
			},
			{
				"x": -0.2693332429,
				"y": -1.2585139658,
				"z": 1.4699206373,
				"element": "S" 
			},
			{
				"x": -2.0047104312,
				"y": -0.17458146,
				"z": -0.7046485435,
				"element": "S" 
			},
			{
				"x": -2.9131803816,
				"y": 1.5819623554,
				"z": 0.0560249598,
				"element": "Cl" 
			},
			{
				"x": -2.7775028777,
				"y": -1.2830865998,
				"z": -0.1578654436,
				"element": "O" 
			},
			{
				"x": -1.8277650822,
				"y": 0.013416051,
				"z": -2.1365333302,
				"element": "O" 
			},
			{
				"x": 2.5086176557,
				"y": -2.2347806424,
				"z": 5.2227835703,
				"element": "H" 
			},
			{
				"x": 2.9400850973,
				"y": -3.5730759652,
				"z": 4.1317207093,
				"element": "H" 
			},
			{
				"x": 1.3572213767,
				"y": -3.5900466182,
				"z": 4.9780807312,
				"element": "H" 
			},
			{
				"x": 3.8719190351,
				"y": 0.2329160338,
				"z": 1.2976954295,
				"element": "H" 
			},
			{
				"x": 3.6402456201,
				"y": 0.3112742499,
				"z": -0.4709892232,
				"element": "H" 
			},
			{
				"x": 3.2255675722,
				"y": 1.6972998999,
				"z": 0.5186220597,
				"element": "H" 
			},
			{
				"x": -0.9679636637,
				"y": 3.7254806896,
				"z": -2.5273975777,
				"element": "H" 
			},
			{
				"x": -0.0922886283,
				"y": 2.5280650204,
				"z": -3.5352068959,
				"element": "H" 
			},
			{
				"x": 0.8279623089,
				"y": 3.732069697,
				"z": -2.5947310249,
				"element": "H" 
			}
		],
		 "valence_orbital": [ 
			{
				"type": "occ",
				"energy": -0.31664,
				"method": "rhf"
			},
			{
				"type": "occ",
				"energy": -0.30274,
				"method": "rhf"
			},
			{
				"type": "occ",
				"energy": -0.29716,
				"method": "rhf"
			},
			{
				"type": "occ",
				"energy": -0.28453,
				"method": "rhf"
			},
			{
				"type": "occ",
				"energy": -0.27753,
				"method": "rhf"
			},
			{
				"type": "unocc",
				"energy": -0.10957,
				"method": "rhf"
			},
			{
				"type": "unocc",
				"energy": -0.07371,
				"method": "rhf"
			},
			{
				"type": "unocc",
				"energy": -0.04503,
				"method": "rhf"
			},
			{
				"type": "unocc",
				"energy": -0.00244,
				"method": "rhf"
			},
			{
				"type": "unocc",
				"energy": 0.02809,
				"method": "rhf"
			}
		],
		"cosmo_sigma_profile": { 
			"-0.025": 0.0,
			"-0.024": 0.0,
			"-0.023": 0.0,
			"-0.022": 0.0,
			"-0.021": 0.0,
			"-0.02": 0.0,
			"-0.019": 0.0,
			"-0.018": 0.0,
			"-0.017": 0.0,
			"-0.016": 0.0,
			"-0.015": 0.0,
			"-0.014": 0.0,
			"-0.013": 0.0,
			"-0.012": 0.0,
			"-0.011": 0.0,
			"-0.01": 0.0,
			"-0.009": 0.0,
			"-0.008": 0.479661900026,
			"-0.007": 7.9473063264,
			"-0.006": 16.9963753157,
			"-0.005": 20.4447008402,
			"-0.004": 29.2614223858,
			"-0.003": 27.2804998727,
			"-0.002": 27.5924954732,
			"-0.001": 27.9892456329,
			"0.0": 21.4804254226,
			"0.001": 17.2577124808,
			"0.002": 20.3047972172,
			"0.003": 19.7531858237,
			"0.004": 10.5506440604,
			"0.005": 8.38245783749,
			"0.006": 7.950837716,
			"0.007": 10.6080958587,
			"0.008": 9.74992207911,
			"0.009": 5.08332655493,
			"0.01": 5.96363739156,
			"0.011": 3.91578172378,
			"0.012": 0.00979430986288,
			"0.013": 0.0,
			"0.014": 0.0,
			"0.015": 0.0,
			"0.016": 0.0,
			"0.017": 0.0,
			"0.018": 0.0,
			"0.019": 0.0,
			"0.02": 0.0,
			"0.021": 0.0,
			"0.022": 0.0,
			"0.023": 0.0,
			"0.024": 0.0,
			"0.025": 0.0
		}
	}
}
