{
	 "smiles": "COC(=O)C(CC(C)C)NC(=O)COC(=O)CC1=CC=CC=CC1NC1=C(Cl)C=CC=CC1Cl", 
	 "Tm": 778.15, 
	 "num_atms": 64, 
	 "gaussian": { 
		 "optdone": 1, 
		 "sigma_profile": "yes", 
		 "theory": "DFT", 
		 "functional": "B3LYP", 
		 "basiset": "6-31G**", 
		 "properties": { 
			 "R2extent": 17826.869, 
			 "electric_dipole_moment_norm": 4.11953326118, 
			 "electric_quadrupole_moment_norm": 19.8737632757, 
			 "total_energy": -2376.69496671, 
			 "HOMO_LUMO_gap": 0.13432, 
			 "cosmo_polarized_energy": -26.4, 
			 "cosmo_cavitation_energy": 67.28, 
			 "cosmo_dispersion_energy": -40.58, 
			 "cosmo_repulsion_energy": 3.06, 
			 "cosmo_total_nonelectrostatic_energy": 29.76, 
			 "SMD_solvation_energy": 11.82 
		},
		"coords": [
			{
				"x": 3.8895743513,
				"y": 1.4308105936,
				"z": 1.4670247268,
				"element": "C" 
			},
			{
				"x": 3.8036258077,
				"y": -0.0094548499,
				"z": 1.5391294052,
				"element": "O" 
			},
			{
				"x": 2.9214873252,
				"y": -0.5852777708,
				"z": 0.7085421155,
				"element": "C" 
			},
			{
				"x": 2.2360732892,
				"y": 0.0369840559,
				"z": -0.0795284124,
				"element": "O" 
			},
			{
				"x": 2.9508584973,
				"y": -2.1166560791,
				"z": 0.7947796959,
				"element": "C" 
			},
			{
				"x": 1.6822609594,
				"y": -2.7694240104,
				"z": 0.2152951613,
				"element": "C" 
			},
			{
				"x": 1.8243438243,
				"y": -4.2748921576,
				"z": -0.0870458033,
				"element": "C" 
			},
			{
				"x": 2.7930690241,
				"y": -4.5534574263,
				"z": -1.2476234331,
				"element": "C" 
			},
			{
				"x": 0.4417597766,
				"y": -4.8725671914,
				"z": -0.3903186661,
				"element": "C" 
			},
			{
				"x": 3.3493683342,
				"y": -2.6356429436,
				"z": 2.1030604188,
				"element": "N" 
			},
			{
				"x": 2.9681250784,
				"y": -2.3665527494,
				"z": 3.3910555909,
				"element": "C" 
			},
			{
				"x": 3.4838811973,
				"y": -2.9680598674,
				"z": 4.3262862869,
				"element": "O" 
			},
			{
				"x": 1.9821688601,
				"y": -1.2556908568,
				"z": 3.7391566301,
				"element": "C" 
			},
			{
				"x": 0.8967152926,
				"y": -1.1067895478,
				"z": 2.8026774733,
				"element": "O" 
			},
			{
				"x": 0.3942879107,
				"y": 0.1474100633,
				"z": 2.6407994451,
				"element": "C" 
			},
			{
				"x": 0.887579491,
				"y": 1.1379011321,
				"z": 3.128783021,
				"element": "O" 
			},
			{
				"x": -0.8938732462,
				"y": 0.1038062947,
				"z": 1.8240182815,
				"element": "C" 
			},
			{
				"x": -1.1753880707,
				"y": 1.378664078,
				"z": 1.0653122688,
				"element": "C" 
			},
			{
				"x": -1.9081908951,
				"y": 2.3762999378,
				"z": 1.6251507888,
				"element": "C" 
			},
			{
				"x": -2.1331764176,
				"y": 3.7051693063,
				"z": 1.1142691803,
				"element": "C" 
			},
			{
				"x": -1.3173461729,
				"y": 4.4047071381,
				"z": 0.2699832302,
				"element": "C" 
			},
			{
				"x": -0.0701555073,
				"y": 3.9373024243,
				"z": -0.2757228352,
				"element": "C" 
			},
			{
				"x": 0.2902270257,
				"y": 2.6468116749,
				"z": -0.4691184801,
				"element": "C" 
			},
			{
				"x": -0.6541832199,
				"y": 1.4696410853,
				"z": -0.3568770199,
				"element": "C" 
			},
			{
				"x": -1.7943759139,
				"y": 1.5321765416,
				"z": -1.2860027852,
				"element": "N" 
			},
			{
				"x": -1.8449923999,
				"y": 1.1273987107,
				"z": -2.580837603,
				"element": "C" 
			},
			{
				"x": -3.0409696864,
				"y": 1.2197803411,
				"z": -3.2986329005,
				"element": "C" 
			},
			{
				"x": -4.4558072538,
				"y": 1.8182843819,
				"z": -2.3907043785,
				"element": "Cl" 
			},
			{
				"x": -3.3389822367,
				"y": 0.8926718044,
				"z": -4.6396392839,
				"element": "C" 
			},
			{
				"x": -2.4876723369,
				"y": 0.6262741345,
				"z": -5.687192568,
				"element": "C" 
			},
			{
				"x": -1.0731337469,
				"y": 0.6330982525,
				"z": -5.6466634461,
				"element": "C" 
			},
			{
				"x": -0.2647975109,
				"y": 0.6493383891,
				"z": -4.5446466907,
				"element": "C" 
			},
			{
				"x": -0.6203475752,
				"y": 0.519144585,
				"z": -3.1448977285,
				"element": "C" 
			},
			{
				"x": -0.7250984186,
				"y": -1.485755154,
				"z": -2.6329601817,
				"element": "Cl" 
			},
			{
				"x": 2.9374517474,
				"y": 1.8783461192,
				"z": 1.7564515036,
				"element": "H" 
			},
			{
				"x": 4.1563935537,
				"y": 1.7427720924,
				"z": 0.4546615805,
				"element": "H" 
			},
			{
				"x": 4.6735752027,
				"y": 1.7059937058,
				"z": 2.1716559072,
				"element": "H" 
			},
			{
				"x": 3.7904716406,
				"y": -2.3726575647,
				"z": 0.1334356516,
				"element": "H" 
			},
			{
				"x": 1.4019281861,
				"y": -2.2367700046,
				"z": -0.6988652405,
				"element": "H" 
			},
			{
				"x": 0.8719074267,
				"y": -2.6211706962,
				"z": 0.9338509717,
				"element": "H" 
			},
			{
				"x": 2.2126446845,
				"y": -4.7716052736,
				"z": 0.8143037238,
				"element": "H" 
			},
			{
				"x": 2.44104642,
				"y": -4.0749985057,
				"z": -2.1689122711,
				"element": "H" 
			},
			{
				"x": 2.8716666958,
				"y": -5.6288986855,
				"z": -1.4387404989,
				"element": "H" 
			},
			{
				"x": 3.8084941544,
				"y": -4.1895310199,
				"z": -1.0505130177,
				"element": "H" 
			},
			{
				"x": -0.2417459427,
				"y": -4.7414800434,
				"z": 0.4554784621,
				"element": "H" 
			},
			{
				"x": 0.513426886,
				"y": -5.9451619806,
				"z": -0.6004803457,
				"element": "H" 
			},
			{
				"x": -0.0105237397,
				"y": -4.3866553609,
				"z": -1.2623785437,
				"element": "H" 
			},
			{
				"x": 4.0502495854,
				"y": -3.3649326164,
				"z": 2.0964803107,
				"element": "H" 
			},
			{
				"x": 2.5227500077,
				"y": -0.3103821718,
				"z": 3.8243454097,
				"element": "H" 
			},
			{
				"x": 1.5684291175,
				"y": -1.5148157308,
				"z": 4.7154671982,
				"element": "H" 
			},
			{
				"x": -1.6905634277,
				"y": -0.0800958422,
				"z": 2.5571931997,
				"element": "H" 
			},
			{
				"x": -0.8679395641,
				"y": -0.7654331064,
				"z": 1.161479974,
				"element": "H" 
			},
			{
				"x": -2.3747802762,
				"y": 2.1663376336,
				"z": 2.5869143076,
				"element": "H" 
			},
			{
				"x": -2.9776410305,
				"y": 4.2398670351,
				"z": 1.5441177363,
				"element": "H" 
			},
			{
				"x": -1.5687018213,
				"y": 5.447420933,
				"z": 0.0873534088,
				"element": "H" 
			},
			{
				"x": 0.659025113,
				"y": 4.7077488363,
				"z": -0.522985439,
				"element": "H" 
			},
			{
				"x": 1.3136162509,
				"y": 2.4111745247,
				"z": -0.747619827,
				"element": "H" 
			},
			{
				"x": -0.0960920834,
				"y": 0.5584638705,
				"z": -0.5691102881,
				"element": "H" 
			},
			{
				"x": -2.6081760033,
				"y": 2.0199184355,
				"z": -0.9383270837,
				"element": "H" 
			},
			{
				"x": -4.3984631316,
				"y": 0.9178967323,
				"z": -4.8767087705,
				"element": "H" 
			},
			{
				"x": -2.9519931786,
				"y": 0.461260173,
				"z": -6.6550932916,
				"element": "H" 
			},
			{
				"x": -0.568306243,
				"y": 0.6257934627,
				"z": -6.610855705,
				"element": "H" 
			},
			{
				"x": 0.8070639643,
				"y": 0.6558057376,
				"z": -4.7241225139,
				"element": "H" 
			},
			{
				"x": 0.2382703692,
				"y": 0.7399349905,
				"z": -2.5224880136,
				"element": "H" 
			}
		],
		 "valence_orbital": [ 
			{
				"type": "occ",
				"energy": -0.25715,
				"method": "rhf"
			},
			{
				"type": "occ",
				"energy": -0.25408,
				"method": "rhf"
			},
			{
				"type": "occ",
				"energy": -0.25228,
				"method": "rhf"
			},
			{
				"type": "occ",
				"energy": -0.23273,
				"method": "rhf"
			},
			{
				"type": "occ",
				"energy": -0.19433,
				"method": "rhf"
			},
			{
				"type": "unocc",
				"energy": -0.06001,
				"method": "rhf"
			},
			{
				"type": "unocc",
				"energy": -0.05178,
				"method": "rhf"
			},
			{
				"type": "unocc",
				"energy": -0.04758,
				"method": "rhf"
			},
			{
				"type": "unocc",
				"energy": -0.01717,
				"method": "rhf"
			},
			{
				"type": "unocc",
				"energy": -0.00354,
				"method": "rhf"
			}
		],
		"cosmo_sigma_profile": { 
			"-0.025": 0.0,
			"-0.024": 0.0,
			"-0.023": 0.0,
			"-0.022": 0.0,
			"-0.021": 0.0,
			"-0.02": 0.0,
			"-0.019": 0.0,
			"-0.018": 0.0,
			"-0.017": 0.0,
			"-0.016": 0.0,
			"-0.015": 0.0,
			"-0.014": 0.596250947197,
			"-0.013": 1.37856601543,
			"-0.012": 1.23278621875,
			"-0.011": 1.25491495686,
			"-0.01": 1.09954657076,
			"-0.009": 2.77350166637,
			"-0.008": 7.73506278936,
			"-0.007": 15.9447618552,
			"-0.006": 29.8877369776,
			"-0.005": 34.1640277601,
			"-0.004": 36.9426841845,
			"-0.003": 38.3298891944,
			"-0.002": 42.3457918166,
			"-0.001": 43.8475399047,
			"0.0": 46.4821891616,
			"0.001": 48.9099183131,
			"0.002": 40.7340528572,
			"0.003": 30.4094376257,
			"0.004": 26.6945840679,
			"0.005": 18.3851799808,
			"0.006": 12.4144618756,
			"0.007": 10.3745679235,
			"0.008": 9.24480817465,
			"0.009": 10.3401280387,
			"0.01": 8.44932599677,
			"0.011": 4.15685743834,
			"0.012": 2.48224882776,
			"0.013": 5.66282007172,
			"0.014": 2.900671026,
			"0.015": 0.00355454872841,
			"0.016": 0.0,
			"0.017": 0.0,
			"0.018": 0.0,
			"0.019": 0.0,
			"0.02": 0.0,
			"0.021": 0.0,
			"0.022": 0.0,
			"0.023": 0.0,
			"0.024": 0.0,
			"0.025": 0.0
		}
	}
}
