{
	 "smiles": "ClC1=CC2=C(NC=C(C#N)C2=O)C=C1", 
	 "Tm": 655.15, 
	 "num_atms": 19, 
	 "gaussian": { 
		 "optdone": 1, 
		 "sigma_profile": "yes", 
		 "theory": "DFT", 
		 "functional": "B3LYP", 
		 "basiset": "6-31G**", 
		 "properties": { 
			 "R2extent": 3877.8732, 
			 "electric_dipole_moment_norm": 9.07461454994, 
			 "electric_quadrupole_moment_norm": 16.7893734189, 
			 "total_energy": -1028.98754741, 
			 "HOMO_LUMO_gap": 0.16681, 
			 "cosmo_polarized_energy": -26.86, 
			 "cosmo_cavitation_energy": 27.02, 
			 "cosmo_dispersion_energy": -19.63, 
			 "cosmo_repulsion_energy": 1.52, 
			 "cosmo_total_nonelectrostatic_energy": 8.91, 
			 "SMD_solvation_energy": 6.23 
		},
		"coords": [
			{
				"x": -3.8190381229,
				"y": 0.2293685734,
				"z": 3.2841329563,
				"element": "Cl" 
			},
			{
				"x": -2.2685336205,
				"y": 0.1147819563,
				"z": 2.4738628681,
				"element": "C" 
			},
			{
				"x": -2.153148318,
				"y": 0.4789195924,
				"z": 1.1431274536,
				"element": "C" 
			},
			{
				"x": -0.9100718866,
				"y": 0.3855236031,
				"z": 0.4989588993,
				"element": "C" 
			},
			{
				"x": 0.2061729064,
				"y": -0.0799939831,
				"z": 1.221412918,
				"element": "C" 
			},
			{
				"x": 1.4338857718,
				"y": -0.1692140906,
				"z": 0.5746894464,
				"element": "N" 
			},
			{
				"x": 1.5934792653,
				"y": 0.1765814129,
				"z": -0.7267567667,
				"element": "C" 
			},
			{
				"x": 0.5549134522,
				"y": 0.6377817787,
				"z": -1.4944358655,
				"element": "C" 
			},
			{
				"x": 0.7937131978,
				"y": 0.9836654325,
				"z": -2.8576715375,
				"element": "C" 
			},
			{
				"x": 1.0126891061,
				"y": 1.2594211784,
				"z": -3.966572233,
				"element": "N" 
			},
			{
				"x": -0.8012473849,
				"y": 0.7805070909,
				"z": -0.9312204398,
				"element": "C" 
			},
			{
				"x": -1.7618789422,
				"y": 1.1877327857,
				"z": -1.5754304529,
				"element": "O" 
			},
			{
				"x": 0.0766506001,
				"y": -0.4465968506,
				"z": 2.5713235445,
				"element": "C" 
			},
			{
				"x": -1.1564646113,
				"y": -0.349538807,
				"z": 3.1955293737,
				"element": "C" 
			},
			{
				"x": -2.9984097701,
				"y": 0.8396277293,
				"z": 0.5681499772,
				"element": "H" 
			},
			{
				"x": 2.2321013756,
				"y": -0.5026937195,
				"z": 1.0948361358,
				"element": "H" 
			},
			{
				"x": 2.5945349164,
				"y": 0.0671764956,
				"z": -1.1284891043,
				"element": "H" 
			},
			{
				"x": 0.9402030228,
				"y": -0.805261462,
				"z": 3.1251308191,
				"element": "H" 
			},
			{
				"x": -1.267550958,
				"y": -0.6297887163,
				"z": 4.2369220078,
				"element": "H" 
			}
		],
		 "valence_orbital": [ 
			{
				"type": "occ",
				"energy": -0.32653,
				"method": "rhf"
			},
			{
				"type": "occ",
				"energy": -0.2875,
				"method": "rhf"
			},
			{
				"type": "occ",
				"energy": -0.27969,
				"method": "rhf"
			},
			{
				"type": "occ",
				"energy": -0.25844,
				"method": "rhf"
			},
			{
				"type": "occ",
				"energy": -0.23974,
				"method": "rhf"
			},
			{
				"type": "unocc",
				"energy": -0.07293,
				"method": "rhf"
			},
			{
				"type": "unocc",
				"energy": -0.05961,
				"method": "rhf"
			},
			{
				"type": "unocc",
				"energy": -0.0173,
				"method": "rhf"
			},
			{
				"type": "unocc",
				"energy": 0.0139,
				"method": "rhf"
			},
			{
				"type": "unocc",
				"energy": 0.02392,
				"method": "rhf"
			}
		],
		"cosmo_sigma_profile": { 
			"-0.025": 0.0,
			"-0.024": 0.0,
			"-0.023": 0.0,
			"-0.022": 0.0,
			"-0.021": 0.0,
			"-0.02": 0.0,
			"-0.019": 0.345778286076,
			"-0.018": 2.02977182311,
			"-0.017": 2.07662354783,
			"-0.016": 1.54251551491,
			"-0.015": 1.47058331931,
			"-0.014": 2.03051164517,
			"-0.013": 1.66807802692,
			"-0.012": 2.57592489892,
			"-0.011": 3.39752023032,
			"-0.01": 3.7929677007,
			"-0.009": 3.0923624325,
			"-0.008": 5.2385172839,
			"-0.007": 5.99985104838,
			"-0.006": 5.43296271655,
			"-0.005": 6.69467494943,
			"-0.004": 9.25103119351,
			"-0.003": 11.5813951801,
			"-0.002": 14.7353053041,
			"-0.001": 15.7882311073,
			"0.0": 18.8868852882,
			"0.001": 21.6313116262,
			"0.002": 11.7430065998,
			"0.003": 8.79814344757,
			"0.004": 12.9789126639,
			"0.005": 5.61795344083,
			"0.006": 4.45967610977,
			"0.007": 4.95227417335,
			"0.008": 5.63221306163,
			"0.009": 4.94606960009,
			"0.01": 5.44754531524,
			"0.011": 5.10632563062,
			"0.012": 5.89042993332,
			"0.013": 6.31126659489,
			"0.014": 0.51184128354,
			"0.015": 0.0,
			"0.016": 0.0,
			"0.017": 0.0,
			"0.018": 0.0,
			"0.019": 0.0,
			"0.02": 0.0,
			"0.021": 0.0,
			"0.022": 0.0,
			"0.023": 0.0,
			"0.024": 0.0,
			"0.025": 0.0
		}
	}
}
