{
	 "smiles": "CCCCCCCCCCCCCC(O)CC", 
	 "Tm": 323.15, 
	 "num_atms": 51, 
	 "gaussian": { 
		 "optdone": 1, 
		 "sigma_profile": "yes", 
		 "theory": "DFT", 
		 "functional": "B3LYP", 
		 "basiset": "6-31G**", 
		 "properties": { 
			 "R2extent": 7433.3989, 
			 "electric_dipole_moment_norm": 1.55337509314, 
			 "electric_quadrupole_moment_norm": 4.34327909994, 
			 "total_energy": -705.452724611, 
			 "HOMO_LUMO_gap": 0.31111, 
			 "cosmo_polarized_energy": -5.06, 
			 "cosmo_cavitation_energy": 47.89, 
			 "cosmo_dispersion_energy": -30.69, 
			 "cosmo_repulsion_energy": 2.43, 
			 "cosmo_total_nonelectrostatic_energy": 19.64, 
			 "SMD_solvation_energy": 6.25 
		},
		"coords": [
			{
				"x": 2.8117767683,
				"y": 2.3416430848,
				"z": 1.1456113653,
				"element": "C" 
			},
			{
				"x": 3.0393402701,
				"y": 2.4596699963,
				"z": -0.3648889705,
				"element": "C" 
			},
			{
				"x": 3.2995101945,
				"y": 1.1023315039,
				"z": -1.0365451741,
				"element": "C" 
			},
			{
				"x": 3.4557704709,
				"y": 1.1532280268,
				"z": -2.5728766531,
				"element": "C" 
			},
			{
				"x": 2.1898669231,
				"y": 0.9224614826,
				"z": -3.4235320821,
				"element": "C" 
			},
			{
				"x": 1.0597188981,
				"y": 1.971308231,
				"z": -3.3157118812,
				"element": "C" 
			},
			{
				"x": -0.0023843757,
				"y": 1.7184203555,
				"z": -2.2273686263,
				"element": "C" 
			},
			{
				"x": -0.9527514148,
				"y": 0.552069446,
				"z": -2.5394238825,
				"element": "C" 
			},
			{
				"x": -2.0420525572,
				"y": 0.3202776152,
				"z": -1.478156448,
				"element": "C" 
			},
			{
				"x": -1.5255309093,
				"y": -0.1926708234,
				"z": -0.1255779088,
				"element": "C" 
			},
			{
				"x": -2.6603142508,
				"y": -0.4793291527,
				"z": 0.868183709,
				"element": "C" 
			},
			{
				"x": -2.2282706729,
				"y": -1.0897719009,
				"z": 2.2196534146,
				"element": "C" 
			},
			{
				"x": -1.8887943192,
				"y": -0.1225418521,
				"z": 3.3716181459,
				"element": "C" 
			},
			{
				"x": -0.5799065508,
				"y": 0.6682791829,
				"z": 3.273101396,
				"element": "C" 
			},
			{
				"x": -0.7893168915,
				"y": 1.742670039,
				"z": 2.3461663292,
				"element": "O" 
			},
			{
				"x": -0.0964134226,
				"y": 1.2132945505,
				"z": 4.6304910749,
				"element": "C" 
			},
			{
				"x": -1.0712969814,
				"y": 2.1762584236,
				"z": 5.316685292,
				"element": "C" 
			},
			{
				"x": 1.9293873918,
				"y": 1.7242690872,
				"z": 1.3556360245,
				"element": "H" 
			},
			{
				"x": 2.6613533836,
				"y": 3.32342184,
				"z": 1.6083899246,
				"element": "H" 
			},
			{
				"x": 3.6650272049,
				"y": 1.8673933724,
				"z": 1.6440384469,
				"element": "H" 
			},
			{
				"x": 2.1740906114,
				"y": 2.9517235138,
				"z": -0.8228729715,
				"element": "H" 
			},
			{
				"x": 3.8969521357,
				"y": 3.1187945848,
				"z": -0.5554742514,
				"element": "H" 
			},
			{
				"x": 2.4993986551,
				"y": 0.3977919818,
				"z": -0.7703680252,
				"element": "H" 
			},
			{
				"x": 4.2160934289,
				"y": 0.6848783511,
				"z": -0.5981365681,
				"element": "H" 
			},
			{
				"x": 4.1825023043,
				"y": 0.3873950162,
				"z": -2.872407767,
				"element": "H" 
			},
			{
				"x": 3.9086379012,
				"y": 2.1144898393,
				"z": -2.8558816083,
				"element": "H" 
			},
			{
				"x": 1.7897270021,
				"y": -0.0755641791,
				"z": -3.1997648313,
				"element": "H" 
			},
			{
				"x": 2.5165912472,
				"y": 0.8765165649,
				"z": -4.4703347486,
				"element": "H" 
			},
			{
				"x": 0.5391436877,
				"y": 2.0268548006,
				"z": -4.2814985698,
				"element": "H" 
			},
			{
				"x": 1.507890414,
				"y": 2.9628244913,
				"z": -3.1674564812,
				"element": "H" 
			},
			{
				"x": 0.4820207957,
				"y": 1.5487251689,
				"z": -1.2601300633,
				"element": "H" 
			},
			{
				"x": -0.6050168164,
				"y": 2.6293703225,
				"z": -2.1061278785,
				"element": "H" 
			},
			{
				"x": -1.4346064195,
				"y": 0.7461266159,
				"z": -3.5078669174,
				"element": "H" 
			},
			{
				"x": -0.3795836146,
				"y": -0.3764025909,
				"z": -2.6692126556,
				"element": "H" 
			},
			{
				"x": -2.7702860015,
				"y": -0.400904437,
				"z": -1.8750591015,
				"element": "H" 
			},
			{
				"x": -2.5988034857,
				"y": 1.2556096243,
				"z": -1.3217472822,
				"element": "H" 
			},
			{
				"x": -0.9508916895,
				"y": -1.1168449481,
				"z": -0.290228896,
				"element": "H" 
			},
			{
				"x": -0.843775046,
				"y": 0.5365420144,
				"z": 0.3204801607,
				"element": "H" 
			},
			{
				"x": -3.2252566193,
				"y": 0.4444061139,
				"z": 1.0505507107,
				"element": "H" 
			},
			{
				"x": -3.363991799,
				"y": -1.1742479095,
				"z": 0.3889376253,
				"element": "H" 
			},
			{
				"x": -3.0483441549,
				"y": -1.7228253776,
				"z": 2.5818975627,
				"element": "H" 
			},
			{
				"x": -1.3814742639,
				"y": -1.7727870333,
				"z": 2.0584561817,
				"element": "H" 
			},
			{
				"x": -1.8398834375,
				"y": -0.7149036531,
				"z": 4.2948182077,
				"element": "H" 
			},
			{
				"x": -2.7109403066,
				"y": 0.5916370987,
				"z": 3.5043422558,
				"element": "H" 
			},
			{
				"x": 0.2033337703,
				"y": -0.005935087,
				"z": 2.8862161458,
				"element": "H" 
			},
			{
				"x": 0.0368190371,
				"y": 2.2393929918,
				"z": 2.2756883814,
				"element": "H" 
			},
			{
				"x": 0.1279380437,
				"y": 0.3639242347,
				"z": 5.2889663362,
				"element": "H" 
			},
			{
				"x": 0.8636051524,
				"y": 1.7246054544,
				"z": 4.4660650459,
				"element": "H" 
			},
			{
				"x": -1.3468159393,
				"y": 2.9906372366,
				"z": 4.6404478093,
				"element": "H" 
			},
			{
				"x": -0.6224426743,
				"y": 2.6131451476,
				"z": 6.2143038881,
				"element": "H" 
			},
			{
				"x": -1.9926510779,
				"y": 1.6701415397,
				"z": 5.6214048097,
				"element": "H" 
			}
		],
		 "valence_orbital": [ 
			{
				"type": "occ",
				"energy": -0.2989,
				"method": "rhf"
			},
			{
				"type": "occ",
				"energy": -0.29696,
				"method": "rhf"
			},
			{
				"type": "occ",
				"energy": -0.29181,
				"method": "rhf"
			},
			{
				"type": "occ",
				"energy": -0.28924,
				"method": "rhf"
			},
			{
				"type": "occ",
				"energy": -0.26229,
				"method": "rhf"
			},
			{
				"type": "unocc",
				"energy": 0.04882,
				"method": "rhf"
			},
			{
				"type": "unocc",
				"energy": 0.08492,
				"method": "rhf"
			},
			{
				"type": "unocc",
				"energy": 0.0966,
				"method": "rhf"
			},
			{
				"type": "unocc",
				"energy": 0.10058,
				"method": "rhf"
			},
			{
				"type": "unocc",
				"energy": 0.11012,
				"method": "rhf"
			}
		],
		"cosmo_sigma_profile": { 
			"-0.025": 0.0,
			"-0.024": 0.0,
			"-0.023": 0.0,
			"-0.022": 0.0,
			"-0.021": 0.0,
			"-0.02": 0.0,
			"-0.019": 0.0,
			"-0.018": 0.0,
			"-0.017": 0.0,
			"-0.016": 0.0,
			"-0.015": 0.0,
			"-0.014": 0.0,
			"-0.013": 0.0,
			"-0.012": 0.0,
			"-0.011": 0.0,
			"-0.01": 0.348150298896,
			"-0.009": 1.12334486995,
			"-0.008": 1.82407541646,
			"-0.007": 2.08510147299,
			"-0.006": 1.24003943317,
			"-0.005": 2.18722979687,
			"-0.004": 2.88450676208,
			"-0.003": 10.2072102794,
			"-0.002": 42.8655910962,
			"-0.001": 86.3028333807,
			"0.0": 87.2309940755,
			"0.001": 71.1003433775,
			"0.002": 37.6781889735,
			"0.003": 5.1269554687,
			"0.004": 0.899976627165,
			"0.005": 1.07854801937,
			"0.006": 2.04918306515,
			"0.007": 1.38025438732,
			"0.008": 1.07410767748,
			"0.009": 1.45173806976,
			"0.01": 1.28576473258,
			"0.011": 1.28227755941,
			"0.012": 0.740006526615,
			"0.013": 1.04995590224,
			"0.014": 0.582708036001,
			"0.015": 0.1609867729,
			"0.016": 0.0,
			"0.017": 0.0,
			"0.018": 0.0,
			"0.019": 0.0,
			"0.02": 0.0,
			"0.021": 0.0,
			"0.022": 0.0,
			"0.023": 0.0,
			"0.024": 0.0,
			"0.025": 0.0
		}
	}
}
