{
	 "smiles": "S=C1NN=CC(=S)N1", 
	 "Tm": 483.15, 
	 "num_atms": 11, 
	 "gaussian": { 
		 "optdone": 1, 
		 "sigma_profile": "yes", 
		 "theory": "DFT", 
		 "functional": "B3LYP", 
		 "basiset": "6-31G**", 
		 "properties": { 
			 "R2extent": 1793.872, 
			 "electric_dipole_moment_norm": 2.03939438805, 
			 "electric_quadrupole_moment_norm": 8.65922221449, 
			 "total_energy": -1076.73510865, 
			 "HOMO_LUMO_gap": 0.13447, 
			 "cosmo_polarized_energy": -13.54, 
			 "cosmo_cavitation_energy": 19.48, 
			 "cosmo_dispersion_energy": -15.66, 
			 "cosmo_repulsion_energy": 1.2, 
			 "cosmo_total_nonelectrostatic_energy": 5.02, 
			 "SMD_solvation_energy": 0.87 
		},
		"coords": [
			{
				"x": -0.2056356377,
				"y": -3.7185713833,
				"z": 0.4570139094,
				"element": "S" 
			},
			{
				"x": -0.3559503454,
				"y": -2.0752474486,
				"z": 0.3130995691,
				"element": "C" 
			},
			{
				"x": -0.9945682329,
				"y": -1.4653265021,
				"z": -0.7396612166,
				"element": "N" 
			},
			{
				"x": -1.1616717734,
				"y": -0.1385142579,
				"z": -0.9342239421,
				"element": "N" 
			},
			{
				"x": -0.6701905569,
				"y": 0.6563051748,
				"z": -0.0364988012,
				"element": "C" 
			},
			{
				"x": 0.0418175563,
				"y": 0.2064335317,
				"z": 1.1533795589,
				"element": "C" 
			},
			{
				"x": 0.6693634677,
				"y": 1.2177248086,
				"z": 2.2988121125,
				"element": "S" 
			},
			{
				"x": 0.1417271345,
				"y": -1.1701467513,
				"z": 1.229147378,
				"element": "N" 
			},
			{
				"x": -1.3869604608,
				"y": -2.0642512883,
				"z": -1.4538671575,
				"element": "H" 
			},
			{
				"x": -0.8032139114,
				"y": 1.7204014136,
				"z": -0.1910138113,
				"element": "H" 
			},
			{
				"x": 0.6242827601,
				"y": -1.5670072971,
				"z": 2.0289124009,
				"element": "H" 
			}
		],
		 "valence_orbital": [ 
			{
				"type": "occ",
				"energy": -0.3412,
				"method": "rhf"
			},
			{
				"type": "occ",
				"energy": -0.2652,
				"method": "rhf"
			},
			{
				"type": "occ",
				"energy": -0.25465,
				"method": "rhf"
			},
			{
				"type": "occ",
				"energy": -0.25253,
				"method": "rhf"
			},
			{
				"type": "occ",
				"energy": -0.24344,
				"method": "rhf"
			},
			{
				"type": "unocc",
				"energy": -0.10897,
				"method": "rhf"
			},
			{
				"type": "unocc",
				"energy": -0.06899,
				"method": "rhf"
			},
			{
				"type": "unocc",
				"energy": 0.03438,
				"method": "rhf"
			},
			{
				"type": "unocc",
				"energy": 0.04643,
				"method": "rhf"
			},
			{
				"type": "unocc",
				"energy": 0.07552,
				"method": "rhf"
			}
		],
		"cosmo_sigma_profile": { 
			"-0.025": 0.0,
			"-0.024": 0.0,
			"-0.023": 0.0,
			"-0.022": 0.0,
			"-0.021": 0.0,
			"-0.02": 0.0,
			"-0.019": 0.0035564157967,
			"-0.018": 0.746832037224,
			"-0.017": 1.516190542,
			"-0.016": 1.71655689944,
			"-0.015": 1.26370577639,
			"-0.014": 1.39406177087,
			"-0.013": 2.59763577999,
			"-0.012": 1.31563831724,
			"-0.011": 1.68700429546,
			"-0.01": 3.15033869777,
			"-0.009": 4.31936780697,
			"-0.008": 4.38100134239,
			"-0.007": 5.4680325011,
			"-0.006": 5.43792516149,
			"-0.005": 7.60510985084,
			"-0.004": 9.88879308453,
			"-0.003": 8.34684254788,
			"-0.002": 4.99777670293,
			"-0.001": 4.79969894706,
			"0.0": 4.88091650283,
			"0.001": 7.4602730817,
			"0.002": 7.78232505861,
			"0.003": 7.88060791313,
			"0.004": 9.68184365779,
			"0.005": 12.1028856339,
			"0.006": 11.2864144202,
			"0.007": 11.3870425393,
			"0.008": 9.97785089745,
			"0.009": 7.8283444927,
			"0.01": 1.75587019282,
			"0.011": 0.1048442042,
			"0.012": 0.0,
			"0.013": 0.0,
			"0.014": 0.0,
			"0.015": 0.0,
			"0.016": 0.0,
			"0.017": 0.0,
			"0.018": 0.0,
			"0.019": 0.0,
			"0.02": 0.0,
			"0.021": 0.0,
			"0.022": 0.0,
			"0.023": 0.0,
			"0.024": 0.0,
			"0.025": 0.0
		}
	}
}
