{
	 "smiles": "NC1=C(Cl)N=C(N=C1Cl)C1=CC=CC=C1", 
	 "Tm": 414.15, 
	 "num_atms": 22, 
	 "gaussian": { 
		 "optdone": 1, 
		 "sigma_profile": "yes", 
		 "theory": "DFT", 
		 "functional": "B3LYP", 
		 "basiset": "6-31G**", 
		 "properties": { 
			 "R2extent": 6191.9909, 
			 "electric_dipole_moment_norm": 1.85021210946, 
			 "electric_quadrupole_moment_norm": 19.4508060581, 
			 "total_energy": -1469.93639196, 
			 "HOMO_LUMO_gap": 0.16772, 
			 "cosmo_polarized_energy": -9.67, 
			 "cosmo_cavitation_energy": 30.22, 
			 "cosmo_dispersion_energy": -22.89, 
			 "cosmo_repulsion_energy": 1.79, 
			 "cosmo_total_nonelectrostatic_energy": 9.13, 
			 "SMD_solvation_energy": 2.41 
		},
		"coords": [
			{
				"x": -4.4850402664,
				"y": -0.1244433718,
				"z": 1.5735244794,
				"element": "N" 
			},
			{
				"x": -3.4342385381,
				"y": 0.1365455284,
				"z": 0.7356092798,
				"element": "C" 
			},
			{
				"x": -3.5181087384,
				"y": 0.9588219839,
				"z": -0.4082435901,
				"element": "C" 
			},
			{
				"x": -5.0960419576,
				"y": 1.6264157376,
				"z": -0.8301693237,
				"element": "Cl" 
			},
			{
				"x": -2.5090062546,
				"y": 1.260602831,
				"z": -1.1879699496,
				"element": "N" 
			},
			{
				"x": -1.3024171814,
				"y": 0.750600009,
				"z": -0.8825796341,
				"element": "C" 
			},
			{
				"x": -1.0958014689,
				"y": -0.0550213704,
				"z": 0.174554702,
				"element": "N" 
			},
			{
				"x": -2.1217922456,
				"y": -0.3410520504,
				"z": 0.9379971163,
				"element": "C" 
			},
			{
				"x": -1.8356677804,
				"y": -1.4088351054,
				"z": 2.3133698302,
				"element": "Cl" 
			},
			{
				"x": -0.1530570634,
				"y": 1.0870625606,
				"z": -1.7498163389,
				"element": "C" 
			},
			{
				"x": -0.3256164903,
				"y": 1.9229119133,
				"z": -2.8648871292,
				"element": "C" 
			},
			{
				"x": 0.7589408659,
				"y": 2.2383317436,
				"z": -3.6798360113,
				"element": "C" 
			},
			{
				"x": 2.0268387465,
				"y": 1.7256259826,
				"z": -3.394165323,
				"element": "C" 
			},
			{
				"x": 2.204343693,
				"y": 0.8935440384,
				"z": -2.2859359941,
				"element": "C" 
			},
			{
				"x": 1.1234714417,
				"y": 0.5746896436,
				"z": -1.4674343061,
				"element": "C" 
			},
			{
				"x": -4.3863155847,
				"y": -0.9115379136,
				"z": 2.19714866,
				"element": "H" 
			},
			{
				"x": -5.4110949809,
				"y": 0.0424574691,
				"z": 1.2091914759,
				"element": "H" 
			},
			{
				"x": -1.3129920388,
				"y": 2.3164142957,
				"z": -3.0789405228,
				"element": "H" 
			},
			{
				"x": 0.6146860086,
				"y": 2.8859010768,
				"z": -4.5398936946,
				"element": "H" 
			},
			{
				"x": 2.871326082,
				"y": 1.9731341306,
				"z": -4.0310868114,
				"element": "H" 
			},
			{
				"x": 3.1876674621,
				"y": 0.4920129444,
				"z": -2.0585636095,
				"element": "H" 
			},
			{
				"x": 1.2520162897,
				"y": -0.0700820772,
				"z": -0.6052733053,
				"element": "H" 
			}
		],
		 "valence_orbital": [ 
			{
				"type": "occ",
				"energy": -0.30389,
				"method": "rhf"
			},
			{
				"type": "occ",
				"energy": -0.2724,
				"method": "rhf"
			},
			{
				"type": "occ",
				"energy": -0.26888,
				"method": "rhf"
			},
			{
				"type": "occ",
				"energy": -0.25036,
				"method": "rhf"
			},
			{
				"type": "occ",
				"energy": -0.22057,
				"method": "rhf"
			},
			{
				"type": "unocc",
				"energy": -0.05285,
				"method": "rhf"
			},
			{
				"type": "unocc",
				"energy": -0.05115,
				"method": "rhf"
			},
			{
				"type": "unocc",
				"energy": 0.00014,
				"method": "rhf"
			},
			{
				"type": "unocc",
				"energy": 0.00189,
				"method": "rhf"
			},
			{
				"type": "unocc",
				"energy": 0.02814,
				"method": "rhf"
			}
		],
		"cosmo_sigma_profile": { 
			"-0.025": 0.0,
			"-0.024": 0.0,
			"-0.023": 0.0,
			"-0.022": 0.0,
			"-0.021": 0.0,
			"-0.02": 0.0,
			"-0.019": 0.0,
			"-0.018": 0.0,
			"-0.017": 0.0,
			"-0.016": 0.0,
			"-0.015": 0.0,
			"-0.014": 0.749791357801,
			"-0.013": 1.70416905545,
			"-0.012": 2.48288073486,
			"-0.011": 2.35395555935,
			"-0.01": 1.68300003223,
			"-0.009": 1.76917041141,
			"-0.008": 2.39578333431,
			"-0.007": 1.8473377719,
			"-0.006": 7.777959966,
			"-0.005": 10.7114714078,
			"-0.004": 16.1954267074,
			"-0.003": 19.3734719396,
			"-0.002": 17.5246001785,
			"-0.001": 19.1093824586,
			"0.0": 18.2023526096,
			"0.001": 20.8159667807,
			"0.002": 22.0078656104,
			"0.003": 26.4651893871,
			"0.004": 23.4643702212,
			"0.005": 16.3709985293,
			"0.006": 4.89692838802,
			"0.007": 4.28946657658,
			"0.008": 4.15062342135,
			"0.009": 1.85712608741,
			"0.01": 0.108730896056,
			"0.011": 0.0,
			"0.012": 0.0,
			"0.013": 0.0,
			"0.014": 0.0,
			"0.015": 0.0,
			"0.016": 0.0,
			"0.017": 0.0,
			"0.018": 0.0,
			"0.019": 0.0,
			"0.02": 0.0,
			"0.021": 0.0,
			"0.022": 0.0,
			"0.023": 0.0,
			"0.024": 0.0,
			"0.025": 0.0
		}
	}
}
