{
	 "smiles": "CC1=CC2=C(C=C1)C1=C(C=CC=C1)C=C2", 
	 "Tm": 331.15, 
	 "num_atms": 27, 
	 "gaussian": { 
		 "optdone": 1, 
		 "sigma_profile": "yes", 
		 "theory": "DFT", 
		 "functional": "B3LYP", 
		 "basiset": "6-31G**", 
		 "properties": { 
			 "R2extent": 3610.0501, 
			 "electric_dipole_moment_norm": 0.504592915131, 
			 "electric_quadrupole_moment_norm": 11.4631515139, 
			 "total_energy": -578.863081142, 
			 "HOMO_LUMO_gap": 0.17369, 
			 "cosmo_polarized_energy": -5.91, 
			 "cosmo_cavitation_energy": 29.68, 
			 "cosmo_dispersion_energy": -22.21, 
			 "cosmo_repulsion_energy": 1.67, 
			 "cosmo_total_nonelectrostatic_energy": 9.14, 
			 "SMD_solvation_energy": 4.5 
		},
		"coords": [
			{
				"x": -1.3680888959,
				"y": -4.1310750688,
				"z": 1.7115733515,
				"element": "C" 
			},
			{
				"x": -1.0703027194,
				"y": -2.7581265064,
				"z": 1.1596399471,
				"element": "C" 
			},
			{
				"x": -2.0778737549,
				"y": -1.857936034,
				"z": 0.8603845627,
				"element": "C" 
			},
			{
				"x": -1.8057796664,
				"y": -0.5693981449,
				"z": 0.342783626,
				"element": "C" 
			},
			{
				"x": -0.4568335121,
				"y": -0.169060759,
				"z": 0.1160200229,
				"element": "C" 
			},
			{
				"x": 0.561290246,
				"y": -1.1016755727,
				"z": 0.4273898519,
				"element": "C" 
			},
			{
				"x": 0.2656302785,
				"y": -2.3527125268,
				"z": 0.9316569635,
				"element": "C" 
			},
			{
				"x": -0.1879045537,
				"y": 1.1592743219,
				"z": -0.4170112655,
				"element": "C" 
			},
			{
				"x": -1.285044862,
				"y": 2.0281242339,
				"z": -0.6991700294,
				"element": "C" 
			},
			{
				"x": -1.0376387135,
				"y": 3.321136811,
				"z": -1.2172110497,
				"element": "C" 
			},
			{
				"x": 0.2497350056,
				"y": 3.7598383938,
				"z": -1.4558185654,
				"element": "C" 
			},
			{
				"x": 1.3356426824,
				"y": 2.9075428129,
				"z": -1.1795889184,
				"element": "C" 
			},
			{
				"x": 1.1186779932,
				"y": 1.6389995986,
				"z": -0.6726813134,
				"element": "C" 
			},
			{
				"x": -2.6263551255,
				"y": 1.5805213627,
				"z": -0.4543099729,
				"element": "C" 
			},
			{
				"x": -2.8754870239,
				"y": 0.3394008754,
				"z": 0.0435376675,
				"element": "C" 
			},
			{
				"x": -0.9832517808,
				"y": -4.9176033193,
				"z": 1.051679929,
				"element": "H" 
			},
			{
				"x": -0.8972539427,
				"y": -4.2772681431,
				"z": 2.690916083,
				"element": "H" 
			},
			{
				"x": -2.4433074268,
				"y": -4.2902029752,
				"z": 1.8301450343,
				"element": "H" 
			},
			{
				"x": -3.1164114747,
				"y": -2.1381083898,
				"z": 1.0239499633,
				"element": "H" 
			},
			{
				"x": 1.6019698259,
				"y": -0.8395912612,
				"z": 0.27082265,
				"element": "H" 
			},
			{
				"x": 1.0757852845,
				"y": -3.0417030658,
				"z": 1.1586972694,
				"element": "H" 
			},
			{
				"x": -1.8859757952,
				"y": 3.9682936427,
				"z": -1.4257606597,
				"element": "H" 
			},
			{
				"x": 0.4253641854,
				"y": 4.7550095046,
				"z": -1.8537707949,
				"element": "H" 
			},
			{
				"x": 2.3508325222,
				"y": 3.2465686743,
				"z": -1.3650687173,
				"element": "H" 
			},
			{
				"x": 1.975742656,
				"y": 1.0061618936,
				"z": -0.4702560937,
				"element": "H" 
			},
			{
				"x": -3.4448803568,
				"y": 2.2602084784,
				"z": -0.677125545,
				"element": "H" 
			},
			{
				"x": -3.8960810755,
				"y": 0.0120811631,
				"z": 0.2246760032,
				"element": "H" 
			}
		],
		 "valence_orbital": [ 
			{
				"type": "occ",
				"energy": -0.30774,
				"method": "rhf"
			},
			{
				"type": "occ",
				"energy": -0.27504,
				"method": "rhf"
			},
			{
				"type": "occ",
				"energy": -0.25749,
				"method": "rhf"
			},
			{
				"type": "occ",
				"energy": -0.21634,
				"method": "rhf"
			},
			{
				"type": "occ",
				"energy": -0.20913,
				"method": "rhf"
			},
			{
				"type": "unocc",
				"energy": -0.03544,
				"method": "rhf"
			},
			{
				"type": "unocc",
				"energy": -0.02736,
				"method": "rhf"
			},
			{
				"type": "unocc",
				"energy": 0.00949,
				"method": "rhf"
			},
			{
				"type": "unocc",
				"energy": 0.03965,
				"method": "rhf"
			},
			{
				"type": "unocc",
				"energy": 0.08017,
				"method": "rhf"
			}
		],
		"cosmo_sigma_profile": { 
			"-0.025": 0.0,
			"-0.024": 0.0,
			"-0.023": 0.0,
			"-0.022": 0.0,
			"-0.021": 0.0,
			"-0.02": 0.0,
			"-0.019": 0.0,
			"-0.018": 0.0,
			"-0.017": 0.0,
			"-0.016": 0.0,
			"-0.015": 0.0,
			"-0.014": 0.0,
			"-0.013": 0.0,
			"-0.012": 0.0,
			"-0.011": 0.0,
			"-0.01": 0.0,
			"-0.009": 0.0,
			"-0.008": 0.731400123599,
			"-0.007": 2.10313948448,
			"-0.006": 9.18720517617,
			"-0.005": 19.3018809703,
			"-0.004": 21.4496430508,
			"-0.003": 23.6381757915,
			"-0.002": 17.8928728456,
			"-0.001": 16.8655074313,
			"0.0": 17.9416540028,
			"0.001": 15.5413432062,
			"0.002": 12.6334380596,
			"0.003": 20.0064793685,
			"0.004": 29.1375286384,
			"0.005": 25.3609009416,
			"0.006": 5.89048315887,
			"0.007": 0.0,
			"0.008": 0.0,
			"0.009": 0.0,
			"0.01": 0.0,
			"0.011": 0.0,
			"0.012": 0.0,
			"0.013": 0.0,
			"0.014": 0.0,
			"0.015": 0.0,
			"0.016": 0.0,
			"0.017": 0.0,
			"0.018": 0.0,
			"0.019": 0.0,
			"0.02": 0.0,
			"0.021": 0.0,
			"0.022": 0.0,
			"0.023": 0.0,
			"0.024": 0.0,
			"0.025": 0.0
		}
	}
}
