{
	 "smiles": "OC1=CC=C(Cl)C=C1C(=O)NC1=CC=C(C=C1Cl)N(=O)=O", 
	 "Tm": 503.15, 
	 "num_atms": 29, 
	 "gaussian": { 
		 "optdone": 1, 
		 "sigma_profile": "yes", 
		 "theory": "DFT", 
		 "functional": "B3LYP", 
		 "basiset": "6-31G**", 
		 "properties": { 
			 "R2extent": 9115.5661, 
			 "electric_dipole_moment_norm": 2.67858427345, 
			 "electric_quadrupole_moment_norm": 22.7826643543, 
			 "total_energy": -1830.90522273, 
			 "HOMO_LUMO_gap": 0.13587, 
			 "cosmo_polarized_energy": -14.41, 
			 "cosmo_cavitation_energy": 38.43, 
			 "cosmo_dispersion_energy": -27.35, 
			 "cosmo_repulsion_energy": 2.1, 
			 "cosmo_total_nonelectrostatic_energy": 13.18, 
			 "SMD_solvation_energy": 8.96 
		},
		"coords": [
			{
				"x": -4.4109148871,
				"y": -1.9403694063,
				"z": 0.2217927295,
				"element": "O" 
			},
			{
				"x": -3.8479384381,
				"y": -0.8869189547,
				"z": 0.8253117699,
				"element": "C" 
			},
			{
				"x": -4.1423834913,
				"y": -0.6746246971,
				"z": 2.1843433362,
				"element": "C" 
			},
			{
				"x": -3.6473751576,
				"y": 0.4331468556,
				"z": 2.8509745464,
				"element": "C" 
			},
			{
				"x": -2.8440107743,
				"y": 1.358537134,
				"z": 2.1671706684,
				"element": "C" 
			},
			{
				"x": -2.2659549222,
				"y": 2.7894083929,
				"z": 3.0061550463,
				"element": "Cl" 
			},
			{
				"x": -2.5095942823,
				"y": 1.1557711141,
				"z": 0.8405116578,
				"element": "C" 
			},
			{
				"x": -2.9737031317,
				"y": 0.0135008217,
				"z": 0.155828255,
				"element": "C" 
			},
			{
				"x": -2.6643203957,
				"y": -0.2510510201,
				"z": -1.2628413591,
				"element": "C" 
			},
			{
				"x": -3.3721816601,
				"y": -1.0057544158,
				"z": -1.9476356251,
				"element": "O" 
			},
			{
				"x": -1.6151871215,
				"y": 0.3921207445,
				"z": -1.9113723046,
				"element": "N" 
			},
			{
				"x": -0.3362122447,
				"y": 0.7561684258,
				"z": -1.4748820915,
				"element": "C" 
			},
			{
				"x": 0.2646682277,
				"y": 0.2123141208,
				"z": -0.3244029064,
				"element": "C" 
			},
			{
				"x": 1.5458325334,
				"y": 0.5829433374,
				"z": 0.0580931409,
				"element": "C" 
			},
			{
				"x": 2.252927319,
				"y": 1.4880547893,
				"z": -0.7305900944,
				"element": "C" 
			},
			{
				"x": 1.709375229,
				"y": 2.0266175439,
				"z": -1.8930635846,
				"element": "C" 
			},
			{
				"x": 0.4208689355,
				"y": 1.6588344307,
				"z": -2.2550882562,
				"element": "C" 
			},
			{
				"x": -0.2688160205,
				"y": 2.3272848551,
				"z": -3.7216851831,
				"element": "Cl" 
			},
			{
				"x": 3.6123115502,
				"y": 1.8791521217,
				"z": -0.3390813061,
				"element": "N" 
			},
			{
				"x": 4.2086205082,
				"y": 2.6722409598,
				"z": -1.0668757709,
				"element": "O" 
			},
			{
				"x": 4.0681253218,
				"y": 1.3874470666,
				"z": 0.6924485318,
				"element": "O" 
			},
			{
				"x": -4.216449637,
				"y": -1.8515660614,
				"z": -0.7437575697,
				"element": "H" 
			},
			{
				"x": -4.7902294687,
				"y": -1.3868596604,
				"z": 2.6833667229,
				"element": "H" 
			},
			{
				"x": -3.8930543477,
				"y": 0.600737303,
				"z": 3.8940311958,
				"element": "H" 
			},
			{
				"x": -1.9010298609,
				"y": 1.8888455763,
				"z": 0.326740825,
				"element": "H" 
			},
			{
				"x": -1.7244993718,
				"y": 0.33039932,
				"z": -2.9187187601,
				"element": "H" 
			},
			{
				"x": -0.2819485979,
				"y": -0.5116775985,
				"z": 0.2665693472,
				"element": "H" 
			},
			{
				"x": 2.0111272318,
				"y": 0.1692429147,
				"z": 0.9435623265,
				"element": "H" 
			},
			{
				"x": 2.2854469548,
				"y": 2.7213539864,
				"z": -2.490005288,
				"element": "H" 
			}
		],
		 "valence_orbital": [ 
			{
				"type": "occ",
				"energy": -0.30149,
				"method": "rhf"
			},
			{
				"type": "occ",
				"energy": -0.29295,
				"method": "rhf"
			},
			{
				"type": "occ",
				"energy": -0.2852,
				"method": "rhf"
			},
			{
				"type": "occ",
				"energy": -0.26418,
				"method": "rhf"
			},
			{
				"type": "occ",
				"energy": -0.24038,
				"method": "rhf"
			},
			{
				"type": "unocc",
				"energy": -0.10451,
				"method": "rhf"
			},
			{
				"type": "unocc",
				"energy": -0.07716,
				"method": "rhf"
			},
			{
				"type": "unocc",
				"energy": -0.05118,
				"method": "rhf"
			},
			{
				"type": "unocc",
				"energy": -0.01957,
				"method": "rhf"
			},
			{
				"type": "unocc",
				"energy": -0.0156,
				"method": "rhf"
			}
		],
		"cosmo_sigma_profile": { 
			"-0.025": 0.0,
			"-0.024": 0.0,
			"-0.023": 0.0,
			"-0.022": 0.0,
			"-0.021": 0.0,
			"-0.02": 0.0,
			"-0.019": 0.0,
			"-0.018": 0.0,
			"-0.017": 0.0,
			"-0.016": 0.0,
			"-0.015": 0.0,
			"-0.014": 0.231866710754,
			"-0.013": 1.20525327168,
			"-0.012": 0.827190811333,
			"-0.011": 0.801070980767,
			"-0.01": 0.741363762828,
			"-0.009": 2.67385703993,
			"-0.008": 9.69438513571,
			"-0.007": 12.9499428771,
			"-0.006": 13.3266459505,
			"-0.005": 13.9707896684,
			"-0.004": 17.0004131905,
			"-0.003": 19.3417503175,
			"-0.002": 26.1650303551,
			"-0.001": 30.6212649393,
			"0.0": 28.5296324946,
			"0.001": 26.334516016,
			"0.002": 22.2144669826,
			"0.003": 18.7062498289,
			"0.004": 16.0228393325,
			"0.005": 10.356099652,
			"0.006": 6.32459202308,
			"0.007": 10.7374220902,
			"0.008": 9.44050960771,
			"0.009": 7.47317488736,
			"0.01": 5.91489871509,
			"0.011": 2.58504970512,
			"0.012": 0.275568479337,
			"0.013": 0.0,
			"0.014": 0.0,
			"0.015": 0.0,
			"0.016": 0.0,
			"0.017": 0.0,
			"0.018": 0.0,
			"0.019": 0.0,
			"0.02": 0.0,
			"0.021": 0.0,
			"0.022": 0.0,
			"0.023": 0.0,
			"0.024": 0.0,
			"0.025": 0.0
		}
	}
}
