{
	 "smiles": "BrC1=C2OCCC(=O)C2=CC=C1", 
	 "Tm": 336.15, 
	 "num_atms": 19, 
	 "gaussian": { 
		 "optdone": 1, 
		 "sigma_profile": "yes", 
		 "theory": "DFT", 
		 "functional": "B3LYP", 
		 "basiset": "6-31G**", 
		 "properties": { 
			 "R2extent": 3951.8365, 
			 "electric_dipole_moment_norm": 0.824480915486, 
			 "electric_quadrupole_moment_norm": 17.6619603725, 
			 "total_energy": -3069.02251813, 
			 "HOMO_LUMO_gap": 0.17079, 
			 "cosmo_polarized_energy": -9.36, 
			 "cosmo_cavitation_energy": 24.94, 
			 "cosmo_dispersion_energy": -19.15, 
			 "cosmo_repulsion_energy": 1.52, 
			 "cosmo_total_nonelectrostatic_energy": 7.31, 
			 "SMD_solvation_energy": 3.75 
		},
		"coords": [
			{
				"x": -3.1534392936,
				"y": 2.4570695672,
				"z": 1.0174717488,
				"element": "Br" 
			},
			{
				"x": -1.6438973342,
				"y": 1.6267281693,
				"z": 0.2052452503,
				"element": "C" 
			},
			{
				"x": -0.6604004087,
				"y": 1.027006351,
				"z": 1.0107867868,
				"element": "C" 
			},
			{
				"x": -0.8204809008,
				"y": 1.0620029679,
				"z": 2.3553799567,
				"element": "O" 
			},
			{
				"x": -0.0697246828,
				"y": 0.08787241,
				"z": 3.0994336292,
				"element": "C" 
			},
			{
				"x": 1.4038220789,
				"y": 0.1027999793,
				"z": 2.7151628788,
				"element": "C" 
			},
			{
				"x": 1.563229684,
				"y": -0.1179604345,
				"z": 1.2171294184,
				"element": "C" 
			},
			{
				"x": 2.5437959626,
				"y": -0.6618902951,
				"z": 0.7354975033,
				"element": "O" 
			},
			{
				"x": 0.4560586877,
				"y": 0.4259911907,
				"z": 0.3892926215,
				"element": "C" 
			},
			{
				"x": 0.5538394085,
				"y": 0.4086116709,
				"z": -1.0106753179,
				"element": "C" 
			},
			{
				"x": -0.4303393102,
				"y": 0.9923679183,
				"z": -1.7939532039,
				"element": "C" 
			},
			{
				"x": -1.5280514339,
				"y": 1.6094970144,
				"z": -1.1798225693,
				"element": "C" 
			},
			{
				"x": -0.2260590855,
				"y": 0.34465604,
				"z": 4.1485278591,
				"element": "H" 
			},
			{
				"x": -0.5070289567,
				"y": -0.9029699941,
				"z": 2.9126789403,
				"element": "H" 
			},
			{
				"x": 1.8429425157,
				"y": 1.078905524,
				"z": 2.962575346,
				"element": "H" 
			},
			{
				"x": 1.9673358017,
				"y": -0.6621383647,
				"z": 3.2562031766,
				"element": "H" 
			},
			{
				"x": 1.4291475298,
				"y": -0.0621616912,
				"z": -1.4458843973,
				"element": "H" 
			},
			{
				"x": -0.3559808676,
				"y": 0.9827881417,
				"z": -2.8764193104,
				"element": "H" 
			},
			{
				"x": -2.3042693951,
				"y": 2.0742238349,
				"z": -1.7778303171,
				"element": "H" 
			}
		],
		 "valence_orbital": [ 
			{
				"type": "occ",
				"energy": -0.31526,
				"method": "rhf"
			},
			{
				"type": "occ",
				"energy": -0.28779,
				"method": "rhf"
			},
			{
				"type": "occ",
				"energy": -0.25865,
				"method": "rhf"
			},
			{
				"type": "occ",
				"energy": -0.25499,
				"method": "rhf"
			},
			{
				"type": "occ",
				"energy": -0.23662,
				"method": "rhf"
			},
			{
				"type": "unocc",
				"energy": -0.06583,
				"method": "rhf"
			},
			{
				"type": "unocc",
				"energy": -0.01311,
				"method": "rhf"
			},
			{
				"type": "unocc",
				"energy": 0.00388,
				"method": "rhf"
			},
			{
				"type": "unocc",
				"energy": 0.02874,
				"method": "rhf"
			},
			{
				"type": "unocc",
				"energy": 0.09475,
				"method": "rhf"
			}
		],
		"cosmo_sigma_profile": { 
			"-0.025": 0.0,
			"-0.024": 0.0,
			"-0.023": 0.0,
			"-0.022": 0.0,
			"-0.021": 0.0,
			"-0.02": 0.0,
			"-0.019": 0.0,
			"-0.018": 0.0,
			"-0.017": 0.0,
			"-0.016": 0.0,
			"-0.015": 0.0,
			"-0.014": 0.0,
			"-0.013": 0.0,
			"-0.012": 0.0,
			"-0.011": 0.0,
			"-0.01": 0.0,
			"-0.009": 0.0,
			"-0.008": 1.21177911668,
			"-0.007": 11.4413781026,
			"-0.006": 18.5529683583,
			"-0.005": 17.9575015597,
			"-0.004": 13.8785714425,
			"-0.003": 11.3777450826,
			"-0.002": 10.0393278237,
			"-0.001": 10.6139335673,
			"0.0": 13.3473565208,
			"0.001": 17.8631758711,
			"0.002": 17.8949585135,
			"0.003": 13.6787959449,
			"0.004": 12.8816983799,
			"0.005": 6.93953321746,
			"0.006": 3.65941225361,
			"0.007": 3.26202246882,
			"0.008": 3.47256384969,
			"0.009": 3.63120674128,
			"0.01": 2.64109405775,
			"0.011": 3.86776083276,
			"0.012": 3.7043855693,
			"0.013": 0.926408565705,
			"0.014": 0.019273247018,
			"0.015": 0.0,
			"0.016": 0.0,
			"0.017": 0.0,
			"0.018": 0.0,
			"0.019": 0.0,
			"0.02": 0.0,
			"0.021": 0.0,
			"0.022": 0.0,
			"0.023": 0.0,
			"0.024": 0.0,
			"0.025": 0.0
		}
	}
}
