{
	 "smiles": "CCO", 
	 "Tm": 159.15, 
	 "num_atms": 9, 
	 "gaussian": { 
		 "optdone": 1, 
		 "sigma_profile": "yes", 
		 "theory": "DFT", 
		 "functional": "B3LYP", 
		 "basiset": "6-31G**", 
		 "properties": { 
			 "R2extent": 221.1793, 
			 "electric_dipole_moment_norm": 1.52392525079, 
			 "electric_quadrupole_moment_norm": 4.10106414971, 
			 "total_energy": -155.043336818, 
			 "HOMO_LUMO_gap": 0.34105, 
			 "cosmo_polarized_energy": -5.51, 
			 "cosmo_cavitation_energy": 11.6, 
			 "cosmo_dispersion_energy": -8.94, 
			 "cosmo_repulsion_energy": 0.88, 
			 "cosmo_total_nonelectrostatic_energy": 3.54, 
			 "SMD_solvation_energy": 2.52 
		},
		"coords": [
			{
				"x": -0.290246979,
				"y": -0.8671349723,
				"z": -0.5012442301,
				"element": "C" 
			},
			{
				"x": -0.053683339,
				"y": 0.1001410313,
				"z": 0.6470330006,
				"element": "C" 
			},
			{
				"x": -1.1048650305,
				"y": 1.0602826565,
				"z": 0.6317018727,
				"element": "O" 
			},
			{
				"x": 0.4952696277,
				"y": -1.6290267755,
				"z": -0.5327224372,
				"element": "H" 
			},
			{
				"x": -0.2952859567,
				"y": -0.3317379381,
				"z": -1.4552629665,
				"element": "H" 
			},
			{
				"x": -1.2564635836,
				"y": -1.3669296165,
				"z": -0.3852206581,
				"element": "H" 
			},
			{
				"x": 0.9293887013,
				"y": 0.5852739937,
				"z": 0.5307894005,
				"element": "H" 
			},
			{
				"x": -0.0325348247,
				"y": -0.4507580216,
				"z": 1.6016835606,
				"element": "H" 
			},
			{
				"x": -0.9583786156,
				"y": 1.6766896425,
				"z": 1.3596424575,
				"element": "H" 
			}
		],
		 "valence_orbital": [ 
			{
				"type": "occ",
				"energy": -0.39409,
				"method": "rhf"
			},
			{
				"type": "occ",
				"energy": -0.37804,
				"method": "rhf"
			},
			{
				"type": "occ",
				"energy": -0.35966,
				"method": "rhf"
			},
			{
				"type": "occ",
				"energy": -0.32398,
				"method": "rhf"
			},
			{
				"type": "occ",
				"energy": -0.26124,
				"method": "rhf"
			},
			{
				"type": "unocc",
				"energy": 0.07981,
				"method": "rhf"
			},
			{
				"type": "unocc",
				"energy": 0.12025,
				"method": "rhf"
			},
			{
				"type": "unocc",
				"energy": 0.15779,
				"method": "rhf"
			},
			{
				"type": "unocc",
				"energy": 0.16298,
				"method": "rhf"
			},
			{
				"type": "unocc",
				"energy": 0.17619,
				"method": "rhf"
			}
		],
		"cosmo_sigma_profile": { 
			"-0.025": 0.0,
			"-0.024": 0.0,
			"-0.023": 0.0,
			"-0.022": 0.0,
			"-0.021": 0.0,
			"-0.02": 0.0,
			"-0.019": 0.0,
			"-0.018": 0.0,
			"-0.017": 0.0,
			"-0.016": 0.141693232785,
			"-0.015": 0.97346720517,
			"-0.014": 1.18689936999,
			"-0.013": 0.695648842393,
			"-0.012": 0.946995885355,
			"-0.011": 0.7598284098,
			"-0.01": 0.89178950232,
			"-0.009": 0.760753628377,
			"-0.008": 0.786381720223,
			"-0.007": 0.5155025009,
			"-0.006": 1.24075483007,
			"-0.005": 1.30071436162,
			"-0.004": 2.1516986358,
			"-0.003": 11.9959530663,
			"-0.002": 14.0361626187,
			"-0.001": 11.8227354423,
			"0.0": 9.63211076358,
			"0.001": 7.95600215284,
			"0.002": 3.4402179437,
			"0.003": 1.2309488506,
			"0.004": 1.44932870123,
			"0.005": 1.07601300579,
			"0.006": 1.2967310489,
			"0.007": 1.45800918634,
			"0.008": 1.21663538581,
			"0.009": 1.76299575527,
			"0.01": 1.29026592668,
			"0.011": 1.1395062949,
			"0.012": 1.13054288247,
			"0.013": 1.85296728088,
			"0.014": 2.22172880249,
			"0.015": 1.23645274346,
			"0.016": 0.0,
			"0.017": 0.0,
			"0.018": 0.0,
			"0.019": 0.0,
			"0.02": 0.0,
			"0.021": 0.0,
			"0.022": 0.0,
			"0.023": 0.0,
			"0.024": 0.0,
			"0.025": 0.0
		}
	}
}
