{
	 "smiles": "[O-][N+](=O)C1=CC(=CC=C1)S(=O)(=O)N1CCNC(=O)C1", 
	 "Tm": 491.15, 
	 "num_atms": 30, 
	 "gaussian": { 
		 "optdone": 1, 
		 "sigma_profile": "yes", 
		 "theory": "DFT", 
		 "functional": "B3LYP", 
		 "basiset": "6-31G**", 
		 "properties": { 
			 "R2extent": 6312.4404, 
			 "electric_dipole_moment_norm": 6.99760248085, 
			 "electric_quadrupole_moment_norm": 20.2164359839, 
			 "total_energy": -1326.0847138, 
			 "HOMO_LUMO_gap": 0.14926, 
			 "cosmo_polarized_energy": -24.61, 
			 "cosmo_cavitation_energy": 36.11, 
			 "cosmo_dispersion_energy": -25.64, 
			 "cosmo_repulsion_energy": 1.94, 
			 "cosmo_total_nonelectrostatic_energy": 12.41, 
			 "SMD_solvation_energy": 6.83 
		},
		"coords": [
			{
				"x": 3.7106177828,
				"y": 1.5287024538,
				"z": -3.8293780153,
				"element": "O" 
			},
			{
				"x": 3.1323535801,
				"y": 1.1573586805,
				"z": -2.8102856562,
				"element": "N" 
			},
			{
				"x": 3.6011674052,
				"y": 1.1973782994,
				"z": -1.6754477111,
				"element": "O" 
			},
			{
				"x": 1.7635110592,
				"y": 0.6256615033,
				"z": -2.9626833086,
				"element": "C" 
			},
			{
				"x": 1.0931710174,
				"y": 0.1781439589,
				"z": -1.8304193089,
				"element": "C" 
			},
			{
				"x": -0.2037671333,
				"y": -0.3060547932,
				"z": -1.9993827433,
				"element": "C" 
			},
			{
				"x": -0.8081242522,
				"y": -0.3574342661,
				"z": -3.2566819073,
				"element": "C" 
			},
			{
				"x": -0.1021468322,
				"y": 0.0952762733,
				"z": -4.3752508616,
				"element": "C" 
			},
			{
				"x": 1.1910598086,
				"y": 0.5923020043,
				"z": -4.2349839428,
				"element": "C" 
			},
			{
				"x": -1.0903502831,
				"y": -0.9612832691,
				"z": -0.5749506367,
				"element": "S" 
			},
			{
				"x": -2.4325477891,
				"y": -1.3332391347,
				"z": -1.0423008101,
				"element": "O" 
			},
			{
				"x": -0.2362172008,
				"y": -1.9301508249,
				"z": 0.1122870715,
				"element": "O" 
			},
			{
				"x": -1.1464725626,
				"y": 0.4101105827,
				"z": 0.4310324488,
				"element": "N" 
			},
			{
				"x": -2.1583713282,
				"y": 1.4116448942,
				"z": 0.0631258485,
				"element": "C" 
			},
			{
				"x": -1.763382863,
				"y": 2.7284194918,
				"z": 0.722187138,
				"element": "C" 
			},
			{
				"x": -1.5503275538,
				"y": 2.5279812703,
				"z": 2.1489649095,
				"element": "N" 
			},
			{
				"x": -1.1541523018,
				"y": 1.3629721704,
				"z": 2.7440988957,
				"element": "C" 
			},
			{
				"x": -0.8755719576,
				"y": 1.2881161917,
				"z": 3.9304466199,
				"element": "O" 
			},
			{
				"x": -1.1519686866,
				"y": 0.1034527519,
				"z": 1.8762236428,
				"element": "C" 
			},
			{
				"x": 1.5735669528,
				"y": 0.2133574107,
				"z": -0.8608906183,
				"element": "H" 
			},
			{
				"x": -1.8144885352,
				"y": -0.751921516,
				"z": -3.3448736502,
				"element": "H" 
			},
			{
				"x": -0.5628984385,
				"y": 0.0585843617,
				"z": -5.356863786,
				"element": "H" 
			},
			{
				"x": 1.7630441634,
				"y": 0.9515560184,
				"z": -5.0813057041,
				"element": "H" 
			},
			{
				"x": -2.1675198042,
				"y": 1.5396778893,
				"z": -1.0219387496,
				"element": "H" 
			},
			{
				"x": -3.1640457124,
				"y": 1.0989072079,
				"z": 0.3774890655,
				"element": "H" 
			},
			{
				"x": -2.5658322463,
				"y": 3.4603065566,
				"z": 0.5791007605,
				"element": "H" 
			},
			{
				"x": -0.8575487141,
				"y": 3.119118914,
				"z": 0.2382218501,
				"element": "H" 
			},
			{
				"x": -1.499679792,
				"y": 3.3363397399,
				"z": 2.7556040711,
				"element": "H" 
			},
			{
				"x": -2.0320425503,
				"y": -0.4876990472,
				"z": 2.1722504611,
				"element": "H" 
			},
			{
				"x": -0.2636352324,
				"y": -0.4733857737,
				"z": 2.1297046269,
				"element": "H" 
			}
		],
		 "valence_orbital": [ 
			{
				"type": "occ",
				"energy": -0.30832,
				"method": "rhf"
			},
			{
				"type": "occ",
				"energy": -0.30575,
				"method": "rhf"
			},
			{
				"type": "occ",
				"energy": -0.2817,
				"method": "rhf"
			},
			{
				"type": "occ",
				"energy": -0.26545,
				"method": "rhf"
			},
			{
				"type": "occ",
				"energy": -0.25712,
				"method": "rhf"
			},
			{
				"type": "unocc",
				"energy": -0.10786,
				"method": "rhf"
			},
			{
				"type": "unocc",
				"energy": -0.06795,
				"method": "rhf"
			},
			{
				"type": "unocc",
				"energy": -0.02483,
				"method": "rhf"
			},
			{
				"type": "unocc",
				"energy": 0.011,
				"method": "rhf"
			},
			{
				"type": "unocc",
				"energy": 0.03507,
				"method": "rhf"
			}
		],
		"cosmo_sigma_profile": { 
			"-0.025": 0.0,
			"-0.024": 0.0,
			"-0.023": 0.0,
			"-0.022": 0.0,
			"-0.021": 0.0,
			"-0.02": 0.0,
			"-0.019": 0.0,
			"-0.018": 0.0,
			"-0.017": 0.0,
			"-0.016": 0.0,
			"-0.015": 0.177556238587,
			"-0.014": 1.07389660375,
			"-0.013": 1.06644178005,
			"-0.012": 1.71997948136,
			"-0.011": 0.581807375017,
			"-0.01": 0.997222320859,
			"-0.009": 2.84656064849,
			"-0.008": 8.70071492656,
			"-0.007": 19.1625375131,
			"-0.006": 23.5032520618,
			"-0.005": 22.2493230919,
			"-0.004": 19.840401643,
			"-0.003": 20.5319198446,
			"-0.002": 21.6522963822,
			"-0.001": 19.5302894994,
			"0.0": 16.0640729693,
			"0.001": 8.09542503264,
			"0.002": 7.80784960494,
			"0.003": 8.10219378281,
			"0.004": 6.23336120784,
			"0.005": 6.72410847163,
			"0.006": 9.38426500008,
			"0.007": 13.1315102214,
			"0.008": 9.2192738452,
			"0.009": 10.3038213927,
			"0.01": 10.4586014244,
			"0.011": 6.35973449448,
			"0.012": 2.23639314191,
			"0.013": 5.64146066099,
			"0.014": 3.87559700129,
			"0.015": 0.347129470701,
			"0.016": 0.0,
			"0.017": 0.0,
			"0.018": 0.0,
			"0.019": 0.0,
			"0.02": 0.0,
			"0.021": 0.0,
			"0.022": 0.0,
			"0.023": 0.0,
			"0.024": 0.0,
			"0.025": 0.0
		}
	}
}
