{
	 "smiles": "ClCC(=O)NNC(=O)C1CC1", 
	 "Tm": 459.15, 
	 "num_atms": 20, 
	 "gaussian": { 
		 "optdone": 1, 
		 "sigma_profile": "yes", 
		 "theory": "DFT", 
		 "functional": "B3LYP", 
		 "basiset": "6-31G**", 
		 "properties": { 
			 "R2extent": 2510.638, 
			 "electric_dipole_moment_norm": 4.71982643113, 
			 "electric_quadrupole_moment_norm": 8.3429303545, 
			 "total_energy": -954.163813236, 
			 "HOMO_LUMO_gap": 0.23665, 
			 "cosmo_polarized_energy": -16.43, 
			 "cosmo_cavitation_energy": 25.98, 
			 "cosmo_dispersion_energy": -18.25, 
			 "cosmo_repulsion_energy": 1.49, 
			 "cosmo_total_nonelectrostatic_energy": 9.22, 
			 "SMD_solvation_energy": 5.5 
		},
		"coords": [
			{
				"x": -1.9442954041,
				"y": 0.7512408982,
				"z": -2.3915983058,
				"element": "Cl" 
			},
			{
				"x": -0.5342161459,
				"y": 1.5369046215,
				"z": -1.5545085916,
				"element": "C" 
			},
			{
				"x": -0.6476076551,
				"y": 1.52770092,
				"z": -0.0330985866,
				"element": "C" 
			},
			{
				"x": -0.6276697184,
				"y": 2.5604233099,
				"z": 0.6083611908,
				"element": "O" 
			},
			{
				"x": -0.794808409,
				"y": 0.3026571685,
				"z": 0.5927233364,
				"element": "N" 
			},
			{
				"x": -0.487599662,
				"y": -0.8975246462,
				"z": -0.0157417197,
				"element": "N" 
			},
			{
				"x": 0.8242581083,
				"y": -1.2297171342,
				"z": -0.3284676977,
				"element": "C" 
			},
			{
				"x": 1.748896093,
				"y": -0.4796427718,
				"z": -0.0571814579,
				"element": "O" 
			},
			{
				"x": 1.0328503175,
				"y": -2.5452013115,
				"z": -1.0096882294,
				"element": "C" 
			},
			{
				"x": 0.1559403239,
				"y": -3.7567701924,
				"z": -0.7416168619,
				"element": "C" 
			},
			{
				"x": 0.0746550279,
				"y": -3.0701064012,
				"z": -2.0693621066,
				"element": "C" 
			},
			{
				"x": -0.5153696187,
				"y": 2.577591428,
				"z": -1.8689657591,
				"element": "H" 
			},
			{
				"x": 0.3701668279,
				"y": 1.0232338428,
				"z": -1.8823816878,
				"element": "H" 
			},
			{
				"x": -0.6560826186,
				"y": 0.3406520614,
				"z": 1.5969906857,
				"element": "H" 
			},
			{
				"x": -1.274259528,
				"y": -1.4157724418,
				"z": -0.3784061007,
				"element": "H" 
			},
			{
				"x": 2.0902689261,
				"y": -2.7230075445,
				"z": -1.1707928495,
				"element": "H" 
			},
			{
				"x": -0.6646279989,
				"y": -3.6438392756,
				"z": -0.0393425704,
				"element": "H" 
			},
			{
				"x": 0.6542331122,
				"y": -4.7191122818,
				"z": -0.6839529598,
				"element": "H" 
			},
			{
				"x": 0.5200814098,
				"y": -3.5540164736,
				"z": -2.9325595278,
				"element": "H" 
			},
			{
				"x": -0.8016133879,
				"y": -2.4737937758,
				"z": -2.3070102006,
				"element": "H" 
			}
		],
		 "valence_orbital": [ 
			{
				"type": "occ",
				"energy": -0.31273,
				"method": "rhf"
			},
			{
				"type": "occ",
				"energy": -0.29349,
				"method": "rhf"
			},
			{
				"type": "occ",
				"energy": -0.2862,
				"method": "rhf"
			},
			{
				"type": "occ",
				"energy": -0.26687,
				"method": "rhf"
			},
			{
				"type": "occ",
				"energy": -0.26307,
				"method": "rhf"
			},
			{
				"type": "unocc",
				"energy": -0.02642,
				"method": "rhf"
			},
			{
				"type": "unocc",
				"energy": 0.00075,
				"method": "rhf"
			},
			{
				"type": "unocc",
				"energy": 0.04273,
				"method": "rhf"
			},
			{
				"type": "unocc",
				"energy": 0.05185,
				"method": "rhf"
			},
			{
				"type": "unocc",
				"energy": 0.07665,
				"method": "rhf"
			}
		],
		"cosmo_sigma_profile": { 
			"-0.025": 0.0,
			"-0.024": 0.0,
			"-0.023": 0.0,
			"-0.022": 0.0,
			"-0.021": 0.0,
			"-0.02": 0.0,
			"-0.019": 0.0,
			"-0.018": 0.0,
			"-0.017": 0.0,
			"-0.016": 0.0,
			"-0.015": 1.24319789557,
			"-0.014": 1.41041233684,
			"-0.013": 2.38418870963,
			"-0.012": 1.15804001884,
			"-0.011": 2.04207706316,
			"-0.01": 2.26794314652,
			"-0.009": 2.75769836264,
			"-0.008": 4.39222128408,
			"-0.007": 6.09431958841,
			"-0.006": 12.0793082447,
			"-0.005": 14.3727565998,
			"-0.004": 13.3599645157,
			"-0.003": 11.7657451882,
			"-0.002": 14.0988561501,
			"-0.001": 14.7542540348,
			"0.0": 14.8521516118,
			"0.001": 13.2587399463,
			"0.002": 12.7566325283,
			"0.003": 9.66595391219,
			"0.004": 8.45597566379,
			"0.005": 9.05425082839,
			"0.006": 4.94631212541,
			"0.007": 2.24660706856,
			"0.008": 2.191860216,
			"0.009": 3.57472182312,
			"0.01": 3.32670395409,
			"0.011": 4.48057578612,
			"0.012": 8.67415564571,
			"0.013": 4.70456168903,
			"0.014": 1.12720088128,
			"0.015": 0.00411960289551,
			"0.016": 0.0,
			"0.017": 0.0,
			"0.018": 0.0,
			"0.019": 0.0,
			"0.02": 0.0,
			"0.021": 0.0,
			"0.022": 0.0,
			"0.023": 0.0,
			"0.024": 0.0,
			"0.025": 0.0
		}
	}
}
