{
	 "smiles": "CC(N)C1=C(C)N=C(S1)C1=CC=C(Cl)C=C1", 
	 "Tm": 316.15, 
	 "num_atms": 29, 
	 "gaussian": { 
		 "optdone": 1, 
		 "sigma_profile": "yes", 
		 "theory": "DFT", 
		 "functional": "B3LYP", 
		 "basiset": "6-31G**", 
		 "properties": { 
			 "R2extent": 7069.4765, 
			 "electric_dipole_moment_norm": 1.59333192085, 
			 "electric_quadrupole_moment_norm": 13.8170243435, 
			 "total_energy": -1433.00563917, 
			 "HOMO_LUMO_gap": 0.15822, 
			 "cosmo_polarized_energy": -9.78, 
			 "cosmo_cavitation_energy": 35.71, 
			 "cosmo_dispersion_energy": -26.2, 
			 "cosmo_repulsion_energy": 2.02, 
			 "cosmo_total_nonelectrostatic_energy": 11.52, 
			 "SMD_solvation_energy": 3.14 
		},
		"coords": [
			{
				"x": -2.9224384192,
				"y": 1.4177645551,
				"z": -2.7757489868,
				"element": "C" 
			},
			{
				"x": -1.7922299381,
				"y": 0.3882197042,
				"z": -2.9083700997,
				"element": "C" 
			},
			{
				"x": -0.8815945924,
				"y": 0.8168013097,
				"z": -3.9840760202,
				"element": "N" 
			},
			{
				"x": -1.1118557708,
				"y": 0.0917233105,
				"z": -1.5868329127,
				"element": "C" 
			},
			{
				"x": -0.9196149811,
				"y": -1.1092833674,
				"z": -0.9426532797,
				"element": "C" 
			},
			{
				"x": -1.4010272232,
				"y": -2.4629193129,
				"z": -1.3855623499,
				"element": "C" 
			},
			{
				"x": -0.2093335753,
				"y": -1.0460397722,
				"z": 0.2369988665,
				"element": "N" 
			},
			{
				"x": 0.1638755346,
				"y": 0.1690894504,
				"z": 0.5317375074,
				"element": "C" 
			},
			{
				"x": -0.3534350888,
				"y": 1.3679875878,
				"z": -0.6541692021,
				"element": "S" 
			},
			{
				"x": 0.9349714841,
				"y": 0.5197588441,
				"z": 1.731135001,
				"element": "C" 
			},
			{
				"x": 1.3090321979,
				"y": -0.5013301854,
				"z": 2.6229977729,
				"element": "C" 
			},
			{
				"x": 2.0402606512,
				"y": -0.2142403629,
				"z": 3.7702649175,
				"element": "C" 
			},
			{
				"x": 2.4053481841,
				"y": 1.1069307698,
				"z": 4.0356757291,
				"element": "C" 
			},
			{
				"x": 3.3290612758,
				"y": 1.4760753848,
				"z": 5.482903659,
				"element": "Cl" 
			},
			{
				"x": 2.0470989602,
				"y": 2.1385694441,
				"z": 3.1683082756,
				"element": "C" 
			},
			{
				"x": 1.3147441771,
				"y": 1.839433038,
				"z": 2.0224809184,
				"element": "C" 
			},
			{
				"x": -3.4138118534,
				"y": 1.5508462674,
				"z": -3.7430063474,
				"element": "H" 
			},
			{
				"x": -2.5322482686,
				"y": 2.3914483714,
				"z": -2.4564554181,
				"element": "H" 
			},
			{
				"x": -3.6618547369,
				"y": 1.0968022614,
				"z": -2.0370517377,
				"element": "H" 
			},
			{
				"x": -2.2409584047,
				"y": -0.5543830888,
				"z": -3.242167148,
				"element": "H" 
			},
			{
				"x": -0.4700270514,
				"y": 1.7175171087,
				"z": -3.7448936142,
				"element": "H" 
			},
			{
				"x": -0.1045709185,
				"y": 0.1633026591,
				"z": -4.0554718233,
				"element": "H" 
			},
			{
				"x": -2.0975634958,
				"y": -2.8794691021,
				"z": -0.6498891948,
				"element": "H" 
			},
			{
				"x": -0.5583087192,
				"y": -3.1580966517,
				"z": -1.459736257,
				"element": "H" 
			},
			{
				"x": -1.9062296592,
				"y": -2.4309921925,
				"z": -2.3526209525,
				"element": "H" 
			},
			{
				"x": 1.0151565611,
				"y": -1.5203307606,
				"z": 2.3979563795,
				"element": "H" 
			},
			{
				"x": 2.3265998492,
				"y": -1.0047055768,
				"z": 4.455170779,
				"element": "H" 
			},
			{
				"x": 2.3372183432,
				"y": 3.159886724,
				"z": 3.3878362932,
				"element": "H" 
			},
			{
				"x": 1.0389354782,
				"y": 2.6489335827,
				"z": 1.3527392449,
				"element": "H" 
			}
		],
		 "valence_orbital": [ 
			{
				"type": "occ",
				"energy": -0.27516,
				"method": "rhf"
			},
			{
				"type": "occ",
				"energy": -0.26981,
				"method": "rhf"
			},
			{
				"type": "occ",
				"energy": -0.26594,
				"method": "rhf"
			},
			{
				"type": "occ",
				"energy": -0.24702,
				"method": "rhf"
			},
			{
				"type": "occ",
				"energy": -0.21606,
				"method": "rhf"
			},
			{
				"type": "unocc",
				"energy": -0.05784,
				"method": "rhf"
			},
			{
				"type": "unocc",
				"energy": -0.01744,
				"method": "rhf"
			},
			{
				"type": "unocc",
				"energy": 0.01299,
				"method": "rhf"
			},
			{
				"type": "unocc",
				"energy": 0.01616,
				"method": "rhf"
			},
			{
				"type": "unocc",
				"energy": 0.02943,
				"method": "rhf"
			}
		],
		"cosmo_sigma_profile": { 
			"-0.025": 0.0,
			"-0.024": 0.0,
			"-0.023": 0.0,
			"-0.022": 0.0,
			"-0.021": 0.0,
			"-0.02": 0.0,
			"-0.019": 0.0,
			"-0.018": 0.0,
			"-0.017": 0.0,
			"-0.016": 0.0,
			"-0.015": 0.0,
			"-0.014": 0.0,
			"-0.013": 0.0,
			"-0.012": 0.0,
			"-0.011": 0.0,
			"-0.01": 0.801992200303,
			"-0.009": 2.77422993252,
			"-0.008": 4.13058385362,
			"-0.007": 8.94888393445,
			"-0.006": 12.4899599214,
			"-0.005": 14.5050070811,
			"-0.004": 16.6349059766,
			"-0.003": 19.2968210054,
			"-0.002": 21.8339665814,
			"-0.001": 26.6642515332,
			"0.0": 28.2529297067,
			"0.001": 29.5496886862,
			"0.002": 31.1930095073,
			"0.003": 28.3669739492,
			"0.004": 16.5622293625,
			"0.005": 7.94772024529,
			"0.006": 2.47877448487,
			"0.007": 2.03330740925,
			"0.008": 2.3332720084,
			"0.009": 2.0168369864,
			"0.01": 2.33595014941,
			"0.011": 1.42525323557,
			"0.012": 1.44719471429,
			"0.013": 0.470820867978,
			"0.014": 0.561045989384,
			"0.015": 0.508987015955,
			"0.016": 0.722528194719,
			"0.017": 0.626242327682,
			"0.018": 0.61704248856,
			"0.019": 0.336969027176,
			"0.02": 0.0438137771502,
			"0.021": 0.0,
			"0.022": 0.0,
			"0.023": 0.0,
			"0.024": 0.0,
			"0.025": 0.0
		}
	}
}
