{
	 "smiles": "NC1=NC(NC2=CC=C(F)C=C2)=NC(CCl)=N1", 
	 "Tm": 444.15, 
	 "num_atms": 26, 
	 "gaussian": { 
		 "optdone": 1, 
		 "sigma_profile": "yes", 
		 "theory": "DFT", 
		 "functional": "B3LYP", 
		 "basiset": "6-31G**", 
		 "properties": { 
			 "R2extent": 6353.6391, 
			 "electric_dipole_moment_norm": 4.41336279157, 
			 "electric_quadrupole_moment_norm": 14.2522816503, 
			 "total_energy": -1220.31535946, 
			 "HOMO_LUMO_gap": 0.1663, 
			 "cosmo_polarized_energy": -14.79, 
			 "cosmo_cavitation_energy": 33.69, 
			 "cosmo_dispersion_energy": -24.56, 
			 "cosmo_repulsion_energy": 1.91, 
			 "cosmo_total_nonelectrostatic_energy": 11.04, 
			 "SMD_solvation_energy": 2.17 
		},
		"coords": [
			{
				"x": 2.7147791832,
				"y": 2.7655274875,
				"z": 3.7314529078,
				"element": "N" 
			},
			{
				"x": 1.8073192372,
				"y": 2.292721728,
				"z": 2.846355592,
				"element": "C" 
			},
			{
				"x": 1.9992967401,
				"y": 1.0668543191,
				"z": 2.3488721695,
				"element": "N" 
			},
			{
				"x": 1.0695266866,
				"y": 0.6772110362,
				"z": 1.4547491729,
				"element": "C" 
			},
			{
				"x": 1.2754880908,
				"y": -0.5705960548,
				"z": 0.9430506058,
				"element": "N" 
			},
			{
				"x": 0.5529214916,
				"y": -1.3493072162,
				"z": 0.0173579008,
				"element": "C" 
			},
			{
				"x": -0.6826667346,
				"y": -0.977426533,
				"z": -0.5365189017,
				"element": "C" 
			},
			{
				"x": -1.3219888877,
				"y": -1.8265453769,
				"z": -1.4394386501,
				"element": "C" 
			},
			{
				"x": -0.7354494065,
				"y": -3.0369155307,
				"z": -1.7847251901,
				"element": "C" 
			},
			{
				"x": -1.3623849635,
				"y": -3.8532320251,
				"z": -2.6600410337,
				"element": "F" 
			},
			{
				"x": 0.4852993768,
				"y": -3.4280699225,
				"z": -1.2477691374,
				"element": "C" 
			},
			{
				"x": 1.1245565993,
				"y": -2.5801846901,
				"z": -0.3486294981,
				"element": "C" 
			},
			{
				"x": 0.0136018455,
				"y": 1.4115432434,
				"z": 1.0578447025,
				"element": "N" 
			},
			{
				"x": -0.0651967393,
				"y": 2.6119998411,
				"z": 1.6428428383,
				"element": "C" 
			},
			{
				"x": -1.2351125555,
				"y": 3.4779436465,
				"z": 1.2503983542,
				"element": "C" 
			},
			{
				"x": -2.721648851,
				"y": 3.0187104976,
				"z": 2.1931343258,
				"element": "Cl" 
			},
			{
				"x": 0.7815276966,
				"y": 3.1232679601,
				"z": 2.530111725,
				"element": "N" 
			},
			{
				"x": 2.5174546642,
				"y": 3.6325763115,
				"z": 4.2031040414,
				"element": "H" 
			},
			{
				"x": 3.4250820256,
				"y": 2.1445787288,
				"z": 4.0818579699,
				"element": "H" 
			},
			{
				"x": 2.1145248696,
				"y": -0.9937628714,
				"z": 1.3159051139,
				"element": "H" 
			},
			{
				"x": -1.1269573219,
				"y": -0.033006258,
				"z": -0.2578971118,
				"element": "H" 
			},
			{
				"x": -2.2772026227,
				"y": -1.5528433351,
				"z": -1.8745753116,
				"element": "H" 
			},
			{
				"x": 0.9217343757,
				"y": -4.3788041767,
				"z": -1.5334770007,
				"element": "H" 
			},
			{
				"x": 2.0811073086,
				"y": -2.8768627039,
				"z": 0.0747920129,
				"element": "H" 
			},
			{
				"x": -1.4818196196,
				"y": 3.3394682944,
				"z": 0.1986274298,
				"element": "H" 
			},
			{
				"x": -1.027992489,
				"y": 4.5215536003,
				"z": 1.4786149726,
				"element": "H" 
			}
		],
		 "valence_orbital": [ 
			{
				"type": "occ",
				"energy": -0.27164,
				"method": "rhf"
			},
			{
				"type": "occ",
				"energy": -0.26982,
				"method": "rhf"
			},
			{
				"type": "occ",
				"energy": -0.26121,
				"method": "rhf"
			},
			{
				"type": "occ",
				"energy": -0.25667,
				"method": "rhf"
			},
			{
				"type": "occ",
				"energy": -0.21277,
				"method": "rhf"
			},
			{
				"type": "unocc",
				"energy": -0.04647,
				"method": "rhf"
			},
			{
				"type": "unocc",
				"energy": -0.01842,
				"method": "rhf"
			},
			{
				"type": "unocc",
				"energy": -0.01065,
				"method": "rhf"
			},
			{
				"type": "unocc",
				"energy": 0.02816,
				"method": "rhf"
			},
			{
				"type": "unocc",
				"energy": 0.04578,
				"method": "rhf"
			}
		],
		"cosmo_sigma_profile": { 
			"-0.025": 0.0,
			"-0.024": 0.0,
			"-0.023": 0.0,
			"-0.022": 0.0,
			"-0.021": 0.0,
			"-0.02": 0.0,
			"-0.019": 0.0,
			"-0.018": 0.0,
			"-0.017": 0.0,
			"-0.016": 0.0,
			"-0.015": 0.903465614839,
			"-0.014": 3.23879050236,
			"-0.013": 3.05819492184,
			"-0.012": 3.23526627755,
			"-0.011": 2.80554030036,
			"-0.01": 3.4502352193,
			"-0.009": 3.10591958434,
			"-0.008": 5.79818857527,
			"-0.007": 9.41530344436,
			"-0.006": 10.7036026162,
			"-0.005": 11.7190852605,
			"-0.004": 11.0654037062,
			"-0.003": 11.0157622194,
			"-0.002": 13.2424501054,
			"-0.001": 11.9655927459,
			"0.0": 17.3777688246,
			"0.001": 23.2909009035,
			"0.002": 23.0603634628,
			"0.003": 26.2949253175,
			"0.004": 29.9457884587,
			"0.005": 19.0610979237,
			"0.006": 14.5264488662,
			"0.007": 4.96126394343,
			"0.008": 2.11173729271,
			"0.009": 1.52532916722,
			"0.01": 1.46577773513,
			"0.011": 2.61864511316,
			"0.012": 0.924623278924,
			"0.013": 0.418474728823,
			"0.014": 0.147362926805,
			"0.015": 0.0,
			"0.016": 0.0,
			"0.017": 0.0,
			"0.018": 0.0,
			"0.019": 0.0,
			"0.02": 0.0,
			"0.021": 0.0,
			"0.022": 0.0,
			"0.023": 0.0,
			"0.024": 0.0,
			"0.025": 0.0
		}
	}
}
