{
	 "smiles": "CC(C)(C)OC(=O)N1CCN(CCC(O)=O)CC1", 
	 "Tm": 411.15, 
	 "num_atms": 40, 
	 "gaussian": { 
		 "optdone": 1, 
		 "sigma_profile": "yes", 
		 "theory": "DFT", 
		 "functional": "B3LYP", 
		 "basiset": "6-31G**", 
		 "properties": { 
			 "R2extent": 8267.588, 
			 "electric_dipole_moment_norm": 6.54961915992, 
			 "electric_quadrupole_moment_norm": 45.1931571407, 
			 "total_energy": -880.974860949, 
			 "HOMO_LUMO_gap": 0.2732, 
			 "cosmo_polarized_energy": -20.35, 
			 "cosmo_cavitation_energy": 40.18, 
			 "cosmo_dispersion_energy": -27.92, 
			 "cosmo_repulsion_energy": 2.16, 
			 "cosmo_total_nonelectrostatic_energy": 14.43, 
			 "SMD_solvation_energy": 7.93 
		},
		"coords": [
			{
				"x": -1.6738686981,
				"y": 3.145014372,
				"z": 1.0442114088,
				"element": "C" 
			},
			{
				"x": -1.7893839806,
				"y": 2.7622979247,
				"z": -0.4349953211,
				"element": "C" 
			},
			{
				"x": -3.2572936351,
				"y": 2.6779968957,
				"z": -0.8612829344,
				"element": "C" 
			},
			{
				"x": -1.0122521668,
				"y": 3.7183142511,
				"z": -1.3458206425,
				"element": "C" 
			},
			{
				"x": -1.319753645,
				"y": 1.3802481355,
				"z": -0.6350247239,
				"element": "O" 
			},
			{
				"x": -0.0345291899,
				"y": 1.0389905346,
				"z": -0.3765984739,
				"element": "C" 
			},
			{
				"x": 0.8348939564,
				"y": 1.7824465901,
				"z": 0.0564028676,
				"element": "O" 
			},
			{
				"x": 0.1730907795,
				"y": -0.2845708486,
				"z": -0.672172424,
				"element": "N" 
			},
			{
				"x": -0.8922651988,
				"y": -1.1797959405,
				"z": -1.1317882708,
				"element": "C" 
			},
			{
				"x": -0.2557417812,
				"y": -2.4709988118,
				"z": -1.6515583964,
				"element": "C" 
			},
			{
				"x": 0.5643076793,
				"y": -3.1840383163,
				"z": -0.6460915777,
				"element": "N" 
			},
			{
				"x": -0.1616068719,
				"y": -4.2370905558,
				"z": 0.0916613636,
				"element": "C" 
			},
			{
				"x": 0.7940099112,
				"y": -5.2348654616,
				"z": 0.7656914915,
				"element": "C" 
			},
			{
				"x": 1.76277176,
				"y": -5.963378405,
				"z": -0.1769188998,
				"element": "C" 
			},
			{
				"x": 2.1821626811,
				"y": -5.2540817964,
				"z": -1.2383946669,
				"element": "O" 
			},
			{
				"x": 2.150230384,
				"y": -7.0878284204,
				"z": 0.0407817832,
				"element": "O" 
			},
			{
				"x": 1.2804517456,
				"y": -2.2552852232,
				"z": 0.2654687589,
				"element": "C" 
			},
			{
				"x": 1.4730452776,
				"y": -0.8799098112,
				"z": -0.3670709578,
				"element": "C" 
			},
			{
				"x": -2.1282633961,
				"y": 4.1279631646,
				"z": 1.2053727367,
				"element": "H" 
			},
			{
				"x": -2.2067002402,
				"y": 2.4193461386,
				"z": 1.6671101014,
				"element": "H" 
			},
			{
				"x": -0.6303359508,
				"y": 3.1826008654,
				"z": 1.3570307039,
				"element": "H" 
			},
			{
				"x": -3.3398790175,
				"y": 2.3645431687,
				"z": -1.9061634226,
				"element": "H" 
			},
			{
				"x": -3.799697602,
				"y": 1.9587198066,
				"z": -0.240650287,
				"element": "H" 
			},
			{
				"x": -3.7354535807,
				"y": 3.6561506166,
				"z": -0.7551717194,
				"element": "H" 
			},
			{
				"x": -1.0822647111,
				"y": 3.3914266336,
				"z": -2.3882561166,
				"element": "H" 
			},
			{
				"x": 0.0382792718,
				"y": 3.7646404946,
				"z": -1.0585219344,
				"element": "H" 
			},
			{
				"x": -1.443247477,
				"y": 4.7222885716,
				"z": -1.2760156047,
				"element": "H" 
			},
			{
				"x": -1.6023056545,
				"y": -1.3970242478,
				"z": -0.3208489368,
				"element": "H" 
			},
			{
				"x": -1.4601765451,
				"y": -0.6990433584,
				"z": -1.9328577448,
				"element": "H" 
			},
			{
				"x": 0.375873054,
				"y": -2.2307081093,
				"z": -2.5144376048,
				"element": "H" 
			},
			{
				"x": -1.0357888462,
				"y": -3.1475141083,
				"z": -2.0094662751,
				"element": "H" 
			},
			{
				"x": -0.7848250959,
				"y": -4.776009974,
				"z": -0.6295633238,
				"element": "H" 
			},
			{
				"x": -0.8362936042,
				"y": -3.8088182786,
				"z": 0.8518977799,
				"element": "H" 
			},
			{
				"x": 1.3982126276,
				"y": -4.7286220142,
				"z": 1.5293653573,
				"element": "H" 
			},
			{
				"x": 0.2185700162,
				"y": -6.0009124854,
				"z": 1.2903725843,
				"element": "H" 
			},
			{
				"x": 1.7063404136,
				"y": -4.3759522993,
				"z": -1.238409927,
				"element": "H" 
			},
			{
				"x": 0.7169699728,
				"y": -2.1313904334,
				"z": 1.2042997075,
				"element": "H" 
			},
			{
				"x": 2.2578869885,
				"y": -2.6787530924,
				"z": 0.5214584605,
				"element": "H" 
			},
			{
				"x": 1.99103764,
				"y": -0.2139798583,
				"z": 0.3240970499,
				"element": "H" 
			},
			{
				"x": 2.0940927294,
				"y": -0.9601163137,
				"z": -1.2700419687,
				"element": "H" 
			}
		],
		 "valence_orbital": [ 
			{
				"type": "occ",
				"energy": -0.2899,
				"method": "rhf"
			},
			{
				"type": "occ",
				"energy": -0.26951,
				"method": "rhf"
			},
			{
				"type": "occ",
				"energy": -0.25343,
				"method": "rhf"
			},
			{
				"type": "occ",
				"energy": -0.24935,
				"method": "rhf"
			},
			{
				"type": "occ",
				"energy": -0.24758,
				"method": "rhf"
			},
			{
				"type": "unocc",
				"energy": 0.02562,
				"method": "rhf"
			},
			{
				"type": "unocc",
				"energy": 0.04397,
				"method": "rhf"
			},
			{
				"type": "unocc",
				"energy": 0.05707,
				"method": "rhf"
			},
			{
				"type": "unocc",
				"energy": 0.08106,
				"method": "rhf"
			},
			{
				"type": "unocc",
				"energy": 0.08348,
				"method": "rhf"
			}
		],
		"cosmo_sigma_profile": { 
			"-0.025": 0.0,
			"-0.024": 0.0,
			"-0.023": 0.0,
			"-0.022": 0.0,
			"-0.021": 0.0,
			"-0.02": 0.0,
			"-0.019": 0.0,
			"-0.018": 0.0,
			"-0.017": 0.0,
			"-0.016": 0.0,
			"-0.015": 0.0,
			"-0.014": 0.0,
			"-0.013": 0.0,
			"-0.012": 0.0,
			"-0.011": 0.0,
			"-0.01": 0.0,
			"-0.009": 0.0,
			"-0.008": 0.0440710839036,
			"-0.007": 3.78363826257,
			"-0.006": 12.4708873288,
			"-0.005": 28.3335730293,
			"-0.004": 48.5680135456,
			"-0.003": 39.6969896185,
			"-0.002": 27.8155589144,
			"-0.001": 22.3611716051,
			"0.0": 27.7008431079,
			"0.001": 23.9867268334,
			"0.002": 8.91879970233,
			"0.003": 6.77916772068,
			"0.004": 6.20932936465,
			"0.005": 5.47210119463,
			"0.006": 5.19850400639,
			"0.007": 4.36315288405,
			"0.008": 4.69206052859,
			"0.009": 3.55573192672,
			"0.01": 3.8668900814,
			"0.011": 5.76868365806,
			"0.012": 8.5960918275,
			"0.013": 8.89555535987,
			"0.014": 4.63070225607,
			"0.015": 0.248146923424,
			"0.016": 0.0,
			"0.017": 0.0,
			"0.018": 0.0,
			"0.019": 0.0,
			"0.02": 0.0,
			"0.021": 0.0,
			"0.022": 0.0,
			"0.023": 0.0,
			"0.024": 0.0,
			"0.025": 0.0
		}
	}
}
