{
	 "smiles": "ClC1=CC=C2OC=C(C=O)C(=O)C2=C1", 
	 "Tm": 438.15, 
	 "num_atms": 19, 
	 "gaussian": { 
		 "optdone": 1, 
		 "sigma_profile": "yes", 
		 "theory": "DFT", 
		 "functional": "B3LYP", 
		 "basiset": "6-31G**", 
		 "properties": { 
			 "R2extent": 4685.62, 
			 "electric_dipole_moment_norm": 6.39967187128, 
			 "electric_quadrupole_moment_norm": 12.5296431306, 
			 "total_energy": -1069.91105218, 
			 "HOMO_LUMO_gap": 0.16677, 
			 "cosmo_polarized_energy": -18.48, 
			 "cosmo_cavitation_energy": 26.6, 
			 "cosmo_dispersion_energy": -19.72, 
			 "cosmo_repulsion_energy": 1.52, 
			 "cosmo_total_nonelectrostatic_energy": 8.39, 
			 "SMD_solvation_energy": 6.61 
		},
		"coords": [
			{
				"x": -0.8218463356,
				"y": 0.9082638818,
				"z": 4.9390842585,
				"element": "Cl" 
			},
			{
				"x": -0.0538011267,
				"y": 0.0588595715,
				"z": 3.6117043035,
				"element": "C" 
			},
			{
				"x": 1.3238393344,
				"y": -0.2036196275,
				"z": 3.6788536464,
				"element": "C" 
			},
			{
				"x": 1.9484631104,
				"y": -0.8752078799,
				"z": 2.636706762,
				"element": "C" 
			},
			{
				"x": 1.1851092239,
				"y": -1.2763015401,
				"z": 1.538723579,
				"element": "C" 
			},
			{
				"x": 1.8511476734,
				"y": -1.9401940463,
				"z": 0.529004173,
				"element": "O" 
			},
			{
				"x": 1.1536794365,
				"y": -2.3416423928,
				"z": -0.5415111683,
				"element": "C" 
			},
			{
				"x": -0.1775065743,
				"y": -2.1584146773,
				"z": -0.742922425,
				"element": "C" 
			},
			{
				"x": -0.7280117334,
				"y": -2.6931827063,
				"z": -2.0102955836,
				"element": "C" 
			},
			{
				"x": -1.881518347,
				"y": -2.6315270609,
				"z": -2.372556673,
				"element": "O" 
			},
			{
				"x": -0.9864409954,
				"y": -1.4568593726,
				"z": 0.2794827421,
				"element": "C" 
			},
			{
				"x": -2.1857607678,
				"y": -1.240899458,
				"z": 0.195653059,
				"element": "O" 
			},
			{
				"x": -0.1878635092,
				"y": -1.0204302196,
				"z": 1.4606794594,
				"element": "C" 
			},
			{
				"x": -0.8080505302,
				"y": -0.3409976163,
				"z": 2.5197990374,
				"element": "C" 
			},
			{
				"x": 1.8932974347,
				"y": 0.118835291,
				"z": 4.5431346136,
				"element": "H" 
			},
			{
				"x": 3.0106827817,
				"y": -1.0925771234,
				"z": 2.6594031956,
				"element": "H" 
			},
			{
				"x": 1.7941243477,
				"y": -2.8489768905,
				"z": -1.2577476364,
				"element": "H" 
			},
			{
				"x": 0.0448992344,
				"y": -3.1877362615,
				"z": -2.6466907142,
				"element": "H" 
			},
			{
				"x": -1.8724426576,
				"y": -0.1470918715,
				"z": 2.4505953709,
				"element": "H" 
			}
		],
		 "valence_orbital": [ 
			{
				"type": "occ",
				"energy": -0.29295,
				"method": "rhf"
			},
			{
				"type": "occ",
				"energy": -0.28868,
				"method": "rhf"
			},
			{
				"type": "occ",
				"energy": -0.27724,
				"method": "rhf"
			},
			{
				"type": "occ",
				"energy": -0.25765,
				"method": "rhf"
			},
			{
				"type": "occ",
				"energy": -0.24519,
				"method": "rhf"
			},
			{
				"type": "unocc",
				"energy": -0.07842,
				"method": "rhf"
			},
			{
				"type": "unocc",
				"energy": -0.0696,
				"method": "rhf"
			},
			{
				"type": "unocc",
				"energy": -0.02803,
				"method": "rhf"
			},
			{
				"type": "unocc",
				"energy": -0.00121,
				"method": "rhf"
			},
			{
				"type": "unocc",
				"energy": 0.01514,
				"method": "rhf"
			}
		],
		"cosmo_sigma_profile": { 
			"-0.025": 0.0,
			"-0.024": 0.0,
			"-0.023": 0.0,
			"-0.022": 0.0,
			"-0.021": 0.0,
			"-0.02": 0.0,
			"-0.019": 0.0,
			"-0.018": 0.0,
			"-0.017": 0.0,
			"-0.016": 0.0,
			"-0.015": 0.0,
			"-0.014": 0.0,
			"-0.013": 0.0,
			"-0.012": 1.78304632361,
			"-0.011": 3.59992010904,
			"-0.01": 2.44414835291,
			"-0.009": 4.10252532133,
			"-0.008": 6.96725679749,
			"-0.007": 8.99638878976,
			"-0.006": 9.69874754381,
			"-0.005": 10.9667785185,
			"-0.004": 13.367825313,
			"-0.003": 14.2026460012,
			"-0.002": 16.0068646953,
			"-0.001": 17.8505255663,
			"0.0": 21.3510424037,
			"0.001": 15.6131159488,
			"0.002": 9.86579332787,
			"0.003": 10.1749925169,
			"0.004": 12.7455514994,
			"0.005": 3.66936839377,
			"0.006": 2.69668535838,
			"0.007": 2.17976873018,
			"0.008": 2.12643666346,
			"0.009": 3.45240495945,
			"0.01": 4.35294351578,
			"0.011": 6.60377955621,
			"0.012": 6.57061028251,
			"0.013": 2.09768247597,
			"0.014": 1.57916985262,
			"0.015": 1.55124697041,
			"0.016": 0.793781663899,
			"0.017": 0.31630860955,
			"0.018": 0.0,
			"0.019": 0.0,
			"0.02": 0.0,
			"0.021": 0.0,
			"0.022": 0.0,
			"0.023": 0.0,
			"0.024": 0.0,
			"0.025": 0.0
		}
	}
}
