{
	 "smiles": "NC1=CC(=CC=C1)C(=O)N1CCCC(CO)C1", 
	 "Tm": 389.15, 
	 "num_atms": 35, 
	 "gaussian": { 
		 "optdone": 1, 
		 "sigma_profile": "yes", 
		 "theory": "DFT", 
		 "functional": "B3LYP", 
		 "basiset": "6-31G**", 
		 "properties": { 
			 "R2extent": 5570.7108, 
			 "electric_dipole_moment_norm": 5.19911426495, 
			 "electric_quadrupole_moment_norm": 19.6859391051, 
			 "total_energy": -766.188830678, 
			 "HOMO_LUMO_gap": 0.18597, 
			 "cosmo_polarized_energy": -20.91, 
			 "cosmo_cavitation_energy": 36.32, 
			 "cosmo_dispersion_energy": -26.08, 
			 "cosmo_repulsion_energy": 2.06, 
			 "cosmo_total_nonelectrostatic_energy": 12.29, 
			 "SMD_solvation_energy": 5.41 
		},
		"coords": [
			{
				"x": 0.1716038208,
				"y": -3.7927300384,
				"z": -2.9055733044,
				"element": "N" 
			},
			{
				"x": -0.7548148785,
				"y": -2.8363169363,
				"z": -2.4806137226,
				"element": "C" 
			},
			{
				"x": -0.3970565907,
				"y": -1.8712247065,
				"z": -1.5243484706,
				"element": "C" 
			},
			{
				"x": -1.338720123,
				"y": -0.9585069623,
				"z": -1.0381738118,
				"element": "C" 
			},
			{
				"x": -2.6619656812,
				"y": -1.0097524199,
				"z": -1.4961307276,
				"element": "C" 
			},
			{
				"x": -3.0153954519,
				"y": -1.9514112095,
				"z": -2.4602489194,
				"element": "C" 
			},
			{
				"x": -2.0775442699,
				"y": -2.8568936383,
				"z": -2.9535296755,
				"element": "C" 
			},
			{
				"x": -1.0176165201,
				"y": 0.0241575815,
				"z": 0.0586745632,
				"element": "C" 
			},
			{
				"x": -1.8076629984,
				"y": 0.183158322,
				"z": 0.9894196674,
				"element": "O" 
			},
			{
				"x": 0.1767473245,
				"y": 0.7055384022,
				"z": 0.0167879742,
				"element": "N" 
			},
			{
				"x": 0.9841341947,
				"y": 0.9100631905,
				"z": -1.1957328514,
				"element": "C" 
			},
			{
				"x": 1.4186809638,
				"y": 2.3755548798,
				"z": -1.3008258136,
				"element": "C" 
			},
			{
				"x": 2.2948373768,
				"y": 2.7962558899,
				"z": -0.1015548762,
				"element": "C" 
			},
			{
				"x": 1.9357422038,
				"y": 1.9977286828,
				"z": 1.1761370638,
				"element": "C" 
			},
			{
				"x": 2.2886528804,
				"y": 2.7702036991,
				"z": 2.4471678611,
				"element": "C" 
			},
			{
				"x": 1.5157563976,
				"y": 3.96496271,
				"z": 2.4847107224,
				"element": "O" 
			},
			{
				"x": 0.460749168,
				"y": 1.5774447657,
				"z": 1.1705985319,
				"element": "C" 
			},
			{
				"x": -0.0272389023,
				"y": -4.2122987496,
				"z": -3.803321639,
				"element": "H" 
			},
			{
				"x": 1.1408316491,
				"y": -3.5173957746,
				"z": -2.8265594264,
				"element": "H" 
			},
			{
				"x": 0.6190663136,
				"y": -1.8588240203,
				"z": -1.139004115,
				"element": "H" 
			},
			{
				"x": -3.3912122278,
				"y": -0.3224432683,
				"z": -1.0828199837,
				"element": "H" 
			},
			{
				"x": -4.0356744333,
				"y": -1.9882128852,
				"z": -2.8319857018,
				"element": "H" 
			},
			{
				"x": -2.3687401077,
				"y": -3.5951422723,
				"z": -3.6970079092,
				"element": "H" 
			},
			{
				"x": 0.3924201517,
				"y": 0.6224137227,
				"z": -2.0656563722,
				"element": "H" 
			},
			{
				"x": 1.8756784759,
				"y": 0.2641351847,
				"z": -1.1855283034,
				"element": "H" 
			},
			{
				"x": 0.517970509,
				"y": 2.9983381373,
				"z": -1.3480676996,
				"element": "H" 
			},
			{
				"x": 1.9544625162,
				"y": 2.5263537811,
				"z": -2.2445215674,
				"element": "H" 
			},
			{
				"x": 3.3555923753,
				"y": 2.6423212293,
				"z": -0.3340091658,
				"element": "H" 
			},
			{
				"x": 2.1614314971,
				"y": 3.864182246,
				"z": 0.0943986137,
				"element": "H" 
			},
			{
				"x": 2.5372909492,
				"y": 1.0780832115,
				"z": 1.2018862072,
				"element": "H" 
			},
			{
				"x": 3.3678048477,
				"y": 2.9963010166,
				"z": 2.4445572921,
				"element": "H" 
			},
			{
				"x": 2.0849285918,
				"y": 2.1389380518,
				"z": 3.3267812433,
				"element": "H" 
			},
			{
				"x": 1.7178689397,
				"y": 4.4324111011,
				"z": 3.3037993948,
				"element": "H" 
			},
			{
				"x": 0.2065172556,
				"y": 1.0218888787,
				"z": 2.0769115056,
				"element": "H" 
			},
			{
				"x": -0.1873262178,
				"y": 2.4623181972,
				"z": 1.159783416,
				"element": "H" 
			}
		],
		 "valence_orbital": [ 
			{
				"type": "occ",
				"energy": -0.2701,
				"method": "rhf"
			},
			{
				"type": "occ",
				"energy": -0.24803,
				"method": "rhf"
			},
			{
				"type": "occ",
				"energy": -0.2329,
				"method": "rhf"
			},
			{
				"type": "occ",
				"energy": -0.22111,
				"method": "rhf"
			},
			{
				"type": "occ",
				"energy": -0.20082,
				"method": "rhf"
			},
			{
				"type": "unocc",
				"energy": -0.01485,
				"method": "rhf"
			},
			{
				"type": "unocc",
				"energy": 0.01618,
				"method": "rhf"
			},
			{
				"type": "unocc",
				"energy": 0.0634,
				"method": "rhf"
			},
			{
				"type": "unocc",
				"energy": 0.06627,
				"method": "rhf"
			},
			{
				"type": "unocc",
				"energy": 0.08107,
				"method": "rhf"
			}
		],
		"cosmo_sigma_profile": { 
			"-0.025": 0.0,
			"-0.024": 0.0,
			"-0.023": 0.0,
			"-0.022": 0.0,
			"-0.021": 0.0,
			"-0.02": 0.0,
			"-0.019": 0.0,
			"-0.018": 0.0,
			"-0.017": 0.0,
			"-0.016": 0.467416851584,
			"-0.015": 1.22940085634,
			"-0.014": 0.876023099518,
			"-0.013": 0.960441255576,
			"-0.012": 3.18141859894,
			"-0.011": 4.43793199156,
			"-0.01": 3.72637986123,
			"-0.009": 4.16619385009,
			"-0.008": 3.3188578928,
			"-0.007": 3.78282982506,
			"-0.006": 6.35005669274,
			"-0.005": 9.44300086211,
			"-0.004": 19.8348476932,
			"-0.003": 37.9017775813,
			"-0.002": 35.1280375393,
			"-0.001": 24.344676558,
			"0.0": 16.9081180136,
			"0.001": 16.1978782275,
			"0.002": 10.5871357657,
			"0.003": 10.0512977103,
			"0.004": 10.1049060605,
			"0.005": 12.3110925466,
			"0.006": 10.6067105192,
			"0.007": 5.48492607961,
			"0.008": 4.18962377136,
			"0.009": 3.84515139896,
			"0.01": 3.76972613546,
			"0.011": 4.10710013162,
			"0.012": 3.55081404988,
			"0.013": 3.61395621414,
			"0.014": 5.6973287529,
			"0.015": 2.87732997699,
			"0.016": 0.201481380177,
			"0.017": 0.0,
			"0.018": 0.0,
			"0.019": 0.0,
			"0.02": 0.0,
			"0.021": 0.0,
			"0.022": 0.0,
			"0.023": 0.0,
			"0.024": 0.0,
			"0.025": 0.0
		}
	}
}
