{
	 "smiles": "OC(=O)CCC1=C(NC2=C1C=CC=C2)C1=CC=C(F)C=C1", 
	 "Tm": 391.15, 
	 "num_atms": 35, 
	 "gaussian": { 
		 "optdone": 1, 
		 "sigma_profile": "yes", 
		 "theory": "DFT", 
		 "functional": "B3LYP", 
		 "basiset": "6-31G**", 
		 "properties": { 
			 "R2extent": 8033.4758, 
			 "electric_dipole_moment_norm": 4.95515157084, 
			 "electric_quadrupole_moment_norm": 10.7750913866, 
			 "total_energy": -961.308016958, 
			 "HOMO_LUMO_gap": 0.16606, 
			 "cosmo_polarized_energy": -20.47, 
			 "cosmo_cavitation_energy": 40.19, 
			 "cosmo_dispersion_energy": -27.82, 
			 "cosmo_repulsion_energy": 2.12, 
			 "cosmo_total_nonelectrostatic_energy": 14.49, 
			 "SMD_solvation_energy": 7.65 
		},
		"coords": [
			{
				"x": 3.6134422367,
				"y": 2.7438908002,
				"z": 0.809665917,
				"element": "O" 
			},
			{
				"x": 2.3888906117,
				"y": 2.1916002825,
				"z": 1.0389992197,
				"element": "C" 
			},
			{
				"x": 1.5783543701,
				"y": 2.7834723851,
				"z": 1.7067746792,
				"element": "O" 
			},
			{
				"x": 2.1614677369,
				"y": 0.8281918944,
				"z": 0.4009646519,
				"element": "C" 
			},
			{
				"x": 0.7605229658,
				"y": 0.2613408156,
				"z": 0.6915817701,
				"element": "C" 
			},
			{
				"x": 0.5573018946,
				"y": -1.104987403,
				"z": 0.0991123409,
				"element": "C" 
			},
			{
				"x": -0.1783694263,
				"y": -1.4465061866,
				"z": -1.0227995338,
				"element": "C" 
			},
			{
				"x": 0.029469457,
				"y": -2.7954611524,
				"z": -1.3068075716,
				"element": "N" 
			},
			{
				"x": 0.8490670562,
				"y": -3.3519770566,
				"z": -0.3479690079,
				"element": "C" 
			},
			{
				"x": 1.2156964488,
				"y": -2.3091896718,
				"z": 0.5447400705,
				"element": "C" 
			},
			{
				"x": 2.0731861611,
				"y": -2.608876607,
				"z": 1.619503724,
				"element": "C" 
			},
			{
				"x": 2.5250781458,
				"y": -3.9130084601,
				"z": 1.7801157019,
				"element": "C" 
			},
			{
				"x": 2.1400014612,
				"y": -4.9323019857,
				"z": 0.8852046707,
				"element": "C" 
			},
			{
				"x": 1.297504849,
				"y": -4.6669281835,
				"z": -0.1890612448,
				"element": "C" 
			},
			{
				"x": -1.0430877701,
				"y": -0.6486813227,
				"z": -1.9055554345,
				"element": "C" 
			},
			{
				"x": -0.9725137121,
				"y": -0.8074106809,
				"z": -3.3024989262,
				"element": "C" 
			},
			{
				"x": -1.7965927918,
				"y": -0.0763409502,
				"z": -4.1554485734,
				"element": "C" 
			},
			{
				"x": -2.6956185641,
				"y": 0.8287594194,
				"z": -3.6024380436,
				"element": "C" 
			},
			{
				"x": -3.4931274325,
				"y": 1.5434644905,
				"z": -4.4216918617,
				"element": "F" 
			},
			{
				"x": -2.7984167919,
				"y": 1.0127802837,
				"z": -2.2278719496,
				"element": "C" 
			},
			{
				"x": -1.9773236422,
				"y": 0.2659790216,
				"z": -1.3860311721,
				"element": "C" 
			},
			{
				"x": 4.1475285461,
				"y": 2.1518982929,
				"z": 0.2609420803,
				"element": "H" 
			},
			{
				"x": 2.939396622,
				"y": 0.1396654396,
				"z": 0.7565819298,
				"element": "H" 
			},
			{
				"x": 2.3129319409,
				"y": 0.9186518136,
				"z": -0.6833449934,
				"element": "H" 
			},
			{
				"x": 0.0222511935,
				"y": 0.9697897454,
				"z": 0.3111435648,
				"element": "H" 
			},
			{
				"x": 0.6167555757,
				"y": 0.2336834021,
				"z": 1.7778220338,
				"element": "H" 
			},
			{
				"x": -0.5372455651,
				"y": -3.3182277953,
				"z": -1.9560465736,
				"element": "H" 
			},
			{
				"x": 2.3667171331,
				"y": -1.8367708837,
				"z": 2.3256930363,
				"element": "H" 
			},
			{
				"x": 3.1817751186,
				"y": -4.1559739444,
				"z": 2.610304775,
				"element": "H" 
			},
			{
				"x": 2.5065945085,
				"y": -5.9430784711,
				"z": 1.0379699005,
				"element": "H" 
			},
			{
				"x": 1.0008522513,
				"y": -5.4524905736,
				"z": -0.8784501649,
				"element": "H" 
			},
			{
				"x": -0.2461669594,
				"y": -1.4953393077,
				"z": -3.7254697414,
				"element": "H" 
			},
			{
				"x": -1.7431391436,
				"y": -0.1887496729,
				"z": -5.2329431447,
				"element": "H" 
			},
			{
				"x": -3.5223633584,
				"y": 1.7178671489,
				"z": -1.8341381653,
				"element": "H" 
			},
			{
				"x": -2.0790211273,
				"y": 0.373565074,
				"z": -0.3115539637,
				"element": "H" 
			}
		],
		 "valence_orbital": [ 
			{
				"type": "occ",
				"energy": -0.27069,
				"method": "rhf"
			},
			{
				"type": "occ",
				"energy": -0.2683,
				"method": "rhf"
			},
			{
				"type": "occ",
				"energy": -0.2603,
				"method": "rhf"
			},
			{
				"type": "occ",
				"energy": -0.22083,
				"method": "rhf"
			},
			{
				"type": "occ",
				"energy": -0.20075,
				"method": "rhf"
			},
			{
				"type": "unocc",
				"energy": -0.03469,
				"method": "rhf"
			},
			{
				"type": "unocc",
				"energy": -0.02238,
				"method": "rhf"
			},
			{
				"type": "unocc",
				"energy": 0.0058,
				"method": "rhf"
			},
			{
				"type": "unocc",
				"energy": 0.01279,
				"method": "rhf"
			},
			{
				"type": "unocc",
				"energy": 0.02369,
				"method": "rhf"
			}
		],
		"cosmo_sigma_profile": { 
			"-0.025": 0.0,
			"-0.024": 0.0,
			"-0.023": 0.0,
			"-0.022": 0.0,
			"-0.021": 0.0,
			"-0.02": 0.0,
			"-0.019": 0.560665010189,
			"-0.018": 0.942074889679,
			"-0.017": 1.24019398717,
			"-0.016": 1.21731062325,
			"-0.015": 1.18028192454,
			"-0.014": 1.85080223264,
			"-0.013": 2.43308485194,
			"-0.012": 2.27659422206,
			"-0.011": 2.71847890716,
			"-0.01": 2.29629779262,
			"-0.009": 2.75068944071,
			"-0.008": 3.92390446814,
			"-0.007": 8.89962263737,
			"-0.006": 15.4699191051,
			"-0.005": 20.2569010051,
			"-0.004": 20.4084748435,
			"-0.003": 21.1208953986,
			"-0.002": 18.4190852931,
			"-0.001": 16.5073661818,
			"0.0": 17.7791303633,
			"0.001": 23.1597432749,
			"0.002": 20.428415576,
			"0.003": 24.4450053767,
			"0.004": 27.3860036617,
			"0.005": 16.7474876347,
			"0.006": 12.2752925206,
			"0.007": 9.36099454937,
			"0.008": 3.77677532963,
			"0.009": 2.73421661692,
			"0.01": 4.33786268286,
			"0.011": 5.7336465813,
			"0.012": 5.68214815836,
			"0.013": 2.35193105751,
			"0.014": 0.0962186304466,
			"0.015": 0.0,
			"0.016": 0.0,
			"0.017": 0.0,
			"0.018": 0.0,
			"0.019": 0.0,
			"0.02": 0.0,
			"0.021": 0.0,
			"0.022": 0.0,
			"0.023": 0.0,
			"0.024": 0.0,
			"0.025": 0.0
		}
	}
}
