{
	 "smiles": "CNC1=C(C=NC=C1)[N+]([O-])=O", 
	 "Tm": 431.15, 
	 "num_atms": 18, 
	 "gaussian": { 
		 "optdone": 1, 
		 "sigma_profile": "yes", 
		 "theory": "DFT", 
		 "functional": "B3LYP", 
		 "basiset": "6-31G**", 
		 "properties": { 
			 "R2extent": 1744.8783, 
			 "electric_dipole_moment_norm": 5.33618398858, 
			 "electric_quadrupole_moment_norm": 4.81384530599, 
			 "total_energy": -547.458729862, 
			 "HOMO_LUMO_gap": 0.15119, 
			 "cosmo_polarized_energy": -11.66, 
			 "cosmo_cavitation_energy": 22.28, 
			 "cosmo_dispersion_energy": -16.87, 
			 "cosmo_repulsion_energy": 1.34, 
			 "cosmo_total_nonelectrostatic_energy": 6.75, 
			 "SMD_solvation_energy": 4.0 
		},
		"coords": [
			{
				"x": 0.9969449033,
				"y": 2.5087384105,
				"z": -0.3455645548,
				"element": "C" 
			},
			{
				"x": 0.5487862386,
				"y": 1.2445962922,
				"z": 0.202968944,
				"element": "N" 
			},
			{
				"x": 0.0865171736,
				"y": 0.2152276716,
				"z": -0.5361321949,
				"element": "C" 
			},
			{
				"x": -0.3508948747,
				"y": -1.0268167052,
				"z": 0.0197320188,
				"element": "C" 
			},
			{
				"x": -0.8185469593,
				"y": -2.0475572575,
				"z": -0.8220789382,
				"element": "C" 
			},
			{
				"x": -0.8924630591,
				"y": -1.954905685,
				"z": -2.1435680529,
				"element": "N" 
			},
			{
				"x": -0.4804169277,
				"y": -0.7840455183,
				"z": -2.6749191873,
				"element": "C" 
			},
			{
				"x": -0.0018980951,
				"y": 0.2899668502,
				"z": -1.9512613102,
				"element": "C" 
			},
			{
				"x": -0.3358708996,
				"y": -1.2924776509,
				"z": 1.441096205,
				"element": "N" 
			},
			{
				"x": 0.0742123532,
				"y": -0.4005622461,
				"z": 2.2114868895,
				"element": "O" 
			},
			{
				"x": -0.7272628787,
				"y": -2.3868860447,
				"z": 1.8428447928,
				"element": "O" 
			},
			{
				"x": 0.1958469205,
				"y": 3.0260787834,
				"z": -0.8879804394,
				"element": "H" 
			},
			{
				"x": 1.3149267221,
				"y": 3.1464509843,
				"z": 0.4803933139,
				"element": "H" 
			},
			{
				"x": 1.8481162257,
				"y": 2.3804934137,
				"z": -1.0257432133,
				"element": "H" 
			},
			{
				"x": 0.5669171253,
				"y": 1.0785908437,
				"z": 1.2022762005,
				"element": "H" 
			},
			{
				"x": -1.1420392502,
				"y": -2.9762377876,
				"z": -0.3627858331,
				"element": "H" 
			},
			{
				"x": -0.5418351207,
				"y": -0.7101193034,
				"z": -3.7591551441,
				"element": "H" 
			},
			{
				"x": 0.3062604028,
				"y": 1.1911649491,
				"z": -2.4668094964,
				"element": "H" 
			}
		],
		 "valence_orbital": [ 
			{
				"type": "occ",
				"energy": -0.31106,
				"method": "rhf"
			},
			{
				"type": "occ",
				"energy": -0.2934,
				"method": "rhf"
			},
			{
				"type": "occ",
				"energy": -0.28417,
				"method": "rhf"
			},
			{
				"type": "occ",
				"energy": -0.2661,
				"method": "rhf"
			},
			{
				"type": "occ",
				"energy": -0.24094,
				"method": "rhf"
			},
			{
				"type": "unocc",
				"energy": -0.08975,
				"method": "rhf"
			},
			{
				"type": "unocc",
				"energy": -0.01905,
				"method": "rhf"
			},
			{
				"type": "unocc",
				"energy": -0.00189,
				"method": "rhf"
			},
			{
				"type": "unocc",
				"energy": 0.07738,
				"method": "rhf"
			},
			{
				"type": "unocc",
				"energy": 0.09358,
				"method": "rhf"
			}
		],
		"cosmo_sigma_profile": { 
			"-0.025": 0.0,
			"-0.024": 0.0,
			"-0.023": 0.0,
			"-0.022": 0.0,
			"-0.021": 0.0,
			"-0.02": 0.0,
			"-0.019": 0.0,
			"-0.018": 0.0,
			"-0.017": 0.0,
			"-0.016": 0.0,
			"-0.015": 0.0,
			"-0.014": 0.0,
			"-0.013": 0.0,
			"-0.012": 0.204466357744,
			"-0.011": 0.713673297753,
			"-0.01": 0.524744067687,
			"-0.009": 1.11951635876,
			"-0.008": 1.90889996488,
			"-0.007": 8.02723751665,
			"-0.006": 12.5152833411,
			"-0.005": 14.8820981135,
			"-0.004": 13.3482276858,
			"-0.003": 16.0895346367,
			"-0.002": 14.8157596936,
			"-0.001": 15.0053585278,
			"0.0": 12.5534691258,
			"0.001": 11.0554092087,
			"0.002": 8.96095211464,
			"0.003": 3.89688763736,
			"0.004": 3.92652734375,
			"0.005": 4.03360189673,
			"0.006": 4.04988880211,
			"0.007": 6.2984186242,
			"0.008": 7.73642465077,
			"0.009": 4.83791215807,
			"0.01": 4.84473739307,
			"0.011": 2.29221999525,
			"0.012": 1.31371548943,
			"0.013": 0.549309847704,
			"0.014": 1.1116003628,
			"0.015": 0.847303678926,
			"0.016": 0.77320711829,
			"0.017": 0.167054550413,
			"0.018": 0.0,
			"0.019": 0.0,
			"0.02": 0.0,
			"0.021": 0.0,
			"0.022": 0.0,
			"0.023": 0.0,
			"0.024": 0.0,
			"0.025": 0.0
		}
	}
}
