{
	 "smiles": "CC(O)C1=NC2=C(S1)C=CC=C2", 
	 "Tm": 335.15, 
	 "num_atms": 21, 
	 "gaussian": { 
		 "optdone": 1, 
		 "sigma_profile": "yes", 
		 "theory": "DFT", 
		 "functional": "B3LYP", 
		 "basiset": "6-31G**", 
		 "properties": { 
			 "R2extent": 2667.4012, 
			 "electric_dipole_moment_norm": 2.53665917695, 
			 "electric_quadrupole_moment_norm": 8.83251141862, 
			 "total_energy": -876.550988243, 
			 "HOMO_LUMO_gap": 0.20203, 
			 "cosmo_polarized_energy": -7.32, 
			 "cosmo_cavitation_energy": 25.92, 
			 "cosmo_dispersion_energy": -19.97, 
			 "cosmo_repulsion_energy": 1.54, 
			 "cosmo_total_nonelectrostatic_energy": 7.5, 
			 "SMD_solvation_energy": 2.62 
		},
		"coords": [
			{
				"x": 3.0879998005,
				"y": 0.7621048998,
				"z": -1.4347362261,
				"element": "C" 
			},
			{
				"x": 2.3470438368,
				"y": 1.5680391249,
				"z": -0.3638080768,
				"element": "C" 
			},
			{
				"x": 3.2147224692,
				"y": 1.8088112125,
				"z": 0.722363553,
				"element": "O" 
			},
			{
				"x": 1.0896647036,
				"y": 0.8780230352,
				"z": 0.1273055988,
				"element": "C" 
			},
			{
				"x": 0.8634944043,
				"y": 0.7121405988,
				"z": 1.3901023864,
				"element": "N" 
			},
			{
				"x": -0.3598166331,
				"y": 0.0953997662,
				"z": 1.6167404308,
				"element": "C" 
			},
			{
				"x": -1.0959006019,
				"y": -0.2137114537,
				"z": 0.4484443277,
				"element": "C" 
			},
			{
				"x": -0.1826726901,
				"y": 0.2973937559,
				"z": -0.9624645427,
				"element": "S" 
			},
			{
				"x": -2.3443925127,
				"y": -0.8359294352,
				"z": 0.517085225,
				"element": "C" 
			},
			{
				"x": -2.8523581496,
				"y": -1.1450566657,
				"z": 1.776792175,
				"element": "C" 
			},
			{
				"x": -2.1307215568,
				"y": -0.8422166641,
				"z": 2.9442741784,
				"element": "C" 
			},
			{
				"x": -0.8874178512,
				"y": -0.2244479019,
				"z": 2.8751659629,
				"element": "C" 
			},
			{
				"x": 3.9985548422,
				"y": 1.297391764,
				"z": -1.7155700202,
				"element": "H" 
			},
			{
				"x": 3.3688500269,
				"y": -0.2192575005,
				"z": -1.0426911419,
				"element": "H" 
			},
			{
				"x": 2.4753268397,
				"y": 0.6266799833,
				"z": -2.3320660784,
				"element": "H" 
			},
			{
				"x": 2.0310159643,
				"y": 2.528773377,
				"z": -0.8090138045,
				"element": "H" 
			},
			{
				"x": 2.7055145409,
				"y": 1.6248900525,
				"z": 1.5295373812,
				"element": "H" 
			},
			{
				"x": -2.9050531399,
				"y": -1.07245377,
				"z": -0.3814482853,
				"element": "H" 
			},
			{
				"x": -3.8217013912,
				"y": -1.6279752996,
				"z": 1.8553964825,
				"element": "H" 
			},
			{
				"x": -2.5514779144,
				"y": -1.0950711839,
				"z": 3.9126665998,
				"element": "H" 
			},
			{
				"x": -0.3186749876,
				"y": 0.0147723045,
				"z": 3.7676238744,
				"element": "H" 
			}
		],
		 "valence_orbital": [ 
			{
				"type": "occ",
				"energy": -0.30992,
				"method": "rhf"
			},
			{
				"type": "occ",
				"energy": -0.29214,
				"method": "rhf"
			},
			{
				"type": "occ",
				"energy": -0.26812,
				"method": "rhf"
			},
			{
				"type": "occ",
				"energy": -0.24326,
				"method": "rhf"
			},
			{
				"type": "occ",
				"energy": -0.2421,
				"method": "rhf"
			},
			{
				"type": "unocc",
				"energy": -0.04007,
				"method": "rhf"
			},
			{
				"type": "unocc",
				"energy": -0.01254,
				"method": "rhf"
			},
			{
				"type": "unocc",
				"energy": 0.00383,
				"method": "rhf"
			},
			{
				"type": "unocc",
				"energy": 0.02667,
				"method": "rhf"
			},
			{
				"type": "unocc",
				"energy": 0.081,
				"method": "rhf"
			}
		],
		"cosmo_sigma_profile": { 
			"-0.025": 0.0,
			"-0.024": 0.0,
			"-0.023": 0.0,
			"-0.022": 0.0,
			"-0.021": 0.0,
			"-0.02": 0.0,
			"-0.019": 0.0,
			"-0.018": 0.0,
			"-0.017": 0.0,
			"-0.016": 0.0,
			"-0.015": 0.0,
			"-0.014": 0.0,
			"-0.013": 0.0,
			"-0.012": 0.0,
			"-0.011": 0.0,
			"-0.01": 0.298299853643,
			"-0.009": 0.58522842678,
			"-0.008": 0.620613824098,
			"-0.007": 4.75876786366,
			"-0.006": 11.8445617008,
			"-0.005": 15.7608808536,
			"-0.004": 17.1924530837,
			"-0.003": 14.5302234946,
			"-0.002": 16.3421527315,
			"-0.001": 18.584880479,
			"0.0": 17.8126038209,
			"0.001": 16.4365012457,
			"0.002": 18.4670794458,
			"0.003": 16.599313806,
			"0.004": 14.8667210552,
			"0.005": 7.30850040329,
			"0.006": 3.0375474805,
			"0.007": 3.50699113182,
			"0.008": 2.20361529384,
			"0.009": 0.35357668874,
			"0.01": 0.747543140387,
			"0.011": 1.66219603328,
			"0.012": 1.87976885638,
			"0.013": 1.77518497259,
			"0.014": 1.53174034947,
			"0.015": 0.124019804623,
			"0.016": 0.0,
			"0.017": 0.0,
			"0.018": 0.0,
			"0.019": 0.0,
			"0.02": 0.0,
			"0.021": 0.0,
			"0.022": 0.0,
			"0.023": 0.0,
			"0.024": 0.0,
			"0.025": 0.0
		}
	}
}
