{
	 "smiles": "CC(C)OC(=O)CC(N)=S", 
	 "Tm": 342.15, 
	 "num_atms": 21, 
	 "gaussian": { 
		 "optdone": 1, 
		 "sigma_profile": "yes", 
		 "theory": "DFT", 
		 "functional": "B3LYP", 
		 "basiset": "6-31G**", 
		 "properties": { 
			 "R2extent": 3136.6062, 
			 "electric_dipole_moment_norm": 5.10273520673, 
			 "electric_quadrupole_moment_norm": 19.0522241392, 
			 "total_energy": -838.690196862, 
			 "HOMO_LUMO_gap": 0.17702, 
			 "cosmo_polarized_energy": -13.83, 
			 "cosmo_cavitation_energy": 26.32, 
			 "cosmo_dispersion_energy": -19.55, 
			 "cosmo_repulsion_energy": 1.59, 
			 "cosmo_total_nonelectrostatic_energy": 8.37, 
			 "SMD_solvation_energy": 4.55 
		},
		"coords": [
			{
				"x": -1.1402122111,
				"y": -1.6211878618,
				"z": -2.9942049227,
				"element": "C" 
			},
			{
				"x": -0.7311880371,
				"y": -0.5431778455,
				"z": -2.0020443059,
				"element": "C" 
			},
			{
				"x": -1.8380116072,
				"y": 0.4562055918,
				"z": -1.6866967669,
				"element": "C" 
			},
			{
				"x": -0.3614425448,
				"y": -1.2548029462,
				"z": -0.7736744815,
				"element": "O" 
			},
			{
				"x": 0.5209070696,
				"y": -0.6714125948,
				"z": 0.0435689956,
				"element": "C" 
			},
			{
				"x": 1.0452521074,
				"y": 0.4098816678,
				"z": -0.1760073466,
				"element": "O" 
			},
			{
				"x": 0.741412329,
				"y": -1.5157708545,
				"z": 1.2900427979,
				"element": "C" 
			},
			{
				"x": 2.1378297918,
				"y": -1.498355907,
				"z": 1.9093971722,
				"element": "C" 
			},
			{
				"x": 2.815191287,
				"y": -0.3512188691,
				"z": 1.7748735944,
				"element": "N" 
			},
			{
				"x": 2.7014686875,
				"y": -2.8169943524,
				"z": 2.7565583705,
				"element": "S" 
			},
			{
				"x": -1.4050670867,
				"y": -1.1632777195,
				"z": -3.9520741921,
				"element": "H" 
			},
			{
				"x": -2.0075096678,
				"y": -2.1789284792,
				"z": -2.6275372935,
				"element": "H" 
			},
			{
				"x": -0.3220328886,
				"y": -2.3263034654,
				"z": -3.1635773266,
				"element": "H" 
			},
			{
				"x": 0.1610233244,
				"y": -0.013750244,
				"z": -2.3470271459,
				"element": "H" 
			},
			{
				"x": -2.7145224353,
				"y": -0.0553659846,
				"z": -1.2765520592,
				"element": "H" 
			},
			{
				"x": -1.4926288404,
				"y": 1.2035811847,
				"z": -0.9683982785,
				"element": "H" 
			},
			{
				"x": -2.1407173683,
				"y": 0.9773838379,
				"z": -2.6004362601,
				"element": "H" 
			},
			{
				"x": 0.046323493,
				"y": -1.1313540606,
				"z": 2.0502838613,
				"element": "H" 
			},
			{
				"x": 0.4505490928,
				"y": -2.5468240236,
				"z": 1.0972841719,
				"element": "H" 
			},
			{
				"x": 2.4582105319,
				"y": 0.3741512954,
				"z": 1.1582638659,
				"element": "H" 
			},
			{
				"x": 3.745364973,
				"y": -0.2958783693,
				"z": 2.1635575498,
				"element": "H" 
			}
		],
		 "valence_orbital": [ 
			{
				"type": "occ",
				"energy": -0.34843,
				"method": "rhf"
			},
			{
				"type": "occ",
				"energy": -0.31768,
				"method": "rhf"
			},
			{
				"type": "occ",
				"energy": -0.29595,
				"method": "rhf"
			},
			{
				"type": "occ",
				"energy": -0.22615,
				"method": "rhf"
			},
			{
				"type": "occ",
				"energy": -0.20479,
				"method": "rhf"
			},
			{
				"type": "unocc",
				"energy": -0.02777,
				"method": "rhf"
			},
			{
				"type": "unocc",
				"energy": -0.0103,
				"method": "rhf"
			},
			{
				"type": "unocc",
				"energy": 0.07948,
				"method": "rhf"
			},
			{
				"type": "unocc",
				"energy": 0.08452,
				"method": "rhf"
			},
			{
				"type": "unocc",
				"energy": 0.09871,
				"method": "rhf"
			}
		],
		"cosmo_sigma_profile": { 
			"-0.025": 0.0,
			"-0.024": 0.0,
			"-0.023": 0.0,
			"-0.022": 0.0,
			"-0.021": 0.0,
			"-0.02": 0.0,
			"-0.019": 0.0,
			"-0.018": 0.0,
			"-0.017": 0.0,
			"-0.016": 0.0,
			"-0.015": 0.735403877244,
			"-0.014": 1.23492654951,
			"-0.013": 1.04566376855,
			"-0.012": 1.01736872038,
			"-0.011": 2.46711326045,
			"-0.01": 2.09473740858,
			"-0.009": 4.46306220321,
			"-0.008": 3.21129095688,
			"-0.007": 3.13985367005,
			"-0.006": 4.98745528391,
			"-0.005": 9.75864560476,
			"-0.004": 21.9710664897,
			"-0.003": 20.2682373068,
			"-0.002": 18.1786057043,
			"-0.001": 18.2028462406,
			"0.0": 20.2967312103,
			"0.001": 9.47113234222,
			"0.002": 4.85504856695,
			"0.003": 7.46091875876,
			"0.004": 5.70858240061,
			"0.005": 5.7054976049,
			"0.006": 6.53412427657,
			"0.007": 6.53856694132,
			"0.008": 6.26960169867,
			"0.009": 8.82424252445,
			"0.01": 6.89939204916,
			"0.011": 4.90446590421,
			"0.012": 2.94567897103,
			"0.013": 0.361261340025,
			"0.014": 0.0,
			"0.015": 0.0,
			"0.016": 0.0,
			"0.017": 0.0,
			"0.018": 0.0,
			"0.019": 0.0,
			"0.02": 0.0,
			"0.021": 0.0,
			"0.022": 0.0,
			"0.023": 0.0,
			"0.024": 0.0,
			"0.025": 0.0
		}
	}
}
