{
	 "smiles": "BrC1=CC(I)=CC=C1", 
	 "Tm": 264.0, 
	 "num_atms": 12, 
	 "gaussian": { 
		 "optdone": 1, 
		 "sigma_profile": "no", 
		 "theory": "DFT", 
		 "functional": "B3LYP", 
		 "basiset": "6-31G**", 
		 "properties": { 
			 "R2extent": 3461.6907, 
			 "electric_dipole_moment_norm": 1.63603573922, 
			 "electric_quadrupole_moment_norm": 4.74671006804, 
			 "total_energy": -2813.83664772, 
			 "HOMO_LUMO_gap": 0.19657, 
			 "cosmo_polarized_energy": -97560.78, 
			 "cosmo_cavitation_energy": 21.71, 
			 "cosmo_dispersion_energy": -18.02, 
			 "cosmo_repulsion_energy": 1.45, 
			 "cosmo_total_nonelectrostatic_energy": 5.15, 
			 "SMD_solvation_energy": 1.71 
		},
		"coords": [
			{
				"x": 1.8101019092,
				"y": 2.0924506912,
				"z": 2.709057398,
				"element": "Br" 
			},
			{
				"x": 1.3854988008,
				"y": 1.8417946746,
				"z": 0.8639719313,
				"element": "C" 
			},
			{
				"x": 0.4703720608,
				"y": 2.7038905963,
				"z": 0.2598068719,
				"element": "C" 
			},
			{
				"x": 0.1677112393,
				"y": 2.5110897109,
				"z": -1.0896351903,
				"element": "C" 
			},
			{
				"x": -1.2202028478,
				"y": 3.8085485398,
				"z": -2.0306019919,
				"element": "I" 
			},
			{
				"x": 0.7606556649,
				"y": 1.4835578333,
				"z": -1.8261227859,
				"element": "C" 
			},
			{
				"x": 1.6725108693,
				"y": 0.6376898043,
				"z": -1.1924467045,
				"element": "C" 
			},
			{
				"x": 1.9932652376,
				"y": 0.8074771029,
				"z": 0.1544831358,
				"element": "C" 
			},
			{
				"x": 0.0106156149,
				"y": 3.5005639567,
				"z": 0.8307201716,
				"element": "H" 
			},
			{
				"x": 0.5181317368,
				"y": 1.3433723937,
				"z": -2.8730392347,
				"element": "H" 
			},
			{
				"x": 2.1387690777,
				"y": -0.1641297983,
				"z": -1.7567550476,
				"element": "H" 
			},
			{
				"x": 2.7012706365,
				"y": 0.1503944948,
				"z": 0.6455614462,
				"element": "H" 
			}
		],
		 "valence_orbital": [ 
			{
				"type": "occ",
				"energy": -0.29964,
				"method": "rhf"
			},
			{
				"type": "occ",
				"energy": -0.29551,
				"method": "rhf"
			},
			{
				"type": "occ",
				"energy": -0.27509,
				"method": "rhf"
			},
			{
				"type": "occ",
				"energy": -0.25983,
				"method": "rhf"
			},
			{
				"type": "occ",
				"energy": -0.24695,
				"method": "rhf"
			},
			{
				"type": "unocc",
				"energy": -0.05038,
				"method": "rhf"
			},
			{
				"type": "unocc",
				"energy": -0.03075,
				"method": "rhf"
			},
			{
				"type": "unocc",
				"energy": -0.02792,
				"method": "rhf"
			},
			{
				"type": "unocc",
				"energy": 0.00655,
				"method": "rhf"
			},
			{
				"type": "unocc",
				"energy": 0.0413,
				"method": "rhf"
			}
		],
		"cosmo_sigma_profile": { 
			"0.0": 0.0,
			"0.0": 0.0,
			"0.0": 0.0,
			"0.0": 0.0,
			"0.0": 0.0,
			"0.0": 0.0,
			"0.0": 0.0,
			"0.0": 0.0,
			"0.0": 0.0,
			"0.0": 0.0,
			"0.0": 0.0,
			"0.0": 0.0,
			"0.0": 0.0,
			"0.0": 0.0,
			"0.0": 0.0,
			"0.0": 0.0,
			"0.0": 0.0,
			"0.0": 0.0,
			"0.0": 0.0,
			"0.0": 0.0,
			"0.0": 0.0,
			"0.0": 0.0,
			"0.0": 0.0,
			"0.0": 0.0,
			"0.0": 0.0,
			"0.0": 0.0,
			"0.0": 0.0,
			"0.0": 0.0,
			"0.0": 0.0,
			"0.0": 0.0,
			"0.0": 0.0,
			"0.0": 0.0,
			"0.0": 0.0,
			"0.0": 0.0,
			"0.0": 0.0,
			"0.0": 0.0,
			"0.0": 0.0,
			"0.0": 0.0,
			"0.0": 0.0,
			"0.0": 0.0,
			"0.0": 0.0,
			"0.0": 0.0,
			"0.0": 0.0,
			"0.0": 0.0,
			"0.0": 0.0,
			"0.0": 0.0,
			"0.0": 0.0,
			"0.0": 0.0,
			"0.0": 0.0,
			"0.0": 0.0,
			"0.0": 0.0
		}
	}
}
