{
	 "smiles": "CNC1CC2=CNC3=CC=CC(C1C=C(C)CO)=C23", 
	 "Tm": 494.15, 
	 "num_atms": 39, 
	 "gaussian": { 
		 "optdone": 1, 
		 "sigma_profile": "yes", 
		 "theory": "DFT", 
		 "functional": "B3LYP", 
		 "basiset": "6-31G**", 
		 "properties": { 
			 "R2extent": 5632.561, 
			 "electric_dipole_moment_norm": 4.78269959437, 
			 "electric_quadrupole_moment_norm": 14.0596966422, 
			 "total_energy": -806.464231902, 
			 "HOMO_LUMO_gap": 0.1891, 
			 "cosmo_polarized_energy": -14.68, 
			 "cosmo_cavitation_energy": 39.0, 
			 "cosmo_dispersion_energy": -27.35, 
			 "cosmo_repulsion_energy": 2.09, 
			 "cosmo_total_nonelectrostatic_energy": 13.74, 
			 "SMD_solvation_energy": 6.29 
		},
		"coords": [
			{
				"x": -2.5956509336,
				"y": 3.0708724537,
				"z": 1.3210658996,
				"element": "C" 
			},
			{
				"x": -2.4814360667,
				"y": 1.6960797289,
				"z": 0.8229949906,
				"element": "N" 
			},
			{
				"x": -1.1486791114,
				"y": 1.0855674898,
				"z": 1.0130073826,
				"element": "C" 
			},
			{
				"x": -1.0158342987,
				"y": 0.5010881956,
				"z": 2.4512407252,
				"element": "C" 
			},
			{
				"x": 0.2756638906,
				"y": -0.2391920661,
				"z": 2.6142903128,
				"element": "C" 
			},
			{
				"x": 1.0941032365,
				"y": -0.5647324262,
				"z": 3.6651763811,
				"element": "C" 
			},
			{
				"x": 2.1569463859,
				"y": -1.3371768728,
				"z": 3.1966288618,
				"element": "N" 
			},
			{
				"x": 2.0341345424,
				"y": -1.5135366347,
				"z": 1.8306840063,
				"element": "C" 
			},
			{
				"x": 2.7999946298,
				"y": -2.1837341475,
				"z": 0.8683543209,
				"element": "C" 
			},
			{
				"x": 2.3435383101,
				"y": -2.1264158189,
				"z": -0.4479750526,
				"element": "C" 
			},
			{
				"x": 1.1754442093,
				"y": -1.4220921944,
				"z": -0.8206044665,
				"element": "C" 
			},
			{
				"x": 0.4115879537,
				"y": -0.7549210921,
				"z": 0.1336050518,
				"element": "C" 
			},
			{
				"x": -0.8583134689,
				"y": 0.0504444271,
				"z": -0.1396422897,
				"element": "C" 
			},
			{
				"x": -0.7570610608,
				"y": 0.7623834932,
				"z": -1.471010431,
				"element": "C" 
			},
			{
				"x": -1.6942501096,
				"y": 0.8778647821,
				"z": -2.424039479,
				"element": "C" 
			},
			{
				"x": -1.457509255,
				"y": 1.6926837823,
				"z": -3.6702026906,
				"element": "C" 
			},
			{
				"x": -3.1032674004,
				"y": 0.3393226006,
				"z": -2.2648781477,
				"element": "C" 
			},
			{
				"x": -3.9475901574,
				"y": 1.319351406,
				"z": -1.6754292641,
				"element": "O" 
			},
			{
				"x": 0.8612269055,
				"y": -0.8258682292,
				"z": 1.4552188669,
				"element": "C" 
			},
			{
				"x": -2.2907920445,
				"y": 3.2019662697,
				"z": 2.3715487626,
				"element": "H" 
			},
			{
				"x": -1.9765947379,
				"y": 3.7294943275,
				"z": 0.7043305346,
				"element": "H" 
			},
			{
				"x": -3.6334573851,
				"y": 3.4028451339,
				"z": 1.2244673717,
				"element": "H" 
			},
			{
				"x": -3.1685005555,
				"y": 1.115487325,
				"z": 1.3013924997,
				"element": "H" 
			},
			{
				"x": -0.4094498716,
				"y": 1.8892888735,
				"z": 0.9065727449,
				"element": "H" 
			},
			{
				"x": -1.8638715967,
				"y": -0.1833919434,
				"z": 2.6153990328,
				"element": "H" 
			},
			{
				"x": -1.1268196988,
				"y": 1.310725663,
				"z": 3.1819733307,
				"element": "H" 
			},
			{
				"x": 1.021974133,
				"y": -0.3253348114,
				"z": 4.717024502,
				"element": "H" 
			},
			{
				"x": 2.9016209449,
				"y": -1.6966210346,
				"z": 3.7706149445,
				"element": "H" 
			},
			{
				"x": 3.7069321748,
				"y": -2.7241957468,
				"z": 1.1234127644,
				"element": "H" 
			},
			{
				"x": 2.9123335703,
				"y": -2.636042889,
				"z": -1.2207329811,
				"element": "H" 
			},
			{
				"x": 0.8792693349,
				"y": -1.3991575302,
				"z": -1.8652643907,
				"element": "H" 
			},
			{
				"x": -1.7102733792,
				"y": -0.6441726492,
				"z": -0.153778346,
				"element": "H" 
			},
			{
				"x": 0.2027209571,
				"y": 1.2551416899,
				"z": -1.635007058,
				"element": "H" 
			},
			{
				"x": -2.2143944249,
				"y": 2.4829608385,
				"z": -3.7461360168,
				"element": "H" 
			},
			{
				"x": -1.5549207604,
				"y": 1.07510903,
				"z": -4.5729599454,
				"element": "H" 
			},
			{
				"x": -0.4672854068,
				"y": 2.1574739368,
				"z": -3.6796936561,
				"element": "H" 
			},
			{
				"x": -3.1020128326,
				"y": -0.5971034407,
				"z": -1.6842779195,
				"element": "H" 
			},
			{
				"x": -3.5322627765,
				"y": 0.1020253853,
				"z": -3.2453575373,
				"element": "H" 
			},
			{
				"x": -3.4724638459,
				"y": 1.5917126948,
				"z": -0.8609136155,
				"element": "H" 
			}
		],
		 "valence_orbital": [ 
			{
				"type": "occ",
				"energy": -0.24011,
				"method": "rhf"
			},
			{
				"type": "occ",
				"energy": -0.23502,
				"method": "rhf"
			},
			{
				"type": "occ",
				"energy": -0.2259,
				"method": "rhf"
			},
			{
				"type": "occ",
				"energy": -0.21628,
				"method": "rhf"
			},
			{
				"type": "occ",
				"energy": -0.19458,
				"method": "rhf"
			},
			{
				"type": "unocc",
				"energy": -0.00548,
				"method": "rhf"
			},
			{
				"type": "unocc",
				"energy": 0.02791,
				"method": "rhf"
			},
			{
				"type": "unocc",
				"energy": 0.03004,
				"method": "rhf"
			},
			{
				"type": "unocc",
				"energy": 0.0621,
				"method": "rhf"
			},
			{
				"type": "unocc",
				"energy": 0.07738,
				"method": "rhf"
			}
		],
		"cosmo_sigma_profile": { 
			"-0.025": 0.0,
			"-0.024": 0.0,
			"-0.023": 0.0,
			"-0.022": 0.0,
			"-0.021": 0.0,
			"-0.02": 0.0,
			"-0.019": 0.0,
			"-0.018": 0.0,
			"-0.017": 0.0,
			"-0.016": 0.0317335585689,
			"-0.015": 1.26089593488,
			"-0.014": 1.62312289511,
			"-0.013": 1.1699191022,
			"-0.012": 0.802697410126,
			"-0.011": 1.20813947739,
			"-0.01": 2.53000045248,
			"-0.009": 2.87581705775,
			"-0.008": 3.83613118733,
			"-0.007": 5.1705246089,
			"-0.006": 5.87592335481,
			"-0.005": 10.0560672273,
			"-0.004": 20.3289313281,
			"-0.003": 37.1098855865,
			"-0.002": 35.4269512809,
			"-0.001": 30.5393380037,
			"0.0": 27.5220124866,
			"0.001": 19.512168334,
			"0.002": 14.3220846014,
			"0.003": 13.60868224,
			"0.004": 12.5024238107,
			"0.005": 16.6747721597,
			"0.006": 15.9209488885,
			"0.007": 9.66828971639,
			"0.008": 4.28329171211,
			"0.009": 1.67278169933,
			"0.01": 0.657401319576,
			"0.011": 1.52448488723,
			"0.012": 1.31715088708,
			"0.013": 1.44865052054,
			"0.014": 1.00927684448,
			"0.015": 2.05695791775,
			"0.016": 2.1776373123,
			"0.017": 0.129891311361,
			"0.018": 0.0,
			"0.019": 0.0,
			"0.02": 0.0,
			"0.021": 0.0,
			"0.022": 0.0,
			"0.023": 0.0,
			"0.024": 0.0,
			"0.025": 0.0
		}
	}
}
