{
	 "smiles": "CC(C)(NC(=O)NCC1=CC=CC=C1Cl)C1=CC=CC=C1", 
	 "Tm": 439.15, 
	 "num_atms": 40, 
	 "gaussian": { 
		 "optdone": 1, 
		 "sigma_profile": "yes", 
		 "theory": "DFT", 
		 "functional": "B3LYP", 
		 "basiset": "6-31G**", 
		 "properties": { 
			 "R2extent": 9271.5504, 
			 "electric_dipole_moment_norm": 2.64570877838, 
			 "electric_quadrupole_moment_norm": 14.9017369753, 
			 "total_energy": -1304.21105008, 
			 "HOMO_LUMO_gap": 0.22198, 
			 "cosmo_polarized_energy": -13.75, 
			 "cosmo_cavitation_energy": 43.74, 
			 "cosmo_dispersion_energy": -29.79, 
			 "cosmo_repulsion_energy": 2.27, 
			 "cosmo_total_nonelectrostatic_energy": 16.21, 
			 "SMD_solvation_energy": 6.93 
		},
		"coords": [
			{
				"x": -1.8255278991,
				"y": -0.5962482456,
				"z": 1.353903214,
				"element": "C" 
			},
			{
				"x": -0.5431536653,
				"y": -0.6830734038,
				"z": 2.2086121246,
				"element": "C" 
			},
			{
				"x": -0.099711649,
				"y": 0.7356826718,
				"z": 2.6481927961,
				"element": "C" 
			},
			{
				"x": 0.530388144,
				"y": -1.3812625666,
				"z": 1.4636081516,
				"element": "N" 
			},
			{
				"x": 1.1726439543,
				"y": -1.1079485797,
				"z": 0.2683140436,
				"element": "C" 
			},
			{
				"x": 1.899593447,
				"y": -1.9580068296,
				"z": -0.2473008086,
				"element": "O" 
			},
			{
				"x": 1.02715024,
				"y": 0.150966792,
				"z": -0.2794883044,
				"element": "N" 
			},
			{
				"x": 1.572751317,
				"y": 0.4095119252,
				"z": -1.6086605142,
				"element": "C" 
			},
			{
				"x": 0.6840527088,
				"y": -0.0622042228,
				"z": -2.7463802304,
				"element": "C" 
			},
			{
				"x": 0.9356543815,
				"y": -1.2926384294,
				"z": -3.3710114762,
				"element": "C" 
			},
			{
				"x": 0.1366327603,
				"y": -1.7551476935,
				"z": -4.4155870572,
				"element": "C" 
			},
			{
				"x": -0.9428046483,
				"y": -0.9896987035,
				"z": -4.8585963268,
				"element": "C" 
			},
			{
				"x": -1.2268263012,
				"y": 0.2325465975,
				"z": -4.2494267227,
				"element": "C" 
			},
			{
				"x": -0.4163723705,
				"y": 0.6737593859,
				"z": -3.2047947616,
				"element": "C" 
			},
			{
				"x": -0.8273890194,
				"y": 2.2185624359,
				"z": -2.4381626169,
				"element": "Cl" 
			},
			{
				"x": -0.7586995579,
				"y": -1.505814975,
				"z": 3.4956989428,
				"element": "C" 
			},
			{
				"x": -2.0325634118,
				"y": -1.8437779181,
				"z": 3.9693421452,
				"element": "C" 
			},
			{
				"x": -2.1899846571,
				"y": -2.5550681228,
				"z": 5.1618606606,
				"element": "C" 
			},
			{
				"x": -1.0761919904,
				"y": -2.943450916,
				"z": 5.9042340078,
				"element": "C" 
			},
			{
				"x": 0.199976035,
				"y": -2.6120388569,
				"z": 5.4449558688,
				"element": "C" 
			},
			{
				"x": 0.3551063479,
				"y": -1.8999945273,
				"z": 4.25655785,
				"element": "C" 
			},
			{
				"x": -2.2077964007,
				"y": -1.5942322987,
				"z": 1.1224536426,
				"element": "H" 
			},
			{
				"x": -2.6106125125,
				"y": -0.0272660247,
				"z": 1.8606436446,
				"element": "H" 
			},
			{
				"x": -1.6235019327,
				"y": -0.0943978882,
				"z": 0.4042514158,
				"element": "H" 
			},
			{
				"x": 0.0103324921,
				"y": 1.4288114175,
				"z": 1.8099094589,
				"element": "H" 
			},
			{
				"x": -0.8482013933,
				"y": 1.1567723528,
				"z": 3.3252510061,
				"element": "H" 
			},
			{
				"x": 0.8559847316,
				"y": 0.6921269356,
				"z": 3.1752407287,
				"element": "H" 
			},
			{
				"x": 0.6433164469,
				"y": -2.3597398122,
				"z": 1.688055762,
				"element": "H" 
			},
			{
				"x": 0.2587687532,
				"y": 0.7334849402,
				"z": 0.011018139,
				"element": "H" 
			},
			{
				"x": 1.7564907913,
				"y": 1.4837085541,
				"z": -1.6914377561,
				"element": "H" 
			},
			{
				"x": 2.5303434137,
				"y": -0.1084010655,
				"z": -1.6641731721,
				"element": "H" 
			},
			{
				"x": 1.7626227465,
				"y": -1.8911026366,
				"z": -3.0024716513,
				"element": "H" 
			},
			{
				"x": 0.3555564821,
				"y": -2.7114806933,
				"z": -4.8808386431,
				"element": "H" 
			},
			{
				"x": -1.5692641298,
				"y": -1.3394728479,
				"z": -5.673789773,
				"element": "H" 
			},
			{
				"x": -2.0646230965,
				"y": 0.8389407683,
				"z": -4.5756017525,
				"element": "H" 
			},
			{
				"x": -2.9183892415,
				"y": -1.5596634815,
				"z": 3.4129827206,
				"element": "H" 
			},
			{
				"x": -3.1893259351,
				"y": -2.8077394684,
				"z": 5.5049536394,
				"element": "H" 
			},
			{
				"x": -1.1995632187,
				"y": -3.4990859166,
				"z": 6.8292545936,
				"element": "H" 
			},
			{
				"x": 1.0782137362,
				"y": -2.9076207899,
				"z": 6.0119753868,
				"element": "H" 
			},
			{
				"x": 1.353224101,
				"y": -1.6506978628,
				"z": 3.9092516236,
				"element": "H" 
			}
		],
		 "valence_orbital": [ 
			{
				"type": "occ",
				"energy": -0.25533,
				"method": "rhf"
			},
			{
				"type": "occ",
				"energy": -0.24999,
				"method": "rhf"
			},
			{
				"type": "occ",
				"energy": -0.24532,
				"method": "rhf"
			},
			{
				"type": "occ",
				"energy": -0.24055,
				"method": "rhf"
			},
			{
				"type": "occ",
				"energy": -0.23503,
				"method": "rhf"
			},
			{
				"type": "unocc",
				"energy": -0.01305,
				"method": "rhf"
			},
			{
				"type": "unocc",
				"energy": -0.00967,
				"method": "rhf"
			},
			{
				"type": "unocc",
				"energy": -0.0094,
				"method": "rhf"
			},
			{
				"type": "unocc",
				"energy": -0.00735,
				"method": "rhf"
			},
			{
				"type": "unocc",
				"energy": 0.02596,
				"method": "rhf"
			}
		],
		"cosmo_sigma_profile": { 
			"-0.025": 0.0,
			"-0.024": 0.0,
			"-0.023": 0.0,
			"-0.022": 0.0,
			"-0.021": 0.0,
			"-0.02": 0.0,
			"-0.019": 0.0,
			"-0.018": 0.0,
			"-0.017": 0.0,
			"-0.016": 0.0,
			"-0.015": 0.0,
			"-0.014": 0.0,
			"-0.013": 0.0,
			"-0.012": 0.0466560222986,
			"-0.011": 0.645970193639,
			"-0.01": 1.8856842107,
			"-0.009": 0.937526310777,
			"-0.008": 2.0225314025,
			"-0.007": 4.9151980335,
			"-0.006": 12.3410461009,
			"-0.005": 23.9223172083,
			"-0.004": 34.2609349695,
			"-0.003": 34.7020697437,
			"-0.002": 29.097893506,
			"-0.001": 30.7073540609,
			"0.0": 28.2190922665,
			"0.001": 24.1458306179,
			"0.002": 23.4818486085,
			"0.003": 24.4948122388,
			"0.004": 28.2539799114,
			"0.005": 18.233938556,
			"0.006": 8.26267411464,
			"0.007": 2.62345232128,
			"0.008": 2.14608233359,
			"0.009": 1.56813613642,
			"0.01": 1.37286485812,
			"0.011": 1.11463634564,
			"0.012": 1.49383265952,
			"0.013": 1.87505134756,
			"0.014": 2.77788802458,
			"0.015": 3.24658633995,
			"0.016": 0.226220612853,
			"0.017": 0.0,
			"0.018": 0.0,
			"0.019": 0.0,
			"0.02": 0.0,
			"0.021": 0.0,
			"0.022": 0.0,
			"0.023": 0.0,
			"0.024": 0.0,
			"0.025": 0.0
		}
	}
}
