{
	 "smiles": "CC[C@H]1CC[C@@H](CC1)C(O)=O", 
	 "Tm": 323.15, 
	 "num_atms": 27, 
	 "gaussian": { 
		 "optdone": 1, 
		 "sigma_profile": "yes", 
		 "theory": "DFT", 
		 "functional": "B3LYP", 
		 "basiset": "6-31G**", 
		 "properties": { 
			 "R2extent": 2441.2977, 
			 "electric_dipole_moment_norm": 4.30020711594, 
			 "electric_quadrupole_moment_norm": 21.5881862992, 
			 "total_energy": -503.070857309, 
			 "HOMO_LUMO_gap": 0.27736, 
			 "cosmo_polarized_energy": -12.64, 
			 "cosmo_cavitation_energy": 27.23, 
			 "cosmo_dispersion_energy": -19.81, 
			 "cosmo_repulsion_energy": 1.6, 
			 "cosmo_total_nonelectrostatic_energy": 9.02, 
			 "SMD_solvation_energy": 5.05 
		},
		"coords": [
			{
				"x": 2.6016497058,
				"y": -0.4715993664,
				"z": -1.4157030577,
				"element": "C" 
			},
			{
				"x": 1.8109985525,
				"y": 0.1419438356,
				"z": -0.2551766917,
				"element": "C" 
			},
			{
				"x": 0.8092742689,
				"y": 1.2439483013,
				"z": -0.6648380659,
				"element": "C" 
			},
			{
				"x": -0.2930243201,
				"y": 0.7455452202,
				"z": -1.6212362207,
				"element": "C" 
			},
			{
				"x": -1.2446128978,
				"y": -0.2776720759,
				"z": -0.971623655,
				"element": "C" 
			},
			{
				"x": -1.615039574,
				"y": 0.0870168236,
				"z": 0.486703865,
				"element": "C" 
			},
			{
				"x": -1.3361446377,
				"y": 1.5837761051,
				"z": 0.7656200355,
				"element": "C" 
			},
			{
				"x": 0.1586381288,
				"y": 1.9143188971,
				"z": 0.5865370748,
				"element": "C" 
			},
			{
				"x": -3.0746264628,
				"y": -0.2484975181,
				"z": 0.8018739547,
				"element": "C" 
			},
			{
				"x": -3.3846493852,
				"y": -0.2956468949,
				"z": 2.1282997915,
				"element": "O" 
			},
			{
				"x": -3.9404402679,
				"y": -0.4331237247,
				"z": -0.0171615512,
				"element": "O" 
			},
			{
				"x": 1.9566001568,
				"y": -1.017505303,
				"z": -2.1114556615,
				"element": "H" 
			},
			{
				"x": 3.1262091136,
				"y": 0.3021140093,
				"z": -1.9885094116,
				"element": "H" 
			},
			{
				"x": 3.3534415848,
				"y": -1.1768216709,
				"z": -1.0466182563,
				"element": "H" 
			},
			{
				"x": 2.517719701,
				"y": 0.5791198027,
				"z": 0.4627548744,
				"element": "H" 
			},
			{
				"x": 1.2879494803,
				"y": -0.6545748015,
				"z": 0.2917621075,
				"element": "H" 
			},
			{
				"x": 1.3880805121,
				"y": 2.0089522001,
				"z": -1.1997264199,
				"element": "H" 
			},
			{
				"x": 0.1461398237,
				"y": 0.3130872148,
				"z": -2.5262069885,
				"element": "H" 
			},
			{
				"x": -0.871139342,
				"y": 1.6135566255,
				"z": -1.9612304722,
				"element": "H" 
			},
			{
				"x": -0.7962213254,
				"y": -1.277140652,
				"z": -0.987469797,
				"element": "H" 
			},
			{
				"x": -2.1690104009,
				"y": -0.3436477443,
				"z": -1.5521312939,
				"element": "H" 
			},
			{
				"x": -0.9920209239,
				"y": -0.4956060821,
				"z": 1.1824429968,
				"element": "H" 
			},
			{
				"x": -1.6566916348,
				"y": 1.8598041755,
				"z": 1.7774003012,
				"element": "H" 
			},
			{
				"x": -1.9485110455,
				"y": 2.1822967761,
				"z": 0.0811440459,
				"element": "H" 
			},
			{
				"x": 0.7001653574,
				"y": 1.5997378589,
				"z": 1.4880818357,
				"element": "H" 
			},
			{
				"x": 0.2692324159,
				"y": 3.0032005597,
				"z": 0.5332424337,
				"element": "H" 
			},
			{
				"x": -2.5891665836,
				"y": -0.1482825718,
				"z": 2.6591242265,
				"element": "H" 
			}
		],
		 "valence_orbital": [ 
			{
				"type": "occ",
				"energy": -0.31515,
				"method": "rhf"
			},
			{
				"type": "occ",
				"energy": -0.30848,
				"method": "rhf"
			},
			{
				"type": "occ",
				"energy": -0.30471,
				"method": "rhf"
			},
			{
				"type": "occ",
				"energy": -0.30096,
				"method": "rhf"
			},
			{
				"type": "occ",
				"energy": -0.26599,
				"method": "rhf"
			},
			{
				"type": "unocc",
				"energy": 0.01137,
				"method": "rhf"
			},
			{
				"type": "unocc",
				"energy": 0.04609,
				"method": "rhf"
			},
			{
				"type": "unocc",
				"energy": 0.0768,
				"method": "rhf"
			},
			{
				"type": "unocc",
				"energy": 0.08825,
				"method": "rhf"
			},
			{
				"type": "unocc",
				"energy": 0.11316,
				"method": "rhf"
			}
		],
		"cosmo_sigma_profile": { 
			"-0.025": 0.0,
			"-0.024": 0.0,
			"-0.023": 0.0,
			"-0.022": 0.0,
			"-0.021": 0.0,
			"-0.02": 0.0,
			"-0.019": 0.00470228712953,
			"-0.018": 1.04470666911,
			"-0.017": 0.563018461965,
			"-0.016": 1.18823137356,
			"-0.015": 1.25308829907,
			"-0.014": 0.788982387501,
			"-0.013": 0.735830293502,
			"-0.012": 1.04591234519,
			"-0.011": 1.1349130614,
			"-0.01": 1.67480050729,
			"-0.009": 0.920494159234,
			"-0.008": 1.00129701655,
			"-0.007": 2.04605083104,
			"-0.006": 1.45862203189,
			"-0.005": 3.44837497829,
			"-0.004": 6.28396168235,
			"-0.003": 16.5205558338,
			"-0.002": 32.2385450455,
			"-0.001": 34.7203813443,
			"0.0": 31.3353092548,
			"0.001": 25.2738034586,
			"0.002": 9.20377963208,
			"0.003": 2.53127770769,
			"0.004": 2.50616114262,
			"0.005": 1.90001509816,
			"0.006": 2.63691742225,
			"0.007": 2.24387050825,
			"0.008": 2.65102024104,
			"0.009": 3.32994721612,
			"0.01": 4.0442564737,
			"0.011": 5.74601515904,
			"0.012": 5.76293585041,
			"0.013": 2.22815922874,
			"0.014": 0.19004384968,
			"0.015": 0.0,
			"0.016": 0.0,
			"0.017": 0.0,
			"0.018": 0.0,
			"0.019": 0.0,
			"0.02": 0.0,
			"0.021": 0.0,
			"0.022": 0.0,
			"0.023": 0.0,
			"0.024": 0.0,
			"0.025": 0.0
		}
	}
}
