{
	 "smiles": "CC1=C2C(=O)C(=O)NC2=C(F)C=C1", 
	 "Tm": 478.15, 
	 "num_atms": 19, 
	 "gaussian": { 
		 "optdone": 1, 
		 "sigma_profile": "yes", 
		 "theory": "DFT", 
		 "functional": "B3LYP", 
		 "basiset": "6-31G**", 
		 "properties": { 
			 "R2extent": 2262.0953, 
			 "electric_dipole_moment_norm": 4.96715684874, 
			 "electric_quadrupole_moment_norm": 7.99169307969, 
			 "total_energy": -651.611762788, 
			 "HOMO_LUMO_gap": 0.1399, 
			 "cosmo_polarized_energy": -13.46, 
			 "cosmo_cavitation_energy": 24.63, 
			 "cosmo_dispersion_energy": -17.85, 
			 "cosmo_repulsion_energy": 1.37, 
			 "cosmo_total_nonelectrostatic_energy": 8.15, 
			 "SMD_solvation_energy": 5.98 
		},
		"coords": [
			{
				"x": -2.3470453332,
				"y": 1.505544826,
				"z": -0.1418936872,
				"element": "C" 
			},
			{
				"x": -1.6560054008,
				"y": 0.1776604973,
				"z": 0.0184013975,
				"element": "C" 
			},
			{
				"x": -0.260536785,
				"y": 0.0945626247,
				"z": 0.1417261038,
				"element": "C" 
			},
			{
				"x": 0.7783950302,
				"y": 1.1369659455,
				"z": 0.1484030533,
				"element": "C" 
			},
			{
				"x": 0.6860189166,
				"y": 2.3422007377,
				"z": 0.0472897081,
				"element": "O" 
			},
			{
				"x": 2.1396202657,
				"y": 0.3690435827,
				"z": 0.3211590507,
				"element": "C" 
			},
			{
				"x": 3.2530162234,
				"y": 0.8371969829,
				"z": 0.3783021261,
				"element": "O" 
			},
			{
				"x": 1.7851962609,
				"y": -0.9698201245,
				"z": 0.3950745656,
				"element": "N" 
			},
			{
				"x": 0.4017107255,
				"y": -1.1387941535,
				"z": 0.2923555973,
				"element": "C" 
			},
			{
				"x": -0.327772353,
				"y": -2.3150085994,
				"z": 0.322041983,
				"element": "C" 
			},
			{
				"x": 0.3143259434,
				"y": -3.4954737537,
				"z": 0.4668569692,
				"element": "F" 
			},
			{
				"x": -1.7131163402,
				"y": -2.2610556376,
				"z": 0.2018236209,
				"element": "C" 
			},
			{
				"x": -2.3657128759,
				"y": -1.0319571465,
				"z": 0.0522768893,
				"element": "C" 
			},
			{
				"x": -3.4290451712,
				"y": 1.3775009127,
				"z": -0.2229112387,
				"element": "H" 
			},
			{
				"x": -1.9875039073,
				"y": 2.0312969632,
				"z": -1.0323332292,
				"element": "H" 
			},
			{
				"x": -2.133485522,
				"y": 2.1650982852,
				"z": 0.7054323816,
				"element": "H" 
			},
			{
				"x": 2.4470219691,
				"y": -1.7232749543,
				"z": 0.5087043164,
				"element": "H" 
			},
			{
				"x": -2.2723046999,
				"y": -3.1908117946,
				"z": 0.2267096997,
				"element": "H" 
			},
			{
				"x": -3.4473769463,
				"y": -1.017975194,
				"z": -0.0394193074,
				"element": "H" 
			}
		],
		 "valence_orbital": [ 
			{
				"type": "occ",
				"energy": -0.33003,
				"method": "rhf"
			},
			{
				"type": "occ",
				"energy": -0.31294,
				"method": "rhf"
			},
			{
				"type": "occ",
				"energy": -0.26947,
				"method": "rhf"
			},
			{
				"type": "occ",
				"energy": -0.2495,
				"method": "rhf"
			},
			{
				"type": "occ",
				"energy": -0.24076,
				"method": "rhf"
			},
			{
				"type": "unocc",
				"energy": -0.10086,
				"method": "rhf"
			},
			{
				"type": "unocc",
				"energy": -0.01725,
				"method": "rhf"
			},
			{
				"type": "unocc",
				"energy": 0.00119,
				"method": "rhf"
			},
			{
				"type": "unocc",
				"energy": 0.06437,
				"method": "rhf"
			},
			{
				"type": "unocc",
				"energy": 0.08456,
				"method": "rhf"
			}
		],
		"cosmo_sigma_profile": { 
			"-0.025": 0.0,
			"-0.024": 0.0,
			"-0.023": 0.0,
			"-0.022": 0.0,
			"-0.021": 0.0,
			"-0.02": 0.0,
			"-0.019": 0.0,
			"-0.018": 0.0,
			"-0.017": 0.329817551278,
			"-0.016": 0.948585911147,
			"-0.015": 1.25920723305,
			"-0.014": 0.640109669928,
			"-0.013": 1.20364844553,
			"-0.012": 0.629753427282,
			"-0.011": 0.93246871814,
			"-0.01": 1.21735486075,
			"-0.009": 1.43009285743,
			"-0.008": 3.84382263899,
			"-0.007": 6.21713893789,
			"-0.006": 8.08191412979,
			"-0.005": 10.6812530559,
			"-0.004": 11.9295587326,
			"-0.003": 13.8192585973,
			"-0.002": 17.6127438294,
			"-0.001": 21.6815389805,
			"0.0": 17.611922215,
			"0.001": 12.410280386,
			"0.002": 10.6407063034,
			"0.003": 11.1055660319,
			"0.004": 7.90261508182,
			"0.005": 2.60349029948,
			"0.006": 2.73238761964,
			"0.007": 2.76823791995,
			"0.008": 3.33756100477,
			"0.009": 4.52624243337,
			"0.01": 8.01843721806,
			"0.011": 7.9166275133,
			"0.012": 3.65308708955,
			"0.013": 0.195342758868,
			"0.014": 0.0,
			"0.015": 0.0,
			"0.016": 0.0,
			"0.017": 0.0,
			"0.018": 0.0,
			"0.019": 0.0,
			"0.02": 0.0,
			"0.021": 0.0,
			"0.022": 0.0,
			"0.023": 0.0,
			"0.024": 0.0,
			"0.025": 0.0
		}
	}
}
