{
	 "smiles": "CC(=O)C1=CSC(=C1)C1=CSC(C)=N1", 
	 "Tm": 399.15, 
	 "num_atms": 23, 
	 "gaussian": { 
		 "optdone": 1, 
		 "sigma_profile": "yes", 
		 "theory": "DFT", 
		 "functional": "B3LYP", 
		 "basiset": "6-31G**", 
		 "properties": { 
			 "R2extent": 5609.16, 
			 "electric_dipole_moment_norm": 3.99611632213, 
			 "electric_quadrupole_moment_norm": 11.5605510656, 
			 "total_energy": -1312.83089071, 
			 "HOMO_LUMO_gap": 0.16054, 
			 "cosmo_polarized_energy": -10.6, 
			 "cosmo_cavitation_energy": 31.14, 
			 "cosmo_dispersion_energy": -23.5, 
			 "cosmo_repulsion_energy": 1.76, 
			 "cosmo_total_nonelectrostatic_energy": 9.39, 
			 "SMD_solvation_energy": 4.57 
		},
		"coords": [
			{
				"x": -3.5641856428,
				"y": -0.2137406949,
				"z": 0.8555686248,
				"element": "C" 
			},
			{
				"x": -3.7378685266,
				"y": 0.4626944567,
				"z": -0.4923540547,
				"element": "C" 
			},
			{
				"x": -4.8469270185,
				"y": 0.7145358248,
				"z": -0.9394750472,
				"element": "O" 
			},
			{
				"x": -2.5069496981,
				"y": 0.8143682194,
				"z": -1.2552475432,
				"element": "C" 
			},
			{
				"x": -2.5854661304,
				"y": 1.4302005931,
				"z": -2.4836560974,
				"element": "C" 
			},
			{
				"x": -1.0303579216,
				"y": 1.7294776574,
				"z": -3.1576967907,
				"element": "S" 
			},
			{
				"x": -0.2276154304,
				"y": 1.0163091057,
				"z": -1.7693761255,
				"element": "C" 
			},
			{
				"x": -1.1525566926,
				"y": 0.5808974568,
				"z": -0.8533750341,
				"element": "C" 
			},
			{
				"x": 1.2248151341,
				"y": 0.9280988967,
				"z": -1.6631040429,
				"element": "C" 
			},
			{
				"x": 2.1526051687,
				"y": 1.3620377952,
				"z": -2.5765458321,
				"element": "C" 
			},
			{
				"x": 3.7542954856,
				"y": 1.0384497351,
				"z": -2.0066990683,
				"element": "S" 
			},
			{
				"x": 3.0568840077,
				"y": 0.3270343686,
				"z": -0.5489464831,
				"element": "C" 
			},
			{
				"x": 3.9150429399,
				"y": -0.2383218309,
				"z": 0.541220741,
				"element": "C" 
			},
			{
				"x": 1.7588567299,
				"y": 0.3454512163,
				"z": -0.5228710805,
				"element": "N" 
			},
			{
				"x": -2.980982812,
				"y": 0.4186118837,
				"z": 1.5346121032,
				"element": "H" 
			},
			{
				"x": -3.0201766685,
				"y": -1.1589984751,
				"z": 0.7477539281,
				"element": "H" 
			},
			{
				"x": -4.5469389313,
				"y": -0.4047641484,
				"z": 1.2875579873,
				"element": "H" 
			},
			{
				"x": -3.4899589842,
				"y": 1.7119234852,
				"z": -3.0037713735,
				"element": "H" 
			},
			{
				"x": -0.8494193361,
				"y": 0.1105626426,
				"z": 0.0730881128,
				"element": "H" 
			},
			{
				"x": 1.9872092409,
				"y": 1.8425265298,
				"z": -3.5302763316,
				"element": "H" 
			},
			{
				"x": 4.5789144183,
				"y": 0.5227746373,
				"z": 0.964425256,
				"element": "H" 
			},
			{
				"x": 3.2651454941,
				"y": -0.6175294602,
				"z": 1.3317005489,
				"element": "H" 
			},
			{
				"x": 4.540735174,
				"y": -1.0586998949,
				"z": 0.1743676026,
				"element": "H" 
			}
		],
		 "valence_orbital": [ 
			{
				"type": "occ",
				"energy": -0.28292,
				"method": "rhf"
			},
			{
				"type": "occ",
				"energy": -0.2768,
				"method": "rhf"
			},
			{
				"type": "occ",
				"energy": -0.26216,
				"method": "rhf"
			},
			{
				"type": "occ",
				"energy": -0.24557,
				"method": "rhf"
			},
			{
				"type": "occ",
				"energy": -0.21626,
				"method": "rhf"
			},
			{
				"type": "unocc",
				"energy": -0.05572,
				"method": "rhf"
			},
			{
				"type": "unocc",
				"energy": -0.03475,
				"method": "rhf"
			},
			{
				"type": "unocc",
				"energy": -0.01094,
				"method": "rhf"
			},
			{
				"type": "unocc",
				"energy": 0.00849,
				"method": "rhf"
			},
			{
				"type": "unocc",
				"energy": 0.01944,
				"method": "rhf"
			}
		],
		"cosmo_sigma_profile": { 
			"-0.025": 0.0,
			"-0.024": 0.0,
			"-0.023": 0.0,
			"-0.022": 0.0,
			"-0.021": 0.0,
			"-0.02": 0.0,
			"-0.019": 0.0,
			"-0.018": 0.0,
			"-0.017": 0.0,
			"-0.016": 0.0,
			"-0.015": 0.0,
			"-0.014": 0.0,
			"-0.013": 0.0,
			"-0.012": 0.0,
			"-0.011": 0.0,
			"-0.01": 0.376732513219,
			"-0.009": 2.78677295627,
			"-0.008": 3.67427188199,
			"-0.007": 3.75288185066,
			"-0.006": 15.8787034703,
			"-0.005": 19.675636152,
			"-0.004": 17.459878918,
			"-0.003": 17.213201734,
			"-0.002": 19.7706670353,
			"-0.001": 20.8446499009,
			"0.0": 18.2819412014,
			"0.001": 21.9587215577,
			"0.002": 30.7476279672,
			"0.003": 22.7249027018,
			"0.004": 8.0869037824,
			"0.005": 3.94445880477,
			"0.006": 4.46325468507,
			"0.007": 2.38706195609,
			"0.008": 1.77557682636,
			"0.009": 3.73317531212,
			"0.01": 3.21525506908,
			"0.011": 4.32553713577,
			"0.012": 4.39707611633,
			"0.013": 1.95212177064,
			"0.014": 0.270917540544,
			"0.015": 0.0,
			"0.016": 0.0,
			"0.017": 0.0,
			"0.018": 0.0,
			"0.019": 0.0,
			"0.02": 0.0,
			"0.021": 0.0,
			"0.022": 0.0,
			"0.023": 0.0,
			"0.024": 0.0,
			"0.025": 0.0
		}
	}
}
