{
	 "smiles": "OC(=O)C=CC1=CC=C(Br)S1", 
	 "Tm": 483.15, 
	 "num_atms": 16, 
	 "gaussian": { 
		 "optdone": 1, 
		 "sigma_profile": "yes", 
		 "theory": "DFT", 
		 "functional": "B3LYP", 
		 "basiset": "6-31G**", 
		 "properties": { 
			 "R2extent": 5350.2816, 
			 "electric_dipole_moment_norm": 4.06823709363, 
			 "electric_quadrupole_moment_norm": 18.7393370115, 
			 "total_energy": -3389.76121509, 
			 "HOMO_LUMO_gap": 0.15646, 
			 "cosmo_polarized_energy": -12.52, 
			 "cosmo_cavitation_energy": 25.05, 
			 "cosmo_dispersion_energy": -19.23, 
			 "cosmo_repulsion_energy": 1.51, 
			 "cosmo_total_nonelectrostatic_energy": 7.32, 
			 "SMD_solvation_energy": 4.04 
		},
		"coords": [
			{
				"x": 2.5497286252,
				"y": -0.0581019961,
				"z": -0.6968782467,
				"element": "O" 
			},
			{
				"x": 2.5418563236,
				"y": -0.39463001,
				"z": 0.6186773912,
				"element": "C" 
			},
			{
				"x": 3.5811185861,
				"y": -0.6418479079,
				"z": 1.1862464789,
				"element": "O" 
			},
			{
				"x": 1.2332085844,
				"y": -0.4940014475,
				"z": 1.3248546627,
				"element": "C" 
			},
			{
				"x": 0.0370971683,
				"y": 0.0705442099,
				"z": 1.052903492,
				"element": "C" 
			},
			{
				"x": -0.3402823761,
				"y": 1.0254231776,
				"z": 0.0161785443,
				"element": "C" 
			},
			{
				"x": 0.3737222026,
				"y": 2.0391074443,
				"z": -0.595521736,
				"element": "C" 
			},
			{
				"x": -0.3889709785,
				"y": 2.8087523047,
				"z": -1.516327572,
				"element": "C" 
			},
			{
				"x": -1.6881602004,
				"y": 2.3828808781,
				"z": -1.592999993,
				"element": "C" 
			},
			{
				"x": -3.0459853825,
				"y": 3.0950740973,
				"z": -2.6825332168,
				"element": "Br" 
			},
			{
				"x": -2.0084810491,
				"y": 1.037809232,
				"z": -0.5444110706,
				"element": "S" 
			},
			{
				"x": 1.6442590136,
				"y": 0.0612484719,
				"z": -1.0236274305,
				"element": "H" 
			},
			{
				"x": 1.3083345314,
				"y": -1.1134747444,
				"z": 2.2128285185,
				"element": "H" 
			},
			{
				"x": -0.7785877499,
				"y": -0.2145849833,
				"z": 1.7161057702,
				"element": "H" 
			},
			{
				"x": 1.4104931501,
				"y": 2.252853839,
				"z": -0.3651793657,
				"element": "H" 
			},
			{
				"x": -0.0004504488,
				"y": 3.6435474342,
				"z": -2.0856162266,
				"element": "H" 
			}
		],
		 "valence_orbital": [ 
			{
				"type": "occ",
				"energy": -0.31412,
				"method": "rhf"
			},
			{
				"type": "occ",
				"energy": -0.30406,
				"method": "rhf"
			},
			{
				"type": "occ",
				"energy": -0.2862,
				"method": "rhf"
			},
			{
				"type": "occ",
				"energy": -0.27432,
				"method": "rhf"
			},
			{
				"type": "occ",
				"energy": -0.24175,
				"method": "rhf"
			},
			{
				"type": "unocc",
				"energy": -0.08529,
				"method": "rhf"
			},
			{
				"type": "unocc",
				"energy": -0.02472,
				"method": "rhf"
			},
			{
				"type": "unocc",
				"energy": -0.01909,
				"method": "rhf"
			},
			{
				"type": "unocc",
				"energy": -0.00564,
				"method": "rhf"
			},
			{
				"type": "unocc",
				"energy": 0.035,
				"method": "rhf"
			}
		],
		"cosmo_sigma_profile": { 
			"-0.025": 0.0,
			"-0.024": 0.0,
			"-0.023": 0.0,
			"-0.022": 0.0,
			"-0.021": 0.0,
			"-0.02": 0.0,
			"-0.019": 0.0,
			"-0.018": 0.0,
			"-0.017": 0.0,
			"-0.016": 0.0,
			"-0.015": 0.1947298064,
			"-0.014": 0.762154472433,
			"-0.013": 0.602644185745,
			"-0.012": 0.728670505304,
			"-0.011": 1.00688651543,
			"-0.01": 0.785221592093,
			"-0.009": 3.25309453719,
			"-0.008": 7.83270177559,
			"-0.007": 9.48295214934,
			"-0.006": 9.75200728033,
			"-0.005": 8.71129236271,
			"-0.004": 10.8884775554,
			"-0.003": 9.97731858183,
			"-0.002": 14.4264776441,
			"-0.001": 14.0535729603,
			"0.0": 19.7931392806,
			"0.001": 24.0982025588,
			"0.002": 21.887847238,
			"0.003": 15.7522436463,
			"0.004": 3.26887181662,
			"0.005": 1.35447390169,
			"0.006": 2.68560010141,
			"0.007": 2.26974748783,
			"0.008": 2.29032690852,
			"0.009": 3.10071571353,
			"0.01": 4.89380402471,
			"0.011": 5.02134112199,
			"0.012": 5.68919342782,
			"0.013": 2.48788632787,
			"0.014": 0.172680808177,
			"0.015": 0.0,
			"0.016": 0.0,
			"0.017": 0.0,
			"0.018": 0.0,
			"0.019": 0.0,
			"0.02": 0.0,
			"0.021": 0.0,
			"0.022": 0.0,
			"0.023": 0.0,
			"0.024": 0.0,
			"0.025": 0.0
		}
	}
}
