{
	 "smiles": "CC1=C(C=C(C=C1Br)S(Cl)(=O)=O)[N+]([O-])=O", 
	 "Tm": 396.15, 
	 "num_atms": 20, 
	 "gaussian": { 
		 "optdone": 1, 
		 "sigma_profile": "yes", 
		 "theory": "DFT", 
		 "functional": "B3LYP", 
		 "basiset": "6-31G**", 
		 "properties": { 
			 "R2extent": 6527.467, 
			 "electric_dipole_moment_norm": 4.15667809434, 
			 "electric_quadrupole_moment_norm": 9.52288992376, 
			 "total_energy": -4055.01033374, 
			 "HOMO_LUMO_gap": 0.17243, 
			 "cosmo_polarized_energy": -11.31, 
			 "cosmo_cavitation_energy": 31.02, 
			 "cosmo_dispersion_energy": -23.2, 
			 "cosmo_repulsion_energy": 1.78, 
			 "cosmo_total_nonelectrostatic_energy": 9.6, 
			 "SMD_solvation_energy": 5.14 
		},
		"coords": [
			{
				"x": -0.8765871288,
				"y": 2.4882750159,
				"z": 2.6627420077,
				"element": "C" 
			},
			{
				"x": 0.0547267905,
				"y": 1.6026610449,
				"z": 1.8777463445,
				"element": "C" 
			},
			{
				"x": 1.4364571323,
				"y": 1.4983095047,
				"z": 2.1420799638,
				"element": "C" 
			},
			{
				"x": 2.2940948959,
				"y": 0.6387469582,
				"z": 1.4616840023,
				"element": "C" 
			},
			{
				"x": 1.7591995679,
				"y": -0.1279117674,
				"z": 0.4370545995,
				"element": "C" 
			},
			{
				"x": 0.4092372337,
				"y": -0.068650313,
				"z": 0.1035096152,
				"element": "C" 
			},
			{
				"x": -0.4181423497,
				"y": 0.7859856061,
				"z": 0.8275968248,
				"element": "C" 
			},
			{
				"x": -2.2574226336,
				"y": 0.8130154415,
				"z": 0.318606761,
				"element": "Br" 
			},
			{
				"x": 2.8285018202,
				"y": -1.2446782857,
				"z": -0.4675425373,
				"element": "S" 
			},
			{
				"x": 3.4876774271,
				"y": 0.0157750765,
				"z": -2.0448081071,
				"element": "Cl" 
			},
			{
				"x": 3.9990492736,
				"y": -1.5390420485,
				"z": 0.3461349193,
				"element": "O" 
			},
			{
				"x": 2.0103201378,
				"y": -2.28175614,
				"z": -1.0806496694,
				"element": "O" 
			},
			{
				"x": 2.0832916675,
				"y": 2.328927997,
				"z": 3.183977404,
				"element": "N" 
			},
			{
				"x": 1.6112605455,
				"y": 3.4414168148,
				"z": 3.405670998,
				"element": "O" 
			},
			{
				"x": 3.0732613794,
				"y": 1.8569943444,
				"z": 3.7360713136,
				"element": "O" 
			},
			{
				"x": -1.8876422427,
				"y": 2.0823613808,
				"z": 2.6391128195,
				"element": "H" 
			},
			{
				"x": -0.5530893271,
				"y": 2.6008341415,
				"z": 3.6963084908,
				"element": "H" 
			},
			{
				"x": -0.9023859789,
				"y": 3.492992241,
				"z": 2.22782144,
				"element": "H" 
			},
			{
				"x": 3.3388529108,
				"y": 0.5788511436,
				"z": 1.7390034342,
				"element": "H" 
			},
			{
				"x": 0.0101388788,
				"y": -0.6846081565,
				"z": -0.6929206244,
				"element": "H" 
			}
		],
		 "valence_orbital": [ 
			{
				"type": "occ",
				"energy": -0.32902,
				"method": "rhf"
			},
			{
				"type": "occ",
				"energy": -0.32534,
				"method": "rhf"
			},
			{
				"type": "occ",
				"energy": -0.31959,
				"method": "rhf"
			},
			{
				"type": "occ",
				"energy": -0.30703,
				"method": "rhf"
			},
			{
				"type": "occ",
				"energy": -0.28933,
				"method": "rhf"
			},
			{
				"type": "unocc",
				"energy": -0.1169,
				"method": "rhf"
			},
			{
				"type": "unocc",
				"energy": -0.10415,
				"method": "rhf"
			},
			{
				"type": "unocc",
				"energy": -0.06922,
				"method": "rhf"
			},
			{
				"type": "unocc",
				"energy": -0.04797,
				"method": "rhf"
			},
			{
				"type": "unocc",
				"energy": -0.03211,
				"method": "rhf"
			}
		],
		"cosmo_sigma_profile": { 
			"-0.025": 0.0,
			"-0.024": 0.0,
			"-0.023": 0.0,
			"-0.022": 0.0,
			"-0.021": 0.0,
			"-0.02": 0.0,
			"-0.019": 0.0,
			"-0.018": 0.0,
			"-0.017": 0.0,
			"-0.016": 0.0,
			"-0.015": 0.0,
			"-0.014": 0.0,
			"-0.013": 0.0,
			"-0.012": 0.0,
			"-0.011": 0.159632378636,
			"-0.01": 1.18866650436,
			"-0.009": 3.59531118229,
			"-0.008": 5.39212675062,
			"-0.007": 7.03972006185,
			"-0.006": 9.8682158341,
			"-0.005": 12.8848964529,
			"-0.004": 21.2042794446,
			"-0.003": 25.9646559741,
			"-0.002": 24.4356689109,
			"-0.001": 15.3786220316,
			"0.0": 14.0285760558,
			"0.001": 15.6360953059,
			"0.002": 20.6378765553,
			"0.003": 22.8325965741,
			"0.004": 6.46826576754,
			"0.005": 6.81934483595,
			"0.006": 10.6923082343,
			"0.007": 15.9000947278,
			"0.008": 11.912010813,
			"0.009": 3.32900920572,
			"0.01": 0.0931077405513,
			"0.011": 0.0,
			"0.012": 0.0,
			"0.013": 0.0,
			"0.014": 0.0,
			"0.015": 0.0,
			"0.016": 0.0,
			"0.017": 0.0,
			"0.018": 0.0,
			"0.019": 0.0,
			"0.02": 0.0,
			"0.021": 0.0,
			"0.022": 0.0,
			"0.023": 0.0,
			"0.024": 0.0,
			"0.025": 0.0
		}
	}
}
