{
	 "smiles": "COCC1=NN=C(S)S1", 
	 "Tm": 351.15, 
	 "num_atms": 15, 
	 "gaussian": { 
		 "optdone": 1, 
		 "sigma_profile": "yes", 
		 "theory": "DFT", 
		 "functional": "B3LYP", 
		 "basiset": "6-31G**", 
		 "properties": { 
			 "R2extent": 2739.2315, 
			 "electric_dipole_moment_norm": 1.09671947644, 
			 "electric_quadrupole_moment_norm": 6.68989229809, 
			 "total_energy": -1137.08254911, 
			 "HOMO_LUMO_gap": 0.20346, 
			 "cosmo_polarized_energy": -9.55, 
			 "cosmo_cavitation_energy": 22.83, 
			 "cosmo_dispersion_energy": -17.71, 
			 "cosmo_repulsion_energy": 1.37, 
			 "cosmo_total_nonelectrostatic_energy": 6.5, 
			 "SMD_solvation_energy": 1.81 
		},
		"coords": [
			{
				"x": -0.4147370499,
				"y": -3.3603366073,
				"z": 2.1083682298,
				"element": "C" 
			},
			{
				"x": 0.8518266482,
				"y": -3.0869602049,
				"z": 1.5255835466,
				"element": "O" 
			},
			{
				"x": 1.0686922223,
				"y": -1.7159259387,
				"z": 1.2661312205,
				"element": "C" 
			},
			{
				"x": 0.2739803524,
				"y": -1.1970008915,
				"z": 0.0948530692,
				"element": "C" 
			},
			{
				"x": -0.3916610245,
				"y": -0.0818520695,
				"z": 0.101229234,
				"element": "N" 
			},
			{
				"x": -1.0051322477,
				"y": 0.2028355339,
				"z": -1.0910646842,
				"element": "N" 
			},
			{
				"x": -0.7978197746,
				"y": -0.7222292047,
				"z": -1.9878708276,
				"element": "C" 
			},
			{
				"x": -1.4612481263,
				"y": -0.6743140991,
				"z": -3.6220797588,
				"element": "S" 
			},
			{
				"x": 0.1952148364,
				"y": -2.0597768284,
				"z": -1.4401995932,
				"element": "S" 
			},
			{
				"x": -1.245031197,
				"y": -3.0800907558,
				"z": 1.4457553309,
				"element": "H" 
			},
			{
				"x": -0.4517517682,
				"y": -4.4366438695,
				"z": 2.2877989984,
				"element": "H" 
			},
			{
				"x": -0.536158042,
				"y": -2.8308494099,
				"z": 3.0645752691,
				"element": "H" 
			},
			{
				"x": 2.1398034217,
				"y": -1.6156491336,
				"z": 1.0593884189,
				"element": "H" 
			},
			{
				"x": 0.82288354,
				"y": -1.0808587232,
				"z": 2.1295599624,
				"element": "H" 
			},
			{
				"x": -2.1008617909,
				"y": 0.4935522023,
				"z": -3.4097284163,
				"element": "H" 
			}
		],
		 "valence_orbital": [ 
			{
				"type": "occ",
				"energy": -0.31306,
				"method": "rhf"
			},
			{
				"type": "occ",
				"energy": -0.30113,
				"method": "rhf"
			},
			{
				"type": "occ",
				"energy": -0.27855,
				"method": "rhf"
			},
			{
				"type": "occ",
				"energy": -0.27226,
				"method": "rhf"
			},
			{
				"type": "occ",
				"energy": -0.24924,
				"method": "rhf"
			},
			{
				"type": "unocc",
				"energy": -0.04578,
				"method": "rhf"
			},
			{
				"type": "unocc",
				"energy": -0.01471,
				"method": "rhf"
			},
			{
				"type": "unocc",
				"energy": 0.01336,
				"method": "rhf"
			},
			{
				"type": "unocc",
				"energy": 0.01773,
				"method": "rhf"
			},
			{
				"type": "unocc",
				"energy": 0.03758,
				"method": "rhf"
			}
		],
		"cosmo_sigma_profile": { 
			"-0.025": 0.0,
			"-0.024": 0.0,
			"-0.023": 0.0,
			"-0.022": 0.0,
			"-0.021": 0.0,
			"-0.02": 0.0,
			"-0.019": 0.0,
			"-0.018": 0.0,
			"-0.017": 0.0,
			"-0.016": 0.0,
			"-0.015": 0.0,
			"-0.014": 0.0,
			"-0.013": 0.235568193729,
			"-0.012": 1.71059866013,
			"-0.011": 1.25022399482,
			"-0.01": 1.03915417259,
			"-0.009": 1.35020316769,
			"-0.008": 2.78876715532,
			"-0.007": 4.51645363171,
			"-0.006": 8.44274040167,
			"-0.005": 12.4676019655,
			"-0.004": 14.0737177753,
			"-0.003": 18.2804351758,
			"-0.002": 19.6614994648,
			"-0.001": 15.2357859127,
			"0.0": 14.0039624539,
			"0.001": 14.0898411179,
			"0.002": 9.59780290657,
			"0.003": 7.00696128934,
			"0.004": 5.95392402212,
			"0.005": 4.30581312473,
			"0.006": 6.12923929371,
			"0.007": 3.49098099712,
			"0.008": 2.90056538821,
			"0.009": 2.51957172366,
			"0.01": 3.69361965796,
			"0.011": 5.00254501008,
			"0.012": 3.50093061047,
			"0.013": 2.3726917993,
			"0.014": 1.07821268964,
			"0.015": 0.0579413755636,
			"0.016": 0.0,
			"0.017": 0.0,
			"0.018": 0.0,
			"0.019": 0.0,
			"0.02": 0.0,
			"0.021": 0.0,
			"0.022": 0.0,
			"0.023": 0.0,
			"0.024": 0.0,
			"0.025": 0.0
		}
	}
}
