{
	 "smiles": "CC(C)COC(=O)N1CCC(CC1)C(O)=O", 
	 "Tm": 343.15, 
	 "num_atms": 35, 
	 "gaussian": { 
		 "optdone": 1, 
		 "sigma_profile": "yes", 
		 "theory": "DFT", 
		 "functional": "B3LYP", 
		 "basiset": "6-31G**", 
		 "properties": { 
			 "R2extent": 5294.6156, 
			 "electric_dipole_moment_norm": 3.5213268309, 
			 "electric_quadrupole_moment_norm": 8.9747360184, 
			 "total_energy": -786.325607342, 
			 "HOMO_LUMO_gap": 0.23122, 
			 "cosmo_polarized_energy": -13.93, 
			 "cosmo_cavitation_energy": 36.39, 
			 "cosmo_dispersion_energy": -25.32, 
			 "cosmo_repulsion_energy": 2.01, 
			 "cosmo_total_nonelectrostatic_energy": 13.07, 
			 "SMD_solvation_energy": 7.51 
		},
		"coords": [
			{
				"x": -3.6602422211,
				"y": 1.331593635,
				"z": 2.9921134162,
				"element": "C" 
			},
			{
				"x": -2.3812661544,
				"y": 1.5572075378,
				"z": 3.8122924531,
				"element": "C" 
			},
			{
				"x": -1.7552726427,
				"y": 2.9300712043,
				"z": 3.5248045707,
				"element": "C" 
			},
			{
				"x": -1.3754402542,
				"y": 0.4218672501,
				"z": 3.6256271551,
				"element": "C" 
			},
			{
				"x": -0.9641306498,
				"y": 0.393341412,
				"z": 2.2433334959,
				"element": "O" 
			},
			{
				"x": -0.0393207912,
				"y": -0.5606746476,
				"z": 1.9400386582,
				"element": "C" 
			},
			{
				"x": 0.4168994553,
				"y": -1.3359132972,
				"z": 2.7664023922,
				"element": "O" 
			},
			{
				"x": 0.2996577669,
				"y": -0.5420892627,
				"z": 0.6148063514,
				"element": "N" 
			},
			{
				"x": -0.2222249901,
				"y": 0.4011745405,
				"z": -0.3700024368,
				"element": "C" 
			},
			{
				"x": -0.7954321547,
				"y": -0.3468831031,
				"z": -1.5817268369,
				"element": "C" 
			},
			{
				"x": 0.2290358762,
				"y": -1.339541133,
				"z": -2.1813992174,
				"element": "C" 
			},
			{
				"x": 0.7941843243,
				"y": -2.2622130257,
				"z": -1.0865574334,
				"element": "C" 
			},
			{
				"x": 1.3154804731,
				"y": -1.4730233548,
				"z": 0.122246738,
				"element": "C" 
			},
			{
				"x": 1.341656609,
				"y": -0.6306756476,
				"z": -2.9440156303,
				"element": "C" 
			},
			{
				"x": 0.8500955332,
				"y": 0.2194016324,
				"z": -3.8806273753,
				"element": "O" 
			},
			{
				"x": 2.5331836082,
				"y": -0.7935108006,
				"z": -2.7896448197,
				"element": "O" 
			},
			{
				"x": -3.4427268495,
				"y": 1.3371275972,
				"z": 1.9194991396,
				"element": "H" 
			},
			{
				"x": -4.1243640126,
				"y": 0.3692408595,
				"z": 3.2345710326,
				"element": "H" 
			},
			{
				"x": -4.3952440224,
				"y": 2.1183803631,
				"z": 3.1909894264,
				"element": "H" 
			},
			{
				"x": -2.6514136953,
				"y": 1.5234002849,
				"z": 4.8780851374,
				"element": "H" 
			},
			{
				"x": -1.4454955221,
				"y": 3.0065377176,
				"z": 2.4779617118,
				"element": "H" 
			},
			{
				"x": -0.871383234,
				"y": 3.1029405102,
				"z": 4.1485226241,
				"element": "H" 
			},
			{
				"x": -2.4702816347,
				"y": 3.7347100883,
				"z": 3.7251487912,
				"element": "H" 
			},
			{
				"x": -1.8153438371,
				"y": -0.5468365249,
				"z": 3.8857800442,
				"element": "H" 
			},
			{
				"x": -0.4917764095,
				"y": 0.5637197921,
				"z": 4.256297208,
				"element": "H" 
			},
			{
				"x": 0.5897166362,
				"y": 1.0714127518,
				"z": -0.6948803348,
				"element": "H" 
			},
			{
				"x": -0.9880732995,
				"y": 1.0166720587,
				"z": 0.0973253144,
				"element": "H" 
			},
			{
				"x": -1.6750223502,
				"y": -0.9156252764,
				"z": -1.2592321666,
				"element": "H" 
			},
			{
				"x": -1.1222443656,
				"y": 0.3686784176,
				"z": -2.3413277551,
				"element": "H" 
			},
			{
				"x": -0.2917618275,
				"y": -1.942999647,
				"z": -2.9374162015,
				"element": "H" 
			},
			{
				"x": 1.6041560918,
				"y": -2.8748154192,
				"z": -1.492503822,
				"element": "H" 
			},
			{
				"x": -0.0046809782,
				"y": -2.9363161555,
				"z": -0.7566985407,
				"element": "H" 
			},
			{
				"x": 2.2136942482,
				"y": -0.9122981006,
				"z": -0.1676794551,
				"element": "H" 
			},
			{
				"x": 1.578083442,
				"y": -2.1384638472,
				"z": 0.9440402867,
				"element": "H" 
			},
			{
				"x": 1.6238978322,
				"y": 0.6033015901,
				"z": -4.3265739216,
				"element": "H" 
			}
		],
		 "valence_orbital": [ 
			{
				"type": "occ",
				"energy": -0.3216,
				"method": "rhf"
			},
			{
				"type": "occ",
				"energy": -0.2859,
				"method": "rhf"
			},
			{
				"type": "occ",
				"energy": -0.2797,
				"method": "rhf"
			},
			{
				"type": "occ",
				"energy": -0.26066,
				"method": "rhf"
			},
			{
				"type": "occ",
				"energy": -0.23222,
				"method": "rhf"
			},
			{
				"type": "unocc",
				"energy": -0.001,
				"method": "rhf"
			},
			{
				"type": "unocc",
				"energy": 0.05754,
				"method": "rhf"
			},
			{
				"type": "unocc",
				"energy": 0.07211,
				"method": "rhf"
			},
			{
				"type": "unocc",
				"energy": 0.07662,
				"method": "rhf"
			},
			{
				"type": "unocc",
				"energy": 0.09297,
				"method": "rhf"
			}
		],
		"cosmo_sigma_profile": { 
			"-0.025": 0.0,
			"-0.024": 0.0,
			"-0.023": 0.0,
			"-0.022": 0.0,
			"-0.021": 0.0,
			"-0.02": 0.0,
			"-0.019": 0.0,
			"-0.018": 0.53735098679,
			"-0.017": 0.947988598938,
			"-0.016": 0.941975750359,
			"-0.015": 0.660738393667,
			"-0.014": 1.12805428268,
			"-0.013": 0.487339730985,
			"-0.012": 0.548477726654,
			"-0.011": 0.414904325068,
			"-0.01": 0.936653116187,
			"-0.009": 0.862301967435,
			"-0.008": 0.167039910622,
			"-0.007": 1.48540748081,
			"-0.006": 4.13041919425,
			"-0.005": 7.33167002744,
			"-0.004": 23.062611899,
			"-0.003": 41.7434544119,
			"-0.002": 38.4215935498,
			"-0.001": 32.8620921937,
			"0.0": 27.3941905031,
			"0.001": 26.0629284906,
			"0.002": 13.7469847648,
			"0.003": 9.97990251561,
			"0.004": 5.97643256381,
			"0.005": 5.5462853462,
			"0.006": 4.31842076793,
			"0.007": 4.46608184333,
			"0.008": 4.04693927525,
			"0.009": 2.99313619914,
			"0.01": 3.28298614789,
			"0.011": 5.22827488766,
			"0.012": 5.53355925326,
			"0.013": 3.33517312808,
			"0.014": 3.73232865649,
			"0.015": 0.0153309556624,
			"0.016": 0.0,
			"0.017": 0.0,
			"0.018": 0.0,
			"0.019": 0.0,
			"0.02": 0.0,
			"0.021": 0.0,
			"0.022": 0.0,
			"0.023": 0.0,
			"0.024": 0.0,
			"0.025": 0.0
		}
	}
}
