{
	 "smiles": "CC(C)(C)OC(=O)NC(C)(C)CC1=CC=CC=C1", 
	 "Tm": 325.15, 
	 "num_atms": 41, 
	 "gaussian": { 
		 "optdone": 1, 
		 "sigma_profile": "yes", 
		 "theory": "DFT", 
		 "functional": "B3LYP", 
		 "basiset": "6-31G**", 
		 "properties": { 
			 "R2extent": 6207.321, 
			 "electric_dipole_moment_norm": 2.2130199502, 
			 "electric_quadrupole_moment_norm": 14.7624363477, 
			 "total_energy": -790.710392916, 
			 "HOMO_LUMO_gap": 0.23115, 
			 "cosmo_polarized_energy": -9.9, 
			 "cosmo_cavitation_energy": 41.32, 
			 "cosmo_dispersion_energy": -27.26, 
			 "cosmo_repulsion_energy": 2.1, 
			 "cosmo_total_nonelectrostatic_energy": 16.16, 
			 "SMD_solvation_energy": 7.73 
		},
		"coords": [
			{
				"x": 3.4640610306,
				"y": 1.9852993365,
				"z": 2.7082485224,
				"element": "C" 
			},
			{
				"x": 2.6689765613,
				"y": 2.6179284824,
				"z": 1.5609268141,
				"element": "C" 
			},
			{
				"x": 3.5468480137,
				"y": 3.4902557807,
				"z": 0.6570081011,
				"element": "C" 
			},
			{
				"x": 1.4854606309,
				"y": 3.4235555569,
				"z": 2.1041062042,
				"element": "C" 
			},
			{
				"x": 2.0077888492,
				"y": 1.5695427099,
				"z": 0.764987371,
				"element": "O" 
			},
			{
				"x": 2.7426662275,
				"y": 0.6380732131,
				"z": 0.1053752129,
				"element": "C" 
			},
			{
				"x": 3.9632057191,
				"y": 0.5653405158,
				"z": 0.1062490348,
				"element": "O" 
			},
			{
				"x": 1.9600970862,
				"y": -0.2440136802,
				"z": -0.5892523921,
				"element": "N" 
			},
			{
				"x": 0.4906309039,
				"y": -0.3712414325,
				"z": -0.7117561393,
				"element": "C" 
			},
			{
				"x": -0.1157865234,
				"y": 0.9080119444,
				"z": -1.3147927184,
				"element": "C" 
			},
			{
				"x": 0.2622962292,
				"y": -1.5431677361,
				"z": -1.6806259155,
				"element": "C" 
			},
			{
				"x": -0.1044322763,
				"y": -0.7004137111,
				"z": 0.6976370747,
				"element": "C" 
			},
			{
				"x": -1.6016912677,
				"y": -0.9189810545,
				"z": 0.7649223998,
				"element": "C" 
			},
			{
				"x": -2.4783018107,
				"y": 0.1532406435,
				"z": 0.9919436849,
				"element": "C" 
			},
			{
				"x": -3.85815379,
				"y": -0.0441021021,
				"z": 1.0574678505,
				"element": "C" 
			},
			{
				"x": -4.3917282663,
				"y": -1.3250206115,
				"z": 0.9035177668,
				"element": "C" 
			},
			{
				"x": -3.5334163366,
				"y": -2.4047465009,
				"z": 0.6897068948,
				"element": "C" 
			},
			{
				"x": -2.1541211754,
				"y": -2.2011418945,
				"z": 0.6241955737,
				"element": "C" 
			},
			{
				"x": 3.8577351142,
				"y": 2.7725918656,
				"z": 3.3595601945,
				"element": "H" 
			},
			{
				"x": 4.2950519935,
				"y": 1.3932271765,
				"z": 2.325305671,
				"element": "H" 
			},
			{
				"x": 2.8151882823,
				"y": 1.3407096902,
				"z": 3.309959207,
				"element": "H" 
			},
			{
				"x": 2.956236531,
				"y": 3.8921208693,
				"z": -0.172555158,
				"element": "H" 
			},
			{
				"x": 4.3805038169,
				"y": 2.9162240329,
				"z": 0.2529446191,
				"element": "H" 
			},
			{
				"x": 3.9411428747,
				"y": 4.3340890761,
				"z": 1.2327404991,
				"element": "H" 
			},
			{
				"x": 0.8333861325,
				"y": 2.7923686838,
				"z": 2.7152518725,
				"element": "H" 
			},
			{
				"x": 0.8935025893,
				"y": 3.8443206709,
				"z": 1.2857931147,
				"element": "H" 
			},
			{
				"x": 1.8475726657,
				"y": 4.2477477785,
				"z": 2.7259140783,
				"element": "H" 
			},
			{
				"x": 2.522838082,
				"y": -0.944634645,
				"z": -1.0488359548,
				"element": "H" 
			},
			{
				"x": 0.0530609447,
				"y": 1.7682737612,
				"z": -0.6653545356,
				"element": "H" 
			},
			{
				"x": -1.1921543891,
				"y": 0.7870067597,
				"z": -1.4627618166,
				"element": "H" 
			},
			{
				"x": 0.3450548476,
				"y": 1.1153128677,
				"z": -2.2856581758,
				"element": "H" 
			},
			{
				"x": 0.7053376689,
				"y": -2.4685054432,
				"z": -1.2940964722,
				"element": "H" 
			},
			{
				"x": 0.7096317993,
				"y": -1.3269117322,
				"z": -2.6567028557,
				"element": "H" 
			},
			{
				"x": -0.8056515557,
				"y": -1.7163256784,
				"z": -1.8270296552,
				"element": "H" 
			},
			{
				"x": 0.1747805846,
				"y": 0.1179926809,
				"z": 1.3657821699,
				"element": "H" 
			},
			{
				"x": 0.4119230927,
				"y": -1.5970372971,
				"z": 1.0597817142,
				"element": "H" 
			},
			{
				"x": -2.0720520059,
				"y": 1.1525310365,
				"z": 1.1257960972,
				"element": "H" 
			},
			{
				"x": -4.5159525139,
				"y": 0.8020326495,
				"z": 1.2363133586,
				"element": "H" 
			},
			{
				"x": -5.4652235798,
				"y": -1.4813607093,
				"z": 0.958672228,
				"element": "H" 
			},
			{
				"x": -3.9362512834,
				"y": -3.4079863122,
				"z": 0.5808776599,
				"element": "H" 
			},
			{
				"x": -1.4937614974,
				"y": -3.0513072416,
				"z": 0.4719367994,
				"element": "H" 
			}
		],
		 "valence_orbital": [ 
			{
				"type": "occ",
				"energy": -0.28461,
				"method": "rhf"
			},
			{
				"type": "occ",
				"energy": -0.25635,
				"method": "rhf"
			},
			{
				"type": "occ",
				"energy": -0.25267,
				"method": "rhf"
			},
			{
				"type": "occ",
				"energy": -0.24918,
				"method": "rhf"
			},
			{
				"type": "occ",
				"energy": -0.23376,
				"method": "rhf"
			},
			{
				"type": "unocc",
				"energy": -0.00261,
				"method": "rhf"
			},
			{
				"type": "unocc",
				"energy": -0.00151,
				"method": "rhf"
			},
			{
				"type": "unocc",
				"energy": 0.0606,
				"method": "rhf"
			},
			{
				"type": "unocc",
				"energy": 0.0699,
				"method": "rhf"
			},
			{
				"type": "unocc",
				"energy": 0.08681,
				"method": "rhf"
			}
		],
		"cosmo_sigma_profile": { 
			"-0.025": 0.0,
			"-0.024": 0.0,
			"-0.023": 0.0,
			"-0.022": 0.0,
			"-0.021": 0.0,
			"-0.02": 0.0,
			"-0.019": 0.0,
			"-0.018": 0.0,
			"-0.017": 0.0,
			"-0.016": 0.0,
			"-0.015": 0.0,
			"-0.014": 0.0,
			"-0.013": 0.206189006618,
			"-0.012": 0.832239127468,
			"-0.011": 0.808868735967,
			"-0.01": 0.697892980616,
			"-0.009": 0.759661806646,
			"-0.008": 1.13964632513,
			"-0.007": 1.18982330909,
			"-0.006": 2.75274974251,
			"-0.005": 9.65934156331,
			"-0.004": 26.8399604292,
			"-0.003": 38.9783427763,
			"-0.002": 35.3928093016,
			"-0.001": 36.6208332888,
			"0.0": 45.2114051947,
			"0.001": 40.9053268502,
			"0.002": 20.5239640687,
			"0.003": 13.3444638779,
			"0.004": 10.2445102496,
			"0.005": 9.39149384715,
			"0.006": 10.0077033217,
			"0.007": 3.19924881448,
			"0.008": 1.67510374085,
			"0.009": 1.48216770363,
			"0.01": 1.19231362315,
			"0.011": 1.3720991818,
			"0.012": 1.54823653728,
			"0.013": 2.75761832244,
			"0.014": 3.11575001869,
			"0.015": 0.363104158549,
			"0.016": 0.0,
			"0.017": 0.0,
			"0.018": 0.0,
			"0.019": 0.0,
			"0.02": 0.0,
			"0.021": 0.0,
			"0.022": 0.0,
			"0.023": 0.0,
			"0.024": 0.0,
			"0.025": 0.0
		}
	}
}
