{
	 "smiles": "CC1=CC=C(C=C1)C(=O)C1=NOC2C1C(=O)N(C2=O)C1=CC(Cl)=CC=C1Cl", 
	 "Tm": 464.15, 
	 "num_atms": 39, 
	 "gaussian": { 
		 "optdone": 1, 
		 "sigma_profile": "yes", 
		 "theory": "DFT", 
		 "functional": "B3LYP", 
		 "basiset": "6-31G**", 
		 "properties": { 
			 "R2extent": 14232.8212, 
			 "electric_dipole_moment_norm": 1.92671140807, 
			 "electric_quadrupole_moment_norm": 23.9352253411, 
			 "total_energy": -2061.99022593, 
			 "HOMO_LUMO_gap": 0.16853, 
			 "cosmo_polarized_energy": -20.42, 
			 "cosmo_cavitation_energy": 49.19, 
			 "cosmo_dispersion_energy": -33.45, 
			 "cosmo_repulsion_energy": 2.53, 
			 "cosmo_total_nonelectrostatic_energy": 18.27, 
			 "SMD_solvation_energy": 9.5 
		},
		"coords": [
			{
				"x": 3.8442107351,
				"y": -4.6505153406,
				"z": 3.5711234541,
				"element": "C" 
			},
			{
				"x": 3.4898698748,
				"y": -3.4487419167,
				"z": 2.7308795234,
				"element": "C" 
			},
			{
				"x": 2.6367494125,
				"y": -3.5630424179,
				"z": 1.6259760085,
				"element": "C" 
			},
			{
				"x": 2.3256956263,
				"y": -2.45989069,
				"z": 0.833865254,
				"element": "C" 
			},
			{
				"x": 2.8691526688,
				"y": -1.20117682,
				"z": 1.13486232,
				"element": "C" 
			},
			{
				"x": 3.7183667775,
				"y": -1.0777296642,
				"z": 2.2501909987,
				"element": "C" 
			},
			{
				"x": 4.0236857112,
				"y": -2.1833797927,
				"z": 3.0301123358,
				"element": "C" 
			},
			{
				"x": 2.5773755372,
				"y": 0.0373845619,
				"z": 0.370070069,
				"element": "C" 
			},
			{
				"x": 2.9513406269,
				"y": 1.1434102009,
				"z": 0.747679468,
				"element": "O" 
			},
			{
				"x": 1.8254163631,
				"y": 0.0170137786,
				"z": -0.9279193082,
				"element": "C" 
			},
			{
				"x": 1.786309092,
				"y": -0.977374016,
				"z": -1.7411855672,
				"element": "N" 
			},
			{
				"x": 1.1809308392,
				"y": -0.617345949,
				"z": -2.9301628414,
				"element": "O" 
			},
			{
				"x": 0.8077905874,
				"y": 0.795266138,
				"z": -2.8867796289,
				"element": "C" 
			},
			{
				"x": 1.1773797722,
				"y": 1.2685329392,
				"z": -1.4839989644,
				"element": "C" 
			},
			{
				"x": -0.1609258303,
				"y": 1.584360402,
				"z": -0.7925169565,
				"element": "C" 
			},
			{
				"x": -0.3319819816,
				"y": 1.9827782658,
				"z": 0.3318491968,
				"element": "O" 
			},
			{
				"x": -1.1845505579,
				"y": 1.3222971526,
				"z": -1.7250072289,
				"element": "N" 
			},
			{
				"x": -0.7176917675,
				"y": 0.9170672625,
				"z": -2.9875819382,
				"element": "C" 
			},
			{
				"x": -1.4015180336,
				"y": 0.7126629795,
				"z": -3.9590476926,
				"element": "O" 
			},
			{
				"x": -2.5674726289,
				"y": 1.4884292313,
				"z": -1.4217456852,
				"element": "C" 
			},
			{
				"x": -3.0762821428,
				"y": 2.7783062728,
				"z": -1.257051176,
				"element": "C" 
			},
			{
				"x": -4.4243720845,
				"y": 2.9538021071,
				"z": -0.9590254195,
				"element": "C" 
			},
			{
				"x": -5.0552845094,
				"y": 4.5748647006,
				"z": -0.7541476968,
				"element": "Cl" 
			},
			{
				"x": -5.2769936979,
				"y": 1.8578990536,
				"z": -0.8284380301,
				"element": "C" 
			},
			{
				"x": -4.7666982946,
				"y": 0.5718004734,
				"z": -0.9879823209,
				"element": "C" 
			},
			{
				"x": -3.415216878,
				"y": 0.3814699736,
				"z": -1.2757442149,
				"element": "C" 
			},
			{
				"x": -2.7957007573,
				"y": -1.2433319606,
				"z": -1.4275370695,
				"element": "Cl" 
			},
			{
				"x": 3.1532158439,
				"y": -5.4798551093,
				"z": 3.398287602,
				"element": "H" 
			},
			{
				"x": 4.854670968,
				"y": -5.0073960872,
				"z": 3.3360509837,
				"element": "H" 
			},
			{
				"x": 3.8292950664,
				"y": -4.4090398982,
				"z": 4.6388263633,
				"element": "H" 
			},
			{
				"x": 2.2056574478,
				"y": -4.5305232864,
				"z": 1.3828397053,
				"element": "H" 
			},
			{
				"x": 1.6663888224,
				"y": -2.5804994818,
				"z": -0.0164041048,
				"element": "H" 
			},
			{
				"x": 4.1233436691,
				"y": -0.0989984467,
				"z": 2.4836094314,
				"element": "H" 
			},
			{
				"x": 4.6823938632,
				"y": -2.0706335683,
				"z": 3.8875675437,
				"element": "H" 
			},
			{
				"x": 1.2918854939,
				"y": 1.2961246231,
				"z": -3.7276525611,
				"element": "H" 
			},
			{
				"x": 1.840708645,
				"y": 2.1319444919,
				"z": -1.4021449185,
				"element": "H" 
			},
			{
				"x": -2.4176272316,
				"y": 3.6318106,
				"z": -1.362042714,
				"element": "H" 
			},
			{
				"x": -6.3263827427,
				"y": 2.006914823,
				"z": -0.6012279078,
				"element": "H" 
			},
			{
				"x": -5.4151343054,
				"y": -0.2904655858,
				"z": -0.8831463122,
				"element": "H" 
			}
		],
		 "valence_orbital": [ 
			{
				"type": "occ",
				"energy": -0.27131,
				"method": "rhf"
			},
			{
				"type": "occ",
				"energy": -0.26575,
				"method": "rhf"
			},
			{
				"type": "occ",
				"energy": -0.26125,
				"method": "rhf"
			},
			{
				"type": "occ",
				"energy": -0.25666,
				"method": "rhf"
			},
			{
				"type": "occ",
				"energy": -0.25428,
				"method": "rhf"
			},
			{
				"type": "unocc",
				"energy": -0.08575,
				"method": "rhf"
			},
			{
				"type": "unocc",
				"energy": -0.05077,
				"method": "rhf"
			},
			{
				"type": "unocc",
				"energy": -0.04489,
				"method": "rhf"
			},
			{
				"type": "unocc",
				"energy": -0.03729,
				"method": "rhf"
			},
			{
				"type": "unocc",
				"energy": -0.02809,
				"method": "rhf"
			}
		],
		"cosmo_sigma_profile": { 
			"-0.025": 0.0,
			"-0.024": 0.0,
			"-0.023": 0.0,
			"-0.022": 0.0,
			"-0.021": 0.0,
			"-0.02": 0.0,
			"-0.019": 0.0,
			"-0.018": 0.0,
			"-0.017": 0.0,
			"-0.016": 0.0,
			"-0.015": 0.0,
			"-0.014": 0.0,
			"-0.013": 0.144313379775,
			"-0.012": 1.11342143823,
			"-0.011": 2.19256729655,
			"-0.01": 8.83781333878,
			"-0.009": 10.4055828772,
			"-0.008": 9.30501830235,
			"-0.007": 9.34782949387,
			"-0.006": 13.038134484,
			"-0.005": 19.9990499714,
			"-0.004": 26.7323073221,
			"-0.003": 23.0426143653,
			"-0.002": 25.6923554419,
			"-0.001": 31.5483892194,
			"0.0": 37.3629613497,
			"0.001": 32.6816341671,
			"0.002": 25.01562952,
			"0.003": 32.8980241446,
			"0.004": 25.4580692373,
			"0.005": 10.6447665591,
			"0.006": 8.31226803286,
			"0.007": 8.79435223041,
			"0.008": 9.81711805701,
			"0.009": 9.47191880303,
			"0.01": 13.0010391341,
			"0.011": 5.23422013651,
			"0.012": 0.0667994073213,
			"0.013": 0.0,
			"0.014": 0.0,
			"0.015": 0.0,
			"0.016": 0.0,
			"0.017": 0.0,
			"0.018": 0.0,
			"0.019": 0.0,
			"0.02": 0.0,
			"0.021": 0.0,
			"0.022": 0.0,
			"0.023": 0.0,
			"0.024": 0.0,
			"0.025": 0.0
		}
	}
}
