{
	 "smiles": "COC(=O)C1=CC2=C(C=C1)N=C(N)O2", 
	 "Tm": 502.15, 
	 "num_atms": 22, 
	 "gaussian": { 
		 "optdone": 1, 
		 "sigma_profile": "yes", 
		 "theory": "DFT", 
		 "functional": "B3LYP", 
		 "basiset": "6-31G**", 
		 "properties": { 
			 "R2extent": 3721.2245, 
			 "electric_dipole_moment_norm": 4.48899363666, 
			 "electric_quadrupole_moment_norm": 16.772866845, 
			 "total_energy": -682.972194357, 
			 "HOMO_LUMO_gap": 0.18007, 
			 "cosmo_polarized_energy": -14.98, 
			 "cosmo_cavitation_energy": 27.33, 
			 "cosmo_dispersion_energy": -20.58, 
			 "cosmo_repulsion_energy": 1.62, 
			 "cosmo_total_nonelectrostatic_energy": 8.36, 
			 "SMD_solvation_energy": 4.62 
		},
		"coords": [
			{
				"x": 2.6793326139,
				"y": 3.0835634518,
				"z": -1.5428352227,
				"element": "C" 
			},
			{
				"x": 2.1664036209,
				"y": 1.8078978924,
				"z": -1.1345476252,
				"element": "O" 
			},
			{
				"x": 0.9382286208,
				"y": 1.8395171127,
				"z": -0.5584724428,
				"element": "C" 
			},
			{
				"x": 0.3146046508,
				"y": 2.8717977308,
				"z": -0.3972853464,
				"element": "O" 
			},
			{
				"x": 0.4636569445,
				"y": 0.4898693966,
				"z": -0.1596624124,
				"element": "C" 
			},
			{
				"x": 1.245998069,
				"y": -0.6607059225,
				"z": -0.3802945784,
				"element": "C" 
			},
			{
				"x": 0.6875609015,
				"y": -1.8483636175,
				"z": 0.0357302797,
				"element": "C" 
			},
			{
				"x": -0.5725258574,
				"y": -1.9685299767,
				"z": 0.6468711528,
				"element": "C" 
			},
			{
				"x": -1.3392199322,
				"y": -0.8199089131,
				"z": 0.8608635568,
				"element": "C" 
			},
			{
				"x": -0.8036917009,
				"y": 0.3987842312,
				"z": 0.4505332491,
				"element": "C" 
			},
			{
				"x": -0.8166678667,
				"y": -3.3072459889,
				"z": 0.9426716097,
				"element": "N" 
			},
			{
				"x": 0.2521790769,
				"y": -3.9120490022,
				"z": 0.5109712019,
				"element": "C" 
			},
			{
				"x": 0.5044716336,
				"y": -5.2470502584,
				"z": 0.5074988369,
				"element": "N" 
			},
			{
				"x": 1.2220122171,
				"y": -3.1248113331,
				"z": -0.0511869451,
				"element": "O" 
			},
			{
				"x": 2.019182871,
				"y": 3.5477464718,
				"z": -2.280067297,
				"element": "H" 
			},
			{
				"x": 3.6579454046,
				"y": 2.8820510099,
				"z": -1.9791492007,
				"element": "H" 
			},
			{
				"x": 2.7727262667,
				"y": 3.75514674,
				"z": -0.6854840625,
				"element": "H" 
			},
			{
				"x": 2.220068538,
				"y": -0.6018012335,
				"z": -0.8483835576,
				"element": "H" 
			},
			{
				"x": -2.3149636005,
				"y": -0.8832487514,
				"z": 1.3298324752,
				"element": "H" 
			},
			{
				"x": -1.3574245537,
				"y": 1.3202679768,
				"z": 0.5926558333,
				"element": "H" 
			},
			{
				"x": 1.4701909078,
				"y": -5.5321951533,
				"z": 0.4471523189,
				"element": "H" 
			},
			{
				"x": -0.0924688259,
				"y": -5.7976318634,
				"z": 1.1057881766,
				"element": "H" 
			}
		],
		 "valence_orbital": [ 
			{
				"type": "occ",
				"energy": -0.29529,
				"method": "rhf"
			},
			{
				"type": "occ",
				"energy": -0.29202,
				"method": "rhf"
			},
			{
				"type": "occ",
				"energy": -0.26707,
				"method": "rhf"
			},
			{
				"type": "occ",
				"energy": -0.24773,
				"method": "rhf"
			},
			{
				"type": "occ",
				"energy": -0.21949,
				"method": "rhf"
			},
			{
				"type": "unocc",
				"energy": -0.03942,
				"method": "rhf"
			},
			{
				"type": "unocc",
				"energy": -0.00014,
				"method": "rhf"
			},
			{
				"type": "unocc",
				"energy": 0.03651,
				"method": "rhf"
			},
			{
				"type": "unocc",
				"energy": 0.06476,
				"method": "rhf"
			},
			{
				"type": "unocc",
				"energy": 0.08244,
				"method": "rhf"
			}
		],
		"cosmo_sigma_profile": { 
			"-0.025": 0.0,
			"-0.024": 0.0,
			"-0.023": 0.0,
			"-0.022": 0.0,
			"-0.021": 0.0,
			"-0.02": 0.0,
			"-0.019": 0.0,
			"-0.018": 0.0,
			"-0.017": 0.0,
			"-0.016": 0.482437927154,
			"-0.015": 2.31736967402,
			"-0.014": 2.82110104074,
			"-0.013": 2.33407636198,
			"-0.012": 2.13228085163,
			"-0.011": 2.07543956303,
			"-0.01": 1.70759202689,
			"-0.009": 2.31799682276,
			"-0.008": 1.68541576831,
			"-0.007": 4.32755209912,
			"-0.006": 9.35910742034,
			"-0.005": 11.2642550134,
			"-0.004": 15.0024580801,
			"-0.003": 15.851893137,
			"-0.002": 14.747945459,
			"-0.001": 12.0869170103,
			"0.0": 13.165737472,
			"0.001": 16.8709659289,
			"0.002": 19.8093141374,
			"0.003": 17.7191044002,
			"0.004": 11.0277642465,
			"0.005": 7.26436800256,
			"0.006": 6.1379950046,
			"0.007": 3.67676575577,
			"0.008": 3.37076144483,
			"0.009": 3.1781238767,
			"0.01": 2.28103635853,
			"0.011": 4.25022708703,
			"0.012": 5.20924126891,
			"0.013": 1.72170763024,
			"0.014": 0.946051386466,
			"0.015": 1.11737149851,
			"0.016": 0.578402191072,
			"0.017": 0.0,
			"0.018": 0.0,
			"0.019": 0.0,
			"0.02": 0.0,
			"0.021": 0.0,
			"0.022": 0.0,
			"0.023": 0.0,
			"0.024": 0.0,
			"0.025": 0.0
		}
	}
}
