{
	 "smiles": "NNC(=O)CSC1=C(O)C=CC=C1", 
	 "Tm": 408.15, 
	 "num_atms": 23, 
	 "gaussian": { 
		 "optdone": 1, 
		 "sigma_profile": "yes", 
		 "theory": "DFT", 
		 "functional": "B3LYP", 
		 "basiset": "6-31G**", 
		 "properties": { 
			 "R2extent": 3640.5819, 
			 "electric_dipole_moment_norm": 3.41607389557, 
			 "electric_quadrupole_moment_norm": 9.67225366706, 
			 "total_energy": -968.990803061, 
			 "HOMO_LUMO_gap": 0.19764, 
			 "cosmo_polarized_energy": -16.82, 
			 "cosmo_cavitation_energy": 28.48, 
			 "cosmo_dispersion_energy": -20.76, 
			 "cosmo_repulsion_energy": 1.62, 
			 "cosmo_total_nonelectrostatic_energy": 9.33, 
			 "SMD_solvation_energy": 5.75 
		},
		"coords": [
			{
				"x": 2.660260405,
				"y": 0.5235598769,
				"z": 1.4506119348,
				"element": "N" 
			},
			{
				"x": 1.3587601025,
				"y": 0.8554463426,
				"z": 1.8955507761,
				"element": "N" 
			},
			{
				"x": 0.743081654,
				"y": 1.9664766095,
				"z": 1.4178453704,
				"element": "C" 
			},
			{
				"x": 1.3133603055,
				"y": 2.7913814716,
				"z": 0.7083150437,
				"element": "O" 
			},
			{
				"x": -0.7196583099,
				"y": 2.1947461658,
				"z": 1.8096659888,
				"element": "C" 
			},
			{
				"x": -1.643637355,
				"y": 0.8783154129,
				"z": 2.7061990616,
				"element": "S" 
			},
			{
				"x": -2.034411233,
				"y": -0.2686835366,
				"z": 1.3825513588,
				"element": "C" 
			},
			{
				"x": -1.2949672451,
				"y": -1.4540544757,
				"z": 1.2057857347,
				"element": "C" 
			},
			{
				"x": -0.2458602389,
				"y": -1.6978029927,
				"z": 2.0488903672,
				"element": "O" 
			},
			{
				"x": -1.638540839,
				"y": -2.3511092086,
				"z": 0.1881920706,
				"element": "C" 
			},
			{
				"x": -2.7143730665,
				"y": -2.0785244387,
				"z": -0.6539733421,
				"element": "C" 
			},
			{
				"x": -3.4622742175,
				"y": -0.9123001013,
				"z": -0.4849394356,
				"element": "C" 
			},
			{
				"x": -3.1223787585,
				"y": -0.0241113789,
				"z": 0.5345022489,
				"element": "C" 
			},
			{
				"x": 3.3202480784,
				"y": 1.0241554559,
				"z": 2.0470776778,
				"element": "H" 
			},
			{
				"x": 2.7584617701,
				"y": 0.9615374021,
				"z": 0.5324103368,
				"element": "H" 
			},
			{
				"x": 0.8235188253,
				"y": 0.0813026121,
				"z": 2.2721522326,
				"element": "H" 
			},
			{
				"x": -1.2610146311,
				"y": 2.4764928952,
				"z": 0.9037329293,
				"element": "H" 
			},
			{
				"x": -0.7443419861,
				"y": 3.0620525438,
				"z": 2.4773896311,
				"element": "H" 
			},
			{
				"x": 0.2348559294,
				"y": -2.4798852777,
				"z": 1.746911111,
				"element": "H" 
			},
			{
				"x": -1.0587598046,
				"y": -3.2627312301,
				"z": 0.0593126601,
				"element": "H" 
			},
			{
				"x": -2.9681235471,
				"y": -2.7837612917,
				"z": -1.4397943677,
				"element": "H" 
			},
			{
				"x": -4.3059316849,
				"y": -0.700241435,
				"z": -1.1337162066,
				"element": "H" 
			},
			{
				"x": -3.703674153,
				"y": 0.8798385786,
				"z": 0.6887268177,
				"element": "H" 
			}
		],
		 "valence_orbital": [ 
			{
				"type": "occ",
				"energy": -0.26728,
				"method": "rhf"
			},
			{
				"type": "occ",
				"energy": -0.25916,
				"method": "rhf"
			},
			{
				"type": "occ",
				"energy": -0.24162,
				"method": "rhf"
			},
			{
				"type": "occ",
				"energy": -0.24006,
				"method": "rhf"
			},
			{
				"type": "occ",
				"energy": -0.22664,
				"method": "rhf"
			},
			{
				"type": "unocc",
				"energy": -0.029,
				"method": "rhf"
			},
			{
				"type": "unocc",
				"energy": -0.00581,
				"method": "rhf"
			},
			{
				"type": "unocc",
				"energy": 0.02949,
				"method": "rhf"
			},
			{
				"type": "unocc",
				"energy": 0.04497,
				"method": "rhf"
			},
			{
				"type": "unocc",
				"energy": 0.05498,
				"method": "rhf"
			}
		],
		"cosmo_sigma_profile": { 
			"-0.025": 0.0,
			"-0.024": 0.0,
			"-0.023": 0.0,
			"-0.022": 0.0,
			"-0.021": 0.0,
			"-0.02": 0.0,
			"-0.019": 0.156453412008,
			"-0.018": 1.01035846116,
			"-0.017": 1.32819975586,
			"-0.016": 0.824213524219,
			"-0.015": 1.20721731069,
			"-0.014": 1.38068506955,
			"-0.013": 0.625174664714,
			"-0.012": 1.02759076937,
			"-0.011": 2.6281450747,
			"-0.01": 3.06790918946,
			"-0.009": 3.75664048563,
			"-0.008": 4.67354265684,
			"-0.007": 7.28802089395,
			"-0.006": 13.2379063796,
			"-0.005": 13.6468763273,
			"-0.004": 15.0239863781,
			"-0.003": 12.2365723554,
			"-0.002": 12.4451217184,
			"-0.001": 13.1587457237,
			"0.0": 12.5766374748,
			"0.001": 14.4010981456,
			"0.002": 13.9505182728,
			"0.003": 13.99385101,
			"0.004": 15.6466691256,
			"0.005": 11.8931261903,
			"0.006": 4.98015583239,
			"0.007": 4.42282192957,
			"0.008": 4.96516321797,
			"0.009": 3.41589593357,
			"0.01": 2.52912787909,
			"0.011": 1.9514483486,
			"0.012": 2.96272040747,
			"0.013": 5.28624309366,
			"0.014": 4.13347491307,
			"0.015": 0.891441084692,
			"0.016": 0.940747703797,
			"0.017": 0.145792940456,
			"0.018": 0.0,
			"0.019": 0.0,
			"0.02": 0.0,
			"0.021": 0.0,
			"0.022": 0.0,
			"0.023": 0.0,
			"0.024": 0.0,
			"0.025": 0.0
		}
	}
}
