{
	 "smiles": "COC1=C(C=C(Cl)C=C1)N1CC(CC1=O)C(O)=O", 
	 "Tm": 425.15, 
	 "num_atms": 30, 
	 "gaussian": { 
		 "optdone": 1, 
		 "sigma_profile": "yes", 
		 "theory": "DFT", 
		 "functional": "B3LYP", 
		 "basiset": "6-31G**", 
		 "properties": { 
			 "R2extent": 6030.7807, 
			 "electric_dipole_moment_norm": 5.12122346808, 
			 "electric_quadrupole_moment_norm": 34.6204918781, 
			 "total_energy": -1280.35953302, 
			 "HOMO_LUMO_gap": 0.20203, 
			 "cosmo_polarized_energy": -20.86, 
			 "cosmo_cavitation_energy": 35.09, 
			 "cosmo_dispersion_energy": -24.77, 
			 "cosmo_repulsion_energy": 1.91, 
			 "cosmo_total_nonelectrostatic_energy": 12.23, 
			 "SMD_solvation_energy": 8.05 
		},
		"coords": [
			{
				"x": 2.9614045042,
				"y": -2.4149909094,
				"z": -1.3384995936,
				"element": "C" 
			},
			{
				"x": 2.1082396743,
				"y": -1.4372874828,
				"z": -0.7439651794,
				"element": "O" 
			},
			{
				"x": 2.2507430689,
				"y": -1.1482941432,
				"z": 0.5871343592,
				"element": "C" 
			},
			{
				"x": 1.3148441425,
				"y": -0.232762436,
				"z": 1.1133461113,
				"element": "C" 
			},
			{
				"x": 1.3472019057,
				"y": 0.0879686707,
				"z": 2.4695393498,
				"element": "C" 
			},
			{
				"x": 2.3198166387,
				"y": -0.4837859919,
				"z": 3.2896373869,
				"element": "C" 
			},
			{
				"x": 2.3566221844,
				"y": -0.0728168976,
				"z": 4.9966331151,
				"element": "Cl" 
			},
			{
				"x": 3.2642088619,
				"y": -1.364600884,
				"z": 2.7721809672,
				"element": "C" 
			},
			{
				"x": 3.2295220657,
				"y": -1.6974718138,
				"z": 1.4155727927,
				"element": "C" 
			},
			{
				"x": 0.3374960584,
				"y": 0.3180659611,
				"z": 0.2454468203,
				"element": "N" 
			},
			{
				"x": 0.6750527908,
				"y": 1.2251895497,
				"z": -0.8620374717,
				"element": "C" 
			},
			{
				"x": -0.6158439207,
				"y": 1.2403172067,
				"z": -1.7077433521,
				"element": "C" 
			},
			{
				"x": -1.7209916156,
				"y": 1.0095396114,
				"z": -0.6477795474,
				"element": "C" 
			},
			{
				"x": -1.0319756158,
				"y": 0.2577528554,
				"z": 0.49021412,
				"element": "C" 
			},
			{
				"x": -1.5601726921,
				"y": -0.289136756,
				"z": 1.4372308703,
				"element": "O" 
			},
			{
				"x": -0.6723845383,
				"y": 0.1679692162,
				"z": -2.8043845807,
				"element": "C" 
			},
			{
				"x": -0.0533116833,
				"y": -1.0103051893,
				"z": -2.5695286336,
				"element": "O" 
			},
			{
				"x": -1.276170051,
				"y": 0.3483977532,
				"z": -3.8344783567,
				"element": "O" 
			},
			{
				"x": 2.8628459457,
				"y": -3.3827000294,
				"z": -0.834272698,
				"element": "H" 
			},
			{
				"x": 2.6269182101,
				"y": -2.5040573808,
				"z": -2.372152222,
				"element": "H" 
			},
			{
				"x": 4.0080386445,
				"y": -2.0912542749,
				"z": -1.3157218362,
				"element": "H" 
			},
			{
				"x": 0.607919077,
				"y": 0.7657467398,
				"z": 2.8770368529,
				"element": "H" 
			},
			{
				"x": 4.0190800647,
				"y": -1.7964283542,
				"z": 3.4193529249,
				"element": "H" 
			},
			{
				"x": 3.9603980428,
				"y": -2.3942634042,
				"z": 1.0237370403,
				"element": "H" 
			},
			{
				"x": 0.9081306418,
				"y": 2.2291724054,
				"z": -0.4822739031,
				"element": "H" 
			},
			{
				"x": 1.5466034375,
				"y": 0.8614869895,
				"z": -1.4106652836,
				"element": "H" 
			},
			{
				"x": -0.7464584262,
				"y": 2.1919008776,
				"z": -2.224269207,
				"element": "H" 
			},
			{
				"x": -2.0955648612,
				"y": 1.9618114688,
				"z": -0.2546941634,
				"element": "H" 
			},
			{
				"x": -2.5837195043,
				"y": 0.4477290744,
				"z": -1.0117772957,
				"element": "H" 
			},
			{
				"x": 0.4177069491,
				"y": -1.0351924324,
				"z": -1.7159193866,
				"element": "H" 
			}
		],
		 "valence_orbital": [ 
			{
				"type": "occ",
				"energy": -0.29526,
				"method": "rhf"
			},
			{
				"type": "occ",
				"energy": -0.26701,
				"method": "rhf"
			},
			{
				"type": "occ",
				"energy": -0.26582,
				"method": "rhf"
			},
			{
				"type": "occ",
				"energy": -0.25563,
				"method": "rhf"
			},
			{
				"type": "occ",
				"energy": -0.23839,
				"method": "rhf"
			},
			{
				"type": "unocc",
				"energy": -0.03636,
				"method": "rhf"
			},
			{
				"type": "unocc",
				"energy": -0.01817,
				"method": "rhf"
			},
			{
				"type": "unocc",
				"energy": 0.00809,
				"method": "rhf"
			},
			{
				"type": "unocc",
				"energy": 0.01243,
				"method": "rhf"
			},
			{
				"type": "unocc",
				"energy": 0.02204,
				"method": "rhf"
			}
		],
		"cosmo_sigma_profile": { 
			"-0.025": 0.0,
			"-0.024": 0.0,
			"-0.023": 0.0,
			"-0.022": 0.0,
			"-0.021": 0.0,
			"-0.02": 0.0,
			"-0.019": 0.0,
			"-0.018": 0.0,
			"-0.017": 0.0,
			"-0.016": 0.0,
			"-0.015": 0.0,
			"-0.014": 0.0,
			"-0.013": 0.0,
			"-0.012": 0.0,
			"-0.011": 0.0,
			"-0.01": 0.000384817774263,
			"-0.009": 0.171605134405,
			"-0.008": 4.68438268974,
			"-0.007": 22.6648176323,
			"-0.006": 29.7212520382,
			"-0.005": 23.2463797596,
			"-0.004": 22.812885783,
			"-0.003": 19.1389434168,
			"-0.002": 13.9527912883,
			"-0.001": 14.4897343634,
			"0.0": 12.7893562464,
			"0.001": 14.9875675535,
			"0.002": 19.3677658681,
			"0.003": 14.3479168609,
			"0.004": 12.7033600079,
			"0.005": 10.2739167225,
			"0.006": 3.10129743151,
			"0.007": 3.80766119877,
			"0.008": 3.27697737798,
			"0.009": 5.04753557595,
			"0.01": 5.25696841048,
			"0.011": 7.69694400636,
			"0.012": 9.759704972,
			"0.013": 7.25252773673,
			"0.014": 1.07892530445,
			"0.015": 0.0,
			"0.016": 0.0,
			"0.017": 0.0,
			"0.018": 0.0,
			"0.019": 0.0,
			"0.02": 0.0,
			"0.021": 0.0,
			"0.022": 0.0,
			"0.023": 0.0,
			"0.024": 0.0,
			"0.025": 0.0
		}
	}
}
