{
	 "smiles": "ClCCC(=O)NC1=CC2=C(NC(=O)N2)C=C1", 
	 "Tm": 573.15, 
	 "num_atms": 26, 
	 "gaussian": { 
		 "optdone": 1, 
		 "sigma_profile": "yes", 
		 "theory": "DFT", 
		 "functional": "B3LYP", 
		 "basiset": "6-31G**", 
		 "properties": { 
			 "R2extent": 5822.572, 
			 "electric_dipole_moment_norm": 3.13213107804, 
			 "electric_quadrupole_moment_norm": 39.8955033059, 
			 "total_energy": -1162.03370183, 
			 "HOMO_LUMO_gap": 0.19245, 
			 "cosmo_polarized_energy": -25.58, 
			 "cosmo_cavitation_energy": 32.44, 
			 "cosmo_dispersion_energy": -23.14, 
			 "cosmo_repulsion_energy": 1.84, 
			 "cosmo_total_nonelectrostatic_energy": 11.14, 
			 "SMD_solvation_energy": 6.29 
		},
		"coords": [
			{
				"x": 1.5388289723,
				"y": 0.6653785215,
				"z": 4.8179034622,
				"element": "Cl" 
			},
			{
				"x": 2.0173674136,
				"y": -0.0986825878,
				"z": 3.2412212191,
				"element": "C" 
			},
			{
				"x": 1.1225873847,
				"y": -1.2791603277,
				"z": 2.8661665343,
				"element": "C" 
			},
			{
				"x": -0.3636647354,
				"y": -0.9465224158,
				"z": 2.726773194,
				"element": "C" 
			},
			{
				"x": -1.1949583026,
				"y": -1.4040294691,
				"z": 3.4944536322,
				"element": "O" 
			},
			{
				"x": -0.7448881678,
				"y": -0.0825016911,
				"z": 1.7175000092,
				"element": "N" 
			},
			{
				"x": 0.0203761943,
				"y": 0.4610207128,
				"z": 0.6450358439,
				"element": "C" 
			},
			{
				"x": 0.5767797624,
				"y": -0.3909489523,
				"z": -0.3268626039,
				"element": "C" 
			},
			{
				"x": 1.2976432571,
				"y": 0.1888410694,
				"z": -1.3611281856,
				"element": "C" 
			},
			{
				"x": 1.4417881334,
				"y": 1.5910851928,
				"z": -1.4609723753,
				"element": "C" 
			},
			{
				"x": 2.1919060835,
				"y": 1.831116309,
				"z": -2.6049567222,
				"element": "N" 
			},
			{
				"x": 2.5320525224,
				"y": 0.640190806,
				"z": -3.2518451844,
				"element": "C" 
			},
			{
				"x": 3.1741552786,
				"y": 0.5001022963,
				"z": -4.2738595225,
				"element": "O" 
			},
			{
				"x": 1.9637133279,
				"y": -0.3556221782,
				"z": -2.4506940168,
				"element": "N" 
			},
			{
				"x": 0.8719417806,
				"y": 2.4351293223,
				"z": -0.5176933083,
				"element": "C" 
			},
			{
				"x": 0.1674406304,
				"y": 1.8522488395,
				"z": 0.5426980929,
				"element": "C" 
			},
			{
				"x": 1.9842692944,
				"y": 0.694642658,
				"z": 2.4952595435,
				"element": "H" 
			},
			{
				"x": 3.0492735941,
				"y": -0.4299175807,
				"z": 3.3650983927,
				"element": "H" 
			},
			{
				"x": 1.5154927503,
				"y": -1.6907854711,
				"z": 1.9289223441,
				"element": "H" 
			},
			{
				"x": 1.1823827114,
				"y": -2.0565993505,
				"z": 3.6296193649,
				"element": "H" 
			},
			{
				"x": -1.7256769097,
				"y": 0.1651957597,
				"z": 1.7737069372,
				"element": "H" 
			},
			{
				"x": 0.4194805487,
				"y": -1.4628385918,
				"z": -0.2723242013,
				"element": "H" 
			},
			{
				"x": 2.4721959647,
				"y": 2.726389916,
				"z": -2.9717542596,
				"element": "H" 
			},
			{
				"x": 2.0436091192,
				"y": -1.3306743202,
				"z": -2.6906643745,
				"element": "H" 
			},
			{
				"x": 0.9744582037,
				"y": 3.513038173,
				"z": -0.5891201047,
				"element": "H" 
			},
			{
				"x": -0.2724548123,
				"y": 2.48110336,
				"z": 1.3098162889,
				"element": "H" 
			}
		],
		 "valence_orbital": [ 
			{
				"type": "occ",
				"energy": -0.28308,
				"method": "rhf"
			},
			{
				"type": "occ",
				"energy": -0.27479,
				"method": "rhf"
			},
			{
				"type": "occ",
				"energy": -0.25455,
				"method": "rhf"
			},
			{
				"type": "occ",
				"energy": -0.25245,
				"method": "rhf"
			},
			{
				"type": "occ",
				"energy": -0.22196,
				"method": "rhf"
			},
			{
				"type": "unocc",
				"energy": -0.02951,
				"method": "rhf"
			},
			{
				"type": "unocc",
				"energy": -0.01544,
				"method": "rhf"
			},
			{
				"type": "unocc",
				"energy": 0.01568,
				"method": "rhf"
			},
			{
				"type": "unocc",
				"energy": 0.03099,
				"method": "rhf"
			},
			{
				"type": "unocc",
				"energy": 0.05394,
				"method": "rhf"
			}
		],
		"cosmo_sigma_profile": { 
			"-0.025": 0.0,
			"-0.024": 0.0,
			"-0.023": 0.0,
			"-0.022": 0.0,
			"-0.021": 0.0,
			"-0.02": 0.0,
			"-0.019": 0.0,
			"-0.018": 0.0,
			"-0.017": 0.269209321603,
			"-0.016": 2.63081432067,
			"-0.015": 2.4518800459,
			"-0.014": 2.90346925521,
			"-0.013": 2.99006119762,
			"-0.012": 3.32714161601,
			"-0.011": 2.77986977012,
			"-0.01": 2.69366444547,
			"-0.009": 3.45308054602,
			"-0.008": 7.22353356905,
			"-0.007": 11.9763843591,
			"-0.006": 12.7873989172,
			"-0.005": 15.9168895121,
			"-0.004": 14.3639415413,
			"-0.003": 13.149698612,
			"-0.002": 12.1480971021,
			"-0.001": 12.9574438587,
			"0.0": 16.7580713288,
			"0.001": 18.9731741701,
			"0.002": 14.7311584007,
			"0.003": 11.8405029131,
			"0.004": 10.8041445634,
			"0.005": 9.04460138125,
			"0.006": 11.1545888392,
			"0.007": 6.76718441214,
			"0.008": 2.73081433167,
			"0.009": 2.59121747583,
			"0.01": 3.09005388984,
			"0.011": 3.47509870219,
			"0.012": 4.0399944196,
			"0.013": 11.3897693428,
			"0.014": 8.33346812866,
			"0.015": 0.45719728567,
			"0.016": 0.0,
			"0.017": 0.0,
			"0.018": 0.0,
			"0.019": 0.0,
			"0.02": 0.0,
			"0.021": 0.0,
			"0.022": 0.0,
			"0.023": 0.0,
			"0.024": 0.0,
			"0.025": 0.0
		}
	}
}
