{
	 "smiles": "CCCCCCCCOC1=CC=C(NC(=O)C2=CC=C(CC)C=C2)C=C1", 
	 "Tm": 416.15, 
	 "num_atms": 57, 
	 "gaussian": { 
		 "optdone": 1, 
		 "sigma_profile": "yes", 
		 "theory": "DFT", 
		 "functional": "B3LYP", 
		 "basiset": "6-31G**", 
		 "properties": { 
			 "R2extent": 18011.3285, 
			 "electric_dipole_moment_norm": 4.8365668609, 
			 "electric_quadrupole_moment_norm": 25.7181666399, 
			 "total_energy": -1100.36850352, 
			 "HOMO_LUMO_gap": 0.17641, 
			 "cosmo_polarized_energy": -13.84, 
			 "cosmo_cavitation_energy": 58.58, 
			 "cosmo_dispersion_energy": -40.0, 
			 "cosmo_repulsion_energy": 3.15, 
			 "cosmo_total_nonelectrostatic_energy": 21.72, 
			 "SMD_solvation_energy": 9.53 
		},
		"coords": [
			{
				"x": 5.9086062343,
				"y": -2.6294357374,
				"z": 2.1773144932,
				"element": "C" 
			},
			{
				"x": 5.0952502738,
				"y": -1.7147351648,
				"z": 1.2555581963,
				"element": "C" 
			},
			{
				"x": 4.8956311493,
				"y": -0.3071614372,
				"z": 1.8358424545,
				"element": "C" 
			},
			{
				"x": 4.0261323371,
				"y": 0.6286739915,
				"z": 0.9794464112,
				"element": "C" 
			},
			{
				"x": 4.6608337434,
				"y": 1.0314574663,
				"z": -0.3624343977,
				"element": "C" 
			},
			{
				"x": 3.8630724062,
				"y": 2.0639439382,
				"z": -1.1879683824,
				"element": "C" 
			},
			{
				"x": 2.7986584387,
				"y": 1.5063719307,
				"z": -2.1497917932,
				"element": "C" 
			},
			{
				"x": 1.6068274562,
				"y": 0.8239503709,
				"z": -1.4887820555,
				"element": "C" 
			},
			{
				"x": 0.6592169599,
				"y": 0.5453000417,
				"z": -2.5201063263,
				"element": "O" 
			},
			{
				"x": -0.5052835682,
				"y": -0.0833339812,
				"z": -2.190449221,
				"element": "C" 
			},
			{
				"x": -0.8683855087,
				"y": -0.4684569167,
				"z": -0.8940025083,
				"element": "C" 
			},
			{
				"x": -2.0844190642,
				"y": -1.1190010576,
				"z": -0.673160693,
				"element": "C" 
			},
			{
				"x": -2.9692413151,
				"y": -1.3628379653,
				"z": -1.726993227,
				"element": "C" 
			},
			{
				"x": -4.2053958942,
				"y": -2.0421379086,
				"z": -1.5410042875,
				"element": "N" 
			},
			{
				"x": -5.0940916888,
				"y": -2.0084193236,
				"z": -0.4796568707,
				"element": "C" 
			},
			{
				"x": -5.8477237635,
				"y": -2.9591688309,
				"z": -0.2912043896,
				"element": "O" 
			},
			{
				"x": -5.1687251934,
				"y": -0.7830114939,
				"z": 0.3805392932,
				"element": "C" 
			},
			{
				"x": -4.9146253709,
				"y": 0.5118128126,
				"z": -0.085257917,
				"element": "C" 
			},
			{
				"x": -5.0969839561,
				"y": 1.6143158261,
				"z": 0.7517341934,
				"element": "C" 
			},
			{
				"x": -5.5261097475,
				"y": 1.4564706774,
				"z": 2.0747327519,
				"element": "C" 
			},
			{
				"x": -5.7238462115,
				"y": 2.623929213,
				"z": 3.0269391405,
				"element": "C" 
			},
			{
				"x": -5.4843869253,
				"y": 4.0222230847,
				"z": 2.4527682624,
				"element": "C" 
			},
			{
				"x": -5.7876601618,
				"y": 0.1526786518,
				"z": 2.5294998834,
				"element": "C" 
			},
			{
				"x": -5.6264393519,
				"y": -0.9472627696,
				"z": 1.6970385409,
				"element": "C" 
			},
			{
				"x": -2.5995106406,
				"y": -0.9695541048,
				"z": -3.0228278087,
				"element": "C" 
			},
			{
				"x": -1.379887821,
				"y": -0.3483631496,
				"z": -3.2553637169,
				"element": "C" 
			},
			{
				"x": 5.418179258,
				"y": -2.7491062719,
				"z": 3.1502145156,
				"element": "H" 
			},
			{
				"x": 6.0343238693,
				"y": -3.6267535459,
				"z": 1.7433734904,
				"element": "H" 
			},
			{
				"x": 6.9080653118,
				"y": -2.2187109091,
				"z": 2.3611170283,
				"element": "H" 
			},
			{
				"x": 5.5943005254,
				"y": -1.6507965848,
				"z": 0.2805349658,
				"element": "H" 
			},
			{
				"x": 4.1121905718,
				"y": -2.167741967,
				"z": 1.0651699463,
				"element": "H" 
			},
			{
				"x": 5.877786717,
				"y": 0.159957116,
				"z": 1.9990143585,
				"element": "H" 
			},
			{
				"x": 4.4377915682,
				"y": -0.4003748378,
				"z": 2.8300935105,
				"element": "H" 
			},
			{
				"x": 3.0499068836,
				"y": 0.1533329381,
				"z": 0.8169032312,
				"element": "H" 
			},
			{
				"x": 3.8233126883,
				"y": 1.5434878265,
				"z": 1.552807928,
				"element": "H" 
			},
			{
				"x": 4.8443112312,
				"y": 0.1427549652,
				"z": -0.9805721362,
				"element": "H" 
			},
			{
				"x": 5.6517453185,
				"y": 1.4526477409,
				"z": -0.1455555507,
				"element": "H" 
			},
			{
				"x": 3.4002753607,
				"y": 2.7952113222,
				"z": -0.5099396865,
				"element": "H" 
			},
			{
				"x": 4.5696222361,
				"y": 2.6360713225,
				"z": -1.800832691,
				"element": "H" 
			},
			{
				"x": 2.4048821928,
				"y": 2.3291186702,
				"z": -2.7584078765,
				"element": "H" 
			},
			{
				"x": 3.2634483811,
				"y": 0.7995818668,
				"z": -2.8484667967,
				"element": "H" 
			},
			{
				"x": 1.8995222442,
				"y": -0.1122046167,
				"z": -0.9958309117,
				"element": "H" 
			},
			{
				"x": 1.1547608758,
				"y": 1.478911277,
				"z": -0.7288886246,
				"element": "H" 
			},
			{
				"x": -0.2101442609,
				"y": -0.2861636431,
				"z": -0.0531414138,
				"element": "H" 
			},
			{
				"x": -2.3446090647,
				"y": -1.4361769274,
				"z": 0.3309275853,
				"element": "H" 
			},
			{
				"x": -4.3494341022,
				"y": -2.873858443,
				"z": -2.1022568586,
				"element": "H" 
			},
			{
				"x": -4.5871905179,
				"y": 0.6686127105,
				"z": -1.1071531017,
				"element": "H" 
			},
			{
				"x": -4.9027771015,
				"y": 2.6065261655,
				"z": 0.3581537353,
				"element": "H" 
			},
			{
				"x": -5.0661716876,
				"y": 2.4751955889,
				"z": 3.8946060511,
				"element": "H" 
			},
			{
				"x": -6.7448269275,
				"y": 2.5702057974,
				"z": 3.428376705,
				"element": "H" 
			},
			{
				"x": -5.6632977227,
				"y": 4.782172854,
				"z": 3.2192999169,
				"element": "H" 
			},
			{
				"x": -4.4549117276,
				"y": 4.1445597742,
				"z": 2.1001657697,
				"element": "H" 
			},
			{
				"x": -6.1543991462,
				"y": 4.2339943389,
				"z": 1.6129738684,
				"element": "H" 
			},
			{
				"x": -6.1332350413,
				"y": 0.0051067391,
				"z": 3.550371121,
				"element": "H" 
			},
			{
				"x": -5.8600812071,
				"y": -1.9487177914,
				"z": 2.0428938831,
				"element": "H" 
			},
			{
				"x": -3.2809632515,
				"y": -1.1532173193,
				"z": -3.848758103,
				"element": "H" 
			},
			{
				"x": -1.0857962915,
				"y": -0.0465743203,
				"z": -4.2552038854,
				"element": "H" 
			}
		],
		 "valence_orbital": [ 
			{
				"type": "occ",
				"energy": -0.25778,
				"method": "rhf"
			},
			{
				"type": "occ",
				"energy": -0.25261,
				"method": "rhf"
			},
			{
				"type": "occ",
				"energy": -0.24586,
				"method": "rhf"
			},
			{
				"type": "occ",
				"energy": -0.23485,
				"method": "rhf"
			},
			{
				"type": "occ",
				"energy": -0.20678,
				"method": "rhf"
			},
			{
				"type": "unocc",
				"energy": -0.03037,
				"method": "rhf"
			},
			{
				"type": "unocc",
				"energy": -0.01001,
				"method": "rhf"
			},
			{
				"type": "unocc",
				"energy": 0.00202,
				"method": "rhf"
			},
			{
				"type": "unocc",
				"energy": 0.01104,
				"method": "rhf"
			},
			{
				"type": "unocc",
				"energy": 0.06223,
				"method": "rhf"
			}
		],
		"cosmo_sigma_profile": { 
			"-0.025": 0.0,
			"-0.024": 0.0,
			"-0.023": 0.0,
			"-0.022": 0.0,
			"-0.021": 0.0,
			"-0.02": 0.0,
			"-0.019": 0.0,
			"-0.018": 0.0,
			"-0.017": 0.0,
			"-0.016": 0.0,
			"-0.015": 0.0,
			"-0.014": 0.297994123228,
			"-0.013": 1.10179779936,
			"-0.012": 0.9128808861,
			"-0.011": 0.980756140042,
			"-0.01": 0.748496256677,
			"-0.009": 0.984987986775,
			"-0.008": 1.19105500485,
			"-0.007": 1.62377043594,
			"-0.006": 9.18472688263,
			"-0.005": 16.721486361,
			"-0.004": 26.4885504669,
			"-0.003": 40.4157177049,
			"-0.002": 59.321566397,
			"-0.001": 67.8178491165,
			"0.0": 62.2805980128,
			"0.001": 51.8129881316,
			"0.002": 28.20246121,
			"0.003": 18.7158263291,
			"0.004": 22.0021548469,
			"0.005": 19.9540193194,
			"0.006": 3.39177802361,
			"0.007": 2.81395741371,
			"0.008": 2.85985391054,
			"0.009": 3.27628319151,
			"0.01": 2.37818443404,
			"0.011": 1.79690535442,
			"0.012": 2.00893619567,
			"0.013": 4.89759194764,
			"0.014": 3.61818789012,
			"0.015": 0.193398565029,
			"0.016": 0.0,
			"0.017": 0.0,
			"0.018": 0.0,
			"0.019": 0.0,
			"0.02": 0.0,
			"0.021": 0.0,
			"0.022": 0.0,
			"0.023": 0.0,
			"0.024": 0.0,
			"0.025": 0.0
		}
	}
}
