{
	 "smiles": "O=C(CSC1=NC(=O)NC2=C1CCCC2)C1=CC=CC=C1", 
	 "Tm": 525.15, 
	 "num_atms": 37, 
	 "gaussian": { 
		 "optdone": 1, 
		 "sigma_profile": "yes", 
		 "theory": "DFT", 
		 "functional": "B3LYP", 
		 "basiset": "6-31G**", 
		 "properties": { 
			 "R2extent": 9281.746, 
			 "electric_dipole_moment_norm": 3.38499393943, 
			 "electric_quadrupole_moment_norm": 38.1664603621, 
			 "total_energy": -1277.51347464, 
			 "HOMO_LUMO_gap": 0.16913, 
			 "cosmo_polarized_energy": -24.27, 
			 "cosmo_cavitation_energy": 41.55, 
			 "cosmo_dispersion_energy": -30.19, 
			 "cosmo_repulsion_energy": 2.28, 
			 "cosmo_total_nonelectrostatic_energy": 13.64, 
			 "SMD_solvation_energy": 6.3 
		},
		"coords": [
			{
				"x": 1.5364233739,
				"y": 0.4732238371,
				"z": -1.5900263506,
				"element": "O" 
			},
			{
				"x": 0.6921153338,
				"y": -0.1426174208,
				"z": -2.2141834022,
				"element": "C" 
			},
			{
				"x": 0.3920078291,
				"y": -1.6204951337,
				"z": -1.9271673877,
				"element": "C" 
			},
			{
				"x": 1.4194427082,
				"y": -2.3496828626,
				"z": -0.6196782803,
				"element": "S" 
			},
			{
				"x": 0.5233718773,
				"y": -1.8236102834,
				"z": 0.8297195027,
				"element": "C" 
			},
			{
				"x": -0.605818791,
				"y": -1.1869750811,
				"z": 0.6606143691,
				"element": "N" 
			},
			{
				"x": -1.3369573558,
				"y": -0.7627528105,
				"z": 1.7540183787,
				"element": "C" 
			},
			{
				"x": -2.4124410602,
				"y": -0.1902646316,
				"z": 1.7022365665,
				"element": "O" 
			},
			{
				"x": -0.7481056323,
				"y": -1.0313162108,
				"z": 3.0116664466,
				"element": "N" 
			},
			{
				"x": 0.4271733277,
				"y": -1.6982042735,
				"z": 3.1965990501,
				"element": "C" 
			},
			{
				"x": 1.1177310945,
				"y": -2.1500847449,
				"z": 2.101035323,
				"element": "C" 
			},
			{
				"x": 2.4270137347,
				"y": -2.8981422414,
				"z": 2.2319825374,
				"element": "C" 
			},
			{
				"x": 2.6748203326,
				"y": -3.3992530666,
				"z": 3.6632890063,
				"element": "C" 
			},
			{
				"x": 2.3651131781,
				"y": -2.3066052749,
				"z": 4.6926835983,
				"element": "C" 
			},
			{
				"x": 0.8858717676,
				"y": -1.9046092412,
				"z": 4.6186620436,
				"element": "C" 
			},
			{
				"x": -0.094989096,
				"y": 0.5138623536,
				"z": -3.3086443005,
				"element": "C" 
			},
			{
				"x": 0.2040184558,
				"y": 1.8515383738,
				"z": -3.6145172785,
				"element": "C" 
			},
			{
				"x": -0.486778241,
				"y": 2.5164436614,
				"z": -4.6223393404,
				"element": "C" 
			},
			{
				"x": -1.4883475551,
				"y": 1.8533311413,
				"z": -5.3382253839,
				"element": "C" 
			},
			{
				"x": -1.7954712002,
				"y": 0.5245306425,
				"z": -5.040733183,
				"element": "C" 
			},
			{
				"x": -1.1026194937,
				"y": -0.1436152158,
				"z": -4.031323734,
				"element": "C" 
			},
			{
				"x": 0.5630995861,
				"y": -2.224042424,
				"z": -2.8240737223,
				"element": "H" 
			},
			{
				"x": -0.6539372207,
				"y": -1.7224654956,
				"z": -1.6251494456,
				"element": "H" 
			},
			{
				"x": -1.2741575201,
				"y": -0.6888848901,
				"z": 3.8057662624,
				"element": "H" 
			},
			{
				"x": 2.4400503384,
				"y": -3.7489374514,
				"z": 1.5401525908,
				"element": "H" 
			},
			{
				"x": 3.254422886,
				"y": -2.245678281,
				"z": 1.9185717235,
				"element": "H" 
			},
			{
				"x": 2.0389845122,
				"y": -4.2722129428,
				"z": 3.8620773418,
				"element": "H" 
			},
			{
				"x": 3.712195721,
				"y": -3.735893504,
				"z": 3.7608786773,
				"element": "H" 
			},
			{
				"x": 2.9925271852,
				"y": -1.4282937694,
				"z": 4.4952323707,
				"element": "H" 
			},
			{
				"x": 2.6021905641,
				"y": -2.6455286221,
				"z": 5.7065114733,
				"element": "H" 
			},
			{
				"x": 0.2602216436,
				"y": -2.6857559859,
				"z": 5.0742728903,
				"element": "H" 
			},
			{
				"x": 0.7002823127,
				"y": -0.9885938332,
				"z": 5.1938022223,
				"element": "H" 
			},
			{
				"x": 0.9829555601,
				"y": 2.3447440224,
				"z": -3.0430773674,
				"element": "H" 
			},
			{
				"x": -0.2487441675,
				"y": 3.5511365159,
				"z": -4.8512844445,
				"element": "H" 
			},
			{
				"x": -2.0294891954,
				"y": 2.3723149031,
				"z": -6.124333127,
				"element": "H" 
			},
			{
				"x": -2.5761903308,
				"y": 0.0088829278,
				"z": -5.5919818336,
				"element": "H" 
			},
			{
				"x": -1.3595864627,
				"y": -1.1736926872,
				"z": -3.807833793,
				"element": "H" 
			}
		],
		 "valence_orbital": [ 
			{
				"type": "occ",
				"energy": -0.25543,
				"method": "rhf"
			},
			{
				"type": "occ",
				"energy": -0.25159,
				"method": "rhf"
			},
			{
				"type": "occ",
				"energy": -0.24735,
				"method": "rhf"
			},
			{
				"type": "occ",
				"energy": -0.23736,
				"method": "rhf"
			},
			{
				"type": "occ",
				"energy": -0.22227,
				"method": "rhf"
			},
			{
				"type": "unocc",
				"energy": -0.05314,
				"method": "rhf"
			},
			{
				"type": "unocc",
				"energy": -0.04277,
				"method": "rhf"
			},
			{
				"type": "unocc",
				"energy": -0.00664,
				"method": "rhf"
			},
			{
				"type": "unocc",
				"energy": 0.01588,
				"method": "rhf"
			},
			{
				"type": "unocc",
				"energy": 0.03476,
				"method": "rhf"
			}
		],
		"cosmo_sigma_profile": { 
			"-0.025": 0.0,
			"-0.024": 0.0,
			"-0.023": 0.0,
			"-0.022": 0.0,
			"-0.021": 0.0,
			"-0.02": 0.0,
			"-0.019": 0.0,
			"-0.018": 0.0,
			"-0.017": 0.0,
			"-0.016": 0.368049211658,
			"-0.015": 1.20540189477,
			"-0.014": 0.859944927959,
			"-0.013": 1.28103671343,
			"-0.012": 1.18301044837,
			"-0.011": 1.26773616609,
			"-0.01": 1.01269086637,
			"-0.009": 2.27880884978,
			"-0.008": 6.48612885962,
			"-0.007": 9.6396618249,
			"-0.006": 16.5592697985,
			"-0.005": 17.8846019525,
			"-0.004": 26.1017204654,
			"-0.003": 34.4135092631,
			"-0.002": 32.6620857473,
			"-0.001": 30.5567060547,
			"0.0": 23.8463775598,
			"0.001": 16.9095313564,
			"0.002": 16.975508334,
			"0.003": 17.4331633752,
			"0.004": 16.1494579946,
			"0.005": 6.92555611468,
			"0.006": 5.93479392885,
			"0.007": 6.08678903249,
			"0.008": 3.77316664418,
			"0.009": 3.92898801445,
			"0.01": 3.85680127179,
			"0.011": 5.07208626019,
			"0.012": 4.68031191846,
			"0.013": 5.28828815336,
			"0.014": 6.92853899201,
			"0.015": 2.83486550161,
			"0.016": 1.08380988547,
			"0.017": 0.00137179213985,
			"0.018": 0.0,
			"0.019": 0.0,
			"0.02": 0.0,
			"0.021": 0.0,
			"0.022": 0.0,
			"0.023": 0.0,
			"0.024": 0.0,
			"0.025": 0.0
		}
	}
}
