{
	 "smiles": "CCC1CN2CCC3=C(NC4=C3C(OC)=CC=C4)C2CC1C(=COC)C(=O)OC", 
	 "Tm": 377.15, 
	 "num_atms": 59, 
	 "gaussian": { 
		 "optdone": 1, 
		 "sigma_profile": "yes", 
		 "theory": "DFT", 
		 "functional": "B3LYP", 
		 "basiset": "6-31G**", 
		 "properties": { 
			 "R2extent": 13373.0207, 
			 "electric_dipole_moment_norm": 1.40473854151, 
			 "electric_quadrupole_moment_norm": 24.3746194415, 
			 "total_energy": -1304.88796695, 
			 "HOMO_LUMO_gap": 0.15241, 
			 "cosmo_polarized_energy": -22.1, 
			 "cosmo_cavitation_energy": 57.3, 
			 "cosmo_dispersion_energy": -38.08, 
			 "cosmo_repulsion_energy": 2.94, 
			 "cosmo_total_nonelectrostatic_energy": 22.16, 
			 "SMD_solvation_energy": 9.26 
		},
		"coords": [
			{
				"x": -0.5639689497,
				"y": 3.679780148,
				"z": 0.2909118569,
				"element": "C" 
			},
			{
				"x": 0.6635450555,
				"y": 2.8741403384,
				"z": 0.7365417453,
				"element": "C" 
			},
			{
				"x": 0.401020697,
				"y": 1.3657220477,
				"z": 0.8975646658,
				"element": "C" 
			},
			{
				"x": -0.5105688987,
				"y": 1.0456681704,
				"z": 2.0974100952,
				"element": "C" 
			},
			{
				"x": -0.9369987915,
				"y": -0.3609844155,
				"z": 2.1970168975,
				"element": "N" 
			},
			{
				"x": -2.3291446021,
				"y": -0.6316037924,
				"z": 1.8297697247,
				"element": "C" 
			},
			{
				"x": -2.624470839,
				"y": -0.5845320564,
				"z": 0.313663273,
				"element": "C" 
			},
			{
				"x": -1.570736202,
				"y": -1.3800751316,
				"z": -0.4019216894,
				"element": "C" 
			},
			{
				"x": -0.3803431467,
				"y": -1.697808895,
				"z": 0.2059675574,
				"element": "C" 
			},
			{
				"x": 0.3818812037,
				"y": -2.4772573613,
				"z": -0.652665616,
				"element": "N" 
			},
			{
				"x": -0.3016772551,
				"y": -2.6544298123,
				"z": -1.8402985753,
				"element": "C" 
			},
			{
				"x": -1.54034729,
				"y": -1.9731436714,
				"z": -1.7135732651,
				"element": "C" 
			},
			{
				"x": -2.4406396791,
				"y": -2.0043853703,
				"z": -2.8008673123,
				"element": "C" 
			},
			{
				"x": -3.6193235608,
				"y": -1.3323353053,
				"z": -2.6194778611,
				"element": "O" 
			},
			{
				"x": -4.5552902239,
				"y": -1.3312406101,
				"z": -3.6833858177,
				"element": "C" 
			},
			{
				"x": -2.0861117281,
				"y": -2.6943861822,
				"z": -3.958333756,
				"element": "C" 
			},
			{
				"x": -0.8418941073,
				"y": -3.3558579711,
				"z": -4.0461704827,
				"element": "C" 
			},
			{
				"x": 0.0684615451,
				"y": -3.3499128837,
				"z": -2.9999125103,
				"element": "C" 
			},
			{
				"x": 0.0045420839,
				"y": -1.3392913727,
				"z": 1.6231823842,
				"element": "C" 
			},
			{
				"x": 1.439372922,
				"y": -0.8089613982,
				"z": 1.7758399296,
				"element": "C" 
			},
			{
				"x": 1.7084311439,
				"y": 0.4884896605,
				"z": 0.969099859,
				"element": "C" 
			},
			{
				"x": 2.9721129688,
				"y": 1.2053133301,
				"z": 1.4570544988,
				"element": "C" 
			},
			{
				"x": 3.1483047832,
				"y": 1.4662649655,
				"z": 2.7745224425,
				"element": "C" 
			},
			{
				"x": 4.1987505476,
				"y": 2.1103966591,
				"z": 3.3079537739,
				"element": "O" 
			},
			{
				"x": 4.1813014353,
				"y": 2.2471021371,
				"z": 4.7273489757,
				"element": "C" 
			},
			{
				"x": 4.0047980781,
				"y": 1.6381738917,
				"z": 0.4850112266,
				"element": "C" 
			},
			{
				"x": 5.1058752091,
				"y": 2.0831835922,
				"z": 0.7460301802,
				"element": "O" 
			},
			{
				"x": 3.5819768917,
				"y": 1.4822102887,
				"z": -0.8067252602,
				"element": "O" 
			},
			{
				"x": 4.5350587306,
				"y": 1.8722017064,
				"z": -1.8025241314,
				"element": "C" 
			},
			{
				"x": -1.373651507,
				"y": 3.6490047487,
				"z": 1.027656717,
				"element": "H" 
			},
			{
				"x": -0.9643317592,
				"y": 3.2993557685,
				"z": -0.6558517314,
				"element": "H" 
			},
			{
				"x": -0.3036073973,
				"y": 4.7328180269,
				"z": 0.1409338711,
				"element": "H" 
			},
			{
				"x": 1.0533708751,
				"y": 3.2884072678,
				"z": 1.6751755456,
				"element": "H" 
			},
			{
				"x": 1.4593554813,
				"y": 3.0090122769,
				"z": -0.0047489341,
				"element": "H" 
			},
			{
				"x": -0.1312852019,
				"y": 1.0354132793,
				"z": -0.0020892135,
				"element": "H" 
			},
			{
				"x": -1.4119417952,
				"y": 1.6644447322,
				"z": 2.060767719,
				"element": "H" 
			},
			{
				"x": 0.0125367085,
				"y": 1.3385192143,
				"z": 3.0235655592,
				"element": "H" 
			},
			{
				"x": -2.9703335156,
				"y": 0.0721648174,
				"z": 2.3716642061,
				"element": "H" 
			},
			{
				"x": -2.5762004207,
				"y": -1.6354343683,
				"z": 2.2014932204,
				"element": "H" 
			},
			{
				"x": -3.6236037457,
				"y": -0.9865261242,
				"z": 0.112425419,
				"element": "H" 
			},
			{
				"x": -2.6424865652,
				"y": 0.4568053092,
				"z": -0.0399960262,
				"element": "H" 
			},
			{
				"x": 1.3076423363,
				"y": -2.8241254631,
				"z": -0.4625188102,
				"element": "H" 
			},
			{
				"x": -4.1413873405,
				"y": -0.8640056153,
				"z": -4.5865886869,
				"element": "H" 
			},
			{
				"x": -5.4091356378,
				"y": -0.7468114599,
				"z": -3.3359462207,
				"element": "H" 
			},
			{
				"x": -4.8896650283,
				"y": -2.3474008434,
				"z": -3.9305048001,
				"element": "H" 
			},
			{
				"x": -2.7590411705,
				"y": -2.7324404359,
				"z": -4.8063823799,
				"element": "H" 
			},
			{
				"x": -0.5983053447,
				"y": -3.8836360364,
				"z": -4.9637261096,
				"element": "H" 
			},
			{
				"x": 1.022632769,
				"y": -3.8625040439,
				"z": -3.0762261821,
				"element": "H" 
			},
			{
				"x": -0.0646688691,
				"y": -2.2581736696,
				"z": 2.2312467555,
				"element": "H" 
			},
			{
				"x": 2.163352244,
				"y": -1.5797642398,
				"z": 1.4851433342,
				"element": "H" 
			},
			{
				"x": 1.5939821267,
				"y": -0.6495431622,
				"z": 2.8476635753,
				"element": "H" 
			},
			{
				"x": 1.9190987706,
				"y": 0.1871899252,
				"z": -0.0572660106,
				"element": "H" 
			},
			{
				"x": 2.3866173167,
				"y": 1.1584277992,
				"z": 3.4911883549,
				"element": "H" 
			},
			{
				"x": 3.2926238783,
				"y": 2.7954093375,
				"z": 5.0641154664,
				"element": "H" 
			},
			{
				"x": 5.0753162405,
				"y": 2.8128158237,
				"z": 4.9910393716,
				"element": "H" 
			},
			{
				"x": 4.2134513072,
				"y": 1.2681235641,
				"z": 5.2210417081,
				"element": "H" 
			},
			{
				"x": 4.0484088721,
				"y": 1.6949411901,
				"z": -2.7621873713,
				"element": "H" 
			},
			{
				"x": 5.4488141713,
				"y": 1.2772459508,
				"z": -1.7203704362,
				"element": "H" 
			},
			{
				"x": 4.7994241797,
				"y": 2.927525724,
				"z": -1.6954507189,
				"element": "H" 
			}
		],
		 "valence_orbital": [ 
			{
				"type": "occ",
				"energy": -0.24078,
				"method": "rhf"
			},
			{
				"type": "occ",
				"energy": -0.22427,
				"method": "rhf"
			},
			{
				"type": "occ",
				"energy": -0.20932,
				"method": "rhf"
			},
			{
				"type": "occ",
				"energy": -0.19387,
				"method": "rhf"
			},
			{
				"type": "occ",
				"energy": -0.17739,
				"method": "rhf"
			},
			{
				"type": "unocc",
				"energy": -0.02498,
				"method": "rhf"
			},
			{
				"type": "unocc",
				"energy": 0.00828,
				"method": "rhf"
			},
			{
				"type": "unocc",
				"energy": 0.03888,
				"method": "rhf"
			},
			{
				"type": "unocc",
				"energy": 0.06415,
				"method": "rhf"
			},
			{
				"type": "unocc",
				"energy": 0.07485,
				"method": "rhf"
			}
		],
		"cosmo_sigma_profile": { 
			"-0.025": 0.0,
			"-0.024": 0.0,
			"-0.023": 0.0,
			"-0.022": 0.0,
			"-0.021": 0.0,
			"-0.02": 0.0,
			"-0.019": 0.0,
			"-0.018": 0.0,
			"-0.017": 0.0,
			"-0.016": 0.0,
			"-0.015": 0.230841653742,
			"-0.014": 0.994385871288,
			"-0.013": 1.41191612118,
			"-0.012": 1.24272779553,
			"-0.011": 1.45849675413,
			"-0.01": 1.58732686292,
			"-0.009": 1.71446235488,
			"-0.008": 3.2097552664,
			"-0.007": 6.44271542286,
			"-0.006": 16.4923034951,
			"-0.005": 28.9072651196,
			"-0.004": 37.2194353817,
			"-0.003": 47.2197434932,
			"-0.002": 45.0573736292,
			"-0.001": 45.6192386717,
			"0.0": 40.9248284794,
			"0.001": 32.3125628873,
			"0.002": 21.6614034995,
			"0.003": 14.6810777164,
			"0.004": 15.6716103992,
			"0.005": 19.7308539869,
			"0.006": 20.8683104965,
			"0.007": 13.2626257745,
			"0.008": 7.13744877307,
			"0.009": 3.76934617066,
			"0.01": 2.63318645783,
			"0.011": 2.86054673799,
			"0.012": 2.76826517142,
			"0.013": 5.14142303939,
			"0.014": 2.56260740517,
			"0.015": 2.34966449525,
			"0.016": 1.32622375428,
			"0.017": 0.0323077020497,
			"0.018": 0.0,
			"0.019": 0.0,
			"0.02": 0.0,
			"0.021": 0.0,
			"0.022": 0.0,
			"0.023": 0.0,
			"0.024": 0.0,
			"0.025": 0.0
		}
	}
}
