{
	 "smiles": "CC(C)C1=CC=C(C=C1)N1CC2=C(C1)C=C(N)C=C2", 
	 "Tm": 438.15, 
	 "num_atms": 39, 
	 "gaussian": { 
		 "optdone": 1, 
		 "sigma_profile": "yes", 
		 "theory": "DFT", 
		 "functional": "B3LYP", 
		 "basiset": "6-31G**", 
		 "properties": { 
			 "R2extent": 8913.3637, 
			 "electric_dipole_moment_norm": 3.4466161231, 
			 "electric_quadrupole_moment_norm": 19.3306260574, 
			 "total_energy": -769.382969972, 
			 "HOMO_LUMO_gap": 0.17125, 
			 "cosmo_polarized_energy": -11.04, 
			 "cosmo_cavitation_energy": 40.64, 
			 "cosmo_dispersion_energy": -29.31, 
			 "cosmo_repulsion_energy": 2.25, 
			 "cosmo_total_nonelectrostatic_energy": 13.58, 
			 "SMD_solvation_energy": 5.36 
		},
		"coords": [
			{
				"x": -3.2730085467,
				"y": -0.4114139226,
				"z": -4.6124446889,
				"element": "C" 
			},
			{
				"x": -2.6641770778,
				"y": -1.4500481408,
				"z": -3.6510140125,
				"element": "C" 
			},
			{
				"x": -1.8736643312,
				"y": -2.5200524658,
				"z": -4.428138243,
				"element": "C" 
			},
			{
				"x": -1.8245786111,
				"y": -0.7975717332,
				"z": -2.5615928928,
				"element": "C" 
			},
			{
				"x": -2.1726341818,
				"y": -0.9112139359,
				"z": -1.2109198992,
				"element": "C" 
			},
			{
				"x": -1.4200071317,
				"y": -0.3231854268,
				"z": -0.196852162,
				"element": "C" 
			},
			{
				"x": -0.2600853821,
				"y": 0.4209151843,
				"z": -0.5005187308,
				"element": "C" 
			},
			{
				"x": 0.0979466717,
				"y": 0.540307211,
				"z": -1.8623528348,
				"element": "C" 
			},
			{
				"x": -0.6707124413,
				"y": -0.0567374847,
				"z": -2.8561647794,
				"element": "C" 
			},
			{
				"x": 0.494603575,
				"y": 1.0118889618,
				"z": 0.4924050456,
				"element": "N" 
			},
			{
				"x": 1.7170449102,
				"y": 1.7673614245,
				"z": 0.2289559095,
				"element": "C" 
			},
			{
				"x": 2.1665984531,
				"y": 2.1658644044,
				"z": 1.6102948692,
				"element": "C" 
			},
			{
				"x": 1.2889510156,
				"y": 1.6670535411,
				"z": 2.5732553869,
				"element": "C" 
			},
			{
				"x": 0.1782345725,
				"y": 0.8925168889,
				"z": 1.9120853417,
				"element": "C" 
			},
			{
				"x": 1.4877788788,
				"y": 1.9022136472,
				"z": 3.9285215659,
				"element": "C" 
			},
			{
				"x": 2.5999170313,
				"y": 2.6594980282,
				"z": 4.3383057574,
				"element": "C" 
			},
			{
				"x": 2.8587790784,
				"y": 2.862343682,
				"z": 5.6969720474,
				"element": "N" 
			},
			{
				"x": 3.4835264211,
				"y": 3.1612614863,
				"z": 3.3624612381,
				"element": "C" 
			},
			{
				"x": 3.2704010396,
				"y": 2.9172349726,
				"z": 2.006660668,
				"element": "C" 
			},
			{
				"x": -3.9178254741,
				"y": -0.8956443545,
				"z": -5.3548012185,
				"element": "H" 
			},
			{
				"x": -3.8713320091,
				"y": 0.3264775976,
				"z": -4.068896931,
				"element": "H" 
			},
			{
				"x": -2.4912245822,
				"y": 0.1308755482,
				"z": -5.1561918947,
				"element": "H" 
			},
			{
				"x": -3.4981742198,
				"y": -1.9596928453,
				"z": -3.149441774,
				"element": "H" 
			},
			{
				"x": -1.0270745623,
				"y": -2.0757915687,
				"z": -4.9636972314,
				"element": "H" 
			},
			{
				"x": -2.5107577778,
				"y": -3.0164092137,
				"z": -5.1691544534,
				"element": "H" 
			},
			{
				"x": -1.4748616286,
				"y": -3.2838632631,
				"z": -3.7532748648,
				"element": "H" 
			},
			{
				"x": -3.0607836446,
				"y": -1.4776130442,
				"z": -0.937782918,
				"element": "H" 
			},
			{
				"x": -1.7365977487,
				"y": -0.4434730701,
				"z": 0.8332919843,
				"element": "H" 
			},
			{
				"x": 0.9810061287,
				"y": 1.1029903853,
				"z": -2.1443868999,
				"element": "H" 
			},
			{
				"x": -0.3559030587,
				"y": 0.0621428349,
				"z": -3.8903948561,
				"element": "H" 
			},
			{
				"x": 2.4682024398,
				"y": 1.1514980957,
				"z": -0.2935411294,
				"element": "H" 
			},
			{
				"x": 1.5206322422,
				"y": 2.6398083598,
				"z": -0.4159592723,
				"element": "H" 
			},
			{
				"x": 0.1594211418,
				"y": -0.1605431793,
				"z": 2.2392368491,
				"element": "H" 
			},
			{
				"x": -0.8141216837,
				"y": 1.3128669288,
				"z": 2.1445640003,
				"element": "H" 
			},
			{
				"x": 0.7997450369,
				"y": 1.5060351678,
				"z": 4.6721679262,
				"element": "H" 
			},
			{
				"x": 3.4238809506,
				"y": 3.6735774796,
				"z": 5.9075051743,
				"element": "H" 
			},
			{
				"x": 2.0489706537,
				"y": 2.8058715285,
				"z": 6.2993691129,
				"element": "H" 
			},
			{
				"x": 4.3459038432,
				"y": 3.7432081147,
				"z": 3.6781465018,
				"element": "H" 
			},
			{
				"x": 3.9661800091,
				"y": 3.3178421754,
				"z": 1.2738223084,
				"element": "H" 
			}
		],
		 "valence_orbital": [ 
			{
				"type": "occ",
				"energy": -0.26703,
				"method": "rhf"
			},
			{
				"type": "occ",
				"energy": -0.24393,
				"method": "rhf"
			},
			{
				"type": "occ",
				"energy": -0.23327,
				"method": "rhf"
			},
			{
				"type": "occ",
				"energy": -0.2007,
				"method": "rhf"
			},
			{
				"type": "occ",
				"energy": -0.17532,
				"method": "rhf"
			},
			{
				"type": "unocc",
				"energy": -0.00407,
				"method": "rhf"
			},
			{
				"type": "unocc",
				"energy": 0.0112,
				"method": "rhf"
			},
			{
				"type": "unocc",
				"energy": 0.02101,
				"method": "rhf"
			},
			{
				"type": "unocc",
				"energy": 0.03428,
				"method": "rhf"
			},
			{
				"type": "unocc",
				"energy": 0.0788,
				"method": "rhf"
			}
		],
		"cosmo_sigma_profile": { 
			"-0.025": 0.0,
			"-0.024": 0.0,
			"-0.023": 0.0,
			"-0.022": 0.0,
			"-0.021": 0.0,
			"-0.02": 0.0,
			"-0.019": 0.0,
			"-0.018": 0.0,
			"-0.017": 0.0,
			"-0.016": 0.0,
			"-0.015": 0.0,
			"-0.014": 0.0,
			"-0.013": 0.0995429835097,
			"-0.012": 2.37199184571,
			"-0.011": 2.52379207879,
			"-0.01": 2.53955245034,
			"-0.009": 3.32052015576,
			"-0.008": 3.36316251953,
			"-0.007": 2.83715662467,
			"-0.006": 4.23589715355,
			"-0.005": 10.5543943812,
			"-0.004": 26.4653513175,
			"-0.003": 37.178056039,
			"-0.002": 33.6546368113,
			"-0.001": 27.0191024136,
			"0.0": 27.6037031777,
			"0.001": 28.789541793,
			"0.002": 23.1828647854,
			"0.003": 13.5362536492,
			"0.004": 14.9501878006,
			"0.005": 14.8563242129,
			"0.006": 16.6612643888,
			"0.007": 12.7883399396,
			"0.008": 6.1064628128,
			"0.009": 1.34629091792,
			"0.01": 0.423281203307,
			"0.011": 0.71814732046,
			"0.012": 0.666132973297,
			"0.013": 0.699437667097,
			"0.014": 0.644736699436,
			"0.015": 0.391635452029,
			"0.016": 0.00738323497011,
			"0.017": 0.0,
			"0.018": 0.0,
			"0.019": 0.0,
			"0.02": 0.0,
			"0.021": 0.0,
			"0.022": 0.0,
			"0.023": 0.0,
			"0.024": 0.0,
			"0.025": 0.0
		}
	}
}
