{
	 "smiles": "O=C1C2CC3CC(C2)CC1C3", 
	 "Tm": 559.15, 
	 "num_atms": 25, 
	 "gaussian": { 
		 "optdone": 1, 
		 "sigma_profile": "yes", 
		 "theory": "DFT", 
		 "functional": "B3LYP", 
		 "basiset": "6-31G**", 
		 "properties": { 
			 "R2extent": 1462.2286, 
			 "electric_dipole_moment_norm": 3.21354029382, 
			 "electric_quadrupole_moment_norm": 8.23135002961, 
			 "total_energy": -464.747976177, 
			 "HOMO_LUMO_gap": 0.22038, 
			 "cosmo_polarized_energy": -6.61, 
			 "cosmo_cavitation_energy": 23.67, 
			 "cosmo_dispersion_energy": -18.39, 
			 "cosmo_repulsion_energy": 1.46, 
			 "cosmo_total_nonelectrostatic_energy": 6.73, 
			 "SMD_solvation_energy": 3.28 
		},
		"coords": [
			{
				"x": -2.2432894105,
				"y": -1.1978601935,
				"z": -0.0264364976,
				"element": "O" 
			},
			{
				"x": -1.1061009411,
				"y": -0.8216128586,
				"z": 0.186439077,
				"element": "C" 
			},
			{
				"x": -0.7633172746,
				"y": 0.5198148298,
				"z": 0.8298857538,
				"element": "C" 
			},
			{
				"x": 0.1123041637,
				"y": 1.3274798256,
				"z": -0.1626965868,
				"element": "C" 
			},
			{
				"x": 1.3926424231,
				"y": 0.5340385915,
				"z": -0.4960258482,
				"element": "C" 
			},
			{
				"x": 2.1888379131,
				"y": 0.270647688,
				"z": 0.7991063761,
				"element": "C" 
			},
			{
				"x": 1.3254113209,
				"y": -0.5433466899,
				"z": 1.7852660759,
				"element": "C" 
			},
			{
				"x": 0.0452107353,
				"y": 0.2477218036,
				"z": 2.1246611419,
				"element": "C" 
			},
			{
				"x": 0.9363041674,
				"y": -1.8901269495,
				"z": 1.1412129058,
				"element": "C" 
			},
			{
				"x": 0.1361486306,
				"y": -1.6376562991,
				"z": -0.1627316088,
				"element": "C" 
			},
			{
				"x": 1.0041925962,
				"y": -0.8102520823,
				"z": -1.1455950734,
				"element": "C" 
			},
			{
				"x": -1.6976143399,
				"y": 1.0450149851,
				"z": 1.0503026777,
				"element": "H" 
			},
			{
				"x": 0.3683460401,
				"y": 2.2963470687,
				"z": 0.2853760381,
				"element": "H" 
			},
			{
				"x": -0.4546614857,
				"y": 1.5383501341,
				"z": -1.0779587034,
				"element": "H" 
			},
			{
				"x": 2.0072710859,
				"y": 1.1126708445,
				"z": -1.196805228,
				"element": "H" 
			},
			{
				"x": 3.1127373282,
				"y": -0.275526212,
				"z": 0.5683813587,
				"element": "H" 
			},
			{
				"x": 2.4873251917,
				"y": 1.2224613556,
				"z": 1.2575125689,
				"element": "H" 
			},
			{
				"x": 1.8922927175,
				"y": -0.7304190481,
				"z": 2.7057726141,
				"element": "H" 
			},
			{
				"x": 0.3006806957,
				"y": 1.2037234566,
				"z": 2.5998937679,
				"element": "H" 
			},
			{
				"x": -0.5697643388,
				"y": -0.3111543362,
				"z": 2.8409415626,
				"element": "H" 
			},
			{
				"x": 1.8346448091,
				"y": -2.4761178128,
				"z": 0.9074282411,
				"element": "H" 
			},
			{
				"x": 0.3375538742,
				"y": -2.487771785,
				"z": 1.8397234425,
				"element": "H" 
			},
			{
				"x": -0.1864530797,
				"y": -2.5794090224,
				"z": -0.6169911032,
				"element": "H" 
			},
			{
				"x": 1.9035607532,
				"y": -1.3835678392,
				"z": -1.405444477,
				"element": "H" 
			},
			{
				"x": 0.4541364243,
				"y": -0.6378494546,
				"z": -2.0790184757,
				"element": "H" 
			}
		],
		 "valence_orbital": [ 
			{
				"type": "occ",
				"energy": -0.33474,
				"method": "rhf"
			},
			{
				"type": "occ",
				"energy": -0.30201,
				"method": "rhf"
			},
			{
				"type": "occ",
				"energy": -0.29542,
				"method": "rhf"
			},
			{
				"type": "occ",
				"energy": -0.29223,
				"method": "rhf"
			},
			{
				"type": "occ",
				"energy": -0.22684,
				"method": "rhf"
			},
			{
				"type": "unocc",
				"energy": -0.00646,
				"method": "rhf"
			},
			{
				"type": "unocc",
				"energy": 0.06587,
				"method": "rhf"
			},
			{
				"type": "unocc",
				"energy": 0.11836,
				"method": "rhf"
			},
			{
				"type": "unocc",
				"energy": 0.11893,
				"method": "rhf"
			},
			{
				"type": "unocc",
				"energy": 0.12465,
				"method": "rhf"
			}
		],
		"cosmo_sigma_profile": { 
			"-0.025": 0.0,
			"-0.024": 0.0,
			"-0.023": 0.0,
			"-0.022": 0.0,
			"-0.021": 0.0,
			"-0.02": 0.0,
			"-0.019": 0.0,
			"-0.018": 0.0,
			"-0.017": 0.0,
			"-0.016": 0.0,
			"-0.015": 0.0,
			"-0.014": 0.0,
			"-0.013": 0.0,
			"-0.012": 0.0,
			"-0.011": 0.0,
			"-0.01": 0.0,
			"-0.009": 0.0,
			"-0.008": 0.0,
			"-0.007": 0.0,
			"-0.006": 0.0,
			"-0.005": 0.0711712808239,
			"-0.004": 6.54610923538,
			"-0.003": 32.7085327332,
			"-0.002": 40.5070831861,
			"-0.001": 39.0500836304,
			"0.0": 27.6256532963,
			"0.001": 8.91083969034,
			"0.002": 1.91848121669,
			"0.003": 1.75759000315,
			"0.004": 1.52367422276,
			"0.005": 1.28409005329,
			"0.006": 1.34180682939,
			"0.007": 1.73658088314,
			"0.008": 1.25137062687,
			"0.009": 1.68787738094,
			"0.01": 1.83758658252,
			"0.011": 2.51727421043,
			"0.012": 4.36660000841,
			"0.013": 3.9066341594,
			"0.014": 1.41714800944,
			"0.015": 0.0,
			"0.016": 0.0,
			"0.017": 0.0,
			"0.018": 0.0,
			"0.019": 0.0,
			"0.02": 0.0,
			"0.021": 0.0,
			"0.022": 0.0,
			"0.023": 0.0,
			"0.024": 0.0,
			"0.025": 0.0
		}
	}
}
