{
	 "smiles": "COC1=C(NC(=O)CC#N)C=CC=C1", 
	 "Tm": 361.65, 
	 "num_atms": 24, 
	 "gaussian": { 
		 "optdone": 1, 
		 "sigma_profile": "yes", 
		 "theory": "DFT", 
		 "functional": "B3LYP", 
		 "basiset": "6-31G**", 
		 "properties": { 
			 "R2extent": 3236.8125, 
			 "electric_dipole_moment_norm": 6.93015349974, 
			 "electric_quadrupole_moment_norm": 13.4532673897, 
			 "total_energy": -647.018982819, 
			 "HOMO_LUMO_gap": 0.19927, 
			 "cosmo_polarized_energy": -15.71, 
			 "cosmo_cavitation_energy": 29.16, 
			 "cosmo_dispersion_energy": -20.39, 
			 "cosmo_repulsion_energy": 1.62, 
			 "cosmo_total_nonelectrostatic_energy": 10.39, 
			 "SMD_solvation_energy": 7.79 
		},
		"coords": [
			{
				"x": 0.7312563904,
				"y": 2.4315188624,
				"z": 2.4073479343,
				"element": "C" 
			},
			{
				"x": 0.5052449224,
				"y": 1.1437256062,
				"z": 1.8496411625,
				"element": "O" 
			},
			{
				"x": 0.2500953132,
				"y": 1.0511921846,
				"z": 0.5106867196,
				"element": "C" 
			},
			{
				"x": -0.0150352799,
				"y": -0.258405216,
				"z": 0.0420989909,
				"element": "C" 
			},
			{
				"x": 0.0029754534,
				"y": -1.3001372737,
				"z": 0.9976730443,
				"element": "N" 
			},
			{
				"x": 0.5519634786,
				"y": -2.5591201556,
				"z": 0.9649437362,
				"element": "C" 
			},
			{
				"x": 0.515264501,
				"y": -3.2946973982,
				"z": 1.9360376148,
				"element": "O" 
			},
			{
				"x": 1.2623835272,
				"y": -3.0109034126,
				"z": -0.3289077792,
				"element": "C" 
			},
			{
				"x": 0.3729589701,
				"y": -3.7455188324,
				"z": -1.2282145017,
				"element": "C" 
			},
			{
				"x": -0.3432047964,
				"y": -4.3086474471,
				"z": -1.9477638674,
				"element": "N" 
			},
			{
				"x": -0.3413896993,
				"y": -0.4487777204,
				"z": -1.3019199263,
				"element": "C" 
			},
			{
				"x": -0.3424698461,
				"y": 0.6299709556,
				"z": -2.1911646026,
				"element": "C" 
			},
			{
				"x": -0.05905142,
				"y": 1.9110399076,
				"z": -1.7286021401,
				"element": "C" 
			},
			{
				"x": 0.2254044424,
				"y": 2.1277473901,
				"z": -0.375984371,
				"element": "C" 
			},
			{
				"x": 0.8939006371,
				"y": 2.2720960007,
				"z": 3.4739051708,
				"element": "H" 
			},
			{
				"x": 1.619859767,
				"y": 2.9052001968,
				"z": 1.9725076713,
				"element": "H" 
			},
			{
				"x": -0.1355870773,
				"y": 3.0883747257,
				"z": 2.2649085186,
				"element": "H" 
			},
			{
				"x": -0.2603902023,
				"y": -1.0298673768,
				"z": 1.9388024728,
				"element": "H" 
			},
			{
				"x": 1.6972515435,
				"y": -2.1672223227,
				"z": -0.8734634838,
				"element": "H" 
			},
			{
				"x": 2.0658868489,
				"y": -3.6780093923,
				"z": -0.0051108917,
				"element": "H" 
			},
			{
				"x": -0.6206967147,
				"y": -1.4365683212,
				"z": -1.6513147561,
				"element": "H" 
			},
			{
				"x": -0.5883015927,
				"y": 0.4623137557,
				"z": -3.2346356431,
				"element": "H" 
			},
			{
				"x": -0.0687605785,
				"y": 2.7552740091,
				"z": -2.4111114128,
				"element": "H" 
			},
			{
				"x": 0.4326414118,
				"y": 3.1315212746,
				"z": -0.0247596603,
				"element": "H" 
			}
		],
		 "valence_orbital": [ 
			{
				"type": "occ",
				"energy": -0.3297,
				"method": "rhf"
			},
			{
				"type": "occ",
				"energy": -0.30755,
				"method": "rhf"
			},
			{
				"type": "occ",
				"energy": -0.26837,
				"method": "rhf"
			},
			{
				"type": "occ",
				"energy": -0.25378,
				"method": "rhf"
			},
			{
				"type": "occ",
				"energy": -0.22664,
				"method": "rhf"
			},
			{
				"type": "unocc",
				"energy": -0.02737,
				"method": "rhf"
			},
			{
				"type": "unocc",
				"energy": -0.0089,
				"method": "rhf"
			},
			{
				"type": "unocc",
				"energy": 0.01227,
				"method": "rhf"
			},
			{
				"type": "unocc",
				"energy": 0.03254,
				"method": "rhf"
			},
			{
				"type": "unocc",
				"energy": 0.04224,
				"method": "rhf"
			}
		],
		"cosmo_sigma_profile": { 
			"-0.025": 0.0,
			"-0.024": 0.0,
			"-0.023": 0.0,
			"-0.022": 0.0,
			"-0.021": 0.0,
			"-0.02": 0.0,
			"-0.019": 0.0,
			"-0.018": 0.0,
			"-0.017": 0.0,
			"-0.016": 0.0,
			"-0.015": 0.0,
			"-0.014": 0.0,
			"-0.013": 0.167457900611,
			"-0.012": 0.727866380069,
			"-0.011": 0.661860005024,
			"-0.01": 2.02290426765,
			"-0.009": 4.22746429939,
			"-0.008": 5.60450259639,
			"-0.007": 8.31212098962,
			"-0.006": 17.4467852577,
			"-0.005": 19.3904481751,
			"-0.004": 20.9899864278,
			"-0.003": 18.4541335964,
			"-0.002": 12.1603696364,
			"-0.001": 12.1182704727,
			"0.0": 11.1333506474,
			"0.001": 13.2242066679,
			"0.002": 13.4611358978,
			"0.003": 11.6389311,
			"0.004": 12.0126395408,
			"0.005": 11.4239476596,
			"0.006": 4.4928205471,
			"0.007": 3.78987558375,
			"0.008": 5.35822112706,
			"0.009": 4.37675327423,
			"0.01": 4.1145007376,
			"0.011": 4.87549432505,
			"0.012": 7.33019698988,
			"0.013": 4.09855204385,
			"0.014": 0.0761077050303,
			"0.015": 0.0,
			"0.016": 0.0,
			"0.017": 0.0,
			"0.018": 0.0,
			"0.019": 0.0,
			"0.02": 0.0,
			"0.021": 0.0,
			"0.022": 0.0,
			"0.023": 0.0,
			"0.024": 0.0,
			"0.0": 0.0
		}
	}
}
