{
	 "smiles": "COC1=CC=C(O)C=C1OC", 
	 "Tm": 355.15, 
	 "num_atms": 21, 
	 "gaussian": { 
		 "optdone": 1, 
		 "sigma_profile": "yes", 
		 "theory": "DFT", 
		 "functional": "B3LYP", 
		 "basiset": "6-31G**", 
		 "properties": { 
			 "R2extent": 2788.5734, 
			 "electric_dipole_moment_norm": 1.39713665402, 
			 "electric_quadrupole_moment_norm": 8.89506570858, 
			 "total_energy": -536.508744837, 
			 "HOMO_LUMO_gap": 0.21006, 
			 "cosmo_polarized_energy": -9.88, 
			 "cosmo_cavitation_energy": 24.56, 
			 "cosmo_dispersion_energy": -17.92, 
			 "cosmo_repulsion_energy": 1.46, 
			 "cosmo_total_nonelectrostatic_energy": 8.1, 
			 "SMD_solvation_energy": 6.08 
		},
		"coords": [
			{
				"x": 1.2282238357,
				"y": -3.1458728979,
				"z": -0.9470257307,
				"element": "C" 
			},
			{
				"x": 0.1627751351,
				"y": -2.4266297508,
				"z": -1.5761348888,
				"element": "O" 
			},
			{
				"x": 0.4952499107,
				"y": -1.1425486857,
				"z": -1.9627427851,
				"element": "C" 
			},
			{
				"x": 0.6426740674,
				"y": -0.8498220801,
				"z": -3.3198547202,
				"element": "C" 
			},
			{
				"x": 0.9584700999,
				"y": 0.4362648411,
				"z": -3.7517288332,
				"element": "C" 
			},
			{
				"x": 1.1418316905,
				"y": 1.4523034513,
				"z": -2.8084756862,
				"element": "C" 
			},
			{
				"x": 1.4633498105,
				"y": 2.6982857791,
				"z": -3.2732691259,
				"element": "O" 
			},
			{
				"x": 0.9830460001,
				"y": 1.1777630194,
				"z": -1.4466646529,
				"element": "C" 
			},
			{
				"x": 0.6557175399,
				"y": -0.1112650671,
				"z": -1.0207183615,
				"element": "C" 
			},
			{
				"x": 0.5452486804,
				"y": -0.3399837699,
				"z": 0.3323678804,
				"element": "O" 
			},
			{
				"x": -0.7697011535,
				"y": -0.689890815,
				"z": 0.7820960538,
				"element": "C" 
			},
			{
				"x": 1.5613804995,
				"y": -2.6451312393,
				"z": -0.0317502565,
				"element": "H" 
			},
			{
				"x": 0.8313465953,
				"y": -4.1335461393,
				"z": -0.7016302642,
				"element": "H" 
			},
			{
				"x": 2.0803508079,
				"y": -3.2577484318,
				"z": -1.6296890053,
				"element": "H" 
			},
			{
				"x": 0.5049885048,
				"y": -1.6557625217,
				"z": -4.0339587661,
				"element": "H" 
			},
			{
				"x": 1.0759026101,
				"y": 0.6650965244,
				"z": -4.8052520497,
				"element": "H" 
			},
			{
				"x": 1.5660307248,
				"y": 3.2979650987,
				"z": -2.523388533,
				"element": "H" 
			},
			{
				"x": 1.1077210306,
				"y": 1.9517432086,
				"z": -0.6936482354,
				"element": "H" 
			},
			{
				"x": -0.6915512398,
				"y": -0.8433543303,
				"z": 1.8604216359,
				"element": "H" 
			},
			{
				"x": -1.4761393751,
				"y": 0.1260771049,
				"z": 0.5834020338,
				"element": "H" 
			},
			{
				"x": -1.1256157746,
				"y": -1.6051432985,
				"z": 0.3005442911,
				"element": "H" 
			}
		],
		 "valence_orbital": [ 
			{
				"type": "occ",
				"energy": -0.3145,
				"method": "rhf"
			},
			{
				"type": "occ",
				"energy": -0.28876,
				"method": "rhf"
			},
			{
				"type": "occ",
				"energy": -0.26086,
				"method": "rhf"
			},
			{
				"type": "occ",
				"energy": -0.24,
				"method": "rhf"
			},
			{
				"type": "occ",
				"energy": -0.20888,
				"method": "rhf"
			},
			{
				"type": "unocc",
				"energy": 0.00118,
				"method": "rhf"
			},
			{
				"type": "unocc",
				"energy": 0.01822,
				"method": "rhf"
			},
			{
				"type": "unocc",
				"energy": 0.07076,
				"method": "rhf"
			},
			{
				"type": "unocc",
				"energy": 0.09036,
				"method": "rhf"
			},
			{
				"type": "unocc",
				"energy": 0.11199,
				"method": "rhf"
			}
		],
		"cosmo_sigma_profile": { 
			"-0.025": 0.0,
			"-0.024": 0.0,
			"-0.023": 0.0,
			"-0.022": 0.0,
			"-0.021": 0.0,
			"-0.02": 0.0,
			"-0.019": 0.0,
			"-0.018": 0.274632539294,
			"-0.017": 1.30499596197,
			"-0.016": 0.90758281444,
			"-0.015": 1.31721297768,
			"-0.014": 0.803815712766,
			"-0.013": 0.808461158247,
			"-0.012": 0.857158396137,
			"-0.011": 1.01495154448,
			"-0.01": 1.21908352898,
			"-0.009": 1.02592878162,
			"-0.008": 1.31691216662,
			"-0.007": 1.60234909211,
			"-0.006": 5.66386179594,
			"-0.005": 9.59046921046,
			"-0.004": 16.1508120934,
			"-0.003": 20.8109720705,
			"-0.002": 19.0959873249,
			"-0.001": 13.5395290104,
			"0.0": 12.4649057476,
			"0.001": 10.5154351992,
			"0.002": 9.82364664261,
			"0.003": 12.0329742187,
			"0.004": 16.2195454606,
			"0.005": 10.4705808882,
			"0.006": 4.76981304385,
			"0.007": 4.24883844635,
			"0.008": 3.42021515358,
			"0.009": 2.76717592105,
			"0.01": 3.68881405435,
			"0.011": 3.96043037499,
			"0.012": 2.57200168871,
			"0.013": 0.120544629283,
			"0.014": 0.0,
			"0.015": 0.0,
			"0.016": 0.0,
			"0.017": 0.0,
			"0.018": 0.0,
			"0.019": 0.0,
			"0.02": 0.0,
			"0.021": 0.0,
			"0.022": 0.0,
			"0.023": 0.0,
			"0.024": 0.0,
			"0.025": 0.0
		}
	}
}
