{
	 "smiles": "CN1C(=O)C=C(N)N(CC(C)=C)C1=O", 
	 "Tm": 448.15, 
	 "num_atms": 27, 
	 "gaussian": { 
		 "optdone": 1, 
		 "sigma_profile": "yes", 
		 "theory": "DFT", 
		 "functional": "B3LYP", 
		 "basiset": "6-31G**", 
		 "properties": { 
			 "R2extent": 3414.7902, 
			 "electric_dipole_moment_norm": 5.80568626176, 
			 "electric_quadrupole_moment_norm": 10.1032168828, 
			 "total_energy": -665.519954863, 
			 "HOMO_LUMO_gap": 0.20868, 
			 "cosmo_polarized_energy": -17.87, 
			 "cosmo_cavitation_energy": 29.84, 
			 "cosmo_dispersion_energy": -21.26, 
			 "cosmo_repulsion_energy": 1.66, 
			 "cosmo_total_nonelectrostatic_energy": 10.24, 
			 "SMD_solvation_energy": 7.28 
		},
		"coords": [
			{
				"x": -0.8214697586,
				"y": -2.1551995366,
				"z": -3.7786866451,
				"element": "C" 
			},
			{
				"x": -0.1658790234,
				"y": -1.7025479766,
				"z": -2.5493425704,
				"element": "N" 
			},
			{
				"x": 0.6499295304,
				"y": -2.6261358222,
				"z": -1.8284835862,
				"element": "C" 
			},
			{
				"x": 0.787436341,
				"y": -3.775505924,
				"z": -2.2314404816,
				"element": "O" 
			},
			{
				"x": 1.2370940482,
				"y": -2.0908479003,
				"z": -0.6302294648,
				"element": "C" 
			},
			{
				"x": 1.0384359509,
				"y": -0.7951553834,
				"z": -0.2504279191,
				"element": "C" 
			},
			{
				"x": 1.6352296873,
				"y": -0.2271675826,
				"z": 0.8600016291,
				"element": "N" 
			},
			{
				"x": 0.2481483024,
				"y": 0.054205803,
				"z": -1.0119519697,
				"element": "N" 
			},
			{
				"x": 0.146797507,
				"y": 1.4835536959,
				"z": -0.7067555652,
				"element": "C" 
			},
			{
				"x": -0.7704215881,
				"y": 1.8577509629,
				"z": 0.4435343195,
				"element": "C" 
			},
			{
				"x": -0.7593562869,
				"y": 3.3297197917,
				"z": 0.7725759519,
				"element": "C" 
			},
			{
				"x": -1.5370792933,
				"y": 0.9759337588,
				"z": 1.0930711592,
				"element": "C" 
			},
			{
				"x": -0.3793259693,
				"y": -0.386207484,
				"z": -2.196603146,
				"element": "C" 
			},
			{
				"x": -1.0635947521,
				"y": 0.3728381796,
				"z": -2.870486997,
				"element": "O" 
			},
			{
				"x": -1.9027306591,
				"y": -2.024392187,
				"z": -3.6965981631,
				"element": "H" 
			},
			{
				"x": -0.5686761825,
				"y": -3.2057876322,
				"z": -3.9035434052,
				"element": "H" 
			},
			{
				"x": -0.4684447848,
				"y": -1.5710239789,
				"z": -4.63180036,
				"element": "H" 
			},
			{
				"x": 1.8290271805,
				"y": -2.7638893576,
				"z": -0.024508252,
				"element": "H" 
			},
			{
				"x": 2.1167280801,
				"y": -0.8986204159,
				"z": 1.4422267411,
				"element": "H" 
			},
			{
				"x": 1.0388443664,
				"y": 0.3930883947,
				"z": 1.3970267299,
				"element": "H" 
			},
			{
				"x": 1.156062068,
				"y": 1.8646756602,
				"z": -0.5089588492,
				"element": "H" 
			},
			{
				"x": -0.2156299636,
				"y": 1.9594502396,
				"z": -1.6213147134,
				"element": "H" 
			},
			{
				"x": -1.4244037716,
				"y": 3.558258492,
				"z": 1.6084969012,
				"element": "H" 
			},
			{
				"x": -1.0823163914,
				"y": 3.9233924251,
				"z": -0.0919591173,
				"element": "H" 
			},
			{
				"x": 0.2496292871,
				"y": 3.6759105591,
				"z": 1.0306717981,
				"element": "H" 
			},
			{
				"x": -1.5599487753,
				"y": -0.0752769943,
				"z": 0.8234560317,
				"element": "H" 
			},
			{
				"x": -2.1930851494,
				"y": 1.289980213,
				"z": 1.8992299437,
				"element": "H" 
			}
		],
		 "valence_orbital": [ 
			{
				"type": "occ",
				"energy": -0.28456,
				"method": "rhf"
			},
			{
				"type": "occ",
				"energy": -0.26877,
				"method": "rhf"
			},
			{
				"type": "occ",
				"energy": -0.25776,
				"method": "rhf"
			},
			{
				"type": "occ",
				"energy": -0.24485,
				"method": "rhf"
			},
			{
				"type": "occ",
				"energy": -0.21989,
				"method": "rhf"
			},
			{
				"type": "unocc",
				"energy": -0.01121,
				"method": "rhf"
			},
			{
				"type": "unocc",
				"energy": 0.00179,
				"method": "rhf"
			},
			{
				"type": "unocc",
				"energy": 0.02215,
				"method": "rhf"
			},
			{
				"type": "unocc",
				"energy": 0.06482,
				"method": "rhf"
			},
			{
				"type": "unocc",
				"energy": 0.08625,
				"method": "rhf"
			}
		],
		"cosmo_sigma_profile": { 
			"-0.025": 0.0,
			"-0.024": 0.0,
			"-0.023": 0.0,
			"-0.022": 0.0,
			"-0.021": 0.0,
			"-0.02": 0.0,
			"-0.019": 0.0,
			"-0.018": 0.0,
			"-0.017": 0.0,
			"-0.016": 0.0,
			"-0.015": 0.0905173662607,
			"-0.014": 1.4144564499,
			"-0.013": 1.80831534248,
			"-0.012": 1.75488423764,
			"-0.011": 2.34126568083,
			"-0.01": 2.75486896194,
			"-0.009": 1.52187384854,
			"-0.008": 2.04425477754,
			"-0.007": 3.67074815864,
			"-0.006": 7.14299801984,
			"-0.005": 16.7806477378,
			"-0.004": 24.2994796015,
			"-0.003": 24.4303834112,
			"-0.002": 24.394752528,
			"-0.001": 21.4350465391,
			"0.0": 15.1929901491,
			"0.001": 11.4041939792,
			"0.002": 8.61991973403,
			"0.003": 10.2045328151,
			"0.004": 8.8995564942,
			"0.005": 5.93337135144,
			"0.006": 4.35993400248,
			"0.007": 3.67351222662,
			"0.008": 3.12349275728,
			"0.009": 3.69929351877,
			"0.01": 3.53423587105,
			"0.011": 3.31131409315,
			"0.012": 5.42701961261,
			"0.013": 6.61763242289,
			"0.014": 4.63237541492,
			"0.015": 1.20200526181,
			"0.016": 0.0,
			"0.017": 0.0,
			"0.018": 0.0,
			"0.019": 0.0,
			"0.02": 0.0,
			"0.021": 0.0,
			"0.022": 0.0,
			"0.023": 0.0,
			"0.024": 0.0,
			"0.025": 0.0
		}
	}
}
