{
	 "smiles": "FC(F)(F)C1OC(=O)CS1", 
	 "Tm": 339.15, 
	 "num_atms": 13, 
	 "gaussian": { 
		 "optdone": 1, 
		 "sigma_profile": "yes", 
		 "theory": "DFT", 
		 "functional": "B3LYP", 
		 "basiset": "6-31G**", 
		 "properties": { 
			 "R2extent": 1650.0181, 
			 "electric_dipole_moment_norm": 2.27689097675, 
			 "electric_quadrupole_moment_norm": 10.9154583582, 
			 "total_energy": -1002.38607588, 
			 "HOMO_LUMO_gap": 0.23437, 
			 "cosmo_polarized_energy": -8.8, 
			 "cosmo_cavitation_energy": 20.13, 
			 "cosmo_dispersion_energy": -15.12, 
			 "cosmo_repulsion_energy": 1.13, 
			 "cosmo_total_nonelectrostatic_energy": 6.14, 
			 "SMD_solvation_energy": 5.13 
		},
		"coords": [
			{
				"x": -1.5698697686,
				"y": -2.3128871286,
				"z": 1.5561946312,
				"element": "F" 
			},
			{
				"x": -0.7225912174,
				"y": -1.2868707081,
				"z": 1.3739169346,
				"element": "C" 
			},
			{
				"x": 0.1747511266,
				"y": -1.3003005665,
				"z": 2.3737588309,
				"element": "F" 
			},
			{
				"x": -1.4315234211,
				"y": -0.1428990925,
				"z": 1.4468081089,
				"element": "F" 
			},
			{
				"x": -0.0116290258,
				"y": -1.4128231954,
				"z": 0.0208216401,
				"element": "C" 
			},
			{
				"x": -0.9857226029,
				"y": -1.4164731326,
				"z": -1.0014195325,
				"element": "O" 
			},
			{
				"x": -1.1584452045,
				"y": -0.2165476586,
				"z": -1.6505709141,
				"element": "C" 
			},
			{
				"x": -2.0273308005,
				"y": -0.066189516,
				"z": -2.4598748208,
				"element": "O" 
			},
			{
				"x": -0.1406405113,
				"y": 0.8371916832,
				"z": -1.2209239628,
				"element": "C" 
			},
			{
				"x": 1.1689249176,
				"y": -0.0326479495,
				"z": -0.2982856004,
				"element": "S" 
			},
			{
				"x": 0.526404673,
				"y": -2.3623087971,
				"z": 0.0004788494,
				"element": "H" 
			},
			{
				"x": -0.6461244604,
				"y": 1.5898932569,
				"z": -0.6095669449,
				"element": "H" 
			},
			{
				"x": 0.2684962953,
				"y": 1.3161628046,
				"z": -2.1109372198,
				"element": "H" 
			}
		],
		 "valence_orbital": [ 
			{
				"type": "occ",
				"energy": -0.40311,
				"method": "rhf"
			},
			{
				"type": "occ",
				"energy": -0.36535,
				"method": "rhf"
			},
			{
				"type": "occ",
				"energy": -0.33178,
				"method": "rhf"
			},
			{
				"type": "occ",
				"energy": -0.3012,
				"method": "rhf"
			},
			{
				"type": "occ",
				"energy": -0.26592,
				"method": "rhf"
			},
			{
				"type": "unocc",
				"energy": -0.03155,
				"method": "rhf"
			},
			{
				"type": "unocc",
				"energy": -0.00408,
				"method": "rhf"
			},
			{
				"type": "unocc",
				"energy": 0.03372,
				"method": "rhf"
			},
			{
				"type": "unocc",
				"energy": 0.07664,
				"method": "rhf"
			},
			{
				"type": "unocc",
				"energy": 0.09939,
				"method": "rhf"
			}
		],
		"cosmo_sigma_profile": { 
			"-0.025": 0.0,
			"-0.024": 0.0,
			"-0.023": 0.0,
			"-0.022": 0.0,
			"-0.021": 0.0,
			"-0.02": 0.0,
			"-0.019": 0.0,
			"-0.018": 0.0,
			"-0.017": 0.0,
			"-0.016": 0.0,
			"-0.015": 0.0,
			"-0.014": 0.0,
			"-0.013": 0.0,
			"-0.012": 1.59140286301,
			"-0.011": 2.80710978743,
			"-0.01": 2.37865198953,
			"-0.009": 6.24862328147,
			"-0.008": 5.66547897432,
			"-0.007": 6.12373463756,
			"-0.006": 5.96264054484,
			"-0.005": 6.72112612698,
			"-0.004": 5.34977703945,
			"-0.003": 6.08450863167,
			"-0.002": 7.20057892372,
			"-0.001": 7.45443397064,
			"0.0": 9.16378418932,
			"0.001": 15.4848840074,
			"0.002": 31.8735608696,
			"0.003": 10.2479753636,
			"0.004": 5.49281248827,
			"0.005": 4.19020996919,
			"0.006": 4.64650486681,
			"0.007": 4.62303815258,
			"0.008": 2.53485524958,
			"0.009": 3.76953372969,
			"0.01": 5.60497712991,
			"0.011": 2.00800862585,
			"0.012": 0.00580944455597,
			"0.013": 0.0,
			"0.014": 0.0,
			"0.015": 0.0,
			"0.016": 0.0,
			"0.017": 0.0,
			"0.018": 0.0,
			"0.019": 0.0,
			"0.02": 0.0,
			"0.021": 0.0,
			"0.022": 0.0,
			"0.023": 0.0,
			"0.024": 0.0,
			"0.025": 0.0
		}
	}
}
