{
	 "smiles": "CCOC(=O)C1=C(C)NC(C)=C(C1C1=CC=CC(OC)=C1O)C(=O)OCC", 
	 "Tm": 480.15, 
	 "num_atms": 52, 
	 "gaussian": { 
		 "optdone": 1, 
		 "sigma_profile": "yes", 
		 "theory": "DFT", 
		 "functional": "B3LYP", 
		 "basiset": "6-31G**", 
		 "properties": { 
			 "R2extent": 10651.8996, 
			 "electric_dipole_moment_norm": 3.17088090757, 
			 "electric_quadrupole_moment_norm": 20.876884588, 
			 "total_energy": -1283.30238661, 
			 "HOMO_LUMO_gap": 0.15212, 
			 "cosmo_polarized_energy": -25.26, 
			 "cosmo_cavitation_energy": 53.44, 
			 "cosmo_dispersion_energy": -35.25, 
			 "cosmo_repulsion_energy": 2.76, 
			 "cosmo_total_nonelectrostatic_energy": 20.95, 
			 "SMD_solvation_energy": 12.03 
		},
		"coords": [
			{
				"x": 3.995606373,
				"y": -4.3657911175,
				"z": 0.4562189052,
				"element": "C" 
			},
			{
				"x": 2.7190899946,
				"y": -4.6330553309,
				"z": -0.3286669607,
				"element": "C" 
			},
			{
				"x": 1.6045555225,
				"y": -3.8770622804,
				"z": 0.1928385238,
				"element": "O" 
			},
			{
				"x": 1.4945011503,
				"y": -2.5898503819,
				"z": -0.2518413271,
				"element": "C" 
			},
			{
				"x": 2.2818301119,
				"y": -2.1132985533,
				"z": -1.052032519,
				"element": "O" 
			},
			{
				"x": 0.3467909712,
				"y": -1.846794141,
				"z": 0.2952409825,
				"element": "C" 
			},
			{
				"x": -0.5725115733,
				"y": -2.3624445667,
				"z": 1.1582752825,
				"element": "C" 
			},
			{
				"x": -0.5788745635,
				"y": -3.727174777,
				"z": 1.8048660259,
				"element": "C" 
			},
			{
				"x": -1.6739561468,
				"y": -1.5891739347,
				"z": 1.4993690063,
				"element": "N" 
			},
			{
				"x": -2.0438233583,
				"y": -0.4274149169,
				"z": 0.8376246375,
				"element": "C" 
			},
			{
				"x": -3.4350591326,
				"y": 0.0537840087,
				"z": 1.1620695984,
				"element": "C" 
			},
			{
				"x": -1.1653183152,
				"y": 0.1417849766,
				"z": -0.0323501352,
				"element": "C" 
			},
			{
				"x": 0.2607440655,
				"y": -0.3914343902,
				"z": -0.1728515662,
				"element": "C" 
			},
			{
				"x": 1.2678346954,
				"y": 0.4899731384,
				"z": 0.5799410347,
				"element": "C" 
			},
			{
				"x": 1.2072297525,
				"y": 0.6202955235,
				"z": 1.9776547024,
				"element": "C" 
			},
			{
				"x": 2.1192201642,
				"y": 1.3990486139,
				"z": 2.6792042798,
				"element": "C" 
			},
			{
				"x": 3.1350895687,
				"y": 2.0801483818,
				"z": 1.9955133373,
				"element": "C" 
			},
			{
				"x": 3.2063558828,
				"y": 1.9664397447,
				"z": 0.612484405,
				"element": "C" 
			},
			{
				"x": 4.1426455405,
				"y": 2.5731444582,
				"z": -0.1984216119,
				"element": "O" 
			},
			{
				"x": 5.1565729415,
				"y": 3.3485362119,
				"z": 0.4167299097,
				"element": "C" 
			},
			{
				"x": 2.2768629193,
				"y": 1.1780455831,
				"z": -0.1021231967,
				"element": "C" 
			},
			{
				"x": 2.381358779,
				"y": 1.1077565134,
				"z": -1.4563931822,
				"element": "O" 
			},
			{
				"x": -1.5819480277,
				"y": 1.3158811345,
				"z": -0.8172377123,
				"element": "C" 
			},
			{
				"x": -2.660828948,
				"y": 1.8914225211,
				"z": -0.7450560976,
				"element": "O" 
			},
			{
				"x": -0.6030195181,
				"y": 1.7067833026,
				"z": -1.6689907538,
				"element": "O" 
			},
			{
				"x": -0.8721012054,
				"y": 2.8561658306,
				"z": -2.4937416947,
				"element": "C" 
			},
			{
				"x": -1.6176587611,
				"y": 2.469098981,
				"z": -3.7634268871,
				"element": "C" 
			},
			{
				"x": 4.300569574,
				"y": -3.3232226096,
				"z": 0.341648956,
				"element": "H" 
			},
			{
				"x": 4.803507517,
				"y": -5.005191208,
				"z": 0.0840406291,
				"element": "H" 
			},
			{
				"x": 3.8522533079,
				"y": -4.5789107309,
				"z": 1.520082585,
				"element": "H" 
			},
			{
				"x": 2.8519592036,
				"y": -4.3855202043,
				"z": -1.3843848036,
				"element": "H" 
			},
			{
				"x": 2.4067028575,
				"y": -5.6769734215,
				"z": -0.2372076391,
				"element": "H" 
			},
			{
				"x": 0.3829241206,
				"y": -3.9525418626,
				"z": 2.2643756912,
				"element": "H" 
			},
			{
				"x": -1.3567078866,
				"y": -3.7825995549,
				"z": 2.573881403,
				"element": "H" 
			},
			{
				"x": -0.7685178865,
				"y": -4.5117391776,
				"z": 1.0673746366,
				"element": "H" 
			},
			{
				"x": -2.3577554304,
				"y": -2.0053693292,
				"z": 2.1118769891,
				"element": "H" 
			},
			{
				"x": -4.0853912311,
				"y": -0.0101020011,
				"z": 0.2858990608,
				"element": "H" 
			},
			{
				"x": -3.8723525712,
				"y": -0.5442811255,
				"z": 1.9694309504,
				"element": "H" 
			},
			{
				"x": -3.4293316394,
				"y": 1.1039973812,
				"z": 1.4555909918,
				"element": "H" 
			},
			{
				"x": 0.5481524637,
				"y": -0.3626271916,
				"z": -1.2238511639,
				"element": "H" 
			},
			{
				"x": 0.4268120774,
				"y": 0.0928050564,
				"z": 2.5177589158,
				"element": "H" 
			},
			{
				"x": 2.0517185764,
				"y": 1.4832426415,
				"z": 3.7596220291,
				"element": "H" 
			},
			{
				"x": 3.8492184238,
				"y": 2.6862513393,
				"z": 2.5412497752,
				"element": "H" 
			},
			{
				"x": 5.7576437265,
				"y": 2.7458850314,
				"z": 1.1096804155,
				"element": "H" 
			},
			{
				"x": 5.7943763521,
				"y": 3.7150827944,
				"z": -0.3893997894,
				"element": "H" 
			},
			{
				"x": 4.7337055532,
				"y": 4.2033386273,
				"z": 0.9600937966,
				"element": "H" 
			},
			{
				"x": 3.1859162229,
				"y": 1.5900164903,
				"z": -1.7002244579,
				"element": "H" 
			},
			{
				"x": -1.4420283595,
				"y": 3.5862239921,
				"z": -1.9131979414,
				"element": "H" 
			},
			{
				"x": 0.1174889948,
				"y": 3.2603637739,
				"z": -2.7201658661,
				"element": "H" 
			},
			{
				"x": -2.6107980525,
				"y": 2.0837800431,
				"z": -3.5201616628,
				"element": "H" 
			},
			{
				"x": -1.0660519927,
				"y": 1.7045409282,
				"z": -4.3185426353,
				"element": "H" 
			},
			{
				"x": -1.7368028047,
				"y": 3.3457357841,
				"z": -4.4095678523,
				"element": "H" 
			}
		],
		 "valence_orbital": [ 
			{
				"type": "occ",
				"energy": -0.2538,
				"method": "rhf"
			},
			{
				"type": "occ",
				"energy": -0.24582,
				"method": "rhf"
			},
			{
				"type": "occ",
				"energy": -0.21648,
				"method": "rhf"
			},
			{
				"type": "occ",
				"energy": -0.19485,
				"method": "rhf"
			},
			{
				"type": "occ",
				"energy": -0.19142,
				"method": "rhf"
			},
			{
				"type": "unocc",
				"energy": -0.0393,
				"method": "rhf"
			},
			{
				"type": "unocc",
				"energy": 0.01389,
				"method": "rhf"
			},
			{
				"type": "unocc",
				"energy": 0.02247,
				"method": "rhf"
			},
			{
				"type": "unocc",
				"energy": 0.03165,
				"method": "rhf"
			},
			{
				"type": "unocc",
				"energy": 0.06434,
				"method": "rhf"
			}
		],
		"cosmo_sigma_profile": { 
			"-0.025": 0.0,
			"-0.024": 0.0,
			"-0.023": 0.0,
			"-0.022": 0.0,
			"-0.021": 0.0,
			"-0.02": 0.0,
			"-0.019": 0.0,
			"-0.018": 0.0,
			"-0.017": 0.0,
			"-0.016": 0.128509949768,
			"-0.015": 1.0815058473,
			"-0.014": 1.6457650865,
			"-0.013": 1.93441083624,
			"-0.012": 1.85776293766,
			"-0.011": 2.1301526445,
			"-0.01": 2.11103273184,
			"-0.009": 1.74065712048,
			"-0.008": 2.63816940507,
			"-0.007": 2.90169915924,
			"-0.006": 8.31431498414,
			"-0.005": 24.425108921,
			"-0.004": 36.1821934481,
			"-0.003": 48.7945146326,
			"-0.002": 43.0833916667,
			"-0.001": 40.2617892776,
			"0.0": 40.6575544142,
			"0.001": 28.5950514835,
			"0.002": 24.8670615955,
			"0.003": 20.991099495,
			"0.004": 17.5062696494,
			"0.005": 13.2339304011,
			"0.006": 13.7929066805,
			"0.007": 9.33766553456,
			"0.008": 4.52012624634,
			"0.009": 3.94947910877,
			"0.01": 4.81835263972,
			"0.011": 5.2892387201,
			"0.012": 4.46168249946,
			"0.013": 6.54386460471,
			"0.014": 2.79282529329,
			"0.015": 0.243821606047,
			"0.016": 0.0,
			"0.017": 0.0,
			"0.018": 0.0,
			"0.019": 0.0,
			"0.02": 0.0,
			"0.021": 0.0,
			"0.022": 0.0,
			"0.023": 0.0,
			"0.024": 0.0,
			"0.025": 0.0
		}
	}
}
