{
	 "smiles": "OC(=O)COC1=CC=C(C=C1)C(F)(F)F", 
	 "Tm": 458.15, 
	 "num_atms": 22, 
	 "gaussian": { 
		 "optdone": 1, 
		 "sigma_profile": "yes", 
		 "theory": "DFT", 
		 "functional": "B3LYP", 
		 "basiset": "6-31G**", 
		 "properties": { 
			 "R2extent": 4558.8761, 
			 "electric_dipole_moment_norm": 3.20685797004, 
			 "electric_quadrupole_moment_norm": 22.2073438101, 
			 "total_energy": -872.370830904, 
			 "HOMO_LUMO_gap": 0.22254, 
			 "cosmo_polarized_energy": -13.42, 
			 "cosmo_cavitation_energy": 28.45, 
			 "cosmo_dispersion_energy": -20.16, 
			 "cosmo_repulsion_energy": 1.53, 
			 "cosmo_total_nonelectrostatic_energy": 9.81, 
			 "SMD_solvation_energy": 7.49 
		},
		"coords": [
			{
				"x": -1.1786862555,
				"y": -2.1770030583,
				"z": -3.0542161251,
				"element": "O" 
			},
			{
				"x": -0.9678401872,
				"y": -0.9885983569,
				"z": -3.6497049416,
				"element": "C" 
			},
			{
				"x": -0.1477928309,
				"y": -0.8266114107,
				"z": -4.5173746964,
				"element": "O" 
			},
			{
				"x": -1.8945293817,
				"y": 0.1382191299,
				"z": -3.1774300125,
				"element": "C" 
			},
			{
				"x": -2.4948072359,
				"y": -0.1312542298,
				"z": -1.9124056216,
				"element": "O" 
			},
			{
				"x": -1.7908615147,
				"y": 0.184295758,
				"z": -0.7689846053,
				"element": "C" 
			},
			{
				"x": -2.5308505014,
				"y": 0.1400786609,
				"z": 0.419422344,
				"element": "C" 
			},
			{
				"x": -1.9123458334,
				"y": 0.4261796762,
				"z": 1.6286695452,
				"element": "C" 
			},
			{
				"x": -0.552808566,
				"y": 0.7601597032,
				"z": 1.6626713007,
				"element": "C" 
			},
			{
				"x": 0.1785034629,
				"y": 0.7988353602,
				"z": 0.4766024649,
				"element": "C" 
			},
			{
				"x": -0.4311868964,
				"y": 0.509192233,
				"z": -0.7454253619,
				"element": "C" 
			},
			{
				"x": 0.0935190908,
				"y": 1.1260873991,
				"z": 2.9692849246,
				"element": "C" 
			},
			{
				"x": -0.4050323254,
				"y": 0.3975987755,
				"z": 3.9937288109,
				"element": "F" 
			},
			{
				"x": -0.1110805679,
				"y": 2.427394425,
				"z": 3.2828713503,
				"element": "F" 
			},
			{
				"x": 1.4303789608,
				"y": 0.9338108026,
				"z": 2.9432071106,
				"element": "F" 
			},
			{
				"x": -1.8742315784,
				"y": -2.0631861856,
				"z": -2.3834052365,
				"element": "H" 
			},
			{
				"x": -1.3473397602,
				"y": 1.0841426124,
				"z": -3.1849403535,
				"element": "H" 
			},
			{
				"x": -2.7229182857,
				"y": 0.2154409751,
				"z": -3.8885111819,
				"element": "H" 
			},
			{
				"x": -3.5836086292,
				"y": -0.1167886523,
				"z": 0.3711676984,
				"element": "H" 
			},
			{
				"x": -2.4825031528,
				"y": 0.3876516576,
				"z": 2.5506611038,
				"element": "H" 
			},
			{
				"x": 1.2346788784,
				"y": 1.0429535655,
				"z": 0.5021625908,
				"element": "H" 
			},
			{
				"x": 0.1646431097,
				"y": 0.5252011594,
				"z": -1.6505511078,
				"element": "H" 
			}
		],
		 "valence_orbital": [ 
			{
				"type": "occ",
				"energy": -0.36195,
				"method": "rhf"
			},
			{
				"type": "occ",
				"energy": -0.32802,
				"method": "rhf"
			},
			{
				"type": "occ",
				"energy": -0.28696,
				"method": "rhf"
			},
			{
				"type": "occ",
				"energy": -0.28178,
				"method": "rhf"
			},
			{
				"type": "occ",
				"energy": -0.25596,
				"method": "rhf"
			},
			{
				"type": "unocc",
				"energy": -0.03342,
				"method": "rhf"
			},
			{
				"type": "unocc",
				"energy": -0.03075,
				"method": "rhf"
			},
			{
				"type": "unocc",
				"energy": -0.00607,
				"method": "rhf"
			},
			{
				"type": "unocc",
				"energy": 0.06637,
				"method": "rhf"
			},
			{
				"type": "unocc",
				"energy": 0.07411,
				"method": "rhf"
			}
		],
		"cosmo_sigma_profile": { 
			"-0.025": 0.0,
			"-0.024": 0.0,
			"-0.023": 0.0,
			"-0.022": 0.0,
			"-0.021": 0.0,
			"-0.02": 0.0,
			"-0.019": 0.0,
			"-0.018": 0.0,
			"-0.017": 0.111971633095,
			"-0.016": 0.500218320315,
			"-0.015": 0.74059082711,
			"-0.014": 0.408833390693,
			"-0.013": 0.718500674806,
			"-0.012": 1.27760928073,
			"-0.011": 1.10029124921,
			"-0.01": 3.10437007965,
			"-0.009": 5.54157485981,
			"-0.008": 6.97641006463,
			"-0.007": 11.547984349,
			"-0.006": 12.0229712332,
			"-0.005": 9.76657170132,
			"-0.004": 10.3474482774,
			"-0.003": 8.8114513838,
			"-0.002": 10.1183470414,
			"-0.001": 9.24296644695,
			"0.0": 13.2232247039,
			"0.001": 18.045914616,
			"0.002": 27.5731639088,
			"0.003": 39.3175737576,
			"0.004": 6.50669232271,
			"0.005": 2.74272061918,
			"0.006": 3.35804686692,
			"0.007": 2.64156339729,
			"0.008": 3.46468607721,
			"0.009": 4.66473716204,
			"0.01": 4.49161826724,
			"0.011": 5.24292469325,
			"0.012": 3.93712515881,
			"0.013": 0.403505656774,
			"0.014": 0.0,
			"0.015": 0.0,
			"0.016": 0.0,
			"0.017": 0.0,
			"0.018": 0.0,
			"0.019": 0.0,
			"0.02": 0.0,
			"0.021": 0.0,
			"0.022": 0.0,
			"0.023": 0.0,
			"0.024": 0.0,
			"0.025": 0.0
		}
	}
}
