{
	 "smiles": "O=CC1=C2C=CC=CC2=CC2=C1C=CC=C2", 
	 "Tm": 378.15, 
	 "num_atms": 26, 
	 "gaussian": { 
		 "optdone": 1, 
		 "sigma_profile": "yes", 
		 "theory": "DFT", 
		 "functional": "B3LYP", 
		 "basiset": "6-31G**", 
		 "properties": { 
			 "R2extent": 3721.8145, 
			 "electric_dipole_moment_norm": 3.54518161594, 
			 "electric_quadrupole_moment_norm": 13.0057433336, 
			 "total_energy": -652.847729387, 
			 "HOMO_LUMO_gap": 0.11867, 
			 "cosmo_polarized_energy": -9.24, 
			 "cosmo_cavitation_energy": 29.31, 
			 "cosmo_dispersion_energy": -22.02, 
			 "cosmo_repulsion_energy": 1.63, 
			 "cosmo_total_nonelectrostatic_energy": 8.93, 
			 "SMD_solvation_energy": 5.37 
		},
		"coords": [
			{
				"x": -1.4201459976,
				"y": -0.5293279035,
				"z": -2.3010475742,
				"element": "O" 
			},
			{
				"x": -1.1786454442,
				"y": 0.4916383807,
				"z": -1.6722384059,
				"element": "C" 
			},
			{
				"x": -0.3407741277,
				"y": 0.6230754465,
				"z": -0.4595208019,
				"element": "C" 
			},
			{
				"x": -0.3347380712,
				"y": 1.8781176752,
				"z": 0.2258052652,
				"element": "C" 
			},
			{
				"x": -1.1756643784,
				"y": 2.9892399011,
				"z": -0.1136006015,
				"element": "C" 
			},
			{
				"x": -1.1201326342,
				"y": 4.1736182819,
				"z": 0.5776168566,
				"element": "C" 
			},
			{
				"x": -0.2287244628,
				"y": 4.3497096209,
				"z": 1.6704580401,
				"element": "C" 
			},
			{
				"x": 0.5795556826,
				"y": 3.3132337136,
				"z": 2.048265418,
				"element": "C" 
			},
			{
				"x": 0.5483017075,
				"y": 2.0630677563,
				"z": 1.3554302558,
				"element": "C" 
			},
			{
				"x": 1.3638426737,
				"y": 1.0067932084,
				"z": 1.7679385221,
				"element": "C" 
			},
			{
				"x": 1.3512637375,
				"y": -0.237989315,
				"z": 1.1334955219,
				"element": "C" 
			},
			{
				"x": 0.4830080377,
				"y": -0.4510250894,
				"z": -0.0017552175,
				"element": "C" 
			},
			{
				"x": 0.5166368335,
				"y": -1.7447861702,
				"z": -0.6134545824,
				"element": "C" 
			},
			{
				"x": 1.3402097698,
				"y": -2.7344711853,
				"z": -0.1343159275,
				"element": "C" 
			},
			{
				"x": 2.1906208626,
				"y": -2.5167071805,
				"z": 0.9831746432,
				"element": "C" 
			},
			{
				"x": 2.1931788114,
				"y": -1.2947129754,
				"z": 1.5990415324,
				"element": "C" 
			},
			{
				"x": -1.6029326414,
				"y": 1.4416254935,
				"z": -2.0442728957,
				"element": "H" 
			},
			{
				"x": -1.8929006057,
				"y": 2.906930657,
				"z": -0.919330312,
				"element": "H" 
			},
			{
				"x": -1.7765490137,
				"y": 4.9892711273,
				"z": 0.2882810013,
				"element": "H" 
			},
			{
				"x": -0.2020302872,
				"y": 5.2962184621,
				"z": 2.2015184566,
				"element": "H" 
			},
			{
				"x": 1.2601384428,
				"y": 3.4158464199,
				"z": 2.8893809107,
				"element": "H" 
			},
			{
				"x": 2.0270492466,
				"y": 1.1570146864,
				"z": 2.6172816347,
				"element": "H" 
			},
			{
				"x": -0.1290292417,
				"y": -1.9301460151,
				"z": -1.4588273846,
				"element": "H" 
			},
			{
				"x": 1.3396717143,
				"y": -3.7062742171,
				"z": -0.6200595585,
				"element": "H" 
			},
			{
				"x": 2.8312292365,
				"y": -3.3170483913,
				"z": 1.3414771361,
				"element": "H" 
			},
			{
				"x": 2.8347601495,
				"y": -1.1022123882,
				"z": 2.454958067,
				"element": "H" 
			}
		],
		 "valence_orbital": [ 
			{
				"type": "occ",
				"energy": -0.30115,
				"method": "rhf"
			},
			{
				"type": "occ",
				"energy": -0.26278,
				"method": "rhf"
			},
			{
				"type": "occ",
				"energy": -0.24951,
				"method": "rhf"
			},
			{
				"type": "occ",
				"energy": -0.24147,
				"method": "rhf"
			},
			{
				"type": "occ",
				"energy": -0.20675,
				"method": "rhf"
			},
			{
				"type": "unocc",
				"energy": -0.08808,
				"method": "rhf"
			},
			{
				"type": "unocc",
				"energy": -0.02279,
				"method": "rhf"
			},
			{
				"type": "unocc",
				"energy": -0.02074,
				"method": "rhf"
			},
			{
				"type": "unocc",
				"energy": -0.00042,
				"method": "rhf"
			},
			{
				"type": "unocc",
				"energy": 0.05132,
				"method": "rhf"
			}
		],
		"cosmo_sigma_profile": { 
			"-0.025": 0.0,
			"-0.024": 0.0,
			"-0.023": 0.0,
			"-0.022": 0.0,
			"-0.021": 0.0,
			"-0.02": 0.0,
			"-0.019": 0.0,
			"-0.018": 0.0,
			"-0.017": 0.0,
			"-0.016": 0.0,
			"-0.015": 0.0,
			"-0.014": 0.0,
			"-0.013": 0.0,
			"-0.012": 0.0,
			"-0.011": 0.0,
			"-0.01": 0.0,
			"-0.009": 0.53330482615,
			"-0.008": 2.65496783736,
			"-0.007": 9.2431396169,
			"-0.006": 17.2082517802,
			"-0.005": 17.5006920488,
			"-0.004": 17.1296245936,
			"-0.003": 13.8214579111,
			"-0.002": 12.7701453265,
			"-0.001": 13.0561597855,
			"0.0": 13.8992081379,
			"0.001": 18.4775756766,
			"0.002": 31.2562217649,
			"0.003": 26.0924126345,
			"0.004": 21.5910881761,
			"0.005": 5.77009114727,
			"0.006": 1.88305933009,
			"0.007": 1.45923356695,
			"0.008": 1.56207672992,
			"0.009": 2.16090639557,
			"0.01": 2.00990135563,
			"0.011": 2.82404598413,
			"0.012": 2.29300965809,
			"0.013": 1.54604170073,
			"0.014": 0.149543399654,
			"0.015": 0.0,
			"0.016": 0.0,
			"0.017": 0.0,
			"0.018": 0.0,
			"0.019": 0.0,
			"0.02": 0.0,
			"0.021": 0.0,
			"0.022": 0.0,
			"0.023": 0.0,
			"0.024": 0.0,
			"0.025": 0.0
		}
	}
}
