{
	 "smiles": "OC(=O)CC1=COC2=C1C=CC=C2", 
	 "Tm": 364.65, 
	 "num_atms": 21, 
	 "gaussian": { 
		 "optdone": 1, 
		 "sigma_profile": "yes", 
		 "theory": "DFT", 
		 "functional": "B3LYP", 
		 "basiset": "6-31G**", 
		 "properties": { 
			 "R2extent": 2670.1462, 
			 "electric_dipole_moment_norm": 4.0006660358, 
			 "electric_quadrupole_moment_norm": 18.3065045476, 
			 "total_energy": -611.554773404, 
			 "HOMO_LUMO_gap": 0.20098, 
			 "cosmo_polarized_energy": -14.25, 
			 "cosmo_cavitation_energy": 25.8, 
			 "cosmo_dispersion_energy": -18.62, 
			 "cosmo_repulsion_energy": 1.47, 
			 "cosmo_total_nonelectrostatic_energy": 8.66, 
			 "SMD_solvation_energy": 6.13 
		},
		"coords": [
			{
				"x": -0.8804869884,
				"y": 2.6128873163,
				"z": 1.4427360851,
				"element": "O" 
			},
			{
				"x": -1.6370407826,
				"y": 1.9638644869,
				"z": 0.5284809894,
				"element": "C" 
			},
			{
				"x": -2.3493550139,
				"y": 2.5657184633,
				"z": -0.2347380473,
				"element": "O" 
			},
			{
				"x": -1.5672786526,
				"y": 0.4283733695,
				"z": 0.5742193025,
				"element": "C" 
			},
			{
				"x": -0.251302504,
				"y": -0.1386668028,
				"z": 1.0162134009,
				"element": "C" 
			},
			{
				"x": 0.0322867039,
				"y": -0.7451939649,
				"z": 2.2029720485,
				"element": "C" 
			},
			{
				"x": 1.3356022689,
				"y": -1.1557900767,
				"z": 2.290335162,
				"element": "O" 
			},
			{
				"x": 1.9264834175,
				"y": -0.798369289,
				"z": 1.1048478072,
				"element": "C" 
			},
			{
				"x": 0.9940341238,
				"y": -0.1592310623,
				"z": 0.2694398915,
				"element": "C" 
			},
			{
				"x": 1.4061091484,
				"y": 0.2889836633,
				"z": -0.9947914678,
				"element": "C" 
			},
			{
				"x": 2.7298704368,
				"y": 0.075736679,
				"z": -1.3683641187,
				"element": "C" 
			},
			{
				"x": 3.6396349699,
				"y": -0.5688120458,
				"z": -0.5081568552,
				"element": "C" 
			},
			{
				"x": 3.2526130992,
				"y": -1.0199646609,
				"z": 0.7528621822,
				"element": "C" 
			},
			{
				"x": -0.3391336535,
				"y": 1.9653520873,
				"z": 1.9240605781,
				"element": "H" 
			},
			{
				"x": -1.8432909888,
				"y": 0.0748412213,
				"z": -0.4227700873,
				"element": "H" 
			},
			{
				"x": -2.3639618571,
				"y": 0.100868009,
				"z": 1.2540233021,
				"element": "H" 
			},
			{
				"x": -0.5834188849,
				"y": -0.9744079761,
				"z": 3.0610877532,
				"element": "H" 
			},
			{
				"x": 0.7137867174,
				"y": 0.7916690537,
				"z": -1.6635249231,
				"element": "H" 
			},
			{
				"x": 3.0713347796,
				"y": 0.4141298732,
				"z": -2.3417893635,
				"element": "H" 
			},
			{
				"x": 4.664834118,
				"y": -0.7172587772,
				"z": -0.8331236039,
				"element": "H" 
			},
			{
				"x": 3.9411795424,
				"y": -1.5171295671,
				"z": 1.4270799641,
				"element": "H" 
			}
		],
		 "valence_orbital": [ 
			{
				"type": "occ",
				"energy": -0.3134,
				"method": "rhf"
			},
			{
				"type": "occ",
				"energy": -0.30942,
				"method": "rhf"
			},
			{
				"type": "occ",
				"energy": -0.26969,
				"method": "rhf"
			},
			{
				"type": "occ",
				"energy": -0.25169,
				"method": "rhf"
			},
			{
				"type": "occ",
				"energy": -0.23628,
				"method": "rhf"
			},
			{
				"type": "unocc",
				"energy": -0.0353,
				"method": "rhf"
			},
			{
				"type": "unocc",
				"energy": -0.00203,
				"method": "rhf"
			},
			{
				"type": "unocc",
				"energy": 0.01173,
				"method": "rhf"
			},
			{
				"type": "unocc",
				"energy": 0.03151,
				"method": "rhf"
			},
			{
				"type": "unocc",
				"energy": 0.07516,
				"method": "rhf"
			}
		],
		"cosmo_sigma_profile": { 
			"-0.025": 0.0,
			"-0.024": 0.0,
			"-0.023": 0.0,
			"-0.022": 0.0,
			"-0.021": 0.0,
			"-0.02": 0.0,
			"-0.019": 0.0,
			"-0.018": 0.0,
			"-0.017": 0.0,
			"-0.016": 0.0,
			"-0.015": 0.327132192496,
			"-0.014": 0.683225095476,
			"-0.013": 0.706510979619,
			"-0.012": 0.859941949182,
			"-0.011": 1.70507760641,
			"-0.01": 2.67507606317,
			"-0.009": 4.35562841045,
			"-0.008": 7.16717496893,
			"-0.007": 7.5395946905,
			"-0.006": 13.3088544364,
			"-0.005": 15.0898130563,
			"-0.004": 15.4843501831,
			"-0.003": 11.3390447669,
			"-0.002": 9.67617503862,
			"-0.001": 9.54336911256,
			"0.0": 10.552485509,
			"0.001": 13.1722890393,
			"0.002": 13.4407284854,
			"0.003": 11.2363471022,
			"0.004": 11.7999423614,
			"0.005": 12.1769610735,
			"0.006": 4.70940350822,
			"0.007": 3.05119403181,
			"0.008": 4.24794252836,
			"0.009": 4.09573209474,
			"0.01": 4.80670462839,
			"0.011": 4.72628940347,
			"0.012": 5.80018234766,
			"0.013": 2.40848062551,
			"0.014": 0.11052612496,
			"0.015": 0.0,
			"0.016": 0.0,
			"0.017": 0.0,
			"0.018": 0.0,
			"0.019": 0.0,
			"0.02": 0.0,
			"0.021": 0.0,
			"0.022": 0.0,
			"0.023": 0.0,
			"0.024": 0.0,
			"0.025": 0.0
		}
	}
}
