{
	 "smiles": "CCCCC1C(=O)N(N(C1=O)C1=CC=CC=C1)C1=CC=CC=C1", 
	 "Tm": 379.15, 
	 "num_atms": 43, 
	 "gaussian": { 
		 "optdone": 1, 
		 "sigma_profile": "yes", 
		 "theory": "DFT", 
		 "functional": "B3LYP", 
		 "basiset": "6-31G**", 
		 "properties": { 
			 "R2extent": 8435.1915, 
			 "electric_dipole_moment_norm": 1.8638752748, 
			 "electric_quadrupole_moment_norm": 7.97291426707, 
			 "total_energy": -996.025514355, 
			 "HOMO_LUMO_gap": 0.18816, 
			 "cosmo_polarized_energy": -12.9, 
			 "cosmo_cavitation_energy": 45.52, 
			 "cosmo_dispersion_energy": -31.12, 
			 "cosmo_repulsion_energy": 2.41, 
			 "cosmo_total_nonelectrostatic_energy": 16.81, 
			 "SMD_solvation_energy": 8.53 
		},
		"coords": [
			{
				"x": -4.0915391765,
				"y": 3.4011628243,
				"z": -3.6553054406,
				"element": "C" 
			},
			{
				"x": -2.7029752116,
				"y": 3.9189667829,
				"z": -3.2609508314,
				"element": "C" 
			},
			{
				"x": -1.6123355839,
				"y": 2.837984445,
				"z": -3.1893817032,
				"element": "C" 
			},
			{
				"x": -1.8513149557,
				"y": 1.7935923091,
				"z": -2.0903905646,
				"element": "C" 
			},
			{
				"x": -0.7141349052,
				"y": 0.7552583024,
				"z": -1.9780438972,
				"element": "C" 
			},
			{
				"x": -1.0916996461,
				"y": -0.4057841692,
				"z": -1.0725143211,
				"element": "C" 
			},
			{
				"x": -2.1228735185,
				"y": -1.0468516163,
				"z": -1.0916677614,
				"element": "O" 
			},
			{
				"x": -0.0584273975,
				"y": -0.5785557082,
				"z": -0.1425326027,
				"element": "N" 
			},
			{
				"x": 0.9251347368,
				"y": 0.4423519906,
				"z": -0.3114566919,
				"element": "N" 
			},
			{
				"x": 0.5950102456,
				"y": 1.263417224,
				"z": -1.3993292908,
				"element": "C" 
			},
			{
				"x": 1.2870248066,
				"y": 2.1765836411,
				"z": -1.805501513,
				"element": "O" 
			},
			{
				"x": 2.2814359695,
				"y": 0.1487168588,
				"z": 0.0398934294,
				"element": "C" 
			},
			{
				"x": 2.7252653748,
				"y": -1.1743304678,
				"z": 0.1508810175,
				"element": "C" 
			},
			{
				"x": 4.0547971448,
				"y": -1.4264726862,
				"z": 0.4867979336,
				"element": "C" 
			},
			{
				"x": 4.9448813023,
				"y": -0.3734282179,
				"z": 0.7030432745,
				"element": "C" 
			},
			{
				"x": 4.493333041,
				"y": 0.9421689293,
				"z": 0.5870900667,
				"element": "C" 
			},
			{
				"x": 3.1632925126,
				"y": 1.2125586804,
				"z": 0.2672075674,
				"element": "C" 
			},
			{
				"x": -0.3044448529,
				"y": -1.0755639359,
				"z": 1.1782250197,
				"element": "C" 
			},
			{
				"x": 0.0789731058,
				"y": -0.3442032822,
				"z": 2.3081737783,
				"element": "C" 
			},
			{
				"x": -0.1835230881,
				"y": -0.8562993199,
				"z": 3.5783737875,
				"element": "C" 
			},
			{
				"x": -0.8322197856,
				"y": -2.0826858584,
				"z": 3.7296733997,
				"element": "C" 
			},
			{
				"x": -1.2138509922,
				"y": -2.8026249662,
				"z": 2.5963109222,
				"element": "C" 
			},
			{
				"x": -0.944808147,
				"y": -2.3125982853,
				"z": 1.3189950826,
				"element": "C" 
			},
			{
				"x": -4.8077517133,
				"y": 4.2247337438,
				"z": -3.7421343862,
				"element": "H" 
			},
			{
				"x": -4.0599676076,
				"y": 2.8859391528,
				"z": -4.6225312483,
				"element": "H" 
			},
			{
				"x": -4.4927355102,
				"y": 2.697021685,
				"z": -2.9190327375,
				"element": "H" 
			},
			{
				"x": -2.7646564947,
				"y": 4.433778252,
				"z": -2.2922408947,
				"element": "H" 
			},
			{
				"x": -2.3860907649,
				"y": 4.6793252274,
				"z": -3.9856036202,
				"element": "H" 
			},
			{
				"x": -0.6391763996,
				"y": 3.3111794943,
				"z": -3.0235102125,
				"element": "H" 
			},
			{
				"x": -1.5451672858,
				"y": 2.3249090484,
				"z": -4.1598863493,
				"element": "H" 
			},
			{
				"x": -2.7716719236,
				"y": 1.2297521354,
				"z": -2.2730415879,
				"element": "H" 
			},
			{
				"x": -1.9762906991,
				"y": 2.2930108822,
				"z": -1.1206011378,
				"element": "H" 
			},
			{
				"x": -0.4899313166,
				"y": 0.3672899302,
				"z": -2.9814931551,
				"element": "H" 
			},
			{
				"x": 2.038926883,
				"y": -1.9944870873,
				"z": -0.0228368414,
				"element": "H" 
			},
			{
				"x": 4.3935285548,
				"y": -2.4546361137,
				"z": 0.5742019828,
				"element": "H" 
			},
			{
				"x": 5.9792699222,
				"y": -0.5764246991,
				"z": 0.9631473314,
				"element": "H" 
			},
			{
				"x": 5.1760864842,
				"y": 1.7699520884,
				"z": 0.7544709801,
				"element": "H" 
			},
			{
				"x": 2.8102632959,
				"y": 2.2310280732,
				"z": 0.1736012956,
				"element": "H" 
			},
			{
				"x": 0.5766833237,
				"y": 0.6114649203,
				"z": 2.1946415253,
				"element": "H" 
			},
			{
				"x": 0.1186534959,
				"y": -0.2868180659,
				"z": 4.4523684707,
				"element": "H" 
			},
			{
				"x": -1.0350654562,
				"y": -2.4751690141,
				"z": 4.7214605439,
				"element": "H" 
			},
			{
				"x": -1.7182624121,
				"y": -3.7585857112,
				"z": 2.7014631009,
				"element": "H" 
			},
			{
				"x": -1.2410453546,
				"y": -2.8667274164,
				"z": 0.437866279,
				"element": "H" 
			}
		],
		 "valence_orbital": [ 
			{
				"type": "occ",
				"energy": -0.26168,
				"method": "rhf"
			},
			{
				"type": "occ",
				"energy": -0.25758,
				"method": "rhf"
			},
			{
				"type": "occ",
				"energy": -0.25434,
				"method": "rhf"
			},
			{
				"type": "occ",
				"energy": -0.24371,
				"method": "rhf"
			},
			{
				"type": "occ",
				"energy": -0.21726,
				"method": "rhf"
			},
			{
				"type": "unocc",
				"energy": -0.0291,
				"method": "rhf"
			},
			{
				"type": "unocc",
				"energy": -0.01339,
				"method": "rhf"
			},
			{
				"type": "unocc",
				"energy": -0.0098,
				"method": "rhf"
			},
			{
				"type": "unocc",
				"energy": -0.00657,
				"method": "rhf"
			},
			{
				"type": "unocc",
				"energy": 0.00012,
				"method": "rhf"
			}
		],
		"cosmo_sigma_profile": { 
			"-0.025": 0.0,
			"-0.024": 0.0,
			"-0.023": 0.0,
			"-0.022": 0.0,
			"-0.021": 0.0,
			"-0.02": 0.0,
			"-0.019": 0.0,
			"-0.018": 0.0,
			"-0.017": 0.0,
			"-0.016": 0.0,
			"-0.015": 0.0,
			"-0.014": 0.0,
			"-0.013": 0.0,
			"-0.012": 0.0,
			"-0.011": 0.0,
			"-0.01": 0.318603381212,
			"-0.009": 3.2620098139,
			"-0.008": 3.53744655536,
			"-0.007": 4.10395624376,
			"-0.006": 17.3116115488,
			"-0.005": 23.843856108,
			"-0.004": 26.7921469478,
			"-0.003": 30.1652518352,
			"-0.002": 37.8594182039,
			"-0.001": 35.9440864578,
			"0.0": 33.6730272412,
			"0.001": 29.0371463356,
			"0.002": 21.2222789888,
			"0.003": 17.3296843043,
			"0.004": 21.9416978014,
			"0.005": 22.0225056808,
			"0.006": 4.33454569067,
			"0.007": 2.96839021539,
			"0.008": 5.17095723421,
			"0.009": 3.52480339534,
			"0.01": 4.08206348479,
			"0.011": 7.04736941422,
			"0.012": 5.17761501419,
			"0.013": 0.18023222537,
			"0.014": 0.0,
			"0.015": 0.0,
			"0.016": 0.0,
			"0.017": 0.0,
			"0.018": 0.0,
			"0.019": 0.0,
			"0.02": 0.0,
			"0.021": 0.0,
			"0.022": 0.0,
			"0.023": 0.0,
			"0.024": 0.0,
			"0.025": 0.0
		}
	}
}
