{
	 "smiles": "ClC1=CC=C(Cl)C(=C1)C#N", 
	 "Tm": 404.15, 
	 "num_atms": 13, 
	 "gaussian": { 
		 "optdone": 1, 
		 "sigma_profile": "yes", 
		 "theory": "DFT", 
		 "functional": "B3LYP", 
		 "basiset": "6-31G**", 
		 "properties": { 
			 "R2extent": 2248.8841, 
			 "electric_dipole_moment_norm": 4.10270037171, 
			 "electric_quadrupole_moment_norm": 8.3719021166, 
			 "total_energy": -1243.66613464, 
			 "HOMO_LUMO_gap": 0.19247, 
			 "cosmo_polarized_energy": -8.45, 
			 "cosmo_cavitation_energy": 22.5, 
			 "cosmo_dispersion_energy": -16.3, 
			 "cosmo_repulsion_energy": 1.33, 
			 "cosmo_total_nonelectrostatic_energy": 7.53, 
			 "SMD_solvation_energy": 4.67 
		},
		"coords": [
			{
				"x": -0.0985875832,
				"y": 0.4340926107,
				"z": 3.5342472782,
				"element": "Cl" 
			},
			{
				"x": -0.096166051,
				"y": 0.0931427301,
				"z": 1.8180200262,
				"element": "C" 
			},
			{
				"x": -1.3018742495,
				"y": 0.07959685,
				"z": 1.1139153236,
				"element": "C" 
			},
			{
				"x": -1.2985583715,
				"y": -0.1919545488,
				"z": -0.2524880292,
				"element": "C" 
			},
			{
				"x": -0.099325275,
				"y": -0.4489583674,
				"z": -0.9147831011,
				"element": "C" 
			},
			{
				"x": -0.1202444387,
				"y": -0.7860888716,
				"z": -2.6243142639,
				"element": "Cl" 
			},
			{
				"x": 1.1170463676,
				"y": -0.4355623671,
				"z": -0.205625237,
				"element": "C" 
			},
			{
				"x": 1.1088999897,
				"y": -0.1610450415,
				"z": 1.1730302063,
				"element": "C" 
			},
			{
				"x": 2.3687269228,
				"y": -0.6949952825,
				"z": -0.8521605621,
				"element": "C" 
			},
			{
				"x": 3.402115832,
				"y": -0.9007910202,
				"z": -1.3434824712,
				"element": "N" 
			},
			{
				"x": -2.2344690162,
				"y": 0.2795349306,
				"z": 1.6293620893,
				"element": "H" 
			},
			{
				"x": -2.2286849333,
				"y": -0.205031886,
				"z": -0.8090220136,
				"element": "H" 
			},
			{
				"x": 2.0432208063,
				"y": -0.1500397363,
				"z": 1.7213007543,
				"element": "H" 
			}
		],
		 "valence_orbital": [ 
			{
				"type": "occ",
				"energy": -0.33659,
				"method": "rhf"
			},
			{
				"type": "occ",
				"energy": -0.3351,
				"method": "rhf"
			},
			{
				"type": "occ",
				"energy": -0.33459,
				"method": "rhf"
			},
			{
				"type": "occ",
				"energy": -0.29209,
				"method": "rhf"
			},
			{
				"type": "occ",
				"energy": -0.26736,
				"method": "rhf"
			},
			{
				"type": "unocc",
				"energy": -0.07489,
				"method": "rhf"
			},
			{
				"type": "unocc",
				"energy": -0.04855,
				"method": "rhf"
			},
			{
				"type": "unocc",
				"energy": -0.00549,
				"method": "rhf"
			},
			{
				"type": "unocc",
				"energy": 0.01649,
				"method": "rhf"
			},
			{
				"type": "unocc",
				"energy": 0.02559,
				"method": "rhf"
			}
		],
		"cosmo_sigma_profile": { 
			"-0.025": 0.0,
			"-0.024": 0.0,
			"-0.023": 0.0,
			"-0.022": 0.0,
			"-0.021": 0.0,
			"-0.02": 0.0,
			"-0.019": 0.0,
			"-0.018": 0.0,
			"-0.017": 0.0,
			"-0.016": 0.0,
			"-0.015": 0.0,
			"-0.014": 0.0,
			"-0.013": 0.0,
			"-0.012": 0.0,
			"-0.011": 0.0,
			"-0.01": 1.19914016002,
			"-0.009": 5.66793000039,
			"-0.008": 6.36411131751,
			"-0.007": 4.88022244914,
			"-0.006": 5.46399508423,
			"-0.005": 4.71241455967,
			"-0.004": 7.40066670937,
			"-0.003": 13.2339011287,
			"-0.002": 16.9756696315,
			"-0.001": 24.5162710102,
			"0.0": 18.6625519767,
			"0.001": 12.6647224458,
			"0.002": 13.6529033934,
			"0.003": 19.086452915,
			"0.004": 10.055086384,
			"0.005": 2.82488696582,
			"0.006": 2.84784938009,
			"0.007": 3.45680947376,
			"0.008": 3.14705225048,
			"0.009": 3.29166106148,
			"0.01": 2.791903012,
			"0.011": 2.39864962356,
			"0.012": 1.99233071097,
			"0.013": 0.224707882279,
			"0.014": 0.0,
			"0.015": 0.0,
			"0.016": 0.0,
			"0.017": 0.0,
			"0.018": 0.0,
			"0.019": 0.0,
			"0.02": 0.0,
			"0.021": 0.0,
			"0.022": 0.0,
			"0.023": 0.0,
			"0.024": 0.0,
			"0.025": 0.0
		}
	}
}
