{
	 "smiles": "CC1=NC(=O)C2=C(N1)C=CC=C2", 
	 "Tm": 505.15, 
	 "num_atms": 20, 
	 "gaussian": { 
		 "optdone": 1, 
		 "sigma_profile": "yes", 
		 "theory": "DFT", 
		 "functional": "B3LYP", 
		 "basiset": "6-31G**", 
		 "properties": { 
			 "R2extent": 2271.0618, 
			 "electric_dipole_moment_norm": 6.95396749705, 
			 "electric_quadrupole_moment_norm": 19.283924773, 
			 "total_energy": -532.530149351, 
			 "HOMO_LUMO_gap": 0.18479, 
			 "cosmo_polarized_energy": -22.59, 
			 "cosmo_cavitation_energy": 24.08, 
			 "cosmo_dispersion_energy": -18.14, 
			 "cosmo_repulsion_energy": 1.43, 
			 "cosmo_total_nonelectrostatic_energy": 7.36, 
			 "SMD_solvation_energy": 3.2 
		},
		"coords": [
			{
				"x": -0.2395776498,
				"y": -3.5048888142,
				"z": 2.8607970304,
				"element": "C" 
			},
			{
				"x": -0.406267032,
				"y": -2.4219248684,
				"z": 1.8271801087,
				"element": "C" 
			},
			{
				"x": -1.3270326139,
				"y": -2.5262837971,
				"z": 0.9210486737,
				"element": "N" 
			},
			{
				"x": -1.4827899448,
				"y": -1.5137798594,
				"z": -0.0453186907,
				"element": "C" 
			},
			{
				"x": -2.3458986648,
				"y": -1.5957917944,
				"z": -0.9072137059,
				"element": "O" 
			},
			{
				"x": -0.5583899529,
				"y": -0.3502709026,
				"z": 0.0287866883,
				"element": "C" 
			},
			{
				"x": 0.4182565644,
				"y": -0.2998845583,
				"z": 1.03754465,
				"element": "C" 
			},
			{
				"x": 0.4653787092,
				"y": -1.3654218048,
				"z": 1.9290856648,
				"element": "N" 
			},
			{
				"x": 1.3019582817,
				"y": 0.7857314176,
				"z": 1.1294885663,
				"element": "C" 
			},
			{
				"x": 1.2004824275,
				"y": 1.8183862788,
				"z": 0.2056097404,
				"element": "C" 
			},
			{
				"x": 0.2298121592,
				"y": 1.7824333344,
				"z": -0.8081112255,
				"element": "C" 
			},
			{
				"x": -0.640707862,
				"y": 0.7038424574,
				"z": -0.8914809421,
				"element": "C" 
			},
			{
				"x": 0.7622701443,
				"y": -3.9468895392,
				"z": 2.8094703902,
				"element": "H" 
			},
			{
				"x": -0.9814196018,
				"y": -4.2803025588,
				"z": 2.6762950684,
				"element": "H" 
			},
			{
				"x": -0.3794183786,
				"y": -3.1076589862,
				"z": 3.8728983202,
				"element": "H" 
			},
			{
				"x": 1.1557914741,
				"y": -1.3604121382,
				"z": 2.6662856174,
				"element": "H" 
			},
			{
				"x": 2.0534692627,
				"y": 0.8133763173,
				"z": 1.914454958,
				"element": "H" 
			},
			{
				"x": 1.8824471483,
				"y": 2.6610487224,
				"z": 0.2727405999,
				"element": "H" 
			},
			{
				"x": 0.1631324318,
				"y": 2.5969648786,
				"z": -1.5225146246,
				"element": "H" 
			},
			{
				"x": -1.4042969027,
				"y": 0.6383262151,
				"z": -1.6595468878,
				"element": "H" 
			}
		],
		 "valence_orbital": [ 
			{
				"type": "occ",
				"energy": -0.28653,
				"method": "rhf"
			},
			{
				"type": "occ",
				"energy": -0.27004,
				"method": "rhf"
			},
			{
				"type": "occ",
				"energy": -0.26264,
				"method": "rhf"
			},
			{
				"type": "occ",
				"energy": -0.23377,
				"method": "rhf"
			},
			{
				"type": "occ",
				"energy": -0.23034,
				"method": "rhf"
			},
			{
				"type": "unocc",
				"energy": -0.04555,
				"method": "rhf"
			},
			{
				"type": "unocc",
				"energy": -0.02292,
				"method": "rhf"
			},
			{
				"type": "unocc",
				"energy": 0.00943,
				"method": "rhf"
			},
			{
				"type": "unocc",
				"energy": 0.0547,
				"method": "rhf"
			},
			{
				"type": "unocc",
				"energy": 0.08651,
				"method": "rhf"
			}
		],
		"cosmo_sigma_profile": { 
			"-0.025": 0.0,
			"-0.024": 0.0,
			"-0.023": 0.0,
			"-0.022": 0.0,
			"-0.021": 0.0,
			"-0.02": 0.0,
			"-0.019": 0.0,
			"-0.018": 0.0,
			"-0.017": 0.479895564194,
			"-0.016": 1.4111067517,
			"-0.015": 1.68064650079,
			"-0.014": 1.55495898344,
			"-0.013": 1.36354211337,
			"-0.012": 1.5997602832,
			"-0.011": 1.38530389142,
			"-0.01": 1.15552778196,
			"-0.009": 2.26529992049,
			"-0.008": 2.72431892314,
			"-0.007": 6.42051422084,
			"-0.006": 12.0808946934,
			"-0.005": 13.7557175122,
			"-0.004": 12.8305000213,
			"-0.003": 13.8435175699,
			"-0.002": 16.0823954899,
			"-0.001": 12.6610512527,
			"0.0": 11.236286356,
			"0.001": 8.67013290475,
			"0.002": 12.9591331739,
			"0.003": 12.9185805206,
			"0.004": 8.93775107615,
			"0.005": 2.8983324135,
			"0.006": 2.24482862296,
			"0.007": 2.57394463083,
			"0.008": 1.54139008938,
			"0.009": 1.68696097701,
			"0.01": 2.22145534587,
			"0.011": 1.96897815502,
			"0.012": 3.25005373467,
			"0.013": 4.55926267865,
			"0.014": 4.82228800742,
			"0.015": 2.63533623345,
			"0.016": 2.60272529423,
			"0.017": 1.48041537939,
			"0.018": 0.349149753284,
			"0.019": 0.0,
			"0.02": 0.0,
			"0.021": 0.0,
			"0.022": 0.0,
			"0.023": 0.0,
			"0.024": 0.0,
			"0.025": 0.0
		}
	}
}
