{
	 "smiles": "[O-][N+](=O)C1=CC(=C(NC2=C(Cl)C=C(C=N2)C(F)(F)F)C(=C1)C(F)F)[N+]([O-])=O", 
	 "Tm": 363.15, 
	 "num_atms": 33, 
	 "gaussian": { 
		 "optdone": 1, 
		 "sigma_profile": "yes", 
		 "theory": "DFT", 
		 "functional": "B3LYP", 
		 "basiset": "6-31G**", 
		 "properties": { 
			 "R2extent": 12456.4143, 
			 "electric_dipole_moment_norm": 3.9885761319, 
			 "electric_quadrupole_moment_norm": 18.4890430153, 
			 "total_energy": -1978.0768118, 
			 "HOMO_LUMO_gap": 0.14259, 
			 "cosmo_polarized_energy": -16.0, 
			 "cosmo_cavitation_energy": 43.7, 
			 "cosmo_dispersion_energy": -29.48, 
			 "cosmo_repulsion_energy": 2.09, 
			 "cosmo_total_nonelectrostatic_energy": 16.31, 
			 "SMD_solvation_energy": 11.87 
		},
		"coords": [
			{
				"x": -4.410766532,
				"y": 0.6499421628,
				"z": -4.3322666822,
				"element": "O" 
			},
			{
				"x": -4.1864728435,
				"y": 1.2905962956,
				"z": -3.3063523797,
				"element": "N" 
			},
			{
				"x": -4.9263839259,
				"y": 2.1476981044,
				"z": -2.8279145338,
				"element": "O" 
			},
			{
				"x": -2.9332002642,
				"y": 1.0053011185,
				"z": -2.5975885904,
				"element": "C" 
			},
			{
				"x": -2.6319775039,
				"y": 1.7094804606,
				"z": -1.4457566196,
				"element": "C" 
			},
			{
				"x": -1.436625314,
				"y": 1.4498744861,
				"z": -0.7796794665,
				"element": "C" 
			},
			{
				"x": -0.5428446857,
				"y": 0.4405151123,
				"z": -1.2206270851,
				"element": "C" 
			},
			{
				"x": 0.6536402003,
				"y": 0.0538344451,
				"z": -0.631179167,
				"element": "N" 
			},
			{
				"x": 1.1451697864,
				"y": 0.1039888883,
				"z": 0.6734797421,
				"element": "C" 
			},
			{
				"x": 0.3926381717,
				"y": -0.1507268081,
				"z": 1.8386338389,
				"element": "C" 
			},
			{
				"x": -1.2993659796,
				"y": -0.5899403285,
				"z": 1.775086416,
				"element": "Cl" 
			},
			{
				"x": 1.0279411589,
				"y": -0.1064586075,
				"z": 3.0717749349,
				"element": "C" 
			},
			{
				"x": 2.3994587655,
				"y": 0.141204261,
				"z": 3.1194105612,
				"element": "C" 
			},
			{
				"x": 3.0797413508,
				"y": 0.304991018,
				"z": 1.9119642131,
				"element": "C" 
			},
			{
				"x": 2.4694207768,
				"y": 0.2879212966,
				"z": 0.7296102535,
				"element": "N" 
			},
			{
				"x": 3.1329677265,
				"y": 0.1400312912,
				"z": 4.4316209171,
				"element": "C" 
			},
			{
				"x": 4.2441033279,
				"y": 0.9020158916,
				"z": 4.3765598332,
				"element": "F" 
			},
			{
				"x": 3.5217059634,
				"y": -1.1071766989,
				"z": 4.7808716093,
				"element": "F" 
			},
			{
				"x": 2.3554779149,
				"y": 0.6056288859,
				"z": 5.4316925942,
				"element": "F" 
			},
			{
				"x": -0.8975655968,
				"y": -0.2488633239,
				"z": -2.4158380555,
				"element": "C" 
			},
			{
				"x": -2.0680569037,
				"y": 0.0345676559,
				"z": -3.0991418851,
				"element": "C" 
			},
			{
				"x": -0.0102680562,
				"y": -1.3702594741,
				"z": -2.902030037,
				"element": "C" 
			},
			{
				"x": -0.5003861677,
				"y": -1.9173790303,
				"z": -4.0430954799,
				"element": "F" 
			},
			{
				"x": 1.2523744553,
				"y": -0.8809650343,
				"z": -3.1904715535,
				"element": "F" 
			},
			{
				"x": -1.1332138768,
				"y": 2.3665643785,
				"z": 0.3313273223,
				"element": "N" 
			},
			{
				"x": 0.0494026274,
				"y": 2.5238686843,
				"z": 0.6356461575,
				"element": "O" 
			},
			{
				"x": -2.0744284069,
				"y": 2.9564333446,
				"z": 0.8547394284,
				"element": "O" 
			},
			{
				"x": -3.2991652469,
				"y": 2.4747655232,
				"z": -1.0730718141,
				"element": "H" 
			},
			{
				"x": 1.4042544901,
				"y": -0.1205000944,
				"z": -1.2916486142,
				"element": "H" 
			},
			{
				"x": 0.4598102119,
				"y": -0.2758476835,
				"z": 3.9792246266,
				"element": "H" 
			},
			{
				"x": 4.1542238185,
				"y": 0.4640256821,
				"z": 1.8988941431,
				"element": "H" 
			},
			{
				"x": -2.3301420417,
				"y": -0.5094308702,
				"z": -3.996587829,
				"element": "H" 
			},
			{
				"x": 0.1152325995,
				"y": -2.164701033,
				"z": -2.1573867988,
				"element": "H" 
			}
		],
		 "valence_orbital": [ 
			{
				"type": "occ",
				"energy": -0.30841,
				"method": "rhf"
			},
			{
				"type": "occ",
				"energy": -0.30712,
				"method": "rhf"
			},
			{
				"type": "occ",
				"energy": -0.30325,
				"method": "rhf"
			},
			{
				"type": "occ",
				"energy": -0.29584,
				"method": "rhf"
			},
			{
				"type": "occ",
				"energy": -0.25905,
				"method": "rhf"
			},
			{
				"type": "unocc",
				"energy": -0.11646,
				"method": "rhf"
			},
			{
				"type": "unocc",
				"energy": -0.10614,
				"method": "rhf"
			},
			{
				"type": "unocc",
				"energy": -0.0659,
				"method": "rhf"
			},
			{
				"type": "unocc",
				"energy": -0.05862,
				"method": "rhf"
			},
			{
				"type": "unocc",
				"energy": -0.04461,
				"method": "rhf"
			}
		],
		"cosmo_sigma_profile": { 
			"-0.025": 0.0,
			"-0.024": 0.0,
			"-0.023": 0.0,
			"-0.022": 0.0,
			"-0.021": 0.0,
			"-0.02": 0.0,
			"-0.019": 0.0,
			"-0.018": 0.0,
			"-0.017": 0.0,
			"-0.016": 0.0,
			"-0.015": 0.0,
			"-0.014": 0.0,
			"-0.013": 0.0,
			"-0.012": 0.0,
			"-0.011": 0.0675222149443,
			"-0.01": 4.55945312579,
			"-0.009": 6.90930652788,
			"-0.008": 8.9353927951,
			"-0.007": 10.1850401452,
			"-0.006": 12.9718508224,
			"-0.005": 15.6742474352,
			"-0.004": 22.5524505087,
			"-0.003": 30.6404076037,
			"-0.002": 29.498198285,
			"-0.001": 23.0753213967,
			"0.0": 20.5141336145,
			"0.001": 23.9738696825,
			"0.002": 40.2066091522,
			"0.003": 35.4347573824,
			"0.004": 12.0721416935,
			"0.005": 8.41006644554,
			"0.006": 12.4025720926,
			"0.007": 16.7904056952,
			"0.008": 9.97762195341,
			"0.009": 7.34234784566,
			"0.01": 1.60986844048,
			"0.011": 0.711842964822,
			"0.012": 0.361142447599,
			"0.013": 0.0,
			"0.014": 0.0,
			"0.015": 0.0,
			"0.016": 0.0,
			"0.017": 0.0,
			"0.018": 0.0,
			"0.019": 0.0,
			"0.02": 0.0,
			"0.021": 0.0,
			"0.022": 0.0,
			"0.023": 0.0,
			"0.024": 0.0,
			"0.025": 0.0
		}
	}
}
