{
	 "smiles": "NNC(=O)NC1=CC=C(C=C1)S(N)(=O)=O", 
	 "Tm": 490.15, 
	 "num_atms": 25, 
	 "gaussian": { 
		 "optdone": 1, 
		 "sigma_profile": "yes", 
		 "theory": "DFT", 
		 "functional": "B3LYP", 
		 "basiset": "6-31G**", 
		 "properties": { 
			 "R2extent": 6152.6587, 
			 "electric_dipole_moment_norm": 10.1640693711, 
			 "electric_quadrupole_moment_norm": 25.8345262329, 
			 "total_energy": -1115.56311592, 
			 "HOMO_LUMO_gap": 0.19913, 
			 "cosmo_polarized_energy": -30.24, 
			 "cosmo_cavitation_energy": 31.23, 
			 "cosmo_dispersion_energy": -23.7, 
			 "cosmo_repulsion_energy": 1.84, 
			 "cosmo_total_nonelectrostatic_energy": 9.37, 
			 "SMD_solvation_energy": 6.37 
		},
		"coords": [
			{
				"x": -3.0770357391,
				"y": 2.5026853969,
				"z": -1.1946950736,
				"element": "N" 
			},
			{
				"x": -3.6269568281,
				"y": 1.8053453004,
				"z": -0.1079717915,
				"element": "N" 
			},
			{
				"x": -2.8442978358,
				"y": 0.9399963877,
				"z": 0.6533540679,
				"element": "C" 
			},
			{
				"x": -3.2575509889,
				"y": 0.5111602837,
				"z": 1.7220088675,
				"element": "O" 
			},
			{
				"x": -1.6418832465,
				"y": 0.6303080044,
				"z": 0.0538566599,
				"element": "N" 
			},
			{
				"x": -0.6413377443,
				"y": -0.2261269625,
				"z": 0.5201997584,
				"element": "C" 
			},
			{
				"x": 0.5015761995,
				"y": -0.3833626968,
				"z": -0.2864038722,
				"element": "C" 
			},
			{
				"x": 1.5404368143,
				"y": -1.2157846017,
				"z": 0.1087668538,
				"element": "C" 
			},
			{
				"x": 1.4456977872,
				"y": -1.9045835398,
				"z": 1.3209293348,
				"element": "C" 
			},
			{
				"x": 0.3222117266,
				"y": -1.7461167881,
				"z": 2.1366905806,
				"element": "C" 
			},
			{
				"x": -0.7227688485,
				"y": -0.9154739379,
				"z": 1.7445393086,
				"element": "C" 
			},
			{
				"x": 2.7664832896,
				"y": -3.0065414251,
				"z": 1.8196265139,
				"element": "S" 
			},
			{
				"x": 2.3593028925,
				"y": -4.5484049745,
				"z": 1.268938835,
				"element": "N" 
			},
			{
				"x": 3.9619519718,
				"y": -2.6295277922,
				"z": 1.0653299624,
				"element": "O" 
			},
			{
				"x": 2.7416196763,
				"y": -3.09949776,
				"z": 3.2787408921,
				"element": "O" 
			},
			{
				"x": -3.7032328186,
				"y": 2.4446107948,
				"z": -1.9926678489,
				"element": "H" 
			},
			{
				"x": -2.9171543655,
				"y": 3.4825252989,
				"z": -0.9674533501,
				"element": "H" 
			},
			{
				"x": -4.4077259005,
				"y": 2.1923881697,
				"z": 0.4099696189,
				"element": "H" 
			},
			{
				"x": -1.4866303992,
				"y": 1.1144986984,
				"z": -0.8235499702,
				"element": "H" 
			},
			{
				"x": 0.5747475483,
				"y": 0.1599085836,
				"z": -1.2252028678,
				"element": "H" 
			},
			{
				"x": 2.4307631809,
				"y": -1.3183963049,
				"z": -0.5022685663,
				"element": "H" 
			},
			{
				"x": 0.276689711,
				"y": -2.2574355196,
				"z": 3.0927879708,
				"element": "H" 
			},
			{
				"x": -1.5947927392,
				"y": -0.7819357959,
				"z": 2.3691129856,
				"element": "H" 
			},
			{
				"x": 2.3139972817,
				"y": -4.5963340585,
				"z": 0.2556077727,
				"element": "H" 
			},
			{
				"x": 1.5193893743,
				"y": -4.9064047611,
				"z": 1.7135533575,
				"element": "H" 
			}
		],
		 "valence_orbital": [ 
			{
				"type": "occ",
				"energy": -0.29407,
				"method": "rhf"
			},
			{
				"type": "occ",
				"energy": -0.27888,
				"method": "rhf"
			},
			{
				"type": "occ",
				"energy": -0.27001,
				"method": "rhf"
			},
			{
				"type": "occ",
				"energy": -0.26648,
				"method": "rhf"
			},
			{
				"type": "occ",
				"energy": -0.22956,
				"method": "rhf"
			},
			{
				"type": "unocc",
				"energy": -0.03043,
				"method": "rhf"
			},
			{
				"type": "unocc",
				"energy": -0.01645,
				"method": "rhf"
			},
			{
				"type": "unocc",
				"energy": 0.04112,
				"method": "rhf"
			},
			{
				"type": "unocc",
				"energy": 0.05284,
				"method": "rhf"
			},
			{
				"type": "unocc",
				"energy": 0.05953,
				"method": "rhf"
			}
		],
		"cosmo_sigma_profile": { 
			"-0.025": 0.0,
			"-0.024": 0.0,
			"-0.023": 0.0,
			"-0.022": 0.0,
			"-0.021": 0.0,
			"-0.02": 0.0,
			"-0.019": 0.0,
			"-0.018": 0.0,
			"-0.017": 0.0,
			"-0.016": 0.037092255623,
			"-0.015": 1.79128274814,
			"-0.014": 3.15868946164,
			"-0.013": 4.34437749432,
			"-0.012": 8.10264620786,
			"-0.011": 9.14214944313,
			"-0.01": 9.09957516181,
			"-0.009": 6.6543577984,
			"-0.008": 6.84403063907,
			"-0.007": 7.64982685848,
			"-0.006": 8.93311601789,
			"-0.005": 9.11824829192,
			"-0.004": 9.53911452451,
			"-0.003": 7.07789345671,
			"-0.002": 8.91433581067,
			"-0.001": 10.1526634083,
			"0.0": 11.683971053,
			"0.001": 14.1363580665,
			"0.002": 17.813815928,
			"0.003": 18.0910107358,
			"0.004": 8.53706355707,
			"0.005": 6.92768575536,
			"0.006": 5.86919356269,
			"0.007": 5.85616248817,
			"0.008": 6.1316734921,
			"0.009": 6.31935503313,
			"0.01": 7.65184164478,
			"0.011": 12.5541202863,
			"0.012": 9.27320909029,
			"0.013": 4.07827620051,
			"0.014": 2.38010287518,
			"0.015": 0.0361428136523,
			"0.016": 0.0,
			"0.017": 0.0,
			"0.018": 0.0,
			"0.019": 0.0,
			"0.02": 0.0,
			"0.021": 0.0,
			"0.022": 0.0,
			"0.023": 0.0,
			"0.024": 0.0,
			"0.025": 0.0
		}
	}
}
