{
	 "smiles": "CC1(O)CCC2C3CC=C4CC(O)CCC4(C)C3CCC12C", 
	 "Tm": 479.15, 
	 "num_atms": 54, 
	 "gaussian": { 
		 "optdone": 1, 
		 "sigma_profile": "yes", 
		 "theory": "DFT", 
		 "functional": "B3LYP", 
		 "basiset": "6-31G**", 
		 "properties": { 
			 "R2extent": 8027.0554, 
			 "electric_dipole_moment_norm": 2.96949232193, 
			 "electric_quadrupole_moment_norm": 11.5600790023, 
			 "total_energy": -931.870125769, 
			 "HOMO_LUMO_gap": 0.25467, 
			 "cosmo_polarized_energy": -10.48, 
			 "cosmo_cavitation_energy": 45.42, 
			 "cosmo_dispersion_energy": -32.26, 
			 "cosmo_repulsion_energy": 2.38, 
			 "cosmo_total_nonelectrostatic_energy": 15.55, 
			 "SMD_solvation_energy": 6.3 
		},
		"coords": [
			{
				"x": 1.2962581369,
				"y": 0.699668919,
				"z": 4.9672633128,
				"element": "C" 
			},
			{
				"x": 1.1714650615,
				"y": -0.011659993,
				"z": 3.617276911,
				"element": "C" 
			},
			{
				"x": 2.0673530218,
				"y": 0.6235176516,
				"z": 2.6838294226,
				"element": "O" 
			},
			{
				"x": 1.5019644019,
				"y": -1.5189075364,
				"z": 3.6847639651,
				"element": "C" 
			},
			{
				"x": 0.833816373,
				"y": -2.1576451324,
				"z": 2.4406834555,
				"element": "C" 
			},
			{
				"x": -0.1380766913,
				"y": -1.0874662378,
				"z": 1.847030189,
				"element": "C" 
			},
			{
				"x": 0.3180493672,
				"y": -0.621675236,
				"z": 0.4360204726,
				"element": "C" 
			},
			{
				"x": 0.0119954566,
				"y": -1.7372148917,
				"z": -0.5798593901,
				"element": "C" 
			},
			{
				"x": 0.1243764117,
				"y": -1.2952581159,
				"z": -2.0092864538,
				"element": "C" 
			},
			{
				"x": 0.1987138364,
				"y": -0.0221773705,
				"z": -2.4143799133,
				"element": "C" 
			},
			{
				"x": 0.3284925731,
				"y": 0.3120054629,
				"z": -3.8874344838,
				"element": "C" 
			},
			{
				"x": -0.724881025,
				"y": 1.3279740036,
				"z": -4.3559477419,
				"element": "C" 
			},
			{
				"x": -0.5004013555,
				"y": 1.7440382096,
				"z": -5.7008527092,
				"element": "O" 
			},
			{
				"x": -0.6763934312,
				"y": 2.5703708351,
				"z": -3.4746595453,
				"element": "C" 
			},
			{
				"x": -0.8672007028,
				"y": 2.2031115738,
				"z": -1.9967648815,
				"element": "C" 
			},
			{
				"x": 0.1558676943,
				"y": 1.163232858,
				"z": -1.4429587979,
				"element": "C" 
			},
			{
				"x": 1.5675603874,
				"y": 1.8037859594,
				"z": -1.381472737,
				"element": "C" 
			},
			{
				"x": -0.3259302447,
				"y": 0.7066140526,
				"z": -0.0186754816,
				"element": "C" 
			},
			{
				"x": -0.1216050782,
				"y": 1.7901031055,
				"z": 1.0556868845,
				"element": "C" 
			},
			{
				"x": -0.7095076138,
				"y": 1.3774763691,
				"z": 2.4079971848,
				"element": "C" 
			},
			{
				"x": -0.2464121955,
				"y": 0.008865987,
				"z": 2.9553958117,
				"element": "C" 
			},
			{
				"x": -1.3016616832,
				"y": -0.4449242026,
				"z": 3.9939251848,
				"element": "C" 
			},
			{
				"x": 1.0370458461,
				"y": 1.7587369602,
				"z": 4.8755761956,
				"element": "H" 
			},
			{
				"x": 2.3325956083,
				"y": 0.6420745081,
				"z": 5.3235951949,
				"element": "H" 
			},
			{
				"x": 0.6642963187,
				"y": 0.2498370222,
				"z": 5.7370864232,
				"element": "H" 
			},
			{
				"x": 2.9611082617,
				"y": 0.5442191268,
				"z": 3.0430899547,
				"element": "H" 
			},
			{
				"x": 2.5875054187,
				"y": -1.6716775124,
				"z": 3.7072196803,
				"element": "H" 
			},
			{
				"x": 1.1112357574,
				"y": -1.9526165383,
				"z": 4.6110639812,
				"element": "H" 
			},
			{
				"x": 0.3064269526,
				"y": -3.0771186347,
				"z": 2.7125370347,
				"element": "H" 
			},
			{
				"x": 1.5861984523,
				"y": -2.4418794433,
				"z": 1.6992487564,
				"element": "H" 
			},
			{
				"x": -1.1375604693,
				"y": -1.5238786254,
				"z": 1.7168751513,
				"element": "H" 
			},
			{
				"x": 1.4030617428,
				"y": -0.4680620965,
				"z": 0.4715898687,
				"element": "H" 
			},
			{
				"x": 0.6723811295,
				"y": -2.5987856045,
				"z": -0.4110408602,
				"element": "H" 
			},
			{
				"x": -1.0069399045,
				"y": -2.121247024,
				"z": -0.4049342149,
				"element": "H" 
			},
			{
				"x": 0.1389529972,
				"y": -2.0851787563,
				"z": -2.7611546649,
				"element": "H" 
			},
			{
				"x": 0.2578043628,
				"y": -0.6081514702,
				"z": -4.4820656397,
				"element": "H" 
			},
			{
				"x": 1.3118503033,
				"y": 0.7522632097,
				"z": -4.1054630314,
				"element": "H" 
			},
			{
				"x": -1.7238740616,
				"y": 0.8670985031,
				"z": -4.2608643075,
				"element": "H" 
			},
			{
				"x": -0.5251947246,
				"y": 0.9573564118,
				"z": -6.2610975365,
				"element": "H" 
			},
			{
				"x": 0.2850237216,
				"y": 3.0723196897,
				"z": -3.6387915599,
				"element": "H" 
			},
			{
				"x": -1.4541454681,
				"y": 3.2736309656,
				"z": -3.7931214802,
				"element": "H" 
			},
			{
				"x": -0.8274473538,
				"y": 3.114381621,
				"z": -1.3902789698,
				"element": "H" 
			},
			{
				"x": -1.8771792675,
				"y": 1.7898545473,
				"z": -1.8697946511,
				"element": "H" 
			},
			{
				"x": 2.2773654023,
				"y": 1.1444581973,
				"z": -0.8733770189,
				"element": "H" 
			},
			{
				"x": 1.9638684698,
				"y": 1.9995282243,
				"z": -2.3809138266,
				"element": "H" 
			},
			{
				"x": 1.5501914559,
				"y": 2.7585125629,
				"z": -0.847708875,
				"element": "H" 
			},
			{
				"x": -1.4098556003,
				"y": 0.522198338,
				"z": -0.1075038821,
				"element": "H" 
			},
			{
				"x": 0.9430441297,
				"y": 1.9907310598,
				"z": 1.1805897488,
				"element": "H" 
			},
			{
				"x": -0.5975360246,
				"y": 2.7280089998,
				"z": 0.7453138882,
				"element": "H" 
			},
			{
				"x": -1.8036473524,
				"y": 1.3382424914,
				"z": 2.3091437546,
				"element": "H" 
			},
			{
				"x": -0.5086827677,
				"y": 2.1566513092,
				"z": 3.1546898128,
				"element": "H" 
			},
			{
				"x": -2.2677026846,
				"y": -0.5850919909,
				"z": 3.4985764014,
				"element": "H" 
			},
			{
				"x": -1.4433416062,
				"y": 0.3079754814,
				"z": 4.7760999513,
				"element": "H" 
			},
			{
				"x": -1.0449917462,
				"y": -1.3903278044,
				"z": 4.4815340617,
				"element": "H" 
			}
		],
		 "valence_orbital": [ 
			{
				"type": "occ",
				"energy": -0.26987,
				"method": "rhf"
			},
			{
				"type": "occ",
				"energy": -0.26523,
				"method": "rhf"
			},
			{
				"type": "occ",
				"energy": -0.26178,
				"method": "rhf"
			},
			{
				"type": "occ",
				"energy": -0.25694,
				"method": "rhf"
			},
			{
				"type": "occ",
				"energy": -0.22114,
				"method": "rhf"
			},
			{
				"type": "unocc",
				"energy": 0.03353,
				"method": "rhf"
			},
			{
				"type": "unocc",
				"energy": 0.06215,
				"method": "rhf"
			},
			{
				"type": "unocc",
				"energy": 0.08477,
				"method": "rhf"
			},
			{
				"type": "unocc",
				"energy": 0.09133,
				"method": "rhf"
			},
			{
				"type": "unocc",
				"energy": 0.0949,
				"method": "rhf"
			}
		],
		"cosmo_sigma_profile": { 
			"-0.025": 0.0,
			"-0.024": 0.0,
			"-0.023": 0.0,
			"-0.022": 0.0,
			"-0.021": 0.0,
			"-0.02": 0.0,
			"-0.019": 0.0,
			"-0.018": 0.0,
			"-0.017": 0.0,
			"-0.016": 0.0,
			"-0.015": 0.650290634457,
			"-0.014": 1.76070543579,
			"-0.013": 1.62831590867,
			"-0.012": 1.9535885178,
			"-0.011": 1.99154592458,
			"-0.01": 1.7569618614,
			"-0.009": 2.00767902934,
			"-0.008": 1.24614026961,
			"-0.007": 2.65179594457,
			"-0.006": 2.2172996619,
			"-0.005": 3.02829156195,
			"-0.004": 5.9634091245,
			"-0.003": 21.6969505196,
			"-0.002": 52.6541786704,
			"-0.001": 57.9796770994,
			"0.0": 57.9433149508,
			"0.001": 51.8906606211,
			"0.002": 26.7223376496,
			"0.003": 9.92889134279,
			"0.004": 7.24609123176,
			"0.005": 5.66986344845,
			"0.006": 5.64977200089,
			"0.007": 5.01531779217,
			"0.008": 4.76434198546,
			"0.009": 2.28426748577,
			"0.01": 1.99732722793,
			"0.011": 1.53576909588,
			"0.012": 1.92908885361,
			"0.013": 1.60978622308,
			"0.014": 1.93501889076,
			"0.015": 1.1026041469,
			"0.016": 0.0,
			"0.017": 0.0,
			"0.018": 0.0,
			"0.019": 0.0,
			"0.02": 0.0,
			"0.021": 0.0,
			"0.022": 0.0,
			"0.023": 0.0,
			"0.024": 0.0,
			"0.025": 0.0
		}
	}
}
