{
	 "smiles": "CC(CC1CCCCC1)CC1CCCCC1", 
	 "Tm": 273.75, 
	 "num_atms": 46, 
	 "gaussian": { 
		 "optdone": 1, 
		 "sigma_profile": "yes", 
		 "theory": "DFT", 
		 "functional": "B3LYP", 
		 "basiset": "6-31G**", 
		 "properties": { 
			 "R2extent": 5616.9402, 
			 "electric_dipole_moment_norm": 0.103224270402, 
			 "electric_quadrupole_moment_norm": 0.555468973031, 
			 "total_energy": -627.820350803, 
			 "HOMO_LUMO_gap": 0.34365, 
			 "cosmo_polarized_energy": -0.87, 
			 "cosmo_cavitation_energy": 41.07, 
			 "cosmo_dispersion_energy": -28.64, 
			 "cosmo_repulsion_energy": 2.24, 
			 "cosmo_total_nonelectrostatic_energy": 14.67, 
			 "SMD_solvation_energy": 4.72 
		},
		"coords": [
			{
				"x": -0.3385366764,
				"y": -2.5189225452,
				"z": 1.015255334,
				"element": "C" 
			},
			{
				"x": 0.3947928714,
				"y": -1.2714330648,
				"z": 0.494046045,
				"element": "C" 
			},
			{
				"x": 0.0015355566,
				"y": -1.0200585943,
				"z": -0.9817928196,
				"element": "C" 
			},
			{
				"x": 0.7304682782,
				"y": 0.1084782448,
				"z": -1.7364860496,
				"element": "C" 
			},
			{
				"x": 2.2565403971,
				"y": -0.0989820534,
				"z": -1.8078178637,
				"element": "C" 
			},
			{
				"x": 2.9601894443,
				"y": 1.0052636738,
				"z": -2.6134389816,
				"element": "C" 
			},
			{
				"x": 2.367838104,
				"y": 1.1471354509,
				"z": -4.0227782602,
				"element": "C" 
			},
			{
				"x": 0.8493432,
				"y": 1.3672648307,
				"z": -3.9640224353,
				"element": "C" 
			},
			{
				"x": 0.1527043386,
				"y": 0.2601882608,
				"z": -3.1587575591,
				"element": "C" 
			},
			{
				"x": 0.3158384339,
				"y": -0.0363566165,
				"z": 1.4354557305,
				"element": "C" 
			},
			{
				"x": -1.0294928059,
				"y": 0.5632528152,
				"z": 1.9260141833,
				"element": "C" 
			},
			{
				"x": -1.6497379695,
				"y": -0.2050016758,
				"z": 3.1281015073,
				"element": "C" 
			},
			{
				"x": -3.1555177486,
				"y": 0.0895083976,
				"z": 3.3177470171,
				"element": "C" 
			},
			{
				"x": -3.4957907882,
				"y": 1.5259873718,
				"z": 2.9020147396,
				"element": "C" 
			},
			{
				"x": -3.2211223022,
				"y": 1.7449114378,
				"z": 1.3936462885,
				"element": "C" 
			},
			{
				"x": -2.1034500849,
				"y": 0.8200038928,
				"z": 0.8526128953,
				"element": "C" 
			},
			{
				"x": -0.0404959731,
				"y": -2.7641880387,
				"z": 2.0402070614,
				"element": "H" 
			},
			{
				"x": -1.4263172894,
				"y": -2.391524492,
				"z": 1.0025176158,
				"element": "H" 
			},
			{
				"x": -0.1070681817,
				"y": -3.387124107,
				"z": 0.3876235842,
				"element": "H" 
			},
			{
				"x": 1.4629639975,
				"y": -1.5326501709,
				"z": 0.4879412259,
				"element": "H" 
			},
			{
				"x": -1.0783861983,
				"y": -0.8430552586,
				"z": -1.0487275185,
				"element": "H" 
			},
			{
				"x": 0.1786801936,
				"y": -1.9578798236,
				"z": -1.5295636957,
				"element": "H" 
			},
			{
				"x": 0.5492396209,
				"y": 1.0595759655,
				"z": -1.2125116508,
				"element": "H" 
			},
			{
				"x": 2.684928468,
				"y": -0.1463849618,
				"z": -0.7998756042,
				"element": "H" 
			},
			{
				"x": 2.4581179338,
				"y": -1.0746964135,
				"z": -2.2758455295,
				"element": "H" 
			},
			{
				"x": 2.8550792025,
				"y": 1.9616351417,
				"z": -2.0810545523,
				"element": "H" 
			},
			{
				"x": 4.0362566456,
				"y": 0.8003720177,
				"z": -2.6707310717,
				"element": "H" 
			},
			{
				"x": 2.5782242323,
				"y": 0.2331816934,
				"z": -4.59679997,
				"element": "H" 
			},
			{
				"x": 2.8534568741,
				"y": 1.971014043,
				"z": -4.5598579907,
				"element": "H" 
			},
			{
				"x": 0.4310258905,
				"y": 1.4173588829,
				"z": -4.9767836301,
				"element": "H" 
			},
			{
				"x": 0.643903491,
				"y": 2.3401435749,
				"z": -3.4946773046,
				"element": "H" 
			},
			{
				"x": 0.2634242323,
				"y": -0.6970209539,
				"z": -3.690381401,
				"element": "H" 
			},
			{
				"x": -0.9256656972,
				"y": 0.4568331322,
				"z": -3.1011337316,
				"element": "H" 
			},
			{
				"x": 0.880144298,
				"y": 0.7714842921,
				"z": 0.9528672189,
				"element": "H" 
			},
			{
				"x": 0.8935954254,
				"y": -0.2853610852,
				"z": 2.3373106991,
				"element": "H" 
			},
			{
				"x": -0.7549106437,
				"y": 1.5575550882,
				"z": 2.3101392767,
				"element": "H" 
			},
			{
				"x": -1.5076791435,
				"y": -1.2826199442,
				"z": 3.0119219441,
				"element": "H" 
			},
			{
				"x": -1.1013000233,
				"y": 0.0761507396,
				"z": 4.0365646495,
				"element": "H" 
			},
			{
				"x": -3.7507742282,
				"y": -0.6055368832,
				"z": 2.7104341832,
				"element": "H" 
			},
			{
				"x": -3.4460274169,
				"y": -0.0939567523,
				"z": 4.3586214986,
				"element": "H" 
			},
			{
				"x": -2.888452823,
				"y": 2.2197730642,
				"z": 3.4980410824,
				"element": "H" 
			},
			{
				"x": -4.5405681519,
				"y": 1.7613692842,
				"z": 3.1344110186,
				"element": "H" 
			},
			{
				"x": -4.1385343811,
				"y": 1.571892425,
				"z": 0.8182124574,
				"element": "H" 
			},
			{
				"x": -2.9469642933,
				"y": 2.7930794122,
				"z": 1.2225843399,
				"element": "H" 
			},
			{
				"x": -2.5389916128,
				"y": -0.1347863118,
				"z": 0.5331570126,
				"element": "H" 
			},
			{
				"x": -1.6590066963,
				"y": 1.2684266136,
				"z": -0.0427109891,
				"element": "H" 
			}
		],
		 "valence_orbital": [ 
			{
				"type": "occ",
				"energy": -0.28966,
				"method": "rhf"
			},
			{
				"type": "occ",
				"energy": -0.287,
				"method": "rhf"
			},
			{
				"type": "occ",
				"energy": -0.28231,
				"method": "rhf"
			},
			{
				"type": "occ",
				"energy": -0.28135,
				"method": "rhf"
			},
			{
				"type": "occ",
				"energy": -0.27554,
				"method": "rhf"
			},
			{
				"type": "unocc",
				"energy": 0.06811,
				"method": "rhf"
			},
			{
				"type": "unocc",
				"energy": 0.08781,
				"method": "rhf"
			},
			{
				"type": "unocc",
				"energy": 0.09554,
				"method": "rhf"
			},
			{
				"type": "unocc",
				"energy": 0.09888,
				"method": "rhf"
			},
			{
				"type": "unocc",
				"energy": 0.10661,
				"method": "rhf"
			}
		],
		"cosmo_sigma_profile": { 
			"-0.025": 0.0,
			"-0.024": 0.0,
			"-0.023": 0.0,
			"-0.022": 0.0,
			"-0.021": 0.0,
			"-0.02": 0.0,
			"-0.019": 0.0,
			"-0.018": 0.0,
			"-0.017": 0.0,
			"-0.016": 0.0,
			"-0.015": 0.0,
			"-0.014": 0.0,
			"-0.013": 0.0,
			"-0.012": 0.0,
			"-0.011": 0.0,
			"-0.01": 0.0,
			"-0.009": 0.0,
			"-0.008": 0.0,
			"-0.007": 0.0,
			"-0.006": 0.0,
			"-0.005": 0.0,
			"-0.004": 0.0,
			"-0.003": 0.728255491266,
			"-0.002": 27.4844558535,
			"-0.001": 86.0201880266,
			"0.0": 93.8218892865,
			"0.001": 65.3003887798,
			"0.002": 36.5984973939,
			"0.003": 1.93937451847,
			"0.004": 0.0,
			"0.005": 0.0,
			"0.006": 0.0,
			"0.007": 0.0,
			"0.008": 0.0,
			"0.009": 0.0,
			"0.01": 0.0,
			"0.011": 0.0,
			"0.012": 0.0,
			"0.013": 0.0,
			"0.014": 0.0,
			"0.015": 0.0,
			"0.016": 0.0,
			"0.017": 0.0,
			"0.018": 0.0,
			"0.019": 0.0,
			"0.02": 0.0,
			"0.021": 0.0,
			"0.022": 0.0,
			"0.023": 0.0,
			"0.024": 0.0,
			"0.025": 0.0
		}
	}
}
