{
	 "smiles": "CCOC1=CC=C(C=C1)C1=NC(CO)=CS1", 
	 "Tm": 381.15, 
	 "num_atms": 29, 
	 "gaussian": { 
		 "optdone": 1, 
		 "sigma_profile": "yes", 
		 "theory": "DFT", 
		 "functional": "B3LYP", 
		 "basiset": "6-31G**", 
		 "properties": { 
			 "R2extent": 6411.3702, 
			 "electric_dipole_moment_norm": 2.95083932128, 
			 "electric_quadrupole_moment_norm": 25.7324622258, 
			 "total_energy": -1068.48352846, 
			 "HOMO_LUMO_gap": 0.1596, 
			 "cosmo_polarized_energy": -10.74, 
			 "cosmo_cavitation_energy": 34.23, 
			 "cosmo_dispersion_energy": -25.72, 
			 "cosmo_repulsion_energy": 1.98, 
			 "cosmo_total_nonelectrostatic_energy": 10.49, 
			 "SMD_solvation_energy": 5.19 
		},
		"coords": [
			{
				"x": -0.5991911356,
				"y": -4.3402006495,
				"z": 1.9816385343,
				"element": "C" 
			},
			{
				"x": 0.6996135428,
				"y": -3.6258526883,
				"z": 2.3394948657,
				"element": "C" 
			},
			{
				"x": 0.5149237305,
				"y": -2.219742429,
				"z": 2.5386163153,
				"element": "O" 
			},
			{
				"x": 0.448779902,
				"y": -1.3804175641,
				"z": 1.4698570929,
				"element": "C" 
			},
			{
				"x": 0.228764946,
				"y": -0.0277678602,
				"z": 1.7797067403,
				"element": "C" 
			},
			{
				"x": 0.1601921796,
				"y": 0.9207137895,
				"z": 0.7719830861,
				"element": "C" 
			},
			{
				"x": 0.3086559949,
				"y": 0.5562419244,
				"z": -0.5792091252,
				"element": "C" 
			},
			{
				"x": 0.5268409338,
				"y": -0.7979479979,
				"z": -0.8765863722,
				"element": "C" 
			},
			{
				"x": 0.5953381209,
				"y": -1.7601020796,
				"z": 0.1270098664,
				"element": "C" 
			},
			{
				"x": 0.2402255524,
				"y": 1.5314507577,
				"z": -1.6700227911,
				"element": "C" 
			},
			{
				"x": 0.3162095084,
				"y": 1.226175339,
				"z": -2.9410543575,
				"element": "N" 
			},
			{
				"x": 0.2244754113,
				"y": 2.3337514337,
				"z": -3.7526310771,
				"element": "C" 
			},
			{
				"x": 0.3131823576,
				"y": 2.0973060921,
				"z": -5.2393045093,
				"element": "C" 
			},
			{
				"x": -0.4918838203,
				"y": 1.0037758112,
				"z": -5.6433366201,
				"element": "O" 
			},
			{
				"x": 0.0726085161,
				"y": 3.523824988,
				"z": -3.1015815503,
				"element": "C" 
			},
			{
				"x": 0.0535903895,
				"y": 3.2670591873,
				"z": -1.3851625155,
				"element": "S" 
			},
			{
				"x": -1.3524014433,
				"y": -4.1658561473,
				"z": 2.7551161923,
				"element": "H" 
			},
			{
				"x": -0.424249536,
				"y": -5.4186802718,
				"z": 1.9072027019,
				"element": "H" 
			},
			{
				"x": -1.0038986558,
				"y": -3.9932253176,
				"z": 1.0271208453,
				"element": "H" 
			},
			{
				"x": 1.079268696,
				"y": -3.9860492065,
				"z": 3.299542014,
				"element": "H" 
			},
			{
				"x": 1.481065932,
				"y": -3.8037473084,
				"z": 1.5904116239,
				"element": "H" 
			},
			{
				"x": 0.1162738737,
				"y": 0.2508733002,
				"z": 2.8220354516,
				"element": "H" 
			},
			{
				"x": -0.0140596503,
				"y": 1.9586909802,
				"z": 1.0419460494,
				"element": "H" 
			},
			{
				"x": 0.6419567273,
				"y": -1.0894279787,
				"z": -1.9146457974,
				"element": "H" 
			},
			{
				"x": 0.7609431027,
				"y": -2.7947429287,
				"z": -0.147894863,
				"element": "H" 
			},
			{
				"x": -0.0276388635,
				"y": 2.9808190246,
				"z": -5.7877338752,
				"element": "H" 
			},
			{
				"x": 1.3698801658,
				"y": 1.9301989278,
				"z": -5.5107535809,
				"element": "H" 
			},
			{
				"x": -0.3605813465,
				"y": 0.3206082081,
				"z": -4.9689764496,
				"element": "H" 
			},
			{
				"x": -0.033785132,
				"y": 4.5142706639,
				"z": -3.520287895,
				"element": "H" 
			}
		],
		 "valence_orbital": [ 
			{
				"type": "occ",
				"energy": -0.27885,
				"method": "rhf"
			},
			{
				"type": "occ",
				"energy": -0.26275,
				"method": "rhf"
			},
			{
				"type": "occ",
				"energy": -0.25981,
				"method": "rhf"
			},
			{
				"type": "occ",
				"energy": -0.25503,
				"method": "rhf"
			},
			{
				"type": "occ",
				"energy": -0.20818,
				"method": "rhf"
			},
			{
				"type": "unocc",
				"energy": -0.04858,
				"method": "rhf"
			},
			{
				"type": "unocc",
				"energy": -0.01025,
				"method": "rhf"
			},
			{
				"type": "unocc",
				"energy": 0.01987,
				"method": "rhf"
			},
			{
				"type": "unocc",
				"energy": 0.02451,
				"method": "rhf"
			},
			{
				"type": "unocc",
				"energy": 0.06263,
				"method": "rhf"
			}
		],
		"cosmo_sigma_profile": { 
			"-0.025": 0.0,
			"-0.024": 0.0,
			"-0.023": 0.0,
			"-0.022": 0.0,
			"-0.021": 0.0,
			"-0.02": 0.0,
			"-0.019": 0.0,
			"-0.018": 0.0,
			"-0.017": 0.0,
			"-0.016": 0.0,
			"-0.015": 0.0,
			"-0.014": 0.0,
			"-0.013": 0.0,
			"-0.012": 0.171356272445,
			"-0.011": 0.56677324756,
			"-0.01": 0.853807490112,
			"-0.009": 1.80778032313,
			"-0.008": 3.0649000363,
			"-0.007": 5.98981657007,
			"-0.006": 12.3677253536,
			"-0.005": 17.8211650298,
			"-0.004": 23.6619565078,
			"-0.003": 24.3917760041,
			"-0.002": 22.2691270956,
			"-0.001": 18.5717054872,
			"0.0": 19.4920529449,
			"0.001": 22.5527766434,
			"0.002": 21.4850478795,
			"0.003": 26.0709435541,
			"0.004": 21.4068840434,
			"0.005": 8.63394192529,
			"0.006": 4.01075390996,
			"0.007": 3.03450087508,
			"0.008": 3.51877768393,
			"0.009": 2.6834094588,
			"0.01": 2.34683399245,
			"0.011": 1.33943353076,
			"0.012": 2.02451267204,
			"0.013": 1.37191898632,
			"0.014": 2.64530923664,
			"0.015": 0.310610406824,
			"0.016": 0.0,
			"0.017": 0.0,
			"0.018": 0.0,
			"0.019": 0.0,
			"0.02": 0.0,
			"0.021": 0.0,
			"0.022": 0.0,
			"0.023": 0.0,
			"0.024": 0.0,
			"0.025": 0.0
		}
	}
}
