{
	 "smiles": "CCOC(=O)C1=CC2=C(N1)C=C(OC)C(OC)=C2", 
	 "Tm": 450.15, 
	 "num_atms": 33, 
	 "gaussian": { 
		 "optdone": 1, 
		 "sigma_profile": "yes", 
		 "theory": "DFT", 
		 "functional": "B3LYP", 
		 "basiset": "6-31G**", 
		 "properties": { 
			 "R2extent": 7197.6187, 
			 "electric_dipole_moment_norm": 0.520205296013, 
			 "electric_quadrupole_moment_norm": 14.2364633217, 
			 "total_energy": -860.06353487, 
			 "HOMO_LUMO_gap": 0.1644, 
			 "cosmo_polarized_energy": -11.37, 
			 "cosmo_cavitation_energy": 37.22, 
			 "cosmo_dispersion_energy": -26.73, 
			 "cosmo_repulsion_energy": 2.09, 
			 "cosmo_total_nonelectrostatic_energy": 12.58, 
			 "SMD_solvation_energy": 8.51 
		},
		"coords": [
			{
				"x": 6.3224231721,
				"y": 0.0113095674,
				"z": -0.132875979,
				"element": "C" 
			},
			{
				"x": 5.4008145481,
				"y": 0.3835335997,
				"z": -1.2847820949,
				"element": "C" 
			},
			{
				"x": 4.059555168,
				"y": -0.1160346735,
				"z": -1.0695594983,
				"element": "O" 
			},
			{
				"x": 3.2424097173,
				"y": 0.6618646761,
				"z": -0.3294180628,
				"element": "C" 
			},
			{
				"x": 3.5574943638,
				"y": 1.7399217989,
				"z": 0.1520569542,
				"element": "O" 
			},
			{
				"x": 1.9131673549,
				"y": 0.0739247342,
				"z": -0.1632876557,
				"element": "C" 
			},
			{
				"x": 1.3479206408,
				"y": -1.1028544515,
				"z": -0.6109771393,
				"element": "C" 
			},
			{
				"x": 0.0049069163,
				"y": -1.129351771,
				"z": -0.1263795366,
				"element": "C" 
			},
			{
				"x": -0.1931682207,
				"y": 0.0714350039,
				"z": 0.6188932868,
				"element": "C" 
			},
			{
				"x": 0.9806053047,
				"y": 0.7784392427,
				"z": 0.5787509061,
				"element": "N" 
			},
			{
				"x": -1.4189567443,
				"y": 0.3760674012,
				"z": 1.2270119361,
				"element": "C" 
			},
			{
				"x": -2.4503401744,
				"y": -0.5418196304,
				"z": 1.0984644424,
				"element": "C" 
			},
			{
				"x": -3.6501565444,
				"y": -0.2757476879,
				"z": 1.7198017796,
				"element": "O" 
			},
			{
				"x": -4.7386415588,
				"y": 0.010177639,
				"z": 0.8326462208,
				"element": "C" 
			},
			{
				"x": -2.2657145933,
				"y": -1.762368423,
				"z": 0.3795331046,
				"element": "C" 
			},
			{
				"x": -3.3143492645,
				"y": -2.6524924947,
				"z": 0.2549463516,
				"element": "O" 
			},
			{
				"x": -3.6132320954,
				"y": -3.3853980266,
				"z": 1.4475297982,
				"element": "C" 
			},
			{
				"x": -1.057562786,
				"y": -2.0504818374,
				"z": -0.2292765344,
				"element": "C" 
			},
			{
				"x": 6.0026929328,
				"y": 0.5040508396,
				"z": 0.7884717253,
				"element": "H" 
			},
			{
				"x": 7.3451131218,
				"y": 0.3325243939,
				"z": -0.3572539996,
				"element": "H" 
			},
			{
				"x": 6.3291046665,
				"y": -1.0708650124,
				"z": 0.0269818121,
				"element": "H" 
			},
			{
				"x": 5.7168764665,
				"y": -0.086325113,
				"z": -2.2191527043,
				"element": "H" 
			},
			{
				"x": 5.3562781099,
				"y": 1.4668432649,
				"z": -1.4196289844,
				"element": "H" 
			},
			{
				"x": 1.8471165926,
				"y": -1.8481921101,
				"z": -1.2120124269,
				"element": "H" 
			},
			{
				"x": 1.1853101826,
				"y": 1.6733928911,
				"z": 0.9964808518,
				"element": "H" 
			},
			{
				"x": -1.5862925587,
				"y": 1.2909314918,
				"z": 1.7856276044,
				"element": "H" 
			},
			{
				"x": -5.6088937107,
				"y": 0.1925060971,
				"z": 1.4666781586,
				"element": "H" 
			},
			{
				"x": -4.5281979683,
				"y": 0.9094229699,
				"z": 0.2397698041,
				"element": "H" 
			},
			{
				"x": -4.9373920439,
				"y": -0.8317197734,
				"z": 0.1630026507,
				"element": "H" 
			},
			{
				"x": -4.4502593388,
				"y": -4.0432091278,
				"z": 1.2030218355,
				"element": "H" 
			},
			{
				"x": -3.8980510401,
				"y": -2.7157454012,
				"z": 2.2655829485,
				"element": "H" 
			},
			{
				"x": -2.7533295706,
				"y": -3.9936094323,
				"z": 1.7564235221,
				"element": "H" 
			},
			{
				"x": -0.9536510457,
				"y": -2.9830306452,
				"z": -0.7747710774,
				"element": "H" 
			}
		],
		 "valence_orbital": [ 
			{
				"type": "occ",
				"energy": -0.27915,
				"method": "rhf"
			},
			{
				"type": "occ",
				"energy": -0.27724,
				"method": "rhf"
			},
			{
				"type": "occ",
				"energy": -0.25842,
				"method": "rhf"
			},
			{
				"type": "occ",
				"energy": -0.21514,
				"method": "rhf"
			},
			{
				"type": "occ",
				"energy": -0.20857,
				"method": "rhf"
			},
			{
				"type": "unocc",
				"energy": -0.04417,
				"method": "rhf"
			},
			{
				"type": "unocc",
				"energy": 0.01726,
				"method": "rhf"
			},
			{
				"type": "unocc",
				"energy": 0.03123,
				"method": "rhf"
			},
			{
				"type": "unocc",
				"energy": 0.09025,
				"method": "rhf"
			},
			{
				"type": "unocc",
				"energy": 0.09888,
				"method": "rhf"
			}
		],
		"cosmo_sigma_profile": { 
			"-0.025": 0.0,
			"-0.024": 0.0,
			"-0.023": 0.0,
			"-0.022": 0.0,
			"-0.021": 0.0,
			"-0.02": 0.0,
			"-0.019": 0.0,
			"-0.018": 0.0,
			"-0.017": 0.0,
			"-0.016": 0.0140672973937,
			"-0.015": 0.56481807412,
			"-0.014": 1.21592236326,
			"-0.013": 0.944382308115,
			"-0.012": 0.626788051532,
			"-0.011": 0.749271030183,
			"-0.01": 0.978302506131,
			"-0.009": 1.32907058246,
			"-0.008": 1.164533136,
			"-0.007": 3.82434433245,
			"-0.006": 8.44321762888,
			"-0.005": 15.1561762859,
			"-0.004": 25.7797291495,
			"-0.003": 31.3794693388,
			"-0.002": 32.913811857,
			"-0.001": 25.4258020386,
			"0.0": 25.5435185801,
			"0.001": 17.3747166636,
			"0.002": 17.1427308128,
			"0.003": 23.2630541305,
			"0.004": 21.4162117729,
			"0.005": 9.2810560934,
			"0.006": 5.30086064562,
			"0.007": 5.57137301269,
			"0.008": 2.90354794408,
			"0.009": 4.05808309046,
			"0.01": 3.03185476833,
			"0.011": 4.8273842305,
			"0.012": 4.7163257323,
			"0.013": 0.231362003384,
			"0.014": 0.0,
			"0.015": 0.0,
			"0.016": 0.0,
			"0.017": 0.0,
			"0.018": 0.0,
			"0.019": 0.0,
			"0.02": 0.0,
			"0.021": 0.0,
			"0.022": 0.0,
			"0.023": 0.0,
			"0.024": 0.0,
			"0.025": 0.0
		}
	}
}
