{
	 "smiles": "NNC(=O)C1=CC(Br)=CN=C1", 
	 "Tm": 473.15, 
	 "num_atms": 17, 
	 "gaussian": { 
		 "optdone": 1, 
		 "sigma_profile": "yes", 
		 "theory": "DFT", 
		 "functional": "B3LYP", 
		 "basiset": "6-31G**", 
		 "properties": { 
			 "R2extent": 4016.558, 
			 "electric_dipole_moment_norm": 2.35900628655, 
			 "electric_quadrupole_moment_norm": 6.90020988739, 
			 "total_energy": -3043.10003641, 
			 "HOMO_LUMO_gap": 0.19575, 
			 "cosmo_polarized_energy": -14.49, 
			 "cosmo_cavitation_energy": 24.31, 
			 "cosmo_dispersion_energy": -18.22, 
			 "cosmo_repulsion_energy": 1.48, 
			 "cosmo_total_nonelectrostatic_energy": 7.57, 
			 "SMD_solvation_energy": 2.72 
		},
		"coords": [
			{
				"x": 0.307093377,
				"y": 2.7714414125,
				"z": -0.9919897315,
				"element": "N" 
			},
			{
				"x": -0.0578857194,
				"y": 2.3915331325,
				"z": 0.3157941602,
				"element": "N" 
			},
			{
				"x": 0.2427726012,
				"y": 1.2017098609,
				"z": 0.9426786404,
				"element": "C" 
			},
			{
				"x": 0.2970325885,
				"y": 1.133141064,
				"z": 2.1643582017,
				"element": "O" 
			},
			{
				"x": 0.485956205,
				"y": -0.0167385483,
				"z": 0.0935270029,
				"element": "C" 
			},
			{
				"x": 1.3994457752,
				"y": -0.9628618236,
				"z": 0.5737534523,
				"element": "C" 
			},
			{
				"x": 1.594679028,
				"y": -2.1225758177,
				"z": -0.1640365809,
				"element": "C" 
			},
			{
				"x": 2.8391027254,
				"y": -3.4438061235,
				"z": 0.41250893,
				"element": "Br" 
			},
			{
				"x": 0.8624568995,
				"y": -2.3261987924,
				"z": -1.3375756201,
				"element": "C" 
			},
			{
				"x": -0.0398307442,
				"y": -1.446162902,
				"z": -1.7792902264,
				"element": "N" 
			},
			{
				"x": -0.2179621885,
				"y": -0.3212584478,
				"z": -1.0787384205,
				"element": "C" 
			},
			{
				"x": -0.3939631372,
				"y": 2.4612925247,
				"z": -1.6573176384,
				"element": "H" 
			},
			{
				"x": 1.2030634393,
				"y": 2.3660036684,
				"z": -1.2494488694,
				"element": "H" 
			},
			{
				"x": -0.1142497469,
				"y": 3.168930687,
				"z": 0.9637190564,
				"element": "H" 
			},
			{
				"x": 1.9234102367,
				"y": -0.7800423083,
				"z": 1.5048022919,
				"element": "H" 
			},
			{
				"x": 1.0061606137,
				"y": -3.2282197545,
				"z": -1.9266318548,
				"element": "H" 
			},
			{
				"x": -0.9839819534,
				"y": 0.3516121682,
				"z": -1.4558127938,
				"element": "H" 
			}
		],
		 "valence_orbital": [ 
			{
				"type": "occ",
				"energy": -0.30504,
				"method": "rhf"
			},
			{
				"type": "occ",
				"energy": -0.28176,
				"method": "rhf"
			},
			{
				"type": "occ",
				"energy": -0.27032,
				"method": "rhf"
			},
			{
				"type": "occ",
				"energy": -0.26427,
				"method": "rhf"
			},
			{
				"type": "occ",
				"energy": -0.25888,
				"method": "rhf"
			},
			{
				"type": "unocc",
				"energy": -0.06313,
				"method": "rhf"
			},
			{
				"type": "unocc",
				"energy": -0.04597,
				"method": "rhf"
			},
			{
				"type": "unocc",
				"energy": -0.00678,
				"method": "rhf"
			},
			{
				"type": "unocc",
				"energy": 0.02554,
				"method": "rhf"
			},
			{
				"type": "unocc",
				"energy": 0.05814,
				"method": "rhf"
			}
		],
		"cosmo_sigma_profile": { 
			"-0.025": 0.0,
			"-0.024": 0.0,
			"-0.023": 0.0,
			"-0.022": 0.0,
			"-0.021": 0.0,
			"-0.02": 0.0,
			"-0.019": 0.0,
			"-0.018": 0.0,
			"-0.017": 0.0,
			"-0.016": 0.0,
			"-0.015": 0.0,
			"-0.014": 0.278444639541,
			"-0.013": 1.92779437023,
			"-0.012": 3.90827288867,
			"-0.011": 5.31839438482,
			"-0.01": 3.73107384746,
			"-0.009": 3.08839258476,
			"-0.008": 7.04331417019,
			"-0.007": 5.95839193148,
			"-0.006": 7.15761462543,
			"-0.005": 9.61104103835,
			"-0.004": 7.83851568298,
			"-0.003": 9.79072677908,
			"-0.002": 13.4395427478,
			"-0.001": 17.0739002992,
			"0.0": 16.1595744842,
			"0.001": 11.3847025024,
			"0.002": 11.0503985437,
			"0.003": 13.9106149043,
			"0.004": 12.2727227866,
			"0.005": 3.71299686901,
			"0.006": 3.43520691852,
			"0.007": 3.42873854694,
			"0.008": 2.60641355984,
			"0.009": 2.33379567057,
			"0.01": 3.4135324074,
			"0.011": 3.33251868543,
			"0.012": 4.65755626393,
			"0.013": 6.54947945217,
			"0.014": 2.10040104441,
			"0.015": 0.993236412493,
			"0.016": 0.19476698821,
			"0.017": 0.0,
			"0.018": 0.0,
			"0.019": 0.0,
			"0.02": 0.0,
			"0.021": 0.0,
			"0.022": 0.0,
			"0.023": 0.0,
			"0.024": 0.0,
			"0.025": 0.0
		}
	}
}
