{
	 "smiles": "CC(C)(C)C(O)C(O)=O", 
	 "Tm": 339.15, 
	 "num_atms": 21, 
	 "gaussian": { 
		 "optdone": 1, 
		 "sigma_profile": "yes", 
		 "theory": "DFT", 
		 "functional": "B3LYP", 
		 "basiset": "6-31G**", 
		 "properties": { 
			 "R2extent": 1335.1314, 
			 "electric_dipole_moment_norm": 3.95747854069, 
			 "electric_quadrupole_moment_norm": 14.6086549764, 
			 "total_energy": -461.558526695, 
			 "HOMO_LUMO_gap": 0.26628, 
			 "cosmo_polarized_energy": -13.66, 
			 "cosmo_cavitation_energy": 22.69, 
			 "cosmo_dispersion_energy": -16.3, 
			 "cosmo_repulsion_energy": 1.33, 
			 "cosmo_total_nonelectrostatic_energy": 7.72, 
			 "SMD_solvation_energy": 5.39 
		},
		"coords": [
			{
				"x": 1.1728684718,
				"y": -1.1353313846,
				"z": 0.4169657199,
				"element": "C" 
			},
			{
				"x": 0.1102779635,
				"y": -0.0193334146,
				"z": 0.4609656846,
				"element": "C" 
			},
			{
				"x": -1.3003893351,
				"y": -0.6342808923,
				"z": 0.5317662204,
				"element": "C" 
			},
			{
				"x": 0.338817081,
				"y": 0.8642456952,
				"z": 1.7035116801,
				"element": "C" 
			},
			{
				"x": 0.230593368,
				"y": 0.8862940672,
				"z": -0.8012510045,
				"element": "C" 
			},
			{
				"x": 1.5295639355,
				"y": 1.5122456626,
				"z": -0.8016148,
				"element": "O" 
			},
			{
				"x": 0.0515518384,
				"y": 0.1137725815,
				"z": -2.1232479473,
				"element": "C" 
			},
			{
				"x": 1.1985262077,
				"y": -0.0799112684,
				"z": -2.8000857874,
				"element": "O" 
			},
			{
				"x": -1.0144217515,
				"y": -0.2948840726,
				"z": -2.5190493972,
				"element": "O" 
			},
			{
				"x": 1.1171144337,
				"y": -1.7410483596,
				"z": 1.3271440232,
				"element": "H" 
			},
			{
				"x": 2.183199829,
				"y": -0.7196425986,
				"z": 0.354481972,
				"element": "H" 
			},
			{
				"x": 1.0221424953,
				"y": -1.8060260261,
				"z": -0.4354340653,
				"element": "H" 
			},
			{
				"x": -2.0712441642,
				"y": 0.1435298716,
				"z": 0.5725702508,
				"element": "H" 
			},
			{
				"x": -1.3891463754,
				"y": -1.2388248387,
				"z": 1.4406933407,
				"element": "H" 
			},
			{
				"x": -1.5156699344,
				"y": -1.2679861646,
				"z": -0.3302192149,
				"element": "H" 
			},
			{
				"x": 1.3310707423,
				"y": 1.3210804138,
				"z": 1.6907631183,
				"element": "H" 
			},
			{
				"x": -0.4075564657,
				"y": 1.6654410603,
				"z": 1.7621219385,
				"element": "H" 
			},
			{
				"x": 0.2482805128,
				"y": 0.2614534359,
				"z": 2.6130664212,
				"element": "H" 
			},
			{
				"x": -0.5618585461,
				"y": 1.6428408108,
				"z": -0.7600350308,
				"element": "H" 
			},
			{
				"x": 1.4386618144,
				"y": 2.4126608144,
				"z": -1.1372503837,
				"element": "H" 
			},
			{
				"x": 1.8898178791,
				"y": 0.3884046068,
				"z": -2.2906627386,
				"element": "H" 
			}
		],
		 "valence_orbital": [ 
			{
				"type": "occ",
				"energy": -0.33508,
				"method": "rhf"
			},
			{
				"type": "occ",
				"energy": -0.33033,
				"method": "rhf"
			},
			{
				"type": "occ",
				"energy": -0.32898,
				"method": "rhf"
			},
			{
				"type": "occ",
				"energy": -0.30666,
				"method": "rhf"
			},
			{
				"type": "occ",
				"energy": -0.25756,
				"method": "rhf"
			},
			{
				"type": "unocc",
				"energy": 0.00872,
				"method": "rhf"
			},
			{
				"type": "unocc",
				"energy": 0.03738,
				"method": "rhf"
			},
			{
				"type": "unocc",
				"energy": 0.09116,
				"method": "rhf"
			},
			{
				"type": "unocc",
				"energy": 0.11376,
				"method": "rhf"
			},
			{
				"type": "unocc",
				"energy": 0.13077,
				"method": "rhf"
			}
		],
		"cosmo_sigma_profile": { 
			"-0.025": 0.0,
			"-0.024": 0.0,
			"-0.023": 0.0,
			"-0.022": 0.0,
			"-0.021": 0.0,
			"-0.02": 0.0,
			"-0.019": 0.0,
			"-0.018": 0.507723313544,
			"-0.017": 1.44353048546,
			"-0.016": 1.08630616375,
			"-0.015": 1.48734819262,
			"-0.014": 1.15950149794,
			"-0.013": 1.1676872166,
			"-0.012": 1.4929158235,
			"-0.011": 2.01303096487,
			"-0.01": 1.98395430613,
			"-0.009": 2.58629107975,
			"-0.008": 2.35272439587,
			"-0.007": 3.33655299948,
			"-0.006": 2.93805682409,
			"-0.005": 3.52838234475,
			"-0.004": 4.73710129493,
			"-0.003": 16.7591754133,
			"-0.002": 17.6343435291,
			"-0.001": 17.0478738181,
			"0.0": 19.1897550652,
			"0.001": 21.8133108183,
			"0.002": 8.47386405537,
			"0.003": 3.68071497006,
			"0.004": 3.62285615141,
			"0.005": 3.85129947341,
			"0.006": 2.7546288215,
			"0.007": 3.76659912018,
			"0.008": 2.93414367116,
			"0.009": 4.2902393574,
			"0.01": 5.43149200768,
			"0.011": 4.53181590903,
			"0.012": 5.16184853379,
			"0.013": 2.37604277257,
			"0.014": 0.197572097116,
			"0.015": 0.0,
			"0.016": 0.0,
			"0.017": 0.0,
			"0.018": 0.0,
			"0.019": 0.0,
			"0.02": 0.0,
			"0.021": 0.0,
			"0.022": 0.0,
			"0.023": 0.0,
			"0.024": 0.0,
			"0.025": 0.0
		}
	}
}
