{
	 "smiles": "CN(C)C(=O)CN1CCNCC1", 
	 "Tm": 309.15, 
	 "num_atms": 29, 
	 "gaussian": { 
		 "optdone": 1, 
		 "sigma_profile": "yes", 
		 "theory": "DFT", 
		 "functional": "B3LYP", 
		 "basiset": "6-31G**", 
		 "properties": { 
			 "R2extent": 3168.8952, 
			 "electric_dipole_moment_norm": 4.06958853694, 
			 "electric_quadrupole_moment_norm": 12.1548508839, 
			 "total_energy": -554.552473968, 
			 "HOMO_LUMO_gap": 0.23135, 
			 "cosmo_polarized_energy": -12.52, 
			 "cosmo_cavitation_energy": 29.36, 
			 "cosmo_dispersion_energy": -21.05, 
			 "cosmo_repulsion_energy": 1.69, 
			 "cosmo_total_nonelectrostatic_energy": 10.0, 
			 "SMD_solvation_energy": 2.28 
		},
		"coords": [
			{
				"x": 4.0032217555,
				"y": 0.9744956184,
				"z": 2.8964062107,
				"element": "C" 
			},
			{
				"x": 2.7453340828,
				"y": 1.07029112,
				"z": 2.1689380125,
				"element": "N" 
			},
			{
				"x": 2.5879991416,
				"y": 2.2374439734,
				"z": 1.3130146435,
				"element": "C" 
			},
			{
				"x": 1.7410101585,
				"y": 0.1842941932,
				"z": 2.4722927807,
				"element": "C" 
			},
			{
				"x": 1.8896182875,
				"y": -0.7247209521,
				"z": 3.2856005218,
				"element": "O" 
			},
			{
				"x": 0.3797160122,
				"y": 0.3569093152,
				"z": 1.7739341693,
				"element": "C" 
			},
			{
				"x": 0.4338985915,
				"y": 0.2057706068,
				"z": 0.3209274827,
				"element": "N" 
			},
			{
				"x": 0.9715174843,
				"y": -1.1111841081,
				"z": -0.0702998038,
				"element": "C" 
			},
			{
				"x": 0.676250781,
				"y": -1.3972068676,
				"z": -1.5385818936,
				"element": "C" 
			},
			{
				"x": -0.774270753,
				"y": -1.5576798062,
				"z": -1.7404354175,
				"element": "N" 
			},
			{
				"x": -1.5827756791,
				"y": -0.7444865072,
				"z": -0.8180777221,
				"element": "C" 
			},
			{
				"x": -0.8492069179,
				"y": 0.5199577647,
				"z": -0.3501278395,
				"element": "C" 
			},
			{
				"x": 4.8460247349,
				"y": 0.9583198453,
				"z": 2.1951225022,
				"element": "H" 
			},
			{
				"x": 4.1335598547,
				"y": 1.8328081163,
				"z": 3.5695787146,
				"element": "H" 
			},
			{
				"x": 3.9926014867,
				"y": 0.0579026376,
				"z": 3.4837061439,
				"element": "H" 
			},
			{
				"x": 1.7702071292,
				"y": 2.0779833659,
				"z": 0.611836409,
				"element": "H" 
			},
			{
				"x": 2.4163961251,
				"y": 3.152008801,
				"z": 1.8996527271,
				"element": "H" 
			},
			{
				"x": 3.5058644678,
				"y": 2.3824539742,
				"z": 0.7319379897,
				"element": "H" 
			},
			{
				"x": -0.016530101,
				"y": 1.3539654317,
				"z": 2.0035397169,
				"element": "H" 
			},
			{
				"x": -0.2714168114,
				"y": -0.385847058,
				"z": 2.2626704511,
				"element": "H" 
			},
			{
				"x": 0.5490455625,
				"y": -1.9253810906,
				"z": 0.5447635774,
				"element": "H" 
			},
			{
				"x": 2.053683631,
				"y": -1.1166272764,
				"z": 0.0980131171,
				"element": "H" 
			},
			{
				"x": 1.1900802975,
				"y": -2.3193511908,
				"z": -1.836489401,
				"element": "H" 
			},
			{
				"x": 1.1078734002,
				"y": -0.5787269646,
				"z": -2.1396377774,
				"element": "H" 
			},
			{
				"x": -1.0098296095,
				"y": -1.3253805853,
				"z": -2.6992702492,
				"element": "H" 
			},
			{
				"x": -2.5243753631,
				"y": -0.4770271657,
				"z": -1.3094872104,
				"element": "H" 
			},
			{
				"x": -1.8527471458,
				"y": -1.3472632283,
				"z": 0.06015154,
				"element": "H" 
			},
			{
				"x": -0.656914995,
				"y": 1.1648494939,
				"z": -1.2197512901,
				"element": "H" 
			},
			{
				"x": -1.4826356088,
				"y": 1.0943285436,
				"z": 0.3348718943,
				"element": "H" 
			}
		],
		 "valence_orbital": [ 
			{
				"type": "occ",
				"energy": -0.32885,
				"method": "rhf"
			},
			{
				"type": "occ",
				"energy": -0.23856,
				"method": "rhf"
			},
			{
				"type": "occ",
				"energy": -0.23107,
				"method": "rhf"
			},
			{
				"type": "occ",
				"energy": -0.2211,
				"method": "rhf"
			},
			{
				"type": "occ",
				"energy": -0.20623,
				"method": "rhf"
			},
			{
				"type": "unocc",
				"energy": 0.02512,
				"method": "rhf"
			},
			{
				"type": "unocc",
				"energy": 0.07284,
				"method": "rhf"
			},
			{
				"type": "unocc",
				"energy": 0.0933,
				"method": "rhf"
			},
			{
				"type": "unocc",
				"energy": 0.10611,
				"method": "rhf"
			},
			{
				"type": "unocc",
				"energy": 0.12227,
				"method": "rhf"
			}
		],
		"cosmo_sigma_profile": { 
			"-0.025": 0.0,
			"-0.024": 0.0,
			"-0.023": 0.0,
			"-0.022": 0.0,
			"-0.021": 0.0,
			"-0.02": 0.0,
			"-0.019": 0.0,
			"-0.018": 0.0,
			"-0.017": 0.0,
			"-0.016": 0.0,
			"-0.015": 0.0,
			"-0.014": 0.0,
			"-0.013": 0.0,
			"-0.012": 0.0,
			"-0.011": 0.0,
			"-0.01": 0.78080168556,
			"-0.009": 1.49680382034,
			"-0.008": 1.15902019045,
			"-0.007": 1.58978092684,
			"-0.006": 2.30171202428,
			"-0.005": 10.9447899389,
			"-0.004": 22.518971619,
			"-0.003": 34.2597299055,
			"-0.002": 43.2034988378,
			"-0.001": 32.739645525,
			"0.0": 15.1283464064,
			"0.001": 9.22607068038,
			"0.002": 6.87653605662,
			"0.003": 6.05114434736,
			"0.004": 4.39297081482,
			"0.005": 2.79697577033,
			"0.006": 2.89946295072,
			"0.007": 4.08887823937,
			"0.008": 3.12039504238,
			"0.009": 2.00950814584,
			"0.01": 2.06117619141,
			"0.011": 1.72266621904,
			"0.012": 2.31082710184,
			"0.013": 2.95061703615,
			"0.014": 5.71011116757,
			"0.015": 2.67706372417,
			"0.016": 0.823045230214,
			"0.017": 0.424540421338,
			"0.018": 0.592843156324,
			"0.019": 0.215109259096,
			"0.02": 0.0,
			"0.021": 0.0,
			"0.022": 0.0,
			"0.023": 0.0,
			"0.024": 0.0,
			"0.025": 0.0
		}
	}
}
