{
	 "smiles": "COC(=O)C1=CC(OC)=C(S1)S(O)(=O)=O", 
	 "Tm": 383.15, 
	 "num_atms": 23, 
	 "gaussian": { 
		 "optdone": 1, 
		 "sigma_profile": "yes", 
		 "theory": "DFT", 
		 "functional": "B3LYP", 
		 "basiset": "6-31G**", 
		 "properties": { 
			 "R2extent": 5252.6416, 
			 "electric_dipole_moment_norm": 5.50799756173, 
			 "electric_quadrupole_moment_norm": 14.876159174, 
			 "total_energy": -1519.17935103, 
			 "HOMO_LUMO_gap": 0.1625, 
			 "cosmo_polarized_energy": -19.98, 
			 "cosmo_cavitation_energy": 31.64, 
			 "cosmo_dispersion_energy": -23.77, 
			 "cosmo_repulsion_energy": 1.8, 
			 "cosmo_total_nonelectrostatic_energy": 9.67, 
			 "SMD_solvation_energy": 6.84 
		},
		"coords": [
			{
				"x": -5.0234192767,
				"y": 0.7743503587,
				"z": 0.1851091206,
				"element": "C" 
			},
			{
				"x": -3.6139490211,
				"y": 0.4855928633,
				"z": 0.2140857122,
				"element": "O" 
			},
			{
				"x": -3.1284220257,
				"y": -0.1019869173,
				"z": -0.8990864047,
				"element": "C" 
			},
			{
				"x": -3.7978649053,
				"y": -0.3825176449,
				"z": -1.8743235867,
				"element": "O" 
			},
			{
				"x": -1.68137917,
				"y": -0.3621141244,
				"z": -0.7907090741,
				"element": "C" 
			},
			{
				"x": -0.8298973269,
				"y": -0.089851833,
				"z": 0.2560239203,
				"element": "C" 
			},
			{
				"x": 0.5057422813,
				"y": -0.5010758264,
				"z": -0.0178634813,
				"element": "C" 
			},
			{
				"x": 1.5832354144,
				"y": -0.3717285988,
				"z": 0.7789233983,
				"element": "O" 
			},
			{
				"x": 1.3941035287,
				"y": 0.2214072293,
				"z": 2.061443373,
				"element": "C" 
			},
			{
				"x": 0.6196072544,
				"y": -1.0808065823,
				"z": -1.2730352849,
				"element": "C" 
			},
			{
				"x": -0.8884964753,
				"y": -1.1259952745,
				"z": -2.1286439559,
				"element": "S" 
			},
			{
				"x": 2.1369275326,
				"y": -1.6631935212,
				"z": -1.9658778089,
				"element": "S" 
			},
			{
				"x": 1.522759927,
				"y": -2.3741445707,
				"z": -3.318592664,
				"element": "O" 
			},
			{
				"x": 2.6901241167,
				"y": -2.702988793,
				"z": -1.1164855623,
				"element": "O" 
			},
			{
				"x": 2.9622019866,
				"y": -0.547637603,
				"z": -2.4259809479,
				"element": "O" 
			},
			{
				"x": -5.2457577713,
				"y": 1.2396414786,
				"z": 1.144872204,
				"element": "H" 
			},
			{
				"x": -5.2578542632,
				"y": 1.4548142259,
				"z": -0.6369311833,
				"element": "H" 
			},
			{
				"x": -5.5998340736,
				"y": -0.1452616772,
				"z": 0.0595972844,
				"element": "H" 
			},
			{
				"x": -1.1616065406,
				"y": 0.3811509403,
				"z": 1.1709428066,
				"element": "H" 
			},
			{
				"x": 1.0305666297,
				"y": 1.2519821791,
				"z": 1.9724906265,
				"element": "H" 
			},
			{
				"x": 0.6962236143,
				"y": -0.3651023796,
				"z": 2.6704009633,
				"element": "H" 
			},
			{
				"x": 2.3756447791,
				"y": 0.2225436197,
				"z": 2.5348673204,
				"element": "H" 
			},
			{
				"x": 1.912943785,
				"y": -1.9015775489,
				"z": -4.0735267754,
				"element": "H" 
			}
		],
		 "valence_orbital": [ 
			{
				"type": "occ",
				"energy": -0.3186,
				"method": "rhf"
			},
			{
				"type": "occ",
				"energy": -0.30999,
				"method": "rhf"
			},
			{
				"type": "occ",
				"energy": -0.29463,
				"method": "rhf"
			},
			{
				"type": "occ",
				"energy": -0.27442,
				"method": "rhf"
			},
			{
				"type": "occ",
				"energy": -0.24215,
				"method": "rhf"
			},
			{
				"type": "unocc",
				"energy": -0.07965,
				"method": "rhf"
			},
			{
				"type": "unocc",
				"energy": 0.00099,
				"method": "rhf"
			},
			{
				"type": "unocc",
				"energy": 0.01417,
				"method": "rhf"
			},
			{
				"type": "unocc",
				"energy": 0.02969,
				"method": "rhf"
			},
			{
				"type": "unocc",
				"energy": 0.04343,
				"method": "rhf"
			}
		],
		"cosmo_sigma_profile": { 
			"-0.025": 0.0,
			"-0.024": 0.0,
			"-0.023": 0.0,
			"-0.022": 0.0,
			"-0.021": 0.0689220542784,
			"-0.02": 0.763623805159,
			"-0.019": 0.965645147979,
			"-0.018": 0.769524623415,
			"-0.017": 0.928068211686,
			"-0.016": 0.759709197542,
			"-0.015": 0.619436038313,
			"-0.014": 0.911690449317,
			"-0.013": 0.987878813565,
			"-0.012": 0.872409126403,
			"-0.011": 0.578199090779,
			"-0.01": 1.0164115926,
			"-0.009": 2.31066012624,
			"-0.008": 3.71055873548,
			"-0.007": 11.0004410538,
			"-0.006": 16.3968812419,
			"-0.005": 17.7283479368,
			"-0.004": 20.8717730917,
			"-0.003": 15.6753116176,
			"-0.002": 12.7298286465,
			"-0.001": 17.597750466,
			"0.0": 19.2789849787,
			"0.001": 15.2376007098,
			"0.002": 10.5112068753,
			"0.003": 9.13846746374,
			"0.004": 7.94533874862,
			"0.005": 7.94084284253,
			"0.006": 8.22783346604,
			"0.007": 8.20149651607,
			"0.008": 7.34730313289,
			"0.009": 15.2133287085,
			"0.01": 12.8753867718,
			"0.011": 4.86691247938,
			"0.012": 0.512225080534,
			"0.013": 0.0,
			"0.014": 0.0,
			"0.015": 0.0,
			"0.016": 0.0,
			"0.017": 0.0,
			"0.018": 0.0,
			"0.019": 0.0,
			"0.02": 0.0,
			"0.021": 0.0,
			"0.022": 0.0,
			"0.023": 0.0,
			"0.024": 0.0,
			"0.025": 0.0
		}
	}
}
