{
	 "smiles": "CC(=O)NC1=NC=C(S1)C1=CC=C(O)C=C1", 
	 "Tm": 492.15, 
	 "num_atms": 26, 
	 "gaussian": { 
		 "optdone": 1, 
		 "sigma_profile": "yes", 
		 "theory": "DFT", 
		 "functional": "B3LYP", 
		 "basiset": "6-31G**", 
		 "properties": { 
			 "R2extent": 6740.5481, 
			 "electric_dipole_moment_norm": 4.43066647131, 
			 "electric_quadrupole_moment_norm": 18.1887973473, 
			 "total_energy": -1083.34211281, 
			 "HOMO_LUMO_gap": 0.16019, 
			 "cosmo_polarized_energy": -16.8, 
			 "cosmo_cavitation_energy": 32.42, 
			 "cosmo_dispersion_energy": -24.33, 
			 "cosmo_repulsion_energy": 1.83, 
			 "cosmo_total_nonelectrostatic_energy": 9.92, 
			 "SMD_solvation_energy": 4.99 
		},
		"coords": [
			{
				"x": 1.157971624,
				"y": -1.5329210406,
				"z": 4.6814186702,
				"element": "C" 
			},
			{
				"x": 2.3047155525,
				"y": -0.5480086793,
				"z": 4.6570940332,
				"element": "C" 
			},
			{
				"x": 2.9006494999,
				"y": -0.2013073711,
				"z": 5.6632854854,
				"element": "O" 
			},
			{
				"x": 2.6985875957,
				"y": -0.0111361898,
				"z": 3.432927034,
				"element": "N" 
			},
			{
				"x": 2.283524488,
				"y": -0.159376186,
				"z": 2.1197880143,
				"element": "C" 
			},
			{
				"x": 2.8948744977,
				"y": 0.4941743348,
				"z": 1.1694405891,
				"element": "N" 
			},
			{
				"x": 2.3279757349,
				"y": 0.227104454,
				"z": -0.050893136,
				"element": "C" 
			},
			{
				"x": 1.26914508,
				"y": -0.6410386174,
				"z": -0.0819529409,
				"element": "C" 
			},
			{
				"x": 0.9508036248,
				"y": -1.1758304162,
				"z": 1.5689822156,
				"element": "S" 
			},
			{
				"x": 0.4852788385,
				"y": -1.118317904,
				"z": -1.2235947249,
				"element": "C" 
			},
			{
				"x": 1.0722251756,
				"y": -1.2093455207,
				"z": -2.4981018972,
				"element": "C" 
			},
			{
				"x": 0.3378984535,
				"y": -1.6321884793,
				"z": -3.6019597036,
				"element": "C" 
			},
			{
				"x": -1.005430172,
				"y": -1.9962426276,
				"z": -3.4540586331,
				"element": "C" 
			},
			{
				"x": -1.7752426531,
				"y": -2.4282838561,
				"z": -4.4940661432,
				"element": "O" 
			},
			{
				"x": -1.6042545379,
				"y": -1.9269440297,
				"z": -2.1908963842,
				"element": "C" 
			},
			{
				"x": -0.8672376733,
				"y": -1.489181927,
				"z": -1.0976960112,
				"element": "C" 
			},
			{
				"x": 0.2349520168,
				"y": -1.0819714512,
				"z": 4.302973352,
				"element": "H" 
			},
			{
				"x": 1.0099544139,
				"y": -1.8372527269,
				"z": 5.7171749015,
				"element": "H" 
			},
			{
				"x": 1.3752300688,
				"y": -2.4167360704,
				"z": 4.0729773538,
				"element": "H" 
			},
			{
				"x": 3.4766326348,
				"y": 0.6349740208,
				"z": 3.5204295457,
				"element": "H" 
			},
			{
				"x": 2.7233668276,
				"y": 0.729032101,
				"z": -0.9264705673,
				"element": "H" 
			},
			{
				"x": 2.1221683487,
				"y": -0.9638263423,
				"z": -2.6230255991,
				"element": "H" 
			},
			{
				"x": 0.8155477676,
				"y": -1.6963232291,
				"z": -4.577441461,
				"element": "H" 
			},
			{
				"x": -1.2486555297,
				"y": -2.4255308373,
				"z": -5.3039823179,
				"element": "H" 
			},
			{
				"x": -2.6466965181,
				"y": -2.2091101849,
				"z": -2.0882218202,
				"element": "H" 
			},
			{
				"x": -1.3558851594,
				"y": -1.4168112238,
				"z": -0.1301298551,
				"element": "H" 
			}
		],
		 "valence_orbital": [ 
			{
				"type": "occ",
				"energy": -0.28635,
				"method": "rhf"
			},
			{
				"type": "occ",
				"energy": -0.26521,
				"method": "rhf"
			},
			{
				"type": "occ",
				"energy": -0.26412,
				"method": "rhf"
			},
			{
				"type": "occ",
				"energy": -0.25111,
				"method": "rhf"
			},
			{
				"type": "occ",
				"energy": -0.20368,
				"method": "rhf"
			},
			{
				"type": "unocc",
				"energy": -0.04349,
				"method": "rhf"
			},
			{
				"type": "unocc",
				"energy": -0.01648,
				"method": "rhf"
			},
			{
				"type": "unocc",
				"energy": -0.00302,
				"method": "rhf"
			},
			{
				"type": "unocc",
				"energy": 0.01167,
				"method": "rhf"
			},
			{
				"type": "unocc",
				"energy": 0.03313,
				"method": "rhf"
			}
		],
		"cosmo_sigma_profile": { 
			"-0.025": 0.0,
			"-0.024": 0.0,
			"-0.023": 0.0,
			"-0.022": 0.0,
			"-0.021": 0.0,
			"-0.02": 0.0,
			"-0.019": 0.00614398700823,
			"-0.018": 0.625054534034,
			"-0.017": 1.06846456764,
			"-0.016": 1.47792681883,
			"-0.015": 1.22865882285,
			"-0.014": 1.69738854114,
			"-0.013": 1.16888933048,
			"-0.012": 1.37952679846,
			"-0.011": 1.51103103357,
			"-0.01": 2.17999107637,
			"-0.009": 2.84705668287,
			"-0.008": 2.21522999927,
			"-0.007": 9.11252141558,
			"-0.006": 15.278520329,
			"-0.005": 15.8145307471,
			"-0.004": 16.8065983239,
			"-0.003": 16.6580215371,
			"-0.002": 17.5202412354,
			"-0.001": 16.4130071994,
			"0.0": 16.4087287043,
			"0.001": 15.2802300141,
			"0.002": 17.610347196,
			"0.003": 20.9275964757,
			"0.004": 16.7407245733,
			"0.005": 11.9831430058,
			"0.006": 4.46773299949,
			"0.007": 4.6395264637,
			"0.008": 2.76013624583,
			"0.009": 3.88635153399,
			"0.01": 4.13853277513,
			"0.011": 4.86571650526,
			"0.012": 6.52298608428,
			"0.013": 4.64290664466,
			"0.014": 1.15139859143,
			"0.015": 0.0245002920097,
			"0.016": 0.0,
			"0.017": 0.0,
			"0.018": 0.0,
			"0.019": 0.0,
			"0.02": 0.0,
			"0.021": 0.0,
			"0.022": 0.0,
			"0.023": 0.0,
			"0.024": 0.0,
			"0.025": 0.0
		}
	}
}
