{
	 "smiles": "[O-][N+](=O)C1=CC=C2C(=O)OC(=O)C2=C1", 
	 "Tm": 388.15, 
	 "num_atms": 17, 
	 "gaussian": { 
		 "optdone": 1, 
		 "sigma_profile": "yes", 
		 "theory": "DFT", 
		 "functional": "B3LYP", 
		 "basiset": "6-31G**", 
		 "properties": { 
			 "R2extent": 3546.6374, 
			 "electric_dipole_moment_norm": 2.64109132368, 
			 "electric_quadrupole_moment_norm": 19.6949059942, 
			 "total_energy": -737.436420248, 
			 "HOMO_LUMO_gap": 0.17553, 
			 "cosmo_polarized_energy": -13.94, 
			 "cosmo_cavitation_energy": 24.17, 
			 "cosmo_dispersion_energy": -17.73, 
			 "cosmo_repulsion_energy": 1.37, 
			 "cosmo_total_nonelectrostatic_energy": 7.81, 
			 "SMD_solvation_energy": 8.42 
		},
		"coords": [
			{
				"x": 3.5365081291,
				"y": -1.4007664529,
				"z": -0.6597785111,
				"element": "O" 
			},
			{
				"x": 2.3206561986,
				"y": -1.5275892219,
				"z": -0.777476342,
				"element": "N" 
			},
			{
				"x": 1.7090871777,
				"y": -2.5914566597,
				"z": -0.7417872355,
				"element": "O" 
			},
			{
				"x": 1.5237037362,
				"y": -0.2963129317,
				"z": -0.9792506939,
				"element": "C" 
			},
			{
				"x": 2.1987340463,
				"y": 0.9293451126,
				"z": -1.0236945014,
				"element": "C" 
			},
			{
				"x": 1.478879664,
				"y": 2.1110747246,
				"z": -1.2124875127,
				"element": "C" 
			},
			{
				"x": 0.0995984187,
				"y": 2.0008866223,
				"z": -1.3488475879,
				"element": "C" 
			},
			{
				"x": -0.9350365343,
				"y": 3.0494499147,
				"z": -1.5584858036,
				"element": "C" 
			},
			{
				"x": -0.8224469445,
				"y": 4.237473067,
				"z": -1.6595549782,
				"element": "O" 
			},
			{
				"x": -2.1690286542,
				"y": 2.3990454095,
				"z": -1.6283595698,
				"element": "O" 
			},
			{
				"x": -2.0053451659,
				"y": 1.0171205671,
				"z": -1.4796489993,
				"element": "C" 
			},
			{
				"x": -2.9257727335,
				"y": 0.2523649419,
				"z": -1.5052110165,
				"element": "O" 
			},
			{
				"x": -0.5503759489,
				"y": 0.7706102438,
				"z": -1.3013080659,
				"element": "C" 
			},
			{
				"x": 0.1404745281,
				"y": -0.4186377538,
				"z": -1.1149340652,
				"element": "C" 
			},
			{
				"x": 3.2755861135,
				"y": 0.9319908608,
				"z": -0.9092657638,
				"element": "H" 
			},
			{
				"x": 1.9738214165,
				"y": 3.0752301329,
				"z": -1.2512807448,
				"element": "H" 
			},
			{
				"x": -0.3445434476,
				"y": -1.3859285771,
				"z": -1.0748286083,
				"element": "H" 
			}
		],
		 "valence_orbital": [ 
			{
				"type": "occ",
				"energy": -0.33064,
				"method": "rhf"
			},
			{
				"type": "occ",
				"energy": -0.32419,
				"method": "rhf"
			},
			{
				"type": "occ",
				"energy": -0.32032,
				"method": "rhf"
			},
			{
				"type": "occ",
				"energy": -0.31967,
				"method": "rhf"
			},
			{
				"type": "occ",
				"energy": -0.30916,
				"method": "rhf"
			},
			{
				"type": "unocc",
				"energy": -0.13363,
				"method": "rhf"
			},
			{
				"type": "unocc",
				"energy": -0.10095,
				"method": "rhf"
			},
			{
				"type": "unocc",
				"energy": -0.06926,
				"method": "rhf"
			},
			{
				"type": "unocc",
				"energy": 0.00898,
				"method": "rhf"
			},
			{
				"type": "unocc",
				"energy": 0.03248,
				"method": "rhf"
			}
		],
		"cosmo_sigma_profile": { 
			"-0.025": 0.0,
			"-0.024": 0.0,
			"-0.023": 0.0,
			"-0.022": 0.0,
			"-0.021": 0.0,
			"-0.02": 0.0,
			"-0.019": 0.0,
			"-0.018": 0.0,
			"-0.017": 0.0,
			"-0.016": 0.0,
			"-0.015": 0.0,
			"-0.014": 0.0,
			"-0.013": 0.0,
			"-0.012": 0.0,
			"-0.011": 0.470100629584,
			"-0.01": 3.19436314293,
			"-0.009": 7.8207713486,
			"-0.008": 8.47807589702,
			"-0.007": 8.51390623885,
			"-0.006": 9.61015711381,
			"-0.005": 13.2005672106,
			"-0.004": 19.5101349957,
			"-0.003": 17.3671498003,
			"-0.002": 11.0533485444,
			"-0.001": 6.68516798582,
			"0.0": 4.73349267623,
			"0.001": 5.22888440331,
			"0.002": 5.07558425555,
			"0.003": 5.96862058987,
			"0.004": 6.77363836156,
			"0.005": 8.86558420531,
			"0.006": 13.3017844371,
			"0.007": 13.6065195411,
			"0.008": 11.5877903424,
			"0.009": 12.6470442567,
			"0.01": 2.96648557625,
			"0.011": 0.0,
			"0.012": 0.0,
			"0.013": 0.0,
			"0.014": 0.0,
			"0.015": 0.0,
			"0.016": 0.0,
			"0.017": 0.0,
			"0.018": 0.0,
			"0.019": 0.0,
			"0.02": 0.0,
			"0.021": 0.0,
			"0.022": 0.0,
			"0.023": 0.0,
			"0.024": 0.0,
			"0.025": 0.0
		}
	}
}
