{
	 "smiles": "OC(=O)C1=C(NN=C1C(F)(F)F)C(F)(F)F", 
	 "Tm": 529.15, 
	 "num_atms": 18, 
	 "gaussian": { 
		 "optdone": 1, 
		 "sigma_profile": "yes", 
		 "theory": "DFT", 
		 "functional": "B3LYP", 
		 "basiset": "6-31G**", 
		 "properties": { 
			 "R2extent": 3915.9323, 
			 "electric_dipole_moment_norm": 3.78527492661, 
			 "electric_quadrupole_moment_norm": 9.22276449499, 
			 "total_energy": -1088.82710192, 
			 "HOMO_LUMO_gap": 0.23323, 
			 "cosmo_polarized_energy": -14.77, 
			 "cosmo_cavitation_energy": 26.47, 
			 "cosmo_dispersion_energy": -18.56, 
			 "cosmo_repulsion_energy": 1.34, 
			 "cosmo_total_nonelectrostatic_energy": 9.25, 
			 "SMD_solvation_energy": 7.07 
		},
		"coords": [
			{
				"x": 0.7630360943,
				"y": 1.9626289511,
				"z": 2.3548429987,
				"element": "O" 
			},
			{
				"x": 0.3746557617,
				"y": 2.0543899844,
				"z": 1.0620064658,
				"element": "C" 
			},
			{
				"x": 0.6829396728,
				"y": 2.9755352741,
				"z": 0.338771098,
				"element": "O" 
			},
			{
				"x": -0.4563661254,
				"y": 0.9068779727,
				"z": 0.6529873079,
				"element": "C" 
			},
			{
				"x": -0.8642016676,
				"y": -0.1940780829,
				"z": 1.4003968763,
				"element": "C" 
			},
			{
				"x": -1.6089346715,
				"y": -0.9589053285,
				"z": 0.569489988,
				"element": "N" 
			},
			{
				"x": -1.7261405446,
				"y": -0.4527733034,
				"z": -0.6661395978,
				"element": "N" 
			},
			{
				"x": -1.0318196728,
				"y": 0.6786911881,
				"z": -0.6290414819,
				"element": "C" 
			},
			{
				"x": -0.942774814,
				"y": 1.5304424209,
				"z": -1.8707862269,
				"element": "C" 
			},
			{
				"x": -1.4579434578,
				"y": 2.7544475027,
				"z": -1.6567328826,
				"element": "F" 
			},
			{
				"x": 0.334261061,
				"y": 1.6770300238,
				"z": -2.2671012922,
				"element": "F" 
			},
			{
				"x": -1.6260366841,
				"y": 0.966470911,
				"z": -2.8814445362,
				"element": "F" 
			},
			{
				"x": -0.6428885584,
				"y": -0.6325585161,
				"z": 2.8211555477,
				"element": "C" 
			},
			{
				"x": -1.1336012724,
				"y": 0.2466826371,
				"z": 3.7043111711,
				"element": "F" 
			},
			{
				"x": 0.6535565357,
				"y": -0.8290849244,
				"z": 3.0939486006,
				"element": "F" 
			},
			{
				"x": -1.2872594831,
				"y": -1.8141907657,
				"z": 3.0170631459,
				"element": "F" 
			},
			{
				"x": 1.3008541814,
				"y": 2.7512808738,
				"z": 2.536168319,
				"element": "H" 
			},
			{
				"x": -2.0569363553,
				"y": -1.8342868187,
				"z": 0.8017044986,
				"element": "H" 
			}
		],
		 "valence_orbital": [ 
			{
				"type": "occ",
				"energy": -0.33747,
				"method": "rhf"
			},
			{
				"type": "occ",
				"energy": -0.33704,
				"method": "rhf"
			},
			{
				"type": "occ",
				"energy": -0.30922,
				"method": "rhf"
			},
			{
				"type": "occ",
				"energy": -0.29973,
				"method": "rhf"
			},
			{
				"type": "occ",
				"energy": -0.29631,
				"method": "rhf"
			},
			{
				"type": "unocc",
				"energy": -0.06308,
				"method": "rhf"
			},
			{
				"type": "unocc",
				"energy": -0.02854,
				"method": "rhf"
			},
			{
				"type": "unocc",
				"energy": 0.05378,
				"method": "rhf"
			},
			{
				"type": "unocc",
				"energy": 0.06583,
				"method": "rhf"
			},
			{
				"type": "unocc",
				"energy": 0.07044,
				"method": "rhf"
			}
		],
		"cosmo_sigma_profile": { 
			"-0.025": 0.0,
			"-0.024": 0.0,
			"-0.023": 0.0,
			"-0.022": 0.0,
			"-0.021": 0.0,
			"-0.02": 0.0083531043756,
			"-0.019": 1.15070659379,
			"-0.018": 2.62010433674,
			"-0.017": 1.48056053582,
			"-0.016": 1.33211065075,
			"-0.015": 1.96655071832,
			"-0.014": 1.87812750648,
			"-0.013": 1.48744503167,
			"-0.012": 1.86646830834,
			"-0.011": 1.8766730714,
			"-0.01": 1.72091025146,
			"-0.009": 2.39902483629,
			"-0.008": 2.47513670456,
			"-0.007": 2.30105301222,
			"-0.006": 3.06404904628,
			"-0.005": 3.680406429,
			"-0.004": 8.18597518035,
			"-0.003": 12.0185687171,
			"-0.002": 13.0872822416,
			"-0.001": 11.5068730972,
			"0.0": 12.7053656617,
			"0.001": 21.6442529248,
			"0.002": 43.6238672061,
			"0.003": 18.2059821437,
			"0.004": 8.30616698936,
			"0.005": 6.72546877233,
			"0.006": 5.70093633707,
			"0.007": 3.27301540067,
			"0.008": 3.11652503009,
			"0.009": 4.40962239022,
			"0.01": 4.20006730223,
			"0.011": 4.31530948142,
			"0.012": 0.905381386004,
			"0.013": 0.0604400196008,
			"0.014": 0.0,
			"0.015": 0.0,
			"0.016": 0.0,
			"0.017": 0.0,
			"0.018": 0.0,
			"0.019": 0.0,
			"0.02": 0.0,
			"0.021": 0.0,
			"0.022": 0.0,
			"0.023": 0.0,
			"0.024": 0.0,
			"0.025": 0.0
		}
	}
}
