{
	 "smiles": "CC(C)(C)OC(=O)N1C2CCC1C(C2)C(O)=O", 
	 "Tm": 418.15, 
	 "num_atms": 36, 
	 "gaussian": { 
		 "optdone": 1, 
		 "sigma_profile": "yes", 
		 "theory": "DFT", 
		 "functional": "B3LYP", 
		 "basiset": "6-31G**", 
		 "properties": { 
			 "R2extent": 5132.3701, 
			 "electric_dipole_moment_norm": 1.36220033035, 
			 "electric_quadrupole_moment_norm": 16.4075300725, 
			 "total_energy": -824.418245338, 
			 "HOMO_LUMO_gap": 0.24311, 
			 "cosmo_polarized_energy": -13.42, 
			 "cosmo_cavitation_energy": 36.6, 
			 "cosmo_dispersion_energy": -25.34, 
			 "cosmo_repulsion_energy": 1.98, 
			 "cosmo_total_nonelectrostatic_energy": 13.24, 
			 "SMD_solvation_energy": 6.41 
		},
		"coords": [
			{
				"x": -0.158320439,
				"y": 0.6701084285,
				"z": 3.9751865145,
				"element": "C" 
			},
			{
				"x": -1.1577752361,
				"y": -0.2480309314,
				"z": 3.2635724264,
				"element": "C" 
			},
			{
				"x": -0.9494110904,
				"y": -1.7231031399,
				"z": 3.6235965072,
				"element": "C" 
			},
			{
				"x": -2.5968544577,
				"y": 0.1842068161,
				"z": 3.5572051616,
				"element": "C" 
			},
			{
				"x": -1.061149567,
				"y": -0.0653497686,
				"z": 1.8064391191,
				"element": "O" 
			},
			{
				"x": 0.0919374321,
				"y": -0.3303967768,
				"z": 1.1466176058,
				"element": "C" 
			},
			{
				"x": 1.1207879269,
				"y": -0.7642949157,
				"z": 1.6416483707,
				"element": "O" 
			},
			{
				"x": -0.0275298866,
				"y": 0.0137324323,
				"z": -0.1816699658,
				"element": "N" 
			},
			{
				"x": 0.8567220032,
				"y": -0.5900516889,
				"z": -1.2010025086,
				"element": "C" 
			},
			{
				"x": 0.1253803299,
				"y": -1.9184723716,
				"z": -1.5257798702,
				"element": "C" 
			},
			{
				"x": -1.3764514504,
				"y": -1.5144598762,
				"z": -1.3758287013,
				"element": "C" 
			},
			{
				"x": -1.2823700675,
				"y": -0.020605717,
				"z": -0.9643449776,
				"element": "C" 
			},
			{
				"x": -0.8311713679,
				"y": 0.8512089933,
				"z": -2.1619746314,
				"element": "C" 
			},
			{
				"x": 0.6563240403,
				"y": 0.396647311,
				"z": -2.37310285,
				"element": "C" 
			},
			{
				"x": -1.7329906105,
				"y": 0.8032821825,
				"z": -3.3728031924,
				"element": "C" 
			},
			{
				"x": -1.1327707155,
				"y": 1.3306836984,
				"z": -4.4685511916,
				"element": "O" 
			},
			{
				"x": -2.875485513,
				"y": 0.3961337937,
				"z": -3.395815808,
				"element": "O" 
			},
			{
				"x": -0.3155108083,
				"y": 0.6153632606,
				"z": 5.057401229,
				"element": "H" 
			},
			{
				"x": -0.307916366,
				"y": 1.7084228647,
				"z": 3.6625123418,
				"element": "H" 
			},
			{
				"x": 0.8679104497,
				"y": 0.3774529837,
				"z": 3.7521956585,
				"element": "H" 
			},
			{
				"x": -1.1364268173,
				"y": -1.8706100254,
				"z": 4.6922976924,
				"element": "H" 
			},
			{
				"x": 0.0683277887,
				"y": -2.0404279301,
				"z": 3.3959727921,
				"element": "H" 
			},
			{
				"x": -1.6516100903,
				"y": -2.3524776036,
				"z": 3.0672663147,
				"element": "H" 
			},
			{
				"x": -2.755908877,
				"y": 1.2248750756,
				"z": 3.2600285925,
				"element": "H" 
			},
			{
				"x": -3.3078774079,
				"y": -0.4427284734,
				"z": 3.0111053338,
				"element": "H" 
			},
			{
				"x": -2.8058986065,
				"y": 0.0933421705,
				"z": 4.6272789389,
				"element": "H" 
			},
			{
				"x": 1.8798066167,
				"y": -0.6960092768,
				"z": -0.8454487846,
				"element": "H" 
			},
			{
				"x": 0.4068498285,
				"y": -2.687931331,
				"z": -0.8015226957,
				"element": "H" 
			},
			{
				"x": 0.3719332977,
				"y": -2.2929520049,
				"z": -2.5239565332,
				"element": "H" 
			},
			{
				"x": -1.9655704139,
				"y": -1.6556387115,
				"z": -2.2829762027,
				"element": "H" 
			},
			{
				"x": -1.8617233207,
				"y": -2.0807733542,
				"z": -0.5758431749,
				"element": "H" 
			},
			{
				"x": -2.1388088714,
				"y": 0.3664532825,
				"z": -0.4186673122,
				"element": "H" 
			},
			{
				"x": -0.8315503222,
				"y": 1.8999736547,
				"z": -1.8403665269,
				"element": "H" 
			},
			{
				"x": 0.8165345927,
				"y": -0.0813533116,
				"z": -3.3422263113,
				"element": "H" 
			},
			{
				"x": 1.3367610863,
				"y": 1.2479070837,
				"z": -2.3022823669,
				"element": "H" 
			},
			{
				"x": -1.7951930899,
				"y": 1.2976731771,
				"z": -5.1795609935,
				"element": "H" 
			}
		],
		 "valence_orbital": [ 
			{
				"type": "occ",
				"energy": -0.30867,
				"method": "rhf"
			},
			{
				"type": "occ",
				"energy": -0.28575,
				"method": "rhf"
			},
			{
				"type": "occ",
				"energy": -0.27779,
				"method": "rhf"
			},
			{
				"type": "occ",
				"energy": -0.26177,
				"method": "rhf"
			},
			{
				"type": "occ",
				"energy": -0.24236,
				"method": "rhf"
			},
			{
				"type": "unocc",
				"energy": 0.00075,
				"method": "rhf"
			},
			{
				"type": "unocc",
				"energy": 0.04742,
				"method": "rhf"
			},
			{
				"type": "unocc",
				"energy": 0.07179,
				"method": "rhf"
			},
			{
				"type": "unocc",
				"energy": 0.07565,
				"method": "rhf"
			},
			{
				"type": "unocc",
				"energy": 0.09522,
				"method": "rhf"
			}
		],
		"cosmo_sigma_profile": { 
			"-0.025": 0.0,
			"-0.024": 0.0,
			"-0.023": 0.0,
			"-0.022": 0.0,
			"-0.021": 0.0,
			"-0.02": 0.0,
			"-0.019": 0.0415375719728,
			"-0.018": 0.639269881735,
			"-0.017": 0.915155642579,
			"-0.016": 0.992583858893,
			"-0.015": 1.02519578392,
			"-0.014": 0.306246840823,
			"-0.013": 0.331602846906,
			"-0.012": 0.805602452735,
			"-0.011": 1.1661209218,
			"-0.01": 0.840363058005,
			"-0.009": 0.633675588336,
			"-0.008": 0.423621645931,
			"-0.007": 2.6830290757,
			"-0.006": 4.53794489948,
			"-0.005": 10.1104267857,
			"-0.004": 25.8592301222,
			"-0.003": 34.4168499204,
			"-0.002": 31.3333286917,
			"-0.001": 31.0750979412,
			"0.0": 36.0766301006,
			"0.001": 25.344349649,
			"0.002": 11.0175075129,
			"0.003": 7.10549085409,
			"0.004": 8.64402348772,
			"0.005": 9.52654501016,
			"0.006": 6.80682599138,
			"0.007": 4.86131141091,
			"0.008": 4.56663743384,
			"0.009": 4.26293468918,
			"0.01": 3.36295091561,
			"0.011": 4.75558797987,
			"0.012": 5.92582707997,
			"0.013": 3.03258546132,
			"0.014": 0.824717331415,
			"0.015": 0.0,
			"0.016": 0.0,
			"0.017": 0.0,
			"0.018": 0.0,
			"0.019": 0.0,
			"0.02": 0.0,
			"0.021": 0.0,
			"0.022": 0.0,
			"0.023": 0.0,
			"0.024": 0.0,
			"0.025": 0.0
		}
	}
}
