{
	 "smiles": "FC(F)(F)C1=CC2=C(N=CN2)C(Br)=C1", 
	 "Tm": 492.15, 
	 "num_atms": 18, 
	 "gaussian": { 
		 "optdone": 1, 
		 "sigma_profile": "yes", 
		 "theory": "DFT", 
		 "functional": "B3LYP", 
		 "basiset": "6-31G**", 
		 "properties": { 
			 "R2extent": 5335.5241, 
			 "electric_dipole_moment_norm": 5.02747592038, 
			 "electric_quadrupole_moment_norm": 15.6900037811, 
			 "total_energy": -3287.70235793, 
			 "HOMO_LUMO_gap": 0.19424, 
			 "cosmo_polarized_energy": -14.84, 
			 "cosmo_cavitation_energy": 26.59, 
			 "cosmo_dispersion_energy": -19.7, 
			 "cosmo_repulsion_energy": 1.48, 
			 "cosmo_total_nonelectrostatic_energy": 8.37, 
			 "SMD_solvation_energy": 2.99 
		},
		"coords": [
			{
				"x": -1.1979345001,
				"y": 3.204692983,
				"z": -0.0049633184,
				"element": "F" 
			},
			{
				"x": -0.9983174564,
				"y": 2.4776834698,
				"z": -1.1287383906,
				"element": "C" 
			},
			{
				"x": -2.1979839465,
				"y": 1.9678715566,
				"z": -1.4878495408,
				"element": "F" 
			},
			{
				"x": -0.6221913567,
				"y": 3.3482124875,
				"z": -2.091449231,
				"element": "F" 
			},
			{
				"x": 0.0320247004,
				"y": 1.4011565443,
				"z": -0.9174521582,
				"element": "C" 
			},
			{
				"x": -0.3721367196,
				"y": 0.0823391365,
				"z": -0.7319325005,
				"element": "C" 
			},
			{
				"x": 0.640181822,
				"y": -0.8458061657,
				"z": -0.4934075884,
				"element": "C" 
			},
			{
				"x": 2.0144984169,
				"y": -0.5015515284,
				"z": -0.4358301895,
				"element": "C" 
			},
			{
				"x": 2.7884811332,
				"y": -1.6195976898,
				"z": -0.1892031568,
				"element": "N" 
			},
			{
				"x": 1.9291923622,
				"y": -2.6026302025,
				"z": -0.0997839975,
				"element": "C" 
			},
			{
				"x": 0.6222921718,
				"y": -2.2108996503,
				"z": -0.2733177636,
				"element": "N" 
			},
			{
				"x": 2.3790079427,
				"y": 0.8395969919,
				"z": -0.6290349976,
				"element": "C" 
			},
			{
				"x": 4.2043286214,
				"y": 1.3529741794,
				"z": -0.5697362664,
				"element": "Br" 
			},
			{
				"x": 1.3899501207,
				"y": 1.781212257,
				"z": -0.8680493375,
				"element": "C" 
			},
			{
				"x": -1.4190684154,
				"y": -0.1926020158,
				"z": -0.7785978093,
				"element": "H" 
			},
			{
				"x": 2.186229861,
				"y": -3.6365334822,
				"z": 0.0913793189,
				"element": "H" 
			},
			{
				"x": -0.1915189633,
				"y": -2.8056042903,
				"z": -0.2400135159,
				"element": "H" 
			},
			{
				"x": 1.6609642059,
				"y": 2.8177854188,
				"z": -1.0270195569,
				"element": "H" 
			}
		],
		 "valence_orbital": [ 
			{
				"type": "occ",
				"energy": -0.29744,
				"method": "rhf"
			},
			{
				"type": "occ",
				"energy": -0.29395,
				"method": "rhf"
			},
			{
				"type": "occ",
				"energy": -0.28294,
				"method": "rhf"
			},
			{
				"type": "occ",
				"energy": -0.25562,
				"method": "rhf"
			},
			{
				"type": "occ",
				"energy": -0.23888,
				"method": "rhf"
			},
			{
				"type": "unocc",
				"energy": -0.04464,
				"method": "rhf"
			},
			{
				"type": "unocc",
				"energy": -0.0118,
				"method": "rhf"
			},
			{
				"type": "unocc",
				"energy": 0.00961,
				"method": "rhf"
			},
			{
				"type": "unocc",
				"energy": 0.03053,
				"method": "rhf"
			},
			{
				"type": "unocc",
				"energy": 0.05782,
				"method": "rhf"
			}
		],
		"cosmo_sigma_profile": { 
			"-0.025": 0.0,
			"-0.024": 0.0,
			"-0.023": 0.0,
			"-0.022": 0.0,
			"-0.021": 0.0,
			"-0.02": 0.0,
			"-0.019": 0.0,
			"-0.018": 0.406582457166,
			"-0.017": 2.03692165261,
			"-0.016": 1.76297865806,
			"-0.015": 1.56647573092,
			"-0.014": 1.16096227733,
			"-0.013": 1.1904418895,
			"-0.012": 1.87301078836,
			"-0.011": 2.15283551053,
			"-0.01": 3.52445909947,
			"-0.009": 3.17671907773,
			"-0.008": 4.32220332755,
			"-0.007": 4.4995637054,
			"-0.006": 4.54613772181,
			"-0.005": 4.9600125416,
			"-0.004": 6.41283523454,
			"-0.003": 7.5704633607,
			"-0.002": 9.20792278873,
			"-0.001": 12.9114758463,
			"0.0": 17.0236306419,
			"0.001": 26.3051821818,
			"0.002": 33.6136874038,
			"0.003": 34.5068181788,
			"0.004": 13.0180553748,
			"0.005": 4.46545519866,
			"0.006": 2.21927939111,
			"0.007": 1.9840910854,
			"0.008": 2.12645481309,
			"0.009": 1.58047371502,
			"0.01": 0.836855453333,
			"0.011": 1.76953722721,
			"0.012": 1.42886393552,
			"0.013": 0.92899884791,
			"0.014": 1.2370441668,
			"0.015": 0.949668477035,
			"0.016": 0.763445666033,
			"0.017": 0.0435066104163,
			"0.018": 0.0,
			"0.019": 0.0,
			"0.02": 0.0,
			"0.021": 0.0,
			"0.022": 0.0,
			"0.023": 0.0,
			"0.024": 0.0,
			"0.025": 0.0
		}
	}
}
