{
	 "smiles": "NNC(=O)C1=CC=CC=C1Cl", 
	 "Tm": 391.15, 
	 "num_atms": 18, 
	 "gaussian": { 
		 "optdone": 1, 
		 "sigma_profile": "yes", 
		 "theory": "DFT", 
		 "functional": "B3LYP", 
		 "basiset": "6-31G**", 
		 "properties": { 
			 "R2extent": 2760.123, 
			 "electric_dipole_moment_norm": 2.31141091544, 
			 "electric_quadrupole_moment_norm": 7.1366313622, 
			 "total_energy": -915.861652783, 
			 "HOMO_LUMO_gap": 0.21195, 
			 "cosmo_polarized_energy": -10.54, 
			 "cosmo_cavitation_energy": 23.91, 
			 "cosmo_dispersion_energy": -17.96, 
			 "cosmo_repulsion_energy": 1.44, 
			 "cosmo_total_nonelectrostatic_energy": 7.4, 
			 "SMD_solvation_energy": 4.86 
		},
		"coords": [
			{
				"x": -2.7688102144,
				"y": -2.0333845496,
				"z": -2.1397367718,
				"element": "N" 
			},
			{
				"x": -2.2287652915,
				"y": -0.8971208926,
				"z": -1.5078267322,
				"element": "N" 
			},
			{
				"x": -0.8985823848,
				"y": -0.6159080335,
				"z": -1.5758670307,
				"element": "C" 
			},
			{
				"x": -0.120598665,
				"y": -1.3760656951,
				"z": -2.1495569773,
				"element": "O" 
			},
			{
				"x": -0.3773655409,
				"y": 0.6165773235,
				"z": -0.8640597737,
				"element": "C" 
			},
			{
				"x": 0.9847195825,
				"y": 0.5426847225,
				"z": -0.5206270498,
				"element": "C" 
			},
			{
				"x": 1.638075858,
				"y": 1.5757640626,
				"z": 0.140056824,
				"element": "C" 
			},
			{
				"x": 0.9372990151,
				"y": 2.7371603547,
				"z": 0.4676578304,
				"element": "C" 
			},
			{
				"x": -0.4075775002,
				"y": 2.8525910359,
				"z": 0.1260015794,
				"element": "C" 
			},
			{
				"x": -1.0537995926,
				"y": 1.8023495187,
				"z": -0.5293899686,
				"element": "C" 
			},
			{
				"x": -2.7511885401,
				"y": 2.0931943844,
				"z": -0.9416400424,
				"element": "Cl" 
			},
			{
				"x": -2.279966417,
				"y": -2.8458569496,
				"z": -1.7630215203,
				"element": "H" 
			},
			{
				"x": -2.4918161458,
				"y": -1.995718424,
				"z": -3.1214517853,
				"element": "H" 
			},
			{
				"x": -2.8977120124,
				"y": -0.2756196601,
				"z": -1.0824207515,
				"element": "H" 
			},
			{
				"x": 1.5093430461,
				"y": -0.3621760925,
				"z": -0.8059578343,
				"element": "H" 
			},
			{
				"x": 2.6888330774,
				"y": 1.4773701483,
				"z": 0.3939114334,
				"element": "H" 
			},
			{
				"x": 1.4314174002,
				"y": 3.5566731433,
				"z": 0.9807565336,
				"element": "H" 
			},
			{
				"x": -0.9637056745,
				"y": 3.7539856031,
				"z": 0.3575720372,
				"element": "H" 
			}
		],
		 "valence_orbital": [ 
			{
				"type": "occ",
				"energy": -0.27876,
				"method": "rhf"
			},
			{
				"type": "occ",
				"energy": -0.27212,
				"method": "rhf"
			},
			{
				"type": "occ",
				"energy": -0.26255,
				"method": "rhf"
			},
			{
				"type": "occ",
				"energy": -0.25913,
				"method": "rhf"
			},
			{
				"type": "occ",
				"energy": -0.2586,
				"method": "rhf"
			},
			{
				"type": "unocc",
				"energy": -0.04665,
				"method": "rhf"
			},
			{
				"type": "unocc",
				"energy": -0.02179,
				"method": "rhf"
			},
			{
				"type": "unocc",
				"energy": 0.01266,
				"method": "rhf"
			},
			{
				"type": "unocc",
				"energy": 0.0509,
				"method": "rhf"
			},
			{
				"type": "unocc",
				"energy": 0.08923,
				"method": "rhf"
			}
		],
		"cosmo_sigma_profile": { 
			"-0.025": 0.0,
			"-0.024": 0.0,
			"-0.023": 0.0,
			"-0.022": 0.0,
			"-0.021": 0.0,
			"-0.02": 0.0,
			"-0.019": 0.0,
			"-0.018": 0.0,
			"-0.017": 0.0,
			"-0.016": 0.0,
			"-0.015": 0.0,
			"-0.014": 0.0,
			"-0.013": 0.0,
			"-0.012": 0.296011990265,
			"-0.011": 2.63230719967,
			"-0.01": 2.95984499,
			"-0.009": 3.65790592026,
			"-0.008": 3.62971323854,
			"-0.007": 7.63761385332,
			"-0.006": 11.5662539462,
			"-0.005": 10.7083251146,
			"-0.004": 9.13589659489,
			"-0.003": 10.4951751596,
			"-0.002": 12.6501413317,
			"-0.001": 13.370803072,
			"0.0": 16.7620669621,
			"0.001": 17.3073036502,
			"0.002": 17.3634897103,
			"0.003": 19.256176315,
			"0.004": 7.93963218358,
			"0.005": 2.5352974236,
			"0.006": 2.10861015821,
			"0.007": 2.02674766552,
			"0.008": 1.74263977525,
			"0.009": 1.9078741123,
			"0.01": 2.07246668731,
			"0.011": 1.93464409653,
			"0.012": 2.94527962717,
			"0.013": 5.1337014479,
			"0.014": 2.01589610345,
			"0.015": 0.647734506011,
			"0.016": 0.594551984358,
			"0.017": 0.0938789401833,
			"0.018": 0.0,
			"0.019": 0.0,
			"0.02": 0.0,
			"0.021": 0.0,
			"0.022": 0.0,
			"0.023": 0.0,
			"0.024": 0.0,
			"0.025": 0.0
		}
	}
}
