{
	 "smiles": "BrCC1=CC(CBr)=CC=C1", 
	 "Tm": 349.15, 
	 "num_atms": 18, 
	 "gaussian": { 
		 "optdone": 1, 
		 "sigma_profile": "yes", 
		 "theory": "DFT", 
		 "functional": "B3LYP", 
		 "basiset": "6-31G**", 
		 "properties": { 
			 "R2extent": 5306.2377, 
			 "electric_dipole_moment_norm": 1.31153327445, 
			 "electric_quadrupole_moment_norm": 16.8136607055, 
			 "total_energy": -5452.49362827, 
			 "HOMO_LUMO_gap": 0.20444, 
			 "cosmo_polarized_energy": -8.84, 
			 "cosmo_cavitation_energy": 26.67, 
			 "cosmo_dispersion_energy": -19.74, 
			 "cosmo_repulsion_energy": 1.63, 
			 "cosmo_total_nonelectrostatic_energy": 8.56, 
			 "SMD_solvation_energy": 1.98 
		},
		"coords": [
			{
				"x": -3.6737987986,
				"y": 1.9430658815,
				"z": -0.845619968,
				"element": "Br" 
			},
			{
				"x": -1.9584084103,
				"y": 1.3039704389,
				"z": -1.6689008127,
				"element": "C" 
			},
			{
				"x": -1.063628972,
				"y": 0.6451030118,
				"z": -0.6697760064,
				"element": "C" 
			},
			{
				"x": -0.1203000787,
				"y": 1.3963225582,
				"z": 0.0399991447,
				"element": "C" 
			},
			{
				"x": 0.7329954599,
				"y": 0.7938949136,
				"z": 0.9710508064,
				"element": "C" 
			},
			{
				"x": 1.7258842818,
				"y": 1.6144688308,
				"z": 1.7285603971,
				"element": "C" 
			},
			{
				"x": 3.4935760478,
				"y": 1.7282103903,
				"z": 0.7846936726,
				"element": "Br" 
			},
			{
				"x": 0.634642897,
				"y": -0.5874147471,
				"z": 1.1881386871,
				"element": "C" 
			},
			{
				"x": -0.3025297748,
				"y": -1.3457700603,
				"z": 0.4881475372,
				"element": "C" 
			},
			{
				"x": -1.1487434965,
				"y": -0.7342732994,
				"z": -0.4356753894,
				"element": "C" 
			},
			{
				"x": -1.5192198445,
				"y": 2.2010052573,
				"z": -2.1012704584,
				"element": "H" 
			},
			{
				"x": -2.2776744279,
				"y": 0.6267297479,
				"z": -2.4588086578,
				"element": "H" 
			},
			{
				"x": -0.0491737757,
				"y": 2.4673051803,
				"z": -0.1350086469,
				"element": "H" 
			},
			{
				"x": 1.4163864951,
				"y": 2.6516711301,
				"z": 1.8422318079,
				"element": "H" 
			},
			{
				"x": 1.9693023895,
				"y": 1.1890067938,
				"z": 2.7002949712,
				"element": "H" 
			},
			{
				"x": 1.2973739678,
				"y": -1.0665920342,
				"z": 1.903675007,
				"element": "H" 
			},
			{
				"x": -0.3735645721,
				"y": -2.4150688004,
				"z": 0.6628819816,
				"element": "H" 
			},
			{
				"x": -1.882619388,
				"y": -1.3259351932,
				"z": -0.9762140729,
				"element": "H" 
			}
		],
		 "valence_orbital": [ 
			{
				"type": "occ",
				"energy": -0.27734,
				"method": "rhf"
			},
			{
				"type": "occ",
				"energy": -0.27377,
				"method": "rhf"
			},
			{
				"type": "occ",
				"energy": -0.27365,
				"method": "rhf"
			},
			{
				"type": "occ",
				"energy": -0.26025,
				"method": "rhf"
			},
			{
				"type": "occ",
				"energy": -0.25422,
				"method": "rhf"
			},
			{
				"type": "unocc",
				"energy": -0.04978,
				"method": "rhf"
			},
			{
				"type": "unocc",
				"energy": -0.03764,
				"method": "rhf"
			},
			{
				"type": "unocc",
				"energy": 0.00971,
				"method": "rhf"
			},
			{
				"type": "unocc",
				"energy": 0.03254,
				"method": "rhf"
			},
			{
				"type": "unocc",
				"energy": 0.08023,
				"method": "rhf"
			}
		],
		"cosmo_sigma_profile": { 
			"-0.025": 0.0,
			"-0.024": 0.0,
			"-0.023": 0.0,
			"-0.022": 0.0,
			"-0.021": 0.0,
			"-0.02": 0.0,
			"-0.019": 0.0,
			"-0.018": 0.0,
			"-0.017": 0.0,
			"-0.016": 0.0,
			"-0.015": 0.0,
			"-0.014": 0.0,
			"-0.013": 0.0,
			"-0.012": 0.0,
			"-0.011": 0.0,
			"-0.01": 0.0,
			"-0.009": 0.0,
			"-0.008": 5.85626075345,
			"-0.007": 16.5073986646,
			"-0.006": 15.8498425886,
			"-0.005": 14.4471045225,
			"-0.004": 15.0724635617,
			"-0.003": 9.66209875302,
			"-0.002": 10.8337946423,
			"-0.001": 11.0863286207,
			"0.0": 10.3301236771,
			"0.001": 11.8553226909,
			"0.002": 12.3759334685,
			"0.003": 16.0421198218,
			"0.004": 22.1584212684,
			"0.005": 14.8737485231,
			"0.006": 23.2347749184,
			"0.007": 8.82883033996,
			"0.008": 0.0,
			"0.009": 0.0,
			"0.01": 0.0,
			"0.011": 0.0,
			"0.012": 0.0,
			"0.013": 0.0,
			"0.014": 0.0,
			"0.015": 0.0,
			"0.016": 0.0,
			"0.017": 0.0,
			"0.018": 0.0,
			"0.019": 0.0,
			"0.02": 0.0,
			"0.021": 0.0,
			"0.022": 0.0,
			"0.023": 0.0,
			"0.024": 0.0,
			"0.025": 0.0
		}
	}
}
