{
	 "smiles": "OC(=O)C1=CC=C(CNC(=O)C2CCCC2)C=C1", 
	 "Tm": 502.15, 
	 "num_atms": 35, 
	 "gaussian": { 
		 "optdone": 1, 
		 "sigma_profile": "yes", 
		 "theory": "DFT", 
		 "functional": "B3LYP", 
		 "basiset": "6-31G**", 
		 "properties": { 
			 "R2extent": 8334.6396, 
			 "electric_dipole_moment_norm": 5.82901625148, 
			 "electric_quadrupole_moment_norm": 37.6748090757, 
			 "total_energy": -824.193637543, 
			 "HOMO_LUMO_gap": 0.19814, 
			 "cosmo_polarized_energy": -21.65, 
			 "cosmo_cavitation_energy": 37.82, 
			 "cosmo_dispersion_energy": -26.78, 
			 "cosmo_repulsion_energy": 2.1, 
			 "cosmo_total_nonelectrostatic_energy": 13.14, 
			 "SMD_solvation_energy": 6.93 
		},
		"coords": [
			{
				"x": 6.7877542263,
				"y": 0.1487715063,
				"z": -1.5458264005,
				"element": "O" 
			},
			{
				"x": 6.2103909314,
				"y": 1.3313428846,
				"z": -1.2003925303,
				"element": "C" 
			},
			{
				"x": 6.7795938023,
				"y": 2.3707544002,
				"z": -1.4396809256,
				"element": "O" 
			},
			{
				"x": 4.8695284624,
				"y": 1.2608315842,
				"z": -0.5338956088,
				"element": "C" 
			},
			{
				"x": 4.0918290183,
				"y": 2.4248414373,
				"z": -0.5172561674,
				"element": "C" 
			},
			{
				"x": 2.8370488484,
				"y": 2.4217576266,
				"z": 0.0866725256,
				"element": "C" 
			},
			{
				"x": 2.3380685265,
				"y": 1.2659648479,
				"z": 0.6997486593,
				"element": "C" 
			},
			{
				"x": 0.9669640077,
				"y": 1.2529023533,
				"z": 1.3518641913,
				"element": "C" 
			},
			{
				"x": -0.0191160633,
				"y": 0.4537096813,
				"z": 0.6304136594,
				"element": "N" 
			},
			{
				"x": -0.2454293399,
				"y": -0.8664217729,
				"z": 0.9313009721,
				"element": "C" 
			},
			{
				"x": 0.3367559467,
				"y": -1.428899495,
				"z": 1.8544970936,
				"element": "O" 
			},
			{
				"x": -1.2836039806,
				"y": -1.5785905742,
				"z": 0.0663105025,
				"element": "C" 
			},
			{
				"x": -1.0070348614,
				"y": -1.5235276461,
				"z": -1.4770748724,
				"element": "C" 
			},
			{
				"x": -2.2628481723,
				"y": -0.8884512546,
				"z": -2.1163439282,
				"element": "C" 
			},
			{
				"x": -3.3918558077,
				"y": -1.2271635825,
				"z": -1.1310399012,
				"element": "C" 
			},
			{
				"x": -2.728731529,
				"y": -1.0212108055,
				"z": 0.2401866383,
				"element": "C" 
			},
			{
				"x": 3.1284511244,
				"y": 0.1065741181,
				"z": 0.7049969575,
				"element": "C" 
			},
			{
				"x": 4.3791258108,
				"y": 0.1047897054,
				"z": 0.0940562012,
				"element": "C" 
			},
			{
				"x": 6.1580040568,
				"y": -0.5762881765,
				"z": -1.4326788686,
				"element": "H" 
			},
			{
				"x": 4.4906290765,
				"y": 3.3189885263,
				"z": -0.9841865638,
				"element": "H" 
			},
			{
				"x": 2.2401828933,
				"y": 3.3307688684,
				"z": 0.0879168282,
				"element": "H" 
			},
			{
				"x": 0.5867353201,
				"y": 2.2752452715,
				"z": 1.4455223007,
				"element": "H" 
			},
			{
				"x": 1.0336972201,
				"y": 0.8200073676,
				"z": 2.3531531844,
				"element": "H" 
			},
			{
				"x": -0.4240201002,
				"y": 0.8417588188,
				"z": -0.2086304662,
				"element": "H" 
			},
			{
				"x": -1.2506970641,
				"y": -2.615365599,
				"z": 0.4073048516,
				"element": "H" 
			},
			{
				"x": -0.0895514155,
				"y": -0.978679665,
				"z": -1.7208608395,
				"element": "H" 
			},
			{
				"x": -0.8681553224,
				"y": -2.5425933695,
				"z": -1.8510468801,
				"element": "H" 
			},
			{
				"x": -2.4466362513,
				"y": -1.2499804763,
				"z": -3.1326297283,
				"element": "H" 
			},
			{
				"x": -2.1509966972,
				"y": 0.2025345273,
				"z": -2.1823257307,
				"element": "H" 
			},
			{
				"x": -3.6913771923,
				"y": -2.2761655602,
				"z": -1.2512230364,
				"element": "H" 
			},
			{
				"x": -4.2874471516,
				"y": -0.6130121062,
				"z": -1.2689016492,
				"element": "H" 
			},
			{
				"x": -3.2584688333,
				"y": -1.5104940366,
				"z": 1.0622967369,
				"element": "H" 
			},
			{
				"x": -2.693689222,
				"y": 0.0498707352,
				"z": 0.4739724514,
				"element": "H" 
			},
			{
				"x": 2.75458704,
				"y": -0.7846795808,
				"z": 1.1999705246,
				"element": "H" 
			},
			{
				"x": 4.9848126919,
				"y": -0.7969905595,
				"z": 0.1538098183,
				"element": "H" 
			}
		],
		 "valence_orbital": [ 
			{
				"type": "occ",
				"energy": -0.27561,
				"method": "rhf"
			},
			{
				"type": "occ",
				"energy": -0.27123,
				"method": "rhf"
			},
			{
				"type": "occ",
				"energy": -0.26727,
				"method": "rhf"
			},
			{
				"type": "occ",
				"energy": -0.25359,
				"method": "rhf"
			},
			{
				"type": "occ",
				"energy": -0.24949,
				"method": "rhf"
			},
			{
				"type": "unocc",
				"energy": -0.05135,
				"method": "rhf"
			},
			{
				"type": "unocc",
				"energy": -0.02112,
				"method": "rhf"
			},
			{
				"type": "unocc",
				"energy": 0.01757,
				"method": "rhf"
			},
			{
				"type": "unocc",
				"energy": 0.04493,
				"method": "rhf"
			},
			{
				"type": "unocc",
				"energy": 0.05422,
				"method": "rhf"
			}
		],
		"cosmo_sigma_profile": { 
			"-0.025": 0.0,
			"-0.024": 0.0,
			"-0.023": 0.0,
			"-0.022": 0.0,
			"-0.021": 0.0,
			"-0.02": 0.0,
			"-0.019": 0.292744296683,
			"-0.018": 0.652116691078,
			"-0.017": 0.921316363597,
			"-0.016": 1.14985500556,
			"-0.015": 0.836328125681,
			"-0.014": 0.522726423635,
			"-0.013": 1.35385571531,
			"-0.012": 2.79296669445,
			"-0.011": 2.76132228397,
			"-0.01": 2.64312302731,
			"-0.009": 3.51631049376,
			"-0.008": 3.23397507458,
			"-0.007": 5.71027397284,
			"-0.006": 9.67466118136,
			"-0.005": 11.8700773245,
			"-0.004": 14.233688555,
			"-0.003": 26.7896842156,
			"-0.002": 31.8816410708,
			"-0.001": 33.2112057936,
			"0.0": 30.0067214669,
			"0.001": 24.6663354554,
			"0.002": 14.060943124,
			"0.003": 17.1770100577,
			"0.004": 8.61997722185,
			"0.005": 3.94747203164,
			"0.006": 4.14383852018,
			"0.007": 3.65109837554,
			"0.008": 4.45583764785,
			"0.009": 4.54534039365,
			"0.01": 4.93893117624,
			"0.011": 6.78996018149,
			"0.012": 6.96616457623,
			"0.013": 4.01923051714,
			"0.014": 3.74330686146,
			"0.015": 1.74037017019,
			"0.016": 0.136600162367,
			"0.017": 0.0,
			"0.018": 0.0,
			"0.019": 0.0,
			"0.02": 0.0,
			"0.021": 0.0,
			"0.022": 0.0,
			"0.023": 0.0,
			"0.024": 0.0,
			"0.025": 0.0
		}
	}
}
