{
	 "smiles": "OC1=CC2=C(CCCC2)C=C1", 
	 "Tm": 332.65, 
	 "num_atms": 23, 
	 "gaussian": { 
		 "optdone": 1, 
		 "sigma_profile": "yes", 
		 "theory": "DFT", 
		 "functional": "B3LYP", 
		 "basiset": "6-31G**", 
		 "properties": { 
			 "R2extent": 2105.1397, 
			 "electric_dipole_moment_norm": 1.09911752329, 
			 "electric_quadrupole_moment_norm": 8.48161369788, 
			 "total_energy": -463.53113011, 
			 "HOMO_LUMO_gap": 0.21343, 
			 "cosmo_polarized_energy": -7.47, 
			 "cosmo_cavitation_energy": 24.62, 
			 "cosmo_dispersion_energy": -18.67, 
			 "cosmo_repulsion_energy": 1.5, 
			 "cosmo_total_nonelectrostatic_energy": 7.46, 
			 "SMD_solvation_energy": 3.69 
		},
		"coords": [
			{
				"x": -1.5825353895,
				"y": -1.6242936345,
				"z": -3.5819400866,
				"element": "O" 
			},
			{
				"x": -1.0127833579,
				"y": -1.1446165891,
				"z": -2.4328016054,
				"element": "C" 
			},
			{
				"x": -1.8615771395,
				"y": -0.5377059994,
				"z": -1.5000121856,
				"element": "C" 
			},
			{
				"x": -1.3433225458,
				"y": -0.0259587031,
				"z": -0.3121900192,
				"element": "C" 
			},
			{
				"x": 0.0358227094,
				"y": -0.1229994681,
				"z": -0.0383775155,
				"element": "C" 
			},
			{
				"x": 0.5167230364,
				"y": 0.4450473693,
				"z": 1.2745147243,
				"element": "C" 
			},
			{
				"x": -0.3690871105,
				"y": -0.0354991285,
				"z": 2.4478307864,
				"element": "C" 
			},
			{
				"x": -1.8932052205,
				"y": 0.0758503493,
				"z": 2.1474205996,
				"element": "C" 
			},
			{
				"x": -2.1978632076,
				"y": 0.639372568,
				"z": 0.7394051905,
				"element": "C" 
			},
			{
				"x": 0.86825554,
				"y": -0.738392864,
				"z": -0.9728930536,
				"element": "C" 
			},
			{
				"x": 0.3559380593,
				"y": -1.2461870247,
				"z": -2.1691157666,
				"element": "C" 
			},
			{
				"x": -0.8924517969,
				"y": -2.0156264232,
				"z": -4.1327082518,
				"element": "H" 
			},
			{
				"x": -2.9230626415,
				"y": -0.4759907786,
				"z": -1.7216459002,
				"element": "H" 
			},
			{
				"x": 1.5632024027,
				"y": 0.1767460228,
				"z": 1.4559414341,
				"element": "H" 
			},
			{
				"x": 0.4845697516,
				"y": 1.5442685632,
				"z": 1.23327608,
				"element": "H" 
			},
			{
				"x": -0.118158152,
				"y": -1.0799534012,
				"z": 2.6615103042,
				"element": "H" 
			},
			{
				"x": -0.1136082715,
				"y": 0.5341761838,
				"z": 3.34804498,
				"element": "H" 
			},
			{
				"x": -2.386774352,
				"y": 0.7041526819,
				"z": 2.89678884,
				"element": "H" 
			},
			{
				"x": -2.3517124154,
				"y": -0.9155936523,
				"z": 2.2262638269,
				"element": "H" 
			},
			{
				"x": -1.9921832896,
				"y": 1.7200605295,
				"z": 0.7372516171,
				"element": "H" 
			},
			{
				"x": -3.2622902665,
				"y": 0.5281040387,
				"z": 0.507834545,
				"element": "H" 
			},
			{
				"x": 1.9331907839,
				"y": -0.8260024765,
				"z": -0.7702155643,
				"element": "H" 
			},
			{
				"x": 1.0166128734,
				"y": -1.7238581636,
				"z": -2.8900829793,
				"element": "H" 
			}
		],
		 "valence_orbital": [ 
			{
				"type": "occ",
				"energy": -0.31297,
				"method": "rhf"
			},
			{
				"type": "occ",
				"energy": -0.30914,
				"method": "rhf"
			},
			{
				"type": "occ",
				"energy": -0.30352,
				"method": "rhf"
			},
			{
				"type": "occ",
				"energy": -0.23726,
				"method": "rhf"
			},
			{
				"type": "occ",
				"energy": -0.20722,
				"method": "rhf"
			},
			{
				"type": "unocc",
				"energy": 0.00621,
				"method": "rhf"
			},
			{
				"type": "unocc",
				"energy": 0.02169,
				"method": "rhf"
			},
			{
				"type": "unocc",
				"energy": 0.07649,
				"method": "rhf"
			},
			{
				"type": "unocc",
				"energy": 0.08926,
				"method": "rhf"
			},
			{
				"type": "unocc",
				"energy": 0.11158,
				"method": "rhf"
			}
		],
		"cosmo_sigma_profile": { 
			"-0.025": 0.0,
			"-0.024": 0.0,
			"-0.023": 0.0,
			"-0.022": 0.0,
			"-0.021": 0.0,
			"-0.02": 0.0,
			"-0.019": 0.0,
			"-0.018": 0.0585361249115,
			"-0.017": 0.779201764023,
			"-0.016": 0.992612336175,
			"-0.015": 1.5805589929,
			"-0.014": 0.523274496491,
			"-0.013": 0.967345691765,
			"-0.012": 1.04380367237,
			"-0.011": 0.849664400221,
			"-0.01": 0.901139729066,
			"-0.009": 1.18646854293,
			"-0.008": 1.07728777934,
			"-0.007": 1.07160231653,
			"-0.006": 1.95792322175,
			"-0.005": 4.42354372144,
			"-0.004": 7.4286443561,
			"-0.003": 19.1288878359,
			"-0.002": 23.0749909154,
			"-0.001": 26.2765714133,
			"0.0": 23.2604837623,
			"0.001": 18.2506585285,
			"0.002": 8.2822326544,
			"0.003": 7.29071910209,
			"0.004": 8.95356757825,
			"0.005": 9.94177035775,
			"0.006": 9.62877771247,
			"0.007": 5.6000810102,
			"0.008": 1.87444940021,
			"0.009": 1.14680406574,
			"0.01": 1.39144139063,
			"0.011": 2.05627546019,
			"0.012": 1.71170109021,
			"0.013": 0.0820680634475,
			"0.014": 0.0,
			"0.015": 0.0,
			"0.016": 0.0,
			"0.017": 0.0,
			"0.018": 0.0,
			"0.019": 0.0,
			"0.02": 0.0,
			"0.021": 0.0,
			"0.022": 0.0,
			"0.023": 0.0,
			"0.024": 0.0,
			"0.025": 0.0
		}
	}
}
