{
	 "smiles": "CCC1=CC=C(C=C1)N1CC(CC1=O)C(O)=O", 
	 "Tm": 419.15, 
	 "num_atms": 32, 
	 "gaussian": { 
		 "optdone": 1, 
		 "sigma_profile": "yes", 
		 "theory": "DFT", 
		 "functional": "B3LYP", 
		 "basiset": "6-31G**", 
		 "properties": { 
			 "R2extent": 5780.8581, 
			 "electric_dipole_moment_norm": 3.21600010106, 
			 "electric_quadrupole_moment_norm": 14.2962181359, 
			 "total_energy": -784.890033616, 
			 "HOMO_LUMO_gap": 0.19681, 
			 "cosmo_polarized_energy": -16.32, 
			 "cosmo_cavitation_energy": 35.09, 
			 "cosmo_dispersion_energy": -25.23, 
			 "cosmo_repulsion_energy": 1.97, 
			 "cosmo_total_nonelectrostatic_energy": 11.84, 
			 "SMD_solvation_energy": 7.1 
		},
		"coords": [
			{
				"x": -1.5740436479,
				"y": -5.0492023765,
				"z": 2.6597667113,
				"element": "C" 
			},
			{
				"x": -2.1926108584,
				"y": -3.724262144,
				"z": 3.1415801508,
				"element": "C" 
			},
			{
				"x": -1.58044763,
				"y": -2.5100563934,
				"z": 2.4770250478,
				"element": "C" 
			},
			{
				"x": -0.4821356938,
				"y": -1.8496414943,
				"z": 3.036171385,
				"element": "C" 
			},
			{
				"x": 0.1088111835,
				"y": -0.7544042758,
				"z": 2.4082156966,
				"element": "C" 
			},
			{
				"x": -0.388005199,
				"y": -0.280910961,
				"z": 1.1825012291,
				"element": "C" 
			},
			{
				"x": -1.4946976913,
				"y": -0.9332896603,
				"z": 0.6091419874,
				"element": "C" 
			},
			{
				"x": -2.068194274,
				"y": -2.0236825109,
				"z": 1.2568613099,
				"element": "C" 
			},
			{
				"x": 0.2338483683,
				"y": 0.8302980379,
				"z": 0.5574268039,
				"element": "N" 
			},
			{
				"x": 1.4694443485,
				"y": 1.4044346281,
				"z": 1.1017210077,
				"element": "C" 
			},
			{
				"x": 1.9503392921,
				"y": 2.3914948496,
				"z": 0.0240800092,
				"element": "C" 
			},
			{
				"x": 0.6721343956,
				"y": 2.7345635344,
				"z": -0.7627279702,
				"element": "C" 
			},
			{
				"x": -0.270631761,
				"y": 1.5609570951,
				"z": -0.5074249568,
				"element": "C" 
			},
			{
				"x": -1.2938346774,
				"y": 1.3418998525,
				"z": -1.1343966511,
				"element": "O" 
			},
			{
				"x": 3.040668585,
				"y": 1.7771499251,
				"z": -0.8473343886,
				"element": "C" 
			},
			{
				"x": 3.3400463673,
				"y": 2.579040456,
				"z": -1.8951275353,
				"element": "O" 
			},
			{
				"x": 3.6107321556,
				"y": 0.7288949792,
				"z": -0.6428369801,
				"element": "O" 
			},
			{
				"x": -1.7042999009,
				"y": -5.1723912512,
				"z": 1.579696521,
				"element": "H" 
			},
			{
				"x": -2.0408311705,
				"y": -5.9055078056,
				"z": 3.1583063031,
				"element": "H" 
			},
			{
				"x": -0.4995402034,
				"y": -5.0784443677,
				"z": 2.8681647527,
				"element": "H" 
			},
			{
				"x": -2.0730918232,
				"y": -3.6455559445,
				"z": 4.2290082109,
				"element": "H" 
			},
			{
				"x": -3.2722320301,
				"y": -3.7407008272,
				"z": 2.9488674576,
				"element": "H" 
			},
			{
				"x": -0.0772178056,
				"y": -2.1905152597,
				"z": 3.9862805532,
				"element": "H" 
			},
			{
				"x": 0.9518586509,
				"y": -0.2720686963,
				"z": 2.8884095306,
				"element": "H" 
			},
			{
				"x": -1.8985641928,
				"y": -0.5724848334,
				"z": -0.3253100976,
				"element": "H" 
			},
			{
				"x": -2.9255137806,
				"y": -2.5086176286,
				"z": 0.7952317379,
				"element": "H" 
			},
			{
				"x": 1.2716394719,
				"y": 1.9192435356,
				"z": 2.0509808405,
				"element": "H" 
			},
			{
				"x": 2.2137130029,
				"y": 0.623535806,
				"z": 1.2719491617,
				"element": "H" 
			},
			{
				"x": 2.3932889207,
				"y": 3.2858372207,
				"z": 0.4749714127,
				"element": "H" 
			},
			{
				"x": 0.1972735343,
				"y": 3.6444208331,
				"z": -0.3790668273,
				"element": "H" 
			},
			{
				"x": 0.8281183561,
				"y": 2.8749451666,
				"z": -1.8328803641,
				"element": "H" 
			},
			{
				"x": 4.0480757072,
				"y": 2.1320205105,
				"z": -2.3889520494,
				"element": "H" 
			}
		],
		 "valence_orbital": [ 
			{
				"type": "occ",
				"energy": -0.29073,
				"method": "rhf"
			},
			{
				"type": "occ",
				"energy": -0.28603,
				"method": "rhf"
			},
			{
				"type": "occ",
				"energy": -0.25057,
				"method": "rhf"
			},
			{
				"type": "occ",
				"energy": -0.24428,
				"method": "rhf"
			},
			{
				"type": "occ",
				"energy": -0.21058,
				"method": "rhf"
			},
			{
				"type": "unocc",
				"energy": -0.01377,
				"method": "rhf"
			},
			{
				"type": "unocc",
				"energy": -0.00365,
				"method": "rhf"
			},
			{
				"type": "unocc",
				"energy": 0.0036,
				"method": "rhf"
			},
			{
				"type": "unocc",
				"energy": 0.04294,
				"method": "rhf"
			},
			{
				"type": "unocc",
				"energy": 0.06422,
				"method": "rhf"
			}
		],
		"cosmo_sigma_profile": { 
			"-0.025": 0.0,
			"-0.024": 0.0,
			"-0.023": 0.0,
			"-0.022": 0.0,
			"-0.021": 0.0,
			"-0.02": 0.0,
			"-0.019": 0.198132133326,
			"-0.018": 0.869513249428,
			"-0.017": 1.07844624997,
			"-0.016": 0.768445338759,
			"-0.015": 0.696933275672,
			"-0.014": 0.254609190104,
			"-0.013": 0.935955104302,
			"-0.012": 1.08664036679,
			"-0.011": 0.820117462801,
			"-0.01": 0.279100543811,
			"-0.009": 0.363359955114,
			"-0.008": 3.55623466099,
			"-0.007": 9.71167682667,
			"-0.006": 16.7859170724,
			"-0.005": 15.5814982444,
			"-0.004": 18.4436633823,
			"-0.003": 23.4469755947,
			"-0.002": 23.0787122206,
			"-0.001": 22.1540215477,
			"0.0": 20.3355540004,
			"0.001": 21.8404911918,
			"0.002": 13.9978832564,
			"0.003": 12.649466235,
			"0.004": 12.3292302716,
			"0.005": 12.4758896896,
			"0.006": 11.4220962211,
			"0.007": 4.85005928633,
			"0.008": 3.96268170952,
			"0.009": 3.71563986536,
			"0.01": 3.67197982969,
			"0.011": 6.6605558513,
			"0.012": 4.42857171448,
			"0.013": 3.3438717521,
			"0.014": 1.18409404451,
			"0.015": 0.00443792405887,
			"0.016": 0.0,
			"0.017": 0.0,
			"0.018": 0.0,
			"0.019": 0.0,
			"0.02": 0.0,
			"0.021": 0.0,
			"0.022": 0.0,
			"0.023": 0.0,
			"0.024": 0.0,
			"0.025": 0.0
		}
	}
}
