{
	 "smiles": "OC(=O)C1=NC(Cl)=CC=C1", 
	 "Tm": 467.15, 
	 "num_atms": 14, 
	 "gaussian": { 
		 "optdone": 1, 
		 "sigma_profile": "yes", 
		 "theory": "DFT", 
		 "functional": "B3LYP", 
		 "basiset": "6-31G**", 
		 "properties": { 
			 "R2extent": 1999.476, 
			 "electric_dipole_moment_norm": 4.78505690875, 
			 "electric_quadrupole_moment_norm": 9.73420482834, 
			 "total_energy": -896.446708664, 
			 "HOMO_LUMO_gap": 0.19913, 
			 "cosmo_polarized_energy": -14.29, 
			 "cosmo_cavitation_energy": 21.28, 
			 "cosmo_dispersion_energy": -16.02, 
			 "cosmo_repulsion_energy": 1.32, 
			 "cosmo_total_nonelectrostatic_energy": 6.58, 
			 "SMD_solvation_energy": 3.56 
		},
		"coords": [
			{
				"x": -0.2441173911,
				"y": -1.2550453664,
				"z": -2.976589078,
				"element": "O" 
			},
			{
				"x": 0.0404854122,
				"y": -1.7391020614,
				"z": -1.7393860807,
				"element": "C" 
			},
			{
				"x": 0.5220194516,
				"y": -2.8310956767,
				"z": -1.556202484,
				"element": "O" 
			},
			{
				"x": -0.3182509809,
				"y": -0.7519921644,
				"z": -0.6628783411,
				"element": "C" 
			},
			{
				"x": -0.0659809787,
				"y": -1.1590650231,
				"z": 0.5924249976,
				"element": "N" 
			},
			{
				"x": -0.3616381387,
				"y": -0.3324518349,
				"z": 1.5711238633,
				"element": "C" 
			},
			{
				"x": -0.023845586,
				"y": -0.883765274,
				"z": 3.2090408394,
				"element": "Cl" 
			},
			{
				"x": -0.9204581962,
				"y": 0.9416566708,
				"z": 1.4001587728,
				"element": "C" 
			},
			{
				"x": -1.1769847611,
				"y": 1.351879286,
				"z": 0.0972774739,
				"element": "C" 
			},
			{
				"x": -0.8729045832,
				"y": 0.4940685462,
				"z": -0.9625884696,
				"element": "C" 
			},
			{
				"x": 0.0177995597,
				"y": -1.9523793852,
				"z": -3.6000206153,
				"element": "H" 
			},
			{
				"x": -1.1383757248,
				"y": 1.5699941823,
				"z": 2.2553629577,
				"element": "H" 
			},
			{
				"x": -1.6093923914,
				"y": 2.3296716512,
				"z": -0.0917728204,
				"element": "H" 
			},
			{
				"x": -1.0574556914,
				"y": 0.7761264497,
				"z": -1.9912510155,
				"element": "H" 
			}
		],
		 "valence_orbital": [ 
			{
				"type": "occ",
				"energy": -0.31994,
				"method": "rhf"
			},
			{
				"type": "occ",
				"energy": -0.30924,
				"method": "rhf"
			},
			{
				"type": "occ",
				"energy": -0.28821,
				"method": "rhf"
			},
			{
				"type": "occ",
				"energy": -0.28338,
				"method": "rhf"
			},
			{
				"type": "occ",
				"energy": -0.27194,
				"method": "rhf"
			},
			{
				"type": "unocc",
				"energy": -0.07281,
				"method": "rhf"
			},
			{
				"type": "unocc",
				"energy": -0.04143,
				"method": "rhf"
			},
			{
				"type": "unocc",
				"energy": 0.0272,
				"method": "rhf"
			},
			{
				"type": "unocc",
				"energy": 0.03871,
				"method": "rhf"
			},
			{
				"type": "unocc",
				"energy": 0.07243,
				"method": "rhf"
			}
		],
		"cosmo_sigma_profile": { 
			"-0.025": 0.0,
			"-0.024": 0.0,
			"-0.023": 0.0,
			"-0.022": 0.0,
			"-0.021": 0.0,
			"-0.02": 0.0,
			"-0.019": 0.256693136437,
			"-0.018": 1.11865125042,
			"-0.017": 1.07605870794,
			"-0.016": 0.343129539458,
			"-0.015": 0.87040137307,
			"-0.014": 1.00184819261,
			"-0.013": 0.637827748545,
			"-0.012": 0.66474051316,
			"-0.011": 0.677004290916,
			"-0.01": 0.851573777909,
			"-0.009": 3.14117699093,
			"-0.008": 6.72247216058,
			"-0.007": 7.58643784871,
			"-0.006": 5.88985582098,
			"-0.005": 4.95900218885,
			"-0.004": 7.33991616298,
			"-0.003": 9.13648004391,
			"-0.002": 15.5200113886,
			"-0.001": 18.7444520513,
			"0.0": 15.1854223494,
			"0.001": 8.38602029397,
			"0.002": 7.83768321108,
			"0.003": 9.77187863479,
			"0.004": 11.759949534,
			"0.005": 5.72468995282,
			"0.006": 4.88166185363,
			"0.007": 3.08235372285,
			"0.008": 2.10914955171,
			"0.009": 2.04510436865,
			"0.01": 3.54667440591,
			"0.011": 5.48389628217,
			"0.012": 3.07355346272,
			"0.013": 1.16783008169,
			"0.014": 1.63297175151,
			"0.015": 1.13785352351,
			"0.016": 0.427394245221,
			"0.017": 0.0,
			"0.018": 0.0,
			"0.019": 0.0,
			"0.02": 0.0,
			"0.021": 0.0,
			"0.022": 0.0,
			"0.023": 0.0,
			"0.024": 0.0,
			"0.025": 0.0
		}
	}
}
