{
	 "smiles": "CC1=C(CC2=CN=C(N)S2)C=CC=C1", 
	 "Tm": 376.15, 
	 "num_atms": 26, 
	 "gaussian": { 
		 "optdone": 1, 
		 "sigma_profile": "yes", 
		 "theory": "DFT", 
		 "functional": "B3LYP", 
		 "basiset": "6-31G**", 
		 "properties": { 
			 "R2extent": 4285.3704, 
			 "electric_dipole_moment_norm": 1.2298074768, 
			 "electric_quadrupole_moment_norm": 13.2004211115, 
			 "total_energy": -934.096573364, 
			 "HOMO_LUMO_gap": 0.20172, 
			 "cosmo_polarized_energy": -11.73, 
			 "cosmo_cavitation_energy": 31.04, 
			 "cosmo_dispersion_energy": -22.78, 
			 "cosmo_repulsion_energy": 1.76, 
			 "cosmo_total_nonelectrostatic_energy": 10.03, 
			 "SMD_solvation_energy": 3.04 
		},
		"coords": [
			{
				"x": -2.7631787687,
				"y": -0.9178258085,
				"z": -1.4670620895,
				"element": "C" 
			},
			{
				"x": -1.8396211666,
				"y": 0.2796792429,
				"z": -1.4795090737,
				"element": "C" 
			},
			{
				"x": -0.8157025822,
				"y": 0.4352540729,
				"z": -0.5190033771,
				"element": "C" 
			},
			{
				"x": -0.6031548035,
				"y": -0.6342154679,
				"z": 0.5510999626,
				"element": "C" 
			},
			{
				"x": 0.152890726,
				"y": -0.2190126328,
				"z": 1.778360664,
				"element": "C" 
			},
			{
				"x": 1.4025183576,
				"y": -0.580511306,
				"z": 2.1821319543,
				"element": "C" 
			},
			{
				"x": 1.8738730067,
				"y": -0.0594086615,
				"z": 3.3701959559,
				"element": "N" 
			},
			{
				"x": 0.976756107,
				"y": 0.7123727111,
				"z": 3.9113952559,
				"element": "C" 
			},
			{
				"x": 1.1240499153,
				"y": 1.3216808912,
				"z": 5.1393569278,
				"element": "N" 
			},
			{
				"x": -0.5303623294,
				"y": 0.8640571571,
				"z": 2.9955098508,
				"element": "S" 
			},
			{
				"x": 0.0223209235,
				"y": 1.5530903508,
				"z": -0.5894818286,
				"element": "C" 
			},
			{
				"x": -0.1401681019,
				"y": 2.5196929493,
				"z": -1.5826274556,
				"element": "C" 
			},
			{
				"x": -1.1545287883,
				"y": 2.3743321627,
				"z": -2.5264351887,
				"element": "C" 
			},
			{
				"x": -1.9907950953,
				"y": 1.2591671799,
				"z": -2.4686646049,
				"element": "C" 
			},
			{
				"x": -2.2113495323,
				"y": -1.8630239869,
				"z": -1.5338488038,
				"element": "H" 
			},
			{
				"x": -3.3628344032,
				"y": -0.9652032342,
				"z": -0.5494626661,
				"element": "H" 
			},
			{
				"x": -3.4577118991,
				"y": -0.8809544474,
				"z": -2.3104226917,
				"element": "H" 
			},
			{
				"x": -0.0555525228,
				"y": -1.4792606238,
				"z": 0.109028285,
				"element": "H" 
			},
			{
				"x": -1.5750410639,
				"y": -1.0469876629,
				"z": 0.8465397875,
				"element": "H" 
			},
			{
				"x": 2.043309778,
				"y": -1.2495589088,
				"z": 1.6168250458,
				"element": "H" 
			},
			{
				"x": 2.0836140666,
				"y": 1.313894349,
				"z": 5.4613198126,
				"element": "H" 
			},
			{
				"x": 0.6625151928,
				"y": 2.2119746027,
				"z": 5.2618057726,
				"element": "H" 
			},
			{
				"x": 0.8131437229,
				"y": 1.6633862942,
				"z": 0.146132146,
				"element": "H" 
			},
			{
				"x": 0.5232005002,
				"y": 3.3793944747,
				"z": -1.6151466402,
				"element": "H" 
			},
			{
				"x": -1.2954468989,
				"y": 3.1196624807,
				"z": -3.3041286278,
				"element": "H" 
			},
			{
				"x": -2.7805443406,
				"y": 1.1417238215,
				"z": -3.2069083732,
				"element": "H" 
			}
		],
		 "valence_orbital": [ 
			{
				"type": "occ",
				"energy": -0.26996,
				"method": "rhf"
			},
			{
				"type": "occ",
				"energy": -0.26757,
				"method": "rhf"
			},
			{
				"type": "occ",
				"energy": -0.23904,
				"method": "rhf"
			},
			{
				"type": "occ",
				"energy": -0.23284,
				"method": "rhf"
			},
			{
				"type": "occ",
				"energy": -0.20533,
				"method": "rhf"
			},
			{
				"type": "unocc",
				"energy": -0.00361,
				"method": "rhf"
			},
			{
				"type": "unocc",
				"energy": 0.00299,
				"method": "rhf"
			},
			{
				"type": "unocc",
				"energy": 0.00764,
				"method": "rhf"
			},
			{
				"type": "unocc",
				"energy": 0.01628,
				"method": "rhf"
			},
			{
				"type": "unocc",
				"energy": 0.06712,
				"method": "rhf"
			}
		],
		"cosmo_sigma_profile": { 
			"-0.025": 0.0,
			"-0.024": 0.0,
			"-0.023": 0.0,
			"-0.022": 0.0,
			"-0.021": 0.0,
			"-0.02": 0.0,
			"-0.019": 0.0,
			"-0.018": 0.0,
			"-0.017": 0.0,
			"-0.016": 0.0,
			"-0.015": 0.116093308112,
			"-0.014": 1.51614373097,
			"-0.013": 2.71562903243,
			"-0.012": 2.36278715457,
			"-0.011": 2.91490315443,
			"-0.01": 2.28707077419,
			"-0.009": 2.50572116506,
			"-0.008": 1.74992334807,
			"-0.007": 2.0482455444,
			"-0.006": 5.10627067388,
			"-0.005": 15.5581194164,
			"-0.004": 20.176097297,
			"-0.003": 22.1895253953,
			"-0.002": 18.1322022268,
			"-0.001": 18.3074243173,
			"0.0": 18.2696729869,
			"0.001": 17.5827469615,
			"0.002": 16.7053089814,
			"0.003": 16.2563202991,
			"0.004": 16.9414661573,
			"0.005": 14.8146882371,
			"0.006": 10.4362169526,
			"0.007": 6.18361888321,
			"0.008": 2.93782973739,
			"0.009": 2.13995535711,
			"0.01": 1.52470299802,
			"0.011": 1.69550065594,
			"0.012": 1.80947066311,
			"0.013": 1.0610892928,
			"0.014": 0.855324536129,
			"0.015": 1.18411406819,
			"0.016": 0.509583210025,
			"0.017": 0.0,
			"0.018": 0.0,
			"0.019": 0.0,
			"0.02": 0.0,
			"0.021": 0.0,
			"0.022": 0.0,
			"0.023": 0.0,
			"0.024": 0.0,
			"0.025": 0.0
		}
	}
}
