{
	 "smiles": "OC(=O)C1=CC2=C(OCCCO2)C=C1", 
	 "Tm": 417.15, 
	 "num_atms": 24, 
	 "gaussian": { 
		 "optdone": 1, 
		 "sigma_profile": "yes", 
		 "theory": "DFT", 
		 "functional": "B3LYP", 
		 "basiset": "6-31G**", 
		 "properties": { 
			 "R2extent": 3260.218, 
			 "electric_dipole_moment_norm": 6.04184351006, 
			 "electric_quadrupole_moment_norm": 22.8363487695, 
			 "total_energy": -687.972126247, 
			 "HOMO_LUMO_gap": 0.18903, 
			 "cosmo_polarized_energy": -16.21, 
			 "cosmo_cavitation_energy": 27.25, 
			 "cosmo_dispersion_energy": -20.7, 
			 "cosmo_repulsion_energy": 1.62, 
			 "cosmo_total_nonelectrostatic_energy": 8.17, 
			 "SMD_solvation_energy": 5.91 
		},
		"coords": [
			{
				"x": 2.3732116561,
				"y": 2.1625146807,
				"z": -2.7847781609,
				"element": "O" 
			},
			{
				"x": 1.4458872114,
				"y": 1.1658813644,
				"z": -2.8388445446,
				"element": "C" 
			},
			{
				"x": 1.2168924468,
				"y": 0.615772163,
				"z": -3.8909289759,
				"element": "O" 
			},
			{
				"x": 0.763239338,
				"y": 0.8160275467,
				"z": -1.5543151993,
				"element": "C" 
			},
			{
				"x": 0.1077895914,
				"y": -0.4183555775,
				"z": -1.4863011247,
				"element": "C" 
			},
			{
				"x": -0.5585335286,
				"y": -0.8210206209,
				"z": -0.3322689631,
				"element": "C" 
			},
			{
				"x": -0.5659937558,
				"y": 0.0319923842,
				"z": 0.7966234193,
				"element": "C" 
			},
			{
				"x": -1.1699787961,
				"y": -0.2762771947,
				"z": 1.985699184,
				"element": "O" 
			},
			{
				"x": -1.1301556811,
				"y": -1.6539417087,
				"z": 2.3968424918,
				"element": "C" 
			},
			{
				"x": -2.276376455,
				"y": -2.4643794073,
				"z": 1.7926399138,
				"element": "C" 
			},
			{
				"x": -2.4385723943,
				"y": -2.1436485634,
				"z": 0.3051784822,
				"element": "C" 
			},
			{
				"x": -1.1681644509,
				"y": -2.0514855224,
				"z": -0.3581930688,
				"element": "O" 
			},
			{
				"x": 0.049864267,
				"y": 1.2846482393,
				"z": 0.7102250747,
				"element": "C" 
			},
			{
				"x": 0.7044022085,
				"y": 1.6804870431,
				"z": -0.451016332,
				"element": "C" 
			},
			{
				"x": 2.5680436768,
				"y": 2.3827994419,
				"z": -1.8635740566,
				"element": "H" 
			},
			{
				"x": 0.1054907413,
				"y": -1.0717294354,
				"z": -2.3513556911,
				"element": "H" 
			},
			{
				"x": -0.1630554318,
				"y": -2.0859359323,
				"z": 2.1173844188,
				"element": "H" 
			},
			{
				"x": -1.1925436886,
				"y": -1.633904325,
				"z": 3.4879333221,
				"element": "H" 
			},
			{
				"x": -2.0617854006,
				"y": -3.5293310653,
				"z": 1.9399447438,
				"element": "H" 
			},
			{
				"x": -3.2202198644,
				"y": -2.2461711245,
				"z": 2.3055905277,
				"element": "H" 
			},
			{
				"x": -2.987901354,
				"y": -1.2051708914,
				"z": 0.1693177235,
				"element": "H" 
			},
			{
				"x": -2.9866768969,
				"y": -2.9352856546,
				"z": -0.2124253617,
				"element": "H" 
			},
			{
				"x": 0.0056483665,
				"y": 1.9299426334,
				"z": 1.5812787913,
				"element": "H" 
			},
			{
				"x": 1.1402881941,
				"y": 2.675371527,
				"z": -0.4901566142,
				"element": "H" 
			}
		],
		 "valence_orbital": [ 
			{
				"type": "occ",
				"energy": -0.30811,
				"method": "rhf"
			},
			{
				"type": "occ",
				"energy": -0.30567,
				"method": "rhf"
			},
			{
				"type": "occ",
				"energy": -0.26792,
				"method": "rhf"
			},
			{
				"type": "occ",
				"energy": -0.25111,
				"method": "rhf"
			},
			{
				"type": "occ",
				"energy": -0.22993,
				"method": "rhf"
			},
			{
				"type": "unocc",
				"energy": -0.0409,
				"method": "rhf"
			},
			{
				"type": "unocc",
				"energy": -0.01391,
				"method": "rhf"
			},
			{
				"type": "unocc",
				"energy": 0.05264,
				"method": "rhf"
			},
			{
				"type": "unocc",
				"energy": 0.06405,
				"method": "rhf"
			},
			{
				"type": "unocc",
				"energy": 0.07349,
				"method": "rhf"
			}
		],
		"cosmo_sigma_profile": { 
			"-0.025": 0.0,
			"-0.024": 0.0,
			"-0.023": 0.0,
			"-0.022": 0.0,
			"-0.021": 0.0,
			"-0.02": 0.0,
			"-0.019": 0.0201837820582,
			"-0.018": 0.92798127183,
			"-0.017": 0.568965557211,
			"-0.016": 1.34377434644,
			"-0.015": 0.990976147366,
			"-0.014": 0.882244344356,
			"-0.013": 0.518209637652,
			"-0.012": 1.5413564726,
			"-0.011": 1.07922916646,
			"-0.01": 1.15915184968,
			"-0.009": 0.812917925805,
			"-0.008": 1.93508456874,
			"-0.007": 3.24215308865,
			"-0.006": 9.87534696187,
			"-0.005": 19.863131151,
			"-0.004": 23.8763583497,
			"-0.003": 19.0883380216,
			"-0.002": 13.393165354,
			"-0.001": 11.629390146,
			"0.0": 9.38628449361,
			"0.001": 12.2767430053,
			"0.002": 15.8037497682,
			"0.003": 14.4684424717,
			"0.004": 6.87450718777,
			"0.005": 3.86972785458,
			"0.006": 4.98096234503,
			"0.007": 5.23244282379,
			"0.008": 5.31678403708,
			"0.009": 4.36085486223,
			"0.01": 6.97832881332,
			"0.011": 6.35174988895,
			"0.012": 5.41030995211,
			"0.013": 2.04393776701,
			"0.014": 0.179944417331,
			"0.015": 0.0,
			"0.016": 0.0,
			"0.017": 0.0,
			"0.018": 0.0,
			"0.019": 0.0,
			"0.02": 0.0,
			"0.021": 0.0,
			"0.022": 0.0,
			"0.023": 0.0,
			"0.024": 0.0,
			"0.025": 0.0
		}
	}
}
