{
	 "smiles": "OCCCC1=NC2=CC=CC=C2N1", 
	 "Tm": 438.15, 
	 "num_atms": 25, 
	 "gaussian": { 
		 "optdone": 1, 
		 "sigma_profile": "yes", 
		 "theory": "DFT", 
		 "functional": "B3LYP", 
		 "basiset": "6-31G**", 
		 "properties": { 
			 "R2extent": 3484.2364, 
			 "electric_dipole_moment_norm": 3.7452585358, 
			 "electric_quadrupole_moment_norm": 16.8168825987, 
			 "total_energy": -573.032533777, 
			 "HOMO_LUMO_gap": 0.20651, 
			 "cosmo_polarized_energy": -17.73, 
			 "cosmo_cavitation_energy": 28.6, 
			 "cosmo_dispersion_energy": -20.81, 
			 "cosmo_repulsion_energy": 1.67, 
			 "cosmo_total_nonelectrostatic_energy": 9.47, 
			 "SMD_solvation_energy": 2.33 
		},
		"coords": [
			{
				"x": -3.6276870974,
				"y": 2.5165738929,
				"z": -1.4991229062,
				"element": "O" 
			},
			{
				"x": -2.5076585706,
				"y": 1.6421621989,
				"z": -1.5354918366,
				"element": "C" 
			},
			{
				"x": -1.2357696346,
				"y": 2.3053674948,
				"z": -0.9994218974,
				"element": "C" 
			},
			{
				"x": -0.0154623021,
				"y": 1.3591478334,
				"z": -0.9669942271,
				"element": "C" 
			},
			{
				"x": -0.1639205724,
				"y": 0.2062387933,
				"z": -0.0213176491,
				"element": "C" 
			},
			{
				"x": -0.4126659365,
				"y": -1.034866605,
				"z": -0.3685796257,
				"element": "N" 
			},
			{
				"x": -0.4913297396,
				"y": -1.7417107858,
				"z": 0.8252065174,
				"element": "C" 
			},
			{
				"x": -0.7334737196,
				"y": -3.1025467709,
				"z": 1.0495105028,
				"element": "C" 
			},
			{
				"x": -0.7574483718,
				"y": -3.555893681,
				"z": 2.365162282,
				"element": "C" 
			},
			{
				"x": -0.5446448294,
				"y": -2.6791234861,
				"z": 3.4475834853,
				"element": "C" 
			},
			{
				"x": -0.3015548524,
				"y": -1.321552174,
				"z": 3.2483545803,
				"element": "C" 
			},
			{
				"x": -0.280637764,
				"y": -0.8758900444,
				"z": 1.9258906319,
				"element": "C" 
			},
			{
				"x": -0.0750112052,
				"y": 0.3668251683,
				"z": 1.3500427108,
				"element": "N" 
			},
			{
				"x": -3.4582289507,
				"y": 3.2393995157,
				"z": -2.1169396468,
				"element": "H" 
			},
			{
				"x": -2.7767821183,
				"y": 0.7820849955,
				"z": -0.9158968542,
				"element": "H" 
			},
			{
				"x": -2.3267159855,
				"y": 1.2565899042,
				"z": -2.5519599417,
				"element": "H" 
			},
			{
				"x": -0.9868230516,
				"y": 3.1706823155,
				"z": -1.6292621667,
				"element": "H" 
			},
			{
				"x": -1.4445831543,
				"y": 2.699375345,
				"z": 0.0028786634,
				"element": "H" 
			},
			{
				"x": 0.8803337625,
				"y": 1.9363666726,
				"z": -0.7045671408,
				"element": "H" 
			},
			{
				"x": 0.1562344966,
				"y": 0.9343430389,
				"z": -1.9603441459,
				"element": "H" 
			},
			{
				"x": -0.8966318896,
				"y": -3.7729844197,
				"z": 0.2118546217,
				"element": "H" 
			},
			{
				"x": -0.9439786597,
				"y": -4.6066964977,
				"z": 2.5662726943,
				"element": "H" 
			},
			{
				"x": -0.5708860252,
				"y": -3.0694975204,
				"z": 4.46070057,
				"element": "H" 
			},
			{
				"x": -0.1384015787,
				"y": -0.6490058111,
				"z": 4.0853677178,
				"element": "H" 
			},
			{
				"x": 0.1151277503,
				"y": 1.2295106269,
				"z": 1.8355730606,
				"element": "H" 
			}
		],
		 "valence_orbital": [ 
			{
				"type": "occ",
				"energy": -0.29937,
				"method": "rhf"
			},
			{
				"type": "occ",
				"energy": -0.26762,
				"method": "rhf"
			},
			{
				"type": "occ",
				"energy": -0.26488,
				"method": "rhf"
			},
			{
				"type": "occ",
				"energy": -0.2234,
				"method": "rhf"
			},
			{
				"type": "occ",
				"energy": -0.2181,
				"method": "rhf"
			},
			{
				"type": "unocc",
				"energy": -0.01159,
				"method": "rhf"
			},
			{
				"type": "unocc",
				"energy": 0.02557,
				"method": "rhf"
			},
			{
				"type": "unocc",
				"energy": 0.0531,
				"method": "rhf"
			},
			{
				"type": "unocc",
				"energy": 0.06784,
				"method": "rhf"
			},
			{
				"type": "unocc",
				"energy": 0.07822,
				"method": "rhf"
			}
		],
		"cosmo_sigma_profile": { 
			"-0.025": 0.0,
			"-0.024": 0.0,
			"-0.023": 0.0,
			"-0.022": 0.0,
			"-0.021": 0.0,
			"-0.02": 0.0,
			"-0.019": 0.0,
			"-0.018": 0.0,
			"-0.017": 0.0108071419337,
			"-0.016": 1.05599891818,
			"-0.015": 2.41067380002,
			"-0.014": 1.9190563376,
			"-0.013": 1.79808496544,
			"-0.012": 2.90707835442,
			"-0.011": 2.39580472822,
			"-0.01": 2.273687808,
			"-0.009": 2.47177318531,
			"-0.008": 2.16713772576,
			"-0.007": 3.97081289651,
			"-0.006": 7.09474733119,
			"-0.005": 12.8904563197,
			"-0.004": 18.234202698,
			"-0.003": 22.1727607206,
			"-0.002": 18.4366804174,
			"-0.001": 14.3900081502,
			"0.0": 13.6803717757,
			"0.001": 10.006329423,
			"0.002": 10.6020262151,
			"0.003": 11.4124265185,
			"0.004": 11.1338962126,
			"0.005": 13.3609429285,
			"0.006": 10.8654670861,
			"0.007": 5.76796000801,
			"0.008": 2.41839192383,
			"0.009": 2.83257151653,
			"0.01": 2.38220166136,
			"0.011": 1.99818190842,
			"0.012": 2.67163145575,
			"0.013": 2.18658294336,
			"0.014": 3.2676260743,
			"0.015": 2.04867110764,
			"0.016": 1.03801490318,
			"0.017": 0.881650845208,
			"0.018": 0.46831089525,
			"0.019": 0.0241202972871,
			"0.02": 0.0,
			"0.021": 0.0,
			"0.022": 0.0,
			"0.023": 0.0,
			"0.024": 0.0,
			"0.025": 0.0
		}
	}
}
