{
	 "smiles": "OC(=O)CCC(=O)C1=CC=C(Cl)S1", 
	 "Tm": 396.15, 
	 "num_atms": 20, 
	 "gaussian": { 
		 "optdone": 1, 
		 "sigma_profile": "yes", 
		 "theory": "DFT", 
		 "functional": "B3LYP", 
		 "basiset": "6-31G**", 
		 "properties": { 
			 "R2extent": 4621.3663, 
			 "electric_dipole_moment_norm": 6.67689935973, 
			 "electric_quadrupole_moment_norm": 18.82700266, 
			 "total_energy": -1393.11823579, 
			 "HOMO_LUMO_gap": 0.15465, 
			 "cosmo_polarized_energy": -15.23, 
			 "cosmo_cavitation_energy": 28.23, 
			 "cosmo_dispersion_energy": -21.34, 
			 "cosmo_repulsion_energy": 1.65, 
			 "cosmo_total_nonelectrostatic_energy": 8.54, 
			 "SMD_solvation_energy": 5.71 
		},
		"coords": [
			{
				"x": -3.0175286678,
				"y": 0.4059468911,
				"z": -2.0811616422,
				"element": "O" 
			},
			{
				"x": -2.8398662469,
				"y": 1.7026116147,
				"z": -1.7778306079,
				"element": "C" 
			},
			{
				"x": -3.1320797229,
				"y": 2.581726545,
				"z": -2.5551305603,
				"element": "O" 
			},
			{
				"x": -2.2571206226,
				"y": 1.9957421012,
				"z": -0.3900649089,
				"element": "C" 
			},
			{
				"x": -0.8214273446,
				"y": 1.4839812275,
				"z": -0.1584705972,
				"element": "C" 
			},
			{
				"x": -0.7123267156,
				"y": 0.0002097483,
				"z": 0.1582655732,
				"element": "C" 
			},
			{
				"x": -1.637412988,
				"y": -0.7828696206,
				"z": -0.0724210987,
				"element": "O" 
			},
			{
				"x": 0.5302869059,
				"y": -0.515364382,
				"z": 0.7441215513,
				"element": "C" 
			},
			{
				"x": 0.7878157322,
				"y": -1.8447475568,
				"z": 1.0140528281,
				"element": "C" 
			},
			{
				"x": 2.0700112843,
				"y": -2.0784669163,
				"z": 1.5640082412,
				"element": "C" 
			},
			{
				"x": 2.7825389538,
				"y": -0.9115774551,
				"z": 1.7066716022,
				"element": "C" 
			},
			{
				"x": 4.3804720276,
				"y": -0.7557014149,
				"z": 2.3360363132,
				"element": "Cl" 
			},
			{
				"x": 1.9042425471,
				"y": 0.4872643669,
				"z": 1.1751494072,
				"element": "S" 
			},
			{
				"x": -2.6977567224,
				"y": -0.1545420139,
				"z": -1.3392276282,
				"element": "H" 
			},
			{
				"x": -2.9189249911,
				"y": 1.5710383413,
				"z": 0.37419434,
				"element": "H" 
			},
			{
				"x": -2.2689096723,
				"y": 3.0809292503,
				"z": -0.2807165213,
				"element": "H" 
			},
			{
				"x": -0.3691530392,
				"y": 2.04804338,
				"z": 0.6664834306,
				"element": "H" 
			},
			{
				"x": -0.1902685444,
				"y": 1.6893841072,
				"z": -1.0348166865,
				"element": "H" 
			},
			{
				"x": 0.0536856761,
				"y": -2.6147183761,
				"z": 0.8096502356,
				"element": "H" 
			},
			{
				"x": 2.4587221508,
				"y": -3.0493898378,
				"z": 1.8436067286,
				"element": "H" 
			}
		],
		 "valence_orbital": [ 
			{
				"type": "occ",
				"energy": -0.2955,
				"method": "rhf"
			},
			{
				"type": "occ",
				"energy": -0.29484,
				"method": "rhf"
			},
			{
				"type": "occ",
				"energy": -0.29267,
				"method": "rhf"
			},
			{
				"type": "occ",
				"energy": -0.266,
				"method": "rhf"
			},
			{
				"type": "occ",
				"energy": -0.2527,
				"method": "rhf"
			},
			{
				"type": "unocc",
				"energy": -0.09805,
				"method": "rhf"
			},
			{
				"type": "unocc",
				"energy": -0.01983,
				"method": "rhf"
			},
			{
				"type": "unocc",
				"energy": -0.01192,
				"method": "rhf"
			},
			{
				"type": "unocc",
				"energy": 0.00041,
				"method": "rhf"
			},
			{
				"type": "unocc",
				"energy": 0.02247,
				"method": "rhf"
			}
		],
		"cosmo_sigma_profile": { 
			"-0.025": 0.0,
			"-0.024": 0.0,
			"-0.023": 0.0,
			"-0.022": 0.0,
			"-0.021": 0.0,
			"-0.02": 0.0,
			"-0.019": 0.0,
			"-0.018": 0.0,
			"-0.017": 0.0,
			"-0.016": 0.0,
			"-0.015": 0.0,
			"-0.014": 0.0,
			"-0.013": 0.0,
			"-0.012": 0.0,
			"-0.011": 0.0,
			"-0.01": 0.0,
			"-0.009": 2.045784227,
			"-0.008": 8.334533333,
			"-0.007": 12.93065306,
			"-0.006": 16.0059779539,
			"-0.005": 14.7923243372,
			"-0.004": 12.9131183094,
			"-0.003": 15.0125401815,
			"-0.002": 15.4820853978,
			"-0.001": 16.5929080303,
			"0.0": 23.0026484822,
			"0.001": 22.3639794508,
			"0.002": 18.0045817507,
			"0.003": 9.69559538211,
			"0.004": 3.21447548769,
			"0.005": 3.10337737526,
			"0.006": 3.16093162634,
			"0.007": 3.66791372995,
			"0.008": 3.72475164561,
			"0.009": 4.26964205212,
			"0.01": 4.547182719,
			"0.011": 5.03423886849,
			"0.012": 6.71242283575,
			"0.013": 4.47397652786,
			"0.014": 1.21285284307,
			"0.015": 0.0,
			"0.016": 0.0,
			"0.017": 0.0,
			"0.018": 0.0,
			"0.019": 0.0,
			"0.02": 0.0,
			"0.021": 0.0,
			"0.022": 0.0,
			"0.023": 0.0,
			"0.024": 0.0,
			"0.025": 0.0
		}
	}
}
