{
	 "smiles": "COC1=C(OCCO)C=C(C=C1)C(O)=O", 
	 "Tm": 464.15, 
	 "num_atms": 27, 
	 "gaussian": { 
		 "optdone": 1, 
		 "sigma_profile": "yes", 
		 "theory": "DFT", 
		 "functional": "B3LYP", 
		 "basiset": "6-31G**", 
		 "properties": { 
			 "R2extent": 4651.6935, 
			 "electric_dipole_moment_norm": 4.04990173461, 
			 "electric_quadrupole_moment_norm": 12.9154855685, 
			 "total_energy": -764.393330014, 
			 "HOMO_LUMO_gap": 0.18744, 
			 "cosmo_polarized_energy": -18.06, 
			 "cosmo_cavitation_energy": 31.77, 
			 "cosmo_dispersion_energy": -22.78, 
			 "cosmo_repulsion_energy": 1.83, 
			 "cosmo_total_nonelectrostatic_energy": 10.82, 
			 "SMD_solvation_energy": 7.75 
		},
		"coords": [
			{
				"x": 0.5639377632,
				"y": 2.7547286383,
				"z": 1.7304591182,
				"element": "C" 
			},
			{
				"x": 0.1488200085,
				"y": 1.4090236571,
				"z": 1.9224015306,
				"element": "O" 
			},
			{
				"x": 0.2652846736,
				"y": 0.5411861174,
				"z": 0.8806644156,
				"element": "C" 
			},
			{
				"x": -0.1879990019,
				"y": -0.778568509,
				"z": 1.1221454953,
				"element": "C" 
			},
			{
				"x": -0.7539953285,
				"y": -1.1342410901,
				"z": 2.3180927858,
				"element": "O" 
			},
			{
				"x": 0.0974504162,
				"y": -1.1327270415,
				"z": 3.4721645723,
				"element": "C" 
			},
			{
				"x": -0.5248370291,
				"y": -2.0347683628,
				"z": 4.5168071932,
				"element": "C" 
			},
			{
				"x": -0.3776278129,
				"y": -3.3827122684,
				"z": 4.1000022147,
				"element": "O" 
			},
			{
				"x": -0.1241644223,
				"y": -1.7238590682,
				"z": 0.1077600962,
				"element": "C" 
			},
			{
				"x": 0.3833150795,
				"y": -1.3849559227,
				"z": -1.1570983744,
				"element": "C" 
			},
			{
				"x": 0.8397862402,
				"y": -0.0839503045,
				"z": -1.3869344539,
				"element": "C" 
			},
			{
				"x": 0.7840523411,
				"y": 0.8738196924,
				"z": -0.3772853006,
				"element": "C" 
			},
			{
				"x": 0.4649087989,
				"y": -2.3620072943,
				"z": -2.2670183932,
				"element": "C" 
			},
			{
				"x": -0.0096410534,
				"y": -3.5907237651,
				"z": -1.93421457,
				"element": "O" 
			},
			{
				"x": 0.9052450275,
				"y": -2.1251148266,
				"z": -3.3767528616,
				"element": "O" 
			},
			{
				"x": 0.3699517535,
				"y": 3.2651936039,
				"z": 2.6746800736,
				"element": "H" 
			},
			{
				"x": 1.6340819666,
				"y": 2.8179594731,
				"z": 1.4972652932,
				"element": "H" 
			},
			{
				"x": -0.0089596669,
				"y": 3.2410408715,
				"z": 0.9315704443,
				"element": "H" 
			},
			{
				"x": 1.092121618,
				"y": -1.5137206612,
				"z": 3.2074900198,
				"element": "H" 
			},
			{
				"x": 0.2012242759,
				"y": -0.1153075986,
				"z": 3.8661505759,
				"element": "H" 
			},
			{
				"x": -1.5820157052,
				"y": -1.7540502626,
				"z": 4.6369593205,
				"element": "H" 
			},
			{
				"x": -0.015661701,
				"y": -1.8477661558,
				"z": 5.477430752,
				"element": "H" 
			},
			{
				"x": -0.9296908326,
				"y": -3.9361317928,
				"z": 4.6649228797,
				"element": "H" 
			},
			{
				"x": -0.4798662532,
				"y": -2.7249849442,
				"z": 0.3197108217,
				"element": "H" 
			},
			{
				"x": 1.2347508877,
				"y": 0.1656999321,
				"z": -2.3655192139,
				"element": "H" 
			},
			{
				"x": 1.1364814721,
				"y": 1.8786961821,
				"z": -0.5765597168,
				"element": "H" 
			},
			{
				"x": 0.0968464843,
				"y": -4.1342582996,
				"z": -2.7316947181,
				"element": "H" 
			}
		],
		 "valence_orbital": [ 
			{
				"type": "occ",
				"energy": -0.28019,
				"method": "rhf"
			},
			{
				"type": "occ",
				"energy": -0.26859,
				"method": "rhf"
			},
			{
				"type": "occ",
				"energy": -0.26396,
				"method": "rhf"
			},
			{
				"type": "occ",
				"energy": -0.24678,
				"method": "rhf"
			},
			{
				"type": "occ",
				"energy": -0.22146,
				"method": "rhf"
			},
			{
				"type": "unocc",
				"energy": -0.03402,
				"method": "rhf"
			},
			{
				"type": "unocc",
				"energy": -0.00103,
				"method": "rhf"
			},
			{
				"type": "unocc",
				"energy": 0.07053,
				"method": "rhf"
			},
			{
				"type": "unocc",
				"energy": 0.07589,
				"method": "rhf"
			},
			{
				"type": "unocc",
				"energy": 0.08269,
				"method": "rhf"
			}
		],
		"cosmo_sigma_profile": { 
			"-0.025": 0.0,
			"-0.024": 0.0,
			"-0.023": 0.0,
			"-0.022": 0.0,
			"-0.021": 0.0,
			"-0.02": 0.0,
			"-0.019": 0.0,
			"-0.018": 0.609227149562,
			"-0.017": 0.930900108533,
			"-0.016": 1.4368217772,
			"-0.015": 1.90699399931,
			"-0.014": 1.57349603855,
			"-0.013": 1.32110885422,
			"-0.012": 1.66346478689,
			"-0.011": 1.27795053991,
			"-0.01": 1.92659382303,
			"-0.009": 1.12671452522,
			"-0.008": 1.61687119103,
			"-0.007": 5.43137316622,
			"-0.006": 12.3102267204,
			"-0.005": 19.7401707944,
			"-0.004": 25.6752850228,
			"-0.003": 19.1505803858,
			"-0.002": 15.692502172,
			"-0.001": 11.9823085947,
			"0.0": 13.1626246808,
			"0.001": 16.397518168,
			"0.002": 17.0881507731,
			"0.003": 17.3970888345,
			"0.004": 10.1110769516,
			"0.005": 6.41535840193,
			"0.006": 5.05816524818,
			"0.007": 5.94692027879,
			"0.008": 5.66489831217,
			"0.009": 5.65416686371,
			"0.01": 4.44055234145,
			"0.011": 4.89090045303,
			"0.012": 8.34714548898,
			"0.013": 3.24069745861,
			"0.014": 1.68689260468,
			"0.015": 0.0456969276208,
			"0.016": 0.0,
			"0.017": 0.0,
			"0.018": 0.0,
			"0.019": 0.0,
			"0.02": 0.0,
			"0.021": 0.0,
			"0.022": 0.0,
			"0.023": 0.0,
			"0.024": 0.0,
			"0.025": 0.0
		}
	}
}
