{
	 "smiles": "OC1=NN=NN1C1=CC=C(Cl)C=C1", 
	 "Tm": 415.15, 
	 "num_atms": 18, 
	 "gaussian": { 
		 "optdone": 1, 
		 "sigma_profile": "yes", 
		 "theory": "DFT", 
		 "functional": "B3LYP", 
		 "basiset": "6-31G**", 
		 "properties": { 
			 "R2extent": 3555.2896, 
			 "electric_dipole_moment_norm": 3.53304040452, 
			 "electric_quadrupole_moment_norm": 22.441418993, 
			 "total_energy": -1024.11638841, 
			 "HOMO_LUMO_gap": 0.19871, 
			 "cosmo_polarized_energy": -13.95, 
			 "cosmo_cavitation_energy": 25.12, 
			 "cosmo_dispersion_energy": -19.12, 
			 "cosmo_repulsion_energy": 1.49, 
			 "cosmo_total_nonelectrostatic_energy": 7.49, 
			 "SMD_solvation_energy": 2.9 
		},
		"coords": [
			{
				"x": 1.6592497385,
				"y": -0.6137952614,
				"z": -3.3170540335,
				"element": "O" 
			},
			{
				"x": 0.957758799,
				"y": 0.5219560579,
				"z": -3.3455220883,
				"element": "C" 
			},
			{
				"x": 0.8748877566,
				"y": 1.3573304726,
				"z": -4.3561012222,
				"element": "N" 
			},
			{
				"x": 0.0575445693,
				"y": 2.3584709629,
				"z": -3.9263042888,
				"element": "N" 
			},
			{
				"x": -0.343976244,
				"y": 2.1589946923,
				"z": -2.7229250774,
				"element": "N" 
			},
			{
				"x": 0.2184967973,
				"y": 0.972704972,
				"z": -2.3038486654,
				"element": "N" 
			},
			{
				"x": -0.0312180375,
				"y": 0.4607058847,
				"z": -0.9979202427,
				"element": "C" 
			},
			{
				"x": -0.8649137929,
				"y": 1.191694934,
				"z": -0.1429679105,
				"element": "C" 
			},
			{
				"x": -1.1269451164,
				"y": 0.7166370646,
				"z": 1.1382035894,
				"element": "C" 
			},
			{
				"x": -0.5560723229,
				"y": -0.4847666178,
				"z": 1.559518209,
				"element": "C" 
			},
			{
				"x": -0.8872852436,
				"y": -1.0824111403,
				"z": 3.1750893483,
				"element": "Cl" 
			},
			{
				"x": 0.2739348024,
				"y": -1.2150230372,
				"z": 0.7117759741,
				"element": "C" 
			},
			{
				"x": 0.5396944314,
				"y": -0.7433520112,
				"z": -0.5730745729,
				"element": "C" 
			},
			{
				"x": 2.0901395824,
				"y": -0.6966362068,
				"z": -4.1825444454,
				"element": "H" 
			},
			{
				"x": -1.2994608327,
				"y": 2.121802992,
				"z": -0.4861156395,
				"element": "H" 
			},
			{
				"x": -1.7714293222,
				"y": 1.2771621655,
				"z": 1.8057301817,
				"element": "H" 
			},
			{
				"x": 0.7123028768,
				"y": -2.1472789054,
				"z": 1.0491661865,
				"element": "H" 
			},
			{
				"x": 1.1843915583,
				"y": -1.3123970183,
				"z": -1.2291053023,
				"element": "H" 
			}
		],
		 "valence_orbital": [ 
			{
				"type": "occ",
				"energy": -0.30486,
				"method": "rhf"
			},
			{
				"type": "occ",
				"energy": -0.29472,
				"method": "rhf"
			},
			{
				"type": "occ",
				"energy": -0.28704,
				"method": "rhf"
			},
			{
				"type": "occ",
				"energy": -0.28254,
				"method": "rhf"
			},
			{
				"type": "occ",
				"energy": -0.25135,
				"method": "rhf"
			},
			{
				"type": "unocc",
				"energy": -0.05264,
				"method": "rhf"
			},
			{
				"type": "unocc",
				"energy": -0.03317,
				"method": "rhf"
			},
			{
				"type": "unocc",
				"energy": 0.00369,
				"method": "rhf"
			},
			{
				"type": "unocc",
				"energy": 0.01799,
				"method": "rhf"
			},
			{
				"type": "unocc",
				"energy": 0.03802,
				"method": "rhf"
			}
		],
		"cosmo_sigma_profile": { 
			"-0.025": 0.0,
			"-0.024": 0.0,
			"-0.023": 0.0,
			"-0.022": 0.0,
			"-0.021": 0.207438080507,
			"-0.02": 1.28510010261,
			"-0.019": 1.02826798337,
			"-0.018": 0.446832716363,
			"-0.017": 1.0281810115,
			"-0.016": 0.47311422195,
			"-0.015": 0.682080754603,
			"-0.014": 1.41592294924,
			"-0.013": 0.549620649967,
			"-0.012": 0.651836455511,
			"-0.011": 0.47134430096,
			"-0.01": 0.891503925214,
			"-0.009": 0.939778114165,
			"-0.008": 3.43572756387,
			"-0.007": 7.38369696572,
			"-0.006": 9.53221759616,
			"-0.005": 10.2068295953,
			"-0.004": 10.0900876216,
			"-0.003": 10.7684760327,
			"-0.002": 13.0322677509,
			"-0.001": 13.6854926059,
			"0.0": 16.2294858948,
			"0.001": 21.1736473681,
			"0.002": 20.6896131002,
			"0.003": 11.653335551,
			"0.004": 12.7212712793,
			"0.005": 6.19692057158,
			"0.006": 2.70399897035,
			"0.007": 3.91443148014,
			"0.008": 5.44071803927,
			"0.009": 4.85755396711,
			"0.01": 3.60600249863,
			"0.011": 2.88212264637,
			"0.012": 2.5062748788,
			"0.013": 2.09205247863,
			"0.014": 0.746753679825,
			"0.015": 0.0198392477654,
			"0.016": 0.0,
			"0.017": 0.0,
			"0.018": 0.0,
			"0.019": 0.0,
			"0.02": 0.0,
			"0.021": 0.0,
			"0.022": 0.0,
			"0.023": 0.0,
			"0.024": 0.0,
			"0.025": 0.0
		}
	}
}
