{
	 "smiles": "N#CC1=CC=CC=C1C#N", 
	 "Tm": 413.15, 
	 "num_atms": 14, 
	 "gaussian": { 
		 "optdone": 1, 
		 "sigma_profile": "yes", 
		 "theory": "DFT", 
		 "functional": "B3LYP", 
		 "basiset": "6-31G**", 
		 "properties": { 
			 "R2extent": 2104.1182, 
			 "electric_dipole_moment_norm": 7.06641662372, 
			 "electric_quadrupole_moment_norm": 17.2000328985, 
			 "total_energy": -416.724267078, 
			 "HOMO_LUMO_gap": 0.19875, 
			 "cosmo_polarized_energy": -13.91, 
			 "cosmo_cavitation_energy": 20.96, 
			 "cosmo_dispersion_energy": -14.21, 
			 "cosmo_repulsion_energy": 1.16, 
			 "cosmo_total_nonelectrostatic_energy": 7.91, 
			 "SMD_solvation_energy": 6.33 
		},
		"coords": [
			{
				"x": 0.7498552842,
				"y": 2.9652513128,
				"z": -0.7420349632,
				"element": "N" 
			},
			{
				"x": 0.6168173046,
				"y": 2.1761431356,
				"z": 0.1014906076,
				"element": "C" 
			},
			{
				"x": 0.4917630119,
				"y": 1.1963852307,
				"z": 1.1398062239,
				"element": "C" 
			},
			{
				"x": 1.6232979221,
				"y": 0.4748166432,
				"z": 1.5468672282,
				"element": "C" 
			},
			{
				"x": 1.5207471434,
				"y": -0.4814951556,
				"z": 2.5545602749,
				"element": "C" 
			},
			{
				"x": 0.2897615787,
				"y": -0.7283279406,
				"z": 3.1666706593,
				"element": "C" 
			},
			{
				"x": -0.8432702833,
				"y": -0.0197787074,
				"z": 2.7733602145,
				"element": "C" 
			},
			{
				"x": -0.7562336986,
				"y": 0.9461404621,
				"z": 1.7603588515,
				"element": "C" 
			},
			{
				"x": -1.9326841584,
				"y": 1.6649169192,
				"z": 1.3691938192,
				"element": "C" 
			},
			{
				"x": -2.9041794846,
				"y": 2.2313792317,
				"z": 1.0737977046,
				"element": "N" 
			},
			{
				"x": 2.5749545996,
				"y": 0.6729856204,
				"z": 1.0661412763,
				"element": "H" 
			},
			{
				"x": 2.4030058478,
				"y": -1.0339182348,
				"z": 2.8615307058,
				"element": "H" 
			},
			{
				"x": 0.2106825871,
				"y": -1.47351096,
				"z": 3.9516746361,
				"element": "H" 
			},
			{
				"x": -1.8030176545,
				"y": -0.2048875574,
				"z": 3.2430827611,
				"element": "H" 
			}
		],
		 "valence_orbital": [ 
			{
				"type": "occ",
				"energy": -0.36337,
				"method": "rhf"
			},
			{
				"type": "occ",
				"energy": -0.34831,
				"method": "rhf"
			},
			{
				"type": "occ",
				"energy": -0.34433,
				"method": "rhf"
			},
			{
				"type": "occ",
				"energy": -0.29407,
				"method": "rhf"
			},
			{
				"type": "occ",
				"energy": -0.28565,
				"method": "rhf"
			},
			{
				"type": "unocc",
				"energy": -0.0869,
				"method": "rhf"
			},
			{
				"type": "unocc",
				"energy": -0.06066,
				"method": "rhf"
			},
			{
				"type": "unocc",
				"energy": 0.00991,
				"method": "rhf"
			},
			{
				"type": "unocc",
				"energy": 0.02905,
				"method": "rhf"
			},
			{
				"type": "unocc",
				"energy": 0.05164,
				"method": "rhf"
			}
		],
		"cosmo_sigma_profile": { 
			"-0.025": 0.0,
			"-0.024": 0.0,
			"-0.023": 0.0,
			"-0.022": 0.0,
			"-0.021": 0.0,
			"-0.02": 0.0,
			"-0.019": 0.0,
			"-0.018": 0.0,
			"-0.017": 0.0,
			"-0.016": 0.0,
			"-0.015": 0.0,
			"-0.014": 0.0,
			"-0.013": 0.0,
			"-0.012": 0.0,
			"-0.011": 0.0,
			"-0.01": 0.216089208163,
			"-0.009": 4.65028978131,
			"-0.008": 10.6900870444,
			"-0.007": 11.0268619702,
			"-0.006": 8.29815280793,
			"-0.005": 8.07602108728,
			"-0.004": 9.92814111201,
			"-0.003": 13.1218084369,
			"-0.002": 12.1828375415,
			"-0.001": 15.4709298527,
			"0.0": 11.9289312758,
			"0.001": 9.06835059961,
			"0.002": 4.94032118951,
			"0.003": 3.57209938994,
			"0.004": 5.63412590835,
			"0.005": 4.09935326906,
			"0.006": 5.49073308394,
			"0.007": 6.54412709726,
			"0.008": 6.41545632161,
			"0.009": 6.08340060902,
			"0.01": 5.68482528601,
			"0.011": 4.63474866697,
			"0.012": 3.61374690687,
			"0.013": 0.356987978636,
			"0.014": 0.0,
			"0.015": 0.0,
			"0.016": 0.0,
			"0.017": 0.0,
			"0.018": 0.0,
			"0.019": 0.0,
			"0.02": 0.0,
			"0.021": 0.0,
			"0.022": 0.0,
			"0.023": 0.0,
			"0.024": 0.0,
			"0.025": 0.0
		}
	}
}
