{
	 "smiles": "OC(=O)CCCNC1=NC=C(C=C1)C(F)(F)F", 
	 "Tm": 365.15, 
	 "num_atms": 28, 
	 "gaussian": { 
		 "optdone": 1, 
		 "sigma_profile": "yes", 
		 "theory": "DFT", 
		 "functional": "B3LYP", 
		 "basiset": "6-31G**", 
		 "properties": { 
			 "R2extent": 8070.8839, 
			 "electric_dipole_moment_norm": 6.07083809206, 
			 "electric_quadrupole_moment_norm": 13.2258328581, 
			 "total_energy": -947.200205992, 
			 "HOMO_LUMO_gap": 0.19028, 
			 "cosmo_polarized_energy": -13.87, 
			 "cosmo_cavitation_energy": 33.76, 
			 "cosmo_dispersion_energy": -23.91, 
			 "cosmo_repulsion_energy": 1.81, 
			 "cosmo_total_nonelectrostatic_energy": 11.67, 
			 "SMD_solvation_energy": 5.57 
		},
		"coords": [
			{
				"x": -3.3632488317,
				"y": -4.2519285927,
				"z": 1.5223348723,
				"element": "O" 
			},
			{
				"x": -3.0121345282,
				"y": -3.4938345831,
				"z": 0.4633101962,
				"element": "C" 
			},
			{
				"x": -2.4252399057,
				"y": -3.952139556,
				"z": -0.497205414,
				"element": "O" 
			},
			{
				"x": -3.4640884621,
				"y": -2.0582965989,
				"z": 0.632868535,
				"element": "C" 
			},
			{
				"x": -3.1081158378,
				"y": -1.1399730011,
				"z": -0.5449476988,
				"element": "C" 
			},
			{
				"x": -1.6969140312,
				"y": -0.5430095206,
				"z": -0.5046296706,
				"element": "C" 
			},
			{
				"x": -0.6683657007,
				"y": -1.5597657841,
				"z": -0.5865129141,
				"element": "N" 
			},
			{
				"x": 0.6706653284,
				"y": -1.3063564931,
				"z": -0.5459752172,
				"element": "C" 
			},
			{
				"x": 1.470367315,
				"y": -2.377791053,
				"z": -0.7427103296,
				"element": "N" 
			},
			{
				"x": 2.7872151268,
				"y": -2.1952235387,
				"z": -0.7012338314,
				"element": "C" 
			},
			{
				"x": 3.3999952775,
				"y": -0.9617851667,
				"z": -0.4637638104,
				"element": "C" 
			},
			{
				"x": 2.5678921949,
				"y": 0.1466316531,
				"z": -0.2624542912,
				"element": "C" 
			},
			{
				"x": 1.1940986984,
				"y": -0.0119646203,
				"z": -0.3019047527,
				"element": "C" 
			},
			{
				"x": 4.8866725555,
				"y": -0.8138845076,
				"z": -0.4821841592,
				"element": "C" 
			},
			{
				"x": 5.350795762,
				"y": -0.3988441815,
				"z": -1.6882808047,
				"element": "F" 
			},
			{
				"x": 5.5164671414,
				"y": -1.9787595928,
				"z": -0.2060131914,
				"element": "F" 
			},
			{
				"x": 5.3107685648,
				"y": 0.1031980201,
				"z": 0.4217711007,
				"element": "F" 
			},
			{
				"x": -3.0403908415,
				"y": -5.1504472964,
				"z": 1.3378140099,
				"element": "H" 
			},
			{
				"x": -3.0526156279,
				"y": -1.6833245526,
				"z": 1.5780896209,
				"element": "H" 
			},
			{
				"x": -4.5503273602,
				"y": -2.0927742741,
				"z": 0.7808714501,
				"element": "H" 
			},
			{
				"x": -3.250779524,
				"y": -1.6852965915,
				"z": -1.4841441733,
				"element": "H" 
			},
			{
				"x": -3.8115072891,
				"y": -0.3010325931,
				"z": -0.5560906007,
				"element": "H" 
			},
			{
				"x": -1.5794972539,
				"y": 0.0285379664,
				"z": 0.4290076221,
				"element": "H" 
			},
			{
				"x": -1.6003358221,
				"y": 0.1830452916,
				"z": -1.3278424802,
				"element": "H" 
			},
			{
				"x": -0.9348183184,
				"y": -2.5002536935,
				"z": -0.855313028,
				"element": "H" 
			},
			{
				"x": 3.3973305259,
				"y": -3.0819636148,
				"z": -0.8584904623,
				"element": "H" 
			},
			{
				"x": 3.0003318175,
				"y": 1.1237299845,
				"z": -0.0704303544,
				"element": "H" 
			},
			{
				"x": 0.5382790265,
				"y": 0.8365064902,
				"z": -0.1478402229,
				"element": "H" 
			}
		],
		 "valence_orbital": [ 
			{
				"type": "occ",
				"energy": -0.30769,
				"method": "rhf"
			},
			{
				"type": "occ",
				"energy": -0.29542,
				"method": "rhf"
			},
			{
				"type": "occ",
				"energy": -0.28215,
				"method": "rhf"
			},
			{
				"type": "occ",
				"energy": -0.25765,
				"method": "rhf"
			},
			{
				"type": "occ",
				"energy": -0.21077,
				"method": "rhf"
			},
			{
				"type": "unocc",
				"energy": -0.02049,
				"method": "rhf"
			},
			{
				"type": "unocc",
				"energy": -0.00974,
				"method": "rhf"
			},
			{
				"type": "unocc",
				"energy": -0.00174,
				"method": "rhf"
			},
			{
				"type": "unocc",
				"energy": 0.06635,
				"method": "rhf"
			},
			{
				"type": "unocc",
				"energy": 0.07501,
				"method": "rhf"
			}
		],
		"cosmo_sigma_profile": { 
			"-0.025": 0.0,
			"-0.024": 0.0,
			"-0.023": 0.0,
			"-0.022": 0.0,
			"-0.021": 0.0,
			"-0.02": 0.0,
			"-0.019": 0.175699009965,
			"-0.018": 0.724874325534,
			"-0.017": 1.04960475084,
			"-0.016": 0.925286552579,
			"-0.015": 0.512912246966,
			"-0.014": 0.498211175774,
			"-0.013": 0.659251074218,
			"-0.012": 0.996475191027,
			"-0.011": 1.18000206904,
			"-0.01": 0.513193842939,
			"-0.009": 0.227939936763,
			"-0.008": 1.10593913448,
			"-0.007": 5.94206042907,
			"-0.006": 11.9970197055,
			"-0.005": 16.5685005759,
			"-0.004": 23.597733816,
			"-0.003": 23.9325992228,
			"-0.002": 17.187668394,
			"-0.001": 13.8151611516,
			"0.0": 14.4475813993,
			"0.001": 18.2158819318,
			"0.002": 28.3540832345,
			"0.003": 38.2680664942,
			"0.004": 16.1036500841,
			"0.005": 4.20026725715,
			"0.006": 3.51562753351,
			"0.007": 4.02199334835,
			"0.008": 4.16991055391,
			"0.009": 4.31397947673,
			"0.01": 3.09095869784,
			"0.011": 3.75200755255,
			"0.012": 1.43272680719,
			"0.013": 0.698456072166,
			"0.014": 0.831175691045,
			"0.015": 0.714768315927,
			"0.016": 0.0898592928203,
			"0.017": 0.0,
			"0.018": 0.0,
			"0.019": 0.0,
			"0.02": 0.0,
			"0.021": 0.0,
			"0.022": 0.0,
			"0.023": 0.0,
			"0.024": 0.0,
			"0.025": 0.0
		}
	}
}
