{
	 "smiles": "C1COCCOC2=CC=CC=C2OCCOC2=C(OCCOCCO1)C=CC=C2", 
	 "Tm": 323.15, 
	 "num_atms": 57, 
	 "gaussian": { 
		 "optdone": 1, 
		 "sigma_profile": "yes", 
		 "theory": "DFT", 
		 "functional": "B3LYP", 
		 "basiset": "6-31G**", 
		 "properties": { 
			 "R2extent": 11601.2182, 
			 "electric_dipole_moment_norm": 3.61018458531, 
			 "electric_quadrupole_moment_norm": 22.8100877103, 
			 "total_energy": -1381.67947689, 
			 "HOMO_LUMO_gap": 0.21033, 
			 "cosmo_polarized_energy": -19.58, 
			 "cosmo_cavitation_energy": 56.98, 
			 "cosmo_dispersion_energy": -35.36, 
			 "cosmo_repulsion_energy": 2.66, 
			 "cosmo_total_nonelectrostatic_energy": 24.28, 
			 "SMD_solvation_energy": 9.4 
		},
		"coords": [
			{
				"x": 1.7016456256,
				"y": 0.0100884455,
				"z": 3.020649572,
				"element": "C" 
			},
			{
				"x": 0.9646180513,
				"y": -1.3060972299,
				"z": 3.2359093132,
				"element": "C" 
			},
			{
				"x": 1.1303697329,
				"y": -2.2556581945,
				"z": 2.2014807352,
				"element": "O" 
			},
			{
				"x": 0.6221615279,
				"y": -1.8478682433,
				"z": 0.9433149169,
				"element": "C" 
			},
			{
				"x": 0.5446331651,
				"y": -3.0607130501,
				"z": 0.0319818234,
				"element": "C" 
			},
			{
				"x": -0.4662049552,
				"y": -4.0123173818,
				"z": 0.384107628,
				"element": "O" 
			},
			{
				"x": -1.7989184509,
				"y": -3.718516746,
				"z": 0.4065856958,
				"element": "C" 
			},
			{
				"x": -2.5755930844,
				"y": -4.6103290413,
				"z": 1.1651675604,
				"element": "C" 
			},
			{
				"x": -3.9563349677,
				"y": -4.4779519942,
				"z": 1.253995494,
				"element": "C" 
			},
			{
				"x": -4.6013457239,
				"y": -3.425517745,
				"z": 0.5986968806,
				"element": "C" 
			},
			{
				"x": -3.8442507961,
				"y": -2.526829319,
				"z": -0.1468270784,
				"element": "C" 
			},
			{
				"x": -2.4571847065,
				"y": -2.6690242892,
				"z": -0.2673247029,
				"element": "C" 
			},
			{
				"x": -1.7341235456,
				"y": -1.7366070684,
				"z": -0.9934932716,
				"element": "O" 
			},
			{
				"x": -1.9402036826,
				"y": -1.7295411814,
				"z": -2.4072429626,
				"element": "C" 
			},
			{
				"x": -1.1270227124,
				"y": -0.5935526825,
				"z": -3.0028471397,
				"element": "C" 
			},
			{
				"x": -1.6910583813,
				"y": 0.6959676434,
				"z": -2.7444896999,
				"element": "O" 
			},
			{
				"x": -1.5103646309,
				"y": 1.287242494,
				"z": -1.5149319676,
				"element": "C" 
			},
			{
				"x": -0.2381214482,
				"y": 1.5862588458,
				"z": -0.9837442661,
				"element": "C" 
			},
			{
				"x": 0.8587503274,
				"y": 1.1612096288,
				"z": -1.6989153896,
				"element": "O" 
			},
			{
				"x": 2.0299712744,
				"y": 1.9783243576,
				"z": -1.7353463667,
				"element": "C" 
			},
			{
				"x": 3.2108985588,
				"y": 1.3394874023,
				"z": -1.0262172508,
				"element": "C" 
			},
			{
				"x": 3.0207320985,
				"y": 1.34744074,
				"z": 0.3765554879,
				"element": "O" 
			},
			{
				"x": 4.1692052752,
				"y": 0.8940353198,
				"z": 1.0831096563,
				"element": "C" 
			},
			{
				"x": 3.8987367796,
				"y": 0.8468769011,
				"z": 2.5809515017,
				"element": "C" 
			},
			{
				"x": 3.0979802759,
				"y": -0.2497106455,
				"z": 2.9732802261,
				"element": "O" 
			},
			{
				"x": -0.1404833423,
				"y": 2.2698879938,
				"z": 0.2321299233,
				"element": "C" 
			},
			{
				"x": -1.2919562683,
				"y": 2.6894373025,
				"z": 0.9028328387,
				"element": "C" 
			},
			{
				"x": -2.5499533814,
				"y": 2.4154949323,
				"z": 0.3691418807,
				"element": "C" 
			},
			{
				"x": -2.6504685329,
				"y": 1.7091769214,
				"z": -0.8296849839,
				"element": "C" 
			},
			{
				"x": 1.36141651,
				"y": 0.4984727235,
				"z": 2.1006806799,
				"element": "H" 
			},
			{
				"x": 1.4620660282,
				"y": 0.6838565284,
				"z": 3.8620016821,
				"element": "H" 
			},
			{
				"x": 1.3423822831,
				"y": -1.7884114074,
				"z": 4.1429107658,
				"element": "H" 
			},
			{
				"x": -0.10402685,
				"y": -1.0741305184,
				"z": 3.386829153,
				"element": "H" 
			},
			{
				"x": 1.2816877678,
				"y": -1.1079114643,
				"z": 0.4633123516,
				"element": "H" 
			},
			{
				"x": -0.3655747784,
				"y": -1.3785599521,
				"z": 1.0473568726,
				"element": "H" 
			},
			{
				"x": 1.4754913489,
				"y": -3.6273985253,
				"z": 0.1222817321,
				"element": "H" 
			},
			{
				"x": 0.4288071896,
				"y": -2.7328096136,
				"z": -1.0034736616,
				"element": "H" 
			},
			{
				"x": -2.0507297309,
				"y": -5.4107183876,
				"z": 1.6765315627,
				"element": "H" 
			},
			{
				"x": -4.5260920912,
				"y": -5.1887781588,
				"z": 1.8452362223,
				"element": "H" 
			},
			{
				"x": -5.6769786627,
				"y": -3.3003245001,
				"z": 0.6743998628,
				"element": "H" 
			},
			{
				"x": -4.3149165217,
				"y": -1.6851481636,
				"z": -0.6463283939,
				"element": "H" 
			},
			{
				"x": -3.0030023097,
				"y": -1.5988054352,
				"z": -2.6468299958,
				"element": "H" 
			},
			{
				"x": -1.6050175439,
				"y": -2.6837933213,
				"z": -2.8436335825,
				"element": "H" 
			},
			{
				"x": -0.0915998772,
				"y": -0.6434654994,
				"z": -2.657373679,
				"element": "H" 
			},
			{
				"x": -1.1367161957,
				"y": -0.6932776657,
				"z": -4.0930134203,
				"element": "H" 
			},
			{
				"x": 2.295459756,
				"y": 2.0994687474,
				"z": -2.7932186168,
				"element": "H" 
			},
			{
				"x": 1.8241316012,
				"y": 2.9694426217,
				"z": -1.3188436429,
				"element": "H" 
			},
			{
				"x": 4.1164604645,
				"y": 1.9115248263,
				"z": -1.2942010784,
				"element": "H" 
			},
			{
				"x": 3.3493879901,
				"y": 0.3102218977,
				"z": -1.3936496254,
				"element": "H" 
			},
			{
				"x": 4.4568319151,
				"y": -0.1124542592,
				"z": 0.7428948744,
				"element": "H" 
			},
			{
				"x": 5.0182517412,
				"y": 1.5729857507,
				"z": 0.8895313554,
				"element": "H" 
			},
			{
				"x": 3.4656040156,
				"y": 1.8042886893,
				"z": 2.9087318189,
				"element": "H" 
			},
			{
				"x": 4.8649191128,
				"y": 0.7284152974,
				"z": 3.0872740563,
				"element": "H" 
			},
			{
				"x": 0.8417331109,
				"y": 2.4599770957,
				"z": 0.6502245889,
				"element": "H" 
			},
			{
				"x": -1.1974562551,
				"y": 3.2258824869,
				"z": 1.8423164324,
				"element": "H" 
			},
			{
				"x": -3.4497863323,
				"y": 2.7392052318,
				"z": 0.8832043491,
				"element": "H" 
			},
			{
				"x": -3.6154477681,
				"y": 1.4837508589,
				"z": -1.2723787182,
				"element": "H" 
			}
		],
		 "valence_orbital": [ 
			{
				"type": "occ",
				"energy": -0.24131,
				"method": "rhf"
			},
			{
				"type": "occ",
				"energy": -0.23408,
				"method": "rhf"
			},
			{
				"type": "occ",
				"energy": -0.23243,
				"method": "rhf"
			},
			{
				"type": "occ",
				"energy": -0.21143,
				"method": "rhf"
			},
			{
				"type": "occ",
				"energy": -0.20577,
				"method": "rhf"
			},
			{
				"type": "unocc",
				"energy": 0.00456,
				"method": "rhf"
			},
			{
				"type": "unocc",
				"energy": 0.00695,
				"method": "rhf"
			},
			{
				"type": "unocc",
				"energy": 0.01354,
				"method": "rhf"
			},
			{
				"type": "unocc",
				"energy": 0.01882,
				"method": "rhf"
			},
			{
				"type": "unocc",
				"energy": 0.06788,
				"method": "rhf"
			}
		],
		"cosmo_sigma_profile": { 
			"-0.025": 0.0,
			"-0.024": 0.0,
			"-0.023": 0.0,
			"-0.022": 0.0,
			"-0.021": 0.0,
			"-0.02": 0.0,
			"-0.019": 0.0,
			"-0.018": 0.0,
			"-0.017": 0.0,
			"-0.016": 0.0,
			"-0.015": 0.0,
			"-0.014": 0.0,
			"-0.013": 0.0,
			"-0.012": 0.0,
			"-0.011": 0.0,
			"-0.01": 0.0,
			"-0.009": 0.0,
			"-0.008": 0.0,
			"-0.007": 0.353956978959,
			"-0.006": 14.8584392336,
			"-0.005": 46.4586841481,
			"-0.004": 65.7557138388,
			"-0.003": 55.4943785933,
			"-0.002": 35.4393927513,
			"-0.001": 27.2407422233,
			"0.0": 22.4963275745,
			"0.001": 22.053529082,
			"0.002": 25.3868796542,
			"0.003": 26.5164019318,
			"0.004": 27.1072238523,
			"0.005": 24.1848081664,
			"0.006": 16.3414839136,
			"0.007": 7.4812820751,
			"0.008": 7.27454597783,
			"0.009": 5.42919388273,
			"0.01": 5.5638996243,
			"0.011": 4.23433080814,
			"0.012": 3.72122756054,
			"0.013": 3.35030261621,
			"0.014": 1.35425349155,
			"0.015": 0.0978082575456,
			"0.016": 0.0,
			"0.017": 0.0,
			"0.018": 0.0,
			"0.019": 0.0,
			"0.02": 0.0,
			"0.021": 0.0,
			"0.022": 0.0,
			"0.023": 0.0,
			"0.024": 0.0,
			"0.025": 0.0
		}
	}
}
