{
	 "smiles": "[O-][N+](=O)C1=CC=C(NN=C2/C=C(C3=CC=CC=C23)C2=CC=CC=C2)C=C1", 
	 "Tm": 539.15, 
	 "num_atms": 41, 
	 "gaussian": { 
		 "optdone": 1, 
		 "sigma_profile": "yes", 
		 "theory": "DFT", 
		 "functional": "B3LYP", 
		 "basiset": "6-31G**", 
		 "properties": { 
			 "R2extent": 15708.2108, 
			 "electric_dipole_moment_norm": 7.83569116671, 
			 "electric_quadrupole_moment_norm": 47.8634224514, 
			 "total_energy": -1123.85285294, 
			 "HOMO_LUMO_gap": 0.11667, 
			 "cosmo_polarized_energy": -18.43, 
			 "cosmo_cavitation_energy": 47.14, 
			 "cosmo_dispersion_energy": -33.77, 
			 "cosmo_repulsion_energy": 2.49, 
			 "cosmo_total_nonelectrostatic_energy": 15.87, 
			 "SMD_solvation_energy": 8.99 
		},
		"coords": [
			{
				"x": -3.3419007776,
				"y": 1.2983503909,
				"z": -7.5375064942,
				"element": "O" 
			},
			{
				"x": -2.1891782437,
				"y": 0.9690711434,
				"z": -7.245353443,
				"element": "N" 
			},
			{
				"x": -1.2815291702,
				"y": 0.80852273,
				"z": -8.0649369489,
				"element": "O" 
			},
			{
				"x": -1.8795359428,
				"y": 0.7556887777,
				"z": -5.8362366848,
				"element": "C" 
			},
			{
				"x": -2.8844331867,
				"y": 0.9285991483,
				"z": -4.8820512917,
				"element": "C" 
			},
			{
				"x": -2.5878320119,
				"y": 0.7254620813,
				"z": -3.5439942767,
				"element": "C" 
			},
			{
				"x": -1.2871822019,
				"y": 0.348901041,
				"z": -3.1533124893,
				"element": "C" 
			},
			{
				"x": -1.0294448235,
				"y": 0.1550366661,
				"z": -1.8066981602,
				"element": "N" 
			},
			{
				"x": 0.1849996374,
				"y": -0.200640899,
				"z": -1.3652569948,
				"element": "N" 
			},
			{
				"x": 0.3671372245,
				"y": -0.3719792229,
				"z": -0.0890746367,
				"element": "C" 
			},
			{
				"x": -0.5475340659,
				"y": -0.267463115,
				"z": 1.0470498307,
				"element": "C" 
			},
			{
				"x": 0.1225572081,
				"y": -0.5658414396,
				"z": 2.2023124639,
				"element": "C" 
			},
			{
				"x": 1.5346513031,
				"y": -0.8626400897,
				"z": 1.8644749015,
				"element": "C" 
			},
			{
				"x": 2.6416673444,
				"y": -1.1574159464,
				"z": 2.6580889831,
				"element": "C" 
			},
			{
				"x": 3.8793736957,
				"y": -1.3672814431,
				"z": 2.0354458969,
				"element": "C" 
			},
			{
				"x": 4.0111865147,
				"y": -1.27191819,
				"z": 0.6469410378,
				"element": "C" 
			},
			{
				"x": 2.907601724,
				"y": -0.9522707942,
				"z": -0.1543816036,
				"element": "C" 
			},
			{
				"x": 1.6805660545,
				"y": -0.7489498828,
				"z": 0.46262312,
				"element": "C" 
			},
			{
				"x": -0.4667162255,
				"y": -0.5907626403,
				"z": 3.5496213745,
				"element": "C" 
			},
			{
				"x": -1.4221622035,
				"y": 0.3709760283,
				"z": 3.9268129011,
				"element": "C" 
			},
			{
				"x": -2.0085575111,
				"y": 0.3383127737,
				"z": 5.1898337274,
				"element": "C" 
			},
			{
				"x": -1.653718986,
				"y": -0.65711613,
				"z": 6.1034981591,
				"element": "C" 
			},
			{
				"x": -0.7086087563,
				"y": -1.6194095482,
				"z": 5.7428271,
				"element": "C" 
			},
			{
				"x": -0.117401666,
				"y": -1.5862684592,
				"z": 4.4807678627,
				"element": "C" 
			},
			{
				"x": -0.2845359072,
				"y": 0.1781391577,
				"z": -4.1280400015,
				"element": "C" 
			},
			{
				"x": -0.5848449185,
				"y": 0.38239503,
				"z": -5.4654201146,
				"element": "C" 
			},
			{
				"x": -3.8768573338,
				"y": 1.2180791317,
				"z": -5.2037286835,
				"element": "H" 
			},
			{
				"x": -3.3621877504,
				"y": 0.8570055758,
				"z": -2.7927900196,
				"element": "H" 
			},
			{
				"x": -1.7922169398,
				"y": 0.2946519694,
				"z": -1.1511680679,
				"element": "H" 
			},
			{
				"x": -1.6070982506,
				"y": -0.04726742,
				"z": 1.0005517244,
				"element": "H" 
			},
			{
				"x": 2.5590522761,
				"y": -1.2119505959,
				"z": 3.738576948,
				"element": "H" 
			},
			{
				"x": 4.7490544994,
				"y": -1.6016135588,
				"z": 2.6424110353,
				"element": "H" 
			},
			{
				"x": 4.9802072534,
				"y": -1.4386794075,
				"z": 0.1858157039,
				"element": "H" 
			},
			{
				"x": 3.0047424887,
				"y": -0.8593806412,
				"z": -1.2315449581,
				"element": "H" 
			},
			{
				"x": -1.681490484,
				"y": 1.1611846583,
				"z": 3.2283854987,
				"element": "H" 
			},
			{
				"x": -2.7373640881,
				"y": 1.0953322551,
				"z": 5.4649498839,
				"element": "H" 
			},
			{
				"x": -2.1089426421,
				"y": -0.6810274844,
				"z": 7.0892190046,
				"element": "H" 
			},
			{
				"x": -0.4337707588,
				"y": -2.402069003,
				"z": 6.4440829567,
				"element": "H" 
			},
			{
				"x": 0.595190299,
				"y": -2.354583009,
				"z": 4.1995847226,
				"element": "H" 
			},
			{
				"x": 0.7101659977,
				"y": -0.111508506,
				"z": -3.8155772378,
				"element": "H" 
			},
			{
				"x": 0.1675913251,
				"y": 0.2578288675,
				"z": -6.2342027297,
				"element": "H" 
			}
		],
		 "valence_orbital": [ 
			{
				"type": "occ",
				"energy": -0.26469,
				"method": "rhf"
			},
			{
				"type": "occ",
				"energy": -0.26387,
				"method": "rhf"
			},
			{
				"type": "occ",
				"energy": -0.25913,
				"method": "rhf"
			},
			{
				"type": "occ",
				"energy": -0.22898,
				"method": "rhf"
			},
			{
				"type": "occ",
				"energy": -0.21022,
				"method": "rhf"
			},
			{
				"type": "unocc",
				"energy": -0.09355,
				"method": "rhf"
			},
			{
				"type": "unocc",
				"energy": -0.06768,
				"method": "rhf"
			},
			{
				"type": "unocc",
				"energy": -0.02396,
				"method": "rhf"
			},
			{
				"type": "unocc",
				"energy": -0.01891,
				"method": "rhf"
			},
			{
				"type": "unocc",
				"energy": -0.01528,
				"method": "rhf"
			}
		],
		"cosmo_sigma_profile": { 
			"-0.025": 0.0,
			"-0.024": 0.0,
			"-0.023": 0.0,
			"-0.022": 0.0,
			"-0.021": 0.0,
			"-0.02": 0.0,
			"-0.019": 0.0,
			"-0.018": 0.0,
			"-0.017": 0.0702178004861,
			"-0.016": 0.935428798933,
			"-0.015": 1.52112955781,
			"-0.014": 1.8361555552,
			"-0.013": 1.42330098656,
			"-0.012": 1.77809543562,
			"-0.011": 1.39428220332,
			"-0.01": 1.97293420644,
			"-0.009": 1.73438320994,
			"-0.008": 3.1245150417,
			"-0.007": 5.72431144922,
			"-0.006": 16.9660675027,
			"-0.005": 27.2846417745,
			"-0.004": 28.8800994425,
			"-0.003": 24.5363641822,
			"-0.002": 21.4281482742,
			"-0.001": 23.037241347,
			"0.0": 27.8760929184,
			"0.001": 34.0870962126,
			"0.002": 39.2446145611,
			"0.003": 29.1031017944,
			"0.004": 25.7795091704,
			"0.005": 24.5899423682,
			"0.006": 8.48519881788,
			"0.007": 4.60531173262,
			"0.008": 9.57625837994,
			"0.009": 6.27534309109,
			"0.01": 4.3028545839,
			"0.011": 2.40084250547,
			"0.012": 0.0558137946151,
			"0.013": 0.0,
			"0.014": 0.0,
			"0.015": 0.0,
			"0.016": 0.0,
			"0.017": 0.0,
			"0.018": 0.0,
			"0.019": 0.0,
			"0.02": 0.0,
			"0.021": 0.0,
			"0.022": 0.0,
			"0.023": 0.0,
			"0.024": 0.0,
			"0.025": 0.0
		}
	}
}
