{
	 "smiles": "CCC(O)(C(N)=O)C1=CC=C(Br)C=C1", 
	 "Tm": 420.15, 
	 "num_atms": 26, 
	 "gaussian": { 
		 "optdone": 1, 
		 "sigma_profile": "yes", 
		 "theory": "DFT", 
		 "functional": "B3LYP", 
		 "basiset": "6-31G**", 
		 "properties": { 
			 "R2extent": 5273.7133, 
			 "electric_dipole_moment_norm": 3.17807874194, 
			 "electric_quadrupole_moment_norm": 12.3711403355, 
			 "total_energy": -3164.91688633, 
			 "HOMO_LUMO_gap": 0.21456, 
			 "cosmo_polarized_energy": -13.95, 
			 "cosmo_cavitation_energy": 30.9, 
			 "cosmo_dispersion_energy": -22.47, 
			 "cosmo_repulsion_energy": 1.78, 
			 "cosmo_total_nonelectrostatic_energy": 10.22, 
			 "SMD_solvation_energy": 4.76 
		},
		"coords": [
			{
				"x": -2.6475169001,
				"y": 1.7133035923,
				"z": -0.5176261987,
				"element": "C" 
			},
			{
				"x": -1.1833930146,
				"y": 2.1762934399,
				"z": -0.4942488117,
				"element": "C" 
			},
			{
				"x": -0.1990284703,
				"y": 1.5264096218,
				"z": 0.524382841,
				"element": "C" 
			},
			{
				"x": 0.9260308587,
				"y": 2.3835383302,
				"z": 0.6536432812,
				"element": "O" 
			},
			{
				"x": -0.8750516045,
				"y": 1.5061700585,
				"z": 1.9291893857,
				"element": "C" 
			},
			{
				"x": -1.6263177494,
				"y": 0.4283906891,
				"z": 2.2573837888,
				"element": "N" 
			},
			{
				"x": -0.7382522698,
				"y": 2.480976207,
				"z": 2.6639674886,
				"element": "O" 
			},
			{
				"x": 0.3318072073,
				"y": 0.1449188208,
				"z": 0.1349596468,
				"element": "C" 
			},
			{
				"x": -0.2012900415,
				"y": -0.634466199,
				"z": -0.8978738924,
				"element": "C" 
			},
			{
				"x": 0.3225691399,
				"y": -1.8961864182,
				"z": -1.1982061098,
				"element": "C" 
			},
			{
				"x": 1.3951457533,
				"y": -2.3810699274,
				"z": -0.4580941173,
				"element": "C" 
			},
			{
				"x": 2.1155583819,
				"y": -4.1059689076,
				"z": -0.8569281947,
				"element": "Br" 
			},
			{
				"x": 1.9570735363,
				"y": -1.6208843562,
				"z": 0.5690523772,
				"element": "C" 
			},
			{
				"x": 1.4246493722,
				"y": -0.367551421,
				"z": 0.854051902,
				"element": "C" 
			},
			{
				"x": -3.1865759941,
				"y": 2.2449700687,
				"z": -1.3082036837,
				"element": "H" 
			},
			{
				"x": -3.1526417368,
				"y": 1.9309514259,
				"z": 0.4275233437,
				"element": "H" 
			},
			{
				"x": -2.7627353262,
				"y": 0.6421249934,
				"z": -0.7080825123,
				"element": "H" 
			},
			{
				"x": -1.1638238644,
				"y": 3.2447467982,
				"z": -0.2576244611,
				"element": "H" 
			},
			{
				"x": -0.7281137555,
				"y": 2.0772090205,
				"z": -1.4859248295,
				"element": "H" 
			},
			{
				"x": 0.6947903058,
				"y": 2.9679467569,
				"z": 1.4009155301,
				"element": "H" 
			},
			{
				"x": -1.5997422965,
				"y": -0.4126604408,
				"z": 1.7030651334,
				"element": "H" 
			},
			{
				"x": -2.0466338817,
				"y": 0.4012366819,
				"z": 3.1746551475,
				"element": "H" 
			},
			{
				"x": -1.0231980876,
				"y": -0.2656893468,
				"z": -1.4999304392,
				"element": "H" 
			},
			{
				"x": -0.0974062072,
				"y": -2.4867964733,
				"z": -2.004462571,
				"element": "H" 
			},
			{
				"x": 2.8021078334,
				"y": -2.0026236074,
				"z": 1.1308331145,
				"element": "H" 
			},
			{
				"x": 1.8729888115,
				"y": 0.2425105924,
				"z": 1.631082841,
				"element": "H" 
			}
		],
		 "valence_orbital": [ 
			{
				"type": "occ",
				"energy": -0.28703,
				"method": "rhf"
			},
			{
				"type": "occ",
				"energy": -0.28129,
				"method": "rhf"
			},
			{
				"type": "occ",
				"energy": -0.26948,
				"method": "rhf"
			},
			{
				"type": "occ",
				"energy": -0.2662,
				"method": "rhf"
			},
			{
				"type": "occ",
				"energy": -0.23879,
				"method": "rhf"
			},
			{
				"type": "unocc",
				"energy": -0.02423,
				"method": "rhf"
			},
			{
				"type": "unocc",
				"energy": -0.02091,
				"method": "rhf"
			},
			{
				"type": "unocc",
				"energy": 0.00383,
				"method": "rhf"
			},
			{
				"type": "unocc",
				"energy": 0.01256,
				"method": "rhf"
			},
			{
				"type": "unocc",
				"energy": 0.06964,
				"method": "rhf"
			}
		],
		"cosmo_sigma_profile": { 
			"-0.025": 0.0,
			"-0.024": 0.0,
			"-0.023": 0.0,
			"-0.022": 0.0,
			"-0.021": 0.0,
			"-0.02": 0.0,
			"-0.019": 0.0,
			"-0.018": 0.0,
			"-0.017": 0.0,
			"-0.016": 0.0,
			"-0.015": 0.43788648087,
			"-0.014": 1.6285503833,
			"-0.013": 1.46358195538,
			"-0.012": 2.03559715776,
			"-0.011": 2.46687883015,
			"-0.01": 2.5004863437,
			"-0.009": 2.46720173545,
			"-0.008": 2.75468008599,
			"-0.007": 6.02153869346,
			"-0.006": 9.38782764037,
			"-0.005": 12.2777307955,
			"-0.004": 14.1893620518,
			"-0.003": 18.1523032342,
			"-0.002": 19.260914043,
			"-0.001": 20.3630423183,
			"0.0": 20.3974474948,
			"0.001": 20.8072114296,
			"0.002": 19.6425208933,
			"0.003": 19.5042086018,
			"0.004": 15.7654090765,
			"0.005": 9.56216614814,
			"0.006": 2.6709748582,
			"0.007": 2.08600916968,
			"0.008": 2.20994301875,
			"0.009": 2.75073868475,
			"0.01": 3.15090174881,
			"0.011": 2.63812640261,
			"0.012": 4.51782630013,
			"0.013": 4.3668373686,
			"0.014": 1.76281995993,
			"0.015": 0.0228807872632,
			"0.016": 0.0,
			"0.017": 0.0,
			"0.018": 0.0,
			"0.019": 0.0,
			"0.02": 0.0,
			"0.021": 0.0,
			"0.022": 0.0,
			"0.023": 0.0,
			"0.024": 0.0,
			"0.025": 0.0
		}
	}
}
