{
	 "smiles": "CCCC1=C(C=NN1C1=CC=C(Cl)C=C1)C(=O)OCC", 
	 "Tm": 337.15, 
	 "num_atms": 37, 
	 "gaussian": { 
		 "optdone": 1, 
		 "sigma_profile": "yes", 
		 "theory": "DFT", 
		 "functional": "B3LYP", 
		 "basiset": "6-31G**", 
		 "properties": { 
			 "R2extent": 10487.7895, 
			 "electric_dipole_moment_norm": 3.58011369792, 
			 "electric_quadrupole_moment_norm": 12.2247024749, 
			 "total_energy": -1301.99507582, 
			 "HOMO_LUMO_gap": 0.20373, 
			 "cosmo_polarized_energy": -11.58, 
			 "cosmo_cavitation_energy": 41.8, 
			 "cosmo_dispersion_energy": -28.87, 
			 "cosmo_repulsion_energy": 2.24, 
			 "cosmo_total_nonelectrostatic_energy": 15.17, 
			 "SMD_solvation_energy": 7.01 
		},
		"coords": [
			{
				"x": -0.2850079476,
				"y": 1.7475159699,
				"z": 1.1656455772,
				"element": "C" 
			},
			{
				"x": -0.7679139103,
				"y": 0.9227277645,
				"z": -0.0299263717,
				"element": "C" 
			},
			{
				"x": -0.8048588068,
				"y": -0.609943034,
				"z": 0.1843786582,
				"element": "C" 
			},
			{
				"x": 0.536938697,
				"y": -1.2614217353,
				"z": 0.3768872213,
				"element": "C" 
			},
			{
				"x": 1.5988863584,
				"y": -1.4341359491,
				"z": -0.5182851884,
				"element": "C" 
			},
			{
				"x": 2.5735938521,
				"y": -2.1743712893,
				"z": 0.1960411942,
				"element": "C" 
			},
			{
				"x": 2.1783747673,
				"y": -2.4635305288,
				"z": 1.4207962845,
				"element": "N" 
			},
			{
				"x": 0.9369221266,
				"y": -1.8894025303,
				"z": 1.5300981632,
				"element": "N" 
			},
			{
				"x": 0.2078956999,
				"y": -2.1515948914,
				"z": 2.7294054922,
				"element": "C" 
			},
			{
				"x": -0.3848323083,
				"y": -1.1237376961,
				"z": 3.4657181759,
				"element": "C" 
			},
			{
				"x": -1.0838620478,
				"y": -1.4163169679,
				"z": 4.6371148666,
				"element": "C" 
			},
			{
				"x": -1.1630812587,
				"y": -2.7370347972,
				"z": 5.0742663673,
				"element": "C" 
			},
			{
				"x": -2.0371931232,
				"y": -3.1080397701,
				"z": 6.5508749819,
				"element": "Cl" 
			},
			{
				"x": -0.5501804424,
				"y": -3.7684777781,
				"z": 4.3608877286,
				"element": "C" 
			},
			{
				"x": 0.1338079098,
				"y": -3.4724294537,
				"z": 3.1854006012,
				"element": "C" 
			},
			{
				"x": 1.7610188786,
				"y": -1.0723874268,
				"z": -1.9304350255,
				"element": "C" 
			},
			{
				"x": 2.7881729754,
				"y": -1.2539353812,
				"z": -2.558641991,
				"element": "O" 
			},
			{
				"x": 0.6375172383,
				"y": -0.5360643443,
				"z": -2.4785461624,
				"element": "O" 
			},
			{
				"x": 0.7149813767,
				"y": -0.1852275691,
				"z": -3.8813118989,
				"element": "C" 
			},
			{
				"x": 0.4166819475,
				"y": -1.3832088383,
				"z": -4.7703828531,
				"element": "C" 
			},
			{
				"x": -0.2359958844,
				"y": 2.8098006709,
				"z": 0.9056688659,
				"element": "H" 
			},
			{
				"x": -0.963307966,
				"y": 1.6567920816,
				"z": 2.0217418387,
				"element": "H" 
			},
			{
				"x": 0.7175138934,
				"y": 1.4446290039,
				"z": 1.4877461776,
				"element": "H" 
			},
			{
				"x": -0.1382806489,
				"y": 1.1296505494,
				"z": -0.8988611004,
				"element": "H" 
			},
			{
				"x": -1.7828397645,
				"y": 1.2385616759,
				"z": -0.3013578807,
				"element": "H" 
			},
			{
				"x": -1.4553748162,
				"y": -0.8557019328,
				"z": 1.0291332262,
				"element": "H" 
			},
			{
				"x": -1.2556830249,
				"y": -1.0571681805,
				"z": -0.7075853938,
				"element": "H" 
			},
			{
				"x": 3.5386545419,
				"y": -2.4994541745,
				"z": -0.1668861738,
				"element": "H" 
			},
			{
				"x": -0.2820799147,
				"y": -0.0961498041,
				"z": 3.1421451858,
				"element": "H" 
			},
			{
				"x": -1.5464365994,
				"y": -0.6228885649,
				"z": 5.2131315332,
				"element": "H" 
			},
			{
				"x": -0.6124640337,
				"y": -4.7897920346,
				"z": 4.7191918648,
				"element": "H" 
			},
			{
				"x": 0.6230253803,
				"y": -4.2553920154,
				"z": 2.6179774663,
				"element": "H" 
			},
			{
				"x": 1.7079051608,
				"y": 0.2201947921,
				"z": -4.0884068753,
				"element": "H" 
			},
			{
				"x": -0.033031063,
				"y": 0.6017636884,
				"z": -4.0055140857,
				"element": "H" 
			},
			{
				"x": 0.4067665817,
				"y": -1.0729684384,
				"z": -5.8206875863,
				"element": "H" 
			},
			{
				"x": -0.5600765056,
				"y": -1.8140436033,
				"z": -4.5306326285,
				"element": "H" 
			},
			{
				"x": 1.1836426806,
				"y": -2.1513174673,
				"z": -4.6467902552,
				"element": "H" 
			}
		],
		 "valence_orbital": [ 
			{
				"type": "occ",
				"energy": -0.28078,
				"method": "rhf"
			},
			{
				"type": "occ",
				"energy": -0.27603,
				"method": "rhf"
			},
			{
				"type": "occ",
				"energy": -0.27111,
				"method": "rhf"
			},
			{
				"type": "occ",
				"energy": -0.25042,
				"method": "rhf"
			},
			{
				"type": "occ",
				"energy": -0.24178,
				"method": "rhf"
			},
			{
				"type": "unocc",
				"energy": -0.03805,
				"method": "rhf"
			},
			{
				"type": "unocc",
				"energy": -0.02714,
				"method": "rhf"
			},
			{
				"type": "unocc",
				"energy": -0.01418,
				"method": "rhf"
			},
			{
				"type": "unocc",
				"energy": 0.01794,
				"method": "rhf"
			},
			{
				"type": "unocc",
				"energy": 0.02323,
				"method": "rhf"
			}
		],
		"cosmo_sigma_profile": { 
			"-0.025": 0.0,
			"-0.024": 0.0,
			"-0.023": 0.0,
			"-0.022": 0.0,
			"-0.021": 0.0,
			"-0.02": 0.0,
			"-0.019": 0.0,
			"-0.018": 0.0,
			"-0.017": 0.0,
			"-0.016": 0.0,
			"-0.015": 0.0,
			"-0.014": 0.0,
			"-0.013": 0.0,
			"-0.012": 0.0,
			"-0.011": 0.0,
			"-0.01": 0.0,
			"-0.009": 0.00630843166091,
			"-0.008": 2.82051038237,
			"-0.007": 6.88352541772,
			"-0.006": 10.6384948355,
			"-0.005": 14.2016439627,
			"-0.004": 22.3263773434,
			"-0.003": 33.8294652009,
			"-0.002": 35.1737610595,
			"-0.001": 38.4862319225,
			"0.0": 37.6162057995,
			"0.001": 34.8595979402,
			"0.002": 30.2124108667,
			"0.003": 16.3712006532,
			"0.004": 16.4323314818,
			"0.005": 7.68574934075,
			"0.006": 3.97317690148,
			"0.007": 3.12462054949,
			"0.008": 2.25734335058,
			"0.009": 2.77415738838,
			"0.01": 3.11326469537,
			"0.011": 3.09934402198,
			"0.012": 5.16958005368,
			"0.013": 2.22102018287,
			"0.014": 0.756775088488,
			"0.015": 0.208059454361,
			"0.016": 0.0,
			"0.017": 0.0,
			"0.018": 0.0,
			"0.019": 0.0,
			"0.02": 0.0,
			"0.021": 0.0,
			"0.022": 0.0,
			"0.023": 0.0,
			"0.024": 0.0,
			"0.025": 0.0
		}
	}
}
