{
	 "smiles": "CCOC(=O)C1=CC=CN=C1C1=NC=CC=C1C(=O)OCC", 
	 "Tm": 363.15, 
	 "num_atms": 38, 
	 "gaussian": { 
		 "optdone": 1, 
		 "sigma_profile": "yes", 
		 "theory": "DFT", 
		 "functional": "B3LYP", 
		 "basiset": "6-31G**", 
		 "properties": { 
			 "R2extent": 6534.9879, 
			 "electric_dipole_moment_norm": 1.82724116361, 
			 "electric_quadrupole_moment_norm": 21.2774367516, 
			 "total_energy": -1029.76391356, 
			 "HOMO_LUMO_gap": 0.19474, 
			 "cosmo_polarized_energy": -16.31, 
			 "cosmo_cavitation_energy": 43.17, 
			 "cosmo_dispersion_energy": -27.61, 
			 "cosmo_repulsion_energy": 2.15, 
			 "cosmo_total_nonelectrostatic_energy": 17.72, 
			 "SMD_solvation_energy": 7.4 
		},
		"coords": [
			{
				"x": -4.7313799892,
				"y": 0.7387089116,
				"z": -1.1699088207,
				"element": "C" 
			},
			{
				"x": -4.0316098085,
				"y": -0.6034168271,
				"z": -1.3215906727,
				"element": "C" 
			},
			{
				"x": -2.5963027958,
				"y": -0.4467508537,
				"z": -1.4386870037,
				"element": "O" 
			},
			{
				"x": -2.1217944219,
				"y": -0.1724835903,
				"z": -2.6680665548,
				"element": "C" 
			},
			{
				"x": -2.8132793852,
				"y": -0.1057789985,
				"z": -3.6664184991,
				"element": "O" 
			},
			{
				"x": -0.6300802086,
				"y": -0.0542925379,
				"z": -2.7025001997,
				"element": "C" 
			},
			{
				"x": -0.0072852578,
				"y": -0.4226798205,
				"z": -3.9001737939,
				"element": "C" 
			},
			{
				"x": 1.380012956,
				"y": -0.413054429,
				"z": -3.9857418043,
				"element": "C" 
			},
			{
				"x": 2.1015197558,
				"y": -0.0309218785,
				"z": -2.8542049212,
				"element": "C" 
			},
			{
				"x": 1.5275490479,
				"y": 0.3595721856,
				"z": -1.7131030485,
				"element": "N" 
			},
			{
				"x": 0.1882604275,
				"y": 0.3633111203,
				"z": -1.6336133676,
				"element": "C" 
			},
			{
				"x": -0.3519593092,
				"y": 0.975547655,
				"z": -0.3774637498,
				"element": "C" 
			},
			{
				"x": -1.1582797088,
				"y": 2.028933309,
				"z": -0.5750324065,
				"element": "N" 
			},
			{
				"x": -1.5637710995,
				"y": 2.7326262866,
				"z": 0.4859113905,
				"element": "C" 
			},
			{
				"x": -1.1735049388,
				"y": 2.4453474695,
				"z": 1.7942926678,
				"element": "C" 
			},
			{
				"x": -0.3496985972,
				"y": 1.3450252782,
				"z": 2.0013185953,
				"element": "C" 
			},
			{
				"x": 0.0585337936,
				"y": 0.5721503241,
				"z": 0.9092610544,
				"element": "C" 
			},
			{
				"x": 0.8905689216,
				"y": -0.6329520034,
				"z": 1.2164101059,
				"element": "C" 
			},
			{
				"x": 1.5964397614,
				"y": -0.7213277113,
				"z": 2.2023011619,
				"element": "O" 
			},
			{
				"x": 0.7170289687,
				"y": -1.6290942246,
				"z": 0.3298121939,
				"element": "O" 
			},
			{
				"x": 1.5165358374,
				"y": -2.8137920218,
				"z": 0.5486985289,
				"element": "C" 
			},
			{
				"x": 1.1994895283,
				"y": -3.7880591159,
				"z": -0.5697263822,
				"element": "C" 
			},
			{
				"x": -4.3386637935,
				"y": 1.2881592126,
				"z": -0.3102219842,
				"element": "H" 
			},
			{
				"x": -4.5964486533,
				"y": 1.3455466483,
				"z": -2.0681333465,
				"element": "H" 
			},
			{
				"x": -5.8044118913,
				"y": 0.5790005202,
				"z": -1.0190336955,
				"element": "H" 
			},
			{
				"x": -4.159947379,
				"y": -1.2260668134,
				"z": -0.4331276429,
				"element": "H" 
			},
			{
				"x": -4.3971980753,
				"y": -1.1416558841,
				"z": -2.1993755487,
				"element": "H" 
			},
			{
				"x": -0.6300600977,
				"y": -0.7183163905,
				"z": -4.7380008661,
				"element": "H" 
			},
			{
				"x": 1.8915020346,
				"y": -0.6974663589,
				"z": -4.8995054671,
				"element": "H" 
			},
			{
				"x": 3.1901064014,
				"y": -0.026328961,
				"z": -2.8660295048,
				"element": "H" 
			},
			{
				"x": -2.2227276056,
				"y": 3.5734331301,
				"z": 0.2760981411,
				"element": "H" 
			},
			{
				"x": -1.5096234958,
				"y": 3.0627773983,
				"z": 2.6208888773,
				"element": "H" 
			},
			{
				"x": -0.0144138216,
				"y": 1.0595180211,
				"z": 2.9929961725,
				"element": "H" 
			},
			{
				"x": 2.5725738252,
				"y": -2.5266832999,
				"z": 0.5594684115,
				"element": "H" 
			},
			{
				"x": 1.2762171978,
				"y": -3.2235979277,
				"z": 1.5348083479,
				"element": "H" 
			},
			{
				"x": 1.4433850965,
				"y": -3.3556386684,
				"z": -1.5442153661,
				"element": "H" 
			},
			{
				"x": 1.7855993167,
				"y": -4.7034021557,
				"z": -0.4410341775,
				"element": "H" 
			},
			{
				"x": 0.1388174631,
				"y": -4.0550969988,
				"z": -0.5671568249,
				"element": "H" 
			}
		],
		 "valence_orbital": [ 
			{
				"type": "occ",
				"energy": -0.27817,
				"method": "rhf"
			},
			{
				"type": "occ",
				"energy": -0.27364,
				"method": "rhf"
			},
			{
				"type": "occ",
				"energy": -0.26347,
				"method": "rhf"
			},
			{
				"type": "occ",
				"energy": -0.25369,
				"method": "rhf"
			},
			{
				"type": "occ",
				"energy": -0.25354,
				"method": "rhf"
			},
			{
				"type": "unocc",
				"energy": -0.0588,
				"method": "rhf"
			},
			{
				"type": "unocc",
				"energy": -0.04299,
				"method": "rhf"
			},
			{
				"type": "unocc",
				"energy": -0.03984,
				"method": "rhf"
			},
			{
				"type": "unocc",
				"energy": -0.00901,
				"method": "rhf"
			},
			{
				"type": "unocc",
				"energy": 0.04009,
				"method": "rhf"
			}
		],
		"cosmo_sigma_profile": { 
			"-0.025": 0.0,
			"-0.024": 0.0,
			"-0.023": 0.0,
			"-0.022": 0.0,
			"-0.021": 0.0,
			"-0.02": 0.0,
			"-0.019": 0.0,
			"-0.018": 0.0,
			"-0.017": 0.0,
			"-0.016": 0.0,
			"-0.015": 0.0,
			"-0.014": 0.0,
			"-0.013": 0.0,
			"-0.012": 0.0,
			"-0.011": 0.0,
			"-0.01": 0.0,
			"-0.009": 0.0,
			"-0.008": 3.38850372978,
			"-0.007": 12.1985101104,
			"-0.006": 16.3449974311,
			"-0.005": 22.7295824002,
			"-0.004": 27.573702245,
			"-0.003": 33.8762599962,
			"-0.002": 31.214704214,
			"-0.001": 29.4476379176,
			"0.0": 36.9276938223,
			"0.001": 31.7802180017,
			"0.002": 16.1966103323,
			"0.003": 14.038397248,
			"0.004": 11.0201890593,
			"0.005": 9.72684248914,
			"0.006": 8.61523761293,
			"0.007": 7.02740909155,
			"0.008": 5.498436729,
			"0.009": 4.44535589014,
			"0.01": 5.65456092424,
			"0.011": 7.00636794763,
			"0.012": 7.90808729808,
			"0.013": 0.963558018976,
			"0.014": 0.340120267365,
			"0.015": 0.0,
			"0.016": 0.0,
			"0.017": 0.0,
			"0.018": 0.0,
			"0.019": 0.0,
			"0.02": 0.0,
			"0.021": 0.0,
			"0.022": 0.0,
			"0.023": 0.0,
			"0.024": 0.0,
			"0.025": 0.0
		}
	}
}
