{
	 "smiles": "ON=CC1=NC=NC=C1", 
	 "Tm": 424.15, 
	 "num_atms": 14, 
	 "gaussian": { 
		 "optdone": 1, 
		 "sigma_profile": "yes", 
		 "theory": "DFT", 
		 "functional": "B3LYP", 
		 "basiset": "6-31G**", 
		 "properties": { 
			 "R2extent": 1709.0153, 
			 "electric_dipole_moment_norm": 3.62049758182, 
			 "electric_quadrupole_moment_norm": 8.51359652967, 
			 "total_energy": -432.950792598, 
			 "HOMO_LUMO_gap": 0.17298, 
			 "cosmo_polarized_energy": -11.29, 
			 "cosmo_cavitation_energy": 18.63, 
			 "cosmo_dispersion_energy": -14.21, 
			 "cosmo_repulsion_energy": 1.15, 
			 "cosmo_total_nonelectrostatic_energy": 5.57, 
			 "SMD_solvation_energy": 1.78 
		},
		"coords": [
			{
				"x": 1.1765047526,
				"y": -1.2243592204,
				"z": 0.8878926729,
				"element": "O" 
			},
			{
				"x": -0.096238743,
				"y": -1.2257771784,
				"z": 0.4291737716,
				"element": "N" 
			},
			{
				"x": -0.7284940814,
				"y": -0.09735533,
				"z": 0.3278758454,
				"element": "C" 
			},
			{
				"x": -0.2580926875,
				"y": 1.2472186206,
				"z": 0.6481366896,
				"element": "C" 
			},
			{
				"x": 1.0036484255,
				"y": 1.3925114268,
				"z": 1.1191017006,
				"element": "N" 
			},
			{
				"x": 1.4163117223,
				"y": 2.6305978233,
				"z": 1.4067127797,
				"element": "C" 
			},
			{
				"x": 0.7124731923,
				"y": 3.7551668708,
				"z": 1.2792001098,
				"element": "N" 
			},
			{
				"x": -0.5384488666,
				"y": 3.6085651178,
				"z": 0.8119580531,
				"element": "C" 
			},
			{
				"x": -1.0786418095,
				"y": 2.3739841465,
				"z": 0.4788273217,
				"element": "C" 
			},
			{
				"x": 1.4426318125,
				"y": -0.2853553061,
				"z": 1.089120929,
				"element": "H" 
			},
			{
				"x": -1.7434812784,
				"y": -0.1954037897,
				"z": -0.0488018914,
				"element": "H" 
			},
			{
				"x": 2.4324208489,
				"y": 2.7245263146,
				"z": 1.7834046467,
				"element": "H" 
			},
			{
				"x": -1.1227980961,
				"y": 4.5202538826,
				"z": 0.703641086,
				"element": "H" 
			},
			{
				"x": -2.0916951914,
				"y": 2.2792266216,
				"z": 0.1031562853,
				"element": "H" 
			}
		],
		 "valence_orbital": [ 
			{
				"type": "occ",
				"energy": -0.34001,
				"method": "rhf"
			},
			{
				"type": "occ",
				"energy": -0.31883,
				"method": "rhf"
			},
			{
				"type": "occ",
				"energy": -0.30038,
				"method": "rhf"
			},
			{
				"type": "occ",
				"energy": -0.26006,
				"method": "rhf"
			},
			{
				"type": "occ",
				"energy": -0.25725,
				"method": "rhf"
			},
			{
				"type": "unocc",
				"energy": -0.08427,
				"method": "rhf"
			},
			{
				"type": "unocc",
				"energy": -0.05288,
				"method": "rhf"
			},
			{
				"type": "unocc",
				"energy": 0.02618,
				"method": "rhf"
			},
			{
				"type": "unocc",
				"energy": 0.0829,
				"method": "rhf"
			},
			{
				"type": "unocc",
				"energy": 0.11743,
				"method": "rhf"
			}
		],
		"cosmo_sigma_profile": { 
			"-0.025": 0.0,
			"-0.024": 0.0,
			"-0.023": 0.0,
			"-0.022": 0.0,
			"-0.021": 0.0,
			"-0.02": 0.0,
			"-0.019": 0.0,
			"-0.018": 0.0,
			"-0.017": 0.0,
			"-0.016": 0.0,
			"-0.015": 0.0,
			"-0.014": 0.0,
			"-0.013": 0.0,
			"-0.012": 0.0,
			"-0.011": 0.0,
			"-0.01": 0.860441646645,
			"-0.009": 5.13924177334,
			"-0.008": 10.0420600758,
			"-0.007": 7.35089028146,
			"-0.006": 6.20840745568,
			"-0.005": 5.69658099855,
			"-0.004": 7.47824498538,
			"-0.003": 12.4435579432,
			"-0.002": 17.6450067125,
			"-0.001": 15.6319575659,
			"0.0": 8.10613841745,
			"0.001": 6.41893837073,
			"0.002": 6.05895184441,
			"0.003": 4.0761396077,
			"0.004": 2.29874225282,
			"0.005": 3.40248917384,
			"0.006": 3.77289329807,
			"0.007": 2.17315558615,
			"0.008": 3.63037220317,
			"0.009": 4.46245539665,
			"0.01": 4.82436247228,
			"0.011": 5.31215160579,
			"0.012": 3.60543122338,
			"0.013": 1.92118178734,
			"0.014": 1.72784293489,
			"0.015": 0.328702840896,
			"0.016": 0.0,
			"0.017": 0.0,
			"0.018": 0.0,
			"0.019": 0.0,
			"0.02": 0.0,
			"0.021": 0.0,
			"0.022": 0.0,
			"0.023": 0.0,
			"0.024": 0.0,
			"0.025": 0.0
		}
	}
}
