{
	 "smiles": "OC(=O)C1=C(O)C(I)=CC(I)=C1", 
	 "Tm": 506.15, 
	 "num_atms": 16, 
	 "gaussian": { 
		 "optdone": 1, 
		 "sigma_profile": "no", 
		 "theory": "DFT", 
		 "functional": "B3LYP", 
		 "basiset": "6-31G**", 
		 "properties": { 
			 "R2extent": 2710.4934, 
			 "electric_dipole_moment_norm": 5.44254872831, 
			 "electric_quadrupole_moment_norm": 8.04550859113, 
			 "total_energy": -517.604763599, 
			 "HOMO_LUMO_gap": 0.17013, 
			 "cosmo_polarized_energy": -211160.9, 
			 "cosmo_cavitation_energy": 27.0, 
			 "cosmo_dispersion_energy": -23.09, 
			 "cosmo_repulsion_energy": 1.77, 
			 "cosmo_total_nonelectrostatic_energy": 5.68, 
			 "SMD_solvation_energy": 4.33 
		},
		"coords": [
			{
				"x": 0.4467630469,
				"y": -0.6176410916,
				"z": -1.9365157286,
				"element": "O" 
			},
			{
				"x": 0.4784654549,
				"y": -0.9881899057,
				"z": -0.646327801,
				"element": "C" 
			},
			{
				"x": 1.3503101827,
				"y": -1.7185412185,
				"z": -0.2322028191,
				"element": "O" 
			},
			{
				"x": -0.6066286363,
				"y": -0.4689927372,
				"z": 0.27686901,
				"element": "C" 
			},
			{
				"x": -1.6616901362,
				"y": 0.3829277922,
				"z": -0.108645413,
				"element": "C" 
			},
			{
				"x": -1.7287174763,
				"y": 0.7820690679,
				"z": -1.4096309158,
				"element": "O" 
			},
			{
				"x": -2.5997269871,
				"y": 0.7876705259,
				"z": 0.8535321635,
				"element": "C" 
			},
			{
				"x": -4.1902428103,
				"y": 2.0716629477,
				"z": 0.2762361635,
				"element": "I" 
			},
			{
				"x": -2.5100940925,
				"y": 0.3657809036,
				"z": 2.1783447734,
				"element": "C" 
			},
			{
				"x": -1.4606966934,
				"y": -0.4781267852,
				"z": 2.5483668111,
				"element": "C" 
			},
			{
				"x": -1.3097308901,
				"y": -1.1285708237,
				"z": 4.5563481867,
				"element": "I" 
			},
			{
				"x": -0.521812975,
				"y": -0.8894566972,
				"z": 1.6092741256,
				"element": "C" 
			},
			{
				"x": -0.3123110961,
				"y": -0.0330801882,
				"z": -2.1094022412,
				"element": "H" 
			},
			{
				"x": -2.4951041932,
				"y": 1.3632387428,
				"z": -1.5521169663,
				"element": "H" 
			},
			{
				"x": -3.2453149506,
				"y": 0.6906987745,
				"z": 2.9037429819,
				"element": "H" 
			},
			{
				"x": 0.3026322525,
				"y": -1.5432493073,
				"z": 1.8665276691,
				"element": "H" 
			}
		],
		 "valence_orbital": [ 
			{
				"type": "occ",
				"energy": -0.29648,
				"method": "rhf"
			},
			{
				"type": "occ",
				"energy": -0.28216,
				"method": "rhf"
			},
			{
				"type": "occ",
				"energy": -0.27808,
				"method": "rhf"
			},
			{
				"type": "occ",
				"energy": -0.27614,
				"method": "rhf"
			},
			{
				"type": "occ",
				"energy": -0.24991,
				"method": "rhf"
			},
			{
				"type": "unocc",
				"energy": -0.07978,
				"method": "rhf"
			},
			{
				"type": "unocc",
				"energy": -0.06955,
				"method": "rhf"
			},
			{
				"type": "unocc",
				"energy": -0.04388,
				"method": "rhf"
			},
			{
				"type": "unocc",
				"energy": -0.03769,
				"method": "rhf"
			},
			{
				"type": "unocc",
				"energy": 0.01536,
				"method": "rhf"
			}
		],
		"cosmo_sigma_profile": { 
			"0.0": 0.0,
			"0.0": 0.0,
			"0.0": 0.0,
			"0.0": 0.0,
			"0.0": 0.0,
			"0.0": 0.0,
			"0.0": 0.0,
			"0.0": 0.0,
			"0.0": 0.0,
			"0.0": 0.0,
			"0.0": 0.0,
			"0.0": 0.0,
			"0.0": 0.0,
			"0.0": 0.0,
			"0.0": 0.0,
			"0.0": 0.0,
			"0.0": 0.0,
			"0.0": 0.0,
			"0.0": 0.0,
			"0.0": 0.0,
			"0.0": 0.0,
			"0.0": 0.0,
			"0.0": 0.0,
			"0.0": 0.0,
			"0.0": 0.0,
			"0.0": 0.0,
			"0.0": 0.0,
			"0.0": 0.0,
			"0.0": 0.0,
			"0.0": 0.0,
			"0.0": 0.0,
			"0.0": 0.0,
			"0.0": 0.0,
			"0.0": 0.0,
			"0.0": 0.0,
			"0.0": 0.0,
			"0.0": 0.0,
			"0.0": 0.0,
			"0.0": 0.0,
			"0.0": 0.0,
			"0.0": 0.0,
			"0.0": 0.0,
			"0.0": 0.0,
			"0.0": 0.0,
			"0.0": 0.0,
			"0.0": 0.0,
			"0.0": 0.0,
			"0.0": 0.0,
			"0.0": 0.0,
			"0.0": 0.0,
			"0.0": 0.0
		}
	}
}
