{
	 "smiles": "OC(=O)CNCC1CC1", 
	 "Tm": 496.15, 
	 "num_atms": 20, 
	 "gaussian": { 
		 "optdone": 1, 
		 "sigma_profile": "yes", 
		 "theory": "DFT", 
		 "functional": "B3LYP", 
		 "basiset": "6-31G**", 
		 "properties": { 
			 "R2extent": 2179.4622, 
			 "electric_dipole_moment_norm": 1.31135447916, 
			 "electric_quadrupole_moment_norm": 8.89492110814, 
			 "total_energy": -440.440615167, 
			 "HOMO_LUMO_gap": 0.22923, 
			 "cosmo_polarized_energy": -10.43, 
			 "cosmo_cavitation_energy": 23.12, 
			 "cosmo_dispersion_energy": -16.5, 
			 "cosmo_repulsion_energy": 1.39, 
			 "cosmo_total_nonelectrostatic_energy": 8.01, 
			 "SMD_solvation_energy": 2.06 
		},
		"coords": [
			{
				"x": -4.3263474154,
				"y": -0.9244102795,
				"z": 1.2689420355,
				"element": "O" 
			},
			{
				"x": -3.0455847771,
				"y": -1.3639668178,
				"z": 1.2638262641,
				"element": "C" 
			},
			{
				"x": -2.6830037363,
				"y": -2.32866238,
				"z": 0.6268920265,
				"element": "O" 
			},
			{
				"x": -2.161898055,
				"y": -0.5466416182,
				"z": 2.1998888388,
				"element": "C" 
			},
			{
				"x": -0.7364849679,
				"y": -0.7503340248,
				"z": 2.0369272333,
				"element": "N" 
			},
			{
				"x": -0.0721696563,
				"y": 0.1234944737,
				"z": 1.0632740307,
				"element": "C" 
			},
			{
				"x": -0.4388353936,
				"y": -0.052382812,
				"z": -0.4019896743,
				"element": "C" 
			},
			{
				"x": 0.5693032924,
				"y": 0.2960215504,
				"z": -1.4714654896,
				"element": "C" 
			},
			{
				"x": 0.2063781484,
				"y": -1.1469717867,
				"z": -1.2127366794,
				"element": "C" 
			},
			{
				"x": -4.8276540517,
				"y": -1.5339233397,
				"z": 0.7008222237,
				"element": "H" 
			},
			{
				"x": -2.4127517316,
				"y": 0.5140806689,
				"z": 2.0958077478,
				"element": "H" 
			},
			{
				"x": -2.4736812591,
				"y": -0.8274008582,
				"z": 3.2180223741,
				"element": "H" 
			},
			{
				"x": -0.575111741,
				"y": -1.7237216614,
				"z": 1.7868859234,
				"element": "H" 
			},
			{
				"x": 1.0087820832,
				"y": -0.0333965512,
				"z": 1.1746997037,
				"element": "H" 
			},
			{
				"x": -0.2624821874,
				"y": 1.16051661,
				"z": 1.3713002304,
				"element": "H" 
			},
			{
				"x": -1.4768823521,
				"y": 0.1665827485,
				"z": -0.6462081345,
				"element": "H" 
			},
			{
				"x": 0.2152991764,
				"y": 0.7648281625,
				"z": -2.3847610286,
				"element": "H" 
			},
			{
				"x": 1.5502932454,
				"y": 0.6386007661,
				"z": -1.151524482,
				"element": "H" 
			},
			{
				"x": 0.9455641733,
				"y": -1.7743132889,
				"z": -0.720416252,
				"element": "H" 
			},
			{
				"x": -0.3993327947,
				"y": -1.6723995616,
				"z": -1.9440868915,
				"element": "H" 
			}
		],
		 "valence_orbital": [ 
			{
				"type": "occ",
				"energy": -0.32282,
				"method": "rhf"
			},
			{
				"type": "occ",
				"energy": -0.2907,
				"method": "rhf"
			},
			{
				"type": "occ",
				"energy": -0.28473,
				"method": "rhf"
			},
			{
				"type": "occ",
				"energy": -0.27595,
				"method": "rhf"
			},
			{
				"type": "occ",
				"energy": -0.22131,
				"method": "rhf"
			},
			{
				"type": "unocc",
				"energy": 0.00792,
				"method": "rhf"
			},
			{
				"type": "unocc",
				"energy": 0.07342,
				"method": "rhf"
			},
			{
				"type": "unocc",
				"energy": 0.0916,
				"method": "rhf"
			},
			{
				"type": "unocc",
				"energy": 0.10392,
				"method": "rhf"
			},
			{
				"type": "unocc",
				"energy": 0.11553,
				"method": "rhf"
			}
		],
		"cosmo_sigma_profile": { 
			"-0.025": 0.0,
			"-0.024": 0.0,
			"-0.023": 0.0,
			"-0.022": 0.0,
			"-0.021": 0.0,
			"-0.02": 0.0,
			"-0.019": 0.0,
			"-0.018": 0.584811621903,
			"-0.017": 0.765424123636,
			"-0.016": 1.40046510288,
			"-0.015": 0.821222657811,
			"-0.014": 0.583526124774,
			"-0.013": 0.181610899917,
			"-0.012": 0.527301473883,
			"-0.011": 1.2891343343,
			"-0.01": 0.972724305835,
			"-0.009": 0.390207844798,
			"-0.008": 1.23741043225,
			"-0.007": 2.90214035114,
			"-0.006": 6.76380017021,
			"-0.005": 10.1535412743,
			"-0.004": 18.3546616181,
			"-0.003": 20.0257021276,
			"-0.002": 16.520094621,
			"-0.001": 12.9522237676,
			"0.0": 12.161291635,
			"0.001": 11.8032643367,
			"0.002": 8.71515114693,
			"0.003": 6.45428724468,
			"0.004": 7.24273081372,
			"0.005": 5.6463829764,
			"0.006": 4.57386398339,
			"0.007": 4.33514819253,
			"0.008": 4.14035174392,
			"0.009": 4.89048787133,
			"0.01": 3.75364166004,
			"0.011": 3.51396044829,
			"0.012": 3.52358343207,
			"0.013": 0.51386939087,
			"0.014": 0.661980313609,
			"0.015": 0.668575427174,
			"0.016": 0.534076117078,
			"0.017": 0.44751760893,
			"0.018": 0.0925618443856,
			"0.019": 0.0,
			"0.02": 0.0,
			"0.021": 0.0,
			"0.022": 0.0,
			"0.023": 0.0,
			"0.024": 0.0,
			"0.025": 0.0
		}
	}
}
