{
	 "smiles": "CC(O)C1=C(C=CC=C1)C1=CC=CC=C1", 
	 "Tm": 378.15, 
	 "num_atms": 29, 
	 "gaussian": { 
		 "optdone": 1, 
		 "sigma_profile": "yes", 
		 "theory": "DFT", 
		 "functional": "B3LYP", 
		 "basiset": "6-31G**", 
		 "properties": { 
			 "R2extent": 3319.7398, 
			 "electric_dipole_moment_norm": 1.48419139264, 
			 "electric_quadrupole_moment_norm": 8.13131675561, 
			 "total_energy": -617.153837792, 
			 "HOMO_LUMO_gap": 0.21076, 
			 "cosmo_polarized_energy": -8.37, 
			 "cosmo_cavitation_energy": 31.59, 
			 "cosmo_dispersion_energy": -22.37, 
			 "cosmo_repulsion_energy": 1.76, 
			 "cosmo_total_nonelectrostatic_energy": 10.98, 
			 "SMD_solvation_energy": 5.29 
		},
		"coords": [
			{
				"x": -0.9068193954,
				"y": -2.3352219616,
				"z": 1.3066802281,
				"element": "C" 
			},
			{
				"x": -0.0950670535,
				"y": -1.0637915687,
				"z": 1.5601023676,
				"element": "C" 
			},
			{
				"x": 0.0382689781,
				"y": -0.978223879,
				"z": 2.983815063,
				"element": "O" 
			},
			{
				"x": -0.7598045567,
				"y": 0.1902872032,
				"z": 0.9967753512,
				"element": "C" 
			},
			{
				"x": -0.2876525093,
				"y": 0.8752944333,
				"z": -0.1453923319,
				"element": "C" 
			},
			{
				"x": -0.9406163192,
				"y": 2.0562669218,
				"z": -0.544017268,
				"element": "C" 
			},
			{
				"x": -2.0406953862,
				"y": 2.5515560523,
				"z": 0.150305769,
				"element": "C" 
			},
			{
				"x": -2.5062722732,
				"y": 1.8720118498,
				"z": 1.2773543091,
				"element": "C" 
			},
			{
				"x": -1.8622279985,
				"y": 0.7098517798,
				"z": 1.6925467833,
				"element": "C" 
			},
			{
				"x": 0.8934348468,
				"y": 0.4292925493,
				"z": -0.9443063929,
				"element": "C" 
			},
			{
				"x": 0.9381420907,
				"y": -0.8264277804,
				"z": -1.5713743985,
				"element": "C" 
			},
			{
				"x": 2.0380635106,
				"y": -1.2041226172,
				"z": -2.3423949948,
				"element": "C" 
			},
			{
				"x": 3.115733286,
				"y": -0.3319760931,
				"z": -2.5047042105,
				"element": "C" 
			},
			{
				"x": 3.0829502915,
				"y": 0.9228119327,
				"z": -1.893671907,
				"element": "C" 
			},
			{
				"x": 1.9820823385,
				"y": 1.2994388477,
				"z": -1.1242750563,
				"element": "C" 
			},
			{
				"x": -1.9026333166,
				"y": -2.2432551977,
				"z": 1.7503703488,
				"element": "H" 
			},
			{
				"x": -0.4026998873,
				"y": -3.1917348756,
				"z": 1.7636266182,
				"element": "H" 
			},
			{
				"x": -1.0240794716,
				"y": -2.525156967,
				"z": 0.2366736899,
				"element": "H" 
			},
			{
				"x": 0.895314302,
				"y": -1.1800096209,
				"z": 1.1004370931,
				"element": "H" 
			},
			{
				"x": 0.50822831,
				"y": -0.1575182641,
				"z": 3.1826057137,
				"element": "H" 
			},
			{
				"x": -0.5772695962,
				"y": 2.5787698015,
				"z": -1.4244161136,
				"element": "H" 
			},
			{
				"x": -2.5300996486,
				"y": 3.4611367238,
				"z": -0.1861785228,
				"element": "H" 
			},
			{
				"x": -3.3603120262,
				"y": 2.2490258088,
				"z": 1.8329972164,
				"element": "H" 
			},
			{
				"x": -2.1915686753,
				"y": 0.1946782201,
				"z": 2.5899135033,
				"element": "H" 
			},
			{
				"x": 0.0937388907,
				"y": -1.5014129104,
				"z": -1.4737947021,
				"element": "H" 
			},
			{
				"x": 2.0486247088,
				"y": -2.1786265177,
				"z": -2.8225281993,
				"element": "H" 
			},
			{
				"x": 3.9722576566,
				"y": -0.6265339965,
				"z": -3.1041786885,
				"element": "H" 
			},
			{
				"x": 3.9166203985,
				"y": 1.6091999243,
				"z": -2.0131538846,
				"element": "H" 
			},
			{
				"x": 1.9646585049,
				"y": 2.2735902014,
				"z": -0.6436173839,
				"element": "H" 
			}
		],
		 "valence_orbital": [ 
			{
				"type": "occ",
				"energy": -0.27417,
				"method": "rhf"
			},
			{
				"type": "occ",
				"energy": -0.26153,
				"method": "rhf"
			},
			{
				"type": "occ",
				"energy": -0.2527,
				"method": "rhf"
			},
			{
				"type": "occ",
				"energy": -0.2395,
				"method": "rhf"
			},
			{
				"type": "occ",
				"energy": -0.23156,
				"method": "rhf"
			},
			{
				"type": "unocc",
				"energy": -0.0208,
				"method": "rhf"
			},
			{
				"type": "unocc",
				"energy": -0.00906,
				"method": "rhf"
			},
			{
				"type": "unocc",
				"energy": 0.0018,
				"method": "rhf"
			},
			{
				"type": "unocc",
				"energy": 0.01698,
				"method": "rhf"
			},
			{
				"type": "unocc",
				"energy": 0.08279,
				"method": "rhf"
			}
		],
		"cosmo_sigma_profile": { 
			"-0.025": 0.0,
			"-0.024": 0.0,
			"-0.023": 0.0,
			"-0.022": 0.0,
			"-0.021": 0.0,
			"-0.02": 0.0,
			"-0.019": 0.0,
			"-0.018": 0.0,
			"-0.017": 0.0,
			"-0.016": 0.0112664921124,
			"-0.015": 0.573269062827,
			"-0.014": 1.23899526789,
			"-0.013": 0.686252215798,
			"-0.012": 0.374236978707,
			"-0.011": 0.830013465239,
			"-0.01": 1.01266025939,
			"-0.009": 0.76857768163,
			"-0.008": 0.76567349429,
			"-0.007": 2.27583207091,
			"-0.006": 7.10725100373,
			"-0.005": 16.9270149683,
			"-0.004": 20.2922676691,
			"-0.003": 24.913795126,
			"-0.002": 22.4200186182,
			"-0.001": 22.2370671722,
			"0.0": 20.6385568154,
			"0.001": 19.2384270153,
			"0.002": 16.6292110516,
			"0.003": 15.9293601081,
			"0.004": 16.5209283709,
			"0.005": 16.5662542918,
			"0.006": 11.9952623969,
			"0.007": 1.40012148317,
			"0.008": 1.67511062821,
			"0.009": 0.447559791715,
			"0.01": 1.64333221605,
			"0.011": 1.16632902388,
			"0.012": 1.11284170599,
			"0.013": 1.24736057668,
			"0.014": 1.75699770315,
			"0.015": 0.325726881782,
			"0.016": 0.0,
			"0.017": 0.0,
			"0.018": 0.0,
			"0.019": 0.0,
			"0.02": 0.0,
			"0.021": 0.0,
			"0.022": 0.0,
			"0.023": 0.0,
			"0.024": 0.0,
			"0.025": 0.0
		}
	}
}
