{
	 "smiles": "CC(=O)OC12COC1CC(O)C1(C)C2C(OC(=O)C2=CC=CC=C2)C2(O)CC(O)C(C)=C(C(O)C1=O)C2(C)C", 
	 "Tm": 507.15, 
	 "num_atms": 75, 
	 "gaussian": { 
		 "optdone": 1, 
		 "sigma_profile": "yes", 
		 "theory": "DFT", 
		 "functional": "B3LYP", 
		 "basiset": "6-31G**", 
		 "properties": { 
			 "R2extent": 15631.7376, 
			 "electric_dipole_moment_norm": 5.58583787538, 
			 "electric_quadrupole_moment_norm": 16.0049588269, 
			 "total_energy": -1878.90497317, 
			 "HOMO_LUMO_gap": 0.16439, 
			 "cosmo_polarized_energy": -27.53, 
			 "cosmo_cavitation_energy": 63.12, 
			 "cosmo_dispersion_energy": -41.11, 
			 "cosmo_repulsion_energy": 2.91, 
			 "cosmo_total_nonelectrostatic_energy": 24.92, 
			 "SMD_solvation_energy": 11.45 
		},
		"coords": [
			{
				"x": 4.1162875848,
				"y": 0.9730303587,
				"z": 1.2471126618,
				"element": "C" 
			},
			{
				"x": 2.9569434844,
				"y": 1.2416425687,
				"z": 0.3252875892,
				"element": "C" 
			},
			{
				"x": 2.3265518569,
				"y": 2.2869444763,
				"z": 0.2805831028,
				"element": "O" 
			},
			{
				"x": 2.7013979247,
				"y": 0.1904087066,
				"z": -0.4676911818,
				"element": "O" 
			},
			{
				"x": 1.7286809279,
				"y": 0.3418063356,
				"z": -1.5382080707,
				"element": "C" 
			},
			{
				"x": 2.2753858107,
				"y": 1.3884174551,
				"z": -2.5437502079,
				"element": "C" 
			},
			{
				"x": 2.7923913426,
				"y": 0.3535164165,
				"z": -3.4020150882,
				"element": "O" 
			},
			{
				"x": 2.1399308143,
				"y": -0.6862216675,
				"z": -2.6229021493,
				"element": "C" 
			},
			{
				"x": 1.0034812523,
				"y": -1.300804387,
				"z": -3.4106773447,
				"element": "C" 
			},
			{
				"x": -0.1250124431,
				"y": -0.287342603,
				"z": -3.5954589324,
				"element": "C" 
			},
			{
				"x": -1.0661200329,
				"y": -0.7165321544,
				"z": -4.5754696418,
				"element": "O" 
			},
			{
				"x": -0.8294040503,
				"y": 0.0439283585,
				"z": -2.2295004478,
				"element": "C" 
			},
			{
				"x": -1.6839779461,
				"y": -1.1935487714,
				"z": -1.8706004281,
				"element": "C" 
			},
			{
				"x": 0.2360390041,
				"y": 0.5178746568,
				"z": -1.087783879,
				"element": "C" 
			},
			{
				"x": -0.2275939262,
				"y": 0.0626114259,
				"z": 0.3490249277,
				"element": "C" 
			},
			{
				"x": 0.7917762005,
				"y": -0.5566949168,
				"z": 1.1760747344,
				"element": "O" 
			},
			{
				"x": 1.1599452482,
				"y": -1.821701496,
				"z": 0.8991757752,
				"element": "C" 
			},
			{
				"x": 0.8378056005,
				"y": -2.4208438369,
				"z": -0.1117804835,
				"element": "O" 
			},
			{
				"x": 2.0079318827,
				"y": -2.4023008045,
				"z": 1.9801000404,
				"element": "C" 
			},
			{
				"x": 2.2435543705,
				"y": -1.7225076725,
				"z": 3.1855065543,
				"element": "C" 
			},
			{
				"x": 3.0293520883,
				"y": -2.3161675184,
				"z": 4.1730665116,
				"element": "C" 
			},
			{
				"x": 3.5791180434,
				"y": -3.5838156041,
				"z": 3.9643896848,
				"element": "C" 
			},
			{
				"x": 3.3414014178,
				"y": -4.2629737455,
				"z": 2.7661067244,
				"element": "C" 
			},
			{
				"x": 2.556363942,
				"y": -3.6756210552,
				"z": 1.7767574995,
				"element": "C" 
			},
			{
				"x": -0.8442441149,
				"y": 1.1698447103,
				"z": 1.3131354569,
				"element": "C" 
			},
			{
				"x": 0.1604265939,
				"y": 1.8640259597,
				"z": 2.0308619092,
				"element": "O" 
			},
			{
				"x": -1.6521281782,
				"y": 0.4153593745,
				"z": 2.3859399255,
				"element": "C" 
			},
			{
				"x": -3.0131222607,
				"y": -0.1437980666,
				"z": 1.9016472472,
				"element": "C" 
			},
			{
				"x": -2.9294093776,
				"y": -1.5757068942,
				"z": 1.7509997984,
				"element": "O" 
			},
			{
				"x": -3.5166689126,
				"y": 0.332615592,
				"z": 0.5337338394,
				"element": "C" 
			},
			{
				"x": -4.7229469399,
				"y": -0.4597032354,
				"z": 0.0727053687,
				"element": "C" 
			},
			{
				"x": -2.8767019754,
				"y": 1.3123215707,
				"z": -0.1437522334,
				"element": "C" 
			},
			{
				"x": -3.0021829665,
				"y": 1.6226004088,
				"z": -1.6200537784,
				"element": "C" 
			},
			{
				"x": -4.0528115352,
				"y": 0.917050142,
				"z": -2.2760222767,
				"element": "O" 
			},
			{
				"x": -1.7175595614,
				"y": 1.296156463,
				"z": -2.4700296451,
				"element": "C" 
			},
			{
				"x": -1.4714101358,
				"y": 2.0724206189,
				"z": -3.3763681745,
				"element": "O" 
			},
			{
				"x": -1.8550386315,
				"y": 2.1793879019,
				"z": 0.6269322646,
				"element": "C" 
			},
			{
				"x": -1.1654930411,
				"y": 3.3265074905,
				"z": -0.165733526,
				"element": "C" 
			},
			{
				"x": -2.6255267478,
				"y": 2.9721529009,
				"z": 1.7300451017,
				"element": "C" 
			},
			{
				"x": 3.8989457119,
				"y": 0.1047735629,
				"z": 1.8747373661,
				"element": "H" 
			},
			{
				"x": 4.2962145262,
				"y": 1.8496404699,
				"z": 1.8683788075,
				"element": "H" 
			},
			{
				"x": 5.0090725283,
				"y": 0.7382798925,
				"z": 0.6599026011,
				"element": "H" 
			},
			{
				"x": 3.0597328118,
				"y": 2.0452238642,
				"z": -2.159500516,
				"element": "H" 
			},
			{
				"x": 1.5053259325,
				"y": 1.9979714878,
				"z": -3.0317041112,
				"element": "H" 
			},
			{
				"x": 2.8561070283,
				"y": -1.4328706985,
				"z": -2.2664552299,
				"element": "H" 
			},
			{
				"x": 1.3868238787,
				"y": -1.5890042288,
				"z": -4.3956135335,
				"element": "H" 
			},
			{
				"x": 0.6507452169,
				"y": -2.2055934805,
				"z": -2.9032978935,
				"element": "H" 
			},
			{
				"x": 0.2818005603,
				"y": 0.6303303679,
				"z": -4.0177308085,
				"element": "H" 
			},
			{
				"x": -1.2334293161,
				"y": -1.6575768616,
				"z": -4.4373074347,
				"element": "H" 
			},
			{
				"x": -1.0506667756,
				"y": -2.0528878794,
				"z": -1.6459422902,
				"element": "H" 
			},
			{
				"x": -2.335331964,
				"y": -1.4239592323,
				"z": -2.7147394488,
				"element": "H" 
			},
			{
				"x": -2.3407293473,
				"y": -1.041407864,
				"z": -1.0235309503,
				"element": "H" 
			},
			{
				"x": 0.1743314619,
				"y": 1.5991595098,
				"z": -1.0625941779,
				"element": "H" 
			},
			{
				"x": -0.9833522872,
				"y": -0.7030740592,
				"z": 0.2237392729,
				"element": "H" 
			},
			{
				"x": 1.8067010188,
				"y": -0.7411546524,
				"z": 3.3371274372,
				"element": "H" 
			},
			{
				"x": 3.2098923221,
				"y": -1.7918831542,
				"z": 5.1068905215,
				"element": "H" 
			},
			{
				"x": 4.1903444432,
				"y": -4.0431757776,
				"z": 4.7360623629,
				"element": "H" 
			},
			{
				"x": 3.7672631158,
				"y": -5.2489668278,
				"z": 2.6056404707,
				"element": "H" 
			},
			{
				"x": 2.3532937198,
				"y": -4.1847711212,
				"z": 0.8406974046,
				"element": "H" 
			},
			{
				"x": 0.8369618772,
				"y": 2.1940203902,
				"z": 1.4165854239,
				"element": "H" 
			},
			{
				"x": -1.0485410028,
				"y": -0.4159237427,
				"z": 2.7605923286,
				"element": "H" 
			},
			{
				"x": -1.7860286749,
				"y": 1.0976616348,
				"z": 3.2267349515,
				"element": "H" 
			},
			{
				"x": -3.7834556202,
				"y": 0.0819134154,
				"z": 2.6592425141,
				"element": "H" 
			},
			{
				"x": -2.7227194206,
				"y": -1.9459644038,
				"z": 2.6187485479,
				"element": "H" 
			},
			{
				"x": -5.2669274116,
				"y": 0.0453728666,
				"z": -0.718651056,
				"element": "H" 
			},
			{
				"x": -5.3900054833,
				"y": -0.6093896471,
				"z": 0.9302199465,
				"element": "H" 
			},
			{
				"x": -4.4473820191,
				"y": -1.4607643568,
				"z": -0.2734893223,
				"element": "H" 
			},
			{
				"x": -3.1366453136,
				"y": 2.7035369715,
				"z": -1.7613155115,
				"element": "H" 
			},
			{
				"x": -4.0651793696,
				"y": 1.2315190879,
				"z": -3.1912546677,
				"element": "H" 
			},
			{
				"x": -0.7310486397,
				"y": 3.0825211452,
				"z": -1.1310488617,
				"element": "H" 
			},
			{
				"x": -0.3734634188,
				"y": 3.7512614394,
				"z": 0.455599514,
				"element": "H" 
			},
			{
				"x": -1.8837908233,
				"y": 4.1294510938,
				"z": -0.3535191885,
				"element": "H" 
			},
			{
				"x": -1.9179056521,
				"y": 3.4954792145,
				"z": 2.380146934,
				"element": "H" 
			},
			{
				"x": -3.2689444434,
				"y": 3.7163047063,
				"z": 1.2516278565,
				"element": "H" 
			},
			{
				"x": -3.2737217839,
				"y": 2.3512074045,
				"z": 2.3473315124,
				"element": "H" 
			}
		],
		 "valence_orbital": [ 
			{
				"type": "occ",
				"energy": -0.26687,
				"method": "rhf"
			},
			{
				"type": "occ",
				"energy": -0.26316,
				"method": "rhf"
			},
			{
				"type": "occ",
				"energy": -0.25084,
				"method": "rhf"
			},
			{
				"type": "occ",
				"energy": -0.24324,
				"method": "rhf"
			},
			{
				"type": "occ",
				"energy": -0.21878,
				"method": "rhf"
			},
			{
				"type": "unocc",
				"energy": -0.05439,
				"method": "rhf"
			},
			{
				"type": "unocc",
				"energy": -0.03209,
				"method": "rhf"
			},
			{
				"type": "unocc",
				"energy": -0.01839,
				"method": "rhf"
			},
			{
				"type": "unocc",
				"energy": -0.01249,
				"method": "rhf"
			},
			{
				"type": "unocc",
				"energy": 0.00303,
				"method": "rhf"
			}
		],
		"cosmo_sigma_profile": { 
			"-0.025": 0.0,
			"-0.024": 0.0,
			"-0.023": 0.0,
			"-0.022": 0.0,
			"-0.021": 0.0,
			"-0.02": 0.0,
			"-0.019": 0.0,
			"-0.018": 0.0,
			"-0.017": 0.10121575986,
			"-0.016": 1.03134482745,
			"-0.015": 2.35796652003,
			"-0.014": 2.79129046004,
			"-0.013": 2.23281564882,
			"-0.012": 2.33363591736,
			"-0.011": 3.16177247601,
			"-0.01": 2.63855215392,
			"-0.009": 2.2803793745,
			"-0.008": 2.68124454367,
			"-0.007": 10.2309161084,
			"-0.006": 19.7632256358,
			"-0.005": 29.1008977371,
			"-0.004": 39.8482169225,
			"-0.003": 43.4844904849,
			"-0.002": 43.9698574078,
			"-0.001": 39.54261769,
			"0.0": 38.0564556988,
			"0.001": 38.4682894409,
			"0.002": 31.6248208148,
			"0.003": 28.0932237423,
			"0.004": 25.1457411721,
			"0.005": 12.0515305896,
			"0.006": 9.81502343128,
			"0.007": 10.1577537667,
			"0.008": 11.7277731127,
			"0.009": 8.47399808913,
			"0.01": 9.54340966209,
			"0.011": 9.86374643221,
			"0.012": 6.05114478842,
			"0.013": 4.26286463379,
			"0.014": 2.35131457671,
			"0.015": 0.021251973301,
			"0.016": 0.0,
			"0.017": 0.0,
			"0.018": 0.0,
			"0.019": 0.0,
			"0.02": 0.0,
			"0.021": 0.0,
			"0.022": 0.0,
			"0.023": 0.0,
			"0.024": 0.0,
			"0.025": 0.0
		}
	}
}
