{
	 "smiles": "CC12CCC3C(CCC4=CC(O)CCC34C)C1(O)CCC2C1=COC(=O)C=C1", 
	 "Tm": 508.15, 
	 "num_atms": 60, 
	 "gaussian": { 
		 "optdone": 1, 
		 "sigma_profile": "yes", 
		 "theory": "DFT", 
		 "functional": "B3LYP", 
		 "basiset": "6-31G**", 
		 "properties": { 
			 "R2extent": 14370.702, 
			 "electric_dipole_moment_norm": 5.32722250896, 
			 "electric_quadrupole_moment_norm": 51.2615891934, 
			 "total_energy": -1234.71175588, 
			 "HOMO_LUMO_gap": 0.171, 
			 "cosmo_polarized_energy": -20.6, 
			 "cosmo_cavitation_energy": 52.99, 
			 "cosmo_dispersion_energy": -36.68, 
			 "cosmo_repulsion_energy": 2.67, 
			 "cosmo_total_nonelectrostatic_energy": 18.99, 
			 "SMD_solvation_energy": 8.91 
		},
		"coords": [
			{
				"x": 0.9984624133,
				"y": 1.922187882,
				"z": 1.2366075562,
				"element": "C" 
			},
			{
				"x": 0.689201593,
				"y": 0.4939381574,
				"z": 1.7095732507,
				"element": "C" 
			},
			{
				"x": 1.7339456882,
				"y": -0.5055212545,
				"z": 1.1605320693,
				"element": "C" 
			},
			{
				"x": 1.6197763867,
				"y": -0.7178374632,
				"z": -0.3529740747,
				"element": "C" 
			},
			{
				"x": 0.2310169106,
				"y": -1.2327170231,
				"z": -0.7747940803,
				"element": "C" 
			},
			{
				"x": -0.8923697983,
				"y": -0.3286237122,
				"z": -0.2088948658,
				"element": "C" 
			},
			{
				"x": -2.3100787439,
				"y": -0.9081896599,
				"z": -0.5019750322,
				"element": "C" 
			},
			{
				"x": -2.327433717,
				"y": -1.8789670277,
				"z": -1.7059653881,
				"element": "C" 
			},
			{
				"x": -1.3683638623,
				"y": -1.3768202433,
				"z": -2.749202334,
				"element": "C" 
			},
			{
				"x": -1.7948157905,
				"y": -0.8110068349,
				"z": -3.8876317527,
				"element": "C" 
			},
			{
				"x": -0.9161796186,
				"y": -0.1395949362,
				"z": -4.9110052333,
				"element": "C" 
			},
			{
				"x": -1.3119436026,
				"y": -0.4615090027,
				"z": -6.2476518681,
				"element": "O" 
			},
			{
				"x": 0.5648077697,
				"y": -0.4372148849,
				"z": -4.6580221221,
				"element": "C" 
			},
			{
				"x": 0.8989409746,
				"y": -0.398484794,
				"z": -3.1600974644,
				"element": "C" 
			},
			{
				"x": 0.1056902621,
				"y": -1.4510242023,
				"z": -2.3419015011,
				"element": "C" 
			},
			{
				"x": 0.6464175336,
				"y": -2.8711036161,
				"z": -2.6532135926,
				"element": "C" 
			},
			{
				"x": -0.7346666053,
				"y": 0.0037693905,
				"z": 1.3000944086,
				"element": "C" 
			},
			{
				"x": -1.6264441952,
				"y": 1.0860826461,
				"z": 1.6278205828,
				"element": "O" 
			},
			{
				"x": -1.0073799764,
				"y": -1.1790877757,
				"z": 2.2746241139,
				"element": "C" 
			},
			{
				"x": -0.1525127396,
				"y": -0.9164534857,
				"z": 3.5416174555,
				"element": "C" 
			},
			{
				"x": 0.5912890249,
				"y": 0.4145754978,
				"z": 3.2744819091,
				"element": "C" 
			},
			{
				"x": 1.8744135369,
				"y": 0.6431763713,
				"z": 4.0460313474,
				"element": "C" 
			},
			{
				"x": 2.7538706378,
				"y": -0.3381768003,
				"z": 4.3747967329,
				"element": "C" 
			},
			{
				"x": 3.9035470619,
				"y": -0.1303737343,
				"z": 5.0487409543,
				"element": "O" 
			},
			{
				"x": 4.3166759497,
				"y": 1.1486343423,
				"z": 5.480432837,
				"element": "C" 
			},
			{
				"x": 5.3695277171,
				"y": 1.2292973128,
				"z": 6.0676972433,
				"element": "O" 
			},
			{
				"x": 3.3897739188,
				"y": 2.2145270987,
				"z": 5.1557225084,
				"element": "C" 
			},
			{
				"x": 2.237832287,
				"y": 1.9691840591,
				"z": 4.4788025128,
				"element": "C" 
			},
			{
				"x": 0.2593925297,
				"y": 2.6271688446,
				"z": 1.6227440485,
				"element": "H" 
			},
			{
				"x": 1.9923713428,
				"y": 2.2305810161,
				"z": 1.5789058338,
				"element": "H" 
			},
			{
				"x": 0.98949075,
				"y": 2.0076405313,
				"z": 0.1463850017,
				"element": "H" 
			},
			{
				"x": 2.7389416643,
				"y": -0.1449395416,
				"z": 1.4068211292,
				"element": "H" 
			},
			{
				"x": 1.629890364,
				"y": -1.4763847458,
				"z": 1.6613488182,
				"element": "H" 
			},
			{
				"x": 1.8382592937,
				"y": 0.2265743176,
				"z": -0.8600645308,
				"element": "H" 
			},
			{
				"x": 2.3948622744,
				"y": -1.4226947432,
				"z": -0.6770907307,
				"element": "H" 
			},
			{
				"x": 0.1099661562,
				"y": -2.2256356666,
				"z": -0.3167578765,
				"element": "H" 
			},
			{
				"x": -0.8186233302,
				"y": 0.6374607489,
				"z": -0.7255237734,
				"element": "H" 
			},
			{
				"x": -2.7041135354,
				"y": -1.4362140482,
				"z": 0.3737382409,
				"element": "H" 
			},
			{
				"x": -2.9982932795,
				"y": -0.0810905347,
				"z": -0.7096263259,
				"element": "H" 
			},
			{
				"x": -3.3416575695,
				"y": -1.9687574927,
				"z": -2.1074950522,
				"element": "H" 
			},
			{
				"x": -2.0301865117,
				"y": -2.8803104583,
				"z": -1.3677831968,
				"element": "H" 
			},
			{
				"x": -2.8630907319,
				"y": -0.7787544174,
				"z": -4.1027662579,
				"element": "H" 
			},
			{
				"x": -1.0806346834,
				"y": 0.9459122571,
				"z": -4.8480544543,
				"element": "H" 
			},
			{
				"x": -1.28401637,
				"y": -1.4252733444,
				"z": -6.3251509493,
				"element": "H" 
			},
			{
				"x": 0.793880965,
				"y": -1.4278114544,
				"z": -5.0711761005,
				"element": "H" 
			},
			{
				"x": 1.1853271787,
				"y": 0.2759956117,
				"z": -5.2108685288,
				"element": "H" 
			},
			{
				"x": 0.6684039126,
				"y": 0.6050783278,
				"z": -2.7778422072,
				"element": "H" 
			},
			{
				"x": 1.9753503899,
				"y": -0.5453660944,
				"z": -3.0231251435,
				"element": "H" 
			},
			{
				"x": 0.0360694699,
				"y": -3.6410948076,
				"z": -2.1701305014,
				"element": "H" 
			},
			{
				"x": 1.6731377767,
				"y": -2.9847755075,
				"z": -2.2877504567,
				"element": "H" 
			},
			{
				"x": 0.6467878454,
				"y": -3.0810209893,
				"z": -3.7257349718,
				"element": "H" 
			},
			{
				"x": -2.5304567886,
				"y": 0.772173637,
				"z": 1.4980389718,
				"element": "H" 
			},
			{
				"x": -0.7452198389,
				"y": -2.138812691,
				"z": 1.8182416066,
				"element": "H" 
			},
			{
				"x": -2.0739885862,
				"y": -1.2306651608,
				"z": 2.5132914621,
				"element": "H" 
			},
			{
				"x": -0.7598993082,
				"y": -0.8462370196,
				"z": 4.4482466053,
				"element": "H" 
			},
			{
				"x": 0.5431985005,
				"y": -1.7446908813,
				"z": 3.7032506824,
				"element": "H" 
			},
			{
				"x": -0.0926412189,
				"y": 1.2227755994,
				"z": 3.5552283484,
				"element": "H" 
			},
			{
				"x": 2.6267561283,
				"y": -1.3883881754,
				"z": 4.1393022142,
				"element": "H" 
			},
			{
				"x": 3.6691213135,
				"y": 3.206967004,
				"z": 5.4890541277,
				"element": "H" 
			},
			{
				"x": 1.5588128804,
				"y": 2.7890235718,
				"z": 4.256997794,
				"element": "H" 
			}
		],
		 "valence_orbital": [ 
			{
				"type": "occ",
				"energy": -0.27011,
				"method": "rhf"
			},
			{
				"type": "occ",
				"energy": -0.2669,
				"method": "rhf"
			},
			{
				"type": "occ",
				"energy": -0.26438,
				"method": "rhf"
			},
			{
				"type": "occ",
				"energy": -0.23717,
				"method": "rhf"
			},
			{
				"type": "occ",
				"energy": -0.22723,
				"method": "rhf"
			},
			{
				"type": "unocc",
				"energy": -0.05623,
				"method": "rhf"
			},
			{
				"type": "unocc",
				"energy": 0.00828,
				"method": "rhf"
			},
			{
				"type": "unocc",
				"energy": 0.01078,
				"method": "rhf"
			},
			{
				"type": "unocc",
				"energy": 0.06028,
				"method": "rhf"
			},
			{
				"type": "unocc",
				"energy": 0.06834,
				"method": "rhf"
			}
		],
		"cosmo_sigma_profile": { 
			"-0.025": 0.0,
			"-0.024": 0.0,
			"-0.023": 0.0,
			"-0.022": 0.0,
			"-0.021": 0.0,
			"-0.02": 0.0,
			"-0.019": 0.0,
			"-0.018": 0.0,
			"-0.017": 0.0,
			"-0.016": 0.0,
			"-0.015": 0.11018996332,
			"-0.014": 0.983745541949,
			"-0.013": 1.36311464055,
			"-0.012": 1.71223206649,
			"-0.011": 1.71773579293,
			"-0.01": 2.00164699576,
			"-0.009": 2.87960921138,
			"-0.008": 4.10684593711,
			"-0.007": 9.21856738685,
			"-0.006": 9.03077840025,
			"-0.005": 10.5017004865,
			"-0.004": 14.8238814288,
			"-0.003": 45.1062931924,
			"-0.002": 59.3570344479,
			"-0.001": 59.6606677787,
			"0.0": 52.683590136,
			"0.001": 40.8613696189,
			"0.002": 18.5284941704,
			"0.003": 8.86236972512,
			"0.004": 8.37204829121,
			"0.005": 6.44155547009,
			"0.006": 4.98577401627,
			"0.007": 5.70847381677,
			"0.008": 4.64704630123,
			"0.009": 5.40770925863,
			"0.01": 5.20213611219,
			"0.011": 5.23272886426,
			"0.012": 8.42892968484,
			"0.013": 7.02936403224,
			"0.014": 2.74025465552,
			"0.015": 1.88525938645,
			"0.016": 0.0,
			"0.017": 0.0,
			"0.018": 0.0,
			"0.019": 0.0,
			"0.02": 0.0,
			"0.021": 0.0,
			"0.022": 0.0,
			"0.023": 0.0,
			"0.024": 0.0,
			"0.025": 0.0
		}
	}
}
