{
	 "smiles": "C1=CC=C2C=NC=CC2=C1", 
	 "Tm": 299.35, 
	 "num_atms": 17, 
	 "gaussian": { 
		 "optdone": 1, 
		 "sigma_profile": "yes", 
		 "theory": "DFT", 
		 "functional": "B3LYP", 
		 "basiset": "6-31G**", 
		 "properties": { 
			 "R2extent": 1323.9486, 
			 "electric_dipole_moment_norm": 2.54004662556, 
			 "electric_quadrupole_moment_norm": 8.56419515892, 
			 "total_energy": -401.931020117, 
			 "HOMO_LUMO_gap": 0.17715, 
			 "cosmo_polarized_energy": -6.72, 
			 "cosmo_cavitation_energy": 20.68, 
			 "cosmo_dispersion_energy": -15.7, 
			 "cosmo_repulsion_energy": 1.23, 
			 "cosmo_total_nonelectrostatic_energy": 6.22, 
			 "SMD_solvation_energy": 1.96 
		},
		"coords": [
			{
				"x": 1.75478908,
				"y": -1.7974147693,
				"z": -1.1213635637,
				"element": "C" 
			},
			{
				"x": 0.8294586609,
				"y": -2.6892532779,
				"z": -0.5211355917,
				"element": "C" 
			},
			{
				"x": -0.1576590794,
				"y": -2.2083546439,
				"z": 0.3092373012,
				"element": "C" 
			},
			{
				"x": -0.2567874481,
				"y": -0.8172218874,
				"z": 0.5708187483,
				"element": "C" 
			},
			{
				"x": -1.254661127,
				"y": -0.2619151303,
				"z": 1.4193945819,
				"element": "C" 
			},
			{
				"x": -1.3781576631,
				"y": 1.0217727635,
				"z": 1.6856514964,
				"element": "N" 
			},
			{
				"x": -0.4840503659,
				"y": 1.869423421,
				"z": 1.1038368655,
				"element": "C" 
			},
			{
				"x": 0.5272919648,
				"y": 1.4624588155,
				"z": 0.2644723391,
				"element": "C" 
			},
			{
				"x": 0.6741774478,
				"y": 0.0827910579,
				"z": -0.0326945025,
				"element": "C" 
			},
			{
				"x": 1.6819145244,
				"y": -0.4426590174,
				"z": -0.8849892866,
				"element": "C" 
			},
			{
				"x": 2.5279280758,
				"y": -2.1925041553,
				"z": -1.7741962109,
				"element": "H" 
			},
			{
				"x": 0.905501198,
				"y": -3.7538349825,
				"z": -0.7214715172,
				"element": "H" 
			},
			{
				"x": -0.8712638838,
				"y": -2.8842097432,
				"z": 0.7736889188,
				"element": "H" 
			},
			{
				"x": -1.9754056226,
				"y": -0.93243123,
				"z": 1.890099865,
				"element": "H" 
			},
			{
				"x": -0.6129769836,
				"y": 2.9224297328,
				"z": 1.3437063238,
				"element": "H" 
			},
			{
				"x": 1.2098805438,
				"y": 2.1880307275,
				"z": -0.169279653,
				"element": "H" 
			},
			{
				"x": 2.3919206778,
				"y": 0.238892319,
				"z": -1.3458761146,
				"element": "H" 
			}
		],
		 "valence_orbital": [ 
			{
				"type": "occ",
				"energy": -0.34333,
				"method": "rhf"
			},
			{
				"type": "occ",
				"energy": -0.29647,
				"method": "rhf"
			},
			{
				"type": "occ",
				"energy": -0.26327,
				"method": "rhf"
			},
			{
				"type": "occ",
				"energy": -0.25181,
				"method": "rhf"
			},
			{
				"type": "occ",
				"energy": -0.22865,
				"method": "rhf"
			},
			{
				"type": "unocc",
				"energy": -0.0515,
				"method": "rhf"
			},
			{
				"type": "unocc",
				"energy": -0.02205,
				"method": "rhf"
			},
			{
				"type": "unocc",
				"energy": 0.02399,
				"method": "rhf"
			},
			{
				"type": "unocc",
				"energy": 0.0867,
				"method": "rhf"
			},
			{
				"type": "unocc",
				"energy": 0.09346,
				"method": "rhf"
			}
		],
		"cosmo_sigma_profile": { 
			"-0.025": 0.0,
			"-0.024": 0.0,
			"-0.023": 0.0,
			"-0.022": 0.0,
			"-0.021": 0.0,
			"-0.02": 0.0,
			"-0.019": 0.0,
			"-0.018": 0.0,
			"-0.017": 0.0,
			"-0.016": 0.0,
			"-0.015": 0.0,
			"-0.014": 0.0,
			"-0.013": 0.0,
			"-0.012": 0.0,
			"-0.011": 0.0,
			"-0.01": 0.0,
			"-0.009": 0.0,
			"-0.008": 0.0,
			"-0.007": 4.13332377353,
			"-0.006": 17.160939898,
			"-0.005": 13.5153768922,
			"-0.004": 14.2207835607,
			"-0.003": 10.5406123653,
			"-0.002": 9.08187331287,
			"-0.001": 7.50055716856,
			"0.0": 9.7791715746,
			"0.001": 13.5142267633,
			"0.002": 18.5885006907,
			"0.003": 20.4343785163,
			"0.004": 12.5568168202,
			"0.005": 3.02439094775,
			"0.006": 1.44623131966,
			"0.007": 1.23672799802,
			"0.008": 1.3710183289,
			"0.009": 0.876965057068,
			"0.01": 1.4866835343,
			"0.011": 1.3191910571,
			"0.012": 0.85557142394,
			"0.013": 1.15852651078,
			"0.014": 0.470738037295,
			"0.015": 0.914107624316,
			"0.016": 1.04057490386,
			"0.017": 0.439516746745,
			"0.018": 0.0,
			"0.019": 0.0,
			"0.02": 0.0,
			"0.021": 0.0,
			"0.022": 0.0,
			"0.023": 0.0,
			"0.024": 0.0,
			"0.025": 0.0
		}
	}
}
