{
	 "smiles": "NC1=CN(N=C1)C1=CC=NC=C1", 
	 "Tm": 426.15, 
	 "num_atms": 20, 
	 "gaussian": { 
		 "optdone": 1, 
		 "sigma_profile": "yes", 
		 "theory": "DFT", 
		 "functional": "B3LYP", 
		 "basiset": "6-31G**", 
		 "properties": { 
			 "R2extent": 2958.9593, 
			 "electric_dipole_moment_norm": 4.50010494989, 
			 "electric_quadrupole_moment_norm": 7.54517781103, 
			 "total_energy": -528.6424529, 
			 "HOMO_LUMO_gap": 0.17022, 
			 "cosmo_polarized_energy": -14.33, 
			 "cosmo_cavitation_energy": 24.45, 
			 "cosmo_dispersion_energy": -18.43, 
			 "cosmo_repulsion_energy": 1.45, 
			 "cosmo_total_nonelectrostatic_energy": 7.47, 
			 "SMD_solvation_energy": 2.63 
		},
		"coords": [
			{
				"x": 0.8117288468,
				"y": -3.2153858517,
				"z": -0.6218763794,
				"element": "N" 
			},
			{
				"x": -0.1688966586,
				"y": -2.2182673549,
				"z": -0.6030459732,
				"element": "C" 
			},
			{
				"x": -0.0391909667,
				"y": -0.8828980157,
				"z": -0.2822952698,
				"element": "C" 
			},
			{
				"x": -1.3058081188,
				"y": -0.3357301515,
				"z": -0.332313375,
				"element": "N" 
			},
			{
				"x": -2.2363166443,
				"y": -1.2576765574,
				"z": -0.6755987206,
				"element": "N" 
			},
			{
				"x": -1.563437488,
				"y": -2.388200527,
				"z": -0.8352511927,
				"element": "C" 
			},
			{
				"x": -1.6911534448,
				"y": 0.9946611456,
				"z": -0.0869478143,
				"element": "C" 
			},
			{
				"x": -0.7676115418,
				"y": 1.961087001,
				"z": 0.3298298031,
				"element": "C" 
			},
			{
				"x": -1.2237364739,
				"y": 3.2596293598,
				"z": 0.5494589668,
				"element": "C" 
			},
			{
				"x": -2.4921573608,
				"y": 3.6542829393,
				"z": 0.3919583772,
				"element": "N" 
			},
			{
				"x": -3.3602109692,
				"y": 2.7116728889,
				"z": -0.004376971,
				"element": "C" 
			},
			{
				"x": -3.0256039724,
				"y": 1.385277544,
				"z": -0.2566649664,
				"element": "C" 
			},
			{
				"x": 1.7495893476,
				"y": -2.8635888741,
				"z": -0.7662491093,
				"element": "H" 
			},
			{
				"x": 0.6148544913,
				"y": -3.9566271631,
				"z": -1.2824823909,
				"element": "H" 
			},
			{
				"x": 0.83295798,
				"y": -0.3020550673,
				"z": -0.0309633441,
				"element": "H" 
			},
			{
				"x": -2.0871986614,
				"y": -3.2952418484,
				"z": -1.1084396266,
				"element": "H" 
			},
			{
				"x": 0.2780130276,
				"y": 1.7260022625,
				"z": 0.4892122687,
				"element": "H" 
			},
			{
				"x": -0.5191753438,
				"y": 4.023824056,
				"z": 0.8737026618,
				"element": "H" 
			},
			{
				"x": -4.391942221,
				"y": 3.0350796545,
				"z": -0.1306060493,
				"element": "H" 
			},
			{
				"x": -3.7650038277,
				"y": 0.6626545596,
				"z": -0.5756508952,
				"element": "H" 
			}
		],
		 "valence_orbital": [ 
			{
				"type": "occ",
				"energy": -0.29629,
				"method": "rhf"
			},
			{
				"type": "occ",
				"energy": -0.2622,
				"method": "rhf"
			},
			{
				"type": "occ",
				"energy": -0.25212,
				"method": "rhf"
			},
			{
				"type": "occ",
				"energy": -0.24747,
				"method": "rhf"
			},
			{
				"type": "occ",
				"energy": -0.20651,
				"method": "rhf"
			},
			{
				"type": "unocc",
				"energy": -0.03629,
				"method": "rhf"
			},
			{
				"type": "unocc",
				"energy": -0.00963,
				"method": "rhf"
			},
			{
				"type": "unocc",
				"energy": 0.03419,
				"method": "rhf"
			},
			{
				"type": "unocc",
				"energy": 0.06309,
				"method": "rhf"
			},
			{
				"type": "unocc",
				"energy": 0.08695,
				"method": "rhf"
			}
		],
		"cosmo_sigma_profile": { 
			"-0.025": 0.0,
			"-0.024": 0.0,
			"-0.023": 0.0,
			"-0.022": 0.0,
			"-0.021": 0.0,
			"-0.02": 0.0,
			"-0.019": 0.0,
			"-0.018": 0.0,
			"-0.017": 0.0,
			"-0.016": 0.0,
			"-0.015": 0.0,
			"-0.014": 0.0,
			"-0.013": 0.447565210963,
			"-0.012": 3.15996499285,
			"-0.011": 3.1042195246,
			"-0.01": 5.11668555338,
			"-0.009": 6.30923026217,
			"-0.008": 6.05868794267,
			"-0.007": 7.27721293874,
			"-0.006": 11.5374914832,
			"-0.005": 10.1137239673,
			"-0.004": 9.61545711671,
			"-0.003": 7.69315765031,
			"-0.002": 8.25795431132,
			"-0.001": 7.86189023502,
			"0.0": 11.0279851413,
			"0.001": 14.5224672794,
			"0.002": 21.0682228569,
			"0.003": 14.2500730053,
			"0.004": 10.9395663758,
			"0.005": 6.57001099901,
			"0.006": 4.42240079618,
			"0.007": 3.21391199185,
			"0.008": 5.06804331351,
			"0.009": 2.9832353103,
			"0.01": 3.43228690708,
			"0.011": 3.28786032119,
			"0.012": 2.4944647388,
			"0.013": 1.69912281636,
			"0.014": 2.00025892622,
			"0.015": 0.970592123502,
			"0.016": 1.46708114562,
			"0.017": 0.408626942442,
			"0.018": 0.0,
			"0.019": 0.0,
			"0.02": 0.0,
			"0.021": 0.0,
			"0.022": 0.0,
			"0.023": 0.0,
			"0.024": 0.0,
			"0.025": 0.0
		}
	}
}
