{
	 "smiles": "CC1=NOC(=N1)C1=CC=C(C=C1)C(Cl)=O", 
	 "Tm": 389.15, 
	 "num_atms": 22, 
	 "gaussian": { 
		 "optdone": 1, 
		 "sigma_profile": "yes", 
		 "theory": "DFT", 
		 "functional": "B3LYP", 
		 "basiset": "6-31G**", 
		 "properties": { 
			 "R2extent": 6498.8431, 
			 "electric_dipole_moment_norm": 3.00342611862, 
			 "electric_quadrupole_moment_norm": 17.7942876491, 
			 "total_energy": -1105.40496941, 
			 "HOMO_LUMO_gap": 0.16641, 
			 "cosmo_polarized_energy": -9.12, 
			 "cosmo_cavitation_energy": 29.81, 
			 "cosmo_dispersion_energy": -22.1, 
			 "cosmo_repulsion_energy": 1.71, 
			 "cosmo_total_nonelectrostatic_energy": 9.43, 
			 "SMD_solvation_energy": 4.04 
		},
		"coords": [
			{
				"x": 2.2553810347,
				"y": -1.2603846111,
				"z": 3.2973398447,
				"element": "C" 
			},
			{
				"x": 1.7335860141,
				"y": -0.8107763493,
				"z": 1.9691540263,
				"element": "C" 
			},
			{
				"x": 2.2186587711,
				"y": -1.256738701,
				"z": 0.8325594367,
				"element": "N" 
			},
			{
				"x": 1.4522967342,
				"y": -0.5848745084,
				"z": -0.1337304553,
				"element": "O" 
			},
			{
				"x": 0.5858100259,
				"y": 0.1958870406,
				"z": 0.5353248697,
				"element": "C" 
			},
			{
				"x": 0.7103126017,
				"y": 0.1001309783,
				"z": 1.8325173297,
				"element": "N" 
			},
			{
				"x": -0.3529973057,
				"y": 1.0244053338,
				"z": -0.2184238651,
				"element": "C" 
			},
			{
				"x": -0.360274075,
				"y": 1.0144225665,
				"z": -1.6217232804,
				"element": "C" 
			},
			{
				"x": -1.2615179461,
				"y": 1.8104057593,
				"z": -2.3199337926,
				"element": "C" 
			},
			{
				"x": -2.164840704,
				"y": 2.6245921488,
				"z": -1.6227215315,
				"element": "C" 
			},
			{
				"x": -2.1558585801,
				"y": 2.6330559851,
				"z": -0.2154265224,
				"element": "C" 
			},
			{
				"x": -1.2577197223,
				"y": 1.8398399666,
				"z": 0.4823118054,
				"element": "C" 
			},
			{
				"x": -3.1629401717,
				"y": 3.5073843543,
				"z": -2.2774642936,
				"element": "C" 
			},
			{
				"x": -3.154441396,
				"y": 3.4784009527,
				"z": -4.1042013209,
				"element": "Cl" 
			},
			{
				"x": -3.9460017056,
				"y": 4.2124504082,
				"z": -1.7151105191,
				"element": "O" 
			},
			{
				"x": 1.7024616143,
				"y": -0.7579661848,
				"z": 4.091649098,
				"element": "H" 
			},
			{
				"x": 3.3182047137,
				"y": -1.0234138768,
				"z": 3.3975371067,
				"element": "H" 
			},
			{
				"x": 2.1425088396,
				"y": -2.3418865949,
				"z": 3.4131060317,
				"element": "H" 
			},
			{
				"x": 0.3392949114,
				"y": 0.3839968635,
				"z": -2.1591174695,
				"element": "H" 
			},
			{
				"x": -1.2659392946,
				"y": 1.801694173,
				"z": -3.4027597008,
				"element": "H" 
			},
			{
				"x": -2.8605725777,
				"y": 3.2679568255,
				"z": 0.3095433422,
				"element": "H" 
			},
			{
				"x": -1.240211782,
				"y": 1.8369174702,
				"z": 1.5664698601,
				"element": "H" 
			}
		],
		 "valence_orbital": [ 
			{
				"type": "occ",
				"energy": -0.31894,
				"method": "rhf"
			},
			{
				"type": "occ",
				"energy": -0.3077,
				"method": "rhf"
			},
			{
				"type": "occ",
				"energy": -0.3012,
				"method": "rhf"
			},
			{
				"type": "occ",
				"energy": -0.28801,
				"method": "rhf"
			},
			{
				"type": "occ",
				"energy": -0.26902,
				"method": "rhf"
			},
			{
				"type": "unocc",
				"energy": -0.10261,
				"method": "rhf"
			},
			{
				"type": "unocc",
				"energy": -0.03665,
				"method": "rhf"
			},
			{
				"type": "unocc",
				"energy": -0.03243,
				"method": "rhf"
			},
			{
				"type": "unocc",
				"energy": 0.0129,
				"method": "rhf"
			},
			{
				"type": "unocc",
				"energy": 0.01333,
				"method": "rhf"
			}
		],
		"cosmo_sigma_profile": { 
			"-0.025": 0.0,
			"-0.024": 0.0,
			"-0.023": 0.0,
			"-0.022": 0.0,
			"-0.021": 0.0,
			"-0.02": 0.0,
			"-0.019": 0.0,
			"-0.018": 0.0,
			"-0.017": 0.0,
			"-0.016": 0.0,
			"-0.015": 0.0,
			"-0.014": 0.0,
			"-0.013": 0.0,
			"-0.012": 0.0,
			"-0.011": 0.0,
			"-0.01": 0.0,
			"-0.009": 0.0,
			"-0.008": 2.70878339161,
			"-0.007": 7.85475585209,
			"-0.006": 11.2870057681,
			"-0.005": 12.5834569104,
			"-0.004": 19.4565353743,
			"-0.003": 21.4515905885,
			"-0.002": 27.3193511866,
			"-0.001": 24.1522836099,
			"0.0": 23.6524855007,
			"0.001": 18.7438418628,
			"0.002": 10.1845272012,
			"0.003": 11.5664799736,
			"0.004": 10.7473754644,
			"0.005": 9.63703717371,
			"0.006": 6.97048988234,
			"0.007": 5.55867489614,
			"0.008": 7.10714505586,
			"0.009": 5.09238773532,
			"0.01": 2.15030341726,
			"0.011": 1.63295126047,
			"0.012": 2.15688018801,
			"0.013": 0.965580555629,
			"0.014": 0.0,
			"0.015": 0.0,
			"0.016": 0.0,
			"0.017": 0.0,
			"0.018": 0.0,
			"0.019": 0.0,
			"0.02": 0.0,
			"0.021": 0.0,
			"0.022": 0.0,
			"0.023": 0.0,
			"0.024": 0.0,
			"0.025": 0.0
		}
	}
}
