{
	 "smiles": "ClC1=NC(Cl)=C(C=O)N1C1=CC=CC=C1", 
	 "Tm": 407.15, 
	 "num_atms": 21, 
	 "gaussian": { 
		 "optdone": 1, 
		 "sigma_profile": "yes", 
		 "theory": "DFT", 
		 "functional": "B3LYP", 
		 "basiset": "6-31G**", 
		 "properties": { 
			 "R2extent": 4463.505, 
			 "electric_dipole_moment_norm": 2.94531339419, 
			 "electric_quadrupole_moment_norm": 14.6269514674, 
			 "total_energy": -1489.76452892, 
			 "HOMO_LUMO_gap": 0.18131, 
			 "cosmo_polarized_energy": -10.58, 
			 "cosmo_cavitation_energy": 30.46, 
			 "cosmo_dispersion_energy": -21.25, 
			 "cosmo_repulsion_energy": 1.69, 
			 "cosmo_total_nonelectrostatic_energy": 10.89, 
			 "SMD_solvation_energy": 4.21 
		},
		"coords": [
			{
				"x": 2.9887299713,
				"y": -1.660312478,
				"z": 0.2236396158,
				"element": "Cl" 
			},
			{
				"x": 2.04804144,
				"y": -0.6719608533,
				"z": 1.2670517245,
				"element": "C" 
			},
			{
				"x": 2.5066574383,
				"y": -0.1329438432,
				"z": 2.3796129067,
				"element": "N" 
			},
			{
				"x": 1.4481080378,
				"y": 0.550445419,
				"z": 2.8699385374,
				"element": "C" 
			},
			{
				"x": 1.5697877546,
				"y": 1.43823212,
				"z": 4.3474840426,
				"element": "Cl" 
			},
			{
				"x": 0.3229206807,
				"y": 0.4401233955,
				"z": 2.0634334646,
				"element": "C" 
			},
			{
				"x": -1.00717687,
				"y": 1.0071051697,
				"z": 2.221300953,
				"element": "C" 
			},
			{
				"x": -1.9378872833,
				"y": 0.8473953168,
				"z": 1.4487204204,
				"element": "O" 
			},
			{
				"x": 0.744894617,
				"y": -0.3767211977,
				"z": 1.0043697327,
				"element": "N" 
			},
			{
				"x": -0.0299551946,
				"y": -0.8160664162,
				"z": -0.1292785915,
				"element": "C" 
			},
			{
				"x": -0.7167883692,
				"y": -2.0275706483,
				"z": -0.0594539252,
				"element": "C" 
			},
			{
				"x": -1.448130226,
				"y": -2.4584438971,
				"z": -1.1657018838,
				"element": "C" 
			},
			{
				"x": -1.4869793028,
				"y": -1.6824085215,
				"z": -2.3257992831,
				"element": "C" 
			},
			{
				"x": -0.7930231638,
				"y": -0.4720578154,
				"z": -2.3835538046,
				"element": "C" 
			},
			{
				"x": -0.0586079039,
				"y": -0.0330095669,
				"z": -1.2827395345,
				"element": "C" 
			},
			{
				"x": -1.1082179791,
				"y": 1.6204448386,
				"z": 3.138655591,
				"element": "H" 
			},
			{
				"x": -0.6796792683,
				"y": -2.6167310915,
				"z": 0.8509635878,
				"element": "H" 
			},
			{
				"x": -1.9879822203,
				"y": -3.3990703385,
				"z": -1.1193188121,
				"element": "H" 
			},
			{
				"x": -2.0587471061,
				"y": -2.0204622412,
				"z": -3.1847270077,
				"element": "H" 
			},
			{
				"x": -0.8233452431,
				"y": 0.1325312736,
				"z": -3.2846166281,
				"element": "H" 
			},
			{
				"x": 0.4831801909,
				"y": 0.9066813755,
				"z": -1.3099811058,
				"element": "H" 
			}
		],
		 "valence_orbital": [ 
			{
				"type": "occ",
				"energy": -0.30276,
				"method": "rhf"
			},
			{
				"type": "occ",
				"energy": -0.27738,
				"method": "rhf"
			},
			{
				"type": "occ",
				"energy": -0.27198,
				"method": "rhf"
			},
			{
				"type": "occ",
				"energy": -0.25686,
				"method": "rhf"
			},
			{
				"type": "occ",
				"energy": -0.24939,
				"method": "rhf"
			},
			{
				"type": "unocc",
				"energy": -0.06808,
				"method": "rhf"
			},
			{
				"type": "unocc",
				"energy": -0.0302,
				"method": "rhf"
			},
			{
				"type": "unocc",
				"energy": -0.02276,
				"method": "rhf"
			},
			{
				"type": "unocc",
				"energy": 0.00991,
				"method": "rhf"
			},
			{
				"type": "unocc",
				"energy": 0.01211,
				"method": "rhf"
			}
		],
		"cosmo_sigma_profile": { 
			"-0.025": 0.0,
			"-0.024": 0.0,
			"-0.023": 0.0,
			"-0.022": 0.0,
			"-0.021": 0.0,
			"-0.02": 0.0,
			"-0.019": 0.0,
			"-0.018": 0.0,
			"-0.017": 0.0,
			"-0.016": 0.0,
			"-0.015": 0.0,
			"-0.014": 0.0,
			"-0.013": 0.0,
			"-0.012": 0.0,
			"-0.011": 0.0,
			"-0.01": 0.0,
			"-0.009": 0.0,
			"-0.008": 1.1711421001,
			"-0.007": 10.8375555267,
			"-0.006": 17.5664294647,
			"-0.005": 19.1715649509,
			"-0.004": 20.0545929193,
			"-0.003": 18.4967154973,
			"-0.002": 17.0102712755,
			"-0.001": 16.6403004533,
			"0.0": 15.705108216,
			"0.001": 21.1817203859,
			"0.002": 25.6843733404,
			"0.003": 21.568416077,
			"0.004": 11.7361395981,
			"0.005": 5.24154299867,
			"0.006": 4.08318031902,
			"0.007": 3.53970885306,
			"0.008": 4.00413981449,
			"0.009": 3.05948196677,
			"0.01": 4.66125005039,
			"0.011": 4.84687901441,
			"0.012": 2.93439980524,
			"0.013": 1.33220981248,
			"0.014": 0.220077961283,
			"0.015": 0.0,
			"0.016": 0.0,
			"0.017": 0.0,
			"0.018": 0.0,
			"0.019": 0.0,
			"0.02": 0.0,
			"0.021": 0.0,
			"0.022": 0.0,
			"0.023": 0.0,
			"0.024": 0.0,
			"0.025": 0.0
		}
	}
}
