{
	 "smiles": "O1N=C(N=C1C1=CC=CC=C1)C1=CC=CC=C1", 
	 "Tm": 382.15, 
	 "num_atms": 27, 
	 "gaussian": { 
		 "optdone": 1, 
		 "sigma_profile": "yes", 
		 "theory": "DFT", 
		 "functional": "B3LYP", 
		 "basiset": "6-31G**", 
		 "properties": { 
			 "R2extent": 5859.6892, 
			 "electric_dipole_moment_norm": 2.05141949147, 
			 "electric_quadrupole_moment_norm": 15.2893143309, 
			 "total_energy": -724.218898316, 
			 "HOMO_LUMO_gap": 0.17717, 
			 "cosmo_polarized_energy": -8.17, 
			 "cosmo_cavitation_energy": 32.28, 
			 "cosmo_dispersion_energy": -23.95, 
			 "cosmo_repulsion_energy": 1.81, 
			 "cosmo_total_nonelectrostatic_energy": 10.14, 
			 "SMD_solvation_energy": 3.98 
		},
		"coords": [
			{
				"x": 1.2363591864,
				"y": -0.1499723819,
				"z": 2.0609857944,
				"element": "O" 
			},
			{
				"x": 2.133791382,
				"y": -0.9443459496,
				"z": 1.3334552994,
				"element": "N" 
			},
			{
				"x": 1.5093257835,
				"y": -1.1423409741,
				"z": 0.1907810809,
				"element": "C" 
			},
			{
				"x": 0.2713090651,
				"y": -0.5406339273,
				"z": 0.1111130257,
				"element": "N" 
			},
			{
				"x": 0.1603695129,
				"y": 0.045317711,
				"z": 1.2721991082,
				"element": "C" 
			},
			{
				"x": -0.9504629203,
				"y": 0.8483331015,
				"z": 1.7776838641,
				"element": "C" 
			},
			{
				"x": -0.9084165121,
				"y": 1.4122448523,
				"z": 3.0624803356,
				"element": "C" 
			},
			{
				"x": -1.9812989117,
				"y": 2.1738567193,
				"z": 3.5197340173,
				"element": "C" 
			},
			{
				"x": -3.0968627137,
				"y": 2.3771110597,
				"z": 2.7037045664,
				"element": "C" 
			},
			{
				"x": -3.1397796685,
				"y": 1.8160263765,
				"z": 1.4241864077,
				"element": "C" 
			},
			{
				"x": -2.0723484448,
				"y": 1.0535697577,
				"z": 0.9588721851,
				"element": "C" 
			},
			{
				"x": 2.0857844703,
				"y": -1.9372696063,
				"z": -0.9027040198,
				"element": "C" 
			},
			{
				"x": 1.3638265571,
				"y": -2.1068202291,
				"z": -2.0923149913,
				"element": "C" 
			},
			{
				"x": 1.9030679489,
				"y": -2.8592126637,
				"z": -3.1347791747,
				"element": "C" 
			},
			{
				"x": 3.1624875454,
				"y": -3.4460643335,
				"z": -2.9984155405,
				"element": "C" 
			},
			{
				"x": 3.884588668,
				"y": -3.2785523474,
				"z": -1.813031753,
				"element": "C" 
			},
			{
				"x": 3.3521152933,
				"y": -2.5285197921,
				"z": -0.7681100283,
				"element": "C" 
			},
			{
				"x": -0.0395956621,
				"y": 1.2510060744,
				"z": 3.6915907992,
				"element": "H" 
			},
			{
				"x": -1.9470652557,
				"y": 2.6093020625,
				"z": 4.5137971104,
				"element": "H" 
			},
			{
				"x": -3.9313972033,
				"y": 2.9716139025,
				"z": 3.0639491402,
				"element": "H" 
			},
			{
				"x": -4.006610371,
				"y": 1.9736853605,
				"z": 0.7894981908,
				"element": "H" 
			},
			{
				"x": -2.0884545257,
				"y": 0.6106890355,
				"z": -0.0310917224,
				"element": "H" 
			},
			{
				"x": 0.3866865822,
				"y": -1.6455354669,
				"z": -2.1849913743,
				"element": "H" 
			},
			{
				"x": 1.339203989,
				"y": -2.9872160286,
				"z": -4.0541991666,
				"element": "H" 
			},
			{
				"x": 3.5811265637,
				"y": -4.0319694771,
				"z": -3.8116995938,
				"element": "H" 
			},
			{
				"x": 4.8645857653,
				"y": -3.7338520925,
				"z": -1.7039667036,
				"element": "H" 
			},
			{
				"x": 3.9065638759,
				"y": -2.3940507432,
				"z": 0.1547731431,
				"element": "H" 
			}
		],
		 "valence_orbital": [ 
			{
				"type": "occ",
				"energy": -0.2936,
				"method": "rhf"
			},
			{
				"type": "occ",
				"energy": -0.26612,
				"method": "rhf"
			},
			{
				"type": "occ",
				"energy": -0.25775,
				"method": "rhf"
			},
			{
				"type": "occ",
				"energy": -0.25381,
				"method": "rhf"
			},
			{
				"type": "occ",
				"energy": -0.23707,
				"method": "rhf"
			},
			{
				"type": "unocc",
				"energy": -0.0599,
				"method": "rhf"
			},
			{
				"type": "unocc",
				"energy": -0.0339,
				"method": "rhf"
			},
			{
				"type": "unocc",
				"energy": -0.01452,
				"method": "rhf"
			},
			{
				"type": "unocc",
				"energy": -0.00329,
				"method": "rhf"
			},
			{
				"type": "unocc",
				"energy": 0.04201,
				"method": "rhf"
			}
		],
		"cosmo_sigma_profile": { 
			"-0.025": 0.0,
			"-0.024": 0.0,
			"-0.023": 0.0,
			"-0.022": 0.0,
			"-0.021": 0.0,
			"-0.02": 0.0,
			"-0.019": 0.0,
			"-0.018": 0.0,
			"-0.017": 0.0,
			"-0.016": 0.0,
			"-0.015": 0.0,
			"-0.014": 0.0,
			"-0.013": 0.0,
			"-0.012": 0.0,
			"-0.011": 0.0,
			"-0.01": 0.0,
			"-0.009": 0.0,
			"-0.008": 0.0,
			"-0.007": 4.0338495663,
			"-0.006": 17.4560888864,
			"-0.005": 21.5490516699,
			"-0.004": 20.9017460246,
			"-0.003": 17.5015972634,
			"-0.002": 17.9917661656,
			"-0.001": 17.3995015064,
			"0.0": 20.3396756764,
			"0.001": 24.1790055737,
			"0.002": 24.3943664889,
			"0.003": 25.5996047888,
			"0.004": 22.8274108728,
			"0.005": 8.16553324827,
			"0.006": 5.59789383445,
			"0.007": 3.75442325103,
			"0.008": 2.59483583573,
			"0.009": 2.687366467,
			"0.01": 1.57833355461,
			"0.011": 1.17512383807,
			"0.012": 1.12630851085,
			"0.013": 0.162790338835,
			"0.014": 0.0,
			"0.015": 0.0,
			"0.016": 0.0,
			"0.017": 0.0,
			"0.018": 0.0,
			"0.019": 0.0,
			"0.02": 0.0,
			"0.021": 0.0,
			"0.022": 0.0,
			"0.023": 0.0,
			"0.024": 0.0,
			"0.025": 0.0
		}
	}
}
