{
	 "smiles": "CCOC(=O)C1=C(N)N(N=C1)C1=NC=CC=N1", 
	 "Tm": 455.15, 
	 "num_atms": 28, 
	 "gaussian": { 
		 "optdone": 1, 
		 "sigma_profile": "yes", 
		 "theory": "DFT", 
		 "functional": "B3LYP", 
		 "basiset": "6-31G**", 
		 "properties": { 
			 "R2extent": 5777.2765, 
			 "electric_dipole_moment_norm": 3.26415730626, 
			 "electric_quadrupole_moment_norm": 22.2092408303, 
			 "total_energy": -811.903037886, 
			 "HOMO_LUMO_gap": 0.15184, 
			 "cosmo_polarized_energy": -16.12, 
			 "cosmo_cavitation_energy": 32.95, 
			 "cosmo_dispersion_energy": -24.62, 
			 "cosmo_repulsion_energy": 1.92, 
			 "cosmo_total_nonelectrostatic_energy": 10.25, 
			 "SMD_solvation_energy": 4.21 
		},
		"coords": [
			{
				"x": 1.6872951073,
				"y": 4.3686673508,
				"z": -4.2370753306,
				"element": "C" 
			},
			{
				"x": 1.5546118134,
				"y": 2.8709078693,
				"z": -4.0336104476,
				"element": "C" 
			},
			{
				"x": 0.9265799161,
				"y": 2.6636524767,
				"z": -2.7510548934,
				"element": "O" 
			},
			{
				"x": 0.7206168773,
				"y": 1.374192662,
				"z": -2.3944619771,
				"element": "C" 
			},
			{
				"x": 1.0429966356,
				"y": 0.4250315882,
				"z": -3.1082000264,
				"element": "O" 
			},
			{
				"x": 0.0895195198,
				"y": 1.2387217555,
				"z": -1.1017916634,
				"element": "C" 
			},
			{
				"x": -0.219662081,
				"y": -0.002958559,
				"z": -0.5301410615,
				"element": "C" 
			},
			{
				"x": -0.0030563246,
				"y": -1.2244637852,
				"z": -1.0396441886,
				"element": "N" 
			},
			{
				"x": -0.8069281549,
				"y": 0.276744624,
				"z": 0.6937873037,
				"element": "N" 
			},
			{
				"x": -0.8845972331,
				"y": 1.6532189156,
				"z": 0.9258704979,
				"element": "N" 
			},
			{
				"x": -0.3518774639,
				"y": 2.1946833246,
				"z": -0.1427913477,
				"element": "C" 
			},
			{
				"x": -1.2927169335,
				"y": -0.6238018258,
				"z": 1.6469899822,
				"element": "C" 
			},
			{
				"x": -1.1807715375,
				"y": -1.9295497474,
				"z": 1.3461513819,
				"element": "N" 
			},
			{
				"x": -1.6464588636,
				"y": -2.7877420522,
				"z": 2.2600387409,
				"element": "C" 
			},
			{
				"x": -2.2160754702,
				"y": -2.3687047343,
				"z": 3.4566365242,
				"element": "C" 
			},
			{
				"x": -2.2747226837,
				"y": -0.9871993499,
				"z": 3.6517001865,
				"element": "C" 
			},
			{
				"x": -1.8199980407,
				"y": -0.1066726012,
				"z": 2.7616726534,
				"element": "N" 
			},
			{
				"x": 2.3009648504,
				"y": 4.8171281759,
				"z": -3.4504087179,
				"element": "H" 
			},
			{
				"x": 2.1613697462,
				"y": 4.5727088562,
				"z": -5.2023038031,
				"element": "H" 
			},
			{
				"x": 0.7065472452,
				"y": 4.8529793581,
				"z": -4.2259143606,
				"element": "H" 
			},
			{
				"x": 0.9411762409,
				"y": 2.4043816644,
				"z": -4.8112814905,
				"element": "H" 
			},
			{
				"x": 2.5275307321,
				"y": 2.3687250177,
				"z": -4.0401633157,
				"element": "H" 
			},
			{
				"x": 0.4383354649,
				"y": -1.2428316408,
				"z": -1.9509146345,
				"element": "H" 
			},
			{
				"x": -0.2832976473,
				"y": -2.035132988,
				"z": -0.50739058,
				"element": "H" 
			},
			{
				"x": -0.2870348658,
				"y": 3.2719691552,
				"z": -0.2200261716,
				"element": "H" 
			},
			{
				"x": -1.5550058767,
				"y": -3.8438562167,
				"z": 2.0148704087,
				"element": "H" 
			},
			{
				"x": -2.5908710121,
				"y": -3.0711163631,
				"z": 4.1914653038,
				"element": "H" 
			},
			{
				"x": -2.7043699604,
				"y": -0.5674829308,
				"z": 4.559891027,
				"element": "H" 
			}
		],
		 "valence_orbital": [ 
			{
				"type": "occ",
				"energy": -0.28857,
				"method": "rhf"
			},
			{
				"type": "occ",
				"energy": -0.26562,
				"method": "rhf"
			},
			{
				"type": "occ",
				"energy": -0.25931,
				"method": "rhf"
			},
			{
				"type": "occ",
				"energy": -0.24816,
				"method": "rhf"
			},
			{
				"type": "occ",
				"energy": -0.20591,
				"method": "rhf"
			},
			{
				"type": "unocc",
				"energy": -0.05407,
				"method": "rhf"
			},
			{
				"type": "unocc",
				"energy": -0.04272,
				"method": "rhf"
			},
			{
				"type": "unocc",
				"energy": 0.00193,
				"method": "rhf"
			},
			{
				"type": "unocc",
				"energy": 0.04425,
				"method": "rhf"
			},
			{
				"type": "unocc",
				"energy": 0.08883,
				"method": "rhf"
			}
		],
		"cosmo_sigma_profile": { 
			"-0.025": 0.0,
			"-0.024": 0.0,
			"-0.023": 0.0,
			"-0.022": 0.0,
			"-0.021": 0.0,
			"-0.02": 0.0,
			"-0.019": 0.0,
			"-0.018": 0.0,
			"-0.017": 0.0,
			"-0.016": 0.0,
			"-0.015": 0.0,
			"-0.014": 0.0,
			"-0.013": 0.0,
			"-0.012": 0.0,
			"-0.011": 0.406068695219,
			"-0.01": 1.42193190289,
			"-0.009": 3.27387393553,
			"-0.008": 9.56259084356,
			"-0.007": 9.74023525206,
			"-0.006": 9.81169707522,
			"-0.005": 11.0710853403,
			"-0.004": 17.1936161055,
			"-0.003": 24.0643528049,
			"-0.002": 23.9593102481,
			"-0.001": 26.1264403521,
			"0.0": 28.1122246919,
			"0.001": 22.4162949123,
			"0.002": 15.4725128543,
			"0.003": 11.8972517394,
			"0.004": 7.82267521128,
			"0.005": 5.90231133193,
			"0.006": 4.75426263946,
			"0.007": 4.83376698098,
			"0.008": 3.68204275784,
			"0.009": 3.35477903079,
			"0.01": 2.89471070669,
			"0.011": 2.90957496807,
			"0.012": 3.96991744194,
			"0.013": 2.94951309679,
			"0.014": 0.826743218875,
			"0.015": 1.20556667948,
			"0.016": 1.21166767611,
			"0.017": 1.12988704127,
			"0.018": 0.874823499163,
			"0.019": 0.998563556168,
			"0.02": 0.141487792915,
			"0.021": 0.0,
			"0.022": 0.0,
			"0.023": 0.0,
			"0.024": 0.0,
			"0.025": 0.0
		}
	}
}
