{
	 "smiles": "OCC(N1CC=CC1=O)C1=CC=CC=C1", 
	 "Tm": 376.15, 
	 "num_atms": 28, 
	 "gaussian": { 
		 "optdone": 1, 
		 "sigma_profile": "yes", 
		 "theory": "DFT", 
		 "functional": "B3LYP", 
		 "basiset": "6-31G**", 
		 "properties": { 
			 "R2extent": 3859.7683, 
			 "electric_dipole_moment_norm": 3.46629771658, 
			 "electric_quadrupole_moment_norm": 13.3489786422, 
			 "total_energy": -670.294807646, 
			 "HOMO_LUMO_gap": 0.20509, 
			 "cosmo_polarized_energy": -14.49, 
			 "cosmo_cavitation_energy": 31.03, 
			 "cosmo_dispersion_energy": -21.61, 
			 "cosmo_repulsion_energy": 1.69, 
			 "cosmo_total_nonelectrostatic_energy": 11.11, 
			 "SMD_solvation_energy": 5.86 
		},
		"coords": [
			{
				"x": -2.3821407003,
				"y": 2.313756452,
				"z": -1.5985910509,
				"element": "O" 
			},
			{
				"x": -2.887446122,
				"y": 0.9928889149,
				"z": -1.7688796076,
				"element": "C" 
			},
			{
				"x": -1.9825679023,
				"y": -0.1026897194,
				"z": -1.1690268336,
				"element": "C" 
			},
			{
				"x": -1.7060821271,
				"y": 0.1855031069,
				"z": 0.2451723729,
				"element": "N" 
			},
			{
				"x": -0.509506298,
				"y": 0.8212004723,
				"z": 0.7732192817,
				"element": "C" 
			},
			{
				"x": -0.719533852,
				"y": 0.736983272,
				"z": 2.2614159699,
				"element": "C" 
			},
			{
				"x": -1.8659970329,
				"y": 0.1040144193,
				"z": 2.5334365607,
				"element": "C" 
			},
			{
				"x": -2.5274009756,
				"y": -0.2902400291,
				"z": 1.2558451651,
				"element": "C" 
			},
			{
				"x": -3.5737861001,
				"y": -0.9036657499,
				"z": 1.0893282951,
				"element": "O" 
			},
			{
				"x": -0.7047567844,
				"y": -0.3916617623,
				"z": -1.9454968197,
				"element": "C" 
			},
			{
				"x": -0.1790785041,
				"y": -1.6920014285,
				"z": -1.9263182822,
				"element": "C" 
			},
			{
				"x": 0.9914578668,
				"y": -2.0018715342,
				"z": -2.618510376,
				"element": "C" 
			},
			{
				"x": 1.6556061628,
				"y": -1.0114155956,
				"z": -3.34559079,
				"element": "C" 
			},
			{
				"x": 1.1417828762,
				"y": 0.2856819366,
				"z": -3.3714074693,
				"element": "C" 
			},
			{
				"x": -0.0281654398,
				"y": 0.5970321903,
				"z": -2.67453699,
				"element": "C" 
			},
			{
				"x": -2.4729921131,
				"y": 2.5289993766,
				"z": -0.6615851383,
				"element": "H" 
			},
			{
				"x": -3.8817931262,
				"y": 0.8961962937,
				"z": -1.3133952285,
				"element": "H" 
			},
			{
				"x": -2.9903223304,
				"y": 0.8348890761,
				"z": -2.8466918768,
				"element": "H" 
			},
			{
				"x": -2.5888118903,
				"y": -1.0167687338,
				"z": -1.1525076857,
				"element": "H" 
			},
			{
				"x": 0.4024104881,
				"y": 0.2929169201,
				"z": 0.4625674156,
				"element": "H" 
			},
			{
				"x": -0.4048534811,
				"y": 1.8586250625,
				"z": 0.4254229945,
				"element": "H" 
			},
			{
				"x": -0.0077958134,
				"y": 1.1439820802,
				"z": 2.9702150655,
				"element": "H" 
			},
			{
				"x": -2.2958518653,
				"y": -0.1250972075,
				"z": 3.4996234357,
				"element": "H" 
			},
			{
				"x": -0.6969105137,
				"y": -2.4675166683,
				"z": -1.3668315702,
				"element": "H" 
			},
			{
				"x": 1.3798385475,
				"y": -3.0162515766,
				"z": -2.5966502921,
				"element": "H" 
			},
			{
				"x": 2.5648523663,
				"y": -1.250615149,
				"z": -3.889789657,
				"element": "H" 
			},
			{
				"x": 1.6518495082,
				"y": 1.0613473294,
				"z": -3.935970191,
				"element": "H" 
			},
			{
				"x": -0.4215048438,
				"y": 1.6078782512,
				"z": -2.6912666976,
				"element": "H" 
			}
		],
		 "valence_orbital": [ 
			{
				"type": "occ",
				"energy": -0.27628,
				"method": "rhf"
			},
			{
				"type": "occ",
				"energy": -0.25368,
				"method": "rhf"
			},
			{
				"type": "occ",
				"energy": -0.25293,
				"method": "rhf"
			},
			{
				"type": "occ",
				"energy": -0.24499,
				"method": "rhf"
			},
			{
				"type": "occ",
				"energy": -0.23701,
				"method": "rhf"
			},
			{
				"type": "unocc",
				"energy": -0.03192,
				"method": "rhf"
			},
			{
				"type": "unocc",
				"energy": -0.0083,
				"method": "rhf"
			},
			{
				"type": "unocc",
				"energy": -0.00491,
				"method": "rhf"
			},
			{
				"type": "unocc",
				"energy": 0.06279,
				"method": "rhf"
			},
			{
				"type": "unocc",
				"energy": 0.09014,
				"method": "rhf"
			}
		],
		"cosmo_sigma_profile": { 
			"-0.025": 0.0,
			"-0.024": 0.0,
			"-0.023": 0.0,
			"-0.022": 0.0,
			"-0.021": 0.0,
			"-0.02": 0.0,
			"-0.019": 0.0,
			"-0.018": 0.0,
			"-0.017": 0.0,
			"-0.016": 0.0,
			"-0.015": 0.182303602949,
			"-0.014": 0.968944077408,
			"-0.013": 0.606442157579,
			"-0.012": 1.22682685344,
			"-0.011": 1.39747301985,
			"-0.01": 0.933996130189,
			"-0.009": 1.38128725976,
			"-0.008": 3.39451318828,
			"-0.007": 5.13192717189,
			"-0.006": 11.5349759082,
			"-0.005": 22.5353397402,
			"-0.004": 24.2941189301,
			"-0.003": 20.6177603969,
			"-0.002": 18.0737609953,
			"-0.001": 16.2732764693,
			"0.0": 18.1879335754,
			"0.001": 17.4320414368,
			"0.002": 13.7629488415,
			"0.003": 12.5769219799,
			"0.004": 11.1791000649,
			"0.005": 9.99055998712,
			"0.006": 7.59801650701,
			"0.007": 2.28478943394,
			"0.008": 2.59987597792,
			"0.009": 3.22825384657,
			"0.01": 1.14500531728,
			"0.011": 2.33227241628,
			"0.012": 3.05283193902,
			"0.013": 3.78919161346,
			"0.014": 6.37895882753,
			"0.015": 1.81954195346,
			"0.016": 0.122117755538,
			"0.017": 0.0,
			"0.018": 0.0,
			"0.019": 0.0,
			"0.02": 0.0,
			"0.021": 0.0,
			"0.022": 0.0,
			"0.023": 0.0,
			"0.024": 0.0,
			"0.025": 0.0
		}
	}
}
