{
	 "smiles": "CC1CCC2=C(C1)SC(N)=C2C#N", 
	 "Tm": 419.15, 
	 "num_atms": 25, 
	 "gaussian": { 
		 "optdone": 1, 
		 "sigma_profile": "yes", 
		 "theory": "DFT", 
		 "functional": "B3LYP", 
		 "basiset": "6-31G**", 
		 "properties": { 
			 "R2extent": 3617.1363, 
			 "electric_dipole_moment_norm": 3.88786495393, 
			 "electric_quadrupole_moment_norm": 25.6052573365, 
			 "total_energy": -895.983663801, 
			 "HOMO_LUMO_gap": 0.18277, 
			 "cosmo_polarized_energy": -12.23, 
			 "cosmo_cavitation_energy": 29.4, 
			 "cosmo_dispersion_energy": -21.53, 
			 "cosmo_repulsion_energy": 1.67, 
			 "cosmo_total_nonelectrostatic_energy": 9.55, 
			 "SMD_solvation_energy": 5.08 
		},
		"coords": [
			{
				"x": 0.2512177409,
				"y": -2.3879826271,
				"z": -2.0793536392,
				"element": "C" 
			},
			{
				"x": -0.2852324261,
				"y": -1.1928191459,
				"z": -1.2848019559,
				"element": "C" 
			},
			{
				"x": -1.6924202262,
				"y": -1.460881608,
				"z": -0.719949895,
				"element": "C" 
			},
			{
				"x": -2.2984071063,
				"y": -0.2174011189,
				"z": -0.0472209169,
				"element": "C" 
			},
			{
				"x": -1.2947692161,
				"y": 0.4591414723,
				"z": 0.850632131,
				"element": "C" 
			},
			{
				"x": 0.0357181996,
				"y": 0.1856933334,
				"z": 0.7795808012,
				"element": "C" 
			},
			{
				"x": 0.6839334279,
				"y": -0.8047924189,
				"z": -0.1450909267,
				"element": "C" 
			},
			{
				"x": 0.9544045692,
				"y": 1.1393222131,
				"z": 1.9489432232,
				"element": "S" 
			},
			{
				"x": -0.4988365666,
				"y": 1.902050768,
				"z": 2.5478720316,
				"element": "C" 
			},
			{
				"x": -0.449027743,
				"y": 2.8815001653,
				"z": 3.5116875191,
				"element": "N" 
			},
			{
				"x": -1.6145763191,
				"y": 1.4434689233,
				"z": 1.8636960575,
				"element": "C" 
			},
			{
				"x": -2.9180482638,
				"y": 1.9031286605,
				"z": 2.1829811607,
				"element": "C" 
			},
			{
				"x": -3.9731265539,
				"y": 2.3008973106,
				"z": 2.483139086,
				"element": "N" 
			},
			{
				"x": -0.3980089243,
				"y": -2.6195430398,
				"z": -2.9302874928,
				"element": "H" 
			},
			{
				"x": 1.2557344703,
				"y": -2.1901680053,
				"z": -2.4694110093,
				"element": "H" 
			},
			{
				"x": 0.3086453159,
				"y": -3.2843958849,
				"z": -1.4502423011,
				"element": "H" 
			},
			{
				"x": -0.3568661362,
				"y": -0.3298487125,
				"z": -1.9628842789,
				"element": "H" 
			},
			{
				"x": -2.3564019547,
				"y": -1.8061450797,
				"z": -1.5208330876,
				"element": "H" 
			},
			{
				"x": -1.6305546367,
				"y": -2.278587804,
				"z": 0.0114771229,
				"element": "H" 
			},
			{
				"x": -2.6397017447,
				"y": 0.4949385511,
				"z": -0.8120244812,
				"element": "H" 
			},
			{
				"x": -3.1928785582,
				"y": -0.4896415792,
				"z": 0.5258622206,
				"element": "H" 
			},
			{
				"x": 1.6093967757,
				"y": -0.3973463957,
				"z": -0.572022022,
				"element": "H" 
			},
			{
				"x": 0.9762364922,
				"y": -1.7100767495,
				"z": 0.4091516226,
				"element": "H" 
			},
			{
				"x": 0.278244348,
				"y": 2.8049112195,
				"z": 4.208510235,
				"element": "H" 
			},
			{
				"x": -1.3488749638,
				"y": 3.1442775524,
				"z": 3.8944887951,
				"element": "H" 
			}
		],
		 "valence_orbital": [ 
			{
				"type": "occ",
				"energy": -0.31915,
				"method": "rhf"
			},
			{
				"type": "occ",
				"energy": -0.31663,
				"method": "rhf"
			},
			{
				"type": "occ",
				"energy": -0.30938,
				"method": "rhf"
			},
			{
				"type": "occ",
				"energy": -0.2491,
				"method": "rhf"
			},
			{
				"type": "occ",
				"energy": -0.20291,
				"method": "rhf"
			},
			{
				"type": "unocc",
				"energy": -0.02014,
				"method": "rhf"
			},
			{
				"type": "unocc",
				"energy": -0.00148,
				"method": "rhf"
			},
			{
				"type": "unocc",
				"energy": 0.02197,
				"method": "rhf"
			},
			{
				"type": "unocc",
				"energy": 0.04759,
				"method": "rhf"
			},
			{
				"type": "unocc",
				"energy": 0.0668,
				"method": "rhf"
			}
		],
		"cosmo_sigma_profile": { 
			"-0.025": 0.0,
			"-0.024": 0.0,
			"-0.023": 0.0,
			"-0.022": 0.0,
			"-0.021": 0.0,
			"-0.02": 0.0,
			"-0.019": 0.0,
			"-0.018": 0.0,
			"-0.017": 0.0,
			"-0.016": 0.0,
			"-0.015": 0.657815709508,
			"-0.014": 1.67103500319,
			"-0.013": 2.91422005374,
			"-0.012": 2.54741719803,
			"-0.011": 2.79107160112,
			"-0.01": 2.10891795716,
			"-0.009": 1.91234714636,
			"-0.008": 1.87941790022,
			"-0.007": 2.22211262399,
			"-0.006": 1.97419782983,
			"-0.005": 1.98829802468,
			"-0.004": 10.0238089744,
			"-0.003": 21.936631565,
			"-0.002": 34.6335040249,
			"-0.001": 29.7831482558,
			"0.0": 22.4762627565,
			"0.001": 21.3885336312,
			"0.002": 14.6634088597,
			"0.003": 13.6533423432,
			"0.004": 10.6041793041,
			"0.005": 5.28510627459,
			"0.006": 2.41887270386,
			"0.007": 3.00442200953,
			"0.008": 3.44434748843,
			"0.009": 3.00815432948,
			"0.01": 4.50753786215,
			"0.011": 3.45980006201,
			"0.012": 2.88187418125,
			"0.013": 2.68877894176,
			"0.014": 1.34621837423,
			"0.015": 0.0,
			"0.016": 0.0,
			"0.017": 0.0,
			"0.018": 0.0,
			"0.019": 0.0,
			"0.02": 0.0,
			"0.021": 0.0,
			"0.022": 0.0,
			"0.023": 0.0,
			"0.024": 0.0,
			"0.0": 0.0
		}
	}
}
