{
	 "smiles": "NC1=NC2=C(C=CC(Br)=C2)N1CC1=CC=CC=C1", 
	 "Tm": 487.15, 
	 "num_atms": 30, 
	 "gaussian": { 
		 "optdone": 1, 
		 "sigma_profile": "yes", 
		 "theory": "DFT", 
		 "functional": "B3LYP", 
		 "basiset": "6-31G**", 
		 "properties": { 
			 "R2extent": 10457.3811, 
			 "electric_dipole_moment_norm": 6.67951979337, 
			 "electric_quadrupole_moment_norm": 17.6641006876, 
			 "total_energy": -3276.40234223, 
			 "HOMO_LUMO_gap": 0.18028, 
			 "cosmo_polarized_energy": -15.3, 
			 "cosmo_cavitation_energy": 36.28, 
			 "cosmo_dispersion_energy": -26.24, 
			 "cosmo_repulsion_energy": 2.02, 
			 "cosmo_total_nonelectrostatic_energy": 12.06, 
			 "SMD_solvation_energy": 2.62 
		},
		"coords": [
			{
				"x": -0.0704144045,
				"y": 2.0680330545,
				"z": -1.5817233628,
				"element": "N" 
			},
			{
				"x": -1.1147807775,
				"y": 1.231813333,
				"z": -1.2445326594,
				"element": "C" 
			},
			{
				"x": -2.2935963081,
				"y": 1.6248814214,
				"z": -0.8192944306,
				"element": "N" 
			},
			{
				"x": -3.0251651501,
				"y": 0.4530963025,
				"z": -0.6980658381,
				"element": "C" 
			},
			{
				"x": -2.2368278118,
				"y": -0.6697287708,
				"z": -1.0548435226,
				"element": "C" 
			},
			{
				"x": -2.726173521,
				"y": -1.9712129869,
				"z": -1.0040305683,
				"element": "C" 
			},
			{
				"x": -4.0492939089,
				"y": -2.1452503948,
				"z": -0.5900468127,
				"element": "C" 
			},
			{
				"x": -4.8295163472,
				"y": -1.0343623406,
				"z": -0.2391217124,
				"element": "C" 
			},
			{
				"x": -6.6384000115,
				"y": -1.3344625727,
				"z": 0.3263065719,
				"element": "Br" 
			},
			{
				"x": -4.3473614295,
				"y": 0.2707581931,
				"z": -0.2819089763,
				"element": "C" 
			},
			{
				"x": -0.9986569768,
				"y": -0.1374369973,
				"z": -1.4137279933,
				"element": "N" 
			},
			{
				"x": 0.1566204309,
				"y": -0.8355779821,
				"z": -1.957339764,
				"element": "C" 
			},
			{
				"x": 1.354570331,
				"y": -0.8730779176,
				"z": -1.0199920125,
				"element": "C" 
			},
			{
				"x": 1.1967089732,
				"y": -1.1797909297,
				"z": 0.338835046,
				"element": "C" 
			},
			{
				"x": 2.3059455337,
				"y": -1.2418421668,
				"z": 1.1812359994,
				"element": "C" 
			},
			{
				"x": 3.586952462,
				"y": -0.9983129244,
				"z": 0.6778846454,
				"element": "C" 
			},
			{
				"x": 3.7523646656,
				"y": -0.688793243,
				"z": -0.6720762054,
				"element": "C" 
			},
			{
				"x": 2.6401068915,
				"y": -0.6236254816,
				"z": -1.5152640283,
				"element": "C" 
			},
			{
				"x": -0.2624743162,
				"y": 3.0228998337,
				"z": -1.3070841918,
				"element": "H" 
			},
			{
				"x": 0.8469902861,
				"y": 1.7541582736,
				"z": -1.286855677,
				"element": "H" 
			},
			{
				"x": -2.1203889441,
				"y": -2.8314046846,
				"z": -1.2731369634,
				"element": "H" 
			},
			{
				"x": -4.4762892126,
				"y": -3.1395559722,
				"z": -0.5377421367,
				"element": "H" 
			},
			{
				"x": -4.9655777543,
				"y": 1.1161874946,
				"z": -0.005777462,
				"element": "H" 
			},
			{
				"x": 0.4422811995,
				"y": -0.3610303528,
				"z": -2.9031426403,
				"element": "H" 
			},
			{
				"x": -0.1693508341,
				"y": -1.8521741151,
				"z": -2.1995971584,
				"element": "H" 
			},
			{
				"x": 0.2020235153,
				"y": -1.3635336021,
				"z": 0.7354664503,
				"element": "H" 
			},
			{
				"x": 2.1708041072,
				"y": -1.4800433495,
				"z": 2.2322698283,
				"element": "H" 
			},
			{
				"x": 4.4492908212,
				"y": -1.045983241,
				"z": 1.3363026369,
				"element": "H" 
			},
			{
				"x": 4.7436348209,
				"y": -0.4923307752,
				"z": -1.0701890629,
				"element": "H" 
			},
			{
				"x": 2.7725736703,
				"y": -0.3803971058,
				"z": -2.5671079989,
				"element": "H" 
			}
		],
		 "valence_orbital": [ 
			{
				"type": "occ",
				"energy": -0.27197,
				"method": "rhf"
			},
			{
				"type": "occ",
				"energy": -0.26857,
				"method": "rhf"
			},
			{
				"type": "occ",
				"energy": -0.26341,
				"method": "rhf"
			},
			{
				"type": "occ",
				"energy": -0.21806,
				"method": "rhf"
			},
			{
				"type": "occ",
				"energy": -0.20462,
				"method": "rhf"
			},
			{
				"type": "unocc",
				"energy": -0.02434,
				"method": "rhf"
			},
			{
				"type": "unocc",
				"energy": -0.02017,
				"method": "rhf"
			},
			{
				"type": "unocc",
				"energy": -0.00762,
				"method": "rhf"
			},
			{
				"type": "unocc",
				"energy": 0.01802,
				"method": "rhf"
			},
			{
				"type": "unocc",
				"energy": 0.02053,
				"method": "rhf"
			}
		],
		"cosmo_sigma_profile": { 
			"-0.025": 0.0,
			"-0.024": 0.0,
			"-0.023": 0.0,
			"-0.022": 0.0,
			"-0.021": 0.0,
			"-0.02": 0.0,
			"-0.019": 0.0,
			"-0.018": 0.0,
			"-0.017": 0.0,
			"-0.016": 0.0,
			"-0.015": 0.0,
			"-0.014": 0.39270176612,
			"-0.013": 1.13991654272,
			"-0.012": 1.48675291346,
			"-0.011": 2.08931241945,
			"-0.01": 2.02741885468,
			"-0.009": 2.33528147704,
			"-0.008": 4.30238748065,
			"-0.007": 8.71366295162,
			"-0.006": 17.0143636274,
			"-0.005": 20.7878729135,
			"-0.004": 22.5663747051,
			"-0.003": 20.9796420305,
			"-0.002": 17.0952234899,
			"-0.001": 16.9104438158,
			"0.0": 15.7167969326,
			"0.001": 17.2506450027,
			"0.002": 16.8976906856,
			"0.003": 25.1823574585,
			"0.004": 30.2639186537,
			"0.005": 28.1106223223,
			"0.006": 6.70718536924,
			"0.007": 2.27823782784,
			"0.008": 2.57477090368,
			"0.009": 1.35764778804,
			"0.01": 1.51095356624,
			"0.011": 1.72640726633,
			"0.012": 1.45407405353,
			"0.013": 1.24281886461,
			"0.014": 1.05000867442,
			"0.015": 0.747957401638,
			"0.016": 1.02252077485,
			"0.017": 0.850491270008,
			"0.018": 0.0878519411428,
			"0.019": 0.0,
			"0.02": 0.0,
			"0.021": 0.0,
			"0.022": 0.0,
			"0.023": 0.0,
			"0.024": 0.0,
			"0.025": 0.0
		}
	}
}
