{
	 "smiles": "CC(=O)NC1=NN=C(S1)S(N)(=O)=O", 
	 "Tm": 533.15, 
	 "num_atms": 19, 
	 "gaussian": { 
		 "optdone": 1, 
		 "sigma_profile": "yes", 
		 "theory": "DFT", 
		 "functional": "B3LYP", 
		 "basiset": "6-31G**", 
		 "properties": { 
			 "R2extent": 5328.6666, 
			 "electric_dipole_moment_norm": 7.63332431448, 
			 "electric_quadrupole_moment_norm": 28.3541962029, 
			 "total_energy": -1396.99825928, 
			 "HOMO_LUMO_gap": 0.20178, 
			 "cosmo_polarized_energy": -25.12, 
			 "cosmo_cavitation_energy": 27.66, 
			 "cosmo_dispersion_energy": -21.5, 
			 "cosmo_repulsion_energy": 1.63, 
			 "cosmo_total_nonelectrostatic_energy": 7.78, 
			 "SMD_solvation_energy": 3.26 
		},
		"coords": [
			{
				"x": -4.2848779311,
				"y": -1.1008611107,
				"z": -1.413491294,
				"element": "C" 
			},
			{
				"x": -2.8514191452,
				"y": -1.5766735989,
				"z": -1.3364965359,
				"element": "C" 
			},
			{
				"x": -2.4073786596,
				"y": -2.5144587901,
				"z": -1.9785934239,
				"element": "O" 
			},
			{
				"x": -2.0329257787,
				"y": -0.8441836562,
				"z": -0.4881170433,
				"element": "N" 
			},
			{
				"x": -0.6890312,
				"y": -1.0861659824,
				"z": -0.2961291696,
				"element": "C" 
			},
			{
				"x": 0.0117683143,
				"y": -0.3336734727,
				"z": 0.5179985171,
				"element": "N" 
			},
			{
				"x": 1.3173910115,
				"y": -0.7319115934,
				"z": 0.5755462552,
				"element": "N" 
			},
			{
				"x": 1.5627836375,
				"y": -1.7531878486,
				"z": -0.187105536,
				"element": "C" 
			},
			{
				"x": 0.1954811563,
				"y": -2.3672269251,
				"z": -1.0957936913,
				"element": "S" 
			},
			{
				"x": 3.1991501798,
				"y": -2.5107993786,
				"z": -0.2253433362,
				"element": "S" 
			},
			{
				"x": 4.2262572001,
				"y": -1.2829244741,
				"z": 0.234345328,
				"element": "N" 
			},
			{
				"x": 3.4772856977,
				"y": -2.8222162167,
				"z": -1.6235310963,
				"element": "O" 
			},
			{
				"x": 3.2313759694,
				"y": -3.5242131179,
				"z": 0.8211965127,
				"element": "O" 
			},
			{
				"x": -4.3599837552,
				"y": -0.2822195533,
				"z": -2.1379120409,
				"element": "H" 
			},
			{
				"x": -4.6564271122,
				"y": -0.7403103646,
				"z": -0.4499765299,
				"element": "H" 
			},
			{
				"x": -4.9062894299,
				"y": -1.9256228655,
				"z": -1.7621398652,
				"element": "H" 
			},
			{
				"x": -2.4007070691,
				"y": -0.0679296569,
				"z": 0.0475138195,
				"element": "H" 
			},
			{
				"x": 4.2719893688,
				"y": -0.5480447054,
				"z": -0.4659534865,
				"element": "H" 
			},
			{
				"x": 3.9882575455,
				"y": -0.917676689,
				"z": 1.1532826164,
				"element": "H" 
			}
		],
		 "valence_orbital": [ 
			{
				"type": "occ",
				"energy": -0.31255,
				"method": "rhf"
			},
			{
				"type": "occ",
				"energy": -0.31074,
				"method": "rhf"
			},
			{
				"type": "occ",
				"energy": -0.30156,
				"method": "rhf"
			},
			{
				"type": "occ",
				"energy": -0.28764,
				"method": "rhf"
			},
			{
				"type": "occ",
				"energy": -0.2678,
				"method": "rhf"
			},
			{
				"type": "unocc",
				"energy": -0.06602,
				"method": "rhf"
			},
			{
				"type": "unocc",
				"energy": -0.02342,
				"method": "rhf"
			},
			{
				"type": "unocc",
				"energy": -0.00318,
				"method": "rhf"
			},
			{
				"type": "unocc",
				"energy": 0.01993,
				"method": "rhf"
			},
			{
				"type": "unocc",
				"energy": 0.02672,
				"method": "rhf"
			}
		],
		"cosmo_sigma_profile": { 
			"-0.025": 0.0,
			"-0.024": 0.0,
			"-0.023": 0.0,
			"-0.022": 0.0,
			"-0.021": 0.0,
			"-0.02": 0.0,
			"-0.019": 0.0,
			"-0.018": 0.0846797444794,
			"-0.017": 1.22835630029,
			"-0.016": 2.57258881174,
			"-0.015": 3.09969188307,
			"-0.014": 3.7010548024,
			"-0.013": 4.41451945966,
			"-0.012": 3.03279370233,
			"-0.011": 2.87431770823,
			"-0.01": 2.44026580077,
			"-0.009": 3.05711758109,
			"-0.008": 4.59225926468,
			"-0.007": 8.40869341575,
			"-0.006": 8.18811583761,
			"-0.005": 10.9624355615,
			"-0.004": 16.0120430268,
			"-0.003": 16.1773861459,
			"-0.002": 12.7826095032,
			"-0.001": 10.0010425864,
			"0.0": 9.54812608142,
			"0.001": 9.05110596637,
			"0.002": 6.7909164757,
			"0.003": 6.3536623463,
			"0.004": 5.87932840347,
			"0.005": 7.51449948887,
			"0.006": 7.24221209303,
			"0.007": 7.56087283869,
			"0.008": 6.89123686003,
			"0.009": 13.8711309309,
			"0.01": 17.8418279161,
			"0.011": 7.30245366303,
			"0.012": 2.72909016618,
			"0.013": 0.868015684542,
			"0.014": 0.000936793494628,
			"0.015": 0.0,
			"0.016": 0.0,
			"0.017": 0.0,
			"0.018": 0.0,
			"0.019": 0.0,
			"0.02": 0.0,
			"0.021": 0.0,
			"0.022": 0.0,
			"0.023": 0.0,
			"0.024": 0.0,
			"0.025": 0.0
		}
	}
}
