{
	 "smiles": "CC(C)CCCC(C)C1CCC2C3CC=C4CC(CCC4(C)C3CCC12C)OC(=O)CC1=CC=C(C=C1)N(CCCl)CCCl", 
	 "Tm": 363.15, 
	 "num_atms": 103, 
	 "gaussian": { 
		 "optdone": 1, 
		 "sigma_profile": "yes", 
		 "theory": "DFT", 
		 "functional": "B3LYP", 
		 "basiset": "6-31G**", 
		 "properties": { 
			 "R2extent": 53919.5769, 
			 "electric_dipole_moment_norm": 2.37319403758, 
			 "electric_quadrupole_moment_norm": 18.4624171649, 
			 "total_energy": -2647.33683652, 
			 "HOMO_LUMO_gap": 0.19473, 
			 "cosmo_polarized_energy": -16.62, 
			 "cosmo_cavitation_energy": 94.71, 
			 "cosmo_dispersion_energy": -60.96, 
			 "cosmo_repulsion_energy": 4.55, 
			 "cosmo_total_nonelectrostatic_energy": 38.31, 
			 "SMD_solvation_energy": 12.93 
		},
		"coords": [
			{
				"x": -4.6261564063,
				"y": -3.7900701801,
				"z": 5.1550808927,
				"element": "C" 
			},
			{
				"x": -3.5967906186,
				"y": -4.2427304498,
				"z": 4.1086486517,
				"element": "C" 
			},
			{
				"x": -2.6187193761,
				"y": -3.1025239659,
				"z": 3.7898014174,
				"element": "C" 
			},
			{
				"x": -4.3099994926,
				"y": -4.8063909313,
				"z": 2.8612246306,
				"element": "C" 
			},
			{
				"x": -3.3922766641,
				"y": -5.4129276152,
				"z": 1.7721790665,
				"element": "C" 
			},
			{
				"x": -3.1091093443,
				"y": -4.4641980097,
				"z": 0.5926725768,
				"element": "C" 
			},
			{
				"x": -2.0380760577,
				"y": -4.9490251655,
				"z": -0.4096233538,
				"element": "C" 
			},
			{
				"x": -2.4077867927,
				"y": -6.3354805602,
				"z": -0.9740123991,
				"element": "C" 
			},
			{
				"x": -1.7836600768,
				"y": -3.9455595479,
				"z": -1.5692030441,
				"element": "C" 
			},
			{
				"x": -0.7413376845,
				"y": -4.4534851966,
				"z": -2.5868186483,
				"element": "C" 
			},
			{
				"x": -0.4480925151,
				"y": -3.2436504339,
				"z": -3.4834697514,
				"element": "C" 
			},
			{
				"x": -0.7149807129,
				"y": -1.9685348938,
				"z": -2.6291263342,
				"element": "C" 
			},
			{
				"x": -1.6612708469,
				"y": -0.9836587654,
				"z": -3.3760718885,
				"element": "C" 
			},
			{
				"x": -1.0245283353,
				"y": -0.5518970273,
				"z": -4.7146763778,
				"element": "C" 
			},
			{
				"x": -0.004514112,
				"y": 0.5331727703,
				"z": -4.5209399503,
				"element": "C" 
			},
			{
				"x": -0.2295557327,
				"y": 1.5753236056,
				"z": -3.7120174884,
				"element": "C" 
			},
			{
				"x": 0.7191891784,
				"y": 2.7611489368,
				"z": -3.7354532464,
				"element": "C" 
			},
			{
				"x": 0.7794468521,
				"y": 3.581610996,
				"z": -2.4500819306,
				"element": "C" 
			},
			{
				"x": -0.6283390267,
				"y": 3.9093411723,
				"z": -1.9655193629,
				"element": "C" 
			},
			{
				"x": -1.4310431287,
				"y": 2.6245331849,
				"z": -1.7226813326,
				"element": "C" 
			},
			{
				"x": -1.5618930077,
				"y": 1.6834530067,
				"z": -2.9584154656,
				"element": "C" 
			},
			{
				"x": -2.584653954,
				"y": 2.3298205293,
				"z": -3.936085836,
				"element": "C" 
			},
			{
				"x": -2.1337350497,
				"y": 0.2552111147,
				"z": -2.5247494717,
				"element": "C" 
			},
			{
				"x": -1.9796660586,
				"y": -0.0688700094,
				"z": -1.0245216076,
				"element": "C" 
			},
			{
				"x": -2.3522241102,
				"y": -1.523519913,
				"z": -0.7200926157,
				"element": "C" 
			},
			{
				"x": -1.2685982721,
				"y": -2.4946543479,
				"z": -1.2442476462,
				"element": "C" 
			},
			{
				"x": -0.1030200084,
				"y": -2.5439124567,
				"z": -0.2315756027,
				"element": "C" 
			},
			{
				"x": 1.422264469,
				"y": 2.8228335357,
				"z": -1.3811876992,
				"element": "O" 
			},
			{
				"x": 2.769438877,
				"y": 2.8185628517,
				"z": -1.3572975024,
				"element": "C" 
			},
			{
				"x": 3.4708376292,
				"y": 3.3872600576,
				"z": -2.169777885,
				"element": "O" 
			},
			{
				"x": 3.3048233905,
				"y": 2.0436116762,
				"z": -0.1623501283,
				"element": "C" 
			},
			{
				"x": 3.7503978227,
				"y": 2.9768992153,
				"z": 0.9509795739,
				"element": "C" 
			},
			{
				"x": 3.1686386766,
				"y": 2.9259917505,
				"z": 2.2194139793,
				"element": "C" 
			},
			{
				"x": 3.5805769769,
				"y": 3.7680342138,
				"z": 3.2506664063,
				"element": "C" 
			},
			{
				"x": 4.599322797,
				"y": 4.7223363784,
				"z": 3.0467548209,
				"element": "C" 
			},
			{
				"x": 5.1898543863,
				"y": 4.766299287,
				"z": 1.7638131104,
				"element": "C" 
			},
			{
				"x": 4.7679244596,
				"y": 3.916597164,
				"z": 0.7466400003,
				"element": "C" 
			},
			{
				"x": 5.0033484905,
				"y": 5.5942926114,
				"z": 4.0693482139,
				"element": "N" 
			},
			{
				"x": 4.3762432913,
				"y": 5.5454448084,
				"z": 5.3807811268,
				"element": "C" 
			},
			{
				"x": 4.9579510049,
				"y": 4.4412731535,
				"z": 6.2738710302,
				"element": "C" 
			},
			{
				"x": 4.0661746473,
				"y": 4.365441337,
				"z": 7.8532554943,
				"element": "Cl" 
			},
			{
				"x": 6.0419723635,
				"y": 6.5864470501,
				"z": 3.8383454907,
				"element": "C" 
			},
			{
				"x": 7.4559912312,
				"y": 6.0046401411,
				"z": 3.9687321184,
				"element": "C" 
			},
			{
				"x": 8.7006866261,
				"y": 7.2689791592,
				"z": 3.586057551,
				"element": "Cl" 
			},
			{
				"x": -5.2380385891,
				"y": -2.9645728584,
				"z": 4.7706356908,
				"element": "H" 
			},
			{
				"x": -5.3045293253,
				"y": -4.6057191131,
				"z": 5.4287502199,
				"element": "H" 
			},
			{
				"x": -4.1363731553,
				"y": -3.4398589077,
				"z": 6.0703248275,
				"element": "H" 
			},
			{
				"x": -3.0134979736,
				"y": -5.0667216564,
				"z": 4.5476948406,
				"element": "H" 
			},
			{
				"x": -3.1398931892,
				"y": -2.25559693,
				"z": 3.3260651617,
				"element": "H" 
			},
			{
				"x": -2.1385960883,
				"y": -2.7341317594,
				"z": 4.703299129,
				"element": "H" 
			},
			{
				"x": -1.8239412819,
				"y": -3.4218414091,
				"z": 3.1084688962,
				"element": "H" 
			},
			{
				"x": -5.0122097106,
				"y": -5.57561882,
				"z": 3.2068197446,
				"element": "H" 
			},
			{
				"x": -4.9329544885,
				"y": -4.0155566102,
				"z": 2.4177240147,
				"element": "H" 
			},
			{
				"x": -2.4419349464,
				"y": -5.7277204178,
				"z": 2.2277060892,
				"element": "H" 
			},
			{
				"x": -3.8566173946,
				"y": -6.3298150683,
				"z": 1.3946440019,
				"element": "H" 
			},
			{
				"x": -4.0506066479,
				"y": -4.2824075248,
				"z": 0.0531789745,
				"element": "H" 
			},
			{
				"x": -2.8070327829,
				"y": -3.4967535973,
				"z": 0.9983357102,
				"element": "H" 
			},
			{
				"x": -1.0950806495,
				"y": -5.0672540304,
				"z": 0.1448471154,
				"element": "H" 
			},
			{
				"x": -2.5731410483,
				"y": -7.0618822518,
				"z": -0.1741906699,
				"element": "H" 
			},
			{
				"x": -3.3281568002,
				"y": -6.2828041421,
				"z": -1.5698688746,
				"element": "H" 
			},
			{
				"x": -1.6198407021,
				"y": -6.739858843,
				"z": -1.6136968848,
				"element": "H" 
			},
			{
				"x": -2.7389696279,
				"y": -3.8264481453,
				"z": -2.1072474804,
				"element": "H" 
			},
			{
				"x": -1.0951094355,
				"y": -5.3075033559,
				"z": -3.170318381,
				"element": "H" 
			},
			{
				"x": 0.1613447844,
				"y": -4.7862255348,
				"z": -2.0583448702,
				"element": "H" 
			},
			{
				"x": -1.1349468704,
				"y": -3.2667591119,
				"z": -4.3379316936,
				"element": "H" 
			},
			{
				"x": 0.5637820037,
				"y": -3.2683120206,
				"z": -3.9002844331,
				"element": "H" 
			},
			{
				"x": 0.2282422385,
				"y": -1.4394535298,
				"z": -2.448161794,
				"element": "H" 
			},
			{
				"x": -2.5643415072,
				"y": -1.5601832158,
				"z": -3.6184049738,
				"element": "H" 
			},
			{
				"x": -1.8146999608,
				"y": -0.1938564556,
				"z": -5.3913139098,
				"element": "H" 
			},
			{
				"x": -0.5794033263,
				"y": -1.4114357025,
				"z": -5.2224426642,
				"element": "H" 
			},
			{
				"x": 0.9125722259,
				"y": 0.4951517107,
				"z": -5.1075666558,
				"element": "H" 
			},
			{
				"x": 0.3859920608,
				"y": 3.4615707957,
				"z": -4.5173154595,
				"element": "H" 
			},
			{
				"x": 1.7244487011,
				"y": 2.4433675919,
				"z": -4.026542392,
				"element": "H" 
			},
			{
				"x": 1.3761829257,
				"y": 4.482337492,
				"z": -2.6143732108,
				"element": "H" 
			},
			{
				"x": -1.1025147239,
				"y": 4.5512528803,
				"z": -2.7179068795,
				"element": "H" 
			},
			{
				"x": -0.5767357648,
				"y": 4.4923445427,
				"z": -1.0392945234,
				"element": "H" 
			},
			{
				"x": -2.4339165245,
				"y": 2.8798083955,
				"z": -1.3597947592,
				"element": "H" 
			},
			{
				"x": -0.9275747784,
				"y": 2.1039321081,
				"z": -0.9083817752,
				"element": "H" 
			},
			{
				"x": -2.2397916698,
				"y": 3.3036610921,
				"z": -4.2987472,
				"element": "H" 
			},
			{
				"x": -3.5488607427,
				"y": 2.4825813793,
				"z": -3.4368995624,
				"element": "H" 
			},
			{
				"x": -2.7574625592,
				"y": 1.6992222143,
				"z": -4.8122745637,
				"element": "H" 
			},
			{
				"x": -3.2161731974,
				"y": 0.3301763395,
				"z": -2.6933168403,
				"element": "H" 
			},
			{
				"x": -0.9470566519,
				"y": 0.100468868,
				"z": -0.6982331581,
				"element": "H" 
			},
			{
				"x": -2.603576758,
				"y": 0.6049391879,
				"z": -0.42888048,
				"element": "H" 
			},
			{
				"x": -3.3274147149,
				"y": -1.7554130482,
				"z": -1.1695186898,
				"element": "H" 
			},
			{
				"x": -2.4785880884,
				"y": -1.639848088,
				"z": 0.3607883843,
				"element": "H" 
			},
			{
				"x": 0.7207824326,
				"y": -3.1718528269,
				"z": -0.5855375644,
				"element": "H" 
			},
			{
				"x": 0.3085716121,
				"y": -1.5433043832,
				"z": -0.062629989,
				"element": "H" 
			},
			{
				"x": -0.4254820356,
				"y": -2.9321558732,
				"z": 0.7400945676,
				"element": "H" 
			},
			{
				"x": 4.1526721847,
				"y": 1.4525211694,
				"z": -0.5256833272,
				"element": "H" 
			},
			{
				"x": 2.5378545468,
				"y": 1.3577713517,
				"z": 0.2038761957,
				"element": "H" 
			},
			{
				"x": 2.3761756136,
				"y": 2.2089469838,
				"z": 2.4191691938,
				"element": "H" 
			},
			{
				"x": 3.0927452887,
				"y": 3.6711692324,
				"z": 4.2128473582,
				"element": "H" 
			},
			{
				"x": 5.9853845658,
				"y": 5.4674444244,
				"z": 1.5428620061,
				"element": "H" 
			},
			{
				"x": 5.232737052,
				"y": 3.9919552757,
				"z": -0.2319692518,
				"element": "H" 
			},
			{
				"x": 3.2954082582,
				"y": 5.4023884772,
				"z": 5.2814530496,
				"element": "H" 
			},
			{
				"x": 4.516706794,
				"y": 6.5117385754,
				"z": 5.8725216834,
				"element": "H" 
			},
			{
				"x": 4.8675752275,
				"y": 3.4591283209,
				"z": 5.8092864754,
				"element": "H" 
			},
			{
				"x": 6.0055035903,
				"y": 4.6285664426,
				"z": 6.5138847222,
				"element": "H" 
			},
			{
				"x": 5.9216287851,
				"y": 7.3945546726,
				"z": 4.5648792745,
				"element": "H" 
			},
			{
				"x": 5.9235796907,
				"y": 7.0391425225,
				"z": 2.8488114577,
				"element": "H" 
			},
			{
				"x": 7.6167072836,
				"y": 5.1786432318,
				"z": 3.2754891737,
				"element": "H" 
			},
			{
				"x": 7.6577100598,
				"y": 5.6632097147,
				"z": 4.9850453699,
				"element": "H" 
			}
		],
		 "valence_orbital": [ 
			{
				"type": "occ",
				"energy": -0.26939,
				"method": "rhf"
			},
			{
				"type": "occ",
				"energy": -0.26666,
				"method": "rhf"
			},
			{
				"type": "occ",
				"energy": -0.25398,
				"method": "rhf"
			},
			{
				"type": "occ",
				"energy": -0.22545,
				"method": "rhf"
			},
			{
				"type": "occ",
				"energy": -0.2033,
				"method": "rhf"
			},
			{
				"type": "unocc",
				"energy": -0.00857,
				"method": "rhf"
			},
			{
				"type": "unocc",
				"energy": -0.00556,
				"method": "rhf"
			},
			{
				"type": "unocc",
				"energy": 0.01184,
				"method": "rhf"
			},
			{
				"type": "unocc",
				"energy": 0.02005,
				"method": "rhf"
			},
			{
				"type": "unocc",
				"energy": 0.02497,
				"method": "rhf"
			}
		],
		"cosmo_sigma_profile": { 
			"-0.025": 0.0,
			"-0.024": 0.0,
			"-0.023": 0.0,
			"-0.022": 0.0,
			"-0.021": 0.0,
			"-0.02": 0.0,
			"-0.019": 0.0,
			"-0.018": 0.0,
			"-0.017": 0.0,
			"-0.016": 0.0,
			"-0.015": 0.0,
			"-0.014": 0.0,
			"-0.013": 0.0,
			"-0.012": 0.0,
			"-0.011": 0.0,
			"-0.01": 0.252009283919,
			"-0.009": 1.26835701711,
			"-0.008": 5.00843822565,
			"-0.007": 11.152824852,
			"-0.006": 17.425692897,
			"-0.005": 23.8934752001,
			"-0.004": 33.519298921,
			"-0.003": 42.1770671882,
			"-0.002": 81.6860188266,
			"-0.001": 121.852723033,
			"0.0": 118.930362892,
			"0.001": 89.0555979504,
			"0.002": 61.4963714075,
			"0.003": 27.4146802769,
			"0.004": 21.8198907828,
			"0.005": 25.9716799088,
			"0.006": 30.6627239367,
			"0.007": 11.1463093451,
			"0.008": 1.78732054245,
			"0.009": 1.31389729195,
			"0.01": 1.75473231667,
			"0.011": 2.0091633897,
			"0.012": 3.71983882051,
			"0.013": 1.00830836434,
			"0.014": 0.0,
			"0.015": 0.0,
			"0.016": 0.0,
			"0.017": 0.0,
			"0.018": 0.0,
			"0.019": 0.0,
			"0.02": 0.0,
			"0.021": 0.0,
			"0.022": 0.0,
			"0.023": 0.0,
			"0.024": 0.0,
			"0.025": 0.0
		}
	}
}
