{
	 "smiles": "C1=CC=C(C=C1)C1C(=C(C(=C1C1=CC=CC=C1)C1=CC=CC=C1)C1=CC=CC=C1)C1=CC=CC=C1", 
	 "Tm": 529.15, 
	 "num_atms": 61, 
	 "gaussian": { 
		 "optdone": 1, 
		 "sigma_profile": "yes", 
		 "theory": "DFT", 
		 "functional": "B3LYP", 
		 "basiset": "6-31G**", 
		 "properties": { 
			 "R2extent": 15389.957, 
			 "electric_dipole_moment_norm": 0.234549696227, 
			 "electric_quadrupole_moment_norm": 4.67125324297, 
			 "total_energy": -1349.38851374, 
			 "HOMO_LUMO_gap": 0.14199, 
			 "cosmo_polarized_energy": -11.96, 
			 "cosmo_cavitation_energy": 63.09, 
			 "cosmo_dispersion_energy": -38.94, 
			 "cosmo_repulsion_energy": 3.0, 
			 "cosmo_total_nonelectrostatic_energy": 27.14, 
			 "SMD_solvation_energy": 9.87 
		},
		"coords": [
			{
				"x": 3.9239441227,
				"y": -2.1199325444,
				"z": -2.9964221761,
				"element": "C" 
			},
			{
				"x": 3.7943925567,
				"y": -0.7551942976,
				"z": -3.2506087291,
				"element": "C" 
			},
			{
				"x": 2.7320420492,
				"y": -0.0366082158,
				"z": -2.695733919,
				"element": "C" 
			},
			{
				"x": 1.7863222927,
				"y": -0.6696244776,
				"z": -1.8826490205,
				"element": "C" 
			},
			{
				"x": 1.9278366323,
				"y": -2.0420194068,
				"z": -1.6296514386,
				"element": "C" 
			},
			{
				"x": 2.9855559697,
				"y": -2.7613799098,
				"z": -2.1821014471,
				"element": "C" 
			},
			{
				"x": 0.6245659523,
				"y": 0.1106518781,
				"z": -1.2738333167,
				"element": "C" 
			},
			{
				"x": 0.5937196277,
				"y": 0.0371938771,
				"z": 0.2476719205,
				"element": "C" 
			},
			{
				"x": -0.6290411977,
				"y": -0.4206951799,
				"z": 0.6435803717,
				"element": "C" 
			},
			{
				"x": -1.4739892733,
				"y": -0.6669286124,
				"z": -0.5544887458,
				"element": "C" 
			},
			{
				"x": -0.7680436058,
				"y": -0.3569107584,
				"z": -1.6805337205,
				"element": "C" 
			},
			{
				"x": -1.269245905,
				"y": -0.2801918968,
				"z": -3.071111327,
				"element": "C" 
			},
			{
				"x": -2.48819869,
				"y": 0.3708869472,
				"z": -3.3442682533,
				"element": "C" 
			},
			{
				"x": -2.9683165544,
				"y": 0.4827697077,
				"z": -4.6471696487,
				"element": "C" 
			},
			{
				"x": -2.2416325975,
				"y": -0.0512216999,
				"z": -5.7135949112,
				"element": "C" 
			},
			{
				"x": -1.0307256715,
				"y": -0.6968884876,
				"z": -5.4609180756,
				"element": "C" 
			},
			{
				"x": -0.5468676567,
				"y": -0.8091172175,
				"z": -4.1571068849,
				"element": "C" 
			},
			{
				"x": -2.872740499,
				"y": -1.1578233216,
				"z": -0.5018450626,
				"element": "C" 
			},
			{
				"x": -3.8365669592,
				"y": -0.5316537921,
				"z": 0.307287075,
				"element": "C" 
			},
			{
				"x": -5.1520501745,
				"y": -0.9939187823,
				"z": 0.3368205484,
				"element": "C" 
			},
			{
				"x": -5.528168683,
				"y": -2.0969212605,
				"z": -0.4321332494,
				"element": "C" 
			},
			{
				"x": -4.5784421524,
				"y": -2.7336385365,
				"z": -1.2337049273,
				"element": "C" 
			},
			{
				"x": -3.2645794922,
				"y": -2.2686374849,
				"z": -1.2684634398,
				"element": "C" 
			},
			{
				"x": -1.0945723146,
				"y": -0.6215186431,
				"z": 2.0382570471,
				"element": "C" 
			},
			{
				"x": -1.6062744196,
				"y": -1.8609183484,
				"z": 2.4581721489,
				"element": "C" 
			},
			{
				"x": -2.0352642575,
				"y": -2.0469266509,
				"z": 3.7722956754,
				"element": "C" 
			},
			{
				"x": -1.9725278929,
				"y": -0.9949387457,
				"z": 4.6881473757,
				"element": "C" 
			},
			{
				"x": -1.4758930883,
				"y": 0.2450383827,
				"z": 4.2806303,
				"element": "C" 
			},
			{
				"x": -1.0406301426,
				"y": 0.4298706011,
				"z": 2.9688824578,
				"element": "C" 
			},
			{
				"x": 1.7751488319,
				"y": 0.3654293802,
				"z": 1.0646038946,
				"element": "C" 
			},
			{
				"x": 2.132368282,
				"y": -0.3997955169,
				"z": 2.1915919154,
				"element": "C" 
			},
			{
				"x": 3.2637880616,
				"y": -0.0865670718,
				"z": 2.9410259606,
				"element": "C" 
			},
			{
				"x": 4.0717378156,
				"y": 0.9956405009,
				"z": 2.5838304692,
				"element": "C" 
			},
			{
				"x": 3.7381328375,
				"y": 1.758972906,
				"z": 1.4641784086,
				"element": "C" 
			},
			{
				"x": 2.6068629825,
				"y": 1.4452804272,
				"z": 0.7124590795,
				"element": "C" 
			},
			{
				"x": 4.7488413412,
				"y": -2.6809363849,
				"z": -3.4261233602,
				"element": "H" 
			},
			{
				"x": 4.5180987555,
				"y": -0.2458451416,
				"z": -3.8808236945,
				"element": "H" 
			},
			{
				"x": 2.634362962,
				"y": 1.0260307362,
				"z": -2.902944961,
				"element": "H" 
			},
			{
				"x": 1.2008525783,
				"y": -2.5431398395,
				"z": -0.9964415964,
				"element": "H" 
			},
			{
				"x": 3.080203426,
				"y": -3.8239853966,
				"z": -1.9761461404,
				"element": "H" 
			},
			{
				"x": 0.7247020409,
				"y": 1.1592228835,
				"z": -1.5918002241,
				"element": "H" 
			},
			{
				"x": -3.0546798108,
				"y": 0.7974971506,
				"z": -2.5232192122,
				"element": "H" 
			},
			{
				"x": -3.909692238,
				"y": 0.9937008915,
				"z": -4.8298553517,
				"element": "H" 
			},
			{
				"x": -2.6148992994,
				"y": 0.0365756084,
				"z": -6.7300212287,
				"element": "H" 
			},
			{
				"x": -0.4576906301,
				"y": -1.1201536825,
				"z": -6.2814234229,
				"element": "H" 
			},
			{
				"x": 0.3895533198,
				"y": -1.3240233599,
				"z": -3.9791919738,
				"element": "H" 
			},
			{
				"x": -3.5529661494,
				"y": 0.3239649278,
				"z": 0.9118307457,
				"element": "H" 
			},
			{
				"x": -5.8835206843,
				"y": -0.4919858813,
				"z": 0.964015172,
				"element": "H" 
			},
			{
				"x": -6.5520973795,
				"y": -2.4587624053,
				"z": -0.4049837092,
				"element": "H" 
			},
			{
				"x": -4.8600247706,
				"y": -3.5950340978,
				"z": -1.832955209,
				"element": "H" 
			},
			{
				"x": -2.528928435,
				"y": -2.76469478,
				"z": -1.8938313071,
				"element": "H" 
			},
			{
				"x": -1.6651044182,
				"y": -2.6814726933,
				"z": 1.7496992301,
				"element": "H" 
			},
			{
				"x": -2.4222308802,
				"y": -3.0145152857,
				"z": 4.0794003625,
				"element": "H" 
			},
			{
				"x": -2.3110147862,
				"y": -1.1392316124,
				"z": 5.7102255165,
				"element": "H" 
			},
			{
				"x": -1.4276617454,
				"y": 1.0710174668,
				"z": 4.9847745902,
				"element": "H" 
			},
			{
				"x": -0.652887265,
				"y": 1.3940569001,
				"z": 2.6550777796,
				"element": "H" 
			},
			{
				"x": 1.522202466,
				"y": -1.2518852515,
				"z": 2.4697557472,
				"element": "H" 
			},
			{
				"x": 3.5202739159,
				"y": -0.6959190686,
				"z": 3.8032475898,
				"element": "H" 
			},
			{
				"x": 4.9542203892,
				"y": 1.2376886527,
				"z": 3.169073819,
				"element": "H" 
			},
			{
				"x": 4.3589623704,
				"y": 2.6021630909,
				"z": 1.1741848124,
				"element": "H" 
			},
			{
				"x": 2.35617814,
				"y": 2.0549028231,
				"z": -0.1503203287,
				"element": "H" 
			}
		],
		 "valence_orbital": [ 
			{
				"type": "occ",
				"energy": -0.24074,
				"method": "rhf"
			},
			{
				"type": "occ",
				"energy": -0.24014,
				"method": "rhf"
			},
			{
				"type": "occ",
				"energy": -0.23606,
				"method": "rhf"
			},
			{
				"type": "occ",
				"energy": -0.2239,
				"method": "rhf"
			},
			{
				"type": "occ",
				"energy": -0.18937,
				"method": "rhf"
			},
			{
				"type": "unocc",
				"energy": -0.04738,
				"method": "rhf"
			},
			{
				"type": "unocc",
				"energy": -0.01437,
				"method": "rhf"
			},
			{
				"type": "unocc",
				"energy": -0.00768,
				"method": "rhf"
			},
			{
				"type": "unocc",
				"energy": -0.00387,
				"method": "rhf"
			},
			{
				"type": "unocc",
				"energy": 0.00163,
				"method": "rhf"
			}
		],
		"cosmo_sigma_profile": { 
			"-0.025": 0.0,
			"-0.024": 0.0,
			"-0.023": 0.0,
			"-0.022": 0.0,
			"-0.021": 0.0,
			"-0.02": 0.0,
			"-0.019": 0.0,
			"-0.018": 0.0,
			"-0.017": 0.0,
			"-0.016": 0.0,
			"-0.015": 0.0,
			"-0.014": 0.0,
			"-0.013": 0.0,
			"-0.012": 0.0,
			"-0.011": 0.0,
			"-0.01": 0.0,
			"-0.009": 0.0,
			"-0.008": 0.0,
			"-0.007": 1.84151939442,
			"-0.006": 16.8161686594,
			"-0.005": 41.4391929663,
			"-0.004": 49.9296110597,
			"-0.003": 52.472956419,
			"-0.002": 36.1887226745,
			"-0.001": 39.1453454897,
			"0.0": 39.381454275,
			"0.001": 40.791071371,
			"0.002": 37.2876968493,
			"0.003": 37.6444925753,
			"0.004": 36.5132024977,
			"0.005": 40.3991268537,
			"0.006": 33.3405848403,
			"0.007": 1.98783826564,
			"0.008": 0.0,
			"0.009": 0.0,
			"0.01": 0.0,
			"0.011": 0.0,
			"0.012": 0.0,
			"0.013": 0.0,
			"0.014": 0.0,
			"0.015": 0.0,
			"0.016": 0.0,
			"0.017": 0.0,
			"0.018": 0.0,
			"0.019": 0.0,
			"0.02": 0.0,
			"0.021": 0.0,
			"0.022": 0.0,
			"0.023": 0.0,
			"0.024": 0.0,
			"0.025": 0.0
		}
	}
}
