{
	 "smiles": "NCC(O)COC1=CC(=CC=C1)C(F)(F)F", 
	 "Tm": 340.15, 
	 "num_atms": 28, 
	 "gaussian": { 
		 "optdone": 1, 
		 "sigma_profile": "yes", 
		 "theory": "DFT", 
		 "functional": "B3LYP", 
		 "basiset": "6-31G**", 
		 "properties": { 
			 "R2extent": 5607.244, 
			 "electric_dipole_moment_norm": 1.07633989985, 
			 "electric_quadrupole_moment_norm": 15.9321368397, 
			 "total_energy": -893.003569376, 
			 "HOMO_LUMO_gap": 0.19861, 
			 "cosmo_polarized_energy": -12.35, 
			 "cosmo_cavitation_energy": 32.84, 
			 "cosmo_dispersion_energy": -22.91, 
			 "cosmo_repulsion_energy": 1.74, 
			 "cosmo_total_nonelectrostatic_energy": 11.68, 
			 "SMD_solvation_energy": 5.22 
		},
		"coords": [
			{
				"x": 2.3830096299,
				"y": 2.084255578,
				"z": 1.6270831927,
				"element": "N" 
			},
			{
				"x": 2.372649449,
				"y": 2.6004482547,
				"z": 0.2607424971,
				"element": "C" 
			},
			{
				"x": 0.9912497891,
				"y": 2.9268098524,
				"z": -0.3577262784,
				"element": "C" 
			},
			{
				"x": 0.2214334373,
				"y": 3.7600846605,
				"z": 0.5001545534,
				"element": "O" 
			},
			{
				"x": 0.1749379001,
				"y": 1.7059342874,
				"z": -0.7836419112,
				"element": "C" 
			},
			{
				"x": -0.1896761718,
				"y": 0.9830524254,
				"z": 0.4007080161,
				"element": "O" 
			},
			{
				"x": -1.023080975,
				"y": -0.095358336,
				"z": 0.2895370435,
				"element": "C" 
			},
			{
				"x": -1.5026237067,
				"y": -0.5940458045,
				"z": -0.9239888254,
				"element": "C" 
			},
			{
				"x": -2.3525017927,
				"y": -1.706396353,
				"z": -0.9168362947,
				"element": "C" 
			},
			{
				"x": -2.7254175784,
				"y": -2.3228661737,
				"z": 0.275643718,
				"element": "C" 
			},
			{
				"x": -2.2369231174,
				"y": -1.8141830439,
				"z": 1.4823167323,
				"element": "C" 
			},
			{
				"x": -1.3922756048,
				"y": -0.7108089354,
				"z": 1.4949552719,
				"element": "C" 
			},
			{
				"x": -2.8131627575,
				"y": -2.2761690306,
				"z": -2.2327374732,
				"element": "C" 
			},
			{
				"x": -3.9991967538,
				"y": -2.9114983214,
				"z": -2.1204655683,
				"element": "F" 
			},
			{
				"x": -2.9528040909,
				"y": -1.3166516706,
				"z": -3.1760560717,
				"element": "F" 
			},
			{
				"x": -1.9282081333,
				"y": -3.1764541029,
				"z": -2.7211659922,
				"element": "F" 
			},
			{
				"x": 1.8002754751,
				"y": 1.254043331,
				"z": 1.6905500262,
				"element": "H" 
			},
			{
				"x": 1.9787839346,
				"y": 2.7791295298,
				"z": 2.2500648586,
				"element": "H" 
			},
			{
				"x": 2.9613371383,
				"y": 3.5244665815,
				"z": 0.251809899,
				"element": "H" 
			},
			{
				"x": 2.8964389094,
				"y": 1.8888028424,
				"z": -0.3912311975,
				"element": "H" 
			},
			{
				"x": 1.1629908692,
				"y": 3.5106413821,
				"z": -1.271811817,
				"element": "H" 
			},
			{
				"x": -0.1220203851,
				"y": 3.1845426236,
				"z": 1.1980139904,
				"element": "H" 
			},
			{
				"x": -0.7334877339,
				"y": 2.0360925671,
				"z": -1.303048334,
				"element": "H" 
			},
			{
				"x": 0.7557560566,
				"y": 1.0611621173,
				"z": -1.4571545723,
				"element": "H" 
			},
			{
				"x": -1.2390227734,
				"y": -0.1348803077,
				"z": -1.8674986727,
				"element": "H" 
			},
			{
				"x": -3.3903699517,
				"y": -3.178455014,
				"z": 0.2616929204,
				"element": "H" 
			},
			{
				"x": -2.5211549523,
				"y": -2.2810951291,
				"z": 2.4202965071,
				"element": "H" 
			},
			{
				"x": -1.0097361099,
				"y": -0.3047038105,
				"z": 2.4257937819,
				"element": "H" 
			}
		],
		 "valence_orbital": [ 
			{
				"type": "occ",
				"energy": -0.33127,
				"method": "rhf"
			},
			{
				"type": "occ",
				"energy": -0.28599,
				"method": "rhf"
			},
			{
				"type": "occ",
				"energy": -0.27488,
				"method": "rhf"
			},
			{
				"type": "occ",
				"energy": -0.2449,
				"method": "rhf"
			},
			{
				"type": "occ",
				"energy": -0.23235,
				"method": "rhf"
			},
			{
				"type": "unocc",
				"energy": -0.03374,
				"method": "rhf"
			},
			{
				"type": "unocc",
				"energy": -0.0113,
				"method": "rhf"
			},
			{
				"type": "unocc",
				"energy": 0.05936,
				"method": "rhf"
			},
			{
				"type": "unocc",
				"energy": 0.08205,
				"method": "rhf"
			},
			{
				"type": "unocc",
				"energy": 0.0887,
				"method": "rhf"
			}
		],
		"cosmo_sigma_profile": { 
			"-0.025": 0.0,
			"-0.024": 0.0,
			"-0.023": 0.0,
			"-0.022": 0.0,
			"-0.021": 0.0,
			"-0.02": 0.0,
			"-0.019": 0.0,
			"-0.018": 0.0,
			"-0.017": 0.0,
			"-0.016": 0.0,
			"-0.015": 0.0,
			"-0.014": 0.0374936100126,
			"-0.013": 0.382129763463,
			"-0.012": 0.530995560081,
			"-0.011": 0.882679103749,
			"-0.01": 1.1094448167,
			"-0.009": 1.85883512254,
			"-0.008": 3.01823282806,
			"-0.007": 6.6080678085,
			"-0.006": 16.734672778,
			"-0.005": 22.9091389921,
			"-0.004": 18.44574201,
			"-0.003": 17.6592264533,
			"-0.002": 15.0473230443,
			"-0.001": 15.1401779287,
			"0.0": 16.4649825516,
			"0.001": 17.2009218855,
			"0.002": 28.565009879,
			"0.003": 42.2408258223,
			"0.004": 10.5710026113,
			"0.005": 1.80410301039,
			"0.006": 2.19941981557,
			"0.007": 2.0952053141,
			"0.008": 1.38821425064,
			"0.009": 2.01959923945,
			"0.01": 1.49099467031,
			"0.011": 1.64466087616,
			"0.012": 2.50191549443,
			"0.013": 2.28635850958,
			"0.014": 2.73560110415,
			"0.015": 1.07663132965,
			"0.016": 0.551614740285,
			"0.017": 0.465359559531,
			"0.018": 0.741735585388,
			"0.019": 0.642704289388,
			"0.02": 0.289626403819,
			"0.021": 0.0,
			"0.022": 0.0,
			"0.023": 0.0,
			"0.024": 0.0,
			"0.025": 0.0
		}
	}
}
