{
	 "smiles": "OC(=O)CCNC(=O)C1=CC=NC=C1", 
	 "Tm": 513.15, 
	 "num_atms": 24, 
	 "gaussian": { 
		 "optdone": 1, 
		 "sigma_profile": "yes", 
		 "theory": "DFT", 
		 "functional": "B3LYP", 
		 "basiset": "6-31G**", 
		 "properties": { 
			 "R2extent": 3817.4853, 
			 "electric_dipole_moment_norm": 5.219680996, 
			 "electric_quadrupole_moment_norm": 15.055769692, 
			 "total_energy": -684.179308246, 
			 "HOMO_LUMO_gap": 0.2004, 
			 "cosmo_polarized_energy": -18.79, 
			 "cosmo_cavitation_energy": 28.64, 
			 "cosmo_dispersion_energy": -20.57, 
			 "cosmo_repulsion_energy": 1.64, 
			 "cosmo_total_nonelectrostatic_energy": 9.71, 
			 "SMD_solvation_energy": 4.94 
		},
		"coords": [
			{
				"x": 0.7649985346,
				"y": 0.9466661518,
				"z": -4.4125913116,
				"element": "O" 
			},
			{
				"x": 0.9491615085,
				"y": 0.7195943451,
				"z": -3.0947206629,
				"element": "C" 
			},
			{
				"x": 1.7355521655,
				"y": 1.3551615513,
				"z": -2.4253983203,
				"element": "O" 
			},
			{
				"x": 0.1000015295,
				"y": -0.4355065062,
				"z": -2.6026757369,
				"element": "C" 
			},
			{
				"x": -0.2075789133,
				"y": -0.3647733433,
				"z": -1.1060202447,
				"element": "C" 
			},
			{
				"x": -1.1149285399,
				"y": 0.7409097435,
				"z": -0.8085052755,
				"element": "N" 
			},
			{
				"x": -1.2585364144,
				"y": 1.4245862501,
				"z": 0.3820945137,
				"element": "C" 
			},
			{
				"x": -2.3310649488,
				"y": 1.9428798739,
				"z": 0.6728265245,
				"element": "O" 
			},
			{
				"x": -0.0755597494,
				"y": 1.5663507441,
				"z": 1.3026302609,
				"element": "C" 
			},
			{
				"x": -0.3221331133,
				"y": 1.5556797428,
				"z": 2.6801690386,
				"element": "C" 
			},
			{
				"x": 0.7454805648,
				"y": 1.7434152181,
				"z": 3.5549571362,
				"element": "C" 
			},
			{
				"x": 2.006410865,
				"y": 1.9613808639,
				"z": 3.1551306544,
				"element": "N" 
			},
			{
				"x": 2.2253185713,
				"y": 1.9993525033,
				"z": 1.8355732373,
				"element": "C" 
			},
			{
				"x": 1.2339880137,
				"y": 1.8056901833,
				"z": 0.8701444437,
				"element": "C" 
			},
			{
				"x": 1.3673637297,
				"y": 1.6707575224,
				"z": -4.6553098269,
				"element": "H" 
			},
			{
				"x": -0.8157600545,
				"y": -0.4885743554,
				"z": -3.2003025689,
				"element": "H" 
			},
			{
				"x": 0.6569508238,
				"y": -1.3572476332,
				"z": -2.8161426421,
				"element": "H" 
			},
			{
				"x": -0.6447531375,
				"y": -1.3234462207,
				"z": -0.7921555531,
				"element": "H" 
			},
			{
				"x": 0.7169869767,
				"y": -0.2287238053,
				"z": -0.5468824772,
				"element": "H" 
			},
			{
				"x": -2.0081115982,
				"y": 0.7061958951,
				"z": -1.2893421097,
				"element": "H" 
			},
			{
				"x": -1.3322543116,
				"y": 1.4119642278,
				"z": 3.0476364112,
				"element": "H" 
			},
			{
				"x": 0.5806278059,
				"y": 1.7241630472,
				"z": 4.6308276349,
				"element": "H" 
			},
			{
				"x": 3.2501294663,
				"y": 2.1963554331,
				"z": 1.5254190184,
				"element": "H" 
			},
			{
				"x": 1.4829102257,
				"y": 1.8584685673,
				"z": -0.184662144,
				"element": "H" 
			}
		],
		 "valence_orbital": [ 
			{
				"type": "occ",
				"energy": -0.28688,
				"method": "rhf"
			},
			{
				"type": "occ",
				"energy": -0.26783,
				"method": "rhf"
			},
			{
				"type": "occ",
				"energy": -0.2628,
				"method": "rhf"
			},
			{
				"type": "occ",
				"energy": -0.2564,
				"method": "rhf"
			},
			{
				"type": "occ",
				"energy": -0.24677,
				"method": "rhf"
			},
			{
				"type": "unocc",
				"energy": -0.04637,
				"method": "rhf"
			},
			{
				"type": "unocc",
				"energy": -0.01155,
				"method": "rhf"
			},
			{
				"type": "unocc",
				"energy": -0.01028,
				"method": "rhf"
			},
			{
				"type": "unocc",
				"energy": 0.04057,
				"method": "rhf"
			},
			{
				"type": "unocc",
				"energy": 0.06425,
				"method": "rhf"
			}
		],
		"cosmo_sigma_profile": { 
			"-0.025": 0.0,
			"-0.024": 0.0,
			"-0.023": 0.0,
			"-0.022": 0.0,
			"-0.021": 0.0,
			"-0.02": 0.0,
			"-0.019": 0.0129505622647,
			"-0.018": 0.914867563933,
			"-0.017": 0.923105390872,
			"-0.016": 0.944393903782,
			"-0.015": 0.725170768793,
			"-0.014": 0.833334929737,
			"-0.013": 1.97336146966,
			"-0.012": 1.82186208953,
			"-0.011": 2.63332677553,
			"-0.01": 1.60150065852,
			"-0.009": 2.08793491128,
			"-0.008": 3.28539725835,
			"-0.007": 9.36132335573,
			"-0.006": 14.4732458117,
			"-0.005": 17.5578857547,
			"-0.004": 16.0646693069,
			"-0.003": 15.8135481616,
			"-0.002": 11.7789321988,
			"-0.001": 11.5964095173,
			"0.0": 11.3651387378,
			"0.001": 17.7330826983,
			"0.002": 16.3503004666,
			"0.003": 8.26909048123,
			"0.004": 7.39618306452,
			"0.005": 8.01349204871,
			"0.006": 4.4444546487,
			"0.007": 4.05164878494,
			"0.008": 5.18750371649,
			"0.009": 6.2024660936,
			"0.01": 5.01575675322,
			"0.011": 4.46718289023,
			"0.012": 4.92242605301,
			"0.013": 5.71422453545,
			"0.014": 2.44345139677,
			"0.015": 1.1467546394,
			"0.016": 0.643231657871,
			"0.017": 0.104358276216,
			"0.018": 0.0,
			"0.019": 0.0,
			"0.02": 0.0,
			"0.021": 0.0,
			"0.022": 0.0,
			"0.023": 0.0,
			"0.024": 0.0,
			"0.025": 0.0
		}
	}
}
