{
	 "smiles": "CCN(C1=CC=CC=C1)C1=CC=C(C=C1)C(O)=O", 
	 "Tm": 452.15, 
	 "num_atms": 33, 
	 "gaussian": { 
		 "optdone": 1, 
		 "sigma_profile": "yes", 
		 "theory": "DFT", 
		 "functional": "B3LYP", 
		 "basiset": "6-31G**", 
		 "properties": { 
			 "R2extent": 6222.1856, 
			 "electric_dipole_moment_norm": 7.39392586046, 
			 "electric_quadrupole_moment_norm": 32.9069616622, 
			 "total_energy": -785.846845708, 
			 "HOMO_LUMO_gap": 0.16926, 
			 "cosmo_polarized_energy": -17.2, 
			 "cosmo_cavitation_energy": 36.35, 
			 "cosmo_dispersion_energy": -25.59, 
			 "cosmo_repulsion_energy": 1.97, 
			 "cosmo_total_nonelectrostatic_energy": 12.73, 
			 "SMD_solvation_energy": 7.11 
		},
		"coords": [
			{
				"x": 1.6729939226,
				"y": -2.5693944165,
				"z": -0.6458743678,
				"element": "C" 
			},
			{
				"x": 1.6048638634,
				"y": -1.3066539254,
				"z": 0.2221061474,
				"element": "C" 
			},
			{
				"x": 0.3098153663,
				"y": -0.616482063,
				"z": 0.1755121099,
				"element": "N" 
			},
			{
				"x": -0.7071901854,
				"y": -1.1090417718,
				"z": 1.054783757,
				"element": "C" 
			},
			{
				"x": -1.8218495138,
				"y": -1.7954521231,
				"z": 0.5523770185,
				"element": "C" 
			},
			{
				"x": -2.7887469237,
				"y": -2.2963406199,
				"z": 1.4240090158,
				"element": "C" 
			},
			{
				"x": -2.6455482625,
				"y": -2.1336189287,
				"z": 2.8037497139,
				"element": "C" 
			},
			{
				"x": -1.533554566,
				"y": -1.4564315035,
				"z": 3.3078860624,
				"element": "C" 
			},
			{
				"x": -0.5725451423,
				"y": -0.9389618327,
				"z": 2.4388250882,
				"element": "C" 
			},
			{
				"x": 0.0160425555,
				"y": 0.3098581861,
				"z": -0.81878086,
				"element": "C" 
			},
			{
				"x": 0.9033495407,
				"y": 0.5588612561,
				"z": -1.8911512478,
				"element": "C" 
			},
			{
				"x": 0.6062073995,
				"y": 1.5171170849,
				"z": -2.8534358928,
				"element": "C" 
			},
			{
				"x": -0.5784714215,
				"y": 2.2637273888,
				"z": -2.8044747949,
				"element": "C" 
			},
			{
				"x": -1.4493791644,
				"y": 2.0339358999,
				"z": -1.7260275779,
				"element": "C" 
			},
			{
				"x": -1.1709036145,
				"y": 1.0823293441,
				"z": -0.7615620356,
				"element": "C" 
			},
			{
				"x": -0.9502192317,
				"y": 3.3087120595,
				"z": -3.7972708467,
				"element": "C" 
			},
			{
				"x": -0.2787718966,
				"y": 3.2989091479,
				"z": -4.9864598605,
				"element": "O" 
			},
			{
				"x": -1.8025905546,
				"y": 4.1468871492,
				"z": -3.6043743726,
				"element": "O" 
			},
			{
				"x": 2.6558619717,
				"y": -3.043189349,
				"z": -0.5507791184,
				"element": "H" 
			},
			{
				"x": 0.9153180875,
				"y": -3.2933060716,
				"z": -0.3310065193,
				"element": "H" 
			},
			{
				"x": 1.504081542,
				"y": -2.3415945783,
				"z": -1.7022816931,
				"element": "H" 
			},
			{
				"x": 2.3892273839,
				"y": -0.5968460129,
				"z": -0.0580839425,
				"element": "H" 
			},
			{
				"x": 1.7907659836,
				"y": -1.574660005,
				"z": 1.2659387863,
				"element": "H" 
			},
			{
				"x": -1.9250914183,
				"y": -1.9268273247,
				"z": -0.5202694902,
				"element": "H" 
			},
			{
				"x": -3.6493697537,
				"y": -2.8246209667,
				"z": 1.0239852421,
				"element": "H" 
			},
			{
				"x": -3.3964261593,
				"y": -2.5298243994,
				"z": 3.4807120203,
				"element": "H" 
			},
			{
				"x": -1.4189267275,
				"y": -1.3179764947,
				"z": 4.3790386564,
				"element": "H" 
			},
			{
				"x": 0.2819139102,
				"y": -0.3916208096,
				"z": 2.8258862543,
				"element": "H" 
			},
			{
				"x": 1.8293713007,
				"y": 0.0054655972,
				"z": -1.9813639882,
				"element": "H" 
			},
			{
				"x": 1.3432959814,
				"y": 1.6905567465,
				"z": -3.6350071675,
				"element": "H" 
			},
			{
				"x": -2.3530395759,
				"y": 2.6309368652,
				"z": -1.6619844458,
				"element": "H" 
			},
			{
				"x": -1.8623280428,
				"y": 0.9376473227,
				"z": 0.0597255206,
				"element": "H" 
			},
			{
				"x": 0.2366433458,
				"y": 2.4850991484,
				"z": -5.0667471715,
				"element": "H" 
			}
		],
		 "valence_orbital": [ 
			{
				"type": "occ",
				"energy": -0.26656,
				"method": "rhf"
			},
			{
				"type": "occ",
				"energy": -0.26409,
				"method": "rhf"
			},
			{
				"type": "occ",
				"energy": -0.26008,
				"method": "rhf"
			},
			{
				"type": "occ",
				"energy": -0.25522,
				"method": "rhf"
			},
			{
				"type": "occ",
				"energy": -0.20313,
				"method": "rhf"
			},
			{
				"type": "unocc",
				"energy": -0.03387,
				"method": "rhf"
			},
			{
				"type": "unocc",
				"energy": -0.02,
				"method": "rhf"
			},
			{
				"type": "unocc",
				"energy": -0.01293,
				"method": "rhf"
			},
			{
				"type": "unocc",
				"energy": -0.00542,
				"method": "rhf"
			},
			{
				"type": "unocc",
				"energy": 0.06444,
				"method": "rhf"
			}
		],
		"cosmo_sigma_profile": { 
			"-0.025": 0.0,
			"-0.024": 0.0,
			"-0.023": 0.0,
			"-0.022": 0.0,
			"-0.021": 0.0,
			"-0.02": 0.0,
			"-0.019": 0.00855022772539,
			"-0.018": 0.660037281447,
			"-0.017": 0.998023791884,
			"-0.016": 1.06333752641,
			"-0.015": 0.523027856381,
			"-0.014": 0.469218417961,
			"-0.013": 0.964563086035,
			"-0.012": 1.52121705396,
			"-0.011": 1.15817753009,
			"-0.01": 1.02009441957,
			"-0.009": 0.96594678187,
			"-0.008": 1.50012354815,
			"-0.007": 3.00853867421,
			"-0.006": 12.99062966,
			"-0.005": 19.7679168503,
			"-0.004": 24.0932275107,
			"-0.003": 26.2047925259,
			"-0.002": 24.4023779847,
			"-0.001": 22.4050606464,
			"0.0": 25.5336572375,
			"0.001": 19.642195194,
			"0.002": 17.101174858,
			"0.003": 16.8193208886,
			"0.004": 20.9246560005,
			"0.005": 14.5584524628,
			"0.006": 3.93050218434,
			"0.007": 2.49979765689,
			"0.008": 1.99993956677,
			"0.009": 3.53752129181,
			"0.01": 2.98104609294,
			"0.011": 5.17003049486,
			"0.012": 5.93072658494,
			"0.013": 4.08433059749,
			"0.014": 1.06428191787,
			"0.015": 0.0,
			"0.016": 0.0,
			"0.017": 0.0,
			"0.018": 0.0,
			"0.019": 0.0,
			"0.02": 0.0,
			"0.021": 0.0,
			"0.022": 0.0,
			"0.023": 0.0,
			"0.024": 0.0,
			"0.025": 0.0
		}
	}
}
