{
	 "smiles": "CN(C)CCC1=CNC2=C1C=C(CN1C=NC=N1)C=C2", 
	 "Tm": 452.15, 
	 "num_atms": 39, 
	 "gaussian": { 
		 "optdone": 1, 
		 "sigma_profile": "yes", 
		 "theory": "DFT", 
		 "functional": "B3LYP", 
		 "basiset": "6-31G**", 
		 "properties": { 
			 "R2extent": 7273.6988, 
			 "electric_dipole_moment_norm": 5.96525077092, 
			 "electric_quadrupole_moment_norm": 22.6621659997, 
			 "total_energy": -856.785489457, 
			 "HOMO_LUMO_gap": 0.18907, 
			 "cosmo_polarized_energy": -15.72, 
			 "cosmo_cavitation_energy": 41.76, 
			 "cosmo_dispersion_energy": -27.8, 
			 "cosmo_repulsion_energy": 2.12, 
			 "cosmo_total_nonelectrostatic_energy": 16.08, 
			 "SMD_solvation_energy": 4.69 
		},
		"coords": [
			{
				"x": -1.5952382851,
				"y": 1.3668139338,
				"z": -3.3663308782,
				"element": "C" 
			},
			{
				"x": -1.3476665388,
				"y": 0.5181259878,
				"z": -2.2056711364,
				"element": "N" 
			},
			{
				"x": -1.0470242196,
				"y": -0.8478506512,
				"z": -2.6219459157,
				"element": "C" 
			},
			{
				"x": -2.4554781155,
				"y": 0.5644501631,
				"z": -1.2459257228,
				"element": "C" 
			},
			{
				"x": -2.4534764989,
				"y": 1.8247510393,
				"z": -0.3522383363,
				"element": "C" 
			},
			{
				"x": -1.5402097495,
				"y": 1.7745993623,
				"z": 0.8433658027,
				"element": "C" 
			},
			{
				"x": -1.9622645471,
				"y": 1.7755010728,
				"z": 2.1504568495,
				"element": "C" 
			},
			{
				"x": -0.8767518781,
				"y": 1.752067431,
				"z": 3.0080829755,
				"element": "N" 
			},
			{
				"x": 0.2818800571,
				"y": 1.7385497119,
				"z": 2.2645382223,
				"element": "C" 
			},
			{
				"x": -0.0951067736,
				"y": 1.747219937,
				"z": 0.8923859605,
				"element": "C" 
			},
			{
				"x": 0.918168091,
				"y": 1.7353765611,
				"z": -0.0825351491,
				"element": "C" 
			},
			{
				"x": 2.2539163322,
				"y": 1.726330642,
				"z": 0.3105589464,
				"element": "C" 
			},
			{
				"x": 3.3493024117,
				"y": 1.7083585252,
				"z": -0.72991756,
				"element": "C" 
			},
			{
				"x": 3.9928495424,
				"y": 0.39381908,
				"z": -0.8595908702,
				"element": "N" 
			},
			{
				"x": 3.4977380944,
				"y": -0.8446657086,
				"z": -0.638066277,
				"element": "C" 
			},
			{
				"x": 4.3917762901,
				"y": -1.7673799296,
				"z": -0.9636931945,
				"element": "N" 
			},
			{
				"x": 5.4400001692,
				"y": -1.0149947011,
				"z": -1.3976803794,
				"element": "C" 
			},
			{
				"x": 5.2525652471,
				"y": 0.2978162859,
				"z": -1.3591132293,
				"element": "N" 
			},
			{
				"x": 2.594581618,
				"y": 1.7222588808,
				"z": 1.6853932959,
				"element": "C" 
			},
			{
				"x": 1.6212328746,
				"y": 1.7245153871,
				"z": 2.6731562166,
				"element": "C" 
			},
			{
				"x": -0.7190539257,
				"y": 1.3618485291,
				"z": -4.022384235,
				"element": "H" 
			},
			{
				"x": -2.4701371821,
				"y": 1.0372323807,
				"z": -3.9600837754,
				"element": "H" 
			},
			{
				"x": -1.7717151297,
				"y": 2.4006263313,
				"z": -3.0565194426,
				"element": "H" 
			},
			{
				"x": -1.8882878423,
				"y": -1.3405854382,
				"z": -3.1462877717,
				"element": "H" 
			},
			{
				"x": -0.7882352724,
				"y": -1.4543136536,
				"z": -1.7488585698,
				"element": "H" 
			},
			{
				"x": -0.1871912051,
				"y": -0.8462067687,
				"z": -3.2994348934,
				"element": "H" 
			},
			{
				"x": -3.4292117497,
				"y": 0.4940362263,
				"z": -1.7694691722,
				"element": "H" 
			},
			{
				"x": -2.3844575104,
				"y": -0.316110171,
				"z": -0.5993454471,
				"element": "H" 
			},
			{
				"x": -2.2210198526,
				"y": 2.7024499524,
				"z": -0.9688854265,
				"element": "H" 
			},
			{
				"x": -3.4772668326,
				"y": 1.9800521317,
				"z": 0.0093950748,
				"element": "H" 
			},
			{
				"x": -2.9696469648,
				"y": 1.800908594,
				"z": 2.5430415248,
				"element": "H" 
			},
			{
				"x": -0.9274820625,
				"y": 1.7542054367,
				"z": 4.0134235118,
				"element": "H" 
			},
			{
				"x": 0.6443282881,
				"y": 1.7009784278,
				"z": -1.1324733076,
				"element": "H" 
			},
			{
				"x": 2.9509587387,
				"y": 1.9987796835,
				"z": -1.7079843524,
				"element": "H" 
			},
			{
				"x": 4.1543578622,
				"y": 2.4053063235,
				"z": -0.4822153751,
				"element": "H" 
			},
			{
				"x": 2.5099715765,
				"y": -1.0176647854,
				"z": -0.2375687008,
				"element": "H" 
			},
			{
				"x": 6.3707145019,
				"y": -1.4421521626,
				"z": -1.7462558454,
				"element": "H" 
			},
			{
				"x": 3.6434555028,
				"y": 1.7121068129,
				"z": 1.9696374423,
				"element": "H" 
			},
			{
				"x": 1.8916249379,
				"y": 1.7209391386,
				"z": 3.7253391406,
				"element": "H" 
			}
		],
		 "valence_orbital": [ 
			{
				"type": "occ",
				"energy": -0.25944,
				"method": "rhf"
			},
			{
				"type": "occ",
				"energy": -0.2493,
				"method": "rhf"
			},
			{
				"type": "occ",
				"energy": -0.22362,
				"method": "rhf"
			},
			{
				"type": "occ",
				"energy": -0.22058,
				"method": "rhf"
			},
			{
				"type": "occ",
				"energy": -0.20217,
				"method": "rhf"
			},
			{
				"type": "unocc",
				"energy": -0.0131,
				"method": "rhf"
			},
			{
				"type": "unocc",
				"energy": 0.01318,
				"method": "rhf"
			},
			{
				"type": "unocc",
				"energy": 0.02183,
				"method": "rhf"
			},
			{
				"type": "unocc",
				"energy": 0.05659,
				"method": "rhf"
			},
			{
				"type": "unocc",
				"energy": 0.06968,
				"method": "rhf"
			}
		],
		"cosmo_sigma_profile": { 
			"-0.025": 0.0,
			"-0.024": 0.0,
			"-0.023": 0.0,
			"-0.022": 0.0,
			"-0.021": 0.0,
			"-0.02": 0.0,
			"-0.019": 0.0,
			"-0.018": 0.0,
			"-0.017": 0.0,
			"-0.016": 0.268745446639,
			"-0.015": 1.58960959682,
			"-0.014": 0.881977539979,
			"-0.013": 1.89100620207,
			"-0.012": 1.32257402656,
			"-0.011": 0.555511006919,
			"-0.01": 1.46706342262,
			"-0.009": 2.38505016636,
			"-0.008": 4.04664796181,
			"-0.007": 6.74490995657,
			"-0.006": 12.4996263375,
			"-0.005": 14.279837092,
			"-0.004": 21.5823763176,
			"-0.003": 27.6681816483,
			"-0.002": 29.7801872526,
			"-0.001": 38.3129126297,
			"0.0": 38.6692332455,
			"0.001": 21.9991173878,
			"0.002": 16.1177946802,
			"0.003": 14.3271376721,
			"0.004": 14.7260839612,
			"0.005": 17.8196171259,
			"0.006": 15.1988844851,
			"0.007": 5.15140045629,
			"0.008": 4.21092102867,
			"0.009": 1.98863482248,
			"0.01": 2.34272613874,
			"0.011": 2.17018611902,
			"0.012": 2.24091802503,
			"0.013": 2.42103828463,
			"0.014": 2.10648085296,
			"0.015": 1.49541580862,
			"0.016": 1.23334706467,
			"0.017": 0.672968592741,
			"0.018": 0.00286786124239,
			"0.019": 0.0,
			"0.02": 0.0,
			"0.021": 0.0,
			"0.022": 0.0,
			"0.023": 0.0,
			"0.024": 0.0,
			"0.025": 0.0
		}
	}
}
