{
	 "smiles": "CC1=CC=C(C=C1)N=NC1C(=O)NN(C1=O)C1=CC=CC=C1", 
	 "Tm": 520.15, 
	 "num_atms": 36, 
	 "gaussian": { 
		 "optdone": 1, 
		 "sigma_profile": "yes", 
		 "theory": "DFT", 
		 "functional": "B3LYP", 
		 "basiset": "6-31G**", 
		 "properties": { 
			 "R2extent": 9201.8757, 
			 "electric_dipole_moment_norm": 3.4100535421, 
			 "electric_quadrupole_moment_norm": 28.8498516754, 
			 "total_energy": -987.513629263, 
			 "HOMO_LUMO_gap": 0.15317, 
			 "cosmo_polarized_energy": -18.1, 
			 "cosmo_cavitation_energy": 40.94, 
			 "cosmo_dispersion_energy": -29.2, 
			 "cosmo_repulsion_energy": 2.21, 
			 "cosmo_total_nonelectrostatic_energy": 13.95, 
			 "SMD_solvation_energy": 5.35 
		},
		"coords": [
			{
				"x": -5.7722795166,
				"y": -1.1621153688,
				"z": -3.7799023457,
				"element": "C" 
			},
			{
				"x": -4.8261204178,
				"y": -1.077390074,
				"z": -2.6065446656,
				"element": "C" 
			},
			{
				"x": -5.2982021488,
				"y": -0.7214195263,
				"z": -1.3314947103,
				"element": "C" 
			},
			{
				"x": -4.4406691981,
				"y": -0.6528300277,
				"z": -0.2412798504,
				"element": "C" 
			},
			{
				"x": -3.0672288183,
				"y": -0.8847536269,
				"z": -0.4151448949,
				"element": "C" 
			},
			{
				"x": -2.5772890321,
				"y": -1.2587780281,
				"z": -1.6745771903,
				"element": "C" 
			},
			{
				"x": -3.4620792279,
				"y": -1.3555620097,
				"z": -2.7500196556,
				"element": "C" 
			},
			{
				"x": -2.2720300621,
				"y": -0.8818445975,
				"z": 0.7708965853,
				"element": "N" 
			},
			{
				"x": -1.2003685451,
				"y": -0.2740523927,
				"z": 0.9259060227,
				"element": "N" 
			},
			{
				"x": -0.6728673485,
				"y": 0.6370519365,
				"z": -0.1607506137,
				"element": "C" 
			},
			{
				"x": -0.1741231176,
				"y": 1.9136054902,
				"z": 0.5066041802,
				"element": "C" 
			},
			{
				"x": -0.8199758183,
				"y": 2.8558729857,
				"z": 0.9063602041,
				"element": "O" 
			},
			{
				"x": 1.2171030217,
				"y": 1.8294424775,
				"z": 0.5546545601,
				"element": "N" 
			},
			{
				"x": 1.6632560771,
				"y": 0.7765872589,
				"z": -0.2911826904,
				"element": "N" 
			},
			{
				"x": 0.5986759417,
				"y": 0.0197381475,
				"z": -0.7452417297,
				"element": "C" 
			},
			{
				"x": 0.6746830704,
				"y": -0.9758898938,
				"z": -1.4459743546,
				"element": "O" 
			},
			{
				"x": 3.0399550807,
				"y": 0.4354458965,
				"z": -0.2847150866,
				"element": "C" 
			},
			{
				"x": 3.5644033079,
				"y": -0.3944783336,
				"z": -1.2881554608,
				"element": "C" 
			},
			{
				"x": 4.9228642986,
				"y": -0.7027689602,
				"z": -1.2742747231,
				"element": "C" 
			},
			{
				"x": 5.7676687305,
				"y": -0.1888547978,
				"z": -0.288142522,
				"element": "C" 
			},
			{
				"x": 5.2376130751,
				"y": 0.6369556335,
				"z": 0.70275057,
				"element": "C" 
			},
			{
				"x": 3.8791381317,
				"y": 0.9517331464,
				"z": 0.7130890806,
				"element": "C" 
			},
			{
				"x": -6.1508787768,
				"y": -0.1704477983,
				"z": -4.0555946307,
				"element": "H" 
			},
			{
				"x": -5.2817884182,
				"y": -1.5865771003,
				"z": -4.659863582,
				"element": "H" 
			},
			{
				"x": -6.6433790792,
				"y": -1.7839636408,
				"z": -3.5461753114,
				"element": "H" 
			},
			{
				"x": -6.3564006073,
				"y": -0.515681067,
				"z": -1.1909066074,
				"element": "H" 
			},
			{
				"x": -4.8115180894,
				"y": -0.4100442646,
				"z": 0.7494464641,
				"element": "H" 
			},
			{
				"x": -1.5247927449,
				"y": -1.4940653744,
				"z": -1.8006005398,
				"element": "H" 
			},
			{
				"x": -3.0781323661,
				"y": -1.657023187,
				"z": -3.7212121492,
				"element": "H" 
			},
			{
				"x": -1.4159121784,
				"y": 0.8607719479,
				"z": -0.9302300444,
				"element": "H" 
			},
			{
				"x": 1.7215108521,
				"y": 2.7022142448,
				"z": 0.4233147264,
				"element": "H" 
			},
			{
				"x": 2.9099648657,
				"y": -0.7967980194,
				"z": -2.0487515259,
				"element": "H" 
			},
			{
				"x": 5.3226294869,
				"y": -1.3488364977,
				"z": -2.0502925283,
				"element": "H" 
			},
			{
				"x": 6.8258732878,
				"y": -0.4308673586,
				"z": -0.2918079837,
				"element": "H" 
			},
			{
				"x": 5.8789317911,
				"y": 1.0374791227,
				"z": 1.4822543288,
				"element": "H" 
			},
			{
				"x": 3.4701644925,
				"y": 1.5675436568,
				"z": 1.5056586742,
				"element": "H" 
			}
		],
		 "valence_orbital": [ 
			{
				"type": "occ",
				"energy": -0.26263,
				"method": "rhf"
			},
			{
				"type": "occ",
				"energy": -0.26103,
				"method": "rhf"
			},
			{
				"type": "occ",
				"energy": -0.25944,
				"method": "rhf"
			},
			{
				"type": "occ",
				"energy": -0.2278,
				"method": "rhf"
			},
			{
				"type": "occ",
				"energy": -0.22219,
				"method": "rhf"
			},
			{
				"type": "unocc",
				"energy": -0.06902,
				"method": "rhf"
			},
			{
				"type": "unocc",
				"energy": -0.04447,
				"method": "rhf"
			},
			{
				"type": "unocc",
				"energy": -0.01584,
				"method": "rhf"
			},
			{
				"type": "unocc",
				"energy": -0.01263,
				"method": "rhf"
			},
			{
				"type": "unocc",
				"energy": -0.01148,
				"method": "rhf"
			}
		],
		"cosmo_sigma_profile": { 
			"-0.025": 0.0,
			"-0.024": 0.0,
			"-0.023": 0.0,
			"-0.022": 0.0,
			"-0.021": 0.0,
			"-0.02": 0.0,
			"-0.019": 0.0,
			"-0.018": 0.0,
			"-0.017": 0.694234736652,
			"-0.016": 1.33031208134,
			"-0.015": 1.06313603137,
			"-0.014": 1.59636754614,
			"-0.013": 0.546340403359,
			"-0.012": 1.21048478675,
			"-0.011": 1.65337400447,
			"-0.01": 3.14316746279,
			"-0.009": 3.56994149586,
			"-0.008": 2.33429529047,
			"-0.007": 4.89838559476,
			"-0.006": 15.7946272402,
			"-0.005": 22.2195262564,
			"-0.004": 26.6179164816,
			"-0.003": 23.4326596003,
			"-0.002": 24.2792693662,
			"-0.001": 24.5124805229,
			"0.0": 24.3313984157,
			"0.001": 21.0980122745,
			"0.002": 21.134682584,
			"0.003": 23.7876254267,
			"0.004": 25.0899441273,
			"0.005": 13.3908386897,
			"0.006": 4.56231561507,
			"0.007": 4.93092617246,
			"0.008": 4.55517089942,
			"0.009": 5.48180688164,
			"0.01": 8.61947233338,
			"0.011": 8.91036375715,
			"0.012": 3.38830981634,
			"0.013": 0.432225600142,
			"0.014": 0.0,
			"0.015": 0.0,
			"0.016": 0.0,
			"0.017": 0.0,
			"0.018": 0.0,
			"0.019": 0.0,
			"0.02": 0.0,
			"0.021": 0.0,
			"0.022": 0.0,
			"0.023": 0.0,
			"0.024": 0.0,
			"0.025": 0.0
		}
	}
}
