{
	 "smiles": "CC(=O)C1=C(F)C=C(F)C=C1O", 
	 "Tm": 319.15, 
	 "num_atms": 18, 
	 "gaussian": { 
		 "optdone": 1, 
		 "sigma_profile": "yes", 
		 "theory": "DFT", 
		 "functional": "B3LYP", 
		 "basiset": "6-31G**", 
		 "properties": { 
			 "R2extent": 2850.151, 
			 "electric_dipole_moment_norm": 2.09017505009, 
			 "electric_quadrupole_moment_norm": 7.55741769522, 
			 "total_energy": -658.595968666, 
			 "HOMO_LUMO_gap": 0.17449, 
			 "cosmo_polarized_energy": -5.88, 
			 "cosmo_cavitation_energy": 22.92, 
			 "cosmo_dispersion_energy": -17.12, 
			 "cosmo_repulsion_energy": 1.3, 
			 "cosmo_total_nonelectrostatic_energy": 7.1, 
			 "SMD_solvation_energy": 5.81 
		},
		"coords": [
			{
				"x": 1.1549144967,
				"y": 3.3695912561,
				"z": -1.6096137333,
				"element": "C" 
			},
			{
				"x": 1.6236045919,
				"y": 1.9641714781,
				"z": -1.3112479763,
				"element": "C" 
			},
			{
				"x": 2.7948523205,
				"y": 1.8062419929,
				"z": -0.9231435829,
				"element": "O" 
			},
			{
				"x": 0.7406603025,
				"y": 0.7963334755,
				"z": -1.465454612,
				"element": "C" 
			},
			{
				"x": -0.6015812827,
				"y": 0.8548459799,
				"z": -1.8969749078,
				"element": "C" 
			},
			{
				"x": -1.1437130729,
				"y": 2.0532402668,
				"z": -2.197374052,
				"element": "F" 
			},
			{
				"x": -1.4167157949,
				"y": -0.2498338048,
				"z": -2.0367532289,
				"element": "C" 
			},
			{
				"x": -0.8568213451,
				"y": -1.4920436153,
				"z": -1.7261105255,
				"element": "C" 
			},
			{
				"x": -1.6318084718,
				"y": -2.5795909442,
				"z": -1.8550684361,
				"element": "F" 
			},
			{
				"x": 0.4462303605,
				"y": -1.6484089914,
				"z": -1.2963645388,
				"element": "C" 
			},
			{
				"x": 1.2545021819,
				"y": -0.5085967282,
				"z": -1.1624999245,
				"element": "C" 
			},
			{
				"x": 2.5060357528,
				"y": -0.6826901017,
				"z": -0.7469734621,
				"element": "O" 
			},
			{
				"x": 0.2989220154,
				"y": 3.6384638437,
				"z": -0.9844145252,
				"element": "H" 
			},
			{
				"x": 0.8262239179,
				"y": 3.4609060123,
				"z": -2.6486158564,
				"element": "H" 
			},
			{
				"x": 1.9856877073,
				"y": 4.0493651609,
				"z": -1.4189433781,
				"element": "H" 
			},
			{
				"x": -2.4411733816,
				"y": -0.1548551487,
				"z": -2.3715607298,
				"element": "H" 
			},
			{
				"x": 0.8488883071,
				"y": -2.6260235488,
				"z": -1.0638019059,
				"element": "H" 
			},
			{
				"x": 2.9162913943,
				"y": 0.2301834167,
				"z": -0.7145846244,
				"element": "H" 
			}
		],
		 "valence_orbital": [ 
			{
				"type": "occ",
				"energy": -0.36988,
				"method": "rhf"
			},
			{
				"type": "occ",
				"energy": -0.33721,
				"method": "rhf"
			},
			{
				"type": "occ",
				"energy": -0.27544,
				"method": "rhf"
			},
			{
				"type": "occ",
				"energy": -0.26694,
				"method": "rhf"
			},
			{
				"type": "occ",
				"energy": -0.2426,
				"method": "rhf"
			},
			{
				"type": "unocc",
				"energy": -0.06811,
				"method": "rhf"
			},
			{
				"type": "unocc",
				"energy": -0.00891,
				"method": "rhf"
			},
			{
				"type": "unocc",
				"energy": 0.02489,
				"method": "rhf"
			},
			{
				"type": "unocc",
				"energy": 0.07373,
				"method": "rhf"
			},
			{
				"type": "unocc",
				"energy": 0.11253,
				"method": "rhf"
			}
		],
		"cosmo_sigma_profile": { 
			"-0.025": 0.0,
			"-0.024": 0.0,
			"-0.023": 0.0,
			"-0.022": 0.0,
			"-0.021": 0.0,
			"-0.02": 0.0,
			"-0.019": 0.0,
			"-0.018": 0.0,
			"-0.017": 0.0,
			"-0.016": 0.0,
			"-0.015": 0.0,
			"-0.014": 0.0,
			"-0.013": 0.0,
			"-0.012": 0.0,
			"-0.011": 0.0,
			"-0.01": 0.0,
			"-0.009": 0.896152191499,
			"-0.008": 2.87938330297,
			"-0.007": 3.30729807733,
			"-0.006": 8.22122982635,
			"-0.005": 9.90252283438,
			"-0.004": 10.8504241739,
			"-0.003": 13.3194306361,
			"-0.002": 15.5782321701,
			"-0.001": 25.3665972036,
			"0.0": 21.6175139287,
			"0.001": 15.1991302196,
			"0.002": 11.6553339109,
			"0.003": 16.9193518246,
			"0.004": 7.98062091785,
			"0.005": 3.01716778254,
			"0.006": 2.47476904832,
			"0.007": 2.10420120354,
			"0.008": 3.16788320632,
			"0.009": 3.11226236023,
			"0.01": 3.05103434676,
			"0.011": 2.64363373909,
			"0.012": 0.893923418606,
			"0.013": 0.0485134626404,
			"0.014": 0.0,
			"0.015": 0.0,
			"0.016": 0.0,
			"0.017": 0.0,
			"0.018": 0.0,
			"0.019": 0.0,
			"0.02": 0.0,
			"0.021": 0.0,
			"0.022": 0.0,
			"0.023": 0.0,
			"0.024": 0.0,
			"0.025": 0.0
		}
	}
}
