{
	 "smiles": "CS(=O)(=O)C1=CC=C(Cl)C=C1", 
	 "Tm": 370.15, 
	 "num_atms": 18, 
	 "gaussian": { 
		 "optdone": 1, 
		 "sigma_profile": "yes", 
		 "theory": "DFT", 
		 "functional": "B3LYP", 
		 "basiset": "6-31G**", 
		 "properties": { 
			 "R2extent": 3590.8946, 
			 "electric_dipole_moment_norm": 4.01395445291, 
			 "electric_quadrupole_moment_norm": 11.7462992044, 
			 "total_energy": -1279.72656928, 
			 "HOMO_LUMO_gap": 0.21905, 
			 "cosmo_polarized_energy": -14.03, 
			 "cosmo_cavitation_energy": 25.43, 
			 "cosmo_dispersion_energy": -19.17, 
			 "cosmo_repulsion_energy": 1.49, 
			 "cosmo_total_nonelectrostatic_energy": 7.74, 
			 "SMD_solvation_energy": 3.88 
		},
		"coords": [
			{
				"x": -1.6695798033,
				"y": 0.5352753181,
				"z": -0.7936405181,
				"element": "C" 
			},
			{
				"x": -0.0067881812,
				"y": 1.1625026096,
				"z": -0.4552580577,
				"element": "S" 
			},
			{
				"x": -0.0203876257,
				"y": 1.742872311,
				"z": 0.8960984299,
				"element": "O" 
			},
			{
				"x": 0.414336813,
				"y": 1.9498271195,
				"z": -1.6240021904,
				"element": "O" 
			},
			{
				"x": 1.0057301393,
				"y": -0.3259384012,
				"z": -0.4027799902,
				"element": "C" 
			},
			{
				"x": 1.1911156693,
				"y": -0.9847695923,
				"z": 0.8138590074,
				"element": "C" 
			},
			{
				"x": 1.9718453833,
				"y": -2.1386236931,
				"z": 0.8560692213,
				"element": "C" 
			},
			{
				"x": 2.556053128,
				"y": -2.6074969374,
				"z": -0.3225727306,
				"element": "C" 
			},
			{
				"x": 3.5361237159,
				"y": -4.0593291529,
				"z": -0.2726510485,
				"element": "Cl" 
			},
			{
				"x": 2.3850475742,
				"y": -1.9420313428,
				"z": -1.5384049995,
				"element": "C" 
			},
			{
				"x": 1.6035639702,
				"y": -0.7885353559,
				"z": -1.5763322908,
				"element": "C" 
			},
			{
				"x": -1.97574405,
				"y": -0.1288744832,
				"z": 0.0157119317,
				"element": "H" 
			},
			{
				"x": -1.6704565584,
				"y": 0.0161721312,
				"z": -1.7530196589,
				"element": "H" 
			},
			{
				"x": -2.3216052685,
				"y": 1.4103482948,
				"z": -0.8344229358,
				"element": "H" 
			},
			{
				"x": 0.7458182961,
				"y": -0.5839332206,
				"z": 1.7183342189,
				"element": "H" 
			},
			{
				"x": 2.1340115179,
				"y": -2.6651276225,
				"z": 1.7897777565,
				"element": "H" 
			},
			{
				"x": 2.8631930021,
				"y": -2.3181933558,
				"z": -2.4357329177,
				"element": "H" 
			},
			{
				"x": 1.4740222777,
				"y": -0.2374446267,
				"z": -2.5018332277,
				"element": "H" 
			}
		],
		 "valence_orbital": [ 
			{
				"type": "occ",
				"energy": -0.31704,
				"method": "rhf"
			},
			{
				"type": "occ",
				"energy": -0.30103,
				"method": "rhf"
			},
			{
				"type": "occ",
				"energy": -0.29405,
				"method": "rhf"
			},
			{
				"type": "occ",
				"energy": -0.28727,
				"method": "rhf"
			},
			{
				"type": "occ",
				"energy": -0.27159,
				"method": "rhf"
			},
			{
				"type": "unocc",
				"energy": -0.05254,
				"method": "rhf"
			},
			{
				"type": "unocc",
				"energy": -0.03744,
				"method": "rhf"
			},
			{
				"type": "unocc",
				"energy": 0.01323,
				"method": "rhf"
			},
			{
				"type": "unocc",
				"energy": 0.06596,
				"method": "rhf"
			},
			{
				"type": "unocc",
				"energy": 0.07021,
				"method": "rhf"
			}
		],
		"cosmo_sigma_profile": { 
			"-0.025": 0.0,
			"-0.024": 0.0,
			"-0.023": 0.0,
			"-0.022": 0.0,
			"-0.021": 0.0,
			"-0.02": 0.0,
			"-0.019": 0.0,
			"-0.018": 0.0,
			"-0.017": 0.0,
			"-0.016": 0.0,
			"-0.015": 0.0,
			"-0.014": 0.0,
			"-0.013": 0.0,
			"-0.012": 0.0,
			"-0.011": 0.0,
			"-0.01": 0.0,
			"-0.009": 2.73742437589,
			"-0.008": 13.334672372,
			"-0.007": 12.9271628015,
			"-0.006": 13.129555592,
			"-0.005": 11.5264365666,
			"-0.004": 12.4831383979,
			"-0.003": 10.6961525115,
			"-0.002": 10.1343469391,
			"-0.001": 10.1676432075,
			"0.0": 16.8424525813,
			"0.001": 22.3989300309,
			"0.002": 12.7816822273,
			"0.003": 9.53500313999,
			"0.004": 11.4416079237,
			"0.005": 2.78622692459,
			"0.006": 2.08958343471,
			"0.007": 2.82150031794,
			"0.008": 2.25471284601,
			"0.009": 3.29583601607,
			"0.01": 5.11757697004,
			"0.011": 8.94758234121,
			"0.012": 7.94110093637,
			"0.013": 0.603037807877,
			"0.014": 0.0,
			"0.015": 0.0,
			"0.016": 0.0,
			"0.017": 0.0,
			"0.018": 0.0,
			"0.019": 0.0,
			"0.02": 0.0,
			"0.021": 0.0,
			"0.022": 0.0,
			"0.023": 0.0,
			"0.024": 0.0,
			"0.025": 0.0
		}
	}
}
