{
	 "smiles": "CC1=NN=C(N1)SCCC(O)=O", 
	 "Tm": 405.15, 
	 "num_atms": 21, 
	 "gaussian": { 
		 "optdone": 1, 
		 "sigma_profile": "yes", 
		 "theory": "DFT", 
		 "functional": "B3LYP", 
		 "basiset": "6-31G**", 
		 "properties": { 
			 "R2extent": 3338.5782, 
			 "electric_dipole_moment_norm": 2.90069005238, 
			 "electric_quadrupole_moment_norm": 19.8691406087, 
			 "total_energy": -946.953437842, 
			 "HOMO_LUMO_gap": 0.22764, 
			 "cosmo_polarized_energy": -22.47, 
			 "cosmo_cavitation_energy": 27.42, 
			 "cosmo_dispersion_energy": -20.43, 
			 "cosmo_repulsion_energy": 1.63, 
			 "cosmo_total_nonelectrostatic_energy": 8.62, 
			 "SMD_solvation_energy": 3.84 
		},
		"coords": [
			{
				"x": 0.4638459163,
				"y": 2.2163608364,
				"z": -4.4342408678,
				"element": "C" 
			},
			{
				"x": 0.1039902879,
				"y": 1.5925437192,
				"z": -3.128809325,
				"element": "C" 
			},
			{
				"x": -0.0841205192,
				"y": 0.3154156358,
				"z": -2.9086742294,
				"element": "N" 
			},
			{
				"x": -0.403328311,
				"y": 0.1534148682,
				"z": -1.5662682068,
				"element": "N" 
			},
			{
				"x": -0.4006596372,
				"y": 1.3466149733,
				"z": -1.018919059,
				"element": "C" 
			},
			{
				"x": -0.0829598646,
				"y": 2.2954065095,
				"z": -1.9572812241,
				"element": "N" 
			},
			{
				"x": -0.7316099524,
				"y": 1.7613665123,
				"z": 0.6622575701,
				"element": "S" 
			},
			{
				"x": -1.1584618615,
				"y": 0.0828291366,
				"z": 1.2873732541,
				"element": "C" 
			},
			{
				"x": 0.0537037043,
				"y": -0.8003644212,
				"z": 1.5596588727,
				"element": "C" 
			},
			{
				"x": 0.8498852717,
				"y": -0.342746468,
				"z": 2.7622705306,
				"element": "C" 
			},
			{
				"x": 2.0491557921,
				"y": -0.9649351609,
				"z": 2.8322431962,
				"element": "O" 
			},
			{
				"x": 0.4773814422,
				"y": 0.4562193891,
				"z": 3.5944331598,
				"element": "O" 
			},
			{
				"x": -0.3026955559,
				"y": 2.9231649626,
				"z": -4.7718158075,
				"element": "H" 
			},
			{
				"x": 0.555795628,
				"y": 1.4243208244,
				"z": -5.1787768939,
				"element": "H" 
			},
			{
				"x": 1.4170975682,
				"y": 2.7541269611,
				"z": -4.3786127724,
				"element": "H" 
			},
			{
				"x": -0.0174869985,
				"y": 3.2926781965,
				"z": -1.8180101184,
				"element": "H" 
			},
			{
				"x": -1.7134515331,
				"y": 0.2745992178,
				"z": 2.2074834304,
				"element": "H" 
			},
			{
				"x": -1.8129980939,
				"y": -0.3788127112,
				"z": 0.5476791136,
				"element": "H" 
			},
			{
				"x": 0.6977313052,
				"y": -0.8710052845,
				"z": 0.6798918703,
				"element": "H" 
			},
			{
				"x": -0.2850255668,
				"y": -1.8252139139,
				"z": 1.7675008421,
				"element": "H" 
			},
			{
				"x": 2.4772109783,
				"y": -0.6375837832,
				"z": 3.6413166644,
				"element": "H" 
			}
		],
		 "valence_orbital": [ 
			{
				"type": "occ",
				"energy": -0.30312,
				"method": "rhf"
			},
			{
				"type": "occ",
				"energy": -0.29295,
				"method": "rhf"
			},
			{
				"type": "occ",
				"energy": -0.27791,
				"method": "rhf"
			},
			{
				"type": "occ",
				"energy": -0.25469,
				"method": "rhf"
			},
			{
				"type": "occ",
				"energy": -0.22084,
				"method": "rhf"
			},
			{
				"type": "unocc",
				"energy": 0.0068,
				"method": "rhf"
			},
			{
				"type": "unocc",
				"energy": 0.01628,
				"method": "rhf"
			},
			{
				"type": "unocc",
				"energy": 0.0197,
				"method": "rhf"
			},
			{
				"type": "unocc",
				"energy": 0.04648,
				"method": "rhf"
			},
			{
				"type": "unocc",
				"energy": 0.0719,
				"method": "rhf"
			}
		],
		"cosmo_sigma_profile": { 
			"-0.025": 0.0,
			"-0.024": 0.0,
			"-0.023": 0.0,
			"-0.022": 0.0,
			"-0.021": 0.0,
			"-0.02": 0.0,
			"-0.019": 0.0615004944329,
			"-0.018": 1.29147733255,
			"-0.017": 2.39298647632,
			"-0.016": 1.95690627932,
			"-0.015": 2.24405027709,
			"-0.014": 1.4612792943,
			"-0.013": 2.49580903264,
			"-0.012": 1.55779152362,
			"-0.011": 2.19596275982,
			"-0.01": 2.42733842763,
			"-0.009": 1.36467654055,
			"-0.008": 3.02689631209,
			"-0.007": 6.2391539948,
			"-0.006": 13.2484516716,
			"-0.005": 14.8112143813,
			"-0.004": 14.3242188318,
			"-0.003": 14.9263673312,
			"-0.002": 15.7854204066,
			"-0.001": 12.0457489605,
			"0.0": 12.3096230923,
			"0.001": 9.29544377792,
			"0.002": 9.10078092814,
			"0.003": 9.93360491068,
			"0.004": 6.45315160941,
			"0.005": 7.25445791442,
			"0.006": 8.40838501611,
			"0.007": 6.08593021163,
			"0.008": 5.09967417018,
			"0.009": 5.51326015712,
			"0.01": 3.91896648077,
			"0.011": 5.64194916544,
			"0.012": 5.15909420274,
			"0.013": 2.76781985283,
			"0.014": 3.13577530973,
			"0.015": 2.80184058461,
			"0.016": 0.963372497119,
			"0.017": 1.19322023248,
			"0.018": 0.110392243114,
			"0.019": 0.0,
			"0.02": 0.0,
			"0.021": 0.0,
			"0.022": 0.0,
			"0.023": 0.0,
			"0.024": 0.0,
			"0.025": 0.0
		}
	}
}
