{
	 "smiles": "CC(=O)OC1=C2C=CC=CC2=C(OC(C)=O)C(C)=C1", 
	 "Tm": 386.15, 
	 "num_atms": 33, 
	 "gaussian": { 
		 "optdone": 1, 
		 "sigma_profile": "yes", 
		 "theory": "DFT", 
		 "functional": "B3LYP", 
		 "basiset": "6-31G**", 
		 "properties": { 
			 "R2extent": 6381.5687, 
			 "electric_dipole_moment_norm": 1.39105391341, 
			 "electric_quadrupole_moment_norm": 20.9349133488, 
			 "total_energy": -880.966189949, 
			 "HOMO_LUMO_gap": 0.16749, 
			 "cosmo_polarized_energy": -12.98, 
			 "cosmo_cavitation_energy": 37.61, 
			 "cosmo_dispersion_energy": -26.04, 
			 "cosmo_repulsion_energy": 2.01, 
			 "cosmo_total_nonelectrostatic_energy": 13.58, 
			 "SMD_solvation_energy": 8.62 
		},
		"coords": [
			{
				"x": 2.6624902796,
				"y": -4.4026768913,
				"z": -2.740898786,
				"element": "C" 
			},
			{
				"x": 1.5678317249,
				"y": -3.6649569011,
				"z": -2.0099833499,
				"element": "C" 
			},
			{
				"x": 0.3827825453,
				"y": -3.8291972414,
				"z": -2.1568153478,
				"element": "O" 
			},
			{
				"x": 2.1296848957,
				"y": -2.76363727,
				"z": -1.1399779789,
				"element": "O" 
			},
			{
				"x": 1.350784866,
				"y": -1.9225009909,
				"z": -0.3446304164,
				"element": "C" 
			},
			{
				"x": 1.8112493721,
				"y": -0.5800033141,
				"z": -0.2429379935,
				"element": "C" 
			},
			{
				"x": 2.944113902,
				"y": -0.0967522644,
				"z": -0.9491991174,
				"element": "C" 
			},
			{
				"x": 3.345603164,
				"y": 1.2134180595,
				"z": -0.8172850118,
				"element": "C" 
			},
			{
				"x": 2.6321908104,
				"y": 2.097601822,
				"z": 0.0266008407,
				"element": "C" 
			},
			{
				"x": 1.5317057538,
				"y": 1.6578628959,
				"z": 0.7268298542,
				"element": "C" 
			},
			{
				"x": 1.0923492696,
				"y": 0.3113201925,
				"z": 0.6168515444,
				"element": "C" 
			},
			{
				"x": -0.038148448,
				"y": -0.185839832,
				"z": 1.3205006153,
				"element": "C" 
			},
			{
				"x": -0.7548231312,
				"y": 0.7358107109,
				"z": 2.0959185137,
				"element": "O" 
			},
			{
				"x": -0.6720677623,
				"y": 0.6560682177,
				"z": 3.4647955222,
				"element": "C" 
			},
			{
				"x": -1.4996993608,
				"y": 1.7511698216,
				"z": 4.0909825315,
				"element": "C" 
			},
			{
				"x": -0.0314164597,
				"y": -0.1779634619,
				"z": 4.0536193653,
				"element": "O" 
			},
			{
				"x": -0.4758489221,
				"y": -1.4890061527,
				"z": 1.2007747116,
				"element": "C" 
			},
			{
				"x": -1.6816766218,
				"y": -1.997793295,
				"z": 1.9485230818,
				"element": "C" 
			},
			{
				"x": 0.2504422661,
				"y": -2.362598919,
				"z": 0.3501603038,
				"element": "C" 
			},
			{
				"x": 3.3342206713,
				"y": -4.8844538194,
				"z": -2.0246812,
				"element": "H" 
			},
			{
				"x": 3.2612864048,
				"y": -3.6997186532,
				"z": -3.3278690559,
				"element": "H" 
			},
			{
				"x": 2.2173965403,
				"y": -5.1483257504,
				"z": -3.3986245966,
				"element": "H" 
			},
			{
				"x": 3.4862473817,
				"y": -0.7803943686,
				"z": -1.5921598118,
				"element": "H" 
			},
			{
				"x": 4.2132609829,
				"y": 1.5723484459,
				"z": -1.3630273405,
				"element": "H" 
			},
			{
				"x": 2.9563345697,
				"y": 3.1299331977,
				"z": 0.1210810864,
				"element": "H" 
			},
			{
				"x": 0.9789432753,
				"y": 2.3353943023,
				"z": 1.367418532,
				"element": "H" 
			},
			{
				"x": -1.4436569974,
				"y": 1.6708112747,
				"z": 5.1759112372,
				"element": "H" 
			},
			{
				"x": -1.1327319554,
				"y": 2.7305807145,
				"z": 3.7700347458,
				"element": "H" 
			},
			{
				"x": -2.5396716891,
				"y": 1.6705627204,
				"z": 3.7616238623,
				"element": "H" 
			},
			{
				"x": -2.4866634208,
				"y": -1.2565427226,
				"z": 1.9532254135,
				"element": "H" 
			},
			{
				"x": -2.0637544501,
				"y": -2.914363184,
				"z": 1.4926459584,
				"element": "H" 
			},
			{
				"x": -1.4268868164,
				"y": -2.2125262895,
				"z": 2.9922494894,
				"element": "H" 
			},
			{
				"x": -0.0831726402,
				"y": -3.3861310541,
				"z": 0.2411427971,
				"element": "H" 
			}
		],
		 "valence_orbital": [ 
			{
				"type": "occ",
				"energy": -0.28076,
				"method": "rhf"
			},
			{
				"type": "occ",
				"energy": -0.27982,
				"method": "rhf"
			},
			{
				"type": "occ",
				"energy": -0.27127,
				"method": "rhf"
			},
			{
				"type": "occ",
				"energy": -0.2435,
				"method": "rhf"
			},
			{
				"type": "occ",
				"energy": -0.21004,
				"method": "rhf"
			},
			{
				"type": "unocc",
				"energy": -0.04255,
				"method": "rhf"
			},
			{
				"type": "unocc",
				"energy": -0.01234,
				"method": "rhf"
			},
			{
				"type": "unocc",
				"energy": 0.00121,
				"method": "rhf"
			},
			{
				"type": "unocc",
				"energy": 0.00449,
				"method": "rhf"
			},
			{
				"type": "unocc",
				"energy": 0.03949,
				"method": "rhf"
			}
		],
		"cosmo_sigma_profile": { 
			"-0.025": 0.0,
			"-0.024": 0.0,
			"-0.023": 0.0,
			"-0.022": 0.0,
			"-0.021": 0.0,
			"-0.02": 0.0,
			"-0.019": 0.0,
			"-0.018": 0.0,
			"-0.017": 0.0,
			"-0.016": 0.0,
			"-0.015": 0.0,
			"-0.014": 0.0,
			"-0.013": 0.0,
			"-0.012": 0.0,
			"-0.011": 0.0,
			"-0.01": 0.0,
			"-0.009": 0.0,
			"-0.008": 0.0,
			"-0.007": 4.88587926362,
			"-0.006": 19.7903531433,
			"-0.005": 26.8848042187,
			"-0.004": 28.1865409874,
			"-0.003": 28.3948405249,
			"-0.002": 29.1576799975,
			"-0.001": 24.1062377845,
			"0.0": 17.1275881391,
			"0.001": 14.7817352566,
			"0.002": 23.8517416817,
			"0.003": 20.69789693,
			"0.004": 16.9599527053,
			"0.005": 10.34409538,
			"0.006": 4.7187293007,
			"0.007": 4.21961636675,
			"0.008": 3.35034365312,
			"0.009": 3.81264301333,
			"0.01": 5.4777382373,
			"0.011": 8.74679427986,
			"0.012": 4.09386285285,
			"0.013": 0.281160083545,
			"0.014": 0.0,
			"0.015": 0.0,
			"0.016": 0.0,
			"0.017": 0.0,
			"0.018": 0.0,
			"0.019": 0.0,
			"0.02": 0.0,
			"0.021": 0.0,
			"0.022": 0.0,
			"0.023": 0.0,
			"0.024": 0.0,
			"0.025": 0.0
		}
	}
}
