{
	 "smiles": "OC(=O)CSC1=NC2=C(O1)C=CC=C2", 
	 "Tm": 432.15, 
	 "num_atms": 21, 
	 "gaussian": { 
		 "optdone": 1, 
		 "sigma_profile": "yes", 
		 "theory": "DFT", 
		 "functional": "B3LYP", 
		 "basiset": "6-31G**", 
		 "properties": { 
			 "R2extent": 4007.6307, 
			 "electric_dipole_moment_norm": 1.34596871435, 
			 "electric_quadrupole_moment_norm": 12.5865622817, 
			 "total_energy": -1025.7858713, 
			 "HOMO_LUMO_gap": 0.19721, 
			 "cosmo_polarized_energy": -14.15, 
			 "cosmo_cavitation_energy": 28.11, 
			 "cosmo_dispersion_energy": -20.81, 
			 "cosmo_repulsion_energy": 1.61, 
			 "cosmo_total_nonelectrostatic_energy": 8.9, 
			 "SMD_solvation_energy": 3.85 
		},
		"coords": [
			{
				"x": -4.0100132125,
				"y": -1.7817841287,
				"z": -1.0748862738,
				"element": "O" 
			},
			{
				"x": -3.3535587265,
				"y": -2.5883337038,
				"z": -0.2206730868,
				"element": "C" 
			},
			{
				"x": -3.7844197619,
				"y": -2.9144397974,
				"z": 0.861033131,
				"element": "O" 
			},
			{
				"x": -2.0325838364,
				"y": -3.1125694161,
				"z": -0.7665381168,
				"element": "C" 
			},
			{
				"x": -1.1378625019,
				"y": -2.0977458998,
				"z": -1.9976096629,
				"element": "S" 
			},
			{
				"x": -0.698261589,
				"y": -0.7086104216,
				"z": -1.0210573237,
				"element": "C" 
			},
			{
				"x": -0.0235556457,
				"y": 0.311952939,
				"z": -1.4377390458,
				"element": "N" 
			},
			{
				"x": 0.0670663196,
				"y": 1.1351377681,
				"z": -0.3109499669,
				"element": "C" 
			},
			{
				"x": -0.5943149125,
				"y": 0.5184918058,
				"z": 0.759350921,
				"element": "C" 
			},
			{
				"x": -1.092673571,
				"y": -0.6852160731,
				"z": 0.296866965,
				"element": "O" 
			},
			{
				"x": -0.697836987,
				"y": 1.0617396506,
				"z": 2.0288281713,
				"element": "C" 
			},
			{
				"x": -0.0859709823,
				"y": 2.3076830779,
				"z": 2.201699534,
				"element": "C" 
			},
			{
				"x": 0.5850510857,
				"y": 2.9505220693,
				"z": 1.1464087697,
				"element": "C" 
			},
			{
				"x": 0.6741166306,
				"y": 2.3790778562,
				"z": -0.1239566246,
				"element": "C" 
			},
			{
				"x": -4.8388865513,
				"y": -1.5330700556,
				"z": -0.6320034733,
				"element": "H" 
			},
			{
				"x": -2.2372576721,
				"y": -4.0486522176,
				"z": -1.2973793152,
				"element": "H" 
			},
			{
				"x": -1.3932236063,
				"y": -3.3440812473,
				"z": 0.0851182738,
				"element": "H" 
			},
			{
				"x": -1.2184959471,
				"y": 0.5540162314,
				"z": 2.8329104878,
				"element": "H" 
			},
			{
				"x": -0.131245914,
				"y": 2.7878964337,
				"z": 3.1742320222,
				"element": "H" 
			},
			{
				"x": 1.0454902203,
				"y": 3.9170874752,
				"z": 1.3273725437,
				"element": "H" 
			},
			{
				"x": 1.1912371612,
				"y": 2.8725976537,
				"z": -0.9396279298,
				"element": "H" 
			}
		],
		 "valence_orbital": [ 
			{
				"type": "occ",
				"energy": -0.29773,
				"method": "rhf"
			},
			{
				"type": "occ",
				"energy": -0.29572,
				"method": "rhf"
			},
			{
				"type": "occ",
				"energy": -0.27763,
				"method": "rhf"
			},
			{
				"type": "occ",
				"energy": -0.24977,
				"method": "rhf"
			},
			{
				"type": "occ",
				"energy": -0.22377,
				"method": "rhf"
			},
			{
				"type": "unocc",
				"energy": -0.02656,
				"method": "rhf"
			},
			{
				"type": "unocc",
				"energy": -0.01271,
				"method": "rhf"
			},
			{
				"type": "unocc",
				"energy": 0.00333,
				"method": "rhf"
			},
			{
				"type": "unocc",
				"energy": 0.0121,
				"method": "rhf"
			},
			{
				"type": "unocc",
				"energy": 0.03553,
				"method": "rhf"
			}
		],
		"cosmo_sigma_profile": { 
			"-0.025": 0.0,
			"-0.024": 0.0,
			"-0.023": 0.0,
			"-0.022": 0.0,
			"-0.021": 0.0,
			"-0.02": 0.0,
			"-0.019": 0.631092046535,
			"-0.018": 1.11839486257,
			"-0.017": 0.829980285899,
			"-0.016": 1.08169865111,
			"-0.015": 0.31856943688,
			"-0.014": 0.158073080522,
			"-0.013": 0.920619143808,
			"-0.012": 0.789628676376,
			"-0.011": 3.10604165707,
			"-0.01": 3.60392938516,
			"-0.009": 2.83552512523,
			"-0.008": 4.94202455146,
			"-0.007": 7.75884916586,
			"-0.006": 11.5924214979,
			"-0.005": 12.5269343839,
			"-0.004": 11.2473714031,
			"-0.003": 12.1738740852,
			"-0.002": 12.5840003391,
			"-0.001": 11.6191416264,
			"0.0": 13.7521512188,
			"0.001": 18.0194467905,
			"0.002": 18.3389859088,
			"0.003": 18.2463827717,
			"0.004": 16.3953201533,
			"0.005": 10.9699023596,
			"0.006": 4.27549076308,
			"0.007": 3.48262659542,
			"0.008": 4.48870903716,
			"0.009": 4.63578179485,
			"0.01": 3.726103131,
			"0.011": 6.26953821285,
			"0.012": 3.12069934656,
			"0.013": 0.937066761174,
			"0.014": 0.779621189256,
			"0.015": 0.442385556948,
			"0.016": 0.0,
			"0.017": 0.0,
			"0.018": 0.0,
			"0.019": 0.0,
			"0.02": 0.0,
			"0.021": 0.0,
			"0.022": 0.0,
			"0.023": 0.0,
			"0.024": 0.0,
			"0.025": 0.0
		}
	}
}
