{
	 "smiles": "CCOC(=O)C1=CNN2C1=NC(=O)C1=C2C=CC=C1", 
	 "Tm": 475.15, 
	 "num_atms": 30, 
	 "gaussian": { 
		 "optdone": 1, 
		 "sigma_profile": "yes", 
		 "theory": "DFT", 
		 "functional": "B3LYP", 
		 "basiset": "6-31G**", 
		 "properties": { 
			 "R2extent": 5860.2337, 
			 "electric_dipole_moment_norm": 6.65685252353, 
			 "electric_quadrupole_moment_norm": 23.1692905275, 
			 "total_energy": -891.921609096, 
			 "HOMO_LUMO_gap": 0.15853, 
			 "cosmo_polarized_energy": -32.59, 
			 "cosmo_cavitation_energy": 35.27, 
			 "cosmo_dispersion_energy": -25.52, 
			 "cosmo_repulsion_energy": 1.95, 
			 "cosmo_total_nonelectrostatic_energy": 11.69, 
			 "SMD_solvation_energy": 6.43 
		},
		"coords": [
			{
				"x": -3.4901941844,
				"y": 3.0509991922,
				"z": -0.0863367903,
				"element": "C" 
			},
			{
				"x": -2.1075281654,
				"y": 3.53613232,
				"z": -0.4761323302,
				"element": "C" 
			},
			{
				"x": -1.20758763,
				"y": 2.4094046491,
				"z": -0.3510301913,
				"element": "O" 
			},
			{
				"x": 0.0742681383,
				"y": 2.6436221161,
				"z": -0.6474543516,
				"element": "C" 
			},
			{
				"x": 0.5199831279,
				"y": 3.7188805269,
				"z": -1.0109848003,
				"element": "O" 
			},
			{
				"x": 0.923572709,
				"y": 1.4433072442,
				"z": -0.4998465931,
				"element": "C" 
			},
			{
				"x": 2.254711156,
				"y": 1.4661495553,
				"z": -0.7932199886,
				"element": "C" 
			},
			{
				"x": 2.848896899,
				"y": 0.2604107399,
				"z": -0.5016830983,
				"element": "N" 
			},
			{
				"x": 1.8122985335,
				"y": -0.6024737064,
				"z": -0.1508450745,
				"element": "N" 
			},
			{
				"x": 0.6022415419,
				"y": 0.0875179572,
				"z": -0.0649705523,
				"element": "C" 
			},
			{
				"x": -0.5167250219,
				"y": -0.4283559155,
				"z": 0.3471562271,
				"element": "N" 
			},
			{
				"x": -0.5331170682,
				"y": -1.7679489161,
				"z": 0.7413231939,
				"element": "C" 
			},
			{
				"x": -1.572409225,
				"y": -2.3323869469,
				"z": 1.0585199368,
				"element": "O" 
			},
			{
				"x": 0.7770431606,
				"y": -2.4967129837,
				"z": 0.7968934618,
				"element": "C" 
			},
			{
				"x": 1.9691949442,
				"y": -1.882255566,
				"z": 0.368724595,
				"element": "C" 
			},
			{
				"x": 3.2035189742,
				"y": -2.5407247925,
				"z": 0.4473195802,
				"element": "C" 
			},
			{
				"x": 3.236032123,
				"y": -3.8372532972,
				"z": 0.9504740453,
				"element": "C" 
			},
			{
				"x": 2.0595521556,
				"y": -4.4744270104,
				"z": 1.3692281219,
				"element": "C" 
			},
			{
				"x": 0.8443350577,
				"y": -3.8034744895,
				"z": 1.2945152503,
				"element": "C" 
			},
			{
				"x": -3.4967835574,
				"y": 2.6803212034,
				"z": 0.9420461792,
				"element": "H" 
			},
			{
				"x": -3.817738265,
				"y": 2.2401402347,
				"z": -0.7423471784,
				"element": "H" 
			},
			{
				"x": -4.2067257097,
				"y": 3.8747107104,
				"z": -0.165276537,
				"element": "H" 
			},
			{
				"x": -1.7514460877,
				"y": 4.3428619326,
				"z": 0.1725480094,
				"element": "H" 
			},
			{
				"x": -2.0703910925,
				"y": 3.9019616667,
				"z": -1.5073348232,
				"element": "H" 
			},
			{
				"x": 2.8400799825,
				"y": 2.2856938454,
				"z": -1.184286658,
				"element": "H" 
			},
			{
				"x": 3.5319172176,
				"y": -0.1300443958,
				"z": -1.1443554878,
				"element": "H" 
			},
			{
				"x": 4.120879962,
				"y": -2.0447440921,
				"z": 0.1467885019,
				"element": "H" 
			},
			{
				"x": 4.188353571,
				"y": -4.3543156624,
				"z": 1.0214412548,
				"element": "H" 
			},
			{
				"x": 2.101624278,
				"y": -5.4876009899,
				"z": 1.7563845803,
				"element": "H" 
			},
			{
				"x": -0.0864575248,
				"y": -4.2586951296,
				"z": 1.6164415169,
				"element": "H" 
			}
		],
		 "valence_orbital": [ 
			{
				"type": "occ",
				"energy": -0.26826,
				"method": "rhf"
			},
			{
				"type": "occ",
				"energy": -0.2648,
				"method": "rhf"
			},
			{
				"type": "occ",
				"energy": -0.25799,
				"method": "rhf"
			},
			{
				"type": "occ",
				"energy": -0.23145,
				"method": "rhf"
			},
			{
				"type": "occ",
				"energy": -0.22146,
				"method": "rhf"
			},
			{
				"type": "unocc",
				"energy": -0.06293,
				"method": "rhf"
			},
			{
				"type": "unocc",
				"energy": -0.0411,
				"method": "rhf"
			},
			{
				"type": "unocc",
				"energy": -0.02195,
				"method": "rhf"
			},
			{
				"type": "unocc",
				"energy": 0.00871,
				"method": "rhf"
			},
			{
				"type": "unocc",
				"energy": 0.03824,
				"method": "rhf"
			}
		],
		"cosmo_sigma_profile": { 
			"-0.025": 0.0,
			"-0.024": 0.0,
			"-0.023": 0.0,
			"-0.022": 0.0,
			"-0.021": 0.0,
			"-0.02": 0.0,
			"-0.019": 0.753570759944,
			"-0.018": 1.82754563608,
			"-0.017": 1.58178247915,
			"-0.016": 1.44053957585,
			"-0.015": 1.9925204144,
			"-0.014": 1.41878507268,
			"-0.013": 1.45465335289,
			"-0.012": 2.40473612043,
			"-0.011": 3.47325370607,
			"-0.01": 2.78446536828,
			"-0.009": 1.81625770494,
			"-0.008": 3.17669793979,
			"-0.007": 5.37334573464,
			"-0.006": 10.5095102319,
			"-0.005": 17.6483582692,
			"-0.004": 24.4458635631,
			"-0.003": 24.88826093,
			"-0.002": 23.2818324768,
			"-0.001": 22.7060637066,
			"0.0": 18.745951313,
			"0.001": 15.5859600833,
			"0.002": 17.2179426887,
			"0.003": 15.4698574798,
			"0.004": 6.76858698715,
			"0.005": 3.31306055488,
			"0.006": 4.43064680895,
			"0.007": 4.20229904502,
			"0.008": 3.36330948229,
			"0.009": 4.3779087299,
			"0.01": 3.72729524728,
			"0.011": 5.53911394941,
			"0.012": 7.66508468745,
			"0.013": 3.84346198742,
			"0.014": 6.26821702617,
			"0.015": 3.50310583174,
			"0.016": 3.36310735159,
			"0.017": 2.27562425241,
			"0.018": 0.0239002396348,
			"0.019": 0.0,
			"0.02": 0.0,
			"0.021": 0.0,
			"0.022": 0.0,
			"0.023": 0.0,
			"0.024": 0.0,
			"0.025": 0.0
		}
	}
}
