{
	 "smiles": "OC(=O)C1=C(N=C2C=CC=CC2=C1)N1CCCC1", 
	 "Tm": 443.15, 
	 "num_atms": 32, 
	 "gaussian": { 
		 "optdone": 1, 
		 "sigma_profile": "yes", 
		 "theory": "DFT", 
		 "functional": "B3LYP", 
		 "basiset": "6-31G**", 
		 "properties": { 
			 "R2extent": 4878.7459, 
			 "electric_dipole_moment_norm": 1.43438847597, 
			 "electric_quadrupole_moment_norm": 13.7808536797, 
			 "total_energy": -801.908269903, 
			 "HOMO_LUMO_gap": 0.1401, 
			 "cosmo_polarized_energy": -11.87, 
			 "cosmo_cavitation_energy": 34.31, 
			 "cosmo_dispersion_energy": -25.41, 
			 "cosmo_repulsion_energy": 1.95, 
			 "cosmo_total_nonelectrostatic_energy": 10.85, 
			 "SMD_solvation_energy": 4.26 
		},
		"coords": [
			{
				"x": -1.2571407682,
				"y": -0.1155670366,
				"z": -3.1233250685,
				"element": "O" 
			},
			{
				"x": -1.3225289575,
				"y": 0.5401108957,
				"z": -1.9303780244,
				"element": "C" 
			},
			{
				"x": -2.2068574716,
				"y": 1.3456070942,
				"z": -1.7051150208,
				"element": "O" 
			},
			{
				"x": -0.1878799695,
				"y": 0.2126735401,
				"z": -1.0365589989,
				"element": "C" 
			},
			{
				"x": -0.2093906836,
				"y": 0.4047887344,
				"z": 0.4065233767,
				"element": "C" 
			},
			{
				"x": 0.9215006406,
				"y": 0.4634331668,
				"z": 1.110602801,
				"element": "N" 
			},
			{
				"x": 2.1122216466,
				"y": 0.2320591245,
				"z": 0.5093054981,
				"element": "C" 
			},
			{
				"x": 3.3047920725,
				"y": 0.3122973837,
				"z": 1.2806023379,
				"element": "C" 
			},
			{
				"x": 4.5256066624,
				"y": 0.0303997518,
				"z": 0.7087040691,
				"element": "C" 
			},
			{
				"x": 4.6273342185,
				"y": -0.3376662931,
				"z": -0.6576049125,
				"element": "C" 
			},
			{
				"x": 3.4927405866,
				"y": -0.4089207587,
				"z": -1.4338193191,
				"element": "C" 
			},
			{
				"x": 2.2206824625,
				"y": -0.1235224077,
				"z": -0.87248043,
				"element": "C" 
			},
			{
				"x": 1.0254368532,
				"y": -0.1002680157,
				"z": -1.6222308414,
				"element": "C" 
			},
			{
				"x": -1.361897464,
				"y": 0.5084371875,
				"z": 1.1322647161,
				"element": "N" 
			},
			{
				"x": -1.2792525872,
				"y": 0.7290901691,
				"z": 2.5877386205,
				"element": "C" 
			},
			{
				"x": -2.738553158,
				"y": 0.6484291758,
				"z": 3.0476510539,
				"element": "C" 
			},
			{
				"x": -3.3420675506,
				"y": -0.3782296229,
				"z": 2.0783763591,
				"element": "C" 
			},
			{
				"x": -2.6834547439,
				"y": -0.0100377565,
				"z": 0.7410768246,
				"element": "C" 
			},
			{
				"x": -1.9837462724,
				"y": 0.2496783146,
				"z": -3.6545183245,
				"element": "H" 
			},
			{
				"x": 3.2141198289,
				"y": 0.5885449752,
				"z": 2.3260344465,
				"element": "H" 
			},
			{
				"x": 5.4279395527,
				"y": 0.088783658,
				"z": 1.3113824867,
				"element": "H" 
			},
			{
				"x": 5.6004958752,
				"y": -0.5571181688,
				"z": -1.0859518477,
				"element": "H" 
			},
			{
				"x": 3.5543622122,
				"y": -0.6793216701,
				"z": -2.4852215042,
				"element": "H" 
			},
			{
				"x": 1.0631869223,
				"y": -0.2683983761,
				"z": -2.6936249753,
				"element": "H" 
			},
			{
				"x": -0.7994435603,
				"y": 1.688026539,
				"z": 2.801854772,
				"element": "H" 
			},
			{
				"x": -0.661588207,
				"y": -0.0484759006,
				"z": 3.0546381292,
				"element": "H" 
			},
			{
				"x": -3.2322180661,
				"y": 1.6192638746,
				"z": 2.9246796101,
				"element": "H" 
			},
			{
				"x": -2.8243923629,
				"y": 0.3579991841,
				"z": 4.0982033484,
				"element": "H" 
			},
			{
				"x": -3.054733827,
				"y": -1.3926194235,
				"z": 2.3790250112,
				"element": "H" 
			},
			{
				"x": -4.4335002144,
				"y": -0.339807814,
				"z": 2.0229507161,
				"element": "H" 
			},
			{
				"x": -3.2560438348,
				"y": 0.7525382354,
				"z": 0.2060220697,
				"element": "H" 
			},
			{
				"x": -2.576629835,
				"y": -0.8710077604,
				"z": 0.0712930205,
				"element": "H" 
			}
		],
		 "valence_orbital": [ 
			{
				"type": "occ",
				"energy": -0.27672,
				"method": "rhf"
			},
			{
				"type": "occ",
				"energy": -0.27012,
				"method": "rhf"
			},
			{
				"type": "occ",
				"energy": -0.24968,
				"method": "rhf"
			},
			{
				"type": "occ",
				"energy": -0.23325,
				"method": "rhf"
			},
			{
				"type": "occ",
				"energy": -0.1976,
				"method": "rhf"
			},
			{
				"type": "unocc",
				"energy": -0.0575,
				"method": "rhf"
			},
			{
				"type": "unocc",
				"energy": -0.01407,
				"method": "rhf"
			},
			{
				"type": "unocc",
				"energy": 0.02524,
				"method": "rhf"
			},
			{
				"type": "unocc",
				"energy": 0.03433,
				"method": "rhf"
			},
			{
				"type": "unocc",
				"energy": 0.07992,
				"method": "rhf"
			}
		],
		"cosmo_sigma_profile": { 
			"-0.025": 0.0,
			"-0.024": 0.0,
			"-0.023": 0.0,
			"-0.022": 0.0,
			"-0.021": 0.0,
			"-0.02": 0.0,
			"-0.019": 0.0,
			"-0.018": 0.358099884187,
			"-0.017": 1.15028133621,
			"-0.016": 0.94311753018,
			"-0.015": 0.308714837487,
			"-0.014": 0.489514151688,
			"-0.013": 1.1259673897,
			"-0.012": 1.18980737626,
			"-0.011": 0.429340693236,
			"-0.01": 0.39184998141,
			"-0.009": 0.716869315932,
			"-0.008": 0.815746595647,
			"-0.007": 3.65607950892,
			"-0.006": 8.12832307455,
			"-0.005": 12.4219481347,
			"-0.004": 18.8032817345,
			"-0.003": 29.5117088289,
			"-0.002": 34.0986210731,
			"-0.001": 24.4673067679,
			"0.0": 22.880380978,
			"0.001": 17.8609713856,
			"0.002": 16.7436552982,
			"0.003": 16.2739484819,
			"0.004": 15.9568657366,
			"0.005": 13.1924596484,
			"0.006": 4.75292022481,
			"0.007": 5.66138724481,
			"0.008": 3.78773606196,
			"0.009": 4.11637933181,
			"0.01": 3.16630852975,
			"0.011": 4.29160627531,
			"0.012": 4.02724301897,
			"0.013": 0.343794127381,
			"0.014": 0.0,
			"0.015": 0.0,
			"0.016": 0.0,
			"0.017": 0.0,
			"0.018": 0.0,
			"0.019": 0.0,
			"0.02": 0.0,
			"0.021": 0.0,
			"0.022": 0.0,
			"0.023": 0.0,
			"0.024": 0.0,
			"0.025": 0.0
		}
	}
}
