{
	 "smiles": "CC(C)C1=CC(=CC=C1)N1CC(CC1=O)C(O)=O", 
	 "Tm": 400.15, 
	 "num_atms": 35, 
	 "gaussian": { 
		 "optdone": 1, 
		 "sigma_profile": "yes", 
		 "theory": "DFT", 
		 "functional": "B3LYP", 
		 "basiset": "6-31G**", 
		 "properties": { 
			 "R2extent": 6177.426, 
			 "electric_dipole_moment_norm": 3.10020764788, 
			 "electric_quadrupole_moment_norm": 21.1980521782, 
			 "total_energy": -824.206263839, 
			 "HOMO_LUMO_gap": 0.20472, 
			 "cosmo_polarized_energy": -15.84, 
			 "cosmo_cavitation_energy": 37.66, 
			 "cosmo_dispersion_energy": -26.43, 
			 "cosmo_repulsion_energy": 2.07, 
			 "cosmo_total_nonelectrostatic_energy": 13.29, 
			 "SMD_solvation_energy": 7.6 
		},
		"coords": [
			{
				"x": 2.1224060862,
				"y": 1.0577701988,
				"z": 2.8382210592,
				"element": "C" 
			},
			{
				"x": 1.1693945673,
				"y": 2.1125236728,
				"z": 2.2453105828,
				"element": "C" 
			},
			{
				"x": 1.8666474956,
				"y": 2.9309937893,
				"z": 1.142073946,
				"element": "C" 
			},
			{
				"x": -0.1354388143,
				"y": 1.4948909976,
				"z": 1.7567072869,
				"element": "C" 
			},
			{
				"x": -0.1369359234,
				"y": 0.5422520307,
				"z": 0.7289057478,
				"element": "C" 
			},
			{
				"x": -1.3302861052,
				"y": -0.0326235566,
				"z": 0.2646635791,
				"element": "C" 
			},
			{
				"x": -2.5525438426,
				"y": 0.3595505879,
				"z": 0.8405199089,
				"element": "C" 
			},
			{
				"x": -2.5485457242,
				"y": 1.3075066695,
				"z": 1.8587690745,
				"element": "C" 
			},
			{
				"x": -1.3579264359,
				"y": 1.8719181096,
				"z": 2.3198428816,
				"element": "C" 
			},
			{
				"x": -1.2752611553,
				"y": -1.0089667343,
				"z": -0.7635038075,
				"element": "N" 
			},
			{
				"x": 0.0018244917,
				"y": -1.5938546165,
				"z": -1.1875463476,
				"element": "C" 
			},
			{
				"x": -0.4050602189,
				"y": -2.7924577796,
				"z": -2.0601529469,
				"element": "C" 
			},
			{
				"x": -1.7823562982,
				"y": -2.3766485522,
				"z": -2.6150653375,
				"element": "C" 
			},
			{
				"x": -2.3353378183,
				"y": -1.4222333996,
				"z": -1.5572145373,
				"element": "C" 
			},
			{
				"x": -3.5021262049,
				"y": -1.082341716,
				"z": -1.4660991633,
				"element": "O" 
			},
			{
				"x": 0.6022128068,
				"y": -3.1024216017,
				"z": -3.14613554,
				"element": "C" 
			},
			{
				"x": 0.4192625749,
				"y": -4.3472357693,
				"z": -3.642523553,
				"element": "O" 
			},
			{
				"x": 1.4543906742,
				"y": -2.3476896747,
				"z": -3.5620301804,
				"element": "O" 
			},
			{
				"x": 3.022281216,
				"y": 1.5338321341,
				"z": 3.2428793881,
				"element": "H" 
			},
			{
				"x": 2.4438802517,
				"y": 0.3376958581,
				"z": 2.0773646226,
				"element": "H" 
			},
			{
				"x": 1.6404977552,
				"y": 0.4972054665,
				"z": 3.6452508767,
				"element": "H" 
			},
			{
				"x": 0.9071439304,
				"y": 2.8080520558,
				"z": 3.0531772822,
				"element": "H" 
			},
			{
				"x": 1.203173027,
				"y": 3.7050911654,
				"z": 0.7444781418,
				"element": "H" 
			},
			{
				"x": 2.7662755916,
				"y": 3.4192260573,
				"z": 1.5326913821,
				"element": "H" 
			},
			{
				"x": 2.172846527,
				"y": 2.2931089457,
				"z": 0.3054769328,
				"element": "H" 
			},
			{
				"x": 0.8084585841,
				"y": 0.2598088865,
				"z": 0.2800372744,
				"element": "H" 
			},
			{
				"x": -3.4765100381,
				"y": -0.0675449679,
				"z": 0.4798055526,
				"element": "H" 
			},
			{
				"x": -3.4944027406,
				"y": 1.6074519021,
				"z": 2.3013580738,
				"element": "H" 
			},
			{
				"x": -1.3780358091,
				"y": 2.6089542736,
				"z": 3.1184414356,
				"element": "H" 
			},
			{
				"x": 0.5876489886,
				"y": -1.9009762279,
				"z": -0.3165149127,
				"element": "H" 
			},
			{
				"x": 0.599555756,
				"y": -0.8839299915,
				"z": -1.7710962987,
				"element": "H" 
			},
			{
				"x": -0.5304796157,
				"y": -3.6873958563,
				"z": -1.4429600799,
				"element": "H" 
			},
			{
				"x": -2.4683199285,
				"y": -3.2076896226,
				"z": -2.7839024437,
				"element": "H" 
			},
			{
				"x": -1.689871208,
				"y": -1.8192955221,
				"z": -3.5555649619,
				"element": "H" 
			},
			{
				"x": 1.0716375572,
				"y": -4.4578272121,
				"z": -4.3550649193,
				"element": "H" 
			}
		],
		 "valence_orbital": [ 
			{
				"type": "occ",
				"energy": -0.29619,
				"method": "rhf"
			},
			{
				"type": "occ",
				"energy": -0.2884,
				"method": "rhf"
			},
			{
				"type": "occ",
				"energy": -0.2532,
				"method": "rhf"
			},
			{
				"type": "occ",
				"energy": -0.24005,
				"method": "rhf"
			},
			{
				"type": "occ",
				"energy": -0.21628,
				"method": "rhf"
			},
			{
				"type": "unocc",
				"energy": -0.01156,
				"method": "rhf"
			},
			{
				"type": "unocc",
				"energy": -0.0083,
				"method": "rhf"
			},
			{
				"type": "unocc",
				"energy": 0.00183,
				"method": "rhf"
			},
			{
				"type": "unocc",
				"energy": 0.04069,
				"method": "rhf"
			},
			{
				"type": "unocc",
				"energy": 0.06527,
				"method": "rhf"
			}
		],
		"cosmo_sigma_profile": { 
			"-0.025": 0.0,
			"-0.024": 0.0,
			"-0.023": 0.0,
			"-0.022": 0.0,
			"-0.021": 0.0,
			"-0.02": 0.0,
			"-0.019": 0.293502083625,
			"-0.018": 0.831799186115,
			"-0.017": 1.18997943736,
			"-0.016": 0.527474958268,
			"-0.015": 0.52583010584,
			"-0.014": 0.681699563578,
			"-0.013": 0.340617288727,
			"-0.012": 1.11927990271,
			"-0.011": 0.787207762699,
			"-0.01": 0.751129521629,
			"-0.009": 0.369924913908,
			"-0.008": 1.14908299059,
			"-0.007": 10.5507418887,
			"-0.006": 19.3206597769,
			"-0.005": 16.8847049615,
			"-0.004": 17.1348140289,
			"-0.003": 26.3659998737,
			"-0.002": 25.2714684173,
			"-0.001": 24.9931467823,
			"0.0": 23.3283451413,
			"0.001": 27.1260302363,
			"0.002": 15.3390283332,
			"0.003": 11.6385236264,
			"0.004": 12.8613219473,
			"0.005": 11.8138828783,
			"0.006": 11.304514255,
			"0.007": 5.42263625919,
			"0.008": 4.26000055917,
			"0.009": 4.26011459726,
			"0.01": 3.96257875806,
			"0.011": 6.71638676466,
			"0.012": 5.19881658962,
			"0.013": 2.97561646762,
			"0.014": 0.940332544093,
			"0.015": 0.0,
			"0.016": 0.0,
			"0.017": 0.0,
			"0.018": 0.0,
			"0.019": 0.0,
			"0.02": 0.0,
			"0.021": 0.0,
			"0.022": 0.0,
			"0.023": 0.0,
			"0.024": 0.0,
			"0.025": 0.0
		}
	}
}
