{
	 "smiles": "CC(=O)C1=C(O)C=CC2=C1C=CC=C2", 
	 "Tm": 338.15, 
	 "num_atms": 24, 
	 "gaussian": { 
		 "optdone": 1, 
		 "sigma_profile": "yes", 
		 "theory": "DFT", 
		 "functional": "B3LYP", 
		 "basiset": "6-31G**", 
		 "properties": { 
			 "R2extent": 3560.8176, 
			 "electric_dipole_moment_norm": 3.15791456978, 
			 "electric_quadrupole_moment_norm": 10.3200716034, 
			 "total_energy": -613.769813774, 
			 "HOMO_LUMO_gap": 0.14877, 
			 "cosmo_polarized_energy": -8.09, 
			 "cosmo_cavitation_energy": 26.82, 
			 "cosmo_dispersion_energy": -20.36, 
			 "cosmo_repulsion_energy": 1.55, 
			 "cosmo_total_nonelectrostatic_energy": 8.0, 
			 "SMD_solvation_energy": 5.16 
		},
		"coords": [
			{
				"x": 3.0124824383,
				"y": -1.5283322634,
				"z": -0.0528611426,
				"element": "C" 
			},
			{
				"x": 2.5905441543,
				"y": -0.8220371674,
				"z": 1.2213956126,
				"element": "C" 
			},
			{
				"x": 3.5236812292,
				"y": -0.4240663065,
				"z": 1.9527657525,
				"element": "O" 
			},
			{
				"x": 1.1927946725,
				"y": -0.6814790175,
				"z": 1.6547891659,
				"element": "C" 
			},
			{
				"x": 0.9993461263,
				"y": -0.3776364895,
				"z": 3.0284925663,
				"element": "C" 
			},
			{
				"x": 1.9953401256,
				"y": -0.0608044123,
				"z": 3.8482305021,
				"element": "O" 
			},
			{
				"x": -0.2934547764,
				"y": -0.4411421278,
				"z": 3.6215253479,
				"element": "C" 
			},
			{
				"x": -1.3814839162,
				"y": -0.7541168318,
				"z": 2.8623203976,
				"element": "C" 
			},
			{
				"x": -1.2705132617,
				"y": -0.9790546738,
				"z": 1.4580746764,
				"element": "C" 
			},
			{
				"x": 0.0185186474,
				"y": -0.9157370272,
				"z": 0.8309549463,
				"element": "C" 
			},
			{
				"x": 0.0366800523,
				"y": -1.0313247278,
				"z": -0.5845712509,
				"element": "C" 
			},
			{
				"x": -1.1158822755,
				"y": -1.2628810923,
				"z": -1.3137260569,
				"element": "C" 
			},
			{
				"x": -2.3658210848,
				"y": -1.3820775627,
				"z": -0.6786242457,
				"element": "C" 
			},
			{
				"x": -2.4329389076,
				"y": -1.2273023304,
				"z": 0.6894364648,
				"element": "C" 
			},
			{
				"x": 4.0318448332,
				"y": -1.8862896974,
				"z": 0.1019008568,
				"element": "H" 
			},
			{
				"x": 2.3567359086,
				"y": -2.360278474,
				"z": -0.316131368,
				"element": "H" 
			},
			{
				"x": 3.0334179945,
				"y": -0.8268734557,
				"z": -0.8947218087,
				"element": "H" 
			},
			{
				"x": 2.8258129774,
				"y": -0.0690097985,
				"z": 3.276237713,
				"element": "H" 
			},
			{
				"x": -0.3654389723,
				"y": -0.2383586728,
				"z": 4.6844607555,
				"element": "H" 
			},
			{
				"x": -2.3661952742,
				"y": -0.8136364781,
				"z": 3.3190970166,
				"element": "H" 
			},
			{
				"x": 0.9599304201,
				"y": -0.9028059749,
				"z": -1.1289430867,
				"element": "H" 
			},
			{
				"x": -1.0510473314,
				"y": -1.3391420469,
				"z": -2.3955246451,
				"element": "H" 
			},
			{
				"x": -3.2629838008,
				"y": -1.5691022648,
				"z": -1.260415579,
				"element": "H" 
			},
			{
				"x": -3.3890699789,
				"y": -1.2797111065,
				"z": 1.2041374095,
				"element": "H" 
			}
		],
		 "valence_orbital": [ 
			{
				"type": "occ",
				"energy": -0.3126,
				"method": "rhf"
			},
			{
				"type": "occ",
				"energy": -0.28749,
				"method": "rhf"
			},
			{
				"type": "occ",
				"energy": -0.2607,
				"method": "rhf"
			},
			{
				"type": "occ",
				"energy": -0.23865,
				"method": "rhf"
			},
			{
				"type": "occ",
				"energy": -0.21836,
				"method": "rhf"
			},
			{
				"type": "unocc",
				"energy": -0.06959,
				"method": "rhf"
			},
			{
				"type": "unocc",
				"energy": -0.0173,
				"method": "rhf"
			},
			{
				"type": "unocc",
				"energy": -0.00797,
				"method": "rhf"
			},
			{
				"type": "unocc",
				"energy": 0.04034,
				"method": "rhf"
			},
			{
				"type": "unocc",
				"energy": 0.08862,
				"method": "rhf"
			}
		],
		"cosmo_sigma_profile": { 
			"-0.025": 0.0,
			"-0.024": 0.0,
			"-0.023": 0.0,
			"-0.022": 0.0,
			"-0.021": 0.0,
			"-0.02": 0.0,
			"-0.019": 0.0,
			"-0.018": 0.0,
			"-0.017": 0.0,
			"-0.016": 0.0,
			"-0.015": 0.0,
			"-0.014": 0.0,
			"-0.013": 0.0,
			"-0.012": 0.0,
			"-0.011": 0.0,
			"-0.01": 0.0,
			"-0.009": 0.0,
			"-0.008": 1.27654722203,
			"-0.007": 8.11182978751,
			"-0.006": 11.6322070828,
			"-0.005": 16.1138461147,
			"-0.004": 17.0356381977,
			"-0.003": 16.9364670738,
			"-0.002": 17.8849211257,
			"-0.001": 16.9450146611,
			"0.0": 13.1624641834,
			"0.001": 15.3170600055,
			"0.002": 19.5482023157,
			"0.003": 18.4281917663,
			"0.004": 13.3239190289,
			"0.005": 9.91143850488,
			"0.006": 2.48035259662,
			"0.007": 3.3126697798,
			"0.008": 2.82712022205,
			"0.009": 2.73214894805,
			"0.01": 2.99003977451,
			"0.011": 3.25163611646,
			"0.012": 1.44084392833,
			"0.013": 0.410313087125,
			"0.014": 0.0,
			"0.015": 0.0,
			"0.016": 0.0,
			"0.017": 0.0,
			"0.018": 0.0,
			"0.019": 0.0,
			"0.02": 0.0,
			"0.021": 0.0,
			"0.022": 0.0,
			"0.023": 0.0,
			"0.024": 0.0,
			"0.025": 0.0
		}
	}
}
