{
	 "smiles": "NC1=NC(=CS1)C1=CC=CN1", 
	 "Tm": 430.15, 
	 "num_atms": 18, 
	 "gaussian": { 
		 "optdone": 1, 
		 "sigma_profile": "yes", 
		 "theory": "DFT", 
		 "functional": "B3LYP", 
		 "basiset": "6-31G**", 
		 "properties": { 
			 "R2extent": 2351.8175, 
			 "electric_dipole_moment_norm": 2.86306515644, 
			 "electric_quadrupole_moment_norm": 13.0229005709, 
			 "total_energy": -833.396231347, 
			 "HOMO_LUMO_gap": 0.1674, 
			 "cosmo_polarized_energy": -12.3, 
			 "cosmo_cavitation_energy": 24.06, 
			 "cosmo_dispersion_energy": -18.72, 
			 "cosmo_repulsion_energy": 1.46, 
			 "cosmo_total_nonelectrostatic_energy": 6.81, 
			 "SMD_solvation_energy": 2.97 
		},
		"coords": [
			{
				"x": 0.3319742954,
				"y": -2.6850306409,
				"z": 2.8333736513,
				"element": "N" 
			},
			{
				"x": 0.5535489456,
				"y": -1.5696457917,
				"z": 2.0561239308,
				"element": "C" 
			},
			{
				"x": -0.2374554203,
				"y": -1.1806186502,
				"z": 1.1004000393,
				"element": "N" 
			},
			{
				"x": 0.2000074225,
				"y": 0.0189487595,
				"z": 0.5428620609,
				"element": "C" 
			},
			{
				"x": 1.3454007289,
				"y": 0.5342106145,
				"z": 1.0844913752,
				"element": "C" 
			},
			{
				"x": 1.9221842276,
				"y": -0.4970922823,
				"z": 2.3724710457,
				"element": "S" 
			},
			{
				"x": -0.5893603637,
				"y": 0.5775531717,
				"z": -0.5419370337,
				"element": "C" 
			},
			{
				"x": -0.4599119049,
				"y": 1.7148629255,
				"z": -1.3286868867,
				"element": "C" 
			},
			{
				"x": -1.55122439,
				"y": 1.7334985812,
				"z": -2.2355057005,
				"element": "C" 
			},
			{
				"x": -2.319825163,
				"y": 0.6115737061,
				"z": -1.9827748546,
				"element": "C" 
			},
			{
				"x": -1.727272454,
				"y": -0.076687144,
				"z": -0.9590210795,
				"element": "N" 
			},
			{
				"x": 1.1482722312,
				"y": -3.1512754041,
				"z": 3.2026858878,
				"element": "H" 
			},
			{
				"x": -0.3509926994,
				"y": -3.3153563188,
				"z": 2.4338424696,
				"element": "H" 
			},
			{
				"x": 1.8798961179,
				"y": 1.4319821673,
				"z": 0.8140800316,
				"element": "H" 
			},
			{
				"x": 0.3321433385,
				"y": 2.4470292019,
				"z": -1.2557845418,
				"element": "H" 
			},
			{
				"x": -1.7536880149,
				"y": 2.4820829096,
				"z": -2.9885727756,
				"element": "H" 
			},
			{
				"x": -3.2285538546,
				"y": 0.2573566725,
				"z": -2.4462132004,
				"element": "H" 
			},
			{
				"x": -2.0352430429,
				"y": -0.9369924777,
				"z": -0.5319344195,
				"element": "H" 
			}
		],
		 "valence_orbital": [ 
			{
				"type": "occ",
				"energy": -0.27937,
				"method": "rhf"
			},
			{
				"type": "occ",
				"energy": -0.27915,
				"method": "rhf"
			},
			{
				"type": "occ",
				"energy": -0.236,
				"method": "rhf"
			},
			{
				"type": "occ",
				"energy": -0.22928,
				"method": "rhf"
			},
			{
				"type": "occ",
				"energy": -0.17918,
				"method": "rhf"
			},
			{
				"type": "unocc",
				"energy": -0.01178,
				"method": "rhf"
			},
			{
				"type": "unocc",
				"energy": 0.01117,
				"method": "rhf"
			},
			{
				"type": "unocc",
				"energy": 0.02871,
				"method": "rhf"
			},
			{
				"type": "unocc",
				"energy": 0.06897,
				"method": "rhf"
			},
			{
				"type": "unocc",
				"energy": 0.08067,
				"method": "rhf"
			}
		],
		"cosmo_sigma_profile": { 
			"-0.025": 0.0,
			"-0.024": 0.0,
			"-0.023": 0.0,
			"-0.022": 0.0,
			"-0.021": 0.0,
			"-0.02": 0.0,
			"-0.019": 0.0,
			"-0.018": 0.0,
			"-0.017": 0.0,
			"-0.016": 0.0,
			"-0.015": 0.352261295918,
			"-0.014": 2.40220782864,
			"-0.013": 3.73400181771,
			"-0.012": 2.53651331916,
			"-0.011": 3.55563066746,
			"-0.01": 3.84960228893,
			"-0.009": 2.93499654564,
			"-0.008": 3.49028273109,
			"-0.007": 6.33923586459,
			"-0.006": 7.46985465498,
			"-0.005": 10.2248751177,
			"-0.004": 7.62225027869,
			"-0.003": 8.22599217881,
			"-0.002": 9.78990373207,
			"-0.001": 7.76846856461,
			"0.0": 9.95606552887,
			"0.001": 10.7927386874,
			"0.002": 13.3902817165,
			"0.003": 15.0997953313,
			"0.004": 17.4047681583,
			"0.005": 15.8525786332,
			"0.006": 10.6007755392,
			"0.007": 8.14607809085,
			"0.008": 7.4104427625,
			"0.009": 3.76942795199,
			"0.01": 1.4453698069,
			"0.011": 0.556664181882,
			"0.012": 0.288174886034,
			"0.013": 0.0,
			"0.014": 0.0,
			"0.015": 0.0,
			"0.016": 0.0,
			"0.017": 0.0,
			"0.018": 0.0,
			"0.019": 0.0,
			"0.02": 0.0,
			"0.021": 0.0,
			"0.022": 0.0,
			"0.023": 0.0,
			"0.024": 0.0,
			"0.025": 0.0
		}
	}
}
