{
	 "smiles": "CC1=CSC(=O)N1CCCC(O)=O", 
	 "Tm": 371.15, 
	 "num_atms": 24, 
	 "gaussian": { 
		 "optdone": 1, 
		 "sigma_profile": "yes", 
		 "theory": "DFT", 
		 "functional": "B3LYP", 
		 "basiset": "6-31G**", 
		 "properties": { 
			 "R2extent": 2579.1075, 
			 "electric_dipole_moment_norm": 5.62050544435, 
			 "electric_quadrupole_moment_norm": 6.78572683727, 
			 "total_energy": -990.119686354, 
			 "HOMO_LUMO_gap": 0.20591, 
			 "cosmo_polarized_energy": -18.16, 
			 "cosmo_cavitation_energy": 28.47, 
			 "cosmo_dispersion_energy": -20.26, 
			 "cosmo_repulsion_energy": 1.56, 
			 "cosmo_total_nonelectrostatic_energy": 9.77, 
			 "SMD_solvation_energy": 6.29 
		},
		"coords": [
			{
				"x": -1.2236305267,
				"y": -1.3820266969,
				"z": 2.6513855501,
				"element": "C" 
			},
			{
				"x": -0.1233034973,
				"y": -0.5626844036,
				"z": 2.050687167,
				"element": "C" 
			},
			{
				"x": 1.1858203192,
				"y": -0.6497169435,
				"z": 2.3667815245,
				"element": "C" 
			},
			{
				"x": 2.1772176547,
				"y": 0.4915202456,
				"z": 1.4744142632,
				"element": "S" 
			},
			{
				"x": 0.7170605868,
				"y": 1.1340163813,
				"z": 0.6322811643,
				"element": "C" 
			},
			{
				"x": 0.6906750263,
				"y": 2.0472817033,
				"z": -0.1688413066,
				"element": "O" 
			},
			{
				"x": -0.3860950683,
				"y": 0.412020543,
				"z": 1.0740047511,
				"element": "N" 
			},
			{
				"x": -1.698514745,
				"y": 0.7878361815,
				"z": 0.5352242412,
				"element": "C" 
			},
			{
				"x": -1.9351652301,
				"y": 0.3529876859,
				"z": -0.9195295744,
				"element": "C" 
			},
			{
				"x": -2.043061251,
				"y": -1.1633510003,
				"z": -1.1396613319,
				"element": "C" 
			},
			{
				"x": -0.7008878366,
				"y": -1.8682051485,
				"z": -1.1082305018,
				"element": "C" 
			},
			{
				"x": -0.7542994732,
				"y": -3.0367852835,
				"z": -0.4182241733,
				"element": "O" 
			},
			{
				"x": 0.3086644422,
				"y": -1.4776169613,
				"z": -1.6484802123,
				"element": "O" 
			},
			{
				"x": -0.8037248609,
				"y": -2.0410457523,
				"z": 3.4145059867,
				"element": "H" 
			},
			{
				"x": -1.9846959886,
				"y": -0.7577087316,
				"z": 3.1339842259,
				"element": "H" 
			},
			{
				"x": -1.7198118517,
				"y": -2.0106680248,
				"z": 1.9044629224,
				"element": "H" 
			},
			{
				"x": 1.6219039937,
				"y": -1.322067223,
				"z": 3.0906997261,
				"element": "H" 
			},
			{
				"x": -2.4658544728,
				"y": 0.3722879219,
				"z": 1.1928287304,
				"element": "H" 
			},
			{
				"x": -1.7656771544,
				"y": 1.878577028,
				"z": 0.5865414532,
				"element": "H" 
			},
			{
				"x": -2.8711166441,
				"y": 0.821439809,
				"z": -1.2452524436,
				"element": "H" 
			},
			{
				"x": -1.1359281558,
				"y": 0.7574446078,
				"z": -1.54574948,
				"element": "H" 
			},
			{
				"x": -2.7291925943,
				"y": -1.6332540094,
				"z": -0.4286529085,
				"element": "H" 
			},
			{
				"x": -2.45225406,
				"y": -1.3471000557,
				"z": -2.1411704588,
				"element": "H" 
			},
			{
				"x": 0.1391713881,
				"y": -3.4181818729,
				"z": -0.4694093148,
				"element": "H" 
			}
		],
		 "valence_orbital": [ 
			{
				"type": "occ",
				"energy": -0.3211,
				"method": "rhf"
			},
			{
				"type": "occ",
				"energy": -0.28049,
				"method": "rhf"
			},
			{
				"type": "occ",
				"energy": -0.27732,
				"method": "rhf"
			},
			{
				"type": "occ",
				"energy": -0.26139,
				"method": "rhf"
			},
			{
				"type": "occ",
				"energy": -0.20504,
				"method": "rhf"
			},
			{
				"type": "unocc",
				"energy": 0.00087,
				"method": "rhf"
			},
			{
				"type": "unocc",
				"energy": 0.01404,
				"method": "rhf"
			},
			{
				"type": "unocc",
				"energy": 0.02321,
				"method": "rhf"
			},
			{
				"type": "unocc",
				"energy": 0.03851,
				"method": "rhf"
			},
			{
				"type": "unocc",
				"energy": 0.06626,
				"method": "rhf"
			}
		],
		"cosmo_sigma_profile": { 
			"-0.025": 0.0,
			"-0.024": 0.0,
			"-0.023": 0.0,
			"-0.022": 0.0,
			"-0.021": 0.0,
			"-0.02": 0.0,
			"-0.019": 0.0,
			"-0.018": 0.633635963666,
			"-0.017": 0.835903485848,
			"-0.016": 0.962106899206,
			"-0.015": 0.548576258386,
			"-0.014": 0.918929254021,
			"-0.013": 0.741234811126,
			"-0.012": 0.0705792934749,
			"-0.011": 0.86393263932,
			"-0.01": 0.44597621576,
			"-0.009": 1.25154494714,
			"-0.008": 3.12479176491,
			"-0.007": 8.11656128451,
			"-0.006": 14.5463476713,
			"-0.005": 18.7708286693,
			"-0.004": 19.2504363123,
			"-0.003": 16.7639651254,
			"-0.002": 16.3749200991,
			"-0.001": 15.1623590719,
			"0.0": 10.9717846021,
			"0.001": 11.375675816,
			"0.002": 13.6572109872,
			"0.003": 11.8872819516,
			"0.004": 11.2531100167,
			"0.005": 8.33713352577,
			"0.006": 6.73409369253,
			"0.007": 4.76442057161,
			"0.008": 3.55001617615,
			"0.009": 4.37671623887,
			"0.01": 3.80229936266,
			"0.011": 4.47871134323,
			"0.012": 8.30260499713,
			"0.013": 3.48478752923,
			"0.014": 0.153468880656,
			"0.015": 0.0,
			"0.016": 0.0,
			"0.017": 0.0,
			"0.018": 0.0,
			"0.019": 0.0,
			"0.02": 0.0,
			"0.021": 0.0,
			"0.022": 0.0,
			"0.023": 0.0,
			"0.024": 0.0,
			"0.025": 0.0
		}
	}
}
