{
	 "smiles": "NC1=CC(N)=C(C=C1)N=NC1=CC=C(C=C1)S(N)(=O)=O", 
	 "Tm": 523.15, 
	 "num_atms": 33, 
	 "gaussian": { 
		 "optdone": 1, 
		 "sigma_profile": "yes", 
		 "theory": "DFT", 
		 "functional": "B3LYP", 
		 "basiset": "6-31G**", 
		 "properties": { 
			 "R2extent": 11055.3254, 
			 "electric_dipole_moment_norm": 10.4344899506, 
			 "electric_quadrupole_moment_norm": 28.3562331719, 
			 "total_energy": -1287.40802314, 
			 "HOMO_LUMO_gap": 0.11603, 
			 "cosmo_polarized_energy": -29.6, 
			 "cosmo_cavitation_energy": 39.92, 
			 "cosmo_dispersion_energy": -29.59, 
			 "cosmo_repulsion_energy": 2.23, 
			 "cosmo_total_nonelectrostatic_energy": 12.56, 
			 "SMD_solvation_energy": 5.19 
		},
		"coords": [
			{
				"x": 0.769899731,
				"y": -6.0215924814,
				"z": 2.9187630999,
				"element": "N" 
			},
			{
				"x": 0.5358834795,
				"y": -4.7683367544,
				"z": 2.3906551897,
				"element": "C" 
			},
			{
				"x": 0.4454312284,
				"y": -3.647429141,
				"z": 3.2224064419,
				"element": "C" 
			},
			{
				"x": 0.254563307,
				"y": -2.3653085428,
				"z": 2.6874678258,
				"element": "C" 
			},
			{
				"x": 0.1069692292,
				"y": -1.2722195175,
				"z": 3.5021035099,
				"element": "N" 
			},
			{
				"x": 0.1633519054,
				"y": -2.2082387622,
				"z": 1.2695882388,
				"element": "C" 
			},
			{
				"x": 0.246743292,
				"y": -3.3551709759,
				"z": 0.4484037758,
				"element": "C" 
			},
			{
				"x": 0.4304945316,
				"y": -4.6093013547,
				"z": 0.9818485293,
				"element": "C" 
			},
			{
				"x": 0.0212633484,
				"y": -0.9107534742,
				"z": 0.8080539901,
				"element": "N" 
			},
			{
				"x": -0.1273669436,
				"y": -0.7691974991,
				"z": -0.4482209303,
				"element": "N" 
			},
			{
				"x": -0.2295414392,
				"y": 0.5681797439,
				"z": -0.8847838836,
				"element": "C" 
			},
			{
				"x": -0.5320431418,
				"y": 0.7348643447,
				"z": -2.2469963265,
				"element": "C" 
			},
			{
				"x": -0.6543754211,
				"y": 2.0054614207,
				"z": -2.7992082413,
				"element": "C" 
			},
			{
				"x": -0.4612320991,
				"y": 3.1232937423,
				"z": -1.982678227,
				"element": "C" 
			},
			{
				"x": -0.1653681233,
				"y": 2.9781763745,
				"z": -0.6209777261,
				"element": "C" 
			},
			{
				"x": -0.0482398263,
				"y": 1.7067643834,
				"z": -0.0757282393,
				"element": "C" 
			},
			{
				"x": -0.5654725418,
				"y": 4.7677165704,
				"z": -2.693458365,
				"element": "S" 
			},
			{
				"x": 0.9847392751,
				"y": 5.1692645414,
				"z": -3.221246815,
				"element": "N" 
			},
			{
				"x": -0.8596762389,
				"y": 5.7015676069,
				"z": -1.6072175098,
				"element": "O" 
			},
			{
				"x": -1.376838586,
				"y": 4.6753834324,
				"z": -3.9063876669,
				"element": "O" 
			},
			{
				"x": 0.5759814051,
				"y": -6.1581067632,
				"z": 3.8994972882,
				"element": "H" 
			},
			{
				"x": 0.541646278,
				"y": -6.8152434675,
				"z": 2.3391805693,
				"element": "H" 
			},
			{
				"x": 0.5114451235,
				"y": -3.7696751541,
				"z": 4.3008803969,
				"element": "H" 
			},
			{
				"x": 0.1421859233,
				"y": -0.3774605122,
				"z": 3.03524646,
				"element": "H" 
			},
			{
				"x": 0.4861629105,
				"y": -1.315387546,
				"z": 4.4346731171,
				"element": "H" 
			},
			{
				"x": 0.1701533067,
				"y": -3.2083466407,
				"z": -0.6230428909,
				"element": "H" 
			},
			{
				"x": 0.506582476,
				"y": -5.4811271839,
				"z": 0.3381218204,
				"element": "H" 
			},
			{
				"x": -0.6778284431,
				"y": -0.1556434643,
				"z": -2.8496858358,
				"element": "H" 
			},
			{
				"x": -0.915979594,
				"y": 2.1385904109,
				"z": -3.8435462725,
				"element": "H" 
			},
			{
				"x": -0.0503835613,
				"y": 3.8618623526,
				"z": -0.0016841255,
				"element": "H" 
			},
			{
				"x": 0.1793731121,
				"y": 1.5737931307,
				"z": 0.9749606282,
				"element": "H" 
			},
			{
				"x": 1.6490205797,
				"y": 5.2371307079,
				"z": -2.4562866007,
				"element": "H" 
			},
			{
				"x": 1.3086555171,
				"y": 4.5626904725,
				"z": -3.9684012248,
				"element": "H" 
			}
		],
		 "valence_orbital": [ 
			{
				"type": "occ",
				"energy": -0.26592,
				"method": "rhf"
			},
			{
				"type": "occ",
				"energy": -0.26046,
				"method": "rhf"
			},
			{
				"type": "occ",
				"energy": -0.22682,
				"method": "rhf"
			},
			{
				"type": "occ",
				"energy": -0.22469,
				"method": "rhf"
			},
			{
				"type": "occ",
				"energy": -0.19852,
				"method": "rhf"
			},
			{
				"type": "unocc",
				"energy": -0.08249,
				"method": "rhf"
			},
			{
				"type": "unocc",
				"energy": -0.01466,
				"method": "rhf"
			},
			{
				"type": "unocc",
				"energy": -0.0076,
				"method": "rhf"
			},
			{
				"type": "unocc",
				"energy": 0.00919,
				"method": "rhf"
			},
			{
				"type": "unocc",
				"energy": 0.04227,
				"method": "rhf"
			}
		],
		"cosmo_sigma_profile": { 
			"-0.025": 0.0,
			"-0.024": 0.0,
			"-0.023": 0.0,
			"-0.022": 0.0,
			"-0.021": 0.0,
			"-0.02": 0.0,
			"-0.019": 0.0,
			"-0.018": 0.0,
			"-0.017": 0.0,
			"-0.016": 0.0336859490081,
			"-0.015": 1.90339965874,
			"-0.014": 3.53587530263,
			"-0.013": 6.8393331367,
			"-0.012": 7.397926755,
			"-0.011": 6.22354542435,
			"-0.01": 8.1563728984,
			"-0.009": 7.00094371291,
			"-0.008": 7.01245710113,
			"-0.007": 10.6355063101,
			"-0.006": 14.2333971976,
			"-0.005": 13.8570342155,
			"-0.004": 12.1112995789,
			"-0.003": 12.3634385437,
			"-0.002": 12.6482202185,
			"-0.001": 11.3811928753,
			"0.0": 11.4593590826,
			"0.001": 15.318701186,
			"0.002": 26.3462871566,
			"0.003": 30.6433941237,
			"0.004": 22.8518615218,
			"0.005": 17.6112427162,
			"0.006": 9.49589252218,
			"0.007": 5.69549167695,
			"0.008": 7.93178052453,
			"0.009": 8.29511737319,
			"0.01": 8.21916485992,
			"0.011": 12.2025655938,
			"0.012": 6.58403518994,
			"0.013": 0.267953190066,
			"0.014": 0.0,
			"0.015": 0.0,
			"0.016": 0.0,
			"0.017": 0.0,
			"0.018": 0.0,
			"0.019": 0.0,
			"0.02": 0.0,
			"0.021": 0.0,
			"0.022": 0.0,
			"0.023": 0.0,
			"0.024": 0.0,
			"0.025": 0.0
		}
	}
}
