{
	 "smiles": "O=C1OC(=O)C2=NC=CC=C12", 
	 "Tm": 409.15, 
	 "num_atms": 14, 
	 "gaussian": { 
		 "optdone": 1, 
		 "sigma_profile": "yes", 
		 "theory": "DFT", 
		 "functional": "B3LYP", 
		 "basiset": "6-31G**", 
		 "properties": { 
			 "R2extent": 1459.8603, 
			 "electric_dipole_moment_norm": 5.82061439541, 
			 "electric_quadrupole_moment_norm": 6.80195757411, 
			 "total_energy": -548.973720473, 
			 "HOMO_LUMO_gap": 0.18667, 
			 "cosmo_polarized_energy": -13.57, 
			 "cosmo_cavitation_energy": 20.03, 
			 "cosmo_dispersion_energy": -14.99, 
			 "cosmo_repulsion_energy": 1.19, 
			 "cosmo_total_nonelectrostatic_energy": 6.23, 
			 "SMD_solvation_energy": 3.99 
		},
		"coords": [
			{
				"x": -2.0648527445,
				"y": -0.0840204608,
				"z": 2.0280124113,
				"element": "O" 
			},
			{
				"x": -1.2458701256,
				"y": 0.326488869,
				"z": 1.2549047216,
				"element": "C" 
			},
			{
				"x": -1.027806526,
				"y": 1.6888657595,
				"z": 1.0448775494,
				"element": "O" 
			},
			{
				"x": -0.0167928372,
				"y": 1.8929882101,
				"z": 0.0916202232,
				"element": "C" 
			},
			{
				"x": 0.3349175723,
				"y": 2.9839781023,
				"z": -0.2432609547,
				"element": "O" 
			},
			{
				"x": 0.4396882602,
				"y": 0.5303740502,
				"z": -0.3335546389,
				"element": "C" 
			},
			{
				"x": 1.3875093577,
				"y": 0.2586677291,
				"z": -1.22539909,
				"element": "N" 
			},
			{
				"x": 1.6012921514,
				"y": -1.0508798972,
				"z": -1.4221791072,
				"element": "C" 
			},
			{
				"x": 0.9052316998,
				"y": -2.0798406356,
				"z": -0.7628793949,
				"element": "C" 
			},
			{
				"x": -0.0844129272,
				"y": -1.7633721019,
				"z": 0.1682299051,
				"element": "C" 
			},
			{
				"x": -0.3064364734,
				"y": -0.4056180597,
				"z": 0.3725622864,
				"element": "C" 
			},
			{
				"x": 2.3719613832,
				"y": -1.3022583592,
				"z": -2.1472391516,
				"element": "H" 
			},
			{
				"x": 1.1474121372,
				"y": -3.1133856784,
				"z": -0.9873545889,
				"element": "H" 
			},
			{
				"x": -0.6476409278,
				"y": -2.5223875275,
				"z": 0.7014598292,
				"element": "H" 
			}
		],
		 "valence_orbital": [ 
			{
				"type": "occ",
				"energy": -0.33467,
				"method": "rhf"
			},
			{
				"type": "occ",
				"energy": -0.33145,
				"method": "rhf"
			},
			{
				"type": "occ",
				"energy": -0.30798,
				"method": "rhf"
			},
			{
				"type": "occ",
				"energy": -0.29758,
				"method": "rhf"
			},
			{
				"type": "occ",
				"energy": -0.29241,
				"method": "rhf"
			},
			{
				"type": "unocc",
				"energy": -0.10574,
				"method": "rhf"
			},
			{
				"type": "unocc",
				"energy": -0.08353,
				"method": "rhf"
			},
			{
				"type": "unocc",
				"energy": 0.00447,
				"method": "rhf"
			},
			{
				"type": "unocc",
				"energy": 0.04202,
				"method": "rhf"
			},
			{
				"type": "unocc",
				"energy": 0.07368,
				"method": "rhf"
			}
		],
		"cosmo_sigma_profile": { 
			"-0.025": 0.0,
			"-0.024": 0.0,
			"-0.023": 0.0,
			"-0.022": 0.0,
			"-0.021": 0.0,
			"-0.02": 0.0,
			"-0.019": 0.0,
			"-0.018": 0.0,
			"-0.017": 0.0,
			"-0.016": 0.0,
			"-0.015": 0.0,
			"-0.014": 0.0,
			"-0.013": 0.0,
			"-0.012": 0.0,
			"-0.011": 0.294237862932,
			"-0.01": 2.31920416531,
			"-0.009": 7.99796676031,
			"-0.008": 10.6285374141,
			"-0.007": 8.3456701567,
			"-0.006": 7.65084705233,
			"-0.005": 8.58368976188,
			"-0.004": 10.8686165498,
			"-0.003": 11.222143676,
			"-0.002": 12.3158506122,
			"-0.001": 10.7380585986,
			"0.0": 4.86778354931,
			"0.001": 4.25983550309,
			"0.002": 4.61882998943,
			"0.003": 3.38578463151,
			"0.004": 4.93611012565,
			"0.005": 5.3335651774,
			"0.006": 8.19604743324,
			"0.007": 7.25501869461,
			"0.008": 8.45486336424,
			"0.009": 12.432971806,
			"0.01": 5.43849442337,
			"0.011": 0.724735332569,
			"0.012": 1.33612142523,
			"0.013": 0.793815017077,
			"0.014": 0.227988560079,
			"0.015": 0.0,
			"0.016": 0.0,
			"0.017": 0.0,
			"0.018": 0.0,
			"0.019": 0.0,
			"0.02": 0.0,
			"0.021": 0.0,
			"0.022": 0.0,
			"0.023": 0.0,
			"0.024": 0.0,
			"0.025": 0.0
		}
	}
}
