{
	 "smiles": "OC(=O)C1=C(NC(=O)CC2=CC=C(Br)C=C2)C=CC=C1", 
	 "Tm": 486.15, 
	 "num_atms": 32, 
	 "gaussian": { 
		 "optdone": 1, 
		 "sigma_profile": "no", 
		 "theory": "DFT", 
		 "functional": "B3LYP", 
		 "basiset": "6-31G**", 
		 "properties": { 
			 "R2extent": 11422.8387, 
			 "electric_dipole_moment_norm": 4.95533796728, 
			 "electric_quadrupole_moment_norm": 7.67554568158, 
			 "total_energy": -3430.69478758, 
			 "HOMO_LUMO_gap": 0.17035, 
			 "cosmo_polarized_energy": -4659.58, 
			 "cosmo_cavitation_energy": 38.99, 
			 "cosmo_dispersion_energy": -28.09, 
			 "cosmo_repulsion_energy": 2.14, 
			 "cosmo_total_nonelectrostatic_energy": 13.04, 
			 "SMD_solvation_energy": 6.77 
		},
		"coords": [
			{
				"x": -4.827301911,
				"y": 1.3328434854,
				"z": 2.2164379988,
				"element": "O" 
			},
			{
				"x": -3.6752097134,
				"y": 1.6279407702,
				"z": 1.5714092258,
				"element": "C" 
			},
			{
				"x": -3.4463814186,
				"y": 2.7699296361,
				"z": 1.1946527844,
				"element": "O" 
			},
			{
				"x": -2.7758168717,
				"y": 0.4641528474,
				"z": 1.4078436782,
				"element": "C" 
			},
			{
				"x": -1.6007856678,
				"y": 0.5493306837,
				"z": 0.6070232864,
				"element": "C" 
			},
			{
				"x": -1.3025360346,
				"y": 1.7325279332,
				"z": -0.0701855571,
				"element": "N" 
			},
			{
				"x": -0.6156790618,
				"y": 1.9865910172,
				"z": -1.2478033308,
				"element": "C" 
			},
			{
				"x": -0.3956727211,
				"y": 3.1477164539,
				"z": -1.5651351269,
				"element": "O" 
			},
			{
				"x": -0.2203383967,
				"y": 0.8429833146,
				"z": -2.1807657043,
				"element": "C" 
			},
			{
				"x": 1.2729925596,
				"y": 0.5488450225,
				"z": -2.2061455049,
				"element": "C" 
			},
			{
				"x": 2.2169326644,
				"y": 1.584905775,
				"z": -2.2557459722,
				"element": "C" 
			},
			{
				"x": 3.5816664221,
				"y": 1.3064689054,
				"z": -2.312101013,
				"element": "C" 
			},
			{
				"x": 4.0101750162,
				"y": -0.020524897,
				"z": -2.3238353551,
				"element": "C" 
			},
			{
				"x": 5.8814507638,
				"y": -0.4072389427,
				"z": -2.401859482,
				"element": "Br" 
			},
			{
				"x": 3.0949118559,
				"y": -1.0684703293,
				"z": -2.2808937913,
				"element": "C" 
			},
			{
				"x": 1.7311299521,
				"y": -0.7744601274,
				"z": -2.2210064058,
				"element": "C" 
			},
			{
				"x": -0.7378374944,
				"y": -0.5606469949,
				"z": 0.5701392738,
				"element": "C" 
			},
			{
				"x": -1.0557487234,
				"y": -1.7361685584,
				"z": 1.2416059704,
				"element": "C" 
			},
			{
				"x": -2.2289950501,
				"y": -1.8366094332,
				"z": 1.9940337992,
				"element": "C" 
			},
			{
				"x": -3.0682822948,
				"y": -0.734195413,
				"z": 2.0816435005,
				"element": "C" 
			},
			{
				"x": -5.3123084788,
				"y": 2.1718491506,
				"z": 2.2843263572,
				"element": "H" 
			},
			{
				"x": -1.7781800007,
				"y": 2.5586971261,
				"z": 0.2920195082,
				"element": "H" 
			},
			{
				"x": -0.7808273179,
				"y": -0.0697020356,
				"z": -1.9689351001,
				"element": "H" 
			},
			{
				"x": -0.5294554133,
				"y": 1.19441578,
				"z": -3.1722161496,
				"element": "H" 
			},
			{
				"x": 1.8741999344,
				"y": 2.6144678379,
				"z": -2.2475328732,
				"element": "H" 
			},
			{
				"x": 4.3054239859,
				"y": 2.1128656372,
				"z": -2.3480930231,
				"element": "H" 
			},
			{
				"x": 3.4382382848,
				"y": -2.0966807032,
				"z": -2.2934549612,
				"element": "H" 
			},
			{
				"x": 1.0163997115,
				"y": -1.5933324293,
				"z": -2.1939508115,
				"element": "H" 
			},
			{
				"x": 0.2067199569,
				"y": -0.4836299327,
				"z": 0.0468315522,
				"element": "H" 
			},
			{
				"x": -0.3652585194,
				"y": -2.5734572197,
				"z": 1.1943840615,
				"element": "H" 
			},
			{
				"x": -2.4713026108,
				"y": -2.7529627524,
				"z": 2.5218746932,
				"element": "H" 
			},
			{
				"x": -3.9686234075,
				"y": -0.7796516076,
				"z": 2.6825344723,
				"element": "H" 
			}
		],
		 "valence_orbital": [ 
			{
				"type": "occ",
				"energy": -0.27646,
				"method": "rhf"
			},
			{
				"type": "occ",
				"energy": -0.2646,
				"method": "rhf"
			},
			{
				"type": "occ",
				"energy": -0.26127,
				"method": "rhf"
			},
			{
				"type": "occ",
				"energy": -0.23964,
				"method": "rhf"
			},
			{
				"type": "occ",
				"energy": -0.23463,
				"method": "rhf"
			},
			{
				"type": "unocc",
				"energy": -0.06428,
				"method": "rhf"
			},
			{
				"type": "unocc",
				"energy": -0.02926,
				"method": "rhf"
			},
			{
				"type": "unocc",
				"energy": -0.01782,
				"method": "rhf"
			},
			{
				"type": "unocc",
				"energy": -0.01423,
				"method": "rhf"
			},
			{
				"type": "unocc",
				"energy": 0.0076,
				"method": "rhf"
			}
		],
		"cosmo_sigma_profile": { 
			"0.0": 0.0,
			"0.0": 0.0,
			"0.0": 0.0,
			"0.0": 0.0,
			"0.0": 0.0,
			"0.0": 0.0,
			"0.0": 0.0,
			"0.0": 0.0,
			"0.0": 0.0,
			"0.0": 0.0,
			"0.0": 0.0,
			"0.0": 0.0,
			"0.0": 0.0,
			"0.0": 0.0,
			"0.0": 0.0,
			"0.0": 0.0,
			"0.0": 0.0,
			"0.0": 0.0,
			"0.0": 0.0,
			"0.0": 0.0,
			"0.0": 0.0,
			"0.0": 0.0,
			"0.0": 0.0,
			"0.0": 0.0,
			"0.0": 0.0,
			"0.0": 0.0,
			"0.0": 0.0,
			"0.0": 0.0,
			"0.0": 0.0,
			"0.0": 0.0,
			"0.0": 0.0,
			"0.0": 0.0,
			"0.0": 0.0,
			"0.0": 0.0,
			"0.0": 0.0,
			"0.0": 0.0,
			"0.0": 0.0,
			"0.0": 0.0,
			"0.0": 0.0,
			"0.0": 0.0,
			"0.0": 0.0,
			"0.0": 0.0,
			"0.0": 0.0,
			"0.0": 0.0,
			"0.0": 0.0,
			"0.0": 0.0,
			"0.0": 0.0,
			"0.0": 0.0,
			"0.0": 0.0,
			"0.0": 0.0,
			"0.0": 0.0
		}
	}
}
