{
	 "smiles": "CN1N=NC2=C1C=C(C=C2)C(O)=O", 
	 "Tm": 545.15, 
	 "num_atms": 20, 
	 "gaussian": { 
		 "optdone": 1, 
		 "sigma_profile": "yes", 
		 "theory": "DFT", 
		 "functional": "B3LYP", 
		 "basiset": "6-31G**", 
		 "properties": { 
			 "R2extent": 3013.8848, 
			 "electric_dipole_moment_norm": 1.3465907099, 
			 "electric_quadrupole_moment_norm": 31.6814169604, 
			 "total_energy": -623.745904386, 
			 "HOMO_LUMO_gap": 0.18188, 
			 "cosmo_polarized_energy": -19.07, 
			 "cosmo_cavitation_energy": 25.08, 
			 "cosmo_dispersion_energy": -18.58, 
			 "cosmo_repulsion_energy": 1.45, 
			 "cosmo_total_nonelectrostatic_energy": 7.95, 
			 "SMD_solvation_energy": 3.8 
		},
		"coords": [
			{
				"x": 1.8237779841,
				"y": -2.7920588275,
				"z": -1.6414369395,
				"element": "C" 
			},
			{
				"x": 1.0821020304,
				"y": -1.701266745,
				"z": -2.243679815,
				"element": "N" 
			},
			{
				"x": 1.2092254109,
				"y": -1.4342949827,
				"z": -3.5751289979,
				"element": "N" 
			},
			{
				"x": 0.4576638398,
				"y": -0.4296579485,
				"z": -3.8911505574,
				"element": "N" 
			},
			{
				"x": -0.1935095785,
				"y": -0.0044661494,
				"z": -2.7540123849,
				"element": "C" 
			},
			{
				"x": 0.2035849501,
				"y": -0.8235818948,
				"z": -1.6751184941,
				"element": "C" 
			},
			{
				"x": -0.2871172313,
				"y": -0.6452926558,
				"z": -0.3785478845,
				"element": "C" 
			},
			{
				"x": -1.1866847927,
				"y": 0.4009122298,
				"z": -0.1884439615,
				"element": "C" 
			},
			{
				"x": -1.6032391811,
				"y": 1.2208504741,
				"z": -1.2742275859,
				"element": "C" 
			},
			{
				"x": -1.1194857826,
				"y": 1.0316375801,
				"z": -2.5578324188,
				"element": "C" 
			},
			{
				"x": -1.7048476101,
				"y": 0.5916686486,
				"z": 1.2079922386,
				"element": "C" 
			},
			{
				"x": -2.2333563768,
				"y": 1.8073482983,
				"z": 1.5064762653,
				"element": "O" 
			},
			{
				"x": -1.6625224624,
				"y": -0.2721347821,
				"z": 2.0526600615,
				"element": "O" 
			},
			{
				"x": 2.4860417225,
				"y": -2.4190719959,
				"z": -0.8545678157,
				"element": "H" 
			},
			{
				"x": 2.4184856347,
				"y": -3.2518470988,
				"z": -2.4305728566,
				"element": "H" 
			},
			{
				"x": 1.1409991563,
				"y": -3.5345812707,
				"z": -1.2180647737,
				"element": "H" 
			},
			{
				"x": -0.0064111888,
				"y": -1.2689628046,
				"z": 0.4624365777,
				"element": "H" 
			},
			{
				"x": -2.3554621492,
				"y": 1.9882264664,
				"z": -1.112151266,
				"element": "H" 
			},
			{
				"x": -1.445692941,
				"y": 1.6472368773,
				"z": -3.388881754,
				"element": "H" 
			},
			{
				"x": -2.0501514341,
				"y": 2.4377365812,
				"z": 0.7962523625,
				"element": "H" 
			}
		],
		 "valence_orbital": [ 
			{
				"type": "occ",
				"energy": -0.32125,
				"method": "rhf"
			},
			{
				"type": "occ",
				"energy": -0.28427,
				"method": "rhf"
			},
			{
				"type": "occ",
				"energy": -0.28007,
				"method": "rhf"
			},
			{
				"type": "occ",
				"energy": -0.2699,
				"method": "rhf"
			},
			{
				"type": "occ",
				"energy": -0.25444,
				"method": "rhf"
			},
			{
				"type": "unocc",
				"energy": -0.07256,
				"method": "rhf"
			},
			{
				"type": "unocc",
				"energy": -0.03086,
				"method": "rhf"
			},
			{
				"type": "unocc",
				"energy": 0.01006,
				"method": "rhf"
			},
			{
				"type": "unocc",
				"energy": 0.05195,
				"method": "rhf"
			},
			{
				"type": "unocc",
				"energy": 0.05973,
				"method": "rhf"
			}
		],
		"cosmo_sigma_profile": { 
			"-0.025": 0.0,
			"-0.024": 0.0,
			"-0.023": 0.0,
			"-0.022": 0.0,
			"-0.021": 0.0,
			"-0.02": 0.0,
			"-0.019": 0.341898797288,
			"-0.018": 0.583312754917,
			"-0.017": 1.08288095669,
			"-0.016": 1.3148152635,
			"-0.015": 0.96652880699,
			"-0.014": 0.560615855251,
			"-0.013": 1.19269109657,
			"-0.012": 1.74695832824,
			"-0.011": 0.858036658099,
			"-0.01": 1.19891777319,
			"-0.009": 1.18455452578,
			"-0.008": 4.87468554913,
			"-0.007": 16.392655467,
			"-0.006": 12.5893770015,
			"-0.005": 12.6500378035,
			"-0.004": 13.6743941752,
			"-0.003": 11.1499593645,
			"-0.002": 10.0280637433,
			"-0.001": 9.89521160717,
			"0.0": 13.0058711119,
			"0.001": 14.0430252085,
			"0.002": 11.1556634102,
			"0.003": 5.16032757474,
			"0.004": 4.41651864406,
			"0.005": 4.22953377765,
			"0.006": 3.82422988946,
			"0.007": 5.16969930533,
			"0.008": 5.15096596853,
			"0.009": 5.97830026337,
			"0.01": 8.38665247885,
			"0.011": 7.98071687235,
			"0.012": 6.50488361934,
			"0.013": 2.67000599105,
			"0.014": 0.869442589868,
			"0.015": 0.838820288077,
			"0.016": 0.0,
			"0.017": 0.0,
			"0.018": 0.0,
			"0.019": 0.0,
			"0.02": 0.0,
			"0.021": 0.0,
			"0.022": 0.0,
			"0.023": 0.0,
			"0.024": 0.0,
			"0.025": 0.0
		}
	}
}
