{
	 "smiles": "CCOC(=O)C1=NN(C(=O)C1C=C1/C(=O)N(N=C1C(=O)OCC)C1=CC=CC=C1)C1=CC=CC=C1", 
	 "Tm": 453.15, 
	 "num_atms": 57, 
	 "gaussian": { 
		 "optdone": 1, 
		 "sigma_profile": "yes", 
		 "theory": "DFT", 
		 "functional": "B3LYP", 
		 "basiset": "6-31G**", 
		 "properties": { 
			 "R2extent": 20924.6219, 
			 "electric_dipole_moment_norm": 3.64634193268, 
			 "electric_quadrupole_moment_norm": 15.5446706189, 
			 "total_energy": -1636.23904655, 
			 "HOMO_LUMO_gap": 0.11867, 
			 "cosmo_polarized_energy": -20.21, 
			 "cosmo_cavitation_energy": 64.0, 
			 "cosmo_dispersion_energy": -42.9, 
			 "cosmo_repulsion_energy": 3.27, 
			 "cosmo_total_nonelectrostatic_energy": 24.37, 
			 "SMD_solvation_energy": 12.89 
		},
		"coords": [
			{
				"x": 0.0031599244,
				"y": -3.5325401873,
				"z": -3.1781137137,
				"element": "C" 
			},
			{
				"x": -1.2963150418,
				"y": -2.7614719589,
				"z": -3.0048572609,
				"element": "C" 
			},
			{
				"x": -1.0552440717,
				"y": -1.4468891158,
				"z": -2.4405351659,
				"element": "O" 
			},
			{
				"x": -0.7316433963,
				"y": -0.4672019977,
				"z": -3.3135981092,
				"element": "C" 
			},
			{
				"x": -0.6381606759,
				"y": -0.6023425868,
				"z": -4.5134629775,
				"element": "O" 
			},
			{
				"x": -0.5105181044,
				"y": 0.8039596607,
				"z": -2.5741379812,
				"element": "C" 
			},
			{
				"x": -0.1969849899,
				"y": 1.8749544761,
				"z": -3.2239607671,
				"element": "N" 
			},
			{
				"x": -0.0491815604,
				"y": 2.9150131809,
				"z": -2.3404910251,
				"element": "N" 
			},
			{
				"x": -0.2681721843,
				"y": 2.5273843027,
				"z": -1.0072535153,
				"element": "C" 
			},
			{
				"x": -0.1841637643,
				"y": 3.2165418629,
				"z": -0.0153402395,
				"element": "O" 
			},
			{
				"x": -0.6509688284,
				"y": 1.0302455427,
				"z": -1.0927835342,
				"element": "C" 
			},
			{
				"x": 0.2206760061,
				"y": 0.1873414904,
				"z": -0.2141207924,
				"element": "C" 
			},
			{
				"x": -0.1731793712,
				"y": -0.3267587779,
				"z": 0.9684022656,
				"element": "C" 
			},
			{
				"x": -1.5307149924,
				"y": -0.2258442772,
				"z": 1.5787839983,
				"element": "C" 
			},
			{
				"x": -2.5388739151,
				"y": 0.3194543995,
				"z": 1.1507501964,
				"element": "O" 
			},
			{
				"x": -1.405435571,
				"y": -0.935501875,
				"z": 2.7876320056,
				"element": "N" 
			},
			{
				"x": -0.1412141199,
				"y": -1.4405355291,
				"z": 2.9635618683,
				"element": "N" 
			},
			{
				"x": 0.5856668582,
				"y": -1.1114895119,
				"z": 1.9333055799,
				"element": "C" 
			},
			{
				"x": 2.0074735193,
				"y": -1.5123927524,
				"z": 1.8093922744,
				"element": "C" 
			},
			{
				"x": 2.6834201392,
				"y": -1.2413550329,
				"z": 0.8309233298,
				"element": "O" 
			},
			{
				"x": 2.4526719501,
				"y": -2.1943952981,
				"z": 2.8720245947,
				"element": "O" 
			},
			{
				"x": 3.8377454276,
				"y": -2.6165479833,
				"z": 2.8144798203,
				"element": "C" 
			},
			{
				"x": 4.1381560281,
				"y": -3.3570054604,
				"z": 4.1028951159,
				"element": "C" 
			},
			{
				"x": -2.3889032104,
				"y": -1.1763038612,
				"z": 3.790423783,
				"element": "C" 
			},
			{
				"x": -3.6808785496,
				"y": -0.6444224986,
				"z": 3.6720401205,
				"element": "C" 
			},
			{
				"x": -4.6166953223,
				"y": -0.9019194217,
				"z": 4.6742565745,
				"element": "C" 
			},
			{
				"x": -4.2854810373,
				"y": -1.6761646338,
				"z": 5.785874412,
				"element": "C" 
			},
			{
				"x": -2.9953228507,
				"y": -2.1993359461,
				"z": 5.8926025268,
				"element": "C" 
			},
			{
				"x": -2.045086583,
				"y": -1.9559556416,
				"z": 4.9041561382,
				"element": "C" 
			},
			{
				"x": 0.2964060619,
				"y": 4.2037121765,
				"z": -2.8468433081,
				"element": "C" 
			},
			{
				"x": 0.4662666437,
				"y": 5.292568652,
				"z": -1.9802491462,
				"element": "C" 
			},
			{
				"x": 0.8036789301,
				"y": 6.5374412176,
				"z": -2.5122266175,
				"element": "C" 
			},
			{
				"x": 0.9728640075,
				"y": 6.7104136496,
				"z": -3.8856049471,
				"element": "C" 
			},
			{
				"x": 0.8004837234,
				"y": 5.6177481744,
				"z": -4.737607199,
				"element": "C" 
			},
			{
				"x": 0.4632337826,
				"y": 4.365709161,
				"z": -4.2296693439,
				"element": "C" 
			},
			{
				"x": 0.5429105006,
				"y": -3.6060370104,
				"z": -2.2295547846,
				"element": "H" 
			},
			{
				"x": 0.6453325374,
				"y": -3.0447819777,
				"z": -3.9153792856,
				"element": "H" 
			},
			{
				"x": -0.2142324796,
				"y": -4.5463458769,
				"z": -3.5300637427,
				"element": "H" 
			},
			{
				"x": -1.9604577033,
				"y": -3.2443469445,
				"z": -2.284833603,
				"element": "H" 
			},
			{
				"x": -1.8164468704,
				"y": -2.6404941212,
				"z": -3.9578758206,
				"element": "H" 
			},
			{
				"x": -1.6947509727,
				"y": 0.941101878,
				"z": -0.7627354773,
				"element": "H" 
			},
			{
				"x": 1.2456663162,
				"y": 0.0091250379,
				"z": -0.5280766388,
				"element": "H" 
			},
			{
				"x": 4.468761935,
				"y": -1.7313026856,
				"z": 2.6884824426,
				"element": "H" 
			},
			{
				"x": 3.9753808225,
				"y": -3.2485702458,
				"z": 1.9315188547,
				"element": "H" 
			},
			{
				"x": 5.1792768087,
				"y": -3.6941776691,
				"z": 4.1000190637,
				"element": "H" 
			},
			{
				"x": 3.9878091969,
				"y": -2.7084475404,
				"z": 4.9703527725,
				"element": "H" 
			},
			{
				"x": 3.4920302837,
				"y": -4.2326624836,
				"z": 4.2105570068,
				"element": "H" 
			},
			{
				"x": -3.941865484,
				"y": -0.0438361645,
				"z": 2.812513213,
				"element": "H" 
			},
			{
				"x": -5.6156870323,
				"y": -0.4868134627,
				"z": 4.5774260974,
				"element": "H" 
			},
			{
				"x": -5.0219846204,
				"y": -1.8694929706,
				"z": 6.5598640726,
				"element": "H" 
			},
			{
				"x": -2.7205751746,
				"y": -2.8037230253,
				"z": 6.7522639057,
				"element": "H" 
			},
			{
				"x": -1.0435857754,
				"y": -2.3583849412,
				"z": 4.9840873769,
				"element": "H" 
			},
			{
				"x": 0.3362730453,
				"y": 5.1633892745,
				"z": -0.91531084,
				"element": "H" 
			},
			{
				"x": 0.9340131212,
				"y": 7.3778893726,
				"z": -1.8367719413,
				"element": "H" 
			},
			{
				"x": 1.2354515943,
				"y": 7.6839676163,
				"z": -4.2881959911,
				"element": "H" 
			},
			{
				"x": 0.9282213639,
				"y": 5.7353209163,
				"z": -5.8097192496,
				"element": "H" 
			},
			{
				"x": 0.328593725,
				"y": 3.5168094246,
				"z": -4.8874163915,
				"element": "H" 
			}
		],
		 "valence_orbital": [ 
			{
				"type": "occ",
				"energy": -0.26421,
				"method": "rhf"
			},
			{
				"type": "occ",
				"energy": -0.25373,
				"method": "rhf"
			},
			{
				"type": "occ",
				"energy": -0.25357,
				"method": "rhf"
			},
			{
				"type": "occ",
				"energy": -0.22649,
				"method": "rhf"
			},
			{
				"type": "occ",
				"energy": -0.22415,
				"method": "rhf"
			},
			{
				"type": "unocc",
				"energy": -0.10548,
				"method": "rhf"
			},
			{
				"type": "unocc",
				"energy": -0.07711,
				"method": "rhf"
			},
			{
				"type": "unocc",
				"energy": -0.04533,
				"method": "rhf"
			},
			{
				"type": "unocc",
				"energy": -0.02479,
				"method": "rhf"
			},
			{
				"type": "unocc",
				"energy": -0.00359,
				"method": "rhf"
			}
		],
		"cosmo_sigma_profile": { 
			"-0.025": 0.0,
			"-0.024": 0.0,
			"-0.023": 0.0,
			"-0.022": 0.0,
			"-0.021": 0.0,
			"-0.02": 0.0,
			"-0.019": 0.0,
			"-0.018": 0.0,
			"-0.017": 0.0,
			"-0.016": 0.0,
			"-0.015": 0.0,
			"-0.014": 0.0,
			"-0.013": 0.0,
			"-0.012": 0.235141666193,
			"-0.011": 0.941857348338,
			"-0.01": 2.25604453447,
			"-0.009": 3.38034538665,
			"-0.008": 2.62876544299,
			"-0.007": 3.9717225558,
			"-0.006": 23.5694999224,
			"-0.005": 37.4794781919,
			"-0.004": 58.565627597,
			"-0.003": 48.1162308848,
			"-0.002": 41.6205815842,
			"-0.001": 39.1489564985,
			"0.0": 39.8163615702,
			"0.001": 34.8700730208,
			"0.002": 33.5362301248,
			"0.003": 29.0784198172,
			"0.004": 30.9295619681,
			"0.005": 24.7385958639,
			"0.006": 8.08246701457,
			"0.007": 8.42766239131,
			"0.008": 8.19435238514,
			"0.009": 9.29970353729,
			"0.01": 11.7981229455,
			"0.011": 8.78672191608,
			"0.012": 3.21092568021,
			"0.013": 0.521217732709,
			"0.014": 0.0,
			"0.015": 0.0,
			"0.016": 0.0,
			"0.017": 0.0,
			"0.018": 0.0,
			"0.019": 0.0,
			"0.02": 0.0,
			"0.021": 0.0,
			"0.022": 0.0,
			"0.023": 0.0,
			"0.024": 0.0,
			"0.025": 0.0
		}
	}
}
