{
	 "smiles": "COC1=CC=C(C=C1)S(=O)(=O)C1=CSC(=C1)S(N)(=O)=O", 
	 "Tm": 443.15, 
	 "num_atms": 31, 
	 "gaussian": { 
		 "optdone": 1, 
		 "sigma_profile": "yes", 
		 "theory": "DFT", 
		 "functional": "B3LYP", 
		 "basiset": "6-31G**", 
		 "properties": { 
			 "R2extent": 9005.9869, 
			 "electric_dipole_moment_norm": 8.84289819912, 
			 "electric_quadrupole_moment_norm": 5.26387829457, 
			 "total_energy": -2051.05803668, 
			 "HOMO_LUMO_gap": 0.18054, 
			 "cosmo_polarized_energy": -25.82, 
			 "cosmo_cavitation_energy": 40.9, 
			 "cosmo_dispersion_energy": -30.11, 
			 "cosmo_repulsion_energy": 2.21, 
			 "cosmo_total_nonelectrostatic_energy": 13.0, 
			 "SMD_solvation_energy": 6.59 
		},
		"coords": [
			{
				"x": 3.0872794989,
				"y": 2.8218054299,
				"z": -4.0797500448,
				"element": "C" 
			},
			{
				"x": 2.3135706666,
				"y": 1.6282619376,
				"z": -4.0580557747,
				"element": "O" 
			},
			{
				"x": 2.1403032506,
				"y": 0.9852515833,
				"z": -2.8763479032,
				"element": "C" 
			},
			{
				"x": 1.3817088296,
				"y": -0.1974269763,
				"z": -2.9367969334,
				"element": "C" 
			},
			{
				"x": 1.1430013022,
				"y": -0.9324392867,
				"z": -1.7858852713,
				"element": "C" 
			},
			{
				"x": 1.6601635077,
				"y": -0.4852871627,
				"z": -0.5629952631,
				"element": "C" 
			},
			{
				"x": 2.4226025623,
				"y": 0.6800239496,
				"z": -0.494550345,
				"element": "C" 
			},
			{
				"x": 2.6657684287,
				"y": 1.421024531,
				"z": -1.6501273638,
				"element": "C" 
			},
			{
				"x": 1.3580268612,
				"y": -1.4329213398,
				"z": 0.9237865183,
				"element": "S" 
			},
			{
				"x": 1.0187004968,
				"y": -2.8037132378,
				"z": 0.5164450214,
				"element": "O" 
			},
			{
				"x": 2.441678811,
				"y": -1.1438036409,
				"z": 1.8762875115,
				"element": "O" 
			},
			{
				"x": -0.1262325585,
				"y": -0.7151676297,
				"z": 1.627538638,
				"element": "C" 
			},
			{
				"x": -0.0873052148,
				"y": 0.0813301924,
				"z": 2.742266153,
				"element": "C" 
			},
			{
				"x": -1.6641924096,
				"y": 0.5866711172,
				"z": 3.2219208597,
				"element": "S" 
			},
			{
				"x": -2.3750660347,
				"y": -0.2803512183,
				"z": 1.8858295904,
				"element": "C" 
			},
			{
				"x": -1.4435052151,
				"y": -0.9382273357,
				"z": 1.1298734226,
				"element": "C" 
			},
			{
				"x": -4.1263091321,
				"y": -0.3293555368,
				"z": 1.6075782652,
				"element": "S" 
			},
			{
				"x": -4.4561424824,
				"y": 1.2247556588,
				"z": 1.0317423174,
				"element": "N" 
			},
			{
				"x": -4.7978214659,
				"y": -0.4199108095,
				"z": 2.9034376107,
				"element": "O" 
			},
			{
				"x": -4.3396321292,
				"y": -1.3014182517,
				"z": 0.5345684855,
				"element": "O" 
			},
			{
				"x": 3.0931008673,
				"y": 3.1545668193,
				"z": -5.1181817801,
				"element": "H" 
			},
			{
				"x": 4.1178369823,
				"y": 2.6384795548,
				"z": -3.7523065037,
				"element": "H" 
			},
			{
				"x": 2.6403007767,
				"y": 3.6023256726,
				"z": -3.4518888607,
				"element": "H" 
			},
			{
				"x": 1.002308541,
				"y": -0.519518462,
				"z": -3.9005611425,
				"element": "H" 
			},
			{
				"x": 0.582496113,
				"y": -1.8601302382,
				"z": -1.8271399296,
				"element": "H" 
			},
			{
				"x": 2.8413228365,
				"y": 0.9947419803,
				"z": 0.4553723465,
				"element": "H" 
			},
			{
				"x": 3.2657170545,
				"y": 2.320531238,
				"z": -1.5876107019,
				"element": "H" 
			},
			{
				"x": 0.7903306585,
				"y": 0.3618321924,
				"z": 3.3082801333,
				"element": "H" 
			},
			{
				"x": -1.6947814782,
				"y": -1.5620510488,
				"z": 0.2819870439,
				"element": "H" 
			},
			{
				"x": -4.5684617634,
				"y": 1.2151222525,
				"z": 0.0211877288,
				"element": "H" 
			},
			{
				"x": -5.2895681614,
				"y": 1.5747980652,
				"z": 1.4977961714,
				"element": "H" 
			}
		],
		 "valence_orbital": [ 
			{
				"type": "occ",
				"energy": -0.29588,
				"method": "rhf"
			},
			{
				"type": "occ",
				"energy": -0.28701,
				"method": "rhf"
			},
			{
				"type": "occ",
				"energy": -0.27743,
				"method": "rhf"
			},
			{
				"type": "occ",
				"energy": -0.27218,
				"method": "rhf"
			},
			{
				"type": "occ",
				"energy": -0.24542,
				"method": "rhf"
			},
			{
				"type": "unocc",
				"energy": -0.06488,
				"method": "rhf"
			},
			{
				"type": "unocc",
				"energy": -0.03633,
				"method": "rhf"
			},
			{
				"type": "unocc",
				"energy": -0.02701,
				"method": "rhf"
			},
			{
				"type": "unocc",
				"energy": -0.00277,
				"method": "rhf"
			},
			{
				"type": "unocc",
				"energy": 0.00921,
				"method": "rhf"
			}
		],
		"cosmo_sigma_profile": { 
			"-0.025": 0.0,
			"-0.024": 0.0,
			"-0.023": 0.0,
			"-0.022": 0.0,
			"-0.021": 0.0,
			"-0.02": 0.0,
			"-0.019": 0.0,
			"-0.018": 0.0,
			"-0.017": 0.0,
			"-0.016": 0.196275082132,
			"-0.015": 2.21532605892,
			"-0.014": 2.64969813992,
			"-0.013": 3.06475053753,
			"-0.012": 2.43789840602,
			"-0.011": 3.15532480945,
			"-0.01": 3.38754879717,
			"-0.009": 4.08164600976,
			"-0.008": 5.87603302856,
			"-0.007": 12.9052599824,
			"-0.006": 21.331119304,
			"-0.005": 18.2726809195,
			"-0.004": 20.1786265373,
			"-0.003": 19.81966207,
			"-0.002": 17.3730322219,
			"-0.001": 26.3796888908,
			"0.0": 23.2255264646,
			"0.001": 21.3894240974,
			"0.002": 22.8801118314,
			"0.003": 15.348763443,
			"0.004": 8.52096893948,
			"0.005": 6.34039038749,
			"0.006": 7.84876523389,
			"0.007": 8.22407916632,
			"0.008": 8.23619010042,
			"0.009": 10.493981784,
			"0.01": 16.9485288509,
			"0.011": 13.8577575718,
			"0.012": 3.23571871297,
			"0.013": 0.0,
			"0.014": 0.0,
			"0.015": 0.0,
			"0.016": 0.0,
			"0.017": 0.0,
			"0.018": 0.0,
			"0.019": 0.0,
			"0.02": 0.0,
			"0.021": 0.0,
			"0.022": 0.0,
			"0.023": 0.0,
			"0.024": 0.0,
			"0.025": 0.0
		}
	}
}
