{
	 "smiles": "CCNC(=O)NC1=NC=C(S1)N(=O)=O", 
	 "Tm": 501.15, 
	 "num_atms": 22, 
	 "gaussian": { 
		 "optdone": 1, 
		 "sigma_profile": "yes", 
		 "theory": "DFT", 
		 "functional": "B3LYP", 
		 "basiset": "6-31G**", 
		 "properties": { 
			 "R2extent": 6093.8195, 
			 "electric_dipole_moment_norm": 7.63607071798, 
			 "electric_quadrupole_moment_norm": 22.167202831, 
			 "total_energy": -1076.22532001, 
			 "HOMO_LUMO_gap": 0.15501, 
			 "cosmo_polarized_energy": -24.44, 
			 "cosmo_cavitation_energy": 29.86, 
			 "cosmo_dispersion_energy": -22.1, 
			 "cosmo_repulsion_energy": 1.73, 
			 "cosmo_total_nonelectrostatic_energy": 9.48, 
			 "SMD_solvation_energy": 6.16 
		},
		"coords": [
			{
				"x": 3.1460837649,
				"y": 2.6336804537,
				"z": 0.108106706,
				"element": "C" 
			},
			{
				"x": 3.503869379,
				"y": 1.6680561367,
				"z": -1.023916536,
				"element": "C" 
			},
			{
				"x": 2.8477707076,
				"y": 0.3638088191,
				"z": -0.9135702953,
				"element": "N" 
			},
			{
				"x": 1.5523078441,
				"y": 0.2183841983,
				"z": -1.3495030983,
				"element": "C" 
			},
			{
				"x": 0.9065528058,
				"y": 1.0700603356,
				"z": -1.9207445967,
				"element": "O" 
			},
			{
				"x": 1.0737115808,
				"y": -1.1049633524,
				"z": -1.1004310515,
				"element": "N" 
			},
			{
				"x": -0.2340714469,
				"y": -1.504142623,
				"z": -1.235212394,
				"element": "C" 
			},
			{
				"x": -1.2752641509,
				"y": -0.7222426874,
				"z": -1.0878680884,
				"element": "N" 
			},
			{
				"x": -2.4269112726,
				"y": -1.4268927097,
				"z": -1.2584388926,
				"element": "C" 
			},
			{
				"x": -2.2740411089,
				"y": -2.7622232192,
				"z": -1.523642019,
				"element": "C" 
			},
			{
				"x": -0.5860250193,
				"y": -3.2011790161,
				"z": -1.6002274051,
				"element": "S" 
			},
			{
				"x": -3.2985811032,
				"y": -3.7351922045,
				"z": -1.7008923744,
				"element": "N" 
			},
			{
				"x": -2.9381101757,
				"y": -4.9005620504,
				"z": -1.9069843232,
				"element": "O" 
			},
			{
				"x": -4.467361484,
				"y": -3.3462938775,
				"z": -1.6380911815,
				"element": "O" 
			},
			{
				"x": 3.4307387536,
				"y": 2.2272569229,
				"z": 1.0850640685,
				"element": "H" 
			},
			{
				"x": 2.0710663209,
				"y": 2.8316458554,
				"z": 0.1128099488,
				"element": "H" 
			},
			{
				"x": 3.6704650789,
				"y": 3.5855882214,
				"z": -0.0247114681,
				"element": "H" 
			},
			{
				"x": 3.2045029248,
				"y": 2.088171617,
				"z": -1.9863192441,
				"element": "H" 
			},
			{
				"x": 4.5837343802,
				"y": 1.4901370542,
				"z": -1.0598147858,
				"element": "H" 
			},
			{
				"x": 3.1496461018,
				"y": -0.2323163839,
				"z": -0.1544229512,
				"element": "H" 
			},
			{
				"x": 1.7710188174,
				"y": -1.8356722199,
				"z": -1.0690481044,
				"element": "H" 
			},
			{
				"x": -3.3894026982,
				"y": -0.9393092703,
				"z": -1.1674419138,
				"element": "H" 
			}
		],
		 "valence_orbital": [ 
			{
				"type": "occ",
				"energy": -0.3016,
				"method": "rhf"
			},
			{
				"type": "occ",
				"energy": -0.29359,
				"method": "rhf"
			},
			{
				"type": "occ",
				"energy": -0.27927,
				"method": "rhf"
			},
			{
				"type": "occ",
				"energy": -0.27352,
				"method": "rhf"
			},
			{
				"type": "occ",
				"energy": -0.24957,
				"method": "rhf"
			},
			{
				"type": "unocc",
				"energy": -0.09456,
				"method": "rhf"
			},
			{
				"type": "unocc",
				"energy": -0.02737,
				"method": "rhf"
			},
			{
				"type": "unocc",
				"energy": -0.01896,
				"method": "rhf"
			},
			{
				"type": "unocc",
				"energy": 0.02716,
				"method": "rhf"
			},
			{
				"type": "unocc",
				"energy": 0.04742,
				"method": "rhf"
			}
		],
		"cosmo_sigma_profile": { 
			"-0.025": 0.0,
			"-0.024": 0.0,
			"-0.023": 0.0,
			"-0.022": 0.0,
			"-0.021": 0.0,
			"-0.02": 0.0,
			"-0.019": 0.00279560940332,
			"-0.018": 1.35322068876,
			"-0.017": 2.359193405,
			"-0.016": 1.87705884002,
			"-0.015": 2.34946020598,
			"-0.014": 2.47540489506,
			"-0.013": 2.16183198703,
			"-0.012": 1.75006913851,
			"-0.011": 1.20223631869,
			"-0.01": 3.19607834696,
			"-0.009": 4.00002476497,
			"-0.008": 2.49446844611,
			"-0.007": 3.67939368675,
			"-0.006": 4.94743928092,
			"-0.005": 9.41654901562,
			"-0.004": 14.1734356977,
			"-0.003": 20.7830286308,
			"-0.002": 23.9730785658,
			"-0.001": 21.5220592909,
			"0.0": 20.8556855797,
			"0.001": 15.2285819718,
			"0.002": 8.89683268105,
			"0.003": 5.61663246399,
			"0.004": 5.6403426987,
			"0.005": 6.20675186002,
			"0.006": 5.83169958476,
			"0.007": 9.97054805691,
			"0.008": 10.9963838408,
			"0.009": 6.16835998184,
			"0.01": 5.44748657647,
			"0.011": 2.57066110816,
			"0.012": 3.93348887704,
			"0.013": 4.18176097373,
			"0.014": 2.12060054775,
			"0.015": 1.62538794174,
			"0.016": 0.809771234775,
			"0.017": 0.0251774057382,
			"0.018": 0.0,
			"0.019": 0.0,
			"0.02": 0.0,
			"0.021": 0.0,
			"0.022": 0.0,
			"0.023": 0.0,
			"0.024": 0.0,
			"0.025": 0.0
		}
	}
}
