{
	 "smiles": "CC1=NN(CC2=CC=C(F)C=C2)C2=C1C=C(S2)C(O)=O", 
	 "Tm": 501.15, 
	 "num_atms": 31, 
	 "gaussian": { 
		 "optdone": 1, 
		 "sigma_profile": "yes", 
		 "theory": "DFT", 
		 "functional": "B3LYP", 
		 "basiset": "6-31G**", 
		 "properties": { 
			 "R2extent": 7865.5007, 
			 "electric_dipole_moment_norm": 2.03076911785, 
			 "electric_quadrupole_moment_norm": 12.8466060269, 
			 "total_energy": -1298.08320545, 
			 "HOMO_LUMO_gap": 0.17349, 
			 "cosmo_polarized_energy": -14.33, 
			 "cosmo_cavitation_energy": 38.97, 
			 "cosmo_dispersion_energy": -27.25, 
			 "cosmo_repulsion_energy": 2.04, 
			 "cosmo_total_nonelectrostatic_energy": 13.76, 
			 "SMD_solvation_energy": 6.88 
		},
		"coords": [
			{
				"x": 3.7135541055,
				"y": 0.7789237917,
				"z": -0.3632787512,
				"element": "C" 
			},
			{
				"x": 2.3229903416,
				"y": 0.6111177846,
				"z": -0.8901326137,
				"element": "C" 
			},
			{
				"x": 2.0686708269,
				"y": -0.248922566,
				"z": -1.8714933926,
				"element": "N" 
			},
			{
				"x": 0.7227988699,
				"y": -0.1617248697,
				"z": -2.1445564485,
				"element": "N" 
			},
			{
				"x": 0.1198048533,
				"y": -1.0580018947,
				"z": -3.1229551418,
				"element": "C" 
			},
			{
				"x": -0.5021686186,
				"y": -2.3001639184,
				"z": -2.5116474471,
				"element": "C" 
			},
			{
				"x": -1.8552350819,
				"y": -2.5926391215,
				"z": -2.709209445,
				"element": "C" 
			},
			{
				"x": -2.428659418,
				"y": -3.743177652,
				"z": -2.1639221346,
				"element": "C" 
			},
			{
				"x": -1.6257219299,
				"y": -4.5918926523,
				"z": -1.4134191167,
				"element": "C" 
			},
			{
				"x": -2.1681307026,
				"y": -5.7052697055,
				"z": -0.8796276927,
				"element": "F" 
			},
			{
				"x": -0.2762686199,
				"y": -4.3284177552,
				"z": -1.193592732,
				"element": "C" 
			},
			{
				"x": 0.2804600258,
				"y": -3.1792637261,
				"z": -1.7488302936,
				"element": "C" 
			},
			{
				"x": 0.133777311,
				"y": 0.7319472232,
				"z": -1.3219936807,
				"element": "C" 
			},
			{
				"x": 1.1225456806,
				"y": 1.2766984072,
				"z": -0.4931487908,
				"element": "C" 
			},
			{
				"x": 0.5870453938,
				"y": 2.2560690641,
				"z": 0.389601268,
				"element": "C" 
			},
			{
				"x": -0.7649263683,
				"y": 2.4212187423,
				"z": 0.2134053239,
				"element": "C" 
			},
			{
				"x": -1.4550556273,
				"y": 1.3738496054,
				"z": -1.0502449341,
				"element": "S" 
			},
			{
				"x": -1.6866832944,
				"y": 3.3132028499,
				"z": 0.9117992113,
				"element": "C" 
			},
			{
				"x": -1.0677980228,
				"y": 4.0660852846,
				"z": 1.8582036481,
				"element": "O" 
			},
			{
				"x": -2.8812527972,
				"y": 3.391036615,
				"z": 0.6872916757,
				"element": "O" 
			},
			{
				"x": 4.3930633057,
				"y": 0.1059208712,
				"z": -0.890148264,
				"element": "H" 
			},
			{
				"x": 4.0690283418,
				"y": 1.8066159143,
				"z": -0.4986262005,
				"element": "H" 
			},
			{
				"x": 3.7625007279,
				"y": 0.5547346562,
				"z": 0.7081959443,
				"element": "H" 
			},
			{
				"x": 0.9265331809,
				"y": -1.3187288388,
				"z": -3.8129644285,
				"element": "H" 
			},
			{
				"x": -0.6316095399,
				"y": -0.4935257325,
				"z": -3.6848051066,
				"element": "H" 
			},
			{
				"x": -2.4739604624,
				"y": -1.9185333961,
				"z": -3.2961005576,
				"element": "H" 
			},
			{
				"x": -3.4767391319,
				"y": -3.9816517346,
				"z": -2.3077090844,
				"element": "H" 
			},
			{
				"x": 0.3136360782,
				"y": -5.018574993,
				"z": -0.6001847018,
				"element": "H" 
			},
			{
				"x": 1.3298979598,
				"y": -2.95188624,
				"z": -1.584991264,
				"element": "H" 
			},
			{
				"x": 1.143810331,
				"y": 2.823289782,
				"z": 1.1254056348,
				"element": "H" 
			},
			{
				"x": -1.7662077189,
				"y": 4.6134642045,
				"z": 2.2528795162,
				"element": "H" 
			}
		],
		 "valence_orbital": [ 
			{
				"type": "occ",
				"energy": -0.27873,
				"method": "rhf"
			},
			{
				"type": "occ",
				"energy": -0.26701,
				"method": "rhf"
			},
			{
				"type": "occ",
				"energy": -0.24957,
				"method": "rhf"
			},
			{
				"type": "occ",
				"energy": -0.24037,
				"method": "rhf"
			},
			{
				"type": "occ",
				"energy": -0.22561,
				"method": "rhf"
			},
			{
				"type": "unocc",
				"energy": -0.05212,
				"method": "rhf"
			},
			{
				"type": "unocc",
				"energy": -0.01998,
				"method": "rhf"
			},
			{
				"type": "unocc",
				"energy": -0.01152,
				"method": "rhf"
			},
			{
				"type": "unocc",
				"energy": 0.01147,
				"method": "rhf"
			},
			{
				"type": "unocc",
				"energy": 0.01391,
				"method": "rhf"
			}
		],
		"cosmo_sigma_profile": { 
			"-0.025": 0.0,
			"-0.024": 0.0,
			"-0.023": 0.0,
			"-0.022": 0.0,
			"-0.021": 0.0,
			"-0.02": 0.0,
			"-0.019": 0.0139224780212,
			"-0.018": 0.903819750217,
			"-0.017": 0.834161013374,
			"-0.016": 0.692455384255,
			"-0.015": 0.951421836643,
			"-0.014": 0.86811631098,
			"-0.013": 0.583328781356,
			"-0.012": 0.42036548151,
			"-0.011": 0.666837475165,
			"-0.01": 0.952569465092,
			"-0.009": 0.825704073586,
			"-0.008": 5.64726881932,
			"-0.007": 11.601348473,
			"-0.006": 12.8928855923,
			"-0.005": 17.4518401369,
			"-0.004": 20.4457969748,
			"-0.003": 18.3347292515,
			"-0.002": 18.244154452,
			"-0.001": 23.3570281067,
			"0.0": 21.6929260049,
			"0.001": 35.1320671668,
			"0.002": 34.4739549713,
			"0.003": 25.862804671,
			"0.004": 24.2877932414,
			"0.005": 8.13736083771,
			"0.006": 3.94711670727,
			"0.007": 4.83788849311,
			"0.008": 4.42547082211,
			"0.009": 2.43176028875,
			"0.01": 2.69973064064,
			"0.011": 4.07360332199,
			"0.012": 5.15250606163,
			"0.013": 1.07531613734,
			"0.014": 0.487528247021,
			"0.015": 0.0929155612039,
			"0.016": 0.0,
			"0.017": 0.0,
			"0.018": 0.0,
			"0.019": 0.0,
			"0.02": 0.0,
			"0.021": 0.0,
			"0.022": 0.0,
			"0.023": 0.0,
			"0.024": 0.0,
			"0.025": 0.0
		}
	}
}
