{
	 "smiles": "CC(C)OC1=C(N)C=C(C=C1)S(=O)(=O)N1CCOCC1", 
	 "Tm": 423.15, 
	 "num_atms": 40, 
	 "gaussian": { 
		 "optdone": 1, 
		 "sigma_profile": "yes", 
		 "theory": "DFT", 
		 "functional": "B3LYP", 
		 "basiset": "6-31G**", 
		 "properties": { 
			 "R2extent": 7984.8151, 
			 "electric_dipole_moment_norm": 6.36356580386, 
			 "electric_quadrupole_moment_norm": 27.7817279059, 
			 "total_energy": -1315.9476487, 
			 "HOMO_LUMO_gap": 0.18737, 
			 "cosmo_polarized_energy": -19.83, 
			 "cosmo_cavitation_energy": 42.19, 
			 "cosmo_dispersion_energy": -30.31, 
			 "cosmo_repulsion_energy": 2.32, 
			 "cosmo_total_nonelectrostatic_energy": 14.21, 
			 "SMD_solvation_energy": 5.19 
		},
		"coords": [
			{
				"x": 2.0334819559,
				"y": -5.6114312218,
				"z": -0.8574664971,
				"element": "C" 
			},
			{
				"x": 0.9304031942,
				"y": -4.5742618542,
				"z": -0.6828074341,
				"element": "C" 
			},
			{
				"x": 0.071149453,
				"y": -4.8285999551,
				"z": 0.5551898905,
				"element": "C" 
			},
			{
				"x": 1.6040430853,
				"y": -3.3030053247,
				"z": -0.5752682313,
				"element": "O" 
			},
			{
				"x": 0.9477670248,
				"y": -2.134743568,
				"z": -0.8426628593,
				"element": "C" 
			},
			{
				"x": 1.7540913244,
				"y": -0.9757939771,
				"z": -0.6759720318,
				"element": "C" 
			},
			{
				"x": 3.0521556967,
				"y": -1.1208870603,
				"z": -0.2027592911,
				"element": "N" 
			},
			{
				"x": 1.1967947409,
				"y": 0.2724595304,
				"z": -0.9573483027,
				"element": "C" 
			},
			{
				"x": -0.1303850683,
				"y": 0.3693384949,
				"z": -1.392202208,
				"element": "C" 
			},
			{
				"x": -0.9223057628,
				"y": -0.7638592623,
				"z": -1.55630578,
				"element": "C" 
			},
			{
				"x": -0.3713805298,
				"y": -2.0196754091,
				"z": -1.2794963864,
				"element": "C" 
			},
			{
				"x": -0.8301559507,
				"y": 1.9896270134,
				"z": -1.6929696467,
				"element": "S" 
			},
			{
				"x": 0.2773050916,
				"y": 2.9089772193,
				"z": -1.9704784234,
				"element": "O" 
			},
			{
				"x": -1.9579157839,
				"y": 1.8254241588,
				"z": -2.6138991465,
				"element": "O" 
			},
			{
				"x": -1.5080749461,
				"y": 2.5208747779,
				"z": -0.2321890254,
				"element": "N" 
			},
			{
				"x": -0.5726262671,
				"y": 2.8486002451,
				"z": 0.8545010453,
				"element": "C" 
			},
			{
				"x": -1.3318699009,
				"y": 3.6535630204,
				"z": 1.9097760815,
				"element": "C" 
			},
			{
				"x": -2.4693342591,
				"y": 2.9457994024,
				"z": 2.3827223902,
				"element": "O" 
			},
			{
				"x": -3.3706822888,
				"y": 2.667225383,
				"z": 1.3205501135,
				"element": "C" 
			},
			{
				"x": -2.7099397427,
				"y": 1.8148275522,
				"z": 0.2366902562,
				"element": "C" 
			},
			{
				"x": 1.6009440231,
				"y": -6.6108147219,
				"z": -0.9625179657,
				"element": "H" 
			},
			{
				"x": 2.6973157244,
				"y": -5.6129486689,
				"z": 0.0128700189,
				"element": "H" 
			},
			{
				"x": 2.6294702992,
				"y": -5.3958274134,
				"z": -1.7483670391,
				"element": "H" 
			},
			{
				"x": 0.3050985626,
				"y": -4.5638124445,
				"z": -1.5850900309,
				"element": "H" 
			},
			{
				"x": -0.6804798329,
				"y": -4.0470873219,
				"z": 0.6918672364,
				"element": "H" 
			},
			{
				"x": -0.4467839415,
				"y": -5.7889629803,
				"z": 0.4665976518,
				"element": "H" 
			},
			{
				"x": 0.7011410264,
				"y": -4.8564715088,
				"z": 1.4496247478,
				"element": "H" 
			},
			{
				"x": 3.4366721312,
				"y": -2.0470437549,
				"z": -0.3253496805,
				"element": "H" 
			},
			{
				"x": 3.6912584267,
				"y": -0.3802382352,
				"z": -0.4536302438,
				"element": "H" 
			},
			{
				"x": 1.8010937463,
				"y": 1.1694388003,
				"z": -0.8704243535,
				"element": "H" 
			},
			{
				"x": -1.9371362718,
				"y": -0.6742982742,
				"z": -1.9247050697,
				"element": "H" 
			},
			{
				"x": -0.9822498084,
				"y": -2.903196465,
				"z": -1.4190473268,
				"element": "H" 
			},
			{
				"x": 0.2452682461,
				"y": 3.4427531268,
				"z": 0.442090478,
				"element": "H" 
			},
			{
				"x": -0.1599286755,
				"y": 1.9371244012,
				"z": 1.3160747318,
				"element": "H" 
			},
			{
				"x": -1.6340215418,
				"y": 4.6225135063,
				"z": 1.4821537773,
				"element": "H" 
			},
			{
				"x": -0.6914795278,
				"y": 3.8344713866,
				"z": 2.7778226026,
				"element": "H" 
			},
			{
				"x": -3.7382273265,
				"y": 3.604516372,
				"z": 0.8740029397,
				"element": "H" 
			},
			{
				"x": -4.2161467352,
				"y": 2.1294482987,
				"z": 1.7591606701,
				"element": "H" 
			},
			{
				"x": -2.4564005945,
				"y": 0.8259230139,
				"z": 0.6516606155,
				"element": "H" 
			},
			{
				"x": -3.3888289968,
				"y": 1.6845537179,
				"z": -0.6083982733,
				"element": "H" 
			}
		],
		 "valence_orbital": [ 
			{
				"type": "occ",
				"energy": -0.29069,
				"method": "rhf"
			},
			{
				"type": "occ",
				"energy": -0.27073,
				"method": "rhf"
			},
			{
				"type": "occ",
				"energy": -0.25105,
				"method": "rhf"
			},
			{
				"type": "occ",
				"energy": -0.24043,
				"method": "rhf"
			},
			{
				"type": "occ",
				"energy": -0.20575,
				"method": "rhf"
			},
			{
				"type": "unocc",
				"energy": -0.01838,
				"method": "rhf"
			},
			{
				"type": "unocc",
				"energy": -0.00314,
				"method": "rhf"
			},
			{
				"type": "unocc",
				"energy": 0.06365,
				"method": "rhf"
			},
			{
				"type": "unocc",
				"energy": 0.07503,
				"method": "rhf"
			},
			{
				"type": "unocc",
				"energy": 0.08164,
				"method": "rhf"
			}
		],
		"cosmo_sigma_profile": { 
			"-0.025": 0.0,
			"-0.024": 0.0,
			"-0.023": 0.0,
			"-0.022": 0.0,
			"-0.021": 0.0,
			"-0.02": 0.0,
			"-0.019": 0.0,
			"-0.018": 0.0,
			"-0.017": 0.0,
			"-0.016": 0.0,
			"-0.015": 0.0,
			"-0.014": 0.0,
			"-0.013": 0.695181821293,
			"-0.012": 1.93479663395,
			"-0.011": 1.88833480564,
			"-0.01": 2.04778967967,
			"-0.009": 3.18093532312,
			"-0.008": 2.79142685041,
			"-0.007": 5.01417003634,
			"-0.006": 13.8503356503,
			"-0.005": 21.2019315952,
			"-0.004": 39.1190558242,
			"-0.003": 38.4534596243,
			"-0.002": 28.8382270689,
			"-0.001": 22.2881772187,
			"0.0": 25.250008225,
			"0.001": 17.3329023736,
			"0.002": 13.6620607652,
			"0.003": 16.960730351,
			"0.004": 14.3687781363,
			"0.005": 7.36541572139,
			"0.006": 7.80117628225,
			"0.007": 7.12302347487,
			"0.008": 5.89088326768,
			"0.009": 5.95095673208,
			"0.01": 7.32865918724,
			"0.011": 9.47464701628,
			"0.012": 8.48899403746,
			"0.013": 2.22607641575,
			"0.014": 0.337859854887,
			"0.015": 0.0,
			"0.016": 0.0,
			"0.017": 0.0,
			"0.018": 0.0,
			"0.019": 0.0,
			"0.02": 0.0,
			"0.021": 0.0,
			"0.022": 0.0,
			"0.023": 0.0,
			"0.024": 0.0,
			"0.025": 0.0
		}
	}
}
