{
	 "smiles": "CC(C)(C)OC(=O)NC1=C(C=CC=C1)C(O)=O", 
	 "Tm": 428.15, 
	 "num_atms": 32, 
	 "gaussian": { 
		 "optdone": 1, 
		 "sigma_profile": "yes", 
		 "theory": "DFT", 
		 "functional": "B3LYP", 
		 "basiset": "6-31G**", 
		 "properties": { 
			 "R2extent": 4944.2081, 
			 "electric_dipole_moment_norm": 6.74537721629, 
			 "electric_quadrupole_moment_norm": 20.8701828933, 
			 "total_energy": -822.012538884, 
			 "HOMO_LUMO_gap": 0.21278, 
			 "cosmo_polarized_energy": -19.56, 
			 "cosmo_cavitation_energy": 35.36, 
			 "cosmo_dispersion_energy": -24.51, 
			 "cosmo_repulsion_energy": 1.92, 
			 "cosmo_total_nonelectrostatic_energy": 12.76, 
			 "SMD_solvation_energy": 8.36 
		},
		"coords": [
			{
				"x": -0.7569741852,
				"y": -2.8728609262,
				"z": 1.7579944838,
				"element": "C" 
			},
			{
				"x": -1.8218234174,
				"y": -2.0750785192,
				"z": 1.0004050098,
				"element": "C" 
			},
			{
				"x": -2.9034170363,
				"y": -2.9982151378,
				"z": 0.4365498878,
				"element": "C" 
			},
			{
				"x": -2.4369241673,
				"y": -0.9615370702,
				"z": 1.8521528037,
				"element": "C" 
			},
			{
				"x": -1.2292079379,
				"y": -1.4936763889,
				"z": -0.2278674243,
				"element": "O" 
			},
			{
				"x": -0.2338584638,
				"y": -0.5939929672,
				"z": -0.152682,
				"element": "C" 
			},
			{
				"x": 0.326834615,
				"y": -0.1819949048,
				"z": 0.837625038,
				"element": "O" 
			},
			{
				"x": 0.0474215427,
				"y": -0.1393829501,
				"z": -1.4577379168,
				"element": "N" 
			},
			{
				"x": 1.3182026857,
				"y": 0.4780411628,
				"z": -1.7292863857,
				"element": "C" 
			},
			{
				"x": 1.5568127058,
				"y": 1.8225077057,
				"z": -1.3890151255,
				"element": "C" 
			},
			{
				"x": 2.823886977,
				"y": 2.3625266373,
				"z": -1.6495643902,
				"element": "C" 
			},
			{
				"x": 3.8164447375,
				"y": 1.6109889265,
				"z": -2.2705565041,
				"element": "C" 
			},
			{
				"x": 3.5574930782,
				"y": 0.2882237846,
				"z": -2.6346155392,
				"element": "C" 
			},
			{
				"x": 2.3155206786,
				"y": -0.2768831919,
				"z": -2.3522584039,
				"element": "C" 
			},
			{
				"x": 0.5427452185,
				"y": 2.7741607234,
				"z": -0.7957884403,
				"element": "C" 
			},
			{
				"x": -0.7563138903,
				"y": 2.4276843119,
				"z": -0.8796889403,
				"element": "O" 
			},
			{
				"x": 0.869484801,
				"y": 3.8365223482,
				"z": -0.3165107922,
				"element": "O" 
			},
			{
				"x": -1.2235397319,
				"y": -3.3925088692,
				"z": 2.6008455455,
				"element": "H" 
			},
			{
				"x": -0.3060437559,
				"y": -3.6258893453,
				"z": 1.1039283348,
				"element": "H" 
			},
			{
				"x": 0.0270443276,
				"y": -2.2189919839,
				"z": 2.1407971704,
				"element": "H" 
			},
			{
				"x": -3.6348251243,
				"y": -2.4290140905,
				"z": -0.1442145356,
				"element": "H" 
			},
			{
				"x": -3.4271560889,
				"y": -3.5008129408,
				"z": 1.2547349383,
				"element": "H" 
			},
			{
				"x": -2.4632929158,
				"y": -3.7611610342,
				"z": -0.2121889177,
				"element": "H" 
			},
			{
				"x": -1.6706960608,
				"y": -0.2880919929,
				"z": 2.2372337683,
				"element": "H" 
			},
			{
				"x": -2.9711457048,
				"y": -1.4050925665,
				"z": 2.6983132105,
				"element": "H" 
			},
			{
				"x": -3.1551809643,
				"y": -0.3822348064,
				"z": 1.2638595814,
				"element": "H" 
			},
			{
				"x": -0.2883265984,
				"y": -0.7733416061,
				"z": -2.1739150081,
				"element": "H" 
			},
			{
				"x": 2.9944566843,
				"y": 3.3935319768,
				"z": -1.3602813926,
				"element": "H" 
			},
			{
				"x": 4.7862568008,
				"y": 2.054560859,
				"z": -2.4736316562,
				"element": "H" 
			},
			{
				"x": 4.3222732915,
				"y": -0.3083034438,
				"z": -3.1229166042,
				"element": "H" 
			},
			{
				"x": 2.1158508488,
				"y": -1.3158485365,
				"z": -2.6007221678,
				"element": "H" 
			},
			{
				"x": -0.8254029498,
				"y": 1.5344648362,
				"z": -1.2708976276,
				"element": "H" 
			}
		],
		 "valence_orbital": [ 
			{
				"type": "occ",
				"energy": -0.29947,
				"method": "rhf"
			},
			{
				"type": "occ",
				"energy": -0.28707,
				"method": "rhf"
			},
			{
				"type": "occ",
				"energy": -0.26827,
				"method": "rhf"
			},
			{
				"type": "occ",
				"energy": -0.25913,
				"method": "rhf"
			},
			{
				"type": "occ",
				"energy": -0.25827,
				"method": "rhf"
			},
			{
				"type": "unocc",
				"energy": -0.04549,
				"method": "rhf"
			},
			{
				"type": "unocc",
				"energy": -0.02192,
				"method": "rhf"
			},
			{
				"type": "unocc",
				"energy": 0.02536,
				"method": "rhf"
			},
			{
				"type": "unocc",
				"energy": 0.05851,
				"method": "rhf"
			},
			{
				"type": "unocc",
				"energy": 0.06861,
				"method": "rhf"
			}
		],
		"cosmo_sigma_profile": { 
			"-0.025": 0.0,
			"-0.024": 0.0,
			"-0.023": 0.0,
			"-0.022": 0.0,
			"-0.021": 0.0,
			"-0.02": 0.0,
			"-0.019": 0.0,
			"-0.018": 0.0,
			"-0.017": 0.0,
			"-0.016": 0.121066421259,
			"-0.015": 0.94156152527,
			"-0.014": 1.45455766594,
			"-0.013": 0.423526406858,
			"-0.012": 1.60166985631,
			"-0.011": 1.59154921244,
			"-0.01": 2.57645362274,
			"-0.009": 2.81179374657,
			"-0.008": 3.81068791446,
			"-0.007": 7.30502724292,
			"-0.006": 10.153537371,
			"-0.005": 13.7045062518,
			"-0.004": 21.6773628907,
			"-0.003": 24.6731021738,
			"-0.002": 22.6695072134,
			"-0.001": 24.325222152,
			"0.0": 31.5348760523,
			"0.001": 18.2501955835,
			"0.002": 15.339200712,
			"0.003": 16.0750320784,
			"0.004": 9.41922074768,
			"0.005": 6.53524884979,
			"0.006": 5.51493450596,
			"0.007": 4.71058899436,
			"0.008": 3.9293751049,
			"0.009": 5.39796525081,
			"0.01": 5.40057495479,
			"0.011": 8.39280472031,
			"0.012": 6.71492982888,
			"0.013": 1.96301966212,
			"0.014": 0.281792015767,
			"0.015": 0.0,
			"0.016": 0.0,
			"0.017": 0.0,
			"0.018": 0.0,
			"0.019": 0.0,
			"0.02": 0.0,
			"0.021": 0.0,
			"0.022": 0.0,
			"0.023": 0.0,
			"0.024": 0.0,
			"0.025": 0.0
		}
	}
}
