{
	 "smiles": "CC(C)C(=O)N1CCCCC1C(O)=O", 
	 "Tm": 397.15, 
	 "num_atms": 31, 
	 "gaussian": { 
		 "optdone": 1, 
		 "sigma_profile": "yes", 
		 "theory": "DFT", 
		 "functional": "B3LYP", 
		 "basiset": "6-31G**", 
		 "properties": { 
			 "R2extent": 3085.0165, 
			 "electric_dipole_moment_norm": 7.25525063661, 
			 "electric_quadrupole_moment_norm": 20.0822063098, 
			 "total_energy": -671.764781681, 
			 "HOMO_LUMO_gap": 0.23784, 
			 "cosmo_polarized_energy": -15.7, 
			 "cosmo_cavitation_energy": 31.13, 
			 "cosmo_dispersion_energy": -22.15, 
			 "cosmo_repulsion_energy": 1.75, 
			 "cosmo_total_nonelectrostatic_energy": 10.72, 
			 "SMD_solvation_energy": 5.64 
		},
		"coords": [
			{
				"x": -1.2810100224,
				"y": 1.590613483,
				"z": -2.1720967306,
				"element": "C" 
			},
			{
				"x": -1.0426161988,
				"y": 0.1711396632,
				"z": -1.6139690722,
				"element": "C" 
			},
			{
				"x": -2.2821052373,
				"y": -0.7128114617,
				"z": -1.7969638236,
				"element": "C" 
			},
			{
				"x": -0.6625589774,
				"y": 0.2559089381,
				"z": -0.1280358163,
				"element": "C" 
			},
			{
				"x": -1.5093337108,
				"y": -0.0867688298,
				"z": 0.7176271011,
				"element": "O" 
			},
			{
				"x": 0.5464788248,
				"y": 0.7697856557,
				"z": 0.2345370143,
				"element": "N" 
			},
			{
				"x": 1.7074783973,
				"y": 0.847313265,
				"z": -0.6768225355,
				"element": "C" 
			},
			{
				"x": 2.8439063415,
				"y": -0.105523925,
				"z": -0.1995156803,
				"element": "C" 
			},
			{
				"x": 2.286495487,
				"y": -1.2226426519,
				"z": 0.6981539786,
				"element": "C" 
			},
			{
				"x": 1.6011586906,
				"y": -0.6387685824,
				"z": 1.9578349912,
				"element": "C" 
			},
			{
				"x": 1.0476996821,
				"y": 0.771397188,
				"z": 1.6398020645,
				"element": "C" 
			},
			{
				"x": 0.2232865134,
				"y": 1.3516853221,
				"z": 2.8178526271,
				"element": "C" 
			},
			{
				"x": -1.0647015161,
				"y": 1.0700903383,
				"z": 2.9272054473,
				"element": "O" 
			},
			{
				"x": 0.832039907,
				"y": 1.9882258535,
				"z": 3.6533623544,
				"element": "O" 
			},
			{
				"x": -0.3910730116,
				"y": 2.2223208753,
				"z": -2.1012005996,
				"element": "H" 
			},
			{
				"x": -1.57566728,
				"y": 1.5353049678,
				"z": -3.2245106427,
				"element": "H" 
			},
			{
				"x": -2.0881636912,
				"y": 2.0840961717,
				"z": -1.6212316647,
				"element": "H" 
			},
			{
				"x": -0.2202371357,
				"y": -0.2880423505,
				"z": -2.1744739286,
				"element": "H" 
			},
			{
				"x": -2.1143664117,
				"y": -1.7217450172,
				"z": -1.4113249661,
				"element": "H" 
			},
			{
				"x": -3.1403238066,
				"y": -0.2963891423,
				"z": -1.2651916738,
				"element": "H" 
			},
			{
				"x": -2.5281122546,
				"y": -0.7856302077,
				"z": -2.861005173,
				"element": "H" 
			},
			{
				"x": 2.0623460013,
				"y": 1.8840824584,
				"z": -0.7102546632,
				"element": "H" 
			},
			{
				"x": 1.3923658706,
				"y": 0.5822040539,
				"z": -1.6829118607,
				"element": "H" 
			},
			{
				"x": 3.3508226883,
				"y": -0.5273198929,
				"z": -1.0733787058,
				"element": "H" 
			},
			{
				"x": 3.6012986284,
				"y": 0.4621850297,
				"z": 0.35251681,
				"element": "H" 
			},
			{
				"x": 3.0864974485,
				"y": -1.912250391,
				"z": 0.9849003091,
				"element": "H" 
			},
			{
				"x": 1.5619128652,
				"y": -1.8141792083,
				"z": 0.125787441,
				"element": "H" 
			},
			{
				"x": 0.7910259294,
				"y": -1.2950596801,
				"z": 2.2906513149,
				"element": "H" 
			},
			{
				"x": 2.3062286809,
				"y": -0.5428611301,
				"z": 2.7896245019,
				"element": "H" 
			},
			{
				"x": 1.8903779929,
				"y": 1.4639680461,
				"z": 1.6162930503,
				"element": "H" 
			},
			{
				"x": -1.351550695,
				"y": 0.5404711609,
				"z": 2.1254385311,
				"element": "H" 
			}
		],
		 "valence_orbital": [ 
			{
				"type": "occ",
				"energy": -0.33832,
				"method": "rhf"
			},
			{
				"type": "occ",
				"energy": -0.28609,
				"method": "rhf"
			},
			{
				"type": "occ",
				"energy": -0.27622,
				"method": "rhf"
			},
			{
				"type": "occ",
				"energy": -0.27053,
				"method": "rhf"
			},
			{
				"type": "occ",
				"energy": -0.244,
				"method": "rhf"
			},
			{
				"type": "unocc",
				"energy": -0.00616,
				"method": "rhf"
			},
			{
				"type": "unocc",
				"energy": 0.02419,
				"method": "rhf"
			},
			{
				"type": "unocc",
				"energy": 0.05411,
				"method": "rhf"
			},
			{
				"type": "unocc",
				"energy": 0.07826,
				"method": "rhf"
			},
			{
				"type": "unocc",
				"energy": 0.09418,
				"method": "rhf"
			}
		],
		"cosmo_sigma_profile": { 
			"-0.025": 0.0,
			"-0.024": 0.0,
			"-0.023": 0.0,
			"-0.022": 0.0,
			"-0.021": 0.0,
			"-0.02": 0.0,
			"-0.019": 0.0,
			"-0.018": 0.0,
			"-0.017": 0.0,
			"-0.016": 0.0,
			"-0.015": 0.0,
			"-0.014": 0.0,
			"-0.013": 0.0,
			"-0.012": 0.0,
			"-0.011": 0.0,
			"-0.01": 0.0,
			"-0.009": 0.00284186797252,
			"-0.008": 1.05211675758,
			"-0.007": 4.8376796834,
			"-0.006": 7.10774928249,
			"-0.005": 11.9473385937,
			"-0.004": 27.1224672569,
			"-0.003": 37.0967804864,
			"-0.002": 34.0202791951,
			"-0.001": 27.2689012626,
			"0.0": 24.8045567129,
			"0.001": 12.9500647006,
			"0.002": 4.70626534781,
			"0.003": 3.97126393029,
			"0.004": 3.02297382799,
			"0.005": 3.86207622725,
			"0.006": 2.64583469986,
			"0.007": 3.45446275285,
			"0.008": 4.03815789586,
			"0.009": 4.06928227179,
			"0.01": 3.87534221091,
			"0.011": 6.21274466457,
			"0.012": 7.30296646813,
			"0.013": 5.05720519941,
			"0.014": 1.50616389358,
			"0.015": 0.0767087251019,
			"0.016": 0.0,
			"0.017": 0.0,
			"0.018": 0.0,
			"0.019": 0.0,
			"0.02": 0.0,
			"0.021": 0.0,
			"0.022": 0.0,
			"0.023": 0.0,
			"0.024": 0.0,
			"0.025": 0.0
		}
	}
}
