{
	 "smiles": "CN1CC(=O)N(CC(O)=O)C1=O", 
	 "Tm": 413.15, 
	 "num_atms": 20, 
	 "gaussian": { 
		 "optdone": 1, 
		 "sigma_profile": "yes", 
		 "theory": "DFT", 
		 "functional": "B3LYP", 
		 "basiset": "6-31G**", 
		 "properties": { 
			 "R2extent": 2377.9835, 
			 "electric_dipole_moment_norm": 1.45705465237, 
			 "electric_quadrupole_moment_norm": 20.0357587628, 
			 "total_energy": -643.907658152, 
			 "HOMO_LUMO_gap": 0.24356, 
			 "cosmo_polarized_energy": -18.11, 
			 "cosmo_cavitation_energy": 25.12, 
			 "cosmo_dispersion_energy": -17.83, 
			 "cosmo_repulsion_energy": 1.46, 
			 "cosmo_total_nonelectrostatic_energy": 8.75, 
			 "SMD_solvation_energy": 6.77 
		},
		"coords": [
			{
				"x": 1.1852454116,
				"y": 2.1469127885,
				"z": -0.8772008494,
				"element": "C" 
			},
			{
				"x": 0.2785227957,
				"y": 1.0726913131,
				"z": -0.5370894559,
				"element": "N" 
			},
			{
				"x": -0.6132630016,
				"y": 1.0806018607,
				"z": 0.6053719946,
				"element": "C" 
			},
			{
				"x": -1.2671782411,
				"y": -0.3016244684,
				"z": 0.5462618796,
				"element": "C" 
			},
			{
				"x": -2.0883067378,
				"y": -0.7698234835,
				"z": 1.3065325109,
				"element": "O" 
			},
			{
				"x": -0.737843461,
				"y": -0.9141952097,
				"z": -0.5725515513,
				"element": "N" 
			},
			{
				"x": -0.9523165374,
				"y": -2.2935510469,
				"z": -0.9166124929,
				"element": "C" 
			},
			{
				"x": 0.0061333756,
				"y": -3.2122455602,
				"z": -0.1653139858,
				"element": "C" 
			},
			{
				"x": -0.21350893,
				"y": -4.4992764432,
				"z": -0.5075689471,
				"element": "O" 
			},
			{
				"x": 0.8460904488,
				"y": -2.8557833811,
				"z": 0.625189406,
				"element": "O" 
			},
			{
				"x": 0.2386075337,
				"y": -0.1150955677,
				"z": -1.2172022037,
				"element": "C" 
			},
			{
				"x": 0.8774148686,
				"y": -0.4526623691,
				"z": -2.1960213721,
				"element": "O" 
			},
			{
				"x": 1.7445412926,
				"y": 1.8412526768,
				"z": -1.7624711155,
				"element": "H" 
			},
			{
				"x": 0.6377723297,
				"y": 3.0705883583,
				"z": -1.0996383772,
				"element": "H" 
			},
			{
				"x": 1.8891847169,
				"y": 2.3443095876,
				"z": -0.0593921069,
				"element": "H" 
			},
			{
				"x": -1.3779598033,
				"y": 1.8657261986,
				"z": 0.5431614725,
				"element": "H" 
			},
			{
				"x": -0.0802398066,
				"y": 1.197563209,
				"z": 1.558054891,
				"element": "H" 
			},
			{
				"x": -0.7987170492,
				"y": -2.4219523584,
				"z": -1.9910451787,
				"element": "H" 
			},
			{
				"x": -1.979952262,
				"y": -2.571919099,
				"z": -0.6682766309,
				"element": "H" 
			},
			{
				"x": 0.4217730565,
				"y": -5.0339170055,
				"z": -0.0022878873,
				"element": "H" 
			}
		],
		 "valence_orbital": [ 
			{
				"type": "occ",
				"energy": -0.2954,
				"method": "rhf"
			},
			{
				"type": "occ",
				"energy": -0.2935,
				"method": "rhf"
			},
			{
				"type": "occ",
				"energy": -0.27798,
				"method": "rhf"
			},
			{
				"type": "occ",
				"energy": -0.26627,
				"method": "rhf"
			},
			{
				"type": "occ",
				"energy": -0.25407,
				"method": "rhf"
			},
			{
				"type": "unocc",
				"energy": -0.01051,
				"method": "rhf"
			},
			{
				"type": "unocc",
				"energy": 0.00229,
				"method": "rhf"
			},
			{
				"type": "unocc",
				"energy": 0.05474,
				"method": "rhf"
			},
			{
				"type": "unocc",
				"energy": 0.07334,
				"method": "rhf"
			},
			{
				"type": "unocc",
				"energy": 0.08329,
				"method": "rhf"
			}
		],
		"cosmo_sigma_profile": { 
			"-0.025": 0.0,
			"-0.024": 0.0,
			"-0.023": 0.0,
			"-0.022": 0.0,
			"-0.021": 0.0,
			"-0.02": 0.0,
			"-0.019": 0.385871321051,
			"-0.018": 1.10624069572,
			"-0.017": 0.984697193122,
			"-0.016": 1.0412578194,
			"-0.015": 0.6373826017,
			"-0.014": 0.1003974938,
			"-0.013": 0.450619328958,
			"-0.012": 1.43902250899,
			"-0.011": 1.1851551686,
			"-0.01": 0.364026338589,
			"-0.009": 1.5710566822,
			"-0.008": 9.17531887425,
			"-0.007": 10.2726006976,
			"-0.006": 13.4756989552,
			"-0.005": 17.7424744677,
			"-0.004": 13.7416976452,
			"-0.003": 16.2558839874,
			"-0.002": 14.0489124415,
			"-0.001": 7.87159327273,
			"0.0": 5.55191438292,
			"0.001": 6.27258833197,
			"0.002": 6.23690121559,
			"0.003": 6.16311858171,
			"0.004": 7.34178971647,
			"0.005": 6.25189524552,
			"0.006": 4.15231068401,
			"0.007": 5.26678975073,
			"0.008": 5.61295974795,
			"0.009": 5.69110740882,
			"0.01": 6.20496464339,
			"0.011": 9.9075506354,
			"0.012": 9.15154513559,
			"0.013": 3.27030208521,
			"0.014": 0.0,
			"0.015": 0.0,
			"0.016": 0.0,
			"0.017": 0.0,
			"0.018": 0.0,
			"0.019": 0.0,
			"0.02": 0.0,
			"0.021": 0.0,
			"0.022": 0.0,
			"0.023": 0.0,
			"0.024": 0.0,
			"0.025": 0.0
		}
	}
}
