{
	 "smiles": "NC(=O)OCCO", 
	 "Tm": 316.15, 
	 "num_atms": 14, 
	 "gaussian": { 
		 "optdone": 1, 
		 "sigma_profile": "yes", 
		 "theory": "DFT", 
		 "functional": "B3LYP", 
		 "basiset": "6-31G**", 
		 "properties": { 
			 "R2extent": 1007.0464, 
			 "electric_dipole_moment_norm": 3.0375341068, 
			 "electric_quadrupole_moment_norm": 13.2360977119, 
			 "total_energy": -398.971499574, 
			 "HOMO_LUMO_gap": 0.31799, 
			 "cosmo_polarized_energy": -13.9, 
			 "cosmo_cavitation_energy": 18.14, 
			 "cosmo_dispersion_energy": -13.58, 
			 "cosmo_repulsion_energy": 1.21, 
			 "cosmo_total_nonelectrostatic_energy": 5.77, 
			 "SMD_solvation_energy": 4.64 
		},
		"coords": [
			{
				"x": 1.9758834212,
				"y": -2.0849412215,
				"z": -0.2991283425,
				"element": "N" 
			},
			{
				"x": 1.4138963574,
				"y": -0.890128643,
				"z": -0.655675628,
				"element": "C" 
			},
			{
				"x": 1.3868735226,
				"y": -0.4310942443,
				"z": -1.7792604674,
				"element": "O" 
			},
			{
				"x": 0.8558327946,
				"y": -0.2932596224,
				"z": 0.4357489792,
				"element": "O" 
			},
			{
				"x": 0.1822886983,
				"y": 0.9576247738,
				"z": 0.1764306243,
				"element": "C" 
			},
			{
				"x": -0.4515267357,
				"y": 1.3743017713,
				"z": 1.4911859019,
				"element": "C" 
			},
			{
				"x": -1.4217369951,
				"y": 0.443703883,
				"z": 1.9352243465,
				"element": "O" 
			},
			{
				"x": 2.145848762,
				"y": -2.2790648729,
				"z": 0.6747752515,
				"element": "H" 
			},
			{
				"x": 2.5747951479,
				"y": -2.5162798014,
				"z": -0.9841649371,
				"element": "H" 
			},
			{
				"x": -0.5740269802,
				"y": 0.8058541528,
				"z": -0.5984947043,
				"element": "H" 
			},
			{
				"x": 0.9046776821,
				"y": 1.6995283798,
				"z": -0.1803290932,
				"element": "H" 
			},
			{
				"x": -0.9670633636,
				"y": 2.3299871125,
				"z": 1.350146639,
				"element": "H" 
			},
			{
				"x": 0.3384513634,
				"y": 1.5290113119,
				"z": 2.2439039007,
				"element": "H" 
			},
			{
				"x": -0.9855936748,
				"y": -0.4191429796,
				"z": 1.9497375293,
				"element": "H" 
			}
		],
		 "valence_orbital": [ 
			{
				"type": "occ",
				"energy": -0.33259,
				"method": "rhf"
			},
			{
				"type": "occ",
				"energy": -0.30244,
				"method": "rhf"
			},
			{
				"type": "occ",
				"energy": -0.28192,
				"method": "rhf"
			},
			{
				"type": "occ",
				"energy": -0.27449,
				"method": "rhf"
			},
			{
				"type": "occ",
				"energy": -0.27032,
				"method": "rhf"
			},
			{
				"type": "unocc",
				"energy": 0.04767,
				"method": "rhf"
			},
			{
				"type": "unocc",
				"energy": 0.07022,
				"method": "rhf"
			},
			{
				"type": "unocc",
				"energy": 0.09747,
				"method": "rhf"
			},
			{
				"type": "unocc",
				"energy": 0.11662,
				"method": "rhf"
			},
			{
				"type": "unocc",
				"energy": 0.12042,
				"method": "rhf"
			}
		],
		"cosmo_sigma_profile": { 
			"-0.025": 0.0,
			"-0.024": 0.0,
			"-0.023": 0.0,
			"-0.022": 0.0,
			"-0.021": 0.0,
			"-0.02": 0.0,
			"-0.019": 0.0,
			"-0.018": 0.0,
			"-0.017": 0.0,
			"-0.016": 0.0,
			"-0.015": 0.288243729631,
			"-0.014": 2.35031497443,
			"-0.013": 2.53079648788,
			"-0.012": 3.22473954781,
			"-0.011": 2.70038506743,
			"-0.01": 2.81581419454,
			"-0.009": 2.98918408386,
			"-0.008": 1.49491786523,
			"-0.007": 1.98064958015,
			"-0.006": 6.15270194627,
			"-0.005": 12.3281639748,
			"-0.004": 12.1572493084,
			"-0.003": 9.81563473374,
			"-0.002": 9.35911418468,
			"-0.001": 8.57983120241,
			"0.0": 6.64745740931,
			"0.001": 4.4370112418,
			"0.002": 5.17012798409,
			"0.003": 4.80005672333,
			"0.004": 3.68016700404,
			"0.005": 4.01279306858,
			"0.006": 4.16766479378,
			"0.007": 2.87190452904,
			"0.008": 2.23344648655,
			"0.009": 3.4634318838,
			"0.01": 2.69888211464,
			"0.011": 2.44959341248,
			"0.012": 4.20331313067,
			"0.013": 7.67192966718,
			"0.014": 4.04042307821,
			"0.015": 0.2802844762,
			"0.016": 0.0,
			"0.017": 0.0,
			"0.018": 0.0,
			"0.019": 0.0,
			"0.02": 0.0,
			"0.021": 0.0,
			"0.022": 0.0,
			"0.023": 0.0,
			"0.024": 0.0,
			"0.025": 0.0
		}
	}
}
