{
	 "smiles": "COC1=CC=C(OC)C(N)=C1", 
	 "Tm": 354.35, 
	 "num_atms": 22, 
	 "gaussian": { 
		 "optdone": 1, 
		 "sigma_profile": "yes", 
		 "theory": "DFT", 
		 "functional": "B3LYP", 
		 "basiset": "6-31G**", 
		 "properties": { 
			 "R2extent": 2463.5235, 
			 "electric_dipole_moment_norm": 1.82804501039, 
			 "electric_quadrupole_moment_norm": 11.2150491256, 
			 "total_energy": -516.655411747, 
			 "HOMO_LUMO_gap": 0.19796, 
			 "cosmo_polarized_energy": -10.26, 
			 "cosmo_cavitation_energy": 25.13, 
			 "cosmo_dispersion_energy": -18.92, 
			 "cosmo_repulsion_energy": 1.53, 
			 "cosmo_total_nonelectrostatic_energy": 7.74, 
			 "SMD_solvation_energy": 5.74 
		},
		"coords": [
			{
				"x": 3.4532688361,
				"y": -1.7609589611,
				"z": -2.3467181535,
				"element": "C" 
			},
			{
				"x": 2.2015367349,
				"y": -1.3211768992,
				"z": -2.839720653,
				"element": "O" 
			},
			{
				"x": 1.327130766,
				"y": -0.7533091567,
				"z": -1.9490161245,
				"element": "C" 
			},
			{
				"x": 1.5775333266,
				"y": -0.5814796788,
				"z": -0.5887876552,
				"element": "C" 
			},
			{
				"x": 0.5914013622,
				"y": 0.0121530921,
				"z": 0.2177629642,
				"element": "C" 
			},
			{
				"x": -0.6166200144,
				"y": 0.4293021833,
				"z": -0.3210427568,
				"element": "C" 
			},
			{
				"x": -1.6519774155,
				"y": 1.0071555951,
				"z": 0.3825412805,
				"element": "O" 
			},
			{
				"x": -1.4800490337,
				"y": 1.1923222064,
				"z": 1.7744806156,
				"element": "C" 
			},
			{
				"x": -0.8719732601,
				"y": 0.2613386208,
				"z": -1.7063658663,
				"element": "C" 
			},
			{
				"x": -2.0688438653,
				"y": 0.739486568,
				"z": -2.2348913858,
				"element": "N" 
			},
			{
				"x": 0.1069722772,
				"y": -0.3330255277,
				"z": -2.4992812737,
				"element": "C" 
			},
			{
				"x": 4.036588726,
				"y": -0.9339301266,
				"z": -1.9198894496,
				"element": "H" 
			},
			{
				"x": 3.3392929838,
				"y": -2.5437152149,
				"z": -1.5845350753,
				"element": "H" 
			},
			{
				"x": 3.9903950408,
				"y": -2.1721977277,
				"z": -3.2034899236,
				"element": "H" 
			},
			{
				"x": 2.5100540269,
				"y": -0.895834125,
				"z": -0.1376933044,
				"element": "H" 
			},
			{
				"x": 0.7900147942,
				"y": 0.1362337474,
				"z": 1.2761531359,
				"element": "H" 
			},
			{
				"x": -0.6339267158,
				"y": 1.8577124882,
				"z": 1.9922274529,
				"element": "H" 
			},
			{
				"x": -2.4001307262,
				"y": 1.6529890785,
				"z": 2.1390264474,
				"element": "H" 
			},
			{
				"x": -1.3234276485,
				"y": 0.2376263505,
				"z": 2.2949776285,
				"element": "H" 
			},
			{
				"x": -2.3837714684,
				"y": 0.2723419613,
				"z": -3.0731688801,
				"element": "H" 
			},
			{
				"x": -2.7991166731,
				"y": 0.8602062432,
				"z": -1.5469472813,
				"element": "H" 
			},
			{
				"x": -0.0578520538,
				"y": -0.4726407173,
				"z": -3.5634217421,
				"element": "H" 
			}
		],
		 "valence_orbital": [ 
			{
				"type": "occ",
				"energy": -0.31562,
				"method": "rhf"
			},
			{
				"type": "occ",
				"energy": -0.30627,
				"method": "rhf"
			},
			{
				"type": "occ",
				"energy": -0.27442,
				"method": "rhf"
			},
			{
				"type": "occ",
				"energy": -0.20757,
				"method": "rhf"
			},
			{
				"type": "occ",
				"energy": -0.17921,
				"method": "rhf"
			},
			{
				"type": "unocc",
				"energy": 0.01875,
				"method": "rhf"
			},
			{
				"type": "unocc",
				"energy": 0.04133,
				"method": "rhf"
			},
			{
				"type": "unocc",
				"energy": 0.09249,
				"method": "rhf"
			},
			{
				"type": "unocc",
				"energy": 0.10006,
				"method": "rhf"
			},
			{
				"type": "unocc",
				"energy": 0.10855,
				"method": "rhf"
			}
		],
		"cosmo_sigma_profile": { 
			"-0.025": 0.0,
			"-0.024": 0.0,
			"-0.023": 0.0,
			"-0.022": 0.0,
			"-0.021": 0.0,
			"-0.02": 0.0,
			"-0.019": 0.0,
			"-0.018": 0.0,
			"-0.017": 0.0,
			"-0.016": 0.0,
			"-0.015": 0.0,
			"-0.014": 0.0,
			"-0.013": 0.0590200360774,
			"-0.012": 1.17036287804,
			"-0.011": 1.44632423412,
			"-0.01": 2.49261568364,
			"-0.009": 2.13338438406,
			"-0.008": 1.96610232258,
			"-0.007": 2.42917115508,
			"-0.006": 7.4266140028,
			"-0.005": 19.5582018733,
			"-0.004": 21.2709239556,
			"-0.003": 23.3427844375,
			"-0.002": 14.7339211525,
			"-0.001": 10.0335965573,
			"0.0": 6.98550465394,
			"0.001": 7.03091941617,
			"0.002": 8.44864329802,
			"0.003": 7.74560945912,
			"0.004": 9.89771491864,
			"0.005": 11.934423661,
			"0.006": 14.0983699082,
			"0.007": 9.81230960783,
			"0.008": 4.39853593395,
			"0.009": 2.92700942533,
			"0.01": 2.15198267352,
			"0.011": 2.33107556562,
			"0.012": 0.843379991087,
			"0.013": 0.863943714135,
			"0.014": 0.556767118407,
			"0.015": 0.300109266425,
			"0.016": 0.0,
			"0.017": 0.0,
			"0.018": 0.0,
			"0.019": 0.0,
			"0.02": 0.0,
			"0.021": 0.0,
			"0.022": 0.0,
			"0.023": 0.0,
			"0.024": 0.0,
			"0.025": 0.0
		}
	}
}
