{
	 "smiles": "N#CC1=CC2=C(NC=C2)N=C1", 
	 "Tm": 501.15, 
	 "num_atms": 16, 
	 "gaussian": { 
		 "optdone": 1, 
		 "sigma_profile": "yes", 
		 "theory": "DFT", 
		 "functional": "B3LYP", 
		 "basiset": "6-31G**", 
		 "properties": { 
			 "R2extent": 1873.8568, 
			 "electric_dipole_moment_norm": 6.36810662756, 
			 "electric_quadrupole_moment_norm": 6.70445832637, 
			 "total_energy": -472.104016961, 
			 "HOMO_LUMO_gap": 0.18629, 
			 "cosmo_polarized_energy": -13.53, 
			 "cosmo_cavitation_energy": 21.75, 
			 "cosmo_dispersion_energy": -15.9, 
			 "cosmo_repulsion_energy": 1.26, 
			 "cosmo_total_nonelectrostatic_energy": 7.12, 
			 "SMD_solvation_energy": 3.6 
		},
		"coords": [
			{
				"x": 2.2315874295,
				"y": 3.0419625585,
				"z": 1.6461133738,
				"element": "N" 
			},
			{
				"x": 1.8718000055,
				"y": 2.0746166961,
				"z": 1.1082908047,
				"element": "C" 
			},
			{
				"x": 1.4363431745,
				"y": 0.8827573722,
				"z": 0.4460311773,
				"element": "C" 
			},
			{
				"x": 0.0704409821,
				"y": 0.6312834451,
				"z": 0.2526114828,
				"element": "C" 
			},
			{
				"x": -0.2789650047,
				"y": -0.5508897495,
				"z": -0.4007666143,
				"element": "C" 
			},
			{
				"x": 0.7962667427,
				"y": -1.3960562452,
				"z": -0.8120449809,
				"element": "C" 
			},
			{
				"x": 0.2460664246,
				"y": -2.4909435897,
				"z": -1.4267088,
				"element": "N" 
			},
			{
				"x": -1.1329631978,
				"y": -2.3683642197,
				"z": -1.4185918887,
				"element": "C" 
			},
			{
				"x": -1.494862963,
				"y": -1.1991672451,
				"z": -0.8022097519,
				"element": "C" 
			},
			{
				"x": 2.100733766,
				"y": -1.1820272843,
				"z": -0.6414681539,
				"element": "N" 
			},
			{
				"x": 2.403549794,
				"y": -0.0479646959,
				"z": -0.0160324229,
				"element": "C" 
			},
			{
				"x": -0.6737808598,
				"y": 1.338843573,
				"z": 0.6035023814,
				"element": "H" 
			},
			{
				"x": 0.7816900373,
				"y": -3.2516514295,
				"z": -1.8151075618,
				"element": "H" 
			},
			{
				"x": -1.7516634668,
				"y": -3.1364155699,
				"z": -1.8595802336,
				"element": "H" 
			},
			{
				"x": -2.5047683893,
				"y": -0.8456374728,
				"z": -0.6537854585,
				"element": "H" 
			},
			{
				"x": 3.4586255252,
				"y": 0.1601538567,
				"z": 0.1408466467,
				"element": "H" 
			}
		],
		 "valence_orbital": [ 
			{
				"type": "occ",
				"energy": -0.33124,
				"method": "rhf"
			},
			{
				"type": "occ",
				"energy": -0.31711,
				"method": "rhf"
			},
			{
				"type": "occ",
				"energy": -0.28056,
				"method": "rhf"
			},
			{
				"type": "occ",
				"energy": -0.25029,
				"method": "rhf"
			},
			{
				"type": "occ",
				"energy": -0.23929,
				"method": "rhf"
			},
			{
				"type": "unocc",
				"energy": -0.053,
				"method": "rhf"
			},
			{
				"type": "unocc",
				"energy": -0.02907,
				"method": "rhf"
			},
			{
				"type": "unocc",
				"energy": 0.03851,
				"method": "rhf"
			},
			{
				"type": "unocc",
				"energy": 0.03881,
				"method": "rhf"
			},
			{
				"type": "unocc",
				"energy": 0.06908,
				"method": "rhf"
			}
		],
		"cosmo_sigma_profile": { 
			"-0.025": 0.0,
			"-0.024": 0.0,
			"-0.023": 0.0,
			"-0.022": 0.0,
			"-0.021": 0.0,
			"-0.02": 0.0,
			"-0.019": 0.0,
			"-0.018": 0.0,
			"-0.017": 0.46054817432,
			"-0.016": 1.42486108854,
			"-0.015": 1.3197447643,
			"-0.014": 1.29339753843,
			"-0.013": 1.23799175808,
			"-0.012": 0.640051056958,
			"-0.011": 1.2794327637,
			"-0.01": 1.23414032385,
			"-0.009": 3.58582204162,
			"-0.008": 6.49254225576,
			"-0.007": 7.95651272484,
			"-0.006": 8.30025892781,
			"-0.005": 6.76552002993,
			"-0.004": 9.25516684303,
			"-0.003": 6.81228562851,
			"-0.002": 9.21143232526,
			"-0.001": 10.6198853792,
			"0.0": 17.8487832497,
			"0.001": 16.4088608313,
			"0.002": 11.7005414233,
			"0.003": 7.39649592287,
			"0.004": 8.64499393517,
			"0.005": 4.77301364875,
			"0.006": 4.91032349137,
			"0.007": 3.21557279197,
			"0.008": 4.19137190217,
			"0.009": 4.33946606807,
			"0.01": 3.99580336505,
			"0.011": 4.08155309859,
			"0.012": 3.61780031886,
			"0.013": 2.89543987279,
			"0.014": 0.689596739806,
			"0.015": 0.385058071144,
			"0.016": 0.0,
			"0.017": 0.0,
			"0.018": 0.0,
			"0.019": 0.0,
			"0.02": 0.0,
			"0.021": 0.0,
			"0.022": 0.0,
			"0.023": 0.0,
			"0.024": 0.0,
			"0.025": 0.0
		}
	}
}
