{
	 "smiles": "CN1C=C(C2=C1C=CC=C2)S(N)(=O)=O", 
	 "Tm": 468.15, 
	 "num_atms": 24, 
	 "gaussian": { 
		 "optdone": 1, 
		 "sigma_profile": "yes", 
		 "theory": "DFT", 
		 "functional": "B3LYP", 
		 "basiset": "6-31G**", 
		 "properties": { 
			 "R2extent": 3538.4615, 
			 "electric_dipole_moment_norm": 7.88505790657, 
			 "electric_quadrupole_moment_norm": 23.7176155121, 
			 "total_energy": -1007.05045163, 
			 "HOMO_LUMO_gap": 0.19239, 
			 "cosmo_polarized_energy": -26.0, 
			 "cosmo_cavitation_energy": 29.4, 
			 "cosmo_dispersion_energy": -21.64, 
			 "cosmo_repulsion_energy": 1.63, 
			 "cosmo_total_nonelectrostatic_energy": 9.4, 
			 "SMD_solvation_energy": 4.65 
		},
		"coords": [
			{
				"x": 1.9405217261,
				"y": -0.5370721886,
				"z": -1.7465988964,
				"element": "C" 
			},
			{
				"x": 0.9827866437,
				"y": 0.03505678,
				"z": -0.8196407707,
				"element": "N" 
			},
			{
				"x": -0.1195836709,
				"y": 0.7852397075,
				"z": -1.1560202684,
				"element": "C" 
			},
			{
				"x": -0.7943653521,
				"y": 1.1565863895,
				"z": -0.0173080222,
				"element": "C" 
			},
			{
				"x": -0.0784001676,
				"y": 0.6102145104,
				"z": 1.1062682496,
				"element": "C" 
			},
			{
				"x": 1.0314103323,
				"y": -0.08731188,
				"z": 0.5612470176,
				"element": "C" 
			},
			{
				"x": 1.9611992006,
				"y": -0.7542610454,
				"z": 1.3680593651,
				"element": "C" 
			},
			{
				"x": 1.7586138783,
				"y": -0.710242741,
				"z": 2.7421369184,
				"element": "C" 
			},
			{
				"x": 0.6613500658,
				"y": -0.0218432252,
				"z": 3.3001553264,
				"element": "C" 
			},
			{
				"x": -0.259519934,
				"y": 0.6388895659,
				"z": 2.4984353815,
				"element": "C" 
			},
			{
				"x": -2.2689767375,
				"y": 2.1237052998,
				"z": 0.0875073627,
				"element": "S" 
			},
			{
				"x": -2.6847095446,
				"y": 2.5015546509,
				"z": -1.4923120112,
				"element": "N" 
			},
			{
				"x": -1.9389512506,
				"y": 3.3913817523,
				"z": 0.737110505,
				"element": "O" 
			},
			{
				"x": -3.3402843402,
				"y": 1.2697804181,
				"z": 0.5983993735,
				"element": "O" 
			},
			{
				"x": 2.9459225665,
				"y": -0.1450308529,
				"z": -1.5596425263,
				"element": "H" 
			},
			{
				"x": 1.9657445677,
				"y": -1.6283115878,
				"z": -1.6569197124,
				"element": "H" 
			},
			{
				"x": 1.6503201677,
				"y": -0.2784268311,
				"z": -2.7662079799,
				"element": "H" 
			},
			{
				"x": -0.3405123079,
				"y": 0.9988353841,
				"z": -2.1916989432,
				"element": "H" 
			},
			{
				"x": 2.8068501275,
				"y": -1.2850509192,
				"z": 0.9419276842,
				"element": "H" 
			},
			{
				"x": 2.4595285871,
				"y": -1.2162221698,
				"z": 3.3993102657,
				"element": "H" 
			},
			{
				"x": 0.536700604,
				"y": -0.0099598962,
				"z": 4.3785959347,
				"element": "H" 
			},
			{
				"x": -1.1019417273,
				"y": 1.1670338864,
				"z": 2.9323763057,
				"element": "H" 
			},
			{
				"x": -2.9833321111,
				"y": 1.7083303636,
				"z": -2.0479380653,
				"element": "H" 
			},
			{
				"x": -2.0418713238,
				"y": 3.1340246288,
				"z": -1.954742494,
				"element": "H" 
			}
		],
		 "valence_orbital": [ 
			{
				"type": "occ",
				"energy": -0.29861,
				"method": "rhf"
			},
			{
				"type": "occ",
				"energy": -0.29615,
				"method": "rhf"
			},
			{
				"type": "occ",
				"energy": -0.27588,
				"method": "rhf"
			},
			{
				"type": "occ",
				"energy": -0.23583,
				"method": "rhf"
			},
			{
				"type": "occ",
				"energy": -0.21851,
				"method": "rhf"
			},
			{
				"type": "unocc",
				"energy": -0.02612,
				"method": "rhf"
			},
			{
				"type": "unocc",
				"energy": 0.01385,
				"method": "rhf"
			},
			{
				"type": "unocc",
				"energy": 0.03151,
				"method": "rhf"
			},
			{
				"type": "unocc",
				"energy": 0.0493,
				"method": "rhf"
			},
			{
				"type": "unocc",
				"energy": 0.06991,
				"method": "rhf"
			}
		],
		"cosmo_sigma_profile": { 
			"-0.025": 0.0,
			"-0.024": 0.0,
			"-0.023": 0.0,
			"-0.022": 0.0,
			"-0.021": 0.0,
			"-0.02": 0.0,
			"-0.019": 0.0,
			"-0.018": 0.0,
			"-0.017": 0.0,
			"-0.016": 0.122368008323,
			"-0.015": 2.07288113214,
			"-0.014": 2.84683886466,
			"-0.013": 2.50151524488,
			"-0.012": 3.26613711698,
			"-0.011": 4.29630679784,
			"-0.01": 5.94568176679,
			"-0.009": 3.46156099294,
			"-0.008": 3.69908166797,
			"-0.007": 5.67581640253,
			"-0.006": 13.1473189079,
			"-0.005": 18.5350848643,
			"-0.004": 16.2271240413,
			"-0.003": 18.0146847494,
			"-0.002": 9.90377676143,
			"-0.001": 8.80763108014,
			"0.0": 8.58099750928,
			"0.001": 8.58805982756,
			"0.002": 9.41381840105,
			"0.003": 10.8507676723,
			"0.004": 12.6703084553,
			"0.005": 14.2930293529,
			"0.006": 8.98655931508,
			"0.007": 4.07767294223,
			"0.008": 4.49585085556,
			"0.009": 5.32256106634,
			"0.01": 5.25011377344,
			"0.011": 12.8498682304,
			"0.012": 9.70662158504,
			"0.013": 0.669845697076,
			"0.014": 0.0,
			"0.015": 0.0,
			"0.016": 0.0,
			"0.017": 0.0,
			"0.018": 0.0,
			"0.019": 0.0,
			"0.02": 0.0,
			"0.021": 0.0,
			"0.022": 0.0,
			"0.023": 0.0,
			"0.024": 0.0,
			"0.025": 0.0
		}
	}
}
