{
	 "smiles": "CN1N=C(CC1=O)C(F)(F)F", 
	 "Tm": 452.15, 
	 "num_atms": 16, 
	 "gaussian": { 
		 "optdone": 1, 
		 "sigma_profile": "yes", 
		 "theory": "DFT", 
		 "functional": "B3LYP", 
		 "basiset": "6-31G**", 
		 "properties": { 
			 "R2extent": 3777.7313, 
			 "electric_dipole_moment_norm": 0.672783011082, 
			 "electric_quadrupole_moment_norm": 10.3999849822, 
			 "total_energy": -677.77040728, 
			 "HOMO_LUMO_gap": 0.19741, 
			 "cosmo_polarized_energy": -9.12, 
			 "cosmo_cavitation_energy": 22.21, 
			 "cosmo_dispersion_energy": -15.84, 
			 "cosmo_repulsion_energy": 1.24, 
			 "cosmo_total_nonelectrostatic_energy": 7.61, 
			 "SMD_solvation_energy": 5.15 
		},
		"coords": [
			{
				"x": 1.758111943,
				"y": -0.2747821731,
				"z": 2.6522511157,
				"element": "C" 
			},
			{
				"x": 0.9529709571,
				"y": 0.7820026717,
				"z": 2.0764225389,
				"element": "N" 
			},
			{
				"x": 1.5204413107,
				"y": 1.7101520816,
				"z": 1.2335665553,
				"element": "N" 
			},
			{
				"x": 0.5957691606,
				"y": 2.5284440316,
				"z": 0.8677784617,
				"element": "C" 
			},
			{
				"x": -0.7458249028,
				"y": 2.2160671833,
				"z": 1.4561505797,
				"element": "C" 
			},
			{
				"x": -0.4081533215,
				"y": 0.9765512691,
				"z": 2.2914932079,
				"element": "C" 
			},
			{
				"x": -1.1254981658,
				"y": 0.2921094741,
				"z": 2.9924988899,
				"element": "O" 
			},
			{
				"x": 0.8795229428,
				"y": 3.6691760742,
				"z": -0.058390339,
				"element": "C" 
			},
			{
				"x": 2.1609253575,
				"y": 3.7210786361,
				"z": -0.4362558279,
				"element": "F" 
			},
			{
				"x": 0.1110112212,
				"y": 3.5736975564,
				"z": -1.1692114973,
				"element": "F" 
			},
			{
				"x": 0.5618359847,
				"y": 4.8445476668,
				"z": 0.5342440224,
				"element": "F" 
			},
			{
				"x": 1.0921036203,
				"y": -0.8734180928,
				"z": 3.2752756492,
				"element": "H" 
			},
			{
				"x": 2.191881077,
				"y": -0.9013532818,
				"z": 1.8677656831,
				"element": "H" 
			},
			{
				"x": 2.5617138583,
				"y": 0.1422144433,
				"z": 3.2658484995,
				"element": "H" 
			},
			{
				"x": -1.1406569648,
				"y": 3.0196853392,
				"z": 2.0869364265,
				"element": "H" 
			},
			{
				"x": -1.5072540783,
				"y": 1.9870271203,
				"z": 0.7029260344,
				"element": "H" 
			}
		],
		 "valence_orbital": [ 
			{
				"type": "occ",
				"energy": -0.38993,
				"method": "rhf"
			},
			{
				"type": "occ",
				"energy": -0.37759,
				"method": "rhf"
			},
			{
				"type": "occ",
				"energy": -0.33818,
				"method": "rhf"
			},
			{
				"type": "occ",
				"energy": -0.27217,
				"method": "rhf"
			},
			{
				"type": "occ",
				"energy": -0.25296,
				"method": "rhf"
			},
			{
				"type": "unocc",
				"energy": -0.05555,
				"method": "rhf"
			},
			{
				"type": "unocc",
				"energy": 0.01746,
				"method": "rhf"
			},
			{
				"type": "unocc",
				"energy": 0.09814,
				"method": "rhf"
			},
			{
				"type": "unocc",
				"energy": 0.10384,
				"method": "rhf"
			},
			{
				"type": "unocc",
				"energy": 0.11305,
				"method": "rhf"
			}
		],
		"cosmo_sigma_profile": { 
			"-0.025": 0.0,
			"-0.024": 0.0,
			"-0.023": 0.0,
			"-0.022": 0.0,
			"-0.021": 0.0,
			"-0.02": 0.0,
			"-0.019": 0.0,
			"-0.018": 0.0,
			"-0.017": 0.0,
			"-0.016": 0.0,
			"-0.015": 0.0,
			"-0.014": 0.0,
			"-0.013": 0.0,
			"-0.012": 0.0,
			"-0.011": 0.0,
			"-0.01": 0.79899954421,
			"-0.009": 4.73591536166,
			"-0.008": 4.32721655466,
			"-0.007": 6.67828989297,
			"-0.006": 10.7150242848,
			"-0.005": 11.3999996299,
			"-0.004": 11.095186529,
			"-0.003": 15.4469436229,
			"-0.002": 12.0160844445,
			"-0.001": 8.14150638131,
			"0.0": 7.55335854716,
			"0.001": 10.1337455265,
			"0.002": 29.9127092222,
			"0.003": 14.8762543938,
			"0.004": 2.40862352462,
			"0.005": 3.23754700148,
			"0.006": 2.31469105062,
			"0.007": 3.05070168533,
			"0.008": 2.40144471557,
			"0.009": 2.7259143153,
			"0.01": 2.41521403552,
			"0.011": 3.8366851155,
			"0.012": 5.65750122168,
			"0.013": 1.63066539019,
			"0.014": 0.0179050576497,
			"0.015": 0.0,
			"0.016": 0.0,
			"0.017": 0.0,
			"0.018": 0.0,
			"0.019": 0.0,
			"0.02": 0.0,
			"0.021": 0.0,
			"0.022": 0.0,
			"0.023": 0.0,
			"0.024": 0.0,
			"0.025": 0.0
		}
	}
}
