{
	 "smiles": "CC(C)S(N)(=O)=O", 
	 "Tm": 318.15, 
	 "num_atms": 16, 
	 "gaussian": { 
		 "optdone": 1, 
		 "sigma_profile": "yes", 
		 "theory": "DFT", 
		 "functional": "B3LYP", 
		 "basiset": "6-31G**", 
		 "properties": { 
			 "R2extent": 1397.2846, 
			 "electric_dipole_moment_norm": 3.33357746873, 
			 "electric_quadrupole_moment_norm": 11.7684278678, 
			 "total_energy": -723.0788501, 
			 "HOMO_LUMO_gap": 0.34116, 
			 "cosmo_polarized_energy": -13.64, 
			 "cosmo_cavitation_energy": 19.96, 
			 "cosmo_dispersion_energy": -15.24, 
			 "cosmo_repulsion_energy": 1.24, 
			 "cosmo_total_nonelectrostatic_energy": 5.96, 
			 "SMD_solvation_energy": 3.29 
		},
		"coords": [
			{
				"x": -1.1629916211,
				"y": -0.355796159,
				"z": 1.3561035698,
				"element": "C" 
			},
			{
				"x": -0.4941624058,
				"y": 0.4725118065,
				"z": 0.2601009187,
				"element": "C" 
			},
			{
				"x": 0.3889609963,
				"y": -0.3572252047,
				"z": -0.6768821336,
				"element": "C" 
			},
			{
				"x": 0.5370791753,
				"y": 1.7945473296,
				"z": 0.9890213855,
				"element": "S" 
			},
			{
				"x": -0.6064688542,
				"y": 2.7264088827,
				"z": 1.8370432697,
				"element": "N" 
			},
			{
				"x": 1.4390992046,
				"y": 1.19246819,
				"z": 1.9800027601,
				"element": "O" 
			},
			{
				"x": 1.0476233445,
				"y": 2.6266038189,
				"z": -0.1079641164,
				"element": "O" 
			},
			{
				"x": -1.7902838696,
				"y": -1.1243424444,
				"z": 0.8935522618,
				"element": "H" 
			},
			{
				"x": -0.4124608184,
				"y": -0.8514806105,
				"z": 1.9777106567,
				"element": "H" 
			},
			{
				"x": -1.7977519327,
				"y": 0.263970281,
				"z": 1.9940348173,
				"element": "H" 
			},
			{
				"x": -1.2433327424,
				"y": 1.0260627156,
				"z": -0.316103876,
				"element": "H" 
			},
			{
				"x": -0.2254959039,
				"y": -1.1147939293,
				"z": -1.172612557,
				"element": "H" 
			},
			{
				"x": 1.1761678903,
				"y": -0.8674555926,
				"z": -0.1141189734,
				"element": "H" 
			},
			{
				"x": 0.8547555131,
				"y": 0.2690312784,
				"z": -1.4407474802,
				"element": "H" 
			},
			{
				"x": -0.6028216176,
				"y": 3.6693783779,
				"z": 1.4560474673,
				"element": "H" 
			},
			{
				"x": -0.3589163585,
				"y": 2.7345112598,
				"z": 2.8233120299,
				"element": "H" 
			}
		],
		 "valence_orbital": [ 
			{
				"type": "occ",
				"energy": -0.35161,
				"method": "rhf"
			},
			{
				"type": "occ",
				"energy": -0.31401,
				"method": "rhf"
			},
			{
				"type": "occ",
				"energy": -0.30573,
				"method": "rhf"
			},
			{
				"type": "occ",
				"energy": -0.29862,
				"method": "rhf"
			},
			{
				"type": "occ",
				"energy": -0.28798,
				"method": "rhf"
			},
			{
				"type": "unocc",
				"energy": 0.05318,
				"method": "rhf"
			},
			{
				"type": "unocc",
				"energy": 0.06759,
				"method": "rhf"
			},
			{
				"type": "unocc",
				"energy": 0.08323,
				"method": "rhf"
			},
			{
				"type": "unocc",
				"energy": 0.09273,
				"method": "rhf"
			},
			{
				"type": "unocc",
				"energy": 0.10566,
				"method": "rhf"
			}
		],
		"cosmo_sigma_profile": { 
			"-0.025": 0.0,
			"-0.024": 0.0,
			"-0.023": 0.0,
			"-0.022": 0.0,
			"-0.021": 0.0,
			"-0.02": 0.0,
			"-0.019": 0.0,
			"-0.018": 0.0,
			"-0.017": 0.0,
			"-0.016": 0.0,
			"-0.015": 0.536809579404,
			"-0.014": 2.08844087676,
			"-0.013": 2.70766963874,
			"-0.012": 2.43223761817,
			"-0.011": 1.54935284676,
			"-0.01": 2.11124402996,
			"-0.009": 1.45130006944,
			"-0.008": 2.59364520661,
			"-0.007": 3.97907817105,
			"-0.006": 3.50397964368,
			"-0.005": 9.21846085451,
			"-0.004": 12.7137535714,
			"-0.003": 14.3565272846,
			"-0.002": 14.419810989,
			"-0.001": 16.256546274,
			"0.0": 12.2275133004,
			"0.001": 3.54852743554,
			"0.002": 4.19598292703,
			"0.003": 3.16844301443,
			"0.004": 3.72081416118,
			"0.005": 2.75964209925,
			"0.006": 2.61981490303,
			"0.007": 2.68853855249,
			"0.008": 3.45895412679,
			"0.009": 3.71780636017,
			"0.01": 4.45190623158,
			"0.011": 11.033454395,
			"0.012": 7.17728350594,
			"0.013": 0.769208231956,
			"0.014": 0.0,
			"0.015": 0.0,
			"0.016": 0.0,
			"0.017": 0.0,
			"0.018": 0.0,
			"0.019": 0.0,
			"0.02": 0.0,
			"0.021": 0.0,
			"0.022": 0.0,
			"0.023": 0.0,
			"0.024": 0.0,
			"0.025": 0.0
		}
	}
}
