{
	 "smiles": "CSC1=C2C(CCCC2=O)=C(S1)C(N)=S", 
	 "Tm": 505.15, 
	 "num_atms": 26, 
	 "gaussian": { 
		 "optdone": 1, 
		 "sigma_profile": "yes", 
		 "theory": "DFT", 
		 "functional": "B3LYP", 
		 "basiset": "6-31G**", 
		 "properties": { 
			 "R2extent": 4905.5983, 
			 "electric_dipole_moment_norm": 3.37324054583, 
			 "electric_quadrupole_moment_norm": 13.0068306516, 
			 "total_energy": -1712.23738026, 
			 "HOMO_LUMO_gap": 0.13094, 
			 "cosmo_polarized_energy": -16.18, 
			 "cosmo_cavitation_energy": 32.94, 
			 "cosmo_dispersion_energy": -25.46, 
			 "cosmo_repulsion_energy": 1.88, 
			 "cosmo_total_nonelectrostatic_energy": 9.35, 
			 "SMD_solvation_energy": 4.4 
		},
		"coords": [
			{
				"x": -2.3416497917,
				"y": 2.8208752373,
				"z": -2.7737856848,
				"element": "C" 
			},
			{
				"x": -0.8760243863,
				"y": 3.3509687591,
				"z": -1.8115326183,
				"element": "S" 
			},
			{
				"x": -0.3254461522,
				"y": 1.8583818249,
				"z": -1.0487057429,
				"element": "C" 
			},
			{
				"x": 0.1673447212,
				"y": 0.6579174865,
				"z": -1.5591965344,
				"element": "C" 
			},
			{
				"x": 0.6412277982,
				"y": -0.2434233596,
				"z": -0.5390183273,
				"element": "C" 
			},
			{
				"x": 1.209340827,
				"y": -1.5953777373,
				"z": -0.8964799641,
				"element": "C" 
			},
			{
				"x": 0.7777284651,
				"y": -2.0455128567,
				"z": -2.2975348664,
				"element": "C" 
			},
			{
				"x": 1.0497644037,
				"y": -0.946908585,
				"z": -3.3307603206,
				"element": "C" 
			},
			{
				"x": 0.3004225212,
				"y": 0.3366371534,
				"z": -3.0037677205,
				"element": "C" 
			},
			{
				"x": -0.1427305442,
				"y": 1.0529148283,
				"z": -3.8915202129,
				"element": "O" 
			},
			{
				"x": 0.5110537301,
				"y": 0.2769626327,
				"z": 0.7381296954,
				"element": "C" 
			},
			{
				"x": -0.2154069957,
				"y": 1.8796702768,
				"z": 0.6788124458,
				"element": "S" 
			},
			{
				"x": 0.8711511833,
				"y": -0.2967769983,
				"z": 2.0394104813,
				"element": "C" 
			},
			{
				"x": 0.1690275129,
				"y": 0.1853093675,
				"z": 3.097482234,
				"element": "N" 
			},
			{
				"x": 2.0945162318,
				"y": -1.4147959483,
				"z": 2.2676790097,
				"element": "S" 
			},
			{
				"x": -2.0304534773,
				"y": 2.1400591753,
				"z": -3.5643228549,
				"element": "H" 
			},
			{
				"x": -3.0855739196,
				"y": 2.3666801634,
				"z": -2.1170817375,
				"element": "H" 
			},
			{
				"x": -2.7487560734,
				"y": 3.7403883213,
				"z": -3.2013177199,
				"element": "H" 
			},
			{
				"x": 0.931115788,
				"y": -2.3319081391,
				"z": -0.1383747137,
				"element": "H" 
			},
			{
				"x": 2.3045048776,
				"y": -1.5364268192,
				"z": -0.8450943558,
				"element": "H" 
			},
			{
				"x": 1.3114365208,
				"y": -2.9617297565,
				"z": -2.5698302778,
				"element": "H" 
			},
			{
				"x": -0.2920375425,
				"y": -2.2913994785,
				"z": -2.2977983427,
				"element": "H" 
			},
			{
				"x": 2.1246354725,
				"y": -0.7119528836,
				"z": -3.3441318402,
				"element": "H" 
			},
			{
				"x": 0.7714414591,
				"y": -1.2401867873,
				"z": -4.3463387902,
				"element": "H" 
			},
			{
				"x": 0.3938465698,
				"y": -0.1798884134,
				"z": 4.0115335889,
				"element": "H" 
			},
			{
				"x": -0.7107791994,
				"y": 0.6669225364,
				"z": 2.9779451699,
				"element": "H" 
			}
		],
		 "valence_orbital": [ 
			{
				"type": "occ",
				"energy": -0.26828,
				"method": "rhf"
			},
			{
				"type": "occ",
				"energy": -0.25377,
				"method": "rhf"
			},
			{
				"type": "occ",
				"energy": -0.24095,
				"method": "rhf"
			},
			{
				"type": "occ",
				"energy": -0.22835,
				"method": "rhf"
			},
			{
				"type": "occ",
				"energy": -0.21339,
				"method": "rhf"
			},
			{
				"type": "unocc",
				"energy": -0.08245,
				"method": "rhf"
			},
			{
				"type": "unocc",
				"energy": -0.05462,
				"method": "rhf"
			},
			{
				"type": "unocc",
				"energy": 0.00439,
				"method": "rhf"
			},
			{
				"type": "unocc",
				"energy": 0.01993,
				"method": "rhf"
			},
			{
				"type": "unocc",
				"energy": 0.03669,
				"method": "rhf"
			}
		],
		"cosmo_sigma_profile": { 
			"-0.025": 0.0,
			"-0.024": 0.0,
			"-0.023": 0.0,
			"-0.022": 0.0,
			"-0.021": 0.0,
			"-0.02": 0.0,
			"-0.019": 0.0,
			"-0.018": 0.0,
			"-0.017": 0.0,
			"-0.016": 0.0974901228502,
			"-0.015": 1.76580260259,
			"-0.014": 2.02408178914,
			"-0.013": 2.76970616506,
			"-0.012": 2.31217735138,
			"-0.011": 1.99599688193,
			"-0.01": 1.86987011795,
			"-0.009": 2.1056094382,
			"-0.008": 1.9276559915,
			"-0.007": 3.37325268097,
			"-0.006": 8.57197682309,
			"-0.005": 12.4103773852,
			"-0.004": 18.4790508722,
			"-0.003": 22.7256527551,
			"-0.002": 26.8521538986,
			"-0.001": 27.9671653648,
			"0.0": 25.9134333322,
			"0.001": 17.4085395291,
			"0.002": 11.2394930372,
			"0.003": 10.6414390158,
			"0.004": 9.31832628659,
			"0.005": 8.57844460412,
			"0.006": 9.39978604451,
			"0.007": 8.4388701544,
			"0.008": 8.05672745149,
			"0.009": 7.23140066595,
			"0.01": 5.80504029237,
			"0.011": 5.00340705127,
			"0.012": 2.27963085379,
			"0.013": 1.11448528839,
			"0.014": 0.0898606890932,
			"0.015": 0.0,
			"0.016": 0.0,
			"0.017": 0.0,
			"0.018": 0.0,
			"0.019": 0.0,
			"0.02": 0.0,
			"0.021": 0.0,
			"0.022": 0.0,
			"0.023": 0.0,
			"0.024": 0.0,
			"0.025": 0.0
		}
	}
}
