{
	 "smiles": "CC(C)CCCC(C)C1CCC2C3CCC4=CC(=O)CCC4(C)C3CCC12C", 
	 "Tm": 353.65, 
	 "num_atms": 72, 
	 "gaussian": { 
		 "optdone": 1, 
		 "sigma_profile": "yes", 
		 "theory": "DFT", 
		 "functional": "B3LYP", 
		 "basiset": "6-31G**", 
		 "properties": { 
			 "R2extent": 14918.48, 
			 "electric_dipole_moment_norm": 4.9292794301, 
			 "electric_quadrupole_moment_norm": 40.9895696333, 
			 "total_energy": -1130.64257711, 
			 "HOMO_LUMO_gap": 0.1861, 
			 "cosmo_polarized_energy": -9.79, 
			 "cosmo_cavitation_energy": 61.05, 
			 "cosmo_dispersion_energy": -40.11, 
			 "cosmo_repulsion_energy": 2.97, 
			 "cosmo_total_nonelectrostatic_energy": 23.91, 
			 "SMD_solvation_energy": 8.94 
		},
		"coords": [
			{
				"x": -3.6443718095,
				"y": 5.1425249262,
				"z": -0.0132969659,
				"element": "C" 
			},
			{
				"x": -2.3956083207,
				"y": 4.932354263,
				"z": -0.8827284349,
				"element": "C" 
			},
			{
				"x": -2.6361729726,
				"y": 3.8123087628,
				"z": -1.9059127503,
				"element": "C" 
			},
			{
				"x": -1.1546975551,
				"y": 4.6973310798,
				"z": 0.0047735116,
				"element": "C" 
			},
			{
				"x": 0.1940488807,
				"y": 4.6030996628,
				"z": -0.7470867896,
				"element": "C" 
			},
			{
				"x": 0.6652433495,
				"y": 3.1775134121,
				"z": -1.1357810839,
				"element": "C" 
			},
			{
				"x": 1.7359212306,
				"y": 2.5799254726,
				"z": -0.1889931086,
				"element": "C" 
			},
			{
				"x": 1.2070820161,
				"y": 2.356176165,
				"z": 1.2386401161,
				"element": "C" 
			},
			{
				"x": 2.5439257596,
				"y": 1.4065454048,
				"z": -0.8346565026,
				"element": "C" 
			},
			{
				"x": 3.8060291342,
				"y": 1.0445384244,
				"z": -0.0096596034,
				"element": "C" 
			},
			{
				"x": 3.4173791256,
				"y": -0.1680739289,
				"z": 0.8470422524,
				"element": "C" 
			},
			{
				"x": 2.4478047031,
				"y": -0.9940001376,
				"z": -0.0304016725,
				"element": "C" 
			},
			{
				"x": 1.3461885431,
				"y": -1.7121589763,
				"z": 0.77790401,
				"element": "C" 
			},
			{
				"x": 1.9555239347,
				"y": -2.7098265364,
				"z": 1.7746566848,
				"element": "C" 
			},
			{
				"x": 0.8742946239,
				"y": -3.4583790188,
				"z": 2.5678756119,
				"element": "C" 
			},
			{
				"x": -0.1568356226,
				"y": -4.1063676597,
				"z": 1.6767201312,
				"element": "C" 
			},
			{
				"x": -0.5172068034,
				"y": -5.3925480587,
				"z": 1.8724789114,
				"element": "C" 
			},
			{
				"x": -1.6074992851,
				"y": -6.0698735008,
				"z": 1.1492357312,
				"element": "C" 
			},
			{
				"x": -1.8851237594,
				"y": -7.2447228197,
				"z": 1.3513605964,
				"element": "O" 
			},
			{
				"x": -2.4013413687,
				"y": -5.20086959,
				"z": 0.1866310262,
				"element": "C" 
			},
			{
				"x": -1.5255291468,
				"y": -4.1115947046,
				"z": -0.4403815294,
				"element": "C" 
			},
			{
				"x": -0.7819690006,
				"y": -3.2237874908,
				"z": 0.5927212794,
				"element": "C" 
			},
			{
				"x": -1.7789567514,
				"y": -2.2536589698,
				"z": 1.2802511594,
				"element": "C" 
			},
			{
				"x": 0.3625766405,
				"y": -2.448964204,
				"z": -0.1626554213,
				"element": "C" 
			},
			{
				"x": -0.1709094611,
				"y": -1.5160381267,
				"z": -1.2931121224,
				"element": "C" 
			},
			{
				"x": 0.3699422779,
				"y": -0.0774424896,
				"z": -1.217190611,
				"element": "C" 
			},
			{
				"x": 1.9096159793,
				"y": -0.0126348985,
				"z": -1.1493401383,
				"element": "C" 
			},
			{
				"x": 2.4827013799,
				"y": -0.4615221202,
				"z": -2.5155620259,
				"element": "C" 
			},
			{
				"x": -3.5075425746,
				"y": 5.9696874532,
				"z": 0.6919822741,
				"element": "H" 
			},
			{
				"x": -3.8706255814,
				"y": 4.2420761874,
				"z": 0.571257797,
				"element": "H" 
			},
			{
				"x": -4.5236416048,
				"y": 5.3670909981,
				"z": -0.626955099,
				"element": "H" 
			},
			{
				"x": -2.2186348325,
				"y": 5.8624558934,
				"z": -1.4446565136,
				"element": "H" 
			},
			{
				"x": -1.7913397585,
				"y": 3.6911701142,
				"z": -2.5906320831,
				"element": "H" 
			},
			{
				"x": -3.5237663264,
				"y": 4.0242829232,
				"z": -2.5124206266,
				"element": "H" 
			},
			{
				"x": -2.8020484743,
				"y": 2.8505576225,
				"z": -1.4043578918,
				"element": "H" 
			},
			{
				"x": -1.3140182244,
				"y": 3.7910696108,
				"z": 0.6052912947,
				"element": "H" 
			},
			{
				"x": -1.1050717944,
				"y": 5.5259137698,
				"z": 0.7233617996,
				"element": "H" 
			},
			{
				"x": 0.9770964326,
				"y": 5.074417525,
				"z": -0.1390734736,
				"element": "H" 
			},
			{
				"x": 0.1260989677,
				"y": 5.2208299104,
				"z": -1.6519590562,
				"element": "H" 
			},
			{
				"x": 1.0957287112,
				"y": 3.2062201716,
				"z": -2.145118432,
				"element": "H" 
			},
			{
				"x": -0.2021251393,
				"y": 2.5158222107,
				"z": -1.1988456583,
				"element": "H" 
			},
			{
				"x": 2.4980760097,
				"y": 3.3701362355,
				"z": -0.0960773852,
				"element": "H" 
			},
			{
				"x": 0.4370380945,
				"y": 1.5796981556,
				"z": 1.2902791074,
				"element": "H" 
			},
			{
				"x": 2.0103171063,
				"y": 2.075123553,
				"z": 1.9250103601,
				"element": "H" 
			},
			{
				"x": 0.7647603061,
				"y": 3.2771440329,
				"z": 1.6307753006,
				"element": "H" 
			},
			{
				"x": 2.8693604779,
				"y": 1.8268342744,
				"z": -1.7948786628,
				"element": "H" 
			},
			{
				"x": 4.6203723079,
				"y": 0.76448937,
				"z": -0.6887472178,
				"element": "H" 
			},
			{
				"x": 4.1745998213,
				"y": 1.8869144265,
				"z": 0.5863628277,
				"element": "H" 
			},
			{
				"x": 4.2898453255,
				"y": -0.7470448635,
				"z": 1.1671246678,
				"element": "H" 
			},
			{
				"x": 2.9065323853,
				"y": 0.1578046272,
				"z": 1.7603476463,
				"element": "H" 
			},
			{
				"x": 3.0247223868,
				"y": -1.7837632953,
				"z": -0.5329875308,
				"element": "H" 
			},
			{
				"x": 0.7989629413,
				"y": -0.9517148884,
				"z": 1.3549550223,
				"element": "H" 
			},
			{
				"x": 2.5678714725,
				"y": -3.4359918157,
				"z": 1.2215641417,
				"element": "H" 
			},
			{
				"x": 2.6280466541,
				"y": -2.19876777,
				"z": 2.4719668082,
				"element": "H" 
			},
			{
				"x": 0.3647413342,
				"y": -2.7384541257,
				"z": 3.2257381885,
				"element": "H" 
			},
			{
				"x": 1.3227355093,
				"y": -4.2104972238,
				"z": 3.2251040521,
				"element": "H" 
			},
			{
				"x": -0.0307384142,
				"y": -5.9915628465,
				"z": 2.6395274869,
				"element": "H" 
			},
			{
				"x": -3.2317881403,
				"y": -4.7576648795,
				"z": 0.7538147722,
				"element": "H" 
			},
			{
				"x": -2.8526958378,
				"y": -5.845827341,
				"z": -0.5728522143,
				"element": "H" 
			},
			{
				"x": -0.7743106935,
				"y": -4.5988834057,
				"z": -1.0755509716,
				"element": "H" 
			},
			{
				"x": -2.1310140654,
				"y": -3.4841825385,
				"z": -1.1026424393,
				"element": "H" 
			},
			{
				"x": -1.2878494824,
				"y": -1.6162151092,
				"z": 2.0201261697,
				"element": "H" 
			},
			{
				"x": -2.2648549973,
				"y": -1.6001135476,
				"z": 0.5497900924,
				"element": "H" 
			},
			{
				"x": -2.5643318344,
				"y": -2.8089938448,
				"z": 1.8011574053,
				"element": "H" 
			},
			{
				"x": 0.9636393742,
				"y": -3.2355577523,
				"z": -0.6431149604,
				"element": "H" 
			},
			{
				"x": 0.0739567852,
				"y": -1.9502497248,
				"z": -2.2677653462,
				"element": "H" 
			},
			{
				"x": -1.263429796,
				"y": -1.4615765794,
				"z": -1.2709776,
				"element": "H" 
			},
			{
				"x": -0.0677776985,
				"y": 0.4098366849,
				"z": -0.3420997449,
				"element": "H" 
			},
			{
				"x": 0.0096665539,
				"y": 0.4799596185,
				"z": -2.0893244928,
				"element": "H" 
			},
			{
				"x": 3.5768748449,
				"y": -0.4095901863,
				"z": -2.5201686516,
				"element": "H" 
			},
			{
				"x": 2.2094140801,
				"y": -1.494711174,
				"z": -2.7533053013,
				"element": "H" 
			},
			{
				"x": 2.1148916662,
				"y": 0.1781732007,
				"z": -3.3262581239,
				"element": "H" 
			}
		],
		 "valence_orbital": [ 
			{
				"type": "occ",
				"energy": -0.28629,
				"method": "rhf"
			},
			{
				"type": "occ",
				"energy": -0.28266,
				"method": "rhf"
			},
			{
				"type": "occ",
				"energy": -0.28128,
				"method": "rhf"
			},
			{
				"type": "occ",
				"energy": -0.25141,
				"method": "rhf"
			},
			{
				"type": "occ",
				"energy": -0.22736,
				"method": "rhf"
			},
			{
				"type": "unocc",
				"energy": -0.04126,
				"method": "rhf"
			},
			{
				"type": "unocc",
				"energy": 0.057,
				"method": "rhf"
			},
			{
				"type": "unocc",
				"energy": 0.06701,
				"method": "rhf"
			},
			{
				"type": "unocc",
				"energy": 0.07082,
				"method": "rhf"
			},
			{
				"type": "unocc",
				"energy": 0.08065,
				"method": "rhf"
			}
		],
		"cosmo_sigma_profile": { 
			"-0.025": 0.0,
			"-0.024": 0.0,
			"-0.023": 0.0,
			"-0.022": 0.0,
			"-0.021": 0.0,
			"-0.02": 0.0,
			"-0.019": 0.0,
			"-0.018": 0.0,
			"-0.017": 0.0,
			"-0.016": 0.0,
			"-0.015": 0.0,
			"-0.014": 0.0,
			"-0.013": 0.0,
			"-0.012": 0.0,
			"-0.011": 0.0,
			"-0.01": 0.0,
			"-0.009": 0.0,
			"-0.008": 0.0,
			"-0.007": 0.0,
			"-0.006": 0.323370556532,
			"-0.005": 5.96157137739,
			"-0.004": 15.9899293135,
			"-0.003": 27.2779126605,
			"-0.002": 68.900699356,
			"-0.001": 110.240424199,
			"0.0": 101.542429723,
			"0.001": 63.4360907548,
			"0.002": 39.0373805116,
			"0.003": 8.16168272337,
			"0.004": 2.90434857536,
			"0.005": 1.58810759455,
			"0.006": 1.34763154771,
			"0.007": 1.60889829858,
			"0.008": 1.85413500183,
			"0.009": 1.34509170546,
			"0.01": 1.46064789079,
			"0.011": 2.08817150067,
			"0.012": 2.89147029471,
			"0.013": 4.76203792713,
			"0.014": 3.44240347791,
			"0.015": 0.727529593365,
			"0.016": 0.0,
			"0.017": 0.0,
			"0.018": 0.0,
			"0.019": 0.0,
			"0.02": 0.0,
			"0.021": 0.0,
			"0.022": 0.0,
			"0.023": 0.0,
			"0.024": 0.0,
			"0.025": 0.0
		}
	}
}
