{
	 "smiles": "CC(=O)NC1=CC=CC=C1C=CC1=C(C=C(C(C)=C1)[N+]([O-])=O)[N+]([O-])=O", 
	 "Tm": 525.15, 
	 "num_atms": 40, 
	 "gaussian": { 
		 "optdone": 1, 
		 "sigma_profile": "yes", 
		 "theory": "DFT", 
		 "functional": "B3LYP", 
		 "basiset": "6-31G**", 
		 "properties": { 
			 "R2extent": 11522.3258, 
			 "electric_dipole_moment_norm": 6.05980566438, 
			 "electric_quadrupole_moment_norm": 24.4528214525, 
			 "total_energy": -1197.02789348, 
			 "HOMO_LUMO_gap": 0.13, 
			 "cosmo_polarized_energy": -20.61, 
			 "cosmo_cavitation_energy": 46.11, 
			 "cosmo_dispersion_energy": -31.01, 
			 "cosmo_repulsion_energy": 2.33, 
			 "cosmo_total_nonelectrostatic_energy": 17.43, 
			 "SMD_solvation_energy": 13.0 
		},
		"coords": [
			{
				"x": -2.8530222857,
				"y": -1.4652720862,
				"z": 1.1681343374,
				"element": "C" 
			},
			{
				"x": -3.267823568,
				"y": -0.185998152,
				"z": 1.8718830257,
				"element": "C" 
			},
			{
				"x": -3.4719369634,
				"y": -0.1255335739,
				"z": 3.0744136973,
				"element": "O" 
			},
			{
				"x": -3.4169560417,
				"y": 0.9461374833,
				"z": 1.0826151039,
				"element": "N" 
			},
			{
				"x": -3.3102403561,
				"y": 1.0473489134,
				"z": -0.3363089115,
				"element": "C" 
			},
			{
				"x": -4.4744007547,
				"y": 1.1819525501,
				"z": -1.1005472863,
				"element": "C" 
			},
			{
				"x": -4.4045616036,
				"y": 1.2947441571,
				"z": -2.4873139029,
				"element": "C" 
			},
			{
				"x": -3.1595523672,
				"y": 1.2658358217,
				"z": -3.122072378,
				"element": "C" 
			},
			{
				"x": -1.9971318515,
				"y": 1.1414799702,
				"z": -2.3694464897,
				"element": "C" 
			},
			{
				"x": -2.0417023979,
				"y": 1.0375856708,
				"z": -0.9654596862,
				"element": "C" 
			},
			{
				"x": -0.8208837524,
				"y": 0.9761882805,
				"z": -0.1559508589,
				"element": "C" 
			},
			{
				"x": 0.3871118482,
				"y": 0.5639769083,
				"z": -0.593882287,
				"element": "C" 
			},
			{
				"x": 1.5962166051,
				"y": 0.540326546,
				"z": 0.2363105495,
				"element": "C" 
			},
			{
				"x": 2.9135652239,
				"y": 0.6300681714,
				"z": -0.2735081306,
				"element": "C" 
			},
			{
				"x": 4.0234718258,
				"y": 0.5433750937,
				"z": 0.5554158139,
				"element": "C" 
			},
			{
				"x": 3.8594892609,
				"y": 0.3886494793,
				"z": 1.9261609161,
				"element": "C" 
			},
			{
				"x": 2.5764379911,
				"y": 0.2902662393,
				"z": 2.5105129639,
				"element": "C" 
			},
			{
				"x": 2.294293107,
				"y": 0.099960539,
				"z": 3.9790167301,
				"element": "C" 
			},
			{
				"x": 1.4943716902,
				"y": 0.3539918822,
				"z": 1.6284416843,
				"element": "C" 
			},
			{
				"x": 5.0996785142,
				"y": 0.3298614717,
				"z": 2.7206572476,
				"element": "N" 
			},
			{
				"x": 5.0018781693,
				"y": 0.2723533534,
				"z": 3.9466849721,
				"element": "O" 
			},
			{
				"x": 6.167952679,
				"y": 0.3456092827,
				"z": 2.1111157078,
				"element": "O" 
			},
			{
				"x": 3.1997927196,
				"y": 0.8568550476,
				"z": -1.7019269887,
				"element": "N" 
			},
			{
				"x": 4.3323895252,
				"y": 0.5939597946,
				"z": -2.1004361687,
				"element": "O" 
			},
			{
				"x": 2.3017810858,
				"y": 1.3120357582,
				"z": -2.4131922301,
				"element": "O" 
			},
			{
				"x": -1.828871187,
				"y": -1.3959692499,
				"z": 0.7889462053,
				"element": "H" 
			},
			{
				"x": -3.5021185958,
				"y": -1.6776505587,
				"z": 0.3133466945,
				"element": "H" 
			},
			{
				"x": -2.9139007739,
				"y": -2.2780964409,
				"z": 1.8911969801,
				"element": "H" 
			},
			{
				"x": -3.8456463652,
				"y": 1.7156921367,
				"z": 1.5835802306,
				"element": "H" 
			},
			{
				"x": -5.4346878015,
				"y": 1.1844933906,
				"z": -0.5931574509,
				"element": "H" 
			},
			{
				"x": -5.315135255,
				"y": 1.4009172051,
				"z": -3.06900046,
				"element": "H" 
			},
			{
				"x": -3.094880337,
				"y": 1.3584239991,
				"z": -4.2018758394,
				"element": "H" 
			},
			{
				"x": -1.0328526853,
				"y": 1.1723185371,
				"z": -2.8665553455,
				"element": "H" 
			},
			{
				"x": -0.9332624247,
				"y": 1.3205691872,
				"z": 0.8689247847,
				"element": "H" 
			},
			{
				"x": 0.5008248501,
				"y": 0.2445613582,
				"z": -1.6214799197,
				"element": "H" 
			},
			{
				"x": 5.0178468253,
				"y": 0.6070454484,
				"z": 0.1366904215,
				"element": "H" 
			},
			{
				"x": 2.7922683639,
				"y": -0.7901603041,
				"z": 4.3706899149,
				"element": "H" 
			},
			{
				"x": 2.6730132828,
				"y": 0.9400977829,
				"z": 4.5661589329,
				"element": "H" 
			},
			{
				"x": 1.2177879339,
				"y": 0.0083669341,
				"z": 4.1405068843,
				"element": "H" 
			},
			{
				"x": 0.5035958662,
				"y": 0.2234319717,
				"z": 2.0490105357,
				"element": "H" 
			}
		],
		 "valence_orbital": [ 
			{
				"type": "occ",
				"energy": -0.29093,
				"method": "rhf"
			},
			{
				"type": "occ",
				"energy": -0.28927,
				"method": "rhf"
			},
			{
				"type": "occ",
				"energy": -0.26543,
				"method": "rhf"
			},
			{
				"type": "occ",
				"energy": -0.25643,
				"method": "rhf"
			},
			{
				"type": "occ",
				"energy": -0.24171,
				"method": "rhf"
			},
			{
				"type": "unocc",
				"energy": -0.11171,
				"method": "rhf"
			},
			{
				"type": "unocc",
				"energy": -0.09777,
				"method": "rhf"
			},
			{
				"type": "unocc",
				"energy": -0.05923,
				"method": "rhf"
			},
			{
				"type": "unocc",
				"energy": -0.03135,
				"method": "rhf"
			},
			{
				"type": "unocc",
				"energy": -0.02707,
				"method": "rhf"
			}
		],
		"cosmo_sigma_profile": { 
			"-0.025": 0.0,
			"-0.024": 0.0,
			"-0.023": 0.0,
			"-0.022": 0.0,
			"-0.021": 0.0,
			"-0.02": 0.0,
			"-0.019": 0.0,
			"-0.018": 0.0,
			"-0.017": 0.0,
			"-0.016": 0.0,
			"-0.015": 0.0233772829246,
			"-0.014": 0.736271018326,
			"-0.013": 1.22257678687,
			"-0.012": 0.634038692087,
			"-0.011": 0.784725007389,
			"-0.01": 1.04377259066,
			"-0.009": 1.59448395808,
			"-0.008": 4.84001318549,
			"-0.007": 11.0891683395,
			"-0.006": 19.7113434799,
			"-0.005": 28.3929197756,
			"-0.004": 30.3994821794,
			"-0.003": 30.2746819931,
			"-0.002": 42.3736938269,
			"-0.001": 35.1265408204,
			"0.0": 24.430029061,
			"0.001": 16.2177718542,
			"0.002": 15.1848493437,
			"0.003": 16.3832491185,
			"0.004": 15.1992456577,
			"0.005": 8.99244476443,
			"0.006": 8.37834216097,
			"0.007": 15.9364051487,
			"0.008": 11.8083774383,
			"0.009": 9.09321013303,
			"0.01": 5.41788622977,
			"0.011": 1.42710213723,
			"0.012": 2.55707307817,
			"0.013": 4.57100188266,
			"0.014": 4.29688365754,
			"0.015": 0.707088971522,
			"0.016": 0.0,
			"0.017": 0.0,
			"0.018": 0.0,
			"0.019": 0.0,
			"0.02": 0.0,
			"0.021": 0.0,
			"0.022": 0.0,
			"0.023": 0.0,
			"0.024": 0.0,
			"0.025": 0.0
		}
	}
}
