{
	 "smiles": "CN(C)C1=CC=C(C=C(C#N)C2=NC3=C(C=CC=C3)C(=O)N2)C=C1", 
	 "Tm": 581.15, 
	 "num_atms": 40, 
	 "gaussian": { 
		 "optdone": 1, 
		 "sigma_profile": "yes", 
		 "theory": "DFT", 
		 "functional": "B3LYP", 
		 "basiset": "6-31G**", 
		 "properties": { 
			 "R2extent": 10602.6781, 
			 "electric_dipole_moment_norm": 8.71842396652, 
			 "electric_quadrupole_moment_norm": 37.1924360852, 
			 "total_energy": -1027.89061944, 
			 "HOMO_LUMO_gap": 0.12516, 
			 "cosmo_polarized_energy": -23.17, 
			 "cosmo_cavitation_energy": 45.15, 
			 "cosmo_dispersion_energy": -31.16, 
			 "cosmo_repulsion_energy": 2.34, 
			 "cosmo_total_nonelectrostatic_energy": 16.34, 
			 "SMD_solvation_energy": 7.96 
		},
		"coords": [
			{
				"x": 0.5193189438,
				"y": -2.9303928039,
				"z": 5.0196082461,
				"element": "C" 
			},
			{
				"x": -0.0927617906,
				"y": -2.8151047921,
				"z": 3.7046555754,
				"element": "N" 
			},
			{
				"x": -1.0027889687,
				"y": -3.8533220424,
				"z": 3.2432687362,
				"element": "C" 
			},
			{
				"x": 0.1406109958,
				"y": -1.7051435736,
				"z": 2.929567182,
				"element": "C" 
			},
			{
				"x": 1.004220664,
				"y": -0.6665857436,
				"z": 3.3640275979,
				"element": "C" 
			},
			{
				"x": 1.2388861138,
				"y": 0.4393442809,
				"z": 2.5667407125,
				"element": "C" 
			},
			{
				"x": 0.662744642,
				"y": 0.5811314114,
				"z": 1.2851224838,
				"element": "C" 
			},
			{
				"x": 0.9541584661,
				"y": 1.7846156048,
				"z": 0.5238992407,
				"element": "C" 
			},
			{
				"x": 0.9106983562,
				"y": 2.0477803495,
				"z": -0.8182540563,
				"element": "C" 
			},
			{
				"x": 1.1011559642,
				"y": 3.4125292699,
				"z": -1.2199565831,
				"element": "C" 
			},
			{
				"x": 1.2733568124,
				"y": 4.5290432073,
				"z": -1.4999316169,
				"element": "N" 
			},
			{
				"x": 0.7388856704,
				"y": 1.0926647453,
				"z": -1.9414565251,
				"element": "C" 
			},
			{
				"x": 0.1789594237,
				"y": 1.5026580202,
				"z": -3.0384620688,
				"element": "N" 
			},
			{
				"x": 0.0784419716,
				"y": 0.6037253047,
				"z": -4.0883705911,
				"element": "C" 
			},
			{
				"x": 0.5547252943,
				"y": -0.7283083669,
				"z": -4.0065100731,
				"element": "C" 
			},
			{
				"x": 0.4232634829,
				"y": -1.6010210279,
				"z": -5.0966034582,
				"element": "C" 
			},
			{
				"x": -0.1779389124,
				"y": -1.1602122774,
				"z": -6.2663492587,
				"element": "C" 
			},
			{
				"x": -0.652778445,
				"y": 0.1611524529,
				"z": -6.3559730615,
				"element": "C" 
			},
			{
				"x": -0.5286483428,
				"y": 1.0337071409,
				"z": -5.2857045868,
				"element": "C" 
			},
			{
				"x": 1.1979405257,
				"y": -1.1811302994,
				"z": -2.7683125755,
				"element": "C" 
			},
			{
				"x": 1.6599224949,
				"y": -2.293042135,
				"z": -2.5492936771,
				"element": "O" 
			},
			{
				"x": 1.2560619818,
				"y": -0.1780672572,
				"z": -1.7914764034,
				"element": "N" 
			},
			{
				"x": -0.2284878671,
				"y": -0.4355480287,
				"z": 0.8757406272,
				"element": "C" 
			},
			{
				"x": -0.4863049418,
				"y": -1.5411928272,
				"z": 1.6663138512,
				"element": "C" 
			},
			{
				"x": 0.226177373,
				"y": -3.8790667305,
				"z": 5.4692930511,
				"element": "H" 
			},
			{
				"x": 1.614918518,
				"y": -2.9113556182,
				"z": 4.9583157657,
				"element": "H" 
			},
			{
				"x": 0.2013256706,
				"y": -2.1232655036,
				"z": 5.6932990434,
				"element": "H" 
			},
			{
				"x": -1.0165180392,
				"y": -4.6657079269,
				"z": 3.9699625023,
				"element": "H" 
			},
			{
				"x": -2.030344904,
				"y": -3.4814897069,
				"z": 3.1305721465,
				"element": "H" 
			},
			{
				"x": -0.6824434597,
				"y": -4.2689741658,
				"z": 2.2800718351,
				"element": "H" 
			},
			{
				"x": 1.4868389597,
				"y": -0.7239911106,
				"z": 4.3313915694,
				"element": "H" 
			},
			{
				"x": 1.901653876,
				"y": 1.2183547795,
				"z": 2.9351776893,
				"element": "H" 
			},
			{
				"x": 1.2441355982,
				"y": 2.6354003157,
				"z": 1.1380957337,
				"element": "H" 
			},
			{
				"x": 0.8037592297,
				"y": -2.6120599509,
				"z": -4.994315979,
				"element": "H" 
			},
			{
				"x": -0.2814509751,
				"y": -1.831747986,
				"z": -7.1131912792,
				"element": "H" 
			},
			{
				"x": -1.1213753806,
				"y": 0.5023261682,
				"z": -7.2747520247,
				"element": "H" 
			},
			{
				"x": -0.8875691379,
				"y": 2.0561605761,
				"z": -5.3367024498,
				"element": "H" 
			},
			{
				"x": 1.7016364754,
				"y": -0.446502998,
				"z": -0.9222469151,
				"element": "H" 
			},
			{
				"x": -0.7573893604,
				"y": -0.3416116481,
				"z": -0.066155629,
				"element": "H" 
			},
			{
				"x": -1.191896979,
				"y": -2.2794491064,
				"z": 1.3072952231,
				"element": "H" 
			}
		],
		 "valence_orbital": [ 
			{
				"type": "occ",
				"energy": -0.26892,
				"method": "rhf"
			},
			{
				"type": "occ",
				"energy": -0.26098,
				"method": "rhf"
			},
			{
				"type": "occ",
				"energy": -0.25881,
				"method": "rhf"
			},
			{
				"type": "occ",
				"energy": -0.23017,
				"method": "rhf"
			},
			{
				"type": "occ",
				"energy": -0.20574,
				"method": "rhf"
			},
			{
				"type": "unocc",
				"energy": -0.08058,
				"method": "rhf"
			},
			{
				"type": "unocc",
				"energy": -0.0392,
				"method": "rhf"
			},
			{
				"type": "unocc",
				"energy": -0.02223,
				"method": "rhf"
			},
			{
				"type": "unocc",
				"energy": -0.01842,
				"method": "rhf"
			},
			{
				"type": "unocc",
				"energy": 0.02187,
				"method": "rhf"
			}
		],
		"cosmo_sigma_profile": { 
			"-0.025": 0.0,
			"-0.024": 0.0,
			"-0.023": 0.0,
			"-0.022": 0.0,
			"-0.021": 0.0,
			"-0.02": 0.0,
			"-0.019": 0.0,
			"-0.018": 0.0,
			"-0.017": 0.0,
			"-0.016": 0.0,
			"-0.015": 0.000130432223533,
			"-0.014": 0.330470261298,
			"-0.013": 0.52010602304,
			"-0.012": 0.471016412656,
			"-0.011": 0.577702806349,
			"-0.01": 1.31002623649,
			"-0.009": 1.38820400943,
			"-0.008": 4.648267147,
			"-0.007": 10.9488183637,
			"-0.006": 22.9245862247,
			"-0.005": 33.2393981497,
			"-0.004": 31.5711193961,
			"-0.003": 31.4819545328,
			"-0.002": 32.1649642663,
			"-0.001": 22.6052229018,
			"0.0": 20.2486120628,
			"0.001": 22.3048237383,
			"0.002": 23.3302517972,
			"0.003": 25.7854316379,
			"0.004": 17.8476430752,
			"0.005": 6.94368940159,
			"0.006": 4.97917825008,
			"0.007": 5.64931347414,
			"0.008": 4.976313384,
			"0.009": 7.01618696488,
			"0.01": 6.62550136635,
			"0.011": 5.97520460186,
			"0.012": 7.58008121436,
			"0.013": 8.09704960476,
			"0.014": 1.08343292794,
			"0.015": 0.0,
			"0.016": 0.0,
			"0.017": 0.0,
			"0.018": 0.0,
			"0.019": 0.0,
			"0.02": 0.0,
			"0.021": 0.0,
			"0.022": 0.0,
			"0.023": 0.0,
			"0.024": 0.0,
			"0.025": 0.0
		}
	}
}
