{
	 "smiles": "CNC1=NN=C(C)C=C1", 
	 "Tm": 436.15, 
	 "num_atms": 18, 
	 "gaussian": { 
		 "optdone": 1, 
		 "sigma_profile": "yes", 
		 "theory": "DFT", 
		 "functional": "B3LYP", 
		 "basiset": "6-31G**", 
		 "properties": { 
			 "R2extent": 1804.1435, 
			 "electric_dipole_moment_norm": 3.9757294991, 
			 "electric_quadrupole_moment_norm": 10.3801394547, 
			 "total_energy": -398.286186609, 
			 "HOMO_LUMO_gap": 0.17681, 
			 "cosmo_polarized_energy": -12.52, 
			 "cosmo_cavitation_energy": 21.57, 
			 "cosmo_dispersion_energy": -16.21, 
			 "cosmo_repulsion_energy": 1.34, 
			 "cosmo_total_nonelectrostatic_energy": 6.69, 
			 "SMD_solvation_energy": 1.58 
		},
		"coords": [
			{
				"x": -1.6490422474,
				"y": -3.852212033,
				"z": -0.3502738469,
				"element": "C" 
			},
			{
				"x": -1.7110843258,
				"y": -2.4084724003,
				"z": -0.2835453231,
				"element": "N" 
			},
			{
				"x": -0.7451799681,
				"y": -1.632703571,
				"z": 0.306136676,
				"element": "C" 
			},
			{
				"x": -1.1099917887,
				"y": -0.3579972685,
				"z": 0.547455785,
				"element": "N" 
			},
			{
				"x": -0.2467419958,
				"y": 0.4975754286,
				"z": 1.0800518171,
				"element": "N" 
			},
			{
				"x": 0.9961740104,
				"y": 0.1139622714,
				"z": 1.3964801008,
				"element": "C" 
			},
			{
				"x": 1.8942471494,
				"y": 1.1650365608,
				"z": 1.995165722,
				"element": "C" 
			},
			{
				"x": 1.4241771653,
				"y": -1.2087553397,
				"z": 1.1802214192,
				"element": "C" 
			},
			{
				"x": 0.544248653,
				"y": -2.1127126306,
				"z": 0.6257287739,
				"element": "C" 
			},
			{
				"x": -2.5661133845,
				"y": -4.2210952055,
				"z": -0.8136998909,
				"element": "H" 
			},
			{
				"x": -0.8107376065,
				"y": -4.1842076342,
				"z": -0.9746881165,
				"element": "H" 
			},
			{
				"x": -1.547563671,
				"y": -4.3282168402,
				"z": 0.6372421201,
				"element": "H" 
			},
			{
				"x": -2.6174489553,
				"y": -1.9624479805,
				"z": -0.3019749427,
				"element": "H" 
			},
			{
				"x": 2.7828091652,
				"y": 1.3354626135,
				"z": 1.3758491592,
				"element": "H" 
			},
			{
				"x": 1.3432969042,
				"y": 2.1035965002,
				"z": 2.0780259578,
				"element": "H" 
			},
			{
				"x": 2.2441099654,
				"y": 0.8755530045,
				"z": 2.9930845091,
				"element": "H" 
			},
			{
				"x": 2.4329309892,
				"y": -1.5098464016,
				"z": 1.4501828135,
				"element": "H" 
			},
			{
				"x": 0.8285099411,
				"y": -3.143019074,
				"z": 0.4417572664,
				"element": "H" 
			}
		],
		 "valence_orbital": [ 
			{
				"type": "occ",
				"energy": -0.31203,
				"method": "rhf"
			},
			{
				"type": "occ",
				"energy": -0.30252,
				"method": "rhf"
			},
			{
				"type": "occ",
				"energy": -0.28991,
				"method": "rhf"
			},
			{
				"type": "occ",
				"energy": -0.21574,
				"method": "rhf"
			},
			{
				"type": "occ",
				"energy": -0.21032,
				"method": "rhf"
			},
			{
				"type": "unocc",
				"energy": -0.03351,
				"method": "rhf"
			},
			{
				"type": "unocc",
				"energy": 0.00596,
				"method": "rhf"
			},
			{
				"type": "unocc",
				"energy": 0.08617,
				"method": "rhf"
			},
			{
				"type": "unocc",
				"energy": 0.09617,
				"method": "rhf"
			},
			{
				"type": "unocc",
				"energy": 0.11915,
				"method": "rhf"
			}
		],
		"cosmo_sigma_profile": { 
			"-0.025": 0.0,
			"-0.024": 0.0,
			"-0.023": 0.0,
			"-0.022": 0.0,
			"-0.021": 0.0,
			"-0.02": 0.0,
			"-0.019": 0.0,
			"-0.018": 0.0,
			"-0.017": 0.0,
			"-0.016": 0.0,
			"-0.015": 0.0,
			"-0.014": 0.0,
			"-0.013": 0.405300577058,
			"-0.012": 1.14386669978,
			"-0.011": 0.788069859523,
			"-0.01": 1.02981849917,
			"-0.009": 0.828530974896,
			"-0.008": 1.73515277235,
			"-0.007": 5.78262677758,
			"-0.006": 7.58714965678,
			"-0.005": 11.2313192009,
			"-0.004": 16.9990522768,
			"-0.003": 17.1761439045,
			"-0.002": 16.6928122102,
			"-0.001": 15.188760146,
			"0.0": 13.0955283895,
			"0.001": 13.0332636392,
			"0.002": 10.8188015831,
			"0.003": 4.37778908821,
			"0.004": 3.20343721737,
			"0.005": 3.46120904596,
			"0.006": 3.33356650794,
			"0.007": 2.51277073037,
			"0.008": 2.2242626768,
			"0.009": 2.25561627929,
			"0.01": 1.79847637359,
			"0.011": 2.00209648775,
			"0.012": 1.91750502953,
			"0.013": 1.75581740363,
			"0.014": 2.14232776731,
			"0.015": 2.66344202938,
			"0.016": 2.44760647965,
			"0.017": 1.08957023117,
			"0.018": 0.0254017886863,
			"0.019": 0.0,
			"0.02": 0.0,
			"0.021": 0.0,
			"0.022": 0.0,
			"0.023": 0.0,
			"0.024": 0.0,
			"0.025": 0.0
		}
	}
}
