{
	 "smiles": "CC(C)(O)CN1CCNCC1", 
	 "Tm": 335.15, 
	 "num_atms": 29, 
	 "gaussian": { 
		 "optdone": 1, 
		 "sigma_profile": "yes", 
		 "theory": "DFT", 
		 "functional": "B3LYP", 
		 "basiset": "6-31G**", 
		 "properties": { 
			 "R2extent": 2228.5617, 
			 "electric_dipole_moment_norm": 1.81030475059, 
			 "electric_quadrupole_moment_norm": 5.56019089061, 
			 "total_energy": -500.408012618, 
			 "HOMO_LUMO_gap": 0.25359, 
			 "cosmo_polarized_energy": -9.9, 
			 "cosmo_cavitation_energy": 28.45, 
			 "cosmo_dispersion_energy": -20.35, 
			 "cosmo_repulsion_energy": 1.62, 
			 "cosmo_total_nonelectrostatic_energy": 9.73, 
			 "SMD_solvation_energy": 0.87 
		},
		"coords": [
			{
				"x": 2.722203072,
				"y": -0.329853351,
				"z": -0.4988365087,
				"element": "C" 
			},
			{
				"x": 1.779497876,
				"y": -1.4142164083,
				"z": 0.0357275409,
				"element": "C" 
			},
			{
				"x": 1.5401743585,
				"y": -2.5000450177,
				"z": -1.0198431649,
				"element": "C" 
			},
			{
				"x": 2.3260528345,
				"y": -1.9987274455,
				"z": 1.2291876542,
				"element": "O" 
			},
			{
				"x": 0.4453399682,
				"y": -0.8044952749,
				"z": 0.5237998919,
				"element": "C" 
			},
			{
				"x": -0.3101504896,
				"y": -0.1358196479,
				"z": -0.5417296153,
				"element": "N" 
			},
			{
				"x": -1.5969486796,
				"y": -0.7600351225,
				"z": -0.8783161085,
				"element": "C" 
			},
			{
				"x": -2.7192449942,
				"y": -0.3974439319,
				"z": 0.1107680966,
				"element": "C" 
			},
			{
				"x": -2.8754530197,
				"y": 1.0516673042,
				"z": 0.2984206962,
				"element": "N" 
			},
			{
				"x": -1.5890502186,
				"y": 1.6867941471,
				"z": 0.6166475595,
				"element": "C" 
			},
			{
				"x": -0.4714269221,
				"y": 1.3149920362,
				"z": -0.3743855385,
				"element": "C" 
			},
			{
				"x": 2.2727861867,
				"y": 0.1884923047,
				"z": -1.3505984498,
				"element": "H" 
			},
			{
				"x": 2.945722748,
				"y": 0.4006805211,
				"z": 0.2853135786,
				"element": "H" 
			},
			{
				"x": 3.6702099828,
				"y": -0.7695277533,
				"z": -0.8328328455,
				"element": "H" 
			},
			{
				"x": 0.9261843681,
				"y": -3.3057394606,
				"z": -0.6046440244,
				"element": "H" 
			},
			{
				"x": 1.0359599105,
				"y": -2.0838555024,
				"z": -1.8966193491,
				"element": "H" 
			},
			{
				"x": 2.4909558372,
				"y": -2.9351730588,
				"z": -1.3518740823,
				"element": "H" 
			},
			{
				"x": 3.1726648893,
				"y": -2.4015755859,
				"z": 0.9956515426,
				"element": "H" 
			},
			{
				"x": -0.1364304884,
				"y": -1.6158746967,
				"z": 0.9791993687,
				"element": "H" 
			},
			{
				"x": 0.6835520929,
				"y": -0.1119763495,
				"z": 1.340927282,
				"element": "H" 
			},
			{
				"x": -1.8865197922,
				"y": -0.4174147513,
				"z": -1.8836409249,
				"element": "H" 
			},
			{
				"x": -1.4624001282,
				"y": -1.8453647205,
				"z": -0.9404095557,
				"element": "H" 
			},
			{
				"x": -3.6769391863,
				"y": -0.8157834332,
				"z": -0.2220464762,
				"element": "H" 
			},
			{
				"x": -2.502028594,
				"y": -0.8394769941,
				"z": 1.0929854172,
				"element": "H" 
			},
			{
				"x": -3.2315433231,
				"y": 1.454968226,
				"z": -0.5678867752,
				"element": "H" 
			},
			{
				"x": -1.303434414,
				"y": 1.372332586,
				"z": 1.6300348468,
				"element": "H" 
			},
			{
				"x": -1.7302936537,
				"y": 2.7739869476,
				"z": 0.6485673995,
				"element": "H" 
			},
			{
				"x": -0.7140717911,
				"y": 1.7441334376,
				"z": -1.3587078927,
				"element": "H" 
			},
			{
				"x": 0.4868315702,
				"y": 1.7481509957,
				"z": -0.067759563,
				"element": "H" 
			}
		],
		 "valence_orbital": [ 
			{
				"type": "occ",
				"energy": -0.32995,
				"method": "rhf"
			},
			{
				"type": "occ",
				"energy": -0.31315,
				"method": "rhf"
			},
			{
				"type": "occ",
				"energy": -0.25928,
				"method": "rhf"
			},
			{
				"type": "occ",
				"energy": -0.24345,
				"method": "rhf"
			},
			{
				"type": "occ",
				"energy": -0.18332,
				"method": "rhf"
			},
			{
				"type": "unocc",
				"energy": 0.07027,
				"method": "rhf"
			},
			{
				"type": "unocc",
				"energy": 0.08629,
				"method": "rhf"
			},
			{
				"type": "unocc",
				"energy": 0.09678,
				"method": "rhf"
			},
			{
				"type": "unocc",
				"energy": 0.119,
				"method": "rhf"
			},
			{
				"type": "unocc",
				"energy": 0.12272,
				"method": "rhf"
			}
		],
		"cosmo_sigma_profile": { 
			"-0.025": 0.0,
			"-0.024": 0.0,
			"-0.023": 0.0,
			"-0.022": 0.0,
			"-0.021": 0.0,
			"-0.02": 0.0,
			"-0.019": 0.0,
			"-0.018": 0.0,
			"-0.017": 0.0,
			"-0.016": 0.0,
			"-0.015": 0.153414915048,
			"-0.014": 0.768051190535,
			"-0.013": 0.888329420656,
			"-0.012": 1.04985747164,
			"-0.011": 0.583512419663,
			"-0.01": 1.18685646648,
			"-0.009": 2.28723893559,
			"-0.008": 2.17786950919,
			"-0.007": 2.30765163942,
			"-0.006": 3.36689263737,
			"-0.005": 3.52066833743,
			"-0.004": 7.93049336101,
			"-0.003": 32.8807328013,
			"-0.002": 34.4677598005,
			"-0.001": 29.0641655166,
			"0.0": 24.7776376672,
			"0.001": 20.5842187686,
			"0.002": 10.786522891,
			"0.003": 5.37919772202,
			"0.004": 2.92227312416,
			"0.005": 3.6541713898,
			"0.006": 2.80905509958,
			"0.007": 2.94560363226,
			"0.008": 2.76059315135,
			"0.009": 2.40153634637,
			"0.01": 2.79292723452,
			"0.011": 2.51043354519,
			"0.012": 2.19179433493,
			"0.013": 1.77455919185,
			"0.014": 2.75599533616,
			"0.015": 1.71804461273,
			"0.016": 0.318943410495,
			"0.017": 0.950647473774,
			"0.018": 0.335619424852,
			"0.019": 0.497133937596,
			"0.02": 0.0311042360838,
			"0.021": 0.0,
			"0.022": 0.0,
			"0.023": 0.0,
			"0.024": 0.0,
			"0.025": 0.0
		}
	}
}
