{
	 "smiles": "CC(CC1=CC=C(O)C(O)=C1)C(C)CC1=CC=C(O)C(O)=C1", 
	 "Tm": 459.15, 
	 "num_atms": 44, 
	 "gaussian": { 
		 "optdone": 1, 
		 "sigma_profile": "yes", 
		 "theory": "DFT", 
		 "functional": "B3LYP", 
		 "basiset": "6-31G**", 
		 "properties": { 
			 "R2extent": 8838.5237, 
			 "electric_dipole_moment_norm": 0.618457314614, 
			 "electric_quadrupole_moment_norm": 20.4302366234, 
			 "total_energy": -1000.07272809, 
			 "HOMO_LUMO_gap": 0.20139, 
			 "cosmo_polarized_energy": -18.67, 
			 "cosmo_cavitation_energy": 45.2, 
			 "cosmo_dispersion_energy": -30.67, 
			 "cosmo_repulsion_energy": 2.34, 
			 "cosmo_total_nonelectrostatic_energy": 16.88, 
			 "SMD_solvation_energy": 8.15 
		},
		"coords": [
			{
				"x": 2.4420874752,
				"y": 0.2606125217,
				"z": -2.4119267297,
				"element": "C" 
			},
			{
				"x": 1.1138431907,
				"y": -0.0406874446,
				"z": -1.6978293855,
				"element": "C" 
			},
			{
				"x": 1.1055224783,
				"y": 0.5630175992,
				"z": -0.2660044832,
				"element": "C" 
			},
			{
				"x": 2.1077115752,
				"y": -0.0695805316,
				"z": 0.6793217322,
				"element": "C" 
			},
			{
				"x": 1.8557997853,
				"y": -1.3158165441,
				"z": 1.2671434411,
				"element": "C" 
			},
			{
				"x": 2.7771680266,
				"y": -1.9119579475,
				"z": 2.1308275277,
				"element": "C" 
			},
			{
				"x": 3.9759616817,
				"y": -1.2698520572,
				"z": 2.4297473735,
				"element": "C" 
			},
			{
				"x": 4.877906242,
				"y": -1.8469723975,
				"z": 3.2764019347,
				"element": "O" 
			},
			{
				"x": 4.2375709397,
				"y": -0.017472687,
				"z": 1.8521238154,
				"element": "C" 
			},
			{
				"x": 5.443168109,
				"y": 0.5487760245,
				"z": 2.2088997944,
				"element": "O" 
			},
			{
				"x": 3.3168394563,
				"y": 0.571780686,
				"z": 0.9914603558,
				"element": "C" 
			},
			{
				"x": -0.0955211229,
				"y": 0.4040666805,
				"z": -2.5775346113,
				"element": "C" 
			},
			{
				"x": -0.42578496,
				"y": 1.900713741,
				"z": -2.4615736944,
				"element": "C" 
			},
			{
				"x": -1.3570343372,
				"y": -0.4990575177,
				"z": -2.4299254325,
				"element": "C" 
			},
			{
				"x": -2.0402031022,
				"y": -0.5757126741,
				"z": -1.0787562944,
				"element": "C" 
			},
			{
				"x": -1.8383464276,
				"y": -1.6766694703,
				"z": -0.2372762951,
				"element": "C" 
			},
			{
				"x": -2.4658953684,
				"y": -1.7564461021,
				"z": 1.0110687015,
				"element": "C" 
			},
			{
				"x": -3.3092669834,
				"y": -0.7346966502,
				"z": 1.4286908911,
				"element": "C" 
			},
			{
				"x": -3.9823086442,
				"y": -0.7070055907,
				"z": 2.6305458633,
				"element": "O" 
			},
			{
				"x": -3.5406458413,
				"y": 0.3706062129,
				"z": 0.5912459846,
				"element": "C" 
			},
			{
				"x": -4.3821635447,
				"y": 1.3676106757,
				"z": 0.9855725011,
				"element": "O" 
			},
			{
				"x": -2.9133010145,
				"y": 0.4378603697,
				"z": -0.6493139882,
				"element": "C" 
			},
			{
				"x": 3.2972880673,
				"y": -0.066410785,
				"z": -1.8136154989,
				"element": "H" 
			},
			{
				"x": 2.5593396388,
				"y": 1.3353644433,
				"z": -2.5986991728,
				"element": "H" 
			},
			{
				"x": 2.4943336814,
				"y": -0.2504703161,
				"z": -3.3793773326,
				"element": "H" 
			},
			{
				"x": 1.0477216873,
				"y": -1.1321540004,
				"z": -1.5856048623,
				"element": "H" 
			},
			{
				"x": 1.3053231597,
				"y": 1.6392377046,
				"z": -0.3329565908,
				"element": "H" 
			},
			{
				"x": 0.1030248867,
				"y": 0.4587922694,
				"z": 0.1591746883,
				"element": "H" 
			},
			{
				"x": 0.9181963973,
				"y": -1.8221594149,
				"z": 1.0567591496,
				"element": "H" 
			},
			{
				"x": 2.5792855217,
				"y": -2.8758383748,
				"z": 2.5890657502,
				"element": "H" 
			},
			{
				"x": 5.6302432882,
				"y": -1.2414123198,
				"z": 3.3516194521,
				"element": "H" 
			},
			{
				"x": 5.5401114654,
				"y": 1.4053327823,
				"z": 1.775614883,
				"element": "H" 
			},
			{
				"x": 3.5395690166,
				"y": 1.5465893059,
				"z": 0.5598602157,
				"element": "H" 
			},
			{
				"x": 0.220203341,
				"y": 0.2375608998,
				"z": -3.6176177361,
				"element": "H" 
			},
			{
				"x": -0.8152283644,
				"y": 2.1632652581,
				"z": -1.4740782782,
				"element": "H" 
			},
			{
				"x": 0.4592507912,
				"y": 2.5192399685,
				"z": -2.645012723,
				"element": "H" 
			},
			{
				"x": -1.1814471198,
				"y": 2.186107059,
				"z": -3.2020919545,
				"element": "H" 
			},
			{
				"x": -1.070654867,
				"y": -1.5149855011,
				"z": -2.7278683209,
				"element": "H" 
			},
			{
				"x": -2.0875285639,
				"y": -0.1583720724,
				"z": -3.1756650992,
				"element": "H" 
			},
			{
				"x": -1.1923836225,
				"y": -2.4887619248,
				"z": -0.5583659131,
				"element": "H" 
			},
			{
				"x": -2.302686542,
				"y": -2.6194179559,
				"z": 1.6534872638,
				"element": "H" 
			},
			{
				"x": -3.7565627277,
				"y": -1.4882328356,
				"z": 3.1497580796,
				"element": "H" 
			},
			{
				"x": -4.7158199274,
				"y": 1.1344082888,
				"z": 1.8648402483,
				"element": "H" 
			},
			{
				"x": -3.1285868214,
				"y": 1.2943006243,
				"z": -1.2801352502,
				"element": "H" 
			}
		],
		 "valence_orbital": [ 
			{
				"type": "occ",
				"energy": -0.29582,
				"method": "rhf"
			},
			{
				"type": "occ",
				"energy": -0.23386,
				"method": "rhf"
			},
			{
				"type": "occ",
				"energy": -0.23123,
				"method": "rhf"
			},
			{
				"type": "occ",
				"energy": -0.20496,
				"method": "rhf"
			},
			{
				"type": "occ",
				"energy": -0.19772,
				"method": "rhf"
			},
			{
				"type": "unocc",
				"energy": 0.00367,
				"method": "rhf"
			},
			{
				"type": "unocc",
				"energy": 0.01152,
				"method": "rhf"
			},
			{
				"type": "unocc",
				"energy": 0.01634,
				"method": "rhf"
			},
			{
				"type": "unocc",
				"energy": 0.02338,
				"method": "rhf"
			},
			{
				"type": "unocc",
				"energy": 0.05461,
				"method": "rhf"
			}
		],
		"cosmo_sigma_profile": { 
			"-0.025": 0.0,
			"-0.024": 0.0,
			"-0.023": 0.0,
			"-0.022": 0.0,
			"-0.021": 0.0,
			"-0.02": 0.0,
			"-0.019": 0.0,
			"-0.018": 1.07712303737,
			"-0.017": 2.32824365728,
			"-0.016": 2.03539747027,
			"-0.015": 2.04212672785,
			"-0.014": 3.13886822612,
			"-0.013": 3.18383353314,
			"-0.012": 2.22933710069,
			"-0.011": 2.17010598296,
			"-0.01": 4.20748305737,
			"-0.009": 3.69188502884,
			"-0.008": 3.76631910806,
			"-0.007": 2.90695883109,
			"-0.006": 5.2002531709,
			"-0.005": 9.12883590519,
			"-0.004": 13.1083557795,
			"-0.003": 22.5364000458,
			"-0.002": 35.9094162224,
			"-0.001": 34.2823785146,
			"0.0": 32.9418372864,
			"0.001": 31.1828032647,
			"0.002": 30.0011174119,
			"0.003": 21.7788181387,
			"0.004": 23.0826114711,
			"0.005": 19.4091686478,
			"0.006": 16.496777293,
			"0.007": 7.79740899128,
			"0.008": 4.6733261921,
			"0.009": 3.20675424261,
			"0.01": 3.60997950429,
			"0.011": 3.63269306049,
			"0.012": 3.1633720911,
			"0.013": 0.0856429451835,
			"0.014": 0.0,
			"0.015": 0.0,
			"0.016": 0.0,
			"0.017": 0.0,
			"0.018": 0.0,
			"0.019": 0.0,
			"0.02": 0.0,
			"0.021": 0.0,
			"0.022": 0.0,
			"0.023": 0.0,
			"0.024": 0.0,
			"0.025": 0.0
		}
	}
}
