{
	 "smiles": "CN(C1=CC=C(O)C=C1)S(=O)(=O)C1=C(F)C=CC=C1", 
	 "Tm": 374.15, 
	 "num_atms": 31, 
	 "gaussian": { 
		 "optdone": 1, 
		 "sigma_profile": "yes", 
		 "theory": "DFT", 
		 "functional": "B3LYP", 
		 "basiset": "6-31G**", 
		 "properties": { 
			 "R2extent": 6262.9074, 
			 "electric_dipole_moment_norm": 3.84714675311, 
			 "electric_quadrupole_moment_norm": 30.5827754018, 
			 "total_energy": -1280.97345227, 
			 "HOMO_LUMO_gap": 0.17934, 
			 "cosmo_polarized_energy": -19.55, 
			 "cosmo_cavitation_energy": 36.69, 
			 "cosmo_dispersion_energy": -25.93, 
			 "cosmo_repulsion_energy": 1.92, 
			 "cosmo_total_nonelectrostatic_energy": 12.69, 
			 "SMD_solvation_energy": 6.36 
		},
		"coords": [
			{
				"x": -1.5492198053,
				"y": 0.4573760949,
				"z": 1.2930685047,
				"element": "C" 
			},
			{
				"x": -0.6448413756,
				"y": 0.8680576575,
				"z": 0.2084337497,
				"element": "N" 
			},
			{
				"x": -0.694804004,
				"y": 2.25196377,
				"z": -0.1953819088,
				"element": "C" 
			},
			{
				"x": -0.9931489912,
				"y": 2.5540836605,
				"z": -1.5286121844,
				"element": "C" 
			},
			{
				"x": -1.0863499683,
				"y": 3.8754761124,
				"z": -1.9494411847,
				"element": "C" 
			},
			{
				"x": -0.8814196775,
				"y": 4.9137955768,
				"z": -1.0324622053,
				"element": "C" 
			},
			{
				"x": -0.9920091837,
				"y": 6.1920937944,
				"z": -1.4969368521,
				"element": "O" 
			},
			{
				"x": -0.5782616229,
				"y": 4.6186288628,
				"z": 0.3017952235,
				"element": "C" 
			},
			{
				"x": -0.4798816668,
				"y": 3.2913530674,
				"z": 0.7145356668,
				"element": "C" 
			},
			{
				"x": 0.9051750532,
				"y": 0.1646849144,
				"z": 0.2801167739,
				"element": "S" 
			},
			{
				"x": 1.321045369,
				"y": -0.0105974098,
				"z": 1.6797181733,
				"element": "O" 
			},
			{
				"x": 1.7562164933,
				"y": 0.8820773566,
				"z": -0.6653309694,
				"element": "O" 
			},
			{
				"x": 0.5734301306,
				"y": -1.4851150342,
				"z": -0.3527506992,
				"element": "C" 
			},
			{
				"x": 0.1089141208,
				"y": -1.6883471676,
				"z": -1.6552945492,
				"element": "C" 
			},
			{
				"x": -0.1455332232,
				"y": -0.6381950206,
				"z": -2.4533475281,
				"element": "F" 
			},
			{
				"x": -0.1048817983,
				"y": -2.9676410103,
				"z": -2.152464556,
				"element": "C" 
			},
			{
				"x": 0.1590708455,
				"y": -4.0664012424,
				"z": -1.3329698503,
				"element": "C" 
			},
			{
				"x": 0.6288548997,
				"y": -3.8828250824,
				"z": -0.0308546024,
				"element": "C" 
			},
			{
				"x": 0.8365042919,
				"y": -2.5928014168,
				"z": 0.4575541264,
				"element": "C" 
			},
			{
				"x": -2.5555127104,
				"y": 0.7880567723,
				"z": 1.0276141605,
				"element": "H" 
			},
			{
				"x": -1.5554674091,
				"y": -0.6331107897,
				"z": 1.3704870299,
				"element": "H" 
			},
			{
				"x": -1.2733068331,
				"y": 0.8725271367,
				"z": 2.2692616916,
				"element": "H" 
			},
			{
				"x": -1.1425582699,
				"y": 1.7376415699,
				"z": -2.2259010596,
				"element": "H" 
			},
			{
				"x": -1.314743572,
				"y": 4.12414728,
				"z": -2.9803071617,
				"element": "H" 
			},
			{
				"x": -0.8048800069,
				"y": 6.8093709986,
				"z": -0.7778583096,
				"element": "H" 
			},
			{
				"x": -0.4107063168,
				"y": 5.4239416599,
				"z": 1.013860618,
				"element": "H" 
			},
			{
				"x": -0.2288338899,
				"y": 3.0658134249,
				"z": 1.7465226859,
				"element": "H" 
			},
			{
				"x": -0.4684097632,
				"y": -3.0820631867,
				"z": -3.167846536,
				"element": "H" 
			},
			{
				"x": -0.0036203706,
				"y": -5.0685245737,
				"z": -1.7178378645,
				"element": "H" 
			},
			{
				"x": 0.8351718814,
				"y": -4.7395002366,
				"z": 0.6023243646,
				"element": "H" 
			},
			{
				"x": 1.2045073734,
				"y": -2.4185675394,
				"z": 1.4627052525,
				"element": "H" 
			}
		],
		 "valence_orbital": [ 
			{
				"type": "occ",
				"energy": -0.28186,
				"method": "rhf"
			},
			{
				"type": "occ",
				"energy": -0.26547,
				"method": "rhf"
			},
			{
				"type": "occ",
				"energy": -0.25562,
				"method": "rhf"
			},
			{
				"type": "occ",
				"energy": -0.25312,
				"method": "rhf"
			},
			{
				"type": "occ",
				"energy": -0.22146,
				"method": "rhf"
			},
			{
				"type": "unocc",
				"energy": -0.04212,
				"method": "rhf"
			},
			{
				"type": "unocc",
				"energy": -0.01933,
				"method": "rhf"
			},
			{
				"type": "unocc",
				"energy": -0.00707,
				"method": "rhf"
			},
			{
				"type": "unocc",
				"energy": 0.00149,
				"method": "rhf"
			},
			{
				"type": "unocc",
				"energy": 0.05413,
				"method": "rhf"
			}
		],
		"cosmo_sigma_profile": { 
			"-0.025": 0.0,
			"-0.024": 0.0,
			"-0.023": 0.0,
			"-0.022": 0.0,
			"-0.021": 0.0,
			"-0.02": 0.0,
			"-0.019": 0.0,
			"-0.018": 0.606514070167,
			"-0.017": 1.241278755,
			"-0.016": 1.33372424726,
			"-0.015": 0.715993490595,
			"-0.014": 1.18421021694,
			"-0.013": 1.30219706537,
			"-0.012": 0.607827894676,
			"-0.011": 0.84887867847,
			"-0.01": 1.09530692072,
			"-0.009": 1.59341458126,
			"-0.008": 3.87569319544,
			"-0.007": 11.4589760642,
			"-0.006": 16.423815096,
			"-0.005": 21.1417710781,
			"-0.004": 19.1679022687,
			"-0.003": 19.6803021718,
			"-0.002": 18.667773889,
			"-0.001": 19.3922395248,
			"0.0": 21.3054011379,
			"0.001": 19.6417398911,
			"0.002": 22.2471258013,
			"0.003": 20.6245200725,
			"0.004": 14.5527967185,
			"0.005": 8.46542803857,
			"0.006": 5.90554840953,
			"0.007": 5.88621475684,
			"0.008": 5.1451242096,
			"0.009": 6.32683361077,
			"0.01": 11.3558207786,
			"0.011": 9.7754232109,
			"0.012": 1.93991101129,
			"0.013": 0.0,
			"0.014": 0.0,
			"0.015": 0.0,
			"0.016": 0.0,
			"0.017": 0.0,
			"0.018": 0.0,
			"0.019": 0.0,
			"0.02": 0.0,
			"0.021": 0.0,
			"0.022": 0.0,
			"0.023": 0.0,
			"0.024": 0.0,
			"0.025": 0.0
		}
	}
}
