{
	 "smiles": "CC1=C2C=CC=CC2=NC(NC(N)=N)=N1", 
	 "Tm": 613.15, 
	 "num_atms": 26, 
	 "gaussian": { 
		 "optdone": 1, 
		 "sigma_profile": "yes", 
		 "theory": "DFT", 
		 "functional": "B3LYP", 
		 "basiset": "6-31G**", 
		 "properties": { 
			 "R2extent": 3888.4634, 
			 "electric_dipole_moment_norm": 5.25459564001, 
			 "electric_quadrupole_moment_norm": 17.7570190699, 
			 "total_energy": -661.486122631, 
			 "HOMO_LUMO_gap": 0.14275, 
			 "cosmo_polarized_energy": -15.46, 
			 "cosmo_cavitation_energy": 29.91, 
			 "cosmo_dispersion_energy": -22.34, 
			 "cosmo_repulsion_energy": 1.74, 
			 "cosmo_total_nonelectrostatic_energy": 9.31, 
			 "SMD_solvation_energy": 1.96 
		},
		"coords": [
			{
				"x": -1.3203546816,
				"y": -2.2748133334,
				"z": 2.0042129145,
				"element": "C" 
			},
			{
				"x": -0.8415593417,
				"y": -1.0014771131,
				"z": 1.35791138,
				"element": "C" 
			},
			{
				"x": -0.11637838,
				"y": -1.0135384419,
				"z": 0.1189673438,
				"element": "C" 
			},
			{
				"x": 0.2125069018,
				"y": -2.185881003,
				"z": -0.6034796477,
				"element": "C" 
			},
			{
				"x": 0.9162823854,
				"y": -2.1011547347,
				"z": -1.7871693399,
				"element": "C" 
			},
			{
				"x": 1.3131040091,
				"y": -0.8379921626,
				"z": -2.2844526139,
				"element": "C" 
			},
			{
				"x": 1.0061910488,
				"y": 0.3201454432,
				"z": -1.6016196687,
				"element": "C" 
			},
			{
				"x": 0.283644915,
				"y": 0.2586198286,
				"z": -0.3838968555,
				"element": "C" 
			},
			{
				"x": -0.0108737039,
				"y": 1.4145280395,
				"z": 0.2790232702,
				"element": "N" 
			},
			{
				"x": -0.6888514628,
				"y": 1.2930694039,
				"z": 1.4053887651,
				"element": "C" 
			},
			{
				"x": -1.0359936216,
				"y": 2.396184396,
				"z": 2.1534636552,
				"element": "N" 
			},
			{
				"x": -0.8082752043,
				"y": 3.780081571,
				"z": 1.9579717336,
				"element": "C" 
			},
			{
				"x": -0.3470183944,
				"y": 4.1282528305,
				"z": 0.7186288022,
				"element": "N" 
			},
			{
				"x": -1.0571065844,
				"y": 4.6666116944,
				"z": 2.8541112833,
				"element": "N" 
			},
			{
				"x": -1.1184413132,
				"y": 0.1229701413,
				"z": 1.9808861395,
				"element": "N" 
			},
			{
				"x": -1.8424954785,
				"y": -2.0357034001,
				"z": 2.9308773288,
				"element": "H" 
			},
			{
				"x": -2.001339796,
				"y": -2.8205640553,
				"z": 1.3418091498,
				"element": "H" 
			},
			{
				"x": -0.4812504588,
				"y": -2.9423827696,
				"z": 2.2290843502,
				"element": "H" 
			},
			{
				"x": -0.0921543392,
				"y": -3.1550170728,
				"z": -0.2214769448,
				"element": "H" 
			},
			{
				"x": 1.1670303623,
				"y": -3.0015420096,
				"z": -2.3392157383,
				"element": "H" 
			},
			{
				"x": 1.8668146438,
				"y": -0.7817325985,
				"z": -3.2173935664,
				"element": "H" 
			},
			{
				"x": 1.3039207416,
				"y": 1.2955985073,
				"z": -1.9719873123,
				"element": "H" 
			},
			{
				"x": -1.5098495959,
				"y": 2.1492072096,
				"z": 3.0103821483,
				"element": "H" 
			},
			{
				"x": 0.0836238335,
				"y": 3.4013175861,
				"z": 0.1586062091,
				"element": "H" 
			},
			{
				"x": -0.0062539374,
				"y": 5.0749530456,
				"z": 0.6610589518,
				"element": "H" 
			},
			{
				"x": -1.4267225475,
				"y": 4.2478589975,
				"z": 3.706308262,
				"element": "H" 
			}
		],
		 "valence_orbital": [ 
			{
				"type": "occ",
				"energy": -0.26227,
				"method": "rhf"
			},
			{
				"type": "occ",
				"energy": -0.25963,
				"method": "rhf"
			},
			{
				"type": "occ",
				"energy": -0.25216,
				"method": "rhf"
			},
			{
				"type": "occ",
				"energy": -0.23396,
				"method": "rhf"
			},
			{
				"type": "occ",
				"energy": -0.20833,
				"method": "rhf"
			},
			{
				"type": "unocc",
				"energy": -0.06558,
				"method": "rhf"
			},
			{
				"type": "unocc",
				"energy": -0.02512,
				"method": "rhf"
			},
			{
				"type": "unocc",
				"energy": 0.01121,
				"method": "rhf"
			},
			{
				"type": "unocc",
				"energy": 0.06165,
				"method": "rhf"
			},
			{
				"type": "unocc",
				"energy": 0.08277,
				"method": "rhf"
			}
		],
		"cosmo_sigma_profile": { 
			"-0.025": 0.0,
			"-0.024": 0.0,
			"-0.023": 0.0,
			"-0.022": 0.0,
			"-0.021": 0.0,
			"-0.02": 0.0,
			"-0.019": 0.0,
			"-0.018": 0.0,
			"-0.017": 0.0,
			"-0.016": 0.0371185945942,
			"-0.015": 0.888009651091,
			"-0.014": 1.40137079759,
			"-0.013": 1.17085283109,
			"-0.012": 2.51809610673,
			"-0.011": 2.23214980882,
			"-0.01": 1.94106412285,
			"-0.009": 1.82257960381,
			"-0.008": 2.32393852639,
			"-0.007": 5.1948913316,
			"-0.006": 14.5371191742,
			"-0.005": 18.8086406615,
			"-0.004": 15.446851435,
			"-0.003": 13.6197552633,
			"-0.002": 17.2150613492,
			"-0.001": 17.9396791419,
			"0.0": 16.4310049943,
			"0.001": 18.2947058235,
			"0.002": 18.1154103459,
			"0.003": 17.5123487086,
			"0.004": 13.0386199175,
			"0.005": 5.80296990051,
			"0.006": 4.91435622762,
			"0.007": 4.45905420219,
			"0.008": 2.98879109745,
			"0.009": 3.11289845695,
			"0.01": 3.6937195857,
			"0.011": 2.42269864669,
			"0.012": 2.08692699546,
			"0.013": 0.926577680595,
			"0.014": 0.96612719171,
			"0.015": 1.88304623907,
			"0.016": 1.00192742874,
			"0.017": 1.37131745471,
			"0.018": 1.00729471771,
			"0.019": 1.25933170456,
			"0.02": 0.155331634749,
			"0.021": 0.0,
			"0.022": 0.0,
			"0.023": 0.0,
			"0.024": 0.0,
			"0.025": 0.0
		}
	}
}
