{
	 "smiles": "ClC1=C(Cl)C2=C(C=C1)C(=O)C(=O)N2", 
	 "Tm": 477.15, 
	 "num_atms": 16, 
	 "gaussian": { 
		 "optdone": 1, 
		 "sigma_profile": "yes", 
		 "theory": "DFT", 
		 "functional": "B3LYP", 
		 "basiset": "6-31G**", 
		 "properties": { 
			 "R2extent": 3361.739, 
			 "electric_dipole_moment_norm": 3.60566160781, 
			 "electric_quadrupole_moment_norm": 24.9757264823, 
			 "total_energy": -1432.23737803, 
			 "HOMO_LUMO_gap": 0.14265, 
			 "cosmo_polarized_energy": -12.78, 
			 "cosmo_cavitation_energy": 25.28, 
			 "cosmo_dispersion_energy": -18.92, 
			 "cosmo_repulsion_energy": 1.49, 
			 "cosmo_total_nonelectrostatic_energy": 7.85, 
			 "SMD_solvation_energy": 5.13 
		},
		"coords": [
			{
				"x": 1.5864665195,
				"y": -2.1723806685,
				"z": -1.3683337682,
				"element": "Cl" 
			},
			{
				"x": 1.3098829741,
				"y": -0.5616141914,
				"z": -0.7708757933,
				"element": "C" 
			},
			{
				"x": 0.0457214479,
				"y": -0.2075098535,
				"z": -0.26092168,
				"element": "C" 
			},
			{
				"x": -1.2934448693,
				"y": -1.320628166,
				"z": -0.1924179484,
				"element": "Cl" 
			},
			{
				"x": -0.1211093285,
				"y": 1.093431664,
				"z": 0.2038986429,
				"element": "C" 
			},
			{
				"x": 0.9399195022,
				"y": 2.0184727278,
				"z": 0.163280472,
				"element": "C" 
			},
			{
				"x": 2.1833610769,
				"y": 1.656977133,
				"z": -0.3425698007,
				"element": "C" 
			},
			{
				"x": 2.367273647,
				"y": 0.3575585078,
				"z": -0.8122649068,
				"element": "C" 
			},
			{
				"x": 0.4397324765,
				"y": 3.2871509189,
				"z": 0.7228596726,
				"element": "C" 
			},
			{
				"x": 1.0005746718,
				"y": 4.3476028452,
				"z": 0.8824005611,
				"element": "O" 
			},
			{
				"x": -1.0564125413,
				"y": 3.0004602356,
				"z": 1.1025901782,
				"element": "C" 
			},
			{
				"x": -1.8581813715,
				"y": 3.7578141955,
				"z": 1.5947222343,
				"element": "O" 
			},
			{
				"x": -1.266554726,
				"y": 1.6718623402,
				"z": 0.7475782048,
				"element": "N" 
			},
			{
				"x": 2.9913674935,
				"y": 2.3809295436,
				"z": -0.3673666279,
				"element": "H" 
			},
			{
				"x": 3.3208936246,
				"y": 0.0367808056,
				"z": -1.2139909723,
				"element": "H" 
			},
			{
				"x": -2.1455905974,
				"y": 1.1898919622,
				"z": 0.8712115317,
				"element": "H" 
			}
		],
		 "valence_orbital": [ 
			{
				"type": "occ",
				"energy": -0.33367,
				"method": "rhf"
			},
			{
				"type": "occ",
				"energy": -0.32314,
				"method": "rhf"
			},
			{
				"type": "occ",
				"energy": -0.27737,
				"method": "rhf"
			},
			{
				"type": "occ",
				"energy": -0.26062,
				"method": "rhf"
			},
			{
				"type": "occ",
				"energy": -0.25517,
				"method": "rhf"
			},
			{
				"type": "unocc",
				"energy": -0.11252,
				"method": "rhf"
			},
			{
				"type": "unocc",
				"energy": -0.04334,
				"method": "rhf"
			},
			{
				"type": "unocc",
				"energy": -0.01995,
				"method": "rhf"
			},
			{
				"type": "unocc",
				"energy": -0.01436,
				"method": "rhf"
			},
			{
				"type": "unocc",
				"energy": 0.03952,
				"method": "rhf"
			}
		],
		"cosmo_sigma_profile": { 
			"-0.025": 0.0,
			"-0.024": 0.0,
			"-0.023": 0.0,
			"-0.022": 0.0,
			"-0.021": 0.0,
			"-0.02": 0.0,
			"-0.019": 0.0,
			"-0.018": 0.0,
			"-0.017": 0.299551552115,
			"-0.016": 0.753854907183,
			"-0.015": 0.945171374572,
			"-0.014": 0.694919172357,
			"-0.013": 0.805223380669,
			"-0.012": 0.808595582781,
			"-0.011": 0.90410606509,
			"-0.01": 1.0143077864,
			"-0.009": 3.36116338885,
			"-0.008": 6.87226140636,
			"-0.007": 7.16607010833,
			"-0.006": 6.40673334408,
			"-0.005": 7.2092350546,
			"-0.004": 10.9295327197,
			"-0.003": 13.3717316803,
			"-0.002": 20.8752224548,
			"-0.001": 20.4903820378,
			"0.0": 18.1508355837,
			"0.001": 15.4282255136,
			"0.002": 13.3464939177,
			"0.003": 16.609065706,
			"0.004": 7.44018121193,
			"0.005": 2.57834035374,
			"0.006": 2.49409661424,
			"0.007": 3.31476567031,
			"0.008": 4.11429279252,
			"0.009": 6.63156941353,
			"0.01": 9.42381133176,
			"0.011": 5.79447912949,
			"0.012": 0.969177094487,
			"0.013": 0.0,
			"0.014": 0.0,
			"0.015": 0.0,
			"0.016": 0.0,
			"0.017": 0.0,
			"0.018": 0.0,
			"0.019": 0.0,
			"0.02": 0.0,
			"0.021": 0.0,
			"0.022": 0.0,
			"0.023": 0.0,
			"0.024": 0.0,
			"0.025": 0.0
		}
	}
}
