{
	 "smiles": "COP(=S)(OC)SCC(=O)N(C(C)C)C1=CC=C(Cl)C=C1", 
	 "Tm": 324.15, 
	 "num_atms": 40, 
	 "gaussian": { 
		 "optdone": 1, 
		 "sigma_profile": "yes", 
		 "theory": "DFT", 
		 "functional": "B3LYP", 
		 "basiset": "6-31G**", 
		 "properties": { 
			 "R2extent": 11171.4365, 
			 "electric_dipole_moment_norm": 7.92659735385, 
			 "electric_quadrupole_moment_norm": 13.9853258746, 
			 "total_energy": -2385.2273287, 
			 "HOMO_LUMO_gap": 0.20728, 
			 "cosmo_polarized_energy": -23.21, 
			 "cosmo_cavitation_energy": 49.55, 
			 "cosmo_dispersion_energy": -32.39, 
			 "cosmo_repulsion_energy": 2.4, 
			 "cosmo_total_nonelectrostatic_energy": 19.56, 
			 "SMD_solvation_energy": 8.87 
		},
		"coords": [
			{
				"x": 2.044170354,
				"y": 4.8715716771,
				"z": 2.3935945136,
				"element": "C" 
			},
			{
				"x": 1.7907767144,
				"y": 4.4290322634,
				"z": 1.0429470828,
				"element": "O" 
			},
			{
				"x": 1.5181013069,
				"y": 2.8762456094,
				"z": 0.6701819868,
				"element": "P" 
			},
			{
				"x": 1.4718144671,
				"y": 2.5865434618,
				"z": -1.2459462769,
				"element": "S" 
			},
			{
				"x": 2.6645760031,
				"y": 2.0293134875,
				"z": 1.4783111778,
				"element": "O" 
			},
			{
				"x": 3.9786176737,
				"y": 1.8698565046,
				"z": 0.9012515878,
				"element": "C" 
			},
			{
				"x": -0.1751025188,
				"y": 2.4475611647,
				"z": 1.8547244656,
				"element": "S" 
			},
			{
				"x": -0.3066805945,
				"y": 0.6249518445,
				"z": 1.6389436207,
				"element": "C" 
			},
			{
				"x": -1.1723512406,
				"y": 0.230157397,
				"z": 0.4309169511,
				"element": "C" 
			},
			{
				"x": -2.1192976415,
				"y": 0.930231303,
				"z": 0.1129100891,
				"element": "O" 
			},
			{
				"x": -0.8759204544,
				"y": -0.948413746,
				"z": -0.2337412637,
				"element": "N" 
			},
			{
				"x": 0.1894190163,
				"y": -1.9445285964,
				"z": 0.0836772105,
				"element": "C" 
			},
			{
				"x": 0.1049352868,
				"y": -2.5235736223,
				"z": 1.5045081458,
				"element": "C" 
			},
			{
				"x": 1.5991391293,
				"y": -1.4676778214,
				"z": -0.2999201806,
				"element": "C" 
			},
			{
				"x": -1.6503395695,
				"y": -1.2142382924,
				"z": -1.4192581012,
				"element": "C" 
			},
			{
				"x": -1.5736658849,
				"y": -0.351227251,
				"z": -2.5179479057,
				"element": "C" 
			},
			{
				"x": -2.2864826141,
				"y": -0.6297929452,
				"z": -3.6817034292,
				"element": "C" 
			},
			{
				"x": -3.0718187304,
				"y": -1.7814090209,
				"z": -3.7442443169,
				"element": "C" 
			},
			{
				"x": -3.9630702621,
				"y": -2.142960919,
				"z": -5.2165302555,
				"element": "Cl" 
			},
			{
				"x": -3.1631117899,
				"y": -2.649663272,
				"z": -2.6584166706,
				"element": "C" 
			},
			{
				"x": -2.4545709123,
				"y": -2.3548682004,
				"z": -1.4933494395,
				"element": "C" 
			},
			{
				"x": 2.6980073655,
				"y": 4.1715396965,
				"z": 2.9195076254,
				"element": "H" 
			},
			{
				"x": 1.1040090458,
				"y": 4.9805376438,
				"z": 2.9404047136,
				"element": "H" 
			},
			{
				"x": 2.531357503,
				"y": 5.8435053215,
				"z": 2.3038197271,
				"element": "H" 
			},
			{
				"x": 4.5386954192,
				"y": 1.2484997315,
				"z": 1.6016211222,
				"element": "H" 
			},
			{
				"x": 3.9135999972,
				"y": 1.3817691849,
				"z": -0.0741560221,
				"element": "H" 
			},
			{
				"x": 4.4720346748,
				"y": 2.8399114473,
				"z": 0.7898547013,
				"element": "H" 
			},
			{
				"x": -0.8191921305,
				"y": 0.2886158364,
				"z": 2.5453953309,
				"element": "H" 
			},
			{
				"x": 0.6942775025,
				"y": 0.2027144366,
				"z": 1.6485145039,
				"element": "H" 
			},
			{
				"x": -0.0441772224,
				"y": -2.7719527511,
				"z": -0.5905406467,
				"element": "H" 
			},
			{
				"x": -0.9179338632,
				"y": -2.8331615336,
				"z": 1.7388766391,
				"element": "H" 
			},
			{
				"x": 0.7498251796,
				"y": -3.4057556978,
				"z": 1.5711914635,
				"element": "H" 
			},
			{
				"x": 0.4362753957,
				"y": -1.8257339798,
				"z": 2.277264755,
				"element": "H" 
			},
			{
				"x": 1.968852299,
				"y": -0.6659474838,
				"z": 0.3444248867,
				"element": "H" 
			},
			{
				"x": 2.3014521401,
				"y": -2.3049160331,
				"z": -0.2249065279,
				"element": "H" 
			},
			{
				"x": 1.6112381593,
				"y": -1.0985420771,
				"z": -1.3285376233,
				"element": "H" 
			},
			{
				"x": -0.9621468895,
				"y": 0.5423715708,
				"z": -2.4533450215,
				"element": "H" 
			},
			{
				"x": -2.2298025564,
				"y": 0.0371857981,
				"z": -4.5346251182,
				"element": "H" 
			},
			{
				"x": -3.7863029126,
				"y": -3.5348927021,
				"z": -2.7179751532,
				"element": "H" 
			},
			{
				"x": -2.5364068458,
				"y": -3.014259435,
				"z": -0.6343983478,
				"element": "H" 
			}
		],
		 "valence_orbital": [ 
			{
				"type": "occ",
				"energy": -0.26045,
				"method": "rhf"
			},
			{
				"type": "occ",
				"energy": -0.25212,
				"method": "rhf"
			},
			{
				"type": "occ",
				"energy": -0.2468,
				"method": "rhf"
			},
			{
				"type": "occ",
				"energy": -0.23649,
				"method": "rhf"
			},
			{
				"type": "occ",
				"energy": -0.22827,
				"method": "rhf"
			},
			{
				"type": "unocc",
				"energy": -0.02099,
				"method": "rhf"
			},
			{
				"type": "unocc",
				"energy": -0.01602,
				"method": "rhf"
			},
			{
				"type": "unocc",
				"energy": -0.0117,
				"method": "rhf"
			},
			{
				"type": "unocc",
				"energy": 0.00431,
				"method": "rhf"
			},
			{
				"type": "unocc",
				"energy": 0.02392,
				"method": "rhf"
			}
		],
		"cosmo_sigma_profile": { 
			"-0.025": 0.0,
			"-0.024": 0.0,
			"-0.023": 0.0,
			"-0.022": 0.0,
			"-0.021": 0.0,
			"-0.02": 0.0,
			"-0.019": 0.0,
			"-0.018": 0.0,
			"-0.017": 0.0,
			"-0.016": 0.0,
			"-0.015": 0.0,
			"-0.014": 0.0,
			"-0.013": 0.0,
			"-0.012": 0.0,
			"-0.011": 0.0,
			"-0.01": 0.487433122312,
			"-0.009": 2.15843363767,
			"-0.008": 3.11491663448,
			"-0.007": 12.6698094462,
			"-0.006": 22.5060734596,
			"-0.005": 30.8272406535,
			"-0.004": 40.485042781,
			"-0.003": 31.6134995473,
			"-0.002": 30.2273101481,
			"-0.001": 28.5545216645,
			"0.0": 29.0831348166,
			"0.001": 25.0428710368,
			"0.002": 27.1888063656,
			"0.003": 25.5742462646,
			"0.004": 21.8961196929,
			"0.005": 16.7501623262,
			"0.006": 8.45581229781,
			"0.007": 8.50853918907,
			"0.008": 6.96687692912,
			"0.009": 9.08770566535,
			"0.01": 3.63333495784,
			"0.011": 1.91005165169,
			"0.012": 2.54485297452,
			"0.013": 5.0402473126,
			"0.014": 2.94470080549,
			"0.015": 0.478985962207,
			"0.016": 0.0,
			"0.017": 0.0,
			"0.018": 0.0,
			"0.019": 0.0,
			"0.02": 0.0,
			"0.021": 0.0,
			"0.022": 0.0,
			"0.023": 0.0,
			"0.024": 0.0,
			"0.025": 0.0
		}
	}
}
