{
	 "smiles": "CCC(C)C1=CC(=CC(=C1OC(=O)C=C(C)C)[N+]([O-])=O)[N+]([O-])=O", 
	 "Tm": 343.15, 
	 "num_atms": 41, 
	 "gaussian": { 
		 "optdone": 1, 
		 "sigma_profile": "yes", 
		 "theory": "DFT", 
		 "functional": "B3LYP", 
		 "basiset": "6-31G**", 
		 "properties": { 
			 "R2extent": 9330.0399, 
			 "electric_dipole_moment_norm": 7.47270701888, 
			 "electric_quadrupole_moment_norm": 18.6496462047, 
			 "total_energy": -1143.09517014, 
			 "HOMO_LUMO_gap": 0.17146, 
			 "cosmo_polarized_energy": -14.62, 
			 "cosmo_cavitation_energy": 45.61, 
			 "cosmo_dispersion_energy": -30.23, 
			 "cosmo_repulsion_energy": 2.36, 
			 "cosmo_total_nonelectrostatic_energy": 17.74, 
			 "SMD_solvation_energy": 13.2 
		},
		"coords": [
			{
				"x": -0.4331957077,
				"y": 2.7419357705,
				"z": 3.0239262231,
				"element": "C" 
			},
			{
				"x": -0.6082722899,
				"y": 2.1639326729,
				"z": 1.6151187637,
				"element": "C" 
			},
			{
				"x": -1.7408087411,
				"y": 1.1120016777,
				"z": 1.5087480101,
				"element": "C" 
			},
			{
				"x": -1.5020672327,
				"y": -0.1302548626,
				"z": 2.3909124595,
				"element": "C" 
			},
			{
				"x": -2.049052945,
				"y": 0.760628711,
				"z": 0.0550366399,
				"element": "C" 
			},
			{
				"x": -3.283591453,
				"y": 1.1324670288,
				"z": -0.4815134924,
				"element": "C" 
			},
			{
				"x": -3.6123028666,
				"y": 0.8257355579,
				"z": -1.799013585,
				"element": "C" 
			},
			{
				"x": -2.7297382626,
				"y": 0.1624505794,
				"z": -2.6358259141,
				"element": "C" 
			},
			{
				"x": -1.4858277945,
				"y": -0.186733594,
				"z": -2.1240772346,
				"element": "C" 
			},
			{
				"x": -1.1370492899,
				"y": 0.0865405178,
				"z": -0.7855668393,
				"element": "C" 
			},
			{
				"x": 0.0798669238,
				"y": -0.2470860324,
				"z": -0.2555177802,
				"element": "O" 
			},
			{
				"x": 0.501382033,
				"y": -1.5868123381,
				"z": -0.2861118044,
				"element": "C" 
			},
			{
				"x": -0.2360202527,
				"y": -2.4652867901,
				"z": -0.666662714,
				"element": "O" 
			},
			{
				"x": 1.8684528728,
				"y": -1.6516371377,
				"z": 0.2330377151,
				"element": "C" 
			},
			{
				"x": 2.6028115387,
				"y": -2.7754772856,
				"z": 0.3910560095,
				"element": "C" 
			},
			{
				"x": 2.1404446593,
				"y": -4.1689643209,
				"z": 0.0686965289,
				"element": "C" 
			},
			{
				"x": 4.0070450072,
				"y": -2.6716914467,
				"z": 0.924771734,
				"element": "C" 
			},
			{
				"x": -0.544448583,
				"y": -0.8000994749,
				"z": -3.0792965226,
				"element": "N" 
			},
			{
				"x": 0.6583442965,
				"y": -0.6284375926,
				"z": -2.8926167209,
				"element": "O" 
			},
			{
				"x": -1.0304098528,
				"y": -1.405251765,
				"z": -4.0300827092,
				"element": "O" 
			},
			{
				"x": -4.9295612479,
				"y": 1.2201089432,
				"z": -2.3218487484,
				"element": "N" 
			},
			{
				"x": -5.6911002003,
				"y": 1.8069502142,
				"z": -1.5541020697,
				"element": "O" 
			},
			{
				"x": -5.1838022784,
				"y": 0.9388782308,
				"z": -3.4910640693,
				"element": "O" 
			},
			{
				"x": -0.1105171045,
				"y": 1.9827757394,
				"z": 3.7430451891,
				"element": "H" 
			},
			{
				"x": -1.3676413528,
				"y": 3.1783921642,
				"z": 3.3956035266,
				"element": "H" 
			},
			{
				"x": 0.3228803524,
				"y": 3.533367712,
				"z": 3.0226623515,
				"element": "H" 
			},
			{
				"x": -0.832773947,
				"y": 2.9820299957,
				"z": 0.9194936308,
				"element": "H" 
			},
			{
				"x": 0.3324207688,
				"y": 1.7184382486,
				"z": 1.2755271776,
				"element": "H" 
			},
			{
				"x": -2.6520899598,
				"y": 1.5950833221,
				"z": 1.8855612379,
				"element": "H" 
			},
			{
				"x": -1.5359224715,
				"y": 0.1446919191,
				"z": 3.4487781852,
				"element": "H" 
			},
			{
				"x": -2.2743277926,
				"y": -0.8866206771,
				"z": 2.2213374198,
				"element": "H" 
			},
			{
				"x": -0.5290769234,
				"y": -0.5867695594,
				"z": 2.1955166785,
				"element": "H" 
			},
			{
				"x": -4.0120460859,
				"y": 1.6550411041,
				"z": 0.1268137714,
				"element": "H" 
			},
			{
				"x": -2.9896482889,
				"y": -0.0727142972,
				"z": -3.6585791644,
				"element": "H" 
			},
			{
				"x": 2.3023234753,
				"y": -0.6906029428,
				"z": 0.4881688809,
				"element": "H" 
			},
			{
				"x": 2.2087360745,
				"y": -4.7971518406,
				"z": 0.9660559009,
				"element": "H" 
			},
			{
				"x": 1.1232873711,
				"y": -4.1964811534,
				"z": -0.3144116689,
				"element": "H" 
			},
			{
				"x": 2.815919525,
				"y": -4.6164363934,
				"z": -0.6714064958,
				"element": "H" 
			},
			{
				"x": 4.2945701596,
				"y": -1.6415094228,
				"z": 1.1465479601,
				"element": "H" 
			},
			{
				"x": 4.7202559897,
				"y": -3.0835030207,
				"z": 0.1999466676,
				"element": "H" 
			},
			{
				"x": 4.1143518768,
				"y": -3.2693281613,
				"z": 1.8386348713,
				"element": "H" 
			}
		],
		 "valence_orbital": [ 
			{
				"type": "occ",
				"energy": -0.29923,
				"method": "rhf"
			},
			{
				"type": "occ",
				"energy": -0.29568,
				"method": "rhf"
			},
			{
				"type": "occ",
				"energy": -0.28711,
				"method": "rhf"
			},
			{
				"type": "occ",
				"energy": -0.27983,
				"method": "rhf"
			},
			{
				"type": "occ",
				"energy": -0.27467,
				"method": "rhf"
			},
			{
				"type": "unocc",
				"energy": -0.10321,
				"method": "rhf"
			},
			{
				"type": "unocc",
				"energy": -0.09128,
				"method": "rhf"
			},
			{
				"type": "unocc",
				"energy": -0.06021,
				"method": "rhf"
			},
			{
				"type": "unocc",
				"energy": -0.02779,
				"method": "rhf"
			},
			{
				"type": "unocc",
				"energy": -0.0038,
				"method": "rhf"
			}
		],
		"cosmo_sigma_profile": { 
			"-0.025": 0.0,
			"-0.024": 0.0,
			"-0.023": 0.0,
			"-0.022": 0.0,
			"-0.021": 0.0,
			"-0.02": 0.0,
			"-0.019": 0.0,
			"-0.018": 0.0,
			"-0.017": 0.0,
			"-0.016": 0.0,
			"-0.015": 0.0,
			"-0.014": 0.0,
			"-0.013": 0.0,
			"-0.012": 0.0,
			"-0.011": 0.0,
			"-0.01": 0.0,
			"-0.009": 0.574283810994,
			"-0.008": 2.9576861611,
			"-0.007": 5.95443765469,
			"-0.006": 11.0095689884,
			"-0.005": 21.8018983749,
			"-0.004": 21.9522338798,
			"-0.003": 42.0198545528,
			"-0.002": 46.8031903712,
			"-0.001": 44.885140566,
			"0.0": 37.9662170643,
			"0.001": 24.2469004179,
			"0.002": 13.7745909312,
			"0.003": 11.3228662962,
			"0.004": 9.0813568018,
			"0.005": 9.55424166046,
			"0.006": 13.272374826,
			"0.007": 19.8027982615,
			"0.008": 11.2028534768,
			"0.009": 8.45902760816,
			"0.01": 3.5486380953,
			"0.011": 0.464631861492,
			"0.012": 0.0,
			"0.013": 0.0,
			"0.014": 0.0,
			"0.015": 0.0,
			"0.016": 0.0,
			"0.017": 0.0,
			"0.018": 0.0,
			"0.019": 0.0,
			"0.02": 0.0,
			"0.021": 0.0,
			"0.022": 0.0,
			"0.023": 0.0,
			"0.024": 0.0,
			"0.025": 0.0
		}
	}
}
