{
	 "smiles": "OC(=O)CCNC(=O)CCC(O)=O", 
	 "Tm": 406.15, 
	 "num_atms": 24, 
	 "gaussian": { 
		 "optdone": 1, 
		 "sigma_profile": "yes", 
		 "theory": "DFT", 
		 "functional": "B3LYP", 
		 "basiset": "6-31G**", 
		 "properties": { 
			 "R2extent": 4009.7705, 
			 "electric_dipole_moment_norm": 7.61841623239, 
			 "electric_quadrupole_moment_norm": 24.5452640627, 
			 "total_energy": -704.295452516, 
			 "HOMO_LUMO_gap": 0.22733, 
			 "cosmo_polarized_energy": -25.27, 
			 "cosmo_cavitation_energy": 28.39, 
			 "cosmo_dispersion_energy": -20.59, 
			 "cosmo_repulsion_energy": 1.68, 
			 "cosmo_total_nonelectrostatic_energy": 9.48, 
			 "SMD_solvation_energy": 7.1 
		},
		"coords": [
			{
				"x": 1.8663451188,
				"y": -0.701362373,
				"z": 2.9229776946,
				"element": "O" 
			},
			{
				"x": 2.0650351747,
				"y": -1.978542272,
				"z": 2.4966068113,
				"element": "C" 
			},
			{
				"x": 2.9231695929,
				"y": -2.6897967663,
				"z": 2.9603481849,
				"element": "O" 
			},
			{
				"x": 1.1138519945,
				"y": -2.3847942568,
				"z": 1.3846863359,
				"element": "C" 
			},
			{
				"x": -0.1245563673,
				"y": -1.4979250046,
				"z": 1.1770329608,
				"element": "C" 
			},
			{
				"x": 0.1920556115,
				"y": -0.1677781032,
				"z": 0.6785876849,
				"element": "N" 
			},
			{
				"x": -0.0650630498,
				"y": 0.3801428622,
				"z": -0.5354622186,
				"element": "C" 
			},
			{
				"x": 0.3436519156,
				"y": 1.5214322881,
				"z": -0.7918575431,
				"element": "O" 
			},
			{
				"x": -0.8757573058,
				"y": -0.4304219263,
				"z": -1.5436450912,
				"element": "C" 
			},
			{
				"x": -1.3020353895,
				"y": 0.3729409934,
				"z": -2.7874890399,
				"element": "C" 
			},
			{
				"x": -0.1912913467,
				"y": 0.6093593396,
				"z": -3.8183614054,
				"element": "C" 
			},
			{
				"x": 0.8236062116,
				"y": 1.3888754036,
				"z": -3.4182038534,
				"element": "O" 
			},
			{
				"x": -0.2279520985,
				"y": 0.1269546337,
				"z": -4.9281412794,
				"element": "O" 
			},
			{
				"x": 2.5290977288,
				"y": -0.5355252064,
				"z": 3.615218604,
				"element": "H" 
			},
			{
				"x": 1.7043274495,
				"y": -2.4276763611,
				"z": 0.4612435496,
				"element": "H" 
			},
			{
				"x": 0.8089606585,
				"y": -3.4132739242,
				"z": 1.6025871207,
				"element": "H" 
			},
			{
				"x": -0.6761554538,
				"y": -1.405941388,
				"z": 2.1196292571,
				"element": "H" 
			},
			{
				"x": -0.7888892551,
				"y": -1.9929307963,
				"z": 0.4679437043,
				"element": "H" 
			},
			{
				"x": 0.7518473917,
				"y": 0.4171841114,
				"z": 1.2877824335,
				"element": "H" 
			},
			{
				"x": -0.3024884694,
				"y": -1.3184147646,
				"z": -1.8406285366,
				"element": "H" 
			},
			{
				"x": -1.7774749285,
				"y": -0.8053303181,
				"z": -1.0455948837,
				"element": "H" 
			},
			{
				"x": -2.0891754463,
				"y": -0.1737533984,
				"z": -3.3087519797,
				"element": "H" 
			},
			{
				"x": -1.708501866,
				"y": 1.338728392,
				"z": -2.4671510817,
				"element": "H" 
			},
			{
				"x": 0.6868921287,
				"y": 1.6459488355,
				"z": -2.4738574287,
				"element": "H" 
			}
		],
		 "valence_orbital": [ 
			{
				"type": "occ",
				"energy": -0.30246,
				"method": "rhf"
			},
			{
				"type": "occ",
				"energy": -0.28889,
				"method": "rhf"
			},
			{
				"type": "occ",
				"energy": -0.28344,
				"method": "rhf"
			},
			{
				"type": "occ",
				"energy": -0.27984,
				"method": "rhf"
			},
			{
				"type": "occ",
				"energy": -0.24659,
				"method": "rhf"
			},
			{
				"type": "unocc",
				"energy": -0.01926,
				"method": "rhf"
			},
			{
				"type": "unocc",
				"energy": -0.00568,
				"method": "rhf"
			},
			{
				"type": "unocc",
				"energy": 0.0254,
				"method": "rhf"
			},
			{
				"type": "unocc",
				"energy": 0.04643,
				"method": "rhf"
			},
			{
				"type": "unocc",
				"energy": 0.07233,
				"method": "rhf"
			}
		],
		"cosmo_sigma_profile": { 
			"-0.025": 0.0,
			"-0.024": 0.0,
			"-0.023": 0.0,
			"-0.022": 0.0,
			"-0.021": 0.0,
			"-0.02": 0.0,
			"-0.019": 0.133437458892,
			"-0.018": 0.936743003829,
			"-0.017": 1.15065500761,
			"-0.016": 0.510864764372,
			"-0.015": 0.743412608854,
			"-0.014": 0.718422268114,
			"-0.013": 0.955533719999,
			"-0.012": 0.752265998671,
			"-0.011": 0.413703958839,
			"-0.01": 0.942758124317,
			"-0.009": 1.02753831952,
			"-0.008": 6.11271539334,
			"-0.007": 18.6045407815,
			"-0.006": 21.4804983055,
			"-0.005": 21.0376954516,
			"-0.004": 17.2773380333,
			"-0.003": 17.8158134583,
			"-0.002": 11.1754459147,
			"-0.001": 7.81788897824,
			"0.0": 7.80348259901,
			"0.001": 7.5443883821,
			"0.002": 6.54092890768,
			"0.003": 4.32028245532,
			"0.004": 4.15536043227,
			"0.005": 5.31258877572,
			"0.006": 5.1145472008,
			"0.007": 4.50877215274,
			"0.008": 4.36283704776,
			"0.009": 4.5659674913,
			"0.01": 7.48149573994,
			"0.011": 10.5575646381,
			"0.012": 12.1923203813,
			"0.013": 7.16745565943,
			"0.014": 1.95521120151,
			"0.015": 0.0810546946423,
			"0.016": 0.0,
			"0.017": 0.0,
			"0.018": 0.0,
			"0.019": 0.0,
			"0.02": 0.0,
			"0.021": 0.0,
			"0.022": 0.0,
			"0.023": 0.0,
			"0.024": 0.0,
			"0.025": 0.0
		}
	}
}
