{
	 "smiles": "CC1=C(C)N=C(N1)C1=CC(N)=CC=C1", 
	 "Tm": 509.15, 
	 "num_atms": 27, 
	 "gaussian": { 
		 "optdone": 1, 
		 "sigma_profile": "yes", 
		 "theory": "DFT", 
		 "functional": "B3LYP", 
		 "basiset": "6-31G**", 
		 "properties": { 
			 "R2extent": 3659.8166, 
			 "electric_dipole_moment_norm": 1.95334178013, 
			 "electric_quadrupole_moment_norm": 14.6928935687, 
			 "total_energy": -591.286641428, 
			 "HOMO_LUMO_gap": 0.17138, 
			 "cosmo_polarized_energy": -16.66, 
			 "cosmo_cavitation_energy": 30.51, 
			 "cosmo_dispersion_energy": -22.57, 
			 "cosmo_repulsion_energy": 1.79, 
			 "cosmo_total_nonelectrostatic_energy": 9.73, 
			 "SMD_solvation_energy": 3.6 
		},
		"coords": [
			{
				"x": 2.1182427156,
				"y": 2.9764783692,
				"z": 1.5372666315,
				"element": "C" 
			},
			{
				"x": 1.4176637043,
				"y": 1.9885956163,
				"z": 0.6638056383,
				"element": "C" 
			},
			{
				"x": 1.314843319,
				"y": 1.8487988094,
				"z": -0.7069281614,
				"element": "C" 
			},
			{
				"x": 1.908060233,
				"y": 2.702787452,
				"z": -1.7844107397,
				"element": "C" 
			},
			{
				"x": 0.5427289893,
				"y": 0.7525940586,
				"z": -1.0193603261,
				"element": "N" 
			},
			{
				"x": 0.1682626521,
				"y": 0.2164435897,
				"z": 0.1309303992,
				"element": "C" 
			},
			{
				"x": 0.6766126334,
				"y": 0.9403766284,
				"z": 1.1808421949,
				"element": "N" 
			},
			{
				"x": -0.6662408417,
				"y": -0.9787382806,
				"z": 0.2844726616,
				"element": "C" 
			},
			{
				"x": -0.9980674984,
				"y": -1.7092307009,
				"z": -0.8639989141,
				"element": "C" 
			},
			{
				"x": -1.7933185154,
				"y": -2.8597738874,
				"z": -0.7850385353,
				"element": "C" 
			},
			{
				"x": -2.0688436737,
				"y": -3.6098438118,
				"z": -1.9303554362,
				"element": "N" 
			},
			{
				"x": -2.2598537707,
				"y": -3.2795630061,
				"z": 0.4745390048,
				"element": "C" 
			},
			{
				"x": -1.9329275388,
				"y": -2.5518677556,
				"z": 1.6153919603,
				"element": "C" 
			},
			{
				"x": -1.1433171283,
				"y": -1.4059193465,
				"z": 1.5356571982,
				"element": "C" 
			},
			{
				"x": 2.6485430744,
				"y": 3.7101917041,
				"z": 0.9262561671,
				"element": "H" 
			},
			{
				"x": 2.8590085552,
				"y": 2.4980479636,
				"z": 2.1910347691,
				"element": "H" 
			},
			{
				"x": 1.4204303269,
				"y": 3.528150786,
				"z": 2.1804383411,
				"element": "H" 
			},
			{
				"x": 1.1251688913,
				"y": 3.1427918436,
				"z": -2.4123084278,
				"element": "H" 
			},
			{
				"x": 2.5522682109,
				"y": 2.1094844675,
				"z": -2.4426922006,
				"element": "H" 
			},
			{
				"x": 2.5073076515,
				"y": 3.5190005639,
				"z": -1.3712421449,
				"element": "H" 
			},
			{
				"x": 0.5733582664,
				"y": 0.7248373956,
				"z": 2.1600294517,
				"element": "H" 
			},
			{
				"x": -0.6204770976,
				"y": -1.3619499661,
				"z": -1.8207273809,
				"element": "H" 
			},
			{
				"x": -2.9112202875,
				"y": -4.1665620389,
				"z": -1.8869265447,
				"element": "H" 
			},
			{
				"x": -1.9977255681,
				"y": -3.1001189162,
				"z": -2.8002802371,
				"element": "H" 
			},
			{
				"x": -2.8724405285,
				"y": -4.1743020457,
				"z": 0.5518297298,
				"element": "H" 
			},
			{
				"x": -2.3053425592,
				"y": -2.8811899872,
				"z": 2.5815631673,
				"element": "H" 
			},
			{
				"x": -0.9237242155,
				"y": -0.8481195048,
				"z": 2.4414117339,
				"element": "H" 
			}
		],
		 "valence_orbital": [ 
			{
				"type": "occ",
				"energy": -0.26722,
				"method": "rhf"
			},
			{
				"type": "occ",
				"energy": -0.25399,
				"method": "rhf"
			},
			{
				"type": "occ",
				"energy": -0.25009,
				"method": "rhf"
			},
			{
				"type": "occ",
				"energy": -0.20165,
				"method": "rhf"
			},
			{
				"type": "occ",
				"energy": -0.18776,
				"method": "rhf"
			},
			{
				"type": "unocc",
				"energy": -0.01638,
				"method": "rhf"
			},
			{
				"type": "unocc",
				"energy": 0.01825,
				"method": "rhf"
			},
			{
				"type": "unocc",
				"energy": 0.06335,
				"method": "rhf"
			},
			{
				"type": "unocc",
				"energy": 0.06965,
				"method": "rhf"
			},
			{
				"type": "unocc",
				"energy": 0.08497,
				"method": "rhf"
			}
		],
		"cosmo_sigma_profile": { 
			"-0.025": 0.0,
			"-0.024": 0.0,
			"-0.023": 0.0,
			"-0.022": 0.0,
			"-0.021": 0.0,
			"-0.02": 0.0,
			"-0.019": 0.0,
			"-0.018": 0.0,
			"-0.017": 0.0,
			"-0.016": 0.209844483743,
			"-0.015": 1.31854944999,
			"-0.014": 0.92085222631,
			"-0.013": 1.53449045601,
			"-0.012": 2.40613373682,
			"-0.011": 5.11709666853,
			"-0.01": 4.41825257769,
			"-0.009": 3.90876826398,
			"-0.008": 4.80312089284,
			"-0.007": 4.57320790346,
			"-0.006": 5.32842637845,
			"-0.005": 12.6911947981,
			"-0.004": 16.8429146644,
			"-0.003": 19.241648298,
			"-0.002": 15.4565738268,
			"-0.001": 18.3268258878,
			"0.0": 17.5849209662,
			"0.001": 14.6345871437,
			"0.002": 11.098013793,
			"0.003": 11.8877875848,
			"0.004": 12.8045970182,
			"0.005": 14.6533605768,
			"0.006": 15.0206749683,
			"0.007": 8.63099852561,
			"0.008": 3.18157057409,
			"0.009": 2.73732691618,
			"0.01": 2.01297990645,
			"0.011": 2.45774877168,
			"0.012": 1.9646983401,
			"0.013": 1.56930274309,
			"0.014": 1.76560808929,
			"0.015": 1.4019225986,
			"0.016": 1.01768045937,
			"0.017": 0.206008938647,
			"0.018": 0.0,
			"0.019": 0.0,
			"0.02": 0.0,
			"0.021": 0.0,
			"0.022": 0.0,
			"0.023": 0.0,
			"0.024": 0.0,
			"0.025": 0.0
		}
	}
}
