{
	 "smiles": "ICCCCI", 
	 "Tm": 279.05, 
	 "num_atms": 14, 
	 "gaussian": { 
		 "optdone": 1, 
		 "sigma_profile": "no", 
		 "theory": "DFT", 
		 "functional": "B3LYP", 
		 "basiset": "6-31G**", 
		 "properties": { 
			 "R2extent": 1363.1312, 
			 "electric_dipole_moment_norm": 2.91727642502, 
			 "electric_quadrupole_moment_norm": 8.33108268054, 
			 "total_energy": -180.037764888, 
			 "HOMO_LUMO_gap": 0.20797, 
			 "cosmo_polarized_energy": -217337.48, 
			 "cosmo_cavitation_energy": 22.84, 
			 "cosmo_dispersion_energy": -19.39, 
			 "cosmo_repulsion_energy": 1.59, 
			 "cosmo_total_nonelectrostatic_energy": 5.05, 
			 "SMD_solvation_energy": 1.73 
		},
		"coords": [
			{
				"x": -0.5608989619,
				"y": 0.0395666853,
				"z": -3.8831523629,
				"element": "I" 
			},
			{
				"x": -1.2885260417,
				"y": -1.009625213,
				"z": -2.1005897616,
				"element": "C" 
			},
			{
				"x": -0.4590386318,
				"y": -0.747446305,
				"z": -0.8483162401,
				"element": "C" 
			},
			{
				"x": -0.4186083086,
				"y": 0.7020155384,
				"z": -0.3287383067,
				"element": "C" 
			},
			{
				"x": -1.7964318325,
				"y": 1.2263875728,
				"z": 0.0585531261,
				"element": "C" 
			},
			{
				"x": -1.7033804845,
				"y": 3.222231184,
				"z": 0.9463569898,
				"element": "I" 
			},
			{
				"x": -2.3270675406,
				"y": -0.6947253066,
				"z": -2.0049238119,
				"element": "H" 
			},
			{
				"x": -1.2610414107,
				"y": -2.0604651981,
				"z": -2.384921987,
				"element": "H" 
			},
			{
				"x": 0.5688106537,
				"y": -1.0860587994,
				"z": -1.0170267507,
				"element": "H" 
			},
			{
				"x": -0.8745236927,
				"y": -1.3998974372,
				"z": -0.0647083568,
				"element": "H" 
			},
			{
				"x": 0.242226117,
				"y": 0.7332032898,
				"z": 0.5433868872,
				"element": "H" 
			},
			{
				"x": 0.0263258398,
				"y": 1.3543555303,
				"z": -1.0868017966,
				"element": "H" 
			},
			{
				"x": -2.4635862863,
				"y": 1.3463705189,
				"z": -0.7942056599,
				"element": "H" 
			},
			{
				"x": -2.2813594191,
				"y": 0.6108879398,
				"z": 0.8170880309,
				"element": "H" 
			}
		],
		 "valence_orbital": [ 
			{
				"type": "occ",
				"energy": -0.33263,
				"method": "rhf"
			},
			{
				"type": "occ",
				"energy": -0.26487,
				"method": "rhf"
			},
			{
				"type": "occ",
				"energy": -0.26329,
				"method": "rhf"
			},
			{
				"type": "occ",
				"energy": -0.26041,
				"method": "rhf"
			},
			{
				"type": "occ",
				"energy": -0.25958,
				"method": "rhf"
			},
			{
				"type": "unocc",
				"energy": -0.05161,
				"method": "rhf"
			},
			{
				"type": "unocc",
				"energy": -0.04196,
				"method": "rhf"
			},
			{
				"type": "unocc",
				"energy": 0.02737,
				"method": "rhf"
			},
			{
				"type": "unocc",
				"energy": 0.03441,
				"method": "rhf"
			},
			{
				"type": "unocc",
				"energy": 0.0443,
				"method": "rhf"
			}
		],
		"cosmo_sigma_profile": { 
			"0.0": 0.0,
			"0.0": 0.0,
			"0.0": 0.0,
			"0.0": 0.0,
			"0.0": 0.0,
			"0.0": 0.0,
			"0.0": 0.0,
			"0.0": 0.0,
			"0.0": 0.0,
			"0.0": 0.0,
			"0.0": 0.0,
			"0.0": 0.0,
			"0.0": 0.0,
			"0.0": 0.0,
			"0.0": 0.0,
			"0.0": 0.0,
			"0.0": 0.0,
			"0.0": 0.0,
			"0.0": 0.0,
			"0.0": 0.0,
			"0.0": 0.0,
			"0.0": 0.0,
			"0.0": 0.0,
			"0.0": 0.0,
			"0.0": 0.0,
			"0.0": 0.0,
			"0.0": 0.0,
			"0.0": 0.0,
			"0.0": 0.0,
			"0.0": 0.0,
			"0.0": 0.0,
			"0.0": 0.0,
			"0.0": 0.0,
			"0.0": 0.0,
			"0.0": 0.0,
			"0.0": 0.0,
			"0.0": 0.0,
			"0.0": 0.0,
			"0.0": 0.0,
			"0.0": 0.0,
			"0.0": 0.0,
			"0.0": 0.0,
			"0.0": 0.0,
			"0.0": 0.0,
			"0.0": 0.0,
			"0.0": 0.0,
			"0.0": 0.0,
			"0.0": 0.0,
			"0.0": 0.0,
			"0.0": 0.0,
			"0.0": 0.0
		}
	}
}
