{
	 "smiles": "OC(=O)C(F)(F)C(F)(F)C(F)(F)C(F)(F)C(F)(F)C(F)(C(F)(F)F)C(F)(F)F", 
	 "Tm": 307.65, 
	 "num_atms": 29, 
	 "gaussian": { 
		 "optdone": 1, 
		 "sigma_profile": "yes", 
		 "theory": "DFT", 
		 "functional": "B3LYP", 
		 "basiset": "6-31G**", 
		 "properties": { 
			 "R2extent": 10263.7311, 
			 "electric_dipole_moment_norm": 2.04596896115, 
			 "electric_quadrupole_moment_norm": 17.9813941203, 
			 "total_energy": -2191.22471232, 
			 "HOMO_LUMO_gap": 0.2659, 
			 "cosmo_polarized_energy": -8.21, 
			 "cosmo_cavitation_energy": 38.7, 
			 "cosmo_dispersion_energy": -25.58, 
			 "cosmo_repulsion_energy": 1.63, 
			 "cosmo_total_nonelectrostatic_energy": 14.75, 
			 "SMD_solvation_energy": 12.92 
		},
		"coords": [
			{
				"x": 0.2120070805,
				"y": -4.651839459,
				"z": 1.3883215513,
				"element": "O" 
			},
			{
				"x": -0.8027243351,
				"y": -3.79451709,
				"z": 1.5451787771,
				"element": "C" 
			},
			{
				"x": -1.8958925394,
				"y": -4.0568816008,
				"z": 1.9743964172,
				"element": "O" 
			},
			{
				"x": -0.4162493299,
				"y": -2.3666881792,
				"z": 1.0866416104,
				"element": "C" 
			},
			{
				"x": -0.945712048,
				"y": -1.4860181531,
				"z": 1.9655878312,
				"element": "F" 
			},
			{
				"x": 0.92839504,
				"y": -2.2145039081,
				"z": 1.0592563864,
				"element": "F" 
			},
			{
				"x": -0.9842538346,
				"y": -2.0775881484,
				"z": -0.3271146955,
				"element": "C" 
			},
			{
				"x": -2.3272002204,
				"y": -2.0021835331,
				"z": -0.2546466787,
				"element": "F" 
			},
			{
				"x": -0.6636044286,
				"y": -3.1487954556,
				"z": -1.1047253081,
				"element": "F" 
			},
			{
				"x": -0.4314435563,
				"y": -0.8342418177,
				"z": -1.0961002827,
				"element": "C" 
			},
			{
				"x": -1.1775970654,
				"y": -0.7230317165,
				"z": -2.2207942848,
				"element": "F" 
			},
			{
				"x": 0.8433158571,
				"y": -1.1243700704,
				"z": -1.4435888991,
				"element": "F" 
			},
			{
				"x": -0.3617585021,
				"y": 0.5831485196,
				"z": -0.434965265,
				"element": "C" 
			},
			{
				"x": 0.386906925,
				"y": 0.5011606943,
				"z": 0.687844344,
				"element": "F" 
			},
			{
				"x": 0.2833803656,
				"y": 1.3541395583,
				"z": -1.3431413392,
				"element": "F" 
			},
			{
				"x": -1.7150227236,
				"y": 1.2695246811,
				"z": -0.0951603268,
				"element": "C" 
			},
			{
				"x": -2.3768291646,
				"y": 1.5010007212,
				"z": -1.25268952,
				"element": "F" 
			},
			{
				"x": -2.4182058821,
				"y": 0.3896020303,
				"z": 0.6565376063,
				"element": "F" 
			},
			{
				"x": -1.6601862661,
				"y": 2.6056341935,
				"z": 0.7217325674,
				"element": "C" 
			},
			{
				"x": -1.2834934594,
				"y": 2.288121751,
				"z": 1.9990081914,
				"element": "F" 
			},
			{
				"x": -0.6408134845,
				"y": 3.6555836625,
				"z": 0.1920227751,
				"element": "C" 
			},
			{
				"x": -0.8337024348,
				"y": 4.838090398,
				"z": 0.7939020618,
				"element": "F" 
			},
			{
				"x": -0.7736918649,
				"y": 3.8245498804,
				"z": -1.1293535825,
				"element": "F" 
			},
			{
				"x": 0.6076716035,
				"y": 3.2587213481,
				"z": 0.4659408385,
				"element": "F" 
			},
			{
				"x": -3.0862264846,
				"y": 3.2482307945,
				"z": 0.8076240968,
				"element": "C" 
			},
			{
				"x": -3.1230246232,
				"y": 4.0999096122,
				"z": 1.8373307792,
				"element": "F" 
			},
			{
				"x": -4.0381145048,
				"y": 2.3281559688,
				"z": 1.0002968483,
				"element": "F" 
			},
			{
				"x": -3.3632687024,
				"y": 3.9154678797,
				"z": -0.3223566634,
				"element": "F" 
			},
			{
				"x": -0.1070614172,
				"y": -5.5241825614,
				"z": 1.6782141633,
				"element": "H" 
			}
		],
		 "valence_orbital": [ 
			{
				"type": "occ",
				"energy": -0.38346,
				"method": "rhf"
			},
			{
				"type": "occ",
				"energy": -0.3727,
				"method": "rhf"
			},
			{
				"type": "occ",
				"energy": -0.35663,
				"method": "rhf"
			},
			{
				"type": "occ",
				"energy": -0.35413,
				"method": "rhf"
			},
			{
				"type": "occ",
				"energy": -0.31178,
				"method": "rhf"
			},
			{
				"type": "unocc",
				"energy": -0.04588,
				"method": "rhf"
			},
			{
				"type": "unocc",
				"energy": 0.0029,
				"method": "rhf"
			},
			{
				"type": "unocc",
				"energy": 0.01633,
				"method": "rhf"
			},
			{
				"type": "unocc",
				"energy": 0.04168,
				"method": "rhf"
			},
			{
				"type": "unocc",
				"energy": 0.04434,
				"method": "rhf"
			}
		],
		"cosmo_sigma_profile": { 
			"-0.025": 0.0,
			"-0.024": 0.0,
			"-0.023": 0.0,
			"-0.022": 0.0,
			"-0.021": 0.324925084649,
			"-0.02": 0.934291317612,
			"-0.019": 0.900055065675,
			"-0.018": 1.30657989039,
			"-0.017": 0.93754916644,
			"-0.016": 0.540626704504,
			"-0.015": 0.331520016118,
			"-0.014": 0.833898711234,
			"-0.013": 1.24062647005,
			"-0.012": 0.738171658371,
			"-0.011": 0.456787497541,
			"-0.01": 0.649666210011,
			"-0.009": 1.43455611559,
			"-0.008": 2.0231220741,
			"-0.007": 1.17102056238,
			"-0.006": 1.7714482847,
			"-0.005": 2.77116980946,
			"-0.004": 5.090812659,
			"-0.003": 8.14385434572,
			"-0.002": 12.9355449557,
			"-0.001": 30.3720523513,
			"0.0": 78.5801219855,
			"0.001": 116.352280712,
			"0.002": 13.2085044428,
			"0.003": 4.95572803106,
			"0.004": 4.00412006442,
			"0.005": 3.64381933315,
			"0.006": 3.64688180482,
			"0.007": 2.84886571948,
			"0.008": 2.57421961193,
			"0.009": 4.58559458299,
			"0.01": 1.56515938704,
			"0.011": 0.0,
			"0.012": 0.0,
			"0.013": 0.0,
			"0.014": 0.0,
			"0.015": 0.0,
			"0.016": 0.0,
			"0.017": 0.0,
			"0.018": 0.0,
			"0.019": 0.0,
			"0.02": 0.0,
			"0.021": 0.0,
			"0.022": 0.0,
			"0.023": 0.0,
			"0.024": 0.0,
			"0.025": 0.0
		}
	}
}
