{
	 "smiles": "C[N+](C)(C)CCCCCCCCCC[N+](C)(C)C", 
	 "Tm": 542.15, 
	 "num_atms": 56, 
	 "gaussian": { 
		 "optdone": 1, 
		 "sigma_profile": "yes", 
		 "theory": "DFT", 
		 "functional": "B3LYP", 
		 "basiset": "6-31G**", 
		 "properties": { 
			 "R2extent": 12692.1877, 
			 "electric_dipole_moment_norm": 5.99415036265, 
			 "electric_quadrupole_moment_norm": 207.615720009, 
			 "total_energy": -741.624236333, 
			 "HOMO_LUMO_gap": 0.32379, 
			 "cosmo_polarized_energy": -78.31, 
			 "cosmo_cavitation_energy": 51.7, 
			 "cosmo_dispersion_energy": -34.81, 
			 "cosmo_repulsion_energy": 2.73, 
			 "cosmo_total_nonelectrostatic_energy": 19.62, 
			 "SMD_solvation_energy": 9.88 
		},
		"coords": [
			{
				"x": 2.7872867117,
				"y": -0.3414513319,
				"z": 6.7912631877,
				"element": "C" 
			},
			{
				"x": 2.9712909533,
				"y": 0.3923060319,
				"z": 5.4846791179,
				"element": "N" 
			},
			{
				"x": 4.2775595844,
				"y": -0.0234275624,
				"z": 4.8568235401,
				"element": "C" 
			},
			{
				"x": 3.0195780374,
				"y": 1.8739271241,
				"z": 5.7725407756,
				"element": "C" 
			},
			{
				"x": 1.792028573,
				"y": 0.1339638915,
				"z": 4.5306576711,
				"element": "C" 
			},
			{
				"x": 1.6125352913,
				"y": -1.312519507,
				"z": 4.0666822147,
				"element": "C" 
			},
			{
				"x": 0.283634302,
				"y": -1.5414506702,
				"z": 3.2981137964,
				"element": "C" 
			},
			{
				"x": 0.2895835287,
				"y": -1.2971910283,
				"z": 1.7767113951,
				"element": "C" 
			},
			{
				"x": 0.3293522573,
				"y": 0.1628933437,
				"z": 1.2995752007,
				"element": "C" 
			},
			{
				"x": 0.1119628379,
				"y": 0.3008918146,
				"z": -0.2184106826,
				"element": "C" 
			},
			{
				"x": 0.1504588346,
				"y": 1.7608873135,
				"z": -0.6950843685,
				"element": "C" 
			},
			{
				"x": 0.1344455384,
				"y": 2.0037010658,
				"z": -2.2163046921,
				"element": "C" 
			},
			{
				"x": -1.2003444137,
				"y": 1.7399963586,
				"z": -2.9651446738,
				"element": "C" 
			},
			{
				"x": -1.3144890089,
				"y": 0.3035439401,
				"z": -3.4781840482,
				"element": "C" 
			},
			{
				"x": -2.5127082637,
				"y": 0.0090659482,
				"z": -4.3971092579,
				"element": "N" 
			},
			{
				"x": -3.8161492363,
				"y": 0.3071008227,
				"z": -3.7004307121,
				"element": "C" 
			},
			{
				"x": -2.4754283044,
				"y": -1.4582107993,
				"z": -4.7524629331,
				"element": "C" 
			},
			{
				"x": -2.4319207242,
				"y": 0.8113243525,
				"z": -5.6735179685,
				"element": "C" 
			},
			{
				"x": 1.8321704356,
				"y": -0.049902767,
				"z": 7.2293159233,
				"element": "H" 
			},
			{
				"x": 2.8077742789,
				"y": -1.4151113118,
				"z": 6.6151673612,
				"element": "H" 
			},
			{
				"x": 3.6020139472,
				"y": -0.0662684558,
				"z": 7.4616646322,
				"element": "H" 
			},
			{
				"x": 5.0915297168,
				"y": 0.2553194623,
				"z": 5.5267828451,
				"element": "H" 
			},
			{
				"x": 4.2804966779,
				"y": -1.1013710246,
				"z": 4.7053261795,
				"element": "H" 
			},
			{
				"x": 4.390918007,
				"y": 0.491489993,
				"z": 3.9021360621,
				"element": "H" 
			},
			{
				"x": 2.0748911227,
				"y": 2.1785637606,
				"z": 6.2238046335,
				"element": "H" 
			},
			{
				"x": 3.8409623417,
				"y": 2.0749761354,
				"z": 6.4608605489,
				"element": "H" 
			},
			{
				"x": 3.1785851896,
				"y": 2.4124234655,
				"z": 4.8379886149,
				"element": "H" 
			},
			{
				"x": 1.9506972978,
				"y": 0.809544599,
				"z": 3.687311503,
				"element": "H" 
			},
			{
				"x": 0.906788779,
				"y": 0.474225226,
				"z": 5.0749127974,
				"element": "H" 
			},
			{
				"x": 2.451430982,
				"y": -1.6257483299,
				"z": 3.4355994877,
				"element": "H" 
			},
			{
				"x": 1.6042815404,
				"y": -1.9737619434,
				"z": 4.9387531945,
				"element": "H" 
			},
			{
				"x": -0.5206079749,
				"y": -0.9587875746,
				"z": 3.7673065781,
				"element": "H" 
			},
			{
				"x": 0.0142379522,
				"y": -2.590521781,
				"z": 3.4560015232,
				"element": "H" 
			},
			{
				"x": -0.6242347335,
				"y": -1.7590893345,
				"z": 1.3814315144,
				"element": "H" 
			},
			{
				"x": 1.1220471878,
				"y": -1.8545402986,
				"z": 1.3258938158,
				"element": "H" 
			},
			{
				"x": -0.4405539256,
				"y": 0.7435338351,
				"z": 1.826968698,
				"element": "H" 
			},
			{
				"x": 1.294601432,
				"y": 0.6256321372,
				"z": 1.5508210672,
				"element": "H" 
			},
			{
				"x": 0.8815948881,
				"y": -0.2796064688,
				"z": -0.7465144825,
				"element": "H" 
			},
			{
				"x": -0.8538888985,
				"y": -0.1609702514,
				"z": -0.4696679382,
				"element": "H" 
			},
			{
				"x": 1.0700189069,
				"y": 2.2215793455,
				"z": -0.3119497426,
				"element": "H" 
			},
			{
				"x": -0.6756289295,
				"y": 2.3192473172,
				"z": -0.233961918,
				"element": "H" 
			},
			{
				"x": 0.9457753417,
				"y": 1.437538688,
				"z": -2.693380138,
				"element": "H" 
			},
			{
				"x": 0.379919635,
				"y": 3.05782747,
				"z": -2.3786760793,
				"element": "H" 
			},
			{
				"x": -2.0388151079,
				"y": 1.9863623359,
				"z": -2.3045590473,
				"element": "H" 
			},
			{
				"x": -1.2467387685,
				"y": 2.431397673,
				"z": -3.8120659957,
				"element": "H" 
			},
			{
				"x": -1.3992443655,
				"y": -0.4105093827,
				"z": -2.6559419966,
				"element": "H" 
			},
			{
				"x": -0.4327713305,
				"y": 0.0375860829,
				"z": -4.0675957358,
				"element": "H" 
			},
			{
				"x": -3.856569944,
				"y": -0.2582711757,
				"z": -2.7687044896,
				"element": "H" 
			},
			{
				"x": -3.882712888,
				"y": 1.3742026472,
				"z": -3.4959685632,
				"element": "H" 
			},
			{
				"x": -4.6373499972,
				"y": 0.0063804214,
				"z": -4.3518180924,
				"element": "H" 
			},
			{
				"x": -1.5341911844,
				"y": -1.6770610903,
				"z": -5.2574737223,
				"element": "H" 
			},
			{
				"x": -2.5552426373,
				"y": -2.0472626442,
				"z": -3.8385126697,
				"element": "H" 
			},
			{
				"x": -3.3122190033,
				"y": -1.6843687397,
				"z": -5.4139071031,
				"element": "H" 
			},
			{
				"x": -3.2510257333,
				"y": 0.5083591656,
				"z": -6.3263696271,
				"element": "H" 
			},
			{
				"x": -1.4766211892,
				"y": 0.6087784097,
				"z": -6.1588316964,
				"element": "H" 
			},
			{
				"x": -2.5205955477,
				"y": 1.8718332954,
				"z": -5.4462455046,
				"element": "H" 
			}
		],
		 "valence_orbital": [ 
			{
				"type": "occ",
				"energy": -0.51884,
				"method": "rhf"
			},
			{
				"type": "occ",
				"energy": -0.51162,
				"method": "rhf"
			},
			{
				"type": "occ",
				"energy": -0.50649,
				"method": "rhf"
			},
			{
				"type": "occ",
				"energy": -0.50511,
				"method": "rhf"
			},
			{
				"type": "occ",
				"energy": -0.48954,
				"method": "rhf"
			},
			{
				"type": "unocc",
				"energy": -0.16575,
				"method": "rhf"
			},
			{
				"type": "unocc",
				"energy": -0.16545,
				"method": "rhf"
			},
			{
				"type": "unocc",
				"energy": -0.12637,
				"method": "rhf"
			},
			{
				"type": "unocc",
				"energy": -0.12178,
				"method": "rhf"
			},
			{
				"type": "unocc",
				"energy": -0.1164,
				"method": "rhf"
			}
		],
		"cosmo_sigma_profile": { 
			"-0.025": 0.0,
			"-0.024": 0.0,
			"-0.023": 0.0,
			"-0.022": 0.0,
			"-0.021": 0.0,
			"-0.02": 0.0,
			"-0.019": 0.0,
			"-0.018": 0.0,
			"-0.017": 0.0,
			"-0.016": 0.0,
			"-0.015": 0.0,
			"-0.014": 0.00382115983791,
			"-0.013": 0.653427683681,
			"-0.012": 2.6012848904,
			"-0.011": 3.97370381224,
			"-0.01": 7.60345858427,
			"-0.009": 12.1610307252,
			"-0.008": 20.7008017527,
			"-0.007": 21.0660640388,
			"-0.006": 23.7855187814,
			"-0.005": 24.6141985386,
			"-0.004": 12.1755684071,
			"-0.003": 10.7351379308,
			"-0.002": 15.2301708403,
			"-0.001": 26.6579145111,
			"0.0": 32.6197297825,
			"0.001": 30.3492836072,
			"0.002": 22.6510360817,
			"0.003": 20.6274652304,
			"0.004": 20.6171198728,
			"0.005": 14.5860820457,
			"0.006": 9.78532319976,
			"0.007": 10.133733032,
			"0.008": 10.674181373,
			"0.009": 7.39656766485,
			"0.01": 5.94323601761,
			"0.011": 5.96028645019,
			"0.012": 3.72648550572,
			"0.013": 3.69727223084,
			"0.014": 3.44312620967,
			"0.015": 3.07764825424,
			"0.016": 1.67749442734,
			"0.017": 0.634184934192,
			"0.018": 0.985634698008,
			"0.019": 0.864969008658,
			"0.02": 0.994975120042,
			"0.021": 0.485076691236,
			"0.022": 0.280389525768,
			"0.023": 0.0,
			"0.024": 0.0,
			"0.025": 0.0
		}
	}
}
