{
	 "smiles": "OC(=O)C1=CC(NC(=O)OCC2C3=C(C=CC=C3)C3=C2C=CC=C3)=CC(O)=C1", 
	 "Tm": 508.15, 
	 "num_atms": 45, 
	 "gaussian": { 
		 "optdone": 1, 
		 "sigma_profile": "yes", 
		 "theory": "DFT", 
		 "functional": "B3LYP", 
		 "basiset": "6-31G**", 
		 "properties": { 
			 "R2extent": 10534.9227, 
			 "electric_dipole_moment_norm": 2.07284991497, 
			 "electric_quadrupole_moment_norm": 21.3768177489, 
			 "total_energy": -1279.50490728, 
			 "HOMO_LUMO_gap": 0.17732, 
			 "cosmo_polarized_energy": -24.46, 
			 "cosmo_cavitation_energy": 49.02, 
			 "cosmo_dispersion_energy": -32.32, 
			 "cosmo_repulsion_energy": 2.38, 
			 "cosmo_total_nonelectrostatic_energy": 19.07, 
			 "SMD_solvation_energy": 9.87 
		},
		"coords": [
			{
				"x": -3.4530878718,
				"y": 0.0380252328,
				"z": -0.3424378993,
				"element": "O" 
			},
			{
				"x": -3.6718078407,
				"y": -0.4223632147,
				"z": -1.597319436,
				"element": "C" 
			},
			{
				"x": -4.6496583172,
				"y": -0.058547247,
				"z": -2.2106386867,
				"element": "O" 
			},
			{
				"x": -2.6705399454,
				"y": -1.3927840057,
				"z": -2.1582710106,
				"element": "C" 
			},
			{
				"x": -1.3591962558,
				"y": -1.486038284,
				"z": -1.6739537901,
				"element": "C" 
			},
			{
				"x": -0.4823123223,
				"y": -2.4130673148,
				"z": -2.2609715053,
				"element": "C" 
			},
			{
				"x": 0.862428717,
				"y": -2.5914221419,
				"z": -1.8865067551,
				"element": "N" 
			},
			{
				"x": 1.6698099246,
				"y": -2.0767168718,
				"z": -0.8953360311,
				"element": "C" 
			},
			{
				"x": 2.8349710337,
				"y": -2.4119068402,
				"z": -0.7829141865,
				"element": "O" 
			},
			{
				"x": 1.0519429139,
				"y": -1.1905369498,
				"z": -0.0850601303,
				"element": "O" 
			},
			{
				"x": 1.9053951548,
				"y": -0.6565108501,
				"z": 0.9517829442,
				"element": "C" 
			},
			{
				"x": 1.1032346555,
				"y": 0.3277438811,
				"z": 1.8001741112,
				"element": "C" 
			},
			{
				"x": -0.1300101188,
				"y": -0.2578834093,
				"z": 2.4721010311,
				"element": "C" 
			},
			{
				"x": -1.2680790334,
				"y": 0.5128040961,
				"z": 2.1541021787,
				"element": "C" 
			},
			{
				"x": -2.5192273601,
				"y": 0.173357542,
				"z": 2.6791071717,
				"element": "C" 
			},
			{
				"x": -2.6189320946,
				"y": -0.9430504112,
				"z": 3.5149942289,
				"element": "C" 
			},
			{
				"x": -1.4889477377,
				"y": -1.7050767549,
				"z": 3.8279512415,
				"element": "C" 
			},
			{
				"x": -0.2344644009,
				"y": -1.3629379799,
				"z": 3.3078254418,
				"element": "C" 
			},
			{
				"x": -0.8586764848,
				"y": 1.6120124415,
				"z": 1.2643231775,
				"element": "C" 
			},
			{
				"x": 0.5296909397,
				"y": 1.5157392182,
				"z": 1.0416787252,
				"element": "C" 
			},
			{
				"x": 1.1821941583,
				"y": 2.4408581695,
				"z": 0.2348788891,
				"element": "C" 
			},
			{
				"x": 0.4365428929,
				"y": 3.466357255,
				"z": -0.3577266217,
				"element": "C" 
			},
			{
				"x": -0.9428950196,
				"y": 3.5590958895,
				"z": -0.1421050955,
				"element": "C" 
			},
			{
				"x": -1.6027147385,
				"y": 2.6342555761,
				"z": 0.6698933587,
				"element": "C" 
			},
			{
				"x": -0.933430317,
				"y": -3.2270322704,
				"z": -3.3095223358,
				"element": "C" 
			},
			{
				"x": -2.2387772787,
				"y": -3.1111366805,
				"z": -3.7877334254,
				"element": "C" 
			},
			{
				"x": -2.596456889,
				"y": -3.9325918247,
				"z": -4.8144797387,
				"element": "O" 
			},
			{
				"x": -3.1143214945,
				"y": -2.1872632106,
				"z": -3.2180969361,
				"element": "C" 
			},
			{
				"x": -2.7187700036,
				"y": -0.4265602374,
				"z": 0.0865649394,
				"element": "H" 
			},
			{
				"x": -0.9941508036,
				"y": -0.8286485783,
				"z": -0.8973108149,
				"element": "H" 
			},
			{
				"x": 1.383821206,
				"y": -3.2527301082,
				"z": -2.4448321331,
				"element": "H" 
			},
			{
				"x": 2.2849713575,
				"y": -1.483388547,
				"z": 1.5588824035,
				"element": "H" 
			},
			{
				"x": 2.7654750385,
				"y": -0.1666920166,
				"z": 0.4864215863,
				"element": "H" 
			},
			{
				"x": 1.805985771,
				"y": 0.6845402747,
				"z": 2.5692271291,
				"element": "H" 
			},
			{
				"x": -3.4011352545,
				"y": 0.7595719976,
				"z": 2.4394798909,
				"element": "H" 
			},
			{
				"x": -3.5850214973,
				"y": -1.219017878,
				"z": 3.9274418933,
				"element": "H" 
			},
			{
				"x": -1.5843696655,
				"y": -2.5681206988,
				"z": 4.4802224904,
				"element": "H" 
			},
			{
				"x": 0.6395165024,
				"y": -1.9587220376,
				"z": 3.5591366411,
				"element": "H" 
			},
			{
				"x": 2.2534018414,
				"y": 2.3753557832,
				"z": 0.0610485672,
				"element": "H" 
			},
			{
				"x": 0.9325959434,
				"y": 4.194770751,
				"z": -0.9924710689,
				"element": "H" 
			},
			{
				"x": -1.507912317,
				"y": 4.3574542379,
				"z": -0.6141564909,
				"element": "H" 
			},
			{
				"x": -2.6753398976,
				"y": 2.7027779522,
				"z": 0.8208189781,
				"element": "H" 
			},
			{
				"x": -0.2745601563,
				"y": -3.9550188341,
				"z": -3.7733266149,
				"element": "H" 
			},
			{
				"x": -3.5132938458,
				"y": -3.7512303577,
				"z": -5.0597454771,
				"element": "H" 
			},
			{
				"x": -4.1315890885,
				"y": -2.0636247434,
				"z": -3.5762408351,
				"element": "H" 
			}
		],
		 "valence_orbital": [ 
			{
				"type": "occ",
				"energy": -0.25804,
				"method": "rhf"
			},
			{
				"type": "occ",
				"energy": -0.25117,
				"method": "rhf"
			},
			{
				"type": "occ",
				"energy": -0.24581,
				"method": "rhf"
			},
			{
				"type": "occ",
				"energy": -0.22838,
				"method": "rhf"
			},
			{
				"type": "occ",
				"energy": -0.22338,
				"method": "rhf"
			},
			{
				"type": "unocc",
				"energy": -0.04606,
				"method": "rhf"
			},
			{
				"type": "unocc",
				"energy": -0.03948,
				"method": "rhf"
			},
			{
				"type": "unocc",
				"energy": -0.02147,
				"method": "rhf"
			},
			{
				"type": "unocc",
				"energy": -0.01159,
				"method": "rhf"
			},
			{
				"type": "unocc",
				"energy": 0.00102,
				"method": "rhf"
			}
		],
		"cosmo_sigma_profile": { 
			"-0.025": 0.0,
			"-0.024": 0.0,
			"-0.023": 0.0,
			"-0.022": 0.0,
			"-0.021": 0.0,
			"-0.02": 0.0,
			"-0.019": 0.12371498272,
			"-0.018": 0.824381236977,
			"-0.017": 1.38623171641,
			"-0.016": 1.24111853028,
			"-0.015": 2.05581117859,
			"-0.014": 2.70208781426,
			"-0.013": 0.82308286967,
			"-0.012": 2.28185450431,
			"-0.011": 3.99985657113,
			"-0.01": 2.80666481096,
			"-0.009": 3.68612244401,
			"-0.008": 3.80883376137,
			"-0.007": 6.86616826993,
			"-0.006": 26.5377560308,
			"-0.005": 26.9493784183,
			"-0.004": 26.1517558944,
			"-0.003": 24.0781579613,
			"-0.002": 23.6988172679,
			"-0.001": 22.0273608892,
			"0.0": 23.3545536601,
			"0.001": 27.3556291054,
			"0.002": 30.6400532332,
			"0.003": 30.4453128507,
			"0.004": 22.5595614981,
			"0.005": 22.1020553395,
			"0.006": 10.7813592591,
			"0.007": 3.91359203122,
			"0.008": 4.44614941787,
			"0.009": 6.09604045396,
			"0.01": 6.76586879807,
			"0.011": 7.25049710703,
			"0.012": 9.67644385952,
			"0.013": 4.57212142622,
			"0.014": 0.108487382343,
			"0.015": 0.0,
			"0.016": 0.0,
			"0.017": 0.0,
			"0.018": 0.0,
			"0.019": 0.0,
			"0.02": 0.0,
			"0.021": 0.0,
			"0.022": 0.0,
			"0.023": 0.0,
			"0.024": 0.0,
			"0.025": 0.0
		}
	}
}
