{
	 "smiles": "OC(=O)C(=O)NC1=CC=CC=C1", 
	 "Tm": 423.15, 
	 "num_atms": 19, 
	 "gaussian": { 
		 "optdone": 1, 
		 "sigma_profile": "yes", 
		 "theory": "DFT", 
		 "functional": "B3LYP", 
		 "basiset": "6-31G**", 
		 "properties": { 
			 "R2extent": 2334.7632, 
			 "electric_dipole_moment_norm": 4.14180313511, 
			 "electric_quadrupole_moment_norm": 14.9539441346, 
			 "total_energy": -589.501797496, 
			 "HOMO_LUMO_gap": 0.21354, 
			 "cosmo_polarized_energy": -15.28, 
			 "cosmo_cavitation_energy": 24.53, 
			 "cosmo_dispersion_energy": -17.53, 
			 "cosmo_repulsion_energy": 1.43, 
			 "cosmo_total_nonelectrostatic_energy": 8.43, 
			 "SMD_solvation_energy": 6.21 
		},
		"coords": [
			{
				"x": 2.2051363561,
				"y": 1.2430588475,
				"z": -1.1417273422,
				"element": "O" 
			},
			{
				"x": 1.4611552927,
				"y": 2.1362806351,
				"z": -0.4663233129,
				"element": "C" 
			},
			{
				"x": 1.8905026327,
				"y": 2.8843494298,
				"z": 0.380861864,
				"element": "O" 
			},
			{
				"x": 0.0239741382,
				"y": 2.1689257366,
				"z": -1.000098589,
				"element": "C" 
			},
			{
				"x": -0.2482445946,
				"y": 2.9624245148,
				"z": -1.8856711607,
				"element": "O" 
			},
			{
				"x": -0.8887212665,
				"y": 1.3073325018,
				"z": -0.4575510255,
				"element": "N" 
			},
			{
				"x": -0.7200966489,
				"y": 0.3381471147,
				"z": 0.5684066408,
				"element": "C" 
			},
			{
				"x": -0.0425818753,
				"y": 0.6399781717,
				"z": 1.7565044874,
				"element": "C" 
			},
			{
				"x": 0.0900582263,
				"y": -0.3402361451,
				"z": 2.7412731966,
				"element": "C" 
			},
			{
				"x": -0.4762674984,
				"y": -1.6036171568,
				"z": 2.5690805614,
				"element": "C" 
			},
			{
				"x": -1.1759949215,
				"y": -1.8908385196,
				"z": 1.3946561136,
				"element": "C" 
			},
			{
				"x": -1.2911042066,
				"y": -0.9295007192,
				"z": 0.3929939266,
				"element": "C" 
			},
			{
				"x": 3.119285027,
				"y": 1.3398129576,
				"z": -0.8201568923,
				"element": "H" 
			},
			{
				"x": -1.7832911734,
				"y": 1.3390001097,
				"z": -0.933471771,
				"element": "H" 
			},
			{
				"x": 0.363307026,
				"y": 1.6327463009,
				"z": 1.9125252693,
				"element": "H" 
			},
			{
				"x": 0.621612269,
				"y": -0.1016805897,
				"z": 3.6577415963,
				"element": "H" 
			},
			{
				"x": -0.3803964125,
				"y": -2.3563558089,
				"z": 3.3455150469,
				"element": "H" 
			},
			{
				"x": -1.6246746919,
				"y": -2.8693488409,
				"z": 1.2513027763,
				"element": "H" 
			},
			{
				"x": -1.8140576782,
				"y": -1.1575785399,
				"z": -0.5316613853,
				"element": "H" 
			}
		],
		 "valence_orbital": [ 
			{
				"type": "occ",
				"energy": -0.31265,
				"method": "rhf"
			},
			{
				"type": "occ",
				"energy": -0.30693,
				"method": "rhf"
			},
			{
				"type": "occ",
				"energy": -0.26662,
				"method": "rhf"
			},
			{
				"type": "occ",
				"energy": -0.26204,
				"method": "rhf"
			},
			{
				"type": "occ",
				"energy": -0.24099,
				"method": "rhf"
			},
			{
				"type": "unocc",
				"energy": -0.02745,
				"method": "rhf"
			},
			{
				"type": "unocc",
				"energy": -0.02082,
				"method": "rhf"
			},
			{
				"type": "unocc",
				"energy": -0.00277,
				"method": "rhf"
			},
			{
				"type": "unocc",
				"energy": 0.0136,
				"method": "rhf"
			},
			{
				"type": "unocc",
				"energy": 0.07339,
				"method": "rhf"
			}
		],
		"cosmo_sigma_profile": { 
			"-0.025": 0.0,
			"-0.024": 0.0,
			"-0.023": 0.0,
			"-0.022": 0.0,
			"-0.021": 0.0,
			"-0.02": 0.219855129598,
			"-0.019": 1.08332503861,
			"-0.018": 1.00557788925,
			"-0.017": 0.547332487917,
			"-0.016": 0.963132605044,
			"-0.015": 1.58250186947,
			"-0.014": 2.0148938805,
			"-0.013": 1.86767675866,
			"-0.012": 2.49050930168,
			"-0.011": 1.71309826031,
			"-0.01": 1.66143609231,
			"-0.009": 1.89388396334,
			"-0.008": 1.88066554625,
			"-0.007": 3.60363355882,
			"-0.006": 9.58064283392,
			"-0.005": 12.1470596444,
			"-0.004": 14.1091487911,
			"-0.003": 10.159968833,
			"-0.002": 9.81886733864,
			"-0.001": 10.0597431864,
			"0.0": 11.7879175111,
			"0.001": 13.4198406643,
			"0.002": 11.4918396818,
			"0.003": 13.1847298907,
			"0.004": 13.980812814,
			"0.005": 9.58704440793,
			"0.006": 4.35024139542,
			"0.007": 4.02863849797,
			"0.008": 4.21945991504,
			"0.009": 4.02786389581,
			"0.01": 6.00914422526,
			"0.011": 6.02039059439,
			"0.012": 5.06559466174,
			"0.013": 0.533203682269,
			"0.014": 0.0,
			"0.015": 0.0,
			"0.016": 0.0,
			"0.017": 0.0,
			"0.018": 0.0,
			"0.019": 0.0,
			"0.02": 0.0,
			"0.021": 0.0,
			"0.022": 0.0,
			"0.023": 0.0,
			"0.024": 0.0,
			"0.025": 0.0
		}
	}
}
