{
	 "smiles": "CC1(CC(=O)NC1=O)C1=CC=CC=C1", 
	 "Tm": 353.15, 
	 "num_atms": 25, 
	 "gaussian": { 
		 "optdone": 1, 
		 "sigma_profile": "yes", 
		 "theory": "DFT", 
		 "functional": "B3LYP", 
		 "basiset": "6-31G**", 
		 "properties": { 
			 "R2extent": 3339.6404, 
			 "electric_dipole_moment_norm": 1.92922395279, 
			 "electric_quadrupole_moment_norm": 11.0394760686, 
			 "total_energy": -631.033787366, 
			 "HOMO_LUMO_gap": 0.2207, 
			 "cosmo_polarized_energy": -13.39, 
			 "cosmo_cavitation_energy": 28.21, 
			 "cosmo_dispersion_energy": -20.36, 
			 "cosmo_repulsion_energy": 1.6, 
			 "cosmo_total_nonelectrostatic_energy": 9.45, 
			 "SMD_solvation_energy": 6.11 
		},
		"coords": [
			{
				"x": 0.7901650173,
				"y": 1.3592658001,
				"z": 0.3511484388,
				"element": "C" 
			},
			{
				"x": 0.2792942066,
				"y": 0.7451350389,
				"z": -0.9797471269,
				"element": "C" 
			},
			{
				"x": -0.4615691925,
				"y": 1.8090124755,
				"z": -1.8382238062,
				"element": "C" 
			},
			{
				"x": 0.4937533062,
				"y": 2.2067500481,
				"z": -2.9548388682,
				"element": "C" 
			},
			{
				"x": 0.3687661203,
				"y": 3.0948952626,
				"z": -3.7682032515,
				"element": "O" 
			},
			{
				"x": 1.5673490653,
				"y": 1.3231279593,
				"z": -2.8901841008,
				"element": "N" 
			},
			{
				"x": 1.5407178103,
				"y": 0.4366617826,
				"z": -1.8216287771,
				"element": "C" 
			},
			{
				"x": 2.416431779,
				"y": -0.3715851396,
				"z": -1.5886930907,
				"element": "O" 
			},
			{
				"x": -0.5773244302,
				"y": -0.4904944303,
				"z": -0.6687979458,
				"element": "C" 
			},
			{
				"x": -1.9372523809,
				"y": -0.3181709392,
				"z": -0.3649147201,
				"element": "C" 
			},
			{
				"x": -2.7435995135,
				"y": -1.4044327137,
				"z": -0.0252837767,
				"element": "C" 
			},
			{
				"x": -2.2038986214,
				"y": -2.690381046,
				"z": 0.0183929755,
				"element": "C" 
			},
			{
				"x": -0.8518084869,
				"y": -2.8726070196,
				"z": -0.2704362939,
				"element": "C" 
			},
			{
				"x": -0.0418539129,
				"y": -1.784881931,
				"z": -0.6040608236,
				"element": "C" 
			},
			{
				"x": 1.420611121,
				"y": 0.6399883481,
				"z": 0.8789057024,
				"element": "H" 
			},
			{
				"x": -0.0589071564,
				"y": 1.6154777714,
				"z": 0.9910232998,
				"element": "H" 
			},
			{
				"x": 1.3757857278,
				"y": 2.2675225547,
				"z": 0.1694557089,
				"element": "H" 
			},
			{
				"x": -0.7606150049,
				"y": 2.6991826266,
				"z": -1.278594855,
				"element": "H" 
			},
			{
				"x": -1.3614739287,
				"y": 1.403349453,
				"z": -2.3098706494,
				"element": "H" 
			},
			{
				"x": 2.3442085,
				"y": 1.3581304494,
				"z": -3.5388907668,
				"element": "H" 
			},
			{
				"x": -2.3777162327,
				"y": 0.674922744,
				"z": -0.3855538445,
				"element": "H" 
			},
			{
				"x": -3.793374344,
				"y": -1.243083883,
				"z": 0.2030025713,
				"element": "H" 
			},
			{
				"x": -2.8298167991,
				"y": -3.5392275702,
				"z": 0.2779335053,
				"element": "H" 
			},
			{
				"x": -0.4174727153,
				"y": -3.867849864,
				"z": -0.2360877594,
				"element": "H" 
			},
			{
				"x": 1.0092000655,
				"y": -1.939707778,
				"z": -0.8149517455,
				"element": "H" 
			}
		],
		 "valence_orbital": [ 
			{
				"type": "occ",
				"energy": -0.29594,
				"method": "rhf"
			},
			{
				"type": "occ",
				"energy": -0.28679,
				"method": "rhf"
			},
			{
				"type": "occ",
				"energy": -0.26418,
				"method": "rhf"
			},
			{
				"type": "occ",
				"energy": -0.25385,
				"method": "rhf"
			},
			{
				"type": "occ",
				"energy": -0.24659,
				"method": "rhf"
			},
			{
				"type": "unocc",
				"energy": -0.02589,
				"method": "rhf"
			},
			{
				"type": "unocc",
				"energy": -0.01025,
				"method": "rhf"
			},
			{
				"type": "unocc",
				"energy": -0.00564,
				"method": "rhf"
			},
			{
				"type": "unocc",
				"energy": 0.02693,
				"method": "rhf"
			},
			{
				"type": "unocc",
				"energy": 0.07976,
				"method": "rhf"
			}
		],
		"cosmo_sigma_profile": { 
			"-0.025": 0.0,
			"-0.024": 0.0,
			"-0.023": 0.0,
			"-0.022": 0.0,
			"-0.021": 0.0,
			"-0.02": 0.0,
			"-0.019": 0.0,
			"-0.018": 0.0,
			"-0.017": 0.152967580246,
			"-0.016": 1.26469244532,
			"-0.015": 1.09211495053,
			"-0.014": 1.24033143364,
			"-0.013": 0.865155139536,
			"-0.012": 0.320743468234,
			"-0.011": 1.3532115988,
			"-0.01": 0.709826090355,
			"-0.009": 0.637178996818,
			"-0.008": 1.73940253149,
			"-0.007": 6.05088435568,
			"-0.006": 14.0766406945,
			"-0.005": 19.7273962418,
			"-0.004": 18.6607397494,
			"-0.003": 19.5269491168,
			"-0.002": 15.338104583,
			"-0.001": 17.3054073144,
			"0.0": 13.4211416663,
			"0.001": 9.35739033757,
			"0.002": 11.4685285886,
			"0.003": 10.996904987,
			"0.004": 9.16656720762,
			"0.005": 10.3810029305,
			"0.006": 9.82466647975,
			"0.007": 2.62179290402,
			"0.008": 2.61000105391,
			"0.009": 2.96063694146,
			"0.01": 4.28900069398,
			"0.011": 7.48636911078,
			"0.012": 7.67371306649,
			"0.013": 1.68928957856,
			"0.014": 0.0,
			"0.015": 0.0,
			"0.016": 0.0,
			"0.017": 0.0,
			"0.018": 0.0,
			"0.019": 0.0,
			"0.02": 0.0,
			"0.021": 0.0,
			"0.022": 0.0,
			"0.023": 0.0,
			"0.024": 0.0,
			"0.025": 0.0
		}
	}
}
