{
	 "smiles": "CC1CCCN(C1)S(=O)(=O)C1=CC=C(N)C=C1", 
	 "Tm": 403.15, 
	 "num_atms": 35, 
	 "gaussian": { 
		 "optdone": 1, 
		 "sigma_profile": "yes", 
		 "theory": "DFT", 
		 "functional": "B3LYP", 
		 "basiset": "6-31G**", 
		 "properties": { 
			 "R2extent": 5867.1614, 
			 "electric_dipole_moment_norm": 6.49066248853, 
			 "electric_quadrupole_moment_norm": 34.7710483119, 
			 "total_energy": -1126.20478342, 
			 "HOMO_LUMO_gap": 0.20018, 
			 "cosmo_polarized_energy": -18.3, 
			 "cosmo_cavitation_energy": 37.28, 
			 "cosmo_dispersion_energy": -26.79, 
			 "cosmo_repulsion_energy": 2.05, 
			 "cosmo_total_nonelectrostatic_energy": 12.54, 
			 "SMD_solvation_energy": 4.16 
		},
		"coords": [
			{
				"x": 2.5825546271,
				"y": 1.169003684,
				"z": -1.2052232019,
				"element": "C" 
			},
			{
				"x": 1.7764940036,
				"y": 1.3150462813,
				"z": 0.0895012043,
				"element": "C" 
			},
			{
				"x": 1.6308094351,
				"y": 2.7966204937,
				"z": 0.5145134817,
				"element": "C" 
			},
			{
				"x": 0.405043576,
				"y": 3.024726407,
				"z": 1.431260047,
				"element": "C" 
			},
			{
				"x": 0.0395147521,
				"y": 1.7499221006,
				"z": 2.1951219282,
				"element": "C" 
			},
			{
				"x": -0.2822596509,
				"y": 0.6341652088,
				"z": 1.2705060848,
				"element": "N" 
			},
			{
				"x": 0.3925764617,
				"y": 0.6675339007,
				"z": -0.0472594121,
				"element": "C" 
			},
			{
				"x": -1.9056089804,
				"y": 0.1406501775,
				"z": 1.2022857698,
				"element": "S" 
			},
			{
				"x": -2.4675697359,
				"y": 0.3930010943,
				"z": 2.5358248742,
				"element": "O" 
			},
			{
				"x": -2.5697340379,
				"y": 0.685832673,
				"z": 0.0061611708,
				"element": "O" 
			},
			{
				"x": -1.7489491547,
				"y": -1.6194906771,
				"z": 0.9609020961,
				"element": "C" 
			},
			{
				"x": -1.2721510405,
				"y": -2.4225554304,
				"z": 2.0031519832,
				"element": "C" 
			},
			{
				"x": -1.1756808957,
				"y": -3.794844717,
				"z": 1.8287317579,
				"element": "C" 
			},
			{
				"x": -1.5588381822,
				"y": -4.392993355,
				"z": 0.6095833556,
				"element": "C" 
			},
			{
				"x": -1.5094931564,
				"y": -5.7686294131,
				"z": 0.4563392474,
				"element": "N" 
			},
			{
				"x": -2.042586948,
				"y": -3.5708975959,
				"z": -0.4256477538,
				"element": "C" 
			},
			{
				"x": -2.1397910271,
				"y": -2.1952021657,
				"z": -0.249844301,
				"element": "C" 
			},
			{
				"x": 2.0595331778,
				"y": 1.6358864469,
				"z": -2.0481792481,
				"element": "H" 
			},
			{
				"x": 3.5596984494,
				"y": 1.6547244361,
				"z": -1.112208729,
				"element": "H" 
			},
			{
				"x": 2.7540149246,
				"y": 0.1167036171,
				"z": -1.4563666394,
				"element": "H" 
			},
			{
				"x": 2.309297398,
				"y": 0.774441527,
				"z": 0.883458545,
				"element": "H" 
			},
			{
				"x": 2.5517051391,
				"y": 3.1126949389,
				"z": 1.0187990057,
				"element": "H" 
			},
			{
				"x": 1.5391875533,
				"y": 3.4240058241,
				"z": -0.3808502053,
				"element": "H" 
			},
			{
				"x": 0.5987086462,
				"y": 3.8340842366,
				"z": 2.1439549112,
				"element": "H" 
			},
			{
				"x": -0.4625952206,
				"y": 3.3324375877,
				"z": 0.8366717755,
				"element": "H" 
			},
			{
				"x": -0.8167225324,
				"y": 1.9044893936,
				"z": 2.8522248481,
				"element": "H" 
			},
			{
				"x": 0.8785723076,
				"y": 1.4339510776,
				"z": 2.8289217574,
				"element": "H" 
			},
			{
				"x": 0.4859843742,
				"y": -0.3623279678,
				"z": -0.410936648,
				"element": "H" 
			},
			{
				"x": -0.2039006045,
				"y": 1.2232584382,
				"z": -0.7851978021,
				"element": "H" 
			},
			{
				"x": -0.9844619387,
				"y": -1.9699414562,
				"z": 2.9461622569,
				"element": "H" 
			},
			{
				"x": -0.8115071274,
				"y": -4.420044632,
				"z": 2.6398034462,
				"element": "H" 
			},
			{
				"x": -1.5050619311,
				"y": -6.1210049177,
				"z": -0.4894067729,
				"element": "H" 
			},
			{
				"x": -0.8948471261,
				"y": -6.2740900838,
				"z": 1.0770657774,
				"element": "H" 
			},
			{
				"x": -2.3513335988,
				"y": -4.0193332526,
				"z": -1.366316184,
				"element": "H" 
			},
			{
				"x": -2.5227019361,
				"y": -1.5597238801,
				"z": -1.0408084267,
				"element": "H" 
			}
		],
		 "valence_orbital": [ 
			{
				"type": "occ",
				"energy": -0.28938,
				"method": "rhf"
			},
			{
				"type": "occ",
				"energy": -0.28195,
				"method": "rhf"
			},
			{
				"type": "occ",
				"energy": -0.26215,
				"method": "rhf"
			},
			{
				"type": "occ",
				"energy": -0.23615,
				"method": "rhf"
			},
			{
				"type": "occ",
				"energy": -0.21573,
				"method": "rhf"
			},
			{
				"type": "unocc",
				"energy": -0.01555,
				"method": "rhf"
			},
			{
				"type": "unocc",
				"energy": -0.01007,
				"method": "rhf"
			},
			{
				"type": "unocc",
				"energy": 0.06352,
				"method": "rhf"
			},
			{
				"type": "unocc",
				"energy": 0.07391,
				"method": "rhf"
			},
			{
				"type": "unocc",
				"energy": 0.08042,
				"method": "rhf"
			}
		],
		"cosmo_sigma_profile": { 
			"-0.025": 0.0,
			"-0.024": 0.0,
			"-0.023": 0.0,
			"-0.022": 0.0,
			"-0.021": 0.0,
			"-0.02": 0.0,
			"-0.019": 0.0,
			"-0.018": 0.0,
			"-0.017": 0.0,
			"-0.016": 0.0,
			"-0.015": 0.0,
			"-0.014": 0.265921592147,
			"-0.013": 2.27239337721,
			"-0.012": 3.1094606362,
			"-0.011": 3.15772552357,
			"-0.01": 3.44001356559,
			"-0.009": 2.63249316753,
			"-0.008": 3.09028901869,
			"-0.007": 5.51171007188,
			"-0.006": 6.81848228282,
			"-0.005": 7.75350685099,
			"-0.004": 13.7818616716,
			"-0.003": 33.7001419331,
			"-0.002": 39.7450699814,
			"-0.001": 31.897048189,
			"0.0": 25.3069100068,
			"0.001": 19.8643253959,
			"0.002": 12.6147777056,
			"0.003": 10.9051322338,
			"0.004": 18.8748427632,
			"0.005": 6.63660086261,
			"0.006": 5.43355162378,
			"0.007": 3.99508011825,
			"0.008": 3.63127341555,
			"0.009": 4.75475157009,
			"0.01": 4.6416342318,
			"0.011": 8.44035596892,
			"0.012": 7.73151048403,
			"0.013": 1.77214227295,
			"0.014": 0.0,
			"0.015": 0.0,
			"0.016": 0.0,
			"0.017": 0.0,
			"0.018": 0.0,
			"0.019": 0.0,
			"0.02": 0.0,
			"0.021": 0.0,
			"0.022": 0.0,
			"0.023": 0.0,
			"0.024": 0.0,
			"0.025": 0.0
		}
	}
}
