{
	 "smiles": "CN(C)C(=O)C(CCN1CCC(O)(CC1)C1=CC=C(Cl)C=C1)(C1=CC=CC=C1)C1=CC=CC=C1", 
	 "Tm": 501.15, 
	 "num_atms": 67, 
	 "gaussian": { 
		 "optdone": 1, 
		 "sigma_profile": "yes", 
		 "theory": "DFT", 
		 "functional": "B3LYP", 
		 "basiset": "6-31G**", 
		 "properties": { 
			 "R2extent": 20868.3891, 
			 "electric_dipole_moment_norm": 5.4986502853, 
			 "electric_quadrupole_moment_norm": 23.3211941731, 
			 "total_energy": -1845.08627341, 
			 "HOMO_LUMO_gap": 0.20659, 
			 "cosmo_polarized_energy": -21.47, 
			 "cosmo_cavitation_energy": 65.43, 
			 "cosmo_dispersion_energy": -42.2, 
			 "cosmo_repulsion_energy": 3.17, 
			 "cosmo_total_nonelectrostatic_energy": 26.39, 
			 "SMD_solvation_energy": 10.41 
		},
		"coords": [
			{
				"x": 1.8093085879,
				"y": -0.751440971,
				"z": -1.7796566313,
				"element": "C" 
			},
			{
				"x": 1.6963392044,
				"y": -1.9860485861,
				"z": -1.0202032283,
				"element": "N" 
			},
			{
				"x": 2.8690755209,
				"y": -2.8523981082,
				"z": -1.0974303248,
				"element": "C" 
			},
			{
				"x": 0.5971026454,
				"y": -2.4470756188,
				"z": -0.3225912325,
				"element": "C" 
			},
			{
				"x": 0.5884044828,
				"y": -3.5859712951,
				"z": 0.1292660084,
				"element": "O" 
			},
			{
				"x": -0.6392703163,
				"y": -1.4951887406,
				"z": -0.06373694,
				"element": "C" 
			},
			{
				"x": -0.1148517983,
				"y": -0.116970659,
				"z": 0.5447679045,
				"element": "C" 
			},
			{
				"x": -0.4185310609,
				"y": 1.2191851085,
				"z": -0.1619665099,
				"element": "C" 
			},
			{
				"x": 0.4864664613,
				"y": 2.2744336457,
				"z": 0.3009352943,
				"element": "N" 
			},
			{
				"x": 0.4473814119,
				"y": 3.4723136754,
				"z": -0.5392709133,
				"element": "C" 
			},
			{
				"x": 1.6580040235,
				"y": 4.368827408,
				"z": -0.2359434669,
				"element": "C" 
			},
			{
				"x": 1.9077225903,
				"y": 4.5852191197,
				"z": 1.2931481797,
				"element": "C" 
			},
			{
				"x": 2.0411661807,
				"y": 5.984112634,
				"z": 1.5775732955,
				"element": "O" 
			},
			{
				"x": 0.6860060902,
				"y": 4.0406624028,
				"z": 2.0715926989,
				"element": "C" 
			},
			{
				"x": 0.3020697992,
				"y": 2.5914665837,
				"z": 1.7318851661,
				"element": "C" 
			},
			{
				"x": 3.2040479116,
				"y": 3.9362214977,
				"z": 1.7878103717,
				"element": "C" 
			},
			{
				"x": 3.5580311747,
				"y": 2.6341583612,
				"z": 1.4059453183,
				"element": "C" 
			},
			{
				"x": 4.7201909777,
				"y": 2.0309102532,
				"z": 1.8870961665,
				"element": "C" 
			},
			{
				"x": 5.5441414308,
				"y": 2.7397026613,
				"z": 2.7586732436,
				"element": "C" 
			},
			{
				"x": 7.0174425475,
				"y": 1.9892666972,
				"z": 3.3646989098,
				"element": "Cl" 
			},
			{
				"x": 5.2171844313,
				"y": 4.0343189709,
				"z": 3.1550711512,
				"element": "C" 
			},
			{
				"x": 4.0483851076,
				"y": 4.6224258684,
				"z": 2.6706547272,
				"element": "C" 
			},
			{
				"x": -1.4868176186,
				"y": -2.2341122367,
				"z": 1.014733004,
				"element": "C" 
			},
			{
				"x": -1.0339153208,
				"y": -2.2864229526,
				"z": 2.343921371,
				"element": "C" 
			},
			{
				"x": -1.7555781522,
				"y": -2.9497934483,
				"z": 3.3329198729,
				"element": "C" 
			},
			{
				"x": -2.9538511733,
				"y": -3.5934600516,
				"z": 3.0172891911,
				"element": "C" 
			},
			{
				"x": -3.402564805,
				"y": -3.5761001868,
				"z": 1.6994514707,
				"element": "C" 
			},
			{
				"x": -2.6733463873,
				"y": -2.9103142722,
				"z": 0.7098123941,
				"element": "C" 
			},
			{
				"x": -1.4723534338,
				"y": -1.3323424961,
				"z": -1.3526165245,
				"element": "C" 
			},
			{
				"x": -1.1742097761,
				"y": -2.02430432,
				"z": -2.5351861642,
				"element": "C" 
			},
			{
				"x": -1.9716026738,
				"y": -1.8920109717,
				"z": -3.6759505037,
				"element": "C" 
			},
			{
				"x": -3.0963323519,
				"y": -1.070484859,
				"z": -3.6581911334,
				"element": "C" 
			},
			{
				"x": -3.4263257291,
				"y": -0.3955967786,
				"z": -2.4806115364,
				"element": "C" 
			},
			{
				"x": -2.6303896616,
				"y": -0.5334782708,
				"z": -1.3453388219,
				"element": "C" 
			},
			{
				"x": 2.2964431603,
				"y": -0.966698549,
				"z": -2.7379251133,
				"element": "H" 
			},
			{
				"x": 2.4098365412,
				"y": 0.0038106815,
				"z": -1.2551843946,
				"element": "H" 
			},
			{
				"x": 0.8323261738,
				"y": -0.3337144824,
				"z": -2.0030790347,
				"element": "H" 
			},
			{
				"x": 3.7681477355,
				"y": -2.284658552,
				"z": -0.8294934594,
				"element": "H" 
			},
			{
				"x": 3.0015821103,
				"y": -3.2450509673,
				"z": -2.1144198044,
				"element": "H" 
			},
			{
				"x": 2.7372664308,
				"y": -3.68554706,
				"z": -0.4106879593,
				"element": "H" 
			},
			{
				"x": 0.9723406672,
				"y": -0.1741483377,
				"z": 0.6471759883,
				"element": "H" 
			},
			{
				"x": -0.5034686483,
				"y": -0.0416079293,
				"z": 1.5603531901,
				"element": "H" 
			},
			{
				"x": -0.2986499798,
				"y": 1.1330402006,
				"z": -1.2444735916,
				"element": "H" 
			},
			{
				"x": -1.4709724633,
				"y": 1.5092112872,
				"z": 0.0068363365,
				"element": "H" 
			},
			{
				"x": -0.4987025241,
				"y": 4.0372144691,
				"z": -0.4249425541,
				"element": "H" 
			},
			{
				"x": 0.4858653507,
				"y": 3.1581067464,
				"z": -1.5874801134,
				"element": "H" 
			},
			{
				"x": 2.5501737704,
				"y": 3.9429608382,
				"z": -0.7025362749,
				"element": "H" 
			},
			{
				"x": 1.507810588,
				"y": 5.3538635334,
				"z": -0.6916316622,
				"element": "H" 
			},
			{
				"x": 1.18916529,
				"y": 6.4002464115,
				"z": 1.3942350788,
				"element": "H" 
			},
			{
				"x": -0.1626819599,
				"y": 4.6973167888,
				"z": 1.8337899707,
				"element": "H" 
			},
			{
				"x": 0.8648307268,
				"y": 4.1362418363,
				"z": 3.1464412352,
				"element": "H" 
			},
			{
				"x": -0.7501594034,
				"y": 2.4410908366,
				"z": 2.0335263339,
				"element": "H" 
			},
			{
				"x": 0.9039864685,
				"y": 1.8975968746,
				"z": 2.3288934692,
				"element": "H" 
			},
			{
				"x": 2.9095709337,
				"y": 2.0821523047,
				"z": 0.7315087346,
				"element": "H" 
			},
			{
				"x": 4.9847920116,
				"y": 1.0226826607,
				"z": 1.5871937289,
				"element": "H" 
			},
			{
				"x": 5.8684833364,
				"y": 4.5770279725,
				"z": 3.8316148882,
				"element": "H" 
			},
			{
				"x": 3.7918319934,
				"y": 5.6308331927,
				"z": 2.9703818265,
				"element": "H" 
			},
			{
				"x": -0.0891036749,
				"y": -1.82539205,
				"z": 2.6144921807,
				"element": "H" 
			},
			{
				"x": -1.3752774512,
				"y": -2.9702946216,
				"z": 4.3505079962,
				"element": "H" 
			},
			{
				"x": -3.5214242133,
				"y": -4.1085488346,
				"z": 3.7870468714,
				"element": "H" 
			},
			{
				"x": -4.3241275562,
				"y": -4.0844897991,
				"z": 1.4293446354,
				"element": "H" 
			},
			{
				"x": -3.0433813247,
				"y": -2.927572157,
				"z": -0.3078130568,
				"element": "H" 
			},
			{
				"x": -0.3159630062,
				"y": -2.6865295245,
				"z": -2.5742510722,
				"element": "H" 
			},
			{
				"x": -1.7104898377,
				"y": -2.4419677866,
				"z": -4.5756740493,
				"element": "H" 
			},
			{
				"x": -3.7163347726,
				"y": -0.9662106373,
				"z": -4.5437976051,
				"element": "H" 
			},
			{
				"x": -4.3124865328,
				"y": 0.2316715019,
				"z": -2.4406121043,
				"element": "H" 
			},
			{
				"x": -2.9298602607,
				"y": -0.0365469126,
				"z": -0.4288924236,
				"element": "H" 
			}
		],
		 "valence_orbital": [ 
			{
				"type": "occ",
				"energy": -0.24095,
				"method": "rhf"
			},
			{
				"type": "occ",
				"energy": -0.23543,
				"method": "rhf"
			},
			{
				"type": "occ",
				"energy": -0.23482,
				"method": "rhf"
			},
			{
				"type": "occ",
				"energy": -0.22877,
				"method": "rhf"
			},
			{
				"type": "occ",
				"energy": -0.22048,
				"method": "rhf"
			},
			{
				"type": "unocc",
				"energy": -0.01389,
				"method": "rhf"
			},
			{
				"type": "unocc",
				"energy": -0.00896,
				"method": "rhf"
			},
			{
				"type": "unocc",
				"energy": -0.00762,
				"method": "rhf"
			},
			{
				"type": "unocc",
				"energy": -0.00593,
				"method": "rhf"
			},
			{
				"type": "unocc",
				"energy": 0.00481,
				"method": "rhf"
			}
		],
		"cosmo_sigma_profile": { 
			"-0.025": 0.0,
			"-0.024": 0.0,
			"-0.023": 0.0,
			"-0.022": 0.0,
			"-0.021": 0.0,
			"-0.02": 0.0,
			"-0.019": 0.0,
			"-0.018": 0.0,
			"-0.017": 0.0,
			"-0.016": 0.0463101503772,
			"-0.015": 0.631578753399,
			"-0.014": 1.33278931898,
			"-0.013": 0.686163830455,
			"-0.012": 0.818550226757,
			"-0.011": 1.42322015674,
			"-0.01": 1.28975828978,
			"-0.009": 0.475693462218,
			"-0.008": 0.928803160761,
			"-0.007": 3.08846090167,
			"-0.006": 10.8431683136,
			"-0.005": 32.0732034971,
			"-0.004": 47.14140444,
			"-0.003": 58.4532824904,
			"-0.002": 65.7541760032,
			"-0.001": 50.5770061739,
			"0.0": 37.1455903487,
			"0.001": 31.0044897259,
			"0.002": 33.2243472329,
			"0.003": 32.6001434226,
			"0.004": 35.7096898362,
			"0.005": 29.6282902458,
			"0.006": 11.2872195026,
			"0.007": 5.46291578285,
			"0.008": 4.0916765954,
			"0.009": 3.79393918502,
			"0.01": 3.47383256451,
			"0.011": 2.12135035929,
			"0.012": 3.15332166755,
			"0.013": 3.93617387044,
			"0.014": 4.28552627514,
			"0.015": 0.988885480702,
			"0.016": 0.0,
			"0.017": 0.0,
			"0.018": 0.0,
			"0.019": 0.0,
			"0.02": 0.0,
			"0.021": 0.0,
			"0.022": 0.0,
			"0.023": 0.0,
			"0.024": 0.0,
			"0.025": 0.0
		}
	}
}
