{
	 "smiles": "OC(=O)C1=CC(=NC2=CC=CC=C12)C1=CC=C(C=C1)C1=CC(C(O)=O)=C2C=CC=CC2=N1", 
	 "Tm": 588.15, 
	 "num_atms": 48, 
	 "gaussian": { 
		 "optdone": 1, 
		 "sigma_profile": "yes", 
		 "theory": "DFT", 
		 "functional": "B3LYP", 
		 "basiset": "6-31G**", 
		 "properties": { 
			 "R2extent": 23925.3943, 
			 "electric_dipole_moment_norm": 3.3845438511, 
			 "electric_quadrupole_moment_norm": 33.4396656353, 
			 "total_energy": -1410.86268004, 
			 "HOMO_LUMO_gap": 0.1332, 
			 "cosmo_polarized_energy": -23.31, 
			 "cosmo_cavitation_energy": 53.73, 
			 "cosmo_dispersion_energy": -39.1, 
			 "cosmo_repulsion_energy": 2.81, 
			 "cosmo_total_nonelectrostatic_energy": 17.45, 
			 "SMD_solvation_energy": 8.39 
		},
		"coords": [
			{
				"x": -5.3592803374,
				"y": -2.1416383279,
				"z": -0.7086399211,
				"element": "O" 
			},
			{
				"x": -5.904728583,
				"y": -0.9612734899,
				"z": -0.3200819749,
				"element": "C" 
			},
			{
				"x": -7.1102679613,
				"y": -0.8067138537,
				"z": -0.2981066317,
				"element": "O" 
			},
			{
				"x": -4.8704970859,
				"y": 0.0543748812,
				"z": 0.0507554357,
				"element": "C" 
			},
			{
				"x": -3.5375576649,
				"y": -0.2957495518,
				"z": -0.0311154616,
				"element": "C" 
			},
			{
				"x": -2.5198182372,
				"y": 0.6357960253,
				"z": 0.31500136,
				"element": "C" 
			},
			{
				"x": -2.8158237093,
				"y": 1.8542608052,
				"z": 0.742512646,
				"element": "N" 
			},
			{
				"x": -4.1176512198,
				"y": 2.2319515073,
				"z": 0.8377772619,
				"element": "C" 
			},
			{
				"x": -4.375513788,
				"y": 3.5522182259,
				"z": 1.2977960336,
				"element": "C" 
			},
			{
				"x": -5.6653790641,
				"y": 4.0120747742,
				"z": 1.4158805519,
				"element": "C" 
			},
			{
				"x": -6.7499325815,
				"y": 3.1683226752,
				"z": 1.0774578627,
				"element": "C" 
			},
			{
				"x": -6.5387817091,
				"y": 1.8817437874,
				"z": 0.6288764384,
				"element": "C" 
			},
			{
				"x": -5.2184242957,
				"y": 1.3731996336,
				"z": 0.4959731986,
				"element": "C" 
			},
			{
				"x": -1.079654278,
				"y": 0.2770227119,
				"z": 0.2300132354,
				"element": "C" 
			},
			{
				"x": -0.1274619054,
				"y": 1.067281195,
				"z": 0.8946013895,
				"element": "C" 
			},
			{
				"x": 1.2259381778,
				"y": 0.7591627542,
				"z": 0.832746896,
				"element": "C" 
			},
			{
				"x": 1.6846065075,
				"y": -0.3493289483,
				"z": 0.0998737455,
				"element": "C" 
			},
			{
				"x": 0.7324347238,
				"y": -1.1411974621,
				"z": -0.5624894283,
				"element": "C" 
			},
			{
				"x": -0.6209632731,
				"y": -0.8327106667,
				"z": -0.5009840063,
				"element": "C" 
			},
			{
				"x": 3.1243706582,
				"y": -0.7042551301,
				"z": 0.0110506121,
				"element": "C" 
			},
			{
				"x": 4.1423004782,
				"y": 0.2477387633,
				"z": 0.3099449815,
				"element": "C" 
			},
			{
				"x": 5.474625988,
				"y": -0.1039473352,
				"z": 0.2383164127,
				"element": "C" 
			},
			{
				"x": 6.5268565399,
				"y": 0.915312256,
				"z": 0.5872577267,
				"element": "C" 
			},
			{
				"x": 6.2576133981,
				"y": 2.1904120977,
				"z": 0.2016735215,
				"element": "O" 
			},
			{
				"x": 7.5452722554,
				"y": 0.6677602367,
				"z": 1.1871889802,
				"element": "O" 
			},
			{
				"x": 5.8224168607,
				"y": -1.4395542236,
				"z": -0.1366025099,
				"element": "C" 
			},
			{
				"x": 7.1499576184,
				"y": -1.9335976557,
				"z": -0.2381242823,
				"element": "C" 
			},
			{
				"x": 7.3781559024,
				"y": -3.229316215,
				"z": -0.6481326772,
				"element": "C" 
			},
			{
				"x": 6.3008908399,
				"y": -4.0883523533,
				"z": -0.9748873752,
				"element": "C" 
			},
			{
				"x": 5.0039161973,
				"y": -3.63984736,
				"z": -0.8830976706,
				"element": "C" 
			},
			{
				"x": 4.7292901485,
				"y": -2.3108263277,
				"z": -0.4615240429,
				"element": "C" 
			},
			{
				"x": 3.4251217179,
				"y": -1.9332870518,
				"z": -0.3799981981,
				"element": "N" 
			},
			{
				"x": -6.1116436232,
				"y": -2.7180775581,
				"z": -0.9206908006,
				"element": "H" 
			},
			{
				"x": -3.2760246614,
				"y": -1.2970535909,
				"z": -0.3427264435,
				"element": "H" 
			},
			{
				"x": -3.5176588518,
				"y": 4.1685340759,
				"z": 1.5450341556,
				"element": "H" 
			},
			{
				"x": -5.8561416197,
				"y": 5.0218644444,
				"z": 1.7673525083,
				"element": "H" 
			},
			{
				"x": -7.7663116199,
				"y": 3.5394038181,
				"z": 1.1723375399,
				"element": "H" 
			},
			{
				"x": -7.3724347011,
				"y": 1.2428471133,
				"z": 0.3739540913,
				"element": "H" 
			},
			{
				"x": -0.4729152227,
				"y": 1.9223225941,
				"z": 1.4639751255,
				"element": "H" 
			},
			{
				"x": 1.9230440494,
				"y": 1.3774053483,
				"z": 1.3897845641,
				"element": "H" 
			},
			{
				"x": 1.0772266992,
				"y": -1.9983828913,
				"z": -1.1291743983,
				"element": "H" 
			},
			{
				"x": -1.3191068285,
				"y": -1.4547870194,
				"z": -1.0515336437,
				"element": "H" 
			},
			{
				"x": 3.8618251847,
				"y": 1.2512890641,
				"z": 0.6106428316,
				"element": "H" 
			},
			{
				"x": 5.4853410729,
				"y": 2.2022837299,
				"z": -0.3818602908,
				"element": "H" 
			},
			{
				"x": 7.9747451921,
				"y": -1.2851068068,
				"z": 0.0282287732,
				"element": "H" 
			},
			{
				"x": 8.3972478371,
				"y": -3.5977071192,
				"z": -0.7185723885,
				"element": "H" 
			},
			{
				"x": 6.5037970681,
				"y": -5.1057824082,
				"z": -1.2962547983,
				"element": "H" 
			},
			{
				"x": 4.1563777062,
				"y": -4.2733891713,
				"z": -1.1222109353,
				"element": "H" 
			}
		],
		 "valence_orbital": [ 
			{
				"type": "occ",
				"energy": -0.2622,
				"method": "rhf"
			},
			{
				"type": "occ",
				"energy": -0.26028,
				"method": "rhf"
			},
			{
				"type": "occ",
				"energy": -0.24809,
				"method": "rhf"
			},
			{
				"type": "occ",
				"energy": -0.24201,
				"method": "rhf"
			},
			{
				"type": "occ",
				"energy": -0.22392,
				"method": "rhf"
			},
			{
				"type": "unocc",
				"energy": -0.09072,
				"method": "rhf"
			},
			{
				"type": "unocc",
				"energy": -0.07967,
				"method": "rhf"
			},
			{
				"type": "unocc",
				"energy": -0.05466,
				"method": "rhf"
			},
			{
				"type": "unocc",
				"energy": -0.02544,
				"method": "rhf"
			},
			{
				"type": "unocc",
				"energy": -0.01221,
				"method": "rhf"
			}
		],
		"cosmo_sigma_profile": { 
			"-0.025": 0.0,
			"-0.024": 0.0,
			"-0.023": 0.0,
			"-0.022": 0.0,
			"-0.021": 0.0,
			"-0.02": 0.0,
			"-0.019": 0.486522269642,
			"-0.018": 1.8172304877,
			"-0.017": 1.90615047229,
			"-0.016": 1.87987755553,
			"-0.015": 2.11767467735,
			"-0.014": 1.16540457006,
			"-0.013": 1.79180685948,
			"-0.012": 2.06149321641,
			"-0.011": 2.73886527619,
			"-0.01": 2.83980379986,
			"-0.009": 3.02661469808,
			"-0.008": 4.83809412905,
			"-0.007": 9.17821656213,
			"-0.006": 18.4604526594,
			"-0.005": 22.6862505438,
			"-0.004": 27.7756504226,
			"-0.003": 23.7235605644,
			"-0.002": 23.8603752665,
			"-0.001": 33.1873484086,
			"0.0": 36.8519534882,
			"0.001": 35.1038411527,
			"0.002": 39.2745606534,
			"0.003": 42.6335905687,
			"0.004": 32.027685184,
			"0.005": 10.1224962272,
			"0.006": 10.5003537799,
			"0.007": 7.78968254094,
			"0.008": 7.41639005936,
			"0.009": 7.80700621324,
			"0.01": 9.24699166717,
			"0.011": 7.75435132554,
			"0.012": 2.28408068262,
			"0.013": 0.143577230887,
			"0.014": 0.0,
			"0.015": 0.0,
			"0.016": 0.0,
			"0.017": 0.0,
			"0.018": 0.0,
			"0.019": 0.0,
			"0.02": 0.0,
			"0.021": 0.0,
			"0.022": 0.0,
			"0.023": 0.0,
			"0.024": 0.0,
			"0.025": 0.0
		}
	}
}
