{
	 "smiles": "COC(=O)C1=CC=C(Cl)C(Cl)=C1", 
	 "Tm": 318.15, 
	 "num_atms": 18, 
	 "gaussian": { 
		 "optdone": 1, 
		 "sigma_profile": "yes", 
		 "theory": "DFT", 
		 "functional": "B3LYP", 
		 "basiset": "6-31G**", 
		 "properties": { 
			 "R2extent": 5205.67, 
			 "electric_dipole_moment_norm": 3.43983751215, 
			 "electric_quadrupole_moment_norm": 3.96580446694, 
			 "total_energy": -1379.30756021, 
			 "HOMO_LUMO_gap": 0.19622, 
			 "cosmo_polarized_energy": -7.06, 
			 "cosmo_cavitation_energy": 26.54, 
			 "cosmo_dispersion_energy": -19.79, 
			 "cosmo_repulsion_energy": 1.58, 
			 "cosmo_total_nonelectrostatic_energy": 8.34, 
			 "SMD_solvation_energy": 5.67 
		},
		"coords": [
			{
				"x": -1.9504211768,
				"y": 1.8337502372,
				"z": 0.9509048684,
				"element": "C" 
			},
			{
				"x": -1.3645112673,
				"y": 0.7061457539,
				"z": 0.2786629379,
				"element": "O" 
			},
			{
				"x": -0.3725678686,
				"y": 1.0052446501,
				"z": -0.5874513445,
				"element": "C" 
			},
			{
				"x": 0.0136118287,
				"y": 2.1376961255,
				"z": -0.7990247222,
				"element": "O" 
			},
			{
				"x": 0.1878593096,
				"y": -0.210471865,
				"z": -1.2464231181,
				"element": "C" 
			},
			{
				"x": -0.2815365086,
				"y": -1.5023224219,
				"z": -0.9780402483,
				"element": "C" 
			},
			{
				"x": 0.2849027691,
				"y": -2.5937411665,
				"z": -1.6272716985,
				"element": "C" 
			},
			{
				"x": 1.3212071106,
				"y": -2.4086735766,
				"z": -2.547213292,
				"element": "C" 
			},
			{
				"x": 2.0002787929,
				"y": -3.8067827028,
				"z": -3.3365733963,
				"element": "Cl" 
			},
			{
				"x": 1.7930867567,
				"y": -1.1143636862,
				"z": -2.8175246684,
				"element": "C" 
			},
			{
				"x": 3.0847598143,
				"y": -0.8358917502,
				"z": -3.9582190997,
				"element": "Cl" 
			},
			{
				"x": 1.2242306168,
				"y": -0.0231786224,
				"z": -2.1661240794,
				"element": "C" 
			},
			{
				"x": -1.1961417623,
				"y": 2.3651535052,
				"z": 1.5363852566,
				"element": "H" 
			},
			{
				"x": -2.7208160872,
				"y": 1.4200343368,
				"z": 1.6008626852,
				"element": "H" 
			},
			{
				"x": -2.3870956904,
				"y": 2.5266298238,
				"z": 0.2274885518,
				"element": "H" 
			},
			{
				"x": -1.0844824485,
				"y": -1.6476197164,
				"z": -0.2655332422,
				"element": "H" 
			},
			{
				"x": -0.0674464708,
				"y": -3.6000504175,
				"z": -1.430294658,
				"element": "H" 
			},
			{
				"x": 1.5786822819,
				"y": 0.9814414932,
				"z": -2.3652107322,
				"element": "H" 
			}
		],
		 "valence_orbital": [ 
			{
				"type": "occ",
				"energy": -0.31536,
				"method": "rhf"
			},
			{
				"type": "occ",
				"energy": -0.31275,
				"method": "rhf"
			},
			{
				"type": "occ",
				"energy": -0.28567,
				"method": "rhf"
			},
			{
				"type": "occ",
				"energy": -0.27124,
				"method": "rhf"
			},
			{
				"type": "occ",
				"energy": -0.2593,
				"method": "rhf"
			},
			{
				"type": "unocc",
				"energy": -0.06308,
				"method": "rhf"
			},
			{
				"type": "unocc",
				"energy": -0.03092,
				"method": "rhf"
			},
			{
				"type": "unocc",
				"energy": -0.00232,
				"method": "rhf"
			},
			{
				"type": "unocc",
				"energy": 0.03857,
				"method": "rhf"
			},
			{
				"type": "unocc",
				"energy": 0.05632,
				"method": "rhf"
			}
		],
		"cosmo_sigma_profile": { 
			"-0.025": 0.0,
			"-0.024": 0.0,
			"-0.023": 0.0,
			"-0.022": 0.0,
			"-0.021": 0.0,
			"-0.02": 0.0,
			"-0.019": 0.0,
			"-0.018": 0.0,
			"-0.017": 0.0,
			"-0.016": 0.0,
			"-0.015": 0.0,
			"-0.014": 0.0,
			"-0.013": 0.0,
			"-0.012": 0.0,
			"-0.011": 0.0,
			"-0.01": 0.0,
			"-0.009": 0.384711875286,
			"-0.008": 2.3025781218,
			"-0.007": 5.62541299733,
			"-0.006": 10.0501017917,
			"-0.005": 11.1153197465,
			"-0.004": 14.1215094538,
			"-0.003": 16.9488680415,
			"-0.002": 14.7362174935,
			"-0.001": 21.9876988014,
			"0.0": 28.798453324,
			"0.001": 20.7694628553,
			"0.002": 16.6789329532,
			"0.003": 18.0939454935,
			"0.004": 15.7994701655,
			"0.005": 5.76304884355,
			"0.006": 2.15529773019,
			"0.007": 1.09327776625,
			"0.008": 1.42998854712,
			"0.009": 1.27622939938,
			"0.01": 2.42408403673,
			"0.011": 3.91529452615,
			"0.012": 2.10694650937,
			"0.013": 0.0,
			"0.014": 0.0,
			"0.015": 0.0,
			"0.016": 0.0,
			"0.017": 0.0,
			"0.018": 0.0,
			"0.019": 0.0,
			"0.02": 0.0,
			"0.021": 0.0,
			"0.022": 0.0,
			"0.023": 0.0,
			"0.024": 0.0,
			"0.025": 0.0
		}
	}
}
