{
	 "smiles": "CC1=CC=C(C=C1)S(=O)(=O)N(O)C1=CC=CC=C1", 
	 "Tm": 311.15, 
	 "num_atms": 31, 
	 "gaussian": { 
		 "optdone": 1, 
		 "sigma_profile": "yes", 
		 "theory": "DFT", 
		 "functional": "B3LYP", 
		 "basiset": "6-31G**", 
		 "properties": { 
			 "R2extent": 5523.8104, 
			 "electric_dipole_moment_norm": 4.93506497222, 
			 "electric_quadrupole_moment_norm": 19.9049095903, 
			 "total_energy": -1181.70525909, 
			 "HOMO_LUMO_gap": 0.18565, 
			 "cosmo_polarized_energy": -13.85, 
			 "cosmo_cavitation_energy": 36.13, 
			 "cosmo_dispersion_energy": -25.4, 
			 "cosmo_repulsion_energy": 1.94, 
			 "cosmo_total_nonelectrostatic_energy": 12.67, 
			 "SMD_solvation_energy": 5.8 
		},
		"coords": [
			{
				"x": -2.0046640017,
				"y": -1.1145290341,
				"z": 3.432017206,
				"element": "C" 
			},
			{
				"x": -0.7287167741,
				"y": -0.8564224691,
				"z": 2.6679656732,
				"element": "C" 
			},
			{
				"x": -0.3786474393,
				"y": -1.6529396702,
				"z": 1.5678374881,
				"element": "C" 
			},
			{
				"x": 0.7824461648,
				"y": -1.4064416237,
				"z": 0.8391063669,
				"element": "C" 
			},
			{
				"x": 1.610438869,
				"y": -0.3492875834,
				"z": 1.2249968396,
				"element": "C" 
			},
			{
				"x": 1.2902230212,
				"y": 0.4600542102,
				"z": 2.3178416584,
				"element": "C" 
			},
			{
				"x": 0.1237929308,
				"y": 0.1968896268,
				"z": 3.0315229517,
				"element": "C" 
			},
			{
				"x": 3.0855112475,
				"y": -0.0084077047,
				"z": 0.2799246194,
				"element": "S" 
			},
			{
				"x": 4.0456452195,
				"y": 0.6965865188,
				"z": 1.1315134825,
				"element": "O" 
			},
			{
				"x": 3.4503957786,
				"y": -1.2034278133,
				"z": -0.4811991629,
				"element": "O" 
			},
			{
				"x": 2.6510258598,
				"y": 1.2111482264,
				"z": -0.9277982653,
				"element": "N" 
			},
			{
				"x": 2.2844593715,
				"y": 2.3808790519,
				"z": -0.2048902567,
				"element": "O" 
			},
			{
				"x": 1.6287875353,
				"y": 0.8614666923,
				"z": -1.8725688832,
				"element": "C" 
			},
			{
				"x": 0.3623109343,
				"y": 1.4573840589,
				"z": -1.8456118163,
				"element": "C" 
			},
			{
				"x": -0.5806819439,
				"y": 1.1060792686,
				"z": -2.8119202052,
				"element": "C" 
			},
			{
				"x": -0.2775243062,
				"y": 0.1565057754,
				"z": -3.7886136504,
				"element": "C" 
			},
			{
				"x": 0.9879656544,
				"y": -0.4350294815,
				"z": -3.8057501538,
				"element": "C" 
			},
			{
				"x": 1.9490262422,
				"y": -0.0785015638,
				"z": -2.861941839,
				"element": "C" 
			},
			{
				"x": -1.9130118705,
				"y": -0.8118183673,
				"z": 4.4790240897,
				"element": "H" 
			},
			{
				"x": -2.8391975757,
				"y": -0.5479829117,
				"z": 3.0003088569,
				"element": "H" 
			},
			{
				"x": -2.2810328365,
				"y": -2.1724078398,
				"z": 3.4045416021,
				"element": "H" 
			},
			{
				"x": -1.0209905132,
				"y": -2.481095007,
				"z": 1.2807844694,
				"element": "H" 
			},
			{
				"x": 1.0591812984,
				"y": -2.03072741,
				"z": -0.0027983693,
				"element": "H" 
			},
			{
				"x": 1.9562036837,
				"y": 1.2634715341,
				"z": 2.609298796,
				"element": "H" 
			},
			{
				"x": -0.1260174592,
				"y": 0.8148670285,
				"z": 3.8898230433,
				"element": "H" 
			},
			{
				"x": 3.1430287344,
				"y": 2.8062978055,
				"z": -0.0590643453,
				"element": "H" 
			},
			{
				"x": 0.1331897409,
				"y": 2.1963056127,
				"z": -1.088664373,
				"element": "H" 
			},
			{
				"x": -1.5593910014,
				"y": 1.577108765,
				"z": -2.7951658125,
				"element": "H" 
			},
			{
				"x": -1.0170503442,
				"y": -0.1135905216,
				"z": -4.5365574805,
				"element": "H" 
			},
			{
				"x": 1.2384264231,
				"y": -1.1657741159,
				"z": -4.5691578453,
				"element": "H" 
			},
			{
				"x": 2.9388673564,
				"y": -0.5176610578,
				"z": -2.8780046843,
				"element": "H" 
			}
		],
		 "valence_orbital": [ 
			{
				"type": "occ",
				"energy": -0.28568,
				"method": "rhf"
			},
			{
				"type": "occ",
				"energy": -0.26916,
				"method": "rhf"
			},
			{
				"type": "occ",
				"energy": -0.26461,
				"method": "rhf"
			},
			{
				"type": "occ",
				"energy": -0.25376,
				"method": "rhf"
			},
			{
				"type": "occ",
				"energy": -0.22932,
				"method": "rhf"
			},
			{
				"type": "unocc",
				"energy": -0.04367,
				"method": "rhf"
			},
			{
				"type": "unocc",
				"energy": -0.02053,
				"method": "rhf"
			},
			{
				"type": "unocc",
				"energy": -0.01002,
				"method": "rhf"
			},
			{
				"type": "unocc",
				"energy": -0.00394,
				"method": "rhf"
			},
			{
				"type": "unocc",
				"energy": 0.05058,
				"method": "rhf"
			}
		],
		"cosmo_sigma_profile": { 
			"-0.025": 0.0,
			"-0.024": 0.0,
			"-0.023": 0.0,
			"-0.022": 0.0,
			"-0.021": 0.0,
			"-0.02": 0.0,
			"-0.019": 0.0,
			"-0.018": 0.245846534303,
			"-0.017": 1.02890811389,
			"-0.016": 0.65654244129,
			"-0.015": 0.845673030039,
			"-0.014": 0.46572655786,
			"-0.013": 0.355998851381,
			"-0.012": 0.858831885778,
			"-0.011": 0.728673048828,
			"-0.01": 0.576667771291,
			"-0.009": 0.435664113112,
			"-0.008": 0.777597480723,
			"-0.007": 4.88124891542,
			"-0.006": 16.2928717125,
			"-0.005": 23.6949758941,
			"-0.004": 22.7310609312,
			"-0.003": 19.2631656311,
			"-0.002": 19.0988593717,
			"-0.001": 21.3678216645,
			"0.0": 19.9930575606,
			"0.001": 20.8029590028,
			"0.002": 23.0105803874,
			"0.003": 29.5594994978,
			"0.004": 17.8650453488,
			"0.005": 11.3910512581,
			"0.006": 6.08524441458,
			"0.007": 4.60632975069,
			"0.008": 4.01100984626,
			"0.009": 4.94874547138,
			"0.01": 6.58985286979,
			"0.011": 5.11530023121,
			"0.012": 0.126400778635,
			"0.013": 0.0,
			"0.014": 0.0,
			"0.015": 0.0,
			"0.016": 0.0,
			"0.017": 0.0,
			"0.018": 0.0,
			"0.019": 0.0,
			"0.02": 0.0,
			"0.021": 0.0,
			"0.022": 0.0,
			"0.023": 0.0,
			"0.024": 0.0,
			"0.025": 0.0
		}
	}
}
