{
	 "smiles": "OC(=O)C1CCC2=NN=C(C(F)F)N2C1", 
	 "Tm": 489.15, 
	 "num_atms": 24, 
	 "gaussian": { 
		 "optdone": 1, 
		 "sigma_profile": "yes", 
		 "theory": "DFT", 
		 "functional": "B3LYP", 
		 "basiset": "6-31G**", 
		 "properties": { 
			 "R2extent": 3805.1962, 
			 "electric_dipole_moment_norm": 4.25215465147, 
			 "electric_quadrupole_moment_norm": 10.2218649296, 
			 "total_energy": -824.65288672, 
			 "HOMO_LUMO_gap": 0.24143, 
			 "cosmo_polarized_energy": -19.95, 
			 "cosmo_cavitation_energy": 28.49, 
			 "cosmo_dispersion_energy": -20.46, 
			 "cosmo_repulsion_energy": 1.57, 
			 "cosmo_total_nonelectrostatic_energy": 9.6, 
			 "SMD_solvation_energy": 3.86 
		},
		"coords": [
			{
				"x": 0.3333902521,
				"y": -0.6101470896,
				"z": 3.4450653028,
				"element": "O" 
			},
			{
				"x": 1.0553310469,
				"y": -0.933677089,
				"z": 2.3462261742,
				"element": "C" 
			},
			{
				"x": 2.1279809239,
				"y": -1.4895254175,
				"z": 2.4048502713,
				"element": "O" 
			},
			{
				"x": 0.3368132246,
				"y": -0.5314192587,
				"z": 1.0669482015,
				"element": "C" 
			},
			{
				"x": 1.2344909204,
				"y": -0.7051837276,
				"z": -0.1678781287,
				"element": "C" 
			},
			{
				"x": 0.4307185179,
				"y": -0.4717744486,
				"z": -1.4581777989,
				"element": "C" 
			},
			{
				"x": -0.3984747622,
				"y": 0.7703062257,
				"z": -1.3556409109,
				"element": "C" 
			},
			{
				"x": -0.9629130501,
				"y": 1.4540298165,
				"z": -2.3301092893,
				"element": "N" 
			},
			{
				"x": -1.6547220172,
				"y": 2.4958578657,
				"z": -1.754907661,
				"element": "N" 
			},
			{
				"x": -1.4869457149,
				"y": 2.4078714505,
				"z": -0.4559844903,
				"element": "C" 
			},
			{
				"x": -2.0607035641,
				"y": 3.3469221437,
				"z": 0.5414227208,
				"element": "C" 
			},
			{
				"x": -1.0594810634,
				"y": 3.9037131179,
				"z": 1.2988066077,
				"element": "F" 
			},
			{
				"x": -2.8766391716,
				"y": 2.6739667914,
				"z": 1.418879264,
				"element": "F" 
			},
			{
				"x": -0.7031783853,
				"y": 1.3287492064,
				"z": -0.141248943,
				"element": "N" 
			},
			{
				"x": -0.2004364374,
				"y": 0.9088480086,
				"z": 1.1690009696,
				"element": "C" 
			},
			{
				"x": 0.8492617823,
				"y": -0.9073847956,
				"z": 4.2139268444,
				"element": "H" 
			},
			{
				"x": -0.5283971195,
				"y": -1.2056754069,
				"z": 0.9797678532,
				"element": "H" 
			},
			{
				"x": 2.0685699275,
				"y": 0.0039457444,
				"z": -0.1057111204,
				"element": "H" 
			},
			{
				"x": 1.6754602426,
				"y": -1.7041496017,
				"z": -0.1651311442,
				"element": "H" 
			},
			{
				"x": 1.0875255325,
				"y": -0.3942198674,
				"z": -2.3289118377,
				"element": "H" 
			},
			{
				"x": -0.232121795,
				"y": -1.3274017535,
				"z": -1.6446130909,
				"element": "H" 
			},
			{
				"x": -2.6316349132,
				"y": 4.1399910964,
				"z": 0.0519012591,
				"element": "H" 
			},
			{
				"x": 0.5950547844,
				"y": 1.5959824106,
				"z": 1.4785556015,
				"element": "H" 
			},
			{
				"x": -1.0086491612,
				"y": 0.9842745782,
				"z": 1.8968633452,
				"element": "H" 
			}
		],
		 "valence_orbital": [ 
			{
				"type": "occ",
				"energy": -0.31507,
				"method": "rhf"
			},
			{
				"type": "occ",
				"energy": -0.29958,
				"method": "rhf"
			},
			{
				"type": "occ",
				"energy": -0.29594,
				"method": "rhf"
			},
			{
				"type": "occ",
				"energy": -0.26255,
				"method": "rhf"
			},
			{
				"type": "occ",
				"energy": -0.25904,
				"method": "rhf"
			},
			{
				"type": "unocc",
				"energy": -0.01761,
				"method": "rhf"
			},
			{
				"type": "unocc",
				"energy": -0.00713,
				"method": "rhf"
			},
			{
				"type": "unocc",
				"energy": 0.02696,
				"method": "rhf"
			},
			{
				"type": "unocc",
				"energy": 0.05624,
				"method": "rhf"
			},
			{
				"type": "unocc",
				"energy": 0.07742,
				"method": "rhf"
			}
		],
		"cosmo_sigma_profile": { 
			"-0.025": 0.0,
			"-0.024": 0.0,
			"-0.023": 0.0,
			"-0.022": 0.0,
			"-0.021": 0.0,
			"-0.02": 0.0,
			"-0.019": 0.194595935528,
			"-0.018": 0.915568196355,
			"-0.017": 1.01512999803,
			"-0.016": 0.618798529648,
			"-0.015": 1.18776566041,
			"-0.014": 0.847198106845,
			"-0.013": 0.165214185497,
			"-0.012": 0.833644488872,
			"-0.011": 1.11747422639,
			"-0.01": 3.24054001228,
			"-0.009": 2.95604053687,
			"-0.008": 7.95795728776,
			"-0.007": 11.9670071912,
			"-0.006": 12.860396677,
			"-0.005": 15.2584410799,
			"-0.004": 17.8759219186,
			"-0.003": 17.2729741927,
			"-0.002": 12.8048997554,
			"-0.001": 11.5046983398,
			"0.0": 8.37198406006,
			"0.001": 8.55182127639,
			"0.002": 8.40602571172,
			"0.003": 14.2576250381,
			"0.004": 17.3539937577,
			"0.005": 4.68432629715,
			"0.006": 4.55691548822,
			"0.007": 3.05592547859,
			"0.008": 4.49102700388,
			"0.009": 3.22776983922,
			"0.01": 5.36754984322,
			"0.011": 6.93257667819,
			"0.012": 4.72744316322,
			"0.013": 3.23223908023,
			"0.014": 2.40859894028,
			"0.015": 2.70934356656,
			"0.016": 1.97875002452,
			"0.017": 0.56823910583,
			"0.018": 0.0,
			"0.019": 0.0,
			"0.02": 0.0,
			"0.021": 0.0,
			"0.022": 0.0,
			"0.023": 0.0,
			"0.024": 0.0,
			"0.025": 0.0
		}
	}
}
