{
	 "smiles": "CC(C)C1=NN(C=C1C(O)=O)C1=CC=CC=C1", 
	 "Tm": 443.15, 
	 "num_atms": 31, 
	 "gaussian": { 
		 "optdone": 1, 
		 "sigma_profile": "yes", 
		 "theory": "DFT", 
		 "functional": "B3LYP", 
		 "basiset": "6-31G**", 
		 "properties": { 
			 "R2extent": 5135.6522, 
			 "electric_dipole_moment_norm": 5.4344992382, 
			 "electric_quadrupole_moment_norm": 14.9520204437, 
			 "total_energy": -763.774717991, 
			 "HOMO_LUMO_gap": 0.189, 
			 "cosmo_polarized_energy": -17.32, 
			 "cosmo_cavitation_energy": 34.38, 
			 "cosmo_dispersion_energy": -24.73, 
			 "cosmo_repulsion_energy": 1.92, 
			 "cosmo_total_nonelectrostatic_energy": 11.57, 
			 "SMD_solvation_energy": 6.33 
		},
		"coords": [
			{
				"x": -0.3881781198,
				"y": -2.3052908875,
				"z": -2.5925211558,
				"element": "C" 
			},
			{
				"x": 0.162371425,
				"y": -2.5017402343,
				"z": -1.1659258936,
				"element": "C" 
			},
			{
				"x": 1.3513843194,
				"y": -3.4796310332,
				"z": -1.1458503335,
				"element": "C" 
			},
			{
				"x": 0.4886938967,
				"y": -1.1812890487,
				"z": -0.5085918611,
				"element": "C" 
			},
			{
				"x": -0.2755670829,
				"y": -0.766917133,
				"z": 0.4958157471,
				"element": "N" 
			},
			{
				"x": 0.2314948966,
				"y": 0.4341783252,
				"z": 0.8945974981,
				"element": "N" 
			},
			{
				"x": 1.3152755989,
				"y": 0.7843112067,
				"z": 0.1610747826,
				"element": "C" 
			},
			{
				"x": 1.5349164115,
				"y": -0.2309458306,
				"z": -0.7607268727,
				"element": "C" 
			},
			{
				"x": 2.5893409477,
				"y": -0.2473800891,
				"z": -1.79399486,
				"element": "C" 
			},
			{
				"x": 3.6737138145,
				"y": 0.5450535772,
				"z": -1.5417719577,
				"element": "O" 
			},
			{
				"x": 2.5498614564,
				"y": -0.8825832036,
				"z": -2.8239347224,
				"element": "O" 
			},
			{
				"x": -0.3964974935,
				"y": 1.1624821586,
				"z": 1.9418899078,
				"element": "C" 
			},
			{
				"x": -1.7344202758,
				"y": 0.8962368872,
				"z": 2.2515078007,
				"element": "C" 
			},
			{
				"x": -2.3559015018,
				"y": 1.6154110937,
				"z": 3.2700747952,
				"element": "C" 
			},
			{
				"x": -1.6589670602,
				"y": 2.5997657926,
				"z": 3.9744821111,
				"element": "C" 
			},
			{
				"x": -0.3229062798,
				"y": 2.8542763674,
				"z": 3.6615982598,
				"element": "C" 
			},
			{
				"x": 0.3162456789,
				"y": 2.1334442215,
				"z": 2.6535858655,
				"element": "C" 
			},
			{
				"x": -1.2685862643,
				"y": -1.6545340567,
				"z": -2.5869958456,
				"element": "H" 
			},
			{
				"x": 0.3716703239,
				"y": -1.8623318647,
				"z": -3.2400129718,
				"element": "H" 
			},
			{
				"x": -0.6850768917,
				"y": -3.2718072772,
				"z": -3.0139588479,
				"element": "H" 
			},
			{
				"x": -0.6383989222,
				"y": -2.9258055885,
				"z": -0.5484265756,
				"element": "H" 
			},
			{
				"x": 2.1726493966,
				"y": -3.1135533579,
				"z": -1.7666529253,
				"element": "H" 
			},
			{
				"x": 1.7220784446,
				"y": -3.634173735,
				"z": -0.1271496113,
				"element": "H" 
			},
			{
				"x": 1.0390063159,
				"y": -4.4519813955,
				"z": -1.5408674827,
				"element": "H" 
			},
			{
				"x": 1.7993636797,
				"y": 1.7414824706,
				"z": 0.2891324826,
				"element": "H" 
			},
			{
				"x": 3.6698859792,
				"y": 0.8221640832,
				"z": -0.6154106757,
				"element": "H" 
			},
			{
				"x": -2.2608302156,
				"y": 0.1318230447,
				"z": 1.693742143,
				"element": "H" 
			},
			{
				"x": -3.3945773906,
				"y": 1.4074819892,
				"z": 3.5088804907,
				"element": "H" 
			},
			{
				"x": -2.1505979714,
				"y": 3.159284485,
				"z": 4.7642030123,
				"element": "H" 
			},
			{
				"x": 0.2335063656,
				"y": 3.6071512258,
				"z": 4.2116533557,
				"element": "H" 
			},
			{
				"x": 1.3653465184,
				"y": 2.3130178069,
				"z": 2.4432543404,
				"element": "H" 
			}
		],
		 "valence_orbital": [ 
			{
				"type": "occ",
				"energy": -0.2961,
				"method": "rhf"
			},
			{
				"type": "occ",
				"energy": -0.27474,
				"method": "rhf"
			},
			{
				"type": "occ",
				"energy": -0.27088,
				"method": "rhf"
			},
			{
				"type": "occ",
				"energy": -0.26721,
				"method": "rhf"
			},
			{
				"type": "occ",
				"energy": -0.23772,
				"method": "rhf"
			},
			{
				"type": "unocc",
				"energy": -0.04872,
				"method": "rhf"
			},
			{
				"type": "unocc",
				"energy": -0.02052,
				"method": "rhf"
			},
			{
				"type": "unocc",
				"energy": -0.01055,
				"method": "rhf"
			},
			{
				"type": "unocc",
				"energy": 0.02239,
				"method": "rhf"
			},
			{
				"type": "unocc",
				"energy": 0.05745,
				"method": "rhf"
			}
		],
		"cosmo_sigma_profile": { 
			"-0.025": 0.0,
			"-0.024": 0.0,
			"-0.023": 0.0,
			"-0.022": 0.0,
			"-0.021": 0.0,
			"-0.02": 0.0,
			"-0.019": 0.302585286642,
			"-0.018": 1.10797671923,
			"-0.017": 1.32489118967,
			"-0.016": 0.619950194166,
			"-0.015": 0.917640918285,
			"-0.014": 1.27697708975,
			"-0.013": 1.27242928855,
			"-0.012": 2.00088572454,
			"-0.011": 2.49432034255,
			"-0.01": 2.5736189028,
			"-0.009": 1.83726274948,
			"-0.008": 2.83214185026,
			"-0.007": 3.90626931913,
			"-0.006": 9.85753256834,
			"-0.005": 11.9588111406,
			"-0.004": 12.9572955264,
			"-0.003": 18.4817063281,
			"-0.002": 20.6770633674,
			"-0.001": 24.3324988053,
			"0.0": 28.9848354461,
			"0.001": 29.1531575122,
			"0.002": 19.7936135634,
			"0.003": 16.1222057564,
			"0.004": 16.0012833333,
			"0.005": 9.55572214239,
			"0.006": 4.11137160816,
			"0.007": 4.31509963561,
			"0.008": 4.42377929272,
			"0.009": 3.98483090876,
			"0.01": 4.67487228109,
			"0.011": 5.3190984338,
			"0.012": 4.04539828614,
			"0.013": 2.17477018732,
			"0.014": 0.150669553256,
			"0.015": 0.0,
			"0.016": 0.0,
			"0.017": 0.0,
			"0.018": 0.0,
			"0.019": 0.0,
			"0.02": 0.0,
			"0.021": 0.0,
			"0.022": 0.0,
			"0.023": 0.0,
			"0.024": 0.0,
			"0.025": 0.0
		}
	}
}
