{
	 "smiles": "CC1=C(SC2=CC=CC=C12)C(=O)CBr", 
	 "Tm": 371.65, 
	 "num_atms": 23, 
	 "gaussian": { 
		 "optdone": 1, 
		 "sigma_profile": "yes", 
		 "theory": "DFT", 
		 "functional": "B3LYP", 
		 "basiset": "6-31G**", 
		 "properties": { 
			 "R2extent": 5623.5976, 
			 "electric_dipole_moment_norm": 3.32067519339, 
			 "electric_quadrupole_moment_norm": 5.8167424251, 
			 "total_energy": -3469.41609938, 
			 "HOMO_LUMO_gap": 0.1457, 
			 "cosmo_polarized_energy": -8.94, 
			 "cosmo_cavitation_energy": 30.31, 
			 "cosmo_dispersion_energy": -22.93, 
			 "cosmo_repulsion_energy": 1.74, 
			 "cosmo_total_nonelectrostatic_energy": 9.13, 
			 "SMD_solvation_energy": 4.04 
		},
		"coords": [
			{
				"x": 0.9951275165,
				"y": -1.0381976742,
				"z": -1.9742253456,
				"element": "C" 
			},
			{
				"x": 0.9153982048,
				"y": -0.5713436069,
				"z": -0.5482565202,
				"element": "C" 
			},
			{
				"x": 0.6524028507,
				"y": -1.390763218,
				"z": 0.5334142371,
				"element": "C" 
			},
			{
				"x": 0.6254699584,
				"y": -0.5113097397,
				"z": 2.0693218057,
				"element": "S" 
			},
			{
				"x": 0.9939010543,
				"y": 0.9857915053,
				"z": 1.2538747088,
				"element": "C" 
			},
			{
				"x": 1.152634454,
				"y": 2.2435812186,
				"z": 1.8484884275,
				"element": "C" 
			},
			{
				"x": 1.4393409597,
				"y": 3.3281825087,
				"z": 1.030404397,
				"element": "C" 
			},
			{
				"x": 1.5659508294,
				"y": 3.1681364304,
				"z": -0.3635891456,
				"element": "C" 
			},
			{
				"x": 1.4065274324,
				"y": 1.9235605002,
				"z": -0.9507935999,
				"element": "C" 
			},
			{
				"x": 1.1147768263,
				"y": 0.800431479,
				"z": -0.1473622233,
				"element": "C" 
			},
			{
				"x": 0.4474420351,
				"y": -2.8454759042,
				"z": 0.4759217845,
				"element": "C" 
			},
			{
				"x": 0.5221834357,
				"y": -3.4706696591,
				"z": -0.5752129797,
				"element": "O" 
			},
			{
				"x": 0.1685405415,
				"y": -3.6130205192,
				"z": 1.7653919163,
				"element": "C" 
			},
			{
				"x": -1.7254331605,
				"y": -3.401222823,
				"z": 2.302699893,
				"element": "Br" 
			},
			{
				"x": 0.1007905212,
				"y": -1.6000757953,
				"z": -2.2539892944,
				"element": "H" 
			},
			{
				"x": 1.1141424466,
				"y": -0.1964817657,
				"z": -2.6595633617,
				"element": "H" 
			},
			{
				"x": 1.8353462392,
				"y": -1.725299539,
				"z": -2.1144971257,
				"element": "H" 
			},
			{
				"x": 1.0542599542,
				"y": 2.3670872789,
				"z": 2.9223859749,
				"element": "H" 
			},
			{
				"x": 1.5674077138,
				"y": 4.3120569236,
				"z": 1.4718142322,
				"element": "H" 
			},
			{
				"x": 1.7905250815,
				"y": 4.0312615799,
				"z": -0.9826653319,
				"element": "H" 
			},
			{
				"x": 1.5072040682,
				"y": 1.8136574557,
				"z": -2.0257604754,
				"element": "H" 
			},
			{
				"x": 0.7622014776,
				"y": -3.2750278898,
				"z": 2.6149425966,
				"element": "H" 
			},
			{
				"x": 0.3137595594,
				"y": -4.6740587464,
				"z": 1.5784554297,
				"element": "H" 
			}
		],
		 "valence_orbital": [ 
			{
				"type": "occ",
				"energy": -0.28987,
				"method": "rhf"
			},
			{
				"type": "occ",
				"energy": -0.28016,
				"method": "rhf"
			},
			{
				"type": "occ",
				"energy": -0.25735,
				"method": "rhf"
			},
			{
				"type": "occ",
				"energy": -0.24696,
				"method": "rhf"
			},
			{
				"type": "occ",
				"energy": -0.22638,
				"method": "rhf"
			},
			{
				"type": "unocc",
				"energy": -0.08068,
				"method": "rhf"
			},
			{
				"type": "unocc",
				"energy": -0.02191,
				"method": "rhf"
			},
			{
				"type": "unocc",
				"energy": -0.01399,
				"method": "rhf"
			},
			{
				"type": "unocc",
				"energy": 0.00962,
				"method": "rhf"
			},
			{
				"type": "unocc",
				"energy": 0.0216,
				"method": "rhf"
			}
		],
		"cosmo_sigma_profile": { 
			"-0.025": 0.0,
			"-0.024": 0.0,
			"-0.023": 0.0,
			"-0.022": 0.0,
			"-0.021": 0.0,
			"-0.02": 0.0,
			"-0.019": 0.0,
			"-0.018": 0.0,
			"-0.017": 0.0,
			"-0.016": 0.0,
			"-0.015": 0.0,
			"-0.014": 0.0,
			"-0.013": 0.0,
			"-0.012": 0.0,
			"-0.011": 0.0,
			"-0.01": 0.0,
			"-0.009": 1.34575127637,
			"-0.008": 5.06639584298,
			"-0.007": 9.84644934325,
			"-0.006": 13.8819246486,
			"-0.005": 15.5744850936,
			"-0.004": 14.9726198486,
			"-0.003": 15.1906595601,
			"-0.002": 15.3856061512,
			"-0.001": 18.9457458165,
			"0.0": 19.0230544932,
			"0.001": 22.6823240661,
			"0.002": 21.1716742691,
			"0.003": 20.8677766595,
			"0.004": 22.0243643825,
			"0.005": 16.3370865498,
			"0.006": 3.83004718708,
			"0.007": 1.43326597426,
			"0.008": 1.64327698098,
			"0.009": 1.47828853096,
			"0.01": 2.26058623015,
			"0.011": 2.9254634475,
			"0.012": 1.79448580698,
			"0.013": 0.193506731475,
			"0.014": 0.0,
			"0.015": 0.0,
			"0.016": 0.0,
			"0.017": 0.0,
			"0.018": 0.0,
			"0.019": 0.0,
			"0.02": 0.0,
			"0.021": 0.0,
			"0.022": 0.0,
			"0.023": 0.0,
			"0.024": 0.0,
			"0.025": 0.0
		}
	}
}
