{
	 "smiles": "CC12CCC3C(CCC4(C)CC5(CCC34C)OCCO5)C1CCC2=O", 
	 "Tm": 431.15, 
	 "num_atms": 59, 
	 "gaussian": { 
		 "optdone": 1, 
		 "sigma_profile": "yes", 
		 "theory": "DFT", 
		 "functional": "B3LYP", 
		 "basiset": "6-31G**", 
		 "properties": { 
			 "R2extent": 10348.2536, 
			 "electric_dipole_moment_norm": 3.77772488675, 
			 "electric_quadrupole_moment_norm": 17.1263225787, 
			 "total_energy": -1084.49991383, 
			 "HOMO_LUMO_gap": 0.21981, 
			 "cosmo_polarized_energy": -11.72, 
			 "cosmo_cavitation_energy": 48.43, 
			 "cosmo_dispersion_energy": -34.45, 
			 "cosmo_repulsion_energy": 2.5, 
			 "cosmo_total_nonelectrostatic_energy": 16.47, 
			 "SMD_solvation_energy": 7.33 
		},
		"coords": [
			{
				"x": 1.9538104519,
				"y": -3.0674510086,
				"z": -3.0901322642,
				"element": "C" 
			},
			{
				"x": 1.4760450438,
				"y": -1.6188515255,
				"z": -3.2588673564,
				"element": "C" 
			},
			{
				"x": 2.363098832,
				"y": -0.6218023605,
				"z": -2.4177358201,
				"element": "C" 
			},
			{
				"x": 1.6503699677,
				"y": 0.0102908676,
				"z": -1.2029274724,
				"element": "C" 
			},
			{
				"x": 0.7425772359,
				"y": -1.034840881,
				"z": -0.5287254712,
				"element": "C" 
			},
			{
				"x": -0.4472054149,
				"y": -1.4071168188,
				"z": -1.473036653,
				"element": "C" 
			},
			{
				"x": -1.7327656686,
				"y": -0.5830948019,
				"z": -1.2269780781,
				"element": "C" 
			},
			{
				"x": -2.1149798871,
				"y": -0.4452275665,
				"z": 0.2553749543,
				"element": "C" 
			},
			{
				"x": -0.9564603619,
				"y": 0.1305836154,
				"z": 1.1032227518,
				"element": "C" 
			},
			{
				"x": -0.6811430593,
				"y": 1.5784009484,
				"z": 0.6193996369,
				"element": "C" 
			},
			{
				"x": -1.3822158675,
				"y": 0.2134792172,
				"z": 2.594210704,
				"element": "C" 
			},
			{
				"x": -0.2555598391,
				"y": 0.5881906886,
				"z": 3.5773263484,
				"element": "C" 
			},
			{
				"x": 1.0404856985,
				"y": -0.1954339055,
				"z": 3.3344921442,
				"element": "C" 
			},
			{
				"x": 1.4366171047,
				"y": -0.2777822103,
				"z": 1.849560003,
				"element": "C" 
			},
			{
				"x": 0.2897960652,
				"y": -0.8276303249,
				"z": 0.9642091347,
				"element": "C" 
			},
			{
				"x": -0.0383954135,
				"y": -2.2619643729,
				"z": 1.4819413496,
				"element": "C" 
			},
			{
				"x": -0.7435951563,
				"y": 0.3372164237,
				"z": 4.9075177263,
				"element": "O" 
			},
			{
				"x": -0.6123259563,
				"y": 1.5279172438,
				"z": 5.6756229789,
				"element": "C" 
			},
			{
				"x": -0.6351759213,
				"y": 2.6160513594,
				"z": 4.6071669875,
				"element": "C" 
			},
			{
				"x": 0.0537161107,
				"y": 1.98844178,
				"z": 3.5325013867,
				"element": "O" 
			},
			{
				"x": -0.0374151149,
				"y": -1.4018697388,
				"z": -2.9809081337,
				"element": "C" 
			},
			{
				"x": -0.3880749777,
				"y": -0.1507817369,
				"z": -3.8361457343,
				"element": "C" 
			},
			{
				"x": 0.3988260507,
				"y": -0.3614009963,
				"z": -5.1381402898,
				"element": "C" 
			},
			{
				"x": 1.6147356053,
				"y": -1.198157646,
				"z": -4.7342850904,
				"element": "C" 
			},
			{
				"x": 2.5412341032,
				"y": -1.4900543877,
				"z": -5.4606731622,
				"element": "O" 
			},
			{
				"x": 2.9686574528,
				"y": -3.167848073,
				"z": -3.4862533594,
				"element": "H" 
			},
			{
				"x": 1.9582339705,
				"y": -3.3756184423,
				"z": -2.0403947432,
				"element": "H" 
			},
			{
				"x": 1.3112983524,
				"y": -3.7614307071,
				"z": -3.6435744113,
				"element": "H" 
			},
			{
				"x": 3.2406524055,
				"y": -1.1788271189,
				"z": -2.0710997538,
				"element": "H" 
			},
			{
				"x": 2.7603141147,
				"y": 0.1757850861,
				"z": -3.0564478186,
				"element": "H" 
			},
			{
				"x": 2.4157696003,
				"y": 0.3779495149,
				"z": -0.5128958344,
				"element": "H" 
			},
			{
				"x": 1.0829741519,
				"y": 0.8905450159,
				"z": -1.5169483671,
				"element": "H" 
			},
			{
				"x": 1.3748500245,
				"y": -1.932661766,
				"z": -0.4767759058,
				"element": "H" 
			},
			{
				"x": -0.705662136,
				"y": -2.4471223339,
				"z": -1.2415690768,
				"element": "H" 
			},
			{
				"x": -1.6261247974,
				"y": 0.4178567536,
				"z": -1.6549805506,
				"element": "H" 
			},
			{
				"x": -2.560198733,
				"y": -1.0510708192,
				"z": -1.7762640413,
				"element": "H" 
			},
			{
				"x": -2.4254302678,
				"y": -1.4173937075,
				"z": 0.656139126,
				"element": "H" 
			},
			{
				"x": -2.9910055543,
				"y": 0.2110871861,
				"z": 0.3431308265,
				"element": "H" 
			},
			{
				"x": -0.4073355032,
				"y": 1.6300631215,
				"z": -0.4335929569,
				"element": "H" 
			},
			{
				"x": 0.0945599083,
				"y": 2.076293913,
				"z": 1.199448102,
				"element": "H" 
			},
			{
				"x": -1.5950108229,
				"y": 2.1714438949,
				"z": 0.7438141203,
				"element": "H" 
			},
			{
				"x": -2.1875265342,
				"y": 0.9496348002,
				"z": 2.7067456577,
				"element": "H" 
			},
			{
				"x": -1.7974100039,
				"y": -0.7412289971,
				"z": 2.9311212098,
				"element": "H" 
			},
			{
				"x": 1.8343348026,
				"y": 0.281095507,
				"z": 3.9185848367,
				"element": "H" 
			},
			{
				"x": 0.89643272,
				"y": -1.1969758545,
				"z": 3.7490970326,
				"element": "H" 
			},
			{
				"x": 2.3201270343,
				"y": -0.9219308985,
				"z": 1.7491353752,
				"element": "H" 
			},
			{
				"x": 1.7420605904,
				"y": 0.7160897204,
				"z": 1.5106401902,
				"element": "H" 
			},
			{
				"x": -0.7161415886,
				"y": -2.8032917107,
				"z": 0.8200086668,
				"element": "H" 
			},
			{
				"x": -0.4879395014,
				"y": -2.2769589125,
				"z": 2.4753584063,
				"element": "H" 
			},
			{
				"x": 0.8880675894,
				"y": -2.8444253306,
				"z": 1.5393338814,
				"element": "H" 
			},
			{
				"x": 0.3352713524,
				"y": 1.5385355044,
				"z": 6.2338726045,
				"element": "H" 
			},
			{
				"x": -1.4441597764,
				"y": 1.583394861,
				"z": 6.3842345864,
				"element": "H" 
			},
			{
				"x": -1.6660016501,
				"y": 2.8794373952,
				"z": 4.326399098,
				"element": "H" 
			},
			{
				"x": -0.094924839,
				"y": 3.5267739112,
				"z": 4.8785458241,
				"element": "H" 
			},
			{
				"x": -0.5699349761,
				"y": -2.2383094451,
				"z": -3.4577324673,
				"element": "H" 
			},
			{
				"x": -1.4632139472,
				"y": -0.0542576892,
				"z": -4.007085193,
				"element": "H" 
			},
			{
				"x": -0.057926673,
				"y": 0.7708674477,
				"z": -3.3462028322,
				"element": "H" 
			},
			{
				"x": 0.7031584323,
				"y": 0.5543920358,
				"z": -5.6531653382,
				"element": "H" 
			},
			{
				"x": -0.173914829,
				"y": -0.9552057246,
				"z": -5.8631174748,
				"element": "H" 
			}
		],
		 "valence_orbital": [ 
			{
				"type": "occ",
				"energy": -0.27705,
				"method": "rhf"
			},
			{
				"type": "occ",
				"energy": -0.27381,
				"method": "rhf"
			},
			{
				"type": "occ",
				"energy": -0.26554,
				"method": "rhf"
			},
			{
				"type": "occ",
				"energy": -0.24391,
				"method": "rhf"
			},
			{
				"type": "occ",
				"energy": -0.22818,
				"method": "rhf"
			},
			{
				"type": "unocc",
				"energy": -0.00837,
				"method": "rhf"
			},
			{
				"type": "unocc",
				"energy": 0.06206,
				"method": "rhf"
			},
			{
				"type": "unocc",
				"energy": 0.07676,
				"method": "rhf"
			},
			{
				"type": "unocc",
				"energy": 0.08109,
				"method": "rhf"
			},
			{
				"type": "unocc",
				"energy": 0.09575,
				"method": "rhf"
			}
		],
		"cosmo_sigma_profile": { 
			"-0.025": 0.0,
			"-0.024": 0.0,
			"-0.023": 0.0,
			"-0.022": 0.0,
			"-0.021": 0.0,
			"-0.02": 0.0,
			"-0.019": 0.0,
			"-0.018": 0.0,
			"-0.017": 0.0,
			"-0.016": 0.0,
			"-0.015": 0.0,
			"-0.014": 0.0,
			"-0.013": 0.0,
			"-0.012": 0.0,
			"-0.011": 0.0,
			"-0.01": 0.0,
			"-0.009": 0.0,
			"-0.008": 0.0,
			"-0.007": 0.0,
			"-0.006": 3.02027953902,
			"-0.005": 14.1638478674,
			"-0.004": 27.784781496,
			"-0.003": 40.90301398,
			"-0.002": 61.6309733536,
			"-0.001": 64.3584333282,
			"0.0": 48.1162160588,
			"0.001": 36.5611052762,
			"0.002": 17.8622972446,
			"0.003": 7.94601026439,
			"0.004": 6.26737915087,
			"0.005": 4.57468898679,
			"0.006": 4.69940634845,
			"0.007": 4.921800437,
			"0.008": 5.14143928223,
			"0.009": 3.66718329606,
			"0.01": 3.6774500948,
			"0.011": 4.8200695266,
			"0.012": 6.32029272823,
			"0.013": 4.38104724853,
			"0.014": 0.557312651408,
			"0.015": 0.0,
			"0.016": 0.0,
			"0.017": 0.0,
			"0.018": 0.0,
			"0.019": 0.0,
			"0.02": 0.0,
			"0.021": 0.0,
			"0.022": 0.0,
			"0.023": 0.0,
			"0.024": 0.0,
			"0.025": 0.0
		}
	}
}
