{
	 "smiles": "OC(=O)C1=C2C(=O)C3=C(C=CC=C3)C(=O)C2=CC=C1", 
	 "Tm": 567.15, 
	 "num_atms": 27, 
	 "gaussian": { 
		 "optdone": 1, 
		 "sigma_profile": "yes", 
		 "theory": "DFT", 
		 "functional": "B3LYP", 
		 "basiset": "6-31G**", 
		 "properties": { 
			 "R2extent": 4710.8563, 
			 "electric_dipole_moment_norm": 2.10455331128, 
			 "electric_quadrupole_moment_norm": 20.418231944, 
			 "total_energy": -877.336358292, 
			 "HOMO_LUMO_gap": 0.15285, 
			 "cosmo_polarized_energy": -15.67, 
			 "cosmo_cavitation_energy": 32.38, 
			 "cosmo_dispersion_energy": -23.57, 
			 "cosmo_repulsion_energy": 1.75, 
			 "cosmo_total_nonelectrostatic_energy": 10.57, 
			 "SMD_solvation_energy": 7.05 
		},
		"coords": [
			{
				"x": -3.4138673778,
				"y": 0.6266114609,
				"z": 1.0830368757,
				"element": "O" 
			},
			{
				"x": -3.383438594,
				"y": -0.0952681894,
				"z": -0.0565402254,
				"element": "C" 
			},
			{
				"x": -4.2605800165,
				"y": -0.0720700973,
				"z": -0.8898588102,
				"element": "O" 
			},
			{
				"x": -2.2172494232,
				"y": -1.0472022298,
				"z": -0.091544322,
				"element": "C" 
			},
			{
				"x": -0.8778060991,
				"y": -0.6366944045,
				"z": -0.2295163764,
				"element": "C" 
			},
			{
				"x": -0.5519848399,
				"y": 0.7976716929,
				"z": -0.4853182721,
				"element": "C" 
			},
			{
				"x": -1.4369761405,
				"y": 1.6218433836,
				"z": -0.6870080366,
				"element": "O" 
			},
			{
				"x": 0.885300429,
				"y": 1.1899420356,
				"z": -0.5205368868,
				"element": "C" 
			},
			{
				"x": 1.9082674197,
				"y": 0.2270127469,
				"z": -0.4318378901,
				"element": "C" 
			},
			{
				"x": 3.2484311281,
				"y": 0.6277937903,
				"z": -0.4846483195,
				"element": "C" 
			},
			{
				"x": 3.5682808606,
				"y": 1.976161483,
				"z": -0.6195406531,
				"element": "C" 
			},
			{
				"x": 2.5509002722,
				"y": 2.9340268011,
				"z": -0.7101089996,
				"element": "C" 
			},
			{
				"x": 1.2153056715,
				"y": 2.5427336127,
				"z": -0.6652160152,
				"element": "C" 
			},
			{
				"x": 1.5874032497,
				"y": -1.2201036802,
				"z": -0.2953657294,
				"element": "C" 
			},
			{
				"x": 2.4711823212,
				"y": -2.0687672564,
				"z": -0.2490866831,
				"element": "O" 
			},
			{
				"x": 0.1458535747,
				"y": -1.6058427218,
				"z": -0.2003194903,
				"element": "C" 
			},
			{
				"x": -0.1679428101,
				"y": -2.9622545399,
				"z": -0.0647862487,
				"element": "C" 
			},
			{
				"x": -1.4963352767,
				"y": -3.3627959957,
				"z": 0.0313833891,
				"element": "C" 
			},
			{
				"x": -2.5154771651,
				"y": -2.4081838135,
				"z": 0.0157146038,
				"element": "C" 
			},
			{
				"x": -4.1844178105,
				"y": 1.2149863191,
				"z": 1.0091133303,
				"element": "H" 
			},
			{
				"x": 4.0163921115,
				"y": -0.1354788556,
				"z": -0.4192023206,
				"element": "H" 
			},
			{
				"x": 4.6088283017,
				"y": 2.2847010371,
				"z": -0.657360986,
				"element": "H" 
			},
			{
				"x": 2.8032624146,
				"y": 3.9848096762,
				"z": -0.8175075129,
				"element": "H" 
			},
			{
				"x": 0.4092165014,
				"y": 3.2645259127,
				"z": -0.7406677605,
				"element": "H" 
			},
			{
				"x": 0.6474179988,
				"y": -3.6771071746,
				"z": -0.0453969533,
				"element": "H" 
			},
			{
				"x": -1.7443956566,
				"y": -4.415866751,
				"z": 0.1221072239,
				"element": "H" 
			},
			{
				"x": -3.553671045,
				"y": -2.7153842425,
				"z": 0.0935130691,
				"element": "H" 
			}
		],
		 "valence_orbital": [ 
			{
				"type": "occ",
				"energy": -0.27556,
				"method": "rhf"
			},
			{
				"type": "occ",
				"energy": -0.27313,
				"method": "rhf"
			},
			{
				"type": "occ",
				"energy": -0.27264,
				"method": "rhf"
			},
			{
				"type": "occ",
				"energy": -0.26635,
				"method": "rhf"
			},
			{
				"type": "occ",
				"energy": -0.26226,
				"method": "rhf"
			},
			{
				"type": "unocc",
				"energy": -0.10941,
				"method": "rhf"
			},
			{
				"type": "unocc",
				"energy": -0.0671,
				"method": "rhf"
			},
			{
				"type": "unocc",
				"energy": -0.03045,
				"method": "rhf"
			},
			{
				"type": "unocc",
				"energy": -0.02431,
				"method": "rhf"
			},
			{
				"type": "unocc",
				"energy": 0.01695,
				"method": "rhf"
			}
		],
		"cosmo_sigma_profile": { 
			"-0.025": 0.0,
			"-0.024": 0.0,
			"-0.023": 0.0,
			"-0.022": 0.0,
			"-0.021": 0.0,
			"-0.02": 0.0,
			"-0.019": 0.0600384940355,
			"-0.018": 1.06000147857,
			"-0.017": 0.734503303235,
			"-0.016": 0.916878483864,
			"-0.015": 0.838352935306,
			"-0.014": 0.652087318277,
			"-0.013": 0.375233841419,
			"-0.012": 0.745644573765,
			"-0.011": 0.928402136797,
			"-0.01": 0.531003780868,
			"-0.009": 0.906656524361,
			"-0.008": 4.85889258623,
			"-0.007": 12.6874996546,
			"-0.006": 17.2748351978,
			"-0.005": 17.7231435365,
			"-0.004": 13.382062652,
			"-0.003": 13.4962004873,
			"-0.002": 15.560643215,
			"-0.001": 19.4070490764,
			"0.0": 26.2228018945,
			"0.001": 27.0156903184,
			"0.002": 19.4189161523,
			"0.003": 6.74072002791,
			"0.004": 6.16191294852,
			"0.005": 5.99635151283,
			"0.006": 6.03538593105,
			"0.007": 4.91179494381,
			"0.008": 8.11983483918,
			"0.009": 8.04255295746,
			"0.01": 7.87675824115,
			"0.011": 9.77940548831,
			"0.012": 2.95606233211,
			"0.013": 0.125779167086,
			"0.014": 0.0,
			"0.015": 0.0,
			"0.016": 0.0,
			"0.017": 0.0,
			"0.018": 0.0,
			"0.019": 0.0,
			"0.02": 0.0,
			"0.021": 0.0,
			"0.022": 0.0,
			"0.023": 0.0,
			"0.024": 0.0,
			"0.0": 0.0
		}
	}
}
