{
	 "smiles": "CC1=CC=C(CCC(O)=O)C=C1", 
	 "Tm": 389.15, 
	 "num_atms": 24, 
	 "gaussian": { 
		 "optdone": 1, 
		 "sigma_profile": "yes", 
		 "theory": "DFT", 
		 "functional": "B3LYP", 
		 "basiset": "6-31G**", 
		 "properties": { 
			 "R2extent": 2999.5685, 
			 "electric_dipole_moment_norm": 1.50226682051, 
			 "electric_quadrupole_moment_norm": 11.0560367682, 
			 "total_energy": -538.773410406, 
			 "HOMO_LUMO_gap": 0.23075, 
			 "cosmo_polarized_energy": -10.3, 
			 "cosmo_cavitation_energy": 27.71, 
			 "cosmo_dispersion_energy": -19.55, 
			 "cosmo_repulsion_energy": 1.59, 
			 "cosmo_total_nonelectrostatic_energy": 9.75, 
			 "SMD_solvation_energy": 5.72 
		},
		"coords": [
			{
				"x": 1.8487777995,
				"y": -3.2354239677,
				"z": -1.4737539759,
				"element": "C" 
			},
			{
				"x": 1.6717804726,
				"y": -2.2147375555,
				"z": -0.3740490265,
				"element": "C" 
			},
			{
				"x": 0.431043711,
				"y": -2.0280723455,
				"z": 0.2476415218,
				"element": "C" 
			},
			{
				"x": 0.2596670251,
				"y": -1.0668619395,
				"z": 1.2440927271,
				"element": "C" 
			},
			{
				"x": 1.3264839361,
				"y": -0.2582623929,
				"z": 1.6561168389,
				"element": "C" 
			},
			{
				"x": 1.1427337879,
				"y": 0.803343869,
				"z": 2.7211112658,
				"element": "C" 
			},
			{
				"x": 0.8694264444,
				"y": 2.2131112235,
				"z": 2.1496885573,
				"element": "C" 
			},
			{
				"x": -0.4235309582,
				"y": 2.3464451506,
				"z": 1.3729653138,
				"element": "C" 
			},
			{
				"x": -1.477205787,
				"y": 1.7939588569,
				"z": 2.0318149186,
				"element": "O" 
			},
			{
				"x": -0.5525093598,
				"y": 2.9029331008,
				"z": 0.3061308756,
				"element": "O" 
			},
			{
				"x": 2.5701368121,
				"y": -0.4488050273,
				"z": 1.0393589201,
				"element": "C" 
			},
			{
				"x": 2.7396784012,
				"y": -1.4091338755,
				"z": 0.0435077364,
				"element": "C" 
			},
			{
				"x": 1.6540386614,
				"y": -2.7945588634,
				"z": -2.4596744032,
				"element": "H" 
			},
			{
				"x": 2.8685259166,
				"y": -3.6321605349,
				"z": -1.4924422797,
				"element": "H" 
			},
			{
				"x": 1.1603094927,
				"y": -4.0774986308,
				"z": -1.3537586021,
				"element": "H" 
			},
			{
				"x": -0.4128661701,
				"y": -2.6471365853,
				"z": -0.0481215123,
				"element": "H" 
			},
			{
				"x": -0.7136364205,
				"y": -0.9425171974,
				"z": 1.7111677147,
				"element": "H" 
			},
			{
				"x": 2.0470177906,
				"y": 0.8659840338,
				"z": 3.3372962804,
				"element": "H" 
			},
			{
				"x": 0.3213001338,
				"y": 0.5273389629,
				"z": 3.388783256,
				"element": "H" 
			},
			{
				"x": 0.8204964671,
				"y": 2.9322279723,
				"z": 2.978250523,
				"element": "H" 
			},
			{
				"x": 1.6727004638,
				"y": 2.5318116824,
				"z": 1.4817072013,
				"element": "H" 
			},
			{
				"x": -2.2513374785,
				"y": 1.9458581021,
				"z": 1.4640240058,
				"element": "H" 
			},
			{
				"x": 3.4200425165,
				"y": 0.1558544133,
				"z": 1.3489271321,
				"element": "H" 
			},
			{
				"x": 3.7181263417,
				"y": -1.539998452,
				"z": -0.4128849893,
				"element": "H" 
			}
		],
		 "valence_orbital": [ 
			{
				"type": "occ",
				"energy": -0.32912,
				"method": "rhf"
			},
			{
				"type": "occ",
				"energy": -0.31558,
				"method": "rhf"
			},
			{
				"type": "occ",
				"energy": -0.2702,
				"method": "rhf"
			},
			{
				"type": "occ",
				"energy": -0.24533,
				"method": "rhf"
			},
			{
				"type": "occ",
				"energy": -0.23127,
				"method": "rhf"
			},
			{
				"type": "unocc",
				"energy": -0.00052,
				"method": "rhf"
			},
			{
				"type": "unocc",
				"energy": 0.00232,
				"method": "rhf"
			},
			{
				"type": "unocc",
				"energy": 0.01304,
				"method": "rhf"
			},
			{
				"type": "unocc",
				"energy": 0.07383,
				"method": "rhf"
			},
			{
				"type": "unocc",
				"energy": 0.10237,
				"method": "rhf"
			}
		],
		"cosmo_sigma_profile": { 
			"-0.025": 0.0,
			"-0.024": 0.0,
			"-0.023": 0.0,
			"-0.022": 0.0,
			"-0.021": 0.0,
			"-0.02": 0.0,
			"-0.019": 0.0,
			"-0.018": 0.476925012829,
			"-0.017": 0.820767414055,
			"-0.016": 0.83192212088,
			"-0.015": 0.964472291616,
			"-0.014": 0.729400590418,
			"-0.013": 1.06022948764,
			"-0.012": 0.303415127764,
			"-0.011": 0.398784511882,
			"-0.01": 0.70443223286,
			"-0.009": 0.553673596252,
			"-0.008": 0.440184870806,
			"-0.007": 1.72336697156,
			"-0.006": 4.25088289401,
			"-0.005": 10.9668422002,
			"-0.004": 24.2227343052,
			"-0.003": 24.9482981762,
			"-0.002": 21.0530230159,
			"-0.001": 18.9659231993,
			"0.0": 18.1227789881,
			"0.001": 14.6587042881,
			"0.002": 12.1263361794,
			"0.003": 9.69963793496,
			"0.004": 9.4202401419,
			"0.005": 9.42496986835,
			"0.006": 9.79503661786,
			"0.007": 4.84096615542,
			"0.008": 2.10910612762,
			"0.009": 2.67029225939,
			"0.01": 2.01670393097,
			"0.011": 3.59502010554,
			"0.012": 4.91683077039,
			"0.013": 1.3131215314,
			"0.014": 0.0093933061929,
			"0.015": 0.0,
			"0.016": 0.0,
			"0.017": 0.0,
			"0.018": 0.0,
			"0.019": 0.0,
			"0.02": 0.0,
			"0.021": 0.0,
			"0.022": 0.0,
			"0.023": 0.0,
			"0.024": 0.0,
			"0.025": 0.0
		}
	}
}
