{
	 "smiles": "COC1=CC=CC(CCC(O)=O)=C1", 
	 "Tm": 318.15, 
	 "num_atms": 25, 
	 "gaussian": { 
		 "optdone": 1, 
		 "sigma_profile": "yes", 
		 "theory": "DFT", 
		 "functional": "B3LYP", 
		 "basiset": "6-31G**", 
		 "properties": { 
			 "R2extent": 3226.026, 
			 "electric_dipole_moment_norm": 1.67625984263, 
			 "electric_quadrupole_moment_norm": 12.0452165722, 
			 "total_energy": -613.978662803, 
			 "HOMO_LUMO_gap": 0.21618, 
			 "cosmo_polarized_energy": -12.02, 
			 "cosmo_cavitation_energy": 28.86, 
			 "cosmo_dispersion_energy": -20.73, 
			 "cosmo_repulsion_energy": 1.67, 
			 "cosmo_total_nonelectrostatic_energy": 9.81, 
			 "SMD_solvation_energy": 6.58 
		},
		"coords": [
			{
				"x": 2.8424163826,
				"y": -3.2746226663,
				"z": -0.0052694821,
				"element": "C" 
			},
			{
				"x": 2.4897271289,
				"y": -1.9310257849,
				"z": -0.2862604468,
				"element": "O" 
			},
			{
				"x": 1.2205281785,
				"y": -1.5201831642,
				"z": 0.0102722292,
				"element": "C" 
			},
			{
				"x": 0.2356256074,
				"y": -2.3365747181,
				"z": 0.5777268306,
				"element": "C" 
			},
			{
				"x": -1.0291622457,
				"y": -1.7963600566,
				"z": 0.8303797506,
				"element": "C" 
			},
			{
				"x": -1.3156169979,
				"y": -0.4692544962,
				"z": 0.5262059701,
				"element": "C" 
			},
			{
				"x": -0.3286756191,
				"y": 0.3537997721,
				"z": -0.0425110185,
				"element": "C" 
			},
			{
				"x": -0.6312975491,
				"y": 1.8079687686,
				"z": -0.3487791593,
				"element": "C" 
			},
			{
				"x": -0.33091456,
				"y": 2.7574298589,
				"z": 0.8255712139,
				"element": "C" 
			},
			{
				"x": 1.1483515869,
				"y": 3.0239819279,
				"z": 1.014209283,
				"element": "C" 
			},
			{
				"x": 1.4227416578,
				"y": 3.4558702206,
				"z": 2.2681810592,
				"element": "O" 
			},
			{
				"x": 2.0054766286,
				"y": 2.9163128483,
				"z": 0.1634699704,
				"element": "O" 
			},
			{
				"x": 0.9345577886,
				"y": -0.1813195486,
				"z": -0.2957289137,
				"element": "C" 
			},
			{
				"x": 2.2221086256,
				"y": -3.9846182686,
				"z": -0.5680988724,
				"element": "H" 
			},
			{
				"x": 2.7603265818,
				"y": -3.5016342999,
				"z": 1.0659196885,
				"element": "H" 
			},
			{
				"x": 3.8828844213,
				"y": -3.3850632694,
				"z": -0.3153331787,
				"element": "H" 
			},
			{
				"x": 0.4350720541,
				"y": -3.3739621529,
				"z": 0.818280634,
				"element": "H" 
			},
			{
				"x": -1.7972795383,
				"y": -2.4298883643,
				"z": 1.2656244538,
				"element": "H" 
			},
			{
				"x": -2.3070221576,
				"y": -0.0683549503,
				"z": 0.7211214575,
				"element": "H" 
			},
			{
				"x": -0.0532285659,
				"y": 2.1399748867,
				"z": -1.216100459,
				"element": "H" 
			},
			{
				"x": -1.6913821612,
				"y": 1.9086538806,
				"z": -0.6052038613,
				"element": "H" 
			},
			{
				"x": -0.7972130013,
				"y": 3.7363540445,
				"z": 0.6480538963,
				"element": "H" 
			},
			{
				"x": -0.7482959424,
				"y": 2.3831041704,
				"z": 1.7650377369,
				"element": "H" 
			},
			{
				"x": 2.3780252788,
				"y": 3.6358543517,
				"z": 2.287418881,
				"element": "H" 
			},
			{
				"x": 1.7190464177,
				"y": 0.4318570101,
				"z": -0.7262876631,
				"element": "H" 
			}
		],
		 "valence_orbital": [ 
			{
				"type": "occ",
				"energy": -0.31445,
				"method": "rhf"
			},
			{
				"type": "occ",
				"energy": -0.3093,
				"method": "rhf"
			},
			{
				"type": "occ",
				"energy": -0.2744,
				"method": "rhf"
			},
			{
				"type": "occ",
				"energy": -0.23874,
				"method": "rhf"
			},
			{
				"type": "occ",
				"energy": -0.21281,
				"method": "rhf"
			},
			{
				"type": "unocc",
				"energy": 0.00337,
				"method": "rhf"
			},
			{
				"type": "unocc",
				"energy": 0.0091,
				"method": "rhf"
			},
			{
				"type": "unocc",
				"energy": 0.01878,
				"method": "rhf"
			},
			{
				"type": "unocc",
				"energy": 0.08149,
				"method": "rhf"
			},
			{
				"type": "unocc",
				"energy": 0.09555,
				"method": "rhf"
			}
		],
		"cosmo_sigma_profile": { 
			"-0.025": 0.0,
			"-0.024": 0.0,
			"-0.023": 0.0,
			"-0.022": 0.0,
			"-0.021": 0.0,
			"-0.02": 0.0,
			"-0.019": 0.0128680390552,
			"-0.018": 0.707284038239,
			"-0.017": 0.7485146259,
			"-0.016": 0.937551055986,
			"-0.015": 0.796293075069,
			"-0.014": 0.699381744991,
			"-0.013": 0.304805510565,
			"-0.012": 0.704920941343,
			"-0.011": 1.03861470304,
			"-0.01": 0.609123620435,
			"-0.009": 1.12495975215,
			"-0.008": 0.274802452435,
			"-0.007": 2.07950581299,
			"-0.006": 8.11552780761,
			"-0.005": 19.9419863901,
			"-0.004": 22.46716589,
			"-0.003": 25.5556207958,
			"-0.002": 19.7044804927,
			"-0.001": 15.1551177316,
			"0.0": 12.2118494231,
			"0.001": 10.1600661278,
			"0.002": 10.862009345,
			"0.003": 10.6587636528,
			"0.004": 12.7629730757,
			"0.005": 13.1608430408,
			"0.006": 10.9963712038,
			"0.007": 5.7932980694,
			"0.008": 4.82759438348,
			"0.009": 4.2956879103,
			"0.01": 3.91126845024,
			"0.011": 3.7171162464,
			"0.012": 3.27379324102,
			"0.013": 0.14174521399,
			"0.014": 0.0,
			"0.015": 0.0,
			"0.016": 0.0,
			"0.017": 0.0,
			"0.018": 0.0,
			"0.019": 0.0,
			"0.02": 0.0,
			"0.021": 0.0,
			"0.022": 0.0,
			"0.023": 0.0,
			"0.024": 0.0,
			"0.025": 0.0
		}
	}
}
