{
	 "smiles": "OC(=O)COC1=C(OCC2=CC=C(F)C=C2)C=CC=C1", 
	 "Tm": 382.15, 
	 "num_atms": 33, 
	 "gaussian": { 
		 "optdone": 1, 
		 "sigma_profile": "yes", 
		 "theory": "DFT", 
		 "functional": "B3LYP", 
		 "basiset": "6-31G**", 
		 "properties": { 
			 "R2extent": 6982.6225, 
			 "electric_dipole_moment_norm": 4.97000514688, 
			 "electric_quadrupole_moment_norm": 35.2393978818, 
			 "total_energy": -980.144248457, 
			 "HOMO_LUMO_gap": 0.21511, 
			 "cosmo_polarized_energy": -15.37, 
			 "cosmo_cavitation_energy": 38.32, 
			 "cosmo_dispersion_energy": -25.93, 
			 "cosmo_repulsion_energy": 1.98, 
			 "cosmo_total_nonelectrostatic_energy": 14.36, 
			 "SMD_solvation_energy": 8.37 
		},
		"coords": [
			{
				"x": 0.9775761296,
				"y": 3.2873511201,
				"z": -1.2358133722,
				"element": "O" 
			},
			{
				"x": 0.1771260738,
				"y": 4.0940821474,
				"z": -0.5336480498,
				"element": "C" 
			},
			{
				"x": 0.1987356414,
				"y": 5.2972412932,
				"z": -0.6484661069,
				"element": "O" 
			},
			{
				"x": -0.814168397,
				"y": 3.446299147,
				"z": 0.4448719477,
				"element": "C" 
			},
			{
				"x": -0.8093006778,
				"y": 2.0178994811,
				"z": 0.4266555774,
				"element": "O" 
			},
			{
				"x": 0.0109861898,
				"y": 1.3639088342,
				"z": 1.3234457878,
				"element": "C" 
			},
			{
				"x": 1.0170747852,
				"y": 0.5413382559,
				"z": 0.7917776606,
				"element": "C" 
			},
			{
				"x": 1.2142320702,
				"y": 0.536578682,
				"z": -0.5806013384,
				"element": "O" 
			},
			{
				"x": 0.325239881,
				"y": -0.3326735568,
				"z": -1.3413624567,
				"element": "C" 
			},
			{
				"x": 0.6618515655,
				"y": -1.7927164805,
				"z": -1.1817947667,
				"element": "C" 
			},
			{
				"x": -0.2226835856,
				"y": -2.6701641837,
				"z": -0.5445922057,
				"element": "C" 
			},
			{
				"x": 0.0868916958,
				"y": -4.0231991028,
				"z": -0.3966161311,
				"element": "C" 
			},
			{
				"x": 1.3017653139,
				"y": -4.4829419644,
				"z": -0.8888891997,
				"element": "C" 
			},
			{
				"x": 1.6130970786,
				"y": -5.7870599193,
				"z": -0.7502883574,
				"element": "F" 
			},
			{
				"x": 2.2095433674,
				"y": -3.638480045,
				"z": -1.5231711608,
				"element": "C" 
			},
			{
				"x": 1.8794963355,
				"y": -2.2935177456,
				"z": -1.6674344537,
				"element": "C" 
			},
			{
				"x": 1.8464956435,
				"y": -0.1892184973,
				"z": 1.6398071195,
				"element": "C" 
			},
			{
				"x": 1.6783129984,
				"y": -0.0947809416,
				"z": 3.0229013727,
				"element": "C" 
			},
			{
				"x": 0.6777836134,
				"y": 0.7221701549,
				"z": 3.5526304683,
				"element": "C" 
			},
			{
				"x": -0.1603793918,
				"y": 1.4501139675,
				"z": 2.7054289742,
				"element": "C" 
			},
			{
				"x": 0.8637297444,
				"y": 2.3406440016,
				"z": -1.0021151288,
				"element": "H" 
			},
			{
				"x": -0.6055320577,
				"y": 3.8393031838,
				"z": 1.4451408012,
				"element": "H" 
			},
			{
				"x": -1.8172396702,
				"y": 3.7700321762,
				"z": 0.1560766512,
				"element": "H" 
			},
			{
				"x": -0.7108449793,
				"y": -0.1291461511,
				"z": -1.0534031591,
				"element": "H" 
			},
			{
				"x": 0.4690242553,
				"y": -0.0052763796,
				"z": -2.3746899791,
				"element": "H" 
			},
			{
				"x": -1.1671516679,
				"y": -2.2951317463,
				"z": -0.1597684392,
				"element": "H" 
			},
			{
				"x": -0.5907853009,
				"y": -4.7144861268,
				"z": 0.0921961266,
				"element": "H" 
			},
			{
				"x": 3.1452446233,
				"y": -4.0412771098,
				"z": -1.8954270161,
				"element": "H" 
			},
			{
				"x": 2.5763592029,
				"y": -1.6208825756,
				"z": -2.1599646045,
				"element": "H" 
			},
			{
				"x": 2.6221442817,
				"y": -0.8092631131,
				"z": 1.2040397161,
				"element": "H" 
			},
			{
				"x": 2.3283277094,
				"y": -0.6594804239,
				"z": 3.6837908805,
				"element": "H" 
			},
			{
				"x": 0.5432112707,
				"y": 0.7918107346,
				"z": 4.6276643024,
				"element": "H" 
			},
			{
				"x": -0.9513637427,
				"y": 2.0755228834,
				"z": 3.1080185397,
				"element": "H" 
			}
		],
		 "valence_orbital": [ 
			{
				"type": "occ",
				"energy": -0.27323,
				"method": "rhf"
			},
			{
				"type": "occ",
				"energy": -0.26939,
				"method": "rhf"
			},
			{
				"type": "occ",
				"energy": -0.26161,
				"method": "rhf"
			},
			{
				"type": "occ",
				"energy": -0.25585,
				"method": "rhf"
			},
			{
				"type": "occ",
				"energy": -0.24099,
				"method": "rhf"
			},
			{
				"type": "unocc",
				"energy": -0.02588,
				"method": "rhf"
			},
			{
				"type": "unocc",
				"energy": -0.02331,
				"method": "rhf"
			},
			{
				"type": "unocc",
				"energy": -0.01645,
				"method": "rhf"
			},
			{
				"type": "unocc",
				"energy": -0.01225,
				"method": "rhf"
			},
			{
				"type": "unocc",
				"energy": 0.01971,
				"method": "rhf"
			}
		],
		"cosmo_sigma_profile": { 
			"-0.025": 0.0,
			"-0.024": 0.0,
			"-0.023": 0.0,
			"-0.022": 0.0,
			"-0.021": 0.0,
			"-0.02": 0.0,
			"-0.019": 0.0,
			"-0.018": 0.0,
			"-0.017": 0.0,
			"-0.016": 0.0,
			"-0.015": 0.0,
			"-0.014": 0.0,
			"-0.013": 0.0,
			"-0.012": 0.0,
			"-0.011": 0.0,
			"-0.01": 0.0,
			"-0.009": 0.529679066627,
			"-0.008": 5.6373473282,
			"-0.007": 15.6725497975,
			"-0.006": 25.1352188458,
			"-0.005": 26.8905334016,
			"-0.004": 23.1273360713,
			"-0.003": 16.8807404195,
			"-0.002": 15.8571971377,
			"-0.001": 15.7795011052,
			"0.0": 19.1067301609,
			"0.001": 22.1218744006,
			"0.002": 21.7054792838,
			"0.003": 26.16185444,
			"0.004": 28.0740243399,
			"0.005": 10.3906846557,
			"0.006": 3.62290101496,
			"0.007": 4.21813627179,
			"0.008": 3.49797555887,
			"0.009": 3.71854433812,
			"0.01": 4.46804233122,
			"0.011": 5.13434170963,
			"0.012": 5.99367486387,
			"0.013": 2.71370431031,
			"0.014": 0.262393276905,
			"0.015": 0.0,
			"0.016": 0.0,
			"0.017": 0.0,
			"0.018": 0.0,
			"0.019": 0.0,
			"0.02": 0.0,
			"0.021": 0.0,
			"0.022": 0.0,
			"0.023": 0.0,
			"0.024": 0.0,
			"0.025": 0.0
		}
	}
}
