{
	 "smiles": "O=C(NC1=CC=CC=C1)OC1CC(OC(=O)NC2=CC=CC=C2)C=CC=C1", 
	 "Tm": 454.15, 
	 "num_atms": 47, 
	 "gaussian": { 
		 "optdone": 1, 
		 "sigma_profile": "yes", 
		 "theory": "DFT", 
		 "functional": "B3LYP", 
		 "basiset": "6-31G**", 
		 "properties": { 
			 "R2extent": 14358.2039, 
			 "electric_dipole_moment_norm": 2.6688237484, 
			 "electric_quadrupole_moment_norm": 13.7964601848, 
			 "total_energy": -1222.68856363, 
			 "HOMO_LUMO_gap": 0.1803, 
			 "cosmo_polarized_energy": -20.86, 
			 "cosmo_cavitation_energy": 51.21, 
			 "cosmo_dispersion_energy": -35.63, 
			 "cosmo_repulsion_energy": 2.69, 
			 "cosmo_total_nonelectrostatic_energy": 18.27, 
			 "SMD_solvation_energy": 9.98 
		},
		"coords": [
			{
				"x": 0.8995093083,
				"y": 1.556846041,
				"z": 2.0915519101,
				"element": "O" 
			},
			{
				"x": 0.7430037235,
				"y": 2.246888698,
				"z": 1.0999834824,
				"element": "C" 
			},
			{
				"x": 1.668823298,
				"y": 3.1986480526,
				"z": 0.7332957361,
				"element": "N" 
			},
			{
				"x": 1.7392267262,
				"y": 4.1589275707,
				"z": -0.2985683083,
				"element": "C" 
			},
			{
				"x": 2.7807009963,
				"y": 5.0987290644,
				"z": -0.2050669447,
				"element": "C" 
			},
			{
				"x": 2.9457403887,
				"y": 6.0770160866,
				"z": -1.180572964,
				"element": "C" 
			},
			{
				"x": 2.0741009705,
				"y": 6.1418051139,
				"z": -2.2692500241,
				"element": "C" 
			},
			{
				"x": 1.0420638736,
				"y": 5.2085869421,
				"z": -2.3636325917,
				"element": "C" 
			},
			{
				"x": 0.8669956318,
				"y": 4.2184701543,
				"z": -1.3959363283,
				"element": "C" 
			},
			{
				"x": -0.3056439691,
				"y": 2.179790007,
				"z": 0.2511390536,
				"element": "O" 
			},
			{
				"x": -1.4413864124,
				"y": 1.3054032364,
				"z": 0.5728919767,
				"element": "C" 
			},
			{
				"x": -1.17759765,
				"y": -0.159708952,
				"z": 0.2121295353,
				"element": "C" 
			},
			{
				"x": -0.47417975,
				"y": -1.0546989296,
				"z": 1.2407704611,
				"element": "C" 
			},
			{
				"x": -0.1443510971,
				"y": -2.2648749577,
				"z": 0.4917764525,
				"element": "O" 
			},
			{
				"x": 0.9252325866,
				"y": -2.9631764834,
				"z": 0.9338837814,
				"element": "C" 
			},
			{
				"x": 1.5921346588,
				"y": -2.6734999545,
				"z": 1.9101126185,
				"element": "O" 
			},
			{
				"x": 1.2087789392,
				"y": -4.0692214234,
				"z": 0.1610345027,
				"element": "N" 
			},
			{
				"x": 0.6491104123,
				"y": -4.6080811755,
				"z": -1.0165244109,
				"element": "C" 
			},
			{
				"x": -0.6069190922,
				"y": -4.2546220053,
				"z": -1.5326933668,
				"element": "C" 
			},
			{
				"x": -1.0730206029,
				"y": -4.8688060743,
				"z": -2.6956275212,
				"element": "C" 
			},
			{
				"x": -0.3194907545,
				"y": -5.8392441938,
				"z": -3.3559146748,
				"element": "C" 
			},
			{
				"x": 0.9257224979,
				"y": -6.1971269866,
				"z": -2.8358956289,
				"element": "C" 
			},
			{
				"x": 1.4069702032,
				"y": -5.5879821623,
				"z": -1.6809475036,
				"element": "C" 
			},
			{
				"x": -1.3389665198,
				"y": -1.4302888242,
				"z": 2.4099300233,
				"element": "C" 
			},
			{
				"x": -2.1506811176,
				"y": -0.6091287922,
				"z": 3.0975710193,
				"element": "C" 
			},
			{
				"x": -2.3781997731,
				"y": 0.8232570652,
				"z": 2.917181152,
				"element": "C" 
			},
			{
				"x": -2.0362897651,
				"y": 1.6429127528,
				"z": 1.9074369767,
				"element": "C" 
			},
			{
				"x": 2.4285681749,
				"y": 3.2176971108,
				"z": 1.3994429215,
				"element": "H" 
			},
			{
				"x": 3.4616097748,
				"y": 5.0593173385,
				"z": 0.6421534344,
				"element": "H" 
			},
			{
				"x": 3.7582929477,
				"y": 6.7914912113,
				"z": -1.0850753,
				"element": "H" 
			},
			{
				"x": 2.1991427263,
				"y": 6.9052003315,
				"z": -3.0307383484,
				"element": "H" 
			},
			{
				"x": 0.3574086498,
				"y": 5.2412622151,
				"z": -3.2066552984,
				"element": "H" 
			},
			{
				"x": 0.0668628667,
				"y": 3.499512159,
				"z": -1.4905310985,
				"element": "H" 
			},
			{
				"x": -2.1564237905,
				"y": 1.6580967926,
				"z": -0.1808723031,
				"element": "H" 
			},
			{
				"x": -0.5896404746,
				"y": -0.1674048321,
				"z": -0.7109141276,
				"element": "H" 
			},
			{
				"x": -2.1477302435,
				"y": -0.6118594435,
				"z": -0.0262968212,
				"element": "H" 
			},
			{
				"x": 0.4549521005,
				"y": -0.6012617972,
				"z": 1.5909603345,
				"element": "H" 
			},
			{
				"x": 2.0418765969,
				"y": -4.5287203718,
				"z": 0.5009320866,
				"element": "H" 
			},
			{
				"x": -1.2079951916,
				"y": -3.5120477312,
				"z": -1.0289701889,
				"element": "H" 
			},
			{
				"x": -2.047078572,
				"y": -4.5828671762,
				"z": -3.0830047865,
				"element": "H" 
			},
			{
				"x": -0.6958165496,
				"y": -6.3104015397,
				"z": -4.2585434674,
				"element": "H" 
			},
			{
				"x": 1.5306264841,
				"y": -6.9513273043,
				"z": -3.3310851624,
				"element": "H" 
			},
			{
				"x": 2.3815038177,
				"y": -5.8675618828,
				"z": -1.2871644258,
				"element": "H" 
			},
			{
				"x": -1.2599515001,
				"y": -2.4662507894,
				"z": 2.7283885188,
				"element": "H" 
			},
			{
				"x": -2.6784256463,
				"y": -1.0435690796,
				"z": 3.9441423344,
				"element": "H" 
			},
			{
				"x": -2.896549953,
				"y": 1.2944102168,
				"z": 3.750909899,
				"element": "H" 
			},
			{
				"x": -2.2783199292,
				"y": 2.6992647019,
				"z": 2.0101633844,
				"element": "H" 
			}
		],
		 "valence_orbital": [ 
			{
				"type": "occ",
				"energy": -0.2531,
				"method": "rhf"
			},
			{
				"type": "occ",
				"energy": -0.25128,
				"method": "rhf"
			},
			{
				"type": "occ",
				"energy": -0.22615,
				"method": "rhf"
			},
			{
				"type": "occ",
				"energy": -0.21888,
				"method": "rhf"
			},
			{
				"type": "occ",
				"energy": -0.21673,
				"method": "rhf"
			},
			{
				"type": "unocc",
				"energy": -0.03643,
				"method": "rhf"
			},
			{
				"type": "unocc",
				"energy": -0.00513,
				"method": "rhf"
			},
			{
				"type": "unocc",
				"energy": -0.00332,
				"method": "rhf"
			},
			{
				"type": "unocc",
				"energy": -0.00231,
				"method": "rhf"
			},
			{
				"type": "unocc",
				"energy": -0.00157,
				"method": "rhf"
			}
		],
		"cosmo_sigma_profile": { 
			"-0.025": 0.0,
			"-0.024": 0.0,
			"-0.023": 0.0,
			"-0.022": 0.0,
			"-0.021": 0.0,
			"-0.02": 0.0,
			"-0.019": 0.0,
			"-0.018": 0.0,
			"-0.017": 0.0,
			"-0.016": 0.0,
			"-0.015": 0.903059454646,
			"-0.014": 2.02549172848,
			"-0.013": 2.55054257688,
			"-0.012": 2.13581255195,
			"-0.011": 2.38305262625,
			"-0.01": 2.27672690664,
			"-0.009": 1.86850222299,
			"-0.008": 2.2643770478,
			"-0.007": 6.36174300694,
			"-0.006": 17.1786493981,
			"-0.005": 35.0703127565,
			"-0.004": 36.2742885093,
			"-0.003": 32.8991215743,
			"-0.002": 27.5018568048,
			"-0.001": 28.0822894783,
			"0.0": 25.5780797015,
			"0.001": 27.389058255,
			"0.002": 27.7761436728,
			"0.003": 25.2000475089,
			"0.004": 27.8746186642,
			"0.005": 25.5354867666,
			"0.006": 17.9882322641,
			"0.007": 4.29633698347,
			"0.008": 2.69271901216,
			"0.009": 3.41345668179,
			"0.01": 4.103447404,
			"0.011": 3.61209433491,
			"0.012": 7.28114343399,
			"0.013": 5.81930278017,
			"0.014": 0.0843534988156,
			"0.015": 0.0,
			"0.016": 0.0,
			"0.017": 0.0,
			"0.018": 0.0,
			"0.019": 0.0,
			"0.02": 0.0,
			"0.021": 0.0,
			"0.022": 0.0,
			"0.023": 0.0,
			"0.024": 0.0,
			"0.025": 0.0
		}
	}
}
