{
	 "smiles": "OC(=O)C1=C(C=CC=C1)C1=C(C=CC=C1)C#N", 
	 "Tm": 442.15, 
	 "num_atms": 26, 
	 "gaussian": { 
		 "optdone": 1, 
		 "sigma_profile": "yes", 
		 "theory": "DFT", 
		 "functional": "B3LYP", 
		 "basiset": "6-31G**", 
		 "properties": { 
			 "R2extent": 3692.2258, 
			 "electric_dipole_moment_norm": 5.25309192952, 
			 "electric_quadrupole_moment_norm": 18.5762364692, 
			 "total_energy": -744.113054989, 
			 "HOMO_LUMO_gap": 0.19711, 
			 "cosmo_polarized_energy": -16.01, 
			 "cosmo_cavitation_energy": 31.85, 
			 "cosmo_dispersion_energy": -21.59, 
			 "cosmo_repulsion_energy": 1.69, 
			 "cosmo_total_nonelectrostatic_energy": 11.94, 
			 "SMD_solvation_energy": 7.76 
		},
		"coords": [
			{
				"x": 2.1102565863,
				"y": -1.5570198977,
				"z": 0.0277563433,
				"element": "O" 
			},
			{
				"x": 2.6800253489,
				"y": -0.5354837309,
				"z": 0.7066002328,
				"element": "C" 
			},
			{
				"x": 3.6563938214,
				"y": -0.7051022393,
				"z": 1.4099937496,
				"element": "O" 
			},
			{
				"x": 2.0355632638,
				"y": 0.7959634671,
				"z": 0.4848682374,
				"element": "C" 
			},
			{
				"x": 0.8317143332,
				"y": 1.0271403628,
				"z": -0.2221936922,
				"element": "C" 
			},
			{
				"x": 0.4052778202,
				"y": 2.3544369264,
				"z": -0.3886886775,
				"element": "C" 
			},
			{
				"x": 1.1256848188,
				"y": 3.4263636329,
				"z": 0.1348860803,
				"element": "C" 
			},
			{
				"x": 2.3013684522,
				"y": 3.1902957885,
				"z": 0.8469485873,
				"element": "C" 
			},
			{
				"x": 2.7462272438,
				"y": 1.8840792847,
				"z": 1.0147325493,
				"element": "C" 
			},
			{
				"x": -0.0475948002,
				"y": -0.0292969231,
				"z": -0.8124784265,
				"element": "C" 
			},
			{
				"x": -0.8281541825,
				"y": -0.8946877727,
				"z": -0.0125911809,
				"element": "C" 
			},
			{
				"x": -1.7016423476,
				"y": -1.8208360902,
				"z": -0.6045683982,
				"element": "C" 
			},
			{
				"x": -1.810529822,
				"y": -1.8952730346,
				"z": -1.9903187581,
				"element": "C" 
			},
			{
				"x": -1.0503620905,
				"y": -1.0400760833,
				"z": -2.7887943217,
				"element": "C" 
			},
			{
				"x": -0.1850640686,
				"y": -0.1155550123,
				"z": -2.2020038329,
				"element": "C" 
			},
			{
				"x": -0.7473795437,
				"y": -0.8441042456,
				"z": 1.4189149234,
				"element": "C" 
			},
			{
				"x": -0.7030278728,
				"y": -0.8236877419,
				"z": 2.5812292759,
				"element": "N" 
			},
			{
				"x": 2.6221122155,
				"y": -2.3467424048,
				"z": 0.2709549114,
				"element": "H" 
			},
			{
				"x": -0.5204131029,
				"y": 2.5382783932,
				"z": -0.9254563545,
				"element": "H" 
			},
			{
				"x": 0.7631013972,
				"y": 4.4400681852,
				"z": -0.0085404047,
				"element": "H" 
			},
			{
				"x": 2.8682500434,
				"y": 4.0161095756,
				"z": 1.2654786395,
				"element": "H" 
			},
			{
				"x": 3.6612010664,
				"y": 1.6694513045,
				"z": 1.5552512535,
				"element": "H" 
			},
			{
				"x": -2.2909776791,
				"y": -2.4716624954,
				"z": 0.0328116295,
				"element": "H" 
			},
			{
				"x": -2.4871724064,
				"y": -2.6137464853,
				"z": -2.4421389471,
				"element": "H" 
			},
			{
				"x": -1.1300558843,
				"y": -1.0898362347,
				"z": -3.8707165536,
				"element": "H" 
			},
			{
				"x": 0.4054973895,
				"y": 0.5470234709,
				"z": -2.8271368654,
				"element": "H" 
			}
		],
		 "valence_orbital": [ 
			{
				"type": "occ",
				"energy": -0.28045,
				"method": "rhf"
			},
			{
				"type": "occ",
				"energy": -0.27707,
				"method": "rhf"
			},
			{
				"type": "occ",
				"energy": -0.26736,
				"method": "rhf"
			},
			{
				"type": "occ",
				"energy": -0.26549,
				"method": "rhf"
			},
			{
				"type": "occ",
				"energy": -0.25466,
				"method": "rhf"
			},
			{
				"type": "unocc",
				"energy": -0.05755,
				"method": "rhf"
			},
			{
				"type": "unocc",
				"energy": -0.04981,
				"method": "rhf"
			},
			{
				"type": "unocc",
				"energy": -0.02428,
				"method": "rhf"
			},
			{
				"type": "unocc",
				"energy": -0.01259,
				"method": "rhf"
			},
			{
				"type": "unocc",
				"energy": 0.04095,
				"method": "rhf"
			}
		],
		"cosmo_sigma_profile": { 
			"-0.025": 0.0,
			"-0.024": 0.0,
			"-0.023": 0.0,
			"-0.022": 0.0,
			"-0.021": 0.0,
			"-0.02": 0.0,
			"-0.019": 0.0777274481403,
			"-0.018": 0.750540901613,
			"-0.017": 0.826566962613,
			"-0.016": 0.663475217052,
			"-0.015": 1.26920107717,
			"-0.014": 0.599213909165,
			"-0.013": 0.538960194239,
			"-0.012": 0.657728772562,
			"-0.011": 1.01748169118,
			"-0.01": 0.419315155201,
			"-0.009": 0.383476055779,
			"-0.008": 1.77001545249,
			"-0.007": 12.3993205668,
			"-0.006": 17.8663500768,
			"-0.005": 20.0922125531,
			"-0.004": 14.8871444779,
			"-0.003": 14.8519691275,
			"-0.002": 15.757299537,
			"-0.001": 14.6272358674,
			"0.0": 18.7862724195,
			"0.001": 19.7408758718,
			"0.002": 22.0499543382,
			"0.003": 22.7512792881,
			"0.004": 9.54829641902,
			"0.005": 5.552865506,
			"0.006": 4.48690856523,
			"0.007": 6.38971161921,
			"0.008": 4.60557873036,
			"0.009": 4.92268431866,
			"0.01": 4.43089073959,
			"0.011": 7.28909908322,
			"0.012": 5.25050330587,
			"0.013": 1.61226091983,
			"0.014": 0.0254593868198,
			"0.015": 0.0,
			"0.016": 0.0,
			"0.017": 0.0,
			"0.018": 0.0,
			"0.019": 0.0,
			"0.02": 0.0,
			"0.021": 0.0,
			"0.022": 0.0,
			"0.023": 0.0,
			"0.024": 0.0,
			"0.025": 0.0
		}
	}
}
