{
	 "smiles": "CC(=O)C1=C(O)C=CC(=C1)C(O)=O", 
	 "Tm": 513.15, 
	 "num_atms": 21, 
	 "gaussian": { 
		 "optdone": 1, 
		 "sigma_profile": "yes", 
		 "theory": "DFT", 
		 "functional": "B3LYP", 
		 "basiset": "6-31G**", 
		 "properties": { 
			 "R2extent": 3495.7181, 
			 "electric_dipole_moment_norm": 5.99020781693, 
			 "electric_quadrupole_moment_norm": 13.2222918717, 
			 "total_energy": -648.682352321, 
			 "HOMO_LUMO_gap": 0.18726, 
			 "cosmo_polarized_energy": -20.7, 
			 "cosmo_cavitation_energy": 25.82, 
			 "cosmo_dispersion_energy": -19.06, 
			 "cosmo_repulsion_energy": 1.5, 
			 "cosmo_total_nonelectrostatic_energy": 8.26, 
			 "SMD_solvation_energy": 6.72 
		},
		"coords": [
			{
				"x": -0.1525248826,
				"y": -1.8295425218,
				"z": -3.615838299,
				"element": "C" 
			},
			{
				"x": -1.1407089685,
				"y": -1.8535664498,
				"z": -2.4707500938,
				"element": "C" 
			},
			{
				"x": -2.2253745066,
				"y": -2.4032014628,
				"z": -2.6065929928,
				"element": "O" 
			},
			{
				"x": -0.8145008332,
				"y": -1.2066695601,
				"z": -1.1478939243,
				"element": "C" 
			},
			{
				"x": 0.3766911888,
				"y": -0.5232875599,
				"z": -0.822623782,
				"element": "C" 
			},
			{
				"x": 1.3534096309,
				"y": -0.3986538654,
				"z": -1.7592253517,
				"element": "O" 
			},
			{
				"x": 0.5492158865,
				"y": 0.0207160216,
				"z": 0.461460536,
				"element": "C" 
			},
			{
				"x": -0.4417549752,
				"y": -0.1010649184,
				"z": 1.4196892726,
				"element": "C" 
			},
			{
				"x": -1.6449527356,
				"y": -0.7615315743,
				"z": 1.1177135787,
				"element": "C" 
			},
			{
				"x": -1.8000812046,
				"y": -1.3072911271,
				"z": -0.1542418741,
				"element": "C" 
			},
			{
				"x": -2.6685899563,
				"y": -0.8606232727,
				"z": 2.206406166,
				"element": "C" 
			},
			{
				"x": -3.9109950528,
				"y": -1.2813851035,
				"z": 1.8596247105,
				"element": "O" 
			},
			{
				"x": -2.4273450281,
				"y": -0.5807287646,
				"z": 3.3587791119,
				"element": "O" 
			},
			{
				"x": 0.0893365585,
				"y": -0.8015536603,
				"z": -3.9016904172,
				"element": "H" 
			},
			{
				"x": -0.596053978,
				"y": -2.3609708312,
				"z": -4.4585264538,
				"element": "H" 
			},
			{
				"x": 0.7929382646,
				"y": -2.2981111632,
				"z": -3.3270917282,
				"element": "H" 
			},
			{
				"x": 2.0983727351,
				"y": 0.08703583,
				"z": -1.3799305701,
				"element": "H" 
			},
			{
				"x": 1.4757786608,
				"y": 0.5398576829,
				"z": 0.6982029372,
				"element": "H" 
			},
			{
				"x": -0.3115498392,
				"y": 0.307583359,
				"z": 2.4158220196,
				"element": "H" 
			},
			{
				"x": -2.6847442572,
				"y": -1.8657577619,
				"z": -0.4499223435,
				"element": "H" 
			},
			{
				"x": -3.9920667075,
				"y": -1.3635532966,
				"z": 0.8995294981,
				"element": "H" 
			}
		],
		 "valence_orbital": [ 
			{
				"type": "occ",
				"energy": -0.31385,
				"method": "rhf"
			},
			{
				"type": "occ",
				"energy": -0.28082,
				"method": "rhf"
			},
			{
				"type": "occ",
				"energy": -0.27531,
				"method": "rhf"
			},
			{
				"type": "occ",
				"energy": -0.25977,
				"method": "rhf"
			},
			{
				"type": "occ",
				"energy": -0.25519,
				"method": "rhf"
			},
			{
				"type": "unocc",
				"energy": -0.06793,
				"method": "rhf"
			},
			{
				"type": "unocc",
				"energy": -0.04863,
				"method": "rhf"
			},
			{
				"type": "unocc",
				"energy": 0.01102,
				"method": "rhf"
			},
			{
				"type": "unocc",
				"energy": 0.04017,
				"method": "rhf"
			},
			{
				"type": "unocc",
				"energy": 0.05825,
				"method": "rhf"
			}
		],
		"cosmo_sigma_profile": { 
			"-0.025": 0.0,
			"-0.024": 0.0,
			"-0.023": 0.0,
			"-0.022": 0.0,
			"-0.021": 0.0,
			"-0.02": 0.0,
			"-0.019": 1.04311685054,
			"-0.018": 2.21183588456,
			"-0.017": 1.94160605104,
			"-0.016": 2.29141330445,
			"-0.015": 2.33965133889,
			"-0.014": 1.702219611,
			"-0.013": 1.81912013895,
			"-0.012": 2.12006722929,
			"-0.011": 1.89486439238,
			"-0.01": 1.90407469701,
			"-0.009": 1.56271152828,
			"-0.008": 3.10319703239,
			"-0.007": 4.17807433919,
			"-0.006": 5.21504015918,
			"-0.005": 9.18778308457,
			"-0.004": 11.8591733352,
			"-0.003": 10.854074586,
			"-0.002": 12.805337703,
			"-0.001": 18.393093959,
			"0.0": 16.5730853274,
			"0.001": 17.0087145114,
			"0.002": 14.2493184312,
			"0.003": 6.43643649572,
			"0.004": 6.17857649155,
			"0.005": 6.32463932932,
			"0.006": 4.27885824203,
			"0.007": 3.75493900359,
			"0.008": 3.83112092863,
			"0.009": 4.86952257954,
			"0.01": 6.52439122174,
			"0.011": 7.92154066698,
			"0.012": 8.38514980543,
			"0.013": 3.14785458417,
			"0.014": 0.261176366444,
			"0.015": 0.0,
			"0.016": 0.0,
			"0.017": 0.0,
			"0.018": 0.0,
			"0.019": 0.0,
			"0.02": 0.0,
			"0.021": 0.0,
			"0.022": 0.0,
			"0.023": 0.0,
			"0.024": 0.0,
			"0.025": 0.0
		}
	}
}
