{
	 "smiles": "OC(=O)COC1=CC=C(C=C1)C(=O)C1=CC=C(Cl)C=C1", 
	 "Tm": 459.15, 
	 "num_atms": 31, 
	 "gaussian": { 
		 "optdone": 1, 
		 "sigma_profile": "yes", 
		 "theory": "DFT", 
		 "functional": "B3LYP", 
		 "basiset": "6-31G**", 
		 "properties": { 
			 "R2extent": 10903.229, 
			 "electric_dipole_moment_norm": 3.21586506247, 
			 "electric_quadrupole_moment_norm": 11.9333293142, 
			 "total_energy": -1339.31483053, 
			 "HOMO_LUMO_gap": 0.17012, 
			 "cosmo_polarized_energy": -17.18, 
			 "cosmo_cavitation_energy": 38.67, 
			 "cosmo_dispersion_energy": -27.75, 
			 "cosmo_repulsion_energy": 2.14, 
			 "cosmo_total_nonelectrostatic_energy": 13.06, 
			 "SMD_solvation_energy": 8.14 
		},
		"coords": [
			{
				"x": 1.6583094028,
				"y": 3.5830354994,
				"z": 1.8241953015,
				"element": "O" 
			},
			{
				"x": 2.5085032696,
				"y": 2.9790600713,
				"z": 2.6733091869,
				"element": "C" 
			},
			{
				"x": 3.6454439562,
				"y": 3.3428148683,
				"z": 2.8714542622,
				"element": "O" 
			},
			{
				"x": 1.8754889794,
				"y": 1.8051584808,
				"z": 3.4161060791,
				"element": "C" 
			},
			{
				"x": 0.7314500433,
				"y": 1.2439154455,
				"z": 2.8066653444,
				"element": "O" 
			},
			{
				"x": 0.8888674127,
				"y": 0.469033913,
				"z": 1.6925301186,
				"element": "C" 
			},
			{
				"x": -0.2886889552,
				"y": -0.0991400405,
				"z": 1.1865838897,
				"element": "C" 
			},
			{
				"x": -0.2428130926,
				"y": -0.9009979222,
				"z": 0.0547242932,
				"element": "C" 
			},
			{
				"x": 0.9782394173,
				"y": -1.1640944856,
				"z": -0.5936044817,
				"element": "C" 
			},
			{
				"x": 2.1490930607,
				"y": -0.6085683054,
				"z": -0.0577187168,
				"element": "C" 
			},
			{
				"x": 2.1166812074,
				"y": 0.2126710243,
				"z": 1.0649690921,
				"element": "C" 
			},
			{
				"x": 1.1145277037,
				"y": -2.0720656367,
				"z": -1.77195769,
				"element": "C" 
			},
			{
				"x": 2.1781128202,
				"y": -2.6456147649,
				"z": -1.9888435707,
				"element": "O" 
			},
			{
				"x": -0.041009169,
				"y": -2.2943613097,
				"z": -2.7060255956,
				"element": "C" 
			},
			{
				"x": -1.0122197568,
				"y": -1.3192374633,
				"z": -2.9777955784,
				"element": "C" 
			},
			{
				"x": -2.0210979163,
				"y": -1.5567373644,
				"z": -3.911007789,
				"element": "C" 
			},
			{
				"x": -2.0615400723,
				"y": -2.7859675038,
				"z": -4.5676853813,
				"element": "C" 
			},
			{
				"x": -3.3382038259,
				"y": -3.0991631137,
				"z": -5.7309042214,
				"element": "Cl" 
			},
			{
				"x": -1.1006770748,
				"y": -3.7701273588,
				"z": -4.3231726186,
				"element": "C" 
			},
			{
				"x": -0.0896867838,
				"y": -3.5112418025,
				"z": -3.4043163527,
				"element": "C" 
			},
			{
				"x": 2.1508693226,
				"y": 4.3180247143,
				"z": 1.4203242145,
				"element": "H" 
			},
			{
				"x": 1.5369139921,
				"y": 2.1814804693,
				"z": 4.3867126037,
				"element": "H" 
			},
			{
				"x": 2.6598166074,
				"y": 1.0633714485,
				"z": 3.6004605768,
				"element": "H" 
			},
			{
				"x": -1.2223932254,
				"y": 0.0976533253,
				"z": 1.7024598234,
				"element": "H" 
			},
			{
				"x": -1.1601543395,
				"y": -1.3508033991,
				"z": -0.3094215821,
				"element": "H" 
			},
			{
				"x": 3.0931187492,
				"y": -0.8337511761,
				"z": -0.542564932,
				"element": "H" 
			},
			{
				"x": 3.0414478947,
				"y": 0.6398022246,
				"z": 1.4357231161,
				"element": "H" 
			},
			{
				"x": -0.9699769598,
				"y": -0.3558682839,
				"z": -2.481156198,
				"element": "H" 
			},
			{
				"x": -2.7640113139,
				"y": -0.7981024545,
				"z": -4.1305789384,
				"element": "H" 
			},
			{
				"x": -1.1458996562,
				"y": -4.7162433511,
				"z": -4.8510298693,
				"element": "H" 
			},
			{
				"x": 0.6835883021,
				"y": -4.2478357486,
				"z": -3.213834386,
				"element": "H" 
			}
		],
		 "valence_orbital": [ 
			{
				"type": "occ",
				"energy": -0.27235,
				"method": "rhf"
			},
			{
				"type": "occ",
				"energy": -0.26847,
				"method": "rhf"
			},
			{
				"type": "occ",
				"energy": -0.25962,
				"method": "rhf"
			},
			{
				"type": "occ",
				"energy": -0.24897,
				"method": "rhf"
			},
			{
				"type": "occ",
				"energy": -0.2372,
				"method": "rhf"
			},
			{
				"type": "unocc",
				"energy": -0.06708,
				"method": "rhf"
			},
			{
				"type": "unocc",
				"energy": -0.02482,
				"method": "rhf"
			},
			{
				"type": "unocc",
				"energy": -0.01936,
				"method": "rhf"
			},
			{
				"type": "unocc",
				"energy": -0.01594,
				"method": "rhf"
			},
			{
				"type": "unocc",
				"energy": -0.00733,
				"method": "rhf"
			}
		],
		"cosmo_sigma_profile": { 
			"-0.025": 0.0,
			"-0.024": 0.0,
			"-0.023": 0.0,
			"-0.022": 0.0,
			"-0.021": 0.0,
			"-0.02": 0.0,
			"-0.019": 0.448799594379,
			"-0.018": 1.00768560596,
			"-0.017": 1.57016771185,
			"-0.016": 0.0950322564768,
			"-0.015": 0.749981163968,
			"-0.014": 0.624355177888,
			"-0.013": 1.1262684719,
			"-0.012": 0.660250089524,
			"-0.011": 0.779543464176,
			"-0.01": 1.55746254832,
			"-0.009": 3.7106217146,
			"-0.008": 7.60941932495,
			"-0.007": 13.1233272039,
			"-0.006": 18.3915682973,
			"-0.005": 18.9543574445,
			"-0.004": 16.1170700817,
			"-0.003": 16.8258557955,
			"-0.002": 18.0717946284,
			"-0.001": 18.0231142332,
			"0.0": 19.6914925183,
			"0.001": 25.150847636,
			"0.002": 29.9772889498,
			"0.003": 28.9131193034,
			"0.004": 18.976022286,
			"0.005": 7.80728177379,
			"0.006": 5.59023653117,
			"0.007": 5.06014435844,
			"0.008": 6.35378612505,
			"0.009": 5.32873055668,
			"0.01": 5.3855437358,
			"0.011": 7.64065168349,
			"0.012": 6.31696699085,
			"0.013": 0.846551599735,
			"0.014": 0.0,
			"0.015": 0.0,
			"0.016": 0.0,
			"0.017": 0.0,
			"0.018": 0.0,
			"0.019": 0.0,
			"0.02": 0.0,
			"0.021": 0.0,
			"0.022": 0.0,
			"0.023": 0.0,
			"0.024": 0.0,
			"0.025": 0.0
		}
	}
}
