{
	 "smiles": "NC1=NNC=C1C1=CC=CC=C1", 
	 "Tm": 444.65, 
	 "num_atms": 21, 
	 "gaussian": { 
		 "optdone": 1, 
		 "sigma_profile": "yes", 
		 "theory": "DFT", 
		 "functional": "B3LYP", 
		 "basiset": "6-31G**", 
		 "properties": { 
			 "R2extent": 2469.6388, 
			 "electric_dipole_moment_norm": 1.6660213354, 
			 "electric_quadrupole_moment_norm": 12.0244965146, 
			 "total_energy": -512.62074998, 
			 "HOMO_LUMO_gap": 0.18871, 
			 "cosmo_polarized_energy": -13.23, 
			 "cosmo_cavitation_energy": 24.8, 
			 "cosmo_dispersion_energy": -18.65, 
			 "cosmo_repulsion_energy": 1.49, 
			 "cosmo_total_nonelectrostatic_energy": 7.63, 
			 "SMD_solvation_energy": 3.42 
		},
		"coords": [
			{
				"x": 3.0013490869,
				"y": -0.363818539,
				"z": 1.4676005333,
				"element": "N" 
			},
			{
				"x": 2.6842378842,
				"y": 0.272240195,
				"z": 0.2646626971,
				"element": "C" 
			},
			{
				"x": 3.6371038496,
				"y": 0.5559114285,
				"z": -0.6195855882,
				"element": "N" 
			},
			{
				"x": 2.9787129996,
				"y": 1.2006497288,
				"z": -1.6201170969,
				"element": "N" 
			},
			{
				"x": 1.6512819384,
				"y": 1.3138967981,
				"z": -1.3938740195,
				"element": "C" 
			},
			{
				"x": 1.3929192458,
				"y": 0.7212188255,
				"z": -0.1643109982,
				"element": "C" 
			},
			{
				"x": 0.0962998982,
				"y": 0.5948268121,
				"z": 0.5149030787,
				"element": "C" 
			},
			{
				"x": -1.0976442253,
				"y": 0.4973112062,
				"z": -0.2245259372,
				"element": "C" 
			},
			{
				"x": -2.3321506324,
				"y": 0.4000119545,
				"z": 0.4133892674,
				"element": "C" 
			},
			{
				"x": -2.4059423224,
				"y": 0.3831048967,
				"z": 1.8084039616,
				"element": "C" 
			},
			{
				"x": -1.2304554964,
				"y": 0.4717392009,
				"z": 2.5556751534,
				"element": "C" 
			},
			{
				"x": 0.0063819909,
				"y": 0.5797937437,
				"z": 1.9198220374,
				"element": "C" 
			},
			{
				"x": 2.3145951543,
				"y": -1.0561293492,
				"z": 1.7431798993,
				"element": "H" 
			},
			{
				"x": 3.9304946073,
				"y": -0.7676007936,
				"z": 1.4345381574,
				"element": "H" 
			},
			{
				"x": 3.5067726707,
				"y": 1.5533108704,
				"z": -2.4010941989,
				"element": "H" 
			},
			{
				"x": 0.9928308061,
				"y": 1.8188537689,
				"z": -2.085761709,
				"element": "H" 
			},
			{
				"x": -1.0509213367,
				"y": 0.4798171215,
				"z": -1.3099609841,
				"element": "H" 
			},
			{
				"x": -3.2390398257,
				"y": 0.3253723111,
				"z": -0.1806150154,
				"element": "H" 
			},
			{
				"x": -3.3679644745,
				"y": 0.299490903,
				"z": 2.3055640931,
				"element": "H" 
			},
			{
				"x": -1.274683707,
				"y": 0.4666690582,
				"z": 3.6414667587,
				"element": "H" 
			},
			{
				"x": 0.9118218885,
				"y": 0.6775298587,
				"z": 2.51053991,
				"element": "H" 
			}
		],
		 "valence_orbital": [ 
			{
				"type": "occ",
				"energy": -0.28598,
				"method": "rhf"
			},
			{
				"type": "occ",
				"energy": -0.27211,
				"method": "rhf"
			},
			{
				"type": "occ",
				"energy": -0.24538,
				"method": "rhf"
			},
			{
				"type": "occ",
				"energy": -0.22032,
				"method": "rhf"
			},
			{
				"type": "occ",
				"energy": -0.19796,
				"method": "rhf"
			},
			{
				"type": "unocc",
				"energy": -0.00925,
				"method": "rhf"
			},
			{
				"type": "unocc",
				"energy": 0.00287,
				"method": "rhf"
			},
			{
				"type": "unocc",
				"energy": 0.03559,
				"method": "rhf"
			},
			{
				"type": "unocc",
				"energy": 0.07993,
				"method": "rhf"
			},
			{
				"type": "unocc",
				"energy": 0.09638,
				"method": "rhf"
			}
		],
		"cosmo_sigma_profile": { 
			"-0.025": 0.0,
			"-0.024": 0.0,
			"-0.023": 0.0,
			"-0.022": 0.0,
			"-0.021": 0.0,
			"-0.02": 0.0,
			"-0.019": 0.0,
			"-0.018": 0.0,
			"-0.017": 0.0824858838589,
			"-0.016": 1.3816003414,
			"-0.015": 1.63142972884,
			"-0.014": 1.0318569105,
			"-0.013": 0.681021886568,
			"-0.012": 1.65938546908,
			"-0.011": 3.69477874927,
			"-0.01": 3.16049950954,
			"-0.009": 4.07312730325,
			"-0.008": 5.56022897937,
			"-0.007": 4.4766752413,
			"-0.006": 7.83876268109,
			"-0.005": 11.2997421517,
			"-0.004": 12.4019154411,
			"-0.003": 14.0825939605,
			"-0.002": 9.82635267886,
			"-0.001": 10.3038319304,
			"0.0": 8.99700855873,
			"0.001": 8.72961689277,
			"0.002": 10.8436299132,
			"0.003": 10.6017192233,
			"0.004": 15.4164727641,
			"0.005": 17.4438689697,
			"0.006": 12.2934269858,
			"0.007": 4.13009527373,
			"0.008": 3.02698072062,
			"0.009": 2.73598045498,
			"0.01": 1.1372863187,
			"0.011": 2.26216270224,
			"0.012": 1.72109617869,
			"0.013": 1.47810083349,
			"0.014": 1.94538010331,
			"0.015": 0.777229679377,
			"0.016": 1.11829609308,
			"0.017": 0.159270398402,
			"0.018": 0.0,
			"0.019": 0.0,
			"0.02": 0.0,
			"0.021": 0.0,
			"0.022": 0.0,
			"0.023": 0.0,
			"0.024": 0.0,
			"0.025": 0.0
		}
	}
}
