{
	 "smiles": "CC1CCN(CC2=CC=C(N)C=C2)CC1", 
	 "Tm": 335.15, 
	 "num_atms": 35, 
	 "gaussian": { 
		 "optdone": 1, 
		 "sigma_profile": "yes", 
		 "theory": "DFT", 
		 "functional": "B3LYP", 
		 "basiset": "6-31G**", 
		 "properties": { 
			 "R2extent": 4827.3266, 
			 "electric_dipole_moment_norm": 1.49625174687, 
			 "electric_quadrupole_moment_norm": 13.9087827641, 
			 "total_energy": -616.942777048, 
			 "HOMO_LUMO_gap": 0.20165, 
			 "cosmo_polarized_energy": -8.57, 
			 "cosmo_cavitation_energy": 35.03, 
			 "cosmo_dispersion_energy": -24.8, 
			 "cosmo_repulsion_energy": 1.95, 
			 "cosmo_total_nonelectrostatic_energy": 12.19, 
			 "SMD_solvation_energy": 4.6 
		},
		"coords": [
			{
				"x": -1.906598475,
				"y": -0.476513199,
				"z": -2.118015161,
				"element": "C" 
			},
			{
				"x": -2.2658395302,
				"y": 0.671404017,
				"z": -1.1616058857,
				"element": "C" 
			},
			{
				"x": -2.9085102809,
				"y": 0.1588256691,
				"z": 0.1590723131,
				"element": "C" 
			},
			{
				"x": -1.8950137609,
				"y": 0.0980300874,
				"z": 1.3201042497,
				"element": "C" 
			},
			{
				"x": -0.5766067275,
				"y": -0.2836193428,
				"z": 0.8186728367,
				"element": "N" 
			},
			{
				"x": 0.3347563043,
				"y": -0.7514487396,
				"z": 1.8599421564,
				"element": "C" 
			},
			{
				"x": 1.5679483498,
				"y": -1.4397706471,
				"z": 1.3076356436,
				"element": "C" 
			},
			{
				"x": 2.8551216225,
				"y": -1.0639969069,
				"z": 1.7031238421,
				"element": "C" 
			},
			{
				"x": 3.9869989324,
				"y": -1.7233944302,
				"z": 1.225786998,
				"element": "C" 
			},
			{
				"x": 3.8615589967,
				"y": -2.7881496067,
				"z": 0.3201778286,
				"element": "C" 
			},
			{
				"x": 4.9918820665,
				"y": -3.4166226964,
				"z": -0.2128294243,
				"element": "N" 
			},
			{
				"x": 2.5692345124,
				"y": -3.1676675389,
				"z": -0.0863028354,
				"element": "C" 
			},
			{
				"x": 1.4493711989,
				"y": -2.5043784957,
				"z": 0.4027633005,
				"element": "C" 
			},
			{
				"x": 0.0195273027,
				"y": 0.7818895628,
				"z": -0.0018886591,
				"element": "C" 
			},
			{
				"x": -1.0480215587,
				"y": 1.5453961814,
				"z": -0.8140835499,
				"element": "C" 
			},
			{
				"x": -2.8031530373,
				"y": -1.040048379,
				"z": -2.4008165323,
				"element": "H" 
			},
			{
				"x": -1.4493483446,
				"y": -0.0957753088,
				"z": -3.0389581424,
				"element": "H" 
			},
			{
				"x": -1.2069432428,
				"y": -1.1729668679,
				"z": -1.6478848663,
				"element": "H" 
			},
			{
				"x": -2.9967478226,
				"y": 1.3096742645,
				"z": -1.6750167138,
				"element": "H" 
			},
			{
				"x": -3.742341766,
				"y": 0.807085653,
				"z": 0.454600073,
				"element": "H" 
			},
			{
				"x": -3.3300153304,
				"y": -0.8389661728,
				"z": -0.0073725165,
				"element": "H" 
			},
			{
				"x": -1.8659388817,
				"y": 1.066842236,
				"z": 1.8583601575,
				"element": "H" 
			},
			{
				"x": -2.2162984742,
				"y": -0.6478925097,
				"z": 2.0551729932,
				"element": "H" 
			},
			{
				"x": -0.2262808755,
				"y": -1.4573850743,
				"z": 2.4873392029,
				"element": "H" 
			},
			{
				"x": 0.6546884658,
				"y": 0.0737212076,
				"z": 2.5283751735,
				"element": "H" 
			},
			{
				"x": 2.979324131,
				"y": -0.2393266032,
				"z": 2.4015112101,
				"element": "H" 
			},
			{
				"x": 4.9764358264,
				"y": -1.4061741671,
				"z": 1.5471416515,
				"element": "H" 
			},
			{
				"x": 4.8363373376,
				"y": -4.3590202356,
				"z": -0.5443030747,
				"element": "H" 
			},
			{
				"x": 5.8210244081,
				"y": -3.35828224,
				"z": 0.3627367422,
				"element": "H" 
			},
			{
				"x": 2.4504504826,
				"y": -3.9869939643,
				"z": -0.7919295159,
				"element": "H" 
			},
			{
				"x": 0.4587709067,
				"y": -2.8075553281,
				"z": 0.0751097787,
				"element": "H" 
			},
			{
				"x": 0.5704196118,
				"y": 1.5051491472,
				"z": 0.6311292673,
				"element": "H" 
			},
			{
				"x": 0.7604181646,
				"y": 0.3249618786,
				"z": -0.6658862074,
				"element": "H" 
			},
			{
				"x": -0.5902891542,
				"y": 1.9508219056,
				"z": -1.7238134389,
				"element": "H" 
			},
			{
				"x": -1.3971213581,
				"y": 2.4101466441,
				"z": -0.236148895,
				"element": "H" 
			}
		],
		 "valence_orbital": [ 
			{
				"type": "occ",
				"energy": -0.29515,
				"method": "rhf"
			},
			{
				"type": "occ",
				"energy": -0.29142,
				"method": "rhf"
			},
			{
				"type": "occ",
				"energy": -0.23936,
				"method": "rhf"
			},
			{
				"type": "occ",
				"energy": -0.20053,
				"method": "rhf"
			},
			{
				"type": "occ",
				"energy": -0.19322,
				"method": "rhf"
			},
			{
				"type": "unocc",
				"energy": 0.00843,
				"method": "rhf"
			},
			{
				"type": "unocc",
				"energy": 0.02163,
				"method": "rhf"
			},
			{
				"type": "unocc",
				"energy": 0.08187,
				"method": "rhf"
			},
			{
				"type": "unocc",
				"energy": 0.08564,
				"method": "rhf"
			},
			{
				"type": "unocc",
				"energy": 0.10735,
				"method": "rhf"
			}
		],
		"cosmo_sigma_profile": { 
			"-0.025": 0.0,
			"-0.024": 0.0,
			"-0.023": 0.0,
			"-0.022": 0.0,
			"-0.021": 0.0,
			"-0.02": 0.0,
			"-0.019": 0.0,
			"-0.018": 0.0,
			"-0.017": 0.0,
			"-0.016": 0.0,
			"-0.015": 0.0,
			"-0.014": 0.0,
			"-0.013": 0.0396924444111,
			"-0.012": 1.79784580912,
			"-0.011": 2.94173822239,
			"-0.01": 2.49537085422,
			"-0.009": 3.33979862022,
			"-0.008": 2.74854292034,
			"-0.007": 2.55912469511,
			"-0.006": 4.10911810425,
			"-0.005": 5.19267952172,
			"-0.004": 9.57045362954,
			"-0.003": 15.8818471769,
			"-0.002": 29.6567593692,
			"-0.001": 46.6603347391,
			"0.0": 43.2750832824,
			"0.001": 27.8468818944,
			"0.002": 17.5527771765,
			"0.003": 10.0458815156,
			"0.004": 8.8311284251,
			"0.005": 8.46854301237,
			"0.006": 10.4309863537,
			"0.007": 9.45071574974,
			"0.008": 2.880781746,
			"0.009": 1.69827008797,
			"0.01": 0.920995261832,
			"0.011": 0.499635944929,
			"0.012": 0.869291350354,
			"0.013": 0.861536207709,
			"0.014": 0.490875735459,
			"0.015": 0.461477849007,
			"0.016": 0.0690777912689,
			"0.017": 0.0,
			"0.018": 0.0,
			"0.019": 0.0,
			"0.02": 0.0,
			"0.021": 0.0,
			"0.022": 0.0,
			"0.023": 0.0,
			"0.024": 0.0,
			"0.025": 0.0
		}
	}
}
