{
	 "smiles": "CN1C=CC2=C1C=CC(Br)=C2", 
	 "Tm": 316.65, 
	 "num_atms": 19, 
	 "gaussian": { 
		 "optdone": 1, 
		 "sigma_profile": "yes", 
		 "theory": "DFT", 
		 "functional": "B3LYP", 
		 "basiset": "6-31G**", 
		 "properties": { 
			 "R2extent": 3326.1754, 
			 "electric_dipole_moment_norm": 4.57091810253, 
			 "electric_quadrupole_moment_norm": 9.88876648779, 
			 "total_energy": -2973.93681917, 
			 "HOMO_LUMO_gap": 0.18934, 
			 "cosmo_polarized_energy": -7.56, 
			 "cosmo_cavitation_energy": 24.9, 
			 "cosmo_dispersion_energy": -18.89, 
			 "cosmo_repulsion_energy": 1.49, 
			 "cosmo_total_nonelectrostatic_energy": 7.5, 
			 "SMD_solvation_energy": 3.25 
		},
		"coords": [
			{
				"x": 2.7440875687,
				"y": -1.0947588202,
				"z": 2.167539797,
				"element": "C" 
			},
			{
				"x": 1.3570395201,
				"y": -0.7909136535,
				"z": 1.8790507165,
				"element": "N" 
			},
			{
				"x": 0.2551760553,
				"y": -1.2640329809,
				"z": 2.5699330915,
				"element": "C" 
			},
			{
				"x": -0.8999532419,
				"y": -0.7715378694,
				"z": 2.0212192741,
				"element": "C" 
			},
			{
				"x": -0.5119434608,
				"y": 0.0615335995,
				"z": 0.9195655587,
				"element": "C" 
			},
			{
				"x": 0.9110858167,
				"y": 0.0267542291,
				"z": 0.8589916243,
				"element": "C" 
			},
			{
				"x": 1.6308880508,
				"y": 0.7364763996,
				"z": -0.1083858592,
				"element": "C" 
			},
			{
				"x": 0.9144164168,
				"y": 1.4925017728,
				"z": -1.029003673,
				"element": "C" 
			},
			{
				"x": -0.4914510175,
				"y": 1.5289652212,
				"z": -0.9718535658,
				"element": "C" 
			},
			{
				"x": -1.4267944992,
				"y": 2.5896492959,
				"z": -2.2684938569,
				"element": "Br" 
			},
			{
				"x": -1.2187381325,
				"y": 0.8316596672,
				"z": -0.019937971,
				"element": "C" 
			},
			{
				"x": 3.2242335771,
				"y": -1.5887704332,
				"z": 1.315436794,
				"element": "H" 
			},
			{
				"x": 2.7905599829,
				"y": -1.7651263554,
				"z": 3.0274412643,
				"element": "H" 
			},
			{
				"x": 3.3050992969,
				"y": -0.1842369177,
				"z": 2.4060401467,
				"element": "H" 
			},
			{
				"x": 0.3936227646,
				"y": -1.9267411337,
				"z": 3.4131488957,
				"element": "H" 
			},
			{
				"x": -1.9043976652,
				"y": -0.9778547971,
				"z": 2.3612926443,
				"element": "H" 
			},
			{
				"x": 2.7153168026,
				"y": 0.7066597817,
				"z": -0.1503061933,
				"element": "H" 
			},
			{
				"x": 1.433448084,
				"y": 2.0570928706,
				"z": -1.7945690886,
				"element": "H" 
			},
			{
				"x": -2.3016959195,
				"y": 0.8818801234,
				"z": -0.0044095993,
				"element": "H" 
			}
		],
		 "valence_orbital": [ 
			{
				"type": "occ",
				"energy": -0.2883,
				"method": "rhf"
			},
			{
				"type": "occ",
				"energy": -0.27486,
				"method": "rhf"
			},
			{
				"type": "occ",
				"energy": -0.27431,
				"method": "rhf"
			},
			{
				"type": "occ",
				"energy": -0.21692,
				"method": "rhf"
			},
			{
				"type": "occ",
				"energy": -0.20587,
				"method": "rhf"
			},
			{
				"type": "unocc",
				"energy": -0.01653,
				"method": "rhf"
			},
			{
				"type": "unocc",
				"energy": 0.0174,
				"method": "rhf"
			},
			{
				"type": "unocc",
				"energy": 0.01902,
				"method": "rhf"
			},
			{
				"type": "unocc",
				"energy": 0.06625,
				"method": "rhf"
			},
			{
				"type": "unocc",
				"energy": 0.08567,
				"method": "rhf"
			}
		],
		"cosmo_sigma_profile": { 
			"-0.025": 0.0,
			"-0.024": 0.0,
			"-0.023": 0.0,
			"-0.022": 0.0,
			"-0.021": 0.0,
			"-0.02": 0.0,
			"-0.019": 0.0,
			"-0.018": 0.0,
			"-0.017": 0.0,
			"-0.016": 0.0,
			"-0.015": 0.0,
			"-0.014": 0.0,
			"-0.013": 0.0,
			"-0.012": 0.0,
			"-0.011": 0.0,
			"-0.01": 0.0,
			"-0.009": 0.157532767984,
			"-0.008": 3.34334867867,
			"-0.007": 4.80090173283,
			"-0.006": 11.6864363092,
			"-0.005": 17.7690139717,
			"-0.004": 16.2150023647,
			"-0.003": 16.887467545,
			"-0.002": 13.9256894561,
			"-0.001": 10.2163256381,
			"0.0": 9.28030800378,
			"0.001": 10.8390590345,
			"0.002": 11.4112736918,
			"0.003": 16.0126457562,
			"0.004": 22.727342364,
			"0.005": 27.1611403377,
			"0.006": 8.92763755602,
			"0.007": 1.42898927057,
			"0.008": 0.0,
			"0.009": 0.0,
			"0.01": 0.0,
			"0.011": 0.0,
			"0.012": 0.0,
			"0.013": 0.0,
			"0.014": 0.0,
			"0.015": 0.0,
			"0.016": 0.0,
			"0.017": 0.0,
			"0.018": 0.0,
			"0.019": 0.0,
			"0.02": 0.0,
			"0.021": 0.0,
			"0.022": 0.0,
			"0.023": 0.0,
			"0.024": 0.0,
			"0.025": 0.0
		}
	}
}
