{
	 "smiles": "CC(=O)C1=CC=C(O)C(O)=C1O", 
	 "Tm": 445.15, 
	 "num_atms": 20, 
	 "gaussian": { 
		 "optdone": 1, 
		 "sigma_profile": "yes", 
		 "theory": "DFT", 
		 "functional": "B3LYP", 
		 "basiset": "6-31G**", 
		 "properties": { 
			 "R2extent": 2248.8131, 
			 "electric_dipole_moment_norm": 5.00092429157, 
			 "electric_quadrupole_moment_norm": 14.2138005903, 
			 "total_energy": -610.5603352, 
			 "HOMO_LUMO_gap": 0.18174, 
			 "cosmo_polarized_energy": -15.61, 
			 "cosmo_cavitation_energy": 24.06, 
			 "cosmo_dispersion_energy": -18.28, 
			 "cosmo_repulsion_energy": 1.45, 
			 "cosmo_total_nonelectrostatic_energy": 7.23, 
			 "SMD_solvation_energy": 5.75 
		},
		"coords": [
			{
				"x": -2.3814494279,
				"y": 0.8631529289,
				"z": 2.4549255849,
				"element": "C" 
			},
			{
				"x": -1.065687288,
				"y": 1.4835688815,
				"z": 2.0299592301,
				"element": "C" 
			},
			{
				"x": -0.549461893,
				"y": 2.3536753461,
				"z": 2.7204507576,
				"element": "O" 
			},
			{
				"x": -0.3868322389,
				"y": 1.0415788363,
				"z": 0.7679485592,
				"element": "C" 
			},
			{
				"x": 0.8307172561,
				"y": 1.6728749916,
				"z": 0.4504364557,
				"element": "C" 
			},
			{
				"x": 1.5582523746,
				"y": 1.3563314859,
				"z": -0.6872890295,
				"element": "C" 
			},
			{
				"x": 1.0678633584,
				"y": 0.3739600156,
				"z": -1.5540367432,
				"element": "C" 
			},
			{
				"x": 1.6849155444,
				"y": -0.0335285397,
				"z": -2.7091110862,
				"element": "O" 
			},
			{
				"x": -0.1334180398,
				"y": -0.2690736058,
				"z": -1.2680277284,
				"element": "C" 
			},
			{
				"x": -0.6597588743,
				"y": -1.2408888897,
				"z": -2.0854544575,
				"element": "O" 
			},
			{
				"x": -0.8651843783,
				"y": 0.0538991043,
				"z": -0.1176216691,
				"element": "C" 
			},
			{
				"x": -2.0307655877,
				"y": -0.6134821479,
				"z": 0.1007472049,
				"element": "O" 
			},
			{
				"x": -2.2809099985,
				"y": -0.2185480077,
				"z": 2.584554754,
				"element": "H" 
			},
			{
				"x": -2.6907268847,
				"y": 1.3292636526,
				"z": 3.3913774052,
				"element": "H" 
			},
			{
				"x": -3.1483004998,
				"y": 1.0075213005,
				"z": 1.687986537,
				"element": "H" 
			},
			{
				"x": 1.1823926024,
				"y": 2.4291323962,
				"z": 1.1428564827,
				"element": "H" 
			},
			{
				"x": 2.4959180927,
				"y": 1.8599238839,
				"z": -0.9085327485,
				"element": "H" 
			},
			{
				"x": 2.5076707637,
				"y": 0.4564299512,
				"z": -2.8307803245,
				"element": "H" 
			},
			{
				"x": -0.0577812572,
				"y": -1.3642440041,
				"z": -2.8332060551,
				"element": "H" 
			},
			{
				"x": -2.1474536244,
				"y": -1.2354475795,
				"z": -0.6349831292,
				"element": "H" 
			}
		],
		 "valence_orbital": [ 
			{
				"type": "occ",
				"energy": -0.35021,
				"method": "rhf"
			},
			{
				"type": "occ",
				"energy": -0.3139,
				"method": "rhf"
			},
			{
				"type": "occ",
				"energy": -0.23572,
				"method": "rhf"
			},
			{
				"type": "occ",
				"energy": -0.23008,
				"method": "rhf"
			},
			{
				"type": "occ",
				"energy": -0.21879,
				"method": "rhf"
			},
			{
				"type": "unocc",
				"energy": -0.03705,
				"method": "rhf"
			},
			{
				"type": "unocc",
				"energy": 0.00805,
				"method": "rhf"
			},
			{
				"type": "unocc",
				"energy": 0.03695,
				"method": "rhf"
			},
			{
				"type": "unocc",
				"energy": 0.05591,
				"method": "rhf"
			},
			{
				"type": "unocc",
				"energy": 0.07329,
				"method": "rhf"
			}
		],
		"cosmo_sigma_profile": { 
			"-0.025": 0.0,
			"-0.024": 0.0,
			"-0.023": 0.0,
			"-0.022": 0.0,
			"-0.021": 0.0,
			"-0.02": 0.0,
			"-0.019": 0.38050417826,
			"-0.018": 1.09000309447,
			"-0.017": 1.34962990847,
			"-0.016": 1.11629705868,
			"-0.015": 1.98972661416,
			"-0.014": 1.83698687596,
			"-0.013": 2.52495046529,
			"-0.012": 1.54822518109,
			"-0.011": 2.46308155929,
			"-0.01": 2.74459433827,
			"-0.009": 2.06600926256,
			"-0.008": 2.45428579154,
			"-0.007": 3.46377623952,
			"-0.006": 3.45046786582,
			"-0.005": 6.78833486004,
			"-0.004": 9.95674669963,
			"-0.003": 10.6381996939,
			"-0.002": 10.4744283075,
			"-0.001": 12.0696403121,
			"0.0": 15.3260808422,
			"0.001": 13.9000829992,
			"0.002": 18.0522932461,
			"0.003": 13.7684309205,
			"0.004": 13.2017649394,
			"0.005": 9.87317956171,
			"0.006": 7.07887005428,
			"0.007": 6.29401060125,
			"0.008": 1.620693915,
			"0.009": 1.13794721526,
			"0.01": 2.53633737664,
			"0.011": 2.06090002845,
			"0.012": 3.69743473197,
			"0.013": 3.21021364606,
			"0.014": 0.881793768406,
			"0.015": 0.0,
			"0.016": 0.0,
			"0.017": 0.0,
			"0.018": 0.0,
			"0.019": 0.0,
			"0.02": 0.0,
			"0.021": 0.0,
			"0.022": 0.0,
			"0.023": 0.0,
			"0.024": 0.0,
			"0.025": 0.0
		}
	}
}
