{
	 "smiles": "OCC1=NC=C(Br)S1", 
	 "Tm": 347.15, 
	 "num_atms": 12, 
	 "gaussian": { 
		 "optdone": 1, 
		 "sigma_profile": "yes", 
		 "theory": "DFT", 
		 "functional": "B3LYP", 
		 "basiset": "6-31G**", 
		 "properties": { 
			 "R2extent": 2520.8214, 
			 "electric_dipole_moment_norm": 1.5594991664, 
			 "electric_quadrupole_moment_norm": 7.66448686019, 
			 "total_energy": -3254.36972146, 
			 "HOMO_LUMO_gap": 0.20293, 
			 "cosmo_polarized_energy": -6.48, 
			 "cosmo_cavitation_energy": 20.21, 
			 "cosmo_dispersion_energy": -16.34, 
			 "cosmo_repulsion_energy": 1.32, 
			 "cosmo_total_nonelectrostatic_energy": 5.19, 
			 "SMD_solvation_energy": 1.09 
		},
		"coords": [
			{
				"x": 2.9160300472,
				"y": -0.11300749,
				"z": 2.3211487735,
				"element": "O" 
			},
			{
				"x": 1.5227296808,
				"y": -0.1987227998,
				"z": 2.4797078806,
				"element": "C" 
			},
			{
				"x": 0.8543821455,
				"y": -0.6270490092,
				"z": 1.1938907775,
				"element": "C" 
			},
			{
				"x": 1.5422371132,
				"y": -1.1369724691,
				"z": 0.2127548808,
				"element": "N" 
			},
			{
				"x": 0.740099855,
				"y": -1.4998095411,
				"z": -0.8448474189,
				"element": "C" 
			},
			{
				"x": -0.5902496552,
				"y": -1.2644148449,
				"z": -0.6620813403,
				"element": "C" 
			},
			{
				"x": -1.99138408,
				"y": -1.6141192258,
				"z": -1.8656054084,
				"element": "Br" 
			},
			{
				"x": -0.8740962437,
				"y": -0.5460336834,
				"z": 0.9047449921,
				"element": "S" 
			},
			{
				"x": 3.1383731936,
				"y": -0.6503074567,
				"z": 1.5435571989,
				"element": "H" 
			},
			{
				"x": 1.1379501883,
				"y": 0.7795330331,
				"z": 2.7968955867,
				"element": "H" 
			},
			{
				"x": 1.2500913887,
				"y": -0.9195306738,
				"z": 3.2705814178,
				"element": "H" 
			},
			{
				"x": 1.1755363667,
				"y": -1.9342658393,
				"z": -1.7355473404,
				"element": "H" 
			}
		],
		 "valence_orbital": [ 
			{
				"type": "occ",
				"energy": -0.31697,
				"method": "rhf"
			},
			{
				"type": "occ",
				"energy": -0.29892,
				"method": "rhf"
			},
			{
				"type": "occ",
				"energy": -0.29529,
				"method": "rhf"
			},
			{
				"type": "occ",
				"energy": -0.27567,
				"method": "rhf"
			},
			{
				"type": "occ",
				"energy": -0.24808,
				"method": "rhf"
			},
			{
				"type": "unocc",
				"energy": -0.04515,
				"method": "rhf"
			},
			{
				"type": "unocc",
				"energy": -0.0188,
				"method": "rhf"
			},
			{
				"type": "unocc",
				"energy": -0.00209,
				"method": "rhf"
			},
			{
				"type": "unocc",
				"energy": 0.03066,
				"method": "rhf"
			},
			{
				"type": "unocc",
				"energy": 0.08367,
				"method": "rhf"
			}
		],
		"cosmo_sigma_profile": { 
			"-0.025": 0.0,
			"-0.024": 0.0,
			"-0.023": 0.0,
			"-0.022": 0.0,
			"-0.021": 0.0,
			"-0.02": 0.0,
			"-0.019": 0.0,
			"-0.018": 0.0,
			"-0.017": 0.0,
			"-0.016": 0.0,
			"-0.015": 0.0,
			"-0.014": 0.0,
			"-0.013": 0.0,
			"-0.012": 0.0,
			"-0.011": 0.17682421056,
			"-0.01": 0.568820554065,
			"-0.009": 1.90854162399,
			"-0.008": 4.01570613568,
			"-0.007": 5.79136805627,
			"-0.006": 9.87304183572,
			"-0.005": 8.28054706281,
			"-0.004": 7.46802521665,
			"-0.003": 9.87922211897,
			"-0.002": 12.5510316195,
			"-0.001": 13.908195738,
			"0.0": 18.4157136058,
			"0.001": 18.7747471402,
			"0.002": 16.2218142307,
			"0.003": 14.3922787674,
			"0.004": 6.03240356512,
			"0.005": 2.49845565798,
			"0.006": 2.51574736676,
			"0.007": 2.11155829369,
			"0.008": 2.56532525063,
			"0.009": 1.55112228355,
			"0.01": 1.79743427081,
			"0.011": 1.29082064464,
			"0.012": 1.03876506179,
			"0.013": 2.75523553365,
			"0.014": 1.16927511207,
			"0.015": 0.0,
			"0.016": 0.0,
			"0.017": 0.0,
			"0.018": 0.0,
			"0.019": 0.0,
			"0.02": 0.0,
			"0.021": 0.0,
			"0.022": 0.0,
			"0.023": 0.0,
			"0.024": 0.0,
			"0.025": 0.0
		}
	}
}
