{
	 "smiles": "OC(=O)C1=C(O)N=CC(=C1)[N+]([O-])=O", 
	 "Tm": 519.15, 
	 "num_atms": 17, 
	 "gaussian": { 
		 "optdone": 1, 
		 "sigma_profile": "yes", 
		 "theory": "DFT", 
		 "functional": "B3LYP", 
		 "basiset": "6-31G**", 
		 "properties": { 
			 "R2extent": 2771.2026, 
			 "electric_dipole_moment_norm": 5.72606367586, 
			 "electric_quadrupole_moment_norm": 12.9762516641, 
			 "total_energy": -716.579974722, 
			 "HOMO_LUMO_gap": 0.182, 
			 "cosmo_polarized_energy": -18.02, 
			 "cosmo_cavitation_energy": 23.26, 
			 "cosmo_dispersion_energy": -17.53, 
			 "cosmo_repulsion_energy": 1.37, 
			 "cosmo_total_nonelectrostatic_energy": 7.1, 
			 "SMD_solvation_energy": 6.72 
		},
		"coords": [
			{
				"x": -2.0415906819,
				"y": -1.48295855,
				"z": -1.1058094523,
				"element": "O" 
			},
			{
				"x": -0.7415808086,
				"y": -1.1803027737,
				"z": -1.2566284649,
				"element": "C" 
			},
			{
				"x": -0.1673425389,
				"y": -1.3812482994,
				"z": -2.3017407112,
				"element": "O" 
			},
			{
				"x": -0.0146553192,
				"y": -0.5789958543,
				"z": -0.0769923636,
				"element": "C" 
			},
			{
				"x": -0.5666842179,
				"y": -0.2957985767,
				"z": 1.1909566116,
				"element": "C" 
			},
			{
				"x": -1.8718402615,
				"y": -0.5735682326,
				"z": 1.4178804888,
				"element": "O" 
			},
			{
				"x": 0.1014703143,
				"y": 0.2351142187,
				"z": 2.2116634774,
				"element": "N" 
			},
			{
				"x": 1.3911626461,
				"y": 0.5259454885,
				"z": 2.0353256293,
				"element": "C" 
			},
			{
				"x": 2.0341311275,
				"y": 0.2860420237,
				"z": 0.8216648637,
				"element": "C" 
			},
			{
				"x": 1.3328085379,
				"y": -0.269087405,
				"z": -0.243555482,
				"element": "C" 
			},
			{
				"x": 3.4528544983,
				"y": 0.6222810361,
				"z": 0.6757475756,
				"element": "N" 
			},
			{
				"x": 3.9795066104,
				"y": 0.3940536596,
				"z": -0.4101743257,
				"element": "O" 
			},
			{
				"x": 4.0183306011,
				"y": 1.110620598,
				"z": 1.6536910778,
				"element": "O" 
			},
			{
				"x": -2.3539403684,
				"y": -1.2622967156,
				"z": -0.2112259045,
				"element": "H" 
			},
			{
				"x": -2.0709001418,
				"y": -0.3148227421,
				"z": 2.3332214663,
				"element": "H" 
			},
			{
				"x": 1.9331988168,
				"y": 0.9585935773,
				"z": 2.8692160154,
				"element": "H" 
			},
			{
				"x": 1.8114711857,
				"y": -0.4643714527,
				"z": -1.1958405017,
				"element": "H" 
			}
		],
		 "valence_orbital": [ 
			{
				"type": "occ",
				"energy": -0.32264,
				"method": "rhf"
			},
			{
				"type": "occ",
				"energy": -0.31714,
				"method": "rhf"
			},
			{
				"type": "occ",
				"energy": -0.30958,
				"method": "rhf"
			},
			{
				"type": "occ",
				"energy": -0.29362,
				"method": "rhf"
			},
			{
				"type": "occ",
				"energy": -0.28906,
				"method": "rhf"
			},
			{
				"type": "unocc",
				"energy": -0.10706,
				"method": "rhf"
			},
			{
				"type": "unocc",
				"energy": -0.08804,
				"method": "rhf"
			},
			{
				"type": "unocc",
				"energy": -0.03332,
				"method": "rhf"
			},
			{
				"type": "unocc",
				"energy": 0.0323,
				"method": "rhf"
			},
			{
				"type": "unocc",
				"energy": 0.03591,
				"method": "rhf"
			}
		],
		"cosmo_sigma_profile": { 
			"-0.025": 0.0,
			"-0.024": 0.0,
			"-0.023": 0.0,
			"-0.022": 0.0,
			"-0.021": 0.0,
			"-0.02": 0.374866221979,
			"-0.019": 0.775277502243,
			"-0.018": 1.10585066988,
			"-0.017": 0.613417228407,
			"-0.016": 0.995063701422,
			"-0.015": 0.530532727111,
			"-0.014": 0.280327189678,
			"-0.013": 0.997564978891,
			"-0.012": 0.863049412515,
			"-0.011": 0.586319703413,
			"-0.01": 2.55539390326,
			"-0.009": 3.71091064778,
			"-0.008": 5.22795681095,
			"-0.007": 6.1773472254,
			"-0.006": 9.39255843623,
			"-0.005": 14.018964689,
			"-0.004": 18.5315738908,
			"-0.003": 16.8851667115,
			"-0.002": 8.89640877977,
			"-0.001": 7.08678503925,
			"0.0": 6.92488765708,
			"0.001": 6.60017768078,
			"0.002": 5.64119493186,
			"0.003": 4.35583308327,
			"0.004": 5.36588905381,
			"0.005": 6.40389190139,
			"0.006": 7.92179997057,
			"0.007": 12.9351168345,
			"0.008": 8.80188036087,
			"0.009": 7.82482025269,
			"0.01": 6.88466343155,
			"0.011": 5.23054303538,
			"0.012": 2.54805959695,
			"0.013": 0.592663773873,
			"0.014": 0.0,
			"0.015": 0.0,
			"0.016": 0.0,
			"0.017": 0.0,
			"0.018": 0.0,
			"0.019": 0.0,
			"0.02": 0.0,
			"0.021": 0.0,
			"0.022": 0.0,
			"0.023": 0.0,
			"0.024": 0.0,
			"0.025": 0.0
		}
	}
}
