{
	 "smiles": "CCOC(=O)C1=C(NC(=O)CCl)SC=C1CC(C)C", 
	 "Tm": 372.15, 
	 "num_atms": 37, 
	 "gaussian": { 
		 "optdone": 1, 
		 "sigma_profile": "yes", 
		 "theory": "DFT", 
		 "functional": "B3LYP", 
		 "basiset": "6-31G**", 
		 "properties": { 
			 "R2extent": 8828.8634, 
			 "electric_dipole_moment_norm": 2.04808580143, 
			 "electric_quadrupole_moment_norm": 10.3751709499, 
			 "total_energy": -1645.06332351, 
			 "HOMO_LUMO_gap": 0.18637, 
			 "cosmo_polarized_energy": -14.06, 
			 "cosmo_cavitation_energy": 43.3, 
			 "cosmo_dispersion_energy": -28.96, 
			 "cosmo_repulsion_energy": 2.25, 
			 "cosmo_total_nonelectrostatic_energy": 16.6, 
			 "SMD_solvation_energy": 8.15 
		},
		"coords": [
			{
				"x": -0.644081549,
				"y": -2.2552233336,
				"z": 3.9023392419,
				"element": "C" 
			},
			{
				"x": -0.0947523332,
				"y": -2.3979542811,
				"z": 2.4959156508,
				"element": "C" 
			},
			{
				"x": -0.8674091319,
				"y": -1.5283082783,
				"z": 1.6341649627,
				"element": "O" 
			},
			{
				"x": -0.5438390586,
				"y": -1.5725988412,
				"z": 0.3237612317,
				"element": "C" 
			},
			{
				"x": 0.3582219841,
				"y": -2.2608875388,
				"z": -0.1122727723,
				"element": "O" 
			},
			{
				"x": -1.4162718016,
				"y": -0.694228421,
				"z": -0.5051677161,
				"element": "C" 
			},
			{
				"x": -1.6685624072,
				"y": -1.0063860838,
				"z": -1.8259308633,
				"element": "C" 
			},
			{
				"x": -1.2696575339,
				"y": -2.1343164316,
				"z": -2.5537238198,
				"element": "N" 
			},
			{
				"x": -1.4803952006,
				"y": -3.4227076122,
				"z": -2.1364830511,
				"element": "C" 
			},
			{
				"x": -2.1188391876,
				"y": -3.7463520188,
				"z": -1.1514735651,
				"element": "O" 
			},
			{
				"x": -0.8146472319,
				"y": -4.5293174358,
				"z": -2.9536903739,
				"element": "C" 
			},
			{
				"x": -0.196766895,
				"y": -4.0714879551,
				"z": -4.5997662496,
				"element": "Cl" 
			},
			{
				"x": -2.7019763737,
				"y": 0.1729865759,
				"z": -2.5856836325,
				"element": "S" 
			},
			{
				"x": -2.7490624131,
				"y": 1.1099612134,
				"z": -1.1292139175,
				"element": "C" 
			},
			{
				"x": -2.0528142869,
				"y": 0.5416878154,
				"z": -0.097128937,
				"element": "C" 
			},
			{
				"x": -1.9478810897,
				"y": 1.1999512312,
				"z": 1.2584315565,
				"element": "C" 
			},
			{
				"x": -0.5606941655,
				"y": 1.8040604402,
				"z": 1.5921790531,
				"element": "C" 
			},
			{
				"x": -0.1729323569,
				"y": 2.9302890282,
				"z": 0.6250280956,
				"element": "C" 
			},
			{
				"x": -0.5418459658,
				"y": 2.2974093508,
				"z": 3.045859411,
				"element": "C" 
			},
			{
				"x": -1.7009416706,
				"y": -2.5341310794,
				"z": 3.9386351493,
				"element": "H" 
			},
			{
				"x": -0.5444541362,
				"y": -1.2271362984,
				"z": 4.2631057316,
				"element": "H" 
			},
			{
				"x": -0.0916663067,
				"y": -2.9110046235,
				"z": 4.5826110149,
				"element": "H" 
			},
			{
				"x": -0.1823660137,
				"y": -3.4220188854,
				"z": 2.1216206153,
				"element": "H" 
			},
			{
				"x": 0.9599723422,
				"y": -2.111864193,
				"z": 2.4332823766,
				"element": "H" 
			},
			{
				"x": -0.7209851319,
				"y": -2.0009712601,
				"z": -3.393859571,
				"element": "H" 
			},
			{
				"x": -1.5341252548,
				"y": -5.3357173923,
				"z": -3.0859525696,
				"element": "H" 
			},
			{
				"x": 0.0419341014,
				"y": -4.896037552,
				"z": -2.3853345172,
				"element": "H" 
			},
			{
				"x": -3.2839412926,
				"y": 2.0497417457,
				"z": -1.1142584737,
				"element": "H" 
			},
			{
				"x": -2.6957443628,
				"y": 2.0018853301,
				"z": 1.3083756722,
				"element": "H" 
			},
			{
				"x": -2.2085739382,
				"y": 0.4718411203,
				"z": 2.0314149795,
				"element": "H" 
			},
			{
				"x": 0.1842797868,
				"y": 1.0027610984,
				"z": 1.4998344812,
				"element": "H" 
			},
			{
				"x": -0.1644338919,
				"y": 2.5869908409,
				"z": -0.4136651206,
				"element": "H" 
			},
			{
				"x": 0.8232798662,
				"y": 3.320804697,
				"z": 0.8587264878,
				"element": "H" 
			},
			{
				"x": -0.8806536749,
				"y": 3.7661557617,
				"z": 0.6950438134,
				"element": "H" 
			},
			{
				"x": -0.7740379009,
				"y": 1.4879200122,
				"z": 3.746723381,
				"element": "H" 
			},
			{
				"x": -1.2815347486,
				"y": 3.0928243655,
				"z": 3.1999792666,
				"element": "H" 
			},
			{
				"x": 0.4397992253,
				"y": 2.7028788887,
				"z": 3.3131729775,
				"element": "H" 
			}
		],
		 "valence_orbital": [ 
			{
				"type": "occ",
				"energy": -0.29213,
				"method": "rhf"
			},
			{
				"type": "occ",
				"energy": -0.27155,
				"method": "rhf"
			},
			{
				"type": "occ",
				"energy": -0.26425,
				"method": "rhf"
			},
			{
				"type": "occ",
				"energy": -0.25464,
				"method": "rhf"
			},
			{
				"type": "occ",
				"energy": -0.23121,
				"method": "rhf"
			},
			{
				"type": "unocc",
				"energy": -0.04484,
				"method": "rhf"
			},
			{
				"type": "unocc",
				"energy": 0.0052,
				"method": "rhf"
			},
			{
				"type": "unocc",
				"energy": 0.00683,
				"method": "rhf"
			},
			{
				"type": "unocc",
				"energy": 0.01557,
				"method": "rhf"
			},
			{
				"type": "unocc",
				"energy": 0.02264,
				"method": "rhf"
			}
		],
		"cosmo_sigma_profile": { 
			"-0.025": 0.0,
			"-0.024": 0.0,
			"-0.023": 0.0,
			"-0.022": 0.0,
			"-0.021": 0.0,
			"-0.02": 0.0,
			"-0.019": 0.0,
			"-0.018": 0.0,
			"-0.017": 0.0,
			"-0.016": 0.0,
			"-0.015": 0.0451976745728,
			"-0.014": 0.757158916853,
			"-0.013": 0.6248850098,
			"-0.012": 1.05679233313,
			"-0.011": 0.901374314719,
			"-0.01": 1.42554544484,
			"-0.009": 4.71155814026,
			"-0.008": 6.58006885486,
			"-0.007": 6.5691441845,
			"-0.006": 7.32893746509,
			"-0.005": 13.1276039986,
			"-0.004": 19.2401104752,
			"-0.003": 28.3364967431,
			"-0.002": 36.5081535607,
			"-0.001": 37.6308000594,
			"0.0": 38.3396973738,
			"0.001": 36.7816165192,
			"0.002": 30.2401232611,
			"0.003": 17.177408757,
			"0.004": 12.1337364332,
			"0.005": 11.1155427944,
			"0.006": 5.4562633615,
			"0.007": 4.10555290294,
			"0.008": 3.83151208001,
			"0.009": 3.13036264311,
			"0.01": 3.8771910644,
			"0.011": 4.39622437654,
			"0.012": 7.41213029007,
			"0.013": 2.02174536684,
			"0.014": 0.00825449317845,
			"0.015": 0.0,
			"0.016": 0.0,
			"0.017": 0.0,
			"0.018": 0.0,
			"0.019": 0.0,
			"0.02": 0.0,
			"0.021": 0.0,
			"0.022": 0.0,
			"0.023": 0.0,
			"0.024": 0.0,
			"0.025": 0.0
		}
	}
}
