{
	 "smiles": "CCCCCCCCCCCCCC(CCCCCCCCCCCC)CCCCCCCCCCCC", 
	 "Tm": 286.85, 
	 "num_atms": 116, 
	 "gaussian": { 
		 "optdone": 1, 
		 "sigma_profile": "yes", 
		 "theory": "DFT", 
		 "functional": "B3LYP", 
		 "basiset": "6-31G**", 
		 "properties": { 
			 "R2extent": 49202.7483, 
			 "electric_dipole_moment_norm": 0.104838399454, 
			 "electric_quadrupole_moment_norm": 1.78653953497, 
			 "total_energy": -1495.16362941, 
			 "HOMO_LUMO_gap": 0.35522, 
			 "cosmo_polarized_energy": -2.23, 
			 "cosmo_cavitation_energy": 106.51, 
			 "cosmo_dispersion_energy": -66.19, 
			 "cosmo_repulsion_energy": 5.31, 
			 "cosmo_total_nonelectrostatic_energy": 45.63, 
			 "SMD_solvation_energy": 12.71 
		},
		"coords": [
			{
				"x": 5.289627816,
				"y": -4.0805813119,
				"z": 7.5565126448,
				"element": "C" 
			},
			{
				"x": 4.4639832471,
				"y": -3.9354035258,
				"z": 8.8399392153,
				"element": "C" 
			},
			{
				"x": 3.188118502,
				"y": -3.0814581677,
				"z": 8.7248677563,
				"element": "C" 
			},
			{
				"x": 3.4040525778,
				"y": -1.5913043409,
				"z": 8.373488463,
				"element": "C" 
			},
			{
				"x": 3.3185065421,
				"y": -1.2652984413,
				"z": 6.8731200585,
				"element": "C" 
			},
			{
				"x": 3.6359863565,
				"y": 0.1983675668,
				"z": 6.5185737417,
				"element": "C" 
			},
			{
				"x": 2.6974678978,
				"y": 1.2592565436,
				"z": 7.1250668419,
				"element": "C" 
			},
			{
				"x": 1.2127825584,
				"y": 1.1422864953,
				"z": 6.7377421372,
				"element": "C" 
			},
			{
				"x": 0.9244362559,
				"y": 1.3133620344,
				"z": 5.2396659971,
				"element": "C" 
			},
			{
				"x": -0.5722511329,
				"y": 1.2835614172,
				"z": 4.903306755,
				"element": "C" 
			},
			{
				"x": -0.869787273,
				"y": 1.4541739877,
				"z": 3.4077039472,
				"element": "C" 
			},
			{
				"x": -2.3703046577,
				"y": 1.4305991309,
				"z": 3.0810161482,
				"element": "C" 
			},
			{
				"x": -2.7081424351,
				"y": 1.6468986215,
				"z": 1.5949738473,
				"element": "C" 
			},
			{
				"x": -2.3450548633,
				"y": 0.4874240422,
				"z": 0.6336686744,
				"element": "C" 
			},
			{
				"x": -3.3048696638,
				"y": -0.7130737587,
				"z": 0.8436750992,
				"element": "C" 
			},
			{
				"x": -2.6978710636,
				"y": -2.1125544495,
				"z": 0.6341500179,
				"element": "C" 
			},
			{
				"x": -2.2173187636,
				"y": -2.4506649389,
				"z": -0.7842243335,
				"element": "C" 
			},
			{
				"x": -1.709381128,
				"y": -3.8952889435,
				"z": -0.9062946852,
				"element": "C" 
			},
			{
				"x": -1.2843700154,
				"y": -4.3126849509,
				"z": -2.3242545144,
				"element": "C" 
			},
			{
				"x": -0.0460584483,
				"y": -3.5781788995,
				"z": -2.8606731928,
				"element": "C" 
			},
			{
				"x": 0.4781331641,
				"y": -4.1172031787,
				"z": -4.2040704431,
				"element": "C" 
			},
			{
				"x": -0.4731614674,
				"y": -3.9862381994,
				"z": -5.4088108256,
				"element": "C" 
			},
			{
				"x": -0.7801632711,
				"y": -2.537396954,
				"z": -5.813882665,
				"element": "C" 
			},
			{
				"x": -1.76865333,
				"y": -2.3576315736,
				"z": -6.9811610789,
				"element": "C" 
			},
			{
				"x": -1.3188905583,
				"y": -2.9173815237,
				"z": -8.3498313721,
				"element": "C" 
			},
			{
				"x": -1.7581795389,
				"y": -4.3589984603,
				"z": -8.6403680649,
				"element": "C" 
			},
			{
				"x": -2.3414281896,
				"y": 0.9767366937,
				"z": -0.8422028771,
				"element": "C" 
			},
			{
				"x": -0.9751914559,
				"y": 1.3961435793,
				"z": -1.4150585362,
				"element": "C" 
			},
			{
				"x": -0.3042105315,
				"y": 2.6145992647,
				"z": -0.7660339828,
				"element": "C" 
			},
			{
				"x": 1.0108904206,
				"y": 3.0101848025,
				"z": -1.4521299182,
				"element": "C" 
			},
			{
				"x": 1.690515326,
				"y": 4.2256625731,
				"z": -0.8062471686,
				"element": "C" 
			},
			{
				"x": 3.0545271469,
				"y": 4.5970169298,
				"z": -1.4150564069,
				"element": "C" 
			},
			{
				"x": 3.0355552377,
				"y": 5.0890510246,
				"z": -2.8740389608,
				"element": "C" 
			},
			{
				"x": 2.2978547665,
				"y": 6.4202902868,
				"z": -3.0832298072,
				"element": "C" 
			},
			{
				"x": 2.4902937835,
				"y": 7.041020285,
				"z": -4.4791483932,
				"element": "C" 
			},
			{
				"x": 1.9822726428,
				"y": 6.251512147,
				"z": -5.7025504644,
				"element": "C" 
			},
			{
				"x": 0.4521953943,
				"y": 6.148917236,
				"z": -5.8756625872,
				"element": "C" 
			},
			{
				"x": -0.2364747684,
				"y": 5.0172367417,
				"z": -5.1011919982,
				"element": "C" 
			},
			{
				"x": 5.7021942318,
				"y": -3.1221572177,
				"z": 7.2255802579,
				"element": "H" 
			},
			{
				"x": 6.133373782,
				"y": -4.76190912,
				"z": 7.7107643722,
				"element": "H" 
			},
			{
				"x": 4.6840987097,
				"y": -4.4835163369,
				"z": 6.7363014474,
				"element": "H" 
			},
			{
				"x": 5.1001067238,
				"y": -3.5131203259,
				"z": 9.6302298305,
				"element": "H" 
			},
			{
				"x": 4.1761924529,
				"y": -4.9357444782,
				"z": 9.1894053461,
				"element": "H" 
			},
			{
				"x": 2.5116702417,
				"y": -3.5348737333,
				"z": 7.9861496364,
				"element": "H" 
			},
			{
				"x": 2.663548889,
				"y": -3.1469476278,
				"z": 9.6863713734,
				"element": "H" 
			},
			{
				"x": 2.653979147,
				"y": -0.9926174904,
				"z": 8.9041506387,
				"element": "H" 
			},
			{
				"x": 4.3773561471,
				"y": -1.2606554034,
				"z": 8.7651240213,
				"element": "H" 
			},
			{
				"x": 2.3146524825,
				"y": -1.5280524608,
				"z": 6.5120500836,
				"element": "H" 
			},
			{
				"x": 4.0085344256,
				"y": -1.9095316441,
				"z": 6.3161981724,
				"element": "H" 
			},
			{
				"x": 4.6619345874,
				"y": 0.4236794297,
				"z": 6.8413067641,
				"element": "H" 
			},
			{
				"x": 3.6405236605,
				"y": 0.3008201485,
				"z": 5.4259701221,
				"element": "H" 
			},
			{
				"x": 3.0618539664,
				"y": 2.2513674445,
				"z": 6.8247996181,
				"element": "H" 
			},
			{
				"x": 2.7777507282,
				"y": 1.2333054868,
				"z": 8.2191128908,
				"element": "H" 
			},
			{
				"x": 0.6505891485,
				"y": 1.9050774434,
				"z": 7.2937168121,
				"element": "H" 
			},
			{
				"x": 0.8127829567,
				"y": 0.1760869258,
				"z": 7.0744960273,
				"element": "H" 
			},
			{
				"x": 1.4339638697,
				"y": 0.5265837916,
				"z": 4.6674506415,
				"element": "H" 
			},
			{
				"x": 1.3550233642,
				"y": 2.2650214783,
				"z": 4.8952910898,
				"element": "H" 
			},
			{
				"x": -1.0033722057,
				"y": 0.3341698878,
				"z": 5.2524909159,
				"element": "H" 
			},
			{
				"x": -1.0872132525,
				"y": 2.0738793988,
				"z": 5.4682874762,
				"element": "H" 
			},
			{
				"x": -0.3502811369,
				"y": 0.6641540326,
				"z": 2.8488926251,
				"element": "H" 
			},
			{
				"x": -0.4398264563,
				"y": 2.4045798602,
				"z": 3.0596150005,
				"element": "H" 
			},
			{
				"x": -2.8664301719,
				"y": 2.216465051,
				"z": 3.6668153437,
				"element": "H" 
			},
			{
				"x": -2.8007270411,
				"y": 0.4836390693,
				"z": 3.4345959691,
				"element": "H" 
			},
			{
				"x": -3.7866392138,
				"y": 1.8372025417,
				"z": 1.4968744509,
				"element": "H" 
			},
			{
				"x": -2.2147158698,
				"y": 2.567084762,
				"z": 1.2600391796,
				"element": "H" 
			},
			{
				"x": -1.3277055002,
				"y": 0.1456527422,
				"z": 0.8760078807,
				"element": "H" 
			},
			{
				"x": -3.6969361844,
				"y": -0.6857759443,
				"z": 1.8676155402,
				"element": "H" 
			},
			{
				"x": -4.1808799045,
				"y": -0.5875104921,
				"z": 0.1908651183,
				"element": "H" 
			},
			{
				"x": -1.8576203426,
				"y": -2.2386461386,
				"z": 1.3325886866,
				"element": "H" 
			},
			{
				"x": -3.4472265607,
				"y": -2.8592467045,
				"z": 0.9326487215,
				"element": "H" 
			},
			{
				"x": -3.0422020539,
				"y": -2.2992612038,
				"z": -1.4960387948,
				"element": "H" 
			},
			{
				"x": -1.4235200735,
				"y": -1.7557611535,
				"z": -1.0820124585,
				"element": "H" 
			},
			{
				"x": -2.5001746843,
				"y": -4.5754173484,
				"z": -0.5610227259,
				"element": "H" 
			},
			{
				"x": -0.8644069882,
				"y": -4.0411630653,
				"z": -0.2176157465,
				"element": "H" 
			},
			{
				"x": -2.132417475,
				"y": -4.1659828504,
				"z": -3.0067896143,
				"element": "H" 
			},
			{
				"x": -1.0787082006,
				"y": -5.3922808331,
				"z": -2.3262988237,
				"element": "H" 
			},
			{
				"x": 0.7603466786,
				"y": -3.6643373131,
				"z": -2.1189330758,
				"element": "H" 
			},
			{
				"x": -0.2552197932,
				"y": -2.5050821313,
				"z": -2.9480060318,
				"element": "H" 
			},
			{
				"x": 1.4199887541,
				"y": -3.6049050818,
				"z": -4.444701836,
				"element": "H" 
			},
			{
				"x": 0.7359792003,
				"y": -5.1777132139,
				"z": -4.0770707534,
				"element": "H" 
			},
			{
				"x": -1.4133677655,
				"y": -4.5155403829,
				"z": -5.203078268,
				"element": "H" 
			},
			{
				"x": -0.013253201,
				"y": -4.5093788333,
				"z": -6.2557749861,
				"element": "H" 
			},
			{
				"x": 0.1638261065,
				"y": -2.0329955945,
				"z": -6.0679651621,
				"element": "H" 
			},
			{
				"x": -1.1836961275,
				"y": -1.9972964702,
				"z": -4.9477006172,
				"element": "H" 
			},
			{
				"x": -2.7383991672,
				"y": -2.7992755579,
				"z": -6.7102679156,
				"element": "H" 
			},
			{
				"x": -1.9531093815,
				"y": -1.2810471823,
				"z": -7.0868719152,
				"element": "H" 
			},
			{
				"x": -0.2261360792,
				"y": -2.8381169509,
				"z": -8.4336449903,
				"element": "H" 
			},
			{
				"x": -1.7231201027,
				"y": -2.2752284156,
				"z": -9.1424514887,
				"element": "H" 
			},
			{
				"x": -1.3604750365,
				"y": -5.0698014512,
				"z": -7.9103838964,
				"element": "H" 
			},
			{
				"x": -1.4227828374,
				"y": -4.6804915805,
				"z": -9.6325182273,
				"element": "H" 
			},
			{
				"x": -2.8508711104,
				"y": -4.4436230226,
				"z": -8.6178308177,
				"element": "H" 
			},
			{
				"x": -3.0507762623,
				"y": 1.8112211007,
				"z": -0.9424750598,
				"element": "H" 
			},
			{
				"x": -2.7339043186,
				"y": 0.1833231264,
				"z": -1.4869077311,
				"element": "H" 
			},
			{
				"x": -0.2877535913,
				"y": 0.5393971174,
				"z": -1.3546672235,
				"element": "H" 
			},
			{
				"x": -1.1018814373,
				"y": 1.6010176602,
				"z": -2.4873792811,
				"element": "H" 
			},
			{
				"x": -0.9966894525,
				"y": 3.4685758006,
				"z": -0.7910360396,
				"element": "H" 
			},
			{
				"x": -0.1050216973,
				"y": 2.4140945383,
				"z": 0.2945836404,
				"element": "H" 
			},
			{
				"x": 0.8132479786,
				"y": 3.209393313,
				"z": -2.51370574,
				"element": "H" 
			},
			{
				"x": 1.7030279418,
				"y": 2.1556759715,
				"z": -1.4283300231,
				"element": "H" 
			},
			{
				"x": 1.8358999644,
				"y": 4.0187653031,
				"z": 0.2629050274,
				"element": "H" 
			},
			{
				"x": 1.0123900708,
				"y": 5.0886091579,
				"z": -0.851335674,
				"element": "H" 
			},
			{
				"x": 3.7165786424,
				"y": 3.7227471085,
				"z": -1.3468791323,
				"element": "H" 
			},
			{
				"x": 3.5171056694,
				"y": 5.3748226444,
				"z": -0.7918755962,
				"element": "H" 
			},
			{
				"x": 2.6062371686,
				"y": 4.3148193599,
				"z": -3.5217015857,
				"element": "H" 
			},
			{
				"x": 4.0758020385,
				"y": 5.2118096374,
				"z": -3.2068585725,
				"element": "H" 
			},
			{
				"x": 1.2296386786,
				"y": 6.3006948739,
				"z": -2.8687907332,
				"element": "H" 
			},
			{
				"x": 2.6682575025,
				"y": 7.1425361346,
				"z": -2.3417355916,
				"element": "H" 
			},
			{
				"x": 2.0160356297,
				"y": 8.0322998288,
				"z": -4.4903141417,
				"element": "H" 
			},
			{
				"x": 3.5650312165,
				"y": 7.2235953265,
				"z": -4.6200393666,
				"element": "H" 
			},
			{
				"x": 2.3868011614,
				"y": 6.7539314529,
				"z": -6.5906966082,
				"element": "H" 
			},
			{
				"x": 2.4189577949,
				"y": 5.2436639834,
				"z": -5.7126771486,
				"element": "H" 
			},
			{
				"x": -0.0062545545,
				"y": 7.1114008324,
				"z": -5.6090787769,
				"element": "H" 
			},
			{
				"x": 0.237791998,
				"y": 6.0040679149,
				"z": -6.9423979012,
				"element": "H" 
			},
			{
				"x": -1.3054111839,
				"y": 4.9762823125,
				"z": -5.3376421555,
				"element": "H" 
			},
			{
				"x": 0.1959754358,
				"y": 4.044758632,
				"z": -5.3643754387,
				"element": "H" 
			},
			{
				"x": -0.1460598106,
				"y": 5.1362723435,
				"z": -4.0179661242,
				"element": "H" 
			}
		],
		 "valence_orbital": [ 
			{
				"type": "occ",
				"energy": -0.29666,
				"method": "rhf"
			},
			{
				"type": "occ",
				"energy": -0.29506,
				"method": "rhf"
			},
			{
				"type": "occ",
				"energy": -0.29074,
				"method": "rhf"
			},
			{
				"type": "occ",
				"energy": -0.28665,
				"method": "rhf"
			},
			{
				"type": "occ",
				"energy": -0.28473,
				"method": "rhf"
			},
			{
				"type": "unocc",
				"energy": 0.07049,
				"method": "rhf"
			},
			{
				"type": "unocc",
				"energy": 0.0763,
				"method": "rhf"
			},
			{
				"type": "unocc",
				"energy": 0.07682,
				"method": "rhf"
			},
			{
				"type": "unocc",
				"energy": 0.08364,
				"method": "rhf"
			},
			{
				"type": "unocc",
				"energy": 0.09036,
				"method": "rhf"
			}
		],
		"cosmo_sigma_profile": { 
			"-0.025": 0.0,
			"-0.024": 0.0,
			"-0.023": 0.0,
			"-0.022": 0.0,
			"-0.021": 0.0,
			"-0.02": 0.0,
			"-0.019": 0.0,
			"-0.018": 0.0,
			"-0.017": 0.0,
			"-0.016": 0.0,
			"-0.015": 0.0,
			"-0.014": 0.0,
			"-0.013": 0.0,
			"-0.012": 0.0,
			"-0.011": 0.0,
			"-0.01": 0.0,
			"-0.009": 0.0,
			"-0.008": 0.0,
			"-0.007": 0.0,
			"-0.006": 0.0,
			"-0.005": 0.0,
			"-0.004": 0.0,
			"-0.003": 3.68933804334,
			"-0.002": 74.0958073245,
			"-0.001": 208.242144746,
			"0.0": 246.846871221,
			"0.001": 190.277988171,
			"0.002": 84.2955081014,
			"0.003": 2.82097881519,
			"0.004": 0.0,
			"0.005": 0.0,
			"0.006": 0.0,
			"0.007": 0.0,
			"0.008": 0.0,
			"0.009": 0.0,
			"0.01": 0.0,
			"0.011": 0.0,
			"0.012": 0.0,
			"0.013": 0.0,
			"0.014": 0.0,
			"0.015": 0.0,
			"0.016": 0.0,
			"0.017": 0.0,
			"0.018": 0.0,
			"0.019": 0.0,
			"0.02": 0.0,
			"0.021": 0.0,
			"0.022": 0.0,
			"0.023": 0.0,
			"0.024": 0.0,
			"0.025": 0.0
		}
	}
}
