{
	 "smiles": "COC1=C(CCl)C=C(Cl)C=C1", 
	 "Tm": 318.15, 
	 "num_atms": 19, 
	 "gaussian": { 
		 "optdone": 1, 
		 "sigma_profile": "yes", 
		 "theory": "DFT", 
		 "functional": "B3LYP", 
		 "basiset": "6-31G**", 
		 "properties": { 
			 "R2extent": 3216.209, 
			 "electric_dipole_moment_norm": 3.67310285454, 
			 "electric_quadrupole_moment_norm": 8.9489499479, 
			 "total_energy": -1305.27538786, 
			 "HOMO_LUMO_gap": 0.19188, 
			 "cosmo_polarized_energy": -8.56, 
			 "cosmo_cavitation_energy": 26.45, 
			 "cosmo_dispersion_energy": -19.37, 
			 "cosmo_repulsion_energy": 1.58, 
			 "cosmo_total_nonelectrostatic_energy": 8.66, 
			 "SMD_solvation_energy": 4.66 
		},
		"coords": [
			{
				"x": 1.8067939367,
				"y": -1.2230261772,
				"z": -2.0268038329,
				"element": "C" 
			},
			{
				"x": 0.7213156146,
				"y": -1.3968205754,
				"z": -1.1268811418,
				"element": "O" 
			},
			{
				"x": 0.8104003158,
				"y": -0.8544636112,
				"z": 0.1177676316,
				"element": "C" 
			},
			{
				"x": -0.3140170241,
				"y": -1.0456894368,
				"z": 0.9513390299,
				"element": "C" 
			},
			{
				"x": -1.5056119539,
				"y": -1.799856063,
				"z": 0.4519163022,
				"element": "C" 
			},
			{
				"x": -2.6632427585,
				"y": -0.7332798374,
				"z": -0.49912982,
				"element": "Cl" 
			},
			{
				"x": -0.2968225453,
				"y": -0.5225381603,
				"z": 2.2447715944,
				"element": "C" 
			},
			{
				"x": 0.8162782851,
				"y": 0.1764677912,
				"z": 2.7098508196,
				"element": "C" 
			},
			{
				"x": 0.8163319533,
				"y": 0.8208547545,
				"z": 4.3459423665,
				"element": "Cl" 
			},
			{
				"x": 1.9246532523,
				"y": 0.3655455583,
				"z": 1.8911677185,
				"element": "C" 
			},
			{
				"x": 1.9222362398,
				"y": -0.1518862256,
				"z": 0.5940198571,
				"element": "C" 
			},
			{
				"x": 2.7257573396,
				"y": -1.6848744791,
				"z": -1.6443198494,
				"element": "H" 
			},
			{
				"x": 1.9920115263,
				"y": -0.1613628519,
				"z": -2.2306035084,
				"element": "H" 
			},
			{
				"x": 1.5110585082,
				"y": -1.7204555336,
				"z": -2.9511241748,
				"element": "H" 
			},
			{
				"x": -2.0952550143,
				"y": -2.2049143096,
				"z": 1.2735536154,
				"element": "H" 
			},
			{
				"x": -1.223152479,
				"y": -2.5951407176,
				"z": -0.2350759054,
				"element": "H" 
			},
			{
				"x": -1.1579202799,
				"y": -0.6594515543,
				"z": 2.8907565963,
				"element": "H" 
			},
			{
				"x": 2.787369013,
				"y": 0.9100959111,
				"z": 2.258685799,
				"element": "H" 
			},
			{
				"x": 2.7921160701,
				"y": 0.0005955179,
				"z": -0.0329330977,
				"element": "H" 
			}
		],
		 "valence_orbital": [ 
			{
				"type": "occ",
				"energy": -0.31067,
				"method": "rhf"
			},
			{
				"type": "occ",
				"energy": -0.29247,
				"method": "rhf"
			},
			{
				"type": "occ",
				"energy": -0.28848,
				"method": "rhf"
			},
			{
				"type": "occ",
				"energy": -0.26677,
				"method": "rhf"
			},
			{
				"type": "occ",
				"energy": -0.22796,
				"method": "rhf"
			},
			{
				"type": "unocc",
				"energy": -0.03608,
				"method": "rhf"
			},
			{
				"type": "unocc",
				"energy": -0.00759,
				"method": "rhf"
			},
			{
				"type": "unocc",
				"energy": 0.02752,
				"method": "rhf"
			},
			{
				"type": "unocc",
				"energy": 0.04124,
				"method": "rhf"
			},
			{
				"type": "unocc",
				"energy": 0.08956,
				"method": "rhf"
			}
		],
		"cosmo_sigma_profile": { 
			"-0.025": 0.0,
			"-0.024": 0.0,
			"-0.023": 0.0,
			"-0.022": 0.0,
			"-0.021": 0.0,
			"-0.02": 0.0,
			"-0.019": 0.0,
			"-0.018": 0.0,
			"-0.017": 0.0,
			"-0.016": 0.0,
			"-0.015": 0.0,
			"-0.014": 0.0,
			"-0.013": 0.0,
			"-0.012": 0.0,
			"-0.011": 0.0,
			"-0.01": 0.0,
			"-0.009": 0.481133177142,
			"-0.008": 4.35508585534,
			"-0.007": 9.05857538788,
			"-0.006": 15.8430457237,
			"-0.005": 15.7951194983,
			"-0.004": 15.3952164132,
			"-0.003": 14.536482919,
			"-0.002": 8.97860155919,
			"-0.001": 9.39700571775,
			"0.0": 11.8624707385,
			"0.001": 14.066463601,
			"0.002": 19.2672315813,
			"0.003": 22.7902664982,
			"0.004": 16.5780099201,
			"0.005": 15.038753586,
			"0.006": 10.4042701277,
			"0.007": 9.46606943648,
			"0.008": 2.00466702057,
			"0.009": 0.0635371825691,
			"0.01": 0.0,
			"0.011": 0.0,
			"0.012": 0.0,
			"0.013": 0.0,
			"0.014": 0.0,
			"0.015": 0.0,
			"0.016": 0.0,
			"0.017": 0.0,
			"0.018": 0.0,
			"0.019": 0.0,
			"0.02": 0.0,
			"0.021": 0.0,
			"0.022": 0.0,
			"0.023": 0.0,
			"0.024": 0.0,
			"0.025": 0.0
		}
	}
}
