{
	 "smiles": "CC(=O)OC1CCC2(C)C(CCC3C4CC=C(C#CC5=CC=CC=C5)C4(C)CCC23)C1", 
	 "Tm": 425.15, 
	 "num_atms": 67, 
	 "gaussian": { 
		 "optdone": 1, 
		 "sigma_profile": "yes", 
		 "theory": "DFT", 
		 "functional": "B3LYP", 
		 "basiset": "6-31G**", 
		 "properties": { 
			 "R2extent": 23241.9007, 
			 "electric_dipole_moment_norm": 1.98709985909, 
			 "electric_quadrupole_moment_norm": 24.2072198329, 
			 "total_energy": -1277.19094238, 
			 "HOMO_LUMO_gap": 0.16184, 
			 "cosmo_polarized_energy": -11.74, 
			 "cosmo_cavitation_energy": 62.45, 
			 "cosmo_dispersion_energy": -42.3, 
			 "cosmo_repulsion_energy": 3.16, 
			 "cosmo_total_nonelectrostatic_energy": 23.3, 
			 "SMD_solvation_energy": 10.13 
		},
		"coords": [
			{
				"x": -6.7030696461,
				"y": -4.5481577851,
				"z": -3.1778176893,
				"element": "C" 
			},
			{
				"x": -5.3856911198,
				"y": -3.8284948059,
				"z": -3.3581455663,
				"element": "C" 
			},
			{
				"x": -4.582609093,
				"y": -4.0513511279,
				"z": -4.2388755971,
				"element": "O" 
			},
			{
				"x": -5.2198359313,
				"y": -2.8886341953,
				"z": -2.3991633976,
				"element": "O" 
			},
			{
				"x": -3.997678921,
				"y": -2.0968496285,
				"z": -2.4524449585,
				"element": "C" 
			},
			{
				"x": -4.32759535,
				"y": -0.7666040443,
				"z": -1.7650541896,
				"element": "C" 
			},
			{
				"x": -3.0510619367,
				"y": -0.110849449,
				"z": -1.2265874649,
				"element": "C" 
			},
			{
				"x": -2.3433069436,
				"y": -0.9449518115,
				"z": -0.0993591879,
				"element": "C" 
			},
			{
				"x": -2.908296532,
				"y": -0.4476331724,
				"z": 1.2529339015,
				"element": "C" 
			},
			{
				"x": -2.7378197928,
				"y": -2.4573249746,
				"z": -0.2591825137,
				"element": "C" 
			},
			{
				"x": -1.8424315156,
				"y": -3.4571392503,
				"z": 0.5375486232,
				"element": "C" 
			},
			{
				"x": -0.6468894395,
				"y": -2.8301838755,
				"z": 1.2644982682,
				"element": "C" 
			},
			{
				"x": 0.1168573423,
				"y": -1.8966160397,
				"z": 0.3231023953,
				"element": "C" 
			},
			{
				"x": 1.378840509,
				"y": -1.3024616222,
				"z": 0.9520561034,
				"element": "C" 
			},
			{
				"x": 2.5333855413,
				"y": -2.2065335821,
				"z": 1.4318501421,
				"element": "C" 
			},
			{
				"x": 3.6780358028,
				"y": -1.218905059,
				"z": 1.4773112823,
				"element": "C" 
			},
			{
				"x": 3.4170041315,
				"y": -0.1114686049,
				"z": 0.7472457509,
				"element": "C" 
			},
			{
				"x": 4.276517335,
				"y": 0.9944593108,
				"z": 0.5479928767,
				"element": "C" 
			},
			{
				"x": 4.9694212061,
				"y": 1.9763357448,
				"z": 0.3474670565,
				"element": "C" 
			},
			{
				"x": 5.8060534798,
				"y": 3.1074167742,
				"z": 0.1264192228,
				"element": "C" 
			},
			{
				"x": 5.3893132686,
				"y": 4.154983034,
				"z": -0.7208695717,
				"element": "C" 
			},
			{
				"x": 6.2112554361,
				"y": 5.2578788512,
				"z": -0.9351094206,
				"element": "C" 
			},
			{
				"x": 7.4591299363,
				"y": 5.3398177542,
				"z": -0.3116549981,
				"element": "C" 
			},
			{
				"x": 7.8821374862,
				"y": 4.308095924,
				"z": 0.530560846,
				"element": "C" 
			},
			{
				"x": 7.0675756737,
				"y": 3.2008479891,
				"z": 0.7502870441,
				"element": "C" 
			},
			{
				"x": 2.0632276471,
				"y": -0.2570713888,
				"z": 0.0292334082,
				"element": "C" 
			},
			{
				"x": 2.3669004451,
				"y": -0.7927391281,
				"z": -1.3926364998,
				"element": "C" 
			},
			{
				"x": 1.1547754488,
				"y": 0.9955347823,
				"z": -0.0601005471,
				"element": "C" 
			},
			{
				"x": -0.326615238,
				"y": 0.6564550149,
				"z": 0.2521424431,
				"element": "C" 
			},
			{
				"x": -0.7867436024,
				"y": -0.7357786109,
				"z": -0.25165683,
				"element": "C" 
			},
			{
				"x": -2.8431402616,
				"y": -2.8354866935,
				"z": -1.7478011737,
				"element": "C" 
			},
			{
				"x": -6.8040148834,
				"y": -5.318371139,
				"z": -3.9417351923,
				"element": "H" 
			},
			{
				"x": -7.5310883158,
				"y": -3.836873066,
				"z": -3.2541215421,
				"element": "H" 
			},
			{
				"x": -6.7532033422,
				"y": -4.9981908503,
				"z": -2.1819784048,
				"element": "H" 
			},
			{
				"x": -3.7507460142,
				"y": -1.9511966842,
				"z": -3.5069445778,
				"element": "H" 
			},
			{
				"x": -4.8421224014,
				"y": -0.0984723385,
				"z": -2.4636240273,
				"element": "H" 
			},
			{
				"x": -5.0309170072,
				"y": -0.9628643596,
				"z": -0.9478733494,
				"element": "H" 
			},
			{
				"x": -3.2873623426,
				"y": 0.8903743813,
				"z": -0.850220618,
				"element": "H" 
			},
			{
				"x": -2.3624814205,
				"y": 0.0412970979,
				"z": -2.0677492404,
				"element": "H" 
			},
			{
				"x": -2.6917216337,
				"y": 0.6099331326,
				"z": 1.4247142895,
				"element": "H" 
			},
			{
				"x": -2.5284739138,
				"y": -1.0097167951,
				"z": 2.1092764728,
				"element": "H" 
			},
			{
				"x": -3.9990462385,
				"y": -0.557048894,
				"z": 1.2558741284,
				"element": "H" 
			},
			{
				"x": -3.7526047871,
				"y": -2.5495852288,
				"z": 0.146756832,
				"element": "H" 
			},
			{
				"x": -2.4577830559,
				"y": -4.0153026737,
				"z": 1.2520458573,
				"element": "H" 
			},
			{
				"x": -1.4470224978,
				"y": -4.2056032771,
				"z": -0.1614587083,
				"element": "H" 
			},
			{
				"x": -0.9619899181,
				"y": -2.290323133,
				"z": 2.1651419078,
				"element": "H" 
			},
			{
				"x": 0.0179574721,
				"y": -3.630286027,
				"z": 1.6125610566,
				"element": "H" 
			},
			{
				"x": 0.4260641876,
				"y": -2.5176678086,
				"z": -0.5302755096,
				"element": "H" 
			},
			{
				"x": 1.0715015208,
				"y": -0.7459830797,
				"z": 1.8490629099,
				"element": "H" 
			},
			{
				"x": 2.3369613278,
				"y": -2.6775627368,
				"z": 2.4019268063,
				"element": "H" 
			},
			{
				"x": 2.7457436536,
				"y": -3.0251183448,
				"z": 0.7253462335,
				"element": "H" 
			},
			{
				"x": 4.6041110858,
				"y": -1.3957401426,
				"z": 2.014927078,
				"element": "H" 
			},
			{
				"x": 4.4193442211,
				"y": 4.0884476531,
				"z": -1.2032055558,
				"element": "H" 
			},
			{
				"x": 5.8772783914,
				"y": 6.0570177156,
				"z": -1.5907935292,
				"element": "H" 
			},
			{
				"x": 8.0976740409,
				"y": 6.2018454929,
				"z": -0.4810280106,
				"element": "H" 
			},
			{
				"x": 8.8513197493,
				"y": 4.3665461111,
				"z": 1.0177442999,
				"element": "H" 
			},
			{
				"x": 7.3933208307,
				"y": 2.3974284854,
				"z": 1.4031425191,
				"element": "H" 
			},
			{
				"x": 2.8995941386,
				"y": -1.7483206637,
				"z": -1.364926089,
				"element": "H" 
			},
			{
				"x": 1.4588241733,
				"y": -0.9240423459,
				"z": -1.9882681001,
				"element": "H" 
			},
			{
				"x": 3.0044757503,
				"y": -0.0749683749,
				"z": -1.9196974833,
				"element": "H" 
			},
			{
				"x": 1.4964132306,
				"y": 1.7649149951,
				"z": 0.6414340682,
				"element": "H" 
			},
			{
				"x": 1.2346883344,
				"y": 1.43762946,
				"z": -1.0601508061,
				"element": "H" 
			},
			{
				"x": -0.9674444464,
				"y": 1.4329207174,
				"z": -0.1804489175,
				"element": "H" 
			},
			{
				"x": -0.4797697285,
				"y": 0.715911424,
				"z": 1.3347589067,
				"element": "H" 
			},
			{
				"x": -0.6095060119,
				"y": -0.7355469389,
				"z": -1.3337808891,
				"element": "H" 
			},
			{
				"x": -1.9021073195,
				"y": -2.6018028903,
				"z": -2.2624901435,
				"element": "H" 
			},
			{
				"x": -2.9904121958,
				"y": -3.9127692038,
				"z": -1.8689324301,
				"element": "H" 
			}
		],
		 "valence_orbital": [ 
			{
				"type": "occ",
				"energy": -0.26312,
				"method": "rhf"
			},
			{
				"type": "occ",
				"energy": -0.26256,
				"method": "rhf"
			},
			{
				"type": "occ",
				"energy": -0.25348,
				"method": "rhf"
			},
			{
				"type": "occ",
				"energy": -0.25323,
				"method": "rhf"
			},
			{
				"type": "occ",
				"energy": -0.2037,
				"method": "rhf"
			},
			{
				"type": "unocc",
				"energy": -0.04186,
				"method": "rhf"
			},
			{
				"type": "unocc",
				"energy": -0.00184,
				"method": "rhf"
			},
			{
				"type": "unocc",
				"energy": 0.01741,
				"method": "rhf"
			},
			{
				"type": "unocc",
				"energy": 0.0241,
				"method": "rhf"
			},
			{
				"type": "unocc",
				"energy": 0.05179,
				"method": "rhf"
			}
		],
		"cosmo_sigma_profile": { 
			"-0.025": 0.0,
			"-0.024": 0.0,
			"-0.023": 0.0,
			"-0.022": 0.0,
			"-0.021": 0.0,
			"-0.02": 0.0,
			"-0.019": 0.0,
			"-0.018": 0.0,
			"-0.017": 0.0,
			"-0.016": 0.0,
			"-0.015": 0.0,
			"-0.014": 0.0,
			"-0.013": 0.0,
			"-0.012": 0.0,
			"-0.011": 0.0,
			"-0.01": 0.0,
			"-0.009": 0.0,
			"-0.008": 0.0,
			"-0.007": 0.68220642402,
			"-0.006": 12.5897667448,
			"-0.005": 18.6649940842,
			"-0.004": 23.3581125719,
			"-0.003": 48.2373632877,
			"-0.002": 69.6656178035,
			"-0.001": 78.2997948593,
			"0.0": 63.4596145645,
			"0.001": 44.5086323392,
			"0.002": 29.4254928191,
			"0.003": 22.0649586827,
			"0.004": 25.6215509423,
			"0.005": 21.6660631897,
			"0.006": 9.06850684288,
			"0.007": 3.86559678978,
			"0.008": 1.92460679741,
			"0.009": 2.41967640694,
			"0.01": 1.91584148888,
			"0.011": 2.42053505851,
			"0.012": 4.48062357925,
			"0.013": 2.35459784284,
			"0.014": 0.197826202598,
			"0.015": 0.0,
			"0.016": 0.0,
			"0.017": 0.0,
			"0.018": 0.0,
			"0.019": 0.0,
			"0.02": 0.0,
			"0.021": 0.0,
			"0.022": 0.0,
			"0.023": 0.0,
			"0.024": 0.0,
			"0.025": 0.0
		}
	}
}
