{
	 "smiles": "O=C1C2=C(C=CC=C2)C(=O)C1(CN1CCOCC1)C1=CC=CC=C1", 
	 "Tm": 361.15, 
	 "num_atms": 43, 
	 "gaussian": { 
		 "optdone": 1, 
		 "sigma_profile": "yes", 
		 "theory": "DFT", 
		 "functional": "B3LYP", 
		 "basiset": "6-31G**", 
		 "properties": { 
			 "R2extent": 8017.6278, 
			 "electric_dipole_moment_norm": 2.82690197566, 
			 "electric_quadrupole_moment_norm": 18.2018697847, 
			 "total_energy": -1053.96912783, 
			 "HOMO_LUMO_gap": 0.125, 
			 "cosmo_polarized_energy": -13.05, 
			 "cosmo_cavitation_energy": 44.48, 
			 "cosmo_dispersion_energy": -30.38, 
			 "cosmo_repulsion_energy": 2.3, 
			 "cosmo_total_nonelectrostatic_energy": 16.39, 
			 "SMD_solvation_energy": 6.9 
		},
		"coords": [
			{
				"x": 0.6246244052,
				"y": -2.8109230211,
				"z": -0.9176741112,
				"element": "O" 
			},
			{
				"x": 0.2266542973,
				"y": -1.6623161979,
				"z": -0.8363850434,
				"element": "C" 
			},
			{
				"x": -1.1802611006,
				"y": -1.2227419649,
				"z": -1.0202167602,
				"element": "C" 
			},
			{
				"x": -1.2984580467,
				"y": 0.1367508361,
				"z": -0.7169116278,
				"element": "C" 
			},
			{
				"x": -2.530306604,
				"y": 0.7889026271,
				"z": -0.7864237049,
				"element": "C" 
			},
			{
				"x": -3.6401875979,
				"y": 0.0415888733,
				"z": -1.1794996849,
				"element": "C" 
			},
			{
				"x": -3.5211649736,
				"y": -1.3267363005,
				"z": -1.4848111628,
				"element": "C" 
			},
			{
				"x": -2.289852963,
				"y": -1.9766613667,
				"z": -1.403891935,
				"element": "C" 
			},
			{
				"x": 0.0201630403,
				"y": 0.6792956747,
				"z": -0.3019701157,
				"element": "C" 
			},
			{
				"x": 0.2138229417,
				"y": 1.7945263764,
				"z": 0.1507146677,
				"element": "O" 
			},
			{
				"x": 1.0891719567,
				"y": -0.4213732793,
				"z": -0.4965235745,
				"element": "C" 
			},
			{
				"x": 1.8693250081,
				"y": -0.687488404,
				"z": 0.8247823942,
				"element": "C" 
			},
			{
				"x": 1.00637477,
				"y": -1.1454860996,
				"z": 1.9047627849,
				"element": "N" 
			},
			{
				"x": 1.3898525849,
				"y": -2.4382032436,
				"z": 2.4813683736,
				"element": "C" 
			},
			{
				"x": 0.5322668258,
				"y": -2.7279077825,
				"z": 3.7062282809,
				"element": "C" 
			},
			{
				"x": 0.7195664174,
				"y": -1.77119969,
				"z": 4.749876363,
				"element": "O" 
			},
			{
				"x": 1.1552058204,
				"y": -0.4911467823,
				"z": 4.2986833996,
				"element": "C" 
			},
			{
				"x": 0.6083773569,
				"y": -0.146798988,
				"z": 2.9138289143,
				"element": "C" 
			},
			{
				"x": 2.076785742,
				"y": -0.0600416585,
				"z": -1.6211029453,
				"element": "C" 
			},
			{
				"x": 2.6353851095,
				"y": -1.0574110297,
				"z": -2.4359537724,
				"element": "C" 
			},
			{
				"x": 3.5762687438,
				"y": -0.7312391377,
				"z": -3.4137981566,
				"element": "C" 
			},
			{
				"x": 3.9818054961,
				"y": 0.5916851869,
				"z": -3.5918620654,
				"element": "C" 
			},
			{
				"x": 3.4427458987,
				"y": 1.5871817536,
				"z": -2.7766391931,
				"element": "C" 
			},
			{
				"x": 2.5006158811,
				"y": 1.2665561455,
				"z": -1.7982046636,
				"element": "C" 
			},
			{
				"x": -2.6080863922,
				"y": 1.8429874474,
				"z": -0.5397573169,
				"element": "H" 
			},
			{
				"x": -4.6141027621,
				"y": 0.517400722,
				"z": -1.2488387564,
				"element": "H" 
			},
			{
				"x": -4.4054629056,
				"y": -1.8816159444,
				"z": -1.7846285173,
				"element": "H" 
			},
			{
				"x": -2.1841010178,
				"y": -3.0330033925,
				"z": -1.6295547658,
				"element": "H" 
			},
			{
				"x": 2.6162919456,
				"y": -1.4555503269,
				"z": 0.5990494914,
				"element": "H" 
			},
			{
				"x": 2.4138412993,
				"y": 0.2311706146,
				"z": 1.0846760364,
				"element": "H" 
			},
			{
				"x": 2.4552102629,
				"y": -2.4701343739,
				"z": 2.7762491862,
				"element": "H" 
			},
			{
				"x": 1.2394828081,
				"y": -3.2243202404,
				"z": 1.7321931697,
				"element": "H" 
			},
			{
				"x": 0.7881319007,
				"y": -3.7085119867,
				"z": 4.1216745144,
				"element": "H" 
			},
			{
				"x": -0.5269366201,
				"y": -2.7546711063,
				"z": 3.4060760025,
				"element": "H" 
			},
			{
				"x": 0.8059098777,
				"y": 0.2382620722,
				"z": 5.0377752021,
				"element": "H" 
			},
			{
				"x": 2.256309681,
				"y": -0.4465460028,
				"z": 4.284089743,
				"element": "H" 
			},
			{
				"x": -0.4875911742,
				"y": -0.0809711802,
				"z": 2.9736471964,
				"element": "H" 
			},
			{
				"x": 0.9644618573,
				"y": 0.8438521506,
				"z": 2.6129692371,
				"element": "H" 
			},
			{
				"x": 2.3392801213,
				"y": -2.0912677912,
				"z": -2.3005836415,
				"element": "H" 
			},
			{
				"x": 3.9927609402,
				"y": -1.5181367094,
				"z": -4.0365215197,
				"element": "H" 
			},
			{
				"x": 4.7134747365,
				"y": 0.8433030708,
				"z": -4.3543403739,
				"element": "H" 
			},
			{
				"x": 3.754133831,
				"y": 2.6208748566,
				"z": -2.8990153865,
				"element": "H" 
			},
			{
				"x": 2.0925106002,
				"y": 2.0484655933,
				"z": -1.1679361627,
				"element": "H" 
			}
		],
		 "valence_orbital": [ 
			{
				"type": "occ",
				"energy": -0.24851,
				"method": "rhf"
			},
			{
				"type": "occ",
				"energy": -0.24555,
				"method": "rhf"
			},
			{
				"type": "occ",
				"energy": -0.24472,
				"method": "rhf"
			},
			{
				"type": "occ",
				"energy": -0.24096,
				"method": "rhf"
			},
			{
				"type": "occ",
				"energy": -0.20533,
				"method": "rhf"
			},
			{
				"type": "unocc",
				"energy": -0.08033,
				"method": "rhf"
			},
			{
				"type": "unocc",
				"energy": -0.06364,
				"method": "rhf"
			},
			{
				"type": "unocc",
				"energy": -0.00364,
				"method": "rhf"
			},
			{
				"type": "unocc",
				"energy": -0.00077,
				"method": "rhf"
			},
			{
				"type": "unocc",
				"energy": 0.02784,
				"method": "rhf"
			}
		],
		"cosmo_sigma_profile": { 
			"-0.025": 0.0,
			"-0.024": 0.0,
			"-0.023": 0.0,
			"-0.022": 0.0,
			"-0.021": 0.0,
			"-0.02": 0.0,
			"-0.019": 0.0,
			"-0.018": 0.0,
			"-0.017": 0.0,
			"-0.016": 0.0,
			"-0.015": 0.0,
			"-0.014": 0.0,
			"-0.013": 0.0,
			"-0.012": 0.0,
			"-0.011": 0.0,
			"-0.01": 0.0,
			"-0.009": 0.0,
			"-0.008": 1.803186909,
			"-0.007": 8.64086988696,
			"-0.006": 12.2725185893,
			"-0.005": 19.7581851869,
			"-0.004": 31.6468418159,
			"-0.003": 43.8264653055,
			"-0.002": 35.9917078722,
			"-0.001": 32.0996878567,
			"0.0": 26.4950154836,
			"0.001": 31.2559505017,
			"0.002": 25.5973527644,
			"0.003": 15.4068920774,
			"0.004": 14.7597720977,
			"0.005": 14.0827152819,
			"0.006": 9.62507005495,
			"0.007": 3.61144834709,
			"0.008": 3.90339691068,
			"0.009": 4.3877427668,
			"0.01": 5.28554074552,
			"0.011": 6.82938063447,
			"0.012": 2.5316244592,
			"0.013": 1.53983689751,
			"0.014": 1.44461503817,
			"0.015": 0.00679801144562,
			"0.016": 0.0,
			"0.017": 0.0,
			"0.018": 0.0,
			"0.019": 0.0,
			"0.02": 0.0,
			"0.021": 0.0,
			"0.022": 0.0,
			"0.023": 0.0,
			"0.024": 0.0,
			"0.025": 0.0
		}
	}
}
