{
	 "smiles": "S=C=NC1=CC2=C(C=CC=C2)C=C1", 
	 "Tm": 333.15, 
	 "num_atms": 20, 
	 "gaussian": { 
		 "optdone": 1, 
		 "sigma_profile": "yes", 
		 "theory": "DFT", 
		 "functional": "B3LYP", 
		 "basiset": "6-31G**", 
		 "properties": { 
			 "R2extent": 4847.7923, 
			 "electric_dipole_moment_norm": 4.31741044725, 
			 "electric_quadrupole_moment_norm": 17.0329093695, 
			 "total_energy": -876.335153238, 
			 "HOMO_LUMO_gap": 0.15914, 
			 "cosmo_polarized_energy": -6.48, 
			 "cosmo_cavitation_energy": 27.44, 
			 "cosmo_dispersion_energy": -20.61, 
			 "cosmo_repulsion_energy": 1.57, 
			 "cosmo_total_nonelectrostatic_energy": 8.4, 
			 "SMD_solvation_energy": 4.99 
		},
		"coords": [
			{
				"x": -2.9037863366,
				"y": -2.4900398683,
				"z": -5.4867529853,
				"element": "S" 
			},
			{
				"x": -2.1753457808,
				"y": -1.7764344844,
				"z": -4.2606424469,
				"element": "C" 
			},
			{
				"x": -1.6347895898,
				"y": -1.2440693479,
				"z": -3.3483701594,
				"element": "N" 
			},
			{
				"x": -0.9993236646,
				"y": -0.6372132683,
				"z": -2.2937836818,
				"element": "C" 
			},
			{
				"x": -1.5091319737,
				"y": -0.7485795158,
				"z": -1.0108510019,
				"element": "C" 
			},
			{
				"x": -0.8535230714,
				"y": -0.1221204191,
				"z": 0.0776176391,
				"element": "C" 
			},
			{
				"x": 0.3439905613,
				"y": 0.6291315859,
				"z": -0.1634995042,
				"element": "C" 
			},
			{
				"x": 0.9959583206,
				"y": 1.2543465976,
				"z": 0.9313457293,
				"element": "C" 
			},
			{
				"x": 0.4908991085,
				"y": 1.1446715817,
				"z": 2.2079876833,
				"element": "C" 
			},
			{
				"x": -0.6921836027,
				"y": 0.4025888178,
				"z": 2.4469033302,
				"element": "C" 
			},
			{
				"x": -1.3488815963,
				"y": -0.2160025653,
				"z": 1.4073676912,
				"element": "C" 
			},
			{
				"x": 0.8366418861,
				"y": 0.7210767041,
				"z": -1.4945596355,
				"element": "C" 
			},
			{
				"x": 0.1905194181,
				"y": 0.1086454672,
				"z": -2.5388918081,
				"element": "C" 
			},
			{
				"x": -2.4162089269,
				"y": -1.3197289285,
				"z": -0.8409135169,
				"element": "H" 
			},
			{
				"x": 1.9032485894,
				"y": 1.8228454704,
				"z": 0.7445024614,
				"element": "H" 
			},
			{
				"x": 0.9984133432,
				"y": 1.6274210763,
				"z": 3.0378106373,
				"element": "H" 
			},
			{
				"x": -1.0803568342,
				"y": 0.3235599397,
				"z": 3.4580835893,
				"element": "H" 
			},
			{
				"x": -2.2563661714,
				"y": -0.7854793064,
				"z": 1.5892589963,
				"element": "H" 
			},
			{
				"x": 1.7438026766,
				"y": 1.2898962826,
				"z": -1.6794579589,
				"element": "H" 
			},
			{
				"x": 0.5655236447,
				"y": 0.1783841806,
				"z": -3.5541550588,
				"element": "H" 
			}
		],
		 "valence_orbital": [ 
			{
				"type": "occ",
				"energy": -0.30205,
				"method": "rhf"
			},
			{
				"type": "occ",
				"energy": -0.27663,
				"method": "rhf"
			},
			{
				"type": "occ",
				"energy": -0.25036,
				"method": "rhf"
			},
			{
				"type": "occ",
				"energy": -0.24302,
				"method": "rhf"
			},
			{
				"type": "occ",
				"energy": -0.22058,
				"method": "rhf"
			},
			{
				"type": "unocc",
				"energy": -0.06144,
				"method": "rhf"
			},
			{
				"type": "unocc",
				"energy": -0.03667,
				"method": "rhf"
			},
			{
				"type": "unocc",
				"energy": 0.00632,
				"method": "rhf"
			},
			{
				"type": "unocc",
				"energy": 0.01181,
				"method": "rhf"
			},
			{
				"type": "unocc",
				"energy": 0.03361,
				"method": "rhf"
			}
		],
		"cosmo_sigma_profile": { 
			"-0.025": 0.0,
			"-0.024": 0.0,
			"-0.023": 0.0,
			"-0.022": 0.0,
			"-0.021": 0.0,
			"-0.02": 0.0,
			"-0.019": 0.0,
			"-0.018": 0.0,
			"-0.017": 0.0,
			"-0.016": 0.0,
			"-0.015": 0.0,
			"-0.014": 0.0,
			"-0.013": 0.0,
			"-0.012": 0.0,
			"-0.011": 0.0,
			"-0.01": 0.0,
			"-0.009": 0.0,
			"-0.008": 0.686310169892,
			"-0.007": 7.76980475248,
			"-0.006": 15.8688576454,
			"-0.005": 14.8190815143,
			"-0.004": 13.8147262711,
			"-0.003": 11.5583421545,
			"-0.002": 13.1271865661,
			"-0.001": 19.9011805947,
			"0.0": 18.524778162,
			"0.001": 16.3695160234,
			"0.002": 22.3784385194,
			"0.003": 26.1629599011,
			"0.004": 16.9325146056,
			"0.005": 11.7429545935,
			"0.006": 12.9715700242,
			"0.007": 2.83810509625,
			"0.008": 0.0,
			"0.009": 0.0,
			"0.01": 0.0,
			"0.011": 0.0,
			"0.012": 0.0,
			"0.013": 0.0,
			"0.014": 0.0,
			"0.015": 0.0,
			"0.016": 0.0,
			"0.017": 0.0,
			"0.018": 0.0,
			"0.019": 0.0,
			"0.02": 0.0,
			"0.021": 0.0,
			"0.022": 0.0,
			"0.023": 0.0,
			"0.024": 0.0,
			"0.025": 0.0
		}
	}
}
