{
	 "smiles": "OC1=CC(=O)C2=C3C(C=CC=C13)=CC=C2", 
	 "Tm": 535.15, 
	 "num_atms": 23, 
	 "gaussian": { 
		 "optdone": 1, 
		 "sigma_profile": "yes", 
		 "theory": "DFT", 
		 "functional": "B3LYP", 
		 "basiset": "6-31G**", 
		 "properties": { 
			 "R2extent": 3186.1778, 
			 "electric_dipole_moment_norm": 3.66282641276, 
			 "electric_quadrupole_moment_norm": 15.9211093577, 
			 "total_energy": -650.667019757, 
			 "HOMO_LUMO_gap": 0.13504, 
			 "cosmo_polarized_energy": -14.64, 
			 "cosmo_cavitation_energy": 26.86, 
			 "cosmo_dispersion_energy": -20.3, 
			 "cosmo_repulsion_energy": 1.52, 
			 "cosmo_total_nonelectrostatic_energy": 8.08, 
			 "SMD_solvation_energy": 5.0 
		},
		"coords": [
			{
				"x": -1.2775377428,
				"y": -3.0951097036,
				"z": -1.6747224254,
				"element": "O" 
			},
			{
				"x": -1.2890355262,
				"y": -2.159615809,
				"z": -0.6908260131,
				"element": "C" 
			},
			{
				"x": -2.4305950616,
				"y": -1.6376654301,
				"z": -0.1682505934,
				"element": "C" 
			},
			{
				"x": -2.4135385216,
				"y": -0.6326391167,
				"z": 0.8894112471,
				"element": "C" 
			},
			{
				"x": -3.4489079352,
				"y": -0.1599720443,
				"z": 1.3633332092,
				"element": "O" 
			},
			{
				"x": -1.0639827376,
				"y": -0.2050629071,
				"z": 1.3709309985,
				"element": "C" 
			},
			{
				"x": 0.1119122018,
				"y": -0.769229344,
				"z": 0.8046922404,
				"element": "C" 
			},
			{
				"x": 1.3919434901,
				"y": -0.3488907368,
				"z": 1.2768214656,
				"element": "C" 
			},
			{
				"x": 2.5601308807,
				"y": -0.9202014089,
				"z": 0.7028824359,
				"element": "C" 
			},
			{
				"x": 2.4640441994,
				"y": -1.8662650889,
				"z": -0.2948367448,
				"element": "C" 
			},
			{
				"x": 1.2001914229,
				"y": -2.2843294963,
				"z": -0.7641704789,
				"element": "C" 
			},
			{
				"x": 0.0366107497,
				"y": -1.7510920301,
				"z": -0.2302068992,
				"element": "C" 
			},
			{
				"x": 1.4543364178,
				"y": 0.6274320683,
				"z": 2.3056120112,
				"element": "C" 
			},
			{
				"x": 0.3012618317,
				"y": 1.1635819612,
				"z": 2.8429179306,
				"element": "C" 
			},
			{
				"x": -0.9599025366,
				"y": 0.7452924804,
				"z": 2.3733981735,
				"element": "C" 
			},
			{
				"x": -2.1889814202,
				"y": -3.3071828354,
				"z": -1.9188962306,
				"element": "H" 
			},
			{
				"x": -3.4095004957,
				"y": -1.9516580581,
				"z": -0.5213381161,
				"element": "H" 
			},
			{
				"x": 3.5332453438,
				"y": -0.598171046,
				"z": 1.0644135144,
				"element": "H" 
			},
			{
				"x": 3.3619644142,
				"y": -2.2969923184,
				"z": -0.7271227493,
				"element": "H" 
			},
			{
				"x": 1.1317096592,
				"y": -3.028939065,
				"z": -1.5492214773,
				"element": "H" 
			},
			{
				"x": 2.429339263,
				"y": 0.9469883643,
				"z": 2.6645793147,
				"element": "H" 
			},
			{
				"x": 0.3626019474,
				"y": 1.9097204695,
				"z": 3.6294510513,
				"element": "H" 
			},
			{
				"x": -1.8785098439,
				"y": 1.1543010951,
				"z": 2.7823481356,
				"element": "H" 
			}
		],
		 "valence_orbital": [ 
			{
				"type": "occ",
				"energy": -0.29705,
				"method": "rhf"
			},
			{
				"type": "occ",
				"energy": -0.25748,
				"method": "rhf"
			},
			{
				"type": "occ",
				"energy": -0.24755,
				"method": "rhf"
			},
			{
				"type": "occ",
				"energy": -0.23519,
				"method": "rhf"
			},
			{
				"type": "occ",
				"energy": -0.22078,
				"method": "rhf"
			},
			{
				"type": "unocc",
				"energy": -0.08574,
				"method": "rhf"
			},
			{
				"type": "unocc",
				"energy": -0.01922,
				"method": "rhf"
			},
			{
				"type": "unocc",
				"energy": -0.00312,
				"method": "rhf"
			},
			{
				"type": "unocc",
				"energy": 0.01119,
				"method": "rhf"
			},
			{
				"type": "unocc",
				"energy": 0.05927,
				"method": "rhf"
			}
		],
		"cosmo_sigma_profile": { 
			"-0.025": 0.0,
			"-0.024": 0.0,
			"-0.023": 0.0,
			"-0.022": 0.0,
			"-0.021": 0.0,
			"-0.02": 0.0,
			"-0.019": 0.52217180859,
			"-0.018": 1.29599905826,
			"-0.017": 0.738582885013,
			"-0.016": 1.04099583122,
			"-0.015": 1.43718980411,
			"-0.014": 0.99598198288,
			"-0.013": 0.472474917619,
			"-0.012": 0.613049365611,
			"-0.011": 1.50672085181,
			"-0.01": 0.857273372139,
			"-0.009": 0.816949724299,
			"-0.008": 1.20023592557,
			"-0.007": 8.73781965417,
			"-0.006": 13.3121831234,
			"-0.005": 14.4899682253,
			"-0.004": 10.1812739519,
			"-0.003": 8.96352467977,
			"-0.002": 8.31358640746,
			"-0.001": 10.8034484315,
			"0.0": 16.8614944805,
			"0.001": 21.673230551,
			"0.002": 34.4280632121,
			"0.003": 22.0600197882,
			"0.004": 5.67664674371,
			"0.005": 4.10303166204,
			"0.006": 3.19003575391,
			"0.007": 3.49150596474,
			"0.008": 2.6876238982,
			"0.009": 1.39127609264,
			"0.01": 1.38775463151,
			"0.011": 1.98824450514,
			"0.012": 2.37094781381,
			"0.013": 4.08107739835,
			"0.014": 3.61462523982,
			"0.015": 1.07916972565,
			"0.016": 0.0,
			"0.017": 0.0,
			"0.018": 0.0,
			"0.019": 0.0,
			"0.02": 0.0,
			"0.021": 0.0,
			"0.022": 0.0,
			"0.023": 0.0,
			"0.024": 0.0,
			"0.025": 0.0
		}
	}
}
