{
	 "smiles": "CCOC(=O)C1=C(NC(=O)C2=CC=CO2)OC2=C(C1C1=CC=C(Br)C=C1)C(=O)OC1=C2C=CC=C1", 
	 "Tm": 413.15, 
	 "num_atms": 53, 
	 "gaussian": { 
		 "optdone": 1, 
		 "sigma_profile": "yes", 
		 "theory": "DFT", 
		 "functional": "B3LYP", 
		 "basiset": "6-31G**", 
		 "properties": { 
			 "R2extent": 20177.9013, 
			 "electric_dipole_moment_norm": 6.0266765659, 
			 "electric_quadrupole_moment_norm": 30.2516077308, 
			 "total_energy": -4154.33369633, 
			 "HOMO_LUMO_gap": 0.15261, 
			 "cosmo_polarized_energy": -22.85, 
			 "cosmo_cavitation_energy": 61.25, 
			 "cosmo_dispersion_energy": -39.53, 
			 "cosmo_repulsion_energy": 2.98, 
			 "cosmo_total_nonelectrostatic_energy": 24.7, 
			 "SMD_solvation_energy": 12.41 
		},
		"coords": [
			{
				"x": 3.262503628,
				"y": 2.9040135274,
				"z": 4.3659457839,
				"element": "C" 
			},
			{
				"x": 4.0475942252,
				"y": 2.1095633188,
				"z": 3.3345337437,
				"element": "C" 
			},
			{
				"x": 3.1622371521,
				"y": 1.3896621967,
				"z": 2.4353136651,
				"element": "O" 
			},
			{
				"x": 2.6769552816,
				"y": 2.092696549,
				"z": 1.3672368021,
				"element": "C" 
			},
			{
				"x": 2.9847356865,
				"y": 3.2512993011,
				"z": 1.1561886814,
				"element": "O" 
			},
			{
				"x": 1.7901946545,
				"y": 1.3246523577,
				"z": 0.4792360466,
				"element": "C" 
			},
			{
				"x": 1.4045481298,
				"y": 0.0332154698,
				"z": 0.6811541345,
				"element": "C" 
			},
			{
				"x": 1.737328043,
				"y": -0.7621189315,
				"z": 1.7562251091,
				"element": "N" 
			},
			{
				"x": 1.2162858553,
				"y": -1.9864939899,
				"z": 2.19481641,
				"element": "C" 
			},
			{
				"x": 1.9276851918,
				"y": -2.7463366484,
				"z": 2.8360869168,
				"element": "O" 
			},
			{
				"x": -0.2013188855,
				"y": -2.2974669877,
				"z": 1.9694940829,
				"element": "C" 
			},
			{
				"x": -0.8492797199,
				"y": -3.5001414243,
				"z": 2.0788384006,
				"element": "C" 
			},
			{
				"x": -2.2311373613,
				"y": -3.2369630484,
				"z": 1.8483397251,
				"element": "C" 
			},
			{
				"x": -2.3278130079,
				"y": -1.8917740677,
				"z": 1.6314721833,
				"element": "C" 
			},
			{
				"x": -1.1072122921,
				"y": -1.3039969828,
				"z": 1.7020037556,
				"element": "O" 
			},
			{
				"x": 0.6716204574,
				"y": -0.6688387473,
				"z": -0.2388968538,
				"element": "O" 
			},
			{
				"x": 0.4891843326,
				"y": -0.1443708434,
				"z": -1.4897882718,
				"element": "C" 
			},
			{
				"x": 0.8034974062,
				"y": 1.1384900513,
				"z": -1.7874007451,
				"element": "C" 
			},
			{
				"x": 1.2890963538,
				"y": 2.1014619334,
				"z": -0.7292939948,
				"element": "C" 
			},
			{
				"x": 0.1843873228,
				"y": 3.1029151765,
				"z": -0.36026765,
				"element": "C" 
			},
			{
				"x": -0.8986246222,
				"y": 2.7218290321,
				"z": 0.4411380483,
				"element": "C" 
			},
			{
				"x": -1.9137844974,
				"y": 3.6250269036,
				"z": 0.7557315891,
				"element": "C" 
			},
			{
				"x": -1.8419439294,
				"y": 4.9244207591,
				"z": 0.2576720702,
				"element": "C" 
			},
			{
				"x": -3.2281911439,
				"y": 6.1721718414,
				"z": 0.6864228947,
				"element": "Br" 
			},
			{
				"x": -0.7775798968,
				"y": 5.3284596387,
				"z": -0.5451320588,
				"element": "C" 
			},
			{
				"x": 0.2296155399,
				"y": 4.4127099302,
				"z": -0.8491798313,
				"element": "C" 
			},
			{
				"x": 0.6601269251,
				"y": 1.6198369329,
				"z": -3.1573896507,
				"element": "C" 
			},
			{
				"x": 0.9666993132,
				"y": 2.7228577419,
				"z": -3.548004445,
				"element": "O" 
			},
			{
				"x": 0.1324869236,
				"y": 0.7254052208,
				"z": -4.0867552292,
				"element": "O" 
			},
			{
				"x": -0.2140991052,
				"y": -0.5541624016,
				"z": -3.7663010623,
				"element": "C" 
			},
			{
				"x": -0.0471184383,
				"y": -1.0626148297,
				"z": -2.4653072897,
				"element": "C" 
			},
			{
				"x": -0.4081522784,
				"y": -2.39587106,
				"z": -2.1985262831,
				"element": "C" 
			},
			{
				"x": -0.9268577188,
				"y": -3.1903830867,
				"z": -3.2114664755,
				"element": "C" 
			},
			{
				"x": -1.090548994,
				"y": -2.6666171752,
				"z": -4.503047774,
				"element": "C" 
			},
			{
				"x": -0.7361401597,
				"y": -1.3523894756,
				"z": -4.7864002768,
				"element": "C" 
			},
			{
				"x": 3.9546629448,
				"y": 3.3772314165,
				"z": 5.0703358397,
				"element": "H" 
			},
			{
				"x": 2.589075962,
				"y": 2.2536576326,
				"z": 4.9319222485,
				"element": "H" 
			},
			{
				"x": 2.6767070368,
				"y": 3.6884773626,
				"z": 3.8814763379,
				"element": "H" 
			},
			{
				"x": 4.6912907169,
				"y": 2.758905504,
				"z": 2.7380937146,
				"element": "H" 
			},
			{
				"x": 4.649887545,
				"y": 1.3262462772,
				"z": 3.800364428,
				"element": "H" 
			},
			{
				"x": 2.5445230681,
				"y": -0.4393545826,
				"z": 2.2805595791,
				"element": "H" 
			},
			{
				"x": -0.3775089738,
				"y": -4.4449217006,
				"z": 2.3038782185,
				"element": "H" 
			},
			{
				"x": -3.0452073251,
				"y": -3.946933547,
				"z": 1.851150868,
				"element": "H" 
			},
			{
				"x": -3.1570257254,
				"y": -1.231044226,
				"z": 1.4299466741,
				"element": "H" 
			},
			{
				"x": 2.1200718696,
				"y": 2.6809012243,
				"z": -1.1407000214,
				"element": "H" 
			},
			{
				"x": -0.9537855289,
				"y": 1.7116246484,
				"z": 0.8380760284,
				"element": "H" 
			},
			{
				"x": -2.7473231771,
				"y": 3.3255215816,
				"z": 1.381014505,
				"element": "H" 
			},
			{
				"x": -0.7341796358,
				"y": 6.3423036372,
				"z": -0.9263158247,
				"element": "H" 
			},
			{
				"x": 1.0556883607,
				"y": 4.7174871031,
				"z": -1.4829207907,
				"element": "H" 
			},
			{
				"x": -0.2751141184,
				"y": -2.7883403192,
				"z": -1.1966095322,
				"element": "H" 
			},
			{
				"x": -1.2048594883,
				"y": -4.2185243823,
				"z": -3.0034834751,
				"element": "H" 
			},
			{
				"x": -1.4959850786,
				"y": -3.29141254,
				"z": -5.293033038,
				"element": "H" 
			},
			{
				"x": -0.8499988243,
				"y": -0.9268732723,
				"z": -5.7772479105,
				"element": "H" 
			}
		],
		 "valence_orbital": [ 
			{
				"type": "occ",
				"energy": -0.25638,
				"method": "rhf"
			},
			{
				"type": "occ",
				"energy": -0.25409,
				"method": "rhf"
			},
			{
				"type": "occ",
				"energy": -0.24516,
				"method": "rhf"
			},
			{
				"type": "occ",
				"energy": -0.23704,
				"method": "rhf"
			},
			{
				"type": "occ",
				"energy": -0.23064,
				"method": "rhf"
			},
			{
				"type": "unocc",
				"energy": -0.07803,
				"method": "rhf"
			},
			{
				"type": "unocc",
				"energy": -0.06245,
				"method": "rhf"
			},
			{
				"type": "unocc",
				"energy": -0.02983,
				"method": "rhf"
			},
			{
				"type": "unocc",
				"energy": -0.0196,
				"method": "rhf"
			},
			{
				"type": "unocc",
				"energy": -0.00913,
				"method": "rhf"
			}
		],
		"cosmo_sigma_profile": { 
			"-0.025": 0.0,
			"-0.024": 0.0,
			"-0.023": 0.0,
			"-0.022": 0.0,
			"-0.021": 0.0,
			"-0.02": 0.0,
			"-0.019": 0.0,
			"-0.018": 0.0,
			"-0.017": 0.0,
			"-0.016": 0.0,
			"-0.015": 0.0,
			"-0.014": 0.0,
			"-0.013": 0.0,
			"-0.012": 0.0,
			"-0.011": 0.00569191113946,
			"-0.01": 1.51719043868,
			"-0.009": 2.9352623507,
			"-0.008": 6.36815755507,
			"-0.007": 14.0720461583,
			"-0.006": 21.5484633142,
			"-0.005": 29.3839308361,
			"-0.004": 38.0919535893,
			"-0.003": 42.9207396269,
			"-0.002": 48.9709278265,
			"-0.001": 43.1771086342,
			"0.0": 46.0265855149,
			"0.001": 37.2939452348,
			"0.002": 36.5276865338,
			"0.003": 35.2416706014,
			"0.004": 23.9196754441,
			"0.005": 14.2367330769,
			"0.006": 6.86136465027,
			"0.007": 6.50631483556,
			"0.008": 4.65908459234,
			"0.009": 7.16723962166,
			"0.01": 6.62435059843,
			"0.011": 9.42306462767,
			"0.012": 10.4934138068,
			"0.013": 1.86984154125,
			"0.014": 0.0,
			"0.015": 0.0,
			"0.016": 0.0,
			"0.017": 0.0,
			"0.018": 0.0,
			"0.019": 0.0,
			"0.02": 0.0,
			"0.021": 0.0,
			"0.022": 0.0,
			"0.023": 0.0,
			"0.024": 0.0,
			"0.025": 0.0
		}
	}
}
