{
	 "smiles": "CC1=NC(Cl)=C(C(C)=C1)[N+]([O-])=O", 
	 "Tm": 333.15, 
	 "num_atms": 19, 
	 "gaussian": { 
		 "optdone": 1, 
		 "sigma_profile": "yes", 
		 "theory": "DFT", 
		 "functional": "B3LYP", 
		 "basiset": "6-31G**", 
		 "properties": { 
			 "R2extent": 2641.6735, 
			 "electric_dipole_moment_norm": 5.19368091916, 
			 "electric_quadrupole_moment_norm": 7.14842576866, 
			 "total_energy": -991.003455127, 
			 "HOMO_LUMO_gap": 0.18389, 
			 "cosmo_polarized_energy": -9.68, 
			 "cosmo_cavitation_energy": 26.03, 
			 "cosmo_dispersion_energy": -18.47, 
			 "cosmo_repulsion_energy": 1.48, 
			 "cosmo_total_nonelectrostatic_energy": 9.05, 
			 "SMD_solvation_energy": 5.63 
		},
		"coords": [
			{
				"x": 0.5714321993,
				"y": 1.5005294882,
				"z": -2.2939799336,
				"element": "C" 
			},
			{
				"x": 0.3810246326,
				"y": 0.6825908553,
				"z": -1.0427016935,
				"element": "C" 
			},
			{
				"x": 0.4949032574,
				"y": 1.3276369818,
				"z": 0.1294833085,
				"element": "N" 
			},
			{
				"x": 0.3342601159,
				"y": 0.6430322916,
				"z": 1.2469354642,
				"element": "C" 
			},
			{
				"x": 0.4912352212,
				"y": 1.523567568,
				"z": 2.7529866248,
				"element": "Cl" 
			},
			{
				"x": 0.0514799098,
				"y": -0.7203270945,
				"z": 1.2686691245,
				"element": "C" 
			},
			{
				"x": -0.0748820116,
				"y": -1.4281852173,
				"z": 0.0680832301,
				"element": "C" 
			},
			{
				"x": -0.3802449009,
				"y": -2.9029122992,
				"z": 0.0590168708,
				"element": "C" 
			},
			{
				"x": 0.0980597057,
				"y": -0.6884924643,
				"z": -1.1019129298,
				"element": "C" 
			},
			{
				"x": -0.1197623782,
				"y": -1.4430781829,
				"z": 2.5419118898,
				"element": "N" 
			},
			{
				"x": 0.8839181251,
				"y": -1.9509891706,
				"z": 3.0307496428,
				"element": "O" 
			},
			{
				"x": -1.257737937,
				"y": -1.5065294997,
				"z": 2.9949997053,
				"element": "O" 
			},
			{
				"x": -0.3252462285,
				"y": 1.4707221419,
				"z": -2.9227752881,
				"element": "H" 
			},
			{
				"x": 0.7814034938,
				"y": 2.5371884,
				"z": -2.0286611782,
				"element": "H" 
			},
			{
				"x": 1.4026190546,
				"y": 1.1132760869,
				"z": -2.8935405198,
				"element": "H" 
			},
			{
				"x": -1.3310399018,
				"y": -3.1040611047,
				"z": 0.5635816557,
				"element": "H" 
			},
			{
				"x": -0.4415519771,
				"y": -3.2826124097,
				"z": -0.9623588024,
				"element": "H" 
			},
			{
				"x": 0.3954294605,
				"y": -3.461756287,
				"z": 0.5929408153,
				"element": "H" 
			},
			{
				"x": 0.0122001592,
				"y": -1.1814000839,
				"z": -2.0656279865,
				"element": "H" 
			}
		],
		 "valence_orbital": [ 
			{
				"type": "occ",
				"energy": -0.32349,
				"method": "rhf"
			},
			{
				"type": "occ",
				"energy": -0.32007,
				"method": "rhf"
			},
			{
				"type": "occ",
				"energy": -0.2947,
				"method": "rhf"
			},
			{
				"type": "occ",
				"energy": -0.28761,
				"method": "rhf"
			},
			{
				"type": "occ",
				"energy": -0.26645,
				"method": "rhf"
			},
			{
				"type": "unocc",
				"energy": -0.08256,
				"method": "rhf"
			},
			{
				"type": "unocc",
				"energy": -0.04996,
				"method": "rhf"
			},
			{
				"type": "unocc",
				"energy": -0.04291,
				"method": "rhf"
			},
			{
				"type": "unocc",
				"energy": 0.01991,
				"method": "rhf"
			},
			{
				"type": "unocc",
				"energy": 0.08643,
				"method": "rhf"
			}
		],
		"cosmo_sigma_profile": { 
			"-0.025": 0.0,
			"-0.024": 0.0,
			"-0.023": 0.0,
			"-0.022": 0.0,
			"-0.021": 0.0,
			"-0.02": 0.0,
			"-0.019": 0.0,
			"-0.018": 0.0,
			"-0.017": 0.0,
			"-0.016": 0.0,
			"-0.015": 0.0,
			"-0.014": 0.0,
			"-0.013": 0.0,
			"-0.012": 0.0,
			"-0.011": 0.0,
			"-0.01": 0.0,
			"-0.009": 0.0,
			"-0.008": 2.19810110649,
			"-0.007": 3.90872613805,
			"-0.006": 8.57834345834,
			"-0.005": 16.0611212074,
			"-0.004": 16.7341554196,
			"-0.003": 18.6061918648,
			"-0.002": 25.1197443988,
			"-0.001": 24.0194570977,
			"0.0": 14.3951757508,
			"0.001": 12.1781309995,
			"0.002": 10.3823914424,
			"0.003": 10.7311488996,
			"0.004": 7.98053999983,
			"0.005": 6.51047706346,
			"0.006": 10.1846313369,
			"0.007": 10.4327436168,
			"0.008": 6.33839051519,
			"0.009": 2.49357858889,
			"0.01": 1.06623593745,
			"0.011": 0.873585122732,
			"0.012": 0.613702586091,
			"0.013": 0.48925891204,
			"0.014": 0.0,
			"0.015": 0.0,
			"0.016": 0.0,
			"0.017": 0.0,
			"0.018": 0.0,
			"0.019": 0.0,
			"0.02": 0.0,
			"0.021": 0.0,
			"0.022": 0.0,
			"0.023": 0.0,
			"0.024": 0.0,
			"0.025": 0.0
		}
	}
}
