{
	 "smiles": "COCCN1N=CC2=C1C=C(N)C=C2", 
	 "Tm": 360.15, 
	 "num_atms": 27, 
	 "gaussian": { 
		 "optdone": 1, 
		 "sigma_profile": "yes", 
		 "theory": "DFT", 
		 "functional": "B3LYP", 
		 "basiset": "6-31G**", 
		 "properties": { 
			 "R2extent": 3247.9843, 
			 "electric_dipole_moment_norm": 3.77589231043, 
			 "electric_quadrupole_moment_norm": 11.0675857616, 
			 "total_energy": -628.347107404, 
			 "HOMO_LUMO_gap": 0.17941, 
			 "cosmo_polarized_energy": -16.17, 
			 "cosmo_cavitation_energy": 30.47, 
			 "cosmo_dispersion_energy": -21.53, 
			 "cosmo_repulsion_energy": 1.7, 
			 "cosmo_total_nonelectrostatic_energy": 10.64, 
			 "SMD_solvation_energy": 4.49 
		},
		"coords": [
			{
				"x": 2.4115024847,
				"y": 0.7622989301,
				"z": -1.4505677214,
				"element": "C" 
			},
			{
				"x": 1.4127591863,
				"y": 0.0422159128,
				"z": -2.1415330236,
				"element": "O" 
			},
			{
				"x": 0.45662331,
				"y": 0.8535288285,
				"z": -2.7962333952,
				"element": "C" 
			},
			{
				"x": -0.6499757097,
				"y": 1.3744545759,
				"z": -1.8683571499,
				"element": "C" 
			},
			{
				"x": -1.4899729317,
				"y": 0.3177140039,
				"z": -1.3423729341,
				"element": "N" 
			},
			{
				"x": -2.4312032503,
				"y": -0.2412521021,
				"z": -2.1650531801,
				"element": "N" 
			},
			{
				"x": -2.9763261579,
				"y": -1.2301046272,
				"z": -1.4808023417,
				"element": "C" 
			},
			{
				"x": -2.3960787917,
				"y": -1.3552873331,
				"z": -0.1842638215,
				"element": "C" 
			},
			{
				"x": -1.4167682318,
				"y": -0.3298404536,
				"z": -0.1371923654,
				"element": "C" 
			},
			{
				"x": -0.6186660889,
				"y": -0.1057924621,
				"z": 0.9956807286,
				"element": "C" 
			},
			{
				"x": -0.8104419729,
				"y": -0.9384281047,
				"z": 2.0976977599,
				"element": "C" 
			},
			{
				"x": -0.0086673438,
				"y": -0.813906682,
				"z": 3.2369152684,
				"element": "N" 
			},
			{
				"x": -1.7907662612,
				"y": -1.9731006875,
				"z": 2.0576944366,
				"element": "C" 
			},
			{
				"x": -2.5740526509,
				"y": -2.1823905628,
				"z": 0.9400701669,
				"element": "C" 
			},
			{
				"x": 2.0105517519,
				"y": 1.3635992449,
				"z": -0.6198133295,
				"element": "H" 
			},
			{
				"x": 2.9653721788,
				"y": 1.4361245449,
				"z": -2.1234540119,
				"element": "H" 
			},
			{
				"x": 3.1057274341,
				"y": 0.027968847,
				"z": -1.0354368014,
				"element": "H" 
			},
			{
				"x": -0.0069030713,
				"y": 0.2272813672,
				"z": -3.5641490622,
				"element": "H" 
			},
			{
				"x": 0.9401511469,
				"y": 1.7109667099,
				"z": -3.2938851566,
				"element": "H" 
			},
			{
				"x": -1.2900252931,
				"y": 2.0613251764,
				"z": -2.4317977591,
				"element": "H" 
			},
			{
				"x": -0.230759602,
				"y": 1.9298864565,
				"z": -1.0242059277,
				"element": "H" 
			},
			{
				"x": -3.7684491495,
				"y": -1.8187152983,
				"z": -1.9254007854,
				"element": "H" 
			},
			{
				"x": 0.1351461375,
				"y": 0.6752883567,
				"z": 1.0202856821,
				"element": "H" 
			},
			{
				"x": -0.4316529849,
				"y": -1.1486163647,
				"z": 4.091790421,
				"element": "H" 
			},
			{
				"x": 0.4160584775,
				"y": 0.0946357088,
				"z": 3.3635599927,
				"element": "H" 
			},
			{
				"x": -1.9081329218,
				"y": -2.609966787,
				"z": 2.9306739251,
				"element": "H" 
			},
			{
				"x": -3.3167496941,
				"y": -2.9751871982,
				"z": 0.9340503854,
				"element": "H" 
			}
		],
		 "valence_orbital": [ 
			{
				"type": "occ",
				"energy": -0.27829,
				"method": "rhf"
			},
			{
				"type": "occ",
				"energy": -0.2696,
				"method": "rhf"
			},
			{
				"type": "occ",
				"energy": -0.25779,
				"method": "rhf"
			},
			{
				"type": "occ",
				"energy": -0.20943,
				"method": "rhf"
			},
			{
				"type": "occ",
				"energy": -0.19099,
				"method": "rhf"
			},
			{
				"type": "unocc",
				"energy": -0.01158,
				"method": "rhf"
			},
			{
				"type": "unocc",
				"energy": 0.03197,
				"method": "rhf"
			},
			{
				"type": "unocc",
				"energy": 0.06639,
				"method": "rhf"
			},
			{
				"type": "unocc",
				"energy": 0.07211,
				"method": "rhf"
			},
			{
				"type": "unocc",
				"energy": 0.08675,
				"method": "rhf"
			}
		],
		"cosmo_sigma_profile": { 
			"-0.025": 0.0,
			"-0.024": 0.0,
			"-0.023": 0.0,
			"-0.022": 0.0,
			"-0.021": 0.0,
			"-0.02": 0.0,
			"-0.019": 0.0,
			"-0.018": 0.0,
			"-0.017": 0.0,
			"-0.016": 0.0,
			"-0.015": 0.0,
			"-0.014": 0.0,
			"-0.013": 0.224833385027,
			"-0.012": 2.62562326999,
			"-0.011": 2.38686726298,
			"-0.01": 3.18560011764,
			"-0.009": 3.44278582022,
			"-0.008": 2.97498438447,
			"-0.007": 6.20098394217,
			"-0.006": 13.5088809686,
			"-0.005": 19.5625127909,
			"-0.004": 24.5697447148,
			"-0.003": 21.687525848,
			"-0.002": 18.5054673183,
			"-0.001": 11.0559197586,
			"0.0": 9.18691304533,
			"0.001": 9.28228226615,
			"0.002": 8.39086135154,
			"0.003": 8.89135274947,
			"0.004": 14.9670344267,
			"0.005": 16.4470344047,
			"0.006": 14.3465711915,
			"0.007": 6.27360424094,
			"0.008": 4.17772584849,
			"0.009": 3.66600143039,
			"0.01": 2.78548835267,
			"0.011": 3.0723194087,
			"0.012": 3.457377424,
			"0.013": 2.8288139738,
			"0.014": 1.37877587025,
			"0.015": 1.32763123543,
			"0.016": 0.416177131319,
			"0.017": 0.0,
			"0.018": 0.0,
			"0.019": 0.0,
			"0.02": 0.0,
			"0.021": 0.0,
			"0.022": 0.0,
			"0.023": 0.0,
			"0.024": 0.0,
			"0.025": 0.0
		}
	}
}
