{
	 "smiles": "CCCN1C(=O)NC(=O)C2=C1N=C(C=C2C(O)=O)C1=CC=CC=C1", 
	 "Tm": 504.15, 
	 "num_atms": 39, 
	 "gaussian": { 
		 "optdone": 1, 
		 "sigma_profile": "yes", 
		 "theory": "DFT", 
		 "functional": "B3LYP", 
		 "basiset": "6-31G**", 
		 "properties": { 
			 "R2extent": 9119.3257, 
			 "electric_dipole_moment_norm": 5.77668263452, 
			 "electric_quadrupole_moment_norm": 32.5504638068, 
			 "total_energy": -1122.08817957, 
			 "HOMO_LUMO_gap": 0.14595, 
			 "cosmo_polarized_energy": -18.55, 
			 "cosmo_cavitation_energy": 42.96, 
			 "cosmo_dispersion_energy": -30.32, 
			 "cosmo_repulsion_energy": 2.23, 
			 "cosmo_total_nonelectrostatic_energy": 14.87, 
			 "SMD_solvation_energy": 8.82 
		},
		"coords": [
			{
				"x": -2.2460164895,
				"y": 3.4051803308,
				"z": -0.2991828705,
				"element": "C" 
			},
			{
				"x": -2.0252103198,
				"y": 2.0854756131,
				"z": 0.446567596,
				"element": "C" 
			},
			{
				"x": -0.6041259227,
				"y": 1.9882497114,
				"z": 1.0094875532,
				"element": "C" 
			},
			{
				"x": -0.36699003,
				"y": 0.7288070834,
				"z": 1.7483392506,
				"element": "N" 
			},
			{
				"x": -0.6375415571,
				"y": 0.7527265672,
				"z": 3.1056758074,
				"element": "C" 
			},
			{
				"x": -1.0522297653,
				"y": 1.7262356325,
				"z": 3.7088787934,
				"element": "O" 
			},
			{
				"x": -0.3879503558,
				"y": -0.4513449602,
				"z": 3.7590249705,
				"element": "N" 
			},
			{
				"x": 0.063978582,
				"y": -1.6396950039,
				"z": 3.235778687,
				"element": "C" 
			},
			{
				"x": 0.2148283813,
				"y": -2.5877893843,
				"z": 4.0211250302,
				"element": "O" 
			},
			{
				"x": 0.3103696159,
				"y": -1.6399418494,
				"z": 1.7903489898,
				"element": "C" 
			},
			{
				"x": 0.0693166574,
				"y": -0.4213685221,
				"z": 1.0844050098,
				"element": "C" 
			},
			{
				"x": 0.2438006833,
				"y": -0.2752625959,
				"z": -0.2272782071,
				"element": "N" 
			},
			{
				"x": 0.6786998883,
				"y": -1.3149870084,
				"z": -0.9518253815,
				"element": "C" 
			},
			{
				"x": 0.9310444529,
				"y": -2.5579219373,
				"z": -0.3509144655,
				"element": "C" 
			},
			{
				"x": 0.7593307416,
				"y": -2.7497114213,
				"z": 1.0135118555,
				"element": "C" 
			},
			{
				"x": 1.0988879999,
				"y": -4.2020528792,
				"z": 1.4391484837,
				"element": "C" 
			},
			{
				"x": 1.0090891899,
				"y": -4.5634994107,
				"z": 2.7015850257,
				"element": "O" 
			},
			{
				"x": 1.4506222566,
				"y": -4.9835835806,
				"z": 0.5768106651,
				"element": "O" 
			},
			{
				"x": 0.8620124761,
				"y": -1.0926584666,
				"z": -2.4058329033,
				"element": "C" 
			},
			{
				"x": 0.2872958296,
				"y": 0.0343170325,
				"z": -3.0194406454,
				"element": "C" 
			},
			{
				"x": 0.4430398644,
				"y": 0.255997069,
				"z": -4.3846081356,
				"element": "C" 
			},
			{
				"x": 1.1833632732,
				"y": -0.6384337482,
				"z": -5.1618055418,
				"element": "C" 
			},
			{
				"x": 1.7673147279,
				"y": -1.7561730082,
				"z": -4.5625441203,
				"element": "C" 
			},
			{
				"x": 1.6077799282,
				"y": -1.9839088808,
				"z": -3.1974849358,
				"element": "C" 
			},
			{
				"x": -3.2641479291,
				"y": 3.4653403011,
				"z": -0.6948097691,
				"element": "H" 
			},
			{
				"x": -1.5545904366,
				"y": 3.5083862122,
				"z": -1.1433136619,
				"element": "H" 
			},
			{
				"x": -2.094983038,
				"y": 4.2657848925,
				"z": 0.3616886825,
				"element": "H" 
			},
			{
				"x": -2.7383723317,
				"y": 2.0004161339,
				"z": 1.2742891164,
				"element": "H" 
			},
			{
				"x": -2.2032340883,
				"y": 1.2382584558,
				"z": -0.2254029137,
				"element": "H" 
			},
			{
				"x": 0.1350983513,
				"y": 2.0382529808,
				"z": 0.2108015965,
				"element": "H" 
			},
			{
				"x": -0.424042033,
				"y": 2.794442891,
				"z": 1.7217630473,
				"element": "H" 
			},
			{
				"x": -0.5716818221,
				"y": -0.4455889249,
				"z": 4.755701263,
				"element": "H" 
			},
			{
				"x": 1.2478754737,
				"y": -3.4166657192,
				"z": -0.9252663651,
				"element": "H" 
			},
			{
				"x": 0.6986796202,
				"y": -3.8164866622,
				"z": 3.2987111686,
				"element": "H" 
			},
			{
				"x": -0.2856233029,
				"y": 0.7240397113,
				"z": -2.4108332473,
				"element": "H" 
			},
			{
				"x": -0.0145368346,
				"y": 1.1270442657,
				"z": -4.8444528036,
				"element": "H" 
			},
			{
				"x": 1.306353579,
				"y": -0.4642578072,
				"z": -6.2267405416,
				"element": "H" 
			},
			{
				"x": 2.3520567032,
				"y": -2.4512229998,
				"z": -5.1574782566,
				"element": "H" 
			},
			{
				"x": 2.0854379805,
				"y": -2.8483001136,
				"z": -2.7492278264,
				"element": "H" 
			}
		],
		 "valence_orbital": [ 
			{
				"type": "occ",
				"energy": -0.28462,
				"method": "rhf"
			},
			{
				"type": "occ",
				"energy": -0.2718,
				"method": "rhf"
			},
			{
				"type": "occ",
				"energy": -0.26967,
				"method": "rhf"
			},
			{
				"type": "occ",
				"energy": -0.26703,
				"method": "rhf"
			},
			{
				"type": "occ",
				"energy": -0.24782,
				"method": "rhf"
			},
			{
				"type": "unocc",
				"energy": -0.10187,
				"method": "rhf"
			},
			{
				"type": "unocc",
				"energy": -0.05601,
				"method": "rhf"
			},
			{
				"type": "unocc",
				"energy": -0.02431,
				"method": "rhf"
			},
			{
				"type": "unocc",
				"energy": -0.01618,
				"method": "rhf"
			},
			{
				"type": "unocc",
				"energy": -0.00642,
				"method": "rhf"
			}
		],
		"cosmo_sigma_profile": { 
			"-0.025": 0.0,
			"-0.024": 0.0,
			"-0.023": 0.0,
			"-0.022": 0.0,
			"-0.021": 0.0,
			"-0.02": 0.0,
			"-0.019": 0.0,
			"-0.018": 0.0,
			"-0.017": 0.614419351515,
			"-0.016": 0.791163433603,
			"-0.015": 0.777716557003,
			"-0.014": 0.605533887825,
			"-0.013": 0.867767361171,
			"-0.012": 0.836373166,
			"-0.011": 0.983904349774,
			"-0.01": 0.495938575954,
			"-0.009": 1.89852688774,
			"-0.008": 4.65390818174,
			"-0.007": 7.11892685784,
			"-0.006": 14.446301824,
			"-0.005": 17.7798292951,
			"-0.004": 27.760826966,
			"-0.003": 36.3069594466,
			"-0.002": 35.9226215343,
			"-0.001": 33.3221302712,
			"0.0": 29.9058101276,
			"0.001": 22.7945561571,
			"0.002": 16.4266743916,
			"0.003": 15.8975566456,
			"0.004": 17.2554630159,
			"0.005": 9.03289195942,
			"0.006": 5.3527829133,
			"0.007": 4.17811019944,
			"0.008": 4.46265140611,
			"0.009": 6.05303839745,
			"0.01": 6.5166519017,
			"0.011": 8.50779865039,
			"0.012": 9.69374341332,
			"0.013": 2.46245376534,
			"0.014": 0.306906889399,
			"0.015": 0.0,
			"0.016": 0.0,
			"0.017": 0.0,
			"0.018": 0.0,
			"0.019": 0.0,
			"0.02": 0.0,
			"0.021": 0.0,
			"0.022": 0.0,
			"0.023": 0.0,
			"0.024": 0.0,
			"0.025": 0.0
		}
	}
}
