{
	 "smiles": "CC1=C2NC(=O)CC2=CC(Br)=C1", 
	 "Tm": 498.15, 
	 "num_atms": 20, 
	 "gaussian": { 
		 "optdone": 1, 
		 "sigma_profile": "yes", 
		 "theory": "DFT", 
		 "functional": "B3LYP", 
		 "basiset": "6-31G**", 
		 "properties": { 
			 "R2extent": 6168.3999, 
			 "electric_dipole_moment_norm": 1.95536599899, 
			 "electric_quadrupole_moment_norm": 14.3873211412, 
			 "total_energy": -3049.18773421, 
			 "HOMO_LUMO_gap": 0.19487, 
			 "cosmo_polarized_energy": -11.84, 
			 "cosmo_cavitation_energy": 26.24, 
			 "cosmo_dispersion_energy": -19.85, 
			 "cosmo_repulsion_energy": 1.59, 
			 "cosmo_total_nonelectrostatic_energy": 7.99, 
			 "SMD_solvation_energy": 3.69 
		},
		"coords": [
			{
				"x": -1.2048688323,
				"y": 0.9898856915,
				"z": -2.8824195036,
				"element": "C" 
			},
			{
				"x": -0.0028718294,
				"y": 0.1642731928,
				"z": -2.4979477337,
				"element": "C" 
			},
			{
				"x": -0.0252294411,
				"y": -0.6955865307,
				"z": -1.3975684933,
				"element": "C" 
			},
			{
				"x": -1.082495033,
				"y": -0.9377611492,
				"z": -0.5103042821,
				"element": "N" 
			},
			{
				"x": -0.7536759397,
				"y": -1.8596039473,
				"z": 0.4752326259,
				"element": "C" 
			},
			{
				"x": -1.4895342339,
				"y": -2.2403562858,
				"z": 1.3621958761,
				"element": "O" 
			},
			{
				"x": 0.703682749,
				"y": -2.2752370082,
				"z": 0.2015179309,
				"element": "C" 
			},
			{
				"x": 1.0808809643,
				"y": -1.4741845897,
				"z": -1.0196468381,
				"element": "C" 
			},
			{
				"x": 2.2599467753,
				"y": -1.4108151191,
				"z": -1.7474257763,
				"element": "C" 
			},
			{
				"x": 2.29832415,
				"y": -0.5545179781,
				"z": -2.8523417809,
				"element": "C" 
			},
			{
				"x": 3.9062523123,
				"y": -0.437374708,
				"z": -3.884381033,
				"element": "Br" 
			},
			{
				"x": 1.1974365375,
				"y": 0.2159606656,
				"z": -3.2227285496,
				"element": "C" 
			},
			{
				"x": -0.9972829456,
				"y": 1.5981402773,
				"z": -3.7658937931,
				"element": "H" 
			},
			{
				"x": -1.5023432399,
				"y": 1.6702937138,
				"z": -2.0746513122,
				"element": "H" 
			},
			{
				"x": -2.0719974033,
				"y": 0.3579780613,
				"z": -3.1120511193,
				"element": "H" 
			},
			{
				"x": -1.9951837817,
				"y": -0.5096871859,
				"z": -0.5505867773,
				"element": "H" 
			},
			{
				"x": 0.7481082616,
				"y": -3.3592625778,
				"z": 0.0487760961,
				"element": "H" 
			},
			{
				"x": 1.3154826761,
				"y": -2.0508708146,
				"z": 1.082308561,
				"element": "H" 
			},
			{
				"x": 3.1277561468,
				"y": -2.0015767145,
				"z": -1.4763619804,
				"element": "H" 
			},
			{
				"x": 1.2684121069,
				"y": 0.8679030066,
				"z": -4.0868221171,
				"element": "H" 
			}
		],
		 "valence_orbital": [ 
			{
				"type": "occ",
				"energy": -0.28716,
				"method": "rhf"
			},
			{
				"type": "occ",
				"energy": -0.28538,
				"method": "rhf"
			},
			{
				"type": "occ",
				"energy": -0.26255,
				"method": "rhf"
			},
			{
				"type": "occ",
				"energy": -0.26032,
				"method": "rhf"
			},
			{
				"type": "occ",
				"energy": -0.21808,
				"method": "rhf"
			},
			{
				"type": "unocc",
				"energy": -0.02321,
				"method": "rhf"
			},
			{
				"type": "unocc",
				"energy": -0.01577,
				"method": "rhf"
			},
			{
				"type": "unocc",
				"energy": 0.00641,
				"method": "rhf"
			},
			{
				"type": "unocc",
				"energy": 0.0265,
				"method": "rhf"
			},
			{
				"type": "unocc",
				"energy": 0.06813,
				"method": "rhf"
			}
		],
		"cosmo_sigma_profile": { 
			"-0.025": 0.0,
			"-0.024": 0.0,
			"-0.023": 0.0,
			"-0.022": 0.0,
			"-0.021": 0.0,
			"-0.02": 0.0,
			"-0.019": 0.0,
			"-0.018": 0.0,
			"-0.017": 0.0,
			"-0.016": 0.0674629336528,
			"-0.015": 0.790199805738,
			"-0.014": 0.740844478816,
			"-0.013": 1.3119971017,
			"-0.012": 0.967304745669,
			"-0.011": 0.973423295682,
			"-0.01": 1.05143944835,
			"-0.009": 1.45236208342,
			"-0.008": 1.94641413376,
			"-0.007": 8.13221532566,
			"-0.006": 10.7553713539,
			"-0.005": 15.1433161746,
			"-0.004": 15.8555404839,
			"-0.003": 14.3845154362,
			"-0.002": 14.0620128551,
			"-0.001": 15.2645664888,
			"0.0": 14.5193087769,
			"0.001": 13.6892794895,
			"0.002": 13.8711449898,
			"0.003": 18.2593412902,
			"0.004": 17.5384083846,
			"0.005": 11.207364415,
			"0.006": 2.06483888637,
			"0.007": 1.2573617266,
			"0.008": 1.43212958258,
			"0.009": 0.978495571089,
			"0.01": 1.39346745465,
			"0.011": 2.11043605443,
			"0.012": 3.90906994039,
			"0.013": 5.6870982173,
			"0.014": 1.69273457905,
			"0.015": 0.014632173494,
			"0.016": 0.0,
			"0.017": 0.0,
			"0.018": 0.0,
			"0.019": 0.0,
			"0.02": 0.0,
			"0.021": 0.0,
			"0.022": 0.0,
			"0.023": 0.0,
			"0.024": 0.0,
			"0.025": 0.0
		}
	}
}
