{
	 "smiles": "ON1N=NC2=C1C=C(C=C2)C(O)=O", 
	 "Tm": 503.15, 
	 "num_atms": 18, 
	 "gaussian": { 
		 "optdone": 1, 
		 "sigma_profile": "yes", 
		 "theory": "DFT", 
		 "functional": "B3LYP", 
		 "basiset": "6-31G**", 
		 "properties": { 
			 "R2extent": 2508.1325, 
			 "electric_dipole_moment_norm": 1.2940303474, 
			 "electric_quadrupole_moment_norm": 30.52839312, 
			 "total_energy": -659.584941527, 
			 "HOMO_LUMO_gap": 0.18035, 
			 "cosmo_polarized_energy": -21.74, 
			 "cosmo_cavitation_energy": 23.93, 
			 "cosmo_dispersion_energy": -17.84, 
			 "cosmo_repulsion_energy": 1.39, 
			 "cosmo_total_nonelectrostatic_energy": 7.48, 
			 "SMD_solvation_energy": 4.72 
		},
		"coords": [
			{
				"x": -0.1861879996,
				"y": 2.4983334182,
				"z": -2.0703110392,
				"element": "O" 
			},
			{
				"x": 0.144152698,
				"y": 1.1873769845,
				"z": -1.8631844942,
				"element": "N" 
			},
			{
				"x": 0.4453093487,
				"y": 0.3710811251,
				"z": -2.8978320567,
				"element": "N" 
			},
			{
				"x": 0.6131242722,
				"y": -0.8292266622,
				"z": -2.4320670934,
				"element": "N" 
			},
			{
				"x": 0.3894708079,
				"y": -0.8037600794,
				"z": -1.0704838551,
				"element": "C" 
			},
			{
				"x": 0.0762986035,
				"y": 0.5144455497,
				"z": -0.6790680338,
				"element": "C" 
			},
			{
				"x": -0.2024415326,
				"y": 0.8763093582,
				"z": 0.6403258158,
				"element": "C" 
			},
			{
				"x": -0.1719549564,
				"y": -0.1525498324,
				"z": 1.5766844187,
				"element": "C" 
			},
			{
				"x": 0.1579286495,
				"y": -1.4864810289,
				"z": 1.2003282372,
				"element": "C" 
			},
			{
				"x": 0.4422723435,
				"y": -1.8275712755,
				"z": -0.1104246516,
				"element": "C" 
			},
			{
				"x": -0.4731830341,
				"y": 0.2255425206,
				"z": 2.9994878607,
				"element": "C" 
			},
			{
				"x": -0.8813332728,
				"y": -0.7732336979,
				"z": 3.8250260865,
				"element": "O" 
			},
			{
				"x": -0.3709781873,
				"y": 1.3542477458,
				"z": 3.4181565826,
				"element": "O" 
			},
			{
				"x": 0.6446101978,
				"y": 2.938313174,
				"z": -2.3185859205,
				"element": "H" 
			},
			{
				"x": -0.4348748692,
				"y": 1.8899704638,
				"z": 0.9431627877,
				"element": "H" 
			},
			{
				"x": 0.235852694,
				"y": -2.2549640288,
				"z": 1.9645151867,
				"element": "H" 
			},
			{
				"x": 0.7065992843,
				"y": -2.8399970293,
				"z": -0.3953430489,
				"element": "H" 
			},
			{
				"x": -1.0774650476,
				"y": -1.5725367056,
				"z": 3.3169132175,
				"element": "H" 
			}
		],
		 "valence_orbital": [ 
			{
				"type": "occ",
				"energy": -0.3247,
				"method": "rhf"
			},
			{
				"type": "occ",
				"energy": -0.29002,
				"method": "rhf"
			},
			{
				"type": "occ",
				"energy": -0.28543,
				"method": "rhf"
			},
			{
				"type": "occ",
				"energy": -0.27615,
				"method": "rhf"
			},
			{
				"type": "occ",
				"energy": -0.259,
				"method": "rhf"
			},
			{
				"type": "unocc",
				"energy": -0.07865,
				"method": "rhf"
			},
			{
				"type": "unocc",
				"energy": -0.03583,
				"method": "rhf"
			},
			{
				"type": "unocc",
				"energy": 0.00294,
				"method": "rhf"
			},
			{
				"type": "unocc",
				"energy": 0.02981,
				"method": "rhf"
			},
			{
				"type": "unocc",
				"energy": 0.04835,
				"method": "rhf"
			}
		],
		"cosmo_sigma_profile": { 
			"-0.025": 0.0,
			"-0.024": 0.0,
			"-0.023": 0.0,
			"-0.022": 0.0,
			"-0.021": 0.150255754803,
			"-0.02": 1.33555926562,
			"-0.019": 1.82627670375,
			"-0.018": 1.64302689757,
			"-0.017": 2.1834468019,
			"-0.016": 2.39578944759,
			"-0.015": 1.35746515127,
			"-0.014": 1.17270563827,
			"-0.013": 3.0567060411,
			"-0.012": 1.69568428206,
			"-0.011": 1.51165693147,
			"-0.01": 2.23161586655,
			"-0.009": 2.31746261481,
			"-0.008": 5.26183684873,
			"-0.007": 6.73480771632,
			"-0.006": 6.90775428969,
			"-0.005": 6.57266108236,
			"-0.004": 7.63858520103,
			"-0.003": 9.5040196211,
			"-0.002": 11.4344838905,
			"-0.001": 11.6433193647,
			"0.0": 13.582641456,
			"0.001": 13.1855205524,
			"0.002": 9.11563204201,
			"0.003": 5.15727692893,
			"0.004": 5.58431976596,
			"0.005": 6.16964936928,
			"0.006": 5.73452810424,
			"0.007": 7.01058400994,
			"0.008": 6.87887721785,
			"0.009": 7.50818048381,
			"0.01": 8.10898425757,
			"0.011": 7.99114517866,
			"0.012": 4.98586752112,
			"0.013": 1.74621971308,
			"0.014": 1.12675189634,
			"0.015": 0.319221674499,
			"0.016": 0.0,
			"0.017": 0.0,
			"0.018": 0.0,
			"0.019": 0.0,
			"0.02": 0.0,
			"0.021": 0.0,
			"0.022": 0.0,
			"0.023": 0.0,
			"0.024": 0.0,
			"0.025": 0.0
		}
	}
}
