{
	 "smiles": "C1COCCOCCNCCOCCOCCN1", 
	 "Tm": 386.15, 
	 "num_atms": 44, 
	 "gaussian": { 
		 "optdone": 1, 
		 "sigma_profile": "yes", 
		 "theory": "DFT", 
		 "functional": "B3LYP", 
		 "basiset": "6-31G**", 
		 "properties": { 
			 "R2extent": 5660.0631, 
			 "electric_dipole_moment_norm": 3.07225556554, 
			 "electric_quadrupole_moment_norm": 15.7416872069, 
			 "total_energy": -883.267983288, 
			 "HOMO_LUMO_gap": 0.27667, 
			 "cosmo_polarized_energy": -15.32, 
			 "cosmo_cavitation_energy": 42.27, 
			 "cosmo_dispersion_energy": -28.36, 
			 "cosmo_repulsion_energy": 2.21, 
			 "cosmo_total_nonelectrostatic_energy": 16.12, 
			 "SMD_solvation_energy": 2.11 
		},
		"coords": [
			{
				"x": -0.9792037272,
				"y": -2.7195760943,
				"z": 2.2896437645,
				"element": "C" 
			},
			{
				"x": -0.0693469921,
				"y": -1.9609658851,
				"z": 3.263479143,
				"element": "C" 
			},
			{
				"x": 0.4973871668,
				"y": -0.8389629694,
				"z": 2.6117703012,
				"element": "O" 
			},
			{
				"x": 1.0616639163,
				"y": 0.1261146252,
				"z": 3.4724411654,
				"element": "C" 
			},
			{
				"x": 1.7685569549,
				"y": 1.178970627,
				"z": 2.6155881908,
				"element": "C" 
			},
			{
				"x": 0.9938365174,
				"y": 1.6661512042,
				"z": 1.5401360541,
				"element": "O" 
			},
			{
				"x": -0.1132327875,
				"y": 2.488089338,
				"z": 1.892031747,
				"element": "C" 
			},
			{
				"x": -1.0050452447,
				"y": 2.6729056068,
				"z": 0.6697686435,
				"element": "C" 
			},
			{
				"x": -0.4769469809,
				"y": 3.6062433858,
				"z": -0.3266621073,
				"element": "N" 
			},
			{
				"x": 0.6961940721,
				"y": 3.1720504774,
				"z": -1.0956421227,
				"element": "C" 
			},
			{
				"x": 0.5802656533,
				"y": 1.8216507628,
				"z": -1.8022165588,
				"element": "C" 
			},
			{
				"x": -0.5925362866,
				"y": 1.8470477407,
				"z": -2.619183929,
				"element": "O" 
			},
			{
				"x": -0.8180684543,
				"y": 0.678153158,
				"z": -3.3842958939,
				"element": "C" 
			},
			{
				"x": -1.4522711378,
				"y": -0.4710561471,
				"z": -2.6078343385,
				"element": "C" 
			},
			{
				"x": -0.48784594,
				"y": -1.0681475568,
				"z": -1.7625633875,
				"element": "O" 
			},
			{
				"x": -1.0202107863,
				"y": -2.0154973598,
				"z": -0.8516774259,
				"element": "C" 
			},
			{
				"x": 0.1220467961,
				"y": -2.4670791992,
				"z": 0.0584652895,
				"element": "C" 
			},
			{
				"x": -0.3696425094,
				"y": -3.3524653891,
				"z": 1.1238024995,
				"element": "N" 
			},
			{
				"x": -1.4941367948,
				"y": -3.4982371209,
				"z": 2.8691166567,
				"element": "H" 
			},
			{
				"x": -1.7542897287,
				"y": -2.0262614422,
				"z": 1.9446965002,
				"element": "H" 
			},
			{
				"x": -0.6720326779,
				"y": -1.6405733544,
				"z": 4.1319111484,
				"element": "H" 
			},
			{
				"x": 0.7261134487,
				"y": -2.6241937119,
				"z": 3.6491390789,
				"element": "H" 
			},
			{
				"x": 1.8068905222,
				"y": -0.3185274025,
				"z": 4.1548038765,
				"element": "H" 
			},
			{
				"x": 0.2778677901,
				"y": 0.5748995524,
				"z": 4.1054991378,
				"element": "H" 
			},
			{
				"x": 2.6490718485,
				"y": 0.7237158302,
				"z": 2.1517147547,
				"element": "H" 
			},
			{
				"x": 2.1133889907,
				"y": 1.9949944839,
				"z": 3.2734687703,
				"element": "H" 
			},
			{
				"x": 0.2352294584,
				"y": 3.4652694331,
				"z": 2.2627640061,
				"element": "H" 
			},
			{
				"x": -0.7108790974,
				"y": 2.0129163107,
				"z": 2.6837476086,
				"element": "H" 
			},
			{
				"x": -1.2307048372,
				"y": 1.6682975876,
				"z": 0.2733091794,
				"element": "H" 
			},
			{
				"x": -1.9537685207,
				"y": 3.095336612,
				"z": 1.023548111,
				"element": "H" 
			},
			{
				"x": -1.2204804632,
				"y": 3.783308427,
				"z": -0.9967883775,
				"element": "H" 
			},
			{
				"x": 1.5657437422,
				"y": 3.1278323003,
				"z": -0.4329660927,
				"element": "H" 
			},
			{
				"x": 0.8874379582,
				"y": 3.9537782746,
				"z": -1.840448643,
				"element": "H" 
			},
			{
				"x": 0.5310717048,
				"y": 1.0041551456,
				"z": -1.0781777633,
				"element": "H" 
			},
			{
				"x": 1.4736690511,
				"y": 1.6564812612,
				"z": -2.428232581,
				"element": "H" 
			},
			{
				"x": -1.5074167185,
				"y": 0.9678788238,
				"z": -4.1866711913,
				"element": "H" 
			},
			{
				"x": 0.1155713138,
				"y": 0.3249332078,
				"z": -3.8503503446,
				"element": "H" 
			},
			{
				"x": -2.2992574528,
				"y": -0.0811729973,
				"z": -2.0194460343,
				"element": "H" 
			},
			{
				"x": -1.8556943285,
				"y": -1.2123441527,
				"z": -3.3213394532,
				"element": "H" 
			},
			{
				"x": -1.4549823093,
				"y": -2.8782007285,
				"z": -1.3816636546,
				"element": "H" 
			},
			{
				"x": -1.8287535084,
				"y": -1.5557665191,
				"z": -0.2598383126,
				"element": "H" 
			},
			{
				"x": 0.6379027801,
				"y": -1.5750868763,
				"z": 0.4311183731,
				"element": "H" 
			},
			{
				"x": 0.8365631334,
				"y": -3.0359187136,
				"z": -0.5463219623,
				"element": "H" 
			},
			{
				"x": 0.3722744649,
				"y": -3.977840556,
				"z": 1.4216561738,
				"element": "H" 
			}
		],
		 "valence_orbital": [ 
			{
				"type": "occ",
				"energy": -0.25335,
				"method": "rhf"
			},
			{
				"type": "occ",
				"energy": -0.24864,
				"method": "rhf"
			},
			{
				"type": "occ",
				"energy": -0.23352,
				"method": "rhf"
			},
			{
				"type": "occ",
				"energy": -0.2124,
				"method": "rhf"
			},
			{
				"type": "occ",
				"energy": -0.20399,
				"method": "rhf"
			},
			{
				"type": "unocc",
				"energy": 0.07268,
				"method": "rhf"
			},
			{
				"type": "unocc",
				"energy": 0.08203,
				"method": "rhf"
			},
			{
				"type": "unocc",
				"energy": 0.08969,
				"method": "rhf"
			},
			{
				"type": "unocc",
				"energy": 0.10629,
				"method": "rhf"
			},
			{
				"type": "unocc",
				"energy": 0.11298,
				"method": "rhf"
			}
		],
		"cosmo_sigma_profile": { 
			"-0.025": 0.0,
			"-0.024": 0.0,
			"-0.023": 0.0,
			"-0.022": 0.0,
			"-0.021": 0.0,
			"-0.02": 0.0,
			"-0.019": 0.0,
			"-0.018": 0.0,
			"-0.017": 0.0,
			"-0.016": 0.0,
			"-0.015": 0.0,
			"-0.014": 0.0,
			"-0.013": 0.0,
			"-0.012": 0.0,
			"-0.011": 0.0,
			"-0.01": 0.747681819896,
			"-0.009": 1.74258627879,
			"-0.008": 2.15801761788,
			"-0.007": 2.44665030953,
			"-0.006": 2.3183316156,
			"-0.005": 9.27557498726,
			"-0.004": 42.0952012964,
			"-0.003": 60.9125803428,
			"-0.002": 46.8976552326,
			"-0.001": 32.6750945359,
			"0.0": 19.1273397044,
			"0.001": 13.5076182111,
			"0.002": 10.9941665705,
			"0.003": 11.8566862556,
			"0.004": 10.9467495921,
			"0.005": 10.3900453255,
			"0.006": 9.521435943,
			"0.007": 8.36760067843,
			"0.008": 7.02315334733,
			"0.009": 4.51012913809,
			"0.01": 4.33204685518,
			"0.011": 4.3395260826,
			"0.012": 3.20709636112,
			"0.013": 1.05049274928,
			"0.014": 0.837604848728,
			"0.015": 1.19005267942,
			"0.016": 1.19243533288,
			"0.017": 0.943860123036,
			"0.018": 0.367830352765,
			"0.019": 0.0748719771592,
			"0.02": 0.0,
			"0.021": 0.0,
			"0.022": 0.0,
			"0.023": 0.0,
			"0.024": 0.0,
			"0.025": 0.0
		}
	}
}
