{
	 "smiles": "OCCN1CCSCC1", 
	 "Tm": 308.15, 
	 "num_atms": 22, 
	 "gaussian": { 
		 "optdone": 1, 
		 "sigma_profile": "yes", 
		 "theory": "DFT", 
		 "functional": "B3LYP", 
		 "basiset": "6-31G**", 
		 "properties": { 
			 "R2extent": 2022.7189, 
			 "electric_dipole_moment_norm": 2.69456552527, 
			 "electric_quadrupole_moment_norm": 5.89806829055, 
			 "total_energy": -764.603649756, 
			 "HOMO_LUMO_gap": 0.24476, 
			 "cosmo_polarized_energy": -11.55, 
			 "cosmo_cavitation_energy": 24.45, 
			 "cosmo_dispersion_energy": -18.73, 
			 "cosmo_repulsion_energy": 1.5, 
			 "cosmo_total_nonelectrostatic_energy": 7.23, 
			 "SMD_solvation_energy": 1.44 
		},
		"coords": [
			{
				"x": -0.4991504972,
				"y": 1.4670045622,
				"z": -2.4947165946,
				"element": "O" 
			},
			{
				"x": -1.2977498573,
				"y": 0.6709389503,
				"z": -1.6335655861,
				"element": "C" 
			},
			{
				"x": -0.8549265053,
				"y": 0.9239898556,
				"z": -0.1955580532,
				"element": "C" 
			},
			{
				"x": 0.4617015862,
				"y": 0.3764129392,
				"z": 0.1181918589,
				"element": "N" 
			},
			{
				"x": 1.1754785197,
				"y": 1.1916142642,
				"z": 1.1068166485,
				"element": "C" 
			},
			{
				"x": 2.4354483174,
				"y": 0.5000741392,
				"z": 1.6183496322,
				"element": "C" 
			},
			{
				"x": 2.0348821602,
				"y": -0.9498512242,
				"z": 2.6898560062,
				"element": "S" 
			},
			{
				"x": 0.4608099181,
				"y": -1.4525728792,
				"z": 1.8693706414,
				"element": "C" 
			},
			{
				"x": 0.469592373,
				"y": -1.0686649758,
				"z": 0.3832022749,
				"element": "C" 
			},
			{
				"x": -0.7056694558,
				"y": 1.2255269672,
				"z": -3.4055614155,
				"element": "H" 
			},
			{
				"x": -2.3661729627,
				"y": 0.9340504012,
				"z": -1.7164565638,
				"element": "H" 
			},
			{
				"x": -1.2086995135,
				"y": -0.4002098211,
				"z": -1.8757583709,
				"element": "H" 
			},
			{
				"x": -1.6436656443,
				"y": 0.5540968683,
				"z": 0.488299465,
				"element": "H" 
			},
			{
				"x": -0.8131738276,
				"y": 2.0106015026,
				"z": -0.063858262,
				"element": "H" 
			},
			{
				"x": 0.546049923,
				"y": 1.4505773456,
				"z": 1.9794151944,
				"element": "H" 
			},
			{
				"x": 1.4539231172,
				"y": 2.1379258429,
				"z": 0.624523076,
				"element": "H" 
			},
			{
				"x": 3.0140263685,
				"y": 1.186277891,
				"z": 2.2413872368,
				"element": "H" 
			},
			{
				"x": 3.0643276482,
				"y": 0.1851309585,
				"z": 0.7805520056,
				"element": "H" 
			},
			{
				"x": 0.3834581462,
				"y": -2.5373400506,
				"z": 1.9844607753,
				"element": "H" 
			},
			{
				"x": -0.3889468704,
				"y": -0.996266187,
				"z": 2.3870982202,
				"element": "H" 
			},
			{
				"x": 1.3448347908,
				"y": -1.5323293255,
				"z": -0.0897195343,
				"element": "H" 
			},
			{
				"x": -0.4091777341,
				"y": -1.5089880245,
				"z": -0.1011286552,
				"element": "H" 
			}
		],
		 "valence_orbital": [ 
			{
				"type": "occ",
				"energy": -0.32163,
				"method": "rhf"
			},
			{
				"type": "occ",
				"energy": -0.29462,
				"method": "rhf"
			},
			{
				"type": "occ",
				"energy": -0.26513,
				"method": "rhf"
			},
			{
				"type": "occ",
				"energy": -0.21354,
				"method": "rhf"
			},
			{
				"type": "occ",
				"energy": -0.20326,
				"method": "rhf"
			},
			{
				"type": "unocc",
				"energy": 0.0415,
				"method": "rhf"
			},
			{
				"type": "unocc",
				"energy": 0.06479,
				"method": "rhf"
			},
			{
				"type": "unocc",
				"energy": 0.07585,
				"method": "rhf"
			},
			{
				"type": "unocc",
				"energy": 0.09243,
				"method": "rhf"
			},
			{
				"type": "unocc",
				"energy": 0.11529,
				"method": "rhf"
			}
		],
		"cosmo_sigma_profile": { 
			"-0.025": 0.0,
			"-0.024": 0.0,
			"-0.023": 0.0,
			"-0.022": 0.0,
			"-0.021": 0.0,
			"-0.02": 0.0,
			"-0.019": 0.0,
			"-0.018": 0.0,
			"-0.017": 0.0,
			"-0.016": 0.153126255107,
			"-0.015": 1.28167442004,
			"-0.014": 0.679760495159,
			"-0.013": 1.17101168015,
			"-0.012": 0.789067744831,
			"-0.011": 0.735053105848,
			"-0.01": 1.02991559755,
			"-0.009": 0.581141059835,
			"-0.008": 0.928881045036,
			"-0.007": 0.86411638431,
			"-0.006": 2.99561234422,
			"-0.005": 9.99086212576,
			"-0.004": 19.778215913,
			"-0.003": 32.2681626197,
			"-0.002": 30.3044893904,
			"-0.001": 20.6911082336,
			"0.0": 8.70712204501,
			"0.001": 5.27326314752,
			"0.002": 5.71088816779,
			"0.003": 3.68098178531,
			"0.004": 4.44740336338,
			"0.005": 4.1924139567,
			"0.006": 5.63779322777,
			"0.007": 3.75152586246,
			"0.008": 4.13810282528,
			"0.009": 3.67970709666,
			"0.01": 3.73398103261,
			"0.011": 3.14572543,
			"0.012": 2.77092720421,
			"0.013": 1.11521866426,
			"0.014": 2.15215721282,
			"0.015": 1.76059178056,
			"0.016": 1.17396110952,
			"0.017": 0.618114738698,
			"0.018": 0.809381388957,
			"0.019": 0.174489078955,
			"0.02": 0.0,
			"0.021": 0.0,
			"0.022": 0.0,
			"0.023": 0.0,
			"0.024": 0.0,
			"0.025": 0.0
		}
	}
}
