{
	 "smiles": "CC(=O)OC1=CC=CC=C1C(=O)OC1=CC=CC=C1", 
	 "Tm": 369.15, 
	 "num_atms": 31, 
	 "gaussian": { 
		 "optdone": 1, 
		 "sigma_profile": "yes", 
		 "theory": "DFT", 
		 "functional": "B3LYP", 
		 "basiset": "6-31G**", 
		 "properties": { 
			 "R2extent": 6135.9449, 
			 "electric_dipole_moment_norm": 1.89376537353, 
			 "electric_quadrupole_moment_norm": 16.6657058746, 
			 "total_energy": -879.739917111, 
			 "HOMO_LUMO_gap": 0.18543, 
			 "cosmo_polarized_energy": -12.2, 
			 "cosmo_cavitation_energy": 36.56, 
			 "cosmo_dispersion_energy": -25.6, 
			 "cosmo_repulsion_energy": 1.98, 
			 "cosmo_total_nonelectrostatic_energy": 12.95, 
			 "SMD_solvation_energy": 8.12 
		},
		"coords": [
			{
				"x": -1.5936152026,
				"y": -3.7713561797,
				"z": 1.3695722182,
				"element": "C" 
			},
			{
				"x": -0.6646451019,
				"y": -3.5302238465,
				"z": 0.2131471826,
				"element": "C" 
			},
			{
				"x": 0.5104889617,
				"y": -3.783089014,
				"z": 0.1604956918,
				"element": "O" 
			},
			{
				"x": -1.3624797287,
				"y": -2.9585980969,
				"z": -0.8339535257,
				"element": "O" 
			},
			{
				"x": -0.6461041799,
				"y": -2.4633193189,
				"z": -1.90933923,
				"element": "C" 
			},
			{
				"x": -0.7694807628,
				"y": -3.1473392946,
				"z": -3.1162049384,
				"element": "C" 
			},
			{
				"x": -0.1363007216,
				"y": -2.6688467217,
				"z": -4.2610564399,
				"element": "C" 
			},
			{
				"x": 0.6286189078,
				"y": -1.5024510924,
				"z": -4.198848127,
				"element": "C" 
			},
			{
				"x": 0.7477074222,
				"y": -0.81819284,
				"z": -2.9936006313,
				"element": "C" 
			},
			{
				"x": 0.1131474672,
				"y": -1.278074565,
				"z": -1.8264353506,
				"element": "C" 
			},
			{
				"x": 0.2220327255,
				"y": -0.5172065682,
				"z": -0.5502950096,
				"element": "C" 
			},
			{
				"x": -0.304141289,
				"y": -0.803820713,
				"z": 0.5022389258,
				"element": "O" 
			},
			{
				"x": 1.0043701293,
				"y": 0.5966979617,
				"z": -0.7141441742,
				"element": "O" 
			},
			{
				"x": 1.2619896632,
				"y": 1.4361457328,
				"z": 0.3724289398,
				"element": "C" 
			},
			{
				"x": 1.8081981845,
				"y": 0.9551404885,
				"z": 1.5618632043,
				"element": "C" 
			},
			{
				"x": 2.1190061171,
				"y": 1.8648042077,
				"z": 2.572975652,
				"element": "C" 
			},
			{
				"x": 1.8928177194,
				"y": 3.2318156694,
				"z": 2.3955640027,
				"element": "C" 
			},
			{
				"x": 1.3503556414,
				"y": 3.6946838572,
				"z": 1.195548214,
				"element": "C" 
			},
			{
				"x": 1.0302860736,
				"y": 2.795650089,
				"z": 0.1773119532,
				"element": "C" 
			},
			{
				"x": -2.543421557,
				"y": -4.1902078343,
				"z": 1.0287988217,
				"element": "H" 
			},
			{
				"x": -1.1159522033,
				"y": -4.4354829115,
				"z": 2.0894148052,
				"element": "H" 
			},
			{
				"x": -1.799407008,
				"y": -2.8048073058,
				"z": 1.8395767918,
				"element": "H" 
			},
			{
				"x": -1.3669632744,
				"y": -4.0523457428,
				"z": -3.1359821205,
				"element": "H" 
			},
			{
				"x": -0.2375661241,
				"y": -3.2094156805,
				"z": -5.1974543678,
				"element": "H" 
			},
			{
				"x": 1.1280546657,
				"y": -1.1258887854,
				"z": -5.0858355137,
				"element": "H" 
			},
			{
				"x": 1.3346568412,
				"y": 0.0900001569,
				"z": -2.9389582126,
				"element": "H" 
			},
			{
				"x": 1.9791924723,
				"y": -0.1063728651,
				"z": 1.6928551083,
				"element": "H" 
			},
			{
				"x": 2.5426691454,
				"y": 1.4996854059,
				"z": 3.5039038621,
				"element": "H" 
			},
			{
				"x": 2.1398538106,
				"y": 3.9318587237,
				"z": 3.1879430689,
				"element": "H" 
			},
			{
				"x": 1.173829862,
				"y": 4.7560452212,
				"z": 1.0481493219,
				"element": "H" 
			},
			{
				"x": 0.6087013433,
				"y": 3.1318118623,
				"z": -0.7642801229,
				"element": "H" 
			}
		],
		 "valence_orbital": [ 
			{
				"type": "occ",
				"energy": -0.27478,
				"method": "rhf"
			},
			{
				"type": "occ",
				"energy": -0.26872,
				"method": "rhf"
			},
			{
				"type": "occ",
				"energy": -0.25431,
				"method": "rhf"
			},
			{
				"type": "occ",
				"energy": -0.2534,
				"method": "rhf"
			},
			{
				"type": "occ",
				"energy": -0.24184,
				"method": "rhf"
			},
			{
				"type": "unocc",
				"energy": -0.05641,
				"method": "rhf"
			},
			{
				"type": "unocc",
				"energy": -0.01373,
				"method": "rhf"
			},
			{
				"type": "unocc",
				"energy": -0.00463,
				"method": "rhf"
			},
			{
				"type": "unocc",
				"energy": 0.00034,
				"method": "rhf"
			},
			{
				"type": "unocc",
				"energy": 0.0161,
				"method": "rhf"
			}
		],
		"cosmo_sigma_profile": { 
			"-0.025": 0.0,
			"-0.024": 0.0,
			"-0.023": 0.0,
			"-0.022": 0.0,
			"-0.021": 0.0,
			"-0.02": 0.0,
			"-0.019": 0.0,
			"-0.018": 0.0,
			"-0.017": 0.0,
			"-0.016": 0.0,
			"-0.015": 0.0,
			"-0.014": 0.0,
			"-0.013": 0.0,
			"-0.012": 0.0,
			"-0.011": 0.0,
			"-0.01": 0.0,
			"-0.009": 0.0,
			"-0.008": 0.455503816094,
			"-0.007": 8.37132376853,
			"-0.006": 21.9527570762,
			"-0.005": 24.9054814844,
			"-0.004": 24.3064059883,
			"-0.003": 22.3486576639,
			"-0.002": 24.1941536465,
			"-0.001": 18.6684299835,
			"0.0": 17.6485673998,
			"0.001": 21.9582391076,
			"0.002": 24.4853258645,
			"0.003": 22.1780272507,
			"0.004": 16.0513909137,
			"0.005": 13.2053212074,
			"0.006": 5.08112145314,
			"0.007": 6.9160807874,
			"0.008": 4.38278510335,
			"0.009": 4.31741768823,
			"0.01": 3.74539309455,
			"0.011": 6.00713628684,
			"0.012": 2.16443366969,
			"0.013": 0.139024158722,
			"0.014": 0.0,
			"0.015": 0.0,
			"0.016": 0.0,
			"0.017": 0.0,
			"0.018": 0.0,
			"0.019": 0.0,
			"0.02": 0.0,
			"0.021": 0.0,
			"0.022": 0.0,
			"0.023": 0.0,
			"0.024": 0.0,
			"0.025": 0.0
		}
	}
}
