{
	 "smiles": "CC(=NO)C1=CC=CO1", 
	 "Tm": 377.15, 
	 "num_atms": 16, 
	 "gaussian": { 
		 "optdone": 1, 
		 "sigma_profile": "yes", 
		 "theory": "DFT", 
		 "functional": "B3LYP", 
		 "basiset": "6-31G**", 
		 "properties": { 
			 "R2extent": 1519.7624, 
			 "electric_dipole_moment_norm": 0.546754963398, 
			 "electric_quadrupole_moment_norm": 7.31998234014, 
			 "total_energy": -437.973600463, 
			 "HOMO_LUMO_gap": 0.17568, 
			 "cosmo_polarized_energy": -7.71, 
			 "cosmo_cavitation_energy": 20.53, 
			 "cosmo_dispersion_energy": -15.28, 
			 "cosmo_repulsion_energy": 1.27, 
			 "cosmo_total_nonelectrostatic_energy": 6.52, 
			 "SMD_solvation_energy": 4.86 
		},
		"coords": [
			{
				"x": -0.8209780522,
				"y": -1.1480250484,
				"z": 0.4565261367,
				"element": "C" 
			},
			{
				"x": -0.093197227,
				"y": -0.790070825,
				"z": -0.812786224,
				"element": "C" 
			},
			{
				"x": 0.0063079786,
				"y": -1.5773845176,
				"z": -1.830849482,
				"element": "N" 
			},
			{
				"x": -0.6501948672,
				"y": -2.7945025241,
				"z": -1.5888959522,
				"element": "O" 
			},
			{
				"x": 0.5558525619,
				"y": 0.5088031462,
				"z": -0.9553430227,
				"element": "C" 
			},
			{
				"x": 1.2723422745,
				"y": 1.0963664386,
				"z": -1.9670952729,
				"element": "C" 
			},
			{
				"x": 1.6484792368,
				"y": 2.3917814342,
				"z": -1.5015766272,
				"element": "C" 
			},
			{
				"x": 1.1382968619,
				"y": 2.5072388499,
				"z": -0.2420113497,
				"element": "C" 
			},
			{
				"x": 0.4715503651,
				"y": 1.3729354338,
				"z": 0.1061283534,
				"element": "O" 
			},
			{
				"x": -0.7801987773,
				"y": -0.3374838904,
				"z": 1.1825600868,
				"element": "H" 
			},
			{
				"x": -1.865752359,
				"y": -1.3841432447,
				"z": 0.2314170233,
				"element": "H" 
			},
			{
				"x": -0.3835400387,
				"y": -2.051365778,
				"z": 0.8931158391,
				"element": "H" 
			},
			{
				"x": -0.4975169205,
				"y": -3.27272664,
				"z": -2.4143580419,
				"element": "H" 
			},
			{
				"x": 1.4941838634,
				"y": 0.6434600142,
				"z": -2.9213796146,
				"element": "H" 
			},
			{
				"x": 2.2218929109,
				"y": 3.1381935528,
				"z": -2.0323618648,
				"element": "H" 
			},
			{
				"x": 1.1579721886,
				"y": 3.2879235985,
				"z": 0.5023100127,
				"element": "H" 
			}
		],
		 "valence_orbital": [ 
			{
				"type": "occ",
				"energy": -0.36934,
				"method": "rhf"
			},
			{
				"type": "occ",
				"energy": -0.28605,
				"method": "rhf"
			},
			{
				"type": "occ",
				"energy": -0.27381,
				"method": "rhf"
			},
			{
				"type": "occ",
				"energy": -0.2722,
				"method": "rhf"
			},
			{
				"type": "occ",
				"energy": -0.20546,
				"method": "rhf"
			},
			{
				"type": "unocc",
				"energy": -0.02978,
				"method": "rhf"
			},
			{
				"type": "unocc",
				"energy": 0.04477,
				"method": "rhf"
			},
			{
				"type": "unocc",
				"energy": 0.07609,
				"method": "rhf"
			},
			{
				"type": "unocc",
				"energy": 0.10793,
				"method": "rhf"
			},
			{
				"type": "unocc",
				"energy": 0.11906,
				"method": "rhf"
			}
		],
		"cosmo_sigma_profile": { 
			"-0.025": 0.0,
			"-0.024": 0.0,
			"-0.023": 0.0,
			"-0.022": 0.0,
			"-0.021": 0.0,
			"-0.02": 0.0,
			"-0.019": 0.0,
			"-0.018": 0.152881626267,
			"-0.017": 0.869122582936,
			"-0.016": 1.01009575768,
			"-0.015": 0.736040564871,
			"-0.014": 1.30197004834,
			"-0.013": 0.529554028445,
			"-0.012": 0.202127206504,
			"-0.011": 0.389333983036,
			"-0.01": 0.523468355886,
			"-0.009": 2.57035754175,
			"-0.008": 2.96211850944,
			"-0.007": 5.09974401979,
			"-0.006": 4.9289806851,
			"-0.005": 7.40543966842,
			"-0.004": 9.16129499234,
			"-0.003": 9.81723603,
			"-0.002": 11.520826767,
			"-0.001": 15.0933251851,
			"0.0": 12.4553447112,
			"0.001": 9.18528665379,
			"0.002": 10.8286241109,
			"0.003": 12.4040943553,
			"0.004": 13.7187723204,
			"0.005": 10.9472314211,
			"0.006": 4.94276417438,
			"0.007": 4.30270359344,
			"0.008": 3.14478263638,
			"0.009": 3.73799343122,
			"0.01": 2.04222117769,
			"0.011": 1.09055800659,
			"0.012": 0.577663037913,
			"0.013": 0.0,
			"0.014": 0.0,
			"0.015": 0.0,
			"0.016": 0.0,
			"0.017": 0.0,
			"0.018": 0.0,
			"0.019": 0.0,
			"0.02": 0.0,
			"0.021": 0.0,
			"0.022": 0.0,
			"0.023": 0.0,
			"0.024": 0.0,
			"0.025": 0.0
		}
	}
}
