{
	 "smiles": "COC1=CC2=C(C=C1OC)C(CCC1=CC=C(Cl)C=C1)N(C)CC2", 
	 "Tm": 383.15, 
	 "num_atms": 48, 
	 "gaussian": { 
		 "optdone": 1, 
		 "sigma_profile": "yes", 
		 "theory": "DFT", 
		 "functional": "B3LYP", 
		 "basiset": "6-31G**", 
		 "properties": { 
			 "R2extent": 11609.9329, 
			 "electric_dipole_moment_norm": 3.53780846994, 
			 "electric_quadrupole_moment_norm": 16.6377958639, 
			 "total_energy": -1441.95582225, 
			 "HOMO_LUMO_gap": 0.18798, 
			 "cosmo_polarized_energy": -12.06, 
			 "cosmo_cavitation_energy": 50.12, 
			 "cosmo_dispersion_energy": -33.77, 
			 "cosmo_repulsion_energy": 2.59, 
			 "cosmo_total_nonelectrostatic_energy": 18.95, 
			 "SMD_solvation_energy": 6.68 
		},
		"coords": [
			{
				"x": -0.0566277988,
				"y": 6.0497861036,
				"z": 0.5869649001,
				"element": "C" 
			},
			{
				"x": 0.6945391137,
				"y": 5.0895561286,
				"z": -0.1363225578,
				"element": "O" 
			},
			{
				"x": 0.354937092,
				"y": 3.7716119649,
				"z": 0.0010156054,
				"element": "C" 
			},
			{
				"x": -0.6686630414,
				"y": 3.2931232698,
				"z": 0.8155443071,
				"element": "C" 
			},
			{
				"x": -0.9725640918,
				"y": 1.9221985712,
				"z": 0.8833803201,
				"element": "C" 
			},
			{
				"x": -0.2396189848,
				"y": 1.0130992733,
				"z": 0.1159323221,
				"element": "C" 
			},
			{
				"x": 0.8003441536,
				"y": 1.49935733,
				"z": -0.6932874843,
				"element": "C" 
			},
			{
				"x": 1.1089993454,
				"y": 2.8500798144,
				"z": -0.7623580107,
				"element": "C" 
			},
			{
				"x": 2.0968230997,
				"y": 3.2657405005,
				"z": -1.6238721154,
				"element": "O" 
			},
			{
				"x": 3.2719657643,
				"y": 3.7967755395,
				"z": -1.0088822842,
				"element": "C" 
			},
			{
				"x": -0.5401974465,
				"y": -0.4832108304,
				"z": 0.1168535351,
				"element": "C" 
			},
			{
				"x": -1.1342411012,
				"y": -0.93016695,
				"z": -1.2634997637,
				"element": "C" 
			},
			{
				"x": -0.6377008425,
				"y": -2.294909272,
				"z": -1.7987697993,
				"element": "C" 
			},
			{
				"x": 0.8386877188,
				"y": -2.3300738261,
				"z": -2.140966394,
				"element": "C" 
			},
			{
				"x": 1.7423884732,
				"y": -3.0980529623,
				"z": -1.3957137342,
				"element": "C" 
			},
			{
				"x": 3.1039368467,
				"y": -3.130356243,
				"z": -1.7042836089,
				"element": "C" 
			},
			{
				"x": 3.5712824191,
				"y": -2.3796185655,
				"z": -2.7797670069,
				"element": "C" 
			},
			{
				"x": 5.2841310101,
				"y": -2.4107289414,
				"z": -3.1824966575,
				"element": "Cl" 
			},
			{
				"x": 2.6992753817,
				"y": -1.6053281682,
				"z": -3.5456676074,
				"element": "C" 
			},
			{
				"x": 1.3438293293,
				"y": -1.5888625332,
				"z": -3.2206949787,
				"element": "C" 
			},
			{
				"x": -1.3547358505,
				"y": -0.8316415618,
				"z": 1.2925221052,
				"element": "N" 
			},
			{
				"x": -1.6493357161,
				"y": -2.2455760608,
				"z": 1.4365237256,
				"element": "C" 
			},
			{
				"x": -2.5233169977,
				"y": 0.0251371215,
				"z": 1.4591664117,
				"element": "C" 
			},
			{
				"x": -2.0681329667,
				"y": 1.4414252459,
				"z": 1.8091553738,
				"element": "C" 
			},
			{
				"x": 0.0275362319,
				"y": 5.9002529172,
				"z": 1.6714908329,
				"element": "H" 
			},
			{
				"x": -1.117431933,
				"y": 6.0282651128,
				"z": 0.3056318496,
				"element": "H" 
			},
			{
				"x": 0.3642379742,
				"y": 7.0219238602,
				"z": 0.3249730957,
				"element": "H" 
			},
			{
				"x": -1.2578849247,
				"y": 3.9829844706,
				"z": 1.4104805843,
				"element": "H" 
			},
			{
				"x": 1.3929559181,
				"y": 0.8206378,
				"z": -1.3007862301,
				"element": "H" 
			},
			{
				"x": 3.7388160255,
				"y": 3.0539131358,
				"z": -0.3486370729,
				"element": "H" 
			},
			{
				"x": 3.9606773266,
				"y": 4.034962513,
				"z": -1.8225066389,
				"element": "H" 
			},
			{
				"x": 3.052913365,
				"y": 4.7049151362,
				"z": -0.4390886106,
				"element": "H" 
			},
			{
				"x": 0.4182207734,
				"y": -1.005006845,
				"z": 0.2450789113,
				"element": "H" 
			},
			{
				"x": -2.228580826,
				"y": -0.9567645848,
				"z": -1.1901259098,
				"element": "H" 
			},
			{
				"x": -0.9077226069,
				"y": -0.1664646947,
				"z": -2.0139391645,
				"element": "H" 
			},
			{
				"x": -1.2174410237,
				"y": -2.5326339728,
				"z": -2.7003849117,
				"element": "H" 
			},
			{
				"x": -0.8565657764,
				"y": -3.0887845064,
				"z": -1.0786919151,
				"element": "H" 
			},
			{
				"x": 1.3789231708,
				"y": -3.6898464521,
				"z": -0.5595304617,
				"element": "H" 
			},
			{
				"x": 3.7916692029,
				"y": -3.7305217852,
				"z": -1.1186563632,
				"element": "H" 
			},
			{
				"x": 3.0762530525,
				"y": -1.029075641,
				"z": -4.3834483233,
				"element": "H" 
			},
			{
				"x": 0.6673050667,
				"y": -0.9892486869,
				"z": -3.8245101737,
				"element": "H" 
			},
			{
				"x": -2.3577798606,
				"y": -2.6514181989,
				"z": 0.6901701222,
				"element": "H" 
			},
			{
				"x": -2.0820319074,
				"y": -2.4249333472,
				"z": 2.427107642,
				"element": "H" 
			},
			{
				"x": -0.7217109264,
				"y": -2.8246946421,
				"z": 1.369412256,
				"element": "H" 
			},
			{
				"x": -3.1743401131,
				"y": 0.0443586789,
				"z": 0.5633445586,
				"element": "H" 
			},
			{
				"x": -3.1320274439,
				"y": -0.3800731075,
				"z": 2.2747184548,
				"element": "H" 
			},
			{
				"x": -2.9215605314,
				"y": 2.1306285683,
				"z": 1.7822157933,
				"element": "H" 
			},
			{
				"x": -1.6930351439,
				"y": 1.4409593234,
				"z": 2.8414050715,
				"element": "H" 
			}
		],
		 "valence_orbital": [ 
			{
				"type": "occ",
				"energy": -0.26001,
				"method": "rhf"
			},
			{
				"type": "occ",
				"energy": -0.23794,
				"method": "rhf"
			},
			{
				"type": "occ",
				"energy": -0.22919,
				"method": "rhf"
			},
			{
				"type": "occ",
				"energy": -0.20329,
				"method": "rhf"
			},
			{
				"type": "occ",
				"energy": -0.20204,
				"method": "rhf"
			},
			{
				"type": "unocc",
				"energy": -0.01406,
				"method": "rhf"
			},
			{
				"type": "unocc",
				"energy": -0.0089,
				"method": "rhf"
			},
			{
				"type": "unocc",
				"energy": 0.00707,
				"method": "rhf"
			},
			{
				"type": "unocc",
				"energy": 0.02007,
				"method": "rhf"
			},
			{
				"type": "unocc",
				"energy": 0.03268,
				"method": "rhf"
			}
		],
		"cosmo_sigma_profile": { 
			"-0.025": 0.0,
			"-0.024": 0.0,
			"-0.023": 0.0,
			"-0.022": 0.0,
			"-0.021": 0.0,
			"-0.02": 0.0,
			"-0.019": 0.0,
			"-0.018": 0.0,
			"-0.017": 0.0,
			"-0.016": 0.0,
			"-0.015": 0.0,
			"-0.014": 0.0,
			"-0.013": 0.0,
			"-0.012": 0.0,
			"-0.011": 0.0,
			"-0.01": 0.0,
			"-0.009": 0.0,
			"-0.008": 0.0,
			"-0.007": 2.14142081173,
			"-0.006": 10.0078608944,
			"-0.005": 23.4924126471,
			"-0.004": 33.6778592496,
			"-0.003": 44.6069369721,
			"-0.002": 49.9746419193,
			"-0.001": 46.0293364304,
			"0.0": 38.5961370493,
			"0.001": 24.0613953151,
			"0.002": 23.2294706796,
			"0.003": 24.917767159,
			"0.004": 26.4885599406,
			"0.005": 20.2330681239,
			"0.006": 9.28898704904,
			"0.007": 3.88784435884,
			"0.008": 2.88852063988,
			"0.009": 2.69865856473,
			"0.01": 2.64913263077,
			"0.011": 3.59475933274,
			"0.012": 2.89033357716,
			"0.013": 0.791197572716,
			"0.014": 0.0619046187796,
			"0.015": 0.413508248033,
			"0.016": 0.155156337188,
			"0.017": 0.0,
			"0.018": 0.0,
			"0.019": 0.0,
			"0.02": 0.0,
			"0.021": 0.0,
			"0.022": 0.0,
			"0.023": 0.0,
			"0.024": 0.0,
			"0.025": 0.0
		}
	}
}
