{
	 "smiles": "CC(=O)C(=NNC1=CC=C(C=C1)C(O)=O)C(C)=O", 
	 "Tm": 488.15, 
	 "num_atms": 30, 
	 "gaussian": { 
		 "optdone": 1, 
		 "sigma_profile": "yes", 
		 "theory": "DFT", 
		 "functional": "B3LYP", 
		 "basiset": "6-31G**", 
		 "properties": { 
			 "R2extent": 7321.0442, 
			 "electric_dipole_moment_norm": 3.13767784994, 
			 "electric_quadrupole_moment_norm": 29.7117646793, 
			 "total_energy": -874.893674683, 
			 "HOMO_LUMO_gap": 0.13873, 
			 "cosmo_polarized_energy": -20.25, 
			 "cosmo_cavitation_energy": 35.74, 
			 "cosmo_dispersion_energy": -25.46, 
			 "cosmo_repulsion_energy": 1.95, 
			 "cosmo_total_nonelectrostatic_energy": 12.23, 
			 "SMD_solvation_energy": 8.19 
		},
		"coords": [
			{
				"x": -3.0869611797,
				"y": 1.5066519179,
				"z": 3.5151295135,
				"element": "C" 
			},
			{
				"x": -2.2347839019,
				"y": 0.8483752265,
				"z": 2.4605217494,
				"element": "C" 
			},
			{
				"x": -1.6400994425,
				"y": -0.2055604405,
				"z": 2.7378301114,
				"element": "O" 
			},
			{
				"x": -2.0884857797,
				"y": 1.4287326438,
				"z": 1.0978747795,
				"element": "C" 
			},
			{
				"x": -1.3487559381,
				"y": 0.8724357538,
				"z": 0.1524857589,
				"element": "N" 
			},
			{
				"x": -0.6924275845,
				"y": -0.2389120414,
				"z": 0.3660938618,
				"element": "N" 
			},
			{
				"x": 0.0888948921,
				"y": -0.8249148788,
				"z": -0.6362116516,
				"element": "C" 
			},
			{
				"x": 0.2110546855,
				"y": -0.2591324597,
				"z": -1.9155506679,
				"element": "C" 
			},
			{
				"x": 0.9988449444,
				"y": -0.8892587495,
				"z": -2.866844021,
				"element": "C" 
			},
			{
				"x": 1.6921003739,
				"y": -2.0732790462,
				"z": -2.5676437713,
				"element": "C" 
			},
			{
				"x": 1.5495988277,
				"y": -2.6347725891,
				"z": -1.2906416476,
				"element": "C" 
			},
			{
				"x": 0.7552613248,
				"y": -2.0201059,
				"z": -0.3292303044,
				"element": "C" 
			},
			{
				"x": 2.5147707798,
				"y": -2.691242008,
				"z": -3.6543748612,
				"element": "C" 
			},
			{
				"x": 3.4643310362,
				"y": -3.5889239055,
				"z": -3.2736377721,
				"element": "O" 
			},
			{
				"x": 2.3692525986,
				"y": -2.4286703605,
				"z": -4.8254023028,
				"element": "O" 
			},
			{
				"x": -2.7639636545,
				"y": 2.6921037528,
				"z": 0.6754617065,
				"element": "C" 
			},
			{
				"x": -2.5368058441,
				"y": 3.1818966437,
				"z": -0.7449031927,
				"element": "C" 
			},
			{
				"x": -3.4807188081,
				"y": 3.3207683416,
				"z": 1.4433541683,
				"element": "O" 
			},
			{
				"x": -4.1208401378,
				"y": 1.6073767877,
				"z": 3.1750147433,
				"element": "H" 
			},
			{
				"x": -3.0338262085,
				"y": 0.8964611059,
				"z": 4.4182584617,
				"element": "H" 
			},
			{
				"x": -2.7445380577,
				"y": 2.5254022675,
				"z": 3.714071708,
				"element": "H" 
			},
			{
				"x": -0.7841551627,
				"y": -0.6534539794,
				"z": 1.3060127652,
				"element": "H" 
			},
			{
				"x": -0.31507305,
				"y": 0.659726068,
				"z": -2.1424321727,
				"element": "H" 
			},
			{
				"x": 1.0965001779,
				"y": -0.4769292523,
				"z": -3.8652540508,
				"element": "H" 
			},
			{
				"x": 2.023987325,
				"y": -3.5801152411,
				"z": -1.0394554569,
				"element": "H" 
			},
			{
				"x": 0.6414345589,
				"y": -2.4662388254,
				"z": 0.6545202719,
				"element": "H" 
			},
			{
				"x": 3.5853990576,
				"y": -3.5642754086,
				"z": -2.3146856221,
				"element": "H" 
			},
			{
				"x": -2.8670098502,
				"y": 2.4372179294,
				"z": -1.4750807919,
				"element": "H" 
			},
			{
				"x": -1.4744584444,
				"y": 3.3626637323,
				"z": -0.9332832393,
				"element": "H" 
			},
			{
				"x": -3.099827538,
				"y": 4.1063729151,
				"z": -0.8768980731,
				"element": "H" 
			}
		],
		 "valence_orbital": [ 
			{
				"type": "occ",
				"energy": -0.28483,
				"method": "rhf"
			},
			{
				"type": "occ",
				"energy": -0.27751,
				"method": "rhf"
			},
			{
				"type": "occ",
				"energy": -0.2731,
				"method": "rhf"
			},
			{
				"type": "occ",
				"energy": -0.25001,
				"method": "rhf"
			},
			{
				"type": "occ",
				"energy": -0.23947,
				"method": "rhf"
			},
			{
				"type": "unocc",
				"energy": -0.10074,
				"method": "rhf"
			},
			{
				"type": "unocc",
				"energy": -0.04207,
				"method": "rhf"
			},
			{
				"type": "unocc",
				"energy": -0.03406,
				"method": "rhf"
			},
			{
				"type": "unocc",
				"energy": -0.03006,
				"method": "rhf"
			},
			{
				"type": "unocc",
				"energy": 0.04583,
				"method": "rhf"
			}
		],
		"cosmo_sigma_profile": { 
			"-0.025": 0.0,
			"-0.024": 0.0,
			"-0.023": 0.0,
			"-0.022": 0.0,
			"-0.021": 0.0,
			"-0.02": 0.00622677697059,
			"-0.019": 0.465955916669,
			"-0.018": 0.883306566072,
			"-0.017": 1.1027193319,
			"-0.016": 0.763225017284,
			"-0.015": 1.20802624714,
			"-0.014": 0.315736668502,
			"-0.013": 1.16002958243,
			"-0.012": 2.08946733149,
			"-0.011": 2.13380375812,
			"-0.01": 2.18182989253,
			"-0.009": 3.00591942055,
			"-0.008": 4.01099930041,
			"-0.007": 6.00768190931,
			"-0.006": 8.73959241164,
			"-0.005": 15.5429111345,
			"-0.004": 22.5568792199,
			"-0.003": 24.1143614419,
			"-0.002": 25.6261530211,
			"-0.001": 29.4160232261,
			"0.0": 22.8835455802,
			"0.001": 18.5381154198,
			"0.002": 21.0610847002,
			"0.003": 9.77701525691,
			"0.004": 5.13276444029,
			"0.005": 4.9346657658,
			"0.006": 6.52576601524,
			"0.007": 4.74171522672,
			"0.008": 4.29649790454,
			"0.009": 7.48630568997,
			"0.01": 7.28497179416,
			"0.011": 8.96165158694,
			"0.012": 8.94283787954,
			"0.013": 3.38152159274,
			"0.014": 0.263747502514,
			"0.015": 0.0,
			"0.016": 0.0,
			"0.017": 0.0,
			"0.018": 0.0,
			"0.019": 0.0,
			"0.02": 0.0,
			"0.021": 0.0,
			"0.022": 0.0,
			"0.023": 0.0,
			"0.024": 0.0,
			"0.025": 0.0
		}
	}
}
