{
	 "smiles": "O=C1NN=C(O1)C1=CC=CO1", 
	 "Tm": 385.15, 
	 "num_atms": 15, 
	 "gaussian": { 
		 "optdone": 1, 
		 "sigma_profile": "yes", 
		 "theory": "DFT", 
		 "functional": "B3LYP", 
		 "basiset": "6-31G**", 
		 "properties": { 
			 "R2extent": 2433.0658, 
			 "electric_dipole_moment_norm": 3.9797147649, 
			 "electric_quadrupole_moment_norm": 15.8161940801, 
			 "total_energy": -566.178887459, 
			 "HOMO_LUMO_gap": 0.17437, 
			 "cosmo_polarized_energy": -12.73, 
			 "cosmo_cavitation_energy": 21.05, 
			 "cosmo_dispersion_energy": -15.98, 
			 "cosmo_repulsion_energy": 1.29, 
			 "cosmo_total_nonelectrostatic_energy": 6.36, 
			 "SMD_solvation_energy": 5.38 
		},
		"coords": [
			{
				"x": 0.9477843776,
				"y": -2.550164772,
				"z": -2.2212489282,
				"element": "O" 
			},
			{
				"x": 0.7275405257,
				"y": -1.7922455637,
				"z": -1.3138419409,
				"element": "C" 
			},
			{
				"x": -0.4142596288,
				"y": -1.5155393462,
				"z": -0.6097035112,
				"element": "N" 
			},
			{
				"x": -0.2393441708,
				"y": -0.5643667536,
				"z": 0.3720209349,
				"element": "N" 
			},
			{
				"x": 1.0173624277,
				"y": -0.2626774713,
				"z": 0.2628814256,
				"element": "C" 
			},
			{
				"x": 1.6762769954,
				"y": -0.9461422061,
				"z": -0.7173056503,
				"element": "O" 
			},
			{
				"x": 1.7343490973,
				"y": 0.6965155888,
				"z": 1.0641394058,
				"element": "C" 
			},
			{
				"x": 1.3412755823,
				"y": 1.5104837556,
				"z": 2.0948627918,
				"element": "C" 
			},
			{
				"x": 2.5041306091,
				"y": 2.2383548536,
				"z": 2.4861054361,
				"element": "C" 
			},
			{
				"x": 3.512181432,
				"y": 1.8151815448,
				"z": 1.6689256585,
				"element": "C" 
			},
			{
				"x": 3.0608819781,
				"y": 0.8758847567,
				"z": 0.7964574966,
				"element": "O" 
			},
			{
				"x": -1.3144251939,
				"y": -1.9405188262,
				"z": -0.7598496348,
				"element": "H" 
			},
			{
				"x": 0.3467546046,
				"y": 1.572202265,
				"z": 2.510858309,
				"element": "H" 
			},
			{
				"x": 2.5788836689,
				"y": 2.9772143317,
				"z": 3.2704758717,
				"element": "H" 
			},
			{
				"x": 4.5569076947,
				"y": 2.0695178428,
				"z": 1.5821223356,
				"element": "H" 
			}
		],
		 "valence_orbital": [ 
			{
				"type": "occ",
				"energy": -0.34521,
				"method": "rhf"
			},
			{
				"type": "occ",
				"energy": -0.30067,
				"method": "rhf"
			},
			{
				"type": "occ",
				"energy": -0.29022,
				"method": "rhf"
			},
			{
				"type": "occ",
				"energy": -0.2789,
				"method": "rhf"
			},
			{
				"type": "occ",
				"energy": -0.22413,
				"method": "rhf"
			},
			{
				"type": "unocc",
				"energy": -0.04976,
				"method": "rhf"
			},
			{
				"type": "unocc",
				"energy": 0.0318,
				"method": "rhf"
			},
			{
				"type": "unocc",
				"energy": 0.04056,
				"method": "rhf"
			},
			{
				"type": "unocc",
				"energy": 0.06665,
				"method": "rhf"
			},
			{
				"type": "unocc",
				"energy": 0.09731,
				"method": "rhf"
			}
		],
		"cosmo_sigma_profile": { 
			"-0.025": 0.0,
			"-0.024": 0.0,
			"-0.023": 0.0,
			"-0.022": 0.0,
			"-0.021": 0.0,
			"-0.02": 0.0,
			"-0.019": 0.00549793594342,
			"-0.018": 1.05325077111,
			"-0.017": 1.78302532197,
			"-0.016": 1.1501639244,
			"-0.015": 1.0573678044,
			"-0.014": 0.585784852979,
			"-0.013": 0.6837316102,
			"-0.012": 1.52495246318,
			"-0.011": 0.290138043946,
			"-0.01": 1.85849549666,
			"-0.009": 2.99419537842,
			"-0.008": 5.36719897691,
			"-0.007": 5.5498685717,
			"-0.006": 7.12179764664,
			"-0.005": 8.84464580552,
			"-0.004": 8.20022776184,
			"-0.003": 10.3353134882,
			"-0.002": 9.89327709586,
			"-0.001": 8.93133106455,
			"0.0": 11.8584521518,
			"0.001": 12.7723566442,
			"0.002": 12.8203014716,
			"0.003": 11.4287595852,
			"0.004": 5.74544474352,
			"0.005": 4.94867560614,
			"0.006": 5.61043658672,
			"0.007": 5.97039247711,
			"0.008": 3.71336826144,
			"0.009": 2.49412096223,
			"0.01": 3.30529897412,
			"0.011": 7.32206873151,
			"0.012": 5.05716134617,
			"0.013": 0.317240730616,
			"0.014": 0.0,
			"0.015": 0.0,
			"0.016": 0.0,
			"0.017": 0.0,
			"0.018": 0.0,
			"0.019": 0.0,
			"0.02": 0.0,
			"0.021": 0.0,
			"0.022": 0.0,
			"0.023": 0.0,
			"0.024": 0.0,
			"0.025": 0.0
		}
	}
}
