{
	 "smiles": "O=C1CC2(CN1)CCOCC2", 
	 "Tm": 406.15, 
	 "num_atms": 24, 
	 "gaussian": { 
		 "optdone": 1, 
		 "sigma_profile": "yes", 
		 "theory": "DFT", 
		 "functional": "B3LYP", 
		 "basiset": "6-31G**", 
		 "properties": { 
			 "R2extent": 1891.8278, 
			 "electric_dipole_moment_norm": 3.14672840423, 
			 "electric_quadrupole_moment_norm": 17.9562287959, 
			 "total_energy": -517.884159453, 
			 "HOMO_LUMO_gap": 0.26988, 
			 "cosmo_polarized_energy": -14.21, 
			 "cosmo_cavitation_energy": 24.74, 
			 "cosmo_dispersion_energy": -18.59, 
			 "cosmo_repulsion_energy": 1.5, 
			 "cosmo_total_nonelectrostatic_energy": 7.64, 
			 "SMD_solvation_energy": 3.68 
		},
		"coords": [
			{
				"x": 2.7749928214,
				"y": 0.4096041563,
				"z": 2.711740151,
				"element": "O" 
			},
			{
				"x": 2.1634572184,
				"y": 0.4965157948,
				"z": 1.6618166791,
				"element": "C" 
			},
			{
				"x": 0.6730870813,
				"y": 0.7900024406,
				"z": 1.4654297959,
				"element": "C" 
			},
			{
				"x": 0.3768096576,
				"y": 0.4051029126,
				"z": -0.0025638304,
				"element": "C" 
			},
			{
				"x": 1.759645817,
				"y": 0.6611014721,
				"z": -0.672015682,
				"element": "C" 
			},
			{
				"x": 2.6954805267,
				"y": 0.3669369176,
				"z": 0.4025084253,
				"element": "N" 
			},
			{
				"x": -0.7711950847,
				"y": 1.2406833566,
				"z": -0.624552987,
				"element": "C" 
			},
			{
				"x": -1.5374861663,
				"y": 0.4530055836,
				"z": -1.6859735695,
				"element": "C" 
			},
			{
				"x": -2.1799885121,
				"y": -0.7001470339,
				"z": -1.1469159287,
				"element": "O" 
			},
			{
				"x": -1.5052780891,
				"y": -1.3072919766,
				"z": -0.0442082831,
				"element": "C" 
			},
			{
				"x": 0.006705193,
				"y": -1.1051385861,
				"z": -0.1016190114,
				"element": "C" 
			},
			{
				"x": 0.5198182509,
				"y": 1.8637079424,
				"z": 1.6372738178,
				"element": "H" 
			},
			{
				"x": 0.0673458729,
				"y": 0.2526220761,
				"z": 2.1995677094,
				"element": "H" 
			},
			{
				"x": 1.845708525,
				"y": 1.706305174,
				"z": -1.0081449905,
				"element": "H" 
			},
			{
				"x": 1.9317450354,
				"y": 0.0153393716,
				"z": -1.5396647352,
				"element": "H" 
			},
			{
				"x": 3.6967010536,
				"y": 0.3184840395,
				"z": 0.2791463148,
				"element": "H" 
			},
			{
				"x": -0.3851826863,
				"y": 2.1725062681,
				"z": -1.0548695845,
				"element": "H" 
			},
			{
				"x": -1.4802494536,
				"y": 1.5308037854,
				"z": 0.1600851009,
				"element": "H" 
			},
			{
				"x": -0.8569469919,
				"y": 0.1624143992,
				"z": -2.5042022072,
				"element": "H" 
			},
			{
				"x": -2.329194517,
				"y": 1.0661827786,
				"z": -2.1291967737,
				"element": "H" 
			},
			{
				"x": -1.9029144669,
				"y": -0.911931626,
				"z": 0.9052174424,
				"element": "H" 
			},
			{
				"x": -1.755904911,
				"y": -2.3727331907,
				"z": -0.0791209048,
				"element": "H" 
			},
			{
				"x": 0.3699634831,
				"y": -1.5206354108,
				"z": -1.049237873,
				"element": "H" 
			},
			{
				"x": 0.4917803425,
				"y": -1.677440645,
				"z": 0.6965009244,
				"element": "H" 
			}
		],
		 "valence_orbital": [ 
			{
				"type": "occ",
				"energy": -0.3267,
				"method": "rhf"
			},
			{
				"type": "occ",
				"energy": -0.29617,
				"method": "rhf"
			},
			{
				"type": "occ",
				"energy": -0.25336,
				"method": "rhf"
			},
			{
				"type": "occ",
				"energy": -0.24663,
				"method": "rhf"
			},
			{
				"type": "occ",
				"energy": -0.24039,
				"method": "rhf"
			},
			{
				"type": "unocc",
				"energy": 0.02949,
				"method": "rhf"
			},
			{
				"type": "unocc",
				"energy": 0.06761,
				"method": "rhf"
			},
			{
				"type": "unocc",
				"energy": 0.08742,
				"method": "rhf"
			},
			{
				"type": "unocc",
				"energy": 0.09687,
				"method": "rhf"
			},
			{
				"type": "unocc",
				"energy": 0.10712,
				"method": "rhf"
			}
		],
		"cosmo_sigma_profile": { 
			"-0.025": 0.0,
			"-0.024": 0.0,
			"-0.023": 0.0,
			"-0.022": 0.0,
			"-0.021": 0.0,
			"-0.02": 0.0,
			"-0.019": 0.0,
			"-0.018": 0.0,
			"-0.017": 0.0,
			"-0.016": 0.0,
			"-0.015": 0.0,
			"-0.014": 0.64699320222,
			"-0.013": 1.22733570583,
			"-0.012": 1.25242662593,
			"-0.011": 1.12107290233,
			"-0.01": 0.609106259207,
			"-0.009": 0.655370808895,
			"-0.008": 1.30939388654,
			"-0.007": 1.23093455333,
			"-0.006": 1.58490016933,
			"-0.005": 13.3378659814,
			"-0.004": 31.5387739144,
			"-0.003": 32.1585490901,
			"-0.002": 25.4614629162,
			"-0.001": 15.514429948,
			"0.0": 9.91252238446,
			"0.001": 4.93718440967,
			"0.002": 3.89850614258,
			"0.003": 3.77864017997,
			"0.004": 3.32618457985,
			"0.005": 3.99759842044,
			"0.006": 2.39717794109,
			"0.007": 1.92267549133,
			"0.008": 2.69033751642,
			"0.009": 3.0496746566,
			"0.01": 2.019895016,
			"0.011": 2.91781333661,
			"0.012": 2.24437466398,
			"0.013": 5.32111276266,
			"0.014": 8.1177624001,
			"0.015": 3.28855494494,
			"0.016": 0.101276356584,
			"0.017": 0.0,
			"0.018": 0.0,
			"0.019": 0.0,
			"0.02": 0.0,
			"0.021": 0.0,
			"0.022": 0.0,
			"0.023": 0.0,
			"0.024": 0.0,
			"0.025": 0.0
		}
	}
}
