{
	 "smiles": "CCN1N=CC2=C1N=C(C=C2C(O)=O)C1=CC=CS1", 
	 "Tm": 517.15, 
	 "num_atms": 30, 
	 "gaussian": { 
		 "optdone": 1, 
		 "sigma_profile": "yes", 
		 "theory": "DFT", 
		 "functional": "B3LYP", 
		 "basiset": "6-31G**", 
		 "properties": { 
			 "R2extent": 6376.6262, 
			 "electric_dipole_moment_norm": 3.85136474253, 
			 "electric_quadrupole_moment_norm": 13.4988905563, 
			 "total_energy": -1214.89670231, 
			 "HOMO_LUMO_gap": 0.13975, 
			 "cosmo_polarized_energy": -15.79, 
			 "cosmo_cavitation_energy": 36.51, 
			 "cosmo_dispersion_energy": -26.55, 
			 "cosmo_repulsion_energy": 1.98, 
			 "cosmo_total_nonelectrostatic_energy": 11.94, 
			 "SMD_solvation_energy": 5.26 
		},
		"coords": [
			{
				"x": 2.9496140754,
				"y": 1.1309274944,
				"z": -3.0077166462,
				"element": "C" 
			},
			{
				"x": 3.312079727,
				"y": 0.8417062505,
				"z": -1.5507209506,
				"element": "C" 
			},
			{
				"x": 2.3738830848,
				"y": 1.4457450468,
				"z": -0.6108426186,
				"element": "N" 
			},
			{
				"x": 2.3579939257,
				"y": 2.786752772,
				"z": -0.4122803266,
				"element": "N" 
			},
			{
				"x": 1.3711494731,
				"y": 3.0412609298,
				"z": 0.4364597028,
				"element": "C" 
			},
			{
				"x": 0.7025422465,
				"y": 1.8425175275,
				"z": 0.8200217167,
				"element": "C" 
			},
			{
				"x": 1.383498513,
				"y": 0.8257453389,
				"z": 0.0982211019,
				"element": "C" 
			},
			{
				"x": 1.1138437238,
				"y": -0.4799464139,
				"z": 0.0978377509,
				"element": "N" 
			},
			{
				"x": 0.0718228848,
				"y": -0.8567025481,
				"z": 0.8533698192,
				"element": "C" 
			},
			{
				"x": -0.689914516,
				"y": 0.0699640709,
				"z": 1.6219561742,
				"element": "C" 
			},
			{
				"x": -0.3737745924,
				"y": 1.4178708396,
				"z": 1.6324143669,
				"element": "C" 
			},
			{
				"x": -1.1846767375,
				"y": 2.3397320612,
				"z": 2.4971095722,
				"element": "C" 
			},
			{
				"x": -0.565001226,
				"y": 3.4848433852,
				"z": 2.8821897053,
				"element": "O" 
			},
			{
				"x": -2.3140380854,
				"y": 2.1011406717,
				"z": 2.8496654698,
				"element": "O" 
			},
			{
				"x": -0.2514500741,
				"y": -2.2813167397,
				"z": 0.8610834023,
				"element": "C" 
			},
			{
				"x": -1.2553468064,
				"y": -2.9520138147,
				"z": 1.5282776254,
				"element": "C" 
			},
			{
				"x": -1.2542593774,
				"y": -4.3526296873,
				"z": 1.2841296016,
				"element": "C" 
			},
			{
				"x": -0.2499323672,
				"y": -4.7354701414,
				"z": 0.4338204897,
				"element": "C" 
			},
			{
				"x": 0.7121586637,
				"y": -3.3946579602,
				"z": -0.0849688472,
				"element": "S" 
			},
			{
				"x": 1.9694683678,
				"y": 0.7137516722,
				"z": -3.2563262526,
				"element": "H" 
			},
			{
				"x": 3.6933488573,
				"y": 0.6814890735,
				"z": -3.6730028879,
				"element": "H" 
			},
			{
				"x": 2.9271054253,
				"y": 2.2084220811,
				"z": -3.1904714107,
				"element": "H" 
			},
			{
				"x": 4.3073241771,
				"y": 1.2279415724,
				"z": -1.3127094434,
				"element": "H" 
			},
			{
				"x": 3.2988971596,
				"y": -0.2309827201,
				"z": -1.3447173433,
				"element": "H" 
			},
			{
				"x": 1.1603586463,
				"y": 4.0673936202,
				"z": 0.7089518,
				"element": "H" 
			},
			{
				"x": -1.5258366562,
				"y": -0.2649183143,
				"z": 2.2231824552,
				"element": "H" 
			},
			{
				"x": 0.3750869864,
				"y": 3.4478011477,
				"z": 2.6523064475,
				"element": "H" 
			},
			{
				"x": -1.975120894,
				"y": -2.4620383213,
				"z": 2.1734120248,
				"element": "H" 
			},
			{
				"x": -1.9676738065,
				"y": -5.0418307508,
				"z": 1.7208415949,
				"element": "H" 
			},
			{
				"x": -0.0202507985,
				"y": -5.7319981438,
				"z": 0.081705906,
				"element": "H" 
			}
		],
		 "valence_orbital": [ 
			{
				"type": "occ",
				"energy": -0.28637,
				"method": "rhf"
			},
			{
				"type": "occ",
				"energy": -0.2798,
				"method": "rhf"
			},
			{
				"type": "occ",
				"energy": -0.26029,
				"method": "rhf"
			},
			{
				"type": "occ",
				"energy": -0.24899,
				"method": "rhf"
			},
			{
				"type": "occ",
				"energy": -0.22515,
				"method": "rhf"
			},
			{
				"type": "unocc",
				"energy": -0.0854,
				"method": "rhf"
			},
			{
				"type": "unocc",
				"energy": -0.04338,
				"method": "rhf"
			},
			{
				"type": "unocc",
				"energy": 0.00383,
				"method": "rhf"
			},
			{
				"type": "unocc",
				"energy": 0.02187,
				"method": "rhf"
			},
			{
				"type": "unocc",
				"energy": 0.0312,
				"method": "rhf"
			}
		],
		"cosmo_sigma_profile": { 
			"-0.025": 0.0,
			"-0.024": 0.0,
			"-0.023": 0.0,
			"-0.022": 0.0,
			"-0.021": 0.0,
			"-0.02": 0.0,
			"-0.019": 0.0,
			"-0.018": 0.0425448813177,
			"-0.017": 0.591309560437,
			"-0.016": 0.921270586331,
			"-0.015": 1.15395381358,
			"-0.014": 1.25187947325,
			"-0.013": 1.25513365696,
			"-0.012": 0.864787109026,
			"-0.011": 0.95340543272,
			"-0.01": 1.8021844308,
			"-0.009": 4.44240496272,
			"-0.008": 6.02029796408,
			"-0.007": 8.6351292323,
			"-0.006": 10.6034622569,
			"-0.005": 14.1312985251,
			"-0.004": 19.4222124506,
			"-0.003": 20.7335031051,
			"-0.002": 21.4057990407,
			"-0.001": 27.2790676839,
			"0.0": 27.0159249152,
			"0.001": 19.0825587529,
			"0.002": 17.1056160244,
			"0.003": 20.2128976897,
			"0.004": 20.2005941072,
			"0.005": 10.2507708583,
			"0.006": 5.37237369078,
			"0.007": 6.45544845354,
			"0.008": 5.43591565425,
			"0.009": 5.74509829521,
			"0.01": 5.99740602758,
			"0.011": 6.25356343517,
			"0.012": 2.96141300136,
			"0.013": 1.01975115537,
			"0.014": 0.69059808436,
			"0.015": 0.0,
			"0.016": 0.0,
			"0.017": 0.0,
			"0.018": 0.0,
			"0.019": 0.0,
			"0.02": 0.0,
			"0.021": 0.0,
			"0.022": 0.0,
			"0.023": 0.0,
			"0.024": 0.0,
			"0.025": 0.0
		}
	}
}
