{
	 "smiles": "NC1=CC(F)=C(N2CCCC2)C(F)=C1", 
	 "Tm": 368.15, 
	 "num_atms": 26, 
	 "gaussian": { 
		 "optdone": 1, 
		 "sigma_profile": "yes", 
		 "theory": "DFT", 
		 "functional": "B3LYP", 
		 "basiset": "6-31G**", 
		 "properties": { 
			 "R2extent": 3294.4891, 
			 "electric_dipole_moment_norm": 1.33808898434, 
			 "electric_quadrupole_moment_norm": 15.6283855193, 
			 "total_energy": -697.459511611, 
			 "HOMO_LUMO_gap": 0.18167, 
			 "cosmo_polarized_energy": -8.29, 
			 "cosmo_cavitation_energy": 28.71, 
			 "cosmo_dispersion_energy": -21.28, 
			 "cosmo_repulsion_energy": 1.65, 
			 "cosmo_total_nonelectrostatic_energy": 9.08, 
			 "SMD_solvation_energy": 4.35 
		},
		"coords": [
			{
				"x": 0.4563776693,
				"y": 3.7388899207,
				"z": -2.1809828545,
				"element": "N" 
			},
			{
				"x": 0.1217348154,
				"y": 2.6846323417,
				"z": -1.3228975178,
				"element": "C" 
			},
			{
				"x": 1.0286919684,
				"y": 1.6474360668,
				"z": -1.065353062,
				"element": "C" 
			},
			{
				"x": 0.6441309912,
				"y": 0.568699471,
				"z": -0.2818843188,
				"element": "C" 
			},
			{
				"x": 1.5566187914,
				"y": -0.4194162544,
				"z": -0.1034098789,
				"element": "F" 
			},
			{
				"x": -0.6130552992,
				"y": 0.4443687576,
				"z": 0.3390155847,
				"element": "C" 
			},
			{
				"x": -0.9899659866,
				"y": -0.6132695257,
				"z": 1.1610455191,
				"element": "N" 
			},
			{
				"x": -2.3135863772,
				"y": -1.2506071133,
				"z": 1.0723743464,
				"element": "C" 
			},
			{
				"x": -2.1240862252,
				"y": -2.587507076,
				"z": 1.8086566011,
				"element": "C" 
			},
			{
				"x": -0.9782639668,
				"y": -2.2935023656,
				"z": 2.790623876,
				"element": "C" 
			},
			{
				"x": -0.0485893623,
				"y": -1.4066334814,
				"z": 1.9557430673,
				"element": "C" 
			},
			{
				"x": -1.473729718,
				"y": 1.5262077617,
				"z": 0.0665936412,
				"element": "C" 
			},
			{
				"x": -2.7033530012,
				"y": 1.5187315082,
				"z": 0.6370389864,
				"element": "F" 
			},
			{
				"x": -1.1545705247,
				"y": 2.6017426152,
				"z": -0.7466844792,
				"element": "C" 
			},
			{
				"x": -0.0644687088,
				"y": 4.5906765517,
				"z": -2.0202567181,
				"element": "H" 
			},
			{
				"x": 1.4480274555,
				"y": 3.9245435793,
				"z": -2.2486743725,
				"element": "H" 
			},
			{
				"x": 2.0255212635,
				"y": 1.644116134,
				"z": -1.4939420785,
				"element": "H" 
			},
			{
				"x": -2.6186089,
				"y": -1.3920101581,
				"z": 0.026870934,
				"element": "H" 
			},
			{
				"x": -3.0827647077,
				"y": -0.6364788439,
				"z": 1.5553213587,
				"element": "H" 
			},
			{
				"x": -3.0413326174,
				"y": -2.924595439,
				"z": 2.2998017733,
				"element": "H" 
			},
			{
				"x": -1.8164098055,
				"y": -3.3680642766,
				"z": 1.103297075,
				"element": "H" 
			},
			{
				"x": -0.4790630815,
				"y": -3.1961621511,
				"z": 3.1545518601,
				"element": "H" 
			},
			{
				"x": -1.3536862082,
				"y": -1.7380677193,
				"z": 3.6576672447,
				"element": "H" 
			},
			{
				"x": 0.6154532897,
				"y": -2.0242239974,
				"z": 1.3354684144,
				"element": "H" 
			},
			{
				"x": 0.5862642302,
				"y": -0.7548213477,
				"z": 2.5673777065,
				"element": "H" 
			},
			{
				"x": -1.9008859841,
				"y": 3.3738150414,
				"z": -0.9023627086,
				"element": "H" 
			}
		],
		 "valence_orbital": [ 
			{
				"type": "occ",
				"energy": -0.32431,
				"method": "rhf"
			},
			{
				"type": "occ",
				"energy": -0.30151,
				"method": "rhf"
			},
			{
				"type": "occ",
				"energy": -0.23801,
				"method": "rhf"
			},
			{
				"type": "occ",
				"energy": -0.23435,
				"method": "rhf"
			},
			{
				"type": "occ",
				"energy": -0.17009,
				"method": "rhf"
			},
			{
				"type": "unocc",
				"energy": 0.01158,
				"method": "rhf"
			},
			{
				"type": "unocc",
				"energy": 0.02239,
				"method": "rhf"
			},
			{
				"type": "unocc",
				"energy": 0.07759,
				"method": "rhf"
			},
			{
				"type": "unocc",
				"energy": 0.08714,
				"method": "rhf"
			},
			{
				"type": "unocc",
				"energy": 0.10108,
				"method": "rhf"
			}
		],
		"cosmo_sigma_profile": { 
			"-0.025": 0.0,
			"-0.024": 0.0,
			"-0.023": 0.0,
			"-0.022": 0.0,
			"-0.021": 0.0,
			"-0.02": 0.0,
			"-0.019": 0.0,
			"-0.018": 0.0,
			"-0.017": 0.0,
			"-0.016": 0.0,
			"-0.015": 0.0,
			"-0.014": 0.0,
			"-0.013": 0.48135233063,
			"-0.012": 2.41345232346,
			"-0.011": 3.09548551516,
			"-0.01": 2.45498953317,
			"-0.009": 3.89118553577,
			"-0.008": 3.33220618413,
			"-0.007": 4.32220872788,
			"-0.006": 4.13004035694,
			"-0.005": 4.09944569661,
			"-0.004": 6.90804693951,
			"-0.003": 16.359029274,
			"-0.002": 24.2763699737,
			"-0.001": 28.3461327181,
			"0.0": 21.1213914951,
			"0.001": 14.1526166582,
			"0.002": 15.4703146132,
			"0.003": 18.8751215625,
			"0.004": 22.1994192708,
			"0.005": 19.3837835102,
			"0.006": 3.31282675581,
			"0.007": 1.72141459219,
			"0.008": 1.1751560571,
			"0.009": 0.768181015695,
			"0.01": 0.50883761839,
			"0.011": 1.01033516888,
			"0.012": 0.596620026737,
			"0.013": 0.618069695705,
			"0.014": 0.718941326109,
			"0.015": 0.37959146185,
			"0.016": 0.000491721369088,
			"0.017": 0.0,
			"0.018": 0.0,
			"0.019": 0.0,
			"0.02": 0.0,
			"0.021": 0.0,
			"0.022": 0.0,
			"0.023": 0.0,
			"0.024": 0.0,
			"0.025": 0.0
		}
	}
}
