{
	 "smiles": "COCCC1=NC2=C(O1)C=CC(N)=C2", 
	 "Tm": 318.15, 
	 "num_atms": 26, 
	 "gaussian": { 
		 "optdone": 1, 
		 "sigma_profile": "yes", 
		 "theory": "DFT", 
		 "functional": "B3LYP", 
		 "basiset": "6-31G**", 
		 "properties": { 
			 "R2extent": 4110.022, 
			 "electric_dipole_moment_norm": 1.98473725465, 
			 "electric_quadrupole_moment_norm": 20.0159751866, 
			 "total_energy": -648.234964044, 
			 "HOMO_LUMO_gap": 0.17975, 
			 "cosmo_polarized_energy": -14.6, 
			 "cosmo_cavitation_energy": 30.13, 
			 "cosmo_dispersion_energy": -22.11, 
			 "cosmo_repulsion_energy": 1.78, 
			 "cosmo_total_nonelectrostatic_energy": 9.8, 
			 "SMD_solvation_energy": 3.65 
		},
		"coords": [
			{
				"x": -0.1828116229,
				"y": 3.223710391,
				"z": 1.6510849525,
				"element": "C" 
			},
			{
				"x": 0.4578591697,
				"y": 2.6388348349,
				"z": 0.5377344889,
				"element": "O" 
			},
			{
				"x": -0.2356196572,
				"y": 2.856769997,
				"z": -0.6721931971,
				"element": "C" 
			},
			{
				"x": 0.5131164869,
				"y": 2.1364837342,
				"z": -1.7937964188,
				"element": "C" 
			},
			{
				"x": 0.5576695687,
				"y": 0.6542040058,
				"z": -1.6255782543,
				"element": "C" 
			},
			{
				"x": 1.5966450852,
				"y": -0.1183069723,
				"z": -1.6529999516,
				"element": "N" 
			},
			{
				"x": 1.0787212847,
				"y": -1.4044891636,
				"z": -1.4732205373,
				"element": "C" 
			},
			{
				"x": -0.3115849056,
				"y": -1.3130517813,
				"z": -1.3446020034,
				"element": "C" 
			},
			{
				"x": -0.6504088501,
				"y": 0.019321411,
				"z": -1.4469135437,
				"element": "O" 
			},
			{
				"x": -1.1274814675,
				"y": -2.4166934738,
				"z": -1.1567597413,
				"element": "C" 
			},
			{
				"x": -0.4876536628,
				"y": -3.6551044053,
				"z": -1.0991093846,
				"element": "C" 
			},
			{
				"x": 0.9172007703,
				"y": -3.7834081058,
				"z": -1.2257978675,
				"element": "C" 
			},
			{
				"x": 1.5072282472,
				"y": -5.0497385296,
				"z": -1.0982658834,
				"element": "N" 
			},
			{
				"x": 1.7145349207,
				"y": -2.6447539157,
				"z": -1.4167152523,
				"element": "C" 
			},
			{
				"x": -0.2647536213,
				"y": 4.317841871,
				"z": 1.5488723104,
				"element": "H" 
			},
			{
				"x": 0.4241879799,
				"y": 2.9965500739,
				"z": 2.5304899563,
				"element": "H" 
			},
			{
				"x": -1.1948138498,
				"y": 2.815888941,
				"z": 1.8019448563,
				"element": "H" 
			},
			{
				"x": -1.2684871344,
				"y": 2.4788978933,
				"z": -0.6040823342,
				"element": "H" 
			},
			{
				"x": -0.2922160692,
				"y": 3.9339753241,
				"z": -0.9040678774,
				"element": "H" 
			},
			{
				"x": 0.0243471045,
				"y": 2.3795794311,
				"z": -2.7465372303,
				"element": "H" 
			},
			{
				"x": 1.5448261186,
				"y": 2.4912090909,
				"z": -1.844493705,
				"element": "H" 
			},
			{
				"x": -2.2042293948,
				"y": -2.3305442328,
				"z": -1.0604012692,
				"element": "H" 
			},
			{
				"x": -1.0816222173,
				"y": -4.5519842638,
				"z": -0.9446298527,
				"element": "H" 
			},
			{
				"x": 2.418842711,
				"y": -5.1301719136,
				"z": -1.5284597122,
				"element": "H" 
			},
			{
				"x": 0.9093199467,
				"y": -5.8197428206,
				"z": -1.3668420827,
				"element": "H" 
			},
			{
				"x": 2.7932830589,
				"y": -2.720277421,
				"z": -1.5126604653,
				"element": "H" 
			}
		],
		 "valence_orbital": [ 
			{
				"type": "occ",
				"energy": -0.29289,
				"method": "rhf"
			},
			{
				"type": "occ",
				"energy": -0.27564,
				"method": "rhf"
			},
			{
				"type": "occ",
				"energy": -0.25671,
				"method": "rhf"
			},
			{
				"type": "occ",
				"energy": -0.22662,
				"method": "rhf"
			},
			{
				"type": "occ",
				"energy": -0.19492,
				"method": "rhf"
			},
			{
				"type": "unocc",
				"energy": -0.01517,
				"method": "rhf"
			},
			{
				"type": "unocc",
				"energy": 0.02855,
				"method": "rhf"
			},
			{
				"type": "unocc",
				"energy": 0.05153,
				"method": "rhf"
			},
			{
				"type": "unocc",
				"energy": 0.08489,
				"method": "rhf"
			},
			{
				"type": "unocc",
				"energy": 0.09227,
				"method": "rhf"
			}
		],
		"cosmo_sigma_profile": { 
			"-0.025": 0.0,
			"-0.024": 0.0,
			"-0.023": 0.0,
			"-0.022": 0.0,
			"-0.021": 0.0,
			"-0.02": 0.0,
			"-0.019": 0.0,
			"-0.018": 0.0,
			"-0.017": 0.0,
			"-0.016": 0.0,
			"-0.015": 0.0,
			"-0.014": 0.0,
			"-0.013": 0.143682207687,
			"-0.012": 2.19289162049,
			"-0.011": 3.01940941593,
			"-0.01": 2.39566560093,
			"-0.009": 3.5542825667,
			"-0.008": 3.42983595722,
			"-0.007": 6.67197154462,
			"-0.006": 10.8534261152,
			"-0.005": 13.2658644855,
			"-0.004": 23.7830806857,
			"-0.003": 25.4938229692,
			"-0.002": 20.09560457,
			"-0.001": 12.4796827422,
			"0.0": 10.5853938398,
			"0.001": 10.796988182,
			"0.002": 11.6268438636,
			"0.003": 11.3790947929,
			"0.004": 14.6139470338,
			"0.005": 15.3894534899,
			"0.006": 8.05775615878,
			"0.007": 6.0829834423,
			"0.008": 3.65290832899,
			"0.009": 3.3228324542,
			"0.01": 3.43032480163,
			"0.011": 2.8282550419,
			"0.012": 2.98188776408,
			"0.013": 2.27850398903,
			"0.014": 1.8671227829,
			"0.015": 1.07689611432,
			"0.016": 0.932718036764,
			"0.017": 0.0736238587276,
			"0.018": 0.0,
			"0.019": 0.0,
			"0.02": 0.0,
			"0.021": 0.0,
			"0.022": 0.0,
			"0.023": 0.0,
			"0.024": 0.0,
			"0.025": 0.0
		}
	}
}
