{
	 "smiles": "ClC1=CC(CNC2=CC3=C(NC(=O)N3)C=C2)=CC=C1", 
	 "Tm": 491.15, 
	 "num_atms": 31, 
	 "gaussian": { 
		 "optdone": 1, 
		 "sigma_profile": "yes", 
		 "theory": "DFT", 
		 "functional": "B3LYP", 
		 "basiset": "6-31G**", 
		 "properties": { 
			 "R2extent": 10650.0147, 
			 "electric_dipole_moment_norm": 3.33357433695, 
			 "electric_quadrupole_moment_norm": 22.6775347838, 
			 "total_energy": -1240.42763473, 
			 "HOMO_LUMO_gap": 0.16237, 
			 "cosmo_polarized_energy": -18.87, 
			 "cosmo_cavitation_energy": 37.62, 
			 "cosmo_dispersion_energy": -27.83, 
			 "cosmo_repulsion_energy": 2.14, 
			 "cosmo_total_nonelectrostatic_energy": 11.93, 
			 "SMD_solvation_energy": 5.66 
		},
		"coords": [
			{
				"x": -5.3009226168,
				"y": -3.4758626065,
				"z": -3.2514758609,
				"element": "Cl" 
			},
			{
				"x": -4.4104242887,
				"y": -2.0429357087,
				"z": -2.7530475108,
				"element": "C" 
			},
			{
				"x": -3.3870734604,
				"y": -2.17230414,
				"z": -1.813957612,
				"element": "C" 
			},
			{
				"x": -2.6709697901,
				"y": -1.0414812948,
				"z": -1.4085771732,
				"element": "C" 
			},
			{
				"x": -1.5779558883,
				"y": -1.1652810255,
				"z": -0.3661088708,
				"element": "C" 
			},
			{
				"x": -0.3683220508,
				"y": -0.4795058032,
				"z": -0.7958763958,
				"element": "N" 
			},
			{
				"x": 0.7822621198,
				"y": -0.4710957988,
				"z": 0.0048504246,
				"element": "C" 
			},
			{
				"x": 0.7376420722,
				"y": -0.8066733155,
				"z": 1.3729282224,
				"element": "C" 
			},
			{
				"x": 1.9164582716,
				"y": -0.7154930539,
				"z": 2.1049024025,
				"element": "C" 
			},
			{
				"x": 3.1320672879,
				"y": -0.3183799837,
				"z": 1.5177898642,
				"element": "C" 
			},
			{
				"x": 4.0938937006,
				"y": -0.3501768553,
				"z": 2.5295963026,
				"element": "N" 
			},
			{
				"x": 3.5394459137,
				"y": -0.7523112239,
				"z": 3.7414432304,
				"element": "C" 
			},
			{
				"x": 4.0945164164,
				"y": -0.8847061625,
				"z": 4.8178111151,
				"element": "O" 
			},
			{
				"x": 2.1901491289,
				"y": -0.9723652085,
				"z": 3.4429018484,
				"element": "N" 
			},
			{
				"x": 3.184704776,
				"y": 0.0018824851,
				"z": 0.1677733927,
				"element": "C" 
			},
			{
				"x": 2.0057099557,
				"y": -0.0756191285,
				"z": -0.5759937945,
				"element": "C" 
			},
			{
				"x": -2.9905062651,
				"y": 0.2059958605,
				"z": -1.9628630211,
				"element": "C" 
			},
			{
				"x": -4.0123758269,
				"y": 0.3173061661,
				"z": -2.9042371665,
				"element": "C" 
			},
			{
				"x": -4.7351569712,
				"y": -0.8074154487,
				"z": -3.3084032756,
				"element": "C" 
			},
			{
				"x": -3.1516856991,
				"y": -3.1493000251,
				"z": -1.4044069252,
				"element": "H" 
			},
			{
				"x": -1.9230619077,
				"y": -0.6984291753,
				"z": 0.5666329536,
				"element": "H" 
			},
			{
				"x": -1.4044105567,
				"y": -2.2301547659,
				"z": -0.1349471661,
				"element": "H" 
			},
			{
				"x": -0.1682514778,
				"y": -0.6190573996,
				"z": -1.7780557403,
				"element": "H" 
			},
			{
				"x": -0.1805134493,
				"y": -1.1290352192,
				"z": 1.8489365867,
				"element": "H" 
			},
			{
				"x": 5.070736006,
				"y": -0.1209767719,
				"z": 2.4493299836,
				"element": "H" 
			},
			{
				"x": 1.5402216008,
				"y": -1.273262159,
				"z": 4.150643963,
				"element": "H" 
			},
			{
				"x": 4.1131724161,
				"y": 0.3065800846,
				"z": -0.3050779084,
				"element": "H" 
			},
			{
				"x": 2.0252980721,
				"y": 0.1844289743,
				"z": -1.6307660987,
				"element": "H" 
			},
			{
				"x": -2.429232121,
				"y": 1.0822231908,
				"z": -1.6539483892,
				"element": "H" 
			},
			{
				"x": -4.2551522273,
				"y": 1.287075326,
				"z": -3.3287096816,
				"element": "H" 
			},
			{
				"x": -5.5320631407,
				"y": -0.7298698137,
				"z": -4.039487699,
				"element": "H" 
			}
		],
		 "valence_orbital": [ 
			{
				"type": "occ",
				"energy": -0.26349,
				"method": "rhf"
			},
			{
				"type": "occ",
				"energy": -0.26234,
				"method": "rhf"
			},
			{
				"type": "occ",
				"energy": -0.25048,
				"method": "rhf"
			},
			{
				"type": "occ",
				"energy": -0.23002,
				"method": "rhf"
			},
			{
				"type": "occ",
				"energy": -0.18508,
				"method": "rhf"
			},
			{
				"type": "unocc",
				"energy": -0.02271,
				"method": "rhf"
			},
			{
				"type": "unocc",
				"energy": -0.01979,
				"method": "rhf"
			},
			{
				"type": "unocc",
				"energy": -0.00333,
				"method": "rhf"
			},
			{
				"type": "unocc",
				"energy": 0.02252,
				"method": "rhf"
			},
			{
				"type": "unocc",
				"energy": 0.02635,
				"method": "rhf"
			}
		],
		"cosmo_sigma_profile": { 
			"-0.025": 0.0,
			"-0.024": 0.0,
			"-0.023": 0.0,
			"-0.022": 0.0,
			"-0.021": 0.0,
			"-0.02": 0.0,
			"-0.019": 0.0,
			"-0.018": 0.0,
			"-0.017": 0.0,
			"-0.016": 1.30361881223,
			"-0.015": 2.56339300682,
			"-0.014": 2.44130241056,
			"-0.013": 1.17439741813,
			"-0.012": 3.20628480637,
			"-0.011": 2.3963851966,
			"-0.01": 3.74334192521,
			"-0.009": 3.33820222489,
			"-0.008": 3.93731082215,
			"-0.007": 8.75959525182,
			"-0.006": 16.251308538,
			"-0.005": 17.3959045302,
			"-0.004": 19.0120692491,
			"-0.003": 16.8891682638,
			"-0.002": 15.1388942132,
			"-0.001": 15.1638155486,
			"0.0": 18.5735557139,
			"0.001": 22.0806582029,
			"0.002": 25.7302666447,
			"0.003": 24.4562712507,
			"0.004": 26.0164902014,
			"0.005": 18.0204556362,
			"0.006": 10.5111538713,
			"0.007": 4.14957060706,
			"0.008": 1.53645083795,
			"0.009": 2.09467945449,
			"0.01": 1.69660548508,
			"0.011": 1.06951316666,
			"0.012": 1.78313534854,
			"0.013": 3.20309482946,
			"0.014": 7.30537423753,
			"0.015": 1.84967421339,
			"0.016": 0.0,
			"0.017": 0.0,
			"0.018": 0.0,
			"0.019": 0.0,
			"0.02": 0.0,
			"0.021": 0.0,
			"0.022": 0.0,
			"0.023": 0.0,
			"0.024": 0.0,
			"0.025": 0.0
		}
	}
}
