{
	 "smiles": "OC(=O)[C@H](NC(=O)OCC(Cl)(Cl)Cl)C1=CC=CC=C1", 
	 "Tm": 415.15, 
	 "num_atms": 29, 
	 "gaussian": { 
		 "optdone": 1, 
		 "sigma_profile": "yes", 
		 "theory": "DFT", 
		 "functional": "B3LYP", 
		 "basiset": "6-31G**", 
		 "properties": { 
			 "R2extent": 10039.2082, 
			 "electric_dipole_moment_norm": 5.19558732965, 
			 "electric_quadrupole_moment_norm": 9.83984749374, 
			 "total_energy": -2161.43398669, 
			 "HOMO_LUMO_gap": 0.21429, 
			 "cosmo_polarized_energy": -17.43, 
			 "cosmo_cavitation_energy": 39.76, 
			 "cosmo_dispersion_energy": -26.36, 
			 "cosmo_repulsion_energy": 2.07, 
			 "cosmo_total_nonelectrostatic_energy": 15.47, 
			 "SMD_solvation_energy": 7.61 
		},
		"coords": [
			{
				"x": 2.7729199092,
				"y": 0.5568853458,
				"z": -0.5702485286,
				"element": "O" 
			},
			{
				"x": 2.1137523847,
				"y": -0.007860265,
				"z": -1.595119377,
				"element": "C" 
			},
			{
				"x": 2.5763458207,
				"y": -0.029921821,
				"z": -2.7102212357,
				"element": "O" 
			},
			{
				"x": 0.7526306935,
				"y": -0.6506437159,
				"z": -1.2372457871,
				"element": "C" 
			},
			{
				"x": 0.1396384377,
				"y": -1.0415214252,
				"z": -2.4909741287,
				"element": "N" 
			},
			{
				"x": -0.8362122876,
				"y": -1.9801314677,
				"z": -2.6286743755,
				"element": "C" 
			},
			{
				"x": -1.2428221348,
				"y": -2.4242566771,
				"z": -3.6815580375,
				"element": "O" 
			},
			{
				"x": -1.327658294,
				"y": -2.3380504281,
				"z": -1.3904881816,
				"element": "O" 
			},
			{
				"x": -2.3296410822,
				"y": -3.3371388596,
				"z": -1.3813030647,
				"element": "C" 
			},
			{
				"x": -1.848690356,
				"y": -4.572913558,
				"z": -0.6043266302,
				"element": "C" 
			},
			{
				"x": -3.2007844527,
				"y": -5.7627446794,
				"z": -0.6072311711,
				"element": "Cl" 
			},
			{
				"x": -0.403002941,
				"y": -5.2923585749,
				"z": -1.3860501456,
				"element": "Cl" 
			},
			{
				"x": -1.4474922991,
				"y": -4.1338074301,
				"z": 1.0979487673,
				"element": "Cl" 
			},
			{
				"x": -0.087760866,
				"y": 0.2941755689,
				"z": -0.3837463289,
				"element": "C" 
			},
			{
				"x": -0.7347686023,
				"y": 1.3954907914,
				"z": -0.9599274903,
				"element": "C" 
			},
			{
				"x": -1.4473507595,
				"y": 2.287155545,
				"z": -0.1606919121,
				"element": "C" 
			},
			{
				"x": -1.5163665653,
				"y": 2.0945817019,
				"z": 1.2226853774,
				"element": "C" 
			},
			{
				"x": -0.8770585138,
				"y": 0.9995557192,
				"z": 1.8024969054,
				"element": "C" 
			},
			{
				"x": -0.1683048764,
				"y": 0.0997713341,
				"z": 1.0007619165,
				"element": "C" 
			},
			{
				"x": 2.1968077723,
				"y": 0.5984459613,
				"z": 0.2114260463,
				"element": "H" 
			},
			{
				"x": 0.9834446987,
				"y": -1.5387964465,
				"z": -0.6315908978,
				"element": "H" 
			},
			{
				"x": 0.6898600689,
				"y": -0.8521502221,
				"z": -3.3214004047,
				"element": "H" 
			},
			{
				"x": -3.2128509942,
				"y": -2.9428278885,
				"z": -0.8721822709,
				"element": "H" 
			},
			{
				"x": -2.5773331771,
				"y": -3.6328292979,
				"z": -2.4030456707,
				"element": "H" 
			},
			{
				"x": -0.6862480031,
				"y": 1.5410873385,
				"z": -2.0350850528,
				"element": "H" 
			},
			{
				"x": -1.9482850786,
				"y": 3.1361543762,
				"z": -0.616482895,
				"element": "H" 
			},
			{
				"x": -2.0723573447,
				"y": 2.7919073074,
				"z": 1.8421532066,
				"element": "H" 
			},
			{
				"x": -0.9398312419,
				"y": 0.8334341319,
				"z": 2.8738291099,
				"element": "H" 
			},
			{
				"x": 0.2964200845,
				"y": -0.7750923648,
				"z": 1.4504922569,
				"element": "H" 
			}
		],
		 "valence_orbital": [ 
			{
				"type": "occ",
				"energy": -0.30572,
				"method": "rhf"
			},
			{
				"type": "occ",
				"energy": -0.29193,
				"method": "rhf"
			},
			{
				"type": "occ",
				"energy": -0.28158,
				"method": "rhf"
			},
			{
				"type": "occ",
				"energy": -0.27522,
				"method": "rhf"
			},
			{
				"type": "occ",
				"energy": -0.26271,
				"method": "rhf"
			},
			{
				"type": "unocc",
				"energy": -0.04842,
				"method": "rhf"
			},
			{
				"type": "unocc",
				"energy": -0.03375,
				"method": "rhf"
			},
			{
				"type": "unocc",
				"energy": -0.03127,
				"method": "rhf"
			},
			{
				"type": "unocc",
				"energy": -0.00959,
				"method": "rhf"
			},
			{
				"type": "unocc",
				"energy": -0.00511,
				"method": "rhf"
			}
		],
		"cosmo_sigma_profile": { 
			"-0.025": 0.0,
			"-0.024": 0.0,
			"-0.023": 0.0,
			"-0.022": 0.0,
			"-0.021": 0.0,
			"-0.02": 0.0,
			"-0.019": 0.0,
			"-0.018": 0.0,
			"-0.017": 0.0,
			"-0.016": 0.0732477486847,
			"-0.015": 1.06246011219,
			"-0.014": 0.933027653336,
			"-0.013": 1.60198546895,
			"-0.012": 1.71666534871,
			"-0.011": 1.59626958454,
			"-0.01": 2.19814849276,
			"-0.009": 5.39094423219,
			"-0.008": 6.06103185016,
			"-0.007": 8.65898826508,
			"-0.006": 16.4006032299,
			"-0.005": 19.3017088698,
			"-0.004": 20.1934259359,
			"-0.003": 20.4578102612,
			"-0.002": 19.1623042331,
			"-0.001": 18.8871729963,
			"0.0": 22.042207829,
			"0.001": 25.7152478346,
			"0.002": 33.3643768288,
			"0.003": 36.2640004833,
			"0.004": 14.6205214639,
			"0.005": 10.0234625105,
			"0.006": 4.61159600493,
			"0.007": 4.11890355895,
			"0.008": 4.84723680971,
			"0.009": 6.31655093424,
			"0.01": 6.1789573761,
			"0.011": 5.09929682525,
			"0.012": 5.84386817806,
			"0.013": 0.969912306924,
			"0.014": 0.0,
			"0.015": 0.0,
			"0.016": 0.0,
			"0.017": 0.0,
			"0.018": 0.0,
			"0.019": 0.0,
			"0.02": 0.0,
			"0.021": 0.0,
			"0.022": 0.0,
			"0.023": 0.0,
			"0.024": 0.0,
			"0.025": 0.0
		}
	}
}
