{
	 "smiles": "CCOP(C)(=O)SCCN(C(C)C)C(C)C", 
	 "Tm": 222.15, 
	 "num_atms": 42, 
	 "gaussian": { 
		 "optdone": 1, 
		 "sigma_profile": "yes", 
		 "theory": "DFT", 
		 "functional": "B3LYP", 
		 "basiset": "6-31G**", 
		 "properties": { 
			 "R2extent": 6208.0682, 
			 "electric_dipole_moment_norm": 3.12902695898, 
			 "electric_quadrupole_moment_norm": 13.8904681267, 
			 "total_energy": -1379.6384181, 
			 "HOMO_LUMO_gap": 0.2025, 
			 "cosmo_polarized_energy": -14.27, 
			 "cosmo_cavitation_energy": 43.91, 
			 "cosmo_dispersion_energy": -29.25, 
			 "cosmo_repulsion_energy": 2.25, 
			 "cosmo_total_nonelectrostatic_energy": 16.92, 
			 "SMD_solvation_energy": 7.34 
		},
		"coords": [
			{
				"x": 0.788750349,
				"y": 3.8705231695,
				"z": -1.6187958983,
				"element": "C" 
			},
			{
				"x": 1.6376039015,
				"y": 2.6158095183,
				"z": -1.7200586156,
				"element": "C" 
			},
			{
				"x": 0.8053519321,
				"y": 1.5589904447,
				"z": -2.2391091059,
				"element": "O" 
			},
			{
				"x": 1.2627536488,
				"y": -0.0007153363,
				"z": -2.3332197139,
				"element": "P" 
			},
			{
				"x": 2.7235312156,
				"y": -0.0018736637,
				"z": -3.4212982072,
				"element": "C" 
			},
			{
				"x": 0.1247858619,
				"y": -0.8525125662,
				"z": -2.777161346,
				"element": "O" 
			},
			{
				"x": 2.0511588597,
				"y": -0.5609777786,
				"z": -0.4364903579,
				"element": "S" 
			},
			{
				"x": 0.526520426,
				"y": -1.3686648585,
				"z": 0.2454358558,
				"element": "C" 
			},
			{
				"x": -0.5167137276,
				"y": -0.3587772858,
				"z": 0.7671422217,
				"element": "C" 
			},
			{
				"x": -1.7679445562,
				"y": -0.9413730739,
				"z": 1.2395143452,
				"element": "N" 
			},
			{
				"x": -2.6093724785,
				"y": -1.4591743555,
				"z": 0.12411996,
				"element": "C" 
			},
			{
				"x": -3.994348573,
				"y": -0.7871074272,
				"z": 0.0913229518,
				"element": "C" 
			},
			{
				"x": -2.7184512206,
				"y": -2.9924105636,
				"z": 0.0233625488,
				"element": "C" 
			},
			{
				"x": -1.734960001,
				"y": -1.700569875,
				"z": 2.5054014792,
				"element": "C" 
			},
			{
				"x": -3.1226349469,
				"y": -1.734813038,
				"z": 3.170296451,
				"element": "C" 
			},
			{
				"x": -0.7434052083,
				"y": -1.1004678745,
				"z": 3.5153147914,
				"element": "C" 
			},
			{
				"x": 0.3916460461,
				"y": 4.1495524446,
				"z": -2.5985970874,
				"element": "H" 
			},
			{
				"x": -0.0519378661,
				"y": 3.7112700301,
				"z": -0.9382601505,
				"element": "H" 
			},
			{
				"x": 1.3932381976,
				"y": 4.7002149446,
				"z": -1.2384165405,
				"element": "H" 
			},
			{
				"x": 2.4875725338,
				"y": 2.7762614219,
				"z": -2.3963631051,
				"element": "H" 
			},
			{
				"x": 2.0279892552,
				"y": 2.3225061631,
				"z": -0.7386363098,
				"element": "H" 
			},
			{
				"x": 3.5409182712,
				"y": 0.5937505549,
				"z": -3.0051636438,
				"element": "H" 
			},
			{
				"x": 2.4302105407,
				"y": 0.4118325079,
				"z": -4.3901253871,
				"element": "H" 
			},
			{
				"x": 3.0643061525,
				"y": -1.0301174774,
				"z": -3.5560979421,
				"element": "H" 
			},
			{
				"x": 0.1174121424,
				"y": -1.9891622266,
				"z": -0.5534194615,
				"element": "H" 
			},
			{
				"x": 0.8974180156,
				"y": -2.0199262067,
				"z": 1.0416400718,
				"element": "H" 
			},
			{
				"x": -0.7600636092,
				"y": 0.3352856335,
				"z": -0.0441132332,
				"element": "H" 
			},
			{
				"x": -0.0621904558,
				"y": 0.2479531163,
				"z": 1.5542059386,
				"element": "H" 
			},
			{
				"x": -2.101901557,
				"y": -1.1405410588,
				"z": -0.7930550089,
				"element": "H" 
			},
			{
				"x": -4.5163045228,
				"y": -1.0394326123,
				"z": -0.8390335571,
				"element": "H" 
			},
			{
				"x": -4.6311320975,
				"y": -1.0959216949,
				"z": 0.9246383642,
				"element": "H" 
			},
			{
				"x": -3.8847315753,
				"y": 0.3001430992,
				"z": 0.1385204202,
				"element": "H" 
			},
			{
				"x": -1.7322108936,
				"y": -3.4655889583,
				"z": -0.0131907665,
				"element": "H" 
			},
			{
				"x": -3.2744570106,
				"y": -3.4361332883,
				"z": 0.8547686214,
				"element": "H" 
			},
			{
				"x": -3.245368799,
				"y": -3.2577299394,
				"z": -0.8988270731,
				"element": "H" 
			},
			{
				"x": -1.4255101075,
				"y": -2.7485391028,
				"z": 2.335979,
				"element": "H" 
			},
			{
				"x": -3.8717929696,
				"y": -2.2405561983,
				"z": 2.559424478,
				"element": "H" 
			},
			{
				"x": -3.0656329654,
				"y": -2.2697210718,
				"z": 4.124475959,
				"element": "H" 
			},
			{
				"x": -3.473414063,
				"y": -0.7155227583,
				"z": 3.3626471587,
				"element": "H" 
			},
			{
				"x": 0.2981837955,
				"y": -1.1642464314,
				"z": 3.1893616392,
				"element": "H" 
			},
			{
				"x": -0.9786272419,
				"y": -0.0493901853,
				"z": 3.7156237386,
				"element": "H" 
			},
			{
				"x": -0.819844699,
				"y": -1.6478261411,
				"z": 4.4595365168,
				"element": "H" 
			}
		],
		 "valence_orbital": [ 
			{
				"type": "occ",
				"energy": -0.30112,
				"method": "rhf"
			},
			{
				"type": "occ",
				"energy": -0.29004,
				"method": "rhf"
			},
			{
				"type": "occ",
				"energy": -0.27367,
				"method": "rhf"
			},
			{
				"type": "occ",
				"energy": -0.25089,
				"method": "rhf"
			},
			{
				"type": "occ",
				"energy": -0.19215,
				"method": "rhf"
			},
			{
				"type": "unocc",
				"energy": 0.01035,
				"method": "rhf"
			},
			{
				"type": "unocc",
				"energy": 0.03765,
				"method": "rhf"
			},
			{
				"type": "unocc",
				"energy": 0.0667,
				"method": "rhf"
			},
			{
				"type": "unocc",
				"energy": 0.0811,
				"method": "rhf"
			},
			{
				"type": "unocc",
				"energy": 0.08885,
				"method": "rhf"
			}
		],
		"cosmo_sigma_profile": { 
			"-0.025": 0.0,
			"-0.024": 0.0,
			"-0.023": 0.0,
			"-0.022": 0.0,
			"-0.021": 0.0,
			"-0.02": 0.0,
			"-0.019": 0.0,
			"-0.018": 0.0,
			"-0.017": 0.0,
			"-0.016": 0.0,
			"-0.015": 0.0,
			"-0.014": 0.0,
			"-0.013": 0.0,
			"-0.012": 0.0,
			"-0.011": 0.0,
			"-0.01": 0.0726988331238,
			"-0.009": 0.657878541822,
			"-0.008": 2.03696198997,
			"-0.007": 6.02927210626,
			"-0.006": 9.05843042594,
			"-0.005": 12.8024494976,
			"-0.004": 23.5626857358,
			"-0.003": 37.1351693673,
			"-0.002": 46.1827121732,
			"-0.001": 41.1858737671,
			"0.0": 43.5778337609,
			"0.001": 37.8579612535,
			"0.002": 21.4599598298,
			"0.003": 8.45924811807,
			"0.004": 6.75854959692,
			"0.005": 8.04070836299,
			"0.006": 6.25971205475,
			"0.007": 4.64410733972,
			"0.008": 4.17423036183,
			"0.009": 3.17994156704,
			"0.01": 2.58184483175,
			"0.011": 3.08510473509,
			"0.012": 2.34706181626,
			"0.013": 1.78613707454,
			"0.014": 3.85186589646,
			"0.015": 3.31774761777,
			"0.016": 0.0643633844606,
			"0.017": 0.0,
			"0.018": 0.0,
			"0.019": 0.0,
			"0.02": 0.0,
			"0.021": 0.0,
			"0.022": 0.0,
			"0.023": 0.0,
			"0.024": 0.0,
			"0.025": 0.0
		}
	}
}
