{
	 "smiles": "CC1(C)CC(N)CC(C)(C)N1", 
	 "Tm": 290.15, 
	 "num_atms": 31, 
	 "gaussian": { 
		 "optdone": 1, 
		 "sigma_profile": "yes", 
		 "theory": "DFT", 
		 "functional": "B3LYP", 
		 "basiset": "6-31G**", 
		 "properties": { 
			 "R2extent": 1986.9256, 
			 "electric_dipole_moment_norm": 1.48805831539, 
			 "electric_quadrupole_moment_norm": 5.6974725765, 
			 "total_energy": -464.525092258, 
			 "HOMO_LUMO_gap": 0.26478, 
			 "cosmo_polarized_energy": -5.57, 
			 "cosmo_cavitation_energy": 28.54, 
			 "cosmo_dispersion_energy": -20.53, 
			 "cosmo_repulsion_energy": 1.62, 
			 "cosmo_total_nonelectrostatic_energy": 9.63, 
			 "SMD_solvation_energy": 3.76 
		},
		"coords": [
			{
				"x": 0.8358803498,
				"y": 1.1993401713,
				"z": -1.4313387751,
				"element": "C" 
			},
			{
				"x": 0.2546917304,
				"y": 0.6146430864,
				"z": -0.1278907812,
				"element": "C" 
			},
			{
				"x": -0.0685061302,
				"y": 1.7987491672,
				"z": 0.8174726827,
				"element": "C" 
			},
			{
				"x": 1.3011074434,
				"y": -0.3424499922,
				"z": 0.4879133602,
				"element": "C" 
			},
			{
				"x": 0.7652690927,
				"y": -1.3290670544,
				"z": 1.5395338177,
				"element": "C" 
			},
			{
				"x": 0.4733553654,
				"y": -0.6479857847,
				"z": 2.8128060016,
				"element": "N" 
			},
			{
				"x": -0.4792753029,
				"y": -2.0489852303,
				"z": 0.9926879129,
				"element": "C" 
			},
			{
				"x": -1.5713589849,
				"y": -1.13558132,
				"z": 0.3901127397,
				"element": "C" 
			},
			{
				"x": -2.4382505876,
				"y": -0.4725762222,
				"z": 1.4897601979,
				"element": "C" 
			},
			{
				"x": -2.502342277,
				"y": -2.0000366845,
				"z": -0.4843107662,
				"element": "C" 
			},
			{
				"x": -0.9122411274,
				"y": -0.1926763357,
				"z": -0.5350357673,
				"element": "N" 
			},
			{
				"x": 0.1268178735,
				"y": 1.898381209,
				"z": -1.8917855628,
				"element": "H" 
			},
			{
				"x": 1.0402833752,
				"y": 0.4021199848,
				"z": -2.1514308579,
				"element": "H" 
			},
			{
				"x": 1.7625064459,
				"y": 1.7508730771,
				"z": -1.2378535937,
				"element": "H" 
			},
			{
				"x": -0.8705441022,
				"y": 2.4135989573,
				"z": 0.3913220464,
				"element": "H" 
			},
			{
				"x": 0.810834353,
				"y": 2.4443154991,
				"z": 0.9345292142,
				"element": "H" 
			},
			{
				"x": -0.3669018682,
				"y": 1.460284145,
				"z": 1.8085824148,
				"element": "H" 
			},
			{
				"x": 1.7273096831,
				"y": -0.9427267256,
				"z": -0.3249252096,
				"element": "H" 
			},
			{
				"x": 2.1272969547,
				"y": 0.244373427,
				"z": 0.9106764915,
				"element": "H" 
			},
			{
				"x": 1.544122866,
				"y": -2.1025572447,
				"z": 1.6716396689,
				"element": "H" 
			},
			{
				"x": 1.3255233674,
				"y": -0.227218267,
				"z": 3.1773787619,
				"element": "H" 
			},
			{
				"x": 0.1727532642,
				"y": -1.3320557018,
				"z": 3.5040623953,
				"element": "H" 
			},
			{
				"x": -0.9223566327,
				"y": -2.6790287272,
				"z": 1.7752492387,
				"element": "H" 
			},
			{
				"x": -0.1343495481,
				"y": -2.7270858725,
				"z": 0.2028229171,
				"element": "H" 
			},
			{
				"x": -3.1492403146,
				"y": 0.2293205681,
				"z": 1.0372572819,
				"element": "H" 
			},
			{
				"x": -1.8325919911,
				"y": 0.0569508138,
				"z": 2.2237273316,
				"element": "H" 
			},
			{
				"x": -3.023557349,
				"y": -1.2317191236,
				"z": 2.0234702399,
				"element": "H" 
			},
			{
				"x": -2.9764301653,
				"y": -2.791468251,
				"z": 0.1065625711,
				"element": "H" 
			},
			{
				"x": -3.3032105971,
				"y": -1.3888354318,
				"z": -0.9184603215,
				"element": "H" 
			},
			{
				"x": -1.9424848767,
				"y": -2.456164362,
				"z": -1.3055044415,
				"element": "H" 
			},
			{
				"x": -1.6118103096,
				"y": 0.4114682255,
				"z": -0.959931209,
				"element": "H" 
			}
		],
		 "valence_orbital": [ 
			{
				"type": "occ",
				"energy": -0.31656,
				"method": "rhf"
			},
			{
				"type": "occ",
				"energy": -0.3011,
				"method": "rhf"
			},
			{
				"type": "occ",
				"energy": -0.29421,
				"method": "rhf"
			},
			{
				"type": "occ",
				"energy": -0.22922,
				"method": "rhf"
			},
			{
				"type": "occ",
				"energy": -0.19992,
				"method": "rhf"
			},
			{
				"type": "unocc",
				"energy": 0.06486,
				"method": "rhf"
			},
			{
				"type": "unocc",
				"energy": 0.09716,
				"method": "rhf"
			},
			{
				"type": "unocc",
				"energy": 0.11564,
				"method": "rhf"
			},
			{
				"type": "unocc",
				"energy": 0.12684,
				"method": "rhf"
			},
			{
				"type": "unocc",
				"energy": 0.13069,
				"method": "rhf"
			}
		],
		"cosmo_sigma_profile": { 
			"-0.025": 0.0,
			"-0.024": 0.0,
			"-0.023": 0.0,
			"-0.022": 0.0,
			"-0.021": 0.0,
			"-0.02": 0.0,
			"-0.019": 0.0,
			"-0.018": 0.0,
			"-0.017": 0.0,
			"-0.016": 0.0,
			"-0.015": 0.0,
			"-0.014": 0.0,
			"-0.013": 0.0,
			"-0.012": 0.0,
			"-0.011": 0.0,
			"-0.01": 0.0155645524563,
			"-0.009": 1.6715055159,
			"-0.008": 3.12380970684,
			"-0.007": 3.90414431125,
			"-0.006": 4.49481958689,
			"-0.005": 5.32422742926,
			"-0.004": 5.88695971343,
			"-0.003": 10.1006771058,
			"-0.002": 28.5850213949,
			"-0.001": 38.6016276255,
			"0.0": 27.7319357367,
			"0.001": 26.9504351977,
			"0.002": 27.6256070608,
			"0.003": 13.8183783603,
			"0.004": 3.45896933734,
			"0.005": 2.90188295982,
			"0.006": 2.32030537191,
			"0.007": 1.6761520684,
			"0.008": 1.68860741996,
			"0.009": 1.6926055497,
			"0.01": 1.3168258429,
			"0.011": 1.20050042569,
			"0.012": 1.01398133894,
			"0.013": 0.871639809231,
			"0.014": 0.421863048047,
			"0.015": 0.279575043814,
			"0.016": 0.333539433397,
			"0.017": 0.0258889779938,
			"0.018": 0.0,
			"0.019": 0.0,
			"0.02": 0.0,
			"0.021": 0.0,
			"0.022": 0.0,
			"0.023": 0.0,
			"0.024": 0.0,
			"0.025": 0.0
		}
	}
}
