{
	 "smiles": "CC(C)(C)N1C=C(C#N)C(N)=N1", 
	 "Tm": 395.15, 
	 "num_atms": 24, 
	 "gaussian": { 
		 "optdone": 1, 
		 "sigma_profile": "yes", 
		 "theory": "DFT", 
		 "functional": "B3LYP", 
		 "basiset": "6-31G**", 
		 "properties": { 
			 "R2extent": 2703.3595, 
			 "electric_dipole_moment_norm": 5.16356623856, 
			 "electric_quadrupole_moment_norm": 17.2275053798, 
			 "total_energy": -531.073475288, 
			 "HOMO_LUMO_gap": 0.2073, 
			 "cosmo_polarized_energy": -14.69, 
			 "cosmo_cavitation_energy": 27.92, 
			 "cosmo_dispersion_energy": -19.23, 
			 "cosmo_repulsion_energy": 1.55, 
			 "cosmo_total_nonelectrostatic_energy": 10.24, 
			 "SMD_solvation_energy": 6.02 
		},
		"coords": [
			{
				"x": -2.6646283554,
				"y": -1.3558487756,
				"z": 1.31627754,
				"element": "C" 
			},
			{
				"x": -1.5658719937,
				"y": -0.2846435001,
				"z": 1.4355827621,
				"element": "C" 
			},
			{
				"x": -1.1777619573,
				"y": -0.0665883599,
				"z": 2.9089808738,
				"element": "C" 
			},
			{
				"x": -2.0370996368,
				"y": 1.0331185307,
				"z": 0.8082650949,
				"element": "C" 
			},
			{
				"x": -0.3647531942,
				"y": -0.7749443933,
				"z": 0.711983881,
				"element": "N" 
			},
			{
				"x": 0.2930154577,
				"y": -0.2328857163,
				"z": -0.3282570271,
				"element": "C" 
			},
			{
				"x": 1.3584701364,
				"y": -1.0808378578,
				"z": -0.6298454798,
				"element": "C" 
			},
			{
				"x": 2.3275027482,
				"y": -0.9480231158,
				"z": -1.6497566581,
				"element": "C" 
			},
			{
				"x": 3.1390394637,
				"y": -0.8798447214,
				"z": -2.4840980362,
				"element": "N" 
			},
			{
				"x": 1.2457382758,
				"y": -2.1391660555,
				"z": 0.3251983503,
				"element": "C" 
			},
			{
				"x": 2.107839323,
				"y": -3.204979504,
				"z": 0.4851546029,
				"element": "N" 
			},
			{
				"x": 0.2024612147,
				"y": -1.9507296878,
				"z": 1.1257748283,
				"element": "N" 
			},
			{
				"x": -2.9468918794,
				"y": -1.506959991,
				"z": 0.2696532805,
				"element": "H" 
			},
			{
				"x": -3.5534859878,
				"y": -1.0421465155,
				"z": 1.8720581667,
				"element": "H" 
			},
			{
				"x": -2.3131436406,
				"y": -2.3072228043,
				"z": 1.7199572624,
				"element": "H" 
			},
			{
				"x": -2.0517902441,
				"y": 0.2596018524,
				"z": 3.4809433596,
				"element": "H" 
			},
			{
				"x": -0.7967876238,
				"y": -0.9931164791,
				"z": 3.3426134914,
				"element": "H" 
			},
			{
				"x": -0.4015934966,
				"y": 0.7000458602,
				"z": 2.9958860271,
				"element": "H" 
			},
			{
				"x": -2.9206524803,
				"y": 1.3835270246,
				"z": 1.3479048269,
				"element": "H" 
			},
			{
				"x": -1.2733363945,
				"y": 1.8137170918,
				"z": 0.8798767487,
				"element": "H" 
			},
			{
				"x": -2.318097234,
				"y": 0.9062846857,
				"z": -0.241903268,
				"element": "H" 
			},
			{
				"x": -0.0026426711,
				"y": 0.6905294645,
				"z": -0.7988460913,
				"element": "H" 
			},
			{
				"x": 1.7158501171,
				"y": -3.9768954387,
				"z": 1.0066358471,
				"element": "H" 
			},
			{
				"x": 2.5967200531,
				"y": -3.490891594,
				"z": -0.3517403831,
				"element": "H" 
			}
		],
		 "valence_orbital": [ 
			{
				"type": "occ",
				"energy": -0.32958,
				"method": "rhf"
			},
			{
				"type": "occ",
				"energy": -0.32614,
				"method": "rhf"
			},
			{
				"type": "occ",
				"energy": -0.29434,
				"method": "rhf"
			},
			{
				"type": "occ",
				"energy": -0.24884,
				"method": "rhf"
			},
			{
				"type": "occ",
				"energy": -0.21646,
				"method": "rhf"
			},
			{
				"type": "unocc",
				"energy": -0.00916,
				"method": "rhf"
			},
			{
				"type": "unocc",
				"energy": 0.03345,
				"method": "rhf"
			},
			{
				"type": "unocc",
				"energy": 0.03722,
				"method": "rhf"
			},
			{
				"type": "unocc",
				"energy": 0.07131,
				"method": "rhf"
			},
			{
				"type": "unocc",
				"energy": 0.08415,
				"method": "rhf"
			}
		],
		"cosmo_sigma_profile": { 
			"-0.025": 0.0,
			"-0.024": 0.0,
			"-0.023": 0.0,
			"-0.022": 0.0,
			"-0.021": 0.0,
			"-0.02": 0.0,
			"-0.019": 0.0,
			"-0.018": 0.0,
			"-0.017": 0.0,
			"-0.016": 0.0,
			"-0.015": 0.0,
			"-0.014": 0.147962566201,
			"-0.013": 1.94180608065,
			"-0.012": 2.1799684762,
			"-0.011": 2.21265073961,
			"-0.01": 3.64763350653,
			"-0.009": 4.14983683298,
			"-0.008": 4.20282526849,
			"-0.007": 3.17626646849,
			"-0.006": 5.28356042383,
			"-0.005": 9.93170285181,
			"-0.004": 19.672620867,
			"-0.003": 17.9578300103,
			"-0.002": 17.6528704218,
			"-0.001": 20.0300083428,
			"0.0": 24.2419221254,
			"0.001": 17.3122750701,
			"0.002": 11.1421771856,
			"0.003": 5.71877901628,
			"0.004": 4.55257164364,
			"0.005": 5.72083792152,
			"0.006": 4.50703626203,
			"0.007": 6.01355061735,
			"0.008": 4.74841562136,
			"0.009": 5.61284993575,
			"0.01": 5.44742134393,
			"0.011": 4.23612176522,
			"0.012": 4.61789859128,
			"0.013": 3.10113865545,
			"0.014": 1.18468751232,
			"0.015": 0.0,
			"0.016": 0.0,
			"0.017": 0.0,
			"0.018": 0.0,
			"0.019": 0.0,
			"0.02": 0.0,
			"0.021": 0.0,
			"0.022": 0.0,
			"0.023": 0.0,
			"0.024": 0.0,
			"0.025": 0.0
		}
	}
}
