{
	 "smiles": "CCCCCBr", 
	 "Tm": 180.48, 
	 "num_atms": 17, 
	 "gaussian": { 
		 "optdone": 1, 
		 "sigma_profile": "yes", 
		 "theory": "DFT", 
		 "functional": "B3LYP", 
		 "basiset": "6-31G**", 
		 "properties": { 
			 "R2extent": 1580.0136, 
			 "electric_dipole_moment_norm": 2.13108827128, 
			 "electric_quadrupole_moment_norm": 4.69693956103, 
			 "total_energy": -2768.58155289, 
			 "HOMO_LUMO_gap": 0.27392, 
			 "cosmo_polarized_energy": -3.65, 
			 "cosmo_cavitation_energy": 20.57, 
			 "cosmo_dispersion_energy": -15.51, 
			 "cosmo_repulsion_energy": 1.33, 
			 "cosmo_total_nonelectrostatic_energy": 6.39, 
			 "SMD_solvation_energy": 2.23 
		},
		"coords": [
			{
				"x": 1.8649592052,
				"y": -0.3464055276,
				"z": 0.2277487861,
				"element": "C" 
			},
			{
				"x": 0.8510026158,
				"y": 0.3374894779,
				"z": 1.1557713503,
				"element": "C" 
			},
			{
				"x": -0.5938963169,
				"y": -0.2021667414,
				"z": 1.0563352006,
				"element": "C" 
			},
			{
				"x": -1.5220744032,
				"y": 0.5469999639,
				"z": 0.0860236251,
				"element": "C" 
			},
			{
				"x": -1.1300322272,
				"y": 0.5611886596,
				"z": -1.3844576049,
				"element": "C" 
			},
			{
				"x": -1.1380409318,
				"y": -1.2529671929,
				"z": -2.1999335642,
				"element": "Br" 
			},
			{
				"x": 1.9427407882,
				"y": -1.414035637,
				"z": 0.4606330355,
				"element": "H" 
			},
			{
				"x": 1.5883754477,
				"y": -0.2715451291,
				"z": -0.8278883441,
				"element": "H" 
			},
			{
				"x": 2.8615670593,
				"y": 0.0926833173,
				"z": 0.3448134389,
				"element": "H" 
			},
			{
				"x": 1.2006983579,
				"y": 0.2151809217,
				"z": 2.1881595648,
				"element": "H" 
			},
			{
				"x": 0.8504362494,
				"y": 1.4216012508,
				"z": 0.9736334393,
				"element": "H" 
			},
			{
				"x": -0.5748338198,
				"y": -1.2656072159,
				"z": 0.7888120194,
				"element": "H" 
			},
			{
				"x": -1.0649939418,
				"y": -0.1467616134,
				"z": 2.0450193008,
				"element": "H" 
			},
			{
				"x": -1.5792695257,
				"y": 1.6029409426,
				"z": 0.3929930558,
				"element": "H" 
			},
			{
				"x": -2.5380560367,
				"y": 0.1455018214,
				"z": 0.1742022643,
				"element": "H" 
			},
			{
				"x": -1.8383751539,
				"y": 1.132197647,
				"z": -1.9840139868,
				"element": "H" 
			},
			{
				"x": -0.1247073664,
				"y": 0.9444050549,
				"z": -1.554451581,
				"element": "H" 
			}
		],
		 "valence_orbital": [ 
			{
				"type": "occ",
				"energy": -0.3281,
				"method": "rhf"
			},
			{
				"type": "occ",
				"energy": -0.32487,
				"method": "rhf"
			},
			{
				"type": "occ",
				"energy": -0.31901,
				"method": "rhf"
			},
			{
				"type": "occ",
				"energy": -0.26909,
				"method": "rhf"
			},
			{
				"type": "occ",
				"energy": -0.26735,
				"method": "rhf"
			},
			{
				"type": "unocc",
				"energy": 0.00657,
				"method": "rhf"
			},
			{
				"type": "unocc",
				"energy": 0.07973,
				"method": "rhf"
			},
			{
				"type": "unocc",
				"energy": 0.10949,
				"method": "rhf"
			},
			{
				"type": "unocc",
				"energy": 0.11976,
				"method": "rhf"
			},
			{
				"type": "unocc",
				"energy": 0.13621,
				"method": "rhf"
			}
		],
		"cosmo_sigma_profile": { 
			"-0.025": 0.0,
			"-0.024": 0.0,
			"-0.023": 0.0,
			"-0.022": 0.0,
			"-0.021": 0.0,
			"-0.02": 0.0,
			"-0.019": 0.0,
			"-0.018": 0.0,
			"-0.017": 0.0,
			"-0.016": 0.0,
			"-0.015": 0.0,
			"-0.014": 0.0,
			"-0.013": 0.0,
			"-0.012": 0.0,
			"-0.011": 0.0,
			"-0.01": 0.0,
			"-0.009": 0.0,
			"-0.008": 0.0,
			"-0.007": 0.847035793976,
			"-0.006": 3.95540314873,
			"-0.005": 4.65271799924,
			"-0.004": 10.9170725561,
			"-0.003": 15.482971575,
			"-0.002": 20.3042523008,
			"-0.001": 22.4701930383,
			"0.0": 21.5973471619,
			"0.001": 19.7201952369,
			"0.002": 9.34361858327,
			"0.003": 6.26534354061,
			"0.004": 5.8700286751,
			"0.005": 6.92230017139,
			"0.006": 9.36312762642,
			"0.007": 4.95383783024,
			"0.008": 0.0,
			"0.009": 0.0,
			"0.01": 0.0,
			"0.011": 0.0,
			"0.012": 0.0,
			"0.013": 0.0,
			"0.014": 0.0,
			"0.015": 0.0,
			"0.016": 0.0,
			"0.017": 0.0,
			"0.018": 0.0,
			"0.019": 0.0,
			"0.02": 0.0,
			"0.021": 0.0,
			"0.022": 0.0,
			"0.023": 0.0,
			"0.024": 0.0,
			"0.025": 0.0
		}
	}
}
