{
	 "smiles": "CCCCCCCCCCCCCCOC1=CC=CC=C1NC(=O)C1=C(O)C2=C(C=CC=C2)C(OC2=CC=C(C=C2CN(C(C)C)C(Cl)=O)[N+]([O-])=O)=C1", 
	 "Tm": 385.15, 
	 "num_atms": 105, 
	 "gaussian": { 
		 "optdone": 1, 
		 "sigma_profile": "yes", 
		 "theory": "DFT", 
		 "functional": "B3LYP", 
		 "basiset": "6-31G**", 
		 "properties": { 
			 "R2extent": 54601.9351, 
			 "electric_dipole_moment_norm": 8.54375324374, 
			 "electric_quadrupole_moment_norm": 69.5431940963, 
			 "total_energy": -2782.7891857, 
			 "HOMO_LUMO_gap": 0.1272, 
			 "cosmo_polarized_energy": -32.81, 
			 "cosmo_cavitation_energy": 107.06, 
			 "cosmo_dispersion_energy": -61.49, 
			 "cosmo_repulsion_energy": 4.7, 
			 "cosmo_total_nonelectrostatic_energy": 50.27, 
			 "SMD_solvation_energy": 19.4 
		},
		"coords": [
			{
				"x": 4.5526472813,
				"y": -3.3705854971,
				"z": -5.9632040261,
				"element": "C" 
			},
			{
				"x": 3.3951466563,
				"y": -2.6172529752,
				"z": -6.6297833724,
				"element": "C" 
			},
			{
				"x": 3.5865280606,
				"y": -1.0931995772,
				"z": -6.7037432403,
				"element": "C" 
			},
			{
				"x": 3.5930967627,
				"y": -0.3824283084,
				"z": -5.3430792506,
				"element": "C" 
			},
			{
				"x": 3.7248149267,
				"y": 1.141788073,
				"z": -5.4584845856,
				"element": "C" 
			},
			{
				"x": 3.7304609957,
				"y": 1.8624231732,
				"z": -4.1039327198,
				"element": "C" 
			},
			{
				"x": 3.8749955277,
				"y": 3.3854462303,
				"z": -4.2271959318,
				"element": "C" 
			},
			{
				"x": 3.9588284204,
				"y": 4.1362065188,
				"z": -2.8869965929,
				"element": "C" 
			},
			{
				"x": 2.723529646,
				"y": 4.0817793087,
				"z": -1.9663211257,
				"element": "C" 
			},
			{
				"x": 1.4523924548,
				"y": 4.770613387,
				"z": -2.5148538884,
				"element": "C" 
			},
			{
				"x": 0.4718869748,
				"y": 3.8780496096,
				"z": -3.2998662324,
				"element": "C" 
			},
			{
				"x": -0.2743345514,
				"y": 2.8551205076,
				"z": -2.4321977834,
				"element": "C" 
			},
			{
				"x": -1.2733151445,
				"y": 2.0078751968,
				"z": -3.2306972861,
				"element": "C" 
			},
			{
				"x": -2.0262773297,
				"y": 0.9878146493,
				"z": -2.37660956,
				"element": "C" 
			},
			{
				"x": -1.1624653269,
				"y": 0.0294656253,
				"z": -1.7527193171,
				"element": "O" 
			},
			{
				"x": -0.6875642578,
				"y": -1.0435727712,
				"z": -2.4702123977,
				"element": "C" 
			},
			{
				"x": -1.0433280003,
				"y": -1.3629578646,
				"z": -3.778717829,
				"element": "C" 
			},
			{
				"x": -0.5099257063,
				"y": -2.5052742149,
				"z": -4.3869851217,
				"element": "C" 
			},
			{
				"x": 0.3787816237,
				"y": -3.3178701819,
				"z": -3.6896117845,
				"element": "C" 
			},
			{
				"x": 0.749193386,
				"y": -3.0028139136,
				"z": -2.3789183831,
				"element": "C" 
			},
			{
				"x": 0.220451006,
				"y": -1.8669972172,
				"z": -1.7590415412,
				"element": "C" 
			},
			{
				"x": 0.5169856717,
				"y": -1.4663216066,
				"z": -0.4427952835,
				"element": "N" 
			},
			{
				"x": 1.3807609015,
				"y": -2.0493578311,
				"z": 0.456637913,
				"element": "C" 
			},
			{
				"x": 2.0600891795,
				"y": -3.0394919369,
				"z": 0.2251272729,
				"element": "O" 
			},
			{
				"x": 1.3815103096,
				"y": -1.3636063012,
				"z": 1.8021921395,
				"element": "C" 
			},
			{
				"x": 2.5731521477,
				"y": -1.0167934627,
				"z": 2.4271681546,
				"element": "C" 
			},
			{
				"x": 3.7295792024,
				"y": -1.2063913069,
				"z": 1.7421182572,
				"element": "O" 
			},
			{
				"x": 2.5673734557,
				"y": -0.421981424,
				"z": 3.7310925632,
				"element": "C" 
			},
			{
				"x": 1.3210240241,
				"y": -0.241958961,
				"z": 4.4175522693,
				"element": "C" 
			},
			{
				"x": 1.3187818128,
				"y": 0.3325458227,
				"z": 5.7161356529,
				"element": "C" 
			},
			{
				"x": 2.4964543076,
				"y": 0.721194303,
				"z": 6.3139083118,
				"element": "C" 
			},
			{
				"x": 3.7267133552,
				"y": 0.564837645,
				"z": 5.6348862524,
				"element": "C" 
			},
			{
				"x": 3.7578246636,
				"y": 0.0128424986,
				"z": 4.3735392844,
				"element": "C" 
			},
			{
				"x": 0.1275350784,
				"y": -0.630862928,
				"z": 3.7500051719,
				"element": "C" 
			},
			{
				"x": -1.0922758959,
				"y": -0.3917227764,
				"z": 4.3841318267,
				"element": "O" 
			},
			{
				"x": -1.7725341755,
				"y": -1.4085387985,
				"z": 4.9971619447,
				"element": "C" 
			},
			{
				"x": -1.2950260253,
				"y": -2.7255220708,
				"z": 5.0392374347,
				"element": "C" 
			},
			{
				"x": -2.0499920582,
				"y": -3.720554577,
				"z": 5.6464378102,
				"element": "C" 
			},
			{
				"x": -3.2780830155,
				"y": -3.3822451871,
				"z": 6.2083260874,
				"element": "C" 
			},
			{
				"x": -3.7477348725,
				"y": -2.070795497,
				"z": 6.1918729286,
				"element": "C" 
			},
			{
				"x": -3.0016417624,
				"y": -1.0575062067,
				"z": 5.595994805,
				"element": "C" 
			},
			{
				"x": -3.5838894731,
				"y": 0.3467888331,
				"z": 5.5426516651,
				"element": "C" 
			},
			{
				"x": -2.7476674243,
				"y": 1.4608138226,
				"z": 6.0249530846,
				"element": "N" 
			},
			{
				"x": -2.692669743,
				"y": 2.710327554,
				"z": 5.19902618,
				"element": "C" 
			},
			{
				"x": -4.0955135686,
				"y": 3.317532502,
				"z": 5.0504477739,
				"element": "C" 
			},
			{
				"x": -1.99447403,
				"y": 2.5160581235,
				"z": 3.8514604581,
				"element": "C" 
			},
			{
				"x": -2.2701164151,
				"y": 1.5831854855,
				"z": 7.2917570935,
				"element": "C" 
			},
			{
				"x": -2.8272962864,
				"y": 0.278941346,
				"z": 8.4422561397,
				"element": "Cl" 
			},
			{
				"x": -1.5553508966,
				"y": 2.4521673276,
				"z": 7.7212800919,
				"element": "O" 
			},
			{
				"x": -4.0916365374,
				"y": -4.423257263,
				"z": 6.8390849943,
				"element": "N" 
			},
			{
				"x": -3.6402046336,
				"y": -5.5691419764,
				"z": 6.856424958,
				"element": "O" 
			},
			{
				"x": -5.1803099838,
				"y": -4.0927073291,
				"z": 7.3120108017,
				"element": "O" 
			},
			{
				"x": 0.1541238399,
				"y": -1.1449479188,
				"z": 2.4775424438,
				"element": "C" 
			},
			{
				"x": 5.5011574163,
				"y": -3.1696574412,
				"z": -6.4755149472,
				"element": "H" 
			},
			{
				"x": 4.3855736769,
				"y": -4.4526443047,
				"z": -5.9890809798,
				"element": "H" 
			},
			{
				"x": 4.6755416942,
				"y": -3.0844602208,
				"z": -4.9138154701,
				"element": "H" 
			},
			{
				"x": 3.2594249421,
				"y": -3.0036833789,
				"z": -7.648388709,
				"element": "H" 
			},
			{
				"x": 2.4618969564,
				"y": -2.834369029,
				"z": -6.0928242688,
				"element": "H" 
			},
			{
				"x": 4.5238924135,
				"y": -0.8714081799,
				"z": -7.2348851819,
				"element": "H" 
			},
			{
				"x": 2.7827041094,
				"y": -0.6662140643,
				"z": -7.3195340925,
				"element": "H" 
			},
			{
				"x": 2.6682022113,
				"y": -0.6300641645,
				"z": -4.8032168407,
				"element": "H" 
			},
			{
				"x": 4.4160249293,
				"y": -0.7646006654,
				"z": -4.7249217313,
				"element": "H" 
			},
			{
				"x": 2.9009534554,
				"y": 1.5322262722,
				"z": -6.0738921956,
				"element": "H" 
			},
			{
				"x": 4.6481337463,
				"y": 1.3871069849,
				"z": -6.0030260749,
				"element": "H" 
			},
			{
				"x": 4.5534407608,
				"y": 1.4717828255,
				"z": -3.4881747357,
				"element": "H" 
			},
			{
				"x": 2.8076311141,
				"y": 1.6122014584,
				"z": -3.563630204,
				"element": "H" 
			},
			{
				"x": 3.0503043762,
				"y": 3.7861132657,
				"z": -4.8318226246,
				"element": "H" 
			},
			{
				"x": 4.7886551174,
				"y": 3.604046208,
				"z": -4.7970167619,
				"element": "H" 
			},
			{
				"x": 4.8208084189,
				"y": 3.7478002373,
				"z": -2.3267810595,
				"element": "H" 
			},
			{
				"x": 4.185608472,
				"y": 5.1917132659,
				"z": -3.0919174228,
				"element": "H" 
			},
			{
				"x": 2.5029343416,
				"y": 3.0419363631,
				"z": -1.6950871154,
				"element": "H" 
			},
			{
				"x": 3.0038584296,
				"y": 4.5721055512,
				"z": -1.0257149461,
				"element": "H" 
			},
			{
				"x": 0.898540628,
				"y": 5.2166664557,
				"z": -1.6776085382,
				"element": "H" 
			},
			{
				"x": 1.754007608,
				"y": 5.6140465119,
				"z": -3.1503602905,
				"element": "H" 
			},
			{
				"x": 0.9977757335,
				"y": 3.35150376,
				"z": -4.1055776638,
				"element": "H" 
			},
			{
				"x": -0.267887935,
				"y": 4.5232103378,
				"z": -3.7939700815,
				"element": "H" 
			},
			{
				"x": 0.438594022,
				"y": 2.1865924451,
				"z": -1.9357697439,
				"element": "H" 
			},
			{
				"x": -0.8090425134,
				"y": 3.3840193707,
				"z": -1.6294154273,
				"element": "H" 
			},
			{
				"x": -0.753596897,
				"y": 1.4914994143,
				"z": -4.0466507397,
				"element": "H" 
			},
			{
				"x": -2.0221677076,
				"y": 2.6587994127,
				"z": -3.70313981,
				"element": "H" 
			},
			{
				"x": -2.5212650486,
				"y": 1.489069607,
				"z": -1.5386153304,
				"element": "H" 
			},
			{
				"x": -2.8009088941,
				"y": 0.4701005873,
				"z": -2.9547647454,
				"element": "H" 
			},
			{
				"x": -1.7312813086,
				"y": -0.734649562,
				"z": -4.3314126832,
				"element": "H" 
			},
			{
				"x": -0.7962422087,
				"y": -2.7480356949,
				"z": -5.4057103426,
				"element": "H" 
			},
			{
				"x": 0.7922779783,
				"y": -4.2052396979,
				"z": -4.15860239,
				"element": "H" 
			},
			{
				"x": 1.4429380587,
				"y": -3.6191837187,
				"z": -1.825033959,
				"element": "H" 
			},
			{
				"x": 0.0669156571,
				"y": -0.6044760108,
				"z": -0.1661962421,
				"element": "H" 
			},
			{
				"x": 4.4809079945,
				"y": -1.1960856115,
				"z": 2.3473194555,
				"element": "H" 
			},
			{
				"x": 0.3733094712,
				"y": 0.4762319872,
				"z": 6.2253439339,
				"element": "H" 
			},
			{
				"x": 2.4783022542,
				"y": 1.1624595957,
				"z": 7.3055021596,
				"element": "H" 
			},
			{
				"x": 4.6486779437,
				"y": 0.8927288254,
				"z": 6.105020919,
				"element": "H" 
			},
			{
				"x": 4.7145840039,
				"y": -0.0575258056,
				"z": 3.8623481252,
				"element": "H" 
			},
			{
				"x": -0.3418184834,
				"y": -2.9665816019,
				"z": 4.5856705971,
				"element": "H" 
			},
			{
				"x": -1.7052345455,
				"y": -4.746043103,
				"z": 5.6877859144,
				"element": "H" 
			},
			{
				"x": -4.697234963,
				"y": -1.8516963617,
				"z": 6.6650612326,
				"element": "H" 
			},
			{
				"x": -3.8063531956,
				"y": 0.5855204348,
				"z": 4.4996955423,
				"element": "H" 
			},
			{
				"x": -4.5399467693,
				"y": 0.3357523477,
				"z": 6.0764925174,
				"element": "H" 
			},
			{
				"x": -2.0861133327,
				"y": 3.3935766992,
				"z": 5.7931741628,
				"element": "H" 
			},
			{
				"x": -4.5629869789,
				"y": 3.4728839458,
				"z": 6.0272671316,
				"element": "H" 
			},
			{
				"x": -4.7582328595,
				"y": 2.6884547997,
				"z": 4.4463591938,
				"element": "H" 
			},
			{
				"x": -4.0236635961,
				"y": 4.2888967183,
				"z": 4.5513735414,
				"element": "H" 
			},
			{
				"x": -1.9621017307,
				"y": 3.4793163109,
				"z": 3.3319382178,
				"element": "H" 
			},
			{
				"x": -0.9718593075,
				"y": 2.1611917103,
				"z": 3.9847368669,
				"element": "H" 
			},
			{
				"x": -2.519364592,
				"y": 1.8091326355,
				"z": 3.2014874166,
				"element": "H" 
			},
			{
				"x": -0.778009626,
				"y": -1.4273273915,
				"z": 1.9983419102,
				"element": "H" 
			}
		],
		 "valence_orbital": [ 
			{
				"type": "occ",
				"energy": -0.2553,
				"method": "rhf"
			},
			{
				"type": "occ",
				"energy": -0.25327,
				"method": "rhf"
			},
			{
				"type": "occ",
				"energy": -0.2394,
				"method": "rhf"
			},
			{
				"type": "occ",
				"energy": -0.22194,
				"method": "rhf"
			},
			{
				"type": "occ",
				"energy": -0.21005,
				"method": "rhf"
			},
			{
				"type": "unocc",
				"energy": -0.08285,
				"method": "rhf"
			},
			{
				"type": "unocc",
				"energy": -0.06168,
				"method": "rhf"
			},
			{
				"type": "unocc",
				"energy": -0.04403,
				"method": "rhf"
			},
			{
				"type": "unocc",
				"energy": -0.03149,
				"method": "rhf"
			},
			{
				"type": "unocc",
				"energy": -0.009,
				"method": "rhf"
			}
		],
		"cosmo_sigma_profile": { 
			"-0.025": 0.0,
			"-0.024": 0.0,
			"-0.023": 0.0,
			"-0.022": 0.0,
			"-0.021": 0.0,
			"-0.02": 0.0,
			"-0.019": 0.184503267437,
			"-0.018": 0.755553661325,
			"-0.017": 1.01466181202,
			"-0.016": 1.24814053455,
			"-0.015": 0.730083053175,
			"-0.014": 0.404615246485,
			"-0.013": 0.746956063862,
			"-0.012": 1.42791585941,
			"-0.011": 1.49878585625,
			"-0.01": 1.38311684205,
			"-0.009": 2.12405318318,
			"-0.008": 7.5592644686,
			"-0.007": 16.2622936904,
			"-0.006": 22.5889494982,
			"-0.005": 33.4540520851,
			"-0.004": 46.6403844634,
			"-0.003": 52.0847855786,
			"-0.002": 79.1432481227,
			"-0.001": 113.99502027,
			"0.0": 121.610193122,
			"0.001": 113.174054175,
			"0.002": 67.328138524,
			"0.003": 32.9884220572,
			"0.004": 32.3934708783,
			"0.005": 19.1916689355,
			"0.006": 10.9974819175,
			"0.007": 11.0032253849,
			"0.008": 13.4245614814,
			"0.009": 9.91601122998,
			"0.01": 9.54102348346,
			"0.011": 7.56745570488,
			"0.012": 3.62921999914,
			"0.013": 3.58116290287,
			"0.014": 2.57293749208,
			"0.015": 0.90600465914,
			"0.016": 0.0,
			"0.017": 0.0,
			"0.018": 0.0,
			"0.019": 0.0,
			"0.02": 0.0,
			"0.021": 0.0,
			"0.022": 0.0,
			"0.023": 0.0,
			"0.024": 0.0,
			"0.025": 0.0
		}
	}
}
