{
	 "smiles": "COC(=O)NCCC1=CC=CC=C1NC(C)=O", 
	 "Tm": 380.15, 
	 "num_atms": 33, 
	 "gaussian": { 
		 "optdone": 1, 
		 "sigma_profile": "yes", 
		 "theory": "DFT", 
		 "functional": "B3LYP", 
		 "basiset": "6-31G**", 
		 "properties": { 
			 "R2extent": 5509.0432, 
			 "electric_dipole_moment_norm": 4.33855851637, 
			 "electric_quadrupole_moment_norm": 9.41663020937, 
			 "total_energy": -802.136609616, 
			 "HOMO_LUMO_gap": 0.20985, 
			 "cosmo_polarized_energy": -18.59, 
			 "cosmo_cavitation_energy": 37.29, 
			 "cosmo_dispersion_energy": -25.04, 
			 "cosmo_repulsion_energy": 1.98, 
			 "cosmo_total_nonelectrostatic_energy": 14.23, 
			 "SMD_solvation_energy": 8.24 
		},
		"coords": [
			{
				"x": 3.488436296,
				"y": -0.2598749994,
				"z": 3.3614613741,
				"element": "C" 
			},
			{
				"x": 2.5432501701,
				"y": -0.6006016471,
				"z": 2.3399294764,
				"element": "O" 
			},
			{
				"x": 1.5052211146,
				"y": 0.2714191695,
				"z": 2.2157170827,
				"element": "C" 
			},
			{
				"x": 1.3700319781,
				"y": 1.2803989087,
				"z": 2.8858743924,
				"element": "O" 
			},
			{
				"x": 0.641281679,
				"y": -0.1643453873,
				"z": 1.2521822011,
				"element": "N" 
			},
			{
				"x": -0.4590280613,
				"y": 0.6708233529,
				"z": 0.8034241521,
				"element": "C" 
			},
			{
				"x": -0.068618641,
				"y": 1.662488143,
				"z": -0.3174462723,
				"element": "C" 
			},
			{
				"x": 0.3935349863,
				"y": 0.9861944511,
				"z": -1.590832525,
				"element": "C" 
			},
			{
				"x": 1.7630082812,
				"y": 0.861137614,
				"z": -1.8557665413,
				"element": "C" 
			},
			{
				"x": 2.2369906488,
				"y": 0.1969449425,
				"z": -2.9877249824,
				"element": "C" 
			},
			{
				"x": 1.3278748615,
				"y": -0.3394608714,
				"z": -3.8980423582,
				"element": "C" 
			},
			{
				"x": -0.0412542232,
				"y": -0.2056910798,
				"z": -3.6729126373,
				"element": "C" 
			},
			{
				"x": -0.5178522128,
				"y": 0.4281536177,
				"z": -2.5172582305,
				"element": "C" 
			},
			{
				"x": -1.9102475578,
				"y": 0.5636358342,
				"z": -2.2886735233,
				"element": "N" 
			},
			{
				"x": -2.9519643095,
				"y": -0.3400223137,
				"z": -2.4232906711,
				"element": "C" 
			},
			{
				"x": -2.6259477402,
				"y": -1.779696213,
				"z": -2.7772605847,
				"element": "C" 
			},
			{
				"x": -4.100235472,
				"y": 0.0323647597,
				"z": -2.2295342978,
				"element": "O" 
			},
			{
				"x": 3.0116798094,
				"y": -0.247146061,
				"z": 4.3451236386,
				"element": "H" 
			},
			{
				"x": 3.930049601,
				"y": 0.722293636,
				"z": 3.1735896592,
				"element": "H" 
			},
			{
				"x": 4.2544766811,
				"y": -1.0349890618,
				"z": 3.3221114722,
				"element": "H" 
			},
			{
				"x": 0.9533354638,
				"y": -0.9279444729,
				"z": 0.670790643,
				"element": "H" 
			},
			{
				"x": -0.8093983117,
				"y": 1.2325577709,
				"z": 1.6720040653,
				"element": "H" 
			},
			{
				"x": -1.2727691849,
				"y": 0.0212552151,
				"z": 0.4677783834,
				"element": "H" 
			},
			{
				"x": -0.9270750097,
				"y": 2.3210955478,
				"z": -0.5002248765,
				"element": "H" 
			},
			{
				"x": 0.7309973301,
				"y": 2.3046623644,
				"z": 0.0647861124,
				"element": "H" 
			},
			{
				"x": 2.4690500142,
				"y": 1.2930804094,
				"z": -1.1514229399,
				"element": "H" 
			},
			{
				"x": 3.3053993315,
				"y": 0.1109688078,
				"z": -3.1606646,
				"element": "H" 
			},
			{
				"x": 1.6777769823,
				"y": -0.8401047048,
				"z": -4.7959349839,
				"element": "H" 
			},
			{
				"x": -0.7499446434,
				"y": -0.5752048054,
				"z": -4.4056770473,
				"element": "H" 
			},
			{
				"x": -2.2445703991,
				"y": 1.4614218426,
				"z": -1.9592214839,
				"element": "H" 
			},
			{
				"x": -1.6289804667,
				"y": -2.0912216832,
				"z": -2.4600556959,
				"element": "H" 
			},
			{
				"x": -2.7007471821,
				"y": -1.9247585759,
				"z": -3.8600681454,
				"element": "H" 
			},
			{
				"x": -3.3853618138,
				"y": -2.4071345107,
				"z": -2.3082602561,
				"element": "H" 
			}
		],
		 "valence_orbital": [ 
			{
				"type": "occ",
				"energy": -0.27298,
				"method": "rhf"
			},
			{
				"type": "occ",
				"energy": -0.263,
				"method": "rhf"
			},
			{
				"type": "occ",
				"energy": -0.2547,
				"method": "rhf"
			},
			{
				"type": "occ",
				"energy": -0.25245,
				"method": "rhf"
			},
			{
				"type": "occ",
				"energy": -0.2307,
				"method": "rhf"
			},
			{
				"type": "unocc",
				"energy": -0.02085,
				"method": "rhf"
			},
			{
				"type": "unocc",
				"energy": -0.01508,
				"method": "rhf"
			},
			{
				"type": "unocc",
				"energy": 0.02908,
				"method": "rhf"
			},
			{
				"type": "unocc",
				"energy": 0.0518,
				"method": "rhf"
			},
			{
				"type": "unocc",
				"energy": 0.07378,
				"method": "rhf"
			}
		],
		"cosmo_sigma_profile": { 
			"-0.025": 0.0,
			"-0.024": 0.0,
			"-0.023": 0.0,
			"-0.022": 0.0,
			"-0.021": 0.0,
			"-0.02": 0.0,
			"-0.019": 0.0,
			"-0.018": 0.0,
			"-0.017": 0.0,
			"-0.016": 0.0,
			"-0.015": 0.0,
			"-0.014": 0.164099268228,
			"-0.013": 1.46281351319,
			"-0.012": 2.01057822575,
			"-0.011": 2.0357096036,
			"-0.01": 1.66201264248,
			"-0.009": 1.99208781774,
			"-0.008": 2.16972248412,
			"-0.007": 5.31818936055,
			"-0.006": 12.7987943036,
			"-0.005": 21.7238864313,
			"-0.004": 31.9955279024,
			"-0.003": 37.2632283561,
			"-0.002": 27.2967748913,
			"-0.001": 22.7876791661,
			"0.0": 14.9023512451,
			"0.001": 13.0266405846,
			"0.002": 13.428223835,
			"0.003": 13.3460493556,
			"0.004": 12.2744440699,
			"0.005": 12.0455194625,
			"0.006": 6.05565714164,
			"0.007": 4.01716912113,
			"0.008": 4.91101283827,
			"0.009": 2.73483147695,
			"0.01": 2.42587620833,
			"0.011": 2.63254654183,
			"0.012": 4.74738449827,
			"0.013": 8.78363320819,
			"0.014": 6.98193007274,
			"0.015": 0.973422433513,
			"0.016": 0.0,
			"0.017": 0.0,
			"0.018": 0.0,
			"0.019": 0.0,
			"0.02": 0.0,
			"0.021": 0.0,
			"0.022": 0.0,
			"0.023": 0.0,
			"0.024": 0.0,
			"0.025": 0.0
		}
	}
}
