{
	 "smiles": "COC1=CC(=CC=C1)C(C)=O", 
	 "Tm": 265.65, 
	 "num_atms": 21, 
	 "gaussian": { 
		 "optdone": 1, 
		 "sigma_profile": "yes", 
		 "theory": "DFT", 
		 "functional": "B3LYP", 
		 "basiset": "6-31G**", 
		 "properties": { 
			 "R2extent": 2188.4206, 
			 "electric_dipole_moment_norm": 3.54935504, 
			 "electric_quadrupole_moment_norm": 13.2758667363, 
			 "total_energy": -499.423280527, 
			 "HOMO_LUMO_gap": 0.17383, 
			 "cosmo_polarized_energy": -9.85, 
			 "cosmo_cavitation_energy": 24.83, 
			 "cosmo_dispersion_energy": -18.03, 
			 "cosmo_repulsion_energy": 1.44, 
			 "cosmo_total_nonelectrostatic_energy": 8.25, 
			 "SMD_solvation_energy": 5.8 
		},
		"coords": [
			{
				"x": 2.1278223096,
				"y": 0.3063339534,
				"z": -1.8872030816,
				"element": "C" 
			},
			{
				"x": 1.2173805254,
				"y": 1.262279295,
				"z": -1.3686439386,
				"element": "O" 
			},
			{
				"x": 0.4961988119,
				"y": 0.9354024259,
				"z": -0.2566810726,
				"element": "C" 
			},
			{
				"x": 0.5873425886,
				"y": -0.2850090582,
				"z": 0.419291295,
				"element": "C" 
			},
			{
				"x": -0.2051793216,
				"y": -0.5159449046,
				"z": 1.5579299504,
				"element": "C" 
			},
			{
				"x": -1.0828341398,
				"y": 0.4748828459,
				"z": 2.0122281385,
				"element": "C" 
			},
			{
				"x": -1.1674614797,
				"y": 1.6895056345,
				"z": 1.3319742537,
				"element": "C" 
			},
			{
				"x": -0.3861660038,
				"y": 1.9242576526,
				"z": 0.2048682536,
				"element": "C" 
			},
			{
				"x": -0.1450462666,
				"y": -1.8082632873,
				"z": 2.3189791814,
				"element": "C" 
			},
			{
				"x": 0.8009627072,
				"y": -2.9003920629,
				"z": 1.8448873244,
				"element": "C" 
			},
			{
				"x": -0.8446720982,
				"y": -1.9843640571,
				"z": 3.3050767819,
				"element": "O" 
			},
			{
				"x": 2.586866474,
				"y": 0.7706617986,
				"z": -2.7612017441,
				"element": "H" 
			},
			{
				"x": 2.9113674343,
				"y": 0.0554570645,
				"z": -1.1602037858,
				"element": "H" 
			},
			{
				"x": 1.6170951409,
				"y": -0.6151237774,
				"z": -2.1961950862,
				"element": "H" 
			},
			{
				"x": 1.2655170929,
				"y": -1.0524114083,
				"z": 0.0693988124,
				"element": "H" 
			},
			{
				"x": -1.6821032582,
				"y": 0.2708470554,
				"z": 2.8921496045,
				"element": "H" 
			},
			{
				"x": -1.8471074384,
				"y": 2.461663382,
				"z": 1.6806459102,
				"element": "H" 
			},
			{
				"x": -0.4381869236,
				"y": 2.8627695567,
				"z": -0.3375271609,
				"element": "H" 
			},
			{
				"x": 0.7072644946,
				"y": -3.7556409657,
				"z": 2.5145188032,
				"element": "H" 
			},
			{
				"x": 1.8392429885,
				"y": -2.550370812,
				"z": 1.8465234196,
				"element": "H" 
			},
			{
				"x": 0.5616963619,
				"y": -3.212440331,
				"z": 0.822184141,
				"element": "H" 
			}
		],
		 "valence_orbital": [ 
			{
				"type": "occ",
				"energy": -0.33922,
				"method": "rhf"
			},
			{
				"type": "occ",
				"energy": -0.32082,
				"method": "rhf"
			},
			{
				"type": "occ",
				"energy": -0.26017,
				"method": "rhf"
			},
			{
				"type": "occ",
				"energy": -0.24572,
				"method": "rhf"
			},
			{
				"type": "occ",
				"energy": -0.22697,
				"method": "rhf"
			},
			{
				"type": "unocc",
				"energy": -0.05314,
				"method": "rhf"
			},
			{
				"type": "unocc",
				"energy": 0.00324,
				"method": "rhf"
			},
			{
				"type": "unocc",
				"energy": 0.0447,
				"method": "rhf"
			},
			{
				"type": "unocc",
				"energy": 0.08162,
				"method": "rhf"
			},
			{
				"type": "unocc",
				"energy": 0.10218,
				"method": "rhf"
			}
		],
		"cosmo_sigma_profile": { 
			"-0.025": 0.0,
			"-0.024": 0.0,
			"-0.023": 0.0,
			"-0.022": 0.0,
			"-0.021": 0.0,
			"-0.02": 0.0,
			"-0.019": 0.0,
			"-0.018": 0.0,
			"-0.017": 0.0,
			"-0.016": 0.0,
			"-0.015": 0.0,
			"-0.014": 0.0,
			"-0.013": 0.0,
			"-0.012": 0.0,
			"-0.011": 0.0,
			"-0.01": 0.0,
			"-0.009": 0.0,
			"-0.008": 0.0,
			"-0.007": 2.70279224108,
			"-0.006": 16.1051291607,
			"-0.005": 20.5067304547,
			"-0.004": 20.8327578077,
			"-0.003": 18.3929601854,
			"-0.002": 13.4392490858,
			"-0.001": 14.7945331648,
			"0.0": 9.13468455632,
			"0.001": 9.84640273878,
			"0.002": 12.3219719305,
			"0.003": 14.6281880472,
			"0.004": 14.4002392225,
			"0.005": 5.55852816052,
			"0.006": 3.35248800325,
			"0.007": 3.02814029311,
			"0.008": 2.79830976523,
			"0.009": 2.987975893,
			"0.01": 3.66737623459,
			"0.011": 2.95772452384,
			"0.012": 4.04629845925,
			"0.013": 1.73398141528,
			"0.014": 0.169812934437,
			"0.015": 0.0,
			"0.016": 0.0,
			"0.017": 0.0,
			"0.018": 0.0,
			"0.019": 0.0,
			"0.02": 0.0,
			"0.021": 0.0,
			"0.022": 0.0,
			"0.023": 0.0,
			"0.024": 0.0,
			"0.025": 0.0
		}
	}
}
