{
	 "smiles": "FC(F)(F)C(F)(F)C(F)(F)C(F)(F)C(F)(F)C(F)(F)C(F)(F)C(F)(F)C(=O)N(C1=CC=CC=C1)C1=CC=CC=C1", 
	 "Tm": 365.15, 
	 "num_atms": 50, 
	 "gaussian": { 
		 "optdone": 1, 
		 "sigma_profile": "yes", 
		 "theory": "DFT", 
		 "functional": "B3LYP", 
		 "basiset": "6-31G**", 
		 "properties": { 
			 "R2extent": 23329.6622, 
			 "electric_dipole_moment_norm": 4.68432791444, 
			 "electric_quadrupole_moment_norm": 12.5382001978, 
			 "total_energy": -2633.4425566, 
			 "HOMO_LUMO_gap": 0.19457, 
			 "cosmo_polarized_energy": -10.71, 
			 "cosmo_cavitation_energy": 59.3, 
			 "cosmo_dispersion_energy": -37.44, 
			 "cosmo_repulsion_energy": 2.51, 
			 "cosmo_total_nonelectrostatic_energy": 24.37, 
			 "SMD_solvation_energy": 15.36 
		},
		"coords": [
			{
				"x": -3.7665920448,
				"y": 2.344138552,
				"z": 1.9599060871,
				"element": "F" 
			},
			{
				"x": -4.5779772209,
				"y": 2.2423240217,
				"z": 3.0195314546,
				"element": "C" 
			},
			{
				"x": -4.3462575792,
				"y": 3.2655719551,
				"z": 3.8512658363,
				"element": "F" 
			},
			{
				"x": -5.8451354198,
				"y": 2.3057951539,
				"z": 2.595092396,
				"element": "F" 
			},
			{
				"x": -4.3631394488,
				"y": 0.8928923306,
				"z": 3.7480344732,
				"element": "C" 
			},
			{
				"x": -4.4684349136,
				"y": -0.1018537916,
				"z": 2.8422661628,
				"element": "F" 
			},
			{
				"x": -5.3704075495,
				"y": 0.765280284,
				"z": 4.6454781588,
				"element": "F" 
			},
			{
				"x": -3.0499600962,
				"y": 0.7130439565,
				"z": 4.5696268647,
				"element": "C" 
			},
			{
				"x": -3.0452711101,
				"y": -0.5700976602,
				"z": 4.9984112157,
				"element": "F" 
			},
			{
				"x": -3.1459643298,
				"y": 1.5359153264,
				"z": 5.640844955,
				"element": "F" 
			},
			{
				"x": -1.6465821148,
				"y": 1.01111935,
				"z": 3.9501881747,
				"element": "C" 
			},
			{
				"x": -1.6179032506,
				"y": 2.3108713265,
				"z": 3.5672971579,
				"element": "F" 
			},
			{
				"x": -0.7712346824,
				"y": 0.8338960953,
				"z": 4.9656060637,
				"element": "F" 
			},
			{
				"x": -1.1870230281,
				"y": 0.1200749536,
				"z": 2.762360876,
				"element": "C" 
			},
			{
				"x": -2.1301824826,
				"y": 0.1744651602,
				"z": 1.7913115261,
				"element": "F" 
			},
			{
				"x": -1.0767971148,
				"y": -1.1486030867,
				"z": 3.2110253373,
				"element": "F" 
			},
			{
				"x": 0.1618815855,
				"y": 0.5649819986,
				"z": 2.123336241,
				"element": "C" 
			},
			{
				"x": -0.0517876628,
				"y": 1.7005668274,
				"z": 1.425360067,
				"element": "F" 
			},
			{
				"x": 1.0521913948,
				"y": 0.8246601772,
				"z": 3.1123637299,
				"element": "F" 
			},
			{
				"x": 0.8594179123,
				"y": -0.475769091,
				"z": 1.1884666512,
				"element": "C" 
			},
			{
				"x": 1.2792649352,
				"y": -1.5085339052,
				"z": 1.9448479121,
				"element": "F" 
			},
			{
				"x": 1.9547791302,
				"y": 0.1671886333,
				"z": 0.6912596481,
				"element": "F" 
			},
			{
				"x": 0.048138512,
				"y": -1.0239388482,
				"z": -0.0174086802,
				"element": "C" 
			},
			{
				"x": -0.5884222293,
				"y": 0.0216841094,
				"z": -0.6083776771,
				"element": "F" 
			},
			{
				"x": -0.8965605928,
				"y": -1.8646867032,
				"z": 0.4646015964,
				"element": "F" 
			},
			{
				"x": 0.9818403394,
				"y": -1.8526856825,
				"z": -0.9569730475,
				"element": "C" 
			},
			{
				"x": 1.1860938826,
				"y": -3.0016822558,
				"z": -0.6105452198,
				"element": "O" 
			},
			{
				"x": 1.6011749989,
				"y": -1.2392411523,
				"z": -2.0228709496,
				"element": "N" 
			},
			{
				"x": 1.2323642963,
				"y": 0.0383055714,
				"z": -2.5892355583,
				"element": "C" 
			},
			{
				"x": 2.0662618476,
				"y": 1.1407701552,
				"z": -2.3889080051,
				"element": "C" 
			},
			{
				"x": 1.7480373689,
				"y": 2.3632055591,
				"z": -2.9803353352,
				"element": "C" 
			},
			{
				"x": 0.6028429912,
				"y": 2.4846383099,
				"z": -3.7703196149,
				"element": "C" 
			},
			{
				"x": -0.2257858253,
				"y": 1.3786574031,
				"z": -3.9706871589,
				"element": "C" 
			},
			{
				"x": 0.0895169119,
				"y": 0.152176506,
				"z": -3.3859977343,
				"element": "C" 
			},
			{
				"x": 2.6828949586,
				"y": -1.9413958396,
				"z": -2.6780089874,
				"element": "C" 
			},
			{
				"x": 3.7340255277,
				"y": -2.4738524336,
				"z": -1.9231375801,
				"element": "C" 
			},
			{
				"x": 4.790016057,
				"y": -3.1152194412,
				"z": -2.5667755927,
				"element": "C" 
			},
			{
				"x": 4.8109706875,
				"y": -3.222419019,
				"z": -3.9594082582,
				"element": "C" 
			},
			{
				"x": 3.7641603049,
				"y": -2.6837985425,
				"z": -4.7076647774,
				"element": "C" 
			},
			{
				"x": 2.6988778592,
				"y": -2.0456987282,
				"z": -4.0713588513,
				"element": "C" 
			},
			{
				"x": 2.951028935,
				"y": 1.0337016337,
				"z": -1.7706224551,
				"element": "H" 
			},
			{
				"x": 2.3937518115,
				"y": 3.2214061217,
				"z": -2.8203980522,
				"element": "H" 
			},
			{
				"x": 0.3570729106,
				"y": 3.437839456,
				"z": -4.2286673753,
				"element": "H" 
			},
			{
				"x": -1.1171777828,
				"y": 1.4681085766,
				"z": -4.5842576046,
				"element": "H" 
			},
			{
				"x": -0.5472218631,
				"y": -0.7145324072,
				"z": -3.5342874558,
				"element": "H" 
			},
			{
				"x": 3.7163320932,
				"y": -2.3938336447,
				"z": -0.8427031019,
				"element": "H" 
			},
			{
				"x": 5.6019799251,
				"y": -3.5281899689,
				"z": -1.9756523002,
				"element": "H" 
			},
			{
				"x": 5.6378939247,
				"y": -3.720810245,
				"z": -4.4562273799,
				"element": "H" 
			},
			{
				"x": 3.7700747539,
				"y": -2.7607486183,
				"z": -5.7908983133,
				"element": "H" 
			},
			{
				"x": 1.8873324867,
				"y": -1.6234884401,
				"z": -4.6538555192,
				"element": "H" 
			}
		],
		 "valence_orbital": [ 
			{
				"type": "occ",
				"energy": -0.28411,
				"method": "rhf"
			},
			{
				"type": "occ",
				"energy": -0.26952,
				"method": "rhf"
			},
			{
				"type": "occ",
				"energy": -0.26634,
				"method": "rhf"
			},
			{
				"type": "occ",
				"energy": -0.25751,
				"method": "rhf"
			},
			{
				"type": "occ",
				"energy": -0.2352,
				"method": "rhf"
			},
			{
				"type": "unocc",
				"energy": -0.04063,
				"method": "rhf"
			},
			{
				"type": "unocc",
				"energy": -0.02755,
				"method": "rhf"
			},
			{
				"type": "unocc",
				"energy": -0.01691,
				"method": "rhf"
			},
			{
				"type": "unocc",
				"energy": -0.00877,
				"method": "rhf"
			},
			{
				"type": "unocc",
				"energy": 0.00608,
				"method": "rhf"
			}
		],
		"cosmo_sigma_profile": { 
			"-0.025": 0.0,
			"-0.024": 0.0,
			"-0.023": 0.0,
			"-0.022": 0.0,
			"-0.021": 0.0,
			"-0.02": 0.0,
			"-0.019": 0.0,
			"-0.018": 0.0,
			"-0.017": 0.0,
			"-0.016": 0.0,
			"-0.015": 0.0,
			"-0.014": 0.0,
			"-0.013": 0.0,
			"-0.012": 0.0,
			"-0.011": 0.0,
			"-0.01": 0.0,
			"-0.009": 0.0404712916347,
			"-0.008": 1.15717850139,
			"-0.007": 6.43150930226,
			"-0.006": 19.8336733587,
			"-0.005": 25.0771730905,
			"-0.004": 25.0784549225,
			"-0.003": 22.2373752044,
			"-0.002": 26.369173514,
			"-0.001": 40.6408322545,
			"0.0": 76.2905260563,
			"0.001": 123.040844583,
			"0.002": 39.9203932431,
			"0.003": 21.9548814507,
			"0.004": 19.4974087754,
			"0.005": 10.65561526,
			"0.006": 3.19027464911,
			"0.007": 1.9222704468,
			"0.008": 2.05064499153,
			"0.009": 2.38962262778,
			"0.01": 2.86652182034,
			"0.011": 4.89381531879,
			"0.012": 1.06101294508,
			"0.013": 0.0,
			"0.014": 0.0,
			"0.015": 0.0,
			"0.016": 0.0,
			"0.017": 0.0,
			"0.018": 0.0,
			"0.019": 0.0,
			"0.02": 0.0,
			"0.021": 0.0,
			"0.022": 0.0,
			"0.023": 0.0,
			"0.024": 0.0,
			"0.025": 0.0
		}
	}
}
