{
	 "smiles": "OC(=O)C1=NNC2=C1CCCC2", 
	 "Tm": 523.15, 
	 "num_atms": 22, 
	 "gaussian": { 
		 "optdone": 1, 
		 "sigma_profile": "yes", 
		 "theory": "DFT", 
		 "functional": "B3LYP", 
		 "basiset": "6-31G**", 
		 "properties": { 
			 "R2extent": 2616.6196, 
			 "electric_dipole_moment_norm": 4.75170439632, 
			 "electric_quadrupole_moment_norm": 11.6575809416, 
			 "total_energy": -570.838098867, 
			 "HOMO_LUMO_gap": 0.2146, 
			 "cosmo_polarized_energy": -17.14, 
			 "cosmo_cavitation_energy": 24.9, 
			 "cosmo_dispersion_energy": -18.9, 
			 "cosmo_repulsion_energy": 1.53, 
			 "cosmo_total_nonelectrostatic_energy": 7.53, 
			 "SMD_solvation_energy": 3.8 
		},
		"coords": [
			{
				"x": 0.2465646711,
				"y": 0.4487205486,
				"z": 3.1368806361,
				"element": "O" 
			},
			{
				"x": 1.0009801101,
				"y": 0.1670046998,
				"z": 2.0361358233,
				"element": "C" 
			},
			{
				"x": 2.2120890638,
				"y": 0.1856276211,
				"z": 2.06363884,
				"element": "O" 
			},
			{
				"x": 0.1545777093,
				"y": -0.1453900468,
				"z": 0.8680139184,
				"element": "C" 
			},
			{
				"x": 0.7503656466,
				"y": -0.4135214982,
				"z": -0.3027155496,
				"element": "N" 
			},
			{
				"x": -0.2673336278,
				"y": -0.6452501978,
				"z": -1.1417570231,
				"element": "N" 
			},
			{
				"x": -1.4964640535,
				"y": -0.5375154065,
				"z": -0.5575132962,
				"element": "C" 
			},
			{
				"x": -1.2656276274,
				"y": -0.2129410135,
				"z": 0.7655331685,
				"element": "C" 
			},
			{
				"x": -2.3841512763,
				"y": -0.0013336845,
				"z": 1.7478433868,
				"element": "C" 
			},
			{
				"x": -3.7075163454,
				"y": -0.5513331024,
				"z": 1.1760463541,
				"element": "C" 
			},
			{
				"x": -3.9227261363,
				"y": -0.1504447449,
				"z": -0.2941808146,
				"element": "C" 
			},
			{
				"x": -2.8284373197,
				"y": -0.7372328926,
				"z": -1.2116419104,
				"element": "C" 
			},
			{
				"x": 0.8864448478,
				"y": 0.6366290873,
				"z": 3.8433185939,
				"element": "H" 
			},
			{
				"x": -0.0581498592,
				"y": -0.8695985471,
				"z": -2.1033043032,
				"element": "H" 
			},
			{
				"x": -2.4876666661,
				"y": 1.0702624114,
				"z": 1.9673516763,
				"element": "H" 
			},
			{
				"x": -2.1523825101,
				"y": -0.4768815047,
				"z": 2.7053727784,
				"element": "H" 
			},
			{
				"x": -3.7057486761,
				"y": -1.647258211,
				"z": 1.2496724755,
				"element": "H" 
			},
			{
				"x": -4.546832038,
				"y": -0.1981564686,
				"z": 1.7850213711,
				"element": "H" 
			},
			{
				"x": -3.9102494907,
				"y": 0.9440418427,
				"z": -0.376234077,
				"element": "H" 
			},
			{
				"x": -4.9070196631,
				"y": -0.4833852147,
				"z": -0.6402034291,
				"element": "H" 
			},
			{
				"x": -2.8607623753,
				"y": -0.2619926172,
				"z": -2.2002938668,
				"element": "H" 
			},
			{
				"x": -3.0146543836,
				"y": -1.8084510601,
				"z": -1.3751847524,
				"element": "H" 
			}
		],
		 "valence_orbital": [ 
			{
				"type": "occ",
				"energy": -0.30857,
				"method": "rhf"
			},
			{
				"type": "occ",
				"energy": -0.29139,
				"method": "rhf"
			},
			{
				"type": "occ",
				"energy": -0.26433,
				"method": "rhf"
			},
			{
				"type": "occ",
				"energy": -0.25721,
				"method": "rhf"
			},
			{
				"type": "occ",
				"energy": -0.2372,
				"method": "rhf"
			},
			{
				"type": "unocc",
				"energy": -0.0226,
				"method": "rhf"
			},
			{
				"type": "unocc",
				"energy": 0.03027,
				"method": "rhf"
			},
			{
				"type": "unocc",
				"energy": 0.07694,
				"method": "rhf"
			},
			{
				"type": "unocc",
				"energy": 0.08385,
				"method": "rhf"
			},
			{
				"type": "unocc",
				"energy": 0.08977,
				"method": "rhf"
			}
		],
		"cosmo_sigma_profile": { 
			"-0.025": 0.0,
			"-0.024": 0.0,
			"-0.023": 0.0,
			"-0.022": 0.0,
			"-0.021": 0.0,
			"-0.02": 0.0,
			"-0.019": 0.0,
			"-0.018": 0.372235955518,
			"-0.017": 1.86017970663,
			"-0.016": 2.24660144646,
			"-0.015": 1.66822879951,
			"-0.014": 2.17533107693,
			"-0.013": 2.2736425039,
			"-0.012": 1.4457016157,
			"-0.011": 1.35495316517,
			"-0.01": 2.01126673099,
			"-0.009": 1.44985666679,
			"-0.008": 1.69293280052,
			"-0.007": 2.07052409729,
			"-0.006": 2.56179411768,
			"-0.005": 4.76144159245,
			"-0.004": 8.1872593369,
			"-0.003": 18.598368005,
			"-0.002": 24.8357295392,
			"-0.001": 24.4740341499,
			"0.0": 17.4628208108,
			"0.001": 12.0801539706,
			"0.002": 9.24977971221,
			"0.003": 9.61213484392,
			"0.004": 4.97364765354,
			"0.005": 4.36580373158,
			"0.006": 4.26957483998,
			"0.007": 3.62483915228,
			"0.008": 2.68414935551,
			"0.009": 1.71748811376,
			"0.01": 3.08232546479,
			"0.011": 4.28746261902,
			"0.012": 5.73728670805,
			"0.013": 3.14496625972,
			"0.014": 1.92104061249,
			"0.015": 2.24145145631,
			"0.016": 1.14295966593,
			"0.017": 0.0,
			"0.018": 0.0,
			"0.019": 0.0,
			"0.02": 0.0,
			"0.021": 0.0,
			"0.022": 0.0,
			"0.023": 0.0,
			"0.024": 0.0,
			"0.025": 0.0
		}
	}
}
