{
	 "smiles": "OC(=O)C1=CC(I)=C(I)C(I)=C1", 
	 "Tm": 565.15, 
	 "num_atms": 15, 
	 "gaussian": { 
		 "optdone": 1, 
		 "sigma_profile": "no", 
		 "theory": "DFT", 
		 "functional": "B3LYP", 
		 "basiset": "6-31G**", 
		 "properties": { 
			 "R2extent": 2868.0895, 
			 "electric_dipole_moment_norm": 3.2521672743, 
			 "electric_quadrupole_moment_norm": 11.9759062647, 
			 "total_energy": -453.14463302, 
			 "HOMO_LUMO_gap": 0.16361, 
			 "cosmo_polarized_energy": -569347.99, 
			 "cosmo_cavitation_energy": 29.18, 
			 "cosmo_dispersion_energy": -25.11, 
			 "cosmo_repulsion_energy": 1.89, 
			 "cosmo_total_nonelectrostatic_energy": 5.97, 
			 "SMD_solvation_energy": 3.74 
		},
		"coords": [
			{
				"x": -1.6338166725,
				"y": -2.0152284666,
				"z": 1.7340837494,
				"element": "O" 
			},
			{
				"x": -0.6202278948,
				"y": -2.4610489673,
				"z": 0.9496603051,
				"element": "C" 
			},
			{
				"x": -0.1941533175,
				"y": -3.5826441582,
				"z": 1.080037352,
				"element": "O" 
			},
			{
				"x": -0.0712685685,
				"y": -1.496247592,
				"z": -0.0646592013,
				"element": "C" 
			},
			{
				"x": -0.2040084885,
				"y": -0.1114748483,
				"z": 0.0496719764,
				"element": "C" 
			},
			{
				"x": 0.343659505,
				"y": 0.7352784628,
				"z": -0.917348976,
				"element": "C" 
			},
			{
				"x": 0.0615019937,
				"y": 2.8076852209,
				"z": -0.5788733035,
				"element": "I" 
			},
			{
				"x": 1.0372825142,
				"y": 0.2095678199,
				"z": -2.0265837096,
				"element": "C" 
			},
			{
				"x": 1.8478816743,
				"y": 1.4804527958,
				"z": -3.4995855933,
				"element": "I" 
			},
			{
				"x": 1.1770313647,
				"y": -1.1934875208,
				"z": -2.1182783667,
				"element": "C" 
			},
			{
				"x": 2.1952812123,
				"y": -2.1714428728,
				"z": -3.6958738398,
				"element": "I" 
			},
			{
				"x": 0.6371568269,
				"y": -2.0296865267,
				"z": -1.1427620511,
				"element": "C" 
			},
			{
				"x": -1.9861742508,
				"y": -1.1788459272,
				"z": 1.3996358579,
				"element": "H" 
			},
			{
				"x": -0.6972519408,
				"y": 0.3308717929,
				"z": 0.9083748282,
				"element": "H" 
			},
			{
				"x": 0.7552060422,
				"y": -3.1046492124,
				"z": -1.2005990278,
				"element": "H" 
			}
		],
		 "valence_orbital": [ 
			{
				"type": "occ",
				"energy": -0.28935,
				"method": "rhf"
			},
			{
				"type": "occ",
				"energy": -0.28758,
				"method": "rhf"
			},
			{
				"type": "occ",
				"energy": -0.26423,
				"method": "rhf"
			},
			{
				"type": "occ",
				"energy": -0.26171,
				"method": "rhf"
			},
			{
				"type": "occ",
				"energy": -0.25805,
				"method": "rhf"
			},
			{
				"type": "unocc",
				"energy": -0.09444,
				"method": "rhf"
			},
			{
				"type": "unocc",
				"energy": -0.07915,
				"method": "rhf"
			},
			{
				"type": "unocc",
				"energy": -0.05651,
				"method": "rhf"
			},
			{
				"type": "unocc",
				"energy": -0.0453,
				"method": "rhf"
			},
			{
				"type": "unocc",
				"energy": -0.03503,
				"method": "rhf"
			}
		],
		"cosmo_sigma_profile": { 
			"0.0": 0.0,
			"0.0": 0.0,
			"0.0": 0.0,
			"0.0": 0.0,
			"0.0": 0.0,
			"0.0": 0.0,
			"0.0": 0.0,
			"0.0": 0.0,
			"0.0": 0.0,
			"0.0": 0.0,
			"0.0": 0.0,
			"0.0": 0.0,
			"0.0": 0.0,
			"0.0": 0.0,
			"0.0": 0.0,
			"0.0": 0.0,
			"0.0": 0.0,
			"0.0": 0.0,
			"0.0": 0.0,
			"0.0": 0.0,
			"0.0": 0.0,
			"0.0": 0.0,
			"0.0": 0.0,
			"0.0": 0.0,
			"0.0": 0.0,
			"0.0": 0.0,
			"0.0": 0.0,
			"0.0": 0.0,
			"0.0": 0.0,
			"0.0": 0.0,
			"0.0": 0.0,
			"0.0": 0.0,
			"0.0": 0.0,
			"0.0": 0.0,
			"0.0": 0.0,
			"0.0": 0.0,
			"0.0": 0.0,
			"0.0": 0.0,
			"0.0": 0.0,
			"0.0": 0.0,
			"0.0": 0.0,
			"0.0": 0.0,
			"0.0": 0.0,
			"0.0": 0.0,
			"0.0": 0.0,
			"0.0": 0.0,
			"0.0": 0.0,
			"0.0": 0.0,
			"0.0": 0.0,
			"0.0": 0.0,
			"0.0": 0.0
		}
	}
}
