{
	 "smiles": "ClCC1=C(Cl)C=CC=C1Cl", 
	 "Tm": 311.15, 
	 "num_atms": 15, 
	 "gaussian": { 
		 "optdone": 1, 
		 "sigma_profile": "yes", 
		 "theory": "DFT", 
		 "functional": "B3LYP", 
		 "basiset": "6-31G**", 
		 "properties": { 
			 "R2extent": 3102.8155, 
			 "electric_dipole_moment_norm": 3.22105664806, 
			 "electric_quadrupole_moment_norm": 6.2436080114, 
			 "total_energy": -1650.33738204, 
			 "HOMO_LUMO_gap": 0.21106, 
			 "cosmo_polarized_energy": -6.14, 
			 "cosmo_cavitation_energy": 24.07, 
			 "cosmo_dispersion_energy": -17.94, 
			 "cosmo_repulsion_energy": 1.45, 
			 "cosmo_total_nonelectrostatic_energy": 7.59, 
			 "SMD_solvation_energy": 3.25 
		},
		"coords": [
			{
				"x": -1.3469697959,
				"y": -2.9021260945,
				"z": 1.6588578435,
				"element": "Cl" 
			},
			{
				"x": -0.4978325287,
				"y": -1.4799085728,
				"z": 2.4367751509,
				"element": "C" 
			},
			{
				"x": -0.5639721309,
				"y": -0.2508405799,
				"z": 1.5823902461,
				"element": "C" 
			},
			{
				"x": 0.4238592332,
				"y": 0.0437057628,
				"z": 0.6236719656,
				"element": "C" 
			},
			{
				"x": 1.7793756562,
				"y": -1.050631497,
				"z": 0.3901223425,
				"element": "Cl" 
			},
			{
				"x": 0.3795799546,
				"y": 1.1884157577,
				"z": -0.1693959345,
				"element": "C" 
			},
			{
				"x": -0.6800555053,
				"y": 2.0797893501,
				"z": -0.0198829416,
				"element": "C" 
			},
			{
				"x": -1.6837346732,
				"y": 1.829587684,
				"z": 0.9127251425,
				"element": "C" 
			},
			{
				"x": -1.6162378859,
				"y": 0.6776220931,
				"z": 1.6935614287,
				"element": "C" 
			},
			{
				"x": -2.911756902,
				"y": 0.407022829,
				"z": 2.8502702097,
				"element": "Cl" 
			},
			{
				"x": -0.9931859315,
				"y": -1.3273411988,
				"z": 3.3927219588,
				"element": "H" 
			},
			{
				"x": 0.5292813187,
				"y": -1.800055744,
				"z": 2.5949344666,
				"element": "H" 
			},
			{
				"x": 1.1662271115,
				"y": 1.3706278931,
				"z": -0.8921179571,
				"element": "H" 
			},
			{
				"x": -0.7240620812,
				"y": 2.9739777572,
				"z": -0.6336091616,
				"element": "H" 
			},
			{
				"x": -2.5142158395,
				"y": 2.5143545598,
				"z": 1.0381752399,
				"element": "H" 
			}
		],
		 "valence_orbital": [ 
			{
				"type": "occ",
				"energy": -0.3235,
				"method": "rhf"
			},
			{
				"type": "occ",
				"energy": -0.29978,
				"method": "rhf"
			},
			{
				"type": "occ",
				"energy": -0.29497,
				"method": "rhf"
			},
			{
				"type": "occ",
				"energy": -0.26949,
				"method": "rhf"
			},
			{
				"type": "occ",
				"energy": -0.26,
				"method": "rhf"
			},
			{
				"type": "unocc",
				"energy": -0.04894,
				"method": "rhf"
			},
			{
				"type": "unocc",
				"energy": -0.03273,
				"method": "rhf"
			},
			{
				"type": "unocc",
				"energy": -0.00239,
				"method": "rhf"
			},
			{
				"type": "unocc",
				"energy": 0.03491,
				"method": "rhf"
			},
			{
				"type": "unocc",
				"energy": 0.04248,
				"method": "rhf"
			}
		],
		"cosmo_sigma_profile": { 
			"-0.025": 0.0,
			"-0.024": 0.0,
			"-0.023": 0.0,
			"-0.022": 0.0,
			"-0.021": 0.0,
			"-0.02": 0.0,
			"-0.019": 0.0,
			"-0.018": 0.0,
			"-0.017": 0.0,
			"-0.016": 0.0,
			"-0.015": 0.0,
			"-0.014": 0.0,
			"-0.013": 0.0,
			"-0.012": 0.0,
			"-0.011": 0.0,
			"-0.01": 0.0,
			"-0.009": 0.0415225607787,
			"-0.008": 4.37904518436,
			"-0.007": 9.90115175626,
			"-0.006": 10.555137503,
			"-0.005": 10.4010942492,
			"-0.004": 8.35271213056,
			"-0.003": 8.65362708238,
			"-0.002": 10.604306054,
			"-0.001": 12.4823835629,
			"0.0": 18.7260293307,
			"0.001": 27.0145051041,
			"0.002": 23.056939909,
			"0.003": 17.371287726,
			"0.004": 18.0025889218,
			"0.005": 8.79375144124,
			"0.006": 9.97031959511,
			"0.007": 1.67177835757,
			"0.008": 0.0,
			"0.009": 0.0,
			"0.01": 0.0,
			"0.011": 0.0,
			"0.012": 0.0,
			"0.013": 0.0,
			"0.014": 0.0,
			"0.015": 0.0,
			"0.016": 0.0,
			"0.017": 0.0,
			"0.018": 0.0,
			"0.019": 0.0,
			"0.02": 0.0,
			"0.021": 0.0,
			"0.022": 0.0,
			"0.023": 0.0,
			"0.024": 0.0,
			"0.025": 0.0
		}
	}
}
