{
	 "smiles": "ClC1=NN=C(S1)C1=C(Cl)C=CC=C1", 
	 "Tm": 367.15, 
	 "num_atms": 17, 
	 "gaussian": { 
		 "optdone": 1, 
		 "sigma_profile": "yes", 
		 "theory": "DFT", 
		 "functional": "B3LYP", 
		 "basiset": "6-31G**", 
		 "properties": { 
			 "R2extent": 4388.3777, 
			 "electric_dipole_moment_norm": 3.5786866306, 
			 "electric_quadrupole_moment_norm": 8.9425434676, 
			 "total_energy": -1735.29468111, 
			 "HOMO_LUMO_gap": 0.17446, 
			 "cosmo_polarized_energy": -7.16, 
			 "cosmo_cavitation_energy": 26.87, 
			 "cosmo_dispersion_energy": -21.06, 
			 "cosmo_repulsion_energy": 1.6, 
			 "cosmo_total_nonelectrostatic_energy": 7.41, 
			 "SMD_solvation_energy": 2.19 
		},
		"coords": [
			{
				"x": -0.8067042235,
				"y": 4.5465061381,
				"z": 1.4228635105,
				"element": "Cl" 
			},
			{
				"x": -0.6829763254,
				"y": 2.9666592235,
				"z": 0.7463669258,
				"element": "C" 
			},
			{
				"x": -0.1751948965,
				"y": 2.7369818402,
				"z": -0.4254029714,
				"element": "N" 
			},
			{
				"x": -0.1915978013,
				"y": 1.4123859329,
				"z": -0.7297770062,
				"element": "N" 
			},
			{
				"x": -0.7067679618,
				"y": 0.6403056267,
				"z": 0.2006536167,
				"element": "C" 
			},
			{
				"x": -1.2421989676,
				"y": 1.5565498094,
				"z": 1.6096531622,
				"element": "S" 
			},
			{
				"x": -0.7861490455,
				"y": -0.8188872688,
				"z": -0.0000987017,
				"element": "C" 
			},
			{
				"x": -1.3089759122,
				"y": -1.7655409537,
				"z": 0.9010649966,
				"element": "C" 
			},
			{
				"x": -1.9697475391,
				"y": -1.3054632488,
				"z": 2.4655083335,
				"element": "Cl" 
			},
			{
				"x": -1.3309601066,
				"y": -3.1286428904,
				"z": 0.5990943568,
				"element": "C" 
			},
			{
				"x": -0.8288317798,
				"y": -3.581857761,
				"z": -0.6162124665,
				"element": "C" 
			},
			{
				"x": -0.3032856986,
				"y": -2.6661253845,
				"z": -1.5311693459,
				"element": "C" 
			},
			{
				"x": -0.2843954906,
				"y": -1.3134893143,
				"z": -1.2252076326,
				"element": "C" 
			},
			{
				"x": -1.7433891114,
				"y": -3.8212632463,
				"z": 1.3238842763,
				"element": "H" 
			},
			{
				"x": -0.8493957577,
				"y": -4.6430991212,
				"z": -0.8438011755,
				"element": "H" 
			},
			{
				"x": 0.0918078616,
				"y": -3.0061089866,
				"z": -2.4831433075,
				"element": "H" 
			},
			{
				"x": 0.1199627559,
				"y": -0.5921103952,
				"z": -1.9249765712,
				"element": "H" 
			}
		],
		 "valence_orbital": [ 
			{
				"type": "occ",
				"energy": -0.31661,
				"method": "rhf"
			},
			{
				"type": "occ",
				"energy": -0.3016,
				"method": "rhf"
			},
			{
				"type": "occ",
				"energy": -0.27613,
				"method": "rhf"
			},
			{
				"type": "occ",
				"energy": -0.26706,
				"method": "rhf"
			},
			{
				"type": "occ",
				"energy": -0.25081,
				"method": "rhf"
			},
			{
				"type": "unocc",
				"energy": -0.07635,
				"method": "rhf"
			},
			{
				"type": "unocc",
				"energy": -0.02843,
				"method": "rhf"
			},
			{
				"type": "unocc",
				"energy": -0.01525,
				"method": "rhf"
			},
			{
				"type": "unocc",
				"energy": -0.00636,
				"method": "rhf"
			},
			{
				"type": "unocc",
				"energy": 0.00781,
				"method": "rhf"
			}
		],
		"cosmo_sigma_profile": { 
			"-0.025": 0.0,
			"-0.024": 0.0,
			"-0.023": 0.0,
			"-0.022": 0.0,
			"-0.021": 0.0,
			"-0.02": 0.0,
			"-0.019": 0.0,
			"-0.018": 0.0,
			"-0.017": 0.0,
			"-0.016": 0.0,
			"-0.015": 0.0,
			"-0.014": 0.0,
			"-0.013": 0.0,
			"-0.012": 0.0,
			"-0.011": 0.0,
			"-0.01": 0.0,
			"-0.009": 0.0,
			"-0.008": 1.63415608749,
			"-0.007": 6.11650332896,
			"-0.006": 8.49629452591,
			"-0.005": 10.2064808848,
			"-0.004": 15.9710077756,
			"-0.003": 18.1849880185,
			"-0.002": 17.7299897019,
			"-0.001": 21.316214318,
			"0.0": 24.5479463917,
			"0.001": 29.1307706919,
			"0.002": 27.8275512367,
			"0.003": 17.6783151288,
			"0.004": 5.37228028816,
			"0.005": 2.65148473798,
			"0.006": 2.0443364065,
			"0.007": 2.31309849775,
			"0.008": 2.33799001151,
			"0.009": 3.11664218904,
			"0.01": 3.05158727366,
			"0.011": 2.50957961355,
			"0.012": 1.00166265929,
			"0.013": 1.02442476531,
			"0.014": 0.0,
			"0.015": 0.0,
			"0.016": 0.0,
			"0.017": 0.0,
			"0.018": 0.0,
			"0.019": 0.0,
			"0.02": 0.0,
			"0.021": 0.0,
			"0.022": 0.0,
			"0.023": 0.0,
			"0.024": 0.0,
			"0.025": 0.0
		}
	}
}
