{
	 "smiles": "CCCCCCCCOC(=O)CCCCCC", 
	 "Tm": 250.65, 
	 "num_atms": 47, 
	 "gaussian": { 
		 "optdone": 1, 
		 "sigma_profile": "yes", 
		 "theory": "DFT", 
		 "functional": "B3LYP", 
		 "basiset": "6-31G**", 
		 "properties": { 
			 "R2extent": 8526.7987, 
			 "electric_dipole_moment_norm": 1.75513947594, 
			 "electric_quadrupole_moment_norm": 8.64869878999, 
			 "total_energy": -740.176501142, 
			 "HOMO_LUMO_gap": 0.28322, 
			 "cosmo_polarized_energy": -6.62, 
			 "cosmo_cavitation_energy": 47.08, 
			 "cosmo_dispersion_energy": -31.1, 
			 "cosmo_repulsion_energy": 2.54, 
			 "cosmo_total_nonelectrostatic_energy": 18.52, 
			 "SMD_solvation_energy": 7.56 
		},
		"coords": [
			{
				"x": 1.6561237517,
				"y": 3.8386840492,
				"z": -1.475946021,
				"element": "C" 
			},
			{
				"x": 1.8156964147,
				"y": 3.4919713066,
				"z": 0.0086082219,
				"element": "C" 
			},
			{
				"x": 1.2672011071,
				"y": 4.588033512,
				"z": 0.9329648065,
				"element": "C" 
			},
			{
				"x": 1.4731638382,
				"y": 4.3710759585,
				"z": 2.4431057572,
				"element": "C" 
			},
			{
				"x": 0.7753607738,
				"y": 3.1287364675,
				"z": 3.0415297284,
				"element": "C" 
			},
			{
				"x": 1.6532803523,
				"y": 1.8675181767,
				"z": 3.0925170513,
				"element": "C" 
			},
			{
				"x": 0.9425752655,
				"y": 0.6186153243,
				"z": 3.6397437737,
				"element": "C" 
			},
			{
				"x": -0.1768315056,
				"y": 0.078998927,
				"z": 2.7593042653,
				"element": "C" 
			},
			{
				"x": 0.3950837482,
				"y": -0.277415692,
				"z": 1.4785615049,
				"element": "O" 
			},
			{
				"x": -0.4599711891,
				"y": -0.8119211588,
				"z": 0.5755982629,
				"element": "C" 
			},
			{
				"x": -1.6379954852,
				"y": -0.9940807848,
				"z": 0.79789118,
				"element": "O" 
			},
			{
				"x": 0.2553929433,
				"y": -1.1379556912,
				"z": -0.7211681575,
				"element": "C" 
			},
			{
				"x": -0.6455994262,
				"y": -1.8239043422,
				"z": -1.7497069603,
				"element": "C" 
			},
			{
				"x": 0.0849987134,
				"y": -2.1105282032,
				"z": -3.0699537356,
				"element": "C" 
			},
			{
				"x": -0.7753811683,
				"y": -2.7977072773,
				"z": -4.153699793,
				"element": "C" 
			},
			{
				"x": -0.7306283564,
				"y": -4.3364157969,
				"z": -4.1754381782,
				"element": "C" 
			},
			{
				"x": -1.2783252431,
				"y": -5.0413710003,
				"z": -2.9291303365,
				"element": "C" 
			},
			{
				"x": 2.0507765291,
				"y": 3.044809076,
				"z": -2.1189177105,
				"element": "H" 
			},
			{
				"x": 2.1877317404,
				"y": 4.763927646,
				"z": -1.726461055,
				"element": "H" 
			},
			{
				"x": 0.6016611508,
				"y": 3.9848034282,
				"z": -1.7374614368,
				"element": "H" 
			},
			{
				"x": 2.8782211268,
				"y": 3.3244829065,
				"z": 0.2329455631,
				"element": "H" 
			},
			{
				"x": 1.3068188064,
				"y": 2.5417823938,
				"z": 0.2126593244,
				"element": "H" 
			},
			{
				"x": 0.1921303342,
				"y": 4.7120992243,
				"z": 0.7368700746,
				"element": "H" 
			},
			{
				"x": 1.7335392707,
				"y": 5.5438025347,
				"z": 0.6553690126,
				"element": "H" 
			},
			{
				"x": 2.5491645396,
				"y": 4.3264728002,
				"z": 2.6639040459,
				"element": "H" 
			},
			{
				"x": 1.1018813176,
				"y": 5.2665928848,
				"z": 2.9565972814,
				"element": "H" 
			},
			{
				"x": -0.1442276014,
				"y": 2.9315543973,
				"z": 2.4740783479,
				"element": "H" 
			},
			{
				"x": 0.4490895008,
				"y": 3.3555439861,
				"z": 4.0654493946,
				"element": "H" 
			},
			{
				"x": 2.5237105273,
				"y": 2.0767643303,
				"z": 3.7280444515,
				"element": "H" 
			},
			{
				"x": 2.0508894197,
				"y": 1.6371616481,
				"z": 2.0993579174,
				"element": "H" 
			},
			{
				"x": 1.6781272477,
				"y": -0.1805580112,
				"z": 3.7919473352,
				"element": "H" 
			},
			{
				"x": 0.5084555097,
				"y": 0.8347997191,
				"z": 4.6255515409,
				"element": "H" 
			},
			{
				"x": -0.9732704982,
				"y": 0.8117000153,
				"z": 2.5968038742,
				"element": "H" 
			},
			{
				"x": -0.6389211255,
				"y": -0.8101777414,
				"z": 3.1996500223,
				"element": "H" 
			},
			{
				"x": 0.6667919699,
				"y": -0.2006159303,
				"z": -1.1194661537,
				"element": "H" 
			},
			{
				"x": 1.1284363749,
				"y": -1.7567921876,
				"z": -0.4776453147,
				"element": "H" 
			},
			{
				"x": -1.5162285634,
				"y": -1.1863507734,
				"z": -1.9431019006,
				"element": "H" 
			},
			{
				"x": -1.0455392968,
				"y": -2.7451670458,
				"z": -1.3154303871,
				"element": "H" 
			},
			{
				"x": 0.4577923335,
				"y": -1.155703398,
				"z": -3.4647906632,
				"element": "H" 
			},
			{
				"x": 0.9804300078,
				"y": -2.7188930116,
				"z": -2.8754173187,
				"element": "H" 
			},
			{
				"x": -1.8178662881,
				"y": -2.4636014303,
				"z": -4.0548004016,
				"element": "H" 
			},
			{
				"x": -0.4428747278,
				"y": -2.4470565303,
				"z": -5.138717826,
				"element": "H" 
			},
			{
				"x": 0.3071069717,
				"y": -4.6566095076,
				"z": -4.3435857944,
				"element": "H" 
			},
			{
				"x": -1.2956543857,
				"y": -4.6803953752,
				"z": -5.0516914758,
				"element": "H" 
			},
			{
				"x": -0.6712581772,
				"y": -4.8351589119,
				"z": -2.0419746098,
				"element": "H" 
			},
			{
				"x": -1.2887529803,
				"y": -6.1276069356,
				"z": -3.0696109905,
				"element": "H" 
			},
			{
				"x": -2.3047055686,
				"y": -4.7252439755,
				"z": -2.7102365178,
				"element": "H" 
			}
		],
		 "valence_orbital": [ 
			{
				"type": "occ",
				"energy": -0.30711,
				"method": "rhf"
			},
			{
				"type": "occ",
				"energy": -0.30594,
				"method": "rhf"
			},
			{
				"type": "occ",
				"energy": -0.30492,
				"method": "rhf"
			},
			{
				"type": "occ",
				"energy": -0.29229,
				"method": "rhf"
			},
			{
				"type": "occ",
				"energy": -0.26524,
				"method": "rhf"
			},
			{
				"type": "unocc",
				"energy": 0.01798,
				"method": "rhf"
			},
			{
				"type": "unocc",
				"energy": 0.07339,
				"method": "rhf"
			},
			{
				"type": "unocc",
				"energy": 0.08591,
				"method": "rhf"
			},
			{
				"type": "unocc",
				"energy": 0.09696,
				"method": "rhf"
			},
			{
				"type": "unocc",
				"energy": 0.10139,
				"method": "rhf"
			}
		],
		"cosmo_sigma_profile": { 
			"-0.025": 0.0,
			"-0.024": 0.0,
			"-0.023": 0.0,
			"-0.022": 0.0,
			"-0.021": 0.0,
			"-0.02": 0.0,
			"-0.019": 0.0,
			"-0.018": 0.0,
			"-0.017": 0.0,
			"-0.016": 0.0,
			"-0.015": 0.0,
			"-0.014": 0.0,
			"-0.013": 0.0,
			"-0.012": 0.0,
			"-0.011": 0.0,
			"-0.01": 0.0,
			"-0.009": 0.0,
			"-0.008": 0.0,
			"-0.007": 0.0,
			"-0.006": 0.136854385352,
			"-0.005": 4.48928039138,
			"-0.004": 14.0737659819,
			"-0.003": 25.4658210592,
			"-0.002": 56.3889940491,
			"-0.001": 73.5244782431,
			"0.0": 73.5084237997,
			"0.001": 57.7610289431,
			"0.002": 24.7685749913,
			"0.003": 5.3018904196,
			"0.004": 2.81762090383,
			"0.005": 3.31818837012,
			"0.006": 2.41964253717,
			"0.007": 2.50749024571,
			"0.008": 2.43268983154,
			"0.009": 1.55578648718,
			"0.01": 2.18755619318,
			"0.011": 2.34709637287,
			"0.012": 4.20328282489,
			"0.013": 2.31674320177,
			"0.014": 0.042840530001,
			"0.015": 0.0,
			"0.016": 0.0,
			"0.017": 0.0,
			"0.018": 0.0,
			"0.019": 0.0,
			"0.02": 0.0,
			"0.021": 0.0,
			"0.022": 0.0,
			"0.023": 0.0,
			"0.024": 0.0,
			"0.025": 0.0
		}
	}
}
