{
	 "smiles": "CC(C)OC(=O)C1=CC(O)=NC=C1", 
	 "Tm": 419.15, 
	 "num_atms": 24, 
	 "gaussian": { 
		 "optdone": 1, 
		 "sigma_profile": "yes", 
		 "theory": "DFT", 
		 "functional": "B3LYP", 
		 "basiset": "6-31G**", 
		 "properties": { 
			 "R2extent": 4504.6216, 
			 "electric_dipole_moment_norm": 1.42339094068, 
			 "electric_quadrupole_moment_norm": 5.61257821237, 
			 "total_energy": -630.038686406, 
			 "HOMO_LUMO_gap": 0.18066, 
			 "cosmo_polarized_energy": -9.37, 
			 "cosmo_cavitation_energy": 28.43, 
			 "cosmo_dispersion_energy": -20.46, 
			 "cosmo_repulsion_energy": 1.64, 
			 "cosmo_total_nonelectrostatic_energy": 9.61, 
			 "SMD_solvation_energy": 5.15 
		},
		"coords": [
			{
				"x": 1.0169508723,
				"y": -1.4216003795,
				"z": 0.1657777842,
				"element": "C" 
			},
			{
				"x": 0.6884982116,
				"y": -0.3547260712,
				"z": -0.8733036765,
				"element": "C" 
			},
			{
				"x": 0.0353810284,
				"y": -0.9068955643,
				"z": -2.1319940712,
				"element": "C" 
			},
			{
				"x": -0.2702491886,
				"y": 0.5912713998,
				"z": -0.3082888992,
				"element": "O" 
			},
			{
				"x": 0.2222305459,
				"y": 1.5925472025,
				"z": 0.4448114305,
				"element": "C" 
			},
			{
				"x": 1.4034064865,
				"y": 1.7553079616,
				"z": 0.683302857,
				"element": "O" 
			},
			{
				"x": -0.8556597708,
				"y": 2.4981252464,
				"z": 0.9597712142,
				"element": "C" 
			},
			{
				"x": -2.2016398922,
				"y": 2.2885969034,
				"z": 0.6769978599,
				"element": "C" 
			},
			{
				"x": -3.1226431873,
				"y": 3.2010324449,
				"z": 1.2137810867,
				"element": "C" 
			},
			{
				"x": -4.4367456266,
				"y": 3.018551432,
				"z": 0.9530860381,
				"element": "O" 
			},
			{
				"x": -2.786614289,
				"y": 4.2435013606,
				"z": 1.9690191911,
				"element": "N" 
			},
			{
				"x": -1.481753635,
				"y": 4.4271969854,
				"z": 2.2296438868,
				"element": "C" 
			},
			{
				"x": -0.4795365575,
				"y": 3.5919035761,
				"z": 1.7550917816,
				"element": "C" 
			},
			{
				"x": 1.4786366029,
				"y": -0.9707781265,
				"z": 1.0471703228,
				"element": "H" 
			},
			{
				"x": 1.7196053806,
				"y": -2.1486444098,
				"z": -0.2540397424,
				"element": "H" 
			},
			{
				"x": 0.1107336894,
				"y": -1.9548204141,
				"z": 0.4706530402,
				"element": "H" 
			},
			{
				"x": 1.5922227564,
				"y": 0.2100289882,
				"z": -1.1193505043,
				"element": "H" 
			},
			{
				"x": -0.8896581827,
				"y": -1.4394654511,
				"z": -1.889110775,
				"element": "H" 
			},
			{
				"x": 0.7143190625,
				"y": -1.6069332637,
				"z": -2.6284697463,
				"element": "H" 
			},
			{
				"x": -0.202950521,
				"y": -0.1020877169,
				"z": -2.8328257763,
				"element": "H" 
			},
			{
				"x": -2.5376996017,
				"y": 1.4591300004,
				"z": 0.0691142866,
				"element": "H" 
			},
			{
				"x": -4.900437396,
				"y": 3.7413795944,
				"z": 1.4053037327,
				"element": "H" 
			},
			{
				"x": -1.2391475762,
				"y": 5.2875762252,
				"z": 2.8493863144,
				"element": "H" 
			},
			{
				"x": 0.5656507883,
				"y": 3.7634020761,
				"z": 1.9809723643,
				"element": "H" 
			}
		],
		 "valence_orbital": [ 
			{
				"type": "occ",
				"energy": -0.30309,
				"method": "rhf"
			},
			{
				"type": "occ",
				"energy": -0.29121,
				"method": "rhf"
			},
			{
				"type": "occ",
				"energy": -0.28165,
				"method": "rhf"
			},
			{
				"type": "occ",
				"energy": -0.27524,
				"method": "rhf"
			},
			{
				"type": "occ",
				"energy": -0.24073,
				"method": "rhf"
			},
			{
				"type": "unocc",
				"energy": -0.06007,
				"method": "rhf"
			},
			{
				"type": "unocc",
				"energy": -0.00477,
				"method": "rhf"
			},
			{
				"type": "unocc",
				"energy": 0.05324,
				"method": "rhf"
			},
			{
				"type": "unocc",
				"energy": 0.08919,
				"method": "rhf"
			},
			{
				"type": "unocc",
				"energy": 0.09004,
				"method": "rhf"
			}
		],
		"cosmo_sigma_profile": { 
			"-0.025": 0.0,
			"-0.024": 0.0,
			"-0.023": 0.0,
			"-0.022": 0.0,
			"-0.021": 0.0,
			"-0.02": 0.0,
			"-0.019": 0.0,
			"-0.018": 0.0166269878924,
			"-0.017": 0.544389239786,
			"-0.016": 1.12975430131,
			"-0.015": 0.493100600198,
			"-0.014": 0.492500867364,
			"-0.013": 0.737713776892,
			"-0.012": 0.703481777198,
			"-0.011": 0.789139509682,
			"-0.01": 0.641408023765,
			"-0.009": 0.46098536594,
			"-0.008": 0.584067198373,
			"-0.007": 3.24439308824,
			"-0.006": 5.76211981596,
			"-0.005": 8.56704054483,
			"-0.004": 19.8594482227,
			"-0.003": 21.0267649686,
			"-0.002": 19.9925050443,
			"-0.001": 22.8214218863,
			"0.0": 31.8631361248,
			"0.001": 23.4913968888,
			"0.002": 13.7222216866,
			"0.003": 7.22569248209,
			"0.004": 7.09179352726,
			"0.005": 4.63911117674,
			"0.006": 4.10663877543,
			"0.007": 3.94140573103,
			"0.008": 3.8148144172,
			"0.009": 4.94750371556,
			"0.01": 4.22517252774,
			"0.011": 5.17260724322,
			"0.012": 2.20133287687,
			"0.013": 0.657183869161,
			"0.014": 0.284926518201,
			"0.015": 0.0,
			"0.016": 0.0,
			"0.017": 0.0,
			"0.018": 0.0,
			"0.019": 0.0,
			"0.02": 0.0,
			"0.021": 0.0,
			"0.022": 0.0,
			"0.023": 0.0,
			"0.024": 0.0,
			"0.025": 0.0
		}
	}
}
