{
	 "smiles": "CC(O)C1=CN(N=N1)C1=CC=CC=C1", 
	 "Tm": 349.15, 
	 "num_atms": 25, 
	 "gaussian": { 
		 "optdone": 1, 
		 "sigma_profile": "yes", 
		 "theory": "DFT", 
		 "functional": "B3LYP", 
		 "basiset": "6-31G**", 
		 "properties": { 
			 "R2extent": 4040.9857, 
			 "electric_dipole_moment_norm": 4.74236821219, 
			 "electric_quadrupole_moment_norm": 11.7512121498, 
			 "total_energy": -627.128095013, 
			 "HOMO_LUMO_gap": 0.20228, 
			 "cosmo_polarized_energy": -13.24, 
			 "cosmo_cavitation_energy": 29.24, 
			 "cosmo_dispersion_energy": -21.42, 
			 "cosmo_repulsion_energy": 1.69, 
			 "cosmo_total_nonelectrostatic_energy": 9.5, 
			 "SMD_solvation_energy": 4.04 
		},
		"coords": [
			{
				"x": 2.3164046066,
				"y": 4.0564159468,
				"z": -0.3578650634,
				"element": "C" 
			},
			{
				"x": 2.3613350407,
				"y": 3.2067111839,
				"z": 0.9210470916,
				"element": "C" 
			},
			{
				"x": 3.7003571109,
				"y": 2.8744067435,
				"z": 1.2643311515,
				"element": "O" 
			},
			{
				"x": 1.5346069055,
				"y": 1.9529693101,
				"z": 0.7822422699,
				"element": "C" 
			},
			{
				"x": 0.2452994398,
				"y": 1.6442800294,
				"z": 1.1476547954,
				"element": "C" 
			},
			{
				"x": 0.0713248573,
				"y": 0.3527553031,
				"z": 0.7388864935,
				"element": "N" 
			},
			{
				"x": 1.2041602287,
				"y": -0.1121767234,
				"z": 0.153426743,
				"element": "N" 
			},
			{
				"x": 2.0772436565,
				"y": 0.8527792514,
				"z": 0.1803022188,
				"element": "N" 
			},
			{
				"x": -1.0720565902,
				"y": -0.484618535,
				"z": 0.8687714186,
				"element": "C" 
			},
			{
				"x": -2.3486361366,
				"y": 0.0804797481,
				"z": 0.9405692306,
				"element": "C" 
			},
			{
				"x": -3.4589568486,
				"y": -0.7513580614,
				"z": 1.0830465787,
				"element": "C" 
			},
			{
				"x": -3.3005291526,
				"y": -2.1369004977,
				"z": 1.1360356867,
				"element": "C" 
			},
			{
				"x": -2.0210661392,
				"y": -2.6907143038,
				"z": 1.0481117758,
				"element": "C" 
			},
			{
				"x": -0.9012001661,
				"y": -1.8717324528,
				"z": 0.920944512,
				"element": "C" 
			},
			{
				"x": 2.6792278604,
				"y": 3.4734171499,
				"z": -1.2105240205,
				"element": "H" 
			},
			{
				"x": 2.956688756,
				"y": 4.9346368518,
				"z": -0.2370762267,
				"element": "H" 
			},
			{
				"x": 1.296606156,
				"y": 4.3894441352,
				"z": -0.5802097027,
				"element": "H" 
			},
			{
				"x": 1.9702375038,
				"y": 3.8004590094,
				"z": 1.7562965298,
				"element": "H" 
			},
			{
				"x": 3.9287469446,
				"y": 2.0886548217,
				"z": 0.7450132875,
				"element": "H" 
			},
			{
				"x": -0.5153661931,
				"y": 2.1981971384,
				"z": 1.6729138228,
				"element": "H" 
			},
			{
				"x": -2.4776494003,
				"y": 1.155052493,
				"z": 0.8650753045,
				"element": "H" 
			},
			{
				"x": -4.4501522272,
				"y": -0.3118441365,
				"z": 1.1397622922,
				"element": "H" 
			},
			{
				"x": -4.168037603,
				"y": -2.7809301296,
				"z": 1.2418963011,
				"element": "H" 
			},
			{
				"x": -1.8898488469,
				"y": -3.7678090739,
				"z": 1.0876310942,
				"element": "H" 
			},
			{
				"x": 0.0981602373,
				"y": -2.2848752016,
				"z": 0.859116415,
				"element": "H" 
			}
		],
		 "valence_orbital": [ 
			{
				"type": "occ",
				"energy": -0.27645,
				"method": "rhf"
			},
			{
				"type": "occ",
				"energy": -0.27017,
				"method": "rhf"
			},
			{
				"type": "occ",
				"energy": -0.26741,
				"method": "rhf"
			},
			{
				"type": "occ",
				"energy": -0.26112,
				"method": "rhf"
			},
			{
				"type": "occ",
				"energy": -0.24477,
				"method": "rhf"
			},
			{
				"type": "unocc",
				"energy": -0.04249,
				"method": "rhf"
			},
			{
				"type": "unocc",
				"energy": -0.02063,
				"method": "rhf"
			},
			{
				"type": "unocc",
				"energy": 0.01644,
				"method": "rhf"
			},
			{
				"type": "unocc",
				"energy": 0.04156,
				"method": "rhf"
			},
			{
				"type": "unocc",
				"energy": 0.07669,
				"method": "rhf"
			}
		],
		"cosmo_sigma_profile": { 
			"-0.025": 0.0,
			"-0.024": 0.0,
			"-0.023": 0.0,
			"-0.022": 0.0,
			"-0.021": 0.0,
			"-0.02": 0.0,
			"-0.019": 0.0,
			"-0.018": 0.0,
			"-0.017": 0.0,
			"-0.016": 0.0,
			"-0.015": 0.0,
			"-0.014": 0.0,
			"-0.013": 0.0,
			"-0.012": 0.0976658682778,
			"-0.011": 1.47875147574,
			"-0.01": 3.05630137002,
			"-0.009": 3.4755235419,
			"-0.008": 3.36946519616,
			"-0.007": 5.47972170035,
			"-0.006": 13.6053699814,
			"-0.005": 16.3407767284,
			"-0.004": 16.5991460421,
			"-0.003": 16.3247798725,
			"-0.002": 17.8290478816,
			"-0.001": 19.5315129403,
			"0.0": 19.0921808236,
			"0.001": 19.7689245528,
			"0.002": 12.7465087418,
			"0.003": 14.2637965346,
			"0.004": 13.7898085245,
			"0.005": 5.36023848769,
			"0.006": 2.84012919001,
			"0.007": 3.31846793125,
			"0.008": 3.56294967249,
			"0.009": 3.99974077839,
			"0.01": 4.54245215761,
			"0.011": 3.6723861989,
			"0.012": 3.64167495354,
			"0.013": 2.71216808012,
			"0.014": 2.29434485603,
			"0.015": 0.286244281894,
			"0.016": 0.0,
			"0.017": 0.0,
			"0.018": 0.0,
			"0.019": 0.0,
			"0.02": 0.0,
			"0.021": 0.0,
			"0.022": 0.0,
			"0.023": 0.0,
			"0.024": 0.0,
			"0.025": 0.0
		}
	}
}
