{
	 "smiles": "O=C(CC1CC1)NC1=CC(=CC=C1)C#N", 
	 "Tm": 363.15, 
	 "num_atms": 27, 
	 "gaussian": { 
		 "optdone": 1, 
		 "sigma_profile": "yes", 
		 "theory": "DFT", 
		 "functional": "B3LYP", 
		 "basiset": "6-31G**", 
		 "properties": { 
			 "R2extent": 5018.8012, 
			 "electric_dipole_moment_norm": 7.7610925249, 
			 "electric_quadrupole_moment_norm": 27.0595035937, 
			 "total_energy": -649.209340434, 
			 "HOMO_LUMO_gap": 0.18994, 
			 "cosmo_polarized_energy": -18.46, 
			 "cosmo_cavitation_energy": 32.47, 
			 "cosmo_dispersion_energy": -22.58, 
			 "cosmo_repulsion_energy": 1.78, 
			 "cosmo_total_nonelectrostatic_energy": 11.67, 
			 "SMD_solvation_energy": 6.87 
		},
		"coords": [
			{
				"x": -0.9831903133,
				"y": -0.69984946,
				"z": -0.2281189003,
				"element": "O" 
			},
			{
				"x": -0.1003478615,
				"y": -0.198747279,
				"z": 0.4519189787,
				"element": "C" 
			},
			{
				"x": -0.3878100885,
				"y": 0.4513438001,
				"z": 1.8031318273,
				"element": "C" 
			},
			{
				"x": -0.7920874918,
				"y": 1.9111103732,
				"z": 1.6433269607,
				"element": "C" 
			},
			{
				"x": -2.1668135522,
				"y": 2.2495952211,
				"z": 1.1238819797,
				"element": "C" 
			},
			{
				"x": -1.8221556953,
				"y": 2.5134908865,
				"z": 2.5693792944,
				"element": "C" 
			},
			{
				"x": 1.2249333068,
				"y": -0.12685171,
				"z": 0.0595615798,
				"element": "N" 
			},
			{
				"x": 1.8151122447,
				"y": -0.5637978774,
				"z": -1.1403687444,
				"element": "C" 
			},
			{
				"x": 1.0867497533,
				"y": -1.1707026712,
				"z": -2.1728967527,
				"element": "C" 
			},
			{
				"x": 1.7595472836,
				"y": -1.574704273,
				"z": -3.3363338915,
				"element": "C" 
			},
			{
				"x": 3.1422058167,
				"y": -1.3840982073,
				"z": -3.4860123814,
				"element": "C" 
			},
			{
				"x": 3.8519037485,
				"y": -0.7801095289,
				"z": -2.4513177816,
				"element": "C" 
			},
			{
				"x": 3.1995815714,
				"y": -0.3737712632,
				"z": -1.2909803443,
				"element": "C" 
			},
			{
				"x": 1.0148949049,
				"y": -2.1963106408,
				"z": -4.3955180215,
				"element": "C" 
			},
			{
				"x": 0.423685368,
				"y": -2.7005657511,
				"z": -5.2609303493,
				"element": "N" 
			},
			{
				"x": -1.2131416457,
				"y": -0.1138395988,
				"z": 2.2448746209,
				"element": "H" 
			},
			{
				"x": 0.4721940111,
				"y": 0.3654130759,
				"z": 2.4805109596,
				"element": "H" 
			},
			{
				"x": 0.0154058543,
				"y": 2.5707032616,
				"z": 1.3301532252,
				"element": "H" 
			},
			{
				"x": -2.2674743186,
				"y": 3.0977369786,
				"z": 0.4539165109,
				"element": "H" 
			},
			{
				"x": -2.8286132103,
				"y": 1.4204461496,
				"z": 0.8940285327,
				"element": "H" 
			},
			{
				"x": -2.2620318079,
				"y": 1.8691880604,
				"z": 3.3256588498,
				"element": "H" 
			},
			{
				"x": -1.6842694876,
				"y": 3.5417491382,
				"z": 2.8897312896,
				"element": "H" 
			},
			{
				"x": 1.8606450598,
				"y": 0.2992831267,
				"z": 0.7184762556,
				"element": "H" 
			},
			{
				"x": 0.0227232457,
				"y": -1.3214196126,
				"z": -2.0633726046,
				"element": "H" 
			},
			{
				"x": 3.6394649113,
				"y": -1.7050421857,
				"z": -4.3942832484,
				"element": "H" 
			},
			{
				"x": 4.9217666164,
				"y": -0.6235308585,
				"z": -2.5468498182,
				"element": "H" 
			},
			{
				"x": 3.7666217763,
				"y": 0.0965808458,
				"z": -0.4908680267,
				"element": "H" 
			}
		],
		 "valence_orbital": [ 
			{
				"type": "occ",
				"energy": -0.30663,
				"method": "rhf"
			},
			{
				"type": "occ",
				"energy": -0.29783,
				"method": "rhf"
			},
			{
				"type": "occ",
				"energy": -0.26685,
				"method": "rhf"
			},
			{
				"type": "occ",
				"energy": -0.25866,
				"method": "rhf"
			},
			{
				"type": "occ",
				"energy": -0.23961,
				"method": "rhf"
			},
			{
				"type": "unocc",
				"energy": -0.04967,
				"method": "rhf"
			},
			{
				"type": "unocc",
				"energy": -0.02882,
				"method": "rhf"
			},
			{
				"type": "unocc",
				"energy": 0.0221,
				"method": "rhf"
			},
			{
				"type": "unocc",
				"energy": 0.04226,
				"method": "rhf"
			},
			{
				"type": "unocc",
				"energy": 0.05174,
				"method": "rhf"
			}
		],
		"cosmo_sigma_profile": { 
			"-0.025": 0.0,
			"-0.024": 0.0,
			"-0.023": 0.0,
			"-0.022": 0.0,
			"-0.021": 0.0,
			"-0.02": 0.0,
			"-0.019": 0.0,
			"-0.018": 0.0,
			"-0.017": 0.0,
			"-0.016": 0.493756993177,
			"-0.015": 1.31555790377,
			"-0.014": 1.56195810056,
			"-0.013": 1.47416658147,
			"-0.012": 1.6843367371,
			"-0.011": 1.88348765943,
			"-0.01": 1.14567386732,
			"-0.009": 2.19530200579,
			"-0.008": 4.00152227777,
			"-0.007": 6.44427415379,
			"-0.006": 8.98679926484,
			"-0.005": 16.1873697109,
			"-0.004": 19.1907492312,
			"-0.003": 20.1928654417,
			"-0.002": 18.4154595872,
			"-0.001": 20.1757720677,
			"0.0": 20.8766144292,
			"0.001": 22.0565934736,
			"0.002": 22.413287429,
			"0.003": 14.7839160759,
			"0.004": 8.32290124716,
			"0.005": 6.23672456823,
			"0.006": 5.81054609353,
			"0.007": 4.93099259098,
			"0.008": 4.34176857096,
			"0.009": 5.62952607893,
			"0.01": 5.06631979296,
			"0.011": 4.60616035339,
			"0.012": 4.47005091285,
			"0.013": 3.97194065041,
			"0.014": 0.564317198107,
			"0.015": 0.0,
			"0.016": 0.0,
			"0.017": 0.0,
			"0.018": 0.0,
			"0.019": 0.0,
			"0.02": 0.0,
			"0.021": 0.0,
			"0.022": 0.0,
			"0.023": 0.0,
			"0.024": 0.0,
			"0.025": 0.0
		}
	}
}
