{
	 "smiles": "OC(=O)C=CC1CC1", 
	 "Tm": 342.15, 
	 "num_atms": 16, 
	 "gaussian": { 
		 "optdone": 1, 
		 "sigma_profile": "yes", 
		 "theory": "DFT", 
		 "functional": "B3LYP", 
		 "basiset": "6-31G**", 
		 "properties": { 
			 "R2extent": 1661.6851, 
			 "electric_dipole_moment_norm": 5.50054765819, 
			 "electric_quadrupole_moment_norm": 14.1526936938, 
			 "total_energy": -383.861720346, 
			 "HOMO_LUMO_gap": 0.21574, 
			 "cosmo_polarized_energy": -14.3, 
			 "cosmo_cavitation_energy": 20.13, 
			 "cosmo_dispersion_energy": -14.7, 
			 "cosmo_repulsion_energy": 1.25, 
			 "cosmo_total_nonelectrostatic_energy": 6.68, 
			 "SMD_solvation_energy": 4.55 
		},
		"coords": [
			{
				"x": -0.2210992148,
				"y": -0.60652372,
				"z": -2.8870579159,
				"element": "O" 
			},
			{
				"x": -0.0192146503,
				"y": -1.5793158096,
				"z": -1.9526616088,
				"element": "C" 
			},
			{
				"x": 0.5895895422,
				"y": -2.5820762084,
				"z": -2.2457152173,
				"element": "O" 
			},
			{
				"x": -0.5840104589,
				"y": -1.3554174897,
				"z": -0.595486079,
				"element": "C" 
			},
			{
				"x": -1.5978469342,
				"y": -0.5253999098,
				"z": -0.3057929893,
				"element": "C" 
			},
			{
				"x": -2.1964743713,
				"y": -0.2878329819,
				"z": 1.0280533735,
				"element": "C" 
			},
			{
				"x": -1.4931901054,
				"y": 0.6330357108,
				"z": 2.0242506968,
				"element": "C" 
			},
			{
				"x": -1.6098539043,
				"y": -0.8392051799,
				"z": 2.3033556669,
				"element": "C" 
			},
			{
				"x": -0.5643763486,
				"y": 0.1907508571,
				"z": -2.4607484559,
				"element": "H" 
			},
			{
				"x": -0.1553751863,
				"y": -2.0051440231,
				"z": 0.1608629989,
				"element": "H" 
			},
			{
				"x": -2.0623230089,
				"y": 0.0460936853,
				"z": -1.112505077,
				"element": "H" 
			},
			{
				"x": -3.279182608,
				"y": -0.1808188615,
				"z": 1.0074812368,
				"element": "H" 
			},
			{
				"x": -0.5187588089,
				"y": 1.0162298753,
				"z": 1.7378048242,
				"element": "H" 
			},
			{
				"x": -2.106165998,
				"y": 1.3280613421,
				"z": 2.58978907,
				"element": "H" 
			},
			{
				"x": -0.7074761071,
				"y": -1.4387579527,
				"z": 2.242301028,
				"element": "H" 
			},
			{
				"x": -2.3064418373,
				"y": -1.167479334,
				"z": 3.0682684482,
				"element": "H" 
			}
		],
		 "valence_orbital": [ 
			{
				"type": "occ",
				"energy": -0.34158,
				"method": "rhf"
			},
			{
				"type": "occ",
				"energy": -0.31646,
				"method": "rhf"
			},
			{
				"type": "occ",
				"energy": -0.31105,
				"method": "rhf"
			},
			{
				"type": "occ",
				"energy": -0.27063,
				"method": "rhf"
			},
			{
				"type": "occ",
				"energy": -0.26308,
				"method": "rhf"
			},
			{
				"type": "unocc",
				"energy": -0.04734,
				"method": "rhf"
			},
			{
				"type": "unocc",
				"energy": 0.05897,
				"method": "rhf"
			},
			{
				"type": "unocc",
				"energy": 0.07366,
				"method": "rhf"
			},
			{
				"type": "unocc",
				"energy": 0.08325,
				"method": "rhf"
			},
			{
				"type": "unocc",
				"energy": 0.09695,
				"method": "rhf"
			}
		],
		"cosmo_sigma_profile": { 
			"-0.025": 0.0,
			"-0.024": 0.0,
			"-0.023": 0.0,
			"-0.022": 0.0,
			"-0.021": 0.0,
			"-0.02": 0.0,
			"-0.019": 0.0624371158269,
			"-0.018": 0.728822194914,
			"-0.017": 0.812161200778,
			"-0.016": 0.79928224303,
			"-0.015": 1.03465649136,
			"-0.014": 0.947892493327,
			"-0.013": 1.16370616085,
			"-0.012": 0.874515092448,
			"-0.011": 1.3709841151,
			"-0.01": 0.965946887809,
			"-0.009": 1.12800810391,
			"-0.008": 1.85120152436,
			"-0.007": 3.58827517092,
			"-0.006": 6.58308159988,
			"-0.005": 12.7862555929,
			"-0.004": 12.4878294556,
			"-0.003": 12.2365645379,
			"-0.002": 11.532178462,
			"-0.001": 13.1327927237,
			"0.0": 11.4130341796,
			"0.001": 9.73414921544,
			"0.002": 8.06254782663,
			"0.003": 8.19821535641,
			"0.004": 5.51902278703,
			"0.005": 2.56226076858,
			"0.006": 1.98166811309,
			"0.007": 2.5092154833,
			"0.008": 2.33544424312,
			"0.009": 3.00056421844,
			"0.01": 3.81930604196,
			"0.011": 5.23798350153,
			"0.012": 6.09970247508,
			"0.013": 4.11882459778,
			"0.014": 0.779468023375,
			"0.015": 0.0,
			"0.016": 0.0,
			"0.017": 0.0,
			"0.018": 0.0,
			"0.019": 0.0,
			"0.02": 0.0,
			"0.021": 0.0,
			"0.022": 0.0,
			"0.023": 0.0,
			"0.024": 0.0,
			"0.025": 0.0
		}
	}
}
