{
	 "smiles": "FC1=CC=CC(F)=C1C(=O)NC(=O)NC1=CC=C(CON=C(/C2CC2)C2=CC=C(Cl)C=C2)C=C1", 
	 "Tm": 417.15, 
	 "num_atms": 54, 
	 "gaussian": { 
		 "optdone": 1, 
		 "sigma_profile": "yes", 
		 "theory": "DFT", 
		 "functional": "B3LYP", 
		 "basiset": "6-31G**", 
		 "properties": { 
			 "R2extent": 27059.7407, 
			 "electric_dipole_moment_norm": 3.48317078823, 
			 "electric_quadrupole_moment_norm": 44.5023377453, 
			 "total_energy": -2014.44194928, 
			 "HOMO_LUMO_gap": 0.17899, 
			 "cosmo_polarized_energy": -21.35, 
			 "cosmo_cavitation_energy": 63.49, 
			 "cosmo_dispersion_energy": -41.77, 
			 "cosmo_repulsion_energy": 3.15, 
			 "cosmo_total_nonelectrostatic_energy": 24.87, 
			 "SMD_solvation_energy": 11.83 
		},
		"coords": [
			{
				"x": -3.8433840193,
				"y": 1.8809015988,
				"z": 1.8377251835,
				"element": "F" 
			},
			{
				"x": -3.5122022659,
				"y": 2.0677986429,
				"z": 3.1472731026,
				"element": "C" 
			},
			{
				"x": -3.6150423293,
				"y": 0.9945385232,
				"z": 4.0189734212,
				"element": "C" 
			},
			{
				"x": -3.2412158421,
				"y": 1.1912075967,
				"z": 5.3495764939,
				"element": "C" 
			},
			{
				"x": -2.7711777666,
				"y": 2.4316188952,
				"z": 5.7814409776,
				"element": "C" 
			},
			{
				"x": -2.6949684294,
				"y": 3.4740919198,
				"z": 4.8658816659,
				"element": "C" 
			},
			{
				"x": -2.2460346226,
				"y": 4.6714388472,
				"z": 5.27537984,
				"element": "F" 
			},
			{
				"x": -3.0497962744,
				"y": 3.3263830948,
				"z": 3.521561697,
				"element": "C" 
			},
			{
				"x": -3.1101220468,
				"y": 4.5490587887,
				"z": 2.6330021116,
				"element": "C" 
			},
			{
				"x": -3.9740595989,
				"y": 5.3862690759,
				"z": 2.8154240219,
				"element": "O" 
			},
			{
				"x": -2.1493949914,
				"y": 4.7343616985,
				"z": 1.648693289,
				"element": "N" 
			},
			{
				"x": -0.9211788912,
				"y": 4.0623842704,
				"z": 1.3625140949,
				"element": "C" 
			},
			{
				"x": 0.0995589933,
				"y": 4.7072974063,
				"z": 1.1980354556,
				"element": "O" 
			},
			{
				"x": -1.0592510121,
				"y": 2.7089765449,
				"z": 1.2362320522,
				"element": "N" 
			},
			{
				"x": -0.0445294488,
				"y": 1.7459535151,
				"z": 1.0452952986,
				"element": "C" 
			},
			{
				"x": 1.3201549931,
				"y": 2.0574028917,
				"z": 0.9780361203,
				"element": "C" 
			},
			{
				"x": 2.2425654349,
				"y": 1.0268239156,
				"z": 0.8000912839,
				"element": "C" 
			},
			{
				"x": 1.848147198,
				"y": -0.3103393831,
				"z": 0.6863129454,
				"element": "C" 
			},
			{
				"x": 2.8652459947,
				"y": -1.4032396092,
				"z": 0.465660649,
				"element": "C" 
			},
			{
				"x": 3.0121287784,
				"y": -1.7695243794,
				"z": -0.9198777816,
				"element": "O" 
			},
			{
				"x": 1.9778805058,
				"y": -2.6315559824,
				"z": -1.2808963181,
				"element": "N" 
			},
			{
				"x": 1.9581728149,
				"y": -2.8600195339,
				"z": -2.5527321755,
				"element": "C" 
			},
			{
				"x": 2.907111012,
				"y": -2.1909135939,
				"z": -3.4954055051,
				"element": "C" 
			},
			{
				"x": 4.3017377046,
				"y": -2.7629399562,
				"z": -3.6854989494,
				"element": "C" 
			},
			{
				"x": 3.319924107,
				"y": -2.7808882207,
				"z": -4.8234518942,
				"element": "C" 
			},
			{
				"x": 0.9093469019,
				"y": -3.8090496934,
				"z": -3.0047374521,
				"element": "C" 
			},
			{
				"x": 0.2767414053,
				"y": -3.6552640154,
				"z": -4.2490845357,
				"element": "C" 
			},
			{
				"x": -0.7414897561,
				"y": -4.5183110013,
				"z": -4.6508956019,
				"element": "C" 
			},
			{
				"x": -1.1304817861,
				"y": -5.5533979509,
				"z": -3.8022834866,
				"element": "C" 
			},
			{
				"x": -2.405312159,
				"y": -6.6539199692,
				"z": -4.3062408948,
				"element": "Cl" 
			},
			{
				"x": -0.5196559027,
				"y": -5.7318193185,
				"z": -2.5603215538,
				"element": "C" 
			},
			{
				"x": 0.4936504346,
				"y": -4.861141217,
				"z": -2.1704422383,
				"element": "C" 
			},
			{
				"x": 0.4791227433,
				"y": -0.6038147503,
				"z": 0.7552221122,
				"element": "C" 
			},
			{
				"x": -0.4566090183,
				"y": 0.4080717838,
				"z": 0.9322806823,
				"element": "C" 
			},
			{
				"x": -3.9807093951,
				"y": 0.0410407756,
				"z": 3.6562665513,
				"element": "H" 
			},
			{
				"x": -3.3116367555,
				"y": 0.3685981026,
				"z": 6.0535025566,
				"element": "H" 
			},
			{
				"x": -2.4705243849,
				"y": 2.6062982868,
				"z": 6.807935273,
				"element": "H" 
			},
			{
				"x": -2.1421373218,
				"y": 5.6921122531,
				"z": 1.3128678762,
				"element": "H" 
			},
			{
				"x": -2.0061072258,
				"y": 2.3603485898,
				"z": 1.1776619816,
				"element": "H" 
			},
			{
				"x": 1.6401395385,
				"y": 3.0869110934,
				"z": 1.0548364679,
				"element": "H" 
			},
			{
				"x": 3.2993704188,
				"y": 1.2772346574,
				"z": 0.7466122018,
				"element": "H" 
			},
			{
				"x": 3.8632464588,
				"y": -1.0654518421,
				"z": 0.7586356618,
				"element": "H" 
			},
			{
				"x": 2.6123465476,
				"y": -2.3033106212,
				"z": 1.0358758637,
				"element": "H" 
			},
			{
				"x": 2.8776471358,
				"y": -1.1059502618,
				"z": -3.4257992864,
				"element": "H" 
			},
			{
				"x": 5.1302733654,
				"y": -2.0624128189,
				"z": -3.7099666459,
				"element": "H" 
			},
			{
				"x": 4.5265357166,
				"y": -3.7062288672,
				"z": -3.1975519269,
				"element": "H" 
			},
			{
				"x": 2.9043480163,
				"y": -3.7411595913,
				"z": -5.1112048935,
				"element": "H" 
			},
			{
				"x": 3.4707401776,
				"y": -2.0951583481,
				"z": -5.6520466852,
				"element": "H" 
			},
			{
				"x": 0.5696218521,
				"y": -2.8421091804,
				"z": -4.9041857133,
				"element": "H" 
			},
			{
				"x": -1.2309326565,
				"y": -4.3876169166,
				"z": -5.609671522,
				"element": "H" 
			},
			{
				"x": -0.8296409802,
				"y": -6.545928894,
				"z": -1.9143815914,
				"element": "H" 
			},
			{
				"x": 0.9781134836,
				"y": -4.9895001523,
				"z": -1.2088674995,
				"element": "H" 
			},
			{
				"x": 0.14805978,
				"y": -1.6329812591,
				"z": 0.6577999706,
				"element": "H" 
			},
			{
				"x": -1.515536632,
				"y": 0.1671245597,
				"z": 0.9890372479,
				"element": "H" 
			}
		],
		 "valence_orbital": [ 
			{
				"type": "occ",
				"energy": -0.26428,
				"method": "rhf"
			},
			{
				"type": "occ",
				"energy": -0.26396,
				"method": "rhf"
			},
			{
				"type": "occ",
				"energy": -0.25676,
				"method": "rhf"
			},
			{
				"type": "occ",
				"energy": -0.22869,
				"method": "rhf"
			},
			{
				"type": "occ",
				"energy": -0.22226,
				"method": "rhf"
			},
			{
				"type": "unocc",
				"energy": -0.04327,
				"method": "rhf"
			},
			{
				"type": "unocc",
				"energy": -0.04283,
				"method": "rhf"
			},
			{
				"type": "unocc",
				"energy": -0.03088,
				"method": "rhf"
			},
			{
				"type": "unocc",
				"energy": -0.02311,
				"method": "rhf"
			},
			{
				"type": "unocc",
				"energy": -0.0155,
				"method": "rhf"
			}
		],
		"cosmo_sigma_profile": { 
			"-0.025": 0.0,
			"-0.024": 0.0,
			"-0.023": 0.0,
			"-0.022": 0.0,
			"-0.021": 0.0,
			"-0.02": 0.0,
			"-0.019": 0.0,
			"-0.018": 0.0,
			"-0.017": 0.0,
			"-0.016": 0.276156313908,
			"-0.015": 0.8264281259,
			"-0.014": 0.858782299579,
			"-0.013": 0.851674131568,
			"-0.012": 0.395476712791,
			"-0.011": 0.62583972382,
			"-0.01": 2.47548536609,
			"-0.009": 2.63875383875,
			"-0.008": 7.75798549227,
			"-0.007": 13.2336433276,
			"-0.006": 22.7525661507,
			"-0.005": 31.7671891112,
			"-0.004": 37.3997073084,
			"-0.003": 37.1377217231,
			"-0.002": 37.8811747496,
			"-0.001": 38.5059215069,
			"0.0": 40.1221521254,
			"0.001": 41.5240804575,
			"0.002": 40.6731555993,
			"0.003": 47.2279133134,
			"0.004": 36.940288795,
			"0.005": 26.0932283504,
			"0.006": 7.87697090839,
			"0.007": 5.74718753342,
			"0.008": 5.01390464343,
			"0.009": 5.70261710254,
			"0.01": 5.08786706498,
			"0.011": 8.34195106571,
			"0.012": 5.08717999974,
			"0.013": 0.39950621852,
			"0.014": 0.0,
			"0.015": 0.0,
			"0.016": 0.0,
			"0.017": 0.0,
			"0.018": 0.0,
			"0.019": 0.0,
			"0.02": 0.0,
			"0.021": 0.0,
			"0.022": 0.0,
			"0.023": 0.0,
			"0.024": 0.0,
			"0.025": 0.0
		}
	}
}
