{
	 "smiles": "COC1=C2OC(=O)C(=CC2=CC(Br)=C1)C(O)=O", 
	 "Tm": 500.15, 
	 "num_atms": 24, 
	 "gaussian": { 
		 "optdone": 1, 
		 "sigma_profile": "yes", 
		 "theory": "DFT", 
		 "functional": "B3LYP", 
		 "basiset": "6-31G**", 
		 "properties": { 
			 "R2extent": 7570.6022, 
			 "electric_dipole_moment_norm": 7.33687627059, 
			 "electric_quadrupole_moment_norm": 12.6882210983, 
			 "total_energy": -3370.91634077, 
			 "HOMO_LUMO_gap": 0.14616, 
			 "cosmo_polarized_energy": -16.88, 
			 "cosmo_cavitation_energy": 31.84, 
			 "cosmo_dispersion_energy": -24.08, 
			 "cosmo_repulsion_energy": 1.84, 
			 "cosmo_total_nonelectrostatic_energy": 9.6, 
			 "SMD_solvation_energy": 7.35 
		},
		"coords": [
			{
				"x": -1.6296990894,
				"y": 3.1378764777,
				"z": -0.8024903808,
				"element": "C" 
			},
			{
				"x": -1.1515117104,
				"y": 1.8050179393,
				"z": -0.6480655326,
				"element": "O" 
			},
			{
				"x": -0.1964725347,
				"y": 1.5697232407,
				"z": 0.2764212213,
				"element": "C" 
			},
			{
				"x": 0.2448807664,
				"y": 0.2321450599,
				"z": 0.3911941543,
				"element": "C" 
			},
			{
				"x": -0.332155561,
				"y": -0.6844902224,
				"z": -0.4365064613,
				"element": "O" 
			},
			{
				"x": 0.0123542808,
				"y": -2.0138479285,
				"z": -0.4193414153,
				"element": "C" 
			},
			{
				"x": -0.5658529787,
				"y": -2.7520833676,
				"z": -1.204051243,
				"element": "O" 
			},
			{
				"x": 1.0391133505,
				"y": -2.4283339721,
				"z": 0.5327368344,
				"element": "C" 
			},
			{
				"x": 1.6129165422,
				"y": -1.5120978875,
				"z": 1.3571491507,
				"element": "C" 
			},
			{
				"x": 1.2331755707,
				"y": -0.1292991114,
				"z": 1.3177353357,
				"element": "C" 
			},
			{
				"x": 1.8037751477,
				"y": 0.8536961364,
				"z": 2.1556646301,
				"element": "C" 
			},
			{
				"x": 1.3671578869,
				"y": 2.1576161877,
				"z": 2.0372524558,
				"element": "C" 
			},
			{
				"x": 2.1165288743,
				"y": 3.5106622663,
				"z": 3.1533295403,
				"element": "Br" 
			},
			{
				"x": 0.3774651967,
				"y": 2.528108915,
				"z": 1.1115455325,
				"element": "C" 
			},
			{
				"x": 1.4824597632,
				"y": -3.8705002423,
				"z": 0.6221698209,
				"element": "C" 
			},
			{
				"x": 0.8869687605,
				"y": -4.7283978056,
				"z": -0.2092067349,
				"element": "O" 
			},
			{
				"x": 2.3351890127,
				"y": -4.2119077876,
				"z": 1.4137819636,
				"element": "O" 
			},
			{
				"x": -2.0914167428,
				"y": 3.5058000373,
				"z": 0.1216429591,
				"element": "H" 
			},
			{
				"x": -0.8248614954,
				"y": 3.817871304,
				"z": -1.1064856154,
				"element": "H" 
			},
			{
				"x": -2.381739201,
				"y": 3.0911116849,
				"z": -1.5899283892,
				"element": "H" 
			},
			{
				"x": 2.3733845863,
				"y": -1.8553921412,
				"z": 2.0532493106,
				"element": "H" 
			},
			{
				"x": 2.5675981221,
				"y": 0.5775074829,
				"z": 2.8724832781,
				"element": "H" 
			},
			{
				"x": 0.0677407213,
				"y": 3.5627400116,
				"z": 1.0553661308,
				"element": "H" 
			},
			{
				"x": 0.229800731,
				"y": -4.2407262775,
				"z": -0.7618465457,
				"element": "H" 
			}
		],
		 "valence_orbital": [ 
			{
				"type": "occ",
				"energy": -0.30817,
				"method": "rhf"
			},
			{
				"type": "occ",
				"energy": -0.29838,
				"method": "rhf"
			},
			{
				"type": "occ",
				"energy": -0.27528,
				"method": "rhf"
			},
			{
				"type": "occ",
				"energy": -0.2666,
				"method": "rhf"
			},
			{
				"type": "occ",
				"energy": -0.24927,
				"method": "rhf"
			},
			{
				"type": "unocc",
				"energy": -0.10311,
				"method": "rhf"
			},
			{
				"type": "unocc",
				"energy": -0.04259,
				"method": "rhf"
			},
			{
				"type": "unocc",
				"energy": -0.01923,
				"method": "rhf"
			},
			{
				"type": "unocc",
				"energy": -0.01662,
				"method": "rhf"
			},
			{
				"type": "unocc",
				"energy": 0.00727,
				"method": "rhf"
			}
		],
		"cosmo_sigma_profile": { 
			"-0.025": 0.0,
			"-0.024": 0.0,
			"-0.023": 0.0,
			"-0.022": 0.0,
			"-0.021": 0.0,
			"-0.02": 0.0,
			"-0.019": 0.0,
			"-0.018": 0.0,
			"-0.017": 0.0,
			"-0.016": 0.0,
			"-0.015": 0.0,
			"-0.014": 0.0,
			"-0.013": 0.0,
			"-0.012": 0.0,
			"-0.011": 0.241893017567,
			"-0.01": 1.81477597617,
			"-0.009": 3.99436368451,
			"-0.008": 7.73549832188,
			"-0.007": 12.439477684,
			"-0.006": 18.417330614,
			"-0.005": 17.2734991978,
			"-0.004": 19.401387119,
			"-0.003": 19.2671173183,
			"-0.002": 19.3297360358,
			"-0.001": 14.8389298332,
			"0.0": 17.8899118307,
			"0.001": 17.2303417919,
			"0.002": 12.193279098,
			"0.003": 12.4663105896,
			"0.004": 13.6284612611,
			"0.005": 5.03577730768,
			"0.006": 5.51902189411,
			"0.007": 5.94198007147,
			"0.008": 6.46291738185,
			"0.009": 7.32793673473,
			"0.01": 8.6684850444,
			"0.011": 6.94460182349,
			"0.012": 4.51225427229,
			"0.013": 1.47845960289,
			"0.014": 0.0407157344988,
			"0.015": 0.0,
			"0.016": 0.0,
			"0.017": 0.0,
			"0.018": 0.0,
			"0.019": 0.0,
			"0.02": 0.0,
			"0.021": 0.0,
			"0.022": 0.0,
			"0.023": 0.0,
			"0.024": 0.0,
			"0.025": 0.0
		}
	}
}
