{
	 "smiles": "OCCC1CCNCC1", 
	 "Tm": 405.15, 
	 "num_atms": 24, 
	 "gaussian": { 
		 "optdone": 1, 
		 "sigma_profile": "yes", 
		 "theory": "DFT", 
		 "functional": "B3LYP", 
		 "basiset": "6-31G**", 
		 "properties": { 
			 "R2extent": 1447.7088, 
			 "electric_dipole_moment_norm": 1.84510667713, 
			 "electric_quadrupole_moment_norm": 6.51239181254, 
			 "total_energy": -405.750471568, 
			 "HOMO_LUMO_gap": 0.28007, 
			 "cosmo_polarized_energy": -8.02, 
			 "cosmo_cavitation_energy": 23.8, 
			 "cosmo_dispersion_energy": -18.0, 
			 "cosmo_repulsion_energy": 1.49, 
			 "cosmo_total_nonelectrostatic_energy": 7.29, 
			 "SMD_solvation_energy": 1.3 
		},
		"coords": [
			{
				"x": 1.4585626051,
				"y": 2.3561575088,
				"z": -0.0509797675,
				"element": "O" 
			},
			{
				"x": 1.9427003322,
				"y": 1.2124094792,
				"z": 0.6511314541,
				"element": "C" 
			},
			{
				"x": 1.1087440258,
				"y": -0.0103770201,
				"z": 0.275311867,
				"element": "C" 
			},
			{
				"x": -0.292156395,
				"y": -0.096314334,
				"z": 0.9218958968,
				"element": "C" 
			},
			{
				"x": -0.9338463003,
				"y": -1.4870042857,
				"z": 0.7089294216,
				"element": "C" 
			},
			{
				"x": -1.4619285183,
				"y": -1.6730780954,
				"z": -0.719364625,
				"element": "C" 
			},
			{
				"x": -2.4233557892,
				"y": -0.6127078012,
				"z": -1.0253615631,
				"element": "N" 
			},
			{
				"x": -1.8077348727,
				"y": 0.7170967393,
				"z": -0.9685963061,
				"element": "C" 
			},
			{
				"x": -1.287567769,
				"y": 0.9887319796,
				"z": 0.4473773303,
				"element": "C" 
			},
			{
				"x": 1.9667401313,
				"y": 3.1236003149,
				"z": 0.2393127421,
				"element": "H" 
			},
			{
				"x": 2.996284548,
				"y": 1.0216873927,
				"z": 0.3902146483,
				"element": "H" 
			},
			{
				"x": 1.9010890799,
				"y": 1.369506539,
				"z": 1.7421473232,
				"element": "H" 
			},
			{
				"x": 1.0498847966,
				"y": -0.0513670391,
				"z": -0.818399203,
				"element": "H" 
			},
			{
				"x": 1.6796665854,
				"y": -0.8967048157,
				"z": 0.5843843042,
				"element": "H" 
			},
			{
				"x": -0.1416754434,
				"y": 0.0371152938,
				"z": 2.0035477974,
				"element": "H" 
			},
			{
				"x": -1.7808508017,
				"y": -1.5951965692,
				"z": 1.3971028269,
				"element": "H" 
			},
			{
				"x": -0.2162174206,
				"y": -2.2827523757,
				"z": 0.9463377836,
				"element": "H" 
			},
			{
				"x": -0.6110526744,
				"y": -1.6974095831,
				"z": -1.4286181041,
				"element": "H" 
			},
			{
				"x": -1.9703356394,
				"y": -2.6407977938,
				"z": -0.8027525692,
				"element": "H" 
			},
			{
				"x": -2.8222513384,
				"y": -0.7676873225,
				"z": -1.9472193545,
				"element": "H" 
			},
			{
				"x": -0.9804475972,
				"y": 0.8360591422,
				"z": -1.6939603613,
				"element": "H" 
			},
			{
				"x": -2.5678055731,
				"y": 1.4620666399,
				"z": -1.2309070938,
				"element": "H" 
			},
			{
				"x": -2.1480521128,
				"y": 0.9904355782,
				"z": 1.1282444302,
				"element": "H" 
			},
			{
				"x": -0.8198938589,
				"y": 1.975230428,
				"z": 0.4844211219,
				"element": "H" 
			}
		],
		 "valence_orbital": [ 
			{
				"type": "occ",
				"energy": -0.30696,
				"method": "rhf"
			},
			{
				"type": "occ",
				"energy": -0.29562,
				"method": "rhf"
			},
			{
				"type": "occ",
				"energy": -0.2906,
				"method": "rhf"
			},
			{
				"type": "occ",
				"energy": -0.26079,
				"method": "rhf"
			},
			{
				"type": "occ",
				"energy": -0.20725,
				"method": "rhf"
			},
			{
				"type": "unocc",
				"energy": 0.07282,
				"method": "rhf"
			},
			{
				"type": "unocc",
				"energy": 0.08994,
				"method": "rhf"
			},
			{
				"type": "unocc",
				"energy": 0.10791,
				"method": "rhf"
			},
			{
				"type": "unocc",
				"energy": 0.12524,
				"method": "rhf"
			},
			{
				"type": "unocc",
				"energy": 0.13578,
				"method": "rhf"
			}
		],
		"cosmo_sigma_profile": { 
			"-0.025": 0.0,
			"-0.024": 0.0,
			"-0.023": 0.0,
			"-0.022": 0.0,
			"-0.021": 0.0,
			"-0.02": 0.0,
			"-0.019": 0.0,
			"-0.018": 0.0,
			"-0.017": 0.0,
			"-0.016": 0.0916296229781,
			"-0.015": 1.04479416603,
			"-0.014": 1.11125992434,
			"-0.013": 0.685632292979,
			"-0.012": 1.05915452135,
			"-0.011": 0.585105623396,
			"-0.01": 1.31381701097,
			"-0.009": 2.43223527597,
			"-0.008": 1.59187114307,
			"-0.007": 2.40959498749,
			"-0.006": 1.85720406035,
			"-0.005": 2.03492062885,
			"-0.004": 2.6678388736,
			"-0.003": 14.3377802624,
			"-0.002": 28.2177145402,
			"-0.001": 32.1902943405,
			"0.0": 30.0073202416,
			"0.001": 17.84269627,
			"0.002": 9.38110231765,
			"0.003": 3.5532355486,
			"0.004": 2.95431821616,
			"0.005": 3.60416520438,
			"0.006": 2.7055402227,
			"0.007": 3.12354638842,
			"0.008": 2.44966152103,
			"0.009": 2.18939253171,
			"0.01": 1.46402320764,
			"0.011": 1.73510447624,
			"0.012": 1.9434836308,
			"0.013": 1.55266536916,
			"0.014": 1.5047342999,
			"0.015": 0.72846544541,
			"0.016": 0.247135127083,
			"0.017": 0.370349770066,
			"0.018": 0.719229138928,
			"0.019": 0.171559499007,
			"0.02": 0.0,
			"0.021": 0.0,
			"0.022": 0.0,
			"0.023": 0.0,
			"0.024": 0.0,
			"0.025": 0.0
		}
	}
}
