{
	 "smiles": "CC1CCC2=CC(N=NC3=C(C=CC=C3)C(O)=O)=C(CCC(C)=O)C=C2N1", 
	 "Tm": 430.15, 
	 "num_atms": 50, 
	 "gaussian": { 
		 "optdone": 1, 
		 "sigma_profile": "yes", 
		 "theory": "DFT", 
		 "functional": "B3LYP", 
		 "basiset": "6-31G**", 
		 "properties": { 
			 "R2extent": 13294.0896, 
			 "electric_dipole_moment_norm": 6.18630438469, 
			 "electric_quadrupole_moment_norm": 26.8041831698, 
			 "total_energy": -1204.02350721, 
			 "HOMO_LUMO_gap": 0.12097, 
			 "cosmo_polarized_energy": -22.44, 
			 "cosmo_cavitation_energy": 52.51, 
			 "cosmo_dispersion_energy": -35.5, 
			 "cosmo_repulsion_energy": 2.68, 
			 "cosmo_total_nonelectrostatic_energy": 19.7, 
			 "SMD_solvation_energy": 8.09 
		},
		"coords": [
			{
				"x": 2.8586712339,
				"y": -0.4941798173,
				"z": 4.630815077,
				"element": "C" 
			},
			{
				"x": 3.3506426113,
				"y": 0.3260531741,
				"z": 3.4260419644,
				"element": "C" 
			},
			{
				"x": 3.9228872,
				"y": -0.5399619325,
				"z": 2.2909805414,
				"element": "C" 
			},
			{
				"x": 2.8204756088,
				"y": -1.3312395914,
				"z": 1.5729794726,
				"element": "C" 
			},
			{
				"x": 1.6707998434,
				"y": -0.4334604918,
				"z": 1.1641192516,
				"element": "C" 
			},
			{
				"x": 0.8111368017,
				"y": -0.762940563,
				"z": 0.1318843133,
				"element": "C" 
			},
			{
				"x": -0.2726771763,
				"y": 0.0583827701,
				"z": -0.2378202993,
				"element": "C" 
			},
			{
				"x": -1.1529365255,
				"y": -0.2501991096,
				"z": -1.2820559033,
				"element": "N" 
			},
			{
				"x": -1.0563346167,
				"y": -1.4182708995,
				"z": -1.7632745944,
				"element": "N" 
			},
			{
				"x": -1.92679555,
				"y": -1.66774185,
				"z": -2.8443641543,
				"element": "C" 
			},
			{
				"x": -2.3009264931,
				"y": -0.7222404175,
				"z": -3.8283114527,
				"element": "C" 
			},
			{
				"x": -3.2694648953,
				"y": -1.0724252179,
				"z": -4.77799948,
				"element": "C" 
			},
			{
				"x": -3.8249196973,
				"y": -2.3496476354,
				"z": -4.8019578897,
				"element": "C" 
			},
			{
				"x": -3.4078532502,
				"y": -3.3017789863,
				"z": -3.8676093209,
				"element": "C" 
			},
			{
				"x": -2.4629232885,
				"y": -2.9628483233,
				"z": -2.9044543943,
				"element": "C" 
			},
			{
				"x": -1.6836940782,
				"y": 0.6242579899,
				"z": -3.9908987695,
				"element": "C" 
			},
			{
				"x": -0.3344157702,
				"y": 0.6178000332,
				"z": -3.8701529599,
				"element": "O" 
			},
			{
				"x": -2.2954741154,
				"y": 1.625783727,
				"z": -4.3144304907,
				"element": "O" 
			},
			{
				"x": -0.5035453283,
				"y": 1.2688472775,
				"z": 0.4651327066,
				"element": "C" 
			},
			{
				"x": -1.6493112446,
				"y": 2.1912862015,
				"z": 0.1118683551,
				"element": "C" 
			},
			{
				"x": -1.3201376581,
				"y": 3.1203918133,
				"z": -1.0660428249,
				"element": "C" 
			},
			{
				"x": -2.4457239343,
				"y": 4.0968083598,
				"z": -1.3945320664,
				"element": "C" 
			},
			{
				"x": -2.3652035099,
				"y": 4.7761472911,
				"z": -2.7478077561,
				"element": "C" 
			},
			{
				"x": -3.3557504677,
				"y": 4.3106119636,
				"z": -0.6146360873,
				"element": "O" 
			},
			{
				"x": 0.359389642,
				"y": 1.6015422787,
				"z": 1.5021932871,
				"element": "C" 
			},
			{
				"x": 1.4477993825,
				"y": 0.7826307706,
				"z": 1.8667752142,
				"element": "C" 
			},
			{
				"x": 2.300817989,
				"y": 1.1785811591,
				"z": 2.870498828,
				"element": "N" 
			},
			{
				"x": 2.4753727853,
				"y": 0.165259273,
				"z": 5.4166760556,
				"element": "H" 
			},
			{
				"x": 2.0517052104,
				"y": -1.1764774482,
				"z": 4.3477602908,
				"element": "H" 
			},
			{
				"x": 3.6774579007,
				"y": -1.0841706453,
				"z": 5.0572970102,
				"element": "H" 
			},
			{
				"x": 4.1474107685,
				"y": 0.9952222679,
				"z": 3.7759395023,
				"element": "H" 
			},
			{
				"x": 4.681644852,
				"y": -1.2166026961,
				"z": 2.6974010445,
				"element": "H" 
			},
			{
				"x": 4.4242027476,
				"y": 0.1193114259,
				"z": 1.5731141502,
				"element": "H" 
			},
			{
				"x": 3.2328218089,
				"y": -1.834712408,
				"z": 0.6918188563,
				"element": "H" 
			},
			{
				"x": 2.4526345542,
				"y": -2.1309326665,
				"z": 2.2309775163,
				"element": "H" 
			},
			{
				"x": 0.9593870565,
				"y": -1.6821134868,
				"z": -0.4266564167,
				"element": "H" 
			},
			{
				"x": -3.5618002552,
				"y": -0.3281966779,
				"z": -5.5117182147,
				"element": "H" 
			},
			{
				"x": -4.5652492935,
				"y": -2.6047275183,
				"z": -5.553855295,
				"element": "H" 
			},
			{
				"x": -3.8247900679,
				"y": -4.3045206525,
				"z": -3.8854375042,
				"element": "H" 
			},
			{
				"x": -2.142729479,
				"y": -3.6760193754,
				"z": -2.1518450802,
				"element": "H" 
			},
			{
				"x": -0.0491574173,
				"y": 1.5292011224,
				"z": -4.0477250275,
				"element": "H" 
			},
			{
				"x": -2.5359217562,
				"y": 1.608381729,
				"z": -0.1468022804,
				"element": "H" 
			},
			{
				"x": -1.9138671786,
				"y": 2.8038615564,
				"z": 0.9784308504,
				"element": "H" 
			},
			{
				"x": -0.4210906025,
				"y": 3.7165551639,
				"z": -0.8473361111,
				"element": "H" 
			},
			{
				"x": -1.0811090972,
				"y": 2.5357999883,
				"z": -1.9594478139,
				"element": "H" 
			},
			{
				"x": -3.1441744587,
				"y": 5.5354320051,
				"z": -2.8320488842,
				"element": "H" 
			},
			{
				"x": -1.3801678423,
				"y": 5.2344633211,
				"z": -2.8969033022,
				"element": "H" 
			},
			{
				"x": -2.4914086937,
				"y": 4.0207036232,
				"z": -3.5324785824,
				"element": "H" 
			},
			{
				"x": 0.1912059747,
				"y": 2.5236851511,
				"z": 2.0553879044,
				"element": "H" 
			},
			{
				"x": 2.0056897699,
				"y": 1.965506974,
				"z": 3.4297107638,
				"element": "H" 
			}
		],
		 "valence_orbital": [ 
			{
				"type": "occ",
				"energy": -0.25056,
				"method": "rhf"
			},
			{
				"type": "occ",
				"energy": -0.24466,
				"method": "rhf"
			},
			{
				"type": "occ",
				"energy": -0.22809,
				"method": "rhf"
			},
			{
				"type": "occ",
				"energy": -0.2174,
				"method": "rhf"
			},
			{
				"type": "occ",
				"energy": -0.1918,
				"method": "rhf"
			},
			{
				"type": "unocc",
				"energy": -0.07083,
				"method": "rhf"
			},
			{
				"type": "unocc",
				"energy": -0.02589,
				"method": "rhf"
			},
			{
				"type": "unocc",
				"energy": -0.00168,
				"method": "rhf"
			},
			{
				"type": "unocc",
				"energy": 0.00499,
				"method": "rhf"
			},
			{
				"type": "unocc",
				"energy": 0.00833,
				"method": "rhf"
			}
		],
		"cosmo_sigma_profile": { 
			"-0.025": 0.0,
			"-0.024": 0.0,
			"-0.023": 0.0,
			"-0.022": 0.0,
			"-0.021": 0.0,
			"-0.02": 0.0,
			"-0.019": 0.0,
			"-0.018": 0.206745800513,
			"-0.017": 0.843894608939,
			"-0.016": 0.920541236428,
			"-0.015": 0.48033190923,
			"-0.014": 0.70532799905,
			"-0.013": 2.28375349027,
			"-0.012": 1.85528018251,
			"-0.011": 2.11728212276,
			"-0.01": 2.72554359779,
			"-0.009": 2.22679830161,
			"-0.008": 2.52192048132,
			"-0.007": 4.94179389284,
			"-0.006": 15.4122935934,
			"-0.005": 20.6585626853,
			"-0.004": 32.6553127407,
			"-0.003": 39.2812256968,
			"-0.002": 37.5380661443,
			"-0.001": 40.0665034323,
			"0.0": 33.5122907938,
			"0.001": 26.1062115718,
			"0.002": 23.3656424999,
			"0.003": 30.6911279576,
			"0.004": 28.8200766911,
			"0.005": 17.5486832692,
			"0.006": 8.10931010941,
			"0.007": 8.83960316423,
			"0.008": 6.81755016114,
			"0.009": 5.74578653724,
			"0.01": 4.56985201245,
			"0.011": 4.97074343435,
			"0.012": 5.52656595554,
			"0.013": 2.45491593388,
			"0.014": 0.239656482135,
			"0.015": 0.0,
			"0.016": 0.0,
			"0.017": 0.0,
			"0.018": 0.0,
			"0.019": 0.0,
			"0.02": 0.0,
			"0.021": 0.0,
			"0.022": 0.0,
			"0.023": 0.0,
			"0.024": 0.0,
			"0.025": 0.0
		}
	}
}
