{
	 "smiles": "CC1=CC=C(C(O)=O)C(F)=C1", 
	 "Tm": 460.65, 
	 "num_atms": 18, 
	 "gaussian": { 
		 "optdone": 1, 
		 "sigma_profile": "yes", 
		 "theory": "DFT", 
		 "functional": "B3LYP", 
		 "basiset": "6-31G**", 
		 "properties": { 
			 "R2extent": 2069.9385, 
			 "electric_dipole_moment_norm": 5.56733095837, 
			 "electric_quadrupole_moment_norm": 5.93475279266, 
			 "total_energy": -559.372332394, 
			 "HOMO_LUMO_gap": 0.21101, 
			 "cosmo_polarized_energy": -10.98, 
			 "cosmo_cavitation_energy": 22.61, 
			 "cosmo_dispersion_energy": -16.84, 
			 "cosmo_repulsion_energy": 1.32, 
			 "cosmo_total_nonelectrostatic_energy": 7.09, 
			 "SMD_solvation_energy": 5.57 
		},
		"coords": [
			{
				"x": 0.7319790862,
				"y": -3.1105997168,
				"z": 3.1290101471,
				"element": "C" 
			},
			{
				"x": 0.4983014052,
				"y": -1.9496123287,
				"z": 2.1943612956,
				"element": "C" 
			},
			{
				"x": -0.74256567,
				"y": -1.2923817804,
				"z": 2.1528925237,
				"element": "C" 
			},
			{
				"x": -0.9659760555,
				"y": -0.2414509777,
				"z": 1.2733168871,
				"element": "C" 
			},
			{
				"x": 0.0344103071,
				"y": 0.20752628,
				"z": 0.3956308757,
				"element": "C" 
			},
			{
				"x": -0.3038597425,
				"y": 1.3553583435,
				"z": -0.5165994376,
				"element": "C" 
			},
			{
				"x": 0.653982651,
				"y": 1.7923225091,
				"z": -1.3604412804,
				"element": "O" 
			},
			{
				"x": -1.3954038418,
				"y": 1.8777811034,
				"z": -0.5040924843,
				"element": "O" 
			},
			{
				"x": 1.2577574409,
				"y": -0.462159134,
				"z": 0.4608216768,
				"element": "C" 
			},
			{
				"x": 2.2848827602,
				"y": -0.0804867205,
				"z": -0.3607887552,
				"element": "F" 
			},
			{
				"x": 1.5074355049,
				"y": -1.513933988,
				"z": 1.3286510287,
				"element": "C" 
			},
			{
				"x": 0.2343193812,
				"y": -2.9518875818,
				"z": 4.090262691,
				"element": "H" 
			},
			{
				"x": 0.3294777634,
				"y": -4.0384637349,
				"z": 2.7044446823,
				"element": "H" 
			},
			{
				"x": 1.7972423842,
				"y": -3.2692460037,
				"z": 3.3163560965,
				"element": "H" 
			},
			{
				"x": -1.5380752411,
				"y": -1.6109505306,
				"z": 2.8204736588,
				"element": "H" 
			},
			{
				"x": -1.9207476251,
				"y": 0.2718022321,
				"z": 1.2359180486,
				"element": "H" 
			},
			{
				"x": 1.466582887,
				"y": 1.2743330307,
				"z": -1.2490251761,
				"element": "H" 
			},
			{
				"x": 2.4875566046,
				"y": -1.9794510017,
				"z": 1.3190075215,
				"element": "H" 
			}
		],
		 "valence_orbital": [ 
			{
				"type": "occ",
				"energy": -0.35755,
				"method": "rhf"
			},
			{
				"type": "occ",
				"energy": -0.31023,
				"method": "rhf"
			},
			{
				"type": "occ",
				"energy": -0.27304,
				"method": "rhf"
			},
			{
				"type": "occ",
				"energy": -0.27181,
				"method": "rhf"
			},
			{
				"type": "occ",
				"energy": -0.26521,
				"method": "rhf"
			},
			{
				"type": "unocc",
				"energy": -0.0542,
				"method": "rhf"
			},
			{
				"type": "unocc",
				"energy": -0.02102,
				"method": "rhf"
			},
			{
				"type": "unocc",
				"energy": 0.04807,
				"method": "rhf"
			},
			{
				"type": "unocc",
				"energy": 0.07064,
				"method": "rhf"
			},
			{
				"type": "unocc",
				"energy": 0.09875,
				"method": "rhf"
			}
		],
		"cosmo_sigma_profile": { 
			"-0.025": 0.0,
			"-0.024": 0.0,
			"-0.023": 0.0,
			"-0.022": 0.0,
			"-0.021": 0.0,
			"-0.02": 0.0,
			"-0.019": 0.0,
			"-0.018": 0.0,
			"-0.017": 0.0,
			"-0.016": 0.0,
			"-0.015": 0.0,
			"-0.014": 0.00884471930059,
			"-0.013": 0.224309604542,
			"-0.012": 0.758286027832,
			"-0.011": 0.88053239232,
			"-0.01": 1.01526615581,
			"-0.009": 2.18861896084,
			"-0.008": 3.04122416678,
			"-0.007": 4.79547309951,
			"-0.006": 6.63725331559,
			"-0.005": 13.6699569281,
			"-0.004": 13.684920013,
			"-0.003": 13.4186887954,
			"-0.002": 16.1943297618,
			"-0.001": 18.0463634033,
			"0.0": 14.0468998549,
			"0.001": 15.4897597655,
			"0.002": 15.8012015146,
			"0.003": 9.59259846401,
			"0.004": 2.68711558309,
			"0.005": 2.16356285271,
			"0.006": 1.9415324827,
			"0.007": 2.39803003079,
			"0.008": 2.80080488593,
			"0.009": 3.25727786206,
			"0.01": 3.80305967798,
			"0.011": 6.0918141674,
			"0.012": 4.45163367838,
			"0.013": 1.82272918057,
			"0.014": 0.129081845318,
			"0.015": 0.0,
			"0.016": 0.0,
			"0.017": 0.0,
			"0.018": 0.0,
			"0.019": 0.0,
			"0.02": 0.0,
			"0.021": 0.0,
			"0.022": 0.0,
			"0.023": 0.0,
			"0.024": 0.0,
			"0.025": 0.0
		}
	}
}
