{
	 "smiles": "CCOC1=CC=C(NC(=O)C(F)(F)C(F)(F)C(F)(F)C(F)(F)C(F)(F)C(F)(F)C(F)(F)C(F)(F)F)C=C1", 
	 "Tm": 408.15, 
	 "num_atms": 47, 
	 "gaussian": { 
		 "optdone": 1, 
		 "sigma_profile": "yes", 
		 "theory": "DFT", 
		 "functional": "B3LYP", 
		 "basiset": "6-31G**", 
		 "properties": { 
			 "R2extent": 28833.1646, 
			 "electric_dipole_moment_norm": 3.6596224696, 
			 "electric_quadrupole_moment_norm": 19.815893838, 
			 "total_energy": -2556.25667575, 
			 "HOMO_LUMO_gap": 0.1793, 
			 "cosmo_polarized_energy": -11.76, 
			 "cosmo_cavitation_energy": 57.37, 
			 "cosmo_dispersion_energy": -37.9, 
			 "cosmo_repulsion_energy": 2.53, 
			 "cosmo_total_nonelectrostatic_energy": 22.0, 
			 "SMD_solvation_energy": 15.47 
		},
		"coords": [
			{
				"x": -8.6913142601,
				"y": -1.3929359891,
				"z": 0.161053229,
				"element": "C" 
			},
			{
				"x": -7.283070092,
				"y": -1.3053046781,
				"z": 0.7224076174,
				"element": "C" 
			},
			{
				"x": -6.6058572623,
				"y": -0.259700047,
				"z": 0.0244300297,
				"element": "O" 
			},
			{
				"x": -5.3118410421,
				"y": 0.0154555819,
				"z": 0.3517888316,
				"element": "C" 
			},
			{
				"x": -4.5727567563,
				"y": -0.651146255,
				"z": 1.3354905884,
				"element": "C" 
			},
			{
				"x": -3.2479874436,
				"y": -0.2920235719,
				"z": 1.5967471329,
				"element": "C" 
			},
			{
				"x": -2.6485757936,
				"y": 0.7422102247,
				"z": 0.8716457471,
				"element": "C" 
			},
			{
				"x": -1.3100425604,
				"y": 1.1614391505,
				"z": 1.0729711601,
				"element": "N" 
			},
			{
				"x": -0.4070420764,
				"y": 0.6878347717,
				"z": 1.9706884103,
				"element": "C" 
			},
			{
				"x": -0.5687186882,
				"y": -0.1943980124,
				"z": 2.7950669538,
				"element": "O" 
			},
			{
				"x": 0.9665430919,
				"y": 1.4140915107,
				"z": 1.8747578612,
				"element": "C" 
			},
			{
				"x": 0.7555418064,
				"y": 2.7486194753,
				"z": 1.626459488,
				"element": "F" 
			},
			{
				"x": 1.6144184059,
				"y": 1.2899952271,
				"z": 3.0466316648,
				"element": "F" 
			},
			{
				"x": 1.9194958073,
				"y": 0.9515791332,
				"z": 0.7347657259,
				"element": "C" 
			},
			{
				"x": 2.9951244486,
				"y": 1.7745500281,
				"z": 0.7476223692,
				"element": "F" 
			},
			{
				"x": 1.2607970202,
				"y": 1.111244027,
				"z": -0.4456372158,
				"element": "F" 
			},
			{
				"x": 2.427885884,
				"y": -0.5063433237,
				"z": 0.8278174606,
				"element": "C" 
			},
			{
				"x": 1.3494873955,
				"y": -1.3175089872,
				"z": 0.9640446551,
				"element": "F" 
			},
			{
				"x": 3.2133002236,
				"y": -0.6254699739,
				"z": 1.9172494122,
				"element": "F" 
			},
			{
				"x": 3.2081780369,
				"y": -1.0730471457,
				"z": -0.4067248514,
				"element": "C" 
			},
			{
				"x": 2.3541835825,
				"y": -1.1562909752,
				"z": -1.4492982737,
				"element": "F" 
			},
			{
				"x": 3.5843596349,
				"y": -2.3231219105,
				"z": -0.0485976182,
				"element": "F" 
			},
			{
				"x": 4.4632509581,
				"y": -0.276750576,
				"z": -0.8698029778,
				"element": "C" 
			},
			{
				"x": 5.1856744778,
				"y": 0.0988480782,
				"z": 0.2079243653,
				"element": "F" 
			},
			{
				"x": 4.0172489026,
				"y": 0.8266545308,
				"z": -1.5233393266,
				"element": "F" 
			},
			{
				"x": 5.3961524866,
				"y": -1.0569969396,
				"z": -1.8343755761,
				"element": "C" 
			},
			{
				"x": 4.662774584,
				"y": -1.4965085292,
				"z": -2.8819969236,
				"element": "F" 
			},
			{
				"x": 5.9072525337,
				"y": -2.1197346471,
				"z": -1.1719722883,
				"element": "F" 
			},
			{
				"x": 6.6357940596,
				"y": -0.2848787715,
				"z": -2.3881380049,
				"element": "C" 
			},
			{
				"x": 7.2743347518,
				"y": -1.1653486483,
				"z": -3.1936366241,
				"element": "F" 
			},
			{
				"x": 7.4417428215,
				"y": 0.0314877038,
				"z": -1.3509634549,
				"element": "F" 
			},
			{
				"x": 6.398998723,
				"y": 1.0058529798,
				"z": -3.2175400656,
				"element": "C" 
			},
			{
				"x": 5.373436614,
				"y": 0.8487156852,
				"z": -4.063973989,
				"element": "F" 
			},
			{
				"x": 7.5043239465,
				"y": 1.2721236547,
				"z": -3.9233031686,
				"element": "F" 
			},
			{
				"x": 6.1521336247,
				"y": 2.0432312113,
				"z": -2.4097928329,
				"element": "F" 
			},
			{
				"x": -3.3916423979,
				"y": 1.4103979907,
				"z": -0.1151236521,
				"element": "C" 
			},
			{
				"x": -4.7056414602,
				"y": 1.0534132611,
				"z": -0.3729566013,
				"element": "C" 
			},
			{
				"x": -8.6665419651,
				"y": -1.6169149046,
				"z": -0.9089994532,
				"element": "H" 
			},
			{
				"x": -9.2225031274,
				"y": -0.4477306362,
				"z": 0.3032661712,
				"element": "H" 
			},
			{
				"x": -9.249510031,
				"y": -2.1851626074,
				"z": 0.6691425412,
				"element": "H" 
			},
			{
				"x": -7.3032031696,
				"y": -1.0836203396,
				"z": 1.7988536037,
				"element": "H" 
			},
			{
				"x": -6.7462863334,
				"y": -2.2546320456,
				"z": 0.5848501579,
				"element": "H" 
			},
			{
				"x": -5.0128803942,
				"y": -1.4554586167,
				"z": 1.9122817328,
				"element": "H" 
			},
			{
				"x": -2.6828326348,
				"y": -0.808570954,
				"z": 2.3598685438,
				"element": "H" 
			},
			{
				"x": -1.0030373381,
				"y": 1.9348037031,
				"z": 0.4993580697,
				"element": "H" 
			},
			{
				"x": -2.9345841862,
				"y": 2.215797998,
				"z": -0.6856758367,
				"element": "H" 
			},
			{
				"x": -5.2851648087,
				"y": 1.5652531588,
				"z": -1.1337347881,
				"element": "H" 
			}
		],
		 "valence_orbital": [ 
			{
				"type": "occ",
				"energy": -0.33269,
				"method": "rhf"
			},
			{
				"type": "occ",
				"energy": -0.2953,
				"method": "rhf"
			},
			{
				"type": "occ",
				"energy": -0.2791,
				"method": "rhf"
			},
			{
				"type": "occ",
				"energy": -0.26214,
				"method": "rhf"
			},
			{
				"type": "occ",
				"energy": -0.21347,
				"method": "rhf"
			},
			{
				"type": "unocc",
				"energy": -0.03417,
				"method": "rhf"
			},
			{
				"type": "unocc",
				"energy": -0.01222,
				"method": "rhf"
			},
			{
				"type": "unocc",
				"energy": 0.00555,
				"method": "rhf"
			},
			{
				"type": "unocc",
				"energy": 0.01462,
				"method": "rhf"
			},
			{
				"type": "unocc",
				"energy": 0.02669,
				"method": "rhf"
			}
		],
		"cosmo_sigma_profile": { 
			"-0.025": 0.0,
			"-0.024": 0.0,
			"-0.023": 0.0,
			"-0.022": 0.0,
			"-0.021": 0.0,
			"-0.02": 0.0,
			"-0.019": 0.0,
			"-0.018": 0.0,
			"-0.017": 0.0,
			"-0.016": 0.294456475959,
			"-0.015": 0.875429030308,
			"-0.014": 1.34716033686,
			"-0.013": 0.609011826701,
			"-0.012": 0.675165245605,
			"-0.011": 1.2793954748,
			"-0.01": 1.30693796446,
			"-0.009": 1.8681930743,
			"-0.008": 1.71136928223,
			"-0.007": 2.5430122426,
			"-0.006": 7.83729549797,
			"-0.005": 14.6757423789,
			"-0.004": 23.1421369311,
			"-0.003": 26.1753034292,
			"-0.002": 28.0454227168,
			"-0.001": 43.2221512617,
			"0.0": 85.6746697159,
			"0.001": 124.896406314,
			"0.002": 32.5752516306,
			"0.003": 14.7236256124,
			"0.004": 16.1184846826,
			"0.005": 8.42287918262,
			"0.006": 3.632903227,
			"0.007": 3.89498433845,
			"0.008": 3.22377527642,
			"0.009": 3.16038690113,
			"0.01": 3.69471749895,
			"0.011": 2.86981777737,
			"0.012": 0.824795267438,
			"0.013": 0.0,
			"0.014": 0.0,
			"0.015": 0.0,
			"0.016": 0.0,
			"0.017": 0.0,
			"0.018": 0.0,
			"0.019": 0.0,
			"0.02": 0.0,
			"0.021": 0.0,
			"0.022": 0.0,
			"0.023": 0.0,
			"0.024": 0.0,
			"0.025": 0.0
		}
	}
}
