{
	 "smiles": "CCCCCC(=O)NC1=CC=C(C=C1)C(=O)CCl", 
	 "Tm": 453.15, 
	 "num_atms": 36, 
	 "gaussian": { 
		 "optdone": 1, 
		 "sigma_profile": "yes", 
		 "theory": "DFT", 
		 "functional": "B3LYP", 
		 "basiset": "6-31G**", 
		 "properties": { 
			 "R2extent": 10685.3861, 
			 "electric_dipole_moment_norm": 2.07304959179, 
			 "electric_quadrupole_moment_norm": 19.208889578, 
			 "total_energy": -1209.76048514, 
			 "HOMO_LUMO_gap": 0.16327, 
			 "cosmo_polarized_energy": -16.23, 
			 "cosmo_cavitation_energy": 41.15, 
			 "cosmo_dispersion_energy": -29.04, 
			 "cosmo_repulsion_energy": 2.31, 
			 "cosmo_total_nonelectrostatic_energy": 14.41, 
			 "SMD_solvation_energy": 7.4 
		},
		"coords": [
			{
				"x": -0.2492853164,
				"y": 4.8661991127,
				"z": 0.7082375549,
				"element": "C" 
			},
			{
				"x": 0.2362647895,
				"y": 3.5497975702,
				"z": 0.092300704,
				"element": "C" 
			},
			{
				"x": -0.7679674055,
				"y": 2.9502963724,
				"z": -0.9028793806,
				"element": "C" 
			},
			{
				"x": -0.2940767463,
				"y": 1.6733337559,
				"z": -1.6140119549,
				"element": "C" 
			},
			{
				"x": -0.1405408586,
				"y": 0.4669244089,
				"z": -0.6787373705,
				"element": "C" 
			},
			{
				"x": 0.3333814473,
				"y": -0.7705546009,
				"z": -1.4228349768,
				"element": "C" 
			},
			{
				"x": 0.8485280148,
				"y": -0.7157422245,
				"z": -2.5292279476,
				"element": "O" 
			},
			{
				"x": 0.1581079765,
				"y": -2.029807535,
				"z": -0.8472137431,
				"element": "N" 
			},
			{
				"x": -0.4078184449,
				"y": -2.4897718386,
				"z": 0.3482218407,
				"element": "C" 
			},
			{
				"x": -0.4415573974,
				"y": -1.7486900117,
				"z": 1.5422153778,
				"element": "C" 
			},
			{
				"x": -1.0115696914,
				"y": -2.2932563332,
				"z": 2.6886600562,
				"element": "C" 
			},
			{
				"x": -1.5410494027,
				"y": -3.5919945222,
				"z": 2.6929458278,
				"element": "C" 
			},
			{
				"x": -1.4800594023,
				"y": -4.3391993059,
				"z": 1.5027466003,
				"element": "C" 
			},
			{
				"x": -0.9286180513,
				"y": -3.8011412144,
				"z": 0.354050924,
				"element": "C" 
			},
			{
				"x": -2.1320938409,
				"y": -4.2378037793,
				"z": 3.8923314997,
				"element": "C" 
			},
			{
				"x": -2.5203591891,
				"y": -5.396308238,
				"z": 3.8771865134,
				"element": "O" 
			},
			{
				"x": -2.2294930872,
				"y": -3.461901066,
				"z": 5.2105298284,
				"element": "C" 
			},
			{
				"x": -3.4494585556,
				"y": -2.1185665887,
				"z": 5.1252123069,
				"element": "Cl" 
			},
			{
				"x": -1.1901318248,
				"y": 4.7258467625,
				"z": 1.2526532486,
				"element": "H" 
			},
			{
				"x": -0.4260733441,
				"y": 5.622629557,
				"z": -0.0647726046,
				"element": "H" 
			},
			{
				"x": 0.4838958936,
				"y": 5.274250791,
				"z": 1.4114952339,
				"element": "H" 
			},
			{
				"x": 0.4429446159,
				"y": 2.8335768707,
				"z": 0.8985963741,
				"element": "H" 
			},
			{
				"x": 1.193917938,
				"y": 3.7149957434,
				"z": -0.4200999049,
				"element": "H" 
			},
			{
				"x": -1.7190591016,
				"y": 2.7552743062,
				"z": -0.386155755,
				"element": "H" 
			},
			{
				"x": -0.9926595629,
				"y": 3.7049608191,
				"z": -1.6681495727,
				"element": "H" 
			},
			{
				"x": 0.6602762726,
				"y": 1.8528800912,
				"z": -2.1199140395,
				"element": "H" 
			},
			{
				"x": -1.0058777405,
				"y": 1.4122338935,
				"z": -2.4051780271,
				"element": "H" 
			},
			{
				"x": 0.5940993333,
				"y": 0.6887631279,
				"z": 0.1063462963,
				"element": "H" 
			},
			{
				"x": -1.0840424133,
				"y": 0.2528190281,
				"z": -0.1627430009,
				"element": "H" 
			},
			{
				"x": 0.4126142413,
				"y": -2.7498632287,
				"z": -1.5138540521,
				"element": "H" 
			},
			{
				"x": -0.0057237826,
				"y": -0.7605655114,
				"z": 1.5906903142,
				"element": "H" 
			},
			{
				"x": -1.0343534312,
				"y": -1.6870912345,
				"z": 3.5877254792,
				"element": "H" 
			},
			{
				"x": -1.88278919,
				"y": -5.3463744251,
				"z": 1.5063677715,
				"element": "H" 
			},
			{
				"x": -0.9036593383,
				"y": -4.3854108591,
				"z": -0.5620663462,
				"element": "H" 
			},
			{
				"x": -2.5661600641,
				"y": -4.1530281094,
				"z": 5.9806744244,
				"element": "H" 
			},
			{
				"x": -1.27755334,
				"y": -3.0096115841,
				"z": 5.4957505002,
				"element": "H" 
			}
		],
		 "valence_orbital": [ 
			{
				"type": "occ",
				"energy": -0.30738,
				"method": "rhf"
			},
			{
				"type": "occ",
				"energy": -0.27553,
				"method": "rhf"
			},
			{
				"type": "occ",
				"energy": -0.2677,
				"method": "rhf"
			},
			{
				"type": "occ",
				"energy": -0.2627,
				"method": "rhf"
			},
			{
				"type": "occ",
				"energy": -0.23838,
				"method": "rhf"
			},
			{
				"type": "unocc",
				"energy": -0.07511,
				"method": "rhf"
			},
			{
				"type": "unocc",
				"energy": -0.02462,
				"method": "rhf"
			},
			{
				"type": "unocc",
				"energy": -0.01055,
				"method": "rhf"
			},
			{
				"type": "unocc",
				"energy": 0.01887,
				"method": "rhf"
			},
			{
				"type": "unocc",
				"energy": 0.05262,
				"method": "rhf"
			}
		],
		"cosmo_sigma_profile": { 
			"-0.025": 0.0,
			"-0.024": 0.0,
			"-0.023": 0.0,
			"-0.022": 0.0,
			"-0.021": 0.0,
			"-0.02": 0.0,
			"-0.019": 0.0,
			"-0.018": 0.0,
			"-0.017": 0.0,
			"-0.016": 0.0,
			"-0.015": 0.220531338112,
			"-0.014": 1.29171971486,
			"-0.013": 1.14318997186,
			"-0.012": 1.20314259538,
			"-0.011": 0.834454324292,
			"-0.01": 1.43612675514,
			"-0.009": 5.07960383898,
			"-0.008": 7.44132105924,
			"-0.007": 10.0722216561,
			"-0.006": 11.8637722724,
			"-0.005": 14.1177823855,
			"-0.004": 13.9971957104,
			"-0.003": 18.8008875574,
			"-0.002": 30.1396747866,
			"-0.001": 36.1134359887,
			"0.0": 35.5466244793,
			"0.001": 33.2171724393,
			"0.002": 24.9446905309,
			"0.003": 19.5295401512,
			"0.004": 12.0359723216,
			"0.005": 10.5811318958,
			"0.006": 6.45175629973,
			"0.007": 3.15142316547,
			"0.008": 2.12409959711,
			"0.009": 3.60698314622,
			"0.01": 4.49716665077,
			"0.011": 5.84829158463,
			"0.012": 4.93808386971,
			"0.013": 5.30390615875,
			"0.014": 0.60521158854,
			"0.015": 0.0,
			"0.016": 0.0,
			"0.017": 0.0,
			"0.018": 0.0,
			"0.019": 0.0,
			"0.02": 0.0,
			"0.021": 0.0,
			"0.022": 0.0,
			"0.023": 0.0,
			"0.024": 0.0,
			"0.025": 0.0
		}
	}
}
