{
	 "smiles": "ClC1=CC2=C(C=C1)C(CC#N)=CN2", 
	 "Tm": 373.15, 
	 "num_atms": 20, 
	 "gaussian": { 
		 "optdone": 1, 
		 "sigma_profile": "yes", 
		 "theory": "DFT", 
		 "functional": "B3LYP", 
		 "basiset": "6-31G**", 
		 "properties": { 
			 "R2extent": 3585.6521, 
			 "electric_dipole_moment_norm": 5.57448985648, 
			 "electric_quadrupole_moment_norm": 27.1268924844, 
			 "total_energy": -954.96520312, 
			 "HOMO_LUMO_gap": 0.19045, 
			 "cosmo_polarized_energy": -16.47, 
			 "cosmo_cavitation_energy": 27.31, 
			 "cosmo_dispersion_energy": -19.49, 
			 "cosmo_repulsion_energy": 1.55, 
			 "cosmo_total_nonelectrostatic_energy": 9.38, 
			 "SMD_solvation_energy": 5.56 
		},
		"coords": [
			{
				"x": 1.4461831275,
				"y": -3.3877296552,
				"z": -1.5538473002,
				"element": "Cl" 
			},
			{
				"x": 1.2021123076,
				"y": -1.802927605,
				"z": -0.8266716482,
				"element": "C" 
			},
			{
				"x": 0.8688755856,
				"y": -1.7296482157,
				"z": 0.5187287398,
				"element": "C" 
			},
			{
				"x": 0.6849802515,
				"y": -0.4476234346,
				"z": 1.0465967157,
				"element": "C" 
			},
			{
				"x": 0.8254694348,
				"y": 0.7304418771,
				"z": 0.2637986535,
				"element": "C" 
			},
			{
				"x": 1.1695664633,
				"y": 0.6053637978,
				"z": -1.0928549462,
				"element": "C" 
			},
			{
				"x": 1.3554090772,
				"y": -0.6592136312,
				"z": -1.6342798005,
				"element": "C" 
			},
			{
				"x": 0.5582392214,
				"y": 1.8462143374,
				"z": 1.1358146185,
				"element": "C" 
			},
			{
				"x": 0.5528870777,
				"y": 3.3069420439,
				"z": 0.7682599133,
				"element": "C" 
			},
			{
				"x": 1.8708985036,
				"y": 3.814337973,
				"z": 0.353576009,
				"element": "C" 
			},
			{
				"x": 2.9088801803,
				"y": 4.2101863658,
				"z": 0.0177301626,
				"element": "N" 
			},
			{
				"x": 0.2810969187,
				"y": 1.3247369167,
				"z": 2.3736195852,
				"element": "C" 
			},
			{
				"x": 0.3537116589,
				"y": -0.0536498081,
				"z": 2.3264123141,
				"element": "N" 
			},
			{
				"x": 0.760140692,
				"y": -2.6258906961,
				"z": 1.119219566,
				"element": "H" 
			},
			{
				"x": 1.3018801821,
				"y": 1.4844583192,
				"z": -1.7162488454,
				"element": "H" 
			},
			{
				"x": 1.6235140163,
				"y": -0.7793142885,
				"z": -2.6775396566,
				"element": "H" 
			},
			{
				"x": -0.1494964692,
				"y": 3.5014627538,
				"z": -0.0534564629,
				"element": "H" 
			},
			{
				"x": 0.2097077604,
				"y": 3.9087490476,
				"z": 1.6171743213,
				"element": "H" 
			},
			{
				"x": 0.0332388224,
				"y": 1.8325021638,
				"z": 3.2952544863,
				"element": "H" 
			},
			{
				"x": 0.191805188,
				"y": -0.6707982615,
				"z": 3.1053135744,
				"element": "H" 
			}
		],
		 "valence_orbital": [ 
			{
				"type": "occ",
				"energy": -0.3185,
				"method": "rhf"
			},
			{
				"type": "occ",
				"energy": -0.31082,
				"method": "rhf"
			},
			{
				"type": "occ",
				"energy": -0.28529,
				"method": "rhf"
			},
			{
				"type": "occ",
				"energy": -0.23727,
				"method": "rhf"
			},
			{
				"type": "occ",
				"energy": -0.21911,
				"method": "rhf"
			},
			{
				"type": "unocc",
				"energy": -0.02866,
				"method": "rhf"
			},
			{
				"type": "unocc",
				"energy": 0.00737,
				"method": "rhf"
			},
			{
				"type": "unocc",
				"energy": 0.02708,
				"method": "rhf"
			},
			{
				"type": "unocc",
				"energy": 0.03108,
				"method": "rhf"
			},
			{
				"type": "unocc",
				"energy": 0.03994,
				"method": "rhf"
			}
		],
		"cosmo_sigma_profile": { 
			"-0.025": 0.0,
			"-0.024": 0.0,
			"-0.023": 0.0,
			"-0.022": 0.0,
			"-0.021": 0.0,
			"-0.02": 0.0,
			"-0.019": 0.0,
			"-0.018": 0.0,
			"-0.017": 0.0729548729752,
			"-0.016": 1.45627509389,
			"-0.015": 1.59908120155,
			"-0.014": 1.30984999039,
			"-0.013": 1.58976941567,
			"-0.012": 1.03423006387,
			"-0.011": 1.38495511906,
			"-0.01": 1.50017057297,
			"-0.009": 5.41655939582,
			"-0.008": 10.6286934565,
			"-0.007": 9.87793166058,
			"-0.006": 11.4346865006,
			"-0.005": 11.0675172513,
			"-0.004": 8.78170210765,
			"-0.003": 7.64016379544,
			"-0.002": 9.44772957662,
			"-0.001": 8.22999236244,
			"0.0": 10.0618916852,
			"0.001": 11.5740233969,
			"0.002": 15.5842623313,
			"0.003": 24.3037620778,
			"0.004": 25.9031755277,
			"0.005": 17.4587757156,
			"0.006": 4.67338066238,
			"0.007": 2.15991329339,
			"0.008": 3.51175396286,
			"0.009": 3.46156756253,
			"0.01": 3.22842069509,
			"0.011": 2.94908193231,
			"0.012": 2.74140300696,
			"0.013": 1.92628390494,
			"0.014": 0.46854336877,
			"0.015": 0.0,
			"0.016": 0.0,
			"0.017": 0.0,
			"0.018": 0.0,
			"0.019": 0.0,
			"0.02": 0.0,
			"0.021": 0.0,
			"0.022": 0.0,
			"0.023": 0.0,
			"0.024": 0.0,
			"0.025": 0.0
		}
	}
}
