{
	 "smiles": "COC1=CC=C(NC(=O)C2=CC=CC=C2)C=C1", 
	 "Tm": 426.15, 
	 "num_atms": 30, 
	 "gaussian": { 
		 "optdone": 1, 
		 "sigma_profile": "yes", 
		 "theory": "DFT", 
		 "functional": "B3LYP", 
		 "basiset": "6-31G**", 
		 "properties": { 
			 "R2extent": 5089.5675, 
			 "electric_dipole_moment_norm": 4.34046490022, 
			 "electric_quadrupole_moment_norm": 19.6182755361, 
			 "total_energy": -746.524299059, 
			 "HOMO_LUMO_gap": 0.17632, 
			 "cosmo_polarized_energy": -13.52, 
			 "cosmo_cavitation_energy": 34.25, 
			 "cosmo_dispersion_energy": -24.29, 
			 "cosmo_repulsion_energy": 1.9, 
			 "cosmo_total_nonelectrostatic_energy": 11.86, 
			 "SMD_solvation_energy": 7.16 
		},
		"coords": [
			{
				"x": 2.033063645,
				"y": 0.2910905376,
				"z": -5.1936715957,
				"element": "C" 
			},
			{
				"x": 1.6658836495,
				"y": -0.6234437221,
				"z": -4.1735754239,
				"element": "O" 
			},
			{
				"x": 0.7103277226,
				"y": -0.2404406434,
				"z": -3.2773611325,
				"element": "C" 
			},
			{
				"x": 0.0595600085,
				"y": 0.9982927484,
				"z": -3.2832731467,
				"element": "C" 
			},
			{
				"x": -0.8949558012,
				"y": 1.2830649816,
				"z": -2.3033064895,
				"element": "C" 
			},
			{
				"x": -1.2306908106,
				"y": 0.3426227719,
				"z": -1.3265509122,
				"element": "C" 
			},
			{
				"x": -2.2495451735,
				"y": 0.6583369707,
				"z": -0.3849868935,
				"element": "N" 
			},
			{
				"x": -2.3846159255,
				"y": 0.2949036741,
				"z": 0.9435685043,
				"element": "C" 
			},
			{
				"x": -3.4979579896,
				"y": 0.2865626391,
				"z": 1.4598565946,
				"element": "O" 
			},
			{
				"x": -1.158179726,
				"y": -0.0190208143,
				"z": 1.7502158437,
				"element": "C" 
			},
			{
				"x": 0.0854556504,
				"y": 0.5911319125,
				"z": 1.5321447903,
				"element": "C" 
			},
			{
				"x": 1.1582625846,
				"y": 0.316621353,
				"z": 2.380161526,
				"element": "C" 
			},
			{
				"x": 1.0028131467,
				"y": -0.5751235284,
				"z": 3.4435182038,
				"element": "C" 
			},
			{
				"x": -0.2365380216,
				"y": -1.1790180889,
				"z": 3.6706478598,
				"element": "C" 
			},
			{
				"x": -1.3145885577,
				"y": -0.8914432817,
				"z": 2.8366399752,
				"element": "C" 
			},
			{
				"x": -0.590030532,
				"y": -0.9072680064,
				"z": -1.3435420878,
				"element": "C" 
			},
			{
				"x": 0.3789730311,
				"y": -1.1877793305,
				"z": -2.29639867,
				"element": "C" 
			},
			{
				"x": 2.7959981491,
				"y": -0.2118692632,
				"z": -5.7897445823,
				"element": "H" 
			},
			{
				"x": 2.4531513409,
				"y": 1.2160725047,
				"z": -4.7774715466,
				"element": "H" 
			},
			{
				"x": 1.180903998,
				"y": 0.5436109042,
				"z": -5.8381401264,
				"element": "H" 
			},
			{
				"x": 0.2901584084,
				"y": 1.7489376289,
				"z": -4.0296534153,
				"element": "H" 
			},
			{
				"x": -1.3842808162,
				"y": 2.2530436354,
				"z": -2.2972502629,
				"element": "H" 
			},
			{
				"x": -3.1398523411,
				"y": 0.9547689376,
				"z": -0.7681242673,
				"element": "H" 
			},
			{
				"x": 0.2123377361,
				"y": 1.2884384545,
				"z": 0.7115066401,
				"element": "H" 
			},
			{
				"x": 2.1156122781,
				"y": 0.800998206,
				"z": 2.2110753904,
				"element": "H" 
			},
			{
				"x": 1.8425630577,
				"y": -0.7927285805,
				"z": 4.0975183,
				"element": "H" 
			},
			{
				"x": -0.3640441215,
				"y": -1.8654417074,
				"z": 4.5027205403,
				"element": "H" 
			},
			{
				"x": -2.2928467106,
				"y": -1.3253197522,
				"z": 3.0145484781,
				"element": "H" 
			},
			{
				"x": -0.8550387435,
				"y": -1.6580752669,
				"z": -0.6071434973,
				"element": "H" 
			},
			{
				"x": 0.8828008637,
				"y": -2.1485258742,
				"z": -2.3138285965,
				"element": "H" 
			}
		],
		 "valence_orbital": [ 
			{
				"type": "occ",
				"energy": -0.26335,
				"method": "rhf"
			},
			{
				"type": "occ",
				"energy": -0.25771,
				"method": "rhf"
			},
			{
				"type": "occ",
				"energy": -0.25092,
				"method": "rhf"
			},
			{
				"type": "occ",
				"energy": -0.24154,
				"method": "rhf"
			},
			{
				"type": "occ",
				"energy": -0.21082,
				"method": "rhf"
			},
			{
				"type": "unocc",
				"energy": -0.0345,
				"method": "rhf"
			},
			{
				"type": "unocc",
				"energy": -0.01373,
				"method": "rhf"
			},
			{
				"type": "unocc",
				"energy": 0.00045,
				"method": "rhf"
			},
			{
				"type": "unocc",
				"energy": 0.00626,
				"method": "rhf"
			},
			{
				"type": "unocc",
				"energy": 0.06059,
				"method": "rhf"
			}
		],
		"cosmo_sigma_profile": { 
			"-0.025": 0.0,
			"-0.024": 0.0,
			"-0.023": 0.0,
			"-0.022": 0.0,
			"-0.021": 0.0,
			"-0.02": 0.0,
			"-0.019": 0.0,
			"-0.018": 0.0,
			"-0.017": 0.0,
			"-0.016": 0.0,
			"-0.015": 0.0,
			"-0.014": 0.52923043072,
			"-0.013": 1.03972017902,
			"-0.012": 1.03643242959,
			"-0.011": 0.71146062327,
			"-0.01": 0.508953689333,
			"-0.009": 1.56095572006,
			"-0.008": 0.867050743888,
			"-0.007": 3.11920182541,
			"-0.006": 18.1475056571,
			"-0.005": 26.5280241453,
			"-0.004": 27.5478037247,
			"-0.003": 22.5368577635,
			"-0.002": 17.5112484934,
			"-0.001": 16.0646320837,
			"0.0": 16.0577801231,
			"0.001": 16.4904907211,
			"0.002": 16.0736462395,
			"0.003": 20.1102417304,
			"0.004": 25.4783912339,
			"0.005": 14.0303936586,
			"0.006": 3.42688577443,
			"0.007": 3.02329302545,
			"0.008": 2.85702533962,
			"0.009": 2.49986106931,
			"0.01": 3.43579414157,
			"0.011": 1.86648098991,
			"0.012": 1.97555390475,
			"0.013": 5.28741525766,
			"0.014": 3.00222113084,
			"0.015": 0.0402834877783,
			"0.016": 0.0,
			"0.017": 0.0,
			"0.018": 0.0,
			"0.019": 0.0,
			"0.02": 0.0,
			"0.021": 0.0,
			"0.022": 0.0,
			"0.023": 0.0,
			"0.024": 0.0,
			"0.025": 0.0
		}
	}
}
