{
	 "smiles": "CC1=CC=C(OC2=C(NC(=O)CCl)C=C(Cl)C=C2)C=C1", 
	 "Tm": 361.15, 
	 "num_atms": 33, 
	 "gaussian": { 
		 "optdone": 1, 
		 "sigma_profile": "yes", 
		 "theory": "DFT", 
		 "functional": "B3LYP", 
		 "basiset": "6-31G**", 
		 "properties": { 
			 "R2extent": 10335.3842, 
			 "electric_dipole_moment_norm": 4.44813009477, 
			 "electric_quadrupole_moment_norm": 15.8873464616, 
			 "total_energy": -1705.03515769, 
			 "HOMO_LUMO_gap": 0.18828, 
			 "cosmo_polarized_energy": -10.91, 
			 "cosmo_cavitation_energy": 41.35, 
			 "cosmo_dispersion_energy": -29.17, 
			 "cosmo_repulsion_energy": 2.28, 
			 "cosmo_total_nonelectrostatic_energy": 14.46, 
			 "SMD_solvation_energy": 7.07 
		},
		"coords": [
			{
				"x": -2.5820701289,
				"y": -3.9120133793,
				"z": -0.6081383623,
				"element": "C" 
			},
			{
				"x": -1.9244099714,
				"y": -2.5917144748,
				"z": -0.2811896317,
				"element": "C" 
			},
			{
				"x": -2.6462854483,
				"y": -1.3919296093,
				"z": -0.3303366152,
				"element": "C" 
			},
			{
				"x": -2.0397247802,
				"y": -0.1672778359,
				"z": -0.0527030908,
				"element": "C" 
			},
			{
				"x": -0.6858577648,
				"y": -0.133448791,
				"z": 0.2746178491,
				"element": "C" 
			},
			{
				"x": -0.1141201868,
				"y": 1.1199254649,
				"z": 0.466875509,
				"element": "O" 
			},
			{
				"x": 0.774727725,
				"y": 1.3339733769,
				"z": 1.5029495098,
				"element": "C" 
			},
			{
				"x": 1.8060108178,
				"y": 2.2607283548,
				"z": 1.2439022359,
				"element": "C" 
			},
			{
				"x": 1.8501798186,
				"y": 2.8059958516,
				"z": -0.0514427888,
				"element": "N" 
			},
			{
				"x": 2.7393307053,
				"y": 3.7105800484,
				"z": -0.5444137258,
				"element": "C" 
			},
			{
				"x": 3.671191109,
				"y": 4.2150050646,
				"z": 0.0678159989,
				"element": "O" 
			},
			{
				"x": 2.5612995112,
				"y": 4.1456151313,
				"z": -2.0031323169,
				"element": "C" 
			},
			{
				"x": 1.1997197605,
				"y": 3.3918926191,
				"z": -2.9348154253,
				"element": "Cl" 
			},
			{
				"x": 2.7096596944,
				"y": 2.5852541069,
				"z": 2.2632061324,
				"element": "C" 
			},
			{
				"x": 2.5665966779,
				"y": 1.9781851399,
				"z": 3.5096980406,
				"element": "C" 
			},
			{
				"x": 3.709179162,
				"y": 2.3834008213,
				"z": 4.7835027067,
				"element": "Cl" 
			},
			{
				"x": 1.5489391856,
				"y": 1.0650124459,
				"z": 3.7741211557,
				"element": "C" 
			},
			{
				"x": 0.645475608,
				"y": 0.7495369807,
				"z": 2.758775212,
				"element": "C" 
			},
			{
				"x": 0.0622995308,
				"y": -1.3106352419,
				"z": 0.3272945386,
				"element": "C" 
			},
			{
				"x": -0.5650934647,
				"y": -2.5257852507,
				"z": 0.0553376189,
				"element": "C" 
			},
			{
				"x": -3.6517739581,
				"y": -3.8936907146,
				"z": -0.3793207157,
				"element": "H" 
			},
			{
				"x": -2.4813571366,
				"y": -4.1535555995,
				"z": -1.6737472439,
				"element": "H" 
			},
			{
				"x": -2.1306646287,
				"y": -4.7348337673,
				"z": -0.0455832314,
				"element": "H" 
			},
			{
				"x": -3.7031530718,
				"y": -1.4130718047,
				"z": -0.5835976807,
				"element": "H" 
			},
			{
				"x": -2.5994493579,
				"y": 0.7615995118,
				"z": -0.0865997196,
				"element": "H" 
			},
			{
				"x": 1.1221156118,
				"y": 2.4754088907,
				"z": -0.6745596114,
				"element": "H" 
			},
			{
				"x": 3.4837226867,
				"y": 3.9184267422,
				"z": -2.5380117977,
				"element": "H" 
			},
			{
				"x": 2.4039183369,
				"y": 5.2244821682,
				"z": -2.0176344143,
				"element": "H" 
			},
			{
				"x": 3.5016635169,
				"y": 3.2933670018,
				"z": 2.0682134818,
				"element": "H" 
			},
			{
				"x": 1.4564714235,
				"y": 0.6131624605,
				"z": 4.7547624981,
				"element": "H" 
			},
			{
				"x": -0.1606877575,
				"y": 0.0476766685,
				"z": 2.9402913889,
				"element": "H" 
			},
			{
				"x": 1.1168318915,
				"y": -1.2764323422,
				"z": 0.5798228662,
				"element": "H" 
			},
			{
				"x": 0.0193148823,
				"y": -3.4413400385,
				"z": 0.1002396291,
				"element": "H" 
			}
		],
		 "valence_orbital": [ 
			{
				"type": "occ",
				"energy": -0.26913,
				"method": "rhf"
			},
			{
				"type": "occ",
				"energy": -0.26357,
				"method": "rhf"
			},
			{
				"type": "occ",
				"energy": -0.25415,
				"method": "rhf"
			},
			{
				"type": "occ",
				"energy": -0.24204,
				"method": "rhf"
			},
			{
				"type": "occ",
				"energy": -0.21941,
				"method": "rhf"
			},
			{
				"type": "unocc",
				"energy": -0.03113,
				"method": "rhf"
			},
			{
				"type": "unocc",
				"energy": -0.01765,
				"method": "rhf"
			},
			{
				"type": "unocc",
				"energy": -0.01245,
				"method": "rhf"
			},
			{
				"type": "unocc",
				"energy": -0.00071,
				"method": "rhf"
			},
			{
				"type": "unocc",
				"energy": 0.00946,
				"method": "rhf"
			}
		],
		"cosmo_sigma_profile": { 
			"-0.025": 0.0,
			"-0.024": 0.0,
			"-0.023": 0.0,
			"-0.022": 0.0,
			"-0.021": 0.0,
			"-0.02": 0.0,
			"-0.019": 0.0,
			"-0.018": 0.0,
			"-0.017": 0.0,
			"-0.016": 0.0,
			"-0.015": 0.0,
			"-0.014": 0.0,
			"-0.013": 0.0,
			"-0.012": 0.0,
			"-0.011": 0.0,
			"-0.01": 0.594558259608,
			"-0.009": 4.28543392548,
			"-0.008": 4.12997426627,
			"-0.007": 8.31223880975,
			"-0.006": 13.2372390034,
			"-0.005": 19.546027299,
			"-0.004": 24.9417764782,
			"-0.003": 22.7109980548,
			"-0.002": 23.7479484067,
			"-0.001": 26.441641965,
			"0.0": 32.779894951,
			"0.001": 29.7380009733,
			"0.002": 32.2818757035,
			"0.003": 27.7638566201,
			"0.004": 23.7270081689,
			"0.005": 24.8998187256,
			"0.006": 3.59211923773,
			"0.007": 1.56871180056,
			"0.008": 1.91363194701,
			"0.009": 1.00283980734,
			"0.01": 1.89417195442,
			"0.011": 2.67722226351,
			"0.012": 2.75919748817,
			"0.013": 1.03057889459,
			"0.014": 0.0,
			"0.015": 0.0,
			"0.016": 0.0,
			"0.017": 0.0,
			"0.018": 0.0,
			"0.019": 0.0,
			"0.02": 0.0,
			"0.021": 0.0,
			"0.022": 0.0,
			"0.023": 0.0,
			"0.024": 0.0,
			"0.025": 0.0
		}
	}
}
