{
	 "smiles": "COC1=C(OC)C=C2C(C#N)N(CCC2=C1)C(=O)C1=CC=CC=C1", 
	 "Tm": 489.15, 
	 "num_atms": 42, 
	 "gaussian": { 
		 "optdone": 1, 
		 "sigma_profile": "yes", 
		 "theory": "DFT", 
		 "functional": "B3LYP", 
		 "basiset": "6-31G**", 
		 "properties": { 
			 "R2extent": 9503.8883, 
			 "electric_dipole_moment_norm": 3.60874734361, 
			 "electric_quadrupole_moment_norm": 29.2228930173, 
			 "total_energy": -1070.00879271, 
			 "HOMO_LUMO_gap": 0.17193, 
			 "cosmo_polarized_energy": -19.32, 
			 "cosmo_cavitation_energy": 45.67, 
			 "cosmo_dispersion_energy": -31.17, 
			 "cosmo_repulsion_energy": 2.38, 
			 "cosmo_total_nonelectrostatic_energy": 16.88, 
			 "SMD_solvation_energy": 10.07 
		},
		"coords": [
			{
				"x": -2.1429661517,
				"y": 1.2230602774,
				"z": -5.2737606953,
				"element": "C" 
			},
			{
				"x": -2.3698640993,
				"y": 1.6997489401,
				"z": -3.9572480994,
				"element": "O" 
			},
			{
				"x": -2.0051583425,
				"y": 0.9038287312,
				"z": -2.9174696324,
				"element": "C" 
			},
			{
				"x": -2.2606577693,
				"y": 1.4351278741,
				"z": -1.6235536408,
				"element": "C" 
			},
			{
				"x": -2.8345531033,
				"y": 2.6677580377,
				"z": -1.5964956919,
				"element": "O" 
			},
			{
				"x": -3.1404435103,
				"y": 3.2302772768,
				"z": -0.3307244109,
				"element": "C" 
			},
			{
				"x": -1.9153972497,
				"y": 0.6855260167,
				"z": -0.5071825328,
				"element": "C" 
			},
			{
				"x": -1.3233362808,
				"y": -0.5836650357,
				"z": -0.6414383964,
				"element": "C" 
			},
			{
				"x": -0.9485124186,
				"y": -1.3458439239,
				"z": 0.6354581675,
				"element": "C" 
			},
			{
				"x": -2.1681209914,
				"y": -1.7239199698,
				"z": 1.3964996838,
				"element": "C" 
			},
			{
				"x": -3.1159848086,
				"y": -2.0151707826,
				"z": 2.000646923,
				"element": "N" 
			},
			{
				"x": -0.1306852678,
				"y": -2.5252140582,
				"z": 0.3671393782,
				"element": "N" 
			},
			{
				"x": -0.572399121,
				"y": -3.3100601741,
				"z": -0.7907989962,
				"element": "C" 
			},
			{
				"x": -0.4434379503,
				"y": -2.482499192,
				"z": -2.0698491819,
				"element": "C" 
			},
			{
				"x": -1.0787571503,
				"y": -1.116994296,
				"z": -1.903809417,
				"element": "C" 
			},
			{
				"x": -1.4242254656,
				"y": -0.3531072665,
				"z": -3.0346828953,
				"element": "C" 
			},
			{
				"x": 1.1869652476,
				"y": -2.6594818118,
				"z": 0.7835752745,
				"element": "C" 
			},
			{
				"x": 1.971149184,
				"y": -3.3792044324,
				"z": 0.1732243459,
				"element": "O" 
			},
			{
				"x": 1.6221372322,
				"y": -1.9477540889,
				"z": 2.0341983233,
				"element": "C" 
			},
			{
				"x": 0.8251485661,
				"y": -1.8750443897,
				"z": 3.186693605,
				"element": "C" 
			},
			{
				"x": 1.3242115356,
				"y": -1.282879249,
				"z": 4.3479196529,
				"element": "C" 
			},
			{
				"x": 2.6160572374,
				"y": -0.7544227991,
				"z": 4.3654545385,
				"element": "C" 
			},
			{
				"x": 3.418399619,
				"y": -0.8357561295,
				"z": 3.2238236975,
				"element": "C" 
			},
			{
				"x": 2.9295425449,
				"y": -1.4417886144,
				"z": 2.0690551163,
				"element": "C" 
			},
			{
				"x": -2.6998151197,
				"y": 0.2978277288,
				"z": -5.4709397319,
				"element": "H" 
			},
			{
				"x": -2.5011475853,
				"y": 2.0073729254,
				"z": -5.9420039234,
				"element": "H" 
			},
			{
				"x": -1.0760271978,
				"y": 1.0463667259,
				"z": -5.4621830808,
				"element": "H" 
			},
			{
				"x": -3.8455387957,
				"y": 2.6037905382,
				"z": 0.230723175,
				"element": "H" 
			},
			{
				"x": -3.6020682451,
				"y": 4.1970711551,
				"z": -0.5360537041,
				"element": "H" 
			},
			{
				"x": -2.2365522459,
				"y": 3.3833865295,
				"z": 0.2736245218,
				"element": "H" 
			},
			{
				"x": -2.1080105946,
				"y": 1.0754021085,
				"z": 0.4863283245,
				"element": "H" 
			},
			{
				"x": -0.3755719528,
				"y": -0.6755719637,
				"z": 1.282441923,
				"element": "H" 
			},
			{
				"x": 0.0416173715,
				"y": -4.2082539001,
				"z": -0.8352443095,
				"element": "H" 
			},
			{
				"x": -1.6161298444,
				"y": -3.599256365,
				"z": -0.6198584946,
				"element": "H" 
			},
			{
				"x": -0.9092856397,
				"y": -3.016100253,
				"z": -2.9068880183,
				"element": "H" 
			},
			{
				"x": 0.6220952694,
				"y": -2.3801175196,
				"z": -2.3132586542,
				"element": "H" 
			},
			{
				"x": -1.2327676488,
				"y": -0.7699078024,
				"z": -4.0172149881,
				"element": "H" 
			},
			{
				"x": -0.1732842101,
				"y": -2.3022605653,
				"z": 3.188254904,
				"element": "H" 
			},
			{
				"x": 0.7048918454,
				"y": -1.2414175127,
				"z": 5.2390314627,
				"element": "H" 
			},
			{
				"x": 3.0005974856,
				"y": -0.2892056224,
				"z": 5.268559844,
				"element": "H" 
			},
			{
				"x": 4.4277770728,
				"y": -0.4351222911,
				"z": 3.2381526076,
				"element": "H" 
			},
			{
				"x": 3.550508549,
				"y": -1.5405248569,
				"z": 1.1848530263,
				"element": "H" 
			}
		],
		 "valence_orbital": [ 
			{
				"type": "occ",
				"energy": -0.26226,
				"method": "rhf"
			},
			{
				"type": "occ",
				"energy": -0.25684,
				"method": "rhf"
			},
			{
				"type": "occ",
				"energy": -0.24919,
				"method": "rhf"
			},
			{
				"type": "occ",
				"energy": -0.24226,
				"method": "rhf"
			},
			{
				"type": "occ",
				"energy": -0.2104,
				"method": "rhf"
			},
			{
				"type": "unocc",
				"energy": -0.03847,
				"method": "rhf"
			},
			{
				"type": "unocc",
				"energy": -0.01383,
				"method": "rhf"
			},
			{
				"type": "unocc",
				"energy": -0.00697,
				"method": "rhf"
			},
			{
				"type": "unocc",
				"energy": -0.00151,
				"method": "rhf"
			},
			{
				"type": "unocc",
				"energy": 0.02674,
				"method": "rhf"
			}
		],
		"cosmo_sigma_profile": { 
			"-0.025": 0.0,
			"-0.024": 0.0,
			"-0.023": 0.0,
			"-0.022": 0.0,
			"-0.021": 0.0,
			"-0.02": 0.0,
			"-0.019": 0.0,
			"-0.018": 0.0,
			"-0.017": 0.0,
			"-0.016": 0.0,
			"-0.015": 0.0,
			"-0.014": 0.0,
			"-0.013": 0.0,
			"-0.012": 0.0,
			"-0.011": 0.0987829564022,
			"-0.01": 1.23699737962,
			"-0.009": 1.45766569458,
			"-0.008": 1.98941204089,
			"-0.007": 5.40112485505,
			"-0.006": 23.3982128095,
			"-0.005": 40.3494056177,
			"-0.004": 40.4886763494,
			"-0.003": 39.086653506,
			"-0.002": 27.0400298631,
			"-0.001": 21.4343185981,
			"0.0": 16.9519574935,
			"0.001": 16.4372531906,
			"0.002": 20.0154136773,
			"0.003": 22.6018482953,
			"0.004": 24.811449829,
			"0.005": 9.63961429613,
			"0.006": 6.27118627522,
			"0.007": 5.93999350006,
			"0.008": 6.49690066838,
			"0.009": 6.51520041368,
			"0.01": 5.25062662966,
			"0.011": 6.23948437653,
			"0.012": 7.180991629,
			"0.013": 5.72087906475,
			"0.014": 1.925620269,
			"0.015": 0.270294210502,
			"0.016": 0.0,
			"0.017": 0.0,
			"0.018": 0.0,
			"0.019": 0.0,
			"0.02": 0.0,
			"0.021": 0.0,
			"0.022": 0.0,
			"0.023": 0.0,
			"0.024": 0.0,
			"0.025": 0.0
		}
	}
}
