{
	 "smiles": "COC(=O)C1=CC(C)=C(NC(C)=O)C=C1", 
	 "Tm": 406.15, 
	 "num_atms": 28, 
	 "gaussian": { 
		 "optdone": 1, 
		 "sigma_profile": "yes", 
		 "theory": "DFT", 
		 "functional": "B3LYP", 
		 "basiset": "6-31G**", 
		 "properties": { 
			 "R2extent": 4733.6056, 
			 "electric_dipole_moment_norm": 5.60240210892, 
			 "electric_quadrupole_moment_norm": 13.834895266, 
			 "total_energy": -707.470584523, 
			 "HOMO_LUMO_gap": 0.18287, 
			 "cosmo_polarized_energy": -16.41, 
			 "cosmo_cavitation_energy": 32.16, 
			 "cosmo_dispersion_energy": -23.32, 
			 "cosmo_repulsion_energy": 1.83, 
			 "cosmo_total_nonelectrostatic_energy": 10.67, 
			 "SMD_solvation_energy": 7.81 
		},
		"coords": [
			{
				"x": 3.7517472574,
				"y": -2.2221997399,
				"z": 2.6241536392,
				"element": "C" 
			},
			{
				"x": 2.4361803399,
				"y": -1.8047733663,
				"z": 2.2341151002,
				"element": "O" 
			},
			{
				"x": 2.3707369255,
				"y": -1.1410635818,
				"z": 1.0523824322,
				"element": "C" 
			},
			{
				"x": 3.352336188,
				"y": -0.9144561442,
				"z": 0.3703715752,
				"element": "O" 
			},
			{
				"x": 0.9858438779,
				"y": -0.735180624,
				"z": 0.7030227194,
				"element": "C" 
			},
			{
				"x": -0.1146123473,
				"y": -1.0202198504,
				"z": 1.5220876535,
				"element": "C" 
			},
			{
				"x": -1.405332136,
				"y": -0.62922054,
				"z": 1.173835999,
				"element": "C" 
			},
			{
				"x": -2.5676272003,
				"y": -0.9548122504,
				"z": 2.0840693641,
				"element": "C" 
			},
			{
				"x": -1.5942261577,
				"y": 0.0736704698,
				"z": -0.0425026862,
				"element": "C" 
			},
			{
				"x": -2.9076063214,
				"y": 0.4583194232,
				"z": -0.3733266308,
				"element": "N" 
			},
			{
				"x": -3.3665222916,
				"y": 1.1426065093,
				"z": -1.4848307824,
				"element": "C" 
			},
			{
				"x": -4.8745442763,
				"y": 1.3528084049,
				"z": -1.5087360822,
				"element": "C" 
			},
			{
				"x": -2.6530354591,
				"y": 1.5431981848,
				"z": -2.3909454879,
				"element": "O" 
			},
			{
				"x": -0.4963081229,
				"y": 0.3640963464,
				"z": -0.8700844817,
				"element": "C" 
			},
			{
				"x": 0.7781209449,
				"y": -0.0402635431,
				"z": -0.4933741591,
				"element": "C" 
			},
			{
				"x": 4.1783238115,
				"y": -2.9010954579,
				"z": 1.8811790065,
				"element": "H" 
			},
			{
				"x": 4.4153121737,
				"y": -1.3601501519,
				"z": 2.7309175709,
				"element": "H" 
			},
			{
				"x": 3.6286252903,
				"y": -2.7307770908,
				"z": 3.5806468027,
				"element": "H" 
			},
			{
				"x": 0.0431059039,
				"y": -1.5586519934,
				"z": 2.4502806518,
				"element": "H" 
			},
			{
				"x": -2.2222982117,
				"y": -1.4962467582,
				"z": 2.9674780788,
				"element": "H" 
			},
			{
				"x": -3.3168399657,
				"y": -1.5891861495,
				"z": 1.5911081611,
				"element": "H" 
			},
			{
				"x": -3.081519512,
				"y": -0.0519238864,
				"z": 2.4409613678,
				"element": "H" 
			},
			{
				"x": -3.6148672741,
				"y": 0.1919559106,
				"z": 0.2934826617,
				"element": "H" 
			},
			{
				"x": -5.300398212,
				"y": 0.749962902,
				"z": -2.3166752211,
				"element": "H" 
			},
			{
				"x": -5.0732311625,
				"y": 2.400651474,
				"z": -1.7447675467,
				"element": "H" 
			},
			{
				"x": -5.3806763134,
				"y": 1.0943341075,
				"z": -0.5743017348,
				"element": "H" 
			},
			{
				"x": -0.6626684477,
				"y": 0.9012228817,
				"z": -1.7924009128,
				"element": "H" 
			},
			{
				"x": 1.6328806988,
				"y": 0.1782945142,
				"z": -1.1243470585,
				"element": "H" 
			}
		],
		 "valence_orbital": [ 
			{
				"type": "occ",
				"energy": -0.29514,
				"method": "rhf"
			},
			{
				"type": "occ",
				"energy": -0.26705,
				"method": "rhf"
			},
			{
				"type": "occ",
				"energy": -0.25855,
				"method": "rhf"
			},
			{
				"type": "occ",
				"energy": -0.25137,
				"method": "rhf"
			},
			{
				"type": "occ",
				"energy": -0.22581,
				"method": "rhf"
			},
			{
				"type": "unocc",
				"energy": -0.04294,
				"method": "rhf"
			},
			{
				"type": "unocc",
				"energy": -0.00295,
				"method": "rhf"
			},
			{
				"type": "unocc",
				"energy": 0.01774,
				"method": "rhf"
			},
			{
				"type": "unocc",
				"energy": 0.05689,
				"method": "rhf"
			},
			{
				"type": "unocc",
				"energy": 0.07492,
				"method": "rhf"
			}
		],
		"cosmo_sigma_profile": { 
			"-0.025": 0.0,
			"-0.024": 0.0,
			"-0.023": 0.0,
			"-0.022": 0.0,
			"-0.021": 0.0,
			"-0.02": 0.0,
			"-0.019": 0.0,
			"-0.018": 0.0,
			"-0.017": 0.0,
			"-0.016": 0.0,
			"-0.015": 0.0,
			"-0.014": 0.551251858367,
			"-0.013": 1.23356340011,
			"-0.012": 1.49447061857,
			"-0.011": 1.57643579281,
			"-0.01": 2.02032172306,
			"-0.009": 1.36203638448,
			"-0.008": 1.89239635123,
			"-0.007": 2.98279477078,
			"-0.006": 13.8505726957,
			"-0.005": 19.165710399,
			"-0.004": 21.6050176397,
			"-0.003": 25.1724351829,
			"-0.002": 22.1711789962,
			"-0.001": 20.3414402959,
			"0.0": 15.8075560121,
			"0.001": 16.2760613628,
			"0.002": 15.7825526838,
			"0.003": 16.1530791181,
			"0.004": 15.4286409822,
			"0.005": 5.34415631194,
			"0.006": 5.85785108122,
			"0.007": 3.03438294526,
			"0.008": 2.6430761101,
			"0.009": 3.64972373652,
			"0.01": 2.99610864849,
			"0.011": 4.45098259261,
			"0.012": 7.76079018944,
			"0.013": 3.53111885156,
			"0.014": 1.23572369902,
			"0.015": 0.0374410008556,
			"0.016": 0.0,
			"0.017": 0.0,
			"0.018": 0.0,
			"0.019": 0.0,
			"0.02": 0.0,
			"0.021": 0.0,
			"0.022": 0.0,
			"0.023": 0.0,
			"0.024": 0.0,
			"0.025": 0.0
		}
	}
}
