{
	 "smiles": "OC(=O)CCCC1=NC(=NO1)C1=CC=C(Cl)C=C1", 
	 "Tm": 382.15, 
	 "num_atms": 29, 
	 "gaussian": { 
		 "optdone": 1, 
		 "sigma_profile": "yes", 
		 "theory": "DFT", 
		 "functional": "B3LYP", 
		 "basiset": "6-31G**", 
		 "properties": { 
			 "R2extent": 7626.2619, 
			 "electric_dipole_moment_norm": 4.86706976116, 
			 "electric_quadrupole_moment_norm": 23.8367932147, 
			 "total_energy": -1259.26484866, 
			 "HOMO_LUMO_gap": 0.18606, 
			 "cosmo_polarized_energy": -17.09, 
			 "cosmo_cavitation_energy": 35.14, 
			 "cosmo_dispersion_energy": -25.63, 
			 "cosmo_repulsion_energy": 1.96, 
			 "cosmo_total_nonelectrostatic_energy": 11.47, 
			 "SMD_solvation_energy": 6.0 
		},
		"coords": [
			{
				"x": -1.8300196432,
				"y": 2.2818088598,
				"z": -2.020149881,
				"element": "O" 
			},
			{
				"x": -1.2639591972,
				"y": 2.441971723,
				"z": -3.2350553152,
				"element": "C" 
			},
			{
				"x": -1.9237571858,
				"y": 2.738475161,
				"z": -4.2024795393,
				"element": "O" 
			},
			{
				"x": 0.2499416131,
				"y": 2.222311283,
				"z": -3.2843966461,
				"element": "C" 
			},
			{
				"x": 1.0519640421,
				"y": 3.1355036433,
				"z": -2.3142126008,
				"element": "C" 
			},
			{
				"x": 2.0382124936,
				"y": 2.3900233626,
				"z": -1.401635025,
				"element": "C" 
			},
			{
				"x": 1.3689272087,
				"y": 1.5132434248,
				"z": -0.3927648246,
				"element": "C" 
			},
			{
				"x": 0.0980778383,
				"y": 1.2624234912,
				"z": -0.2432018487,
				"element": "N" 
			},
			{
				"x": 0.0675205288,
				"y": 0.3914141024,
				"z": 0.8354931688,
				"element": "C" 
			},
			{
				"x": 1.2583893799,
				"y": 0.1248259263,
				"z": 1.321292472,
				"element": "N" 
			},
			{
				"x": 2.1260441524,
				"y": 0.8729579059,
				"z": 0.5047636022,
				"element": "O" 
			},
			{
				"x": -1.1649925772,
				"y": -0.1848071083,
				"z": 1.3860803568,
				"element": "C" 
			},
			{
				"x": -2.396129616,
				"y": 0.0099466783,
				"z": 0.7429471922,
				"element": "C" 
			},
			{
				"x": -3.5609398395,
				"y": -0.5446898792,
				"z": 1.2689843334,
				"element": "C" 
			},
			{
				"x": -3.490584422,
				"y": -1.2963211919,
				"z": 2.441372998,
				"element": "C" 
			},
			{
				"x": -4.9537475339,
				"y": -1.9946377807,
				"z": 3.1079569332,
				"element": "Cl" 
			},
			{
				"x": -2.2735529204,
				"y": -1.5032025488,
				"z": 3.0954682806,
				"element": "C" 
			},
			{
				"x": -1.1154606432,
				"y": -0.9466412352,
				"z": 2.5653400001,
				"element": "C" 
			},
			{
				"x": -1.1645758163,
				"y": 1.9737743241,
				"z": -1.3588700401,
				"element": "H" 
			},
			{
				"x": 0.5581922371,
				"y": 2.3822482022,
				"z": -4.3183912409,
				"element": "H" 
			},
			{
				"x": 0.4354003802,
				"y": 1.166173035,
				"z": -3.0513053456,
				"element": "H" 
			},
			{
				"x": 1.6244962715,
				"y": 3.8629195726,
				"z": -2.8961580632,
				"element": "H" 
			},
			{
				"x": 0.3697073522,
				"y": 3.7199121541,
				"z": -1.6886425096,
				"element": "H" 
			},
			{
				"x": 2.6720118381,
				"y": 3.1010980733,
				"z": -0.8580665046,
				"element": "H" 
			},
			{
				"x": 2.723541537,
				"y": 1.7681853964,
				"z": -1.9922879045,
				"element": "H" 
			},
			{
				"x": -2.4540666441,
				"y": 0.5873797141,
				"z": -0.1729575027,
				"element": "H" 
			},
			{
				"x": -4.5131230109,
				"y": -0.395657697,
				"z": 0.772832304,
				"element": "H" 
			},
			{
				"x": -2.2387837544,
				"y": -2.0897683661,
				"z": 4.0064976024,
				"element": "H" 
			},
			{
				"x": -0.164434069,
				"y": -1.0975702261,
				"z": 3.064745548,
				"element": "H" 
			}
		],
		 "valence_orbital": [ 
			{
				"type": "occ",
				"energy": -0.31519,
				"method": "rhf"
			},
			{
				"type": "occ",
				"energy": -0.29856,
				"method": "rhf"
			},
			{
				"type": "occ",
				"energy": -0.27944,
				"method": "rhf"
			},
			{
				"type": "occ",
				"energy": -0.2561,
				"method": "rhf"
			},
			{
				"type": "occ",
				"energy": -0.25498,
				"method": "rhf"
			},
			{
				"type": "unocc",
				"energy": -0.06892,
				"method": "rhf"
			},
			{
				"type": "unocc",
				"energy": -0.03519,
				"method": "rhf"
			},
			{
				"type": "unocc",
				"energy": -0.02502,
				"method": "rhf"
			},
			{
				"type": "unocc",
				"energy": 0.01685,
				"method": "rhf"
			},
			{
				"type": "unocc",
				"energy": 0.02125,
				"method": "rhf"
			}
		],
		"cosmo_sigma_profile": { 
			"-0.025": 0.0,
			"-0.024": 0.0,
			"-0.023": 0.0,
			"-0.022": 0.0,
			"-0.021": 0.0,
			"-0.02": 0.0,
			"-0.019": 0.0,
			"-0.018": 0.0,
			"-0.017": 0.0,
			"-0.016": 0.0,
			"-0.015": 0.0,
			"-0.014": 0.0,
			"-0.013": 0.0,
			"-0.012": 0.0,
			"-0.011": 0.0,
			"-0.01": 0.0,
			"-0.009": 0.0158364612495,
			"-0.008": 6.32977020852,
			"-0.007": 15.2891908134,
			"-0.006": 16.4045621952,
			"-0.005": 26.9086974593,
			"-0.004": 23.2280952785,
			"-0.003": 20.4937487161,
			"-0.002": 19.4778449011,
			"-0.001": 17.0313817898,
			"0.0": 19.1344995966,
			"0.001": 20.2873934353,
			"0.002": 23.4876448563,
			"0.003": 14.3730158027,
			"0.004": 13.2237616862,
			"0.005": 7.73354920228,
			"0.006": 5.69957646018,
			"0.007": 4.00799522279,
			"0.008": 4.11605202833,
			"0.009": 3.65017526126,
			"0.01": 3.93020437385,
			"0.011": 5.55389400177,
			"0.012": 7.07376064886,
			"0.013": 4.72427396671,
			"0.014": 1.51358839764,
			"0.015": 0.0,
			"0.016": 0.0,
			"0.017": 0.0,
			"0.018": 0.0,
			"0.019": 0.0,
			"0.02": 0.0,
			"0.021": 0.0,
			"0.022": 0.0,
			"0.023": 0.0,
			"0.024": 0.0,
			"0.025": 0.0
		}
	}
}
