{
	 "smiles": "CN1CC(=O)NC2=C1N=CC=C2", 
	 "Tm": 435.15, 
	 "num_atms": 21, 
	 "gaussian": { 
		 "optdone": 1, 
		 "sigma_profile": "yes", 
		 "theory": "DFT", 
		 "functional": "B3LYP", 
		 "basiset": "6-31G**", 
		 "properties": { 
			 "R2extent": 2378.9547, 
			 "electric_dipole_moment_norm": 1.7924010405, 
			 "electric_quadrupole_moment_norm": 18.30346736, 
			 "total_energy": -549.76914618, 
			 "HOMO_LUMO_gap": 0.17813, 
			 "cosmo_polarized_energy": -12.66, 
			 "cosmo_cavitation_energy": 24.28, 
			 "cosmo_dispersion_energy": -18.41, 
			 "cosmo_repulsion_energy": 1.45, 
			 "cosmo_total_nonelectrostatic_energy": 7.32, 
			 "SMD_solvation_energy": 2.95 
		},
		"coords": [
			{
				"x": -0.2052329732,
				"y": -0.8028167195,
				"z": -1.9881408407,
				"element": "C" 
			},
			{
				"x": -0.6237976958,
				"y": -0.7361944906,
				"z": -0.5960756666,
				"element": "N" 
			},
			{
				"x": -1.9617475432,
				"y": -1.241488874,
				"z": -0.3198482274,
				"element": "C" 
			},
			{
				"x": -2.4608261655,
				"y": -0.9192222677,
				"z": 1.0843043841,
				"element": "C" 
			},
			{
				"x": -3.6477140311,
				"y": -0.8562020726,
				"z": 1.3578771826,
				"element": "O" 
			},
			{
				"x": -1.4726225197,
				"y": -0.7578157317,
				"z": 2.022458857,
				"element": "N" 
			},
			{
				"x": -0.0988392126,
				"y": -0.8464924114,
				"z": 1.7551525354,
				"element": "C" 
			},
			{
				"x": 0.3335104705,
				"y": -0.8422499985,
				"z": 0.4012626361,
				"element": "C" 
			},
			{
				"x": 1.6243351742,
				"y": -0.8810439139,
				"z": 0.0703753564,
				"element": "N" 
			},
			{
				"x": 2.5377958438,
				"y": -0.9183489201,
				"z": 1.0542584991,
				"element": "C" 
			},
			{
				"x": 2.2129786924,
				"y": -0.9385060059,
				"z": 2.4039595312,
				"element": "C" 
			},
			{
				"x": 0.8576543424,
				"y": -0.9041727487,
				"z": 2.7564415864,
				"element": "C" 
			},
			{
				"x": 0.7356403667,
				"y": -0.2680271524,
				"z": -2.1078712817,
				"element": "H" 
			},
			{
				"x": -0.0548558058,
				"y": -1.838462578,
				"z": -2.3301548841,
				"element": "H" 
			},
			{
				"x": -0.9762602505,
				"y": -0.3380712301,
				"z": -2.6101714023,
				"element": "H" 
			},
			{
				"x": -2.6717509304,
				"y": -0.7898568466,
				"z": -1.0174184121,
				"element": "H" 
			},
			{
				"x": -2.0329222607,
				"y": -2.3375915937,
				"z": -0.4553716406,
				"element": "H" 
			},
			{
				"x": -1.7909497571,
				"y": -0.6041541316,
				"z": 2.9711638419,
				"element": "H" 
			},
			{
				"x": 3.576993705,
				"y": -0.938024955,
				"z": 0.7329674316,
				"element": "H" 
			},
			{
				"x": 2.9860739689,
				"y": -0.9796609411,
				"z": 3.1631333458,
				"element": "H" 
			},
			{
				"x": 0.5499365817,
				"y": -0.9102964168,
				"z": 3.7990971678,
				"element": "H" 
			}
		],
		 "valence_orbital": [ 
			{
				"type": "occ",
				"energy": -0.30366,
				"method": "rhf"
			},
			{
				"type": "occ",
				"energy": -0.26616,
				"method": "rhf"
			},
			{
				"type": "occ",
				"energy": -0.26162,
				"method": "rhf"
			},
			{
				"type": "occ",
				"energy": -0.25083,
				"method": "rhf"
			},
			{
				"type": "occ",
				"energy": -0.20084,
				"method": "rhf"
			},
			{
				"type": "unocc",
				"energy": -0.02271,
				"method": "rhf"
			},
			{
				"type": "unocc",
				"energy": -0.00579,
				"method": "rhf"
			},
			{
				"type": "unocc",
				"energy": 0.03093,
				"method": "rhf"
			},
			{
				"type": "unocc",
				"energy": 0.07762,
				"method": "rhf"
			},
			{
				"type": "unocc",
				"energy": 0.09673,
				"method": "rhf"
			}
		],
		"cosmo_sigma_profile": { 
			"-0.025": 0.0,
			"-0.024": 0.0,
			"-0.023": 0.0,
			"-0.022": 0.0,
			"-0.021": 0.0,
			"-0.02": 0.0,
			"-0.019": 0.0,
			"-0.018": 0.0,
			"-0.017": 0.0,
			"-0.016": 0.158213855448,
			"-0.015": 1.22642097425,
			"-0.014": 1.20990703673,
			"-0.013": 1.10425284649,
			"-0.012": 1.62748614538,
			"-0.011": 1.03617129933,
			"-0.01": 1.0365406672,
			"-0.009": 1.13126062222,
			"-0.008": 1.71928567295,
			"-0.007": 5.3337153115,
			"-0.006": 11.3308201959,
			"-0.005": 14.1684588094,
			"-0.004": 16.9865619951,
			"-0.003": 15.6803334742,
			"-0.002": 15.1362419007,
			"-0.001": 13.0134826106,
			"0.0": 9.91804914153,
			"0.001": 12.3911373521,
			"0.002": 10.8577687119,
			"0.003": 10.7952717883,
			"0.004": 11.3311685012,
			"0.005": 5.38410316494,
			"0.006": 3.9206724999,
			"0.007": 2.86750904245,
			"0.008": 2.96619040669,
			"0.009": 2.40724294477,
			"0.01": 2.34970638101,
			"0.011": 3.25569775975,
			"0.012": 4.56249095345,
			"0.013": 6.08220010609,
			"0.014": 2.07116440152,
			"0.015": 0.0,
			"0.016": 0.0,
			"0.017": 0.0,
			"0.018": 0.0,
			"0.019": 0.0,
			"0.02": 0.0,
			"0.021": 0.0,
			"0.022": 0.0,
			"0.023": 0.0,
			"0.024": 0.0,
			"0.025": 0.0
		}
	}
}
