{
	 "smiles": "CC#C", 
	 "Tm": 170.15, 
	 "num_atms": 7, 
	 "gaussian": { 
		 "optdone": 1, 
		 "sigma_profile": "yes", 
		 "theory": "DFT", 
		 "functional": "B3LYP", 
		 "basiset": "6-31G**", 
		 "properties": { 
			 "R2extent": 730.9758, 
			 "electric_dipole_moment_norm": 0.715446441042, 
			 "electric_quadrupole_moment_norm": 3.18667692903, 
			 "total_energy": -116.65681531, 
			 "HOMO_LUMO_gap": 0.32071, 
			 "cosmo_polarized_energy": -3.59, 
			 "cosmo_cavitation_energy": 11.12, 
			 "cosmo_dispersion_energy": -7.64, 
			 "cosmo_repulsion_energy": 0.73, 
			 "cosmo_total_nonelectrostatic_energy": 4.2, 
			 "SMD_solvation_energy": 3.84 
		},
		"coords": [
			{
				"x": 1.7276642947,
				"y": -1.7332276945,
				"z": -0.3274373035,
				"element": "C" 
			},
			{
				"x": 0.9690531733,
				"y": -2.4714044241,
				"z": 0.6773748508,
				"element": "C" 
			},
			{
				"x": 0.3414699191,
				"y": -3.0820845865,
				"z": 1.5086519017,
				"element": "C" 
			},
			{
				"x": 2.3130701735,
				"y": -0.9286629767,
				"z": 0.1311616623,
				"element": "H" 
			},
			{
				"x": 1.0627292832,
				"y": -1.2799860859,
				"z": -1.0709232005,
				"element": "H" 
			},
			{
				"x": 2.4239107531,
				"y": -2.3909369954,
				"z": -0.8594113776,
				"element": "H" 
			},
			{
				"x": -0.2120975968,
				"y": -3.6207972368,
				"z": 2.2418834666,
				"element": "H" 
			}
		],
		 "valence_orbital": [ 
			{
				"type": "occ",
				"energy": -0.44898,
				"method": "rhf"
			},
			{
				"type": "occ",
				"energy": -0.42859,
				"method": "rhf"
			},
			{
				"type": "occ",
				"energy": -0.42858,
				"method": "rhf"
			},
			{
				"type": "occ",
				"energy": -0.25931,
				"method": "rhf"
			},
			{
				"type": "occ",
				"energy": -0.25931,
				"method": "rhf"
			},
			{
				"type": "unocc",
				"energy": 0.0614,
				"method": "rhf"
			},
			{
				"type": "unocc",
				"energy": 0.0614,
				"method": "rhf"
			},
			{
				"type": "unocc",
				"energy": 0.11003,
				"method": "rhf"
			},
			{
				"type": "unocc",
				"energy": 0.13381,
				"method": "rhf"
			},
			{
				"type": "unocc",
				"energy": 0.18261,
				"method": "rhf"
			}
		],
		"cosmo_sigma_profile": { 
			"-0.025": 0.0,
			"-0.024": 0.0,
			"-0.023": 0.0,
			"-0.022": 0.0,
			"-0.021": 0.0,
			"-0.02": 0.0,
			"-0.019": 0.0,
			"-0.018": 0.0,
			"-0.017": 0.0,
			"-0.016": 0.0,
			"-0.015": 0.0,
			"-0.014": 0.0,
			"-0.013": 0.0,
			"-0.012": 0.0,
			"-0.011": 0.758229071509,
			"-0.01": 1.26688622358,
			"-0.009": 1.28151757418,
			"-0.008": 1.13693752751,
			"-0.007": 1.04854753979,
			"-0.006": 5.13376728194,
			"-0.005": 7.0623816305,
			"-0.004": 7.21716738427,
			"-0.003": 7.44731415969,
			"-0.002": 8.95452898551,
			"-0.001": 6.771269526,
			"0.0": 3.94928871917,
			"0.001": 3.50006851869,
			"0.002": 3.15938027092,
			"0.003": 3.53359605407,
			"0.004": 5.02217481019,
			"0.005": 3.22359979365,
			"0.006": 5.37161452614,
			"0.007": 7.78156466164,
			"0.008": 5.89135327107,
			"0.009": 0.0,
			"0.01": 0.0,
			"0.011": 0.0,
			"0.012": 0.0,
			"0.013": 0.0,
			"0.014": 0.0,
			"0.015": 0.0,
			"0.016": 0.0,
			"0.017": 0.0,
			"0.018": 0.0,
			"0.019": 0.0,
			"0.02": 0.0,
			"0.021": 0.0,
			"0.022": 0.0,
			"0.023": 0.0,
			"0.024": 0.0,
			"0.025": 0.0
		}
	}
}
