{
	 "smiles": "COC1=CC(N)=CC(OC)=C1OC", 
	 "Tm": 384.65, 
	 "num_atms": 26, 
	 "gaussian": { 
		 "optdone": 1, 
		 "sigma_profile": "yes", 
		 "theory": "DFT", 
		 "functional": "B3LYP", 
		 "basiset": "6-31G**", 
		 "properties": { 
			 "R2extent": 3009.9839, 
			 "electric_dipole_moment_norm": 2.05836570123, 
			 "electric_quadrupole_moment_norm": 12.9907331887, 
			 "total_energy": -631.164429832, 
			 "HOMO_LUMO_gap": 0.20636, 
			 "cosmo_polarized_energy": -11.36, 
			 "cosmo_cavitation_energy": 29.27, 
			 "cosmo_dispersion_energy": -20.69, 
			 "cosmo_repulsion_energy": 1.68, 
			 "cosmo_total_nonelectrostatic_energy": 10.26, 
			 "SMD_solvation_energy": 7.31 
		},
		"coords": [
			{
				"x": 0.7736545653,
				"y": -0.7298111303,
				"z": -2.7414385774,
				"element": "C" 
			},
			{
				"x": -0.6311414885,
				"y": -0.6269482439,
				"z": -2.490519965,
				"element": "O" 
			},
			{
				"x": -0.9844928742,
				"y": -0.330904085,
				"z": -1.1941508999,
				"element": "C" 
			},
			{
				"x": -1.6592998526,
				"y": 0.866032989,
				"z": -0.9568871376,
				"element": "C" 
			},
			{
				"x": -2.1162014918,
				"y": 1.18246794,
				"z": 0.3319694738,
				"element": "C" 
			},
			{
				"x": -2.8562747091,
				"y": 2.34679799,
				"z": 0.5570250739,
				"element": "N" 
			},
			{
				"x": -1.8534452947,
				"y": 0.2903240946,
				"z": 1.3831677126,
				"element": "C" 
			},
			{
				"x": -1.1786225517,
				"y": -0.9062409489,
				"z": 1.1437895111,
				"element": "C" 
			},
			{
				"x": -1.0202201185,
				"y": -1.7794100787,
				"z": 2.19513406,
				"element": "O" 
			},
			{
				"x": 0.3313059952,
				"y": -2.04214134,
				"z": 2.5840406098,
				"element": "C" 
			},
			{
				"x": -0.7377126804,
				"y": -1.2361453634,
				"z": -0.1485971644,
				"element": "C" 
			},
			{
				"x": -0.0882660427,
				"y": -2.4340240595,
				"z": -0.3893443,
				"element": "O" 
			},
			{
				"x": -0.9786833774,
				"y": -3.5020811612,
				"z": -0.7329482259,
				"element": "C" 
			},
			{
				"x": 1.2782571844,
				"y": 0.2204776372,
				"z": -2.5225997348,
				"element": "H" 
			},
			{
				"x": 1.228227871,
				"y": -1.5298859849,
				"z": -2.1508633283,
				"element": "H" 
			},
			{
				"x": 0.8761084752,
				"y": -0.9516906821,
				"z": -3.8060140057,
				"element": "H" 
			},
			{
				"x": -1.8408942075,
				"y": 1.5300698135,
				"z": -1.7963964258,
				"element": "H" 
			},
			{
				"x": -2.8317667359,
				"y": 2.6894744057,
				"z": 1.5075972744,
				"element": "H" 
			},
			{
				"x": -2.6974343647,
				"y": 3.087871733,
				"z": -0.1117024606,
				"element": "H" 
			},
			{
				"x": -2.1886133615,
				"y": 0.4990904885,
				"z": 2.3944927124,
				"element": "H" 
			},
			{
				"x": 0.900213089,
				"y": -2.499788262,
				"z": 1.7701583028,
				"element": "H" 
			},
			{
				"x": 0.8295644412,
				"y": -1.1183865407,
				"z": 2.9064992509,
				"element": "H" 
			},
			{
				"x": 0.2749992987,
				"y": -2.7314194633,
				"z": 3.4294838801,
				"element": "H" 
			},
			{
				"x": -0.3565867071,
				"y": -4.3851867418,
				"z": -0.8977008802,
				"element": "H" 
			},
			{
				"x": -1.5318149204,
				"y": -3.2685714095,
				"z": -1.6498713386,
				"element": "H" 
			},
			{
				"x": -1.6840601413,
				"y": -3.6990715963,
				"z": 0.0824765823,
				"element": "H" 
			}
		],
		 "valence_orbital": [ 
			{
				"type": "occ",
				"energy": -0.28812,
				"method": "rhf"
			},
			{
				"type": "occ",
				"energy": -0.26311,
				"method": "rhf"
			},
			{
				"type": "occ",
				"energy": -0.252,
				"method": "rhf"
			},
			{
				"type": "occ",
				"energy": -0.22083,
				"method": "rhf"
			},
			{
				"type": "occ",
				"energy": -0.19293,
				"method": "rhf"
			},
			{
				"type": "unocc",
				"energy": 0.01343,
				"method": "rhf"
			},
			{
				"type": "unocc",
				"energy": 0.02232,
				"method": "rhf"
			},
			{
				"type": "unocc",
				"energy": 0.07993,
				"method": "rhf"
			},
			{
				"type": "unocc",
				"energy": 0.08858,
				"method": "rhf"
			},
			{
				"type": "unocc",
				"energy": 0.12405,
				"method": "rhf"
			}
		],
		"cosmo_sigma_profile": { 
			"-0.025": 0.0,
			"-0.024": 0.0,
			"-0.023": 0.0,
			"-0.022": 0.0,
			"-0.021": 0.0,
			"-0.02": 0.0,
			"-0.019": 0.0,
			"-0.018": 0.0,
			"-0.017": 0.0,
			"-0.016": 0.0,
			"-0.015": 0.0,
			"-0.014": 0.0,
			"-0.013": 0.3056847492,
			"-0.012": 2.29573666111,
			"-0.011": 2.8793910438,
			"-0.01": 2.92198154619,
			"-0.009": 2.71321394781,
			"-0.008": 3.33641653823,
			"-0.007": 3.16484537875,
			"-0.006": 5.17071112293,
			"-0.005": 11.8956703089,
			"-0.004": 17.8883120928,
			"-0.003": 23.7853697814,
			"-0.002": 29.2930097882,
			"-0.001": 15.2566037832,
			"0.0": 12.1484345101,
			"0.001": 13.590052709,
			"0.002": 11.8306474928,
			"0.003": 12.8648836545,
			"0.004": 13.3464299638,
			"0.005": 13.7618078381,
			"0.006": 8.98009559241,
			"0.007": 5.15060983642,
			"0.008": 3.17421552699,
			"0.009": 3.92111927763,
			"0.01": 3.08330881858,
			"0.011": 2.90091348204,
			"0.012": 3.23053776924,
			"0.013": 0.826409842892,
			"0.014": 0.52603280386,
			"0.015": 0.329402624155,
			"0.016": 0.0,
			"0.017": 0.0,
			"0.018": 0.0,
			"0.019": 0.0,
			"0.02": 0.0,
			"0.021": 0.0,
			"0.022": 0.0,
			"0.023": 0.0,
			"0.024": 0.0,
			"0.025": 0.0
		}
	}
}
