{
	 "smiles": "CCCCCCCCCCOC(=O)CCCCCCCCC", 
	 "Tm": 282.85, 
	 "num_atms": 62, 
	 "gaussian": { 
		 "optdone": 1, 
		 "sigma_profile": "yes", 
		 "theory": "DFT", 
		 "functional": "B3LYP", 
		 "basiset": "6-31G**", 
		 "properties": { 
			 "R2extent": 13127.8082, 
			 "electric_dipole_moment_norm": 1.88823908709, 
			 "electric_quadrupole_moment_norm": 12.0632498602, 
			 "total_energy": -936.741042351, 
			 "HOMO_LUMO_gap": 0.27598, 
			 "cosmo_polarized_energy": -6.69, 
			 "cosmo_cavitation_energy": 58.91, 
			 "cosmo_dispersion_energy": -37.1, 
			 "cosmo_repulsion_energy": 2.96, 
			 "cosmo_total_nonelectrostatic_energy": 24.76, 
			 "SMD_solvation_energy": 8.55 
		},
		"coords": [
			{
				"x": -5.8572796389,
				"y": 0.4025138553,
				"z": -0.0316533824,
				"element": "C" 
			},
			{
				"x": -4.9860012637,
				"y": 1.2682109119,
				"z": -0.9498707906,
				"element": "C" 
			},
			{
				"x": -4.4806118261,
				"y": 0.5450641501,
				"z": -2.2109027911,
				"element": "C" 
			},
			{
				"x": -3.5572496558,
				"y": -0.6627334154,
				"z": -1.9684380212,
				"element": "C" 
			},
			{
				"x": -2.2102797581,
				"y": -0.3951251329,
				"z": -1.2680935511,
				"element": "C" 
			},
			{
				"x": -1.1980075471,
				"y": 0.471286179,
				"z": -2.052214195,
				"element": "C" 
			},
			{
				"x": -1.2602476188,
				"y": 1.9772113956,
				"z": -1.7523110636,
				"element": "C" 
			},
			{
				"x": -0.3199771679,
				"y": 2.8372481327,
				"z": -2.6160933067,
				"element": "C" 
			},
			{
				"x": 1.1916657974,
				"y": 2.5677235076,
				"z": -2.4961505156,
				"element": "C" 
			},
			{
				"x": 1.8249854946,
				"y": 2.898847129,
				"z": -1.1513170891,
				"element": "C" 
			},
			{
				"x": 1.4627239528,
				"y": 1.8773814049,
				"z": -0.1903079017,
				"element": "O" 
			},
			{
				"x": 1.9417477411,
				"y": 2.051353039,
				"z": 1.0649362259,
				"element": "C" 
			},
			{
				"x": 2.6183197626,
				"y": 3.004686368,
				"z": 1.3901603722,
				"element": "O" 
			},
			{
				"x": 1.4941390037,
				"y": 0.9341453747,
				"z": 1.9881186379,
				"element": "C" 
			},
			{
				"x": 1.856472016,
				"y": -0.4979420488,
				"z": 1.5394417565,
				"element": "C" 
			},
			{
				"x": 3.3224390891,
				"y": -0.9128141723,
				"z": 1.7639252968,
				"element": "C" 
			},
			{
				"x": 4.3917729809,
				"y": -0.1428916225,
				"z": 0.9628727289,
				"element": "C" 
			},
			{
				"x": 4.3546562326,
				"y": -0.3102645708,
				"z": -0.5735626319,
				"element": "C" 
			},
			{
				"x": 5.1925839346,
				"y": -1.450989842,
				"z": -1.1858029093,
				"element": "C" 
			},
			{
				"x": 4.7958731335,
				"y": -2.9020274003,
				"z": -0.8311269233,
				"element": "C" 
			},
			{
				"x": 5.5417534492,
				"y": -3.506917123,
				"z": 0.3684708361,
				"element": "C" 
			},
			{
				"x": 5.1096537528,
				"y": -4.9436592551,
				"z": 0.6788081826,
				"element": "C" 
			},
			{
				"x": -5.2998038054,
				"y": -0.4430687178,
				"z": 0.3844642347,
				"element": "H" 
			},
			{
				"x": -6.2421648894,
				"y": 0.9862563467,
				"z": 0.8111227125,
				"element": "H" 
			},
			{
				"x": -6.7186608668,
				"y": -0.005296861,
				"z": -0.5737778401,
				"element": "H" 
			},
			{
				"x": -5.5651511825,
				"y": 2.1456555912,
				"z": -1.2655792235,
				"element": "H" 
			},
			{
				"x": -4.1362234629,
				"y": 1.6625859516,
				"z": -0.3784382956,
				"element": "H" 
			},
			{
				"x": -3.9722602277,
				"y": 1.2696796106,
				"z": -2.8593650045,
				"element": "H" 
			},
			{
				"x": -5.3517954307,
				"y": 0.1971495007,
				"z": -2.7836308382,
				"element": "H" 
			},
			{
				"x": -4.1027056183,
				"y": -1.4172561308,
				"z": -1.3868238983,
				"element": "H" 
			},
			{
				"x": -3.349504145,
				"y": -1.1342560814,
				"z": -2.9388959787,
				"element": "H" 
			},
			{
				"x": -2.3791714552,
				"y": 0.0483426653,
				"z": -0.2772961209,
				"element": "H" 
			},
			{
				"x": -1.7536401204,
				"y": -1.3739333503,
				"z": -1.0745207543,
				"element": "H" 
			},
			{
				"x": -0.1865231006,
				"y": 0.1199978111,
				"z": -1.8187940631,
				"element": "H" 
			},
			{
				"x": -1.3352409858,
				"y": 0.3036957475,
				"z": -3.13088081,
				"element": "H" 
			},
			{
				"x": -2.2811036355,
				"y": 2.345405043,
				"z": -1.9064114789,
				"element": "H" 
			},
			{
				"x": -1.035036101,
				"y": 2.1340667463,
				"z": -0.6908538003,
				"element": "H" 
			},
			{
				"x": -0.4990795894,
				"y": 3.8960902508,
				"z": -2.3833387722,
				"element": "H" 
			},
			{
				"x": -0.6012248353,
				"y": 2.711063166,
				"z": -3.670591154,
				"element": "H" 
			},
			{
				"x": 1.7064538321,
				"y": 3.1860604951,
				"z": -3.2430993213,
				"element": "H" 
			},
			{
				"x": 1.428250151,
				"y": 1.5281830211,
				"z": -2.7515401698,
				"element": "H" 
			},
			{
				"x": 1.4962824158,
				"y": 3.8727912583,
				"z": -0.7724849689,
				"element": "H" 
			},
			{
				"x": 2.9169746752,
				"y": 2.9274508418,
				"z": -1.2228722049,
				"element": "H" 
			},
			{
				"x": 0.4018732455,
				"y": 1.0101083039,
				"z": 2.0619430195,
				"element": "H" 
			},
			{
				"x": 1.9073774569,
				"y": 1.1533760301,
				"z": 2.9764967577,
				"element": "H" 
			},
			{
				"x": 1.2240100327,
				"y": -1.1895036927,
				"z": 2.1088930112,
				"element": "H" 
			},
			{
				"x": 1.5708355152,
				"y": -0.6243925729,
				"z": 0.4898246922,
				"element": "H" 
			},
			{
				"x": 3.3998037821,
				"y": -1.9855211566,
				"z": 1.5522836448,
				"element": "H" 
			},
			{
				"x": 3.5491981583,
				"y": -0.8019706589,
				"z": 2.8334143675,
				"element": "H" 
			},
			{
				"x": 5.3825701315,
				"y": -0.4409346371,
				"z": 1.3302425431,
				"element": "H" 
			},
			{
				"x": 4.3062955956,
				"y": 0.9218916957,
				"z": 1.2065274818,
				"element": "H" 
			},
			{
				"x": 4.7167748869,
				"y": 0.6229193588,
				"z": -1.0243679656,
				"element": "H" 
			},
			{
				"x": 3.3149743725,
				"y": -0.4097965936,
				"z": -0.9119835576,
				"element": "H" 
			},
			{
				"x": 6.2500691297,
				"y": -1.2963011725,
				"z": -0.9276406071,
				"element": "H" 
			},
			{
				"x": 5.137193789,
				"y": -1.3334415768,
				"z": -2.275621488,
				"element": "H" 
			},
			{
				"x": 4.9911618486,
				"y": -3.5449022992,
				"z": -1.7000853025,
				"element": "H" 
			},
			{
				"x": 3.7112631767,
				"y": -2.9599763287,
				"z": -0.6625966468,
				"element": "H" 
			},
			{
				"x": 6.6196387364,
				"y": -3.4865734573,
				"z": 0.1575840166,
				"element": "H" 
			},
			{
				"x": 5.3997846877,
				"y": -2.8840231083,
				"z": 1.2594065,
				"element": "H" 
			},
			{
				"x": 5.6734621062,
				"y": -5.36021208,
				"z": 1.5200318744,
				"element": "H" 
			},
			{
				"x": 5.2672771007,
				"y": -5.6000198522,
				"z": -0.1849743737,
				"element": "H" 
			},
			{
				"x": 4.0451327611,
				"y": -4.9913959721,
				"z": 0.9365408182,
				"element": "H" 
			}
		],
		 "valence_orbital": [ 
			{
				"type": "occ",
				"energy": -0.29935,
				"method": "rhf"
			},
			{
				"type": "occ",
				"energy": -0.2982,
				"method": "rhf"
			},
			{
				"type": "occ",
				"energy": -0.29773,
				"method": "rhf"
			},
			{
				"type": "occ",
				"energy": -0.29042,
				"method": "rhf"
			},
			{
				"type": "occ",
				"energy": -0.26235,
				"method": "rhf"
			},
			{
				"type": "unocc",
				"energy": 0.01363,
				"method": "rhf"
			},
			{
				"type": "unocc",
				"energy": 0.06247,
				"method": "rhf"
			},
			{
				"type": "unocc",
				"energy": 0.0804,
				"method": "rhf"
			},
			{
				"type": "unocc",
				"energy": 0.08441,
				"method": "rhf"
			},
			{
				"type": "unocc",
				"energy": 0.08941,
				"method": "rhf"
			}
		],
		"cosmo_sigma_profile": { 
			"-0.025": 0.0,
			"-0.024": 0.0,
			"-0.023": 0.0,
			"-0.022": 0.0,
			"-0.021": 0.0,
			"-0.02": 0.0,
			"-0.019": 0.0,
			"-0.018": 0.0,
			"-0.017": 0.0,
			"-0.016": 0.0,
			"-0.015": 0.0,
			"-0.014": 0.0,
			"-0.013": 0.0,
			"-0.012": 0.0,
			"-0.011": 0.0,
			"-0.01": 0.0,
			"-0.009": 0.0,
			"-0.008": 0.0,
			"-0.007": 0.0,
			"-0.006": 0.723261801171,
			"-0.005": 4.24329545855,
			"-0.004": 11.3415782641,
			"-0.003": 23.7218919939,
			"-0.002": 62.8103277388,
			"-0.001": 100.236819829,
			"0.0": 103.230420262,
			"0.001": 78.2462116358,
			"0.002": 37.6125414665,
			"0.003": 6.47829235633,
			"0.004": 3.13483678405,
			"0.005": 2.77086869733,
			"0.006": 1.69148199603,
			"0.007": 1.10358903975,
			"0.008": 1.62647709697,
			"0.009": 1.35552132892,
			"0.01": 1.63859653196,
			"0.011": 2.12569014629,
			"0.012": 4.4075128918,
			"0.013": 2.51035784905,
			"0.014": 0.229386921786,
			"0.015": 0.0,
			"0.016": 0.0,
			"0.017": 0.0,
			"0.018": 0.0,
			"0.019": 0.0,
			"0.02": 0.0,
			"0.021": 0.0,
			"0.022": 0.0,
			"0.023": 0.0,
			"0.024": 0.0,
			"0.025": 0.0
		}
	}
}
