{
	 "smiles": "CN1C=C(C=N1)C1=CC(=CC=C1)C(O)=O", 
	 "Tm": 487.15, 
	 "num_atms": 25, 
	 "gaussian": { 
		 "optdone": 1, 
		 "sigma_profile": "yes", 
		 "theory": "DFT", 
		 "functional": "B3LYP", 
		 "basiset": "6-31G**", 
		 "properties": { 
			 "R2extent": 4419.2552, 
			 "electric_dipole_moment_norm": 5.18517186697, 
			 "electric_quadrupole_moment_norm": 30.4350747909, 
			 "total_energy": -685.139346866, 
			 "HOMO_LUMO_gap": 0.17891, 
			 "cosmo_polarized_energy": -19.55, 
			 "cosmo_cavitation_energy": 30.08, 
			 "cosmo_dispersion_energy": -21.82, 
			 "cosmo_repulsion_energy": 1.68, 
			 "cosmo_total_nonelectrostatic_energy": 9.94, 
			 "SMD_solvation_energy": 5.7 
		},
		"coords": [
			{
				"x": 0.7189946617,
				"y": 3.9272615042,
				"z": -1.4757023625,
				"element": "C" 
			},
			{
				"x": 0.1332103278,
				"y": 2.6492900606,
				"z": -1.1152398392,
				"element": "N" 
			},
			{
				"x": 0.720261186,
				"y": 1.6155491819,
				"z": -0.4618815088,
				"element": "C" 
			},
			{
				"x": -0.2029998394,
				"y": 0.575850871,
				"z": -0.4202981256,
				"element": "C" 
			},
			{
				"x": -1.3300154879,
				"y": 1.1114579514,
				"z": -1.0990327237,
				"element": "C" 
			},
			{
				"x": -1.1241224795,
				"y": 2.3577932759,
				"z": -1.5149421808,
				"element": "N" 
			},
			{
				"x": -0.0541154373,
				"y": -0.7513358284,
				"z": 0.1885579964,
				"element": "C" 
			},
			{
				"x": 0.8477466813,
				"y": -0.9755729922,
				"z": 1.2421901956,
				"element": "C" 
			},
			{
				"x": 0.9855710476,
				"y": -2.2407446074,
				"z": 1.8258158721,
				"element": "C" 
			},
			{
				"x": 0.189678127,
				"y": -3.3030445305,
				"z": 1.3780437881,
				"element": "C" 
			},
			{
				"x": -0.7051555849,
				"y": -3.0968187404,
				"z": 0.3315735245,
				"element": "C" 
			},
			{
				"x": -0.8209965559,
				"y": -1.840280286,
				"z": -0.2619849171,
				"element": "C" 
			},
			{
				"x": 1.929642481,
				"y": -2.5089146188,
				"z": 2.9601217982,
				"element": "C" 
			},
			{
				"x": 2.9720161595,
				"y": -1.6441997587,
				"z": 3.1034663471,
				"element": "O" 
			},
			{
				"x": 1.8062880323,
				"y": -3.4357347381,
				"z": 3.7254345888,
				"element": "O" 
			},
			{
				"x": -0.0238048343,
				"y": 4.7116851721,
				"z": -1.3224657642,
				"element": "H" 
			},
			{
				"x": 1.5855514069,
				"y": 4.1174278422,
				"z": -0.8398491141,
				"element": "H" 
			},
			{
				"x": 1.0311015557,
				"y": 3.9323613515,
				"z": -2.5248156418,
				"element": "H" 
			},
			{
				"x": 1.7363241003,
				"y": 1.683379689,
				"z": -0.1008989049,
				"element": "H" 
			},
			{
				"x": -2.2905756346,
				"y": 0.6441647643,
				"z": -1.2706118931,
				"element": "H" 
			},
			{
				"x": 1.3957379988,
				"y": -0.1258114414,
				"z": 1.6427180463,
				"element": "H" 
			},
			{
				"x": 0.2906815675,
				"y": -4.2691170939,
				"z": 1.8598310002,
				"element": "H" 
			},
			{
				"x": -1.3141593019,
				"y": -3.9198747055,
				"z": -0.0304159901,
				"element": "H" 
			},
			{
				"x": -1.507667107,
				"y": -1.6998185748,
				"z": -1.0912187223,
				"element": "H" 
			},
			{
				"x": 3.0288069292,
				"y": -1.0686537481,
				"z": 2.3284045309,
				"element": "H" 
			}
		],
		 "valence_orbital": [ 
			{
				"type": "occ",
				"energy": -0.29308,
				"method": "rhf"
			},
			{
				"type": "occ",
				"energy": -0.27405,
				"method": "rhf"
			},
			{
				"type": "occ",
				"energy": -0.26623,
				"method": "rhf"
			},
			{
				"type": "occ",
				"energy": -0.26236,
				"method": "rhf"
			},
			{
				"type": "occ",
				"energy": -0.22809,
				"method": "rhf"
			},
			{
				"type": "unocc",
				"energy": -0.04918,
				"method": "rhf"
			},
			{
				"type": "unocc",
				"energy": -0.03176,
				"method": "rhf"
			},
			{
				"type": "unocc",
				"energy": 0.009,
				"method": "rhf"
			},
			{
				"type": "unocc",
				"energy": 0.04005,
				"method": "rhf"
			},
			{
				"type": "unocc",
				"energy": 0.05818,
				"method": "rhf"
			}
		],
		"cosmo_sigma_profile": { 
			"-0.025": 0.0,
			"-0.024": 0.0,
			"-0.023": 0.0,
			"-0.022": 0.0,
			"-0.021": 0.0,
			"-0.02": 0.0,
			"-0.019": 0.0272129765353,
			"-0.018": 0.700643273609,
			"-0.017": 1.12708798434,
			"-0.016": 0.769061888717,
			"-0.015": 0.947854890322,
			"-0.014": 0.83568191345,
			"-0.013": 0.741688484315,
			"-0.012": 1.45998195899,
			"-0.011": 1.60277361114,
			"-0.01": 0.91872968119,
			"-0.009": 4.9525549165,
			"-0.008": 5.21369522168,
			"-0.007": 10.1198838745,
			"-0.006": 15.4373104149,
			"-0.005": 16.138763076,
			"-0.004": 16.8851791461,
			"-0.003": 17.5386172153,
			"-0.002": 12.3960914351,
			"-0.001": 11.0392341424,
			"0.0": 10.9540958039,
			"0.001": 11.6350034217,
			"0.002": 16.110724511,
			"0.003": 21.0567778923,
			"0.004": 14.8507337143,
			"0.005": 6.2856200869,
			"0.006": 4.38919267875,
			"0.007": 3.65771460929,
			"0.008": 5.08543266162,
			"0.009": 4.61826871189,
			"0.01": 5.57117543067,
			"0.011": 6.62971303229,
			"0.012": 6.10954688691,
			"0.013": 2.72112768543,
			"0.014": 0.960694607976,
			"0.015": 0.980211455808,
			"0.016": 0.572090266119,
			"0.017": 0.0,
			"0.018": 0.0,
			"0.019": 0.0,
			"0.02": 0.0,
			"0.021": 0.0,
			"0.022": 0.0,
			"0.023": 0.0,
			"0.024": 0.0,
			"0.025": 0.0
		}
	}
}
