{
	 "smiles": "CC(C)N1N=C(C(O)=O)C2=C(C=CC=C2)C1=O", 
	 "Tm": 416.15, 
	 "num_atms": 29, 
	 "gaussian": { 
		 "optdone": 1, 
		 "sigma_profile": "yes", 
		 "theory": "DFT", 
		 "functional": "B3LYP", 
		 "basiset": "6-31G**", 
		 "properties": { 
			 "R2extent": 4520.0655, 
			 "electric_dipole_moment_norm": 2.32873914812, 
			 "electric_quadrupole_moment_norm": 22.7017446684, 
			 "total_energy": -799.709772413, 
			 "HOMO_LUMO_gap": 0.16458, 
			 "cosmo_polarized_energy": -13.03, 
			 "cosmo_cavitation_energy": 32.65, 
			 "cosmo_dispersion_energy": -23.3, 
			 "cosmo_repulsion_energy": 1.78, 
			 "cosmo_total_nonelectrostatic_energy": 11.13, 
			 "SMD_solvation_energy": 7.07 
		},
		"coords": [
			{
				"x": -1.0995766357,
				"y": -2.3323140771,
				"z": 0.1485941655,
				"element": "C" 
			},
			{
				"x": 0.0368957585,
				"y": -1.6238406954,
				"z": 0.8904516265,
				"element": "C" 
			},
			{
				"x": -0.2735526314,
				"y": -1.3771838951,
				"z": 2.3691596806,
				"element": "C" 
			},
			{
				"x": 0.3809681234,
				"y": -0.3466032154,
				"z": 0.2129979502,
				"element": "N" 
			},
			{
				"x": -0.5891755746,
				"y": 0.5736154759,
				"z": 0.1786218146,
				"element": "N" 
			},
			{
				"x": -0.4045107872,
				"y": 1.7352651559,
				"z": -0.3901717787,
				"element": "C" 
			},
			{
				"x": -1.619662526,
				"y": 2.6314514115,
				"z": -0.3227150481,
				"element": "C" 
			},
			{
				"x": -2.6748092996,
				"y": 2.0863728401,
				"z": 0.3055271774,
				"element": "O" 
			},
			{
				"x": -1.6652146278,
				"y": 3.7495954982,
				"z": -0.7870736527,
				"element": "O" 
			},
			{
				"x": 0.8497161137,
				"y": 2.105727047,
				"z": -1.0173072397,
				"element": "C" 
			},
			{
				"x": 1.8782481547,
				"y": 1.134239111,
				"z": -0.9825437157,
				"element": "C" 
			},
			{
				"x": 3.128631411,
				"y": 1.3965885778,
				"z": -1.5617399526,
				"element": "C" 
			},
			{
				"x": 3.3604606612,
				"y": 2.6184927567,
				"z": -2.1742895124,
				"element": "C" 
			},
			{
				"x": 2.344302926,
				"y": 3.5877769474,
				"z": -2.2127268287,
				"element": "C" 
			},
			{
				"x": 1.1019686103,
				"y": 3.3447862362,
				"z": -1.6448639074,
				"element": "C" 
			},
			{
				"x": 1.6648642799,
				"y": -0.1716187346,
				"z": -0.3409324917,
				"element": "C" 
			},
			{
				"x": 2.5072840701,
				"y": -1.0597854874,
				"z": -0.2727728997,
				"element": "O" 
			},
			{
				"x": -1.3016739186,
				"y": -3.298779402,
				"z": 0.6198620803,
				"element": "H" 
			},
			{
				"x": -2.0199942387,
				"y": -1.7413094561,
				"z": 0.1754171279,
				"element": "H" 
			},
			{
				"x": -0.8335662054,
				"y": -2.5122063715,
				"z": -0.8970322579,
				"element": "H" 
			},
			{
				"x": 0.9506741219,
				"y": -2.2129288708,
				"z": 0.8038853989,
				"element": "H" 
			},
			{
				"x": -0.4647117919,
				"y": -2.3309106132,
				"z": 2.8700112675,
				"element": "H" 
			},
			{
				"x": 0.5681463828,
				"y": -0.8914906805,
				"z": 2.8712534404,
				"element": "H" 
			},
			{
				"x": -1.159462425,
				"y": -0.7462728777,
				"z": 2.4886637686,
				"element": "H" 
			},
			{
				"x": -2.405092885,
				"y": 1.1915493769,
				"z": 0.5900672527,
				"element": "H" 
			},
			{
				"x": 3.8884074788,
				"y": 0.6245253835,
				"z": -1.5126871927,
				"element": "H" 
			},
			{
				"x": 4.326430853,
				"y": 2.8270048113,
				"z": -2.6242803074,
				"element": "H" 
			},
			{
				"x": 2.5306318204,
				"y": 4.5435025172,
				"z": -2.6937375035,
				"element": "H" 
			},
			{
				"x": 0.3159727814,
				"y": 4.0871512302,
				"z": -1.6714384622,
				"element": "H" 
			}
		],
		 "valence_orbital": [ 
			{
				"type": "occ",
				"energy": -0.29524,
				"method": "rhf"
			},
			{
				"type": "occ",
				"energy": -0.27801,
				"method": "rhf"
			},
			{
				"type": "occ",
				"energy": -0.27303,
				"method": "rhf"
			},
			{
				"type": "occ",
				"energy": -0.26815,
				"method": "rhf"
			},
			{
				"type": "occ",
				"energy": -0.24478,
				"method": "rhf"
			},
			{
				"type": "unocc",
				"energy": -0.0802,
				"method": "rhf"
			},
			{
				"type": "unocc",
				"energy": -0.05625,
				"method": "rhf"
			},
			{
				"type": "unocc",
				"energy": -0.01491,
				"method": "rhf"
			},
			{
				"type": "unocc",
				"energy": 0.04965,
				"method": "rhf"
			},
			{
				"type": "unocc",
				"energy": 0.06748,
				"method": "rhf"
			}
		],
		"cosmo_sigma_profile": { 
			"-0.025": 0.0,
			"-0.024": 0.0,
			"-0.023": 0.0,
			"-0.022": 0.0,
			"-0.021": 0.0,
			"-0.02": 0.0,
			"-0.019": 0.0,
			"-0.018": 0.0,
			"-0.017": 0.0,
			"-0.016": 0.0,
			"-0.015": 0.0,
			"-0.014": 0.0,
			"-0.013": 0.313313559943,
			"-0.012": 0.317088787526,
			"-0.011": 0.484837332611,
			"-0.01": 1.11772573904,
			"-0.009": 0.568656712566,
			"-0.008": 1.21770822109,
			"-0.007": 5.05744935582,
			"-0.006": 9.31530887743,
			"-0.005": 16.9463070711,
			"-0.004": 28.7607443373,
			"-0.003": 27.7371225247,
			"-0.002": 24.421361245,
			"-0.001": 25.1547581663,
			"0.0": 28.0097791512,
			"0.001": 18.9583196794,
			"0.002": 16.3311917559,
			"0.003": 9.48041497991,
			"0.004": 3.26170295624,
			"0.005": 4.02783181448,
			"0.006": 3.83685190207,
			"0.007": 3.63123552947,
			"0.008": 5.24089341317,
			"0.009": 4.28698965009,
			"0.01": 7.48469220798,
			"0.011": 5.442238756,
			"0.012": 6.91972693388,
			"0.013": 2.08874884079,
			"0.014": 0.0,
			"0.015": 0.0,
			"0.016": 0.0,
			"0.017": 0.0,
			"0.018": 0.0,
			"0.019": 0.0,
			"0.02": 0.0,
			"0.021": 0.0,
			"0.022": 0.0,
			"0.023": 0.0,
			"0.024": 0.0,
			"0.025": 0.0
		}
	}
}
