{
	 "smiles": "CCOCCOCCOCC", 
	 "Tm": 228.65, 
	 "num_atms": 29, 
	 "gaussian": { 
		 "optdone": 1, 
		 "sigma_profile": "yes", 
		 "theory": "DFT", 
		 "functional": "B3LYP", 
		 "basiset": "6-31G**", 
		 "properties": { 
			 "R2extent": 3978.6046, 
			 "electric_dipole_moment_norm": 1.44710160666, 
			 "electric_quadrupole_moment_norm": 7.89458675296, 
			 "total_energy": -541.33501173, 
			 "HOMO_LUMO_gap": 0.31928, 
			 "cosmo_polarized_energy": -8.14, 
			 "cosmo_cavitation_energy": 31.16, 
			 "cosmo_dispersion_energy": -22.42, 
			 "cosmo_repulsion_energy": 1.9, 
			 "cosmo_total_nonelectrostatic_energy": 10.65, 
			 "SMD_solvation_energy": 5.7 
		},
		"coords": [
			{
				"x": 0.0008228518,
				"y": 0.9193845607,
				"z": -5.0003848212,
				"element": "C" 
			},
			{
				"x": -0.4934854576,
				"y": 0.3721761556,
				"z": -3.6714026243,
				"element": "C" 
			},
			{
				"x": 0.4378388411,
				"y": -0.6146706759,
				"z": -3.2326259643,
				"element": "O" 
			},
			{
				"x": 0.0575022904,
				"y": -1.3358393923,
				"z": -2.0787703802,
				"element": "C" 
			},
			{
				"x": 0.3759455528,
				"y": -0.6333183641,
				"z": -0.7645397682,
				"element": "C" 
			},
			{
				"x": -0.5400386555,
				"y": 0.4328069362,
				"z": -0.5580691066,
				"element": "O" 
			},
			{
				"x": -0.2557157578,
				"y": 1.2567705948,
				"z": 0.5633796611,
				"element": "C" 
			},
			{
				"x": -0.7980033194,
				"y": 0.6616020143,
				"z": 1.8712755973,
				"element": "C" 
			},
			{
				"x": -0.6205211359,
				"y": 1.545445183,
				"z": 2.9654242776,
				"element": "O" 
			},
			{
				"x": 0.6452772862,
				"y": 1.4544431719,
				"z": 3.6056463913,
				"element": "C" 
			},
			{
				"x": 0.6503365314,
				"y": 2.4181807445,
				"z": 4.7808260077,
				"element": "C" 
			},
			{
				"x": 0.9882532495,
				"y": 1.3764214619,
				"z": -4.884810719,
				"element": "H" 
			},
			{
				"x": 0.0804450999,
				"y": 0.1191627094,
				"z": -5.7422376283,
				"element": "H" 
			},
			{
				"x": -0.6893460463,
				"y": 1.6797498737,
				"z": -5.379978606,
				"element": "H" 
			},
			{
				"x": -0.5899323253,
				"y": 1.1711254296,
				"z": -2.926254812,
				"element": "H" 
			},
			{
				"x": -1.4903317688,
				"y": -0.084990354,
				"z": -3.7889070581,
				"element": "H" 
			},
			{
				"x": -1.014866823,
				"y": -1.5875927039,
				"z": -2.1018810161,
				"element": "H" 
			},
			{
				"x": 0.6246160846,
				"y": -2.2743907725,
				"z": -2.1039776338,
				"element": "H" 
			},
			{
				"x": 1.4086622152,
				"y": -0.2513468599,
				"z": -0.8005242612,
				"element": "H" 
			},
			{
				"x": 0.3188645543,
				"y": -1.3726938589,
				"z": 0.0517559372,
				"element": "H" 
			},
			{
				"x": -0.7522282743,
				"y": 2.2156619999,
				"z": 0.3850785526,
				"element": "H" 
			},
			{
				"x": 0.8255610549,
				"y": 1.4488597911,
				"z": 0.6384488384,
				"element": "H" 
			},
			{
				"x": -0.3353525741,
				"y": -0.3156725763,
				"z": 2.0801001873,
				"element": "H" 
			},
			{
				"x": -1.8755281328,
				"y": 0.5007088771,
				"z": 1.7610949493,
				"element": "H" 
			},
			{
				"x": 0.816770062,
				"y": 0.4213029238,
				"z": 3.9519858833,
				"element": "H" 
			},
			{
				"x": 1.4624586794,
				"y": 1.7010519188,
				"z": 2.9092431544,
				"element": "H" 
			},
			{
				"x": 0.4939334268,
				"y": 3.4444073437,
				"z": 4.4360430247,
				"element": "H" 
			},
			{
				"x": 1.6073345023,
				"y": 2.3712969013,
				"z": 5.3100046775,
				"element": "H" 
			},
			{
				"x": -0.1498720117,
				"y": 2.1679569664,
				"z": 5.4832572597,
				"element": "H" 
			}
		],
		 "valence_orbital": [ 
			{
				"type": "occ",
				"energy": -0.31049,
				"method": "rhf"
			},
			{
				"type": "occ",
				"energy": -0.3028,
				"method": "rhf"
			},
			{
				"type": "occ",
				"energy": -0.2779,
				"method": "rhf"
			},
			{
				"type": "occ",
				"energy": -0.24917,
				"method": "rhf"
			},
			{
				"type": "occ",
				"energy": -0.23524,
				"method": "rhf"
			},
			{
				"type": "unocc",
				"energy": 0.08404,
				"method": "rhf"
			},
			{
				"type": "unocc",
				"energy": 0.08562,
				"method": "rhf"
			},
			{
				"type": "unocc",
				"energy": 0.10632,
				"method": "rhf"
			},
			{
				"type": "unocc",
				"energy": 0.11382,
				"method": "rhf"
			},
			{
				"type": "unocc",
				"energy": 0.11821,
				"method": "rhf"
			}
		],
		"cosmo_sigma_profile": { 
			"-0.025": 0.0,
			"-0.024": 0.0,
			"-0.023": 0.0,
			"-0.022": 0.0,
			"-0.021": 0.0,
			"-0.02": 0.0,
			"-0.019": 0.0,
			"-0.018": 0.0,
			"-0.017": 0.0,
			"-0.016": 0.0,
			"-0.015": 0.0,
			"-0.014": 0.0,
			"-0.013": 0.0,
			"-0.012": 0.0,
			"-0.011": 0.0,
			"-0.01": 0.0,
			"-0.009": 0.0,
			"-0.008": 0.0,
			"-0.007": 0.0,
			"-0.006": 0.016809630861,
			"-0.005": 6.54715106,
			"-0.004": 28.8032090749,
			"-0.003": 41.0076200204,
			"-0.002": 36.583089274,
			"-0.001": 30.2860179431,
			"0.0": 23.7845051886,
			"0.001": 18.1408548836,
			"0.002": 9.41548373536,
			"0.003": 6.45379109449,
			"0.004": 4.86780353337,
			"0.005": 5.64628353966,
			"0.006": 4.80912947146,
			"0.007": 4.62919102216,
			"0.008": 4.16144621867,
			"0.009": 2.23845119882,
			"0.01": 3.27836648118,
			"0.011": 3.53933691642,
			"0.012": 2.62508653234,
			"0.013": 3.06869734993,
			"0.014": 0.903838466733,
			"0.015": 0.0,
			"0.016": 0.0,
			"0.017": 0.0,
			"0.018": 0.0,
			"0.019": 0.0,
			"0.02": 0.0,
			"0.021": 0.0,
			"0.022": 0.0,
			"0.023": 0.0,
			"0.024": 0.0,
			"0.025": 0.0
		}
	}
}
