{
	 "smiles": "OC(=O)CCSC1=CC=C(Cl)C=C1", 
	 "Tm": 359.15, 
	 "num_atms": 22, 
	 "gaussian": { 
		 "optdone": 1, 
		 "sigma_profile": "yes", 
		 "theory": "DFT", 
		 "functional": "B3LYP", 
		 "basiset": "6-31G**", 
		 "properties": { 
			 "R2extent": 5137.3527, 
			 "electric_dipole_moment_norm": 3.21206399687, 
			 "electric_quadrupole_moment_norm": 11.2933055041, 
			 "total_energy": -1357.22650995, 
			 "HOMO_LUMO_gap": 0.19659, 
			 "cosmo_polarized_energy": -11.05, 
			 "cosmo_cavitation_energy": 29.6, 
			 "cosmo_dispersion_energy": -22.07, 
			 "cosmo_repulsion_energy": 1.73, 
			 "cosmo_total_nonelectrostatic_energy": 9.26, 
			 "SMD_solvation_energy": 5.42 
		},
		"coords": [
			{
				"x": 1.9399574705,
				"y": -3.2893298596,
				"z": -0.3341125521,
				"element": "O" 
			},
			{
				"x": 0.7786733843,
				"y": -2.601881609,
				"z": -0.28894292,
				"element": "C" 
			},
			{
				"x": 0.0803399197,
				"y": -2.5641338579,
				"z": 0.7023019022,
				"element": "O" 
			},
			{
				"x": 0.4593112934,
				"y": -1.9580853016,
				"z": -1.6231442652,
				"element": "C" 
			},
			{
				"x": -0.5451853464,
				"y": -0.8140923291,
				"z": -1.5085624545,
				"element": "C" 
			},
			{
				"x": 0.2357844205,
				"y": 0.6967306642,
				"z": -0.7779136249,
				"element": "S" 
			},
			{
				"x": -0.9846599455,
				"y": 1.2374455574,
				"z": 0.4181743168,
				"element": "C" 
			},
			{
				"x": -1.4270853573,
				"y": 2.5654114355,
				"z": 0.3705478661,
				"element": "C" 
			},
			{
				"x": -2.3203432568,
				"y": 3.0508208453,
				"z": 1.3264984918,
				"element": "C" 
			},
			{
				"x": -2.7848861305,
				"y": 2.190917199,
				"z": 2.3196442448,
				"element": "C" 
			},
			{
				"x": -3.9254429046,
				"y": 2.7887190852,
				"z": 3.5173246025,
				"element": "Cl" 
			},
			{
				"x": -2.3600315312,
				"y": 0.8630189648,
				"z": 2.3798024386,
				"element": "C" 
			},
			{
				"x": -1.4476429978,
				"y": 0.3917360914,
				"z": 1.4371478357,
				"element": "C" 
			},
			{
				"x": 2.0525645302,
				"y": -3.6963320713,
				"z": 0.5417921185,
				"element": "H" 
			},
			{
				"x": 0.0420241324,
				"y": -2.7488586566,
				"z": -2.2625691426,
				"element": "H" 
			},
			{
				"x": 1.3914857914,
				"y": -1.6432979692,
				"z": -2.1015932996,
				"element": "H" 
			},
			{
				"x": -1.3776832895,
				"y": -1.1077543696,
				"z": -0.8681232744,
				"element": "H" 
			},
			{
				"x": -0.9365373441,
				"y": -0.5567327933,
				"z": -2.4957391269,
				"element": "H" 
			},
			{
				"x": -1.0767344863,
				"y": 3.2211008882,
				"z": -0.4201715553,
				"element": "H" 
			},
			{
				"x": -2.6631299278,
				"y": 4.0790277058,
				"z": 1.2909035961,
				"element": "H" 
			},
			{
				"x": -2.7252317241,
				"y": 0.210700416,
				"z": 3.1655381104,
				"element": "H" 
			},
			{
				"x": -1.0923467006,
				"y": -0.6326300356,
				"z": 1.493496692,
				"element": "H" 
			}
		],
		 "valence_orbital": [ 
			{
				"type": "occ",
				"energy": -0.31067,
				"method": "rhf"
			},
			{
				"type": "occ",
				"energy": -0.28941,
				"method": "rhf"
			},
			{
				"type": "occ",
				"energy": -0.26311,
				"method": "rhf"
			},
			{
				"type": "occ",
				"energy": -0.26077,
				"method": "rhf"
			},
			{
				"type": "occ",
				"energy": -0.21965,
				"method": "rhf"
			},
			{
				"type": "unocc",
				"energy": -0.02306,
				"method": "rhf"
			},
			{
				"type": "unocc",
				"energy": -0.01408,
				"method": "rhf"
			},
			{
				"type": "unocc",
				"energy": -0.00249,
				"method": "rhf"
			},
			{
				"type": "unocc",
				"energy": 0.02816,
				"method": "rhf"
			},
			{
				"type": "unocc",
				"energy": 0.04106,
				"method": "rhf"
			}
		],
		"cosmo_sigma_profile": { 
			"-0.025": 0.0,
			"-0.024": 0.0,
			"-0.023": 0.0,
			"-0.022": 0.0,
			"-0.021": 0.0,
			"-0.02": 0.0,
			"-0.019": 0.0636099006639,
			"-0.018": 0.775635603043,
			"-0.017": 1.23662280276,
			"-0.016": 0.658782757211,
			"-0.015": 0.815122184693,
			"-0.014": 0.499107172211,
			"-0.013": 0.463487910576,
			"-0.012": 0.876039425867,
			"-0.011": 1.16882681786,
			"-0.01": 0.422294715516,
			"-0.009": 0.407807307084,
			"-0.008": 2.72538050238,
			"-0.007": 9.37171133902,
			"-0.006": 13.4624642447,
			"-0.005": 15.8361515401,
			"-0.004": 13.6309081944,
			"-0.003": 14.1407780039,
			"-0.002": 13.3843579737,
			"-0.001": 13.551063704,
			"0.0": 14.3783396087,
			"0.001": 17.3951116239,
			"0.002": 21.8529540247,
			"0.003": 24.5977199133,
			"0.004": 19.5644773528,
			"0.005": 13.3208497807,
			"0.006": 6.06470738082,
			"0.007": 5.22538938904,
			"0.008": 4.89662437172,
			"0.009": 3.89470798246,
			"0.01": 2.6270461429,
			"0.011": 1.93888618789,
			"0.012": 0.805861708324,
			"0.013": 0.0,
			"0.014": 0.0,
			"0.015": 0.0,
			"0.016": 0.0,
			"0.017": 0.0,
			"0.018": 0.0,
			"0.019": 0.0,
			"0.02": 0.0,
			"0.021": 0.0,
			"0.022": 0.0,
			"0.023": 0.0,
			"0.024": 0.0,
			"0.0": 0.0
		}
	}
}
