{
	 "smiles": "[O-][N+](=O)C1=C(OCC2CO2)C=CC=C1", 
	 "Tm": 326.15, 
	 "num_atms": 23, 
	 "gaussian": { 
		 "optdone": 1, 
		 "sigma_profile": "yes", 
		 "theory": "DFT", 
		 "functional": "B3LYP", 
		 "basiset": "6-31G**", 
		 "properties": { 
			 "R2extent": 3173.0089, 
			 "electric_dipole_moment_norm": 4.75266524068, 
			 "electric_quadrupole_moment_norm": 11.5005388604, 
			 "total_energy": -703.855416383, 
			 "HOMO_LUMO_gap": 0.17853, 
			 "cosmo_polarized_energy": -11.79, 
			 "cosmo_cavitation_energy": 28.18, 
			 "cosmo_dispersion_energy": -20.19, 
			 "cosmo_repulsion_energy": 1.59, 
			 "cosmo_total_nonelectrostatic_energy": 9.58, 
			 "SMD_solvation_energy": 6.97 
		},
		"coords": [
			{
				"x": 0.7518983209,
				"y": -3.2675064629,
				"z": 0.3808909728,
				"element": "O" 
			},
			{
				"x": 0.5748095731,
				"y": -2.1131208371,
				"z": -0.0079110873,
				"element": "N" 
			},
			{
				"x": 0.6379422695,
				"y": -1.7575283236,
				"z": -1.1846679659,
				"element": "O" 
			},
			{
				"x": 0.2932580171,
				"y": -1.0979245707,
				"z": 1.0147898788,
				"element": "C" 
			},
			{
				"x": -0.4497323075,
				"y": 0.0635448116,
				"z": 0.7235571311,
				"element": "C" 
			},
			{
				"x": -1.0325505892,
				"y": 0.2821231467,
				"z": -0.4894933968,
				"element": "O" 
			},
			{
				"x": -0.2669728248,
				"y": 1.0574666725,
				"z": -1.4335404308,
				"element": "C" 
			},
			{
				"x": -0.8729968349,
				"y": 0.8273300013,
				"z": -2.7935521498,
				"element": "C" 
			},
			{
				"x": -1.9379124602,
				"y": 1.6992443085,
				"z": -3.3059491619,
				"element": "C" 
			},
			{
				"x": -0.5848287556,
				"y": 1.8451854608,
				"z": -3.7574873735,
				"element": "O" 
			},
			{
				"x": -0.6789351536,
				"y": 0.9718892113,
				"z": 1.7635149444,
				"element": "C" 
			},
			{
				"x": -0.1765582944,
				"y": 0.7426168902,
				"z": 3.0422527601,
				"element": "C" 
			},
			{
				"x": 0.5551029308,
				"y": -0.4168712407,
				"z": 3.3149354103,
				"element": "C" 
			},
			{
				"x": 0.7760472549,
				"y": -1.3434740319,
				"z": 2.3025668058,
				"element": "C" 
			},
			{
				"x": 0.7761686528,
				"y": 0.7280002573,
				"z": -1.4241253913,
				"element": "H" 
			},
			{
				"x": -0.3128870096,
				"y": 2.1235592211,
				"z": -1.1754410036,
				"element": "H" 
			},
			{
				"x": -0.8046751241,
				"y": -0.1969792832,
				"z": -3.1592277329,
				"element": "H" 
			},
			{
				"x": -2.6391352842,
				"y": 1.3130737102,
				"z": -4.0448005092,
				"element": "H" 
			},
			{
				"x": -2.3146459502,
				"y": 2.5113244148,
				"z": -2.6836754325,
				"element": "H" 
			},
			{
				"x": -1.2763511572,
				"y": 1.850791397,
				"z": 1.5441452184,
				"element": "H" 
			},
			{
				"x": -0.364512919,
				"y": 1.4660542125,
				"z": 3.8299254631,
				"element": "H" 
			},
			{
				"x": 0.9432796573,
				"y": -0.6020583903,
				"z": 4.3109641846,
				"element": "H" 
			},
			{
				"x": 1.3190879879,
				"y": -2.2635405754,
				"z": 2.4813288662,
				"element": "H" 
			}
		],
		 "valence_orbital": [ 
			{
				"type": "occ",
				"energy": -0.30037,
				"method": "rhf"
			},
			{
				"type": "occ",
				"energy": -0.28675,
				"method": "rhf"
			},
			{
				"type": "occ",
				"energy": -0.27876,
				"method": "rhf"
			},
			{
				"type": "occ",
				"energy": -0.27401,
				"method": "rhf"
			},
			{
				"type": "occ",
				"energy": -0.26721,
				"method": "rhf"
			},
			{
				"type": "unocc",
				"energy": -0.08868,
				"method": "rhf"
			},
			{
				"type": "unocc",
				"energy": -0.02821,
				"method": "rhf"
			},
			{
				"type": "unocc",
				"energy": -0.00916,
				"method": "rhf"
			},
			{
				"type": "unocc",
				"energy": 0.06133,
				"method": "rhf"
			},
			{
				"type": "unocc",
				"energy": 0.08464,
				"method": "rhf"
			}
		],
		"cosmo_sigma_profile": { 
			"-0.025": 0.0,
			"-0.024": 0.0,
			"-0.023": 0.0,
			"-0.022": 0.0,
			"-0.021": 0.0,
			"-0.02": 0.0,
			"-0.019": 0.0,
			"-0.018": 0.0,
			"-0.017": 0.0,
			"-0.016": 0.0,
			"-0.015": 0.0,
			"-0.014": 0.0,
			"-0.013": 0.0,
			"-0.012": 0.0,
			"-0.011": 0.0,
			"-0.01": 0.0,
			"-0.009": 0.0,
			"-0.008": 1.95085277932,
			"-0.007": 9.83041518609,
			"-0.006": 19.1571329107,
			"-0.005": 22.0604107501,
			"-0.004": 18.9482585124,
			"-0.003": 16.3734860474,
			"-0.002": 14.6965252645,
			"-0.001": 13.3228526821,
			"0.0": 13.5711700771,
			"0.001": 16.8553695133,
			"0.002": 16.0915682077,
			"0.003": 8.15660221204,
			"0.004": 6.26668908969,
			"0.005": 5.92421451521,
			"0.006": 7.36327213516,
			"0.007": 7.06209576433,
			"0.008": 8.82424761015,
			"0.009": 7.43377224616,
			"0.01": 5.34993502957,
			"0.011": 3.61615183447,
			"0.012": 1.92315625373,
			"0.013": 0.0626815847604,
			"0.014": 0.0,
			"0.015": 0.0,
			"0.016": 0.0,
			"0.017": 0.0,
			"0.018": 0.0,
			"0.019": 0.0,
			"0.02": 0.0,
			"0.021": 0.0,
			"0.022": 0.0,
			"0.023": 0.0,
			"0.024": 0.0,
			"0.025": 0.0
		}
	}
}
