{
	 "smiles": "CC(N)C1=CC=C(NC(=O)C2=CC=C(F)C=C2)C=C1", 
	 "Tm": 384.15, 
	 "num_atms": 34, 
	 "gaussian": { 
		 "optdone": 1, 
		 "sigma_profile": "yes", 
		 "theory": "DFT", 
		 "functional": "B3LYP", 
		 "basiset": "6-31G**", 
		 "properties": { 
			 "R2extent": 7187.5213, 
			 "electric_dipole_moment_norm": 4.25936424012, 
			 "electric_quadrupole_moment_norm": 6.06520259266, 
			 "total_energy": -865.213529289, 
			 "HOMO_LUMO_gap": 0.18291, 
			 "cosmo_polarized_energy": -14.25, 
			 "cosmo_cavitation_energy": 38.18, 
			 "cosmo_dispersion_energy": -26.57, 
			 "cosmo_repulsion_energy": 2.05, 
			 "cosmo_total_nonelectrostatic_energy": 13.66, 
			 "SMD_solvation_energy": 6.77 
		},
		"coords": [
			{
				"x": 1.7733697899,
				"y": -0.4958859654,
				"z": -3.7979514038,
				"element": "C" 
			},
			{
				"x": 0.2687352249,
				"y": -0.5912524384,
				"z": -3.4949050679,
				"element": "C" 
			},
			{
				"x": -0.3154320316,
				"y": -1.9015245472,
				"z": -3.831123535,
				"element": "N" 
			},
			{
				"x": -0.1003309345,
				"y": -0.2363525733,
				"z": -2.0539067366,
				"element": "C" 
			},
			{
				"x": -1.3753596939,
				"y": -0.5673959061,
				"z": -1.5684486525,
				"element": "C" 
			},
			{
				"x": -1.7602517971,
				"y": -0.2443287438,
				"z": -0.2711779517,
				"element": "C" 
			},
			{
				"x": -0.8827835314,
				"y": 0.4388597177,
				"z": 0.5829815617,
				"element": "C" 
			},
			{
				"x": -1.3346053829,
				"y": 0.7898628392,
				"z": 1.8820564414,
				"element": "N" 
			},
			{
				"x": -0.6393501784,
				"y": 0.9728610112,
				"z": 3.0659300667,
				"element": "C" 
			},
			{
				"x": -1.1092241075,
				"y": 1.6951016964,
				"z": 3.9393931552,
				"element": "O" 
			},
			{
				"x": 0.6376976412,
				"y": 0.2217943461,
				"z": 3.294316833,
				"element": "C" 
			},
			{
				"x": 1.5625496808,
				"y": 0.7873458393,
				"z": 4.1844960572,
				"element": "C" 
			},
			{
				"x": 2.7405006826,
				"y": 0.1207146325,
				"z": 4.5084595458,
				"element": "C" 
			},
			{
				"x": 2.9676824921,
				"y": -1.1340915877,
				"z": 3.9515283707,
				"element": "C" 
			},
			{
				"x": 4.1019789195,
				"y": -1.7911877261,
				"z": 4.2640454109,
				"element": "F" 
			},
			{
				"x": 2.058281285,
				"y": -1.7366609925,
				"z": 3.0882540561,
				"element": "C" 
			},
			{
				"x": 0.8920720316,
				"y": -1.0494934824,
				"z": 2.7582021283,
				"element": "C" 
			},
			{
				"x": 0.3829686236,
				"y": 0.7945827493,
				"z": 0.1045534483,
				"element": "C" 
			},
			{
				"x": 0.7669631339,
				"y": 0.4445253475,
				"z": -1.190503688,
				"element": "C" 
			},
			{
				"x": 2.3515537076,
				"y": -1.1612149567,
				"z": -3.1461570377,
				"element": "H" 
			},
			{
				"x": 1.9593528676,
				"y": -0.7930672833,
				"z": -4.8354075771,
				"element": "H" 
			},
			{
				"x": 2.1615534952,
				"y": 0.5208902782,
				"z": -3.6773658232,
				"element": "H" 
			},
			{
				"x": -0.241302635,
				"y": 0.1339809689,
				"z": -4.1471008996,
				"element": "H" 
			},
			{
				"x": -0.1398575723,
				"y": -2.1097464584,
				"z": -4.8116580062,
				"element": "H" 
			},
			{
				"x": 0.1526014018,
				"y": -2.6285117794,
				"z": -3.2919968903,
				"element": "H" 
			},
			{
				"x": -2.0550578289,
				"y": -1.1060709449,
				"z": -2.219733562,
				"element": "H" 
			},
			{
				"x": -2.7445968127,
				"y": -0.5268001289,
				"z": 0.0928955113,
				"element": "H" 
			},
			{
				"x": -2.2494278363,
				"y": 1.2232339183,
				"z": 1.9315535615,
				"element": "H" 
			},
			{
				"x": 1.3347514965,
				"y": 1.7526429402,
				"z": 4.6233558068,
				"element": "H" 
			},
			{
				"x": 3.471890937,
				"y": 0.547625343,
				"z": 5.1859589556,
				"element": "H" 
			},
			{
				"x": 2.268399684,
				"y": -2.7246590716,
				"z": 2.6935379345,
				"element": "H" 
			},
			{
				"x": 0.1736828707,
				"y": -1.5131507475,
				"z": 2.0917990559,
				"element": "H" 
			},
			{
				"x": 1.0668148201,
				"y": 1.3460933506,
				"z": 0.7401500705,
				"element": "H" 
			},
			{
				"x": 1.7584795568,
				"y": 0.7310803553,
				"z": -1.5240311396,
				"element": "H" 
			}
		],
		 "valence_orbital": [ 
			{
				"type": "occ",
				"energy": -0.26194,
				"method": "rhf"
			},
			{
				"type": "occ",
				"energy": -0.25395,
				"method": "rhf"
			},
			{
				"type": "occ",
				"energy": -0.24479,
				"method": "rhf"
			},
			{
				"type": "occ",
				"energy": -0.24283,
				"method": "rhf"
			},
			{
				"type": "occ",
				"energy": -0.22183,
				"method": "rhf"
			},
			{
				"type": "unocc",
				"energy": -0.03892,
				"method": "rhf"
			},
			{
				"type": "unocc",
				"energy": -0.01852,
				"method": "rhf"
			},
			{
				"type": "unocc",
				"energy": -0.005,
				"method": "rhf"
			},
			{
				"type": "unocc",
				"energy": -0.00235,
				"method": "rhf"
			},
			{
				"type": "unocc",
				"energy": 0.05721,
				"method": "rhf"
			}
		],
		"cosmo_sigma_profile": { 
			"-0.025": 0.0,
			"-0.024": 0.0,
			"-0.023": 0.0,
			"-0.022": 0.0,
			"-0.021": 0.0,
			"-0.02": 0.0,
			"-0.019": 0.0,
			"-0.018": 0.0,
			"-0.017": 0.0,
			"-0.016": 0.0,
			"-0.015": 0.030035381265,
			"-0.014": 0.632538220294,
			"-0.013": 0.876216925797,
			"-0.012": 1.22918366961,
			"-0.011": 0.868155265123,
			"-0.01": 1.1989157691,
			"-0.009": 3.76409591596,
			"-0.008": 5.13069940669,
			"-0.007": 8.53479122069,
			"-0.006": 13.0036538829,
			"-0.005": 18.0867241104,
			"-0.004": 20.6510968963,
			"-0.003": 24.1283540576,
			"-0.002": 21.216782904,
			"-0.001": 23.3289714937,
			"0.0": 26.8399770189,
			"0.001": 27.6354026559,
			"0.002": 22.1559506826,
			"0.003": 22.4215485997,
			"0.004": 20.401108346,
			"0.005": 11.9217718656,
			"0.006": 4.46983872875,
			"0.007": 2.48145123427,
			"0.008": 1.93124146772,
			"0.009": 2.36908957926,
			"0.01": 2.75646558876,
			"0.011": 2.17310812596,
			"0.012": 3.05884103487,
			"0.013": 5.97185880572,
			"0.014": 2.77171624722,
			"0.015": 0.270019338144,
			"0.016": 0.576062515727,
			"0.017": 0.0219946125066,
			"0.018": 0.0,
			"0.019": 0.0,
			"0.02": 0.0,
			"0.021": 0.0,
			"0.022": 0.0,
			"0.023": 0.0,
			"0.024": 0.0,
			"0.025": 0.0
		}
	}
}
