{
	 "smiles": "CC(=O)OC1=CC=C(Br)C=C1", 
	 "Tm": 294.15, 
	 "num_atms": 18, 
	 "gaussian": { 
		 "optdone": 1, 
		 "sigma_profile": "yes", 
		 "theory": "DFT", 
		 "functional": "B3LYP", 
		 "basiset": "6-31G**", 
		 "properties": { 
			 "R2extent": 4202.7834, 
			 "electric_dipole_moment_norm": 2.81829532342, 
			 "electric_quadrupole_moment_norm": 9.92404243592, 
			 "total_energy": -3030.93007976, 
			 "HOMO_LUMO_gap": 0.21284, 
			 "cosmo_polarized_energy": -7.28, 
			 "cosmo_cavitation_energy": 25.2, 
			 "cosmo_dispersion_energy": -18.95, 
			 "cosmo_repulsion_energy": 1.54, 
			 "cosmo_total_nonelectrostatic_energy": 7.78, 
			 "SMD_solvation_energy": 4.57 
		},
		"coords": [
			{
				"x": 3.2881595748,
				"y": -0.5668151172,
				"z": 2.348620694,
				"element": "C" 
			},
			{
				"x": 1.9953690547,
				"y": -0.6771280443,
				"z": 1.5796589644,
				"element": "C" 
			},
			{
				"x": 1.1656403402,
				"y": -1.5427341629,
				"z": 1.7078412241,
				"element": "O" 
			},
			{
				"x": 1.9015390065,
				"y": 0.3685743799,
				"z": 0.6961190599,
				"element": "O" 
			},
			{
				"x": 0.8210420729,
				"y": 0.518511378,
				"z": -0.1704612937,
				"element": "C" 
			},
			{
				"x": -0.5006557209,
				"y": 0.2217093585,
				"z": 0.1683675411,
				"element": "C" 
			},
			{
				"x": -1.5128387475,
				"y": 0.4795755053,
				"z": -0.7573507828,
				"element": "C" 
			},
			{
				"x": -1.1978891317,
				"y": 1.0296723839,
				"z": -1.9982157759,
				"element": "C" 
			},
			{
				"x": -2.5933941481,
				"y": 1.3778886345,
				"z": -3.256840875,
				"element": "Br" 
			},
			{
				"x": 0.1208570393,
				"y": 1.3315095076,
				"z": -2.3343716024,
				"element": "C" 
			},
			{
				"x": 1.1328755384,
				"y": 1.0720777383,
				"z": -1.4126601723,
				"element": "C" 
			},
			{
				"x": 4.137847398,
				"y": -0.6067761335,
				"z": 1.6606616014,
				"element": "H" 
			},
			{
				"x": 3.3347735074,
				"y": 0.3942977465,
				"z": 2.8688567526,
				"element": "H" 
			},
			{
				"x": 3.3513015835,
				"y": -1.3843393634,
				"z": 3.0657691999,
				"element": "H" 
			},
			{
				"x": -0.7394321079,
				"y": -0.2141569091,
				"z": 1.1281531407,
				"element": "H" 
			},
			{
				"x": -2.542915257,
				"y": 0.2514748052,
				"z": -0.508769051,
				"element": "H" 
			},
			{
				"x": 0.3560150549,
				"y": 1.7618662363,
				"z": -3.3008596473,
				"element": "H" 
			},
			{
				"x": 2.1679049424,
				"y": 1.2994920563,
				"z": -1.6447189778,
				"element": "H" 
			}
		],
		 "valence_orbital": [ 
			{
				"type": "occ",
				"energy": -0.30254,
				"method": "rhf"
			},
			{
				"type": "occ",
				"energy": -0.28801,
				"method": "rhf"
			},
			{
				"type": "occ",
				"energy": -0.28595,
				"method": "rhf"
			},
			{
				"type": "occ",
				"energy": -0.26705,
				"method": "rhf"
			},
			{
				"type": "occ",
				"energy": -0.23696,
				"method": "rhf"
			},
			{
				"type": "unocc",
				"energy": -0.02412,
				"method": "rhf"
			},
			{
				"type": "unocc",
				"energy": -0.01828,
				"method": "rhf"
			},
			{
				"type": "unocc",
				"energy": 0.00635,
				"method": "rhf"
			},
			{
				"type": "unocc",
				"energy": 0.00963,
				"method": "rhf"
			},
			{
				"type": "unocc",
				"energy": 0.09857,
				"method": "rhf"
			}
		],
		"cosmo_sigma_profile": { 
			"-0.025": 0.0,
			"-0.024": 0.0,
			"-0.023": 0.0,
			"-0.022": 0.0,
			"-0.021": 0.0,
			"-0.02": 0.0,
			"-0.019": 0.0,
			"-0.018": 0.0,
			"-0.017": 0.0,
			"-0.016": 0.0,
			"-0.015": 0.0,
			"-0.014": 0.0,
			"-0.013": 0.0,
			"-0.012": 0.0,
			"-0.011": 0.0,
			"-0.01": 0.0,
			"-0.009": 0.0,
			"-0.008": 1.20675280778,
			"-0.007": 8.38624066145,
			"-0.006": 13.5064815583,
			"-0.005": 14.5126682604,
			"-0.004": 13.7887227976,
			"-0.003": 15.9365934557,
			"-0.002": 16.360065553,
			"-0.001": 12.2759114911,
			"0.0": 11.3621731725,
			"0.001": 16.2514165259,
			"0.002": 22.4506116294,
			"0.003": 19.4745376092,
			"0.004": 14.8050611688,
			"0.005": 9.26462482752,
			"0.006": 2.28667822305,
			"0.007": 1.81998945317,
			"0.008": 1.8206278504,
			"0.009": 2.1419343713,
			"0.01": 2.8723759644,
			"0.011": 3.52771700555,
			"0.012": 1.25919857943,
			"0.013": 0.0386416459031,
			"0.014": 0.0,
			"0.015": 0.0,
			"0.016": 0.0,
			"0.017": 0.0,
			"0.018": 0.0,
			"0.019": 0.0,
			"0.02": 0.0,
			"0.021": 0.0,
			"0.022": 0.0,
			"0.023": 0.0,
			"0.024": 0.0,
			"0.025": 0.0
		}
	}
}
