{
	 "smiles": "OC(=O)C1=C(N=CC=C1)N1C=NC2=C1C=CC=C2", 
	 "Tm": 523.15, 
	 "num_atms": 27, 
	 "gaussian": { 
		 "optdone": 1, 
		 "sigma_profile": "yes", 
		 "theory": "DFT", 
		 "functional": "B3LYP", 
		 "basiset": "6-31G**", 
		 "properties": { 
			 "R2extent": 4512.8643, 
			 "electric_dipole_moment_norm": 6.56899281321, 
			 "electric_quadrupole_moment_norm": 22.2266706025, 
			 "total_energy": -815.510121781, 
			 "HOMO_LUMO_gap": 0.15517, 
			 "cosmo_polarized_energy": -22.72, 
			 "cosmo_cavitation_energy": 31.89, 
			 "cosmo_dispersion_energy": -23.15, 
			 "cosmo_repulsion_energy": 1.75, 
			 "cosmo_total_nonelectrostatic_energy": 10.48, 
			 "SMD_solvation_energy": 3.89 
		},
		"coords": [
			{
				"x": -3.2097482211,
				"y": 1.3068434686,
				"z": -1.7560261914,
				"element": "O" 
			},
			{
				"x": -1.9538359373,
				"y": 0.8576318873,
				"z": -1.4809949121,
				"element": "C" 
			},
			{
				"x": -0.99834723,
				"y": 1.5703398088,
				"z": -1.6516495574,
				"element": "O" 
			},
			{
				"x": -1.8711416708,
				"y": -0.5737060779,
				"z": -1.0265606844,
				"element": "C" 
			},
			{
				"x": -1.0060327317,
				"y": -1.0272427587,
				"z": 0.0014919054,
				"element": "C" 
			},
			{
				"x": -0.7775923555,
				"y": -2.3244732321,
				"z": 0.2223426487,
				"element": "N" 
			},
			{
				"x": -1.410099948,
				"y": -3.2308525292,
				"z": -0.5265204377,
				"element": "C" 
			},
			{
				"x": -2.3399449914,
				"y": -2.9013206454,
				"z": -1.5102090964,
				"element": "C" 
			},
			{
				"x": -2.5581163562,
				"y": -1.5493893258,
				"z": -1.7590457977,
				"element": "C" 
			},
			{
				"x": -0.3629841767,
				"y": -0.1413779254,
				"z": 0.8796446245,
				"element": "N" 
			},
			{
				"x": -0.8575632873,
				"y": 1.0779859002,
				"z": 1.3493714994,
				"element": "C" 
			},
			{
				"x": -0.0913732051,
				"y": 1.6640312849,
				"z": 2.2159936283,
				"element": "N" 
			},
			{
				"x": 1.0067087283,
				"y": 0.8166164636,
				"z": 2.3568604383,
				"element": "C" 
			},
			{
				"x": 0.8563200504,
				"y": -0.3344983221,
				"z": 1.5521419396,
				"element": "C" 
			},
			{
				"x": 1.8210246697,
				"y": -1.3421135687,
				"z": 1.5120713175,
				"element": "C" 
			},
			{
				"x": 2.9514057167,
				"y": -1.1594551471,
				"z": 2.3070273972,
				"element": "C" 
			},
			{
				"x": 3.1142576215,
				"y": -0.0181450372,
				"z": 3.1144277013,
				"element": "C" 
			},
			{
				"x": 2.1463934203,
				"y": 0.9808387215,
				"z": 3.149903541,
				"element": "C" 
			},
			{
				"x": -3.8670770093,
				"y": 0.6651645748,
				"z": -1.4504961919,
				"element": "H" 
			},
			{
				"x": -1.1647418365,
				"y": -4.2704888435,
				"z": -0.3196397378,
				"element": "H" 
			},
			{
				"x": -2.8486146348,
				"y": -3.6713645387,
				"z": -2.0792058033,
				"element": "H" 
			},
			{
				"x": -3.2212767767,
				"y": -1.2435192741,
				"z": -2.5639839429,
				"element": "H" 
			},
			{
				"x": -1.8176378229,
				"y": 1.4521416153,
				"z": 1.0235414579,
				"element": "H" 
			},
			{
				"x": 1.6870365649,
				"y": -2.229834092,
				"z": 0.9084834937,
				"element": "H" 
			},
			{
				"x": 3.7234706695,
				"y": -1.9232783279,
				"z": 2.3057628302,
				"element": "H" 
			},
			{
				"x": 4.0106559552,
				"y": 0.080303052,
				"z": 3.7194664586,
				"element": "H" 
			},
			{
				"x": 2.2576547948,
				"y": 1.8679628687,
				"z": 3.7645014715,
				"element": "H" 
			}
		],
		 "valence_orbital": [ 
			{
				"type": "occ",
				"energy": -0.28675,
				"method": "rhf"
			},
			{
				"type": "occ",
				"energy": -0.27841,
				"method": "rhf"
			},
			{
				"type": "occ",
				"energy": -0.27222,
				"method": "rhf"
			},
			{
				"type": "occ",
				"energy": -0.2281,
				"method": "rhf"
			},
			{
				"type": "occ",
				"energy": -0.22431,
				"method": "rhf"
			},
			{
				"type": "unocc",
				"energy": -0.06914,
				"method": "rhf"
			},
			{
				"type": "unocc",
				"energy": -0.05749,
				"method": "rhf"
			},
			{
				"type": "unocc",
				"energy": -0.01285,
				"method": "rhf"
			},
			{
				"type": "unocc",
				"energy": 0.00876,
				"method": "rhf"
			},
			{
				"type": "unocc",
				"energy": 0.02384,
				"method": "rhf"
			}
		],
		"cosmo_sigma_profile": { 
			"-0.025": 0.0,
			"-0.024": 0.0,
			"-0.023": 0.0,
			"-0.022": 0.0,
			"-0.021": 0.0,
			"-0.02": 0.0130021198318,
			"-0.019": 0.752271704777,
			"-0.018": 1.07951898599,
			"-0.017": 0.640962738559,
			"-0.016": 1.34264815859,
			"-0.015": 1.34581352428,
			"-0.014": 1.01852322688,
			"-0.013": 1.38368416474,
			"-0.012": 1.96666200437,
			"-0.011": 2.35469782198,
			"-0.01": 2.8923875515,
			"-0.009": 3.95034638155,
			"-0.008": 7.70302909426,
			"-0.007": 9.67854428717,
			"-0.006": 10.9178523832,
			"-0.005": 14.0396210099,
			"-0.004": 14.0498892596,
			"-0.003": 15.3976121926,
			"-0.002": 14.5590812417,
			"-0.001": 16.4769413727,
			"0.0": 17.5484371548,
			"0.001": 16.9879418597,
			"0.002": 11.2976580948,
			"0.003": 13.79367205,
			"0.004": 15.9063450257,
			"0.005": 15.0409731919,
			"0.006": 6.81741654274,
			"0.007": 5.90169060129,
			"0.008": 5.50327631024,
			"0.009": 5.88162336383,
			"0.01": 7.59460995737,
			"0.011": 6.48968585961,
			"0.012": 2.86568389086,
			"0.013": 0.999187359962,
			"0.014": 1.19694389159,
			"0.015": 1.08028238564,
			"0.016": 0.81148105721,
			"0.017": 0.240593459564,
			"0.018": 0.0,
			"0.019": 0.0,
			"0.02": 0.0,
			"0.021": 0.0,
			"0.022": 0.0,
			"0.023": 0.0,
			"0.024": 0.0,
			"0.025": 0.0
		}
	}
}
