{
	 "smiles": "CC1=C2CCCC2=C(O)C=C1", 
	 "Tm": 355.65, 
	 "num_atms": 23, 
	 "gaussian": { 
		 "optdone": 1, 
		 "sigma_profile": "yes", 
		 "theory": "DFT", 
		 "functional": "B3LYP", 
		 "basiset": "6-31G**", 
		 "properties": { 
			 "R2extent": 2481.5123, 
			 "electric_dipole_moment_norm": 1.94529042819, 
			 "electric_quadrupole_moment_norm": 9.36633250371, 
			 "total_energy": -463.534130535, 
			 "HOMO_LUMO_gap": 0.21575, 
			 "cosmo_polarized_energy": -7.26, 
			 "cosmo_cavitation_energy": 24.8, 
			 "cosmo_dispersion_energy": -18.61, 
			 "cosmo_repulsion_energy": 1.5, 
			 "cosmo_total_nonelectrostatic_energy": 7.69, 
			 "SMD_solvation_energy": 3.78 
		},
		"coords": [
			{
				"x": 1.2328544808,
				"y": -1.968248349,
				"z": 0.4704173793,
				"element": "C" 
			},
			{
				"x": 1.0202662121,
				"y": -0.6800817213,
				"z": 1.2289829211,
				"element": "C" 
			},
			{
				"x": -0.0654443662,
				"y": 0.1615202653,
				"z": 0.9563779875,
				"element": "C" 
			},
			{
				"x": -1.1735814967,
				"y": -0.036047692,
				"z": -0.0585850046,
				"element": "C" 
			},
			{
				"x": -1.8259236315,
				"y": 1.3653094939,
				"z": -0.1602505623,
				"element": "C" 
			},
			{
				"x": -1.5282068488,
				"y": 2.0568715364,
				"z": 1.1956773736,
				"element": "C" 
			},
			{
				"x": -0.2715149364,
				"y": 1.3514746293,
				"z": 1.6639988284,
				"element": "C" 
			},
			{
				"x": 0.6142277287,
				"y": 1.7314685193,
				"z": 2.6749006831,
				"element": "C" 
			},
			{
				"x": 0.4622726234,
				"y": 2.8792829945,
				"z": 3.4085273818,
				"element": "O" 
			},
			{
				"x": 1.7126271428,
				"y": 0.9130479733,
				"z": 2.9549992854,
				"element": "C" 
			},
			{
				"x": 1.9019158272,
				"y": -0.2697902394,
				"z": 2.2399820875,
				"element": "C" 
			},
			{
				"x": 0.3937314612,
				"y": -2.6624015713,
				"z": 0.6039193994,
				"element": "H" 
			},
			{
				"x": 2.1399688453,
				"y": -2.4788058339,
				"z": 0.8060495687,
				"element": "H" 
			},
			{
				"x": 1.3303704881,
				"y": -1.794478536,
				"z": -0.6084774703,
				"element": "H" 
			},
			{
				"x": -1.8945506896,
				"y": -0.7836978384,
				"z": 0.3038327333,
				"element": "H" 
			},
			{
				"x": -0.8126473819,
				"y": -0.3992387223,
				"z": -1.027265032,
				"element": "H" 
			},
			{
				"x": -1.3404631562,
				"y": 1.9305919271,
				"z": -0.96315969,
				"element": "H" 
			},
			{
				"x": -2.8947178603,
				"y": 1.3248463411,
				"z": -0.3882909951,
				"element": "H" 
			},
			{
				"x": -2.3535201354,
				"y": 1.902910962,
				"z": 1.9068736737,
				"element": "H" 
			},
			{
				"x": -1.4100297776,
				"y": 3.1427725461,
				"z": 1.0799788784,
				"element": "H" 
			},
			{
				"x": -0.3281198225,
				"y": 3.3421957085,
				"z": 3.1032326102,
				"element": "H" 
			},
			{
				"x": 2.4063272385,
				"y": 1.2152362055,
				"z": 3.732936319,
				"element": "H" 
			},
			{
				"x": 2.762458055,
				"y": -0.8918385987,
				"z": 2.474741644,
				"element": "H" 
			}
		],
		 "valence_orbital": [ 
			{
				"type": "occ",
				"energy": -0.33424,
				"method": "rhf"
			},
			{
				"type": "occ",
				"energy": -0.3231,
				"method": "rhf"
			},
			{
				"type": "occ",
				"energy": -0.30645,
				"method": "rhf"
			},
			{
				"type": "occ",
				"energy": -0.22826,
				"method": "rhf"
			},
			{
				"type": "occ",
				"energy": -0.20523,
				"method": "rhf"
			},
			{
				"type": "unocc",
				"energy": 0.01052,
				"method": "rhf"
			},
			{
				"type": "unocc",
				"energy": 0.02026,
				"method": "rhf"
			},
			{
				"type": "unocc",
				"energy": 0.06749,
				"method": "rhf"
			},
			{
				"type": "unocc",
				"energy": 0.09454,
				"method": "rhf"
			},
			{
				"type": "unocc",
				"energy": 0.11316,
				"method": "rhf"
			}
		],
		"cosmo_sigma_profile": { 
			"-0.025": 0.0,
			"-0.024": 0.0,
			"-0.023": 0.0,
			"-0.022": 0.0,
			"-0.021": 0.0,
			"-0.02": 0.0,
			"-0.019": 0.0,
			"-0.018": 0.0,
			"-0.017": 0.0,
			"-0.016": 0.279669467128,
			"-0.015": 0.945075979246,
			"-0.014": 0.547087698437,
			"-0.013": 0.788710395372,
			"-0.012": 1.35364095742,
			"-0.011": 1.10635026052,
			"-0.01": 1.0452007203,
			"-0.009": 1.01736213632,
			"-0.008": 1.35726414608,
			"-0.007": 1.18965500636,
			"-0.006": 1.56382552143,
			"-0.005": 4.14479260543,
			"-0.004": 11.1946592297,
			"-0.003": 22.0638275992,
			"-0.002": 24.7897817025,
			"-0.001": 25.4248667308,
			"0.0": 22.7791637334,
			"0.001": 17.677159401,
			"0.002": 7.28532843225,
			"0.003": 6.79720315737,
			"0.004": 7.86045356093,
			"0.005": 9.11304435053,
			"0.006": 8.44837760279,
			"0.007": 7.05002272682,
			"0.008": 1.95630478037,
			"0.009": 1.29379532432,
			"0.01": 1.92617406094,
			"0.011": 1.72882336765,
			"0.012": 1.79367978496,
			"0.013": 0.0593465343795,
			"0.014": 0.0,
			"0.015": 0.0,
			"0.016": 0.0,
			"0.017": 0.0,
			"0.018": 0.0,
			"0.019": 0.0,
			"0.02": 0.0,
			"0.021": 0.0,
			"0.022": 0.0,
			"0.023": 0.0,
			"0.024": 0.0,
			"0.025": 0.0
		}
	}
}
