{
	 "smiles": "OC(C(O)C1=CC=C(F)C=C1)C1=CC=C(F)C=C1", 
	 "Tm": 426.15, 
	 "num_atms": 30, 
	 "gaussian": { 
		 "optdone": 1, 
		 "sigma_profile": "yes", 
		 "theory": "DFT", 
		 "functional": "B3LYP", 
		 "basiset": "6-31G**", 
		 "properties": { 
			 "R2extent": 4992.2188, 
			 "electric_dipole_moment_norm": 3.02132349145, 
			 "electric_quadrupole_moment_norm": 13.5134405297, 
			 "total_energy": -890.825372333, 
			 "HOMO_LUMO_gap": 0.21455, 
			 "cosmo_polarized_energy": -12.73, 
			 "cosmo_cavitation_energy": 34.72, 
			 "cosmo_dispersion_energy": -23.53, 
			 "cosmo_repulsion_energy": 1.78, 
			 "cosmo_total_nonelectrostatic_energy": 12.97, 
			 "SMD_solvation_energy": 6.66 
		},
		"coords": [
			{
				"x": 2.2649856443,
				"y": 0.3770055396,
				"z": -1.8674067959,
				"element": "O" 
			},
			{
				"x": 1.2688457801,
				"y": 0.686102546,
				"z": -0.9051301154,
				"element": "C" 
			},
			{
				"x": -0.1161928088,
				"y": 0.5399698675,
				"z": -1.5983183621,
				"element": "C" 
			},
			{
				"x": -0.1342555186,
				"y": -0.8052261872,
				"z": -2.0861880203,
				"element": "O" 
			},
			{
				"x": -1.3172387232,
				"y": 0.869077966,
				"z": -0.7369763299,
				"element": "C" 
			},
			{
				"x": -1.7898233086,
				"y": 2.1863024745,
				"z": -0.6678676199,
				"element": "C" 
			},
			{
				"x": -2.8807225862,
				"y": 2.5187631997,
				"z": 0.134894222,
				"element": "C" 
			},
			{
				"x": -3.5025961129,
				"y": 1.5090750281,
				"z": 0.8612762304,
				"element": "C" 
			},
			{
				"x": -4.5650954261,
				"y": 1.8184736594,
				"z": 1.6331795858,
				"element": "F" 
			},
			{
				"x": -3.066419711,
				"y": 0.189880936,
				"z": 0.8091144147,
				"element": "C" 
			},
			{
				"x": -1.9680650743,
				"y": -0.1225582628,
				"z": 0.0090442933,
				"element": "C" 
			},
			{
				"x": 1.4156170603,
				"y": -0.1250932679,
				"z": 0.37625894,
				"element": "C" 
			},
			{
				"x": 1.8996787236,
				"y": -1.4386217783,
				"z": 0.3512956723,
				"element": "C" 
			},
			{
				"x": 2.0256186141,
				"y": -2.1815753982,
				"z": 1.5245297351,
				"element": "C" 
			},
			{
				"x": 1.6657700349,
				"y": -1.5922271354,
				"z": 2.7311432197,
				"element": "C" 
			},
			{
				"x": 1.789546292,
				"y": -2.3047238199,
				"z": 3.8722951613,
				"element": "F" 
			},
			{
				"x": 1.1917188172,
				"y": -0.2878520663,
				"z": 2.7972077513,
				"element": "C" 
			},
			{
				"x": 1.072723615,
				"y": 0.4382173519,
				"z": 1.6119187344,
				"element": "C" 
			},
			{
				"x": 1.9194483522,
				"y": -0.3794171409,
				"z": -2.3654443874,
				"element": "H" 
			},
			{
				"x": 1.3901163936,
				"y": 1.747175863,
				"z": -0.6569683926,
				"element": "H" 
			},
			{
				"x": -0.0871122352,
				"y": 1.2398324948,
				"z": -2.4476181952,
				"element": "H" 
			},
			{
				"x": -0.9105007704,
				"y": -0.9129640093,
				"z": -2.6505969261,
				"element": "H" 
			},
			{
				"x": -1.304371911,
				"y": 2.9642588427,
				"z": -1.2525812691,
				"element": "H" 
			},
			{
				"x": -3.257950933,
				"y": 3.5338811073,
				"z": 0.1949579344,
				"element": "H" 
			},
			{
				"x": -3.5812640954,
				"y": -0.5676023527,
				"z": 1.3902606824,
				"element": "H" 
			},
			{
				"x": -1.6073443244,
				"y": -1.1440776903,
				"z": -0.0435456281,
				"element": "H" 
			},
			{
				"x": 2.1973809184,
				"y": -1.8817631025,
				"z": -0.5922592356,
				"element": "H" 
			},
			{
				"x": 2.4030206277,
				"y": -3.1985814985,
				"z": 1.5169175907,
				"element": "H" 
			},
			{
				"x": 0.932360826,
				"y": 0.142251682,
				"z": 3.7585669723,
				"element": "H" 
			},
			{
				"x": 0.7072218395,
				"y": 1.4608151518,
				"z": 1.6534401375,
				"element": "H" 
			}
		],
		 "valence_orbital": [ 
			{
				"type": "occ",
				"energy": -0.27689,
				"method": "rhf"
			},
			{
				"type": "occ",
				"energy": -0.26759,
				"method": "rhf"
			},
			{
				"type": "occ",
				"energy": -0.25406,
				"method": "rhf"
			},
			{
				"type": "occ",
				"energy": -0.24316,
				"method": "rhf"
			},
			{
				"type": "occ",
				"energy": -0.2341,
				"method": "rhf"
			},
			{
				"type": "unocc",
				"energy": -0.01955,
				"method": "rhf"
			},
			{
				"type": "unocc",
				"energy": -0.01158,
				"method": "rhf"
			},
			{
				"type": "unocc",
				"energy": -0.00371,
				"method": "rhf"
			},
			{
				"type": "unocc",
				"energy": 0.00385,
				"method": "rhf"
			},
			{
				"type": "unocc",
				"energy": 0.05883,
				"method": "rhf"
			}
		],
		"cosmo_sigma_profile": { 
			"-0.025": 0.0,
			"-0.024": 0.0,
			"-0.023": 0.0,
			"-0.022": 0.0,
			"-0.021": 0.0,
			"-0.02": 0.0,
			"-0.019": 0.0,
			"-0.018": 0.0,
			"-0.017": 0.051076878784,
			"-0.016": 1.11943639886,
			"-0.015": 0.811434537126,
			"-0.014": 0.922522756583,
			"-0.013": 0.715818686701,
			"-0.012": 1.31977240455,
			"-0.011": 1.10934580348,
			"-0.01": 1.16056930312,
			"-0.009": 1.68690982322,
			"-0.008": 2.09638326668,
			"-0.007": 8.23469090696,
			"-0.006": 17.8996046046,
			"-0.005": 21.3107364167,
			"-0.004": 17.7858930508,
			"-0.003": 14.1326704,
			"-0.002": 15.0156120194,
			"-0.001": 13.3220828933,
			"0.0": 14.3149816314,
			"0.001": 22.5497433895,
			"0.002": 24.3454757563,
			"0.003": 23.7419218651,
			"0.004": 35.7527895943,
			"0.005": 18.2057275461,
			"0.006": 3.62275857079,
			"0.007": 2.14391703136,
			"0.008": 2.12256865493,
			"0.009": 1.97544915555,
			"0.01": 1.77094996159,
			"0.011": 1.6380049433,
			"0.012": 1.56980309366,
			"0.013": 1.51520255397,
			"0.014": 2.14483257664,
			"0.015": 0.0421927694044,
			"0.016": 0.0,
			"0.017": 0.0,
			"0.018": 0.0,
			"0.019": 0.0,
			"0.02": 0.0,
			"0.021": 0.0,
			"0.022": 0.0,
			"0.023": 0.0,
			"0.024": 0.0,
			"0.025": 0.0
		}
	}
}
