{
	 "smiles": "ClCC1=C(C=CC=C1)C#N", 
	 "Tm": 334.15, 
	 "num_atms": 16, 
	 "gaussian": { 
		 "optdone": 1, 
		 "sigma_profile": "yes", 
		 "theory": "DFT", 
		 "functional": "B3LYP", 
		 "basiset": "6-31G**", 
		 "properties": { 
			 "R2extent": 1819.6815, 
			 "electric_dipole_moment_norm": 5.08447206306, 
			 "electric_quadrupole_moment_norm": 11.6261786826, 
			 "total_energy": -823.398385776, 
			 "HOMO_LUMO_gap": 0.20839, 
			 "cosmo_polarized_energy": -10.76, 
			 "cosmo_cavitation_energy": 23.0, 
			 "cosmo_dispersion_energy": -16.17, 
			 "cosmo_repulsion_energy": 1.32, 
			 "cosmo_total_nonelectrostatic_energy": 8.15, 
			 "SMD_solvation_energy": 4.84 
		},
		"coords": [
			{
				"x": 0.5899375782,
				"y": 2.9037000778,
				"z": 0.0085544769,
				"element": "Cl" 
			},
			{
				"x": 1.0454142377,
				"y": 1.140193587,
				"z": -0.1752898055,
				"element": "C" 
			},
			{
				"x": -0.1666484451,
				"y": 0.2568712102,
				"z": -0.2403390114,
				"element": "C" 
			},
			{
				"x": -0.6478324026,
				"y": -0.4207321846,
				"z": 0.901822237,
				"element": "C" 
			},
			{
				"x": -1.7875885555,
				"y": -1.2384971216,
				"z": 0.8184920111,
				"element": "C" 
			},
			{
				"x": -2.4534211205,
				"y": -1.3838114928,
				"z": -0.3942904399,
				"element": "C" 
			},
			{
				"x": -1.9838548347,
				"y": -0.7184267543,
				"z": -1.529414211,
				"element": "C" 
			},
			{
				"x": -0.8523551381,
				"y": 0.0913535762,
				"z": -1.4478940962,
				"element": "C" 
			},
			{
				"x": 0.0275256146,
				"y": -0.2992072956,
				"z": 2.1620934779,
				"element": "C" 
			},
			{
				"x": 0.5780554091,
				"y": -0.2144162505,
				"z": 3.1835263787,
				"element": "N" 
			},
			{
				"x": 1.6812736845,
				"y": 0.9078849883,
				"z": 0.6779436355,
				"element": "H" 
			},
			{
				"x": 1.6289944181,
				"y": 1.0825406968,
				"z": -1.0940984643,
				"element": "H" 
			},
			{
				"x": -2.1367595232,
				"y": -1.7521971167,
				"z": 1.7077689286,
				"element": "H" 
			},
			{
				"x": -3.3334487779,
				"y": -2.0162325867,
				"z": -0.4544468921,
				"element": "H" 
			},
			{
				"x": -2.4986715561,
				"y": -0.8316133673,
				"z": -2.4785829847,
				"element": "H" 
			},
			{
				"x": -0.4944205886,
				"y": 0.6121900338,
				"z": -2.3314452407,
				"element": "H" 
			}
		],
		 "valence_orbital": [ 
			{
				"type": "occ",
				"energy": -0.33874,
				"method": "rhf"
			},
			{
				"type": "occ",
				"energy": -0.3059,
				"method": "rhf"
			},
			{
				"type": "occ",
				"energy": -0.30126,
				"method": "rhf"
			},
			{
				"type": "occ",
				"energy": -0.27864,
				"method": "rhf"
			},
			{
				"type": "occ",
				"energy": -0.27306,
				"method": "rhf"
			},
			{
				"type": "unocc",
				"energy": -0.06467,
				"method": "rhf"
			},
			{
				"type": "unocc",
				"energy": -0.04323,
				"method": "rhf"
			},
			{
				"type": "unocc",
				"energy": 0.0265,
				"method": "rhf"
			},
			{
				"type": "unocc",
				"energy": 0.03113,
				"method": "rhf"
			},
			{
				"type": "unocc",
				"energy": 0.06832,
				"method": "rhf"
			}
		],
		"cosmo_sigma_profile": { 
			"-0.025": 0.0,
			"-0.024": 0.0,
			"-0.023": 0.0,
			"-0.022": 0.0,
			"-0.021": 0.0,
			"-0.02": 0.0,
			"-0.019": 0.0,
			"-0.018": 0.0,
			"-0.017": 0.0,
			"-0.016": 0.0,
			"-0.015": 0.0,
			"-0.014": 0.0,
			"-0.013": 0.0,
			"-0.012": 0.0,
			"-0.011": 0.0,
			"-0.01": 0.0,
			"-0.009": 1.04959821906,
			"-0.008": 7.01549578554,
			"-0.007": 13.362473436,
			"-0.006": 15.1919156783,
			"-0.005": 12.7436313033,
			"-0.004": 8.66244581407,
			"-0.003": 8.73221878101,
			"-0.002": 9.33206302219,
			"-0.001": 11.5275032913,
			"0.0": 12.4738552292,
			"0.001": 14.7353765834,
			"0.002": 15.8706463602,
			"0.003": 10.1820655912,
			"0.004": 7.30717427337,
			"0.005": 8.31919856342,
			"0.006": 12.3646242119,
			"0.007": 3.78293402469,
			"0.008": 2.78602433191,
			"0.009": 3.33963182062,
			"0.01": 2.9219764257,
			"0.011": 2.77486023499,
			"0.012": 2.32741034076,
			"0.013": 1.0636182219,
			"0.014": 0.0,
			"0.015": 0.0,
			"0.016": 0.0,
			"0.017": 0.0,
			"0.018": 0.0,
			"0.019": 0.0,
			"0.02": 0.0,
			"0.021": 0.0,
			"0.022": 0.0,
			"0.023": 0.0,
			"0.024": 0.0,
			"0.025": 0.0
		}
	}
}
