{
	 "smiles": "CCOC1=CC=C(C=CC(O)=O)C=C1", 
	 "Tm": 469.15, 
	 "num_atms": 26, 
	 "gaussian": { 
		 "optdone": 1, 
		 "sigma_profile": "yes", 
		 "theory": "DFT", 
		 "functional": "B3LYP", 
		 "basiset": "6-31G**", 
		 "properties": { 
			 "R2extent": 4844.0955, 
			 "electric_dipole_moment_norm": 4.7869763839, 
			 "electric_quadrupole_moment_norm": 18.760026581, 
			 "total_energy": -652.0637737, 
			 "HOMO_LUMO_gap": 0.15664, 
			 "cosmo_polarized_energy": -12.52, 
			 "cosmo_cavitation_energy": 30.21, 
			 "cosmo_dispersion_energy": -22.06, 
			 "cosmo_repulsion_energy": 1.75, 
			 "cosmo_total_nonelectrostatic_energy": 9.9, 
			 "SMD_solvation_energy": 6.94 
		},
		"coords": [
			{
				"x": 2.1898000572,
				"y": 2.462775828,
				"z": 2.887020222,
				"element": "C" 
			},
			{
				"x": 1.3779027707,
				"y": 2.7372861957,
				"z": 1.6257629318,
				"element": "C" 
			},
			{
				"x": 1.5411885558,
				"y": 1.7148076408,
				"z": 0.6365469349,
				"element": "O" 
			},
			{
				"x": 0.8298345266,
				"y": 0.5592759454,
				"z": 0.7235494517,
				"element": "C" 
			},
			{
				"x": -0.1151580054,
				"y": 0.2588556244,
				"z": 1.7146127652,
				"element": "C" 
			},
			{
				"x": -0.77944811,
				"y": -0.9638759259,
				"z": 1.6753093351,
				"element": "C" 
			},
			{
				"x": -0.5595553164,
				"y": -1.911534874,
				"z": 0.657672073,
				"element": "C" 
			},
			{
				"x": -1.3086476204,
				"y": -3.1656895255,
				"z": 0.7491154105,
				"element": "C" 
			},
			{
				"x": -1.6253678862,
				"y": -4.1747701413,
				"z": -0.0979722354,
				"element": "C" 
			},
			{
				"x": -1.4254344128,
				"y": -4.3931929624,
				"z": -1.539644215,
				"element": "C" 
			},
			{
				"x": -0.9463056869,
				"y": -3.3373581636,
				"z": -2.2511409108,
				"element": "O" 
			},
			{
				"x": -1.7091465814,
				"y": -5.4423839157,
				"z": -2.0902130322,
				"element": "O" 
			},
			{
				"x": 0.4103656565,
				"y": -1.5927126841,
				"z": -0.3181634739,
				"element": "C" 
			},
			{
				"x": 1.0901302657,
				"y": -0.3871142209,
				"z": -0.2828630146,
				"element": "C" 
			},
			{
				"x": 3.2481598549,
				"y": 2.3458035693,
				"z": 2.6376939921,
				"element": "H" 
			},
			{
				"x": 2.0903900088,
				"y": 3.3004338597,
				"z": 3.5854099476,
				"element": "H" 
			},
			{
				"x": 1.8565275443,
				"y": 1.5534066783,
				"z": 3.3943074833,
				"element": "H" 
			},
			{
				"x": 0.3138538872,
				"y": 2.8811199495,
				"z": 1.8504399929,
				"element": "H" 
			},
			{
				"x": 1.734522947,
				"y": 3.6470233589,
				"z": 1.1350425919,
				"element": "H" 
			},
			{
				"x": -0.3299060033,
				"y": 0.9528115378,
				"z": 2.5180969728,
				"element": "H" 
			},
			{
				"x": -1.4995884453,
				"y": -1.1889855292,
				"z": 2.4581229366,
				"element": "H" 
			},
			{
				"x": -1.705309918,
				"y": -3.3213968754,
				"z": 1.7532788622,
				"element": "H" 
			},
			{
				"x": -2.1702036568,
				"y": -5.0114997243,
				"z": 0.3279179005,
				"element": "H" 
			},
			{
				"x": -0.9148589943,
				"y": -3.648891208,
				"z": -3.1711762057,
				"element": "H" 
			},
			{
				"x": 0.6313962656,
				"y": -2.3003077077,
				"z": -1.1043188558,
				"element": "H" 
			},
			{
				"x": 1.8388582969,
				"y": -0.14638673,
				"z": -1.0305078604,
				"element": "H" 
			}
		],
		 "valence_orbital": [ 
			{
				"type": "occ",
				"energy": -0.30974,
				"method": "rhf"
			},
			{
				"type": "occ",
				"energy": -0.28108,
				"method": "rhf"
			},
			{
				"type": "occ",
				"energy": -0.26654,
				"method": "rhf"
			},
			{
				"type": "occ",
				"energy": -0.25698,
				"method": "rhf"
			},
			{
				"type": "occ",
				"energy": -0.21445,
				"method": "rhf"
			},
			{
				"type": "unocc",
				"energy": -0.05781,
				"method": "rhf"
			},
			{
				"type": "unocc",
				"energy": -0.00672,
				"method": "rhf"
			},
			{
				"type": "unocc",
				"energy": 0.02567,
				"method": "rhf"
			},
			{
				"type": "unocc",
				"energy": 0.0775,
				"method": "rhf"
			},
			{
				"type": "unocc",
				"energy": 0.08601,
				"method": "rhf"
			}
		],
		"cosmo_sigma_profile": { 
			"-0.025": 0.0,
			"-0.024": 0.0,
			"-0.023": 0.0,
			"-0.022": 0.0,
			"-0.021": 0.0,
			"-0.02": 0.0,
			"-0.019": 0.00618061565605,
			"-0.018": 0.443130833078,
			"-0.017": 0.751739347842,
			"-0.016": 1.11068395418,
			"-0.015": 0.371456728673,
			"-0.014": 0.61291563131,
			"-0.013": 0.454665428717,
			"-0.012": 0.603689855685,
			"-0.011": 1.14146686138,
			"-0.01": 1.24473711824,
			"-0.009": 0.350260910553,
			"-0.008": 0.440123264343,
			"-0.007": 6.28586329407,
			"-0.006": 13.1658660474,
			"-0.005": 15.1559640567,
			"-0.004": 19.7346948065,
			"-0.003": 19.5868572111,
			"-0.002": 18.3333963438,
			"-0.001": 18.8723454054,
			"0.0": 17.5697919438,
			"0.001": 15.1201921904,
			"0.002": 14.7024953313,
			"0.003": 17.3351810996,
			"0.004": 18.0440226135,
			"0.005": 9.84212798809,
			"0.006": 4.8533746296,
			"0.007": 3.51980691924,
			"0.008": 3.25990550282,
			"0.009": 3.29685798301,
			"0.01": 2.79311553439,
			"0.011": 2.70762600742,
			"0.012": 5.14655606352,
			"0.013": 2.85067859475,
			"0.014": 0.299289907985,
			"0.015": 0.0,
			"0.016": 0.0,
			"0.017": 0.0,
			"0.018": 0.0,
			"0.019": 0.0,
			"0.02": 0.0,
			"0.021": 0.0,
			"0.022": 0.0,
			"0.023": 0.0,
			"0.024": 0.0,
			"0.025": 0.0
		}
	}
}
