{
	 "smiles": "OC(=O)C1=C(F)C=C(F)C(I)=C1", 
	 "Tm": 437.15, 
	 "num_atms": 15, 
	 "gaussian": { 
		 "optdone": 1, 
		 "sigma_profile": "yes", 
		 "theory": "DFT", 
		 "functional": "B3LYP", 
		 "basiset": "6-31G**", 
		 "properties": { 
			 "R2extent": 2272.107, 
			 "electric_dipole_moment_norm": 1.4112406563, 
			 "electric_quadrupole_moment_norm": 5.51498790298, 
			 "total_energy": -630.062811709, 
			 "HOMO_LUMO_gap": 0.18834, 
			 "cosmo_polarized_energy": -8.95, 
			 "cosmo_cavitation_energy": 24.51, 
			 "cosmo_dispersion_energy": -19.28, 
			 "cosmo_repulsion_energy": 1.46, 
			 "cosmo_total_nonelectrostatic_energy": 6.7, 
			 "SMD_solvation_energy": 5.59 
		},
		"coords": [
			{
				"x": -0.372638518,
				"y": -3.5025138225,
				"z": 0.5842476289,
				"element": "O" 
			},
			{
				"x": 0.2011797846,
				"y": -2.4942222349,
				"z": 1.272154085,
				"element": "C" 
			},
			{
				"x": 0.6660778658,
				"y": -2.6453239615,
				"z": 2.385003303,
				"element": "O" 
			},
			{
				"x": 0.2129426972,
				"y": -1.1910388111,
				"z": 0.5497941799,
				"element": "C" 
			},
			{
				"x": -0.3075001732,
				"y": -0.9578779092,
				"z": -0.7318312281,
				"element": "C" 
			},
			{
				"x": -0.8821741981,
				"y": -1.9393595203,
				"z": -1.4353820964,
				"element": "F" 
			},
			{
				"x": -0.2498000232,
				"y": 0.2979274766,
				"z": -1.3252971315,
				"element": "C" 
			},
			{
				"x": 0.3394427037,
				"y": 1.3431162571,
				"z": -0.6259573511,
				"element": "C" 
			},
			{
				"x": 0.3892454558,
				"y": 2.5459624492,
				"z": -1.2068159767,
				"element": "F" 
			},
			{
				"x": 0.8715070101,
				"y": 1.1566704832,
				"z": 0.6541665556,
				"element": "C" 
			},
			{
				"x": 1.7558778895,
				"y": 2.7680174253,
				"z": 1.6784470943,
				"element": "I" 
			},
			{
				"x": 0.8008658068,
				"y": -0.1081713315,
				"z": 1.2245632853,
				"element": "C" 
			},
			{
				"x": -0.3123502863,
				"y": -4.2805424405,
				"z": 1.1641100022,
				"element": "H" 
			},
			{
				"x": -0.6573154036,
				"y": 0.4586078923,
				"z": -2.3160170428,
				"element": "H" 
			},
			{
				"x": 1.2000393889,
				"y": -0.2979519521,
				"z": 2.2139146925,
				"element": "H" 
			}
		],
		 "valence_orbital": [ 
			{
				"type": "occ",
				"energy": -0.30904,
				"method": "rhf"
			},
			{
				"type": "occ",
				"energy": -0.29277,
				"method": "rhf"
			},
			{
				"type": "occ",
				"energy": -0.28174,
				"method": "rhf"
			},
			{
				"type": "occ",
				"energy": -0.27958,
				"method": "rhf"
			},
			{
				"type": "occ",
				"energy": -0.2526,
				"method": "rhf"
			},
			{
				"type": "unocc",
				"energy": -0.06426,
				"method": "rhf"
			},
			{
				"type": "unocc",
				"energy": -0.05165,
				"method": "rhf"
			},
			{
				"type": "unocc",
				"energy": -0.03572,
				"method": "rhf"
			},
			{
				"type": "unocc",
				"energy": 0.03729,
				"method": "rhf"
			},
			{
				"type": "unocc",
				"energy": 0.04061,
				"method": "rhf"
			}
		],
		"cosmo_sigma_profile": { 
			"-0.025": 0.0,
			"-0.024": 0.0,
			"-0.023": 0.0,
			"-0.022": 0.0,
			"-0.021": 0.0,
			"-0.02": 0.0,
			"-0.019": 0.273457821507,
			"-0.018": 0.787243588017,
			"-0.017": 1.12780642509,
			"-0.016": 0.688994974017,
			"-0.015": 0.741785879538,
			"-0.014": 0.663519649544,
			"-0.013": 0.484481213964,
			"-0.012": 1.25707151973,
			"-0.011": 0.700247905503,
			"-0.01": 1.32831845299,
			"-0.009": 2.2887301934,
			"-0.008": 2.86287390946,
			"-0.007": 5.0477690685,
			"-0.006": 4.75503353404,
			"-0.005": 5.15526772157,
			"-0.004": 8.27120946847,
			"-0.003": 11.2927640226,
			"-0.002": 22.5220923769,
			"-0.001": 22.0378265086,
			"0.0": 18.2813434062,
			"0.001": 13.0817561542,
			"0.002": 13.6443860362,
			"0.003": 26.8549878012,
			"0.004": 15.556354368,
			"0.005": 3.89127574885,
			"0.006": 1.52654584004,
			"0.007": 2.99984234807,
			"0.008": 3.82603370422,
			"0.009": 2.70405346233,
			"0.01": 2.05419546045,
			"0.011": 4.55587825507,
			"0.012": 1.72572776275,
			"0.013": 0.0,
			"0.014": 0.0,
			"0.015": 0.0,
			"0.016": 0.0,
			"0.017": 0.0,
			"0.018": 0.0,
			"0.019": 0.0,
			"0.02": 0.0,
			"0.021": 0.0,
			"0.022": 0.0,
			"0.023": 0.0,
			"0.024": 0.0,
			"0.025": 0.0
		}
	}
}
