{
	 "smiles": "COC1=C(C=CC(Cl)=C1)S(N)(=O)=O", 
	 "Tm": 443.15, 
	 "num_atms": 21, 
	 "gaussian": { 
		 "optdone": 1, 
		 "sigma_profile": "yes", 
		 "theory": "DFT", 
		 "functional": "B3LYP", 
		 "basiset": "6-31G**", 
		 "properties": { 
			 "R2extent": 3417.0045, 
			 "electric_dipole_moment_norm": 1.5442560539, 
			 "electric_quadrupole_moment_norm": 20.6173649361, 
			 "total_energy": -1410.28208793, 
			 "HOMO_LUMO_gap": 0.20339, 
			 "cosmo_polarized_energy": -18.18, 
			 "cosmo_cavitation_energy": 28.39, 
			 "cosmo_dispersion_energy": -21.37, 
			 "cosmo_repulsion_energy": 1.67, 
			 "cosmo_total_nonelectrostatic_energy": 8.69, 
			 "SMD_solvation_energy": 5.12 
		},
		"coords": [
			{
				"x": -0.1123617693,
				"y": -2.2372484151,
				"z": 2.0242892686,
				"element": "C" 
			},
			{
				"x": 0.4615218761,
				"y": -1.2309733957,
				"z": 1.1983311311,
				"element": "O" 
			},
			{
				"x": -0.285959118,
				"y": -0.6687884161,
				"z": 0.2260473235,
				"element": "C" 
			},
			{
				"x": 0.3424247953,
				"y": 0.3243754833,
				"z": -0.5586710822,
				"element": "C" 
			},
			{
				"x": -0.3585472068,
				"y": 0.9543682815,
				"z": -1.5823856696,
				"element": "C" 
			},
			{
				"x": -1.6870352461,
				"y": 0.6194052673,
				"z": -1.8519885641,
				"element": "C" 
			},
			{
				"x": -2.293399861,
				"y": -0.359640639,
				"z": -1.0723280135,
				"element": "C" 
			},
			{
				"x": -3.9626100705,
				"y": -0.8013958279,
				"z": -1.3882536722,
				"element": "Cl" 
			},
			{
				"x": -1.6170725432,
				"y": -1.0092839818,
				"z": -0.0388291632,
				"element": "C" 
			},
			{
				"x": 2.0523593046,
				"y": 0.730408628,
				"z": -0.1838235313,
				"element": "S" 
			},
			{
				"x": 2.3909487863,
				"y": 1.9306186106,
				"z": -1.3347543127,
				"element": "N" 
			},
			{
				"x": 2.8904182188,
				"y": -0.4253091955,
				"z": -0.5110333254,
				"element": "O" 
			},
			{
				"x": 2.1035078884,
				"y": 1.3720925761,
				"z": 1.1317467107,
				"element": "O" 
			},
			{
				"x": -0.4202102664,
				"y": -3.1088756207,
				"z": 1.4345881962,
				"element": "H" 
			},
			{
				"x": 0.6742183259,
				"y": -2.528805853,
				"z": 2.7197746501,
				"element": "H" 
			},
			{
				"x": -0.971155989,
				"y": -1.8500400997,
				"z": 2.5853512517,
				"element": "H" 
			},
			{
				"x": 0.1455716128,
				"y": 1.7123182904,
				"z": -2.1693500983,
				"element": "H" 
			},
			{
				"x": -2.2339781646,
				"y": 1.1089166382,
				"z": -2.6485207376,
				"element": "H" 
			},
			{
				"x": -2.1270641691,
				"y": -1.7649549452,
				"z": 0.5429737388,
				"element": "H" 
			},
			{
				"x": 2.6361725429,
				"y": 2.788604187,
				"z": -0.8477878931,
				"element": "H" 
			},
			{
				"x": 3.152251053,
				"y": 1.6086084272,
				"z": -1.9264762075,
				"element": "H" 
			}
		],
		 "valence_orbital": [ 
			{
				"type": "occ",
				"energy": -0.31535,
				"method": "rhf"
			},
			{
				"type": "occ",
				"energy": -0.30179,
				"method": "rhf"
			},
			{
				"type": "occ",
				"energy": -0.28901,
				"method": "rhf"
			},
			{
				"type": "occ",
				"energy": -0.266,
				"method": "rhf"
			},
			{
				"type": "occ",
				"energy": -0.24204,
				"method": "rhf"
			},
			{
				"type": "unocc",
				"energy": -0.03865,
				"method": "rhf"
			},
			{
				"type": "unocc",
				"energy": -0.01597,
				"method": "rhf"
			},
			{
				"type": "unocc",
				"energy": 0.01737,
				"method": "rhf"
			},
			{
				"type": "unocc",
				"energy": 0.05124,
				"method": "rhf"
			},
			{
				"type": "unocc",
				"energy": 0.0733,
				"method": "rhf"
			}
		],
		"cosmo_sigma_profile": { 
			"-0.025": 0.0,
			"-0.024": 0.0,
			"-0.023": 0.0,
			"-0.022": 0.0,
			"-0.021": 0.0,
			"-0.02": 0.0,
			"-0.019": 0.0,
			"-0.018": 0.0,
			"-0.017": 0.0,
			"-0.016": 0.0,
			"-0.015": 1.25833367614,
			"-0.014": 2.40369411542,
			"-0.013": 2.50323642125,
			"-0.012": 2.50741873643,
			"-0.011": 2.55045214089,
			"-0.01": 1.66128561147,
			"-0.009": 1.89099930157,
			"-0.008": 5.8557070783,
			"-0.007": 9.7917043114,
			"-0.006": 14.5090944269,
			"-0.005": 13.9685789271,
			"-0.004": 13.6251254338,
			"-0.003": 10.3143069898,
			"-0.002": 10.5645285592,
			"-0.001": 12.0870724419,
			"0.0": 15.5109683048,
			"0.001": 21.4662834429,
			"0.002": 16.4297330071,
			"0.003": 11.4484200157,
			"0.004": 12.8982664301,
			"0.005": 4.33822966639,
			"0.006": 2.86226868843,
			"0.007": 2.79317159126,
			"0.008": 3.11219191202,
			"0.009": 5.26495578382,
			"0.01": 7.83394896533,
			"0.011": 13.3669655531,
			"0.012": 5.92956586422,
			"0.013": 0.0406669022218,
			"0.014": 0.0,
			"0.015": 0.0,
			"0.016": 0.0,
			"0.017": 0.0,
			"0.018": 0.0,
			"0.019": 0.0,
			"0.02": 0.0,
			"0.021": 0.0,
			"0.022": 0.0,
			"0.023": 0.0,
			"0.024": 0.0,
			"0.025": 0.0
		}
	}
}
