{
	 "smiles": "CC1=CC=C(C=C1)C(C)(C)C(O)=O", 
	 "Tm": 350.15, 
	 "num_atms": 27, 
	 "gaussian": { 
		 "optdone": 1, 
		 "sigma_profile": "yes", 
		 "theory": "DFT", 
		 "functional": "B3LYP", 
		 "basiset": "6-31G**", 
		 "properties": { 
			 "R2extent": 3125.4375, 
			 "electric_dipole_moment_norm": 1.6241089557, 
			 "electric_quadrupole_moment_norm": 9.21526829832, 
			 "total_energy": -578.085022589, 
			 "HOMO_LUMO_gap": 0.22351, 
			 "cosmo_polarized_energy": -9.42, 
			 "cosmo_cavitation_energy": 29.26, 
			 "cosmo_dispersion_energy": -20.85, 
			 "cosmo_repulsion_energy": 1.65, 
			 "cosmo_total_nonelectrostatic_energy": 10.07, 
			 "SMD_solvation_energy": 6.33 
		},
		"coords": [
			{
				"x": 1.4545149845,
				"y": 2.6996666099,
				"z": -1.2793218328,
				"element": "C" 
			},
			{
				"x": 0.7156321408,
				"y": 1.4828280071,
				"z": -0.7749116683,
				"element": "C" 
			},
			{
				"x": 0.5211638624,
				"y": 0.3637849389,
				"z": -1.5971093986,
				"element": "C" 
			},
			{
				"x": -0.1442382843,
				"y": -0.7670816551,
				"z": -1.1331491934,
				"element": "C" 
			},
			{
				"x": -0.6487408978,
				"y": -0.8299035106,
				"z": 0.1774008168,
				"element": "C" 
			},
			{
				"x": -0.4472421954,
				"y": 0.2839347708,
				"z": 1.0000184551,
				"element": "C" 
			},
			{
				"x": 0.2178684312,
				"y": 1.4187514602,
				"z": 0.529048153,
				"element": "C" 
			},
			{
				"x": -1.4050045391,
				"y": -2.0887725487,
				"z": 0.6612979226,
				"element": "C" 
			},
			{
				"x": -2.6286160828,
				"y": -2.3520073092,
				"z": -0.2478474773,
				"element": "C" 
			},
			{
				"x": -1.8807679621,
				"y": -1.9741085794,
				"z": 2.1202001283,
				"element": "C" 
			},
			{
				"x": -0.4064074389,
				"y": -3.257122417,
				"z": 0.602104756,
				"element": "C" 
			},
			{
				"x": -0.3459165746,
				"y": -3.847904345,
				"z": -0.6197593277,
				"element": "O" 
			},
			{
				"x": 0.2877080489,
				"y": -3.6313227802,
				"z": 1.5215772126,
				"element": "O" 
			},
			{
				"x": 1.1030876897,
				"y": 2.998610659,
				"z": -2.2727410446,
				"element": "H" 
			},
			{
				"x": 2.5306621107,
				"y": 2.5045632801,
				"z": -1.3646075897,
				"element": "H" 
			},
			{
				"x": 1.3273595474,
				"y": 3.5522565657,
				"z": -0.6062811055,
				"element": "H" 
			},
			{
				"x": 0.8968264123,
				"y": 0.3776581595,
				"z": -2.6178359957,
				"element": "H" 
			},
			{
				"x": -0.2635847693,
				"y": -1.6174002557,
				"z": -1.7966348269,
				"element": "H" 
			},
			{
				"x": -0.8096927404,
				"y": 0.2846081135,
				"z": 2.0213305887,
				"element": "H" 
			},
			{
				"x": 0.3509396085,
				"y": 2.2682613318,
				"z": 1.1947113798,
				"element": "H" 
			},
			{
				"x": -3.3272840199,
				"y": -1.5142017917,
				"z": -0.164148095,
				"element": "H" 
			},
			{
				"x": -3.149894844,
				"y": -3.2648785703,
				"z": 0.0588384936,
				"element": "H" 
			},
			{
				"x": -2.3485006139,
				"y": -2.4606363055,
				"z": -1.2960916607,
				"element": "H" 
			},
			{
				"x": -2.4064027157,
				"y": -2.8879942019,
				"z": 2.411508453,
				"element": "H" 
			},
			{
				"x": -1.0428089204,
				"y": -1.8440484164,
				"z": 2.8067896444,
				"element": "H" 
			},
			{
				"x": -2.5749082445,
				"y": -1.1364304913,
				"z": 2.2318563615,
				"element": "H" 
			},
			{
				"x": 0.3421480068,
				"y": -4.5309107185,
				"z": -0.5456431493,
				"element": "H" 
			}
		],
		 "valence_orbital": [ 
			{
				"type": "occ",
				"energy": -0.32489,
				"method": "rhf"
			},
			{
				"type": "occ",
				"energy": -0.31308,
				"method": "rhf"
			},
			{
				"type": "occ",
				"energy": -0.27248,
				"method": "rhf"
			},
			{
				"type": "occ",
				"energy": -0.24668,
				"method": "rhf"
			},
			{
				"type": "occ",
				"energy": -0.23294,
				"method": "rhf"
			},
			{
				"type": "unocc",
				"energy": -0.00943,
				"method": "rhf"
			},
			{
				"type": "unocc",
				"energy": 0.00044,
				"method": "rhf"
			},
			{
				"type": "unocc",
				"energy": 0.0253,
				"method": "rhf"
			},
			{
				"type": "unocc",
				"energy": 0.07602,
				"method": "rhf"
			},
			{
				"type": "unocc",
				"energy": 0.09877,
				"method": "rhf"
			}
		],
		"cosmo_sigma_profile": { 
			"-0.025": 0.0,
			"-0.024": 0.0,
			"-0.023": 0.0,
			"-0.022": 0.0,
			"-0.021": 0.0,
			"-0.02": 0.0,
			"-0.019": 0.0,
			"-0.018": 0.501182204586,
			"-0.017": 0.916355071095,
			"-0.016": 1.16551649889,
			"-0.015": 0.823681017032,
			"-0.014": 0.389455507969,
			"-0.013": 0.553941142864,
			"-0.012": 0.285568169628,
			"-0.011": 1.20900736699,
			"-0.01": 1.06768680727,
			"-0.009": 0.634971199359,
			"-0.008": 0.299720541254,
			"-0.007": 1.00274721026,
			"-0.006": 1.38870344453,
			"-0.005": 7.71553700687,
			"-0.004": 23.6639342345,
			"-0.003": 26.3480270728,
			"-0.002": 23.1778706875,
			"-0.001": 23.1811054817,
			"0.0": 26.0495820795,
			"0.001": 18.6592012228,
			"0.002": 11.9893133464,
			"0.003": 10.8043782581,
			"0.004": 9.70450065518,
			"0.005": 10.1393055221,
			"0.006": 10.5101076588,
			"0.007": 3.2982385489,
			"0.008": 2.15281727601,
			"0.009": 1.78228377822,
			"0.01": 1.80078851238,
			"0.011": 3.58002033464,
			"0.012": 4.59383960481,
			"0.013": 0.293798543089,
			"0.014": 0.0,
			"0.015": 0.0,
			"0.016": 0.0,
			"0.017": 0.0,
			"0.018": 0.0,
			"0.019": 0.0,
			"0.02": 0.0,
			"0.021": 0.0,
			"0.022": 0.0,
			"0.023": 0.0,
			"0.024": 0.0,
			"0.025": 0.0
		}
	}
}
