{
	 "smiles": "NNC(=O)C1=CC(Cl)=C(Cl)C=C1", 
	 "Tm": 430.15, 
	 "num_atms": 18, 
	 "gaussian": { 
		 "optdone": 1, 
		 "sigma_profile": "yes", 
		 "theory": "DFT", 
		 "functional": "B3LYP", 
		 "basiset": "6-31G**", 
		 "properties": { 
			 "R2extent": 4017.2818, 
			 "electric_dipole_moment_norm": 3.6299864132, 
			 "electric_quadrupole_moment_norm": 9.23038209231, 
			 "total_energy": -1375.44247466, 
			 "HOMO_LUMO_gap": 0.19624, 
			 "cosmo_polarized_energy": -14.34, 
			 "cosmo_cavitation_energy": 26.35, 
			 "cosmo_dispersion_energy": -19.49, 
			 "cosmo_repulsion_energy": 1.57, 
			 "cosmo_total_nonelectrostatic_energy": 8.44, 
			 "SMD_solvation_energy": 5.1 
		},
		"coords": [
			{
				"x": -0.3447401988,
				"y": 2.1565983592,
				"z": -1.6523291004,
				"element": "N" 
			},
			{
				"x": 0.8493395016,
				"y": 1.7471954175,
				"z": -1.0203190343,
				"element": "N" 
			},
			{
				"x": 0.9817710442,
				"y": 0.7046777763,
				"z": -0.1245378696,
				"element": "C" 
			},
			{
				"x": 1.8667403056,
				"y": 0.7191591758,
				"z": 0.7216875617,
				"element": "O" 
			},
			{
				"x": 0.0273638499,
				"y": -0.4537196544,
				"z": -0.2310861158,
				"element": "C" 
			},
			{
				"x": -0.3282138788,
				"y": -1.0891043775,
				"z": 0.9627295681,
				"element": "C" 
			},
			{
				"x": -1.1638053643,
				"y": -2.2041912759,
				"z": 0.9545199379,
				"element": "C" 
			},
			{
				"x": -1.5991845898,
				"y": -2.9411196472,
				"z": 2.4749809172,
				"element": "Cl" 
			},
			{
				"x": -1.6293735147,
				"y": -2.7161798891,
				"z": -0.2662973512,
				"element": "C" 
			},
			{
				"x": -2.6708814227,
				"y": -4.1126096514,
				"z": -0.3319340066,
				"element": "Cl" 
			},
			{
				"x": -1.2469878594,
				"y": -2.1047232952,
				"z": -1.4630847703,
				"element": "C" 
			},
			{
				"x": -0.4305069617,
				"y": -0.9781208497,
				"z": -1.4470628461,
				"element": "C" 
			},
			{
				"x": -1.1478391163,
				"y": 1.9700543603,
				"z": -1.0571234169,
				"element": "H" 
			},
			{
				"x": -0.4681578494,
				"y": 1.6524772146,
				"z": -2.5247549247,
				"element": "H" 
			},
			{
				"x": 1.4750213371,
				"y": 2.5162905916,
				"z": -0.8090520799,
				"element": "H" 
			},
			{
				"x": 0.0620965403,
				"y": -0.7108733231,
				"z": 1.9004189972,
				"element": "H" 
			},
			{
				"x": -1.5923463992,
				"y": -2.5245828718,
				"z": -2.4012219736,
				"element": "H" 
			},
			{
				"x": -0.1221954235,
				"y": -0.5370280599,
				"z": -2.3886334929,
				"element": "H" 
			}
		],
		 "valence_orbital": [ 
			{
				"type": "occ",
				"energy": -0.30748,
				"method": "rhf"
			},
			{
				"type": "occ",
				"energy": -0.27795,
				"method": "rhf"
			},
			{
				"type": "occ",
				"energy": -0.269,
				"method": "rhf"
			},
			{
				"type": "occ",
				"energy": -0.26332,
				"method": "rhf"
			},
			{
				"type": "occ",
				"energy": -0.25455,
				"method": "rhf"
			},
			{
				"type": "unocc",
				"energy": -0.05831,
				"method": "rhf"
			},
			{
				"type": "unocc",
				"energy": -0.03606,
				"method": "rhf"
			},
			{
				"type": "unocc",
				"energy": -0.00589,
				"method": "rhf"
			},
			{
				"type": "unocc",
				"energy": 0.02668,
				"method": "rhf"
			},
			{
				"type": "unocc",
				"energy": 0.05309,
				"method": "rhf"
			}
		],
		"cosmo_sigma_profile": { 
			"-0.025": 0.0,
			"-0.024": 0.0,
			"-0.023": 0.0,
			"-0.022": 0.0,
			"-0.021": 0.0,
			"-0.02": 0.0,
			"-0.019": 0.0,
			"-0.018": 0.0,
			"-0.017": 0.0,
			"-0.016": 0.0,
			"-0.015": 0.0,
			"-0.014": 0.16995773827,
			"-0.013": 1.31457860264,
			"-0.012": 3.78605867157,
			"-0.011": 3.75144698964,
			"-0.01": 4.56477220786,
			"-0.009": 4.68704230108,
			"-0.008": 5.87963308427,
			"-0.007": 7.53434355441,
			"-0.006": 6.83427516702,
			"-0.005": 6.47706320888,
			"-0.004": 7.70969763541,
			"-0.003": 10.1099670775,
			"-0.002": 11.5293744118,
			"-0.001": 16.6313248197,
			"0.0": 22.0363308682,
			"0.001": 20.8243796819,
			"0.002": 15.643002083,
			"0.003": 18.5831724668,
			"0.004": 16.837102567,
			"0.005": 5.07086636864,
			"0.006": 2.77779591089,
			"0.007": 2.31009414083,
			"0.008": 1.95206124471,
			"0.009": 1.24524350453,
			"0.01": 2.3840420477,
			"0.011": 2.7525576195,
			"0.012": 3.32107827835,
			"0.013": 5.94048296991,
			"0.014": 1.31059791919,
			"0.015": 0.911371620794,
			"0.016": 0.120019562063,
			"0.017": 0.0,
			"0.018": 0.0,
			"0.019": 0.0,
			"0.02": 0.0,
			"0.021": 0.0,
			"0.022": 0.0,
			"0.023": 0.0,
			"0.024": 0.0,
			"0.025": 0.0
		}
	}
}
