{
	 "smiles": "NC1=C(OC(F)(F)F)C=C(C=C1)C#N", 
	 "Tm": 345.15, 
	 "num_atms": 19, 
	 "gaussian": { 
		 "optdone": 1, 
		 "sigma_profile": "yes", 
		 "theory": "DFT", 
		 "functional": "B3LYP", 
		 "basiset": "6-31G**", 
		 "properties": { 
			 "R2extent": 4123.5861, 
			 "electric_dipole_moment_norm": 5.92461062856, 
			 "electric_quadrupole_moment_norm": 24.4684526818, 
			 "total_energy": -792.102414454, 
			 "HOMO_LUMO_gap": 0.18872, 
			 "cosmo_polarized_energy": -13.53, 
			 "cosmo_cavitation_energy": 26.34, 
			 "cosmo_dispersion_energy": -18.22, 
			 "cosmo_repulsion_energy": 1.38, 
			 "cosmo_total_nonelectrostatic_energy": 9.5, 
			 "SMD_solvation_energy": 7.27 
		},
		"coords": [
			{
				"x": -0.4536301442,
				"y": -0.9024214508,
				"z": 0.2090713148,
				"element": "N" 
			},
			{
				"x": -0.4219865791,
				"y": 0.3468414533,
				"z": 0.7801215634,
				"element": "C" 
			},
			{
				"x": -0.8779511556,
				"y": 1.4807330544,
				"z": 0.074565019,
				"element": "C" 
			},
			{
				"x": -1.3839464906,
				"y": 1.2834565232,
				"z": -1.2247253878,
				"element": "O" 
			},
			{
				"x": -0.5600329111,
				"y": 1.5732144583,
				"z": -2.2662835718,
				"element": "C" 
			},
			{
				"x": -1.2409180219,
				"y": 1.3663309302,
				"z": -3.3906665315,
				"element": "F" 
			},
			{
				"x": -0.1216726743,
				"y": 2.8419694502,
				"z": -2.2491078447,
				"element": "F" 
			},
			{
				"x": 0.5326464297,
				"y": 0.7735250639,
				"z": -2.2744730161,
				"element": "F" 
			},
			{
				"x": -0.9184274087,
				"y": 2.7406948125,
				"z": 0.6435495786,
				"element": "C" 
			},
			{
				"x": -0.4821960221,
				"y": 2.9206912285,
				"z": 1.9667231957,
				"element": "C" 
			},
			{
				"x": -0.0191144083,
				"y": 1.8055161336,
				"z": 2.6892275588,
				"element": "C" 
			},
			{
				"x": 0.0067693885,
				"y": 0.5478616187,
				"z": 2.1081891444,
				"element": "C" 
			},
			{
				"x": -0.5132014156,
				"y": 4.2177046066,
				"z": 2.5680269672,
				"element": "C" 
			},
			{
				"x": -0.5359406835,
				"y": 5.2718726486,
				"z": 3.0612767164,
				"element": "N" 
			},
			{
				"x": -0.503359725,
				"y": -0.9435605437,
				"z": -0.7971639699,
				"element": "H" 
			},
			{
				"x": 0.1174160753,
				"y": -1.6167822684,
				"z": 0.6340292534,
				"element": "H" 
			},
			{
				"x": -1.2881582641,
				"y": 3.5760674393,
				"z": 0.0613999035,
				"element": "H" 
			},
			{
				"x": 0.3180714577,
				"y": 1.9353577043,
				"z": 3.7119586044,
				"element": "H" 
			},
			{
				"x": 0.3603325528,
				"y": -0.3050728625,
				"z": 2.6802815022,
				"element": "H" 
			}
		],
		 "valence_orbital": [ 
			{
				"type": "occ",
				"energy": -0.35097,
				"method": "rhf"
			},
			{
				"type": "occ",
				"energy": -0.3273,
				"method": "rhf"
			},
			{
				"type": "occ",
				"energy": -0.31698,
				"method": "rhf"
			},
			{
				"type": "occ",
				"energy": -0.28082,
				"method": "rhf"
			},
			{
				"type": "occ",
				"energy": -0.23166,
				"method": "rhf"
			},
			{
				"type": "unocc",
				"energy": -0.04294,
				"method": "rhf"
			},
			{
				"type": "unocc",
				"energy": -0.03078,
				"method": "rhf"
			},
			{
				"type": "unocc",
				"energy": 0.03752,
				"method": "rhf"
			},
			{
				"type": "unocc",
				"energy": 0.06141,
				"method": "rhf"
			},
			{
				"type": "unocc",
				"energy": 0.07152,
				"method": "rhf"
			}
		],
		"cosmo_sigma_profile": { 
			"-0.025": 0.0,
			"-0.024": 0.0,
			"-0.023": 0.0,
			"-0.022": 0.0,
			"-0.021": 0.0,
			"-0.02": 0.0,
			"-0.019": 0.0,
			"-0.018": 0.0,
			"-0.017": 0.0,
			"-0.016": 0.0,
			"-0.015": 0.146984305965,
			"-0.014": 1.48660254664,
			"-0.013": 1.88076935947,
			"-0.012": 2.59552666745,
			"-0.011": 3.28416727173,
			"-0.01": 2.71748870634,
			"-0.009": 3.13232327302,
			"-0.008": 6.10244645434,
			"-0.007": 7.07783814596,
			"-0.006": 7.47098401803,
			"-0.005": 7.14648268972,
			"-0.004": 5.69881919169,
			"-0.003": 8.11387396973,
			"-0.002": 10.0567935925,
			"-0.001": 13.5907411052,
			"0.0": 20.9573393556,
			"0.001": 32.2417878328,
			"0.002": 32.5500092633,
			"0.003": 9.46731444037,
			"0.004": 4.36247843335,
			"0.005": 3.43442726476,
			"0.006": 5.45420403448,
			"0.007": 3.32029294651,
			"0.008": 3.81979734961,
			"0.009": 4.16108831199,
			"0.01": 4.06328044597,
			"0.011": 2.92297376911,
			"0.012": 2.76386504816,
			"0.013": 2.23440597392,
			"0.014": 0.430701142347,
			"0.015": 0.0,
			"0.016": 0.0,
			"0.017": 0.0,
			"0.018": 0.0,
			"0.019": 0.0,
			"0.02": 0.0,
			"0.021": 0.0,
			"0.022": 0.0,
			"0.023": 0.0,
			"0.024": 0.0,
			"0.025": 0.0
		}
	}
}
