{
	 "smiles": "COC(=O)C1=C(O)C(Br)=C(Br)S1", 
	 "Tm": 403.15, 
	 "num_atms": 16, 
	 "gaussian": { 
		 "optdone": 1, 
		 "sigma_profile": "yes", 
		 "theory": "DFT", 
		 "functional": "B3LYP", 
		 "basiset": "6-31G**", 
		 "properties": { 
			 "R2extent": 6533.5737, 
			 "electric_dipole_moment_norm": 2.52062105442, 
			 "electric_quadrupole_moment_norm": 9.35637834795, 
			 "total_energy": -5997.69094459, 
			 "HOMO_LUMO_gap": 0.17667, 
			 "cosmo_polarized_energy": -10.09, 
			 "cosmo_cavitation_energy": 27.39, 
			 "cosmo_dispersion_energy": -21.49, 
			 "cosmo_repulsion_energy": 1.68, 
			 "cosmo_total_nonelectrostatic_energy": 7.59, 
			 "SMD_solvation_energy": 4.35 
		},
		"coords": [
			{
				"x": 0.3585055067,
				"y": 3.3642780548,
				"z": -0.174531298,
				"element": "C" 
			},
			{
				"x": 0.3940344517,
				"y": 1.945719722,
				"z": 0.0524300626,
				"element": "O" 
			},
			{
				"x": -0.5264864922,
				"y": 1.2377795258,
				"z": -0.6281233698,
				"element": "C" 
			},
			{
				"x": -1.3445205861,
				"y": 1.7282241067,
				"z": -1.3883744869,
				"element": "O" 
			},
			{
				"x": -0.4496533548,
				"y": -0.2009538961,
				"z": -0.3635617924,
				"element": "C" 
			},
			{
				"x": 0.3815880984,
				"y": -0.952784955,
				"z": 0.4443272833,
				"element": "C" 
			},
			{
				"x": 1.3642970803,
				"y": -0.4435831147,
				"z": 1.2057138775,
				"element": "O" 
			},
			{
				"x": 0.071287967,
				"y": -2.352205031,
				"z": 0.3755550113,
				"element": "C" 
			},
			{
				"x": 1.0568397542,
				"y": -3.6123691407,
				"z": 1.3847088108,
				"element": "Br" 
			},
			{
				"x": -0.9701071263,
				"y": -2.6332962318,
				"z": -0.4671665946,
				"element": "C" 
			},
			{
				"x": -1.6945130709,
				"y": -4.3184981326,
				"z": -0.8473735178,
				"element": "Br" 
			},
			{
				"x": -1.6118738401,
				"y": -1.2064583692,
				"z": -1.2080263462,
				"element": "S" 
			},
			{
				"x": 1.1559918167,
				"y": 3.7767202009,
				"z": 0.4428215335,
				"element": "H" 
			},
			{
				"x": -0.6095313116,
				"y": 3.777569082,
				"z": 0.1196540678,
				"element": "H" 
			},
			{
				"x": 0.5318801474,
				"y": 3.5902820897,
				"z": -1.2296691513,
				"element": "H" 
			},
			{
				"x": 1.7975609598,
				"y": -1.1764239107,
				"z": 1.6740159104,
				"element": "H" 
			}
		],
		 "valence_orbital": [ 
			{
				"type": "occ",
				"energy": -0.31054,
				"method": "rhf"
			},
			{
				"type": "occ",
				"energy": -0.30208,
				"method": "rhf"
			},
			{
				"type": "occ",
				"energy": -0.28032,
				"method": "rhf"
			},
			{
				"type": "occ",
				"energy": -0.25454,
				"method": "rhf"
			},
			{
				"type": "occ",
				"energy": -0.23835,
				"method": "rhf"
			},
			{
				"type": "unocc",
				"energy": -0.06168,
				"method": "rhf"
			},
			{
				"type": "unocc",
				"energy": -0.03441,
				"method": "rhf"
			},
			{
				"type": "unocc",
				"energy": -0.00879,
				"method": "rhf"
			},
			{
				"type": "unocc",
				"energy": 0.01504,
				"method": "rhf"
			},
			{
				"type": "unocc",
				"energy": 0.01912,
				"method": "rhf"
			}
		],
		"cosmo_sigma_profile": { 
			"-0.025": 0.0,
			"-0.024": 0.0,
			"-0.023": 0.0,
			"-0.022": 0.0,
			"-0.021": 0.0,
			"-0.02": 0.0,
			"-0.019": 0.0,
			"-0.018": 0.0,
			"-0.017": 0.0,
			"-0.016": 0.482374698763,
			"-0.015": 0.758860713619,
			"-0.014": 0.666773935602,
			"-0.013": 0.901829784871,
			"-0.012": 0.69991703468,
			"-0.011": 1.00691872563,
			"-0.01": 1.29968943888,
			"-0.009": 1.05082403785,
			"-0.008": 1.47880305911,
			"-0.007": 3.85469141701,
			"-0.006": 9.57625885854,
			"-0.005": 10.5717871117,
			"-0.004": 13.6083529726,
			"-0.003": 15.4039517141,
			"-0.002": 20.2476530772,
			"-0.001": 26.7917507388,
			"0.0": 22.6508365805,
			"0.001": 23.244634362,
			"0.002": 26.3321681507,
			"0.003": 14.3515073869,
			"0.004": 3.42112012808,
			"0.005": 3.70938714118,
			"0.006": 3.42508224039,
			"0.007": 3.22286586795,
			"0.008": 3.11235557563,
			"0.009": 2.90824283699,
			"0.01": 4.12982693704,
			"0.011": 4.63360892491,
			"0.012": 4.94073424406,
			"0.013": 0.167024276611,
			"0.014": 0.0,
			"0.015": 0.0,
			"0.016": 0.0,
			"0.017": 0.0,
			"0.018": 0.0,
			"0.019": 0.0,
			"0.02": 0.0,
			"0.021": 0.0,
			"0.022": 0.0,
			"0.023": 0.0,
			"0.024": 0.0,
			"0.025": 0.0
		}
	}
}
