{
	 "smiles": "NC(=O)C1=C(Cl)N=CC=C1", 
	 "Tm": 438.15, 
	 "num_atms": 15, 
	 "gaussian": { 
		 "optdone": 1, 
		 "sigma_profile": "yes", 
		 "theory": "DFT", 
		 "functional": "B3LYP", 
		 "basiset": "6-31G**", 
		 "properties": { 
			 "R2extent": 3123.5093, 
			 "electric_dipole_moment_norm": 5.55816756674, 
			 "electric_quadrupole_moment_norm": 18.4270426664, 
			 "total_energy": -876.574604626, 
			 "HOMO_LUMO_gap": 0.2062, 
			 "cosmo_polarized_energy": -17.3, 
			 "cosmo_cavitation_energy": 21.71, 
			 "cosmo_dispersion_energy": -16.14, 
			 "cosmo_repulsion_energy": 1.34, 
			 "cosmo_total_nonelectrostatic_energy": 6.91, 
			 "SMD_solvation_energy": 3.06 
		},
		"coords": [
			{
				"x": 2.5404593668,
				"y": -1.328522374,
				"z": 1.2492366983,
				"element": "N" 
			},
			{
				"x": 2.4936308433,
				"y": -1.7781828852,
				"z": -0.0479090945,
				"element": "C" 
			},
			{
				"x": 3.4141892745,
				"y": -2.3762637806,
				"z": -0.5766331148,
				"element": "O" 
			},
			{
				"x": 1.2383064825,
				"y": -1.3839815937,
				"z": -0.7896191126,
				"element": "C" 
			},
			{
				"x": 0.4615167338,
				"y": -2.2851434309,
				"z": -1.5429392175,
				"element": "C" 
			},
			{
				"x": 0.8386509801,
				"y": -4.0001111431,
				"z": -1.530346288,
				"element": "Cl" 
			},
			{
				"x": -0.596532065,
				"y": -1.9411432086,
				"z": -2.2552538655,
				"element": "N" 
			},
			{
				"x": -0.953966253,
				"y": -0.6498868007,
				"z": -2.2743511538,
				"element": "C" 
			},
			{
				"x": -0.277413628,
				"y": 0.3368946654,
				"z": -1.5634291109,
				"element": "C" 
			},
			{
				"x": 0.830735874,
				"y": -0.0458888254,
				"z": -0.8092719933,
				"element": "C" 
			},
			{
				"x": 1.6912793984,
				"y": -1.0960802215,
				"z": 1.741144845,
				"element": "H" 
			},
			{
				"x": 3.3292200406,
				"y": -1.6385701399,
				"z": 1.7996270028,
				"element": "H" 
			},
			{
				"x": -1.8211891792,
				"y": -0.4070745124,
				"z": -2.884321144,
				"element": "H" 
			},
			{
				"x": -0.6032913891,
				"y": 1.3707974457,
				"z": -1.6018630302,
				"element": "H" 
			},
			{
				"x": 1.3998035203,
				"y": 0.688356805,
				"z": -0.2466714207,
				"element": "H" 
			}
		],
		 "valence_orbital": [ 
			{
				"type": "occ",
				"energy": -0.30653,
				"method": "rhf"
			},
			{
				"type": "occ",
				"energy": -0.28298,
				"method": "rhf"
			},
			{
				"type": "occ",
				"energy": -0.281,
				"method": "rhf"
			},
			{
				"type": "occ",
				"energy": -0.26723,
				"method": "rhf"
			},
			{
				"type": "occ",
				"energy": -0.25658,
				"method": "rhf"
			},
			{
				"type": "unocc",
				"energy": -0.05038,
				"method": "rhf"
			},
			{
				"type": "unocc",
				"energy": -0.03884,
				"method": "rhf"
			},
			{
				"type": "unocc",
				"energy": 0.02216,
				"method": "rhf"
			},
			{
				"type": "unocc",
				"energy": 0.03905,
				"method": "rhf"
			},
			{
				"type": "unocc",
				"energy": 0.07571,
				"method": "rhf"
			}
		],
		"cosmo_sigma_profile": { 
			"-0.025": 0.0,
			"-0.024": 0.0,
			"-0.023": 0.0,
			"-0.022": 0.0,
			"-0.021": 0.0,
			"-0.02": 0.0,
			"-0.019": 0.0,
			"-0.018": 0.0,
			"-0.017": 0.0,
			"-0.016": 0.0,
			"-0.015": 0.591878997093,
			"-0.014": 2.4008686216,
			"-0.013": 2.42698195882,
			"-0.012": 2.0875848413,
			"-0.011": 2.63881250694,
			"-0.01": 2.65548422994,
			"-0.009": 2.34909132439,
			"-0.008": 6.85653578115,
			"-0.007": 9.83439263713,
			"-0.006": 8.44692988414,
			"-0.005": 7.04289554487,
			"-0.004": 5.72299686927,
			"-0.003": 7.74251280322,
			"-0.002": 9.65486461244,
			"-0.001": 11.582083452,
			"0.0": 15.3314915494,
			"0.001": 12.0006694705,
			"0.002": 8.42907469404,
			"0.003": 9.08197324742,
			"0.004": 9.06984364223,
			"0.005": 7.31899360035,
			"0.006": 4.1622706667,
			"0.007": 3.14172934551,
			"0.008": 3.4149270016,
			"0.009": 3.40367049846,
			"0.01": 3.03489957501,
			"0.011": 2.94789894759,
			"0.012": 4.31975657702,
			"0.013": 6.47619996288,
			"0.014": 2.0624191344,
			"0.015": 0.0339832607039,
			"0.016": 0.0,
			"0.017": 0.0,
			"0.018": 0.0,
			"0.019": 0.0,
			"0.02": 0.0,
			"0.021": 0.0,
			"0.022": 0.0,
			"0.023": 0.0,
			"0.024": 0.0,
			"0.025": 0.0
		}
	}
}
