{
	 "smiles": "CCOC(=O)C=CC(=O)OCC", 
	 "Tm": 274.15, 
	 "num_atms": 24, 
	 "gaussian": { 
		 "optdone": 1, 
		 "sigma_profile": "yes", 
		 "theory": "DFT", 
		 "functional": "B3LYP", 
		 "basiset": "6-31G**", 
		 "properties": { 
			 "R2extent": 3691.8277, 
			 "electric_dipole_moment_norm": 0.311187065927, 
			 "electric_quadrupole_moment_norm": 19.5064447745, 
			 "total_energy": -612.98713395, 
			 "HOMO_LUMO_gap": 0.19122, 
			 "cosmo_polarized_energy": -9.46, 
			 "cosmo_cavitation_energy": 29.1, 
			 "cosmo_dispersion_energy": -20.7, 
			 "cosmo_repulsion_energy": 1.72, 
			 "cosmo_total_nonelectrostatic_energy": 10.12, 
			 "SMD_solvation_energy": 7.77 
		},
		"coords": [
			{
				"x": -0.4357934044,
				"y": -0.8101883444,
				"z": 4.3514850561,
				"element": "C" 
			},
			{
				"x": 0.5770903327,
				"y": -1.5698181105,
				"z": 3.508272003,
				"element": "C" 
			},
			{
				"x": 0.3130041334,
				"y": -1.4066366593,
				"z": 2.093189323,
				"element": "O" 
			},
			{
				"x": 0.835193274,
				"y": -0.3086966531,
				"z": 1.5058630093,
				"element": "C" 
			},
			{
				"x": 1.5033947575,
				"y": 0.527127789,
				"z": 2.0836233941,
				"element": "O" 
			},
			{
				"x": 0.5147357144,
				"y": -0.2188684672,
				"z": 0.0579223479,
				"element": "C" 
			},
			{
				"x": -0.2279671153,
				"y": -1.1116200292,
				"z": -0.6092169519,
				"element": "C" 
			},
			{
				"x": -0.5527383166,
				"y": -1.0188115115,
				"z": -2.0560204654,
				"element": "C" 
			},
			{
				"x": -1.2412610002,
				"y": -1.8415669087,
				"z": -2.6286502326,
				"element": "O" 
			},
			{
				"x": -0.001632846,
				"y": 0.0609061876,
				"z": -2.6506499275,
				"element": "O" 
			},
			{
				"x": -0.2714779226,
				"y": 0.2282674576,
				"z": -4.0641561918,
				"element": "C" 
			},
			{
				"x": -1.5898141235,
				"y": 0.9515442984,
				"z": -4.2940295831,
				"element": "C" 
			},
			{
				"x": -0.259539111,
				"y": -1.0131721516,
				"z": 5.4130503602,
				"element": "H" 
			},
			{
				"x": -1.4564315559,
				"y": -1.1190539344,
				"z": 4.1075043738,
				"element": "H" 
			},
			{
				"x": -0.3417044301,
				"y": 0.2661660993,
				"z": 4.1886677198,
				"element": "H" 
			},
			{
				"x": 0.5088257465,
				"y": -2.6476697505,
				"z": 3.6724470165,
				"element": "H" 
			},
			{
				"x": 1.5955554378,
				"y": -1.2332215775,
				"z": 3.7156261666,
				"element": "H" 
			},
			{
				"x": 0.9340501856,
				"y": 0.6489594854,
				"z": -0.4388634763,
				"element": "H" 
			},
			{
				"x": -0.6493579978,
				"y": -1.9781630332,
				"z": -0.111943663,
				"element": "H" 
			},
			{
				"x": -0.2723398976,
				"y": -0.7554066495,
				"z": -4.539490866,
				"element": "H" 
			},
			{
				"x": 0.5759466537,
				"y": 0.8106647806,
				"z": -4.4330280424,
				"element": "H" 
			},
			{
				"x": -1.7305275494,
				"y": 1.1322831399,
				"z": -5.3648808436,
				"element": "H" 
			},
			{
				"x": -2.4272398379,
				"y": 0.3478928496,
				"z": -3.9359403991,
				"element": "H" 
			},
			{
				"x": -1.6005711273,
				"y": 1.9162816933,
				"z": -3.7784801276,
				"element": "H" 
			}
		],
		 "valence_orbital": [ 
			{
				"type": "occ",
				"energy": -0.30429,
				"method": "rhf"
			},
			{
				"type": "occ",
				"energy": -0.30366,
				"method": "rhf"
			},
			{
				"type": "occ",
				"energy": -0.29298,
				"method": "rhf"
			},
			{
				"type": "occ",
				"energy": -0.28894,
				"method": "rhf"
			},
			{
				"type": "occ",
				"energy": -0.27199,
				"method": "rhf"
			},
			{
				"type": "unocc",
				"energy": -0.08077,
				"method": "rhf"
			},
			{
				"type": "unocc",
				"energy": 0.03654,
				"method": "rhf"
			},
			{
				"type": "unocc",
				"energy": 0.09824,
				"method": "rhf"
			},
			{
				"type": "unocc",
				"energy": 0.10495,
				"method": "rhf"
			},
			{
				"type": "unocc",
				"energy": 0.1078,
				"method": "rhf"
			}
		],
		"cosmo_sigma_profile": { 
			"-0.025": 0.0,
			"-0.024": 0.0,
			"-0.023": 0.0,
			"-0.022": 0.0,
			"-0.021": 0.0,
			"-0.02": 0.0,
			"-0.019": 0.0,
			"-0.018": 0.0,
			"-0.017": 0.0,
			"-0.016": 0.0,
			"-0.015": 0.0,
			"-0.014": 0.0,
			"-0.013": 0.0,
			"-0.012": 0.0,
			"-0.011": 0.0,
			"-0.01": 0.0,
			"-0.009": 0.0,
			"-0.008": 0.447218109641,
			"-0.007": 1.6213182413,
			"-0.006": 6.55985125849,
			"-0.005": 12.7573371287,
			"-0.004": 25.7659652607,
			"-0.003": 31.3058606574,
			"-0.002": 28.2752917016,
			"-0.001": 25.5467342914,
			"0.0": 27.9885644698,
			"0.001": 11.9600737642,
			"0.002": 6.30069281421,
			"0.003": 7.10391115377,
			"0.004": 7.64909776608,
			"0.005": 6.15733441161,
			"0.006": 3.35670188229,
			"0.007": 3.28131633305,
			"0.008": 2.81014078918,
			"0.009": 2.4776889782,
			"0.01": 4.26812986607,
			"0.011": 7.32307354082,
			"0.012": 6.14529807071,
			"0.013": 0.571898705896,
			"0.014": 0.0,
			"0.015": 0.0,
			"0.016": 0.0,
			"0.017": 0.0,
			"0.018": 0.0,
			"0.019": 0.0,
			"0.02": 0.0,
			"0.021": 0.0,
			"0.022": 0.0,
			"0.023": 0.0,
			"0.024": 0.0,
			"0.025": 0.0
		}
	}
}
