{
	 "smiles": "ClS(=O)(=O)C1=CSC2=CC=CC=C12", 
	 "Tm": 360.15, 
	 "num_atms": 18, 
	 "gaussian": { 
		 "optdone": 1, 
		 "sigma_profile": "yes", 
		 "theory": "DFT", 
		 "functional": "B3LYP", 
		 "basiset": "6-31G**", 
		 "properties": { 
			 "R2extent": 3426.8886, 
			 "electric_dipole_moment_norm": 5.00674195261, 
			 "electric_quadrupole_moment_norm": 9.91010877286, 
			 "total_energy": -1714.80770407, 
			 "HOMO_LUMO_gap": 0.16034, 
			 "cosmo_polarized_energy": -8.88, 
			 "cosmo_cavitation_energy": 27.29, 
			 "cosmo_dispersion_energy": -21.08, 
			 "cosmo_repulsion_energy": 1.56, 
			 "cosmo_total_nonelectrostatic_energy": 7.77, 
			 "SMD_solvation_energy": 3.03 
		},
		"coords": [
			{
				"x": -2.4787002502,
				"y": 1.9964630678,
				"z": 0.3569917195,
				"element": "Cl" 
			},
			{
				"x": -0.3691166996,
				"y": 1.8741047931,
				"z": 0.0482992687,
				"element": "S" 
			},
			{
				"x": -0.1244254001,
				"y": 2.5013270198,
				"z": -1.2449791259,
				"element": "O" 
			},
			{
				"x": 0.2542137559,
				"y": 2.3520695182,
				"z": 1.2758118151,
				"element": "O" 
			},
			{
				"x": -0.1327435986,
				"y": 0.1288136419,
				"z": -0.0779425671,
				"element": "C" 
			},
			{
				"x": 0.3888119857,
				"y": -0.564754844,
				"z": 0.9738215148,
				"element": "C" 
			},
			{
				"x": 0.5317964084,
				"y": -2.255869147,
				"z": 0.6342080686,
				"element": "S" 
			},
			{
				"x": -0.1487384713,
				"y": -2.0363464478,
				"z": -0.9763890203,
				"element": "C" 
			},
			{
				"x": -0.367773369,
				"y": -3.033230519,
				"z": -1.9319874809,
				"element": "C" 
			},
			{
				"x": -0.9128727942,
				"y": -2.6597061609,
				"z": -3.1545973528,
				"element": "C" 
			},
			{
				"x": -1.2284664569,
				"y": -1.3155935033,
				"z": -3.4228501417,
				"element": "C" 
			},
			{
				"x": -1.0072437143,
				"y": -0.323271765,
				"z": -2.478406296,
				"element": "C" 
			},
			{
				"x": -0.4637065498,
				"y": -0.6791592083,
				"z": -1.2308047499,
				"element": "C" 
			},
			{
				"x": 0.6966196204,
				"y": -0.1569970937,
				"z": 1.9265045456,
				"element": "H" 
			},
			{
				"x": -0.1192895274,
				"y": -4.0691616168,
				"z": -1.7244295397,
				"element": "H" 
			},
			{
				"x": -1.094055421,
				"y": -3.4160363759,
				"z": -3.912003526,
				"element": "H" 
			},
			{
				"x": -1.648748694,
				"y": -1.048428606,
				"z": -4.3873289756,
				"element": "H" 
			},
			{
				"x": -1.238560824,
				"y": 0.7133772469,
				"z": -2.6936181562,
				"element": "H" 
			}
		],
		 "valence_orbital": [ 
			{
				"type": "occ",
				"energy": -0.33427,
				"method": "rhf"
			},
			{
				"type": "occ",
				"energy": -0.31434,
				"method": "rhf"
			},
			{
				"type": "occ",
				"energy": -0.30844,
				"method": "rhf"
			},
			{
				"type": "occ",
				"energy": -0.26604,
				"method": "rhf"
			},
			{
				"type": "occ",
				"energy": -0.25112,
				"method": "rhf"
			},
			{
				"type": "unocc",
				"energy": -0.09078,
				"method": "rhf"
			},
			{
				"type": "unocc",
				"energy": -0.05639,
				"method": "rhf"
			},
			{
				"type": "unocc",
				"energy": -0.02581,
				"method": "rhf"
			},
			{
				"type": "unocc",
				"energy": -0.0111,
				"method": "rhf"
			},
			{
				"type": "unocc",
				"energy": -0.00116,
				"method": "rhf"
			}
		],
		"cosmo_sigma_profile": { 
			"-0.025": 0.0,
			"-0.024": 0.0,
			"-0.023": 0.0,
			"-0.022": 0.0,
			"-0.021": 0.0,
			"-0.02": 0.0,
			"-0.019": 0.0,
			"-0.018": 0.0,
			"-0.017": 0.0,
			"-0.016": 0.0,
			"-0.015": 0.0,
			"-0.014": 0.0,
			"-0.013": 0.0,
			"-0.012": 0.500966515358,
			"-0.011": 1.48644960785,
			"-0.01": 1.60628833137,
			"-0.009": 1.58523480182,
			"-0.008": 4.07380320778,
			"-0.007": 6.5444107508,
			"-0.006": 9.71118638439,
			"-0.005": 12.3971375968,
			"-0.004": 12.1937998269,
			"-0.003": 11.4938154854,
			"-0.002": 15.2009730305,
			"-0.001": 20.5666862601,
			"0.0": 20.6205984894,
			"0.001": 19.3208979108,
			"0.002": 23.4434481698,
			"0.003": 24.4851225537,
			"0.004": 14.647958865,
			"0.005": 2.93343944833,
			"0.006": 4.16279097834,
			"0.007": 5.44920419575,
			"0.008": 9.27532451035,
			"0.009": 3.73519135844,
			"0.01": 0.0,
			"0.011": 0.0,
			"0.012": 0.0,
			"0.013": 0.0,
			"0.014": 0.0,
			"0.015": 0.0,
			"0.016": 0.0,
			"0.017": 0.0,
			"0.018": 0.0,
			"0.019": 0.0,
			"0.02": 0.0,
			"0.021": 0.0,
			"0.022": 0.0,
			"0.023": 0.0,
			"0.024": 0.0,
			"0.025": 0.0
		}
	}
}
