{
	 "smiles": "OC(=O)C1=CC(=CC=C1)C(F)(F)F", 
	 "Tm": 378.15, 
	 "num_atms": 18, 
	 "gaussian": { 
		 "optdone": 1, 
		 "sigma_profile": "yes", 
		 "theory": "DFT", 
		 "functional": "B3LYP", 
		 "basiset": "6-31G**", 
		 "properties": { 
			 "R2extent": 3416.6595, 
			 "electric_dipole_moment_norm": 5.05068599895, 
			 "electric_quadrupole_moment_norm": 6.81752801461, 
			 "total_energy": -757.846585197, 
			 "HOMO_LUMO_gap": 0.21139, 
			 "cosmo_polarized_energy": -14.21, 
			 "cosmo_cavitation_energy": 24.52, 
			 "cosmo_dispersion_energy": -17.5, 
			 "cosmo_repulsion_energy": 1.32, 
			 "cosmo_total_nonelectrostatic_energy": 8.34, 
			 "SMD_solvation_energy": 6.59 
		},
		"coords": [
			{
				"x": -1.0632963092,
				"y": -2.4671868704,
				"z": 0.8999692226,
				"element": "O" 
			},
			{
				"x": -1.5884575283,
				"y": -1.4504936027,
				"z": 0.1671222798,
				"element": "C" 
			},
			{
				"x": -2.7218047662,
				"y": -1.520419776,
				"z": -0.2435576335,
				"element": "O" 
			},
			{
				"x": -0.6960224833,
				"y": -0.2698978054,
				"z": -0.0901025728,
				"element": "C" 
			},
			{
				"x": -1.0300904513,
				"y": 0.5668995953,
				"z": -1.1618311647,
				"element": "C" 
			},
			{
				"x": -0.246624705,
				"y": 1.6826000924,
				"z": -1.4445538728,
				"element": "C" 
			},
			{
				"x": 0.8637443427,
				"y": 1.987299569,
				"z": -0.6491676173,
				"element": "C" 
			},
			{
				"x": 1.1846931716,
				"y": 1.1702943049,
				"z": 0.432599639,
				"element": "C" 
			},
			{
				"x": 0.409916205,
				"y": 0.0437726858,
				"z": 0.7111273098,
				"element": "C" 
			},
			{
				"x": -0.5612215248,
				"y": 2.5442530041,
				"z": -2.6411469198,
				"element": "C" 
			},
			{
				"x": 0.1577751431,
				"y": 2.1640265837,
				"z": -3.7217792468,
				"element": "F" 
			},
			{
				"x": -0.2637845535,
				"y": 3.8418845372,
				"z": -2.4085059237,
				"element": "F" 
			},
			{
				"x": -1.8628787477,
				"y": 2.4758009362,
				"z": -2.9835994631,
				"element": "F" 
			},
			{
				"x": -0.1096129265,
				"y": -2.3492280661,
				"z": 1.0085840108,
				"element": "H" 
			},
			{
				"x": -1.9063900671,
				"y": 0.3320150789,
				"z": -1.7546354871,
				"element": "H" 
			},
			{
				"x": 1.4592646522,
				"y": 2.8667644987,
				"z": -0.8693515549,
				"element": "H" 
			},
			{
				"x": 2.0317102165,
				"y": 1.4158320877,
				"z": 1.0651601663,
				"element": "H" 
			},
			{
				"x": 0.6540803317,
				"y": -0.5598168532,
				"z": 1.5818688282,
				"element": "H" 
			}
		],
		 "valence_orbital": [ 
			{
				"type": "occ",
				"energy": -0.37162,
				"method": "rhf"
			},
			{
				"type": "occ",
				"energy": -0.32727,
				"method": "rhf"
			},
			{
				"type": "occ",
				"energy": -0.29219,
				"method": "rhf"
			},
			{
				"type": "occ",
				"energy": -0.29037,
				"method": "rhf"
			},
			{
				"type": "occ",
				"energy": -0.27892,
				"method": "rhf"
			},
			{
				"type": "unocc",
				"energy": -0.06753,
				"method": "rhf"
			},
			{
				"type": "unocc",
				"energy": -0.04518,
				"method": "rhf"
			},
			{
				"type": "unocc",
				"energy": 0.02902,
				"method": "rhf"
			},
			{
				"type": "unocc",
				"energy": 0.05009,
				"method": "rhf"
			},
			{
				"type": "unocc",
				"energy": 0.09019,
				"method": "rhf"
			}
		],
		"cosmo_sigma_profile": { 
			"-0.025": 0.0,
			"-0.024": 0.0,
			"-0.023": 0.0,
			"-0.022": 0.0,
			"-0.021": 0.0,
			"-0.02": 0.0,
			"-0.019": 0.599691810849,
			"-0.018": 0.972141500267,
			"-0.017": 0.81545409742,
			"-0.016": 1.58075641928,
			"-0.015": 0.906577201691,
			"-0.014": 0.766184624427,
			"-0.013": 0.85106066549,
			"-0.012": 1.01695085338,
			"-0.011": 1.95778081626,
			"-0.01": 0.997430766844,
			"-0.009": 1.32193281705,
			"-0.008": 4.49173204525,
			"-0.007": 7.23530469508,
			"-0.006": 7.84201690133,
			"-0.005": 7.6734036622,
			"-0.004": 8.35120218419,
			"-0.003": 8.62488298387,
			"-0.002": 9.78259936548,
			"-0.001": 12.0309175209,
			"0.0": 15.9381607355,
			"0.001": 21.7340780414,
			"0.002": 27.4024162653,
			"0.003": 23.603399002,
			"0.004": 2.48783508228,
			"0.005": 2.29817173461,
			"0.006": 2.18639608634,
			"0.007": 2.59963382783,
			"0.008": 3.12487942867,
			"0.009": 3.0333620008,
			"0.01": 5.40229275922,
			"0.011": 5.29077681901,
			"0.012": 3.56245756783,
			"0.013": 0.791081179933,
			"0.014": 0.0,
			"0.015": 0.0,
			"0.016": 0.0,
			"0.017": 0.0,
			"0.018": 0.0,
			"0.019": 0.0,
			"0.02": 0.0,
			"0.021": 0.0,
			"0.022": 0.0,
			"0.023": 0.0,
			"0.024": 0.0,
			"0.025": 0.0
		}
	}
}
