{
	 "smiles": "ClC1=C(C=CC(Br)=C1)N=C=O", 
	 "Tm": 346.15, 
	 "num_atms": 14, 
	 "gaussian": { 
		 "optdone": 1, 
		 "sigma_profile": "yes", 
		 "theory": "DFT", 
		 "functional": "B3LYP", 
		 "basiset": "6-31G**", 
		 "properties": { 
			 "R2extent": 5092.6321, 
			 "electric_dipole_moment_norm": 1.8438550404, 
			 "electric_quadrupole_moment_norm": 9.12908072645, 
			 "total_energy": -3430.1208454, 
			 "HOMO_LUMO_gap": 0.19872, 
			 "cosmo_polarized_energy": -4.55, 
			 "cosmo_cavitation_energy": 24.07, 
			 "cosmo_dispersion_energy": -18.05, 
			 "cosmo_repulsion_energy": 1.45, 
			 "cosmo_total_nonelectrostatic_energy": 7.47, 
			 "SMD_solvation_energy": 4.8 
		},
		"coords": [
			{
				"x": 0.6093036314,
				"y": -0.185494011,
				"z": 1.9309062913,
				"element": "Cl" 
			},
			{
				"x": -0.7045099608,
				"y": 0.5801834766,
				"z": 1.0678378727,
				"element": "C" 
			},
			{
				"x": -0.4642221263,
				"y": 1.7352325657,
				"z": 0.296463656,
				"element": "C" 
			},
			{
				"x": -1.5482844848,
				"y": 2.3153975217,
				"z": -0.3790344081,
				"element": "C" 
			},
			{
				"x": -2.8263430786,
				"y": 1.774822956,
				"z": -0.2964127497,
				"element": "C" 
			},
			{
				"x": -3.033132972,
				"y": 0.6316388246,
				"z": 0.4747168666,
				"element": "C" 
			},
			{
				"x": -4.7787632213,
				"y": -0.1238361227,
				"z": 0.6003595843,
				"element": "Br" 
			},
			{
				"x": -1.9808151669,
				"y": 0.0283172186,
				"z": 1.1589845977,
				"element": "C" 
			},
			{
				"x": 0.7794955362,
				"y": 2.3310071309,
				"z": 0.1661585134,
				"element": "N" 
			},
			{
				"x": 1.9271155532,
				"y": 2.195970893,
				"z": 0.5377860055,
				"element": "C" 
			},
			{
				"x": 3.0719834926,
				"y": 2.20969544,
				"z": 0.8018270261,
				"element": "O" 
			},
			{
				"x": -1.3627881899,
				"y": 3.2039053318,
				"z": -0.9724240516,
				"element": "H" 
			},
			{
				"x": -3.652152354,
				"y": 2.236032806,
				"z": -0.8247304834,
				"element": "H" 
			},
			{
				"x": -2.1429866587,
				"y": -0.8593740312,
				"z": 1.7572612794,
				"element": "H" 
			}
		],
		 "valence_orbital": [ 
			{
				"type": "occ",
				"energy": -0.32265,
				"method": "rhf"
			},
			{
				"type": "occ",
				"energy": -0.30461,
				"method": "rhf"
			},
			{
				"type": "occ",
				"energy": -0.30098,
				"method": "rhf"
			},
			{
				"type": "occ",
				"energy": -0.27492,
				"method": "rhf"
			},
			{
				"type": "occ",
				"energy": -0.24354,
				"method": "rhf"
			},
			{
				"type": "unocc",
				"energy": -0.04482,
				"method": "rhf"
			},
			{
				"type": "unocc",
				"energy": -0.03684,
				"method": "rhf"
			},
			{
				"type": "unocc",
				"energy": -0.02013,
				"method": "rhf"
			},
			{
				"type": "unocc",
				"energy": 0.0073,
				"method": "rhf"
			},
			{
				"type": "unocc",
				"energy": 0.03379,
				"method": "rhf"
			}
		],
		"cosmo_sigma_profile": { 
			"-0.025": 0.0,
			"-0.024": 0.0,
			"-0.023": 0.0,
			"-0.022": 0.0,
			"-0.021": 0.0,
			"-0.02": 0.0,
			"-0.019": 0.0,
			"-0.018": 0.0,
			"-0.017": 0.0,
			"-0.016": 0.0,
			"-0.015": 0.0,
			"-0.014": 0.0,
			"-0.013": 0.0,
			"-0.012": 0.0,
			"-0.011": 0.0,
			"-0.01": 0.0,
			"-0.009": 0.714879305616,
			"-0.008": 4.19166918478,
			"-0.007": 6.13528025562,
			"-0.006": 4.89566895251,
			"-0.005": 6.07520644739,
			"-0.004": 11.3809086521,
			"-0.003": 13.8757303975,
			"-0.002": 13.790513319,
			"-0.001": 17.2498828333,
			"0.0": 27.1951977175,
			"0.001": 28.5973679054,
			"0.002": 19.6034231439,
			"0.003": 17.7461833362,
			"0.004": 14.8059459126,
			"0.005": 3.64002179441,
			"0.006": 3.57026316533,
			"0.007": 7.31894904417,
			"0.008": 0.218099265682,
			"0.009": 0.0,
			"0.01": 0.0,
			"0.011": 0.0,
			"0.012": 0.0,
			"0.013": 0.0,
			"0.014": 0.0,
			"0.015": 0.0,
			"0.016": 0.0,
			"0.017": 0.0,
			"0.018": 0.0,
			"0.019": 0.0,
			"0.02": 0.0,
			"0.021": 0.0,
			"0.022": 0.0,
			"0.023": 0.0,
			"0.024": 0.0,
			"0.025": 0.0
		}
	}
}
