{
	 "smiles": "[O-][N+](=O)C1=CC2=C(CC3=C(C=CC=C23)[N+]([O-])=O)C=C1", 
	 "Tm": 559.15, 
	 "num_atms": 27, 
	 "gaussian": { 
		 "optdone": 1, 
		 "sigma_profile": "yes", 
		 "theory": "DFT", 
		 "functional": "B3LYP", 
		 "basiset": "6-31G**", 
		 "properties": { 
			 "R2extent": 6592.3703, 
			 "electric_dipole_moment_norm": 1.50453231936, 
			 "electric_quadrupole_moment_norm": 44.3368033628, 
			 "total_energy": -910.420141032, 
			 "HOMO_LUMO_gap": 0.15432, 
			 "cosmo_polarized_energy": -13.4, 
			 "cosmo_cavitation_energy": 32.81, 
			 "cosmo_dispersion_energy": -24.02, 
			 "cosmo_repulsion_energy": 1.79, 
			 "cosmo_total_nonelectrostatic_energy": 10.58, 
			 "SMD_solvation_energy": 9.19 
		},
		"coords": [
			{
				"x": -0.3736695484,
				"y": -0.3737288492,
				"z": -4.1056824527,
				"element": "O" 
			},
			{
				"x": 0.6457225662,
				"y": -0.0417543385,
				"z": -3.500889286,
				"element": "N" 
			},
			{
				"x": 1.7232594592,
				"y": 0.2183224221,
				"z": -4.0344313716,
				"element": "O" 
			},
			{
				"x": 0.5679599707,
				"y": 0.0503895297,
				"z": -2.0329663283,
				"element": "C" 
			},
			{
				"x": -0.6456860161,
				"y": -0.2409150033,
				"z": -1.4122601157,
				"element": "C" 
			},
			{
				"x": -0.6911240272,
				"y": -0.1457704564,
				"z": -0.0234148389,
				"element": "C" 
			},
			{
				"x": 0.4513905916,
				"y": 0.2310277782,
				"z": 0.7139963104,
				"element": "C" 
			},
			{
				"x": 0.1315044357,
				"y": 0.2561134962,
				"z": 2.1906549438,
				"element": "C" 
			},
			{
				"x": -1.3255074713,
				"y": -0.1479204836,
				"z": 2.2266195364,
				"element": "C" 
			},
			{
				"x": -2.2179042001,
				"y": -0.3148984094,
				"z": 3.2848317185,
				"element": "C" 
			},
			{
				"x": -3.5431388936,
				"y": -0.7027185665,
				"z": 3.060518875,
				"element": "C" 
			},
			{
				"x": -3.9850617219,
				"y": -0.9277395614,
				"z": 1.758314774,
				"element": "C" 
			},
			{
				"x": -3.1154077401,
				"y": -0.7690021055,
				"z": 0.6765180724,
				"element": "C" 
			},
			{
				"x": -1.7958597655,
				"y": -0.3815407235,
				"z": 0.9151546115,
				"element": "C" 
			},
			{
				"x": -1.7932050563,
				"y": -0.0881930385,
				"z": 4.6738517508,
				"element": "N" 
			},
			{
				"x": -0.6240639379,
				"y": 0.2534462292,
				"z": 4.865721547,
				"element": "O" 
			},
			{
				"x": -2.6248902121,
				"y": -0.2514419795,
				"z": 5.5643832847,
				"element": "O" 
			},
			{
				"x": 1.6508389637,
				"y": 0.5163789965,
				"z": 0.0672760404,
				"element": "C" 
			},
			{
				"x": 1.7117914947,
				"y": 0.4254117466,
				"z": -1.3240994168,
				"element": "C" 
			},
			{
				"x": -1.4989280329,
				"y": -0.5263513442,
				"z": -2.0151522959,
				"element": "H" 
			},
			{
				"x": 0.7572470848,
				"y": -0.4317239688,
				"z": 2.7707478379,
				"element": "H" 
			},
			{
				"x": 0.2907525459,
				"y": 1.2419647029,
				"z": 2.6419615904,
				"element": "H" 
			},
			{
				"x": -4.2012670639,
				"y": -0.8203198395,
				"z": 3.9118870187,
				"element": "H" 
			},
			{
				"x": -5.0137110952,
				"y": -1.2284678536,
				"z": 1.5882528847,
				"element": "H" 
			},
			{
				"x": -3.4652987504,
				"y": -0.9457656933,
				"z": -0.3362656971,
				"element": "H" 
			},
			{
				"x": 2.5330187977,
				"y": 0.8068671032,
				"z": 0.6299086973,
				"element": "H" 
			},
			{
				"x": 2.6222376229,
				"y": 0.6377302103,
				"z": -1.8699376911,
				"element": "H" 
			}
		],
		 "valence_orbital": [ 
			{
				"type": "occ",
				"energy": -0.29982,
				"method": "rhf"
			},
			{
				"type": "occ",
				"energy": -0.29533,
				"method": "rhf"
			},
			{
				"type": "occ",
				"energy": -0.29115,
				"method": "rhf"
			},
			{
				"type": "occ",
				"energy": -0.28221,
				"method": "rhf"
			},
			{
				"type": "occ",
				"energy": -0.25413,
				"method": "rhf"
			},
			{
				"type": "unocc",
				"energy": -0.09981,
				"method": "rhf"
			},
			{
				"type": "unocc",
				"energy": -0.09382,
				"method": "rhf"
			},
			{
				"type": "unocc",
				"energy": -0.06082,
				"method": "rhf"
			},
			{
				"type": "unocc",
				"energy": -0.02909,
				"method": "rhf"
			},
			{
				"type": "unocc",
				"energy": -0.00522,
				"method": "rhf"
			}
		],
		"cosmo_sigma_profile": { 
			"-0.025": 0.0,
			"-0.024": 0.0,
			"-0.023": 0.0,
			"-0.022": 0.0,
			"-0.021": 0.0,
			"-0.02": 0.0,
			"-0.019": 0.0,
			"-0.018": 0.0,
			"-0.017": 0.0,
			"-0.016": 0.0,
			"-0.015": 0.0,
			"-0.014": 0.0,
			"-0.013": 0.0,
			"-0.012": 0.0,
			"-0.011": 0.0,
			"-0.01": 0.0,
			"-0.009": 1.17587892327,
			"-0.008": 5.06880342996,
			"-0.007": 13.0234391778,
			"-0.006": 19.2535007685,
			"-0.005": 18.0763919736,
			"-0.004": 17.1538073462,
			"-0.003": 17.2591955592,
			"-0.002": 17.4745660769,
			"-0.001": 20.0241368766,
			"0.0": 25.1896539242,
			"0.001": 27.2266501696,
			"0.002": 16.3910941988,
			"0.003": 5.3359883557,
			"0.004": 5.89134419608,
			"0.005": 5.54544481349,
			"0.006": 7.65795758666,
			"0.007": 13.5808269816,
			"0.008": 14.3146390433,
			"0.009": 9.25974512743,
			"0.01": 5.42096199626,
			"0.011": 0.192426671823,
			"0.012": 0.0,
			"0.013": 0.0,
			"0.014": 0.0,
			"0.015": 0.0,
			"0.016": 0.0,
			"0.017": 0.0,
			"0.018": 0.0,
			"0.019": 0.0,
			"0.02": 0.0,
			"0.021": 0.0,
			"0.022": 0.0,
			"0.023": 0.0,
			"0.024": 0.0,
			"0.025": 0.0
		}
	}
}
