{
	 "smiles": "CC1=CC=C(NCC(NC2=CC=C(C)C=C2)=NC2=CC=C(C)C=C2)C=C1", 
	 "Tm": 409.15, 
	 "num_atms": 51, 
	 "gaussian": { 
		 "optdone": 1, 
		 "sigma_profile": "yes", 
		 "theory": "DFT", 
		 "functional": "B3LYP", 
		 "basiset": "6-31G**", 
		 "properties": { 
			 "R2extent": 11869.7396, 
			 "electric_dipole_moment_norm": 2.80547358747, 
			 "electric_quadrupole_moment_norm": 15.0255410871, 
			 "total_energy": -1055.78677324, 
			 "HOMO_LUMO_gap": 0.17481, 
			 "cosmo_polarized_energy": -15.17, 
			 "cosmo_cavitation_energy": 53.66, 
			 "cosmo_dispersion_energy": -35.53, 
			 "cosmo_repulsion_energy": 2.78, 
			 "cosmo_total_nonelectrostatic_energy": 20.91, 
			 "SMD_solvation_energy": 7.18 
		},
		"coords": [
			{
				"x": 5.6634651458,
				"y": 4.069678533,
				"z": 0.4951077835,
				"element": "C" 
			},
			{
				"x": 4.2325996589,
				"y": 3.7951956686,
				"z": 0.8949737131,
				"element": "C" 
			},
			{
				"x": 3.8033924475,
				"y": 3.973486527,
				"z": 2.2190112959,
				"element": "C" 
			},
			{
				"x": 2.4945475203,
				"y": 3.7033122946,
				"z": 2.6007625559,
				"element": "C" 
			},
			{
				"x": 1.5539041344,
				"y": 3.243818236,
				"z": 1.6626920728,
				"element": "C" 
			},
			{
				"x": 0.2429246218,
				"y": 2.9443722037,
				"z": 2.0879499224,
				"element": "N" 
			},
			{
				"x": -0.8457107639,
				"y": 2.8794353516,
				"z": 1.1213434469,
				"element": "C" 
			},
			{
				"x": -1.0001761652,
				"y": 1.5161064198,
				"z": 0.4287094122,
				"element": "C" 
			},
			{
				"x": -0.5018740242,
				"y": 0.4811260639,
				"z": 1.1868890763,
				"element": "N" 
			},
			{
				"x": -0.1028913428,
				"y": -0.8269281812,
				"z": 0.8177579261,
				"element": "C" 
			},
			{
				"x": 0.3308791113,
				"y": -1.1588346065,
				"z": -0.4720376937,
				"element": "C" 
			},
			{
				"x": 0.7602376345,
				"y": -2.4548151019,
				"z": -0.7488703993,
				"element": "C" 
			},
			{
				"x": 0.7899408495,
				"y": -3.449382565,
				"z": 0.2371974013,
				"element": "C" 
			},
			{
				"x": 1.2323295034,
				"y": -4.8568963093,
				"z": -0.0865686355,
				"element": "C" 
			},
			{
				"x": 0.3737475766,
				"y": -3.0971125411,
				"z": 1.527271443,
				"element": "C" 
			},
			{
				"x": -0.0732578912,
				"y": -1.8099101037,
				"z": 1.8156981981,
				"element": "C" 
			},
			{
				"x": -1.6153084383,
				"y": 1.5450836434,
				"z": -0.6995867251,
				"element": "N" 
			},
			{
				"x": -2.1768760853,
				"y": 0.4629916091,
				"z": -1.3865693303,
				"element": "C" 
			},
			{
				"x": -2.9564328434,
				"y": -0.5306701667,
				"z": -0.766004814,
				"element": "C" 
			},
			{
				"x": -3.5814151505,
				"y": -1.5184266001,
				"z": -1.5234143348,
				"element": "C" 
			},
			{
				"x": -3.4523497755,
				"y": -1.5672589724,
				"z": -2.9177165369,
				"element": "C" 
			},
			{
				"x": -4.1540001138,
				"y": -2.6286167331,
				"z": -3.7325281159,
				"element": "C" 
			},
			{
				"x": -2.6761902125,
				"y": -0.5744326689,
				"z": -3.5315921188,
				"element": "C" 
			},
			{
				"x": -2.0642465205,
				"y": 0.4308039267,
				"z": -2.7879203064,
				"element": "C" 
			},
			{
				"x": 1.9681057987,
				"y": 3.0648034712,
				"z": 0.3353474383,
				"element": "C" 
			},
			{
				"x": 3.2881686872,
				"y": 3.3391897489,
				"z": -0.0288900122,
				"element": "C" 
			},
			{
				"x": 6.0237357047,
				"y": 5.016669647,
				"z": 0.9118943481,
				"element": "H" 
			},
			{
				"x": 5.7697376629,
				"y": 4.121901269,
				"z": -0.5923716545,
				"element": "H" 
			},
			{
				"x": 6.3403824827,
				"y": 3.2834239878,
				"z": 0.8526971001,
				"element": "H" 
			},
			{
				"x": 4.5067262964,
				"y": 4.3343951573,
				"z": 2.9661279906,
				"element": "H" 
			},
			{
				"x": 2.1910808919,
				"y": 3.8504706799,
				"z": 3.6353241529,
				"element": "H" 
			},
			{
				"x": -0.0065457989,
				"y": 3.4360960097,
				"z": 2.9354728194,
				"element": "H" 
			},
			{
				"x": -0.7698669905,
				"y": 3.6322529582,
				"z": 0.3281801252,
				"element": "H" 
			},
			{
				"x": -1.7786629816,
				"y": 3.0750046944,
				"z": 1.661501596,
				"element": "H" 
			},
			{
				"x": -0.0851897874,
				"y": 0.8276826654,
				"z": 2.0471660512,
				"element": "H" 
			},
			{
				"x": 0.3398108586,
				"y": -0.4078720815,
				"z": -1.2520090192,
				"element": "H" 
			},
			{
				"x": 1.090499564,
				"y": -2.6930040896,
				"z": -1.7570083311,
				"element": "H" 
			},
			{
				"x": 0.3968304849,
				"y": -5.4620725117,
				"z": -0.4611070745,
				"element": "H" 
			},
			{
				"x": 2.0078553458,
				"y": -4.8651868008,
				"z": -0.8589659265,
				"element": "H" 
			},
			{
				"x": 1.6307990247,
				"y": -5.3651642329,
				"z": 0.7968330719,
				"element": "H" 
			},
			{
				"x": 0.3922698146,
				"y": -3.8419470481,
				"z": 2.3192203822,
				"element": "H" 
			},
			{
				"x": -0.4044227524,
				"y": -1.5593963514,
				"z": 2.8202286367,
				"element": "H" 
			},
			{
				"x": -3.0737178234,
				"y": -0.5208060487,
				"z": 0.313278291,
				"element": "H" 
			},
			{
				"x": -4.1789677763,
				"y": -2.2735262251,
				"z": -1.016995117,
				"element": "H" 
			},
			{
				"x": -3.5964598153,
				"y": -2.8685052182,
				"z": -4.6436315747,
				"element": "H" 
			},
			{
				"x": -5.1552388536,
				"y": -2.3025480389,
				"z": -4.0435394186,
				"element": "H" 
			},
			{
				"x": -4.2794740925,
				"y": -3.5543448382,
				"z": -3.1618655477,
				"element": "H" 
			},
			{
				"x": -2.5590427929,
				"y": -0.5812131493,
				"z": -4.6132198746,
				"element": "H" 
			},
			{
				"x": -1.4857621149,
				"y": 1.2088359961,
				"z": -3.2773808023,
				"element": "H" 
			},
			{
				"x": 1.270539364,
				"y": 2.7124586382,
				"z": -0.4168206584,
				"element": "H" 
			},
			{
				"x": 3.5837707218,
				"y": 3.1944757831,
				"z": -1.0653222291,
				"element": "H" 
			}
		],
		 "valence_orbital": [ 
			{
				"type": "occ",
				"energy": -0.24499,
				"method": "rhf"
			},
			{
				"type": "occ",
				"energy": -0.23185,
				"method": "rhf"
			},
			{
				"type": "occ",
				"energy": -0.20995,
				"method": "rhf"
			},
			{
				"type": "occ",
				"energy": -0.20193,
				"method": "rhf"
			},
			{
				"type": "occ",
				"energy": -0.18867,
				"method": "rhf"
			},
			{
				"type": "unocc",
				"energy": -0.01386,
				"method": "rhf"
			},
			{
				"type": "unocc",
				"energy": 0.00121,
				"method": "rhf"
			},
			{
				"type": "unocc",
				"energy": 0.0026,
				"method": "rhf"
			},
			{
				"type": "unocc",
				"energy": 0.01363,
				"method": "rhf"
			},
			{
				"type": "unocc",
				"energy": 0.01646,
				"method": "rhf"
			}
		],
		"cosmo_sigma_profile": { 
			"-0.025": 0.0,
			"-0.024": 0.0,
			"-0.023": 0.0,
			"-0.022": 0.0,
			"-0.021": 0.0,
			"-0.02": 0.0,
			"-0.019": 0.0,
			"-0.018": 0.0,
			"-0.017": 0.0,
			"-0.016": 0.0,
			"-0.015": 0.0,
			"-0.014": 0.0,
			"-0.013": 0.984239207745,
			"-0.012": 1.57006887437,
			"-0.011": 1.77548595368,
			"-0.01": 1.51293356388,
			"-0.009": 2.88826598209,
			"-0.008": 2.78821496919,
			"-0.007": 4.90761900124,
			"-0.006": 7.04771786311,
			"-0.005": 16.9486539786,
			"-0.004": 38.9936624704,
			"-0.003": 46.9488206064,
			"-0.002": 42.5678290622,
			"-0.001": 40.0756799233,
			"0.0": 44.9103049454,
			"0.001": 33.7622816943,
			"0.002": 23.9476878883,
			"0.003": 21.0019778712,
			"0.004": 21.5945603011,
			"0.005": 20.034047984,
			"0.006": 23.9263711554,
			"0.007": 16.4465935233,
			"0.008": 3.42078187288,
			"0.009": 1.14587505233,
			"0.01": 1.27094096202,
			"0.011": 1.26974271208,
			"0.012": 0.508909533621,
			"0.013": 0.549138706727,
			"0.014": 1.05328845114,
			"0.015": 0.561218592108,
			"0.016": 0.325621099892,
			"0.017": 0.0,
			"0.018": 0.0,
			"0.019": 0.0,
			"0.02": 0.0,
			"0.021": 0.0,
			"0.022": 0.0,
			"0.023": 0.0,
			"0.024": 0.0,
			"0.025": 0.0
		}
	}
}
