{
	 "smiles": "COC1=CC=C(C=C1)C1=NC(C)=C(S1)C(C)=O", 
	 "Tm": 366.15, 
	 "num_atms": 30, 
	 "gaussian": { 
		 "optdone": 1, 
		 "sigma_profile": "yes", 
		 "theory": "DFT", 
		 "functional": "B3LYP", 
		 "basiset": "6-31G**", 
		 "properties": { 
			 "R2extent": 6869.177, 
			 "electric_dipole_moment_norm": 2.68909729835, 
			 "electric_quadrupole_moment_norm": 33.3599593182, 
			 "total_energy": -1106.604438, 
			 "HOMO_LUMO_gap": 0.14168, 
			 "cosmo_polarized_energy": -13.1, 
			 "cosmo_cavitation_energy": 35.52, 
			 "cosmo_dispersion_energy": -26.39, 
			 "cosmo_repulsion_energy": 1.98, 
			 "cosmo_total_nonelectrostatic_energy": 11.1, 
			 "SMD_solvation_energy": 6.07 
		},
		"coords": [
			{
				"x": -2.9932525633,
				"y": -3.0697697596,
				"z": 5.0690195427,
				"element": "C" 
			},
			{
				"x": -2.4925732364,
				"y": -3.5882567454,
				"z": 3.8445803895,
				"element": "O" 
			},
			{
				"x": -2.0258243682,
				"y": -2.7155553084,
				"z": 2.9126970056,
				"element": "C" 
			},
			{
				"x": -1.5442451624,
				"y": -3.2912970895,
				"z": 1.7240813887,
				"element": "C" 
			},
			{
				"x": -1.0469755028,
				"y": -2.4899744025,
				"z": 0.7117671265,
				"element": "C" 
			},
			{
				"x": -1.0129315487,
				"y": -1.0863425506,
				"z": 0.8502757439,
				"element": "C" 
			},
			{
				"x": -1.4965422097,
				"y": -0.5257570404,
				"z": 2.0408968943,
				"element": "C" 
			},
			{
				"x": -1.9995790122,
				"y": -1.3225258942,
				"z": 3.0670462875,
				"element": "C" 
			},
			{
				"x": -0.4795746874,
				"y": -0.2707667442,
				"z": -0.2414465787,
				"element": "C" 
			},
			{
				"x": -0.0219273168,
				"y": -0.7889788602,
				"z": -1.3647332369,
				"element": "N" 
			},
			{
				"x": 0.4233868689,
				"y": 0.1685642209,
				"z": -2.2333631664,
				"element": "C" 
			},
			{
				"x": 0.9700921356,
				"y": -0.3060955894,
				"z": -3.5531184544,
				"element": "C" 
			},
			{
				"x": 0.3112010471,
				"y": 1.4752363132,
				"z": -1.777087927,
				"element": "C" 
			},
			{
				"x": -0.3917299825,
				"y": 1.4751027448,
				"z": -0.1734960027,
				"element": "S" 
			},
			{
				"x": 0.6500547806,
				"y": 2.7871328519,
				"z": -2.3485145316,
				"element": "C" 
			},
			{
				"x": 1.2642094514,
				"y": 2.8679966811,
				"z": -3.7351850801,
				"element": "C" 
			},
			{
				"x": 0.436503711,
				"y": 3.8081471727,
				"z": -1.7022374823,
				"element": "O" 
			},
			{
				"x": -2.2197956435,
				"y": -2.5211637594,
				"z": 5.6209560619,
				"element": "H" 
			},
			{
				"x": -3.3076697024,
				"y": -3.9345318152,
				"z": 5.6547241715,
				"element": "H" 
			},
			{
				"x": -3.8553438944,
				"y": -2.4110364481,
				"z": 4.90559506,
				"element": "H" 
			},
			{
				"x": -1.5736660962,
				"y": -4.37135162,
				"z": 1.6249007391,
				"element": "H" 
			},
			{
				"x": -0.6743069243,
				"y": -2.9285855088,
				"z": -0.2069418024,
				"element": "H" 
			},
			{
				"x": -1.4847722131,
				"y": 0.5517473723,
				"z": 2.1800152059,
				"element": "H" 
			},
			{
				"x": -2.3644418956,
				"y": -0.8532445854,
				"z": 3.9725237213,
				"element": "H" 
			},
			{
				"x": 2.016037612,
				"y": -0.0151157526,
				"z": -3.6928918736,
				"element": "H" 
			},
			{
				"x": 0.9089841428,
				"y": -1.3949049495,
				"z": -3.5796663894,
				"element": "H" 
			},
			{
				"x": 0.4025555532,
				"y": 0.0926224743,
				"z": -4.399957247,
				"element": "H" 
			},
			{
				"x": 1.4383518761,
				"y": 3.9191739096,
				"z": -3.9675669389,
				"element": "H" 
			},
			{
				"x": 0.6001388965,
				"y": 2.4339587748,
				"z": -4.4897610436,
				"element": "H" 
			},
			{
				"x": 2.2127358849,
				"y": 2.3231719082,
				"z": -3.7821115831,
				"element": "H" 
			}
		],
		 "valence_orbital": [ 
			{
				"type": "occ",
				"energy": -0.27887,
				"method": "rhf"
			},
			{
				"type": "occ",
				"energy": -0.2626,
				"method": "rhf"
			},
			{
				"type": "occ",
				"energy": -0.26016,
				"method": "rhf"
			},
			{
				"type": "occ",
				"energy": -0.24265,
				"method": "rhf"
			},
			{
				"type": "occ",
				"energy": -0.21182,
				"method": "rhf"
			},
			{
				"type": "unocc",
				"energy": -0.07014,
				"method": "rhf"
			},
			{
				"type": "unocc",
				"energy": -0.01302,
				"method": "rhf"
			},
			{
				"type": "unocc",
				"energy": -0.00921,
				"method": "rhf"
			},
			{
				"type": "unocc",
				"energy": 0.02565,
				"method": "rhf"
			},
			{
				"type": "unocc",
				"energy": 0.04592,
				"method": "rhf"
			}
		],
		"cosmo_sigma_profile": { 
			"-0.025": 0.0,
			"-0.024": 0.0,
			"-0.023": 0.0,
			"-0.022": 0.0,
			"-0.021": 0.0,
			"-0.02": 0.0,
			"-0.019": 0.0,
			"-0.018": 0.0,
			"-0.017": 0.0,
			"-0.016": 0.0,
			"-0.015": 0.0,
			"-0.014": 0.0,
			"-0.013": 0.0,
			"-0.012": 0.0,
			"-0.011": 0.0,
			"-0.01": 0.0,
			"-0.009": 0.0,
			"-0.008": 0.326433657358,
			"-0.007": 8.92066409654,
			"-0.006": 19.7527100466,
			"-0.005": 23.9170991553,
			"-0.004": 22.6667483905,
			"-0.003": 25.5076600996,
			"-0.002": 18.4996466556,
			"-0.001": 24.2428933964,
			"0.0": 21.2349550824,
			"0.001": 20.6675729521,
			"0.002": 19.9482083803,
			"0.003": 24.2992227675,
			"0.004": 16.5136842943,
			"0.005": 6.00036991319,
			"0.006": 4.74103432787,
			"0.007": 4.9604834297,
			"0.008": 4.05772366047,
			"0.009": 4.90460057517,
			"0.01": 4.06185129943,
			"0.011": 3.12765877257,
			"0.012": 4.52666300825,
			"0.013": 2.13797312763,
			"0.014": 0.258299129499,
			"0.015": 0.0,
			"0.016": 0.0,
			"0.017": 0.0,
			"0.018": 0.0,
			"0.019": 0.0,
			"0.02": 0.0,
			"0.021": 0.0,
			"0.022": 0.0,
			"0.023": 0.0,
			"0.024": 0.0,
			"0.025": 0.0
		}
	}
}
