{
	 "smiles": "CC1=CC=C(C(O)=O)C(N)=C1", 
	 "Tm": 433.15, 
	 "num_atms": 20, 
	 "gaussian": { 
		 "optdone": 1, 
		 "sigma_profile": "yes", 
		 "theory": "DFT", 
		 "functional": "B3LYP", 
		 "basiset": "6-31G**", 
		 "properties": { 
			 "R2extent": 2152.3328, 
			 "electric_dipole_moment_norm": 6.63980207762, 
			 "electric_quadrupole_moment_norm": 21.3454409289, 
			 "total_energy": -515.499982779, 
			 "HOMO_LUMO_gap": 0.20381, 
			 "cosmo_polarized_energy": -16.81, 
			 "cosmo_cavitation_energy": 23.66, 
			 "cosmo_dispersion_energy": -17.74, 
			 "cosmo_repulsion_energy": 1.42, 
			 "cosmo_total_nonelectrostatic_energy": 7.35, 
			 "SMD_solvation_energy": 5.59 
		},
		"coords": [
			{
				"x": 0.2048373036,
				"y": 0.7305803231,
				"z": -2.8852073348,
				"element": "C" 
			},
			{
				"x": 0.2243907641,
				"y": 0.730691874,
				"z": -1.3758461819,
				"element": "C" 
			},
			{
				"x": 0.7552310659,
				"y": 1.8157125246,
				"z": -0.662325734,
				"element": "C" 
			},
			{
				"x": 0.8024907073,
				"y": 1.79274742,
				"z": 0.7254955894,
				"element": "C" 
			},
			{
				"x": 0.3290943432,
				"y": 0.6931422619,
				"z": 1.4549007923,
				"element": "C" 
			},
			{
				"x": 0.5241483074,
				"y": 0.736938184,
				"z": 2.9502725189,
				"element": "C" 
			},
			{
				"x": 0.3764026869,
				"y": -0.4204915575,
				"z": 3.6212077409,
				"element": "O" 
			},
			{
				"x": 0.8327173384,
				"y": 1.7581007208,
				"z": 3.5272185158,
				"element": "O" 
			},
			{
				"x": -0.2434406733,
				"y": -0.381747596,
				"z": 0.7468622015,
				"element": "C" 
			},
			{
				"x": -0.7589025395,
				"y": -1.5112239686,
				"z": 1.4687506607,
				"element": "N" 
			},
			{
				"x": -0.2824042823,
				"y": -0.3520430507,
				"z": -0.6507149162,
				"element": "C" 
			},
			{
				"x": -0.4966025911,
				"y": -0.0094281931,
				"z": -3.2804101261,
				"element": "H" 
			},
			{
				"x": 1.1967914296,
				"y": 0.4939509275,
				"z": -3.2893625666,
				"element": "H" 
			},
			{
				"x": -0.0773408697,
				"y": 1.7119789953,
				"z": -3.2791691877,
				"element": "H" 
			},
			{
				"x": 1.139060468,
				"y": 2.6775523664,
				"z": -1.2015789938,
				"element": "H" 
			},
			{
				"x": 1.2222635615,
				"y": 2.6197997598,
				"z": 1.2879195051,
				"element": "H" 
			},
			{
				"x": 0.1417902587,
				"y": -1.1370627312,
				"z": 2.984468848,
				"element": "H" 
			},
			{
				"x": -0.885741853,
				"y": -2.3157375481,
				"z": 0.8627834439,
				"element": "H" 
			},
			{
				"x": -1.6542338734,
				"y": -1.3026047,
				"z": 1.9067897904,
				"element": "H" 
			},
			{
				"x": -0.7312515522,
				"y": -1.1891560123,
				"z": -1.1820545658,
				"element": "H" 
			}
		],
		 "valence_orbital": [ 
			{
				"type": "occ",
				"energy": -0.30781,
				"method": "rhf"
			},
			{
				"type": "occ",
				"energy": -0.29308,
				"method": "rhf"
			},
			{
				"type": "occ",
				"energy": -0.25991,
				"method": "rhf"
			},
			{
				"type": "occ",
				"energy": -0.25294,
				"method": "rhf"
			},
			{
				"type": "occ",
				"energy": -0.24405,
				"method": "rhf"
			},
			{
				"type": "unocc",
				"energy": -0.04024,
				"method": "rhf"
			},
			{
				"type": "unocc",
				"energy": -0.01195,
				"method": "rhf"
			},
			{
				"type": "unocc",
				"energy": 0.05937,
				"method": "rhf"
			},
			{
				"type": "unocc",
				"energy": 0.06076,
				"method": "rhf"
			},
			{
				"type": "unocc",
				"energy": 0.08913,
				"method": "rhf"
			}
		],
		"cosmo_sigma_profile": { 
			"-0.025": 0.0,
			"-0.024": 0.0,
			"-0.023": 0.0,
			"-0.022": 0.0,
			"-0.021": 0.0,
			"-0.02": 0.0,
			"-0.019": 0.0,
			"-0.018": 0.0,
			"-0.017": 0.0,
			"-0.016": 0.0,
			"-0.015": 0.0,
			"-0.014": 0.314382265039,
			"-0.013": 3.05542709279,
			"-0.012": 3.21819664043,
			"-0.011": 4.26696983272,
			"-0.01": 2.80230136833,
			"-0.009": 2.75306156542,
			"-0.008": 3.09816780536,
			"-0.007": 2.5856148312,
			"-0.006": 5.04991490254,
			"-0.005": 11.644896497,
			"-0.004": 14.793354177,
			"-0.003": 12.7288201948,
			"-0.002": 13.5558454364,
			"-0.001": 14.9606784571,
			"0.0": 14.5710569965,
			"0.001": 11.0633087767,
			"0.002": 8.60159152898,
			"0.003": 11.2698888974,
			"0.004": 12.7072543166,
			"0.005": 4.76534974945,
			"0.006": 2.13665506166,
			"0.007": 1.81896931359,
			"0.008": 2.78772923136,
			"0.009": 2.82584600768,
			"0.01": 3.29858429981,
			"0.011": 4.00129111206,
			"0.012": 6.84316970789,
			"0.013": 4.37261638341,
			"0.014": 1.68505105616,
			"0.015": 0.0937106245956,
			"0.016": 0.0,
			"0.017": 0.0,
			"0.018": 0.0,
			"0.019": 0.0,
			"0.02": 0.0,
			"0.021": 0.0,
			"0.022": 0.0,
			"0.023": 0.0,
			"0.024": 0.0,
			"0.025": 0.0
		}
	}
}
