{
	 "smiles": "OC(=O)C1=C(N=C2SC=CN12)C1CC1", 
	 "Tm": 437.15, 
	 "num_atms": 22, 
	 "gaussian": { 
		 "optdone": 1, 
		 "sigma_profile": "yes", 
		 "theory": "DFT", 
		 "functional": "B3LYP", 
		 "basiset": "6-31G**", 
		 "properties": { 
			 "R2extent": 3082.2506, 
			 "electric_dipole_moment_norm": 1.0713835261, 
			 "electric_quadrupole_moment_norm": 12.9301766024, 
			 "total_energy": -1005.88964526, 
			 "HOMO_LUMO_gap": 0.18514, 
			 "cosmo_polarized_energy": -10.76, 
			 "cosmo_cavitation_energy": 27.89, 
			 "cosmo_dispersion_energy": -21.28, 
			 "cosmo_repulsion_energy": 1.62, 
			 "cosmo_total_nonelectrostatic_energy": 8.22, 
			 "SMD_solvation_energy": 4.5 
		},
		"coords": [
			{
				"x": 1.5687408137,
				"y": 0.9621064047,
				"z": -2.573337744,
				"element": "O" 
			},
			{
				"x": 1.0530448347,
				"y": 1.4670449611,
				"z": -1.4224602625,
				"element": "C" 
			},
			{
				"x": 1.1492029123,
				"y": 2.6539944162,
				"z": -1.1398204417,
				"element": "O" 
			},
			{
				"x": 0.3986556547,
				"y": 0.4780847328,
				"z": -0.5945775986,
				"element": "C" 
			},
			{
				"x": 0.1562537297,
				"y": -0.9015570429,
				"z": -0.6820165383,
				"element": "C" 
			},
			{
				"x": -0.531941612,
				"y": -1.3530934177,
				"z": 0.4164794707,
				"element": "N" 
			},
			{
				"x": -0.7096818125,
				"y": -0.2783122911,
				"z": 1.1633081832,
				"element": "C" 
			},
			{
				"x": -1.4675340602,
				"y": 0.0612198397,
				"z": 2.6988194616,
				"element": "S" 
			},
			{
				"x": -1.018212486,
				"y": 1.7600238686,
				"z": 2.5264099318,
				"element": "C" 
			},
			{
				"x": -0.3463273876,
				"y": 2.011499659,
				"z": 1.3801069013,
				"element": "C" 
			},
			{
				"x": -0.1786845088,
				"y": 0.8595912496,
				"z": 0.6221560953,
				"element": "N" 
			},
			{
				"x": 0.5430650445,
				"y": -1.8298510135,
				"z": -1.7585288486,
				"element": "C" 
			},
			{
				"x": -0.3795727724,
				"y": -2.9903005171,
				"z": -2.1001381694,
				"element": "C" 
			},
			{
				"x": 0.9157549308,
				"y": -3.2609246368,
				"z": -1.4011802353,
				"element": "C" 
			},
			{
				"x": 1.9727670462,
				"y": 1.7195813796,
				"z": -3.0275299265,
				"element": "H" 
			},
			{
				"x": -1.2844887022,
				"y": 2.4697286153,
				"z": 3.2949464809,
				"element": "H" 
			},
			{
				"x": 0.0487898161,
				"y": 2.9455111286,
				"z": 1.0109846533,
				"element": "H" 
			},
			{
				"x": 1.0812664099,
				"y": -1.3698421789,
				"z": -2.5776223527,
				"element": "H" 
			},
			{
				"x": -1.2899160086,
				"y": -3.0704962201,
				"z": -1.515482805,
				"element": "H" 
			},
			{
				"x": -0.4765359379,
				"y": -3.2533132427,
				"z": -3.1491573723,
				"element": "H" 
			},
			{
				"x": 0.8717505935,
				"y": -3.5223906394,
				"z": -0.3491700396,
				"element": "H" 
			},
			{
				"x": 1.7298035021,
				"y": -3.7143050551,
				"z": -1.9586888435,
				"element": "H" 
			}
		],
		 "valence_orbital": [ 
			{
				"type": "occ",
				"energy": -0.30336,
				"method": "rhf"
			},
			{
				"type": "occ",
				"energy": -0.29244,
				"method": "rhf"
			},
			{
				"type": "occ",
				"energy": -0.27493,
				"method": "rhf"
			},
			{
				"type": "occ",
				"energy": -0.23241,
				"method": "rhf"
			},
			{
				"type": "occ",
				"energy": -0.22523,
				"method": "rhf"
			},
			{
				"type": "unocc",
				"energy": -0.04009,
				"method": "rhf"
			},
			{
				"type": "unocc",
				"energy": 0.00101,
				"method": "rhf"
			},
			{
				"type": "unocc",
				"energy": 0.00392,
				"method": "rhf"
			},
			{
				"type": "unocc",
				"energy": 0.03975,
				"method": "rhf"
			},
			{
				"type": "unocc",
				"energy": 0.07291,
				"method": "rhf"
			}
		],
		"cosmo_sigma_profile": { 
			"-0.025": 0.0,
			"-0.024": 0.0,
			"-0.023": 0.0,
			"-0.022": 0.0,
			"-0.021": 0.0,
			"-0.02": 0.0,
			"-0.019": 0.0278962584948,
			"-0.018": 0.660130934232,
			"-0.017": 1.04948086249,
			"-0.016": 0.790465914756,
			"-0.015": 0.831618927849,
			"-0.014": 0.485881750575,
			"-0.013": 0.550294659439,
			"-0.012": 0.816521485019,
			"-0.011": 0.904453293213,
			"-0.01": 3.07533565704,
			"-0.009": 2.63993183843,
			"-0.008": 3.70508593463,
			"-0.007": 4.55134350704,
			"-0.006": 3.71717333015,
			"-0.005": 7.31772410356,
			"-0.004": 12.459972412,
			"-0.003": 11.5114720001,
			"-0.002": 19.7852782463,
			"-0.001": 24.2780418696,
			"0.0": 22.7707762432,
			"0.001": 23.5493340247,
			"0.002": 22.1838333005,
			"0.003": 18.0611768606,
			"0.004": 11.1011070742,
			"0.005": 5.46103686156,
			"0.006": 4.9540375289,
			"0.007": 2.81354715512,
			"0.008": 2.60942192052,
			"0.009": 2.59205902599,
			"0.01": 2.49660641491,
			"0.011": 3.6528333944,
			"0.012": 2.86538989631,
			"0.013": 1.12135919739,
			"0.014": 0.705902127989,
			"0.015": 0.0514782438004,
			"0.016": 0.0,
			"0.017": 0.0,
			"0.018": 0.0,
			"0.019": 0.0,
			"0.02": 0.0,
			"0.021": 0.0,
			"0.022": 0.0,
			"0.023": 0.0,
			"0.024": 0.0,
			"0.025": 0.0
		}
	}
}
