{
	 "smiles": "CCCCCCCCCCCC", 
	 "Tm": 263.35, 
	 "num_atms": 38, 
	 "gaussian": { 
		 "optdone": 1, 
		 "sigma_profile": "yes", 
		 "theory": "DFT", 
		 "functional": "B3LYP", 
		 "basiset": "6-31G**", 
		 "properties": { 
			 "R2extent": 4455.4628, 
			 "electric_dipole_moment_norm": 0.0549728114617, 
			 "electric_quadrupole_moment_norm": 0.620271480886, 
			 "total_energy": -472.986057222, 
			 "HOMO_LUMO_gap": 0.37517, 
			 "cosmo_polarized_energy": -0.85, 
			 "cosmo_cavitation_energy": 37.21, 
			 "cosmo_dispersion_energy": -25.64, 
			 "cosmo_repulsion_energy": 2.15, 
			 "cosmo_total_nonelectrostatic_energy": 13.71, 
			 "SMD_solvation_energy": 5.17 
		},
		"coords": [
			{
				"x": -0.6681803998,
				"y": 4.6157245485,
				"z": -0.7393339687,
				"element": "C" 
			},
			{
				"x": -1.0306930729,
				"y": 3.4122235798,
				"z": -1.6174354759,
				"element": "C" 
			},
			{
				"x": -2.27276929,
				"y": 2.634700415,
				"z": -1.1466995394,
				"element": "C" 
			},
			{
				"x": -2.1688554313,
				"y": 1.9754346724,
				"z": 0.239846407,
				"element": "C" 
			},
			{
				"x": -1.0869747864,
				"y": 0.8916910149,
				"z": 0.3558672041,
				"element": "C" 
			},
			{
				"x": -1.0976503102,
				"y": 0.1880446616,
				"z": 1.720363328,
				"element": "C" 
			},
			{
				"x": 0.0259674916,
				"y": -0.8359326862,
				"z": 1.9632134822,
				"element": "C" 
			},
			{
				"x": 0.0096334724,
				"y": -2.0759863903,
				"z": 1.038827878,
				"element": "C" 
			},
			{
				"x": 0.878253919,
				"y": -1.9842881535,
				"z": -0.2307979245,
				"element": "C" 
			},
			{
				"x": 2.3887036862,
				"y": -2.0538664318,
				"z": 0.0351862917,
				"element": "C" 
			},
			{
				"x": 3.2362644202,
				"y": -1.9681306002,
				"z": -1.2408357544,
				"element": "C" 
			},
			{
				"x": 4.742612855,
				"y": -2.05204851,
				"z": -0.9742390443,
				"element": "C" 
			},
			{
				"x": 0.1822833899,
				"y": 5.1657647284,
				"z": -1.1557036009,
				"element": "H" 
			},
			{
				"x": -1.5092303466,
				"y": 5.3147345775,
				"z": -0.6606185537,
				"element": "H" 
			},
			{
				"x": -0.395489482,
				"y": 4.3132812008,
				"z": 0.2772047751,
				"element": "H" 
			},
			{
				"x": -0.1695281997,
				"y": 2.7349589794,
				"z": -1.6822611781,
				"element": "H" 
			},
			{
				"x": -1.2122007442,
				"y": 3.7610431225,
				"z": -2.6422073075,
				"element": "H" 
			},
			{
				"x": -2.5032340643,
				"y": 1.857907297,
				"z": -1.8888934139,
				"element": "H" 
			},
			{
				"x": -3.1336587107,
				"y": 3.3176037385,
				"z": -1.1466004253,
				"element": "H" 
			},
			{
				"x": -3.142636121,
				"y": 1.5279886294,
				"z": 0.4820480848,
				"element": "H" 
			},
			{
				"x": -1.9967462545,
				"y": 2.7420643456,
				"z": 1.0073942242,
				"element": "H" 
			},
			{
				"x": -0.0951426736,
				"y": 1.3327211741,
				"z": 0.1873277755,
				"element": "H" 
			},
			{
				"x": -1.2349132748,
				"y": 0.1558501875,
				"z": -0.4457451205,
				"element": "H" 
			},
			{
				"x": -2.0681214359,
				"y": -0.3111942771,
				"z": 1.8562834219,
				"element": "H" 
			},
			{
				"x": -1.0423797087,
				"y": 0.953058827,
				"z": 2.5076472063,
				"element": "H" 
			},
			{
				"x": -0.0556937474,
				"y": -1.171334464,
				"z": 3.0046213728,
				"element": "H" 
			},
			{
				"x": 0.9983192967,
				"y": -0.3298217858,
				"z": 1.8936231585,
				"element": "H" 
			},
			{
				"x": -1.0290477768,
				"y": -2.2883265834,
				"z": 0.7511738794,
				"element": "H" 
			},
			{
				"x": 0.3420278462,
				"y": -2.9535384415,
				"z": 1.6093669621,
				"element": "H" 
			},
			{
				"x": 0.650387616,
				"y": -1.0612277175,
				"z": -0.7785003677,
				"element": "H" 
			},
			{
				"x": 0.6053108414,
				"y": -2.8091480134,
				"z": -0.9034239005,
				"element": "H" 
			},
			{
				"x": 2.6888507559,
				"y": -1.2461235496,
				"z": 0.7168156959,
				"element": "H" 
			},
			{
				"x": 2.6186923822,
				"y": -2.9923245408,
				"z": 0.5605803644,
				"element": "H" 
			},
			{
				"x": 3.0087668005,
				"y": -1.0287501013,
				"z": -1.7632086539,
				"element": "H" 
			},
			{
				"x": 2.9402733582,
				"y": -2.7739772258,
				"z": -1.9264841296,
				"element": "H" 
			},
			{
				"x": 5.3190880734,
				"y": -1.9877693387,
				"z": -1.9030482818,
				"element": "H" 
			},
			{
				"x": 5.0063107163,
				"y": -2.9963918607,
				"z": -0.4842088804,
				"element": "H" 
			},
			{
				"x": 5.0752989096,
				"y": -1.2381150285,
				"z": -0.319745991,
				"element": "H" 
			}
		],
		 "valence_orbital": [ 
			{
				"type": "occ",
				"energy": -0.31236,
				"method": "rhf"
			},
			{
				"type": "occ",
				"energy": -0.30774,
				"method": "rhf"
			},
			{
				"type": "occ",
				"energy": -0.303,
				"method": "rhf"
			},
			{
				"type": "occ",
				"energy": -0.29904,
				"method": "rhf"
			},
			{
				"type": "occ",
				"energy": -0.29414,
				"method": "rhf"
			},
			{
				"type": "unocc",
				"energy": 0.08103,
				"method": "rhf"
			},
			{
				"type": "unocc",
				"energy": 0.09229,
				"method": "rhf"
			},
			{
				"type": "unocc",
				"energy": 0.10195,
				"method": "rhf"
			},
			{
				"type": "unocc",
				"energy": 0.11123,
				"method": "rhf"
			},
			{
				"type": "unocc",
				"energy": 0.11377,
				"method": "rhf"
			}
		],
		"cosmo_sigma_profile": { 
			"-0.025": 0.0,
			"-0.024": 0.0,
			"-0.023": 0.0,
			"-0.022": 0.0,
			"-0.021": 0.0,
			"-0.02": 0.0,
			"-0.019": 0.0,
			"-0.018": 0.0,
			"-0.017": 0.0,
			"-0.016": 0.0,
			"-0.015": 0.0,
			"-0.014": 0.0,
			"-0.013": 0.0,
			"-0.012": 0.0,
			"-0.011": 0.0,
			"-0.01": 0.0,
			"-0.009": 0.0,
			"-0.008": 0.0,
			"-0.007": 0.0,
			"-0.006": 0.0,
			"-0.005": 0.0,
			"-0.004": 0.0,
			"-0.003": 3.09745467685,
			"-0.002": 31.1373935441,
			"-0.001": 67.8329345859,
			"0.0": 78.6414737049,
			"0.001": 67.6233530776,
			"0.002": 34.4724209043,
			"0.003": 1.14781919144,
			"0.004": 0.0,
			"0.005": 0.0,
			"0.006": 0.0,
			"0.007": 0.0,
			"0.008": 0.0,
			"0.009": 0.0,
			"0.01": 0.0,
			"0.011": 0.0,
			"0.012": 0.0,
			"0.013": 0.0,
			"0.014": 0.0,
			"0.015": 0.0,
			"0.016": 0.0,
			"0.017": 0.0,
			"0.018": 0.0,
			"0.019": 0.0,
			"0.02": 0.0,
			"0.021": 0.0,
			"0.022": 0.0,
			"0.023": 0.0,
			"0.024": 0.0,
			"0.025": 0.0
		}
	}
}
