{
	 "smiles": "O=C1N(CC2CN(CC3=CC=CC=C3)CCO2)C(=O)C2=C1C=CC=C2", 
	 "Tm": 410.15, 
	 "num_atms": 45, 
	 "gaussian": { 
		 "optdone": 1, 
		 "sigma_profile": "yes", 
		 "theory": "DFT", 
		 "functional": "B3LYP", 
		 "basiset": "6-31G**", 
		 "properties": { 
			 "R2extent": 8968.808, 
			 "electric_dipole_moment_norm": 2.7881907736, 
			 "electric_quadrupole_moment_norm": 24.9198077414, 
			 "total_energy": -1109.36465219, 
			 "HOMO_LUMO_gap": 0.13151, 
			 "cosmo_polarized_energy": -14.95, 
			 "cosmo_cavitation_energy": 47.07, 
			 "cosmo_dispersion_energy": -31.39, 
			 "cosmo_repulsion_energy": 2.34, 
			 "cosmo_total_nonelectrostatic_energy": 18.02, 
			 "SMD_solvation_energy": 7.15 
		},
		"coords": [
			{
				"x": 3.1031135376,
				"y": 1.0220005415,
				"z": -1.5190960334,
				"element": "O" 
			},
			{
				"x": 2.3302561588,
				"y": 1.5935312854,
				"z": -0.774208293,
				"element": "C" 
			},
			{
				"x": 0.9361462945,
				"y": 1.413005061,
				"z": -0.7466981581,
				"element": "N" 
			},
			{
				"x": 0.1878699232,
				"y": 0.5826190027,
				"z": -1.6837654434,
				"element": "C" 
			},
			{
				"x": 0.5687366768,
				"y": -0.9058167386,
				"z": -1.6651094007,
				"element": "C" 
			},
			{
				"x": 0.2190614786,
				"y": -1.6405913018,
				"z": -0.3552622401,
				"element": "C" 
			},
			{
				"x": -1.1932678296,
				"y": -2.0060579184,
				"z": -0.3518028189,
				"element": "N" 
			},
			{
				"x": -1.6806556837,
				"y": -2.5176328259,
				"z": 0.928212373,
				"element": "C" 
			},
			{
				"x": -1.6260962,
				"y": -1.5254940646,
				"z": 2.0735845706,
				"element": "C" 
			},
			{
				"x": -2.0476975936,
				"y": -0.2003879419,
				"z": 1.9031428862,
				"element": "C" 
			},
			{
				"x": -2.0361681477,
				"y": 0.6910992588,
				"z": 2.9761945852,
				"element": "C" 
			},
			{
				"x": -1.616680356,
				"y": 0.2670162386,
				"z": 4.2394218684,
				"element": "C" 
			},
			{
				"x": -1.1956371325,
				"y": -1.051338893,
				"z": 4.4197233436,
				"element": "C" 
			},
			{
				"x": -1.1944851454,
				"y": -1.9373464861,
				"z": 3.340516193,
				"element": "C" 
			},
			{
				"x": -1.5176759799,
				"y": -2.9410382555,
				"z": -1.4421608079,
				"element": "C" 
			},
			{
				"x": -0.5271863543,
				"y": -2.7883137359,
				"z": -2.6058551087,
				"element": "C" 
			},
			{
				"x": -0.1528950468,
				"y": -1.4355946647,
				"z": -2.7847405604,
				"element": "O" 
			},
			{
				"x": 0.3153620452,
				"y": 2.2849926279,
				"z": 0.1699134663,
				"element": "C" 
			},
			{
				"x": -0.8832241672,
				"y": 2.3970235716,
				"z": 0.3359845795,
				"element": "O" 
			},
			{
				"x": 1.4232314829,
				"y": 3.0252929045,
				"z": 0.8414559136,
				"element": "C" 
			},
			{
				"x": 2.6299832811,
				"y": 2.6133708201,
				"z": 0.2744217982,
				"element": "C" 
			},
			{
				"x": 3.844722421,
				"y": 3.1391263404,
				"z": 0.6898974622,
				"element": "C" 
			},
			{
				"x": 3.8149463808,
				"y": 4.1031811567,
				"z": 1.7063884947,
				"element": "C" 
			},
			{
				"x": 2.603350192,
				"y": 4.5170620201,
				"z": 2.2754539087,
				"element": "C" 
			},
			{
				"x": 1.3819572724,
				"y": 3.9808295371,
				"z": 1.8464017039,
				"element": "C" 
			},
			{
				"x": 0.3446489049,
				"y": 0.9501252645,
				"z": -2.7030758723,
				"element": "H" 
			},
			{
				"x": -0.8678033082,
				"y": 0.6929282106,
				"z": -1.4308850959,
				"element": "H" 
			},
			{
				"x": 1.6473571136,
				"y": -1.0016825202,
				"z": -1.8474475315,
				"element": "H" 
			},
			{
				"x": 0.8837525866,
				"y": -2.5169572848,
				"z": -0.228250015,
				"element": "H" 
			},
			{
				"x": 0.4172456964,
				"y": -0.9788273937,
				"z": 0.4929018532,
				"element": "H" 
			},
			{
				"x": -2.7259541837,
				"y": -2.8166602985,
				"z": 0.7668019439,
				"element": "H" 
			},
			{
				"x": -1.1444141989,
				"y": -3.4409614753,
				"z": 1.2259711034,
				"element": "H" 
			},
			{
				"x": -2.3624967533,
				"y": 0.1370513618,
				"z": 0.921654818,
				"element": "H" 
			},
			{
				"x": -2.3473723787,
				"y": 1.7188121374,
				"z": 2.8161873026,
				"element": "H" 
			},
			{
				"x": -1.6120324362,
				"y": 0.9606592168,
				"z": 5.0757879727,
				"element": "H" 
			},
			{
				"x": -0.8600240935,
				"y": -1.3891779978,
				"z": 5.3964456898,
				"element": "H" 
			},
			{
				"x": -0.8561723497,
				"y": -2.9612352806,
				"z": 3.4832157343,
				"element": "H" 
			},
			{
				"x": -2.5426318914,
				"y": -2.7405587721,
				"z": -1.7787795983,
				"element": "H" 
			},
			{
				"x": -1.4849503488,
				"y": -3.9941430671,
				"z": -1.1044502248,
				"element": "H" 
			},
			{
				"x": 0.3623637633,
				"y": -3.4161059923,
				"z": -2.4409201919,
				"element": "H" 
			},
			{
				"x": -0.9862549606,
				"y": -3.1145147504,
				"z": -3.5433124695,
				"element": "H" 
			},
			{
				"x": 4.7764940001,
				"y": 2.81258164,
				"z": 0.239508776,
				"element": "H" 
			},
			{
				"x": 4.7447668071,
				"y": 4.5389511117,
				"z": 2.059663392,
				"element": "H" 
			},
			{
				"x": 2.6134255188,
				"y": 5.2669211716,
				"z": 3.0608564973,
				"element": "H" 
			},
			{
				"x": 0.437385004,
				"y": 4.2952571782,
				"z": 2.2781116333,
				"element": "H" 
			}
		],
		 "valence_orbital": [ 
			{
				"type": "occ",
				"energy": -0.26586,
				"method": "rhf"
			},
			{
				"type": "occ",
				"energy": -0.24765,
				"method": "rhf"
			},
			{
				"type": "occ",
				"energy": -0.24115,
				"method": "rhf"
			},
			{
				"type": "occ",
				"energy": -0.23717,
				"method": "rhf"
			},
			{
				"type": "occ",
				"energy": -0.2124,
				"method": "rhf"
			},
			{
				"type": "unocc",
				"energy": -0.08089,
				"method": "rhf"
			},
			{
				"type": "unocc",
				"energy": -0.04046,
				"method": "rhf"
			},
			{
				"type": "unocc",
				"energy": 0.00329,
				"method": "rhf"
			},
			{
				"type": "unocc",
				"energy": 0.00672,
				"method": "rhf"
			},
			{
				"type": "unocc",
				"energy": 0.02849,
				"method": "rhf"
			}
		],
		"cosmo_sigma_profile": { 
			"-0.025": 0.0,
			"-0.024": 0.0,
			"-0.023": 0.0,
			"-0.022": 0.0,
			"-0.021": 0.0,
			"-0.02": 0.0,
			"-0.019": 0.0,
			"-0.018": 0.0,
			"-0.017": 0.0,
			"-0.016": 0.0,
			"-0.015": 0.0,
			"-0.014": 0.0,
			"-0.013": 0.0,
			"-0.012": 0.0,
			"-0.011": 0.0,
			"-0.01": 0.0,
			"-0.009": 0.0,
			"-0.008": 1.47414094421,
			"-0.007": 7.84139067789,
			"-0.006": 13.3599130454,
			"-0.005": 24.5301680124,
			"-0.004": 35.126305818,
			"-0.003": 46.4681052844,
			"-0.002": 40.6968939514,
			"-0.001": 29.6546204177,
			"0.0": 27.9605356377,
			"0.001": 26.7443849283,
			"0.002": 25.053258389,
			"0.003": 17.9329933458,
			"0.004": 15.3782258438,
			"0.005": 13.4980337314,
			"0.006": 12.6712863148,
			"0.007": 7.43404211212,
			"0.008": 4.84469530607,
			"0.009": 5.07950244596,
			"0.01": 6.54115614766,
			"0.011": 7.30369764286,
			"0.012": 3.29571901837,
			"0.013": 0.280949868798,
			"0.014": 0.0,
			"0.015": 0.0,
			"0.016": 0.0,
			"0.017": 0.0,
			"0.018": 0.0,
			"0.019": 0.0,
			"0.02": 0.0,
			"0.021": 0.0,
			"0.022": 0.0,
			"0.023": 0.0,
			"0.024": 0.0,
			"0.025": 0.0
		}
	}
}
