{
	 "smiles": "CCN1C(C)=NC(=C1I)[N+]([O-])=O", 
	 "Tm": 484.15, 
	 "num_atms": 20, 
	 "gaussian": { 
		 "optdone": 1, 
		 "sigma_profile": "no", 
		 "theory": "DFT", 
		 "functional": "B3LYP", 
		 "basiset": "6-31G**", 
		 "properties": { 
			 "R2extent": 4604.8644, 
			 "electric_dipole_moment_norm": 8.16075551221, 
			 "electric_quadrupole_moment_norm": 33.8560978487, 
			 "total_energy": -559.442993183, 
			 "HOMO_LUMO_gap": 0.17407, 
			 "cosmo_polarized_energy": -78538.69, 
			 "cosmo_cavitation_energy": 27.41, 
			 "cosmo_dispersion_energy": -20.84, 
			 "cosmo_repulsion_energy": 1.63, 
			 "cosmo_total_nonelectrostatic_energy": 8.21, 
			 "SMD_solvation_energy": 4.81 
		},
		"coords": [
			{
				"x": 2.2277135807,
				"y": 0.2692838285,
				"z": 0.2238209692,
				"element": "C" 
			},
			{
				"x": 0.7619770438,
				"y": -0.0120112439,
				"z": -0.1124699998,
				"element": "C" 
			},
			{
				"x": 0.5640517303,
				"y": -1.3123211111,
				"z": -0.7625352941,
				"element": "N" 
			},
			{
				"x": 0.311891314,
				"y": -2.5091134799,
				"z": -0.1165931976,
				"element": "C" 
			},
			{
				"x": 0.1388136121,
				"y": -2.635635647,
				"z": 1.3618213621,
				"element": "C" 
			},
			{
				"x": 0.2305659143,
				"y": -3.5102570717,
				"z": -0.9652586101,
				"element": "N" 
			},
			{
				"x": 0.4359480868,
				"y": -2.962959483,
				"z": -2.1928985174,
				"element": "C" 
			},
			{
				"x": 0.6494430566,
				"y": -1.5978249029,
				"z": -2.112192878,
				"element": "C" 
			},
			{
				"x": 0.9984140266,
				"y": -0.146424701,
				"z": -3.5505991418,
				"element": "I" 
			},
			{
				"x": 0.4131432595,
				"y": -3.7837566528,
				"z": -3.3804644771,
				"element": "N" 
			},
			{
				"x": 0.6054511361,
				"y": -3.2093763925,
				"z": -4.4582494289,
				"element": "O" 
			},
			{
				"x": 0.207562041,
				"y": -4.9847161706,
				"z": -3.2416240119,
				"element": "O" 
			},
			{
				"x": 2.312572417,
				"y": 1.2419658819,
				"z": 0.7178951972,
				"element": "H" 
			},
			{
				"x": 2.6342730318,
				"y": -0.4923328496,
				"z": 0.895468943,
				"element": "H" 
			},
			{
				"x": 2.8395062723,
				"y": 0.2907011437,
				"z": -0.6817304331,
				"element": "H" 
			},
			{
				"x": 0.3633696072,
				"y": 0.756447703,
				"z": -0.7786065155,
				"element": "H" 
			},
			{
				"x": 0.1474823018,
				"y": -0.0089613791,
				"z": 0.7909220473,
				"element": "H" 
			},
			{
				"x": -0.0291502451,
				"y": -3.6892521182,
				"z": 1.5876349303,
				"element": "H" 
			},
			{
				"x": 1.0224658799,
				"y": -2.2980893946,
				"z": 1.9141775001,
				"element": "H" 
			},
			{
				"x": -0.7228940667,
				"y": -2.0637659591,
				"z": 1.7250815561,
				"element": "H" 
			}
		],
		 "valence_orbital": [ 
			{
				"type": "occ",
				"energy": -0.29591,
				"method": "rhf"
			},
			{
				"type": "occ",
				"energy": -0.29207,
				"method": "rhf"
			},
			{
				"type": "occ",
				"energy": -0.28625,
				"method": "rhf"
			},
			{
				"type": "occ",
				"energy": -0.26532,
				"method": "rhf"
			},
			{
				"type": "occ",
				"energy": -0.2445,
				"method": "rhf"
			},
			{
				"type": "unocc",
				"energy": -0.07043,
				"method": "rhf"
			},
			{
				"type": "unocc",
				"energy": -0.05371,
				"method": "rhf"
			},
			{
				"type": "unocc",
				"energy": -0.00279,
				"method": "rhf"
			},
			{
				"type": "unocc",
				"energy": 0.03639,
				"method": "rhf"
			},
			{
				"type": "unocc",
				"energy": 0.03959,
				"method": "rhf"
			}
		],
		"cosmo_sigma_profile": { 
			"0.0": 0.0,
			"0.0": 0.0,
			"0.0": 0.0,
			"0.0": 0.0,
			"0.0": 0.0,
			"0.0": 0.0,
			"0.0": 0.0,
			"0.0": 0.0,
			"0.0": 0.0,
			"0.0": 0.0,
			"0.0": 0.0,
			"0.0": 0.0,
			"0.0": 0.0,
			"0.0": 0.0,
			"0.0": 0.0,
			"0.0": 0.0,
			"0.0": 0.0,
			"0.0": 0.0,
			"0.0": 0.0,
			"0.0": 0.0,
			"0.0": 0.0,
			"0.0": 0.0,
			"0.0": 0.0,
			"0.0": 0.0,
			"0.0": 0.0,
			"0.0": 0.0,
			"0.0": 0.0,
			"0.0": 0.0,
			"0.0": 0.0,
			"0.0": 0.0,
			"0.0": 0.0,
			"0.0": 0.0,
			"0.0": 0.0,
			"0.0": 0.0,
			"0.0": 0.0,
			"0.0": 0.0,
			"0.0": 0.0,
			"0.0": 0.0,
			"0.0": 0.0,
			"0.0": 0.0,
			"0.0": 0.0,
			"0.0": 0.0,
			"0.0": 0.0,
			"0.0": 0.0,
			"0.0": 0.0,
			"0.0": 0.0,
			"0.0": 0.0,
			"0.0": 0.0,
			"0.0": 0.0,
			"0.0": 0.0,
			"0.0": 0.0
		}
	}
}
