{
	 "smiles": "OC(=O)C1=C(NC(=O)C2=CC=CO2)SC2=C1CCC2", 
	 "Tm": 516.15, 
	 "num_atms": 30, 
	 "gaussian": { 
		 "optdone": 1, 
		 "sigma_profile": "yes", 
		 "theory": "DFT", 
		 "functional": "B3LYP", 
		 "basiset": "6-31G**", 
		 "properties": { 
			 "R2extent": 5401.8454, 
			 "electric_dipole_moment_norm": 4.70131039711, 
			 "electric_quadrupole_moment_norm": 18.3268079092, 
			 "total_energy": -1255.82836062, 
			 "HOMO_LUMO_gap": 0.17156, 
			 "cosmo_polarized_energy": -18.01, 
			 "cosmo_cavitation_energy": 36.25, 
			 "cosmo_dispersion_energy": -25.4, 
			 "cosmo_repulsion_energy": 1.94, 
			 "cosmo_total_nonelectrostatic_energy": 12.79, 
			 "SMD_solvation_energy": 8.09 
		},
		"coords": [
			{
				"x": 2.7913532845,
				"y": 0.096474547,
				"z": -1.9622115938,
				"element": "O" 
			},
			{
				"x": 2.2201407436,
				"y": -0.9454621281,
				"z": -1.327602754,
				"element": "C" 
			},
			{
				"x": 2.2774537244,
				"y": -2.065447247,
				"z": -1.7891370251,
				"element": "O" 
			},
			{
				"x": 1.5211339284,
				"y": -0.6594307613,
				"z": -0.0378970746,
				"element": "C" 
			},
			{
				"x": 1.4029526659,
				"y": 0.570532876,
				"z": 0.5794131969,
				"element": "C" 
			},
			{
				"x": 1.9598013743,
				"y": 1.802624925,
				"z": 0.1393643666,
				"element": "N" 
			},
			{
				"x": 1.2079453932,
				"y": 2.9595174123,
				"z": -0.1905734112,
				"element": "C" 
			},
			{
				"x": 1.6553174079,
				"y": 4.0648790041,
				"z": 0.0705642879,
				"element": "O" 
			},
			{
				"x": -0.0572345814,
				"y": 2.7979294411,
				"z": -0.9087302894,
				"element": "C" 
			},
			{
				"x": -0.9769069167,
				"y": 3.7546511686,
				"z": -1.2550519444,
				"element": "C" 
			},
			{
				"x": -2.0008034565,
				"y": 3.0838010178,
				"z": -1.9817381507,
				"element": "C" 
			},
			{
				"x": -1.6290633818,
				"y": 1.7693386304,
				"z": -2.031835258,
				"element": "C" 
			},
			{
				"x": -0.4538650856,
				"y": 1.5760513714,
				"z": -1.3858763589,
				"element": "O" 
			},
			{
				"x": 0.4851915343,
				"y": 0.4741038538,
				"z": 2.0773556027,
				"element": "S" 
			},
			{
				"x": 0.2530190773,
				"y": -1.2273295677,
				"z": 1.8458150822,
				"element": "C" 
			},
			{
				"x": 0.8502694645,
				"y": -1.682190386,
				"z": 0.7060102829,
				"element": "C" 
			},
			{
				"x": 0.6727871075,
				"y": -3.1723718559,
				"z": 0.5630703649,
				"element": "C" 
			},
			{
				"x": -0.4117431974,
				"y": -3.4886825611,
				"z": 1.6381371941,
				"element": "C" 
			},
			{
				"x": -0.4053234892,
				"y": -2.3067899979,
				"z": 2.6590945781,
				"element": "C" 
			},
			{
				"x": 2.6299746133,
				"y": 0.915451655,
				"z": -1.4528059099,
				"element": "H" 
			},
			{
				"x": 2.786024552,
				"y": 2.1053551658,
				"z": 0.6530615267,
				"element": "H" 
			},
			{
				"x": -0.9067518796,
				"y": 4.8042036955,
				"z": -1.0118712879,
				"element": "H" 
			},
			{
				"x": -2.8913567376,
				"y": 3.51605746,
				"z": -2.413786975,
				"element": "H" 
			},
			{
				"x": -2.0715793643,
				"y": 0.889528999,
				"z": -2.4733538488,
				"element": "H" 
			},
			{
				"x": 1.6180585993,
				"y": -3.6911527142,
				"z": 0.7663764358,
				"element": "H" 
			},
			{
				"x": 0.3732014869,
				"y": -3.4691990781,
				"z": -0.444720069,
				"element": "H" 
			},
			{
				"x": -1.3933603988,
				"y": -3.5323491686,
				"z": 1.1556980289,
				"element": "H" 
			},
			{
				"x": -0.2472814869,
				"y": -4.4522991199,
				"z": 2.1273803428,
				"element": "H" 
			},
			{
				"x": -1.4123441091,
				"y": -2.0488599111,
				"z": 3.0037628157,
				"element": "H" 
			},
			{
				"x": 0.1879891279,
				"y": -2.5421367257,
				"z": 3.5530878445,
				"element": "H" 
			}
		],
		 "valence_orbital": [ 
			{
				"type": "occ",
				"energy": -0.28275,
				"method": "rhf"
			},
			{
				"type": "occ",
				"energy": -0.26526,
				"method": "rhf"
			},
			{
				"type": "occ",
				"energy": -0.26383,
				"method": "rhf"
			},
			{
				"type": "occ",
				"energy": -0.25452,
				"method": "rhf"
			},
			{
				"type": "occ",
				"energy": -0.23396,
				"method": "rhf"
			},
			{
				"type": "unocc",
				"energy": -0.0624,
				"method": "rhf"
			},
			{
				"type": "unocc",
				"energy": -0.05054,
				"method": "rhf"
			},
			{
				"type": "unocc",
				"energy": 0.00784,
				"method": "rhf"
			},
			{
				"type": "unocc",
				"energy": 0.01304,
				"method": "rhf"
			},
			{
				"type": "unocc",
				"energy": 0.0285,
				"method": "rhf"
			}
		],
		"cosmo_sigma_profile": { 
			"-0.025": 0.0,
			"-0.024": 0.0,
			"-0.023": 0.0,
			"-0.022": 0.0,
			"-0.021": 0.0,
			"-0.02": 0.0,
			"-0.019": 0.0,
			"-0.018": 0.0,
			"-0.017": 0.0,
			"-0.016": 0.128742660553,
			"-0.015": 1.12606369649,
			"-0.014": 1.00828079104,
			"-0.013": 1.1368552845,
			"-0.012": 1.16243605974,
			"-0.011": 1.94831439676,
			"-0.01": 4.29513509394,
			"-0.009": 5.4704868701,
			"-0.008": 7.27197093382,
			"-0.007": 5.7139885351,
			"-0.006": 7.88875716913,
			"-0.005": 11.2307452535,
			"-0.004": 19.5557621247,
			"-0.003": 24.2451534625,
			"-0.002": 27.1660545123,
			"-0.001": 24.2367951046,
			"0.0": 26.7211138911,
			"0.001": 26.4702674358,
			"0.002": 23.4305495846,
			"0.003": 16.7702486037,
			"0.004": 6.13604309282,
			"0.005": 4.97285520591,
			"0.006": 3.88976070764,
			"0.007": 3.22183171245,
			"0.008": 4.53058593788,
			"0.009": 5.0514692117,
			"0.01": 5.8510817853,
			"0.011": 8.89787099344,
			"0.012": 9.17523665793,
			"0.013": 2.74218019218,
			"0.014": 0.390731578675,
			"0.015": 0.0,
			"0.016": 0.0,
			"0.017": 0.0,
			"0.018": 0.0,
			"0.019": 0.0,
			"0.02": 0.0,
			"0.021": 0.0,
			"0.022": 0.0,
			"0.023": 0.0,
			"0.024": 0.0,
			"0.025": 0.0
		}
	}
}
