{
	 "smiles": "CCCCCCCCC1=CC=CC=C1", 
	 "Tm": 237.15, 
	 "num_atms": 36, 
	 "gaussian": { 
		 "optdone": 1, 
		 "sigma_profile": "yes", 
		 "theory": "DFT", 
		 "functional": "B3LYP", 
		 "basiset": "6-31G**", 
		 "properties": { 
			 "R2extent": 4841.3352, 
			 "electric_dipole_moment_norm": 0.241740232481, 
			 "electric_quadrupole_moment_norm": 4.824068195, 
			 "total_energy": -546.774238468, 
			 "HOMO_LUMO_gap": 0.23737, 
			 "cosmo_polarized_energy": -3.34, 
			 "cosmo_cavitation_energy": 36.38, 
			 "cosmo_dispersion_energy": -24.81, 
			 "cosmo_repulsion_energy": 1.99, 
			 "cosmo_total_nonelectrostatic_energy": 13.56, 
			 "SMD_solvation_energy": 5.2 
		},
		"coords": [
			{
				"x": 0.5600937213,
				"y": -1.2511609119,
				"z": 3.615288427,
				"element": "C" 
			},
			{
				"x": 0.8635444145,
				"y": -1.2205766544,
				"z": 2.1123466211,
				"element": "C" 
			},
			{
				"x": 0.2854900217,
				"y": -0.0052069195,
				"z": 1.3671746545,
				"element": "C" 
			},
			{
				"x": -1.2487233836,
				"y": 0.0497132505,
				"z": 1.3285213783,
				"element": "C" 
			},
			{
				"x": -1.8192337328,
				"y": 1.2469450661,
				"z": 0.5473602707,
				"element": "C" 
			},
			{
				"x": -1.602359795,
				"y": 1.2622603069,
				"z": -0.9789054484,
				"element": "C" 
			},
			{
				"x": -2.3344217534,
				"y": 0.1476022577,
				"z": -1.7611553726,
				"element": "C" 
			},
			{
				"x": -1.4970632711,
				"y": -1.1102821518,
				"z": -2.0934422818,
				"element": "C" 
			},
			{
				"x": -0.3705723279,
				"y": -0.8644558547,
				"z": -3.0789610751,
				"element": "C" 
			},
			{
				"x": 0.9721953239,
				"y": -0.9735282909,
				"z": -2.6949633394,
				"element": "C" 
			},
			{
				"x": 2.0057204561,
				"y": -0.74208177,
				"z": -3.6063839079,
				"element": "C" 
			},
			{
				"x": 1.7115384003,
				"y": -0.3983359038,
				"z": -4.925471849,
				"element": "C" 
			},
			{
				"x": 0.3770236698,
				"y": -0.2917147539,
				"z": -5.3259260932,
				"element": "C" 
			},
			{
				"x": -0.6497405525,
				"y": -0.5234587918,
				"z": -4.4117255801,
				"element": "C" 
			},
			{
				"x": 0.9254297544,
				"y": -0.3429220164,
				"z": 4.1090232849,
				"element": "H" 
			},
			{
				"x": -0.5135500991,
				"y": -1.3267917387,
				"z": 3.8152751401,
				"element": "H" 
			},
			{
				"x": 1.0434881985,
				"y": -2.1075114169,
				"z": 4.0971424013,
				"element": "H" 
			},
			{
				"x": 0.4876025197,
				"y": -2.1422964629,
				"z": 1.6463186781,
				"element": "H" 
			},
			{
				"x": 1.9519868144,
				"y": -1.2333929873,
				"z": 1.9706968564,
				"element": "H" 
			},
			{
				"x": 0.6642577902,
				"y": 0.9169152389,
				"z": 1.8319066931,
				"element": "H" 
			},
			{
				"x": 0.6772148703,
				"y": -0.0059606737,
				"z": 0.3423786527,
				"element": "H" 
			},
			{
				"x": -1.6397108936,
				"y": -0.8902218071,
				"z": 0.9149483606,
				"element": "H" 
			},
			{
				"x": -1.633108801,
				"y": 0.1024880173,
				"z": 2.3548332057,
				"element": "H" 
			},
			{
				"x": -2.8999194606,
				"y": 1.3046522667,
				"z": 0.7373860116,
				"element": "H" 
			},
			{
				"x": -1.3927107156,
				"y": 2.1685957097,
				"z": 0.967534397,
				"element": "H" 
			},
			{
				"x": -0.5320955184,
				"y": 1.2397860795,
				"z": -1.2175910045,
				"element": "H" 
			},
			{
				"x": -1.9590341486,
				"y": 2.2337226262,
				"z": -1.3424559991,
				"element": "H" 
			},
			{
				"x": -2.7075225628,
				"y": 0.5585590221,
				"z": -2.7069734652,
				"element": "H" 
			},
			{
				"x": -3.2261352559,
				"y": -0.1647408556,
				"z": -1.2011002089,
				"element": "H" 
			},
			{
				"x": -2.1740949048,
				"y": -1.8681076879,
				"z": -2.5098060717,
				"element": "H" 
			},
			{
				"x": -1.0846747077,
				"y": -1.5408103475,
				"z": -1.1748579877,
				"element": "H" 
			},
			{
				"x": 1.2115991965,
				"y": -1.2527728871,
				"z": -1.6718172026,
				"element": "H" 
			},
			{
				"x": 3.0393734948,
				"y": -0.833308639,
				"z": -3.2839453498,
				"element": "H" 
			},
			{
				"x": 2.5124322751,
				"y": -0.219152571,
				"z": -5.6371176309,
				"element": "H" 
			},
			{
				"x": 0.1365430098,
				"y": -0.0320678652,
				"z": -6.3533576429,
				"element": "H" 
			},
			{
				"x": -1.6844620468,
				"y": -0.4444798825,
				"z": -4.7376775226,
				"element": "H" 
			}
		],
		 "valence_orbital": [ 
			{
				"type": "occ",
				"energy": -0.30568,
				"method": "rhf"
			},
			{
				"type": "occ",
				"energy": -0.30347,
				"method": "rhf"
			},
			{
				"type": "occ",
				"energy": -0.29998,
				"method": "rhf"
			},
			{
				"type": "occ",
				"energy": -0.24453,
				"method": "rhf"
			},
			{
				"type": "occ",
				"energy": -0.23594,
				"method": "rhf"
			},
			{
				"type": "unocc",
				"energy": 0.00143,
				"method": "rhf"
			},
			{
				"type": "unocc",
				"energy": 0.00523,
				"method": "rhf"
			},
			{
				"type": "unocc",
				"energy": 0.07244,
				"method": "rhf"
			},
			{
				"type": "unocc",
				"energy": 0.09711,
				"method": "rhf"
			},
			{
				"type": "unocc",
				"energy": 0.10085,
				"method": "rhf"
			}
		],
		"cosmo_sigma_profile": { 
			"-0.025": 0.0,
			"-0.024": 0.0,
			"-0.023": 0.0,
			"-0.022": 0.0,
			"-0.021": 0.0,
			"-0.02": 0.0,
			"-0.019": 0.0,
			"-0.018": 0.0,
			"-0.017": 0.0,
			"-0.016": 0.0,
			"-0.015": 0.0,
			"-0.014": 0.0,
			"-0.013": 0.0,
			"-0.012": 0.0,
			"-0.011": 0.0,
			"-0.01": 0.0,
			"-0.009": 0.0,
			"-0.008": 0.0,
			"-0.007": 0.0,
			"-0.006": 0.926897288077,
			"-0.005": 6.88034313168,
			"-0.004": 9.63322162446,
			"-0.003": 22.7936169393,
			"-0.002": 37.941997536,
			"-0.001": 48.7480627495,
			"0.0": 50.3964980883,
			"0.001": 45.262765322,
			"0.002": 23.3546946152,
			"0.003": 8.28649361429,
			"0.004": 7.85411012821,
			"0.005": 7.70262030991,
			"0.006": 8.07955664225,
			"0.007": 4.76773578645,
			"0.008": 0.0189109264445,
			"0.009": 0.0,
			"0.01": 0.0,
			"0.011": 0.0,
			"0.012": 0.0,
			"0.013": 0.0,
			"0.014": 0.0,
			"0.015": 0.0,
			"0.016": 0.0,
			"0.017": 0.0,
			"0.018": 0.0,
			"0.019": 0.0,
			"0.02": 0.0,
			"0.021": 0.0,
			"0.022": 0.0,
			"0.023": 0.0,
			"0.024": 0.0,
			"0.025": 0.0
		}
	}
}
