{
	 "smiles": "CC(C)(C)OC(=O)N1CCN(CC1)C1=NC=CC(=C1)C#N", 
	 "Tm": 401.15, 
	 "num_atms": 41, 
	 "gaussian": { 
		 "optdone": 1, 
		 "sigma_profile": "yes", 
		 "theory": "DFT", 
		 "functional": "B3LYP", 
		 "basiset": "6-31G**", 
		 "properties": { 
			 "R2extent": 10035.5746, 
			 "electric_dipole_moment_norm": 4.65220920746, 
			 "electric_quadrupole_moment_norm": 17.8556867205, 
			 "total_energy": -953.119233344, 
			 "HOMO_LUMO_gap": 0.15667, 
			 "cosmo_polarized_energy": -14.94, 
			 "cosmo_cavitation_energy": 43.56, 
			 "cosmo_dispersion_energy": -30.14, 
			 "cosmo_repulsion_energy": 2.31, 
			 "cosmo_total_nonelectrostatic_energy": 15.73, 
			 "SMD_solvation_energy": 7.41 
		},
		"coords": [
			{
				"x": -4.5102694733,
				"y": 3.1681570721,
				"z": 1.7335385735,
				"element": "C" 
			},
			{
				"x": -4.2243739078,
				"y": 2.0114283452,
				"z": 0.7702389999,
				"element": "C" 
			},
			{
				"x": -5.3032261063,
				"y": 0.9310717367,
				"z": 0.8823242772,
				"element": "C" 
			},
			{
				"x": -4.0768227119,
				"y": 2.4844216162,
				"z": -0.6796888505,
				"element": "C" 
			},
			{
				"x": -3.0096636472,
				"y": 1.2930929437,
				"z": 1.1918401419,
				"element": "O" 
			},
			{
				"x": -1.8101205154,
				"y": 1.919862595,
				"z": 1.2340388497,
				"element": "C" 
			},
			{
				"x": -1.5974764512,
				"y": 3.0881451306,
				"z": 0.9383451816,
				"element": "O" 
			},
			{
				"x": -0.8418571491,
				"y": 1.049051788,
				"z": 1.6655524836,
				"element": "N" 
			},
			{
				"x": 0.5385156865,
				"y": 1.5071228047,
				"z": 1.7440969321,
				"element": "C" 
			},
			{
				"x": 1.4765351389,
				"y": 0.5287378472,
				"z": 1.0358346361,
				"element": "C" 
			},
			{
				"x": 1.2563199867,
				"y": -0.8339013879,
				"z": 1.5229273788,
				"element": "N" 
			},
			{
				"x": 0.1572469836,
				"y": -1.043865083,
				"z": 2.463878296,
				"element": "C" 
			},
			{
				"x": -1.1195303803,
				"y": -0.3590615688,
				"z": 1.9747949321,
				"element": "C" 
			},
			{
				"x": 2.0379786075,
				"y": -1.8749043623,
				"z": 1.0857537673,
				"element": "C" 
			},
			{
				"x": 1.7870435866,
				"y": -3.0979742864,
				"z": 1.5973957688,
				"element": "N" 
			},
			{
				"x": 2.5295931253,
				"y": -4.1298776254,
				"z": 1.193110597,
				"element": "C" 
			},
			{
				"x": 3.5672368289,
				"y": -4.04131546,
				"z": 0.2710238056,
				"element": "C" 
			},
			{
				"x": 3.8292651495,
				"y": -2.7687781137,
				"z": -0.2638057081,
				"element": "C" 
			},
			{
				"x": 3.0683959567,
				"y": -1.6700503458,
				"z": 0.1337742576,
				"element": "C" 
			},
			{
				"x": 4.8810998032,
				"y": -2.5907799764,
				"z": -1.2264566343,
				"element": "C" 
			},
			{
				"x": 5.7330436945,
				"y": -2.4493296468,
				"z": -2.0049163269,
				"element": "N" 
			},
			{
				"x": -5.4724858602,
				"y": 3.6257521733,
				"z": 1.4817145876,
				"element": "H" 
			},
			{
				"x": -4.5692608884,
				"y": 2.7997099199,
				"z": 2.7627166291,
				"element": "H" 
			},
			{
				"x": -3.7310906649,
				"y": 3.9281146792,
				"z": 1.673133355,
				"element": "H" 
			},
			{
				"x": -5.0730231979,
				"y": 0.0851810599,
				"z": 0.2280059806,
				"element": "H" 
			},
			{
				"x": -6.2752138393,
				"y": 1.3397539415,
				"z": 0.5907700775,
				"element": "H" 
			},
			{
				"x": -5.3767593268,
				"y": 0.56282284,
				"z": 1.9098057335,
				"element": "H" 
			},
			{
				"x": -3.2936019778,
				"y": 3.2375999759,
				"z": -0.7666485553,
				"element": "H" 
			},
			{
				"x": -5.0229967128,
				"y": 2.9151329716,
				"z": -1.0231084206,
				"element": "H" 
			},
			{
				"x": -3.8326844923,
				"y": 1.6396656435,
				"z": -1.3317608058,
				"element": "H" 
			},
			{
				"x": 0.5891065152,
				"y": 2.4861680454,
				"z": 1.2675843367,
				"element": "H" 
			},
			{
				"x": 0.8479749771,
				"y": 1.6325231096,
				"z": 2.7906616448,
				"element": "H" 
			},
			{
				"x": 1.3016781187,
				"y": 0.578289199,
				"z": -0.0487920947,
				"element": "H" 
			},
			{
				"x": 2.5152041129,
				"y": 0.8396428449,
				"z": 1.2172165758,
				"element": "H" 
			},
			{
				"x": 0.4296077638,
				"y": -0.6719473353,
				"z": 3.4616239742,
				"element": "H" 
			},
			{
				"x": -0.0059142342,
				"y": -2.1167027918,
				"z": 2.5528769686,
				"element": "H" 
			},
			{
				"x": -1.498268745,
				"y": -0.8721825463,
				"z": 1.0829102701,
				"element": "H" 
			},
			{
				"x": -1.8929288334,
				"y": -0.4345888667,
				"z": 2.7472250012,
				"element": "H" 
			},
			{
				"x": 2.2801498032,
				"y": -5.0917359644,
				"z": 1.638005218,
				"element": "H" 
			},
			{
				"x": 4.1460093593,
				"y": -4.9082681647,
				"z": -0.0218574687,
				"element": "H" 
			},
			{
				"x": 3.2719639177,
				"y": -0.6961847574,
				"z": -0.2896843665,
				"element": "H" 
			}
		],
		 "valence_orbital": [ 
			{
				"type": "occ",
				"energy": -0.28761,
				"method": "rhf"
			},
			{
				"type": "occ",
				"energy": -0.27369,
				"method": "rhf"
			},
			{
				"type": "occ",
				"energy": -0.2653,
				"method": "rhf"
			},
			{
				"type": "occ",
				"energy": -0.24399,
				"method": "rhf"
			},
			{
				"type": "occ",
				"energy": -0.21857,
				"method": "rhf"
			},
			{
				"type": "unocc",
				"energy": -0.0619,
				"method": "rhf"
			},
			{
				"type": "unocc",
				"energy": -0.01063,
				"method": "rhf"
			},
			{
				"type": "unocc",
				"energy": 0.03297,
				"method": "rhf"
			},
			{
				"type": "unocc",
				"energy": 0.04757,
				"method": "rhf"
			},
			{
				"type": "unocc",
				"energy": 0.07034,
				"method": "rhf"
			}
		],
		"cosmo_sigma_profile": { 
			"-0.025": 0.0,
			"-0.024": 0.0,
			"-0.023": 0.0,
			"-0.022": 0.0,
			"-0.021": 0.0,
			"-0.02": 0.0,
			"-0.019": 0.0,
			"-0.018": 0.0,
			"-0.017": 0.0,
			"-0.016": 0.0,
			"-0.015": 0.0,
			"-0.014": 0.0,
			"-0.013": 0.0,
			"-0.012": 0.0,
			"-0.011": 0.0,
			"-0.01": 0.0,
			"-0.009": 0.122177985518,
			"-0.008": 2.9869086748,
			"-0.007": 6.53201843276,
			"-0.006": 11.1470711409,
			"-0.005": 25.5865920151,
			"-0.004": 34.9211613627,
			"-0.003": 33.2668659773,
			"-0.002": 30.2075510024,
			"-0.001": 31.7847498048,
			"0.0": 38.0874112126,
			"0.001": 38.1094728338,
			"0.002": 18.46051912,
			"0.003": 9.74994968828,
			"0.004": 8.00565061264,
			"0.005": 8.94163315669,
			"0.006": 7.5315132863,
			"0.007": 7.11750948232,
			"0.008": 5.55470286639,
			"0.009": 6.17196950646,
			"0.01": 6.26002433489,
			"0.011": 4.59123888424,
			"0.012": 3.70707657626,
			"0.013": 3.94058324685,
			"0.014": 1.01848515401,
			"0.015": 0.0,
			"0.016": 0.0,
			"0.017": 0.0,
			"0.018": 0.0,
			"0.019": 0.0,
			"0.02": 0.0,
			"0.021": 0.0,
			"0.022": 0.0,
			"0.023": 0.0,
			"0.024": 0.0,
			"0.025": 0.0
		}
	}
}
