{
	 "smiles": "OC(=O)C1CCCCC1C1=NC2=C(N1)C=CC(Cl)=C2", 
	 "Tm": 473.15, 
	 "num_atms": 34, 
	 "gaussian": { 
		 "optdone": 1, 
		 "sigma_profile": "yes", 
		 "theory": "DFT", 
		 "functional": "B3LYP", 
		 "basiset": "6-31G**", 
		 "properties": { 
			 "R2extent": 7456.9924, 
			 "electric_dipole_moment_norm": 5.7637605554, 
			 "electric_quadrupole_moment_norm": 16.1452897069, 
			 "total_energy": -1262.72813779, 
			 "HOMO_LUMO_gap": 0.19845, 
			 "cosmo_polarized_energy": -13.86, 
			 "cosmo_cavitation_energy": 37.15, 
			 "cosmo_dispersion_energy": -27.37, 
			 "cosmo_repulsion_energy": 2.11, 
			 "cosmo_total_nonelectrostatic_energy": 11.89, 
			 "SMD_solvation_energy": 4.56 
		},
		"coords": [
			{
				"x": 3.1511802944,
				"y": 1.4761305529,
				"z": -2.3427827445,
				"element": "O" 
			},
			{
				"x": 1.8421518573,
				"y": 1.2013521267,
				"z": -2.1724282122,
				"element": "C" 
			},
			{
				"x": 1.1648344366,
				"y": 0.7737801605,
				"z": -3.092358439,
				"element": "O" 
			},
			{
				"x": 1.3605746595,
				"y": 1.5639439365,
				"z": -0.7792666434,
				"element": "C" 
			},
			{
				"x": 2.2858314909,
				"y": 1.0811378,
				"z": 0.3589129281,
				"element": "C" 
			},
			{
				"x": 1.8747855717,
				"y": 1.7494179778,
				"z": 1.6805475469,
				"element": "C" 
			},
			{
				"x": 0.3939979643,
				"y": 1.5106494561,
				"z": 2.0105009264,
				"element": "C" 
			},
			{
				"x": -0.5332998605,
				"y": 1.8791716107,
				"z": 0.8393574621,
				"element": "C" 
			},
			{
				"x": -0.129960039,
				"y": 1.2148514761,
				"z": -0.4988342632,
				"element": "C" 
			},
			{
				"x": -0.4515184627,
				"y": -0.2646141612,
				"z": -0.5072743838,
				"element": "C" 
			},
			{
				"x": -0.8220456086,
				"y": -0.9792024451,
				"z": 0.5359415199,
				"element": "N" 
			},
			{
				"x": -1.0673315069,
				"y": -2.2488880894,
				"z": 0.0396752799,
				"element": "C" 
			},
			{
				"x": -0.8338744107,
				"y": -2.2831491629,
				"z": -1.3570895076,
				"element": "C" 
			},
			{
				"x": -0.4494328919,
				"y": -0.9968533828,
				"z": -1.6749425996,
				"element": "N" 
			},
			{
				"x": -1.0026934714,
				"y": -3.4454708816,
				"z": -2.1117640678,
				"element": "C" 
			},
			{
				"x": -1.4163797599,
				"y": -4.5898190074,
				"z": -1.4354770564,
				"element": "C" 
			},
			{
				"x": -1.6494407591,
				"y": -4.5539841105,
				"z": -0.0473384965,
				"element": "C" 
			},
			{
				"x": -2.1726721942,
				"y": -6.0392814226,
				"z": 0.7496126385,
				"element": "Cl" 
			},
			{
				"x": -1.4846861672,
				"y": -3.4040348475,
				"z": 0.7135171492,
				"element": "C" 
			},
			{
				"x": 3.3604747639,
				"y": 1.2552223155,
				"z": -3.2663840115,
				"element": "H" 
			},
			{
				"x": 1.4179376865,
				"y": 2.6648212806,
				"z": -0.7785740292,
				"element": "H" 
			},
			{
				"x": 3.325176504,
				"y": 1.3173850129,
				"z": 0.1161080113,
				"element": "H" 
			},
			{
				"x": 2.2113817242,
				"y": -0.0097152059,
				"z": 0.4495001038,
				"element": "H" 
			},
			{
				"x": 2.5075437626,
				"y": 1.3778499574,
				"z": 2.4946770901,
				"element": "H" 
			},
			{
				"x": 2.0705602343,
				"y": 2.8290324294,
				"z": 1.6023211248,
				"element": "H" 
			},
			{
				"x": 0.235573637,
				"y": 0.4572913885,
				"z": 2.256836297,
				"element": "H" 
			},
			{
				"x": 0.1102696444,
				"y": 2.0963379705,
				"z": 2.8930634851,
				"element": "H" 
			},
			{
				"x": -1.5632994839,
				"y": 1.6030391402,
				"z": 1.081269828,
				"element": "H" 
			},
			{
				"x": -0.5174115015,
				"y": 2.9668383541,
				"z": 0.6849256852,
				"element": "H" 
			},
			{
				"x": -0.72458788,
				"y": 1.6661052091,
				"z": -1.3036800032,
				"element": "H" 
			},
			{
				"x": -0.1326316155,
				"y": -0.6229588934,
				"z": -2.5617455136,
				"element": "H" 
			},
			{
				"x": -0.8238985651,
				"y": -3.4688822773,
				"z": -3.1821505576,
				"element": "H" 
			},
			{
				"x": -1.5635879762,
				"y": -5.5192011023,
				"z": -1.9736035108,
				"element": "H" 
			},
			{
				"x": -1.6688220769,
				"y": -3.3953031655,
				"z": 1.7812269634,
				"element": "H" 
			}
		],
		 "valence_orbital": [ 
			{
				"type": "occ",
				"energy": -0.29983,
				"method": "rhf"
			},
			{
				"type": "occ",
				"energy": -0.29582,
				"method": "rhf"
			},
			{
				"type": "occ",
				"energy": -0.26867,
				"method": "rhf"
			},
			{
				"type": "occ",
				"energy": -0.22599,
				"method": "rhf"
			},
			{
				"type": "occ",
				"energy": -0.21871,
				"method": "rhf"
			},
			{
				"type": "unocc",
				"energy": -0.02026,
				"method": "rhf"
			},
			{
				"type": "unocc",
				"energy": -0.01775,
				"method": "rhf"
			},
			{
				"type": "unocc",
				"energy": 0.01797,
				"method": "rhf"
			},
			{
				"type": "unocc",
				"energy": 0.04068,
				"method": "rhf"
			},
			{
				"type": "unocc",
				"energy": 0.04744,
				"method": "rhf"
			}
		],
		"cosmo_sigma_profile": { 
			"-0.025": 0.0,
			"-0.024": 0.0,
			"-0.023": 0.0,
			"-0.022": 0.0,
			"-0.021": 0.0,
			"-0.02": 0.0,
			"-0.019": 0.174024921307,
			"-0.018": 0.845553563696,
			"-0.017": 1.04368371905,
			"-0.016": 0.863812282587,
			"-0.015": 0.714850753306,
			"-0.014": 0.457551953155,
			"-0.013": 0.197878065903,
			"-0.012": 1.0574771054,
			"-0.011": 2.30592612469,
			"-0.01": 1.45492048363,
			"-0.009": 1.19919385684,
			"-0.008": 2.00046457116,
			"-0.007": 7.86274405018,
			"-0.006": 10.3881832147,
			"-0.005": 13.9230360422,
			"-0.004": 15.5427989108,
			"-0.003": 19.6791819836,
			"-0.002": 26.1864758641,
			"-0.001": 27.7495791584,
			"0.0": 28.9085688921,
			"0.001": 22.9305626611,
			"0.002": 19.7478607304,
			"0.003": 22.0135063208,
			"0.004": 24.5098843463,
			"0.005": 16.9790776717,
			"0.006": 7.40271566762,
			"0.007": 3.94332031065,
			"0.008": 3.70988553694,
			"0.009": 3.5357725632,
			"0.01": 3.12500942378,
			"0.011": 2.7327063727,
			"0.012": 0.877511820776,
			"0.013": 0.697645482982,
			"0.014": 0.478459276105,
			"0.015": 0.282726880129,
			"0.016": 0.0,
			"0.017": 0.0,
			"0.018": 0.0,
			"0.019": 0.0,
			"0.02": 0.0,
			"0.021": 0.0,
			"0.022": 0.0,
			"0.023": 0.0,
			"0.024": 0.0,
			"0.025": 0.0
		}
	}
}
