{
	 "smiles": "CCOC(=O)C1=C(C)NN=C1C", 
	 "Tm": 391.15, 
	 "num_atms": 24, 
	 "gaussian": { 
		 "optdone": 1, 
		 "sigma_profile": "yes", 
		 "theory": "DFT", 
		 "functional": "B3LYP", 
		 "basiset": "6-31G**", 
		 "properties": { 
			 "R2extent": 3000.712, 
			 "electric_dipole_moment_norm": 0.692677421315, 
			 "electric_quadrupole_moment_norm": 18.8356935497, 
			 "total_energy": -572.051343672, 
			 "HOMO_LUMO_gap": 0.23011, 
			 "cosmo_polarized_energy": -12.39, 
			 "cosmo_cavitation_energy": 27.84, 
			 "cosmo_dispersion_energy": -19.86, 
			 "cosmo_repulsion_energy": 1.61, 
			 "cosmo_total_nonelectrostatic_energy": 9.59, 
			 "SMD_solvation_energy": 5.01 
		},
		"coords": [
			{
				"x": -0.5291947892,
				"y": -1.0441098802,
				"z": 3.4420312085,
				"element": "C" 
			},
			{
				"x": -0.2989744211,
				"y": -2.0481942752,
				"z": 2.3281772836,
				"element": "C" 
			},
			{
				"x": -0.2069378645,
				"y": -1.3105332337,
				"z": 1.0904349835,
				"element": "O" 
			},
			{
				"x": 0.0029584493,
				"y": -2.0574085455,
				"z": -0.0229698309,
				"element": "C" 
			},
			{
				"x": 0.1081968142,
				"y": -3.2738146561,
				"z": 0.0071758379,
				"element": "O" 
			},
			{
				"x": 0.0848310373,
				"y": -1.2463235391,
				"z": -1.2358288961,
				"element": "C" 
			},
			{
				"x": 0.2960921467,
				"y": -1.7840864624,
				"z": -2.5079948727,
				"element": "C" 
			},
			{
				"x": 0.482817296,
				"y": -3.1895184607,
				"z": -2.9763779106,
				"element": "C" 
			},
			{
				"x": 0.3068426976,
				"y": -0.7221340235,
				"z": -3.3401758147,
				"element": "N" 
			},
			{
				"x": 0.1192556576,
				"y": 0.4749466806,
				"z": -2.7190452832,
				"element": "N" 
			},
			{
				"x": -0.0175193593,
				"y": 0.1676452487,
				"z": -1.4336224411,
				"element": "C" 
			},
			{
				"x": -0.2441894466,
				"y": 1.2539115744,
				"z": -0.4286212874,
				"element": "C" 
			},
			{
				"x": -1.4553241276,
				"y": -0.4847529007,
				"z": 3.2803872741,
				"element": "H" 
			},
			{
				"x": 0.2973168655,
				"y": -0.3300547451,
				"z": 3.5030820706,
				"element": "H" 
			},
			{
				"x": -0.6052316954,
				"y": -1.5644752529,
				"z": 4.4019563198,
				"element": "H" 
			},
			{
				"x": 0.6251037341,
				"y": -2.6170881749,
				"z": 2.4727972777,
				"element": "H" 
			},
			{
				"x": -1.1175735351,
				"y": -2.7710513729,
				"z": 2.251445101,
				"element": "H" 
			},
			{
				"x": -0.3821046446,
				"y": -3.8033653953,
				"z": -2.7110474529,
				"element": "H" 
			},
			{
				"x": 1.3472539706,
				"y": -3.6476951803,
				"z": -2.4884245081,
				"element": "H" 
			},
			{
				"x": 0.6258211735,
				"y": -3.2276844864,
				"z": -4.0607853864,
				"element": "H" 
			},
			{
				"x": 0.43610666,
				"y": -0.736133795,
				"z": -4.3404994516,
				"element": "H" 
			},
			{
				"x": -0.2663825477,
				"y": 2.2193223403,
				"z": -0.9384165535,
				"element": "H" 
			},
			{
				"x": 0.5471291285,
				"y": 1.2652477905,
				"z": 0.3268721862,
				"element": "H" 
			},
			{
				"x": -1.1880931999,
				"y": 1.1082507456,
				"z": 0.1051501463,
				"element": "H" 
			}
		],
		 "valence_orbital": [ 
			{
				"type": "occ",
				"energy": -0.29284,
				"method": "rhf"
			},
			{
				"type": "occ",
				"energy": -0.29042,
				"method": "rhf"
			},
			{
				"type": "occ",
				"energy": -0.25966,
				"method": "rhf"
			},
			{
				"type": "occ",
				"energy": -0.25082,
				"method": "rhf"
			},
			{
				"type": "occ",
				"energy": -0.24104,
				"method": "rhf"
			},
			{
				"type": "unocc",
				"energy": -0.01093,
				"method": "rhf"
			},
			{
				"type": "unocc",
				"energy": 0.02937,
				"method": "rhf"
			},
			{
				"type": "unocc",
				"energy": 0.0766,
				"method": "rhf"
			},
			{
				"type": "unocc",
				"energy": 0.09999,
				"method": "rhf"
			},
			{
				"type": "unocc",
				"energy": 0.11087,
				"method": "rhf"
			}
		],
		"cosmo_sigma_profile": { 
			"-0.025": 0.0,
			"-0.024": 0.0,
			"-0.023": 0.0,
			"-0.022": 0.0,
			"-0.021": 0.0,
			"-0.02": 0.0,
			"-0.019": 0.0,
			"-0.018": 0.0,
			"-0.017": 0.275750058495,
			"-0.016": 1.48735272756,
			"-0.015": 1.12047188799,
			"-0.014": 1.33823402367,
			"-0.013": 1.51832540007,
			"-0.012": 1.13973130472,
			"-0.011": 0.82883832458,
			"-0.01": 1.52134235692,
			"-0.009": 0.942615320164,
			"-0.008": 1.27292095074,
			"-0.007": 1.10541426335,
			"-0.006": 2.67819424137,
			"-0.005": 8.58903566098,
			"-0.004": 18.3566119271,
			"-0.003": 23.7720834293,
			"-0.002": 24.22085364,
			"-0.001": 23.2035436783,
			"0.0": 22.9511976593,
			"0.001": 17.3473459802,
			"0.002": 11.6404885157,
			"0.003": 10.6581029082,
			"0.004": 8.3436236779,
			"0.005": 5.91673410085,
			"0.006": 3.72453969628,
			"0.007": 3.31968836543,
			"0.008": 2.92974684139,
			"0.009": 2.67176511901,
			"0.01": 2.79212456443,
			"0.011": 2.27821772652,
			"0.012": 4.72657404635,
			"0.013": 3.54095657202,
			"0.014": 1.0359455123,
			"0.015": 0.925778331874,
			"0.016": 0.753246108612,
			"0.017": 0.047768604285,
			"0.018": 0.0,
			"0.019": 0.0,
			"0.02": 0.0,
			"0.021": 0.0,
			"0.022": 0.0,
			"0.023": 0.0,
			"0.024": 0.0,
			"0.025": 0.0
		}
	}
}
