{
	 "smiles": "CC1=CC=CN=C1", 
	 "Tm": 255.05, 
	 "num_atms": 14, 
	 "gaussian": { 
		 "optdone": 1, 
		 "sigma_profile": "yes", 
		 "theory": "DFT", 
		 "functional": "B3LYP", 
		 "basiset": "6-31G**", 
		 "properties": { 
			 "R2extent": 1108.1896, 
			 "electric_dipole_moment_norm": 2.42153163308, 
			 "electric_quadrupole_moment_norm": 5.62544581256, 
			 "total_energy": -287.607629428, 
			 "HOMO_LUMO_gap": 0.22696, 
			 "cosmo_polarized_energy": -5.82, 
			 "cosmo_cavitation_energy": 17.43, 
			 "cosmo_dispersion_energy": -13.12, 
			 "cosmo_repulsion_energy": 1.1, 
			 "cosmo_total_nonelectrostatic_energy": 5.42, 
			 "SMD_solvation_energy": 1.83 
		},
		"coords": [
			{
				"x": 0.7700816514,
				"y": 0.5572671115,
				"z": 2.3547847964,
				"element": "C" 
			},
			{
				"x": -0.1195246886,
				"y": -0.3602719573,
				"z": 1.5534948422,
				"element": "C" 
			},
			{
				"x": -1.3639754898,
				"y": -0.7885455701,
				"z": 2.0318707408,
				"element": "C" 
			},
			{
				"x": -2.1447296439,
				"y": -1.6360865235,
				"z": 1.2503774133,
				"element": "C" 
			},
			{
				"x": -1.6555551835,
				"y": -2.033942857,
				"z": 0.0044432821,
				"element": "C" 
			},
			{
				"x": -0.4716738534,
				"y": -1.6408226114,
				"z": -0.4777263964,
				"element": "N" 
			},
			{
				"x": 0.2631262307,
				"y": -0.8263173672,
				"z": 0.2891250542,
				"element": "C" 
			},
			{
				"x": 0.2717550103,
				"y": 1.509267701,
				"z": 2.5705111837,
				"element": "H" 
			},
			{
				"x": 1.0420879811,
				"y": 0.1097484308,
				"z": 3.3175554746,
				"element": "H" 
			},
			{
				"x": 1.6960077399,
				"y": 0.7800260651,
				"z": 1.8173118151,
				"element": "H" 
			},
			{
				"x": -1.7156463063,
				"y": -0.459908305,
				"z": 3.007316308,
				"element": "H" 
			},
			{
				"x": -3.1135490134,
				"y": -1.9836451737,
				"z": 1.5962727209,
				"element": "H" 
			},
			{
				"x": -2.2399125397,
				"y": -2.6961119748,
				"z": -0.6323382351,
				"element": "H" 
			},
			{
				"x": 1.2236081051,
				"y": -0.5202569682,
				"z": -0.1259989998,
				"element": "H" 
			}
		],
		 "valence_orbital": [ 
			{
				"type": "occ",
				"energy": -0.38065,
				"method": "rhf"
			},
			{
				"type": "occ",
				"energy": -0.35604,
				"method": "rhf"
			},
			{
				"type": "occ",
				"energy": -0.27923,
				"method": "rhf"
			},
			{
				"type": "occ",
				"energy": -0.25113,
				"method": "rhf"
			},
			{
				"type": "occ",
				"energy": -0.24821,
				"method": "rhf"
			},
			{
				"type": "unocc",
				"energy": -0.02125,
				"method": "rhf"
			},
			{
				"type": "unocc",
				"energy": -0.00457,
				"method": "rhf"
			},
			{
				"type": "unocc",
				"energy": 0.09881,
				"method": "rhf"
			},
			{
				"type": "unocc",
				"energy": 0.11643,
				"method": "rhf"
			},
			{
				"type": "unocc",
				"energy": 0.13281,
				"method": "rhf"
			}
		],
		"cosmo_sigma_profile": { 
			"-0.025": 0.0,
			"-0.024": 0.0,
			"-0.023": 0.0,
			"-0.022": 0.0,
			"-0.021": 0.0,
			"-0.02": 0.0,
			"-0.019": 0.0,
			"-0.018": 0.0,
			"-0.017": 0.0,
			"-0.016": 0.0,
			"-0.015": 0.0,
			"-0.014": 0.0,
			"-0.013": 0.0,
			"-0.012": 0.0,
			"-0.011": 0.0,
			"-0.01": 0.0,
			"-0.009": 0.0,
			"-0.008": 0.0,
			"-0.007": 1.25111920681,
			"-0.006": 6.43685105103,
			"-0.005": 12.6076959124,
			"-0.004": 15.4933231725,
			"-0.003": 12.3634726723,
			"-0.002": 12.2971304434,
			"-0.001": 12.611509395,
			"0.0": 12.6091137159,
			"0.001": 8.76109308702,
			"0.002": 9.24952781104,
			"0.003": 13.803980668,
			"0.004": 5.60784312568,
			"0.005": 2.71293472372,
			"0.006": 1.53920858168,
			"0.007": 1.2436906948,
			"0.008": 1.65520420197,
			"0.009": 0.925365937431,
			"0.01": 1.52737055045,
			"0.011": 0.844950438384,
			"0.012": 1.07551299269,
			"0.013": 0.942683945688,
			"0.014": 1.0375998871,
			"0.015": 0.771060970232,
			"0.016": 0.873829261703,
			"0.017": 0.706579833633,
			"0.018": 0.0117559693357,
			"0.019": 0.0,
			"0.02": 0.0,
			"0.021": 0.0,
			"0.022": 0.0,
			"0.023": 0.0,
			"0.024": 0.0,
			"0.025": 0.0
		}
	}
}
