{
	 "smiles": "CC1=C(CC#N)C=CC=C1F", 
	 "Tm": 320.15, 
	 "num_atms": 19, 
	 "gaussian": { 
		 "optdone": 1, 
		 "sigma_profile": "yes", 
		 "theory": "DFT", 
		 "functional": "B3LYP", 
		 "basiset": "6-31G**", 
		 "properties": { 
			 "R2extent": 1932.1346, 
			 "electric_dipole_moment_norm": 3.75966168824, 
			 "electric_quadrupole_moment_norm": 19.3092540172, 
			 "total_energy": -502.354711602, 
			 "HOMO_LUMO_gap": 0.22652, 
			 "cosmo_polarized_energy": -10.11, 
			 "cosmo_cavitation_energy": 23.9, 
			 "cosmo_dispersion_energy": -16.7, 
			 "cosmo_repulsion_energy": 1.31, 
			 "cosmo_total_nonelectrostatic_energy": 8.52, 
			 "SMD_solvation_energy": 5.89 
		},
		"coords": [
			{
				"x": -0.219616258,
				"y": 1.1821869679,
				"z": -0.7659798202,
				"element": "C" 
			},
			{
				"x": 0.0113077737,
				"y": -0.0717541305,
				"z": 0.0412601652,
				"element": "C" 
			},
			{
				"x": -0.814534709,
				"y": -1.2094016957,
				"z": -0.060440254,
				"element": "C" 
			},
			{
				"x": -1.9946691004,
				"y": -1.2179946151,
				"z": -1.0242711416,
				"element": "C" 
			},
			{
				"x": -3.1132436851,
				"y": -0.3730918055,
				"z": -0.5823466213,
				"element": "C" 
			},
			{
				"x": -3.9899812668,
				"y": 0.3007776536,
				"z": -0.2293884845,
				"element": "N" 
			},
			{
				"x": -0.5601352306,
				"y": -2.3462422131,
				"z": 0.7127288921,
				"element": "C" 
			},
			{
				"x": 0.5162757859,
				"y": -2.3787948303,
				"z": 1.5996280159,
				"element": "C" 
			},
			{
				"x": 1.3482001567,
				"y": -1.2688024467,
				"z": 1.7188571583,
				"element": "C" 
			},
			{
				"x": 1.077091031,
				"y": -0.1492169792,
				"z": 0.9411589194,
				"element": "C" 
			},
			{
				"x": 1.8971034774,
				"y": 0.9199665211,
				"z": 1.0670334737,
				"element": "F" 
			},
			{
				"x": -0.1771951681,
				"y": 0.9781108777,
				"z": -1.8426687885,
				"element": "H" 
			},
			{
				"x": -1.2023943692,
				"y": 1.6168321203,
				"z": -0.5552845972,
				"element": "H" 
			},
			{
				"x": 0.5397214845,
				"y": 1.9300639186,
				"z": -0.5380900661,
				"element": "H" 
			},
			{
				"x": -1.6908268108,
				"y": -0.8749153345,
				"z": -2.0208993196,
				"element": "H" 
			},
			{
				"x": -2.3699340056,
				"y": -2.2394445351,
				"z": -1.144713272,
				"element": "H" 
			},
			{
				"x": -1.2102559487,
				"y": -3.2115783558,
				"z": 0.6203688867,
				"element": "H" 
			},
			{
				"x": 0.7060401574,
				"y": -3.2659081161,
				"z": 2.1955469309,
				"element": "H" 
			},
			{
				"x": 2.1956466859,
				"y": -1.2516930019,
				"z": 2.3952999228,
				"element": "H" 
			}
		],
		 "valence_orbital": [ 
			{
				"type": "occ",
				"energy": -0.35536,
				"method": "rhf"
			},
			{
				"type": "occ",
				"energy": -0.32611,
				"method": "rhf"
			},
			{
				"type": "occ",
				"energy": -0.32458,
				"method": "rhf"
			},
			{
				"type": "occ",
				"energy": -0.26171,
				"method": "rhf"
			},
			{
				"type": "occ",
				"energy": -0.25094,
				"method": "rhf"
			},
			{
				"type": "unocc",
				"energy": -0.02442,
				"method": "rhf"
			},
			{
				"type": "unocc",
				"energy": -0.00902,
				"method": "rhf"
			},
			{
				"type": "unocc",
				"energy": 0.03451,
				"method": "rhf"
			},
			{
				"type": "unocc",
				"energy": 0.03702,
				"method": "rhf"
			},
			{
				"type": "unocc",
				"energy": 0.07894,
				"method": "rhf"
			}
		],
		"cosmo_sigma_profile": { 
			"-0.025": 0.0,
			"-0.024": 0.0,
			"-0.023": 0.0,
			"-0.022": 0.0,
			"-0.021": 0.0,
			"-0.02": 0.0,
			"-0.019": 0.0,
			"-0.018": 0.0,
			"-0.017": 0.0,
			"-0.016": 0.0,
			"-0.015": 0.0,
			"-0.014": 0.0,
			"-0.013": 0.0,
			"-0.012": 0.0,
			"-0.011": 0.0,
			"-0.01": 0.0,
			"-0.009": 3.11746498173,
			"-0.008": 7.6277804696,
			"-0.007": 8.23046434958,
			"-0.006": 11.4230700293,
			"-0.005": 10.8611309598,
			"-0.004": 11.6272319179,
			"-0.003": 10.9029354727,
			"-0.002": 12.6385632794,
			"-0.001": 13.7278920726,
			"0.0": 16.5124574987,
			"0.001": 14.0035189742,
			"0.002": 12.6223176695,
			"0.003": 13.5081362235,
			"0.004": 16.5537901164,
			"0.005": 6.32515570511,
			"0.006": 2.7513117888,
			"0.007": 2.39268284176,
			"0.008": 2.80118978181,
			"0.009": 3.61509640133,
			"0.01": 3.03644888809,
			"0.011": 2.8394674792,
			"0.012": 2.50013028197,
			"0.013": 1.90923234162,
			"0.014": 0.23502486236,
			"0.015": 0.0,
			"0.016": 0.0,
			"0.017": 0.0,
			"0.018": 0.0,
			"0.019": 0.0,
			"0.02": 0.0,
			"0.021": 0.0,
			"0.022": 0.0,
			"0.023": 0.0,
			"0.024": 0.0,
			"0.025": 0.0
		}
	}
}
