{
	 "smiles": "NC(CC1=CC(F)=C(F)C=C1)C(O)=O", 
	 "Tm": 511.15, 
	 "num_atms": 23, 
	 "gaussian": { 
		 "optdone": 1, 
		 "sigma_profile": "yes", 
		 "theory": "DFT", 
		 "functional": "B3LYP", 
		 "basiset": "6-31G**", 
		 "properties": { 
			 "R2extent": 3771.4904, 
			 "electric_dipole_moment_norm": 4.27224424512, 
			 "electric_quadrupole_moment_norm": 25.3172915419, 
			 "total_energy": -753.258372705, 
			 "HOMO_LUMO_gap": 0.22181, 
			 "cosmo_polarized_energy": -15.78, 
			 "cosmo_cavitation_energy": 28.29, 
			 "cosmo_dispersion_energy": -19.97, 
			 "cosmo_repulsion_energy": 1.54, 
			 "cosmo_total_nonelectrostatic_energy": 9.87, 
			 "SMD_solvation_energy": 6.39 
		},
		"coords": [
			{
				"x": 0.5266968203,
				"y": -2.0082863127,
				"z": -1.2835222393,
				"element": "N" 
			},
			{
				"x": 0.3354538951,
				"y": -0.6047938809,
				"z": -1.6808175002,
				"element": "C" 
			},
			{
				"x": 0.9702669197,
				"y": 0.3607211789,
				"z": -0.6509691369,
				"element": "C" 
			},
			{
				"x": 0.3176671085,
				"y": 0.2991593488,
				"z": 0.7127020628,
				"element": "C" 
			},
			{
				"x": -0.9430206283,
				"y": 0.8827155006,
				"z": 0.9202503062,
				"element": "C" 
			},
			{
				"x": -1.5505982079,
				"y": 0.8041522846,
				"z": 2.1631830808,
				"element": "C" 
			},
			{
				"x": -2.7532997025,
				"y": 1.3642247912,
				"z": 2.3695240075,
				"element": "F" 
			},
			{
				"x": -0.9224546221,
				"y": 0.1451052546,
				"z": 3.2224685011,
				"element": "C" 
			},
			{
				"x": -1.5391733282,
				"y": 0.0887506758,
				"z": 4.4139489787,
				"element": "F" 
			},
			{
				"x": 0.3225996443,
				"y": -0.4349823899,
				"z": 3.0383674875,
				"element": "C" 
			},
			{
				"x": 0.9379941276,
				"y": -0.3555144865,
				"z": 1.7846623102,
				"element": "C" 
			},
			{
				"x": 1.0168978932,
				"y": -0.3643362391,
				"z": -3.0449217208,
				"element": "C" 
			},
			{
				"x": 1.8630104782,
				"y": -1.3401107907,
				"z": -3.4023482425,
				"element": "O" 
			},
			{
				"x": 0.8254998516,
				"y": 0.6337428054,
				"z": -3.6994725668,
				"element": "O" 
			},
			{
				"x": -0.2364909196,
				"y": -2.5883759301,
				"z": -1.6214428209,
				"element": "H" 
			},
			{
				"x": 0.5440919455,
				"y": -2.101501072,
				"z": -0.2711497606,
				"element": "H" 
			},
			{
				"x": -0.720539656,
				"y": -0.3323485718,
				"z": -1.8035096786,
				"element": "H" 
			},
			{
				"x": 2.0368012105,
				"y": 0.1230491098,
				"z": -0.5636590352,
				"element": "H" 
			},
			{
				"x": 0.8976861595,
				"y": 1.3676559231,
				"z": -1.0722766067,
				"element": "H" 
			},
			{
				"x": -1.4594661006,
				"y": 1.410639703,
				"z": 0.1242396712,
				"element": "H" 
			},
			{
				"x": 0.7982597622,
				"y": -0.9346988872,
				"z": 3.8753959063,
				"element": "H" 
			},
			{
				"x": 1.9226705795,
				"y": -0.794231524,
				"z": 1.6491955334,
				"element": "H" 
			},
			{
				"x": 1.7914467697,
				"y": -2.0068364908,
				"z": -2.6766485372,
				"element": "H" 
			}
		],
		 "valence_orbital": [ 
			{
				"type": "occ",
				"energy": -0.30514,
				"method": "rhf"
			},
			{
				"type": "occ",
				"energy": -0.29862,
				"method": "rhf"
			},
			{
				"type": "occ",
				"energy": -0.27526,
				"method": "rhf"
			},
			{
				"type": "occ",
				"energy": -0.2585,
				"method": "rhf"
			},
			{
				"type": "occ",
				"energy": -0.25439,
				"method": "rhf"
			},
			{
				"type": "unocc",
				"energy": -0.03258,
				"method": "rhf"
			},
			{
				"type": "unocc",
				"energy": -0.01995,
				"method": "rhf"
			},
			{
				"type": "unocc",
				"energy": 0.01816,
				"method": "rhf"
			},
			{
				"type": "unocc",
				"energy": 0.05424,
				"method": "rhf"
			},
			{
				"type": "unocc",
				"energy": 0.06459,
				"method": "rhf"
			}
		],
		"cosmo_sigma_profile": { 
			"-0.025": 0.0,
			"-0.024": 0.0,
			"-0.023": 0.0,
			"-0.022": 0.0,
			"-0.021": 0.0,
			"-0.02": 0.0,
			"-0.019": 0.0,
			"-0.018": 0.0,
			"-0.017": 0.0,
			"-0.016": 0.0,
			"-0.015": 0.0,
			"-0.014": 0.0,
			"-0.013": 0.0618192638594,
			"-0.012": 1.60927123528,
			"-0.011": 1.99801699962,
			"-0.01": 2.16731774851,
			"-0.009": 3.55980561157,
			"-0.008": 6.01418714172,
			"-0.007": 11.6335570407,
			"-0.006": 16.6867892469,
			"-0.005": 15.070063628,
			"-0.004": 11.8645799211,
			"-0.003": 9.67297244228,
			"-0.002": 11.0157192279,
			"-0.001": 13.5471741186,
			"0.0": 16.3791302134,
			"0.001": 16.0148152039,
			"0.002": 14.0338017962,
			"0.003": 18.1804751369,
			"0.004": 21.0438851002,
			"0.005": 3.25548301804,
			"0.006": 3.30750391366,
			"0.007": 2.26218231931,
			"0.008": 2.69372606395,
			"0.009": 2.83762785101,
			"0.01": 4.68772080191,
			"0.011": 4.79433035635,
			"0.012": 5.55797474702,
			"0.013": 3.91779753106,
			"0.014": 0.831765540056,
			"0.015": 0.0,
			"0.016": 0.0,
			"0.017": 0.0,
			"0.018": 0.0,
			"0.019": 0.0,
			"0.02": 0.0,
			"0.021": 0.0,
			"0.022": 0.0,
			"0.023": 0.0,
			"0.024": 0.0,
			"0.025": 0.0
		}
	}
}
