{
	 "smiles": "CN1NC(C2=CC=CO2)=C(C1=N)C1=CC2=C(OCO2)C=C1", 
	 "Tm": 414.15, 
	 "num_atms": 34, 
	 "gaussian": { 
		 "optdone": 1, 
		 "sigma_profile": "yes", 
		 "theory": "DFT", 
		 "functional": "B3LYP", 
		 "basiset": "6-31G**", 
		 "properties": { 
			 "R2extent": 6865.1167, 
			 "electric_dipole_moment_norm": 4.05246393815, 
			 "electric_quadrupole_moment_norm": 16.6393993539, 
			 "total_energy": -969.256605422, 
			 "HOMO_LUMO_gap": 0.1363, 
			 "cosmo_polarized_energy": -19.0, 
			 "cosmo_cavitation_energy": 38.21, 
			 "cosmo_dispersion_energy": -27.63, 
			 "cosmo_repulsion_energy": 2.1, 
			 "cosmo_total_nonelectrostatic_energy": 12.69, 
			 "SMD_solvation_energy": 6.44 
		},
		"coords": [
			{
				"x": 3.0550049865,
				"y": 2.0139489386,
				"z": 2.4709364087,
				"element": "C" 
			},
			{
				"x": 2.3134114319,
				"y": 0.8139751724,
				"z": 2.109098592,
				"element": "N" 
			},
			{
				"x": 2.9976142856,
				"y": -0.0207935647,
				"z": 1.1767428763,
				"element": "N" 
			},
			{
				"x": 1.996719844,
				"y": -0.6256288864,
				"z": 0.3894051705,
				"element": "C" 
			},
			{
				"x": 2.4428283459,
				"y": -1.709678834,
				"z": -0.4590036654,
				"element": "C" 
			},
			{
				"x": 3.6888834756,
				"y": -2.0201295063,
				"z": -0.9474168065,
				"element": "C" 
			},
			{
				"x": 3.5463942581,
				"y": -3.2390598299,
				"z": -1.6786285464,
				"element": "C" 
			},
			{
				"x": 2.2307856162,
				"y": -3.5835327199,
				"z": -1.5824804239,
				"element": "C" 
			},
			{
				"x": 1.5477858376,
				"y": -2.6702023313,
				"z": -0.8421837908,
				"element": "O" 
			},
			{
				"x": 0.771976116,
				"y": -0.0637839567,
				"z": 0.6236278379,
				"element": "C" 
			},
			{
				"x": 0.9565722752,
				"y": 0.911174838,
				"z": 1.7144212753,
				"element": "C" 
			},
			{
				"x": 0.0533421799,
				"y": 1.6962472754,
				"z": 2.1819693778,
				"element": "N" 
			},
			{
				"x": -0.4959055948,
				"y": -0.2525478627,
				"z": -0.0970316966,
				"element": "C" 
			},
			{
				"x": -1.7204443116,
				"y": -0.1886610995,
				"z": 0.6147956864,
				"element": "C" 
			},
			{
				"x": -2.8795668022,
				"y": -0.3692107711,
				"z": -0.1067059748,
				"element": "C" 
			},
			{
				"x": -2.878438737,
				"y": -0.5987243596,
				"z": -1.4798760934,
				"element": "C" 
			},
			{
				"x": -4.1684587692,
				"y": -0.7590652332,
				"z": -1.9275534622,
				"element": "O" 
			},
			{
				"x": -5.0023778527,
				"y": -0.439750048,
				"z": -0.805945198,
				"element": "C" 
			},
			{
				"x": -4.1776434762,
				"y": -0.3834718683,
				"z": 0.3589580396,
				"element": "O" 
			},
			{
				"x": -1.7017892841,
				"y": -0.6505786294,
				"z": -2.2020495138,
				"element": "C" 
			},
			{
				"x": -0.5093597109,
				"y": -0.4685270776,
				"z": -1.4853648761,
				"element": "C" 
			},
			{
				"x": 2.5163355818,
				"y": 2.5352494018,
				"z": 3.2646161395,
				"element": "H" 
			},
			{
				"x": 3.1936089254,
				"y": 2.6945595547,
				"z": 1.6201934827,
				"element": "H" 
			},
			{
				"x": 4.033933554,
				"y": 1.7288537965,
				"z": 2.8641388692,
				"element": "H" 
			},
			{
				"x": 3.5537411808,
				"y": -0.7109090634,
				"z": 1.6820325445,
				"element": "H" 
			},
			{
				"x": 4.5840446221,
				"y": -1.4289794345,
				"z": -0.819619476,
				"element": "H" 
			},
			{
				"x": 4.3168050466,
				"y": -3.7798418261,
				"z": -2.2087509583,
				"element": "H" 
			},
			{
				"x": 1.6468643217,
				"y": -4.4067173309,
				"z": -1.9638005877,
				"element": "H" 
			},
			{
				"x": 0.4125074095,
				"y": 2.2831336241,
				"z": 2.9360808653,
				"element": "H" 
			},
			{
				"x": -1.7352957726,
				"y": 0.0226534369,
				"z": 1.6751709554,
				"element": "H" 
			},
			{
				"x": -5.4770919481,
				"y": 0.539042257,
				"z": -0.9720115295,
				"element": "H" 
			},
			{
				"x": -5.7587599331,
				"y": -1.2210864394,
				"z": -0.682155781,
				"element": "H" 
			},
			{
				"x": -1.7027422992,
				"y": -0.8125013133,
				"z": -3.2740680234,
				"element": "H" 
			},
			{
				"x": 0.4291151974,
				"y": -0.4761563092,
				"z": -2.0280417173,
				"element": "H" 
			}
		],
		 "valence_orbital": [ 
			{
				"type": "occ",
				"energy": -0.24989,
				"method": "rhf"
			},
			{
				"type": "occ",
				"energy": -0.237,
				"method": "rhf"
			},
			{
				"type": "occ",
				"energy": -0.22285,
				"method": "rhf"
			},
			{
				"type": "occ",
				"energy": -0.20508,
				"method": "rhf"
			},
			{
				"type": "occ",
				"energy": -0.18123,
				"method": "rhf"
			},
			{
				"type": "unocc",
				"energy": -0.04493,
				"method": "rhf"
			},
			{
				"type": "unocc",
				"energy": 0.01357,
				"method": "rhf"
			},
			{
				"type": "unocc",
				"energy": 0.02062,
				"method": "rhf"
			},
			{
				"type": "unocc",
				"energy": 0.03226,
				"method": "rhf"
			},
			{
				"type": "unocc",
				"energy": 0.07036,
				"method": "rhf"
			}
		],
		"cosmo_sigma_profile": { 
			"-0.025": 0.0,
			"-0.024": 0.0,
			"-0.023": 0.0,
			"-0.022": 0.0,
			"-0.021": 0.0,
			"-0.02": 0.0,
			"-0.019": 0.0,
			"-0.018": 0.0,
			"-0.017": 0.0,
			"-0.016": 0.0,
			"-0.015": 0.0,
			"-0.014": 0.630438404651,
			"-0.013": 1.26796651432,
			"-0.012": 1.03023964438,
			"-0.011": 1.27043626689,
			"-0.01": 2.49435558866,
			"-0.009": 4.74999082696,
			"-0.008": 7.75892360012,
			"-0.007": 15.6868705441,
			"-0.006": 19.0050630325,
			"-0.005": 17.4457138072,
			"-0.004": 19.7591236355,
			"-0.003": 20.1320411462,
			"-0.002": 20.2170756387,
			"-0.001": 15.4778508858,
			"0.0": 15.6870809923,
			"0.001": 18.1359033633,
			"0.002": 23.2777404307,
			"0.003": 23.4273396484,
			"0.004": 18.7813481997,
			"0.005": 15.1714737775,
			"0.006": 10.3004852411,
			"0.007": 8.05617723327,
			"0.008": 6.44967273736,
			"0.009": 6.24251356456,
			"0.01": 4.47583410912,
			"0.011": 1.20815695267,
			"0.012": 1.73395791791,
			"0.013": 1.47839683356,
			"0.014": 0.871763504491,
			"0.015": 1.36212548217,
			"0.016": 1.32392497942,
			"0.017": 0.697298104649,
			"0.018": 0.533696599988,
			"0.019": 0.0,
			"0.02": 0.0,
			"0.021": 0.0,
			"0.022": 0.0,
			"0.023": 0.0,
			"0.024": 0.0,
			"0.025": 0.0
		}
	}
}
