{
	 "smiles": "ClC1=NC(OCC2=CC=CC=C2)=C(Br)C=N1", 
	 "Tm": 388.15, 
	 "num_atms": 24, 
	 "gaussian": { 
		 "optdone": 1, 
		 "sigma_profile": "yes", 
		 "theory": "DFT", 
		 "functional": "B3LYP", 
		 "basiset": "6-31G**", 
		 "properties": { 
			 "R2extent": 6547.8596, 
			 "electric_dipole_moment_norm": 2.71250631151, 
			 "electric_quadrupole_moment_norm": 10.9897779682, 
			 "total_energy": -3640.30581396, 
			 "HOMO_LUMO_gap": 0.20186, 
			 "cosmo_polarized_energy": -8.2, 
			 "cosmo_cavitation_energy": 33.47, 
			 "cosmo_dispersion_energy": -23.98, 
			 "cosmo_repulsion_energy": 1.9, 
			 "cosmo_total_nonelectrostatic_energy": 11.39, 
			 "SMD_solvation_energy": 2.64 
		},
		"coords": [
			{
				"x": -1.3168084048,
				"y": -1.8656436297,
				"z": 4.1642989379,
				"element": "Cl" 
			},
			{
				"x": -1.4854583334,
				"y": -0.4075509896,
				"z": 3.2054564693,
				"element": "C" 
			},
			{
				"x": -1.2821962196,
				"y": -0.557034288,
				"z": 1.9007300189,
				"element": "N" 
			},
			{
				"x": -1.4045315544,
				"y": 0.534334905,
				"z": 1.1451779402,
				"element": "C" 
			},
			{
				"x": -1.2336716486,
				"y": 0.4716088299,
				"z": -0.1712204746,
				"element": "O" 
			},
			{
				"x": -0.8276432875,
				"y": -0.7967537496,
				"z": -0.7724955244,
				"element": "C" 
			},
			{
				"x": 0.6686544573,
				"y": -0.9787441763,
				"z": -0.7447938066,
				"element": "C" 
			},
			{
				"x": 1.2653216141,
				"y": -1.8821072447,
				"z": 0.1430127774,
				"element": "C" 
			},
			{
				"x": 2.6515764303,
				"y": -2.0459587964,
				"z": 0.1565829896,
				"element": "C" 
			},
			{
				"x": 3.4527363851,
				"y": -1.3028883247,
				"z": -0.7117350186,
				"element": "C" 
			},
			{
				"x": 2.865042298,
				"y": -0.3956034086,
				"z": -1.5971699659,
				"element": "C" 
			},
			{
				"x": 1.4801966002,
				"y": -0.2373473437,
				"z": -1.6145618851,
				"element": "C" 
			},
			{
				"x": -1.7363582313,
				"y": 1.7779919327,
				"z": 1.7295635879,
				"element": "C" 
			},
			{
				"x": -1.9237862704,
				"y": 3.3477945412,
				"z": 0.6912077455,
				"element": "Br" 
			},
			{
				"x": -1.9198885729,
				"y": 1.7939613011,
				"z": 3.1009463689,
				"element": "C" 
			},
			{
				"x": -1.7953144058,
				"y": 0.6934511737,
				"z": 3.86563535,
				"element": "N" 
			},
			{
				"x": -1.3423683269,
				"y": -1.6129432309,
				"z": -0.2643859638,
				"element": "H" 
			},
			{
				"x": -1.1982430653,
				"y": -0.7078402955,
				"z": -1.7955159402,
				"element": "H" 
			},
			{
				"x": 0.640975916,
				"y": -2.4464823488,
				"z": 0.8288433434,
				"element": "H" 
			},
			{
				"x": 3.1046696238,
				"y": -2.7512591856,
				"z": 0.8471660111,
				"element": "H" 
			},
			{
				"x": 4.5314581702,
				"y": -1.4302043524,
				"z": -0.7004551076,
				"element": "H" 
			},
			{
				"x": 3.4849250617,
				"y": 0.1828503164,
				"z": -2.2760548768,
				"element": "H" 
			},
			{
				"x": 1.0225734213,
				"y": 0.4661191817,
				"z": -2.3056846021,
				"element": "H" 
			},
			{
				"x": -2.1753616571,
				"y": 2.7186491827,
				"z": 3.6109516255,
				"element": "H" 
			}
		],
		 "valence_orbital": [ 
			{
				"type": "occ",
				"energy": -0.30316,
				"method": "rhf"
			},
			{
				"type": "occ",
				"energy": -0.27605,
				"method": "rhf"
			},
			{
				"type": "occ",
				"energy": -0.25866,
				"method": "rhf"
			},
			{
				"type": "occ",
				"energy": -0.25701,
				"method": "rhf"
			},
			{
				"type": "occ",
				"energy": -0.25303,
				"method": "rhf"
			},
			{
				"type": "unocc",
				"energy": -0.05117,
				"method": "rhf"
			},
			{
				"type": "unocc",
				"energy": -0.03706,
				"method": "rhf"
			},
			{
				"type": "unocc",
				"energy": -0.01967,
				"method": "rhf"
			},
			{
				"type": "unocc",
				"energy": -0.00831,
				"method": "rhf"
			},
			{
				"type": "unocc",
				"energy": -0.00397,
				"method": "rhf"
			}
		],
		"cosmo_sigma_profile": { 
			"-0.025": 0.0,
			"-0.024": 0.0,
			"-0.023": 0.0,
			"-0.022": 0.0,
			"-0.021": 0.0,
			"-0.02": 0.0,
			"-0.019": 0.0,
			"-0.018": 0.0,
			"-0.017": 0.0,
			"-0.016": 0.0,
			"-0.015": 0.0,
			"-0.014": 0.0,
			"-0.013": 0.0,
			"-0.012": 0.0,
			"-0.011": 0.0,
			"-0.01": 0.271892096563,
			"-0.009": 1.79187105038,
			"-0.008": 1.83761910503,
			"-0.007": 4.07915859836,
			"-0.006": 13.9754566458,
			"-0.005": 19.7818974743,
			"-0.004": 24.0221878885,
			"-0.003": 22.0269484457,
			"-0.002": 21.9710942995,
			"-0.001": 18.8068866618,
			"0.0": 16.2929624464,
			"0.001": 20.4375509196,
			"0.002": 20.1586474131,
			"0.003": 31.2661144635,
			"0.004": 25.1540291976,
			"0.005": 15.8545867782,
			"0.006": 6.4452928354,
			"0.007": 3.73933067119,
			"0.008": 2.79891221671,
			"0.009": 0.552923987642,
			"0.01": 1.08953615859,
			"0.011": 1.04886832547,
			"0.012": 0.717096133041,
			"0.013": 0.943521602125,
			"0.014": 0.0935060084151,
			"0.015": 0.0,
			"0.016": 0.0,
			"0.017": 0.0,
			"0.018": 0.0,
			"0.019": 0.0,
			"0.02": 0.0,
			"0.021": 0.0,
			"0.022": 0.0,
			"0.023": 0.0,
			"0.024": 0.0,
			"0.025": 0.0
		}
	}
}
