{
	 "smiles": "OC(=O)CC1=CSC(=N1)C1=CC(F)=C(F)C=C1", 
	 "Tm": 476.15, 
	 "num_atms": 24, 
	 "gaussian": { 
		 "optdone": 1, 
		 "sigma_profile": "yes", 
		 "theory": "DFT", 
		 "functional": "B3LYP", 
		 "basiset": "6-31G**", 
		 "properties": { 
			 "R2extent": 6226.3372, 
			 "electric_dipole_moment_norm": 3.95868423596, 
			 "electric_quadrupole_moment_norm": 5.05545670143, 
			 "total_energy": -1226.45038266, 
			 "HOMO_LUMO_gap": 0.16553, 
			 "cosmo_polarized_energy": -13.44, 
			 "cosmo_cavitation_energy": 32.69, 
			 "cosmo_dispersion_energy": -23.56, 
			 "cosmo_repulsion_energy": 1.76, 
			 "cosmo_total_nonelectrostatic_energy": 10.9, 
			 "SMD_solvation_energy": 6.45 
		},
		"coords": [
			{
				"x": -1.5377249291,
				"y": 3.8363861039,
				"z": -2.1701032607,
				"element": "O" 
			},
			{
				"x": -0.6505395324,
				"y": 4.0762034804,
				"z": -1.1766321253,
				"element": "C" 
			},
			{
				"x": 0.3537912048,
				"y": 4.7307096039,
				"z": -1.3347241419,
				"element": "O" 
			},
			{
				"x": -1.0972548547,
				"y": 3.4685746165,
				"z": 0.1457121132,
				"element": "C" 
			},
			{
				"x": -1.5550223633,
				"y": 2.0396760861,
				"z": 0.0428573687,
				"element": "C" 
			},
			{
				"x": -2.810157513,
				"y": 1.5753510523,
				"z": 0.3247130089,
				"element": "C" 
			},
			{
				"x": -2.886742652,
				"y": -0.136866314,
				"z": 0.0809654383,
				"element": "S" 
			},
			{
				"x": -1.1852892315,
				"y": -0.1106755763,
				"z": -0.3953112728,
				"element": "C" 
			},
			{
				"x": -0.6533111084,
				"y": 1.0822164075,
				"z": -0.3579795023,
				"element": "N" 
			},
			{
				"x": -0.4516477483,
				"y": -1.3202754092,
				"z": -0.7890450297,
				"element": "C" 
			},
			{
				"x": 0.9030452028,
				"y": -1.1938226761,
				"z": -1.1483269606,
				"element": "C" 
			},
			{
				"x": 1.6196679648,
				"y": -2.3151061762,
				"z": -1.5241081852,
				"element": "C" 
			},
			{
				"x": 2.913109138,
				"y": -2.2131566371,
				"z": -1.8701658215,
				"element": "F" 
			},
			{
				"x": 1.0136802443,
				"y": -3.5734999683,
				"z": -1.5512750227,
				"element": "C" 
			},
			{
				"x": 1.7386231539,
				"y": -4.6402540948,
				"z": -1.9208965765,
				"element": "F" 
			},
			{
				"x": -0.3218288953,
				"y": -3.7127860975,
				"z": -1.1994312504,
				"element": "C" 
			},
			{
				"x": -1.0523679695,
				"y": -2.5881417658,
				"z": -0.8193314636,
				"element": "C" 
			},
			{
				"x": -1.1749418804,
				"y": 4.2660999406,
				"z": -2.9629710619,
				"element": "H" 
			},
			{
				"x": -1.9113726576,
				"y": 4.0901152264,
				"z": 0.5349835288,
				"element": "H" 
			},
			{
				"x": -0.2496343025,
				"y": 3.5557045389,
				"z": 0.8297108214,
				"element": "H" 
			},
			{
				"x": -3.677330013,
				"y": 2.1324794705,
				"z": 0.6491695337,
				"element": "H" 
			},
			{
				"x": 1.3836234755,
				"y": -0.2229457604,
				"z": -1.1311070048,
				"element": "H" 
			},
			{
				"x": -0.7719269951,
				"y": -4.6989870368,
				"z": -1.2277647073,
				"element": "H" 
			},
			{
				"x": -2.0960477381,
				"y": -2.7083990143,
				"z": -0.5464384257,
				"element": "H" 
			}
		],
		 "valence_orbital": [ 
			{
				"type": "occ",
				"energy": -0.28857,
				"method": "rhf"
			},
			{
				"type": "occ",
				"energy": -0.28524,
				"method": "rhf"
			},
			{
				"type": "occ",
				"energy": -0.27247,
				"method": "rhf"
			},
			{
				"type": "occ",
				"energy": -0.26522,
				"method": "rhf"
			},
			{
				"type": "occ",
				"energy": -0.22873,
				"method": "rhf"
			},
			{
				"type": "unocc",
				"energy": -0.0632,
				"method": "rhf"
			},
			{
				"type": "unocc",
				"energy": -0.02026,
				"method": "rhf"
			},
			{
				"type": "unocc",
				"energy": 0.0021,
				"method": "rhf"
			},
			{
				"type": "unocc",
				"energy": 0.00984,
				"method": "rhf"
			},
			{
				"type": "unocc",
				"energy": 0.01683,
				"method": "rhf"
			}
		],
		"cosmo_sigma_profile": { 
			"-0.025": 0.0,
			"-0.024": 0.0,
			"-0.023": 0.0,
			"-0.022": 0.0,
			"-0.021": 0.0,
			"-0.02": 0.0,
			"-0.019": 0.0572251337642,
			"-0.018": 0.930808156109,
			"-0.017": 0.710815573991,
			"-0.016": 1.06840277353,
			"-0.015": 0.701984448173,
			"-0.014": 0.72140505251,
			"-0.013": 0.516786799223,
			"-0.012": 0.669430237444,
			"-0.011": 1.02902787102,
			"-0.01": 1.26702683817,
			"-0.009": 3.57741891791,
			"-0.008": 8.47462191376,
			"-0.007": 10.984152564,
			"-0.006": 10.1670160298,
			"-0.005": 10.6000452773,
			"-0.004": 10.7849156323,
			"-0.003": 11.7549077643,
			"-0.002": 13.2267908488,
			"-0.001": 18.9439596304,
			"0.0": 27.286234596,
			"0.001": 25.7093318357,
			"0.002": 26.4412977282,
			"0.003": 26.7387493583,
			"0.004": 17.9802730105,
			"0.005": 6.03142199091,
			"0.006": 4.95255459834,
			"0.007": 3.7964503197,
			"0.008": 4.82261857366,
			"0.009": 3.46450261938,
			"0.01": 3.26358547602,
			"0.011": 4.66122161522,
			"0.012": 3.53794926599,
			"0.013": 0.444617407773,
			"0.014": 0.0,
			"0.015": 0.0,
			"0.016": 0.0,
			"0.017": 0.0,
			"0.018": 0.0,
			"0.019": 0.0,
			"0.02": 0.0,
			"0.021": 0.0,
			"0.022": 0.0,
			"0.023": 0.0,
			"0.024": 0.0,
			"0.025": 0.0
		}
	}
}
