{
	 "smiles": "OC(=O)C1=NN(C2=C1CCCC2)C1=CC=C(Br)C=C1", 
	 "Tm": 506.15, 
	 "num_atms": 32, 
	 "gaussian": { 
		 "optdone": 1, 
		 "sigma_profile": "yes", 
		 "theory": "DFT", 
		 "functional": "B3LYP", 
		 "basiset": "6-31G**", 
		 "properties": { 
			 "R2extent": 10775.6446, 
			 "electric_dipole_moment_norm": 4.55703132862, 
			 "electric_quadrupole_moment_norm": 7.89553922604, 
			 "total_energy": -3372.69159539, 
			 "HOMO_LUMO_gap": 0.18605, 
			 "cosmo_polarized_energy": -15.49, 
			 "cosmo_cavitation_energy": 37.53, 
			 "cosmo_dispersion_energy": -27.82, 
			 "cosmo_repulsion_energy": 2.15, 
			 "cosmo_total_nonelectrostatic_energy": 11.86, 
			 "SMD_solvation_energy": 4.81 
		},
		"coords": [
			{
				"x": 4.2697934583,
				"y": -0.6288146152,
				"z": 1.0575523466,
				"element": "O" 
			},
			{
				"x": 3.7193409834,
				"y": -0.7449485889,
				"z": -0.1836517606,
				"element": "C" 
			},
			{
				"x": 4.3669826951,
				"y": -1.0851181862,
				"z": -1.14920432,
				"element": "O" 
			},
			{
				"x": 2.2822300807,
				"y": -0.4035146989,
				"z": -0.1714551771,
				"element": "C" 
			},
			{
				"x": 1.6032802178,
				"y": -0.4688335732,
				"z": -1.3196625797,
				"element": "N" 
			},
			{
				"x": 0.3427135466,
				"y": -0.1101495364,
				"z": -1.0045549218,
				"element": "N" 
			},
			{
				"x": 0.2085706434,
				"y": 0.1961419235,
				"z": 0.3357185182,
				"element": "C" 
			},
			{
				"x": 1.4508488903,
				"y": 0.0075641865,
				"z": 0.9085249576,
				"element": "C" 
			},
			{
				"x": 1.7318380245,
				"y": 0.2656577079,
				"z": 2.3628684454,
				"element": "C" 
			},
			{
				"x": 0.4169531038,
				"y": 0.4643771029,
				"z": 3.1418178968,
				"element": "C" 
			},
			{
				"x": -0.5737287245,
				"y": 1.3580369165,
				"z": 2.3783834443,
				"element": "C" 
			},
			{
				"x": -1.0081295148,
				"y": 0.7101175995,
				"z": 1.0476113,
				"element": "C" 
			},
			{
				"x": -0.6201068096,
				"y": -0.0358219165,
				"z": -2.0485757632,
				"element": "C" 
			},
			{
				"x": -0.1979222609,
				"y": 0.3375041667,
				"z": -3.3304346911,
				"element": "C" 
			},
			{
				"x": -1.1176315858,
				"y": 0.4117878152,
				"z": -4.3719687944,
				"element": "C" 
			},
			{
				"x": -2.4600565447,
				"y": 0.1200984806,
				"z": -4.1272940865,
				"element": "C" 
			},
			{
				"x": -3.7252595342,
				"y": 0.2368768142,
				"z": -5.5523802567,
				"element": "Br" 
			},
			{
				"x": -2.8884611254,
				"y": -0.2616434178,
				"z": -2.8584017675,
				"element": "C" 
			},
			{
				"x": -1.9632108237,
				"y": -0.3488343397,
				"z": -1.8181858322,
				"element": "C" 
			},
			{
				"x": 5.2044589582,
				"y": -0.8702213256,
				"z": 0.9477529213,
				"element": "H" 
			},
			{
				"x": 2.364220948,
				"y": 1.1585189229,
				"z": 2.4599955805,
				"element": "H" 
			},
			{
				"x": 2.3151931138,
				"y": -0.5543543479,
				"z": 2.7925015397,
				"element": "H" 
			},
			{
				"x": -0.0512118763,
				"y": -0.5126091209,
				"z": 3.3228830534,
				"element": "H" 
			},
			{
				"x": 0.6328716005,
				"y": 0.894948843,
				"z": 4.1254726311,
				"element": "H" 
			},
			{
				"x": -1.4600643969,
				"y": 1.5574182642,
				"z": 2.9900068953,
				"element": "H" 
			},
			{
				"x": -0.1046276565,
				"y": 2.3284581258,
				"z": 2.1711654758,
				"element": "H" 
			},
			{
				"x": -1.5534335976,
				"y": 1.4292010828,
				"z": 0.4255208406,
				"element": "H" 
			},
			{
				"x": -1.7086361397,
				"y": -0.1100608729,
				"z": 1.2600610253,
				"element": "H" 
			},
			{
				"x": 0.8500561469,
				"y": 0.5549471732,
				"z": -3.4972720375,
				"element": "H" 
			},
			{
				"x": -0.7943715869,
				"y": 0.7009315053,
				"z": -5.3652589069,
				"element": "H" 
			},
			{
				"x": -3.9299816639,
				"y": -0.5047431944,
				"z": -2.6831225748,
				"element": "H" 
			},
			{
				"x": -2.2909185699,
				"y": -0.6858188961,
				"z": -0.8426134022,
				"element": "H" 
			}
		],
		 "valence_orbital": [ 
			{
				"type": "occ",
				"energy": -0.27605,
				"method": "rhf"
			},
			{
				"type": "occ",
				"energy": -0.27378,
				"method": "rhf"
			},
			{
				"type": "occ",
				"energy": -0.27,
				"method": "rhf"
			},
			{
				"type": "occ",
				"energy": -0.2452,
				"method": "rhf"
			},
			{
				"type": "occ",
				"energy": -0.23172,
				"method": "rhf"
			},
			{
				"type": "unocc",
				"energy": -0.04567,
				"method": "rhf"
			},
			{
				"type": "unocc",
				"energy": -0.02465,
				"method": "rhf"
			},
			{
				"type": "unocc",
				"energy": -0.01081,
				"method": "rhf"
			},
			{
				"type": "unocc",
				"energy": 0.00221,
				"method": "rhf"
			},
			{
				"type": "unocc",
				"energy": 0.02999,
				"method": "rhf"
			}
		],
		"cosmo_sigma_profile": { 
			"-0.025": 0.0,
			"-0.024": 0.0,
			"-0.023": 0.0,
			"-0.022": 0.0,
			"-0.021": 0.0,
			"-0.02": 0.0,
			"-0.019": 0.0411737250431,
			"-0.018": 0.965459730075,
			"-0.017": 0.641545725038,
			"-0.016": 0.723188885072,
			"-0.015": 1.09474913573,
			"-0.014": 0.432168834035,
			"-0.013": 0.171544956002,
			"-0.012": 0.515788978314,
			"-0.011": 1.22367202141,
			"-0.01": 0.825295583519,
			"-0.009": 0.455694953625,
			"-0.008": 4.23484035919,
			"-0.007": 7.97831565407,
			"-0.006": 9.60556531872,
			"-0.005": 10.6338448976,
			"-0.004": 15.0084802618,
			"-0.003": 28.5801689986,
			"-0.002": 33.6393902805,
			"-0.001": 30.6750722595,
			"0.0": 28.4342759103,
			"0.001": 24.5149857603,
			"0.002": 29.0346789312,
			"0.003": 18.3686852562,
			"0.004": 16.031950798,
			"0.005": 7.84838476094,
			"0.006": 4.85759230487,
			"0.007": 2.69597497031,
			"0.008": 2.18496243724,
			"0.009": 2.49173077349,
			"0.01": 2.65401861441,
			"0.011": 4.27291175721,
			"0.012": 5.15516745404,
			"0.013": 2.48355395165,
			"0.014": 1.70934904136,
			"0.015": 1.41939024184,
			"0.016": 0.0219891339441,
			"0.017": 0.0,
			"0.018": 0.0,
			"0.019": 0.0,
			"0.02": 0.0,
			"0.021": 0.0,
			"0.022": 0.0,
			"0.023": 0.0,
			"0.024": 0.0,
			"0.025": 0.0
		}
	}
}
