{
	 "smiles": "FC(F)(F)C1=NC(S)=NC=C1", 
	 "Tm": 437.15, 
	 "num_atms": 14, 
	 "gaussian": { 
		 "optdone": 1, 
		 "sigma_profile": "yes", 
		 "theory": "DFT", 
		 "functional": "B3LYP", 
		 "basiset": "6-31G**", 
		 "properties": { 
			 "R2extent": 4060.7824, 
			 "electric_dipole_moment_norm": 1.69014573632, 
			 "electric_quadrupole_moment_norm": 9.37538867888, 
			 "total_energy": -999.542798916, 
			 "HOMO_LUMO_gap": 0.18504, 
			 "cosmo_polarized_energy": -7.3, 
			 "cosmo_cavitation_energy": 22.28, 
			 "cosmo_dispersion_energy": -16.59, 
			 "cosmo_repulsion_energy": 1.24, 
			 "cosmo_total_nonelectrostatic_energy": 6.93, 
			 "SMD_solvation_energy": 2.03 
		},
		"coords": [
			{
				"x": -1.5227978199,
				"y": 2.6174383604,
				"z": -4.0636104317,
				"element": "F" 
			},
			{
				"x": -0.3010992086,
				"y": 2.3927632182,
				"z": -3.5507162452,
				"element": "C" 
			},
			{
				"x": 0.4266952877,
				"y": 1.7506136884,
				"z": -4.4801070336,
				"element": "F" 
			},
			{
				"x": 0.2798108494,
				"y": 3.5906167433,
				"z": -3.3244149485,
				"element": "F" 
			},
			{
				"x": -0.3895487405,
				"y": 1.5789541202,
				"z": -2.270856538,
				"element": "C" 
			},
			{
				"x": -0.9524609345,
				"y": 0.3754939509,
				"z": -2.403756667,
				"element": "N" 
			},
			{
				"x": -1.0375407624,
				"y": -0.35286413,
				"z": -1.286271512,
				"element": "C" 
			},
			{
				"x": -1.7721246461,
				"y": -1.9640738814,
				"z": -1.3748233954,
				"element": "S" 
			},
			{
				"x": -0.6181950541,
				"y": 0.0034688384,
				"z": -0.0623944043,
				"element": "N" 
			},
			{
				"x": -0.0614027057,
				"y": 1.210258284,
				"z": 0.0349137175,
				"element": "C" 
			},
			{
				"x": 0.0857259178,
				"y": 2.06693295,
				"z": -1.0593586494,
				"element": "C" 
			},
			{
				"x": -2.0254522927,
				"y": -1.8993606488,
				"z": -2.6960222635,
				"element": "H" 
			},
			{
				"x": 0.2806976315,
				"y": 1.5050281487,
				"z": 1.0250161891,
				"element": "H" 
			},
			{
				"x": 0.538992478,
				"y": 3.0452303578,
				"z": -0.9716978182,
				"element": "H" 
			}
		],
		 "valence_orbital": [ 
			{
				"type": "occ",
				"energy": -0.3415,
				"method": "rhf"
			},
			{
				"type": "occ",
				"energy": -0.33431,
				"method": "rhf"
			},
			{
				"type": "occ",
				"energy": -0.32694,
				"method": "rhf"
			},
			{
				"type": "occ",
				"energy": -0.27881,
				"method": "rhf"
			},
			{
				"type": "occ",
				"energy": -0.25648,
				"method": "rhf"
			},
			{
				"type": "unocc",
				"energy": -0.07144,
				"method": "rhf"
			},
			{
				"type": "unocc",
				"energy": -0.04771,
				"method": "rhf"
			},
			{
				"type": "unocc",
				"energy": 0.01102,
				"method": "rhf"
			},
			{
				"type": "unocc",
				"energy": 0.07249,
				"method": "rhf"
			},
			{
				"type": "unocc",
				"energy": 0.09308,
				"method": "rhf"
			}
		],
		"cosmo_sigma_profile": { 
			"-0.025": 0.0,
			"-0.024": 0.0,
			"-0.023": 0.0,
			"-0.022": 0.0,
			"-0.021": 0.0,
			"-0.02": 0.0,
			"-0.019": 0.0,
			"-0.018": 0.0,
			"-0.017": 0.0,
			"-0.016": 0.0,
			"-0.015": 0.0,
			"-0.014": 0.0,
			"-0.013": 0.0,
			"-0.012": 0.23351016794,
			"-0.011": 1.54524744334,
			"-0.01": 1.4267933273,
			"-0.009": 5.02956906217,
			"-0.008": 5.49765573929,
			"-0.007": 5.18224717311,
			"-0.006": 4.47917392738,
			"-0.005": 7.81146446553,
			"-0.004": 9.41144152033,
			"-0.003": 10.6709577636,
			"-0.002": 11.8075352114,
			"-0.001": 11.7157806736,
			"0.0": 11.1407119558,
			"0.001": 13.5989362421,
			"0.002": 32.8387220445,
			"0.003": 19.7372809605,
			"0.004": 7.24434479647,
			"0.005": 7.21989868732,
			"0.006": 6.23552404169,
			"0.007": 3.59676402759,
			"0.008": 1.46742032792,
			"0.009": 1.68044843974,
			"0.01": 0.878124200073,
			"0.011": 0.811326880727,
			"0.012": 0.761961923268,
			"0.013": 0.63116260513,
			"0.014": 0.015229447242,
			"0.015": 0.0,
			"0.016": 0.0,
			"0.017": 0.0,
			"0.018": 0.0,
			"0.019": 0.0,
			"0.02": 0.0,
			"0.021": 0.0,
			"0.022": 0.0,
			"0.023": 0.0,
			"0.024": 0.0,
			"0.025": 0.0
		}
	}
}
