{
	 "smiles": "CCOC(=O)C1=NN(CO)C(C)=C1", 
	 "Tm": 344.15, 
	 "num_atms": 25, 
	 "gaussian": { 
		 "optdone": 1, 
		 "sigma_profile": "yes", 
		 "theory": "DFT", 
		 "functional": "B3LYP", 
		 "basiset": "6-31G**", 
		 "properties": { 
			 "R2extent": 3654.8107, 
			 "electric_dipole_moment_norm": 2.97095054149, 
			 "electric_quadrupole_moment_norm": 9.50594732628, 
			 "total_energy": -647.250475302, 
			 "HOMO_LUMO_gap": 0.22195, 
			 "cosmo_polarized_energy": -15.54, 
			 "cosmo_cavitation_energy": 29.6, 
			 "cosmo_dispersion_energy": -21.13, 
			 "cosmo_repulsion_energy": 1.72, 
			 "cosmo_total_nonelectrostatic_energy": 10.19, 
			 "SMD_solvation_energy": 5.45 
		},
		"coords": [
			{
				"x": 2.9134616575,
				"y": -4.4333590378,
				"z": -1.3564142946,
				"element": "C" 
			},
			{
				"x": 3.0479909591,
				"y": -3.4985082642,
				"z": -0.1631094197,
				"element": "C" 
			},
			{
				"x": 2.401556001,
				"y": -2.2297909738,
				"z": -0.4115872725,
				"element": "O" 
			},
			{
				"x": 1.0706809694,
				"y": -2.1735654415,
				"z": -0.1470982251,
				"element": "C" 
			},
			{
				"x": 0.4209494632,
				"y": -3.1046793338,
				"z": 0.2791602562,
				"element": "O" 
			},
			{
				"x": 0.546221403,
				"y": -0.8217873791,
				"z": -0.4466435202,
				"element": "C" 
			},
			{
				"x": -0.7500121081,
				"y": -0.55749137,
				"z": -0.2647101512,
				"element": "N" 
			},
			{
				"x": -0.8873477947,
				"y": 0.7303001352,
				"z": -0.6386504671,
				"element": "N" 
			},
			{
				"x": -2.1756529417,
				"y": 1.3777388883,
				"z": -0.4475798904,
				"element": "C" 
			},
			{
				"x": -2.2296541607,
				"y": 2.157618765,
				"z": 0.7196844878,
				"element": "O" 
			},
			{
				"x": 0.2967276734,
				"y": 1.3074785955,
				"z": -1.0329008925,
				"element": "C" 
			},
			{
				"x": 0.3955170188,
				"y": 2.737852952,
				"z": -1.4577429575,
				"element": "C" 
			},
			{
				"x": 1.2472897749,
				"y": 0.3138200612,
				"z": -0.926891205,
				"element": "C" 
			},
			{
				"x": 3.474673229,
				"y": -5.3556525449,
				"z": -1.1719932905,
				"element": "H" 
			},
			{
				"x": 1.8655682997,
				"y": -4.696139876,
				"z": -1.5196505214,
				"element": "H" 
			},
			{
				"x": 3.3078683566,
				"y": -3.9665303036,
				"z": -2.2639212467,
				"element": "H" 
			},
			{
				"x": 4.0927304295,
				"y": -3.2397843912,
				"z": 0.0268464468,
				"element": "H" 
			},
			{
				"x": 2.615129212,
				"y": -3.9452487687,
				"z": 0.7352834978,
				"element": "H" 
			},
			{
				"x": -2.9145939135,
				"y": 0.5704553452,
				"z": -0.4614351987,
				"element": "H" 
			},
			{
				"x": -2.357919887,
				"y": 2.060745427,
				"z": -1.2798572592,
				"element": "H" 
			},
			{
				"x": -2.1493356854,
				"y": 1.5591107411,
				"z": 1.4757737547,
				"element": "H" 
			},
			{
				"x": -0.0144042492,
				"y": 3.4064790248,
				"z": -0.6937483631,
				"element": "H" 
			},
			{
				"x": 1.4414247836,
				"y": 3.003783419,
				"z": -1.6235053542,
				"element": "H" 
			},
			{
				"x": -0.1479972323,
				"y": 2.9264302038,
				"z": -2.3915366475,
				"element": "H" 
			},
			{
				"x": 2.2981287419,
				"y": 0.3836241264,
				"z": -1.1609722663,
				"element": "H" 
			}
		],
		 "valence_orbital": [ 
			{
				"type": "occ",
				"energy": -0.29545,
				"method": "rhf"
			},
			{
				"type": "occ",
				"energy": -0.28999,
				"method": "rhf"
			},
			{
				"type": "occ",
				"energy": -0.26366,
				"method": "rhf"
			},
			{
				"type": "occ",
				"energy": -0.25885,
				"method": "rhf"
			},
			{
				"type": "occ",
				"energy": -0.24651,
				"method": "rhf"
			},
			{
				"type": "unocc",
				"energy": -0.02456,
				"method": "rhf"
			},
			{
				"type": "unocc",
				"energy": 0.02357,
				"method": "rhf"
			},
			{
				"type": "unocc",
				"energy": 0.07399,
				"method": "rhf"
			},
			{
				"type": "unocc",
				"energy": 0.09368,
				"method": "rhf"
			},
			{
				"type": "unocc",
				"energy": 0.11256,
				"method": "rhf"
			}
		],
		"cosmo_sigma_profile": { 
			"-0.025": 0.0,
			"-0.024": 0.0,
			"-0.023": 0.0,
			"-0.022": 0.0,
			"-0.021": 0.0,
			"-0.02": 0.0,
			"-0.019": 0.0,
			"-0.018": 0.0,
			"-0.017": 0.322762582724,
			"-0.016": 0.760464542496,
			"-0.015": 1.0005799733,
			"-0.014": 1.31952074004,
			"-0.013": 0.854535461398,
			"-0.012": 0.281283177057,
			"-0.011": 0.585094386907,
			"-0.01": 0.828736285129,
			"-0.009": 0.879220070028,
			"-0.008": 3.01831339414,
			"-0.007": 7.35008748725,
			"-0.006": 10.4270772085,
			"-0.005": 16.0769482875,
			"-0.004": 19.1622867102,
			"-0.003": 21.5055168932,
			"-0.002": 23.1489206153,
			"-0.001": 20.1371814478,
			"0.0": 18.2729705564,
			"0.001": 11.4951739281,
			"0.002": 12.60091189,
			"0.003": 11.3055622575,
			"0.004": 8.48337564983,
			"0.005": 5.67234310592,
			"0.006": 4.81361477269,
			"0.007": 4.37121204029,
			"0.008": 3.53956561601,
			"0.009": 2.91282831711,
			"0.01": 3.39567373076,
			"0.011": 5.33132491522,
			"0.012": 6.03987239971,
			"0.013": 3.28988864702,
			"0.014": 2.15142576233,
			"0.015": 1.67796260917,
			"0.016": 0.298450070208,
			"0.017": 0.0,
			"0.018": 0.0,
			"0.019": 0.0,
			"0.02": 0.0,
			"0.021": 0.0,
			"0.022": 0.0,
			"0.023": 0.0,
			"0.024": 0.0,
			"0.025": 0.0
		}
	}
}
