{
	 "smiles": "CC1=NN(C(=O)C1)C1=CC(Cl)=C(Cl)C=C1", 
	 "Tm": 432.15, 
	 "num_atms": 23, 
	 "gaussian": { 
		 "optdone": 1, 
		 "sigma_profile": "yes", 
		 "theory": "DFT", 
		 "functional": "B3LYP", 
		 "basiset": "6-31G**", 
		 "properties": { 
			 "R2extent": 7656.353, 
			 "electric_dipole_moment_norm": 5.59056646325, 
			 "electric_quadrupole_moment_norm": 8.52436372288, 
			 "total_energy": -1490.98314496, 
			 "HOMO_LUMO_gap": 0.179, 
			 "cosmo_polarized_energy": -10.91, 
			 "cosmo_cavitation_energy": 31.06, 
			 "cosmo_dispersion_energy": -23.22, 
			 "cosmo_repulsion_energy": 1.82, 
			 "cosmo_total_nonelectrostatic_energy": 9.66, 
			 "SMD_solvation_energy": 4.84 
		},
		"coords": [
			{
				"x": 1.0946493166,
				"y": 1.6119596987,
				"z": -1.8338769975,
				"element": "C" 
			},
			{
				"x": 0.9074474073,
				"y": 0.695403799,
				"z": -0.6711976331,
				"element": "C" 
			},
			{
				"x": -0.0526941092,
				"y": -0.1616072351,
				"z": -0.6334593909,
				"element": "N" 
			},
			{
				"x": 0.0291420107,
				"y": -0.8728383106,
				"z": 0.5722431546,
				"element": "N" 
			},
			{
				"x": 1.1001649905,
				"y": -0.4602745904,
				"z": 1.3679081535,
				"element": "C" 
			},
			{
				"x": 1.4196058811,
				"y": -0.8916464678,
				"z": 2.4597281654,
				"element": "O" 
			},
			{
				"x": 1.7693634343,
				"y": 0.6462102097,
				"z": 0.5566645929,
				"element": "C" 
			},
			{
				"x": -0.931324488,
				"y": -1.8759638357,
				"z": 0.8340602438,
				"element": "C" 
			},
			{
				"x": -1.929115646,
				"y": -2.1247860074,
				"z": -0.116727012,
				"element": "C" 
			},
			{
				"x": -2.8871059844,
				"y": -3.1084611961,
				"z": 0.1182353324,
				"element": "C" 
			},
			{
				"x": -4.1100316569,
				"y": -3.3774797286,
				"z": -1.102334749,
				"element": "Cl" 
			},
			{
				"x": -2.8625117914,
				"y": -3.8554984297,
				"z": 1.3024343406,
				"element": "C" 
			},
			{
				"x": -4.0453398058,
				"y": -5.0975868856,
				"z": 1.6347690718,
				"element": "Cl" 
			},
			{
				"x": -1.8631193283,
				"y": -3.5981581998,
				"z": 2.2423545168,
				"element": "C" 
			},
			{
				"x": -0.8991202433,
				"y": -2.6200197329,
				"z": 2.0239861769,
				"element": "C" 
			},
			{
				"x": 1.0423076123,
				"y": 2.66045824,
				"z": -1.5174198388,
				"element": "H" 
			},
			{
				"x": 0.322777421,
				"y": 1.4292677859,
				"z": -2.5839236,
				"element": "H" 
			},
			{
				"x": 2.079257277,
				"y": 1.4644844069,
				"z": -2.2932603394,
				"element": "H" 
			},
			{
				"x": 2.8138154995,
				"y": 0.3912105826,
				"z": 0.3439007262,
				"element": "H" 
			},
			{
				"x": 1.7773005677,
				"y": 1.5866490288,
				"z": 1.1194104502,
				"element": "H" 
			},
			{
				"x": -1.9561371149,
				"y": -1.5532101072,
				"z": -1.0337222967,
				"element": "H" 
			},
			{
				"x": -1.8442438965,
				"y": -4.1767161733,
				"z": 3.1592848178,
				"element": "H" 
			},
			{
				"x": -0.1308873535,
				"y": -2.4309968514,
				"z": 2.7600421145,
				"element": "H" 
			}
		],
		 "valence_orbital": [ 
			{
				"type": "occ",
				"energy": -0.30504,
				"method": "rhf"
			},
			{
				"type": "occ",
				"energy": -0.28045,
				"method": "rhf"
			},
			{
				"type": "occ",
				"energy": -0.26943,
				"method": "rhf"
			},
			{
				"type": "occ",
				"energy": -0.25548,
				"method": "rhf"
			},
			{
				"type": "occ",
				"energy": -0.22245,
				"method": "rhf"
			},
			{
				"type": "unocc",
				"energy": -0.04345,
				"method": "rhf"
			},
			{
				"type": "unocc",
				"energy": -0.02783,
				"method": "rhf"
			},
			{
				"type": "unocc",
				"energy": -0.01712,
				"method": "rhf"
			},
			{
				"type": "unocc",
				"energy": 0.00761,
				"method": "rhf"
			},
			{
				"type": "unocc",
				"energy": 0.04027,
				"method": "rhf"
			}
		],
		"cosmo_sigma_profile": { 
			"-0.025": 0.0,
			"-0.024": 0.0,
			"-0.023": 0.0,
			"-0.022": 0.0,
			"-0.021": 0.0,
			"-0.02": 0.0,
			"-0.019": 0.0,
			"-0.018": 0.0,
			"-0.017": 0.0,
			"-0.016": 0.0,
			"-0.015": 0.0,
			"-0.014": 0.0,
			"-0.013": 0.0,
			"-0.012": 0.0,
			"-0.011": 0.0,
			"-0.01": 0.0,
			"-0.009": 3.19518529764,
			"-0.008": 7.69453826117,
			"-0.007": 8.04341859988,
			"-0.006": 13.7216212357,
			"-0.005": 14.3519003575,
			"-0.004": 12.8539433666,
			"-0.003": 14.627916532,
			"-0.002": 16.8183694928,
			"-0.001": 18.1818574557,
			"0.0": 20.8373479177,
			"0.001": 29.380525512,
			"0.002": 25.3132651369,
			"0.003": 18.9456845573,
			"0.004": 19.7455322733,
			"0.005": 9.45973748331,
			"0.006": 3.91556096986,
			"0.007": 3.14916279208,
			"0.008": 2.61335288269,
			"0.009": 2.08610625434,
			"0.01": 2.3748484061,
			"0.011": 2.77787242716,
			"0.012": 2.80778661566,
			"0.013": 0.884107344521,
			"0.014": 0.0,
			"0.015": 0.0,
			"0.016": 0.0,
			"0.017": 0.0,
			"0.018": 0.0,
			"0.019": 0.0,
			"0.02": 0.0,
			"0.021": 0.0,
			"0.022": 0.0,
			"0.023": 0.0,
			"0.024": 0.0,
			"0.025": 0.0
		}
	}
}
