{
	 "smiles": "NC(C(O)=O)C1=CC2=C(C=CC=C2)C=C1", 
	 "Tm": 525.15, 
	 "num_atms": 26, 
	 "gaussian": { 
		 "optdone": 1, 
		 "sigma_profile": "yes", 
		 "theory": "DFT", 
		 "functional": "B3LYP", 
		 "basiset": "6-31G**", 
		 "properties": { 
			 "R2extent": 4074.6545, 
			 "electric_dipole_moment_norm": 4.34750511443, 
			 "electric_quadrupole_moment_norm": 17.4180416161, 
			 "total_energy": -669.121251672, 
			 "HOMO_LUMO_gap": 0.17635, 
			 "cosmo_polarized_energy": -15.92, 
			 "cosmo_cavitation_energy": 29.88, 
			 "cosmo_dispersion_energy": -21.59, 
			 "cosmo_repulsion_energy": 1.68, 
			 "cosmo_total_nonelectrostatic_energy": 9.96, 
			 "SMD_solvation_energy": 4.47 
		},
		"coords": [
			{
				"x": -1.4512084576,
				"y": 0.014989739,
				"z": 1.8970826816,
				"element": "N" 
			},
			{
				"x": -0.4435183431,
				"y": -0.9028186675,
				"z": 1.3770973909,
				"element": "C" 
			},
			{
				"x": -1.0177415392,
				"y": -2.3119246802,
				"z": 1.0782443289,
				"element": "C" 
			},
			{
				"x": -0.1827868647,
				"y": -3.1673176734,
				"z": 0.4443326702,
				"element": "O" 
			},
			{
				"x": -2.114841739,
				"y": -2.6661571033,
				"z": 1.436121045,
				"element": "O" 
			},
			{
				"x": 0.2845718161,
				"y": -0.3315198804,
				"z": 0.1717118662,
				"element": "C" 
			},
			{
				"x": 1.6187212938,
				"y": 0.0164963684,
				"z": 0.2387879324,
				"element": "C" 
			},
			{
				"x": 2.3045738087,
				"y": 0.5587239619,
				"z": -0.8825524736,
				"element": "C" 
			},
			{
				"x": 1.5874116144,
				"y": 0.7452797888,
				"z": -2.1082572065,
				"element": "C" 
			},
			{
				"x": 2.2703167715,
				"y": 1.2871225524,
				"z": -3.2293032982,
				"element": "C" 
			},
			{
				"x": 3.6009978317,
				"y": 1.6314875027,
				"z": -3.1429344782,
				"element": "C" 
			},
			{
				"x": 4.3098177575,
				"y": 1.4490864222,
				"z": -1.9302039684,
				"element": "C" 
			},
			{
				"x": 3.6759837878,
				"y": 0.924584029,
				"z": -0.8258249455,
				"element": "C" 
			},
			{
				"x": 0.2149325123,
				"y": 0.3759283987,
				"z": -2.157220567,
				"element": "C" 
			},
			{
				"x": -0.4172399894,
				"y": -0.1481782006,
				"z": -1.0554816652,
				"element": "C" 
			},
			{
				"x": -2.1182210264,
				"y": -0.5330826716,
				"z": 2.4392760516,
				"element": "H" 
			},
			{
				"x": -1.9839715099,
				"y": 0.4041580439,
				"z": 1.1224365028,
				"element": "H" 
			},
			{
				"x": 0.30365607,
				"y": -1.0734811211,
				"z": 2.1678567177,
				"element": "H" 
			},
			{
				"x": 0.6128972983,
				"y": -2.6875287077,
				"z": 0.1628749214,
				"element": "H" 
			},
			{
				"x": 2.1634068277,
				"y": -0.1067584584,
				"z": 1.1723241755,
				"element": "H" 
			},
			{
				"x": 1.7239220566,
				"y": 1.4264193173,
				"z": -4.1584712562,
				"element": "H" 
			},
			{
				"x": 4.1131474918,
				"y": 2.0457841457,
				"z": -4.0063494861,
				"element": "H" 
			},
			{
				"x": 5.3584892126,
				"y": 1.7259986874,
				"z": -1.8750551959,
				"element": "H" 
			},
			{
				"x": 4.2177697632,
				"y": 0.7851533999,
				"z": 0.1060784915,
				"element": "H" 
			},
			{
				"x": -0.3302163858,
				"y": 0.5085468919,
				"z": -3.088076866,
				"element": "H" 
			},
			{
				"x": -1.4634700587,
				"y": -0.4376920851,
				"z": -1.120393369,
				"element": "H" 
			}
		],
		 "valence_orbital": [ 
			{
				"type": "occ",
				"energy": -0.29988,
				"method": "rhf"
			},
			{
				"type": "occ",
				"energy": -0.28057,
				"method": "rhf"
			},
			{
				"type": "occ",
				"energy": -0.25742,
				"method": "rhf"
			},
			{
				"type": "occ",
				"energy": -0.24346,
				"method": "rhf"
			},
			{
				"type": "occ",
				"energy": -0.23068,
				"method": "rhf"
			},
			{
				"type": "unocc",
				"energy": -0.05433,
				"method": "rhf"
			},
			{
				"type": "unocc",
				"energy": -0.02792,
				"method": "rhf"
			},
			{
				"type": "unocc",
				"energy": 0.00605,
				"method": "rhf"
			},
			{
				"type": "unocc",
				"energy": 0.01846,
				"method": "rhf"
			},
			{
				"type": "unocc",
				"energy": 0.07368,
				"method": "rhf"
			}
		],
		"cosmo_sigma_profile": { 
			"-0.025": 0.0,
			"-0.024": 0.0,
			"-0.023": 0.0,
			"-0.022": 0.0,
			"-0.021": 0.0,
			"-0.02": 0.0,
			"-0.019": 0.0,
			"-0.018": 0.0,
			"-0.017": 0.0,
			"-0.016": 0.209259495108,
			"-0.015": 0.688178285759,
			"-0.014": 0.683185244493,
			"-0.013": 1.14643215497,
			"-0.012": 1.40367141405,
			"-0.011": 1.09601430826,
			"-0.01": 2.42855053407,
			"-0.009": 3.56630762422,
			"-0.008": 5.49427976384,
			"-0.007": 10.3709235869,
			"-0.006": 19.1042013805,
			"-0.005": 19.2218557654,
			"-0.004": 15.9574819117,
			"-0.003": 13.3502495625,
			"-0.002": 12.6204724178,
			"-0.001": 11.4269475944,
			"0.0": 9.36766139436,
			"0.001": 11.4541280933,
			"0.002": 12.916339982,
			"0.003": 19.1774652553,
			"0.004": 19.5638613582,
			"0.005": 11.3168789225,
			"0.006": 3.51056042475,
			"0.007": 2.98731807116,
			"0.008": 3.94244662673,
			"0.009": 4.03971869762,
			"0.01": 5.72853885899,
			"0.011": 5.81976801978,
			"0.012": 4.36341326044,
			"0.013": 1.63690580582,
			"0.014": 0.558089670989,
			"0.015": 0.460824299517,
			"0.016": 0.438238582735,
			"0.017": 0.998985862389,
			"0.018": 0.473902042113,
			"0.019": 0.233221692372,
			"0.02": 0.0,
			"0.021": 0.0,
			"0.022": 0.0,
			"0.023": 0.0,
			"0.024": 0.0,
			"0.025": 0.0
		}
	}
}
