{
	 "smiles": "IC1=CC=C(OCC2=NC=CC=C2)C=C1", 
	 "Tm": 348.15, 
	 "num_atms": 25, 
	 "gaussian": { 
		 "optdone": 1, 
		 "sigma_profile": "yes", 
		 "theory": "DFT", 
		 "functional": "B3LYP", 
		 "basiset": "6-31G**", 
		 "properties": { 
			 "R2extent": 5309.4732, 
			 "electric_dipole_moment_norm": 3.14418551138, 
			 "electric_quadrupole_moment_norm": 9.51555565062, 
			 "total_energy": -604.651200339, 
			 "HOMO_LUMO_gap": 0.18673, 
			 "cosmo_polarized_energy": -8.45, 
			 "cosmo_cavitation_energy": 32.87, 
			 "cosmo_dispersion_energy": -25.61, 
			 "cosmo_repulsion_energy": 1.96, 
			 "cosmo_total_nonelectrostatic_energy": 9.22, 
			 "SMD_solvation_energy": 3.45 
		},
		"coords": [
			{
				"x": 4.7304898999,
				"y": 3.3603361918,
				"z": -3.7992394071,
				"element": "I" 
			},
			{
				"x": 3.5164984109,
				"y": 2.2054630526,
				"z": -2.4987517403,
				"element": "C" 
			},
			{
				"x": 4.0538631886,
				"y": 1.7068959201,
				"z": -1.3070480775,
				"element": "C" 
			},
			{
				"x": 3.2556976098,
				"y": 0.9505396112,
				"z": -0.4570742642,
				"element": "C" 
			},
			{
				"x": 1.9183080915,
				"y": 0.684882614,
				"z": -0.7860393669,
				"element": "C" 
			},
			{
				"x": 1.2246977454,
				"y": -0.0660033998,
				"z": 0.1166315341,
				"element": "O" 
			},
			{
				"x": -0.135973303,
				"y": -0.3718867263,
				"z": -0.1545738444,
				"element": "C" 
			},
			{
				"x": -0.7052819588,
				"y": -1.2063859547,
				"z": 0.9714451171,
				"element": "C" 
			},
			{
				"x": -1.9904381922,
				"y": -1.5481099331,
				"z": 0.7970013231,
				"element": "N" 
			},
			{
				"x": -2.5725558946,
				"y": -2.28648964,
				"z": 1.7469884405,
				"element": "C" 
			},
			{
				"x": -1.9158681735,
				"y": -2.7163256777,
				"z": 2.901722997,
				"element": "C" 
			},
			{
				"x": -0.5808395418,
				"y": -2.3546016733,
				"z": 3.0709543043,
				"element": "C" 
			},
			{
				"x": 0.0422078941,
				"y": -1.5840689775,
				"z": 2.089150897,
				"element": "C" 
			},
			{
				"x": 1.38624063,
				"y": 1.1862357939,
				"z": -1.979458799,
				"element": "C" 
			},
			{
				"x": 2.1901178764,
				"y": 1.9472880783,
				"z": -2.8342960036,
				"element": "C" 
			},
			{
				"x": 5.0861172507,
				"y": 1.9051919636,
				"z": -1.0411780808,
				"element": "H" 
			},
			{
				"x": 3.6528248112,
				"y": 0.5545519325,
				"z": 0.4718448421,
				"element": "H" 
			},
			{
				"x": -0.7282716104,
				"y": 0.5482979656,
				"z": -0.2560802413,
				"element": "H" 
			},
			{
				"x": -0.2288052051,
				"y": -0.9283169643,
				"z": -1.097736261,
				"element": "H" 
			},
			{
				"x": -3.6157450621,
				"y": -2.5476409173,
				"z": 1.5768259312,
				"element": "H" 
			},
			{
				"x": -2.4388684906,
				"y": -3.3148505195,
				"z": 3.6407074916,
				"element": "H" 
			},
			{
				"x": -0.0299425662,
				"y": -2.6665278203,
				"z": 3.953817003,
				"element": "H" 
			},
			{
				"x": 1.0774651714,
				"y": -1.2785710271,
				"z": 2.1763081561,
				"element": "H" 
			},
			{
				"x": 0.3570035962,
				"y": 0.9970307429,
				"z": -2.2591769942,
				"element": "H" 
			},
			{
				"x": 1.7692578222,
				"y": 2.3315653644,
				"z": -3.7567449568,
				"element": "H" 
			}
		],
		 "valence_orbital": [ 
			{
				"type": "occ",
				"energy": -0.26575,
				"method": "rhf"
			},
			{
				"type": "occ",
				"energy": -0.26524,
				"method": "rhf"
			},
			{
				"type": "occ",
				"energy": -0.26226,
				"method": "rhf"
			},
			{
				"type": "occ",
				"energy": -0.26039,
				"method": "rhf"
			},
			{
				"type": "occ",
				"energy": -0.22174,
				"method": "rhf"
			},
			{
				"type": "unocc",
				"energy": -0.03501,
				"method": "rhf"
			},
			{
				"type": "unocc",
				"energy": -0.03095,
				"method": "rhf"
			},
			{
				"type": "unocc",
				"energy": -0.01743,
				"method": "rhf"
			},
			{
				"type": "unocc",
				"energy": -0.01152,
				"method": "rhf"
			},
			{
				"type": "unocc",
				"energy": -0.00485,
				"method": "rhf"
			}
		],
		"cosmo_sigma_profile": { 
			"-0.025": 0.0,
			"-0.024": 0.0,
			"-0.023": 0.0,
			"-0.022": 0.0,
			"-0.021": 0.0,
			"-0.02": 0.0,
			"-0.019": 0.0,
			"-0.018": 0.0,
			"-0.017": 0.0,
			"-0.016": 0.0,
			"-0.015": 0.0,
			"-0.014": 0.0,
			"-0.013": 0.0,
			"-0.012": 0.0,
			"-0.011": 0.0,
			"-0.01": 0.0,
			"-0.009": 0.0,
			"-0.008": 0.655894352283,
			"-0.007": 9.86273796525,
			"-0.006": 21.6984003625,
			"-0.005": 21.90731045,
			"-0.004": 17.2556758221,
			"-0.003": 15.8100014777,
			"-0.002": 14.0722559637,
			"-0.001": 14.5620494895,
			"0.0": 16.3107326538,
			"0.001": 20.9015554834,
			"0.002": 28.1417110045,
			"0.003": 34.3831865993,
			"0.004": 27.5228663306,
			"0.005": 15.0583653739,
			"0.006": 2.02061746021,
			"0.007": 1.51776508462,
			"0.008": 1.456448934,
			"0.009": 0.939480211535,
			"0.01": 0.470093305984,
			"0.011": 1.16941675302,
			"0.012": 0.781646854218,
			"0.013": 0.550931893813,
			"0.014": 0.671080390511,
			"0.015": 0.895635389043,
			"0.016": 0.347070536432,
			"0.017": 0.0367111120006,
			"0.018": 0.0,
			"0.019": 0.0,
			"0.02": 0.0,
			"0.021": 0.0,
			"0.022": 0.0,
			"0.023": 0.0,
			"0.024": 0.0,
			"0.025": 0.0
		}
	}
}
