{
	 "smiles": "CCC(C)NC(=O)CN1CCNCC1", 
	 "Tm": 329.15, 
	 "num_atms": 35, 
	 "gaussian": { 
		 "optdone": 1, 
		 "sigma_profile": "yes", 
		 "theory": "DFT", 
		 "functional": "B3LYP", 
		 "basiset": "6-31G**", 
		 "properties": { 
			 "R2extent": 4301.3732, 
			 "electric_dipole_moment_norm": 2.63537293186, 
			 "electric_quadrupole_moment_norm": 14.5097624691, 
			 "total_energy": -633.20520352, 
			 "HOMO_LUMO_gap": 0.25693, 
			 "cosmo_polarized_energy": -12.9, 
			 "cosmo_cavitation_energy": 34.72, 
			 "cosmo_dispersion_energy": -24.38, 
			 "cosmo_repulsion_energy": 1.96, 
			 "cosmo_total_nonelectrostatic_energy": 12.29, 
			 "SMD_solvation_energy": 2.59 
		},
		"coords": [
			{
				"x": -2.6367638721,
				"y": 0.9890178958,
				"z": 3.2922594151,
				"element": "C" 
			},
			{
				"x": -1.6452818557,
				"y": 1.2122407744,
				"z": 2.1455264482,
				"element": "C" 
			},
			{
				"x": -0.6244915276,
				"y": 0.0691341501,
				"z": 1.9646116599,
				"element": "C" 
			},
			{
				"x": 0.3041967344,
				"y": -0.1195273985,
				"z": 3.173273401,
				"element": "C" 
			},
			{
				"x": 0.1499559704,
				"y": 0.2504124835,
				"z": 0.7276924988,
				"element": "N" 
			},
			{
				"x": 1.0018336915,
				"y": 1.2782874913,
				"z": 0.4818053205,
				"element": "C" 
			},
			{
				"x": 1.2551734526,
				"y": 2.1925092984,
				"z": 1.2618220815,
				"element": "O" 
			},
			{
				"x": 1.6156838476,
				"y": 1.2593259338,
				"z": -0.9283231824,
				"element": "C" 
			},
			{
				"x": 1.6333575167,
				"y": -0.0559392264,
				"z": -1.5605492055,
				"element": "N" 
			},
			{
				"x": 2.7018290197,
				"y": -0.9228703779,
				"z": -1.0517616006,
				"element": "C" 
			},
			{
				"x": 2.4294669738,
				"y": -2.3820005238,
				"z": -1.5071339958,
				"element": "C" 
			},
			{
				"x": 1.6359351325,
				"y": -2.4684111334,
				"z": -2.7408962105,
				"element": "N" 
			},
			{
				"x": 1.973252298,
				"y": -1.3693797824,
				"z": -3.6421677207,
				"element": "C" 
			},
			{
				"x": 1.7020599894,
				"y": 0.0335603955,
				"z": -3.0283315457,
				"element": "C" 
			},
			{
				"x": -3.1689894233,
				"y": 0.0358246584,
				"z": 3.1844885346,
				"element": "H" 
			},
			{
				"x": -2.1426980978,
				"y": 0.9852507999,
				"z": 4.2687528509,
				"element": "H" 
			},
			{
				"x": -3.3883677067,
				"y": 1.7846068479,
				"z": 3.3114049538,
				"element": "H" 
			},
			{
				"x": -2.1983825943,
				"y": 1.3161294745,
				"z": 1.2035916338,
				"element": "H" 
			},
			{
				"x": -1.0937427371,
				"y": 2.1461485298,
				"z": 2.2910485395,
				"element": "H" 
			},
			{
				"x": -1.1863829676,
				"y": -0.8622972112,
				"z": 1.8141195126,
				"element": "H" 
			},
			{
				"x": 0.9949407813,
				"y": -0.9501293017,
				"z": 2.9966571809,
				"element": "H" 
			},
			{
				"x": -0.2712377595,
				"y": -0.346927646,
				"z": 4.0752319947,
				"element": "H" 
			},
			{
				"x": 0.8888664652,
				"y": 0.7869101869,
				"z": 3.3440605314,
				"element": "H" 
			},
			{
				"x": 0.0511551776,
				"y": -0.4066544706,
				"z": -0.0365366478,
				"element": "H" 
			},
			{
				"x": 1.0027027188,
				"y": 1.9310864831,
				"z": -1.542487181,
				"element": "H" 
			},
			{
				"x": 2.6115596295,
				"y": 1.7249913024,
				"z": -0.8538834045,
				"element": "H" 
			},
			{
				"x": 2.7186298395,
				"y": -0.861448835,
				"z": 0.040425746,
				"element": "H" 
			},
			{
				"x": 3.6918478325,
				"y": -0.5778447483,
				"z": -1.4047779009,
				"element": "H" 
			},
			{
				"x": 3.3864614962,
				"y": -2.8979087318,
				"z": -1.6592316742,
				"element": "H" 
			},
			{
				"x": 1.8934094073,
				"y": -2.9296073828,
				"z": -0.7252727921,
				"element": "H" 
			},
			{
				"x": 0.6527402534,
				"y": -2.3864341915,
				"z": -2.4948155772,
				"element": "H" 
			},
			{
				"x": 1.4173454597,
				"y": -1.4827180618,
				"z": -4.578340987,
				"element": "H" 
			},
			{
				"x": 3.0354823292,
				"y": -1.4669336857,
				"z": -3.8963499155,
				"element": "H" 
			},
			{
				"x": 0.7458312619,
				"y": 0.4366637422,
				"z": -3.3844429709,
				"element": "H" 
			},
			{
				"x": 2.4909212632,
				"y": 0.737232261,
				"z": -3.3541697908,
				"element": "H" 
			}
		],
		 "valence_orbital": [ 
			{
				"type": "occ",
				"energy": -0.32237,
				"method": "rhf"
			},
			{
				"type": "occ",
				"energy": -0.24428,
				"method": "rhf"
			},
			{
				"type": "occ",
				"energy": -0.24224,
				"method": "rhf"
			},
			{
				"type": "occ",
				"energy": -0.22575,
				"method": "rhf"
			},
			{
				"type": "occ",
				"energy": -0.22365,
				"method": "rhf"
			},
			{
				"type": "unocc",
				"energy": 0.03328,
				"method": "rhf"
			},
			{
				"type": "unocc",
				"energy": 0.05887,
				"method": "rhf"
			},
			{
				"type": "unocc",
				"energy": 0.08599,
				"method": "rhf"
			},
			{
				"type": "unocc",
				"energy": 0.09801,
				"method": "rhf"
			},
			{
				"type": "unocc",
				"energy": 0.10791,
				"method": "rhf"
			}
		],
		"cosmo_sigma_profile": { 
			"-0.025": 0.0,
			"-0.024": 0.0,
			"-0.023": 0.0,
			"-0.022": 0.0,
			"-0.021": 0.0,
			"-0.02": 0.0,
			"-0.019": 0.0,
			"-0.018": 0.0,
			"-0.017": 0.0,
			"-0.016": 0.0,
			"-0.015": 0.0,
			"-0.014": 0.0,
			"-0.013": 0.0,
			"-0.012": 0.0,
			"-0.011": 0.0243072267876,
			"-0.01": 0.942233165704,
			"-0.009": 1.46796045356,
			"-0.008": 2.01631237849,
			"-0.007": 2.37901047748,
			"-0.006": 4.0018535776,
			"-0.005": 6.12186072382,
			"-0.004": 15.5041599324,
			"-0.003": 38.1855632033,
			"-0.002": 51.3962484465,
			"-0.001": 38.0638241794,
			"0.0": 28.9159636471,
			"0.001": 24.8386428948,
			"0.002": 13.1844937567,
			"0.003": 4.16277967727,
			"0.004": 3.86784937074,
			"0.005": 3.01513381529,
			"0.006": 2.57748766629,
			"0.007": 2.35930538202,
			"0.008": 2.32099336286,
			"0.009": 3.19751135702,
			"0.01": 2.07676817584,
			"0.011": 1.58924122477,
			"0.012": 2.83090330949,
			"0.013": 2.39826874488,
			"0.014": 3.79098441637,
			"0.015": 3.4485528947,
			"0.016": 1.41468997189,
			"0.017": 0.640931985354,
			"0.018": 0.519707678994,
			"0.019": 0.223055706547,
			"0.02": 0.0,
			"0.021": 0.0,
			"0.022": 0.0,
			"0.023": 0.0,
			"0.024": 0.0,
			"0.025": 0.0
		}
	}
}
