{
	 "smiles": "CCCCCCCCCC(=O)N(C)C", 
	 "Tm": 264.15, 
	 "num_atms": 39, 
	 "gaussian": { 
		 "optdone": 1, 
		 "sigma_profile": "yes", 
		 "theory": "DFT", 
		 "functional": "B3LYP", 
		 "basiset": "6-31G**", 
		 "properties": { 
			 "R2extent": 5678.0924, 
			 "electric_dipole_moment_norm": 3.51732936757, 
			 "electric_quadrupole_moment_norm": 18.4658444199, 
			 "total_energy": -602.353738589, 
			 "HOMO_LUMO_gap": 0.26508, 
			 "cosmo_polarized_energy": -9.63, 
			 "cosmo_cavitation_energy": 39.02, 
			 "cosmo_dispersion_energy": -26.14, 
			 "cosmo_repulsion_energy": 2.15, 
			 "cosmo_total_nonelectrostatic_energy": 15.04, 
			 "SMD_solvation_energy": 6.37 
		},
		"coords": [
			{
				"x": -1.6978259711,
				"y": -3.6547472631,
				"z": 1.7914280555,
				"element": "C" 
			},
			{
				"x": -2.5687769053,
				"y": -3.5005860932,
				"z": 0.5386151323,
				"element": "C" 
			},
			{
				"x": -1.9894411634,
				"y": -2.5581284534,
				"z": -0.5299952224,
				"element": "C" 
			},
			{
				"x": -1.9199413236,
				"y": -1.0825616628,
				"z": -0.1072608013,
				"element": "C" 
			},
			{
				"x": -1.4023857792,
				"y": -0.1419071868,
				"z": -1.2132665332,
				"element": "C" 
			},
			{
				"x": 0.1066213369,
				"y": -0.2437941762,
				"z": -1.5383866242,
				"element": "C" 
			},
			{
				"x": 1.0136608846,
				"y": 0.7574965612,
				"z": -0.8003686929,
				"element": "C" 
			},
			{
				"x": 1.073913772,
				"y": 0.604467031,
				"z": 0.7254430707,
				"element": "C" 
			},
			{
				"x": 2.0920236872,
				"y": 1.5655092564,
				"z": 1.3715011136,
				"element": "C" 
			},
			{
				"x": 2.2478780531,
				"y": 1.3202843798,
				"z": 2.8712679881,
				"element": "C" 
			},
			{
				"x": 3.1142976865,
				"y": 0.5478043755,
				"z": 3.2743528557,
				"element": "O" 
			},
			{
				"x": 1.3835155626,
				"y": 1.9520469041,
				"z": 3.7400411773,
				"element": "N" 
			},
			{
				"x": 0.3005885716,
				"y": 2.8461165606,
				"z": 3.3720422653,
				"element": "C" 
			},
			{
				"x": 1.5247100206,
				"y": 1.7091813991,
				"z": 5.1686210914,
				"element": "C" 
			},
			{
				"x": -0.6941535733,
				"y": -4.0117113428,
				"z": 1.5324281729,
				"element": "H" 
			},
			{
				"x": -1.5820631003,
				"y": -2.7087159251,
				"z": 2.3301200083,
				"element": "H" 
			},
			{
				"x": -2.1358691526,
				"y": -4.3762428642,
				"z": 2.4890638623,
				"element": "H" 
			},
			{
				"x": -2.7189813595,
				"y": -4.4899176554,
				"z": 0.0877110233,
				"element": "H" 
			},
			{
				"x": -3.5677514698,
				"y": -3.1461841523,
				"z": 0.8287170009,
				"element": "H" 
			},
			{
				"x": -2.6049898288,
				"y": -2.6310128501,
				"z": -1.4373702543,
				"element": "H" 
			},
			{
				"x": -0.989786505,
				"y": -2.9152051131,
				"z": -0.813695344,
				"element": "H" 
			},
			{
				"x": -2.928943062,
				"y": -0.7591585243,
				"z": 0.1849613569,
				"element": "H" 
			},
			{
				"x": -1.2979110571,
				"y": -0.9813489972,
				"z": 0.7893851014,
				"element": "H" 
			},
			{
				"x": -1.6368434763,
				"y": 0.8971746991,
				"z": -0.9437881094,
				"element": "H" 
			},
			{
				"x": -1.9800386729,
				"y": -0.3458952786,
				"z": -2.1245895321,
				"element": "H" 
			},
			{
				"x": 0.2488716106,
				"y": -0.0805681039,
				"z": -2.6136933597,
				"element": "H" 
			},
			{
				"x": 0.4638121446,
				"y": -1.264032072,
				"z": -1.3460167403,
				"element": "H" 
			},
			{
				"x": 0.688976289,
				"y": 1.779310464,
				"z": -1.0462710152,
				"element": "H" 
			},
			{
				"x": 2.0326747601,
				"y": 0.6615667887,
				"z": -1.1993178684,
				"element": "H" 
			},
			{
				"x": 0.0806654875,
				"y": 0.7725954028,
				"z": 1.1594371697,
				"element": "H" 
			},
			{
				"x": 1.3568545322,
				"y": -0.4230593186,
				"z": 0.9861557801,
				"element": "H" 
			},
			{
				"x": 1.8359694941,
				"y": 2.6048083364,
				"z": 1.1382426732,
				"element": "H" 
			},
			{
				"x": 3.0826448185,
				"y": 1.375056756,
				"z": 0.9502389904,
				"element": "H" 
			},
			{
				"x": -0.6547627807,
				"y": 2.4713706014,
				"z": 3.7635700092,
				"element": "H" 
			},
			{
				"x": 0.206554465,
				"y": 2.9379939556,
				"z": 2.2923381295,
				"element": "H" 
			},
			{
				"x": 0.4609345286,
				"y": 3.8493196136,
				"z": 3.7908787425,
				"element": "H" 
			},
			{
				"x": 1.6955430926,
				"y": 2.6523843695,
				"z": 5.7034723778,
				"element": "H" 
			},
			{
				"x": 0.616513594,
				"y": 1.244956233,
				"z": 5.5750450888,
				"element": "H" 
			},
			{
				"x": 2.372040789,
				"y": 1.0429333455,
				"z": 5.3198418603,
				"element": "H" 
			}
		],
		 "valence_orbital": [ 
			{
				"type": "occ",
				"energy": -0.3085,
				"method": "rhf"
			},
			{
				"type": "occ",
				"energy": -0.30625,
				"method": "rhf"
			},
			{
				"type": "occ",
				"energy": -0.30242,
				"method": "rhf"
			},
			{
				"type": "occ",
				"energy": -0.23527,
				"method": "rhf"
			},
			{
				"type": "occ",
				"energy": -0.23193,
				"method": "rhf"
			},
			{
				"type": "unocc",
				"energy": 0.03315,
				"method": "rhf"
			},
			{
				"type": "unocc",
				"energy": 0.07599,
				"method": "rhf"
			},
			{
				"type": "unocc",
				"energy": 0.08708,
				"method": "rhf"
			},
			{
				"type": "unocc",
				"energy": 0.09885,
				"method": "rhf"
			},
			{
				"type": "unocc",
				"energy": 0.1094,
				"method": "rhf"
			}
		],
		"cosmo_sigma_profile": { 
			"-0.025": 0.0,
			"-0.024": 0.0,
			"-0.023": 0.0,
			"-0.022": 0.0,
			"-0.021": 0.0,
			"-0.02": 0.0,
			"-0.019": 0.0,
			"-0.018": 0.0,
			"-0.017": 0.0,
			"-0.016": 0.0,
			"-0.015": 0.0,
			"-0.014": 0.0,
			"-0.013": 0.0,
			"-0.012": 0.0,
			"-0.011": 0.0,
			"-0.01": 0.0,
			"-0.009": 0.0,
			"-0.008": 0.0,
			"-0.007": 0.458981910293,
			"-0.006": 2.21431925235,
			"-0.005": 6.56657780038,
			"-0.004": 16.7569856683,
			"-0.003": 22.0687327288,
			"-0.002": 52.2156940552,
			"-0.001": 59.3677845999,
			"0.0": 52.0143295179,
			"0.001": 42.1603786358,
			"0.002": 18.8927658785,
			"0.003": 3.2521160953,
			"0.004": 1.50363236643,
			"0.005": 2.12661476492,
			"0.006": 1.91921479822,
			"0.007": 1.43685295289,
			"0.008": 1.03864258788,
			"0.009": 1.65248558285,
			"0.01": 1.32267490195,
			"0.011": 1.80379190846,
			"0.012": 1.59071783137,
			"0.013": 1.55327286421,
			"0.014": 4.56589395098,
			"0.015": 3.27302474342,
			"0.016": 0.669407621874,
			"0.017": 0.0,
			"0.018": 0.0,
			"0.019": 0.0,
			"0.02": 0.0,
			"0.021": 0.0,
			"0.022": 0.0,
			"0.023": 0.0,
			"0.024": 0.0,
			"0.025": 0.0
		}
	}
}
