{
	 "smiles": "CCOC1=CC=C(NC(=O)CN)C=C1", 
	 "Tm": 373.15, 
	 "num_atms": 28, 
	 "gaussian": { 
		 "optdone": 1, 
		 "sigma_profile": "yes", 
		 "theory": "DFT", 
		 "functional": "B3LYP", 
		 "basiset": "6-31G**", 
		 "properties": { 
			 "R2extent": 5205.852, 
			 "electric_dipole_moment_norm": 3.9745005485, 
			 "electric_quadrupole_moment_norm": 6.69396158937, 
			 "total_energy": -649.461381525, 
			 "HOMO_LUMO_gap": 0.19688, 
			 "cosmo_polarized_energy": -16.6, 
			 "cosmo_cavitation_energy": 31.74, 
			 "cosmo_dispersion_energy": -23.45, 
			 "cosmo_repulsion_energy": 1.88, 
			 "cosmo_total_nonelectrostatic_energy": 10.17, 
			 "SMD_solvation_energy": 4.85 
		},
		"coords": [
			{
				"x": -2.4618349567,
				"y": 3.772466214,
				"z": -4.045094551,
				"element": "C" 
			},
			{
				"x": -1.4669079664,
				"y": 2.6668470488,
				"z": -3.7371985655,
				"element": "C" 
			},
			{
				"x": -1.4392656084,
				"y": 2.4940163229,
				"z": -2.3229355381,
				"element": "O" 
			},
			{
				"x": -0.609386579,
				"y": 1.5452121319,
				"z": -1.7955728662,
				"element": "C" 
			},
			{
				"x": -0.6242594092,
				"y": 1.421705898,
				"z": -0.3991553593,
				"element": "C" 
			},
			{
				"x": 0.1762096326,
				"y": 0.4919306195,
				"z": 0.2519362459,
				"element": "C" 
			},
			{
				"x": 1.0214457653,
				"y": -0.3463679281,
				"z": -0.496140308,
				"element": "C" 
			},
			{
				"x": 1.8667412801,
				"y": -1.318471769,
				"z": 0.0904055147,
				"element": "N" 
			},
			{
				"x": 2.0390573747,
				"y": -1.636578366,
				"z": 1.4143231635,
				"element": "C" 
			},
			{
				"x": 1.453791556,
				"y": -1.0960307619,
				"z": 2.3445280036,
				"element": "O" 
			},
			{
				"x": 3.0612827211,
				"y": -2.7677086038,
				"z": 1.6567234936,
				"element": "C" 
			},
			{
				"x": 3.2600044509,
				"y": -3.112227661,
				"z": 3.0518763245,
				"element": "N" 
			},
			{
				"x": 1.0356608361,
				"y": -0.2222870906,
				"z": -1.8890167896,
				"element": "C" 
			},
			{
				"x": 0.2308488378,
				"y": 0.7124228443,
				"z": -2.5424919433,
				"element": "C" 
			},
			{
				"x": -3.4586861732,
				"y": 3.5046095749,
				"z": -3.6840107534,
				"element": "H" 
			},
			{
				"x": -2.1606798315,
				"y": 4.7064578082,
				"z": -3.5625940263,
				"element": "H" 
			},
			{
				"x": -2.5165635916,
				"y": 3.9406723565,
				"z": -5.1250698714,
				"element": "H" 
			},
			{
				"x": -0.4639381019,
				"y": 2.9307450959,
				"z": -4.1033900646,
				"element": "H" 
			},
			{
				"x": -1.7640050245,
				"y": 1.7269544613,
				"z": -4.2250853595,
				"element": "H" 
			},
			{
				"x": -1.280424885,
				"y": 2.0737961625,
				"z": 0.1682744036,
				"element": "H" 
			},
			{
				"x": 0.1594156895,
				"y": 0.4025746343,
				"z": 1.3289466623,
				"element": "H" 
			},
			{
				"x": 2.4199733911,
				"y": -1.8510610771,
				"z": -0.5671974543,
				"element": "H" 
			},
			{
				"x": 2.7349989724,
				"y": -3.6609353013,
				"z": 1.106568983,
				"element": "H" 
			},
			{
				"x": 4.0237648174,
				"y": -2.4739517304,
				"z": 1.2159884368,
				"element": "H" 
			},
			{
				"x": 2.3568128327,
				"y": -3.3550106935,
				"z": 3.4542297713,
				"element": "H" 
			},
			{
				"x": 3.5384795785,
				"y": -2.2713523671,
				"z": 3.5538221664,
				"element": "H" 
			},
			{
				"x": 1.6844366561,
				"y": -0.8637535294,
				"z": -2.4821160758,
				"element": "H" 
			},
			{
				"x": 0.270927735,
				"y": 0.7772257061,
				"z": -3.6230536432,
				"element": "H" 
			}
		],
		 "valence_orbital": [ 
			{
				"type": "occ",
				"energy": -0.28128,
				"method": "rhf"
			},
			{
				"type": "occ",
				"energy": -0.26183,
				"method": "rhf"
			},
			{
				"type": "occ",
				"energy": -0.25091,
				"method": "rhf"
			},
			{
				"type": "occ",
				"energy": -0.23941,
				"method": "rhf"
			},
			{
				"type": "occ",
				"energy": -0.20005,
				"method": "rhf"
			},
			{
				"type": "unocc",
				"energy": -0.00317,
				"method": "rhf"
			},
			{
				"type": "unocc",
				"energy": -0.00036,
				"method": "rhf"
			},
			{
				"type": "unocc",
				"energy": 0.04988,
				"method": "rhf"
			},
			{
				"type": "unocc",
				"energy": 0.06911,
				"method": "rhf"
			},
			{
				"type": "unocc",
				"energy": 0.09098,
				"method": "rhf"
			}
		],
		"cosmo_sigma_profile": { 
			"-0.025": 0.0,
			"-0.024": 0.0,
			"-0.023": 0.0,
			"-0.022": 0.0,
			"-0.021": 0.0,
			"-0.02": 0.0,
			"-0.019": 0.0,
			"-0.018": 0.0,
			"-0.017": 0.0,
			"-0.016": 0.0,
			"-0.015": 0.613841766668,
			"-0.014": 1.46313829962,
			"-0.013": 1.92413432078,
			"-0.012": 1.24906287503,
			"-0.011": 1.42392254245,
			"-0.01": 2.3837277876,
			"-0.009": 4.45401332905,
			"-0.008": 3.28262471257,
			"-0.007": 5.93061821642,
			"-0.006": 13.4191599033,
			"-0.005": 16.5586021919,
			"-0.004": 20.7815803891,
			"-0.003": 21.6855694557,
			"-0.002": 18.2309643396,
			"-0.001": 15.0832823952,
			"0.0": 15.5403758784,
			"0.001": 11.9230956059,
			"0.002": 12.4234423809,
			"0.003": 13.3115850133,
			"0.004": 15.8292866242,
			"0.005": 15.6075817195,
			"0.006": 8.42779316149,
			"0.007": 4.01110643533,
			"0.008": 3.19734299879,
			"0.009": 3.54217821067,
			"0.01": 4.18382767964,
			"0.011": 2.39680429996,
			"0.012": 3.30145537636,
			"0.013": 3.46214984193,
			"0.014": 1.21989720872,
			"0.015": 0.425952857843,
			"0.016": 0.952006248461,
			"0.017": 0.729614663823,
			"0.018": 0.578383547633,
			"0.019": 0.464442245983,
			"0.02": 0.0392461681381,
			"0.021": 0.0,
			"0.022": 0.0,
			"0.023": 0.0,
			"0.024": 0.0,
			"0.025": 0.0
		}
	}
}
