{
	 "smiles": "OC(=O)CN(CCN(CC(O)=O)CC(O)=O)CCN(CC(O)=O)CC(O)=O", 
	 "Tm": 493.15, 
	 "num_atms": 50, 
	 "gaussian": { 
		 "optdone": 1, 
		 "sigma_profile": "yes", 
		 "theory": "DFT", 
		 "functional": "B3LYP", 
		 "basiset": "6-31G**", 
		 "properties": { 
			 "R2extent": 15216.7061, 
			 "electric_dipole_moment_norm": 6.89921013885, 
			 "electric_quadrupole_moment_norm": 25.6232616372, 
			 "total_energy": -1463.85644815, 
			 "HOMO_LUMO_gap": 0.20041, 
			 "cosmo_polarized_energy": -36.07, 
			 "cosmo_cavitation_energy": 52.87, 
			 "cosmo_dispersion_energy": -34.51, 
			 "cosmo_repulsion_energy": 2.66, 
			 "cosmo_total_nonelectrostatic_energy": 21.02, 
			 "SMD_solvation_energy": 10.48 
		},
		"coords": [
			{
				"x": 2.8299625319,
				"y": -3.0505821234,
				"z": 1.1001253899,
				"element": "O" 
			},
			{
				"x": 1.6536306257,
				"y": -2.9115222691,
				"z": 0.4533277605,
				"element": "C" 
			},
			{
				"x": 0.6329618014,
				"y": -3.477490294,
				"z": 0.7848865212,
				"element": "O" 
			},
			{
				"x": 1.7414465546,
				"y": -1.8646333423,
				"z": -0.6605752581,
				"element": "C" 
			},
			{
				"x": 0.9106333065,
				"y": -0.6810907578,
				"z": -0.3770395298,
				"element": "N" 
			},
			{
				"x": 1.046956532,
				"y": -0.1823329231,
				"z": 0.9989588599,
				"element": "C" 
			},
			{
				"x": 2.4664058034,
				"y": 0.3115233977,
				"z": 1.3270587376,
				"element": "C" 
			},
			{
				"x": 2.6088655641,
				"y": 0.5747300747,
				"z": 2.7705554173,
				"element": "N" 
			},
			{
				"x": 3.1746103426,
				"y": 1.8799712304,
				"z": 3.1061143456,
				"element": "C" 
			},
			{
				"x": 4.624932784,
				"y": 2.0464185302,
				"z": 2.6498451672,
				"element": "C" 
			},
			{
				"x": 5.5019279591,
				"y": 1.5597200365,
				"z": 3.5638026536,
				"element": "O" 
			},
			{
				"x": 4.9745971955,
				"y": 2.4895834615,
				"z": 1.5780583612,
				"element": "O" 
			},
			{
				"x": 3.1431050813,
				"y": -0.5448379944,
				"z": 3.5370204136,
				"element": "C" 
			},
			{
				"x": 2.1103416796,
				"y": -1.5919600727,
				"z": 3.945542637,
				"element": "C" 
			},
			{
				"x": 1.0034291719,
				"y": -1.0576609411,
				"z": 4.4888473028,
				"element": "O" 
			},
			{
				"x": 2.2764338486,
				"y": -2.7944590311,
				"z": 3.8534770372,
				"element": "O" 
			},
			{
				"x": -0.497625744,
				"y": -0.8569189881,
				"z": -0.7698646885,
				"element": "C" 
			},
			{
				"x": -0.6692479536,
				"y": -0.6209860947,
				"z": -2.2767538706,
				"element": "C" 
			},
			{
				"x": -2.0774001315,
				"y": -0.6087531689,
				"z": -2.7033488291,
				"element": "N" 
			},
			{
				"x": -2.2850463841,
				"y": -0.0229320371,
				"z": -4.0290074113,
				"element": "C" 
			},
			{
				"x": -3.6448055459,
				"y": 0.6865074419,
				"z": -4.1400810588,
				"element": "C" 
			},
			{
				"x": -4.2146059326,
				"y": 0.9802573074,
				"z": -2.9607605451,
				"element": "O" 
			},
			{
				"x": -4.1350978164,
				"y": 0.9841509252,
				"z": -5.2025087611,
				"element": "O" 
			},
			{
				"x": -2.7532673159,
				"y": -1.8963079652,
				"z": -2.5419390823,
				"element": "C" 
			},
			{
				"x": -3.4646118575,
				"y": -2.1099318879,
				"z": -1.2104246112,
				"element": "C" 
			},
			{
				"x": -3.8227504928,
				"y": -0.9485870399,
				"z": -0.6099780946,
				"element": "O" 
			},
			{
				"x": -3.7418513394,
				"y": -3.1969755045,
				"z": -0.7624074319,
				"element": "O" 
			},
			{
				"x": 2.6661490131,
				"y": -3.5202319942,
				"z": 1.9423663071,
				"element": "H" 
			},
			{
				"x": 2.7840414756,
				"y": -1.5721223593,
				"z": -0.8042172218,
				"element": "H" 
			},
			{
				"x": 1.3965411628,
				"y": -2.3209569966,
				"z": -1.5910844143,
				"element": "H" 
			},
			{
				"x": 0.7321490867,
				"y": -0.9314904206,
				"z": 1.7442534349,
				"element": "H" 
			},
			{
				"x": 0.3614753728,
				"y": 0.662178978,
				"z": 1.1179433447,
				"element": "H" 
			},
			{
				"x": 2.6666109948,
				"y": 1.2294476049,
				"z": 0.768980219,
				"element": "H" 
			},
			{
				"x": 3.2191236478,
				"y": -0.4177107837,
				"z": 1.001695428,
				"element": "H" 
			},
			{
				"x": 3.1065773496,
				"y": 2.0308239266,
				"z": 4.1871497201,
				"element": "H" 
			},
			{
				"x": 2.5879051221,
				"y": 2.6563120384,
				"z": 2.6095716439,
				"element": "H" 
			},
			{
				"x": 6.3869887584,
				"y": 1.6400641786,
				"z": 3.1674479634,
				"element": "H" 
			},
			{
				"x": 3.5657401835,
				"y": -0.1659327039,
				"z": 4.4740174134,
				"element": "H" 
			},
			{
				"x": 3.9448127341,
				"y": -1.0888042782,
				"z": 3.0190592134,
				"element": "H" 
			},
			{
				"x": 0.4286318173,
				"y": -1.8057398871,
				"z": 4.7268642082,
				"element": "H" 
			},
			{
				"x": -0.8802454866,
				"y": -1.8416807387,
				"z": -0.4632970955,
				"element": "H" 
			},
			{
				"x": -1.0964503781,
				"y": -0.1053048777,
				"z": -0.248452814,
				"element": "H" 
			},
			{
				"x": -0.2376648521,
				"y": 0.3573971862,
				"z": -2.5049937624,
				"element": "H" 
			},
			{
				"x": -0.0942190808,
				"y": -1.3688318868,
				"z": -2.8521424886,
				"element": "H" 
			},
			{
				"x": -1.523167215,
				"y": 0.7448047073,
				"z": -4.1998873706,
				"element": "H" 
			},
			{
				"x": -2.2051753194,
				"y": -0.7375242408,
				"z": -4.8605194392,
				"element": "H" 
			},
			{
				"x": -3.6363234404,
				"y": 0.6114076218,
				"z": -2.2588353118,
				"element": "H" 
			},
			{
				"x": -3.5412116328,
				"y": -1.9885275708,
				"z": -3.2995041983,
				"element": "H" 
			},
			{
				"x": -2.0842741946,
				"y": -2.7563663761,
				"z": -2.6873980845,
				"element": "H" 
			},
			{
				"x": -4.3271453875,
				"y": -1.1968110979,
				"z": 0.1833518728,
				"element": "H" 
			}
		],
		 "valence_orbital": [ 
			{
				"type": "occ",
				"energy": -0.28694,
				"method": "rhf"
			},
			{
				"type": "occ",
				"energy": -0.26982,
				"method": "rhf"
			},
			{
				"type": "occ",
				"energy": -0.24632,
				"method": "rhf"
			},
			{
				"type": "occ",
				"energy": -0.23506,
				"method": "rhf"
			},
			{
				"type": "occ",
				"energy": -0.22553,
				"method": "rhf"
			},
			{
				"type": "unocc",
				"energy": -0.02512,
				"method": "rhf"
			},
			{
				"type": "unocc",
				"energy": -0.01004,
				"method": "rhf"
			},
			{
				"type": "unocc",
				"energy": -0.00905,
				"method": "rhf"
			},
			{
				"type": "unocc",
				"energy": -0.00294,
				"method": "rhf"
			},
			{
				"type": "unocc",
				"energy": 0.01589,
				"method": "rhf"
			}
		],
		"cosmo_sigma_profile": { 
			"-0.025": 0.0,
			"-0.024": 0.0,
			"-0.023": 2.61621670731e-05,
			"-0.022": 0.0120624326958,
			"-0.021": 0.0267443648524,
			"-0.02": 0.0271538956068,
			"-0.019": 0.775833307503,
			"-0.018": 2.64729140414,
			"-0.017": 2.76476733762,
			"-0.016": 2.20896631152,
			"-0.015": 3.02130250272,
			"-0.014": 1.7983354123,
			"-0.013": 2.00291664315,
			"-0.012": 2.75349920541,
			"-0.011": 3.56242549815,
			"-0.01": 3.41888007064,
			"-0.009": 7.19913615861,
			"-0.008": 10.383638643,
			"-0.007": 17.581006683,
			"-0.006": 29.8956165664,
			"-0.005": 31.2322869947,
			"-0.004": 29.9049603457,
			"-0.003": 27.3448556155,
			"-0.002": 21.5264123136,
			"-0.001": 21.2300173328,
			"0.0": 18.3135314381,
			"0.001": 17.8727684028,
			"0.002": 14.1915692932,
			"0.003": 12.3826942251,
			"0.004": 13.5890098201,
			"0.005": 11.246011632,
			"0.006": 10.1820440924,
			"0.007": 11.099141043,
			"0.008": 12.157045632,
			"0.009": 13.4698568826,
			"0.01": 14.5934231849,
			"0.011": 19.5831414805,
			"0.012": 16.967681077,
			"0.013": 4.73071717623,
			"0.014": 0.785526641233,
			"0.015": 0.151199005817,
			"0.016": 0.0624194561827,
			"0.017": 0.168984314005,
			"0.018": 0.242010664995,
			"0.019": 0.00176203480748,
			"0.02": 0.212376822193,
			"0.021": 0.0,
			"0.022": 0.0,
			"0.023": 0.0,
			"0.024": 0.0,
			"0.025": 0.0
		}
	}
}
