{
	 "smiles": "CCOC(=O)C1=C(Cl)C2=CC(Cl)=CC=C2N=C1SC", 
	 "Tm": 409.15, 
	 "num_atms": 30, 
	 "gaussian": { 
		 "optdone": 1, 
		 "sigma_profile": "yes", 
		 "theory": "DFT", 
		 "functional": "B3LYP", 
		 "basiset": "6-31G**", 
		 "properties": { 
			 "R2extent": 7992.4214, 
			 "electric_dipole_moment_norm": 2.21416573228, 
			 "electric_quadrupole_moment_norm": 17.3399263952, 
			 "total_energy": -2025.80313975, 
			 "HOMO_LUMO_gap": 0.151, 
			 "cosmo_polarized_energy": -10.1, 
			 "cosmo_cavitation_energy": 39.76, 
			 "cosmo_dispersion_energy": -28.52, 
			 "cosmo_repulsion_energy": 2.19, 
			 "cosmo_total_nonelectrostatic_energy": 13.43, 
			 "SMD_solvation_energy": 6.19 
		},
		"coords": [
			{
				"x": -4.7623545605,
				"y": 2.5026456799,
				"z": -2.2158801796,
				"element": "C" 
			},
			{
				"x": -3.2889667496,
				"y": 2.8434989178,
				"z": -2.1113275761,
				"element": "C" 
			},
			{
				"x": -2.6507286392,
				"y": 1.7801241102,
				"z": -1.3568763674,
				"element": "O" 
			},
			{
				"x": -1.3346362963,
				"y": 1.9222165014,
				"z": -1.1481672639,
				"element": "C" 
			},
			{
				"x": -0.674142826,
				"y": 2.8719138366,
				"z": -1.5091848283,
				"element": "O" 
			},
			{
				"x": -0.7686700179,
				"y": 0.7651283715,
				"z": -0.3687140934,
				"element": "C" 
			},
			{
				"x": -0.7159880802,
				"y": -0.5142708872,
				"z": -0.871967635,
				"element": "C" 
			},
			{
				"x": -1.3150454973,
				"y": -0.8502028843,
				"z": -2.4836351266,
				"element": "Cl" 
			},
			{
				"x": -0.1584843361,
				"y": -1.5846888988,
				"z": -0.1090775479,
				"element": "C" 
			},
			{
				"x": -0.0688532964,
				"y": -2.9243845935,
				"z": -0.55766371,
				"element": "C" 
			},
			{
				"x": 0.4757664791,
				"y": -3.8806504403,
				"z": 0.270268952,
				"element": "C" 
			},
			{
				"x": 0.587233743,
				"y": -5.5436603608,
				"z": -0.2799893185,
				"element": "Cl" 
			},
			{
				"x": 0.9525497686,
				"y": -3.5610012515,
				"z": 1.5615628095,
				"element": "C" 
			},
			{
				"x": 0.8738736485,
				"y": -2.2618781668,
				"z": 2.0083081813,
				"element": "C" 
			},
			{
				"x": 0.32146856,
				"y": -1.2412010852,
				"z": 1.1927541962,
				"element": "C" 
			},
			{
				"x": 0.2819979227,
				"y": 0.0276838383,
				"z": 1.6863478385,
				"element": "N" 
			},
			{
				"x": -0.2206658638,
				"y": 0.986350324,
				"z": 0.9448891454,
				"element": "C" 
			},
			{
				"x": -0.252395939,
				"y": 2.6424402004,
				"z": 1.5988358737,
				"element": "S" 
			},
			{
				"x": 0.2764797519,
				"y": 2.330037714,
				"z": 3.3142948184,
				"element": "C" 
			},
			{
				"x": -4.9079088556,
				"y": 1.5489787803,
				"z": -2.7307605061,
				"element": "H" 
			},
			{
				"x": -5.2816319471,
				"y": 3.2828980365,
				"z": -2.7809023212,
				"element": "H" 
			},
			{
				"x": -5.2190492441,
				"y": 2.4336532805,
				"z": -1.2245995601,
				"element": "H" 
			},
			{
				"x": -3.1164823036,
				"y": 3.7900933221,
				"z": -1.5906156042,
				"element": "H" 
			},
			{
				"x": -2.8078060629,
				"y": 2.9103524847,
				"z": -3.0918920638,
				"element": "H" 
			},
			{
				"x": -0.4278563143,
				"y": -3.1922605399,
				"z": -1.5430385878,
				"element": "H" 
			},
			{
				"x": 1.3756562999,
				"y": -4.341307045,
				"z": 2.1842651915,
				"element": "H" 
			},
			{
				"x": 1.2327190871,
				"y": -1.9805166351,
				"z": 2.9923747233,
				"element": "H" 
			},
			{
				"x": 0.2687677523,
				"y": 3.3071005257,
				"z": 3.8022640082,
				"element": "H" 
			},
			{
				"x": 1.2805346369,
				"y": 1.9068974128,
				"z": 3.3352703978,
				"element": "H" 
			},
			{
				"x": -0.4149808201,
				"y": 1.6531094519,
				"z": 3.817256154,
				"element": "H" 
			}
		],
		 "valence_orbital": [ 
			{
				"type": "occ",
				"energy": -0.29064,
				"method": "rhf"
			},
			{
				"type": "occ",
				"energy": -0.27737,
				"method": "rhf"
			},
			{
				"type": "occ",
				"energy": -0.2729,
				"method": "rhf"
			},
			{
				"type": "occ",
				"energy": -0.2535,
				"method": "rhf"
			},
			{
				"type": "occ",
				"energy": -0.2257,
				"method": "rhf"
			},
			{
				"type": "unocc",
				"energy": -0.0747,
				"method": "rhf"
			},
			{
				"type": "unocc",
				"energy": -0.04216,
				"method": "rhf"
			},
			{
				"type": "unocc",
				"energy": -0.00424,
				"method": "rhf"
			},
			{
				"type": "unocc",
				"energy": 0.00269,
				"method": "rhf"
			},
			{
				"type": "unocc",
				"energy": 0.01117,
				"method": "rhf"
			}
		],
		"cosmo_sigma_profile": { 
			"-0.025": 0.0,
			"-0.024": 0.0,
			"-0.023": 0.0,
			"-0.022": 0.0,
			"-0.021": 0.0,
			"-0.02": 0.0,
			"-0.019": 0.0,
			"-0.018": 0.0,
			"-0.017": 0.0,
			"-0.016": 0.0,
			"-0.015": 0.0,
			"-0.014": 0.0,
			"-0.013": 0.0,
			"-0.012": 0.0,
			"-0.011": 0.0,
			"-0.01": 0.0,
			"-0.009": 0.070254236582,
			"-0.008": 1.99465352951,
			"-0.007": 6.22868232181,
			"-0.006": 11.6323662632,
			"-0.005": 17.2442550038,
			"-0.004": 22.5871767493,
			"-0.003": 26.6992356933,
			"-0.002": 35.1568540405,
			"-0.001": 34.3975897794,
			"0.0": 36.8374865033,
			"0.001": 32.3964502979,
			"0.002": 22.3840678,
			"0.003": 19.7351671705,
			"0.004": 18.3778241407,
			"0.005": 9.66401886655,
			"0.006": 7.40603890508,
			"0.007": 5.69726399632,
			"0.008": 4.20334308824,
			"0.009": 2.90191920982,
			"0.01": 3.45608992395,
			"0.011": 4.19348857909,
			"0.012": 0.797299014096,
			"0.013": 0.0,
			"0.014": 0.0,
			"0.015": 0.0,
			"0.016": 0.0,
			"0.017": 0.0,
			"0.018": 0.0,
			"0.019": 0.0,
			"0.02": 0.0,
			"0.021": 0.0,
			"0.022": 0.0,
			"0.023": 0.0,
			"0.024": 0.0,
			"0.025": 0.0
		}
	}
}
