{
	 "smiles": "NC(=O)C1=C(C=CC=C1Cl)[N+]([O-])=O", 
	 "Tm": 458.15, 
	 "num_atms": 18, 
	 "gaussian": { 
		 "optdone": 1, 
		 "sigma_profile": "yes", 
		 "theory": "DFT", 
		 "functional": "B3LYP", 
		 "basiset": "6-31G**", 
		 "properties": { 
			 "R2extent": 3002.0223, 
			 "electric_dipole_moment_norm": 4.84113109201, 
			 "electric_quadrupole_moment_norm": 19.9734381177, 
			 "total_energy": -1065.02628121, 
			 "HOMO_LUMO_gap": 0.15938, 
			 "cosmo_polarized_energy": -16.92, 
			 "cosmo_cavitation_energy": 25.52, 
			 "cosmo_dispersion_energy": -18.32, 
			 "cosmo_repulsion_energy": 1.47, 
			 "cosmo_total_nonelectrostatic_energy": 8.67, 
			 "SMD_solvation_energy": 6.92 
		},
		"coords": [
			{
				"x": -1.3747651136,
				"y": -1.6942304454,
				"z": 0.9742420694,
				"element": "N" 
			},
			{
				"x": -0.0665300323,
				"y": -1.6407318982,
				"z": 1.3499321759,
				"element": "C" 
			},
			{
				"x": 0.4075062606,
				"y": -2.2443049988,
				"z": 2.2945237615,
				"element": "O" 
			},
			{
				"x": 0.8550526329,
				"y": -0.8634454387,
				"z": 0.4116945151,
				"element": "C" 
			},
			{
				"x": 1.3137177362,
				"y": 0.4355023514,
				"z": 0.6803529057,
				"element": "C" 
			},
			{
				"x": 2.284447422,
				"y": 1.07322679,
				"z": -0.0880439658,
				"element": "C" 
			},
			{
				"x": 2.823933297,
				"y": 0.404376099,
				"z": -1.1821195206,
				"element": "C" 
			},
			{
				"x": 2.3978514567,
				"y": -0.8861555577,
				"z": -1.4885611236,
				"element": "C" 
			},
			{
				"x": 1.433691595,
				"y": -1.5074035408,
				"z": -0.6915844537,
				"element": "C" 
			},
			{
				"x": 0.9603904861,
				"y": -3.1433539999,
				"z": -1.1040630629,
				"element": "Cl" 
			},
			{
				"x": 0.7365506321,
				"y": 1.2075028781,
				"z": 1.7988717931,
				"element": "N" 
			},
			{
				"x": 1.3544219351,
				"y": 2.1960291953,
				"z": 2.1850825054,
				"element": "O" 
			},
			{
				"x": -0.3389135357,
				"y": 0.8268189129,
				"z": 2.258972458,
				"element": "O" 
			},
			{
				"x": -2.008161679,
				"y": -2.1139652465,
				"z": 1.6412376333,
				"element": "H" 
			},
			{
				"x": -1.7502657959,
				"y": -0.9677079861,
				"z": 0.3836540813,
				"element": "H" 
			},
			{
				"x": 2.5932697869,
				"y": 2.0745123358,
				"z": 0.1829616151,
				"element": "H" 
			},
			{
				"x": 3.5755164463,
				"y": 0.8869915454,
				"z": -1.7979315555,
				"element": "H" 
			},
			{
				"x": 2.8112864695,
				"y": -1.421960996,
				"z": -2.3356218318,
				"element": "H" 
			}
		],
		 "valence_orbital": [ 
			{
				"type": "occ",
				"energy": -0.30867,
				"method": "rhf"
			},
			{
				"type": "occ",
				"energy": -0.29717,
				"method": "rhf"
			},
			{
				"type": "occ",
				"energy": -0.28269,
				"method": "rhf"
			},
			{
				"type": "occ",
				"energy": -0.277,
				"method": "rhf"
			},
			{
				"type": "occ",
				"energy": -0.26084,
				"method": "rhf"
			},
			{
				"type": "unocc",
				"energy": -0.10146,
				"method": "rhf"
			},
			{
				"type": "unocc",
				"energy": -0.04527,
				"method": "rhf"
			},
			{
				"type": "unocc",
				"energy": -0.01916,
				"method": "rhf"
			},
			{
				"type": "unocc",
				"energy": 0.00753,
				"method": "rhf"
			},
			{
				"type": "unocc",
				"energy": 0.0143,
				"method": "rhf"
			}
		],
		"cosmo_sigma_profile": { 
			"-0.025": 0.0,
			"-0.024": 0.0,
			"-0.023": 0.0,
			"-0.022": 0.0,
			"-0.021": 0.0,
			"-0.02": 0.0,
			"-0.019": 0.0,
			"-0.018": 0.0,
			"-0.017": 0.0,
			"-0.016": 0.0,
			"-0.015": 0.952918284053,
			"-0.014": 2.4119939884,
			"-0.013": 2.6212353848,
			"-0.012": 2.07504103271,
			"-0.011": 2.4351887636,
			"-0.01": 2.1817505066,
			"-0.009": 3.74940254441,
			"-0.008": 8.84655754371,
			"-0.007": 9.82431479869,
			"-0.006": 7.88058508847,
			"-0.005": 7.46154531321,
			"-0.004": 8.7921332957,
			"-0.003": 10.6539674015,
			"-0.002": 10.4517037425,
			"-0.001": 17.239819639,
			"0.0": 16.1268334517,
			"0.001": 12.1832289392,
			"0.002": 8.00521392119,
			"0.003": 11.4380137517,
			"0.004": 10.0560493647,
			"0.005": 7.76268940401,
			"0.006": 8.34055437551,
			"0.007": 10.3324987314,
			"0.008": 6.57096776065,
			"0.009": 4.7864240055,
			"0.01": 2.3770923191,
			"0.011": 1.88757249592,
			"0.012": 5.11446950131,
			"0.013": 3.94847375973,
			"0.014": 0.229609324116,
			"0.015": 0.0,
			"0.016": 0.0,
			"0.017": 0.0,
			"0.018": 0.0,
			"0.019": 0.0,
			"0.02": 0.0,
			"0.021": 0.0,
			"0.022": 0.0,
			"0.023": 0.0,
			"0.024": 0.0,
			"0.025": 0.0
		}
	}
}
