{
	 "smiles": "CCCCC(C)(C)C", 
	 "Tm": 152.15, 
	 "num_atms": 26, 
	 "gaussian": { 
		 "optdone": 1, 
		 "sigma_profile": "yes", 
		 "theory": "DFT", 
		 "functional": "B3LYP", 
		 "basiset": "6-31G**", 
		 "properties": { 
			 "R2extent": 1752.8355, 
			 "electric_dipole_moment_norm": 0.0500117986079, 
			 "electric_quadrupole_moment_norm": 0.341244018263, 
			 "total_energy": -315.724949867, 
			 "HOMO_LUMO_gap": 0.37235, 
			 "cosmo_polarized_energy": -0.76, 
			 "cosmo_cavitation_energy": 25.54, 
			 "cosmo_dispersion_energy": -18.1, 
			 "cosmo_repulsion_energy": 1.5, 
			 "cosmo_total_nonelectrostatic_energy": 8.93, 
			 "SMD_solvation_energy": 4.35 
		},
		"coords": [
			{
				"x": -0.4361020835,
				"y": -3.969084342,
				"z": 1.1671631491,
				"element": "C" 
			},
			{
				"x": -1.0557350544,
				"y": -2.5700280036,
				"z": 1.0659835865,
				"element": "C" 
			},
			{
				"x": -0.5134445607,
				"y": -1.7300472882,
				"z": -0.1068211931,
				"element": "C" 
			},
			{
				"x": 0.946334952,
				"y": -1.2385454909,
				"z": 0.0479481421,
				"element": "C" 
			},
			{
				"x": 1.1602204956,
				"y": 0.2229109917,
				"z": 0.5330154046,
				"element": "C" 
			},
			{
				"x": 0.4520224478,
				"y": 0.4839373469,
				"z": 1.8762225315,
				"element": "C" 
			},
			{
				"x": 0.6436655365,
				"y": 1.2230665154,
				"z": -0.5206787054,
				"element": "C" 
			},
			{
				"x": 2.6750889948,
				"y": 0.4435369735,
				"z": 0.7183940627,
				"element": "C" 
			},
			{
				"x": -0.6237047566,
				"y": -4.5483384036,
				"z": 0.2554805713,
				"element": "H" 
			},
			{
				"x": -0.8568606507,
				"y": -4.5286102402,
				"z": 2.0093240423,
				"element": "H" 
			},
			{
				"x": 0.6488716182,
				"y": -3.9273440992,
				"z": 1.3119949434,
				"element": "H" 
			},
			{
				"x": -2.1423830423,
				"y": -2.6744849129,
				"z": 0.9496272421,
				"element": "H" 
			},
			{
				"x": -0.9032597753,
				"y": -2.0338314369,
				"z": 2.0105444024,
				"element": "H" 
			},
			{
				"x": -0.5941987228,
				"y": -2.3347029337,
				"z": -1.0197315134,
				"element": "H" 
			},
			{
				"x": -1.1788943003,
				"y": -0.8735184123,
				"z": -0.2677259633,
				"element": "H" 
			},
			{
				"x": 1.4813822595,
				"y": -1.9072335397,
				"z": 0.735527174,
				"element": "H" 
			},
			{
				"x": 1.4641683727,
				"y": -1.3364900965,
				"z": -0.9150533815,
				"element": "H" 
			},
			{
				"x": 0.8010642931,
				"y": -0.2079434124,
				"z": 2.6513755841,
				"element": "H" 
			},
			{
				"x": 0.6530683233,
				"y": 1.502977959,
				"z": 2.2266083368,
				"element": "H" 
			},
			{
				"x": -0.6342074235,
				"y": 0.3754797234,
				"z": 1.7922687016,
				"element": "H" 
			},
			{
				"x": 1.1476979043,
				"y": 1.0768754592,
				"z": -1.4830700765,
				"element": "H" 
			},
			{
				"x": -0.4335874623,
				"y": 1.1232651161,
				"z": -0.6895990165,
				"element": "H" 
			},
			{
				"x": 0.8294427075,
				"y": 2.2545939808,
				"z": -0.2003022869,
				"element": "H" 
			},
			{
				"x": 2.8884601792,
				"y": 1.4706547583,
				"z": 1.035888215,
				"element": "H" 
			},
			{
				"x": 3.2192605437,
				"y": 0.2637383528,
				"z": -0.2160410062,
				"element": "H" 
			},
			{
				"x": 3.0841292041,
				"y": -0.2324345648,
				"z": 1.4781570535,
				"element": "H" 
			}
		],
		 "valence_orbital": [ 
			{
				"type": "occ",
				"energy": -0.33028,
				"method": "rhf"
			},
			{
				"type": "occ",
				"energy": -0.32168,
				"method": "rhf"
			},
			{
				"type": "occ",
				"energy": -0.30705,
				"method": "rhf"
			},
			{
				"type": "occ",
				"energy": -0.30022,
				"method": "rhf"
			},
			{
				"type": "occ",
				"energy": -0.29706,
				"method": "rhf"
			},
			{
				"type": "unocc",
				"energy": 0.07529,
				"method": "rhf"
			},
			{
				"type": "unocc",
				"energy": 0.1098,
				"method": "rhf"
			},
			{
				"type": "unocc",
				"energy": 0.11345,
				"method": "rhf"
			},
			{
				"type": "unocc",
				"energy": 0.123,
				"method": "rhf"
			},
			{
				"type": "unocc",
				"energy": 0.13487,
				"method": "rhf"
			}
		],
		"cosmo_sigma_profile": { 
			"-0.025": 0.0,
			"-0.024": 0.0,
			"-0.023": 0.0,
			"-0.022": 0.0,
			"-0.021": 0.0,
			"-0.02": 0.0,
			"-0.019": 0.0,
			"-0.018": 0.0,
			"-0.017": 0.0,
			"-0.016": 0.0,
			"-0.015": 0.0,
			"-0.014": 0.0,
			"-0.013": 0.0,
			"-0.012": 0.0,
			"-0.011": 0.0,
			"-0.01": 0.0,
			"-0.009": 0.0,
			"-0.008": 0.0,
			"-0.007": 0.0,
			"-0.006": 0.0,
			"-0.005": 0.0,
			"-0.004": 0.0,
			"-0.003": 4.10948537598,
			"-0.002": 29.0711038654,
			"-0.001": 44.7438700352,
			"0.0": 41.5326879474,
			"0.001": 37.4739682672,
			"0.002": 35.6499983035,
			"0.003": 2.45325532535,
			"0.004": 0.0,
			"0.005": 0.0,
			"0.006": 0.0,
			"0.007": 0.0,
			"0.008": 0.0,
			"0.009": 0.0,
			"0.01": 0.0,
			"0.011": 0.0,
			"0.012": 0.0,
			"0.013": 0.0,
			"0.014": 0.0,
			"0.015": 0.0,
			"0.016": 0.0,
			"0.017": 0.0,
			"0.018": 0.0,
			"0.019": 0.0,
			"0.02": 0.0,
			"0.021": 0.0,
			"0.022": 0.0,
			"0.023": 0.0,
			"0.024": 0.0,
			"0.025": 0.0
		}
	}
}
