{
	 "smiles": "FC1=CC=C(C=C1)C1=NNC=C1", 
	 "Tm": 370.15, 
	 "num_atms": 19, 
	 "gaussian": { 
		 "optdone": 1, 
		 "sigma_profile": "yes", 
		 "theory": "DFT", 
		 "functional": "B3LYP", 
		 "basiset": "6-31G**", 
		 "properties": { 
			 "R2extent": 2936.436, 
			 "electric_dipole_moment_norm": 3.75054159822, 
			 "electric_quadrupole_moment_norm": 15.8693742441, 
			 "total_energy": -556.495920698, 
			 "HOMO_LUMO_gap": 0.19729, 
			 "cosmo_polarized_energy": -10.63, 
			 "cosmo_cavitation_energy": 23.93, 
			 "cosmo_dispersion_energy": -17.88, 
			 "cosmo_repulsion_energy": 1.38, 
			 "cosmo_total_nonelectrostatic_energy": 7.43, 
			 "SMD_solvation_energy": 4.11 
		},
		"coords": [
			{
				"x": 2.0420613157,
				"y": 1.3494093608,
				"z": -2.2592860713,
				"element": "F" 
			},
			{
				"x": 1.155678729,
				"y": 1.1526680276,
				"z": -1.2592696824,
				"element": "C" 
			},
			{
				"x": -0.1965497636,
				"y": 1.0374494221,
				"z": -1.5654124586,
				"element": "C" 
			},
			{
				"x": -1.1047656027,
				"y": 0.8348504696,
				"z": -0.5307573743,
				"element": "C" 
			},
			{
				"x": -0.6751625668,
				"y": 0.7464135213,
				"z": 0.8050523926,
				"element": "C" 
			},
			{
				"x": 0.6971726987,
				"y": 0.8675539626,
				"z": 1.0740553013,
				"element": "C" 
			},
			{
				"x": 1.6187217048,
				"y": 1.0707083769,
				"z": 0.0482232838,
				"element": "C" 
			},
			{
				"x": -1.6497856373,
				"y": 0.5317440013,
				"z": 1.8880882267,
				"element": "C" 
			},
			{
				"x": -2.9563067784,
				"y": 0.4184288906,
				"z": 1.6138424575,
				"element": "N" 
			},
			{
				"x": -3.5435319421,
				"y": 0.2342623254,
				"z": 2.8110046926,
				"element": "N" 
			},
			{
				"x": -2.661438444,
				"y": 0.2247024043,
				"z": 3.8445260387,
				"element": "C" 
			},
			{
				"x": -1.4156314759,
				"y": 0.4154605448,
				"z": 3.2869281326,
				"element": "C" 
			},
			{
				"x": -0.5195522698,
				"y": 1.1068457247,
				"z": -2.5986712992,
				"element": "H" 
			},
			{
				"x": -2.1635901091,
				"y": 0.74212417,
				"z": -0.7456264212,
				"element": "H" 
			},
			{
				"x": 1.0573783811,
				"y": 0.8033106813,
				"z": 2.0960368166,
				"element": "H" 
			},
			{
				"x": 2.6804825354,
				"y": 1.1652323132,
				"z": 0.2486022861,
				"element": "H" 
			},
			{
				"x": -4.5442974908,
				"y": 0.1224187,
				"z": 2.8509604255,
				"element": "H" 
			},
			{
				"x": -2.9794377536,
				"y": 0.086931337,
				"z": 4.8675602504,
				"element": "H" 
			},
			{
				"x": -0.4761455308,
				"y": 0.4632857667,
				"z": 3.8155430027,
				"element": "H" 
			}
		],
		 "valence_orbital": [ 
			{
				"type": "occ",
				"energy": -0.29021,
				"method": "rhf"
			},
			{
				"type": "occ",
				"energy": -0.28415,
				"method": "rhf"
			},
			{
				"type": "occ",
				"energy": -0.25576,
				"method": "rhf"
			},
			{
				"type": "occ",
				"energy": -0.24968,
				"method": "rhf"
			},
			{
				"type": "occ",
				"energy": -0.21395,
				"method": "rhf"
			},
			{
				"type": "unocc",
				"energy": -0.01666,
				"method": "rhf"
			},
			{
				"type": "unocc",
				"energy": -0.00447,
				"method": "rhf"
			},
			{
				"type": "unocc",
				"energy": 0.02859,
				"method": "rhf"
			},
			{
				"type": "unocc",
				"energy": 0.07591,
				"method": "rhf"
			},
			{
				"type": "unocc",
				"energy": 0.09286,
				"method": "rhf"
			}
		],
		"cosmo_sigma_profile": { 
			"-0.025": 0.0,
			"-0.024": 0.0,
			"-0.023": 0.0,
			"-0.022": 0.0,
			"-0.021": 0.0,
			"-0.02": 0.0,
			"-0.019": 0.0,
			"-0.018": 0.0,
			"-0.017": 0.603083406837,
			"-0.016": 1.66854964659,
			"-0.015": 1.18655423647,
			"-0.014": 1.15775358217,
			"-0.013": 1.05621289927,
			"-0.012": 0.947355941448,
			"-0.011": 1.08326008991,
			"-0.01": 1.31003083552,
			"-0.009": 2.95779744245,
			"-0.008": 4.28583341102,
			"-0.007": 6.91289065717,
			"-0.006": 9.76829676254,
			"-0.005": 8.26090221276,
			"-0.004": 10.4103657838,
			"-0.003": 8.0594034202,
			"-0.002": 8.97872357029,
			"-0.001": 7.82842345207,
			"0.0": 9.16930823168,
			"0.001": 14.7266457299,
			"0.002": 14.9600780253,
			"0.003": 18.1579682764,
			"0.004": 30.1668870445,
			"0.005": 15.0799400632,
			"0.006": 3.59551247595,
			"0.007": 2.01346993988,
			"0.008": 1.81783673046,
			"0.009": 1.57897428232,
			"0.01": 0.980128317831,
			"0.011": 1.29736304342,
			"0.012": 1.26075933024,
			"0.013": 0.962667220913,
			"0.014": 0.584036134644,
			"0.015": 0.0226177648292,
			"0.016": 0.0,
			"0.017": 0.0,
			"0.018": 0.0,
			"0.019": 0.0,
			"0.02": 0.0,
			"0.021": 0.0,
			"0.022": 0.0,
			"0.023": 0.0,
			"0.024": 0.0,
			"0.025": 0.0
		}
	}
}
