{
	 "smiles": "NC(C(O)=O)C1=CC=C(F)C=C1", 
	 "Tm": 573.15, 
	 "num_atms": 20, 
	 "gaussian": { 
		 "optdone": 1, 
		 "sigma_profile": "yes", 
		 "theory": "DFT", 
		 "functional": "B3LYP", 
		 "basiset": "6-31G**", 
		 "properties": { 
			 "R2extent": 3165.0397, 
			 "electric_dipole_moment_norm": 0.959536434952, 
			 "electric_quadrupole_moment_norm": 13.0441281663, 
			 "total_energy": -614.714508367, 
			 "HOMO_LUMO_gap": 0.21424, 
			 "cosmo_polarized_energy": -12.11, 
			 "cosmo_cavitation_energy": 25.15, 
			 "cosmo_dispersion_energy": -17.81, 
			 "cosmo_repulsion_energy": 1.42, 
			 "cosmo_total_nonelectrostatic_energy": 8.76, 
			 "SMD_solvation_energy": 4.73 
		},
		"coords": [
			{
				"x": 2.6744010244,
				"y": -2.9945031986,
				"z": -1.6966493017,
				"element": "N" 
			},
			{
				"x": 1.8937293954,
				"y": -2.7166024937,
				"z": -0.4937328943,
				"element": "C" 
			},
			{
				"x": 2.838126386,
				"y": -2.1092283342,
				"z": 0.5389907249,
				"element": "C" 
			},
			{
				"x": 2.4660836443,
				"y": -2.3952161105,
				"z": 1.802217907,
				"element": "O" 
			},
			{
				"x": 3.7921361439,
				"y": -1.4108860693,
				"z": 0.268520864,
				"element": "O" 
			},
			{
				"x": 0.7000908821,
				"y": -1.7717150672,
				"z": -0.6733511017,
				"element": "C" 
			},
			{
				"x": -0.5958494201,
				"y": -2.1925378424,
				"z": -0.355924502,
				"element": "C" 
			},
			{
				"x": -1.6927954055,
				"y": -1.3497041915,
				"z": -0.5431482164,
				"element": "C" 
			},
			{
				"x": -1.4723070962,
				"y": -0.0749808998,
				"z": -1.0494626372,
				"element": "C" 
			},
			{
				"x": -2.5249522949,
				"y": 0.7478009511,
				"z": -1.2362378818,
				"element": "F" 
			},
			{
				"x": -0.1964669406,
				"y": 0.3791804702,
				"z": -1.371051118,
				"element": "C" 
			},
			{
				"x": 0.8857750759,
				"y": -0.4766976268,
				"z": -1.1801128557,
				"element": "C" 
			},
			{
				"x": 3.327931095,
				"y": -2.2307650097,
				"z": -1.8522167774,
				"element": "H" 
			},
			{
				"x": 2.0615587578,
				"y": -3.0564428557,
				"z": -2.5039892983,
				"element": "H" 
			},
			{
				"x": 1.5146093511,
				"y": -3.6574813374,
				"z": -0.0787086531,
				"element": "H" 
			},
			{
				"x": 3.0857482059,
				"y": -1.9246191013,
				"z": 2.3854266019,
				"element": "H" 
			},
			{
				"x": -0.7535869924,
				"y": -3.1920815925,
				"z": 0.0405745609,
				"element": "H" 
			},
			{
				"x": -2.7027819359,
				"y": -1.6661140892,
				"z": -0.3060308661,
				"element": "H" 
			},
			{
				"x": -0.0677455344,
				"y": 1.3840030405,
				"z": -1.7588008676,
				"element": "H" 
			},
			{
				"x": 1.8882956581,
				"y": -0.1332086418,
				"z": -1.4190136874,
				"element": "H" 
			}
		],
		 "valence_orbital": [ 
			{
				"type": "occ",
				"energy": -0.32782,
				"method": "rhf"
			},
			{
				"type": "occ",
				"energy": -0.29068,
				"method": "rhf"
			},
			{
				"type": "occ",
				"energy": -0.26752,
				"method": "rhf"
			},
			{
				"type": "occ",
				"energy": -0.25666,
				"method": "rhf"
			},
			{
				"type": "occ",
				"energy": -0.23439,
				"method": "rhf"
			},
			{
				"type": "unocc",
				"energy": -0.02015,
				"method": "rhf"
			},
			{
				"type": "unocc",
				"energy": -0.01736,
				"method": "rhf"
			},
			{
				"type": "unocc",
				"energy": 0.01655,
				"method": "rhf"
			},
			{
				"type": "unocc",
				"energy": 0.07257,
				"method": "rhf"
			},
			{
				"type": "unocc",
				"energy": 0.08375,
				"method": "rhf"
			}
		],
		"cosmo_sigma_profile": { 
			"-0.025": 0.0,
			"-0.024": 0.0,
			"-0.023": 0.0,
			"-0.022": 0.0,
			"-0.021": 0.0,
			"-0.02": 0.0,
			"-0.019": 0.347899755148,
			"-0.018": 1.08540758712,
			"-0.017": 0.930272830586,
			"-0.016": 0.537872609848,
			"-0.015": 0.706709904014,
			"-0.014": 0.325784857718,
			"-0.013": 0.859233589113,
			"-0.012": 1.34340896637,
			"-0.011": 1.11764637104,
			"-0.01": 1.44415798869,
			"-0.009": 2.06602641596,
			"-0.008": 3.25911465588,
			"-0.007": 10.080256207,
			"-0.006": 11.7160457856,
			"-0.005": 11.5101278822,
			"-0.004": 11.2169758912,
			"-0.003": 9.83990331503,
			"-0.002": 11.3335702212,
			"-0.001": 8.9922449412,
			"0.0": 11.6864764488,
			"0.001": 14.5860932167,
			"0.002": 14.5746260776,
			"0.003": 17.1151158867,
			"0.004": 19.0141276112,
			"0.005": 7.05679535139,
			"0.006": 3.83572358315,
			"0.007": 3.46408270125,
			"0.008": 3.68159440738,
			"0.009": 3.00221045329,
			"0.01": 2.77998100171,
			"0.011": 5.02106683552,
			"0.012": 1.70348293091,
			"0.013": 0.457812079336,
			"0.014": 0.563204716406,
			"0.015": 0.608190403532,
			"0.016": 0.498748448089,
			"0.017": 0.591141863828,
			"0.018": 0.625183768635,
			"0.019": 0.0448127755366,
			"0.02": 0.0,
			"0.021": 0.0,
			"0.022": 0.0,
			"0.023": 0.0,
			"0.024": 0.0,
			"0.025": 0.0
		}
	}
}
