{
	 "smiles": "CC(C(O)=O)C(C)(C)C", 
	 "Tm": 308.15, 
	 "num_atms": 23, 
	 "gaussian": { 
		 "optdone": 1, 
		 "sigma_profile": "yes", 
		 "theory": "DFT", 
		 "functional": "B3LYP", 
		 "basiset": "6-31G**", 
		 "properties": { 
			 "R2extent": 1690.7591, 
			 "electric_dipole_moment_norm": 4.28668026449, 
			 "electric_quadrupole_moment_norm": 9.69416090954, 
			 "total_energy": -425.65318431, 
			 "HOMO_LUMO_gap": 0.27241, 
			 "cosmo_polarized_energy": -11.85, 
			 "cosmo_cavitation_energy": 23.68, 
			 "cosmo_dispersion_energy": -16.9, 
			 "cosmo_repulsion_energy": 1.36, 
			 "cosmo_total_nonelectrostatic_energy": 8.14, 
			 "SMD_solvation_energy": 5.19 
		},
		"coords": [
			{
				"x": -1.0615745923,
				"y": 0.9002288196,
				"z": 1.5132502804,
				"element": "C" 
			},
			{
				"x": 0.2415155607,
				"y": 0.0805776504,
				"z": 1.5909749493,
				"element": "C" 
			},
			{
				"x": 0.1282903112,
				"y": -1.2474972747,
				"z": 0.8345305475,
				"element": "C" 
			},
			{
				"x": -0.50357353,
				"y": -1.2185497159,
				"z": -0.3737058698,
				"element": "O" 
			},
			{
				"x": 0.5727856608,
				"y": -2.2923716842,
				"z": 1.2431138818,
				"element": "O" 
			},
			{
				"x": 1.545369543,
				"y": 0.8693991982,
				"z": 1.1869189766,
				"element": "C" 
			},
			{
				"x": 1.6347277234,
				"y": 2.1601725414,
				"z": 2.0266454049,
				"element": "C" 
			},
			{
				"x": 2.7815544542,
				"y": 0.0005024952,
				"z": 1.4982994879,
				"element": "C" 
			},
			{
				"x": 1.5571599178,
				"y": 1.2403800685,
				"z": -0.3105759188,
				"element": "C" 
			},
			{
				"x": -1.9313000385,
				"y": 0.2705885383,
				"z": 1.7248260877,
				"element": "H" 
			},
			{
				"x": -1.0562791653,
				"y": 1.7069143789,
				"z": 2.2492936845,
				"element": "H" 
			},
			{
				"x": -1.2193323803,
				"y": 1.3710425859,
				"z": 0.5346317366,
				"element": "H" 
			},
			{
				"x": 0.3809252808,
				"y": -0.2265883079,
				"z": 2.6328249381,
				"element": "H" 
			},
			{
				"x": -0.8096093022,
				"y": -0.3222244876,
				"z": -0.5697158985,
				"element": "H" 
			},
			{
				"x": 2.5932376584,
				"y": 2.6580511323,
				"z": 1.8455236011,
				"element": "H" 
			},
			{
				"x": 0.8445371295,
				"y": 2.8749827776,
				"z": 1.7775041485,
				"element": "H" 
			},
			{
				"x": 1.571973692,
				"y": 1.9427947824,
				"z": 3.0989827981,
				"element": "H" 
			},
			{
				"x": 2.8254441863,
				"y": -0.2550184932,
				"z": 2.5624425731,
				"element": "H" 
			},
			{
				"x": 3.6972767932,
				"y": 0.5457710524,
				"z": 1.2453438669,
				"element": "H" 
			},
			{
				"x": 2.7772618589,
				"y": -0.9369433768,
				"z": 0.9368767213,
				"element": "H" 
			},
			{
				"x": 2.4640628067,
				"y": 1.8061040406,
				"z": -0.5479486688,
				"element": "H" 
			},
			{
				"x": 0.7068287596,
				"y": 1.8748649056,
				"z": -0.5869085313,
				"element": "H" 
			},
			{
				"x": 1.5482176722,
				"y": 0.353318373,
				"z": -0.951628797,
				"element": "H" 
			}
		],
		 "valence_orbital": [ 
			{
				"type": "occ",
				"energy": -0.33601,
				"method": "rhf"
			},
			{
				"type": "occ",
				"energy": -0.32945,
				"method": "rhf"
			},
			{
				"type": "occ",
				"energy": -0.32761,
				"method": "rhf"
			},
			{
				"type": "occ",
				"energy": -0.30681,
				"method": "rhf"
			},
			{
				"type": "occ",
				"energy": -0.26066,
				"method": "rhf"
			},
			{
				"type": "unocc",
				"energy": 0.01175,
				"method": "rhf"
			},
			{
				"type": "unocc",
				"energy": 0.04539,
				"method": "rhf"
			},
			{
				"type": "unocc",
				"energy": 0.08902,
				"method": "rhf"
			},
			{
				"type": "unocc",
				"energy": 0.11403,
				"method": "rhf"
			},
			{
				"type": "unocc",
				"energy": 0.11774,
				"method": "rhf"
			}
		],
		"cosmo_sigma_profile": { 
			"-0.025": 0.0,
			"-0.024": 0.0,
			"-0.023": 0.0,
			"-0.022": 0.0,
			"-0.021": 0.0,
			"-0.02": 0.0,
			"-0.019": 0.0,
			"-0.018": 0.0,
			"-0.017": 0.377908839476,
			"-0.016": 0.497636126094,
			"-0.015": 0.870052400521,
			"-0.014": 0.850207693781,
			"-0.013": 0.868621435369,
			"-0.012": 1.2820239563,
			"-0.011": 0.559244620646,
			"-0.01": 0.924581001592,
			"-0.009": 1.2200816665,
			"-0.008": 0.752015022343,
			"-0.007": 1.1863765801,
			"-0.006": 2.03889316232,
			"-0.005": 5.72717325807,
			"-0.004": 11.2275433133,
			"-0.003": 26.7653104797,
			"-0.002": 26.2526160077,
			"-0.001": 20.9010628753,
			"0.0": 19.245442539,
			"0.001": 20.2549706846,
			"0.002": 5.82137867602,
			"0.003": 2.54499753373,
			"0.004": 2.05765814689,
			"0.005": 1.81224330102,
			"0.006": 2.48673910713,
			"0.007": 2.44889098149,
			"0.008": 2.38310137612,
			"0.009": 3.20520447191,
			"0.01": 3.97628114608,
			"0.011": 4.9547489525,
			"0.012": 5.60647313571,
			"0.013": 3.24408445543,
			"0.014": 0.318848733305,
			"0.015": 0.0,
			"0.016": 0.0,
			"0.017": 0.0,
			"0.018": 0.0,
			"0.019": 0.0,
			"0.02": 0.0,
			"0.021": 0.0,
			"0.022": 0.0,
			"0.023": 0.0,
			"0.024": 0.0,
			"0.025": 0.0
		}
	}
}
