{
	 "smiles": "CC(C)(C)OC(=O)N1CCN(CC1)C1=NC=C(I)C=C1", 
	 "Tm": 377.15, 
	 "num_atms": 40, 
	 "gaussian": { 
		 "optdone": 1, 
		 "sigma_profile": "no", 
		 "theory": "DFT", 
		 "functional": "B3LYP", 
		 "basiset": "6-31G**", 
		 "properties": { 
			 "R2extent": 10667.0254, 
			 "electric_dipole_moment_norm": 3.92563994019, 
			 "electric_quadrupole_moment_norm": 8.86242756078, 
			 "total_energy": -871.66722299, 
			 "HOMO_LUMO_gap": 0.1713, 
			 "cosmo_polarized_energy": -110819.79, 
			 "cosmo_cavitation_energy": 44.17, 
			 "cosmo_dispersion_energy": -32.94, 
			 "cosmo_repulsion_energy": 2.51, 
			 "cosmo_total_nonelectrostatic_energy": 13.74, 
			 "SMD_solvation_energy": 5.18 
		},
		"coords": [
			{
				"x": -3.5938101877,
				"y": -1.5255949757,
				"z": -2.2948176022,
				"element": "C" 
			},
			{
				"x": -3.1111136906,
				"y": -1.9960681847,
				"z": -0.9187190345,
				"element": "C" 
			},
			{
				"x": -3.1155988503,
				"y": -3.5231042177,
				"z": -0.7909709456,
				"element": "C" 
			},
			{
				"x": -3.9436018402,
				"y": -1.3565063263,
				"z": 0.1958744591,
				"element": "C" 
			},
			{
				"x": -1.7622389862,
				"y": -1.4710290258,
				"z": -0.648834068,
				"element": "O" 
			},
			{
				"x": -0.714715817,
				"y": -1.8084935713,
				"z": -1.4401031027,
				"element": "C" 
			},
			{
				"x": -0.7658648525,
				"y": -2.5567400118,
				"z": -2.4058688321,
				"element": "O" 
			},
			{
				"x": 0.4365369093,
				"y": -1.1824205137,
				"z": -1.0277699154,
				"element": "N" 
			},
			{
				"x": 0.5712581303,
				"y": -0.3863322856,
				"z": 0.1828492604,
				"element": "C" 
			},
			{
				"x": 1.3690287765,
				"y": 0.8942807449,
				"z": -0.0964710311,
				"element": "C" 
			},
			{
				"x": 2.6329352922,
				"y": 0.5869848226,
				"z": -0.7569781958,
				"element": "N" 
			},
			{
				"x": 2.4840806605,
				"y": -0.2247921268,
				"z": -1.971623758,
				"element": "C" 
			},
			{
				"x": 1.7022059285,
				"y": -1.5025644384,
				"z": -1.6786352856,
				"element": "C" 
			},
			{
				"x": 3.7408908361,
				"y": 1.4112927175,
				"z": -0.6251247004,
				"element": "C" 
			},
			{
				"x": 4.7967577707,
				"y": 1.1225588901,
				"z": -1.4100024566,
				"element": "N" 
			},
			{
				"x": 5.91744791,
				"y": 1.834719325,
				"z": -1.3000335474,
				"element": "C" 
			},
			{
				"x": 6.0621774908,
				"y": 2.8902004634,
				"z": -0.4014610739,
				"element": "C" 
			},
			{
				"x": 7.876015966,
				"y": 3.9703174298,
				"z": -0.29054788,
				"element": "I" 
			},
			{
				"x": 4.969435165,
				"y": 3.2199161857,
				"z": 0.4046703273,
				"element": "C" 
			},
			{
				"x": 3.7968822916,
				"y": 2.4869807594,
				"z": 0.2951062259,
				"element": "C" 
			},
			{
				"x": -2.9902039449,
				"y": -1.9625599166,
				"z": -3.0903036892,
				"element": "H" 
			},
			{
				"x": -4.6381412744,
				"y": -1.8216313842,
				"z": -2.4380603455,
				"element": "H" 
			},
			{
				"x": -3.538372985,
				"y": -0.4344391056,
				"z": -2.3642393078,
				"element": "H" 
			},
			{
				"x": -4.1415706126,
				"y": -3.8953872143,
				"z": -0.8779081943,
				"element": "H" 
			},
			{
				"x": -2.5058772008,
				"y": -3.9814385752,
				"z": -1.5695285775,
				"element": "H" 
			},
			{
				"x": -2.7277823486,
				"y": -3.8233029137,
				"z": 0.1877618435,
				"element": "H" 
			},
			{
				"x": -4.987830188,
				"y": -1.6718557812,
				"z": 0.1126853527,
				"element": "H" 
			},
			{
				"x": -3.5692574795,
				"y": -1.6565461779,
				"z": 1.1790963272,
				"element": "H" 
			},
			{
				"x": -3.9061839685,
				"y": -0.2650751935,
				"z": 0.1294974539,
				"element": "H" 
			},
			{
				"x": -0.4171721289,
				"y": -0.1301237661,
				"z": 0.5595260227,
				"element": "H" 
			},
			{
				"x": 1.0970465749,
				"y": -0.9699028366,
				"z": 0.9542484846,
				"element": "H" 
			},
			{
				"x": 0.7608706539,
				"y": 1.5795386012,
				"z": -0.7105131342,
				"element": "H" 
			},
			{
				"x": 1.5578207163,
				"y": 1.3784183521,
				"z": 0.8626143435,
				"element": "H" 
			},
			{
				"x": 3.4786586246,
				"y": -0.4622209284,
				"z": -2.344731333,
				"element": "H" 
			},
			{
				"x": 1.9560312585,
				"y": 0.3553483231,
				"z": -2.7459000389,
				"element": "H" 
			},
			{
				"x": 2.2993256851,
				"y": -2.1571027248,
				"z": -1.0260892655,
				"element": "H" 
			},
			{
				"x": 1.4826045111,
				"y": -2.0395646148,
				"z": -2.6012673828,
				"element": "H" 
			},
			{
				"x": 6.7338173696,
				"y": 1.550944622,
				"z": -1.9604367325,
				"element": "H" 
			},
			{
				"x": 5.0249368089,
				"y": 4.0459558998,
				"z": 1.1057595826,
				"element": "H" 
			},
			{
				"x": 2.9482710256,
				"y": 2.7641396742,
				"z": 0.9067497471,
				"element": "H" 
			}
		],
		 "valence_orbital": [ 
			{
				"type": "occ",
				"energy": -0.26684,
				"method": "rhf"
			},
			{
				"type": "occ",
				"energy": -0.26338,
				"method": "rhf"
			},
			{
				"type": "occ",
				"energy": -0.25961,
				"method": "rhf"
			},
			{
				"type": "occ",
				"energy": -0.24245,
				"method": "rhf"
			},
			{
				"type": "occ",
				"energy": -0.20733,
				"method": "rhf"
			},
			{
				"type": "unocc",
				"energy": -0.03603,
				"method": "rhf"
			},
			{
				"type": "unocc",
				"energy": -0.02882,
				"method": "rhf"
			},
			{
				"type": "unocc",
				"energy": -0.00811,
				"method": "rhf"
			},
			{
				"type": "unocc",
				"energy": 0.04399,
				"method": "rhf"
			},
			{
				"type": "unocc",
				"energy": 0.04839,
				"method": "rhf"
			}
		],
		"cosmo_sigma_profile": { 
			"0.0": 0.0,
			"0.0": 0.0,
			"0.0": 0.0,
			"0.0": 0.0,
			"0.0": 0.0,
			"0.0": 0.0,
			"0.0": 0.0,
			"0.0": 0.0,
			"0.0": 0.0,
			"0.0": 0.0,
			"0.0": 0.0,
			"0.0": 0.0,
			"0.0": 0.0,
			"0.0": 0.0,
			"0.0": 0.0,
			"0.0": 0.0,
			"0.0": 0.0,
			"0.0": 0.0,
			"0.0": 0.0,
			"0.0": 0.0,
			"0.0": 0.0,
			"0.0": 0.0,
			"0.0": 0.0,
			"0.0": 0.0,
			"0.0": 0.0,
			"0.0": 0.0,
			"0.0": 0.0,
			"0.0": 0.0,
			"0.0": 0.0,
			"0.0": 0.0,
			"0.0": 0.0,
			"0.0": 0.0,
			"0.0": 0.0,
			"0.0": 0.0,
			"0.0": 0.0,
			"0.0": 0.0,
			"0.0": 0.0,
			"0.0": 0.0,
			"0.0": 0.0,
			"0.0": 0.0,
			"0.0": 0.0,
			"0.0": 0.0,
			"0.0": 0.0,
			"0.0": 0.0,
			"0.0": 0.0,
			"0.0": 0.0,
			"0.0": 0.0,
			"0.0": 0.0,
			"0.0": 0.0,
			"0.0": 0.0,
			"0.0": 0.0
		}
	}
}
