{
	 "smiles": "IC1=CC=C(I)C=C1", 
	 "Tm": 404.15, 
	 "num_atms": 12, 
	 "gaussian": { 
		 "optdone": 1, 
		 "sigma_profile": "no", 
		 "theory": "DFT", 
		 "functional": "B3LYP", 
		 "basiset": "6-31G**", 
		 "properties": { 
			 "R2extent": 1610.7644, 
			 "electric_dipole_moment_norm": 0.0, 
			 "electric_quadrupole_moment_norm": 6.21666035183, 
			 "total_energy": -253.817596512, 
			 "HOMO_LUMO_gap": 0.19029, 
			 "cosmo_polarized_energy": -183516.87, 
			 "cosmo_cavitation_energy": 22.55, 
			 "cosmo_dispersion_energy": -19.67, 
			 "cosmo_repulsion_energy": 1.55, 
			 "cosmo_total_nonelectrostatic_energy": 4.43, 
			 "SMD_solvation_energy": 2.09 
		},
		"coords": [
			{
				"x": -4.3508824987,
				"y": 1.189534477,
				"z": -0.1521693006,
				"element": "I" 
			},
			{
				"x": -2.4785281919,
				"y": 0.4776707743,
				"z": 0.5370867659,
				"element": "C" 
			},
			{
				"x": -1.3732679232,
				"y": 0.5052922849,
				"z": -0.3148024159,
				"element": "C" 
			},
			{
				"x": -0.1387273262,
				"y": 0.0359366534,
				"z": 0.1395983501,
				"element": "C" 
			},
			{
				"x": -0.0234057775,
				"y": -0.4557376072,
				"z": 1.4407644549,
				"element": "C" 
			},
			{
				"x": 1.8489487754,
				"y": -1.1676005964,
				"z": 2.1300146882,
				"element": "I" 
			},
			{
				"x": -1.1286647776,
				"y": -0.4833583605,
				"z": 2.2926534728,
				"element": "C" 
			},
			{
				"x": -2.3632067273,
				"y": -0.0140032788,
				"z": 1.8382513511,
				"element": "C" 
			},
			{
				"x": -1.4619016599,
				"y": 0.8870666184,
				"z": -1.3257429033,
				"element": "H" 
			},
			{
				"x": 0.719305429,
				"y": 0.0577959099,
				"z": -0.5229041563,
				"element": "H" 
			},
			{
				"x": -1.0400312631,
				"y": -0.8651325356,
				"z": 3.3035938566,
				"element": "H" 
			},
			{
				"x": -3.221238059,
				"y": -0.0358643396,
				"z": 2.5007558364,
				"element": "H" 
			}
		],
		 "valence_orbital": [ 
			{
				"type": "occ",
				"energy": -0.27817,
				"method": "rhf"
			},
			{
				"type": "occ",
				"energy": -0.27803,
				"method": "rhf"
			},
			{
				"type": "occ",
				"energy": -0.27624,
				"method": "rhf"
			},
			{
				"type": "occ",
				"energy": -0.27366,
				"method": "rhf"
			},
			{
				"type": "occ",
				"energy": -0.23995,
				"method": "rhf"
			},
			{
				"type": "unocc",
				"energy": -0.04966,
				"method": "rhf"
			},
			{
				"type": "unocc",
				"energy": -0.04211,
				"method": "rhf"
			},
			{
				"type": "unocc",
				"energy": -0.03427,
				"method": "rhf"
			},
			{
				"type": "unocc",
				"energy": -0.02889,
				"method": "rhf"
			},
			{
				"type": "unocc",
				"energy": 0.03285,
				"method": "rhf"
			}
		],
		"cosmo_sigma_profile": { 
			"0.0": 0.0,
			"0.0": 0.0,
			"0.0": 0.0,
			"0.0": 0.0,
			"0.0": 0.0,
			"0.0": 0.0,
			"0.0": 0.0,
			"0.0": 0.0,
			"0.0": 0.0,
			"0.0": 0.0,
			"0.0": 0.0,
			"0.0": 0.0,
			"0.0": 0.0,
			"0.0": 0.0,
			"0.0": 0.0,
			"0.0": 0.0,
			"0.0": 0.0,
			"0.0": 0.0,
			"0.0": 0.0,
			"0.0": 0.0,
			"0.0": 0.0,
			"0.0": 0.0,
			"0.0": 0.0,
			"0.0": 0.0,
			"0.0": 0.0,
			"0.0": 0.0,
			"0.0": 0.0,
			"0.0": 0.0,
			"0.0": 0.0,
			"0.0": 0.0,
			"0.0": 0.0,
			"0.0": 0.0,
			"0.0": 0.0,
			"0.0": 0.0,
			"0.0": 0.0,
			"0.0": 0.0,
			"0.0": 0.0,
			"0.0": 0.0,
			"0.0": 0.0,
			"0.0": 0.0,
			"0.0": 0.0,
			"0.0": 0.0,
			"0.0": 0.0,
			"0.0": 0.0,
			"0.0": 0.0,
			"0.0": 0.0,
			"0.0": 0.0,
			"0.0": 0.0,
			"0.0": 0.0,
			"0.0": 0.0,
			"0.0": 0.0
		}
	}
}
