{
	 "smiles": "COC1=CC(=CC(=C1)N(=O)=O)N(=O)=O", 
	 "Tm": 378.15, 
	 "num_atms": 20, 
	 "gaussian": { 
		 "optdone": 1, 
		 "sigma_profile": "yes", 
		 "theory": "DFT", 
		 "functional": "B3LYP", 
		 "basiset": "6-31G**", 
		 "properties": { 
			 "R2extent": 4538.766, 
			 "electric_dipole_moment_norm": 5.35071038087, 
			 "electric_quadrupole_moment_norm": 17.718210034, 
			 "total_energy": -755.764400617, 
			 "HOMO_LUMO_gap": 0.15683, 
			 "cosmo_polarized_energy": -12.15, 
			 "cosmo_cavitation_energy": 26.43, 
			 "cosmo_dispersion_energy": -19.24, 
			 "cosmo_repulsion_energy": 1.51, 
			 "cosmo_total_nonelectrostatic_energy": 8.71, 
			 "SMD_solvation_energy": 10.02 
		},
		"coords": [
			{
				"x": 1.2090346756,
				"y": -1.621461074,
				"z": 1.1110399608,
				"element": "C" 
			},
			{
				"x": 1.2783199672,
				"y": -1.627162175,
				"z": -0.312872285,
				"element": "O" 
			},
			{
				"x": 0.8933208803,
				"y": -0.516427263,
				"z": -0.9824384736,
				"element": "C" 
			},
			{
				"x": 0.9848569038,
				"y": -0.5861071807,
				"z": -2.3823198253,
				"element": "C" 
			},
			{
				"x": 0.6074950288,
				"y": 0.514358032,
				"z": -3.1372614866,
				"element": "C" 
			},
			{
				"x": 0.1371216216,
				"y": 1.6984429958,
				"z": -2.5733586715,
				"element": "C" 
			},
			{
				"x": 0.0611931358,
				"y": 1.7285742849,
				"z": -1.1892415383,
				"element": "C" 
			},
			{
				"x": 0.425802666,
				"y": 0.6550017009,
				"z": -0.3758637132,
				"element": "C" 
			},
			{
				"x": -0.4307926131,
				"y": 2.958842941,
				"z": -0.5357536659,
				"element": "N" 
			},
			{
				"x": -0.4890159934,
				"y": 2.9622047258,
				"z": 0.6929413568,
				"element": "O" 
			},
			{
				"x": -0.7490532264,
				"y": 3.8969039352,
				"z": -1.2609465422,
				"element": "O" 
			},
			{
				"x": 0.7093036923,
				"y": 0.4262426637,
				"z": -4.6090867847,
				"element": "N" 
			},
			{
				"x": 0.3698914368,
				"y": 1.4128077118,
				"z": -5.2569987795,
				"element": "O" 
			},
			{
				"x": 1.1264445479,
				"y": -0.6265660717,
				"z": -5.0857867702,
				"element": "O" 
			},
			{
				"x": 0.180122998,
				"y": -1.4739687308,
				"z": 1.4600133348,
				"element": "H" 
			},
			{
				"x": 1.8553828703,
				"y": -0.846082006,
				"z": 1.5390743381,
				"element": "H" 
			},
			{
				"x": 1.5619046262,
				"y": -2.6027991254,
				"z": 1.4279191397,
				"element": "H" 
			},
			{
				"x": 1.3448836229,
				"y": -1.4865687879,
				"z": -2.8627094086,
				"element": "H" 
			},
			{
				"x": -0.1516525977,
				"y": 2.5440700257,
				"z": -3.1804042765,
				"element": "H" 
			},
			{
				"x": 0.3348357571,
				"y": 0.7641933975,
				"z": 0.6954540909,
				"element": "H" 
			}
		],
		 "valence_orbital": [ 
			{
				"type": "occ",
				"energy": -0.31937,
				"method": "rhf"
			},
			{
				"type": "occ",
				"energy": -0.30958,
				"method": "rhf"
			},
			{
				"type": "occ",
				"energy": -0.30787,
				"method": "rhf"
			},
			{
				"type": "occ",
				"energy": -0.3061,
				"method": "rhf"
			},
			{
				"type": "occ",
				"energy": -0.26842,
				"method": "rhf"
			},
			{
				"type": "unocc",
				"energy": -0.11159,
				"method": "rhf"
			},
			{
				"type": "unocc",
				"energy": -0.0991,
				"method": "rhf"
			},
			{
				"type": "unocc",
				"energy": -0.02102,
				"method": "rhf"
			},
			{
				"type": "unocc",
				"energy": -0.00697,
				"method": "rhf"
			},
			{
				"type": "unocc",
				"energy": 0.06381,
				"method": "rhf"
			}
		],
		"cosmo_sigma_profile": { 
			"-0.025": 0.0,
			"-0.024": 0.0,
			"-0.023": 0.0,
			"-0.022": 0.0,
			"-0.021": 0.0,
			"-0.02": 0.0,
			"-0.019": 0.0,
			"-0.018": 0.0,
			"-0.017": 0.0,
			"-0.016": 0.0,
			"-0.015": 0.0,
			"-0.014": 0.0,
			"-0.013": 0.0,
			"-0.012": 0.0,
			"-0.011": 0.0,
			"-0.01": 0.0,
			"-0.009": 1.34639950718,
			"-0.008": 4.86422427232,
			"-0.007": 10.7216724695,
			"-0.006": 14.2267459577,
			"-0.005": 15.799164282,
			"-0.004": 16.7449925431,
			"-0.003": 19.2274846598,
			"-0.002": 23.5366195686,
			"-0.001": 14.1833021752,
			"0.0": 7.45302703875,
			"0.001": 7.07605035136,
			"0.002": 5.57075365583,
			"0.003": 5.66800354025,
			"0.004": 6.38352725547,
			"0.005": 9.55308810849,
			"0.006": 12.1260897557,
			"0.007": 18.9220276646,
			"0.008": 10.9619250412,
			"0.009": 6.92122361636,
			"0.01": 1.01554210351,
			"0.011": 0.0,
			"0.012": 0.0,
			"0.013": 0.0,
			"0.014": 0.0,
			"0.015": 0.0,
			"0.016": 0.0,
			"0.017": 0.0,
			"0.018": 0.0,
			"0.019": 0.0,
			"0.02": 0.0,
			"0.021": 0.0,
			"0.022": 0.0,
			"0.023": 0.0,
			"0.024": 0.0,
			"0.025": 0.0
		}
	}
}
