{
	 "smiles": "CC1=C(O)C(O)=C(C=C1)C(O)=O", 
	 "Tm": 478.15, 
	 "num_atms": 20, 
	 "gaussian": { 
		 "optdone": 1, 
		 "sigma_profile": "yes", 
		 "theory": "DFT", 
		 "functional": "B3LYP", 
		 "basiset": "6-31G**", 
		 "properties": { 
			 "R2extent": 2274.2131, 
			 "electric_dipole_moment_norm": 4.61224947396, 
			 "electric_quadrupole_moment_norm": 7.60768909722, 
			 "total_energy": -610.581537997, 
			 "HOMO_LUMO_gap": 0.17977, 
			 "cosmo_polarized_energy": -16.73, 
			 "cosmo_cavitation_energy": 24.17, 
			 "cosmo_dispersion_energy": -18.31, 
			 "cosmo_repulsion_energy": 1.46, 
			 "cosmo_total_nonelectrostatic_energy": 7.31, 
			 "SMD_solvation_energy": 5.96 
		},
		"coords": [
			{
				"x": 0.4048971409,
				"y": 1.1957003121,
				"z": 2.6940717399,
				"element": "C" 
			},
			{
				"x": 0.3032333711,
				"y": 0.3648820993,
				"z": 1.4376433904,
				"element": "C" 
			},
			{
				"x": -0.7813222433,
				"y": 0.5205966449,
				"z": 0.5778377225,
				"element": "C" 
			},
			{
				"x": -1.8114496836,
				"y": 1.4134446137,
				"z": 0.7946330158,
				"element": "O" 
			},
			{
				"x": -0.9208236184,
				"y": -0.2313094292,
				"z": -0.6074962092,
				"element": "C" 
			},
			{
				"x": -2.008372067,
				"y": -0.0135836087,
				"z": -1.3831988447,
				"element": "O" 
			},
			{
				"x": 0.0691741558,
				"y": -1.1741518283,
				"z": -0.9378507154,
				"element": "C" 
			},
			{
				"x": 1.1648034421,
				"y": -1.3306531339,
				"z": -0.0675216298,
				"element": "C" 
			},
			{
				"x": 1.2822442049,
				"y": -0.5824578556,
				"z": 1.0913909292,
				"element": "C" 
			},
			{
				"x": 0.0647551389,
				"y": -2.0391717454,
				"z": -2.1469117565,
				"element": "C" 
			},
			{
				"x": -0.9964262102,
				"y": -1.8697954523,
				"z": -2.9658936403,
				"element": "O" 
			},
			{
				"x": 0.9415381548,
				"y": -2.8470594609,
				"z": -2.4003955567,
				"element": "O" 
			},
			{
				"x": 0.4357477992,
				"y": 2.2715005831,
				"z": 2.4742294712,
				"element": "H" 
			},
			{
				"x": 1.3156627344,
				"y": 0.9542247551,
				"z": 3.2461964964,
				"element": "H" 
			},
			{
				"x": -0.4402379014,
				"y": 1.0196800829,
				"z": 3.3736386839,
				"element": "H" 
			},
			{
				"x": -1.6783751035,
				"y": 1.8817831282,
				"z": 1.6268411567,
				"element": "H" 
			},
			{
				"x": -2.5355030602,
				"y": 0.6724744262,
				"z": -0.9440137441,
				"element": "H" 
			},
			{
				"x": 1.9155224161,
				"y": -2.0625886956,
				"z": -0.3416088596,
				"element": "H" 
			},
			{
				"x": 2.1372310212,
				"y": -0.7219884645,
				"z": 1.7461288025,
				"element": "H" 
			},
			{
				"x": -0.8514996918,
				"y": -2.496526971,
				"z": -3.6945204523,
				"element": "H" 
			}
		],
		 "valence_orbital": [ 
			{
				"type": "occ",
				"energy": -0.33058,
				"method": "rhf"
			},
			{
				"type": "occ",
				"energy": -0.30229,
				"method": "rhf"
			},
			{
				"type": "occ",
				"energy": -0.26541,
				"method": "rhf"
			},
			{
				"type": "occ",
				"energy": -0.24232,
				"method": "rhf"
			},
			{
				"type": "occ",
				"energy": -0.21624,
				"method": "rhf"
			},
			{
				"type": "unocc",
				"energy": -0.03647,
				"method": "rhf"
			},
			{
				"type": "unocc",
				"energy": 0.01197,
				"method": "rhf"
			},
			{
				"type": "unocc",
				"energy": 0.04199,
				"method": "rhf"
			},
			{
				"type": "unocc",
				"energy": 0.06519,
				"method": "rhf"
			},
			{
				"type": "unocc",
				"energy": 0.09204,
				"method": "rhf"
			}
		],
		"cosmo_sigma_profile": { 
			"-0.025": 0.0,
			"-0.024": 0.0,
			"-0.023": 0.0,
			"-0.022": 0.0,
			"-0.021": 0.0,
			"-0.02": 0.0,
			"-0.019": 0.0,
			"-0.018": 0.525918012589,
			"-0.017": 1.30221736306,
			"-0.016": 1.77612626233,
			"-0.015": 2.03934547429,
			"-0.014": 1.98491809331,
			"-0.013": 1.39290411403,
			"-0.012": 2.13008195614,
			"-0.011": 3.58673175386,
			"-0.01": 3.25877523542,
			"-0.009": 2.02322537499,
			"-0.008": 1.3121353214,
			"-0.007": 4.08649453549,
			"-0.006": 6.1426019776,
			"-0.005": 10.7663839802,
			"-0.004": 9.36320834088,
			"-0.003": 10.4551639257,
			"-0.002": 12.2270368402,
			"-0.001": 14.6489878242,
			"0.0": 10.4822565467,
			"0.001": 12.6572655254,
			"0.002": 14.642570351,
			"0.003": 12.2343946105,
			"0.004": 11.4644775822,
			"0.005": 8.38437587921,
			"0.006": 5.00221778955,
			"0.007": 3.35143749052,
			"0.008": 3.62290819217,
			"0.009": 1.9870615788,
			"0.01": 4.16556676996,
			"0.011": 3.76613691112,
			"0.012": 6.67606418661,
			"0.013": 2.69637032153,
			"0.014": 1.55201764036,
			"0.015": 0.145416404573,
			"0.016": 0.0,
			"0.017": 0.0,
			"0.018": 0.0,
			"0.019": 0.0,
			"0.02": 0.0,
			"0.021": 0.0,
			"0.022": 0.0,
			"0.023": 0.0,
			"0.024": 0.0,
			"0.025": 0.0
		}
	}
}
