{
	 "smiles": "CCOC1=CC(F)=CC=C1", 
	 "Tm": 245.65, 
	 "num_atms": 19, 
	 "gaussian": { 
		 "optdone": 1, 
		 "sigma_profile": "yes", 
		 "theory": "DFT", 
		 "functional": "B3LYP", 
		 "basiset": "6-31G**", 
		 "properties": { 
			 "R2extent": 2857.2389, 
			 "electric_dipole_moment_norm": 1.55213821872, 
			 "electric_quadrupole_moment_norm": 7.18592166601, 
			 "total_energy": -485.32969708, 
			 "HOMO_LUMO_gap": 0.22152, 
			 "cosmo_polarized_energy": -4.97, 
			 "cosmo_cavitation_energy": 23.06, 
			 "cosmo_dispersion_energy": -17.03, 
			 "cosmo_repulsion_energy": 1.38, 
			 "cosmo_total_nonelectrostatic_energy": 7.41, 
			 "SMD_solvation_energy": 4.91 
		},
		"coords": [
			{
				"x": -0.9709639667,
				"y": 1.4287683648,
				"z": 1.3751803503,
				"element": "C" 
			},
			{
				"x": -0.4617524747,
				"y": 0.6457599703,
				"z": 0.1777674576,
				"element": "C" 
			},
			{
				"x": -1.2728358643,
				"y": -0.5224443374,
				"z": 0.0507833096,
				"element": "O" 
			},
			{
				"x": -1.012772959,
				"y": -1.3968390718,
				"z": -0.9600221043,
				"element": "C" 
			},
			{
				"x": 0.0113472531,
				"y": -1.229372464,
				"z": -1.9002883375,
				"element": "C" 
			},
			{
				"x": 0.1677586692,
				"y": -2.2024406636,
				"z": -2.8846517722,
				"element": "C" 
			},
			{
				"x": 1.1589504279,
				"y": -2.0313277106,
				"z": -3.7870760135,
				"element": "F" 
			},
			{
				"x": -0.6407680166,
				"y": -3.3251463946,
				"z": -2.9762485795,
				"element": "C" 
			},
			{
				"x": -1.6572996998,
				"y": -3.4706653053,
				"z": -2.0255457953,
				"element": "C" 
			},
			{
				"x": -1.8488896107,
				"y": -2.5238744112,
				"z": -1.0261636206,
				"element": "C" 
			},
			{
				"x": -2.0159681406,
				"y": 1.7168280843,
				"z": 1.231224535,
				"element": "H" 
			},
			{
				"x": -0.3756186527,
				"y": 2.3368313673,
				"z": 1.5109884121,
				"element": "H" 
			},
			{
				"x": -0.9012498043,
				"y": 0.8282067822,
				"z": 2.2863359138,
				"element": "H" 
			},
			{
				"x": -0.5268024105,
				"y": 1.2465525474,
				"z": -0.7404056078,
				"element": "H" 
			},
			{
				"x": 0.5896200486,
				"y": 0.3565802467,
				"z": 0.3163797797,
				"element": "H" 
			},
			{
				"x": 0.6820990935,
				"y": -0.3804832897,
				"z": -1.893809344,
				"element": "H" 
			},
			{
				"x": -0.4747275158,
				"y": -4.051540416,
				"z": -3.7631024182,
				"element": "H" 
			},
			{
				"x": -2.3081672397,
				"y": -4.3388954618,
				"z": -2.0693690496,
				"element": "H" 
			},
			{
				"x": -2.6343591369,
				"y": -2.629797837,
				"z": -0.2860771155,
				"element": "H" 
			}
		],
		 "valence_orbital": [ 
			{
				"type": "occ",
				"energy": -0.34931,
				"method": "rhf"
			},
			{
				"type": "occ",
				"energy": -0.33429,
				"method": "rhf"
			},
			{
				"type": "occ",
				"energy": -0.31341,
				"method": "rhf"
			},
			{
				"type": "occ",
				"energy": -0.24723,
				"method": "rhf"
			},
			{
				"type": "occ",
				"energy": -0.22056,
				"method": "rhf"
			},
			{
				"type": "unocc",
				"energy": 0.00096,
				"method": "rhf"
			},
			{
				"type": "unocc",
				"energy": 0.01234,
				"method": "rhf"
			},
			{
				"type": "unocc",
				"energy": 0.08899,
				"method": "rhf"
			},
			{
				"type": "unocc",
				"energy": 0.09617,
				"method": "rhf"
			},
			{
				"type": "unocc",
				"energy": 0.12528,
				"method": "rhf"
			}
		],
		"cosmo_sigma_profile": { 
			"-0.025": 0.0,
			"-0.024": 0.0,
			"-0.023": 0.0,
			"-0.022": 0.0,
			"-0.021": 0.0,
			"-0.02": 0.0,
			"-0.019": 0.0,
			"-0.018": 0.0,
			"-0.017": 0.0,
			"-0.016": 0.0,
			"-0.015": 0.0,
			"-0.014": 0.0,
			"-0.013": 0.0,
			"-0.012": 0.0,
			"-0.011": 0.0,
			"-0.01": 0.0,
			"-0.009": 0.0,
			"-0.008": 0.140375723425,
			"-0.007": 2.59690905106,
			"-0.006": 7.40927782761,
			"-0.005": 13.2507182487,
			"-0.004": 18.1096746632,
			"-0.003": 17.6017362029,
			"-0.002": 14.4950382888,
			"-0.001": 11.6324361302,
			"0.0": 14.785038878,
			"0.001": 12.2936093306,
			"0.002": 13.8839581267,
			"0.003": 14.8077257102,
			"0.004": 20.926253635,
			"0.005": 13.8730722403,
			"0.006": 1.83662303063,
			"0.007": 1.66247865472,
			"0.008": 1.4968904244,
			"0.009": 1.52221133308,
			"0.01": 0.885516803424,
			"0.011": 0.0,
			"0.012": 0.0,
			"0.013": 0.0,
			"0.014": 0.0,
			"0.015": 0.0,
			"0.016": 0.0,
			"0.017": 0.0,
			"0.018": 0.0,
			"0.019": 0.0,
			"0.02": 0.0,
			"0.021": 0.0,
			"0.022": 0.0,
			"0.023": 0.0,
			"0.024": 0.0,
			"0.025": 0.0
		}
	}
}
