{
	 "smiles": "ClC(=NNC1=CC=CC=C1)C(=O)NC1=CC=CC=C1", 
	 "Tm": 433.15, 
	 "num_atms": 31, 
	 "gaussian": { 
		 "optdone": 1, 
		 "sigma_profile": "yes", 
		 "theory": "DFT", 
		 "functional": "B3LYP", 
		 "basiset": "6-31G**", 
		 "properties": { 
			 "R2extent": 6602.3916, 
			 "electric_dipole_moment_norm": 4.17370587728, 
			 "electric_quadrupole_moment_norm": 23.8355600081, 
			 "total_energy": -1240.36892071, 
			 "HOMO_LUMO_gap": 0.15617, 
			 "cosmo_polarized_energy": -15.53, 
			 "cosmo_cavitation_energy": 38.37, 
			 "cosmo_dispersion_energy": -25.98, 
			 "cosmo_repulsion_energy": 2.03, 
			 "cosmo_total_nonelectrostatic_energy": 14.42, 
			 "SMD_solvation_energy": 6.59 
		},
		"coords": [
			{
				"x": 3.0895018334,
				"y": 2.533097574,
				"z": -2.462456668,
				"element": "Cl" 
			},
			{
				"x": 2.041752264,
				"y": 2.2582967113,
				"z": -1.0574438303,
				"element": "C" 
			},
			{
				"x": 0.986696756,
				"y": 1.5389878608,
				"z": -1.1196246999,
				"element": "N" 
			},
			{
				"x": 0.6089893874,
				"y": 0.932024912,
				"z": -2.2317690411,
				"element": "N" 
			},
			{
				"x": -0.5519949705,
				"y": 0.146095151,
				"z": -2.2887582717,
				"element": "C" 
			},
			{
				"x": -0.9207106843,
				"y": -0.399255889,
				"z": -3.5262485137,
				"element": "C" 
			},
			{
				"x": -2.0637854591,
				"y": -1.1899157084,
				"z": -3.6222461731,
				"element": "C" 
			},
			{
				"x": -2.8469408869,
				"y": -1.4415077554,
				"z": -2.4943094204,
				"element": "C" 
			},
			{
				"x": -2.470791889,
				"y": -0.893421135,
				"z": -1.2651939549,
				"element": "C" 
			},
			{
				"x": -1.3295824202,
				"y": -0.1029105504,
				"z": -1.1496069131,
				"element": "C" 
			},
			{
				"x": 2.406394796,
				"y": 3.0399723846,
				"z": 0.1670613572,
				"element": "C" 
			},
			{
				"x": 3.0716454302,
				"y": 4.061704425,
				"z": 0.0858600879,
				"element": "O" 
			},
			{
				"x": 1.896694619,
				"y": 2.6171944722,
				"z": 1.3784472281,
				"element": "N" 
			},
			{
				"x": 1.4415693412,
				"y": 1.3467776605,
				"z": 1.8224473561,
				"element": "C" 
			},
			{
				"x": 0.3398995875,
				"y": 1.295271339,
				"z": 2.685061739,
				"element": "C" 
			},
			{
				"x": -0.0967825657,
				"y": 0.0709843172,
				"z": 3.1925406454,
				"element": "C" 
			},
			{
				"x": 0.5504049808,
				"y": -1.1116641413,
				"z": 2.8313930972,
				"element": "C" 
			},
			{
				"x": 1.6508181325,
				"y": -1.0588454749,
				"z": 1.9721651647,
				"element": "C" 
			},
			{
				"x": 2.1073458498,
				"y": 0.1622759926,
				"z": 1.4804022801,
				"element": "C" 
			},
			{
				"x": 1.1607897973,
				"y": 1.0697420682,
				"z": -3.0747618165,
				"element": "H" 
			},
			{
				"x": -0.3152769422,
				"y": -0.2022504422,
				"z": -4.407736859,
				"element": "H" 
			},
			{
				"x": -2.3416306851,
				"y": -1.6077836248,
				"z": -4.5854470615,
				"element": "H" 
			},
			{
				"x": -3.737812589,
				"y": -2.0567789024,
				"z": -2.5715716299,
				"element": "H" 
			},
			{
				"x": -3.070879643,
				"y": -1.0841970003,
				"z": -0.3800272773,
				"element": "H" 
			},
			{
				"x": -1.0326485324,
				"y": 0.3174210251,
				"z": -0.1962513109,
				"element": "H" 
			},
			{
				"x": 2.0447591089,
				"y": 3.3195341207,
				"z": 2.0931306599,
				"element": "H" 
			},
			{
				"x": -0.1735642389,
				"y": 2.2160388509,
				"z": 2.9470157502,
				"element": "H" 
			},
			{
				"x": -0.9500792707,
				"y": 0.0438324677,
				"z": 3.8640831432,
				"element": "H" 
			},
			{
				"x": 0.2058890451,
				"y": -2.0649807034,
				"z": 3.2203160779,
				"element": "H" 
			},
			{
				"x": 2.1698548223,
				"y": -1.9720846704,
				"z": 1.6960893498,
				"element": "H" 
			},
			{
				"x": 2.9803750255,
				"y": 0.2027446652,
				"z": 0.8376395048,
				"element": "H" 
			}
		],
		 "valence_orbital": [ 
			{
				"type": "occ",
				"energy": -0.26328,
				"method": "rhf"
			},
			{
				"type": "occ",
				"energy": -0.25958,
				"method": "rhf"
			},
			{
				"type": "occ",
				"energy": -0.25713,
				"method": "rhf"
			},
			{
				"type": "occ",
				"energy": -0.23346,
				"method": "rhf"
			},
			{
				"type": "occ",
				"energy": -0.21188,
				"method": "rhf"
			},
			{
				"type": "unocc",
				"energy": -0.05571,
				"method": "rhf"
			},
			{
				"type": "unocc",
				"energy": -0.01055,
				"method": "rhf"
			},
			{
				"type": "unocc",
				"energy": -0.00922,
				"method": "rhf"
			},
			{
				"type": "unocc",
				"energy": -0.00707,
				"method": "rhf"
			},
			{
				"type": "unocc",
				"energy": 0.01569,
				"method": "rhf"
			}
		],
		"cosmo_sigma_profile": { 
			"-0.025": 0.0,
			"-0.024": 0.0,
			"-0.023": 0.0,
			"-0.022": 0.0,
			"-0.021": 0.0,
			"-0.02": 0.0,
			"-0.019": 0.0,
			"-0.018": 0.0,
			"-0.017": 0.0,
			"-0.016": 0.0,
			"-0.015": 0.273670402414,
			"-0.014": 1.65840503729,
			"-0.013": 2.65890458393,
			"-0.012": 2.02229053666,
			"-0.011": 1.76194389379,
			"-0.01": 1.99132237598,
			"-0.009": 2.54430682762,
			"-0.008": 3.11354675217,
			"-0.007": 4.57809825451,
			"-0.006": 16.3303276543,
			"-0.005": 21.310403361,
			"-0.004": 21.9526318074,
			"-0.003": 20.9241105481,
			"-0.002": 18.2542794573,
			"-0.001": 20.2970858877,
			"0.0": 21.5924837769,
			"0.001": 24.5404954785,
			"0.002": 25.4388402048,
			"0.003": 27.554509103,
			"0.004": 25.3225504268,
			"0.005": 18.7798362467,
			"0.006": 7.80354505039,
			"0.007": 1.40378459923,
			"0.008": 1.80377420043,
			"0.009": 1.91216093116,
			"0.01": 1.89154636313,
			"0.011": 2.22252995005,
			"0.012": 4.19978690338,
			"0.013": 5.18436658261,
			"0.014": 0.601933978873,
			"0.015": 0.0,
			"0.016": 0.0,
			"0.017": 0.0,
			"0.018": 0.0,
			"0.019": 0.0,
			"0.02": 0.0,
			"0.021": 0.0,
			"0.022": 0.0,
			"0.023": 0.0,
			"0.024": 0.0,
			"0.025": 0.0
		}
	}
}
