{
	 "smiles": "CC1=NC(NC2CCNCC2)=CC=C1", 
	 "Tm": 359.15, 
	 "num_atms": 31, 
	 "gaussian": { 
		 "optdone": 1, 
		 "sigma_profile": "yes", 
		 "theory": "DFT", 
		 "functional": "B3LYP", 
		 "basiset": "6-31G**", 
		 "properties": { 
			 "R2extent": 4221.374, 
			 "electric_dipole_moment_norm": 1.20266301598, 
			 "electric_quadrupole_moment_norm": 5.22232390799, 
			 "total_energy": -593.673158361, 
			 "HOMO_LUMO_gap": 0.18919, 
			 "cosmo_polarized_energy": -10.1, 
			 "cosmo_cavitation_energy": 32.07, 
			 "cosmo_dispersion_energy": -23.57, 
			 "cosmo_repulsion_energy": 1.87, 
			 "cosmo_total_nonelectrostatic_energy": 10.36, 
			 "SMD_solvation_energy": 0.54 
		},
		"coords": [
			{
				"x": 2.7368025698,
				"y": -2.3834112352,
				"z": 3.0844447817,
				"element": "C" 
			},
			{
				"x": 1.7333191486,
				"y": -1.4445423451,
				"z": 2.4600812964,
				"element": "C" 
			},
			{
				"x": 1.4547835169,
				"y": -1.6618488506,
				"z": 1.1661637406,
				"element": "N" 
			},
			{
				"x": 0.5637501802,
				"y": -0.8675687311,
				"z": 0.5461036127,
				"element": "C" 
			},
			{
				"x": 0.2984953669,
				"y": -1.2097322937,
				"z": -0.7648040239,
				"element": "N" 
			},
			{
				"x": -0.294812309,
				"y": -0.3187398296,
				"z": -1.7553218035,
				"element": "C" 
			},
			{
				"x": -0.7025995944,
				"y": -1.1280879392,
				"z": -3.0154732823,
				"element": "C" 
			},
			{
				"x": 0.3409388365,
				"y": -1.0186679976,
				"z": -4.128648737,
				"element": "C" 
			},
			{
				"x": 0.4087146929,
				"y": 0.3701486065,
				"z": -4.6073591059,
				"element": "N" 
			},
			{
				"x": 0.2675395352,
				"y": 1.3867417089,
				"z": -3.5464855933,
				"element": "C" 
			},
			{
				"x": 0.6357405873,
				"y": 0.8605008657,
				"z": -2.1535738139,
				"element": "C" 
			},
			{
				"x": -0.0786565587,
				"y": 0.2034530144,
				"z": 1.2061861114,
				"element": "C" 
			},
			{
				"x": 0.2234355403,
				"y": 0.4158010156,
				"z": 2.5432049175,
				"element": "C" 
			},
			{
				"x": 1.1400675954,
				"y": -0.4133735482,
				"z": 3.1946490012,
				"element": "C" 
			},
			{
				"x": 3.6816303116,
				"y": -2.3548258086,
				"z": 2.5316840509,
				"element": "H" 
			},
			{
				"x": 2.9343868101,
				"y": -2.1290332315,
				"z": 4.1289957511,
				"element": "H" 
			},
			{
				"x": 2.372762471,
				"y": -3.415441237,
				"z": 3.0394397935,
				"element": "H" 
			},
			{
				"x": 0.9603029178,
				"y": -1.8929281625,
				"z": -1.1129786821,
				"element": "H" 
			},
			{
				"x": -1.2109721879,
				"y": 0.0902608999,
				"z": -1.3139502102,
				"element": "H" 
			},
			{
				"x": -0.867324193,
				"y": -2.1737397277,
				"z": -2.7374760231,
				"element": "H" 
			},
			{
				"x": -1.6543756643,
				"y": -0.748190018,
				"z": -3.4021375436,
				"element": "H" 
			},
			{
				"x": 1.309530161,
				"y": -1.3951759435,
				"z": -3.7494410071,
				"element": "H" 
			},
			{
				"x": 0.0649760524,
				"y": -1.6695723935,
				"z": -4.9672511261,
				"element": "H" 
			},
			{
				"x": 1.2809898362,
				"y": 0.5132130031,
				"z": -5.1046897269,
				"element": "H" 
			},
			{
				"x": -0.7710305473,
				"y": 1.7504948031,
				"z": -3.5271461279,
				"element": "H" 
			},
			{
				"x": 0.8843293437,
				"y": 2.2529692845,
				"z": -3.8075474978,
				"element": "H" 
			},
			{
				"x": 0.5828945998,
				"y": 1.6590096113,
				"z": -1.4057087601,
				"element": "H" 
			},
			{
				"x": 1.6738502608,
				"y": 0.5050673501,
				"z": -2.1588504825,
				"element": "H" 
			},
			{
				"x": -0.788909522,
				"y": 0.8383855748,
				"z": 0.6896575902,
				"element": "H" 
			},
			{
				"x": -0.2549013819,
				"y": 1.2307844679,
				"z": 3.0803013589,
				"element": "H" 
			},
			{
				"x": 1.3924416242,
				"y": -0.2624509133,
				"z": 4.2387315412,
				"element": "H" 
			}
		],
		 "valence_orbital": [ 
			{
				"type": "occ",
				"energy": -0.28728,
				"method": "rhf"
			},
			{
				"type": "occ",
				"energy": -0.25926,
				"method": "rhf"
			},
			{
				"type": "occ",
				"energy": -0.2451,
				"method": "rhf"
			},
			{
				"type": "occ",
				"energy": -0.21268,
				"method": "rhf"
			},
			{
				"type": "occ",
				"energy": -0.1959,
				"method": "rhf"
			},
			{
				"type": "unocc",
				"energy": -0.00671,
				"method": "rhf"
			},
			{
				"type": "unocc",
				"energy": 0.02137,
				"method": "rhf"
			},
			{
				"type": "unocc",
				"energy": 0.07065,
				"method": "rhf"
			},
			{
				"type": "unocc",
				"energy": 0.08688,
				"method": "rhf"
			},
			{
				"type": "unocc",
				"energy": 0.10435,
				"method": "rhf"
			}
		],
		"cosmo_sigma_profile": { 
			"-0.025": 0.0,
			"-0.024": 0.0,
			"-0.023": 0.0,
			"-0.022": 0.0,
			"-0.021": 0.0,
			"-0.02": 0.0,
			"-0.019": 0.0,
			"-0.018": 0.0,
			"-0.017": 0.0,
			"-0.016": 0.0,
			"-0.015": 0.0,
			"-0.014": 0.0,
			"-0.013": 0.0,
			"-0.012": 0.0,
			"-0.011": 0.083104732109,
			"-0.01": 1.08536458824,
			"-0.009": 2.29711049573,
			"-0.008": 2.85460405538,
			"-0.007": 3.25885639183,
			"-0.006": 5.96338009245,
			"-0.005": 11.326643162,
			"-0.004": 19.8675007031,
			"-0.003": 30.2492138401,
			"-0.002": 31.8899140055,
			"-0.001": 28.1224787248,
			"0.0": 27.515351641,
			"0.001": 15.3782091339,
			"0.002": 10.2930894107,
			"0.003": 8.89938072359,
			"0.004": 12.7936806605,
			"0.005": 12.4837412053,
			"0.006": 5.40714185193,
			"0.007": 2.69722667998,
			"0.008": 3.26102811661,
			"0.009": 2.6650681707,
			"0.01": 2.52216309075,
			"0.011": 1.5565974092,
			"0.012": 1.48555022042,
			"0.013": 1.18526645156,
			"0.014": 1.02785619247,
			"0.015": 1.8806420532,
			"0.016": 0.705635163282,
			"0.017": 0.471944206704,
			"0.018": 0.454859279619,
			"0.019": 0.326672069571,
			"0.02": 0.0396363177713,
			"0.021": 0.0,
			"0.022": 0.0,
			"0.023": 0.0,
			"0.024": 0.0,
			"0.025": 0.0
		}
	}
}
