{
	 "smiles": "N#CCC1=CNC2=CC=CC=C12", 
	 "Tm": 309.15, 
	 "num_atms": 20, 
	 "gaussian": { 
		 "optdone": 1, 
		 "sigma_profile": "yes", 
		 "theory": "DFT", 
		 "functional": "B3LYP", 
		 "basiset": "6-31G**", 
		 "properties": { 
			 "R2extent": 2307.7746, 
			 "electric_dipole_moment_norm": 5.34697681779, 
			 "electric_quadrupole_moment_norm": 23.8873963826, 
			 "total_energy": -495.374495191, 
			 "HOMO_LUMO_gap": 0.19535, 
			 "cosmo_polarized_energy": -15.37, 
			 "cosmo_cavitation_energy": 25.08, 
			 "cosmo_dispersion_energy": -17.79, 
			 "cosmo_repulsion_energy": 1.42, 
			 "cosmo_total_nonelectrostatic_energy": 8.71, 
			 "SMD_solvation_energy": 5.51 
		},
		"coords": [
			{
				"x": 1.4448527728,
				"y": 4.065197071,
				"z": -0.025557229,
				"element": "N" 
			},
			{
				"x": 0.5040678304,
				"y": 3.4002715289,
				"z": -0.1666300512,
				"element": "C" 
			},
			{
				"x": -0.6876260122,
				"y": 2.5530929579,
				"z": -0.3394180882,
				"element": "C" 
			},
			{
				"x": -0.4110176186,
				"y": 1.261340984,
				"z": -1.0629518641,
				"element": "C" 
			},
			{
				"x": -0.8928728663,
				"y": 0.9096022446,
				"z": -2.2983577956,
				"element": "C" 
			},
			{
				"x": -0.4514011418,
				"y": -0.3558454578,
				"z": -2.6272113569,
				"element": "N" 
			},
			{
				"x": 0.3328115495,
				"y": -0.8467818323,
				"z": -1.6010911292,
				"element": "C" 
			},
			{
				"x": 0.9952386064,
				"y": -2.0720443411,
				"z": -1.4713716329,
				"element": "C" 
			},
			{
				"x": 1.7193651843,
				"y": -2.2873098802,
				"z": -0.3046759879,
				"element": "C" 
			},
			{
				"x": 1.7853066255,
				"y": -1.3074164508,
				"z": 0.7075400237,
				"element": "C" 
			},
			{
				"x": 1.1270186017,
				"y": -0.0918019562,
				"z": 0.57475989,
				"element": "C" 
			},
			{
				"x": 0.3826666307,
				"y": 0.1537685749,
				"z": -0.592545832,
				"element": "C" 
			},
			{
				"x": -1.1037691411,
				"y": 2.3611487847,
				"z": 0.6587143288,
				"element": "H" 
			},
			{
				"x": -1.4404099403,
				"y": 3.1367390135,
				"z": -0.8812298112,
				"element": "H" 
			},
			{
				"x": -1.5241087209,
				"y": 1.4678821261,
				"z": -2.9757456198,
				"element": "H" 
			},
			{
				"x": -0.6678224951,
				"y": -0.8422609611,
				"z": -3.4816062122,
				"element": "H" 
			},
			{
				"x": 0.9473058871,
				"y": -2.8263864914,
				"z": -2.2516494817,
				"element": "H" 
			},
			{
				"x": 2.2467782999,
				"y": -3.227203934,
				"z": -0.1714782949,
				"element": "H" 
			},
			{
				"x": 2.3654052997,
				"y": -1.5083443222,
				"z": 1.6031883884,
				"element": "H" 
			},
			{
				"x": 1.1957106482,
				"y": 0.6599523416,
				"z": 1.3558177557,
				"element": "H" 
			}
		],
		 "valence_orbital": [ 
			{
				"type": "occ",
				"energy": -0.31792,
				"method": "rhf"
			},
			{
				"type": "occ",
				"energy": -0.31668,
				"method": "rhf"
			},
			{
				"type": "occ",
				"energy": -0.27983,
				"method": "rhf"
			},
			{
				"type": "occ",
				"energy": -0.2278,
				"method": "rhf"
			},
			{
				"type": "occ",
				"energy": -0.21176,
				"method": "rhf"
			},
			{
				"type": "unocc",
				"energy": -0.01641,
				"method": "rhf"
			},
			{
				"type": "unocc",
				"energy": 0.02083,
				"method": "rhf"
			},
			{
				"type": "unocc",
				"energy": 0.03612,
				"method": "rhf"
			},
			{
				"type": "unocc",
				"energy": 0.04565,
				"method": "rhf"
			},
			{
				"type": "unocc",
				"energy": 0.06603,
				"method": "rhf"
			}
		],
		"cosmo_sigma_profile": { 
			"-0.025": 0.0,
			"-0.024": 0.0,
			"-0.023": 0.0,
			"-0.022": 0.0,
			"-0.021": 0.0,
			"-0.02": 0.0,
			"-0.019": 0.0,
			"-0.018": 0.0,
			"-0.017": 0.0,
			"-0.016": 0.489978745533,
			"-0.015": 1.94620623948,
			"-0.014": 0.94681169487,
			"-0.013": 1.7050079156,
			"-0.012": 1.33602305723,
			"-0.011": 1.07911908031,
			"-0.01": 0.920243607526,
			"-0.009": 3.33050860937,
			"-0.008": 10.015755213,
			"-0.007": 8.62535934999,
			"-0.006": 9.71743704046,
			"-0.005": 13.7961274499,
			"-0.004": 11.5824142553,
			"-0.003": 11.1641863407,
			"-0.002": 10.8219345504,
			"-0.001": 9.20013277938,
			"0.0": 6.82007516664,
			"0.001": 8.97096558338,
			"0.002": 8.79837631539,
			"0.003": 12.8169843392,
			"0.004": 16.0564687284,
			"0.005": 13.7788368347,
			"0.006": 11.3335750663,
			"0.007": 7.79955468462,
			"0.008": 3.5280478781,
			"0.009": 3.4446831048,
			"0.01": 3.2958146101,
			"0.011": 3.26048383378,
			"0.012": 2.3981018547,
			"0.013": 2.27881350375,
			"0.014": 0.552320791073,
			"0.015": 0.0,
			"0.016": 0.0,
			"0.017": 0.0,
			"0.018": 0.0,
			"0.019": 0.0,
			"0.02": 0.0,
			"0.021": 0.0,
			"0.022": 0.0,
			"0.023": 0.0,
			"0.024": 0.0,
			"0.025": 0.0
		}
	}
}
