{
	 "smiles": "O=CC1=CNC2=C1C=CC=N2", 
	 "Tm": 485.15, 
	 "num_atms": 17, 
	 "gaussian": { 
		 "optdone": 1, 
		 "sigma_profile": "yes", 
		 "theory": "DFT", 
		 "functional": "B3LYP", 
		 "basiset": "6-31G**", 
		 "properties": { 
			 "R2extent": 1921.4557, 
			 "electric_dipole_moment_norm": 2.4784877829, 
			 "electric_quadrupole_moment_norm": 19.0544703532, 
			 "total_energy": -493.188850235, 
			 "HOMO_LUMO_gap": 0.17977, 
			 "cosmo_polarized_energy": -13.39, 
			 "cosmo_cavitation_energy": 21.97, 
			 "cosmo_dispersion_energy": -16.33, 
			 "cosmo_repulsion_energy": 1.29, 
			 "cosmo_total_nonelectrostatic_energy": 6.93, 
			 "SMD_solvation_energy": 3.21 
		},
		"coords": [
			{
				"x": 0.9278716477,
				"y": 0.6921525756,
				"z": 3.1074691318,
				"element": "O" 
			},
			{
				"x": 0.4521978385,
				"y": -0.0226998532,
				"z": 2.2383169848,
				"element": "C" 
			},
			{
				"x": -0.3331897122,
				"y": 0.4615101103,
				"z": 1.1100250659,
				"element": "C" 
			},
			{
				"x": -0.6378029768,
				"y": 1.7938730529,
				"z": 0.8832849671,
				"element": "C" 
			},
			{
				"x": -1.3846147202,
				"y": 1.9137103289,
				"z": -0.2523350219,
				"element": "N" 
			},
			{
				"x": -1.5915172779,
				"y": 0.6590448723,
				"z": -0.8041242698,
				"element": "C" 
			},
			{
				"x": -0.9398126007,
				"y": -0.2866653549,
				"z": 0.0319287859,
				"element": "C" 
			},
			{
				"x": -1.0335454247,
				"y": -1.6284004599,
				"z": -0.3604495825,
				"element": "C" 
			},
			{
				"x": -1.7489911455,
				"y": -1.9102907017,
				"z": -1.5212962304,
				"element": "C" 
			},
			{
				"x": -2.3465091062,
				"y": -0.8695800534,
				"z": -2.2557884128,
				"element": "C" 
			},
			{
				"x": -2.2803207466,
				"y": 0.4225168192,
				"z": -1.9153151224,
				"element": "N" 
			},
			{
				"x": 0.6018604268,
				"y": -1.1243822537,
				"z": 2.2682624417,
				"element": "H" 
			},
			{
				"x": -0.3570841972,
				"y": 2.6518320273,
				"z": 1.4765269566,
				"element": "H" 
			},
			{
				"x": -1.7426574998,
				"y": 2.7692808847,
				"z": -0.6497442353,
				"element": "H" 
			},
			{
				"x": -0.568546325,
				"y": -2.424212693,
				"z": 0.2137551849,
				"element": "H" 
			},
			{
				"x": -1.8525237218,
				"y": -2.9325732191,
				"z": -1.8700283835,
				"element": "H" 
			},
			{
				"x": -2.9041144585,
				"y": -1.0962160823,
				"z": -3.1617882602,
				"element": "H" 
			}
		],
		 "valence_orbital": [ 
			{
				"type": "occ",
				"energy": -0.31213,
				"method": "rhf"
			},
			{
				"type": "occ",
				"energy": -0.27619,
				"method": "rhf"
			},
			{
				"type": "occ",
				"energy": -0.25165,
				"method": "rhf"
			},
			{
				"type": "occ",
				"energy": -0.24539,
				"method": "rhf"
			},
			{
				"type": "occ",
				"energy": -0.2328,
				"method": "rhf"
			},
			{
				"type": "unocc",
				"energy": -0.05303,
				"method": "rhf"
			},
			{
				"type": "unocc",
				"energy": -0.02663,
				"method": "rhf"
			},
			{
				"type": "unocc",
				"energy": 0.00547,
				"method": "rhf"
			},
			{
				"type": "unocc",
				"energy": 0.07129,
				"method": "rhf"
			},
			{
				"type": "unocc",
				"energy": 0.09273,
				"method": "rhf"
			}
		],
		"cosmo_sigma_profile": { 
			"-0.025": 0.0,
			"-0.024": 0.0,
			"-0.023": 0.0,
			"-0.022": 0.0,
			"-0.021": 0.0,
			"-0.02": 0.0,
			"-0.019": 0.0,
			"-0.018": 0.0,
			"-0.017": 1.00052047366,
			"-0.016": 1.61719874115,
			"-0.015": 1.31105333384,
			"-0.014": 1.15603018808,
			"-0.013": 0.881524706172,
			"-0.012": 0.96913208603,
			"-0.011": 1.29662881849,
			"-0.01": 2.34136235292,
			"-0.009": 2.37586613106,
			"-0.008": 2.47077900839,
			"-0.007": 6.62771728272,
			"-0.006": 10.9428463593,
			"-0.005": 10.7157647462,
			"-0.004": 10.7153559477,
			"-0.003": 7.7941650473,
			"-0.002": 8.99451845299,
			"-0.001": 8.3193983876,
			"0.0": 11.5250729711,
			"0.001": 16.4067661033,
			"0.002": 17.6085630889,
			"0.003": 13.6719178753,
			"0.004": 5.42915783288,
			"0.005": 3.52421219479,
			"0.006": 2.5016859971,
			"0.007": 2.56560341904,
			"0.008": 2.83987526009,
			"0.009": 3.55852119525,
			"0.01": 2.28623810218,
			"0.011": 3.77836335027,
			"0.012": 5.20107804385,
			"0.013": 3.88077017507,
			"0.014": 1.81679382937,
			"0.015": 0.814452116751,
			"0.016": 0.158360951201,
			"0.017": 0.0,
			"0.018": 0.0,
			"0.019": 0.0,
			"0.02": 0.0,
			"0.021": 0.0,
			"0.022": 0.0,
			"0.023": 0.0,
			"0.024": 0.0,
			"0.025": 0.0
		}
	}
}
