{
	 "smiles": "CCN1C(NC2=C1C=CC=C2)=C1C=NN(C)C1=N", 
	 "Tm": 385.15, 
	 "num_atms": 33, 
	 "gaussian": { 
		 "optdone": 1, 
		 "sigma_profile": "yes", 
		 "theory": "DFT", 
		 "functional": "B3LYP", 
		 "basiset": "6-31G**", 
		 "properties": { 
			 "R2extent": 5973.3252, 
			 "electric_dipole_moment_norm": 3.22666344232, 
			 "electric_quadrupole_moment_norm": 14.0124355674, 
			 "total_energy": -778.156185775, 
			 "HOMO_LUMO_gap": 0.12752, 
			 "cosmo_polarized_energy": -18.03, 
			 "cosmo_cavitation_energy": 35.62, 
			 "cosmo_dispersion_energy": -25.61, 
			 "cosmo_repulsion_energy": 1.95, 
			 "cosmo_total_nonelectrostatic_energy": 11.96, 
			 "SMD_solvation_energy": 3.91 
		},
		"coords": [
			{
				"x": 0.0773999695,
				"y": 3.3906893742,
				"z": 0.2249881838,
				"element": "C" 
			},
			{
				"x": 0.3903999051,
				"y": 1.9828766474,
				"z": -0.286352552,
				"element": "C" 
			},
			{
				"x": -0.0886029718,
				"y": 0.9407153367,
				"z": 0.6336813516,
				"element": "N" 
			},
			{
				"x": -1.3576497386,
				"y": 0.4083185439,
				"z": 0.6770999676,
				"element": "C" 
			},
			{
				"x": -1.4448539917,
				"y": -0.2896069328,
				"z": 1.8694112457,
				"element": "N" 
			},
			{
				"x": -0.2438125295,
				"y": -0.2358688029,
				"z": 2.5622144151,
				"element": "C" 
			},
			{
				"x": 0.6130144371,
				"y": 0.5616478999,
				"z": 1.7840373604,
				"element": "C" 
			},
			{
				"x": 1.9085774482,
				"y": 0.8434977303,
				"z": 2.2079589072,
				"element": "C" 
			},
			{
				"x": 2.3247234612,
				"y": 0.2886015518,
				"z": 3.4240575383,
				"element": "C" 
			},
			{
				"x": 1.4720384619,
				"y": -0.5167239528,
				"z": 4.1883647226,
				"element": "C" 
			},
			{
				"x": 0.1648362712,
				"y": -0.7905732529,
				"z": 3.7692427158,
				"element": "C" 
			},
			{
				"x": -2.4321589571,
				"y": 0.4965023451,
				"z": -0.2078834169,
				"element": "C" 
			},
			{
				"x": -3.7828391649,
				"y": 0.1319196165,
				"z": 0.1374589276,
				"element": "C" 
			},
			{
				"x": -4.6159382853,
				"y": 0.2477408609,
				"z": -0.8609493346,
				"element": "N" 
			},
			{
				"x": -3.8514275237,
				"y": 0.6827927427,
				"z": -1.9258867889,
				"element": "N" 
			},
			{
				"x": -4.4494480237,
				"y": 0.8443276933,
				"z": -3.2266799337,
				"element": "C" 
			},
			{
				"x": -2.4993055934,
				"y": 0.8381159322,
				"z": -1.6297872007,
				"element": "C" 
			},
			{
				"x": -1.5416494647,
				"y": 1.1612269315,
				"z": -2.4504457114,
				"element": "N" 
			},
			{
				"x": 0.473690731,
				"y": 4.1307320755,
				"z": -0.4774973192,
				"element": "H" 
			},
			{
				"x": -1.0037437268,
				"y": 3.5418032552,
				"z": 0.2964817532,
				"element": "H" 
			},
			{
				"x": 0.5197156575,
				"y": 3.5807015467,
				"z": 1.2085513914,
				"element": "H" 
			},
			{
				"x": -0.0786252867,
				"y": 1.8027227627,
				"z": -1.2613958632,
				"element": "H" 
			},
			{
				"x": 1.4695501972,
				"y": 1.8332457553,
				"z": -0.390876985,
				"element": "H" 
			},
			{
				"x": -2.1973367533,
				"y": -0.9316784587,
				"z": 2.0570484368,
				"element": "H" 
			},
			{
				"x": 2.5744315831,
				"y": 1.4674882216,
				"z": 1.6224337811,
				"element": "H" 
			},
			{
				"x": 3.3304105549,
				"y": 0.4897592867,
				"z": 3.779361037,
				"element": "H" 
			},
			{
				"x": 1.8267159948,
				"y": -0.934912628,
				"z": 5.1250473839,
				"element": "H" 
			},
			{
				"x": -0.5007211476,
				"y": -1.4092383778,
				"z": 4.3627460586,
				"element": "H" 
			},
			{
				"x": -4.163447902,
				"y": -0.1549316861,
				"z": 1.1115220878,
				"element": "H" 
			},
			{
				"x": -4.0722624943,
				"y": 0.1042775751,
				"z": -3.9458010897,
				"element": "H" 
			},
			{
				"x": -5.5249124299,
				"y": 0.7100085349,
				"z": -3.1120045464,
				"element": "H" 
			},
			{
				"x": -4.2566015506,
				"y": 1.847192913,
				"z": -3.6278501227,
				"element": "H" 
			},
			{
				"x": -1.9003671369,
				"y": 1.3018289589,
				"z": -3.3946964009,
				"element": "H" 
			}
		],
		 "valence_orbital": [ 
			{
				"type": "occ",
				"energy": -0.27052,
				"method": "rhf"
			},
			{
				"type": "occ",
				"energy": -0.24612,
				"method": "rhf"
			},
			{
				"type": "occ",
				"energy": -0.23154,
				"method": "rhf"
			},
			{
				"type": "occ",
				"energy": -0.21672,
				"method": "rhf"
			},
			{
				"type": "occ",
				"energy": -0.16011,
				"method": "rhf"
			},
			{
				"type": "unocc",
				"energy": -0.03259,
				"method": "rhf"
			},
			{
				"type": "unocc",
				"energy": 0.00375,
				"method": "rhf"
			},
			{
				"type": "unocc",
				"energy": 0.00945,
				"method": "rhf"
			},
			{
				"type": "unocc",
				"energy": 0.06032,
				"method": "rhf"
			},
			{
				"type": "unocc",
				"energy": 0.07286,
				"method": "rhf"
			}
		],
		"cosmo_sigma_profile": { 
			"-0.025": 0.0,
			"-0.024": 0.0,
			"-0.023": 0.0,
			"-0.022": 0.0,
			"-0.021": 0.0,
			"-0.02": 0.0,
			"-0.019": 0.0,
			"-0.018": 0.0,
			"-0.017": 0.524805120321,
			"-0.016": 1.27486039798,
			"-0.015": 1.11414330386,
			"-0.014": 1.32048257154,
			"-0.013": 1.21838582248,
			"-0.012": 1.7397447557,
			"-0.011": 1.38421807322,
			"-0.01": 1.56133660535,
			"-0.009": 1.28975918422,
			"-0.008": 2.67102544621,
			"-0.007": 7.94730184056,
			"-0.006": 12.0922753529,
			"-0.005": 18.63202942,
			"-0.004": 20.6046128856,
			"-0.003": 23.3936219354,
			"-0.002": 24.8037966075,
			"-0.001": 24.6990203483,
			"0.0": 20.2768477122,
			"0.001": 18.5167008293,
			"0.002": 14.7557129495,
			"0.003": 13.4988583273,
			"0.004": 17.0565278138,
			"0.005": 15.4915771808,
			"0.006": 7.22775626878,
			"0.007": 3.96752618554,
			"0.008": 4.20109873839,
			"0.009": 3.45486629388,
			"0.01": 3.35095940822,
			"0.011": 3.54207941819,
			"0.012": 3.16743588355,
			"0.013": 2.02333664307,
			"0.014": 2.55618815444,
			"0.015": 1.90231824518,
			"0.016": 1.73295754506,
			"0.017": 0.591856513893,
			"0.018": 0.0358598398056,
			"0.019": 0.0,
			"0.02": 0.0,
			"0.021": 0.0,
			"0.022": 0.0,
			"0.023": 0.0,
			"0.024": 0.0,
			"0.025": 0.0
		}
	}
}
