{
	 "smiles": "COC(=O)C1=CC=C(CBr)C=C1", 
	 "Tm": 329.15, 
	 "num_atms": 21, 
	 "gaussian": { 
		 "optdone": 1, 
		 "sigma_profile": "yes", 
		 "theory": "DFT", 
		 "functional": "B3LYP", 
		 "basiset": "6-31G**", 
		 "properties": { 
			 "R2extent": 4943.6913, 
			 "electric_dipole_moment_norm": 2.4670614058, 
			 "electric_quadrupole_moment_norm": 10.3616287532, 
			 "total_energy": -3070.25162305, 
			 "HOMO_LUMO_gap": 0.19417, 
			 "cosmo_polarized_energy": -9.85, 
			 "cosmo_cavitation_energy": 27.99, 
			 "cosmo_dispersion_energy": -20.61, 
			 "cosmo_repulsion_energy": 1.66, 
			 "cosmo_total_nonelectrostatic_energy": 9.04, 
			 "SMD_solvation_energy": 5.13 
		},
		"coords": [
			{
				"x": 4.2925603215,
				"y": -0.1115507101,
				"z": -1.245507677,
				"element": "C" 
			},
			{
				"x": 2.8713243894,
				"y": -0.0568758178,
				"z": -1.0475010435,
				"element": "O" 
			},
			{
				"x": 2.4567541853,
				"y": 0.8014577814,
				"z": -0.0880505948,
				"element": "C" 
			},
			{
				"x": 3.2196076449,
				"y": 1.4856283888,
				"z": 0.5661581787,
				"element": "O" 
			},
			{
				"x": 0.974217454,
				"y": 0.8079014204,
				"z": 0.0686092644,
				"element": "C" 
			},
			{
				"x": 0.4225863389,
				"y": 1.6559329363,
				"z": 1.0382137661,
				"element": "C" 
			},
			{
				"x": -0.9544607247,
				"y": 1.7030234467,
				"z": 1.2230490192,
				"element": "C" 
			},
			{
				"x": -1.806241504,
				"y": 0.9071117262,
				"z": 0.4427706047,
				"element": "C" 
			},
			{
				"x": -3.2876153581,
				"y": 0.9725538419,
				"z": 0.6291453852,
				"element": "C" 
			},
			{
				"x": -3.9366535543,
				"y": -0.3692579626,
				"z": 1.9698969782,
				"element": "Br" 
			},
			{
				"x": -1.2474032945,
				"y": 0.0591064808,
				"z": -0.5243480837,
				"element": "C" 
			},
			{
				"x": 0.1301894604,
				"y": 0.007200982,
				"z": -0.713355021,
				"element": "C" 
			},
			{
				"x": 4.4510166531,
				"y": -0.8411564084,
				"z": -2.0394921727,
				"element": "H" 
			},
			{
				"x": 4.6779723086,
				"y": 0.8676987193,
				"z": -1.5404152465,
				"element": "H" 
			},
			{
				"x": 4.7968861453,
				"y": -0.4256990069,
				"z": -0.3282756436,
				"element": "H" 
			},
			{
				"x": 1.0913854553,
				"y": 2.26918202,
				"z": 1.6323661555,
				"element": "H" 
			},
			{
				"x": -1.3771601862,
				"y": 2.359418013,
				"z": 1.9788316865,
				"element": "H" 
			},
			{
				"x": -3.6196216326,
				"y": 1.9305312817,
				"z": 1.0249462282,
				"element": "H" 
			},
			{
				"x": -3.8372099748,
				"y": 0.7318597052,
				"z": -0.2789873279,
				"element": "H" 
			},
			{
				"x": -1.8989934066,
				"y": -0.5654776071,
				"z": -1.1294325751,
				"element": "H" 
			},
			{
				"x": 0.5573592791,
				"y": -0.6473892308,
				"z": -1.4640218806,
				"element": "H" 
			}
		],
		 "valence_orbital": [ 
			{
				"type": "occ",
				"energy": -0.27882,
				"method": "rhf"
			},
			{
				"type": "occ",
				"energy": -0.27753,
				"method": "rhf"
			},
			{
				"type": "occ",
				"energy": -0.27546,
				"method": "rhf"
			},
			{
				"type": "occ",
				"energy": -0.26532,
				"method": "rhf"
			},
			{
				"type": "occ",
				"energy": -0.25763,
				"method": "rhf"
			},
			{
				"type": "unocc",
				"energy": -0.06346,
				"method": "rhf"
			},
			{
				"type": "unocc",
				"energy": -0.01611,
				"method": "rhf"
			},
			{
				"type": "unocc",
				"energy": -0.00041,
				"method": "rhf"
			},
			{
				"type": "unocc",
				"energy": 0.05902,
				"method": "rhf"
			},
			{
				"type": "unocc",
				"energy": 0.08759,
				"method": "rhf"
			}
		],
		"cosmo_sigma_profile": { 
			"-0.025": 0.0,
			"-0.024": 0.0,
			"-0.023": 0.0,
			"-0.022": 0.0,
			"-0.021": 0.0,
			"-0.02": 0.0,
			"-0.019": 0.0,
			"-0.018": 0.0,
			"-0.017": 0.0,
			"-0.016": 0.0,
			"-0.015": 0.0,
			"-0.014": 0.0,
			"-0.013": 0.0,
			"-0.012": 0.0,
			"-0.011": 0.0,
			"-0.01": 0.0,
			"-0.009": 0.0794472167993,
			"-0.008": 4.80444201057,
			"-0.007": 9.61436995398,
			"-0.006": 15.7073987252,
			"-0.005": 17.2639694961,
			"-0.004": 16.6993702639,
			"-0.003": 17.749082211,
			"-0.002": 13.9486147158,
			"-0.001": 12.3501535019,
			"0.0": 12.9175296387,
			"0.001": 16.3771411854,
			"0.002": 17.4143218035,
			"0.003": 19.6445067813,
			"0.004": 11.6318134401,
			"0.005": 10.5870515821,
			"0.006": 14.2210236252,
			"0.007": 3.2163957398,
			"0.008": 1.85127461069,
			"0.009": 1.25254333108,
			"0.01": 2.2364032713,
			"0.011": 2.96890795966,
			"0.012": 3.97242060085,
			"0.013": 0.0714896261881,
			"0.014": 0.0,
			"0.015": 0.0,
			"0.016": 0.0,
			"0.017": 0.0,
			"0.018": 0.0,
			"0.019": 0.0,
			"0.02": 0.0,
			"0.021": 0.0,
			"0.022": 0.0,
			"0.023": 0.0,
			"0.024": 0.0,
			"0.025": 0.0
		}
	}
}
