{
	 "smiles": "CC(C)(C)N(NC(=O)C1=CC=CC=C1)C(=O)C1=CC=CC=C1", 
	 "Tm": 451.15, 
	 "num_atms": 42, 
	 "gaussian": { 
		 "optdone": 1, 
		 "sigma_profile": "yes", 
		 "theory": "DFT", 
		 "functional": "B3LYP", 
		 "basiset": "6-31G**", 
		 "properties": { 
			 "R2extent": 8062.9572, 
			 "electric_dipole_moment_norm": 1.98839638151, 
			 "electric_quadrupole_moment_norm": 16.4915184477, 
			 "total_energy": -957.918945314, 
			 "HOMO_LUMO_gap": 0.20044, 
			 "cosmo_polarized_energy": -15.29, 
			 "cosmo_cavitation_energy": 44.57, 
			 "cosmo_dispersion_energy": -29.58, 
			 "cosmo_repulsion_energy": 2.23, 
			 "cosmo_total_nonelectrostatic_energy": 17.23, 
			 "SMD_solvation_energy": 9.02 
		},
		"coords": [
			{
				"x": 1.9332299494,
				"y": -1.9668748892,
				"z": 1.0866852603,
				"element": "C" 
			},
			{
				"x": 1.1147937982,
				"y": -0.7344854772,
				"z": 1.4973707147,
				"element": "C" 
			},
			{
				"x": 2.0170310067,
				"y": 0.2078575882,
				"z": 2.3210439654,
				"element": "C" 
			},
			{
				"x": -0.0881503577,
				"y": -1.1957199481,
				"z": 2.3362195859,
				"element": "C" 
			},
			{
				"x": 0.5758257161,
				"y": 0.0263346041,
				"z": 0.302035343,
				"element": "N" 
			},
			{
				"x": -0.1651367087,
				"y": 1.1595902962,
				"z": 0.6920149853,
				"element": "N" 
			},
			{
				"x": -1.527571517,
				"y": 1.1401914588,
				"z": 0.3875992356,
				"element": "C" 
			},
			{
				"x": -2.1151196189,
				"y": 0.129024487,
				"z": 0.0355523905,
				"element": "O" 
			},
			{
				"x": -2.2301324915,
				"y": 2.4534515367,
				"z": 0.5750619237,
				"element": "C" 
			},
			{
				"x": -3.4845085541,
				"y": 2.6004292003,
				"z": -0.0333232478,
				"element": "C" 
			},
			{
				"x": -4.1914410039,
				"y": 3.7935682112,
				"z": 0.0910324967,
				"element": "C" 
			},
			{
				"x": -3.6575579464,
				"y": 4.8492334819,
				"z": 0.8351605515,
				"element": "C" 
			},
			{
				"x": -2.4165341418,
				"y": 4.704647973,
				"z": 1.4580858388,
				"element": "C" 
			},
			{
				"x": -1.7039894504,
				"y": 3.5122008796,
				"z": 1.330182886,
				"element": "C" 
			},
			{
				"x": 1.3062814642,
				"y": 0.2850494099,
				"z": -0.8773780795,
				"element": "C" 
			},
			{
				"x": 1.4939750867,
				"y": 1.4361277028,
				"z": -1.2602741991,
				"element": "O" 
			},
			{
				"x": 1.6953694572,
				"y": -0.8741411058,
				"z": -1.7327863277,
				"element": "C" 
			},
			{
				"x": 2.8913987964,
				"y": -0.8202845583,
				"z": -2.4613085779,
				"element": "C" 
			},
			{
				"x": 3.2175544876,
				"y": -1.84970559,
				"z": -3.3411952312,
				"element": "C" 
			},
			{
				"x": 2.3342457821,
				"y": -2.9178422382,
				"z": -3.5262514338,
				"element": "C" 
			},
			{
				"x": 1.1231940616,
				"y": -2.9537051577,
				"z": -2.8315448711,
				"element": "C" 
			},
			{
				"x": 0.8029951985,
				"y": -1.9373178908,
				"z": -1.9312248545,
				"element": "C" 
			},
			{
				"x": 1.339652711,
				"y": -2.6871042561,
				"z": 0.52172918,
				"element": "H" 
			},
			{
				"x": 2.8166029554,
				"y": -1.711469827,
				"z": 0.4972903107,
				"element": "H" 
			},
			{
				"x": 2.2767596861,
				"y": -2.4565002507,
				"z": 2.0029643636,
				"element": "H" 
			},
			{
				"x": 2.885844171,
				"y": 0.5305303633,
				"z": 1.7372349968,
				"element": "H" 
			},
			{
				"x": 1.4669721674,
				"y": 1.094415562,
				"z": 2.6460285849,
				"element": "H" 
			},
			{
				"x": 2.3824786364,
				"y": -0.3078831645,
				"z": 3.2147496333,
				"element": "H" 
			},
			{
				"x": -0.7657535077,
				"y": -1.8065934533,
				"z": 1.735435233,
				"element": "H" 
			},
			{
				"x": -0.651337668,
				"y": -0.3452406296,
				"z": 2.7259544639,
				"element": "H" 
			},
			{
				"x": 0.2636639899,
				"y": -1.7869783675,
				"z": 3.1876044166,
				"element": "H" 
			},
			{
				"x": 0.3238542092,
				"y": 2.0232488942,
				"z": 0.47119797,
				"element": "H" 
			},
			{
				"x": -3.882480272,
				"y": 1.76389014,
				"z": -0.5975336044,
				"element": "H" 
			},
			{
				"x": -5.1592471133,
				"y": 3.9016019849,
				"z": -0.389928665,
				"element": "H" 
			},
			{
				"x": -4.2099294279,
				"y": 5.7793056608,
				"z": 0.9345754188,
				"element": "H" 
			},
			{
				"x": -2.0056434239,
				"y": 5.517359076,
				"z": 2.0498795746,
				"element": "H" 
			},
			{
				"x": -0.754192177,
				"y": 3.4006463565,
				"z": 1.8436908786,
				"element": "H" 
			},
			{
				"x": 3.5513252765,
				"y": 0.031340425,
				"z": -2.3298589991,
				"element": "H" 
			},
			{
				"x": 4.1531962048,
				"y": -1.8158042965,
				"z": -3.8916811396,
				"element": "H" 
			},
			{
				"x": 2.5852999143,
				"y": -3.7144524832,
				"z": -4.220899051,
				"element": "H" 
			},
			{
				"x": 0.4253264804,
				"y": -3.7696715628,
				"z": -2.9951925632,
				"element": "H" 
			},
			{
				"x": -0.1438458271,
				"y": -1.9342701458,
				"z": -1.4002993573,
				"element": "H" 
			}
		],
		 "valence_orbital": [ 
			{
				"type": "occ",
				"energy": -0.25785,
				"method": "rhf"
			},
			{
				"type": "occ",
				"energy": -0.25662,
				"method": "rhf"
			},
			{
				"type": "occ",
				"energy": -0.25264,
				"method": "rhf"
			},
			{
				"type": "occ",
				"energy": -0.24884,
				"method": "rhf"
			},
			{
				"type": "occ",
				"energy": -0.24225,
				"method": "rhf"
			},
			{
				"type": "unocc",
				"energy": -0.04181,
				"method": "rhf"
			},
			{
				"type": "unocc",
				"energy": -0.03858,
				"method": "rhf"
			},
			{
				"type": "unocc",
				"energy": -0.0079,
				"method": "rhf"
			},
			{
				"type": "unocc",
				"energy": -0.00754,
				"method": "rhf"
			},
			{
				"type": "unocc",
				"energy": 0.02975,
				"method": "rhf"
			}
		],
		"cosmo_sigma_profile": { 
			"-0.025": 0.0,
			"-0.024": 0.0,
			"-0.023": 0.0,
			"-0.022": 0.0,
			"-0.021": 0.0,
			"-0.02": 0.0,
			"-0.019": 0.0,
			"-0.018": 0.0,
			"-0.017": 0.0,
			"-0.016": 0.0,
			"-0.015": 0.0,
			"-0.014": 0.0,
			"-0.013": 0.0,
			"-0.012": 0.0,
			"-0.011": 0.375266992648,
			"-0.01": 1.32492120216,
			"-0.009": 0.736506539959,
			"-0.008": 1.62107855289,
			"-0.007": 4.3049461617,
			"-0.006": 18.1356907194,
			"-0.005": 24.7372826383,
			"-0.004": 31.8540156262,
			"-0.003": 32.0058127012,
			"-0.002": 30.0040424755,
			"-0.001": 31.5307322741,
			"0.0": 35.519271158,
			"0.001": 30.4831305208,
			"0.002": 20.7762273589,
			"0.003": 20.8811245276,
			"0.004": 26.2282740963,
			"0.005": 8.74129681901,
			"0.006": 3.7288856023,
			"0.007": 4.38293294478,
			"0.008": 4.19862234958,
			"0.009": 4.65866310088,
			"0.01": 2.77944327546,
			"0.011": 5.0639989935,
			"0.012": 5.48831139526,
			"0.013": 3.34750585473,
			"0.014": 0.0780068958204,
			"0.015": 0.0,
			"0.016": 0.0,
			"0.017": 0.0,
			"0.018": 0.0,
			"0.019": 0.0,
			"0.02": 0.0,
			"0.021": 0.0,
			"0.022": 0.0,
			"0.023": 0.0,
			"0.024": 0.0,
			"0.025": 0.0
		}
	}
}
