{
	 "smiles": "NC1=NN(C(=O)C1)C1=CC=CC=C1", 
	 "Tm": 485.15, 
	 "num_atms": 22, 
	 "gaussian": { 
		 "optdone": 1, 
		 "sigma_profile": "yes", 
		 "theory": "DFT", 
		 "functional": "B3LYP", 
		 "basiset": "6-31G**", 
		 "properties": { 
			 "R2extent": 2687.2888, 
			 "electric_dipole_moment_norm": 4.73879874863, 
			 "electric_quadrupole_moment_norm": 22.224810527, 
			 "total_energy": -587.846823126, 
			 "HOMO_LUMO_gap": 0.17758, 
			 "cosmo_polarized_energy": -15.98, 
			 "cosmo_cavitation_energy": 26.08, 
			 "cosmo_dispersion_energy": -19.72, 
			 "cosmo_repulsion_energy": 1.57, 
			 "cosmo_total_nonelectrostatic_energy": 7.93, 
			 "SMD_solvation_energy": 4.46 
		},
		"coords": [
			{
				"x": -3.5056306615,
				"y": 1.6450681532,
				"z": -0.1975535273,
				"element": "N" 
			},
			{
				"x": -2.4438724147,
				"y": 0.9475922806,
				"z": 0.3240652478,
				"element": "C" 
			},
			{
				"x": -1.2678575632,
				"y": 0.9705743924,
				"z": -0.207692944,
				"element": "N" 
			},
			{
				"x": -0.4048983599,
				"y": 0.2411376962,
				"z": 0.6443129175,
				"element": "N" 
			},
			{
				"x": -1.0535229716,
				"y": -0.2830752587,
				"z": 1.7512135603,
				"element": "C" 
			},
			{
				"x": -0.5848365169,
				"y": -0.9654127356,
				"z": 2.6468448258,
				"element": "O" 
			},
			{
				"x": -2.5077960613,
				"y": 0.1780935897,
				"z": 1.6086745925,
				"element": "C" 
			},
			{
				"x": 0.9564887146,
				"y": 0.1220932319,
				"z": 0.2757203106,
				"element": "C" 
			},
			{
				"x": 1.4037412617,
				"y": 0.7426128915,
				"z": -0.9012561141,
				"element": "C" 
			},
			{
				"x": 2.7412933206,
				"y": 0.6344211516,
				"z": -1.2758256901,
				"element": "C" 
			},
			{
				"x": 3.6461663529,
				"y": -0.0850849617,
				"z": -0.4939911904,
				"element": "C" 
			},
			{
				"x": 3.193714266,
				"y": -0.6989044905,
				"z": 0.6749167808,
				"element": "C" 
			},
			{
				"x": 1.8600484496,
				"y": -0.6044648136,
				"z": 1.0697946427,
				"element": "C" 
			},
			{
				"x": -4.4221087483,
				"y": 1.2486048201,
				"z": -0.0463459207,
				"element": "H" 
			},
			{
				"x": -3.3578638658,
				"y": 1.9968497797,
				"z": -1.1350691325,
				"element": "H" 
			},
			{
				"x": -2.8030426991,
				"y": 0.7982900341,
				"z": 2.4610631513,
				"element": "H" 
			},
			{
				"x": -3.1809815804,
				"y": -0.6853637997,
				"z": 1.5746282326,
				"element": "H" 
			},
			{
				"x": 0.6999254996,
				"y": 1.3001046301,
				"z": -1.5047720082,
				"element": "H" 
			},
			{
				"x": 3.0746223765,
				"y": 1.11976196,
				"z": -2.1890111086,
				"element": "H" 
			},
			{
				"x": 4.6875791647,
				"y": -0.1659222724,
				"z": -0.7908072966,
				"element": "H" 
			},
			{
				"x": 3.884594929,
				"y": -1.2627731267,
				"z": 1.2955390563,
				"element": "H" 
			},
			{
				"x": 1.5135371073,
				"y": -1.0812031522,
				"z": 1.9757516143,
				"element": "H" 
			}
		],
		 "valence_orbital": [ 
			{
				"type": "occ",
				"energy": -0.30734,
				"method": "rhf"
			},
			{
				"type": "occ",
				"energy": -0.25542,
				"method": "rhf"
			},
			{
				"type": "occ",
				"energy": -0.25329,
				"method": "rhf"
			},
			{
				"type": "occ",
				"energy": -0.2397,
				"method": "rhf"
			},
			{
				"type": "occ",
				"energy": -0.19701,
				"method": "rhf"
			},
			{
				"type": "unocc",
				"energy": -0.01943,
				"method": "rhf"
			},
			{
				"type": "unocc",
				"energy": 0.00384,
				"method": "rhf"
			},
			{
				"type": "unocc",
				"energy": 0.01266,
				"method": "rhf"
			},
			{
				"type": "unocc",
				"energy": 0.05801,
				"method": "rhf"
			},
			{
				"type": "unocc",
				"energy": 0.06742,
				"method": "rhf"
			}
		],
		"cosmo_sigma_profile": { 
			"-0.025": 0.0,
			"-0.024": 0.0,
			"-0.023": 0.0,
			"-0.022": 0.0,
			"-0.021": 0.0,
			"-0.02": 0.0,
			"-0.019": 0.0,
			"-0.018": 0.0,
			"-0.017": 0.0,
			"-0.016": 0.0,
			"-0.015": 0.208845682844,
			"-0.014": 1.95031815135,
			"-0.013": 2.76127313727,
			"-0.012": 2.86550146998,
			"-0.011": 3.03904958904,
			"-0.01": 2.76967144216,
			"-0.009": 4.45082273994,
			"-0.008": 6.85179097407,
			"-0.007": 5.84944839956,
			"-0.006": 8.51666807121,
			"-0.005": 11.7702509429,
			"-0.004": 13.3031261667,
			"-0.003": 12.9116622266,
			"-0.002": 9.71132563441,
			"-0.001": 9.3733703299,
			"0.0": 9.17685672137,
			"0.001": 10.9531259236,
			"0.002": 11.362521629,
			"0.003": 14.8987538626,
			"0.004": 13.7030917862,
			"0.005": 14.8369593404,
			"0.006": 12.2472760363,
			"0.007": 4.61969854348,
			"0.008": 2.58082871135,
			"0.009": 3.86746716926,
			"0.01": 4.32971811323,
			"0.011": 3.03973313058,
			"0.012": 3.64840278443,
			"0.013": 2.51164253255,
			"0.014": 0.431542499528,
			"0.015": 0.0,
			"0.016": 0.0,
			"0.017": 0.0,
			"0.018": 0.0,
			"0.019": 0.0,
			"0.02": 0.0,
			"0.021": 0.0,
			"0.022": 0.0,
			"0.023": 0.0,
			"0.024": 0.0,
			"0.025": 0.0
		}
	}
}
