{
	 "smiles": "CN1C=C(C=O)C2=C1C=CC=C2", 
	 "Tm": 342.15, 
	 "num_atms": 21, 
	 "gaussian": { 
		 "optdone": 1, 
		 "sigma_profile": "yes", 
		 "theory": "DFT", 
		 "functional": "B3LYP", 
		 "basiset": "6-31G**", 
		 "properties": { 
			 "R2extent": 2020.7889, 
			 "electric_dipole_moment_norm": 5.83113400035, 
			 "electric_quadrupole_moment_norm": 14.4391644945, 
			 "total_energy": -516.462793777, 
			 "HOMO_LUMO_gap": 0.17685, 
			 "cosmo_polarized_energy": -13.61, 
			 "cosmo_cavitation_energy": 25.02, 
			 "cosmo_dispersion_energy": -18.24, 
			 "cosmo_repulsion_energy": 1.42, 
			 "cosmo_total_nonelectrostatic_energy": 8.19, 
			 "SMD_solvation_energy": 5.38 
		},
		"coords": [
			{
				"x": 2.8429033033,
				"y": 0.9688949735,
				"z": -1.6028045823,
				"element": "C" 
			},
			{
				"x": 1.8211763188,
				"y": 0.1920342691,
				"z": -0.9277725465,
				"element": "N" 
			},
			{
				"x": 1.8773938989,
				"y": -1.1436997836,
				"z": -0.6424629666,
				"element": "C" 
			},
			{
				"x": 0.7241588838,
				"y": -1.5473946392,
				"z": 0.0084415202,
				"element": "C" 
			},
			{
				"x": 0.4467088233,
				"y": -2.8979187946,
				"z": 0.4581805986,
				"element": "C" 
			},
			{
				"x": -0.5736839771,
				"y": -3.2500827438,
				"z": 1.0334276754,
				"element": "O" 
			},
			{
				"x": -0.1072716971,
				"y": -0.3709586691,
				"z": 0.1344797858,
				"element": "C" 
			},
			{
				"x": 0.6083264601,
				"y": 0.6975134706,
				"z": -0.4607123497,
				"element": "C" 
			},
			{
				"x": 0.1004918202,
				"y": 1.9986600888,
				"z": -0.5200895341,
				"element": "C" 
			},
			{
				"x": -1.1572027389,
				"y": 2.213853441,
				"z": 0.036276988,
				"element": "C" 
			},
			{
				"x": -1.8836182396,
				"y": 1.163807062,
				"z": 0.6323439961,
				"element": "C" 
			},
			{
				"x": -1.3728362474,
				"y": -0.1285906422,
				"z": 0.6883159263,
				"element": "C" 
			},
			{
				"x": 3.2074780383,
				"y": 1.7751790207,
				"z": -0.9574647654,
				"element": "H" 
			},
			{
				"x": 2.4499757055,
				"y": 1.4085537401,
				"z": -2.5257182232,
				"element": "H" 
			},
			{
				"x": 3.6805811271,
				"y": 0.3167869596,
				"z": -1.8549399496,
				"element": "H" 
			},
			{
				"x": 2.7435742045,
				"y": -1.7283364678,
				"z": -0.9237240184,
				"element": "H" 
			},
			{
				"x": 1.2553970186,
				"y": -3.6334146895,
				"z": 0.2405688834,
				"element": "H" 
			},
			{
				"x": 0.6571540556,
				"y": 2.810309226,
				"z": -0.9785204074,
				"element": "H" 
			},
			{
				"x": -1.5863786352,
				"y": 3.2111421965,
				"z": 0.0099910159,
				"element": "H" 
			},
			{
				"x": -2.8618955999,
				"y": 1.3722436164,
				"z": 1.0555063355,
				"element": "H" 
			},
			{
				"x": -1.9222325229,
				"y": -0.9441816346,
				"z": 1.144176618,
				"element": "H" 
			}
		],
		 "valence_orbital": [ 
			{
				"type": "occ",
				"energy": -0.33455,
				"method": "rhf"
			},
			{
				"type": "occ",
				"energy": -0.27536,
				"method": "rhf"
			},
			{
				"type": "occ",
				"energy": -0.23636,
				"method": "rhf"
			},
			{
				"type": "occ",
				"energy": -0.23094,
				"method": "rhf"
			},
			{
				"type": "occ",
				"energy": -0.2137,
				"method": "rhf"
			},
			{
				"type": "unocc",
				"energy": -0.03685,
				"method": "rhf"
			},
			{
				"type": "unocc",
				"energy": -0.00417,
				"method": "rhf"
			},
			{
				"type": "unocc",
				"energy": 0.02024,
				"method": "rhf"
			},
			{
				"type": "unocc",
				"energy": 0.07576,
				"method": "rhf"
			},
			{
				"type": "unocc",
				"energy": 0.10449,
				"method": "rhf"
			}
		],
		"cosmo_sigma_profile": { 
			"-0.025": 0.0,
			"-0.024": 0.0,
			"-0.023": 0.0,
			"-0.022": 0.0,
			"-0.021": 0.0,
			"-0.02": 0.0,
			"-0.019": 0.0,
			"-0.018": 0.0,
			"-0.017": 0.0,
			"-0.016": 0.0,
			"-0.015": 0.0,
			"-0.014": 0.0,
			"-0.013": 0.0,
			"-0.012": 0.0,
			"-0.011": 0.0,
			"-0.01": 1.37823926408,
			"-0.009": 3.28899115552,
			"-0.008": 3.31908391453,
			"-0.007": 5.6401224077,
			"-0.006": 13.3394354564,
			"-0.005": 18.7595028173,
			"-0.004": 18.202935236,
			"-0.003": 18.5270916219,
			"-0.002": 11.1814994191,
			"-0.001": 10.2047883751,
			"0.0": 8.78087978822,
			"0.001": 11.0066418466,
			"0.002": 10.4072083856,
			"0.003": 11.3641165124,
			"0.004": 13.5992602347,
			"0.005": 12.9904230989,
			"0.006": 9.36857188048,
			"0.007": 2.85194909101,
			"0.008": 1.56259039617,
			"0.009": 1.99006851071,
			"0.01": 1.73228506058,
			"0.011": 2.36444668549,
			"0.012": 3.69698593565,
			"0.013": 3.07467983431,
			"0.014": 1.54716962729,
			"0.015": 0.172342776269,
			"0.016": 0.0,
			"0.017": 0.0,
			"0.018": 0.0,
			"0.019": 0.0,
			"0.02": 0.0,
			"0.021": 0.0,
			"0.022": 0.0,
			"0.023": 0.0,
			"0.024": 0.0,
			"0.025": 0.0
		}
	}
}
