{
	 "smiles": "OC(=O)C1=CC(=CN=C1)C#CC1=CC=CC=C1", 
	 "Tm": 519.15, 
	 "num_atms": 26, 
	 "gaussian": { 
		 "optdone": 1, 
		 "sigma_profile": "yes", 
		 "theory": "DFT", 
		 "functional": "B3LYP", 
		 "basiset": "6-31G**", 
		 "properties": { 
			 "R2extent": 7947.3105, 
			 "electric_dipole_moment_norm": 3.76069742069, 
			 "electric_quadrupole_moment_norm": 22.6495891839, 
			 "total_energy": -744.060220288, 
			 "HOMO_LUMO_gap": 0.15694, 
			 "cosmo_polarized_energy": -16.1, 
			 "cosmo_cavitation_energy": 33.28, 
			 "cosmo_dispersion_energy": -23.9, 
			 "cosmo_repulsion_energy": 1.85, 
			 "cosmo_total_nonelectrostatic_energy": 11.23, 
			 "SMD_solvation_energy": 5.51 
		},
		"coords": [
			{
				"x": 2.7623191694,
				"y": 6.2909144307,
				"z": -1.4968446221,
				"element": "O" 
			},
			{
				"x": 2.0509157223,
				"y": 5.4300367541,
				"z": -0.7248253343,
				"element": "C" 
			},
			{
				"x": 1.4774337558,
				"y": 5.8284155761,
				"z": 0.2606113115,
				"element": "O" 
			},
			{
				"x": 2.0233707641,
				"y": 3.9938918395,
				"z": -1.1584355515,
				"element": "C" 
			},
			{
				"x": 1.0228466908,
				"y": 3.1694066382,
				"z": -0.6398178726,
				"element": "C" 
			},
			{
				"x": 0.9759902454,
				"y": 1.8211254088,
				"z": -1.023413815,
				"element": "C" 
			},
			{
				"x": 1.9736109835,
				"y": 1.3693674295,
				"z": -1.9184443727,
				"element": "C" 
			},
			{
				"x": 2.9486791905,
				"y": 2.1400402187,
				"z": -2.397056866,
				"element": "N" 
			},
			{
				"x": 2.9696381545,
				"y": 3.4232161629,
				"z": -2.0196129171,
				"element": "C" 
			},
			{
				"x": -0.0246697666,
				"y": 0.9349054361,
				"z": -0.5412873218,
				"element": "C" 
			},
			{
				"x": -0.8775771297,
				"y": 0.1698870416,
				"z": -0.1334213494,
				"element": "C" 
			},
			{
				"x": -1.8789091804,
				"y": -0.7222502082,
				"z": 0.3472710167,
				"element": "C" 
			},
			{
				"x": -2.8659029723,
				"y": -0.2702058658,
				"z": 1.2464430383,
				"element": "C" 
			},
			{
				"x": -3.842257583,
				"y": -1.1455539842,
				"z": 1.7133245973,
				"element": "C" 
			},
			{
				"x": -3.851772538,
				"y": -2.4786949332,
				"z": 1.2946245836,
				"element": "C" 
			},
			{
				"x": -2.8773133743,
				"y": -2.9359258332,
				"z": 0.4035525894,
				"element": "C" 
			},
			{
				"x": -1.896560797,
				"y": -2.0687246072,
				"z": -0.0692874686,
				"element": "C" 
			},
			{
				"x": 3.0359137993,
				"y": 5.8660811621,
				"z": -2.3216524616,
				"element": "H" 
			},
			{
				"x": 0.2971204159,
				"y": 3.5838265294,
				"z": 0.0509571195,
				"element": "H" 
			},
			{
				"x": 1.9668092354,
				"y": 0.3317833928,
				"z": -2.2446644428,
				"element": "H" 
			},
			{
				"x": 3.8065074761,
				"y": 4.0064795242,
				"z": -2.4043895233,
				"element": "H" 
			},
			{
				"x": -2.8539564984,
				"y": 0.7658516591,
				"z": 1.5688888181,
				"element": "H" 
			},
			{
				"x": -4.598011546,
				"y": -0.7872108536,
				"z": 2.4059889182,
				"element": "H" 
			},
			{
				"x": -4.6152078371,
				"y": -3.1584360889,
				"z": 1.6613254979,
				"element": "H" 
			},
			{
				"x": -2.8819285303,
				"y": -3.9714865137,
				"z": 0.0764429316,
				"element": "H" 
			},
			{
				"x": -1.1375878497,
				"y": -2.4190403156,
				"z": -0.7612765034,
				"element": "H" 
			}
		],
		 "valence_orbital": [ 
			{
				"type": "occ",
				"energy": -0.28988,
				"method": "rhf"
			},
			{
				"type": "occ",
				"energy": -0.28375,
				"method": "rhf"
			},
			{
				"type": "occ",
				"energy": -0.26688,
				"method": "rhf"
			},
			{
				"type": "occ",
				"energy": -0.2652,
				"method": "rhf"
			},
			{
				"type": "occ",
				"energy": -0.22981,
				"method": "rhf"
			},
			{
				"type": "unocc",
				"energy": -0.07287,
				"method": "rhf"
			},
			{
				"type": "unocc",
				"energy": -0.0615,
				"method": "rhf"
			},
			{
				"type": "unocc",
				"energy": -0.01922,
				"method": "rhf"
			},
			{
				"type": "unocc",
				"energy": -0.01373,
				"method": "rhf"
			},
			{
				"type": "unocc",
				"energy": 0.02986,
				"method": "rhf"
			}
		],
		"cosmo_sigma_profile": { 
			"-0.025": 0.0,
			"-0.024": 0.0,
			"-0.023": 0.0,
			"-0.022": 0.0,
			"-0.021": 0.0,
			"-0.02": 0.201530161324,
			"-0.019": 0.610244631376,
			"-0.018": 0.962563701159,
			"-0.017": 1.3857148209,
			"-0.016": 1.23518418962,
			"-0.015": 0.767161549398,
			"-0.014": 0.892150362144,
			"-0.013": 1.26490668583,
			"-0.012": 1.35508393068,
			"-0.011": 0.92895728827,
			"-0.01": 1.62639898949,
			"-0.009": 1.33613831869,
			"-0.008": 3.27605284391,
			"-0.007": 6.64343194476,
			"-0.006": 15.6111439139,
			"-0.005": 16.5805590119,
			"-0.004": 17.5341047858,
			"-0.003": 14.6131317732,
			"-0.002": 17.2982487886,
			"-0.001": 22.750885421,
			"0.0": 19.608512589,
			"0.001": 16.8225803437,
			"0.002": 18.9254369296,
			"0.003": 20.8653078953,
			"0.004": 21.0326466915,
			"0.005": 10.6361963552,
			"0.006": 3.81442293369,
			"0.007": 3.45751492941,
			"0.008": 4.04400701769,
			"0.009": 4.83500217943,
			"0.01": 5.91384096375,
			"0.011": 6.51897324446,
			"0.012": 3.38829676197,
			"0.013": 1.26043249062,
			"0.014": 0.912683484396,
			"0.015": 0.672464633402,
			"0.016": 0.0,
			"0.017": 0.0,
			"0.018": 0.0,
			"0.019": 0.0,
			"0.02": 0.0,
			"0.021": 0.0,
			"0.022": 0.0,
			"0.023": 0.0,
			"0.024": 0.0,
			"0.025": 0.0
		}
	}
}
