{
	 "smiles": "NC1=C(C=CC=C1)C(=O)NC1=CC(=CC=C1)C(F)(F)F", 
	 "Tm": 407.15, 
	 "num_atms": 31, 
	 "gaussian": { 
		 "optdone": 1, 
		 "sigma_profile": "yes", 
		 "theory": "DFT", 
		 "functional": "B3LYP", 
		 "basiset": "6-31G**", 
		 "properties": { 
			 "R2extent": 6850.2917, 
			 "electric_dipole_moment_norm": 3.18820238693, 
			 "electric_quadrupole_moment_norm": 16.7314380891, 
			 "total_energy": -1024.39047881, 
			 "HOMO_LUMO_gap": 0.16611, 
			 "cosmo_polarized_energy": -15.35, 
			 "cosmo_cavitation_energy": 36.72, 
			 "cosmo_dispersion_energy": -25.14, 
			 "cosmo_repulsion_energy": 1.87, 
			 "cosmo_total_nonelectrostatic_energy": 13.45, 
			 "SMD_solvation_energy": 7.93 
		},
		"coords": [
			{
				"x": 1.6249775864,
				"y": -1.0461180637,
				"z": -1.7797529478,
				"element": "N" 
			},
			{
				"x": 0.9458790878,
				"y": 0.0324529685,
				"z": -2.3177385258,
				"element": "C" 
			},
			{
				"x": -0.4604056527,
				"y": 0.1867426843,
				"z": -2.2048889791,
				"element": "C" 
			},
			{
				"x": -1.1020957832,
				"y": 1.2187018489,
				"z": -2.9103665127,
				"element": "C" 
			},
			{
				"x": -0.3873932224,
				"y": 2.1457010506,
				"z": -3.6573623623,
				"element": "C" 
			},
			{
				"x": 1.0049194683,
				"y": 2.0190704263,
				"z": -3.7316236988,
				"element": "C" 
			},
			{
				"x": 1.6571254235,
				"y": 0.9791004654,
				"z": -3.0839437366,
				"element": "C" 
			},
			{
				"x": -1.3491131595,
				"y": -0.746903067,
				"z": -1.4508574722,
				"element": "C" 
			},
			{
				"x": -2.4068493241,
				"y": -1.1549176842,
				"z": -1.9103894839,
				"element": "O" 
			},
			{
				"x": -0.947349098,
				"y": -1.2071461982,
				"z": -0.188390191,
				"element": "N" 
			},
			{
				"x": -0.2046799056,
				"y": -0.5571505797,
				"z": 0.8274184992,
				"element": "C" 
			},
			{
				"x": 0.3047092985,
				"y": -1.3487906735,
				"z": 1.86693034,
				"element": "C" 
			},
			{
				"x": 1.0232861096,
				"y": -0.7643735758,
				"z": 2.9089781452,
				"element": "C" 
			},
			{
				"x": 1.2631698136,
				"y": 0.6115679646,
				"z": 2.9237368639,
				"element": "C" 
			},
			{
				"x": 0.7561975217,
				"y": 1.3956207164,
				"z": 1.8885911912,
				"element": "C" 
			},
			{
				"x": 0.015224171,
				"y": 0.8284118838,
				"z": 0.852834761,
				"element": "C" 
			},
			{
				"x": 1.5044831989,
				"y": -1.6216912371,
				"z": 4.0496878948,
				"element": "C" 
			},
			{
				"x": 2.6507515189,
				"y": -1.1471597788,
				"z": 4.5840649918,
				"element": "F" 
			},
			{
				"x": 0.5956376008,
				"y": -1.6735505308,
				"z": 5.0502355072,
				"element": "F" 
			},
			{
				"x": 1.7336611258,
				"y": -2.8966112253,
				"z": 3.6613830273,
				"element": "F" 
			},
			{
				"x": 1.1642527101,
				"y": -1.5851376662,
				"z": -1.0636953409,
				"element": "H" 
			},
			{
				"x": 2.6181251795,
				"y": -0.9338120531,
				"z": -1.6448368979,
				"element": "H" 
			},
			{
				"x": -2.1838788334,
				"y": 1.2764536106,
				"z": -2.8431335039,
				"element": "H" 
			},
			{
				"x": -0.9002999979,
				"y": 2.9472252438,
				"z": -4.1784037509,
				"element": "H" 
			},
			{
				"x": 1.5869834279,
				"y": 2.7313740578,
				"z": -4.3099313871,
				"element": "H" 
			},
			{
				"x": 2.734808984,
				"y": 0.8702572297,
				"z": -3.1780898182,
				"element": "H" 
			},
			{
				"x": -1.5796027763,
				"y": -1.9311363757,
				"z": 0.1357540468,
				"element": "H" 
			},
			{
				"x": 0.1464170616,
				"y": -2.4224883834,
				"z": 1.8551908122,
				"element": "H" 
			},
			{
				"x": 1.8360828684,
				"y": 1.0561214668,
				"z": 3.729459353,
				"element": "H" 
			},
			{
				"x": 0.9250476377,
				"y": 2.4681004519,
				"z": 1.8925167396,
				"element": "H" 
			},
			{
				"x": -0.3903720409,
				"y": 1.4562850234,
				"z": 0.069422436,
				"element": "H" 
			}
		],
		 "valence_orbital": [ 
			{
				"type": "occ",
				"energy": -0.27881,
				"method": "rhf"
			},
			{
				"type": "occ",
				"energy": -0.27147,
				"method": "rhf"
			},
			{
				"type": "occ",
				"energy": -0.25028,
				"method": "rhf"
			},
			{
				"type": "occ",
				"energy": -0.24102,
				"method": "rhf"
			},
			{
				"type": "occ",
				"energy": -0.21118,
				"method": "rhf"
			},
			{
				"type": "unocc",
				"energy": -0.04507,
				"method": "rhf"
			},
			{
				"type": "unocc",
				"energy": -0.03668,
				"method": "rhf"
			},
			{
				"type": "unocc",
				"energy": -0.01479,
				"method": "rhf"
			},
			{
				"type": "unocc",
				"energy": 0.0055,
				"method": "rhf"
			},
			{
				"type": "unocc",
				"energy": 0.04187,
				"method": "rhf"
			}
		],
		"cosmo_sigma_profile": { 
			"-0.025": 0.0,
			"-0.024": 0.0,
			"-0.023": 0.0,
			"-0.022": 0.0,
			"-0.021": 0.0,
			"-0.02": 0.0,
			"-0.019": 0.0,
			"-0.018": 0.0,
			"-0.017": 0.0,
			"-0.016": 0.0,
			"-0.015": 0.239555554155,
			"-0.014": 1.39248449187,
			"-0.013": 1.5812497295,
			"-0.012": 2.62965196054,
			"-0.011": 2.52691854452,
			"-0.01": 2.9489897727,
			"-0.009": 3.81615990585,
			"-0.008": 3.96211856816,
			"-0.007": 7.1060766265,
			"-0.006": 13.6177257073,
			"-0.005": 18.786352587,
			"-0.004": 18.1410248173,
			"-0.003": 17.5853555039,
			"-0.002": 16.3214482232,
			"-0.001": 15.8267806374,
			"0.0": 18.259851755,
			"0.001": 19.3373243484,
			"0.002": 32.7688700915,
			"0.003": 44.6229977307,
			"0.004": 13.7963381237,
			"0.005": 11.3433682756,
			"0.006": 6.17037921766,
			"0.007": 2.626542383,
			"0.008": 1.54995962868,
			"0.009": 1.89491818683,
			"0.01": 2.67737879721,
			"0.011": 2.74517254304,
			"0.012": 4.33778691865,
			"0.013": 4.3722821692,
			"0.014": 0.915278320982,
			"0.015": 0.0,
			"0.016": 0.0,
			"0.017": 0.0,
			"0.018": 0.0,
			"0.019": 0.0,
			"0.02": 0.0,
			"0.021": 0.0,
			"0.022": 0.0,
			"0.023": 0.0,
			"0.024": 0.0,
			"0.025": 0.0
		}
	}
}
