{
	 "smiles": "CN1N=C(C)C(C#N)=C1Cl", 
	 "Tm": 329.15, 
	 "num_atms": 16, 
	 "gaussian": { 
		 "optdone": 1, 
		 "sigma_profile": "yes", 
		 "theory": "DFT", 
		 "functional": "B3LYP", 
		 "basiset": "6-31G**", 
		 "properties": { 
			 "R2extent": 2088.0837, 
			 "electric_dipole_moment_norm": 4.80204340464, 
			 "electric_quadrupole_moment_norm": 18.5523597868, 
			 "total_energy": -856.666687485, 
			 "HOMO_LUMO_gap": 0.23068, 
			 "cosmo_polarized_energy": -10.0, 
			 "cosmo_cavitation_energy": 23.32, 
			 "cosmo_dispersion_energy": -16.44, 
			 "cosmo_repulsion_energy": 1.36, 
			 "cosmo_total_nonelectrostatic_energy": 8.24, 
			 "SMD_solvation_energy": 4.52 
		},
		"coords": [
			{
				"x": 1.7529344007,
				"y": 0.3302073369,
				"z": -0.8894767461,
				"element": "C" 
			},
			{
				"x": 0.3782630721,
				"y": 0.2247779719,
				"z": -0.4281044999,
				"element": "N" 
			},
			{
				"x": 0.1023530543,
				"y": 0.2367520836,
				"z": 0.9050345527,
				"element": "N" 
			},
			{
				"x": -1.217088168,
				"y": 0.126634506,
				"z": 1.0096007408,
				"element": "C" 
			},
			{
				"x": -1.8939273608,
				"y": 0.1043342176,
				"z": 2.3424624105,
				"element": "C" 
			},
			{
				"x": -1.8220555062,
				"y": 0.0402390482,
				"z": -0.2806639731,
				"element": "C" 
			},
			{
				"x": -3.196353637,
				"y": -0.0859807363,
				"z": -0.5934943878,
				"element": "C" 
			},
			{
				"x": -4.33337721,
				"y": -0.1886137844,
				"z": -0.8219872189,
				"element": "N" 
			},
			{
				"x": -0.747618593,
				"y": 0.108784971,
				"z": -1.1642910795,
				"element": "C" 
			},
			{
				"x": -0.7308783082,
				"y": 0.0643635455,
				"z": -2.8811675868,
				"element": "Cl" 
			},
			{
				"x": 2.0357526709,
				"y": -0.5556943127,
				"z": -1.4641735124,
				"element": "H" 
			},
			{
				"x": 1.8837464405,
				"y": 1.2197114842,
				"z": -1.5113799221,
				"element": "H" 
			},
			{
				"x": 2.3749558957,
				"y": 0.4071312272,
				"z": 0.0006549668,
				"element": "H" 
			},
			{
				"x": -1.1467685311,
				"y": 0.1894408174,
				"z": 3.1337931076,
				"element": "H" 
			},
			{
				"x": -2.4545929026,
				"y": -0.8252885367,
				"z": 2.485229155,
				"element": "H" 
			},
			{
				"x": -2.6049453174,
				"y": 0.9315001607,
				"z": 2.4382639929,
				"element": "H" 
			}
		],
		 "valence_orbital": [ 
			{
				"type": "occ",
				"energy": -0.35543,
				"method": "rhf"
			},
			{
				"type": "occ",
				"energy": -0.33844,
				"method": "rhf"
			},
			{
				"type": "occ",
				"energy": -0.30633,
				"method": "rhf"
			},
			{
				"type": "occ",
				"energy": -0.26663,
				"method": "rhf"
			},
			{
				"type": "occ",
				"energy": -0.25863,
				"method": "rhf"
			},
			{
				"type": "unocc",
				"energy": -0.02795,
				"method": "rhf"
			},
			{
				"type": "unocc",
				"energy": 0.00688,
				"method": "rhf"
			},
			{
				"type": "unocc",
				"energy": 0.01136,
				"method": "rhf"
			},
			{
				"type": "unocc",
				"energy": 0.02702,
				"method": "rhf"
			},
			{
				"type": "unocc",
				"energy": 0.09358,
				"method": "rhf"
			}
		],
		"cosmo_sigma_profile": { 
			"-0.025": 0.0,
			"-0.024": 0.0,
			"-0.023": 0.0,
			"-0.022": 0.0,
			"-0.021": 0.0,
			"-0.02": 0.0,
			"-0.019": 0.0,
			"-0.018": 0.0,
			"-0.017": 0.0,
			"-0.016": 0.0,
			"-0.015": 0.0,
			"-0.014": 0.0,
			"-0.013": 0.0,
			"-0.012": 0.0,
			"-0.011": 0.0,
			"-0.01": 0.0,
			"-0.009": 0.0,
			"-0.008": 0.913131295788,
			"-0.007": 6.68083742045,
			"-0.006": 9.9143498815,
			"-0.005": 15.8734037783,
			"-0.004": 17.8961249762,
			"-0.003": 15.9889551923,
			"-0.002": 18.8660080426,
			"-0.001": 20.3962282616,
			"0.0": 16.6545389636,
			"0.001": 13.1851860986,
			"0.002": 11.0566473409,
			"0.003": 4.05392970603,
			"0.004": 3.68163874736,
			"0.005": 3.50528445798,
			"0.006": 4.58212883079,
			"0.007": 3.40386931166,
			"0.008": 4.81585458541,
			"0.009": 4.0518741908,
			"0.01": 4.1038187237,
			"0.011": 4.10441547336,
			"0.012": 3.53514549478,
			"0.013": 2.27618440531,
			"0.014": 0.210223774897,
			"0.015": 0.0,
			"0.016": 0.0,
			"0.017": 0.0,
			"0.018": 0.0,
			"0.019": 0.0,
			"0.02": 0.0,
			"0.021": 0.0,
			"0.022": 0.0,
			"0.023": 0.0,
			"0.024": 0.0,
			"0.025": 0.0
		}
	}
}
