{
	 "smiles": "CC(OCC(=N/NC(N)=O)C1=CC=CC=C1)=C(C#N)C1=CC=CC=C1", 
	 "Tm": 430.15, 
	 "num_atms": 43, 
	 "gaussian": { 
		 "optdone": 1, 
		 "sigma_profile": "yes", 
		 "theory": "DFT", 
		 "functional": "B3LYP", 
		 "basiset": "6-31G**", 
		 "properties": { 
			 "R2extent": 9576.6608, 
			 "electric_dipole_moment_norm": 5.18832851022, 
			 "electric_quadrupole_moment_norm": 24.5348897034, 
			 "total_energy": -1104.27963387, 
			 "HOMO_LUMO_gap": 0.16833, 
			 "cosmo_polarized_energy": -21.66, 
			 "cosmo_cavitation_energy": 48.68, 
			 "cosmo_dispersion_energy": -31.01, 
			 "cosmo_repulsion_energy": 2.41, 
			 "cosmo_total_nonelectrostatic_energy": 20.07, 
			 "SMD_solvation_energy": 10.21 
		},
		"coords": [
			{
				"x": 2.3812284256,
				"y": 2.3010504862,
				"z": -1.1883295886,
				"element": "C" 
			},
			{
				"x": 1.2298538127,
				"y": 2.0236705965,
				"z": -0.2729423666,
				"element": "C" 
			},
			{
				"x": 0.0645436945,
				"y": 1.7513221952,
				"z": -0.9556582864,
				"element": "O" 
			},
			{
				"x": -0.5199397222,
				"y": 0.4303444467,
				"z": -0.8094208273,
				"element": "C" 
			},
			{
				"x": 0.2145725174,
				"y": -0.6151512294,
				"z": -1.6327237591,
				"element": "C" 
			},
			{
				"x": 0.420685724,
				"y": -0.4738025742,
				"z": -2.9041052621,
				"element": "N" 
			},
			{
				"x": 0.0273499379,
				"y": 0.6555234426,
				"z": -3.5329154077,
				"element": "N" 
			},
			{
				"x": 0.2552875809,
				"y": 0.8315416083,
				"z": -4.9074893199,
				"element": "C" 
			},
			{
				"x": 0.7477633542,
				"y": -0.2650201484,
				"z": -5.5453041515,
				"element": "N" 
			},
			{
				"x": 0.009059094,
				"y": 1.9084615763,
				"z": -5.4299736981,
				"element": "O" 
			},
			{
				"x": 0.6937167088,
				"y": -1.8698693,
				"z": -1.0036160946,
				"element": "C" 
			},
			{
				"x": 0.1164059056,
				"y": -2.3747651812,
				"z": 0.1747615539,
				"element": "C" 
			},
			{
				"x": 0.5684638469,
				"y": -3.5684763164,
				"z": 0.7379299675,
				"element": "C" 
			},
			{
				"x": 1.6074556264,
				"y": -4.2805957759,
				"z": 0.1396616628,
				"element": "C" 
			},
			{
				"x": 2.1912087943,
				"y": -3.7895886842,
				"z": -1.0317577005,
				"element": "C" 
			},
			{
				"x": 1.7421083131,
				"y": -2.5998016722,
				"z": -1.595507498,
				"element": "C" 
			},
			{
				"x": 1.2649216379,
				"y": 2.0844563768,
				"z": 1.0865877769,
				"element": "C" 
			},
			{
				"x": 2.5367390695,
				"y": 2.3121649777,
				"z": 1.7097433124,
				"element": "C" 
			},
			{
				"x": 3.5558017616,
				"y": 2.4838238313,
				"z": 2.246764748,
				"element": "N" 
			},
			{
				"x": 0.1028798138,
				"y": 1.9423576237,
				"z": 2.0110751635,
				"element": "C" 
			},
			{
				"x": 0.2665099148,
				"y": 1.2971435649,
				"z": 3.248458308,
				"element": "C" 
			},
			{
				"x": -0.8020343287,
				"y": 1.1812150654,
				"z": 4.136461403,
				"element": "C" 
			},
			{
				"x": -2.0495284934,
				"y": 1.7147715634,
				"z": 3.80874265,
				"element": "C" 
			},
			{
				"x": -2.2191059865,
				"y": 2.3707221214,
				"z": 2.5872957973,
				"element": "C" 
			},
			{
				"x": -1.1542370975,
				"y": 2.4877554771,
				"z": 1.6956398593,
				"element": "C" 
			},
			{
				"x": 3.2721746568,
				"y": 2.6186553364,
				"z": -0.6467366091,
				"element": "H" 
			},
			{
				"x": 2.0972880114,
				"y": 3.0856137618,
				"z": -1.8995046947,
				"element": "H" 
			},
			{
				"x": 2.6172060358,
				"y": 1.4069041716,
				"z": -1.7768425837,
				"element": "H" 
			},
			{
				"x": -0.561855665,
				"y": 0.1621139434,
				"z": 0.244547866,
				"element": "H" 
			},
			{
				"x": -1.5440247848,
				"y": 0.5504188252,
				"z": -1.1799001115,
				"element": "H" 
			},
			{
				"x": -0.1805618359,
				"y": 1.5059692721,
				"z": -3.0176839986,
				"element": "H" 
			},
			{
				"x": 0.810073422,
				"y": -0.2231910372,
				"z": -6.5481080384,
				"element": "H" 
			},
			{
				"x": 0.8337627029,
				"y": -1.1402508733,
				"z": -5.0537888391,
				"element": "H" 
			},
			{
				"x": -0.707975884,
				"y": -1.8549422598,
				"z": 0.6525557912,
				"element": "H" 
			},
			{
				"x": 0.1026675904,
				"y": -3.9416823979,
				"z": 1.6453097933,
				"element": "H" 
			},
			{
				"x": 1.9632463771,
				"y": -5.2059552284,
				"z": 0.5827985392,
				"element": "H" 
			},
			{
				"x": 3.0075967679,
				"y": -4.3312348187,
				"z": -1.5009685277,
				"element": "H" 
			},
			{
				"x": 2.2053062013,
				"y": -2.2107506523,
				"z": -2.4955142326,
				"element": "H" 
			},
			{
				"x": 1.2379725535,
				"y": 0.8920183785,
				"z": 3.5153981222,
				"element": "H" 
			},
			{
				"x": -0.6565610584,
				"y": 0.6768490522,
				"z": 5.0872346962,
				"element": "H" 
			},
			{
				"x": -2.8806866806,
				"y": 1.6281608817,
				"z": 4.502360802,
				"element": "H" 
			},
			{
				"x": -3.1817144118,
				"y": 2.8036540179,
				"z": 2.3306316577,
				"element": "H" 
			},
			{
				"x": -1.2901239043,
				"y": 3.0075955556,
				"z": 0.7539321254,
				"element": "H" 
			}
		],
		 "valence_orbital": [ 
			{
				"type": "occ",
				"energy": -0.26398,
				"method": "rhf"
			},
			{
				"type": "occ",
				"energy": -0.26373,
				"method": "rhf"
			},
			{
				"type": "occ",
				"energy": -0.26144,
				"method": "rhf"
			},
			{
				"type": "occ",
				"energy": -0.23816,
				"method": "rhf"
			},
			{
				"type": "occ",
				"energy": -0.22512,
				"method": "rhf"
			},
			{
				"type": "unocc",
				"energy": -0.05679,
				"method": "rhf"
			},
			{
				"type": "unocc",
				"energy": -0.05556,
				"method": "rhf"
			},
			{
				"type": "unocc",
				"energy": -0.0154,
				"method": "rhf"
			},
			{
				"type": "unocc",
				"energy": -0.01219,
				"method": "rhf"
			},
			{
				"type": "unocc",
				"energy": -0.00498,
				"method": "rhf"
			}
		],
		"cosmo_sigma_profile": { 
			"-0.025": 0.0,
			"-0.024": 0.0,
			"-0.023": 0.0,
			"-0.022": 0.0,
			"-0.021": 0.0,
			"-0.02": 0.0,
			"-0.019": 0.0,
			"-0.018": 0.0,
			"-0.017": 0.0,
			"-0.016": 0.0,
			"-0.015": 0.11454930165,
			"-0.014": 0.979793249836,
			"-0.013": 1.32487517813,
			"-0.012": 1.433750997,
			"-0.011": 1.53314479613,
			"-0.01": 2.28029592007,
			"-0.009": 1.67649207253,
			"-0.008": 6.87162111552,
			"-0.007": 8.62731867446,
			"-0.006": 20.2100227635,
			"-0.005": 27.7034991961,
			"-0.004": 34.5916302927,
			"-0.003": 34.9347231052,
			"-0.002": 34.6144915253,
			"-0.001": 25.8133741392,
			"0.0": 24.0454137609,
			"0.001": 24.3580020687,
			"0.002": 22.5961233899,
			"0.003": 24.8658768261,
			"0.004": 24.4399578519,
			"0.005": 21.4672187783,
			"0.006": 6.89230047148,
			"0.007": 3.16915064096,
			"0.008": 4.22965783207,
			"0.009": 5.13359113397,
			"0.01": 4.09582652817,
			"0.011": 3.5563596852,
			"0.012": 4.52155211929,
			"0.013": 5.04187362661,
			"0.014": 7.22427723578,
			"0.015": 1.40458553635,
			"0.016": 0.0,
			"0.017": 0.0,
			"0.018": 0.0,
			"0.019": 0.0,
			"0.02": 0.0,
			"0.021": 0.0,
			"0.022": 0.0,
			"0.023": 0.0,
			"0.024": 0.0,
			"0.025": 0.0
		}
	}
}
