{
	 "smiles": "FC1=C(C=CC(Br)=C1)C#N", 
	 "Tm": 344.15, 
	 "num_atms": 13, 
	 "gaussian": { 
		 "optdone": 1, 
		 "sigma_profile": "yes", 
		 "theory": "DFT", 
		 "functional": "B3LYP", 
		 "basiset": "6-31G**", 
		 "properties": { 
			 "R2extent": 3154.3437, 
			 "electric_dipole_moment_norm": 3.75992281437, 
			 "electric_quadrupole_moment_norm": 17.9248766565, 
			 "total_energy": -2994.52007191, 
			 "HOMO_LUMO_gap": 0.19647, 
			 "cosmo_polarized_energy": -8.17, 
			 "cosmo_cavitation_energy": 21.82, 
			 "cosmo_dispersion_energy": -15.81, 
			 "cosmo_repulsion_energy": 1.26, 
			 "cosmo_total_nonelectrostatic_energy": 7.27, 
			 "SMD_solvation_energy": 4.52 
		},
		"coords": [
			{
				"x": -0.3863227479,
				"y": -3.6916541622,
				"z": 1.1663918393,
				"element": "F" 
			},
			{
				"x": -0.1384658452,
				"y": -2.4715846393,
				"z": 0.6755449643,
				"element": "C" 
			},
			{
				"x": 0.211287589,
				"y": -1.4418262807,
				"z": 1.5609720065,
				"element": "C" 
			},
			{
				"x": 0.468204136,
				"y": -0.1665145435,
				"z": 1.0277559914,
				"element": "C" 
			},
			{
				"x": 0.3774662172,
				"y": 0.0653510685,
				"z": -0.340277609,
				"element": "C" 
			},
			{
				"x": 0.0258925192,
				"y": -0.9883799914,
				"z": -1.1878407626,
				"element": "C" 
			},
			{
				"x": -0.1004668111,
				"y": -0.6794338913,
				"z": -3.0604271883,
				"element": "Br" 
			},
			{
				"x": -0.2356251893,
				"y": -2.2652297401,
				"z": -0.6936480971,
				"element": "C" 
			},
			{
				"x": 0.301141443,
				"y": -1.693319263,
				"z": 2.9653337407,
				"element": "C" 
			},
			{
				"x": 0.3789654029,
				"y": -1.87991623,
				"z": 4.1104357675,
				"element": "N" 
			},
			{
				"x": 0.7397882582,
				"y": 0.6395616301,
				"z": 1.700522941,
				"element": "H" 
			},
			{
				"x": 0.5763069144,
				"y": 1.0495037294,
				"z": -0.7463837654,
				"element": "H" 
			},
			{
				"x": -0.5086718863,
				"y": -3.0874576866,
				"z": -1.3429798282,
				"element": "H" 
			}
		],
		 "valence_orbital": [ 
			{
				"type": "occ",
				"energy": -0.34262,
				"method": "rhf"
			},
			{
				"type": "occ",
				"energy": -0.3245,
				"method": "rhf"
			},
			{
				"type": "occ",
				"energy": -0.31126,
				"method": "rhf"
			},
			{
				"type": "occ",
				"energy": -0.28853,
				"method": "rhf"
			},
			{
				"type": "occ",
				"energy": -0.26697,
				"method": "rhf"
			},
			{
				"type": "unocc",
				"energy": -0.0705,
				"method": "rhf"
			},
			{
				"type": "unocc",
				"energy": -0.03892,
				"method": "rhf"
			},
			{
				"type": "unocc",
				"energy": -0.01917,
				"method": "rhf"
			},
			{
				"type": "unocc",
				"energy": 0.0225,
				"method": "rhf"
			},
			{
				"type": "unocc",
				"energy": 0.05713,
				"method": "rhf"
			}
		],
		"cosmo_sigma_profile": { 
			"-0.025": 0.0,
			"-0.024": 0.0,
			"-0.023": 0.0,
			"-0.022": 0.0,
			"-0.021": 0.0,
			"-0.02": 0.0,
			"-0.019": 0.0,
			"-0.018": 0.0,
			"-0.017": 0.0,
			"-0.016": 0.0,
			"-0.015": 0.0,
			"-0.014": 0.0,
			"-0.013": 0.0,
			"-0.012": 0.0,
			"-0.011": 0.0,
			"-0.01": 0.58284820663,
			"-0.009": 4.57026532247,
			"-0.008": 5.70627123849,
			"-0.007": 6.05396689392,
			"-0.006": 5.01383327096,
			"-0.005": 6.98138823982,
			"-0.004": 8.78651750289,
			"-0.003": 12.2419433675,
			"-0.002": 17.6464867976,
			"-0.001": 18.5421003255,
			"0.0": 18.4053571946,
			"0.001": 12.2310461668,
			"0.002": 15.9112342437,
			"0.003": 18.7510325113,
			"0.004": 6.20772505839,
			"0.005": 3.50811221514,
			"0.006": 2.23389541272,
			"0.007": 3.02639380505,
			"0.008": 3.43153089361,
			"0.009": 3.05259595849,
			"0.01": 2.96530241602,
			"0.011": 2.5343453268,
			"0.012": 2.19697901448,
			"0.013": 0.463586862153,
			"0.014": 0.0,
			"0.015": 0.0,
			"0.016": 0.0,
			"0.017": 0.0,
			"0.018": 0.0,
			"0.019": 0.0,
			"0.02": 0.0,
			"0.021": 0.0,
			"0.022": 0.0,
			"0.023": 0.0,
			"0.024": 0.0,
			"0.025": 0.0
		}
	}
}
