{
	 "smiles": "COC1=CC(C=C2SC(=S)N(CNC3=CC=CC(=C3)[N+]([O-])=O)C2=O)=CC=C1O", 
	 "Tm": 487.15, 
	 "num_atms": 43, 
	 "gaussian": { 
		 "optdone": 1, 
		 "sigma_profile": "yes", 
		 "theory": "DFT", 
		 "functional": "B3LYP", 
		 "basiset": "6-31G**", 
		 "properties": { 
			 "R2extent": 18379.7494, 
			 "electric_dipole_moment_norm": 10.6445732733, 
			 "electric_quadrupole_moment_norm": 30.340106839, 
			 "total_energy": -2031.58819749, 
			 "HOMO_LUMO_gap": 0.1181, 
			 "cosmo_polarized_energy": -25.4, 
			 "cosmo_cavitation_energy": 52.05, 
			 "cosmo_dispersion_energy": -37.01, 
			 "cosmo_repulsion_energy": 2.68, 
			 "cosmo_total_nonelectrostatic_energy": 17.72, 
			 "SMD_solvation_energy": 10.27 
		},
		"coords": [
			{
				"x": 1.2223705698,
				"y": 7.1516415241,
				"z": 1.3525890365,
				"element": "C" 
			},
			{
				"x": 2.1403475364,
				"y": 6.0605133184,
				"z": 1.4891211501,
				"element": "O" 
			},
			{
				"x": 1.60952895,
				"y": 4.8663922628,
				"z": 1.8987068006,
				"element": "C" 
			},
			{
				"x": 1.6860465442,
				"y": 3.7721885965,
				"z": 1.0508027505,
				"element": "C" 
			},
			{
				"x": 1.2275727425,
				"y": 2.4853470527,
				"z": 1.425312263,
				"element": "C" 
			},
			{
				"x": 1.3857208421,
				"y": 1.4414527418,
				"z": 0.429694805,
				"element": "C" 
			},
			{
				"x": 1.0669587017,
				"y": 0.1167538857,
				"z": 0.3485846324,
				"element": "C" 
			},
			{
				"x": 1.4785698862,
				"y": -0.8004839141,
				"z": -1.1267811857,
				"element": "S" 
			},
			{
				"x": 0.7859022355,
				"y": -2.2992950883,
				"z": -0.5092063085,
				"element": "C" 
			},
			{
				"x": 0.818448887,
				"y": -3.7207961688,
				"z": -1.3464687537,
				"element": "S" 
			},
			{
				"x": 0.2530266611,
				"y": -2.0702423122,
				"z": 0.742526746,
				"element": "N" 
			},
			{
				"x": -0.3912942382,
				"y": -3.1231151948,
				"z": 1.579696651,
				"element": "C" 
			},
			{
				"x": -1.7331355095,
				"y": -2.8252966958,
				"z": 1.9727780666,
				"element": "N" 
			},
			{
				"x": -2.8432367764,
				"y": -2.9141949795,
				"z": 1.1310092855,
				"element": "C" 
			},
			{
				"x": -4.0333437242,
				"y": -2.2651730897,
				"z": 1.519718058,
				"element": "C" 
			},
			{
				"x": -5.1897324852,
				"y": -2.3621401193,
				"z": 0.7529133938,
				"element": "C" 
			},
			{
				"x": -5.2045205363,
				"y": -3.1063614243,
				"z": -0.4265580875,
				"element": "C" 
			},
			{
				"x": -4.0221368514,
				"y": -3.7396392813,
				"z": -0.7959089443,
				"element": "C" 
			},
			{
				"x": -2.8447045922,
				"y": -3.6621174736,
				"z": -0.0561748058,
				"element": "C" 
			},
			{
				"x": -4.0098468645,
				"y": -4.5374152391,
				"z": -2.0378133419,
				"element": "N" 
			},
			{
				"x": -2.9727225489,
				"y": -5.1303769266,
				"z": -2.3294178458,
				"element": "O" 
			},
			{
				"x": -5.0425624753,
				"y": -4.5641952097,
				"z": -2.7075511128,
				"element": "O" 
			},
			{
				"x": 0.3968039482,
				"y": -0.7879768806,
				"z": 1.2982393657,
				"element": "C" 
			},
			{
				"x": -0.0110093762,
				"y": -0.5477557702,
				"z": 2.4321205171,
				"element": "O" 
			},
			{
				"x": 0.6657182653,
				"y": 2.3392435877,
				"z": 2.7118621284,
				"element": "C" 
			},
			{
				"x": 0.5863060416,
				"y": 3.4298541267,
				"z": 3.5672195209,
				"element": "C" 
			},
			{
				"x": 1.0574342526,
				"y": 4.6922023594,
				"z": 3.1872921204,
				"element": "C" 
			},
			{
				"x": 1.0203849681,
				"y": 5.7713435668,
				"z": 4.0125286187,
				"element": "O" 
			},
			{
				"x": 0.42689722,
				"y": 6.9042981826,
				"z": 0.638228542,
				"element": "H" 
			},
			{
				"x": 0.7799364684,
				"y": 7.4294161561,
				"z": 2.3131960602,
				"element": "H" 
			},
			{
				"x": 1.8069059341,
				"y": 7.9876491802,
				"z": 0.9645405022,
				"element": "H" 
			},
			{
				"x": 2.1280396231,
				"y": 3.9362338346,
				"z": 0.0725449036,
				"element": "H" 
			},
			{
				"x": 1.8776660921,
				"y": 1.8169840543,
				"z": -0.4677845277,
				"element": "H" 
			},
			{
				"x": 0.2150245427,
				"y": -3.2182138911,
				"z": 2.4826175991,
				"element": "H" 
			},
			{
				"x": -0.3282907752,
				"y": -4.0470157895,
				"z": 1.0069036917,
				"element": "H" 
			},
			{
				"x": -1.777778416,
				"y": -2.0745234407,
				"z": 2.6488974418,
				"element": "H" 
			},
			{
				"x": -4.0422047105,
				"y": -1.6844814026,
				"z": 2.4387192441,
				"element": "H" 
			},
			{
				"x": -6.0903392624,
				"y": -1.8508299528,
				"z": 1.0785385154,
				"element": "H" 
			},
			{
				"x": -6.0863223166,
				"y": -3.2006925754,
				"z": -1.0455458756,
				"element": "H" 
			},
			{
				"x": -1.9651400746,
				"y": -4.1728596373,
				"z": -0.4265199002,
				"element": "H" 
			},
			{
				"x": 0.3028858544,
				"y": 1.3717287195,
				"z": 3.0293621789,
				"element": "H" 
			},
			{
				"x": 0.1606439018,
				"y": 3.3029320288,
				"z": 4.5608653381,
				"element": "H" 
			},
			{
				"x": 0.6383808649,
				"y": 5.5108172789,
				"z": 4.8615007623,
				"element": "H" 
			}
		],
		 "valence_orbital": [ 
			{
				"type": "occ",
				"energy": -0.26602,
				"method": "rhf"
			},
			{
				"type": "occ",
				"energy": -0.25313,
				"method": "rhf"
			},
			{
				"type": "occ",
				"energy": -0.2366,
				"method": "rhf"
			},
			{
				"type": "occ",
				"energy": -0.22373,
				"method": "rhf"
			},
			{
				"type": "occ",
				"energy": -0.21928,
				"method": "rhf"
			},
			{
				"type": "unocc",
				"energy": -0.10118,
				"method": "rhf"
			},
			{
				"type": "unocc",
				"energy": -0.07796,
				"method": "rhf"
			},
			{
				"type": "unocc",
				"energy": -0.04414,
				"method": "rhf"
			},
			{
				"type": "unocc",
				"energy": -0.01915,
				"method": "rhf"
			},
			{
				"type": "unocc",
				"energy": -0.01292,
				"method": "rhf"
			}
		],
		"cosmo_sigma_profile": { 
			"-0.025": 0.0,
			"-0.024": 0.0,
			"-0.023": 0.0,
			"-0.022": 0.0,
			"-0.021": 0.0,
			"-0.02": 0.0,
			"-0.019": 0.61277396689,
			"-0.018": 1.04975404315,
			"-0.017": 1.2127738886,
			"-0.016": 1.29283823738,
			"-0.015": 1.22749678836,
			"-0.014": 0.623547485652,
			"-0.013": 0.378958002109,
			"-0.012": 2.19527417669,
			"-0.011": 2.24627523423,
			"-0.01": 2.84827707479,
			"-0.009": 6.37403141882,
			"-0.008": 8.58890487639,
			"-0.007": 13.8596913626,
			"-0.006": 18.328323593,
			"-0.005": 21.7262706732,
			"-0.004": 22.7620615347,
			"-0.003": 25.8205255238,
			"-0.002": 25.6957582175,
			"-0.001": 23.5211501552,
			"0.0": 35.2683334604,
			"0.001": 33.7077013316,
			"0.002": 42.2578292928,
			"0.003": 34.2129432238,
			"0.004": 17.0702205091,
			"0.005": 15.0792088934,
			"0.006": 15.555122883,
			"0.007": 16.9466726209,
			"0.008": 14.6672491897,
			"0.009": 9.87182744689,
			"0.01": 5.5457022363,
			"0.011": 1.97737072469,
			"0.012": 0.452703146149,
			"0.013": 0.0,
			"0.014": 0.0,
			"0.015": 0.0,
			"0.016": 0.0,
			"0.017": 0.0,
			"0.018": 0.0,
			"0.019": 0.0,
			"0.02": 0.0,
			"0.021": 0.0,
			"0.022": 0.0,
			"0.023": 0.0,
			"0.024": 0.0,
			"0.025": 0.0
		}
	}
}
