{
	 "smiles": "COC(=O)C1=C(OC2=CC=C(Cl)C=C2[N+]([O-])=O)C=CS1", 
	 "Tm": 399.15, 
	 "num_atms": 28, 
	 "gaussian": { 
		 "optdone": 1, 
		 "sigma_profile": "yes", 
		 "theory": "DFT", 
		 "functional": "B3LYP", 
		 "basiset": "6-31G**", 
		 "properties": { 
			 "R2extent": 7985.806, 
			 "electric_dipole_moment_norm": 4.76298310831, 
			 "electric_quadrupole_moment_norm": 16.1638193039, 
			 "total_energy": -1751.21115888, 
			 "HOMO_LUMO_gap": 0.13828, 
			 "cosmo_polarized_energy": -16.7, 
			 "cosmo_cavitation_energy": 38.04, 
			 "cosmo_dispersion_energy": -26.71, 
			 "cosmo_repulsion_energy": 2.03, 
			 "cosmo_total_nonelectrostatic_energy": 13.36, 
			 "SMD_solvation_energy": 10.16 
		},
		"coords": [
			{
				"x": -4.7749291561,
				"y": 0.561635987,
				"z": 0.9371838736,
				"element": "C" 
			},
			{
				"x": -3.4902300295,
				"y": 0.1409139775,
				"z": 0.4515427952,
				"element": "O" 
			},
			{
				"x": -3.5066611204,
				"y": -0.9811375301,
				"z": -0.2944095814,
				"element": "C" 
			},
			{
				"x": -4.5141681141,
				"y": -1.6239051151,
				"z": -0.5333501829,
				"element": "O" 
			},
			{
				"x": -2.1779106712,
				"y": -1.3592425725,
				"z": -0.7902002306,
				"element": "C" 
			},
			{
				"x": -0.9366386878,
				"y": -0.7628078513,
				"z": -0.67604752,
				"element": "C" 
			},
			{
				"x": -0.7451519871,
				"y": 0.3594999941,
				"z": 0.0897109985,
				"element": "O" 
			},
			{
				"x": 0.3380935012,
				"y": 1.1679977066,
				"z": -0.1124494889,
				"element": "C" 
			},
			{
				"x": 1.1562293594,
				"y": 1.387633036,
				"z": 1.0013175408,
				"element": "C" 
			},
			{
				"x": 2.264186405,
				"y": 2.2244129092,
				"z": 0.9340176236,
				"element": "C" 
			},
			{
				"x": 2.5819575879,
				"y": 2.8447802848,
				"z": -0.2769816071,
				"element": "C" 
			},
			{
				"x": 3.9853801734,
				"y": 3.8858861293,
				"z": -0.3795494862,
				"element": "Cl" 
			},
			{
				"x": 1.7902520918,
				"y": 2.6476851199,
				"z": -1.4003973555,
				"element": "C" 
			},
			{
				"x": 0.6622184295,
				"y": 1.8279833866,
				"z": -1.3141718971,
				"element": "C" 
			},
			{
				"x": -0.1760206992,
				"y": 1.7447864891,
				"z": -2.5218326529,
				"element": "N" 
			},
			{
				"x": -1.3549234049,
				"y": 1.4336422267,
				"z": -2.3784406289,
				"element": "O" 
			},
			{
				"x": 0.3567742185,
				"y": 2.0228253997,
				"z": -3.5957857792,
				"element": "O" 
			},
			{
				"x": 0.1023923427,
				"y": -1.4687113796,
				"z": -1.3497025265,
				"element": "C" 
			},
			{
				"x": -0.3744776554,
				"y": -2.5889203543,
				"z": -1.9765182543,
				"element": "C" 
			},
			{
				"x": -2.068372824,
				"y": -2.8087512201,
				"z": -1.7543138122,
				"element": "S" 
			},
			{
				"x": -4.58615386,
				"y": 1.4694998795,
				"z": 1.5098324147,
				"element": "H" 
			},
			{
				"x": -5.2195387224,
				"y": -0.2089466253,
				"z": 1.5721285132,
				"element": "H" 
			},
			{
				"x": -5.4529983624,
				"y": 0.7667413186,
				"z": 0.1050695749,
				"element": "H" 
			},
			{
				"x": 0.8976182838,
				"y": 0.8782989925,
				"z": 1.9231088434,
				"element": "H" 
			},
			{
				"x": 2.8850549852,
				"y": 2.3855603983,
				"z": 1.8080714607,
				"element": "H" 
			},
			{
				"x": 2.0155520296,
				"y": 3.1235042167,
				"z": -2.3458492466,
				"element": "H" 
			},
			{
				"x": 1.1412159995,
				"y": -1.1631920687,
				"z": -1.3563000764,
				"element": "H" 
			},
			{
				"x": 0.193649887,
				"y": -3.3057727351,
				"z": -2.553483312,
				"element": "H" 
			}
		],
		 "valence_orbital": [ 
			{
				"type": "occ",
				"energy": -0.29457,
				"method": "rhf"
			},
			{
				"type": "occ",
				"energy": -0.27502,
				"method": "rhf"
			},
			{
				"type": "occ",
				"energy": -0.27278,
				"method": "rhf"
			},
			{
				"type": "occ",
				"energy": -0.25873,
				"method": "rhf"
			},
			{
				"type": "occ",
				"energy": -0.23913,
				"method": "rhf"
			},
			{
				"type": "unocc",
				"energy": -0.10085,
				"method": "rhf"
			},
			{
				"type": "unocc",
				"energy": -0.05597,
				"method": "rhf"
			},
			{
				"type": "unocc",
				"energy": -0.04003,
				"method": "rhf"
			},
			{
				"type": "unocc",
				"energy": -0.02322,
				"method": "rhf"
			},
			{
				"type": "unocc",
				"energy": 0.00598,
				"method": "rhf"
			}
		],
		"cosmo_sigma_profile": { 
			"-0.025": 0.0,
			"-0.024": 0.0,
			"-0.023": 0.0,
			"-0.022": 0.0,
			"-0.021": 0.0,
			"-0.02": 0.0,
			"-0.019": 0.0,
			"-0.018": 0.0,
			"-0.017": 0.0,
			"-0.016": 0.0,
			"-0.015": 0.0,
			"-0.014": 0.0,
			"-0.013": 0.0,
			"-0.012": 0.0,
			"-0.011": 0.0,
			"-0.01": 1.5863212171,
			"-0.009": 6.59487796039,
			"-0.008": 9.83583456221,
			"-0.007": 11.1171290063,
			"-0.006": 15.8963195083,
			"-0.005": 17.1804094315,
			"-0.004": 18.418865524,
			"-0.003": 21.6437849799,
			"-0.002": 21.9001678944,
			"-0.001": 25.4414483902,
			"0.0": 24.9747526672,
			"0.001": 23.0947714003,
			"0.002": 22.7011341622,
			"0.003": 22.0654245416,
			"0.004": 13.2902863781,
			"0.005": 7.83546877003,
			"0.006": 8.42605273776,
			"0.007": 10.816678894,
			"0.008": 8.14642668387,
			"0.009": 6.99680943506,
			"0.01": 4.57101990829,
			"0.011": 3.52366225803,
			"0.012": 4.4882627464,
			"0.013": 0.130802455872,
			"0.014": 0.0,
			"0.015": 0.0,
			"0.016": 0.0,
			"0.017": 0.0,
			"0.018": 0.0,
			"0.019": 0.0,
			"0.02": 0.0,
			"0.021": 0.0,
			"0.022": 0.0,
			"0.023": 0.0,
			"0.024": 0.0,
			"0.025": 0.0
		}
	}
}
