{
	 "smiles": "NNC(=O)C1CCCCC1", 
	 "Tm": 427.15, 
	 "num_atms": 24, 
	 "gaussian": { 
		 "optdone": 1, 
		 "sigma_profile": "yes", 
		 "theory": "DFT", 
		 "functional": "B3LYP", 
		 "basiset": "6-31G**", 
		 "properties": { 
			 "R2extent": 1702.749, 
			 "electric_dipole_moment_norm": 3.38316535954, 
			 "electric_quadrupole_moment_norm": 5.43220249254, 
			 "total_energy": -459.895758252, 
			 "HOMO_LUMO_gap": 0.2655, 
			 "cosmo_polarized_energy": -12.87, 
			 "cosmo_cavitation_energy": 24.95, 
			 "cosmo_dispersion_energy": -18.38, 
			 "cosmo_repulsion_energy": 1.52, 
			 "cosmo_total_nonelectrostatic_energy": 8.09, 
			 "SMD_solvation_energy": 4.57 
		},
		"coords": [
			{
				"x": -2.2811237445,
				"y": 1.1495954923,
				"z": -1.5799493055,
				"element": "N" 
			},
			{
				"x": -2.4722874245,
				"y": 0.5947868205,
				"z": -0.3065210109,
				"element": "N" 
			},
			{
				"x": -1.5422434516,
				"y": 0.0423370625,
				"z": 0.5438505632,
				"element": "C" 
			},
			{
				"x": -1.891040793,
				"y": -0.3553239944,
				"z": 1.6490990997,
				"element": "O" 
			},
			{
				"x": -0.0904820826,
				"y": -0.0004512471,
				"z": 0.0641279187,
				"element": "C" 
			},
			{
				"x": 0.6436562063,
				"y": -1.2369236839,
				"z": 0.6412733536,
				"element": "C" 
			},
			{
				"x": 2.1530641395,
				"y": -0.9902017307,
				"z": 0.8572196686,
				"element": "C" 
			},
			{
				"x": 2.7186954753,
				"y": -0.0341465112,
				"z": -0.2007165464,
				"element": "C" 
			},
			{
				"x": 2.0649005658,
				"y": 1.3641765545,
				"z": -0.0870356628,
				"element": "C" 
			},
			{
				"x": 0.6322828659,
				"y": 1.2998085502,
				"z": 0.4900015836,
				"element": "C" 
			},
			{
				"x": -1.5960912687,
				"y": 1.900061233,
				"z": -1.5467272373,
				"element": "H" 
			},
			{
				"x": -1.9607201579,
				"y": 0.4409117998,
				"z": -2.2347130916,
				"element": "H" 
			},
			{
				"x": -3.4126826123,
				"y": 0.6616096731,
				"z": 0.0605656503,
				"element": "H" 
			},
			{
				"x": -0.077809488,
				"y": -0.0429058493,
				"z": -1.0318015453,
				"element": "H" 
			},
			{
				"x": 0.163737647,
				"y": -1.5067300329,
				"z": 1.5859017271,
				"element": "H" 
			},
			{
				"x": 0.5002504733,
				"y": -2.0822195487,
				"z": -0.0425973017,
				"element": "H" 
			},
			{
				"x": 2.3237657166,
				"y": -0.5615290604,
				"z": 1.8532818598,
				"element": "H" 
			},
			{
				"x": 2.6894096224,
				"y": -1.9453672133,
				"z": 0.842516017,
				"element": "H" 
			},
			{
				"x": 2.5276712038,
				"y": -0.455862843,
				"z": -1.196618734,
				"element": "H" 
			},
			{
				"x": 3.8072233042,
				"y": 0.0508368872,
				"z": -0.1104109323,
				"element": "H" 
			},
			{
				"x": 2.0476452746,
				"y": 1.842712726,
				"z": -1.073866808,
				"element": "H" 
			},
			{
				"x": 2.6733824353,
				"y": 2.0114494819,
				"z": 0.5554526554,
				"element": "H" 
			},
			{
				"x": 0.0629334296,
				"y": 2.1861515418,
				"z": 0.1835436098,
				"element": "H" 
			},
			{
				"x": 0.6558626634,
				"y": 1.3233238923,
				"z": 1.5855244692,
				"element": "H" 
			}
		],
		 "valence_orbital": [ 
			{
				"type": "occ",
				"energy": -0.30412,
				"method": "rhf"
			},
			{
				"type": "occ",
				"energy": -0.30201,
				"method": "rhf"
			},
			{
				"type": "occ",
				"energy": -0.28708,
				"method": "rhf"
			},
			{
				"type": "occ",
				"energy": -0.25352,
				"method": "rhf"
			},
			{
				"type": "occ",
				"energy": -0.23976,
				"method": "rhf"
			},
			{
				"type": "unocc",
				"energy": 0.02574,
				"method": "rhf"
			},
			{
				"type": "unocc",
				"energy": 0.04995,
				"method": "rhf"
			},
			{
				"type": "unocc",
				"energy": 0.08863,
				"method": "rhf"
			},
			{
				"type": "unocc",
				"energy": 0.10351,
				"method": "rhf"
			},
			{
				"type": "unocc",
				"energy": 0.11381,
				"method": "rhf"
			}
		],
		"cosmo_sigma_profile": { 
			"-0.025": 0.0,
			"-0.024": 0.0,
			"-0.023": 0.0,
			"-0.022": 0.0,
			"-0.021": 0.0,
			"-0.02": 0.0,
			"-0.019": 0.0,
			"-0.018": 0.0,
			"-0.017": 0.0,
			"-0.016": 0.0,
			"-0.015": 0.0,
			"-0.014": 0.0,
			"-0.013": 0.738775494481,
			"-0.012": 1.47579807683,
			"-0.011": 3.28512930835,
			"-0.01": 3.91295299303,
			"-0.009": 4.15425293836,
			"-0.008": 4.54082541847,
			"-0.007": 4.607402678,
			"-0.006": 4.06808784598,
			"-0.005": 3.1277978552,
			"-0.004": 4.55377017994,
			"-0.003": 8.77711438033,
			"-0.002": 28.4472393412,
			"-0.001": 26.7797121147,
			"0.0": 26.6851025907,
			"0.001": 22.4542454065,
			"0.002": 8.27593316355,
			"0.003": 3.87434675336,
			"0.004": 2.78584460623,
			"0.005": 2.75106169092,
			"0.006": 2.10861967433,
			"0.007": 2.43934865558,
			"0.008": 1.89257287799,
			"0.009": 1.7673896573,
			"0.01": 1.99813586638,
			"0.011": 2.54449464053,
			"0.012": 2.39494273759,
			"0.013": 2.33909637033,
			"0.014": 6.81494626056,
			"0.015": 2.03434437623,
			"0.016": 0.464756074982,
			"0.017": 0.0,
			"0.018": 0.0,
			"0.019": 0.0,
			"0.02": 0.0,
			"0.021": 0.0,
			"0.022": 0.0,
			"0.023": 0.0,
			"0.024": 0.0,
			"0.025": 0.0
		}
	}
}
