{
	 "smiles": "COC(=O)C1(CCC1)S(=O)(=O)C1=CC=C(Br)C=C1", 
	 "Tm": 368.15, 
	 "num_atms": 31, 
	 "gaussian": { 
		 "optdone": 1, 
		 "sigma_profile": "yes", 
		 "theory": "DFT", 
		 "functional": "B3LYP", 
		 "basiset": "6-31G**", 
		 "properties": { 
			 "R2extent": 7651.8974, 
			 "electric_dipole_moment_norm": 4.75612413421, 
			 "electric_quadrupole_moment_norm": 12.774827656, 
			 "total_energy": -3735.50996069, 
			 "HOMO_LUMO_gap": 0.20982, 
			 "cosmo_polarized_energy": -15.75, 
			 "cosmo_cavitation_energy": 37.74, 
			 "cosmo_dispersion_energy": -26.43, 
			 "cosmo_repulsion_energy": 2.01, 
			 "cosmo_total_nonelectrostatic_energy": 13.32, 
			 "SMD_solvation_energy": 5.6 
		},
		"coords": [
			{
				"x": -1.7867756674,
				"y": 2.6743781757,
				"z": 1.0729797914,
				"element": "C" 
			},
			{
				"x": -1.3349323628,
				"y": 1.6490021047,
				"z": 0.1680635177,
				"element": "O" 
			},
			{
				"x": -0.9304956163,
				"y": 2.0850227866,
				"z": -1.0419899879,
				"element": "C" 
			},
			{
				"x": -0.9738286981,
				"y": 3.2427766013,
				"z": -1.3894096448,
				"element": "O" 
			},
			{
				"x": -0.471523095,
				"y": 0.9279473413,
				"z": -1.9211488856,
				"element": "C" 
			},
			{
				"x": -1.6254152383,
				"y": -0.0247972251,
				"z": -2.3553188512,
				"element": "C" 
			},
			{
				"x": -1.7068454964,
				"y": 0.7623342926,
				"z": -3.6906542839,
				"element": "C" 
			},
			{
				"x": -0.296457948,
				"y": 1.34533606,
				"z": -3.4071326475,
				"element": "C" 
			},
			{
				"x": 1.0443785201,
				"y": 0.1215740703,
				"z": -1.2128579957,
				"element": "S" 
			},
			{
				"x": 1.550458702,
				"y": -0.7718181974,
				"z": -2.2706873457,
				"element": "O" 
			},
			{
				"x": 1.8845680013,
				"y": 1.1898905291,
				"z": -0.6457728827,
				"element": "O" 
			},
			{
				"x": 0.5191475125,
				"y": -0.945429912,
				"z": 0.1410642549,
				"element": "C" 
			},
			{
				"x": 0.5520149113,
				"y": -0.4590166073,
				"z": 1.4490438003,
				"element": "C" 
			},
			{
				"x": 0.1942007754,
				"y": -1.2988816414,
				"z": 2.501521005,
				"element": "C" 
			},
			{
				"x": -0.1903715084,
				"y": -2.6120840523,
				"z": 2.2248648004,
				"element": "C" 
			},
			{
				"x": -0.6886973427,
				"y": -3.7591413887,
				"z": 3.664287,
				"element": "Br" 
			},
			{
				"x": -0.2054523632,
				"y": -3.1082077601,
				"z": 0.9211271984,
				"element": "C" 
			},
			{
				"x": 0.1604356464,
				"y": -2.2674784942,
				"z": -0.1295510903,
				"element": "C" 
			},
			{
				"x": -0.9915834524,
				"y": 3.4015966348,
				"z": 1.2518865772,
				"element": "H" 
			},
			{
				"x": -2.0518639126,
				"y": 2.1553237782,
				"z": 1.9935572213,
				"element": "H" 
			},
			{
				"x": -2.6551487785,
				"y": 3.1917214442,
				"z": 0.6586435496,
				"element": "H" 
			},
			{
				"x": -1.2534355006,
				"y": -1.040034265,
				"z": -2.5117796646,
				"element": "H" 
			},
			{
				"x": -2.5007590002,
				"y": -0.0569638311,
				"z": -1.7033274323,
				"element": "H" 
			},
			{
				"x": -2.480050436,
				"y": 1.5345477962,
				"z": -3.6661650607,
				"element": "H" 
			},
			{
				"x": -1.8249586096,
				"y": 0.1702199282,
				"z": -4.6009548003,
				"element": "H" 
			},
			{
				"x": -0.1389636994,
				"y": 2.4119974657,
				"z": -3.5645203708,
				"element": "H" 
			},
			{
				"x": 0.494475456,
				"y": 0.7647618644,
				"z": -3.8844191257,
				"element": "H" 
			},
			{
				"x": 0.8735999259,
				"y": 0.5585965465,
				"z": 1.6364579947,
				"element": "H" 
			},
			{
				"x": 0.2198931796,
				"y": -0.9428015415,
				"z": 3.5248694885,
				"element": "H" 
			},
			{
				"x": -0.4857691815,
				"y": -4.1377676844,
				"z": 0.7315411837,
				"element": "H" 
			},
			{
				"x": 0.1982552768,
				"y": -2.6425048191,
				"z": -1.1461173134,
				"element": "H" 
			}
		],
		 "valence_orbital": [ 
			{
				"type": "occ",
				"energy": -0.30128,
				"method": "rhf"
			},
			{
				"type": "occ",
				"energy": -0.29109,
				"method": "rhf"
			},
			{
				"type": "occ",
				"energy": -0.28373,
				"method": "rhf"
			},
			{
				"type": "occ",
				"energy": -0.27934,
				"method": "rhf"
			},
			{
				"type": "occ",
				"energy": -0.26392,
				"method": "rhf"
			},
			{
				"type": "unocc",
				"energy": -0.0541,
				"method": "rhf"
			},
			{
				"type": "unocc",
				"energy": -0.0344,
				"method": "rhf"
			},
			{
				"type": "unocc",
				"energy": -0.02043,
				"method": "rhf"
			},
			{
				"type": "unocc",
				"energy": -0.0076,
				"method": "rhf"
			},
			{
				"type": "unocc",
				"energy": 0.05624,
				"method": "rhf"
			}
		],
		"cosmo_sigma_profile": { 
			"-0.025": 0.0,
			"-0.024": 0.0,
			"-0.023": 0.0,
			"-0.022": 0.0,
			"-0.021": 0.0,
			"-0.02": 0.0,
			"-0.019": 0.0,
			"-0.018": 0.0,
			"-0.017": 0.0,
			"-0.016": 0.0,
			"-0.015": 0.0,
			"-0.014": 0.0,
			"-0.013": 0.0,
			"-0.012": 0.0,
			"-0.011": 0.0,
			"-0.01": 0.0,
			"-0.009": 0.192326662674,
			"-0.008": 5.26664393021,
			"-0.007": 10.6874078615,
			"-0.006": 14.3705058983,
			"-0.005": 19.7209308423,
			"-0.004": 28.4037622996,
			"-0.003": 27.7524217928,
			"-0.002": 27.0398902214,
			"-0.001": 25.4139012549,
			"0.0": 25.9732166204,
			"0.001": 25.5807947626,
			"0.002": 15.6723335224,
			"0.003": 12.9907038522,
			"0.004": 16.0745105566,
			"0.005": 5.18493312736,
			"0.006": 4.96036081233,
			"0.007": 4.25396852639,
			"0.008": 4.78544504293,
			"0.009": 6.16372121708,
			"0.01": 9.69990992585,
			"0.011": 10.4643910028,
			"0.012": 2.56814502831,
			"0.013": 0.0,
			"0.014": 0.0,
			"0.015": 0.0,
			"0.016": 0.0,
			"0.017": 0.0,
			"0.018": 0.0,
			"0.019": 0.0,
			"0.02": 0.0,
			"0.021": 0.0,
			"0.022": 0.0,
			"0.023": 0.0,
			"0.024": 0.0,
			"0.025": 0.0
		}
	}
}
