{
	 "smiles": "CC1=C(C=CC(F)=C1)C1=C(F)C=C(C=C1)C(O)=O", 
	 "Tm": 463.15, 
	 "num_atms": 28, 
	 "gaussian": { 
		 "optdone": 1, 
		 "sigma_profile": "yes", 
		 "theory": "DFT", 
		 "functional": "B3LYP", 
		 "basiset": "6-31G**", 
		 "properties": { 
			 "R2extent": 6084.282, 
			 "electric_dipole_moment_norm": 3.83005566148, 
			 "electric_quadrupole_moment_norm": 32.2601607459, 
			 "total_energy": -889.652961458, 
			 "HOMO_LUMO_gap": 0.17854, 
			 "cosmo_polarized_energy": -15.03, 
			 "cosmo_cavitation_energy": 33.49, 
			 "cosmo_dispersion_energy": -23.68, 
			 "cosmo_repulsion_energy": 1.77, 
			 "cosmo_total_nonelectrostatic_energy": 11.58, 
			 "SMD_solvation_energy": 7.67 
		},
		"coords": [
			{
				"x": -1.0248553456,
				"y": 1.917793094,
				"z": -1.6188577604,
				"element": "C" 
			},
			{
				"x": -2.1518756716,
				"y": 1.077361991,
				"z": -1.0665641049,
				"element": "C" 
			},
			{
				"x": -1.9228117152,
				"y": -0.1480450251,
				"z": -0.3970552611,
				"element": "C" 
			},
			{
				"x": -3.0172448278,
				"y": -0.8992909034,
				"z": 0.0600235565,
				"element": "C" 
			},
			{
				"x": -4.3289003007,
				"y": -0.4630702215,
				"z": -0.1102884207,
				"element": "C" 
			},
			{
				"x": -4.529695309,
				"y": 0.7470940842,
				"z": -0.7595863377,
				"element": "C" 
			},
			{
				"x": -5.7883822623,
				"y": 1.1956393026,
				"z": -0.9409999059,
				"element": "F" 
			},
			{
				"x": -3.4717017385,
				"y": 1.5093332527,
				"z": -1.2381436761,
				"element": "C" 
			},
			{
				"x": -0.5569952853,
				"y": -0.7046813426,
				"z": -0.1912709553,
				"element": "C" 
			},
			{
				"x": 0.4349460775,
				"y": -0.0286130827,
				"z": 0.534082064,
				"element": "C" 
			},
			{
				"x": 0.1473529612,
				"y": 1.1814083203,
				"z": 1.0595814778,
				"element": "F" 
			},
			{
				"x": 1.7003184283,
				"y": -0.5475091555,
				"z": 0.7522180601,
				"element": "C" 
			},
			{
				"x": 2.0136559494,
				"y": -1.8186181986,
				"z": 0.257781971,
				"element": "C" 
			},
			{
				"x": 1.0477556856,
				"y": -2.5263434033,
				"z": -0.470780916,
				"element": "C" 
			},
			{
				"x": -0.2123748494,
				"y": -1.9726207486,
				"z": -0.6872881282,
				"element": "C" 
			},
			{
				"x": 3.3983007342,
				"y": -2.3354874922,
				"z": 0.5159603432,
				"element": "C" 
			},
			{
				"x": 3.5800959004,
				"y": -3.6777986686,
				"z": 0.4036264993,
				"element": "O" 
			},
			{
				"x": 4.3263003308,
				"y": -1.6205529143,
				"z": 0.8111206163,
				"element": "O" 
			},
			{
				"x": -1.4010752041,
				"y": 2.6454454543,
				"z": -2.3420276772,
				"element": "H" 
			},
			{
				"x": -0.5149851313,
				"y": 2.4655643683,
				"z": -0.8205480495,
				"element": "H" 
			},
			{
				"x": -0.2713287373,
				"y": 1.3008903429,
				"z": -2.1183020118,
				"element": "H" 
			},
			{
				"x": -2.8322437455,
				"y": -1.8373970379,
				"z": 0.5748953392,
				"element": "H" 
			},
			{
				"x": -5.1759096983,
				"y": -1.0359943847,
				"z": 0.249974558,
				"element": "H" 
			},
			{
				"x": -3.6869063559,
				"y": 2.4389250341,
				"z": -1.7551312168,
				"element": "H" 
			},
			{
				"x": 2.4382552005,
				"y": 0.0163153938,
				"z": 1.3107885953,
				"element": "H" 
			},
			{
				"x": 1.2786089845,
				"y": -3.4896538079,
				"z": -0.9180962709,
				"element": "H" 
			},
			{
				"x": -0.9484391492,
				"y": -2.5166037681,
				"z": -1.2709968379,
				"element": "H" 
			},
			{
				"x": 2.7269350745,
				"y": -4.1268904833,
				"z": 0.3276844497,
				"element": "H" 
			}
		],
		 "valence_orbital": [ 
			{
				"type": "occ",
				"energy": -0.28673,
				"method": "rhf"
			},
			{
				"type": "occ",
				"energy": -0.27748,
				"method": "rhf"
			},
			{
				"type": "occ",
				"energy": -0.27118,
				"method": "rhf"
			},
			{
				"type": "occ",
				"energy": -0.26142,
				"method": "rhf"
			},
			{
				"type": "occ",
				"energy": -0.24272,
				"method": "rhf"
			},
			{
				"type": "unocc",
				"energy": -0.06418,
				"method": "rhf"
			},
			{
				"type": "unocc",
				"energy": -0.02853,
				"method": "rhf"
			},
			{
				"type": "unocc",
				"energy": -0.01553,
				"method": "rhf"
			},
			{
				"type": "unocc",
				"energy": -0.00789,
				"method": "rhf"
			},
			{
				"type": "unocc",
				"energy": 0.04496,
				"method": "rhf"
			}
		],
		"cosmo_sigma_profile": { 
			"-0.025": 0.0,
			"-0.024": 0.0,
			"-0.023": 0.0,
			"-0.022": 0.0,
			"-0.021": 0.0,
			"-0.02": 0.0,
			"-0.019": 0.278764666625,
			"-0.018": 0.90643986643,
			"-0.017": 1.03716749078,
			"-0.016": 1.08468114491,
			"-0.015": 0.837731152573,
			"-0.014": 0.837265854975,
			"-0.013": 1.38272270333,
			"-0.012": 1.25102310814,
			"-0.011": 1.02834686277,
			"-0.01": 1.31382772946,
			"-0.009": 1.14012289655,
			"-0.008": 2.47265270702,
			"-0.007": 8.09034847591,
			"-0.006": 11.0897775506,
			"-0.005": 11.8756030359,
			"-0.004": 16.2812506033,
			"-0.003": 16.2111223542,
			"-0.002": 17.2879169961,
			"-0.001": 22.3427080549,
			"0.0": 26.5378964474,
			"0.001": 25.9991088543,
			"0.002": 21.2484998011,
			"0.003": 20.7472841795,
			"0.004": 24.3611613575,
			"0.005": 6.36050221368,
			"0.006": 2.63264942127,
			"0.007": 2.56553520719,
			"0.008": 2.64635762667,
			"0.009": 3.38210684511,
			"0.01": 5.13180528503,
			"0.011": 5.30250722363,
			"0.012": 4.00064362026,
			"0.013": 1.05929287688,
			"0.014": 0.0,
			"0.015": 0.0,
			"0.016": 0.0,
			"0.017": 0.0,
			"0.018": 0.0,
			"0.019": 0.0,
			"0.02": 0.0,
			"0.021": 0.0,
			"0.022": 0.0,
			"0.023": 0.0,
			"0.024": 0.0,
			"0.025": 0.0
		}
	}
}
