{
	 "smiles": "OC(=O)C1=C(NC(=O)C2=CC=C(Cl)C=C2)C=CC=C1", 
	 "Tm": 482.15, 
	 "num_atms": 29, 
	 "gaussian": { 
		 "optdone": 1, 
		 "sigma_profile": "yes", 
		 "theory": "DFT", 
		 "functional": "B3LYP", 
		 "basiset": "6-31G**", 
		 "properties": { 
			 "R2extent": 6673.7618, 
			 "electric_dipole_moment_norm": 1.86943859487, 
			 "electric_quadrupole_moment_norm": 7.74009615057, 
			 "total_energy": -1280.16388611, 
			 "HOMO_LUMO_gap": 0.17109, 
			 "cosmo_polarized_energy": -15.09, 
			 "cosmo_cavitation_energy": 35.98, 
			 "cosmo_dispersion_energy": -25.58, 
			 "cosmo_repulsion_energy": 1.98, 
			 "cosmo_total_nonelectrostatic_energy": 12.37, 
			 "SMD_solvation_energy": 7.5 
		},
		"coords": [
			{
				"x": 3.4601513631,
				"y": 1.8622545016,
				"z": -1.268624011,
				"element": "O" 
			},
			{
				"x": 3.7407908015,
				"y": 0.530424431,
				"z": -1.1864714352,
				"element": "C" 
			},
			{
				"x": 4.8798598847,
				"y": 0.1473510402,
				"z": -1.0112834668,
				"element": "O" 
			},
			{
				"x": 2.5662055516,
				"y": -0.3658722161,
				"z": -1.3627360013,
				"element": "C" 
			},
			{
				"x": 1.2005448829,
				"y": 0.029835983,
				"z": -1.3529244375,
				"element": "C" 
			},
			{
				"x": 0.8329022577,
				"y": 1.367116584,
				"z": -1.1450137839,
				"element": "N" 
			},
			{
				"x": -0.360784188,
				"y": 1.9452281668,
				"z": -0.7273496653,
				"element": "C" 
			},
			{
				"x": -0.5979057725,
				"y": 3.1079185227,
				"z": -1.0306330699,
				"element": "O" 
			},
			{
				"x": -1.2929410604,
				"y": 1.1868596446,
				"z": 0.1691512209,
				"element": "C" 
			},
			{
				"x": -0.8477485844,
				"y": 0.289778456,
				"z": 1.1501634452,
				"element": "C" 
			},
			{
				"x": -1.7503489786,
				"y": -0.3031010961,
				"z": 2.0305068408,
				"element": "C" 
			},
			{
				"x": -3.1081143528,
				"y": -0.0015636881,
				"z": 1.9170335598,
				"element": "C" 
			},
			{
				"x": -4.2515492722,
				"y": -0.7592765019,
				"z": 3.0118921639,
				"element": "Cl" 
			},
			{
				"x": -3.5727263833,
				"y": 0.8970455561,
				"z": 0.9553470903,
				"element": "C" 
			},
			{
				"x": -2.6573290911,
				"y": 1.4984399133,
				"z": 0.0960579432,
				"element": "C" 
			},
			{
				"x": 0.2210767346,
				"y": -0.9510759797,
				"z": -1.5958552798,
				"element": "C" 
			},
			{
				"x": 0.5674224099,
				"y": -2.2828239215,
				"z": -1.7868208023,
				"element": "C" 
			},
			{
				"x": 1.9073056246,
				"y": -2.6808623319,
				"z": -1.7633522358,
				"element": "C" 
			},
			{
				"x": 2.8872720189,
				"y": -1.7207833839,
				"z": -1.5611702186,
				"element": "C" 
			},
			{
				"x": 4.308557316,
				"y": 2.3211528219,
				"z": -1.1500164542,
				"element": "H" 
			},
			{
				"x": 1.5008774339,
				"y": 2.0626111091,
				"z": -1.4558832323,
				"element": "H" 
			},
			{
				"x": 0.2084474073,
				"y": 0.0610866216,
				"z": 1.2414188264,
				"element": "H" 
			},
			{
				"x": -1.4077832851,
				"y": -0.9883298995,
				"z": 2.7976829317,
				"element": "H" 
			},
			{
				"x": -4.6303742073,
				"y": 1.126827289,
				"z": 0.8912850079,
				"element": "H" 
			},
			{
				"x": -2.9880713507,
				"y": 2.2251958652,
				"z": -0.6381933791,
				"element": "H" 
			},
			{
				"x": -0.8194051979,
				"y": -0.6557912577,
				"z": -1.6448521624,
				"element": "H" 
			},
			{
				"x": -0.2167863394,
				"y": -3.0109948282,
				"z": -1.9727670009,
				"element": "H" 
			},
			{
				"x": 2.1797362244,
				"y": -3.7198123958,
				"z": -1.9166259133,
				"element": "H" 
			},
			{
				"x": 3.9383181527,
				"y": -1.9870390056,
				"z": -1.5516664804,
				"element": "H" 
			}
		],
		 "valence_orbital": [ 
			{
				"type": "occ",
				"energy": -0.27837,
				"method": "rhf"
			},
			{
				"type": "occ",
				"energy": -0.27294,
				"method": "rhf"
			},
			{
				"type": "occ",
				"energy": -0.26807,
				"method": "rhf"
			},
			{
				"type": "occ",
				"energy": -0.25286,
				"method": "rhf"
			},
			{
				"type": "occ",
				"energy": -0.23507,
				"method": "rhf"
			},
			{
				"type": "unocc",
				"energy": -0.06398,
				"method": "rhf"
			},
			{
				"type": "unocc",
				"energy": -0.05023,
				"method": "rhf"
			},
			{
				"type": "unocc",
				"energy": -0.02405,
				"method": "rhf"
			},
			{
				"type": "unocc",
				"energy": -0.01534,
				"method": "rhf"
			},
			{
				"type": "unocc",
				"energy": 0.02233,
				"method": "rhf"
			}
		],
		"cosmo_sigma_profile": { 
			"-0.025": 0.0,
			"-0.024": 0.0,
			"-0.023": 0.0,
			"-0.022": 0.0,
			"-0.021": 0.0,
			"-0.02": 0.0,
			"-0.019": 0.173025712872,
			"-0.018": 1.33627831313,
			"-0.017": 0.371251123053,
			"-0.016": 1.15180140634,
			"-0.015": 0.76391153377,
			"-0.014": 0.439664964057,
			"-0.013": 0.38241209911,
			"-0.012": 1.08865644859,
			"-0.011": 0.890422078655,
			"-0.01": 0.565135094134,
			"-0.009": 0.632514652154,
			"-0.008": 2.84682635521,
			"-0.007": 10.4119705761,
			"-0.006": 17.9130248082,
			"-0.005": 17.9836213612,
			"-0.004": 16.9690063719,
			"-0.003": 18.5719433893,
			"-0.002": 20.0175745214,
			"-0.001": 20.7200367564,
			"0.0": 21.5890336222,
			"0.001": 26.7878626699,
			"0.002": 30.4906219209,
			"0.003": 24.3265197774,
			"0.004": 17.4978036031,
			"0.005": 5.60241071427,
			"0.006": 2.30749443976,
			"0.007": 3.24707548528,
			"0.008": 2.60596852302,
			"0.009": 2.48613457441,
			"0.01": 4.01649350079,
			"0.011": 6.77555410496,
			"0.012": 6.72969400816,
			"0.013": 3.58892263922,
			"0.014": 0.161676075037,
			"0.015": 0.0,
			"0.016": 0.0,
			"0.017": 0.0,
			"0.018": 0.0,
			"0.019": 0.0,
			"0.02": 0.0,
			"0.021": 0.0,
			"0.022": 0.0,
			"0.023": 0.0,
			"0.024": 0.0,
			"0.025": 0.0
		}
	}
}
