{
	 "smiles": "COC1=C(OC)C=C2CN3[C@@H](CC2=C1)C(=O)N[C@@H](C)C3=O", 
	 "Tm": 507.15, 
	 "num_atms": 39, 
	 "gaussian": { 
		 "optdone": 1, 
		 "sigma_profile": "yes", 
		 "theory": "DFT", 
		 "functional": "B3LYP", 
		 "basiset": "6-31G**", 
		 "properties": { 
			 "R2extent": 7072.9578, 
			 "electric_dipole_moment_norm": 2.82809276015, 
			 "electric_quadrupole_moment_norm": 19.4725000419, 
			 "total_energy": -992.847284828, 
			 "HOMO_LUMO_gap": 0.20935, 
			 "cosmo_polarized_energy": -20.58, 
			 "cosmo_cavitation_energy": 40.7, 
			 "cosmo_dispersion_energy": -28.89, 
			 "cosmo_repulsion_energy": 2.21, 
			 "cosmo_total_nonelectrostatic_energy": 14.02, 
			 "SMD_solvation_energy": 8.02 
		},
		"coords": [
			{
				"x": -3.5904089597,
				"y": -1.8615018771,
				"z": 2.1478620758,
				"element": "C" 
			},
			{
				"x": -3.6985339144,
				"y": -0.8945905916,
				"z": 1.114480869,
				"element": "O" 
			},
			{
				"x": -2.5813762591,
				"y": -0.1850014793,
				"z": 0.7760193662,
				"element": "C" 
			},
			{
				"x": -2.7205172269,
				"y": 0.7133326097,
				"z": -0.3073091093,
				"element": "C" 
			},
			{
				"x": -3.8989541088,
				"y": 0.8251494957,
				"z": -1.00380518,
				"element": "O" 
			},
			{
				"x": -4.9927117822,
				"y": 1.4101062843,
				"z": -0.2939567476,
				"element": "C" 
			},
			{
				"x": -1.616445195,
				"y": 1.4425147799,
				"z": -0.7412324412,
				"element": "C" 
			},
			{
				"x": -0.3786827975,
				"y": 1.3136961801,
				"z": -0.1071689512,
				"element": "C" 
			},
			{
				"x": 0.8632900166,
				"y": 2.0479249212,
				"z": -0.5481416273,
				"element": "C" 
			},
			{
				"x": 2.0037899615,
				"y": 1.1169754117,
				"z": -0.5603969725,
				"element": "N" 
			},
			{
				"x": 2.2686142709,
				"y": 0.3084886425,
				"z": 0.6414688937,
				"element": "C" 
			},
			{
				"x": 1.1044437659,
				"y": 0.3852842966,
				"z": 1.6507962658,
				"element": "C" 
			},
			{
				"x": -0.2455665713,
				"y": 0.4440395121,
				"z": 0.9792876676,
				"element": "C" 
			},
			{
				"x": -1.34219356,
				"y": -0.3083296384,
				"z": 1.4119444548,
				"element": "C" 
			},
			{
				"x": 2.5864073185,
				"y": -1.152752781,
				"z": 0.2680774183,
				"element": "C" 
			},
			{
				"x": 2.2628570428,
				"y": -2.1051952122,
				"z": 0.9648456398,
				"element": "O" 
			},
			{
				"x": 3.2990213937,
				"y": -1.2658245776,
				"z": -0.8832227468,
				"element": "N" 
			},
			{
				"x": 3.8121713043,
				"y": -0.1254488826,
				"z": -1.6419233806,
				"element": "C" 
			},
			{
				"x": 4.2215904736,
				"y": -0.5576511798,
				"z": -3.0465278559,
				"element": "C" 
			},
			{
				"x": 2.7497820816,
				"y": 0.9883961423,
				"z": -1.6955479726,
				"element": "C" 
			},
			{
				"x": 2.6126650747,
				"y": 1.6935632588,
				"z": -2.6897061541,
				"element": "O" 
			},
			{
				"x": -4.5746147383,
				"y": -2.3253723632,
				"z": 2.2289309489,
				"element": "H" 
			},
			{
				"x": -3.3281417935,
				"y": -1.4014366284,
				"z": 3.1094853314,
				"element": "H" 
			},
			{
				"x": -2.8466817846,
				"y": -2.6301961354,
				"z": 1.9036993454,
				"element": "H" 
			},
			{
				"x": -4.74205612,
				"y": 2.4237810949,
				"z": 0.0459352008,
				"element": "H" 
			},
			{
				"x": -5.2885254487,
				"y": 0.8000249393,
				"z": 0.5644038572,
				"element": "H" 
			},
			{
				"x": -5.8202059714,
				"y": 1.4655223787,
				"z": -1.0044774911,
				"element": "H" 
			},
			{
				"x": -1.7463369888,
				"y": 2.0994571082,
				"z": -1.5963194627,
				"element": "H" 
			},
			{
				"x": 1.0908652329,
				"y": 2.889711753,
				"z": 0.1238199491,
				"element": "H" 
			},
			{
				"x": 0.775656527,
				"y": 2.4479934585,
				"z": -1.5585468883,
				"element": "H" 
			},
			{
				"x": 3.1752889777,
				"y": 0.6896823888,
				"z": 1.1416985751,
				"element": "H" 
			},
			{
				"x": 1.1902425437,
				"y": -0.4842860231,
				"z": 2.3055628884,
				"element": "H" 
			},
			{
				"x": 1.2431222039,
				"y": 1.2826368984,
				"z": 2.2683403475,
				"element": "H" 
			},
			{
				"x": -1.2146727739,
				"y": -0.9988955322,
				"z": 2.2376362679,
				"element": "H" 
			},
			{
				"x": 3.5984880791,
				"y": -2.199313708,
				"z": -1.1332774086,
				"element": "H" 
			},
			{
				"x": 4.6949826578,
				"y": 0.2984252654,
				"z": -1.1319653228,
				"element": "H" 
			},
			{
				"x": 5.033271864,
				"y": -1.2911430559,
				"z": -3.0016104467,
				"element": "H" 
			},
			{
				"x": 3.3715532417,
				"y": -0.9971633397,
				"z": -3.5754354456,
				"element": "H" 
			},
			{
				"x": 4.557621962,
				"y": 0.3112961854,
				"z": -3.6126237576,
				"element": "H" 
			}
		],
		 "valence_orbital": [ 
			{
				"type": "occ",
				"energy": -0.26768,
				"method": "rhf"
			},
			{
				"type": "occ",
				"energy": -0.24512,
				"method": "rhf"
			},
			{
				"type": "occ",
				"energy": -0.23909,
				"method": "rhf"
			},
			{
				"type": "occ",
				"energy": -0.23406,
				"method": "rhf"
			},
			{
				"type": "occ",
				"energy": -0.20976,
				"method": "rhf"
			},
			{
				"type": "unocc",
				"energy": -0.00041,
				"method": "rhf"
			},
			{
				"type": "unocc",
				"energy": 0.00675,
				"method": "rhf"
			},
			{
				"type": "unocc",
				"energy": 0.01838,
				"method": "rhf"
			},
			{
				"type": "unocc",
				"energy": 0.02386,
				"method": "rhf"
			},
			{
				"type": "unocc",
				"energy": 0.08258,
				"method": "rhf"
			}
		],
		"cosmo_sigma_profile": { 
			"-0.025": 0.0,
			"-0.024": 0.0,
			"-0.023": 0.0,
			"-0.022": 0.0,
			"-0.021": 0.0,
			"-0.02": 0.0,
			"-0.019": 0.0,
			"-0.018": 0.0,
			"-0.017": 0.0,
			"-0.016": 0.0,
			"-0.015": 0.0509894753468,
			"-0.014": 0.873309653219,
			"-0.013": 0.915299143416,
			"-0.012": 0.867982787145,
			"-0.011": 0.919879099767,
			"-0.01": 1.25567546765,
			"-0.009": 1.30643809477,
			"-0.008": 3.62487611801,
			"-0.007": 7.93036704694,
			"-0.006": 20.2605176988,
			"-0.005": 28.9605230005,
			"-0.004": 31.2710800933,
			"-0.003": 33.5816468013,
			"-0.002": 27.8112057497,
			"-0.001": 22.3788235906,
			"0.0": 18.9051281093,
			"0.001": 15.7019117669,
			"0.002": 12.8537767374,
			"0.003": 13.2385863673,
			"0.004": 16.504664765,
			"0.005": 10.2631236106,
			"0.006": 4.73586240961,
			"0.007": 5.5521339408,
			"0.008": 4.7271199491,
			"0.009": 4.55228262752,
			"0.01": 5.57630719031,
			"0.011": 6.19087039036,
			"0.012": 5.1810839499,
			"0.013": 9.74525863614,
			"0.014": 4.64370101574,
			"0.015": 0.0930624146175,
			"0.016": 0.0,
			"0.017": 0.0,
			"0.018": 0.0,
			"0.019": 0.0,
			"0.02": 0.0,
			"0.021": 0.0,
			"0.022": 0.0,
			"0.023": 0.0,
			"0.024": 0.0,
			"0.025": 0.0
		}
	}
}
