{
	 "smiles": "CC1=CC=CC=C1OC1=CC=CN=N1", 
	 "Tm": 351.15, 
	 "num_atms": 24, 
	 "gaussian": { 
		 "optdone": 1, 
		 "sigma_profile": "yes", 
		 "theory": "DFT", 
		 "functional": "B3LYP", 
		 "basiset": "6-31G**", 
		 "properties": { 
			 "R2extent": 3160.9726, 
			 "electric_dipole_moment_norm": 5.16786763279, 
			 "electric_quadrupole_moment_norm": 8.45615566791, 
			 "total_energy": -609.875843902, 
			 "HOMO_LUMO_gap": 0.18015, 
			 "cosmo_polarized_energy": -13.85, 
			 "cosmo_cavitation_energy": 28.51, 
			 "cosmo_dispersion_energy": -20.3, 
			 "cosmo_repulsion_energy": 1.59, 
			 "cosmo_total_nonelectrostatic_energy": 9.8, 
			 "SMD_solvation_energy": 3.43 
		},
		"coords": [
			{
				"x": 1.3861296956,
				"y": 2.352051987,
				"z": 0.6275694441,
				"element": "C" 
			},
			{
				"x": 0.6500218169,
				"y": 2.4148724831,
				"z": -0.6871995666,
				"element": "C" 
			},
			{
				"x": 0.1894229009,
				"y": 3.6233512036,
				"z": -1.2255157672,
				"element": "C" 
			},
			{
				"x": -0.4817252587,
				"y": 3.6698540196,
				"z": -2.4487730911,
				"element": "C" 
			},
			{
				"x": -0.7009177031,
				"y": 2.495597222,
				"z": -3.1700112838,
				"element": "C" 
			},
			{
				"x": -0.2493294327,
				"y": 1.2777425995,
				"z": -2.6601178063,
				"element": "C" 
			},
			{
				"x": 0.4088476078,
				"y": 1.2512148073,
				"z": -1.4321150424,
				"element": "C" 
			},
			{
				"x": 0.924311493,
				"y": 0.0422049855,
				"z": -0.96620082,
				"element": "O" 
			},
			{
				"x": 0.1236154396,
				"y": -0.8111760528,
				"z": -0.2662534615,
				"element": "C" 
			},
			{
				"x": -1.2106808941,
				"y": -0.5273239762,
				"z": 0.0707463331,
				"element": "C" 
			},
			{
				"x": -1.8759704691,
				"y": -1.5009688125,
				"z": 0.791550447,
				"element": "C" 
			},
			{
				"x": -1.1734624486,
				"y": -2.666911666,
				"z": 1.1158677826,
				"element": "C" 
			},
			{
				"x": 0.0969216706,
				"y": -2.871413872,
				"z": 0.7627849725,
				"element": "N" 
			},
			{
				"x": 0.7488752594,
				"y": -1.9400345349,
				"z": 0.069408999,
				"element": "N" 
			},
			{
				"x": 1.577488884,
				"y": 3.356271782,
				"z": 1.0137341203,
				"element": "H" 
			},
			{
				"x": 2.3427316098,
				"y": 1.8316767195,
				"z": 0.5199559181,
				"element": "H" 
			},
			{
				"x": 0.8131520903,
				"y": 1.804415008,
				"z": 1.3848913231,
				"element": "H" 
			},
			{
				"x": 0.3664499715,
				"y": 4.542344254,
				"z": -0.6727930491,
				"element": "H" 
			},
			{
				"x": -0.8249644448,
				"y": 4.622761861,
				"z": -2.8403411792,
				"element": "H" 
			},
			{
				"x": -1.2129889095,
				"y": 2.5243673305,
				"z": -4.1269937013,
				"element": "H" 
			},
			{
				"x": -0.3888193707,
				"y": 0.349152499,
				"z": -3.2045729252,
				"element": "H" 
			},
			{
				"x": -1.6823424516,
				"y": 0.4025535399,
				"z": -0.2236665306,
				"element": "H" 
			},
			{
				"x": -2.9092686346,
				"y": -1.3684759484,
				"z": 1.0974563125,
				"element": "H" 
			},
			{
				"x": -1.6352984221,
				"y": -3.4731274389,
				"z": 1.678688572,
				"element": "H" 
			}
		],
		 "valence_orbital": [ 
			{
				"type": "occ",
				"energy": -0.30721,
				"method": "rhf"
			},
			{
				"type": "occ",
				"energy": -0.26155,
				"method": "rhf"
			},
			{
				"type": "occ",
				"energy": -0.25514,
				"method": "rhf"
			},
			{
				"type": "occ",
				"energy": -0.24892,
				"method": "rhf"
			},
			{
				"type": "occ",
				"energy": -0.23056,
				"method": "rhf"
			},
			{
				"type": "unocc",
				"energy": -0.05041,
				"method": "rhf"
			},
			{
				"type": "unocc",
				"energy": -0.0151,
				"method": "rhf"
			},
			{
				"type": "unocc",
				"energy": -0.01153,
				"method": "rhf"
			},
			{
				"type": "unocc",
				"energy": -0.00963,
				"method": "rhf"
			},
			{
				"type": "unocc",
				"energy": 0.08567,
				"method": "rhf"
			}
		],
		"cosmo_sigma_profile": { 
			"-0.025": 0.0,
			"-0.024": 0.0,
			"-0.023": 0.0,
			"-0.022": 0.0,
			"-0.021": 0.0,
			"-0.02": 0.0,
			"-0.019": 0.0,
			"-0.018": 0.0,
			"-0.017": 0.0,
			"-0.016": 0.0,
			"-0.015": 0.0,
			"-0.014": 0.0,
			"-0.013": 0.0,
			"-0.012": 0.0,
			"-0.011": 0.0,
			"-0.01": 0.0,
			"-0.009": 1.01634406114,
			"-0.008": 5.000322425,
			"-0.007": 8.63157702543,
			"-0.006": 13.0445943288,
			"-0.005": 15.790440751,
			"-0.004": 20.7888103434,
			"-0.003": 18.8300585044,
			"-0.002": 19.9630259945,
			"-0.001": 19.3869665921,
			"0.0": 22.8883106623,
			"0.001": 12.6286378996,
			"0.002": 11.8978639269,
			"0.003": 10.765308644,
			"0.004": 11.0324687443,
			"0.005": 8.45196167774,
			"0.006": 2.69910694677,
			"0.007": 2.34492577917,
			"0.008": 2.5210255458,
			"0.009": 2.76675248598,
			"0.01": 3.09594500096,
			"0.011": 2.12679533049,
			"0.012": 3.296762399,
			"0.013": 3.21575485841,
			"0.014": 2.70159063362,
			"0.015": 2.63379856688,
			"0.016": 1.08315370888,
			"0.017": 0.0334976003997,
			"0.018": 0.0,
			"0.019": 0.0,
			"0.02": 0.0,
			"0.021": 0.0,
			"0.022": 0.0,
			"0.023": 0.0,
			"0.024": 0.0,
			"0.025": 0.0
		}
	}
}
