{
	 "smiles": "OC(=O)CCN1C=CC=N1", 
	 "Tm": 350.15, 
	 "num_atms": 18, 
	 "gaussian": { 
		 "optdone": 1, 
		 "sigma_profile": "yes", 
		 "theory": "DFT", 
		 "functional": "B3LYP", 
		 "basiset": "6-31G**", 
		 "properties": { 
			 "R2extent": 1702.6717, 
			 "electric_dipole_moment_norm": 2.92492270496, 
			 "electric_quadrupole_moment_norm": 8.20013321477, 
			 "total_energy": -493.398751374, 
			 "HOMO_LUMO_gap": 0.24867, 
			 "cosmo_polarized_energy": -15.02, 
			 "cosmo_cavitation_energy": 22.51, 
			 "cosmo_dispersion_energy": -16.11, 
			 "cosmo_repulsion_energy": 1.33, 
			 "cosmo_total_nonelectrostatic_energy": 7.72, 
			 "SMD_solvation_energy": 4.79 
		},
		"coords": [
			{
				"x": 1.2534025477,
				"y": -1.6085987209,
				"z": -0.5800395186,
				"element": "O" 
			},
			{
				"x": 1.2574107408,
				"y": -0.2742413123,
				"z": -0.3460937972,
				"element": "C" 
			},
			{
				"x": 2.1647327694,
				"y": 0.2948008075,
				"z": 0.2144353697,
				"element": "O" 
			},
			{
				"x": 0.0271310702,
				"y": 0.3951057887,
				"z": -0.9296225407,
				"element": "C" 
			},
			{
				"x": -1.3056742186,
				"y": -0.2268199215,
				"z": -0.4805493293,
				"element": "C" 
			},
			{
				"x": -1.5914620865,
				"y": -0.0039712209,
				"z": 0.9273462435,
				"element": "N" 
			},
			{
				"x": -2.4825096331,
				"y": 0.8672315092,
				"z": 1.4760301307,
				"element": "C" 
			},
			{
				"x": -2.3454769604,
				"y": 0.767856349,
				"z": 2.8473259261,
				"element": "C" 
			},
			{
				"x": -1.3292608725,
				"y": -0.1955029358,
				"z": 3.0280023687,
				"element": "C" 
			},
			{
				"x": -0.8727995206,
				"y": -0.6609604264,
				"z": 1.8651589974,
				"element": "N" 
			},
			{
				"x": 2.0477698418,
				"y": -1.9617728776,
				"z": -0.1464636317,
				"element": "H" 
			},
			{
				"x": 0.0915239506,
				"y": 0.3055256289,
				"z": -2.0213444913,
				"element": "H" 
			},
			{
				"x": 0.0713845549,
				"y": 1.4544667113,
				"z": -0.669433912,
				"element": "H" 
			},
			{
				"x": -2.1272203546,
				"y": 0.2122896335,
				"z": -1.0525298586,
				"element": "H" 
			},
			{
				"x": -1.2955099976,
				"y": -1.3039041614,
				"z": -0.6629776815,
				"element": "H" 
			},
			{
				"x": -3.134126131,
				"y": 1.4708786623,
				"z": 0.8606893769,
				"element": "H" 
			},
			{
				"x": -2.9003475723,
				"y": 1.3056660776,
				"z": 3.6012322531,
				"element": "H" 
			},
			{
				"x": -0.9149681282,
				"y": -0.5726495913,
				"z": 3.9535340949,
				"element": "H" 
			}
		],
		 "valence_orbital": [ 
			{
				"type": "occ",
				"energy": -0.31409,
				"method": "rhf"
			},
			{
				"type": "occ",
				"energy": -0.28508,
				"method": "rhf"
			},
			{
				"type": "occ",
				"energy": -0.27034,
				"method": "rhf"
			},
			{
				"type": "occ",
				"energy": -0.24824,
				"method": "rhf"
			},
			{
				"type": "occ",
				"energy": -0.24258,
				"method": "rhf"
			},
			{
				"type": "unocc",
				"energy": 0.00609,
				"method": "rhf"
			},
			{
				"type": "unocc",
				"energy": 0.0241,
				"method": "rhf"
			},
			{
				"type": "unocc",
				"energy": 0.07371,
				"method": "rhf"
			},
			{
				"type": "unocc",
				"energy": 0.07842,
				"method": "rhf"
			},
			{
				"type": "unocc",
				"energy": 0.09761,
				"method": "rhf"
			}
		],
		"cosmo_sigma_profile": { 
			"-0.025": 0.0,
			"-0.024": 0.0,
			"-0.023": 0.0,
			"-0.022": 0.0,
			"-0.021": 0.0,
			"-0.02": 0.0,
			"-0.019": 0.0,
			"-0.018": 0.668409068564,
			"-0.017": 0.91785317486,
			"-0.016": 1.1160931714,
			"-0.015": 0.294395262058,
			"-0.014": 0.539371773344,
			"-0.013": 0.975335741859,
			"-0.012": 0.685117919898,
			"-0.011": 1.00246071538,
			"-0.01": 0.788628024621,
			"-0.009": 2.82534319849,
			"-0.008": 5.1845692163,
			"-0.007": 10.8012520725,
			"-0.006": 12.5773336755,
			"-0.005": 14.0791256162,
			"-0.004": 11.7813365113,
			"-0.003": 12.4827268658,
			"-0.002": 8.5639399433,
			"-0.001": 7.28390736022,
			"0.0": 6.91838417912,
			"0.001": 7.42958724329,
			"0.002": 6.55273938758,
			"0.003": 7.1558870657,
			"0.004": 7.16256907495,
			"0.005": 9.94161085839,
			"0.006": 6.93991278134,
			"0.007": 5.6799038678,
			"0.008": 4.56491061362,
			"0.009": 5.59918933038,
			"0.01": 4.14929182226,
			"0.011": 5.03433153224,
			"0.012": 5.97901615714,
			"0.013": 2.04925893202,
			"0.014": 0.702970660848,
			"0.015": 0.0752966637859,
			"0.016": 0.0,
			"0.017": 0.0,
			"0.018": 0.0,
			"0.019": 0.0,
			"0.02": 0.0,
			"0.021": 0.0,
			"0.022": 0.0,
			"0.023": 0.0,
			"0.024": 0.0,
			"0.025": 0.0
		}
	}
}
