{
	 "smiles": "CN(CC(O)=O)CC(O)=O", 
	 "Tm": 493.15, 
	 "num_atms": 19, 
	 "gaussian": { 
		 "optdone": 1, 
		 "sigma_profile": "yes", 
		 "theory": "DFT", 
		 "functional": "B3LYP", 
		 "basiset": "6-31G**", 
		 "properties": { 
			 "R2extent": 2884.0949, 
			 "electric_dipole_moment_norm": 5.33390152328, 
			 "electric_quadrupole_moment_norm": 18.3566969567, 
			 "total_energy": -551.597074837, 
			 "HOMO_LUMO_gap": 0.23204, 
			 "cosmo_polarized_energy": -22.45, 
			 "cosmo_cavitation_energy": 23.24, 
			 "cosmo_dispersion_energy": -16.74, 
			 "cosmo_repulsion_energy": 1.39, 
			 "cosmo_total_nonelectrostatic_energy": 7.88, 
			 "SMD_solvation_energy": 4.45 
		},
		"coords": [
			{
				"x": 0.7150309833,
				"y": 1.0465981639,
				"z": -0.9412156028,
				"element": "C" 
			},
			{
				"x": 1.5735413142,
				"y": 0.592659579,
				"z": 0.1513408288,
				"element": "N" 
			},
			{
				"x": 1.053992813,
				"y": 0.9673373174,
				"z": 1.4627226637,
				"element": "C" 
			},
			{
				"x": 1.1358133261,
				"y": 2.4854880733,
				"z": 1.688494804,
				"element": "C" 
			},
			{
				"x": 0.005739029,
				"y": 3.1935162909,
				"z": 1.4110389362,
				"element": "O" 
			},
			{
				"x": 2.1232034473,
				"y": 3.0455118482,
				"z": 2.0844718203,
				"element": "O" 
			},
			{
				"x": 1.8649709923,
				"y": -0.8279120273,
				"z": 0.0878886808,
				"element": "C" 
			},
			{
				"x": 2.7758886972,
				"y": -1.2126474595,
				"z": -1.0693610285,
				"element": "C" 
			},
			{
				"x": 3.1147560288,
				"y": -2.5205346007,
				"z": -0.9660025993,
				"element": "O" 
			},
			{
				"x": 3.1556549269,
				"y": -0.5043165707,
				"z": -1.9717809786,
				"element": "O" 
			},
			{
				"x": 1.1705989435,
				"y": 0.7781495104,
				"z": -1.8936437519,
				"element": "H" 
			},
			{
				"x": 0.6232915084,
				"y": 2.1351569113,
				"z": -0.9136994181,
				"element": "H" 
			},
			{
				"x": -0.3018910794,
				"y": 0.6063738852,
				"z": -0.8912976445,
				"element": "H" 
			},
			{
				"x": 0.0142985161,
				"y": 0.6098233576,
				"z": 1.6262369067,
				"element": "H" 
			},
			{
				"x": 1.6824883029,
				"y": 0.5169776479,
				"z": 2.2344003174,
				"element": "H" 
			},
			{
				"x": -0.6995602953,
				"y": 2.5969913158,
				"z": 1.1235516014,
				"element": "H" 
			},
			{
				"x": 2.3780520768,
				"y": -1.1362492307,
				"z": 1.0047103589,
				"element": "H" 
			},
			{
				"x": 0.9609690353,
				"y": -1.4663855062,
				"z": 0.0162833093,
				"element": "H" 
			},
			{
				"x": 3.6843614339,
				"y": -2.7155385055,
				"z": -1.7290392038,
				"element": "H" 
			}
		],
		 "valence_orbital": [ 
			{
				"type": "occ",
				"energy": -0.33061,
				"method": "rhf"
			},
			{
				"type": "occ",
				"energy": -0.31866,
				"method": "rhf"
			},
			{
				"type": "occ",
				"energy": -0.29009,
				"method": "rhf"
			},
			{
				"type": "occ",
				"energy": -0.27562,
				"method": "rhf"
			},
			{
				"type": "occ",
				"energy": -0.23702,
				"method": "rhf"
			},
			{
				"type": "unocc",
				"energy": -0.00498,
				"method": "rhf"
			},
			{
				"type": "unocc",
				"energy": -0.00093,
				"method": "rhf"
			},
			{
				"type": "unocc",
				"energy": 0.0468,
				"method": "rhf"
			},
			{
				"type": "unocc",
				"energy": 0.06955,
				"method": "rhf"
			},
			{
				"type": "unocc",
				"energy": 0.09223,
				"method": "rhf"
			}
		],
		"cosmo_sigma_profile": { 
			"-0.025": 0.0,
			"-0.024": 0.0,
			"-0.023": 0.0,
			"-0.022": 0.0,
			"-0.021": 0.0,
			"-0.02": 0.0,
			"-0.019": 0.247614464905,
			"-0.018": 1.55573990779,
			"-0.017": 2.07515514446,
			"-0.016": 1.9498316794,
			"-0.015": 1.23021037551,
			"-0.014": 2.28015015304,
			"-0.013": 1.8458194352,
			"-0.012": 1.48840132018,
			"-0.011": 2.33939505337,
			"-0.01": 1.87170543427,
			"-0.009": 1.8028285196,
			"-0.008": 5.04989233668,
			"-0.007": 7.12385974844,
			"-0.006": 9.04003492403,
			"-0.005": 14.6339238209,
			"-0.004": 14.0343930572,
			"-0.003": 12.2251081738,
			"-0.002": 9.94953437198,
			"-0.001": 9.87879607285,
			"0.0": 5.30730138443,
			"0.001": 5.08340646223,
			"0.002": 3.79932490855,
			"0.003": 4.08855183145,
			"0.004": 4.28445729678,
			"0.005": 4.02360976232,
			"0.006": 5.79163190003,
			"0.007": 4.73430043952,
			"0.008": 6.48604464299,
			"0.009": 6.89651544204,
			"0.01": 9.58814758834,
			"0.011": 10.8249231922,
			"0.012": 8.12297460583,
			"0.013": 1.94554080761,
			"0.014": 0.512120934085,
			"0.015": 0.0,
			"0.016": 0.0,
			"0.017": 0.0,
			"0.018": 0.0,
			"0.019": 0.0,
			"0.02": 0.0,
			"0.021": 0.0,
			"0.022": 0.0,
			"0.023": 0.0,
			"0.024": 0.0,
			"0.025": 0.0
		}
	}
}
