{
	 "smiles": "ClC(Cl)(Br)C(Cl)(Cl)Br", 
	 "Tm": 494.15, 
	 "num_atms": 8, 
	 "gaussian": { 
		 "optdone": 1, 
		 "sigma_profile": "yes", 
		 "theory": "DFT", 
		 "functional": "B3LYP", 
		 "basiset": "6-31G**", 
		 "properties": { 
			 "R2extent": 4827.1928, 
			 "electric_dipole_moment_norm": 0.369598078999, 
			 "electric_quadrupole_moment_norm": 2.42901589126, 
			 "total_energy": -7059.73428562, 
			 "HOMO_LUMO_gap": 0.21737, 
			 "cosmo_polarized_energy": -2.08, 
			 "cosmo_cavitation_energy": 22.77, 
			 "cosmo_dispersion_energy": -17.79, 
			 "cosmo_repulsion_energy": 1.43, 
			 "cosmo_total_nonelectrostatic_energy": 6.42, 
			 "SMD_solvation_energy": 0.64 
		},
		"coords": [
			{
				"x": -1.2608923237,
				"y": 0.5808165326,
				"z": -1.6360815773,
				"element": "Cl" 
			},
			{
				"x": -0.9040885788,
				"y": 0.7703569404,
				"z": 0.1056385765,
				"element": "C" 
			},
			{
				"x": 0.4411990701,
				"y": -0.3261456958,
				"z": 0.5518961586,
				"element": "Cl" 
			},
			{
				"x": -2.5025232934,
				"y": 0.2551280959,
				"z": 1.1409850886,
				"element": "Br" 
			},
			{
				"x": -0.505364973,
				"y": 2.2745056468,
				"z": 0.4257988208,
				"element": "C" 
			},
			{
				"x": -0.1553041487,
				"y": 2.4655958952,
				"z": 2.1687184906,
				"element": "Cl" 
			},
			{
				"x": 0.9462111196,
				"y": 2.7356319035,
				"z": -0.5184148451,
				"element": "Cl" 
			},
			{
				"x": -1.9822368721,
				"y": 3.4883106814,
				"z": -0.0620407126,
				"element": "Br" 
			}
		],
		 "valence_orbital": [ 
			{
				"type": "occ",
				"energy": -0.33502,
				"method": "rhf"
			},
			{
				"type": "occ",
				"energy": -0.31809,
				"method": "rhf"
			},
			{
				"type": "occ",
				"energy": -0.3018,
				"method": "rhf"
			},
			{
				"type": "occ",
				"energy": -0.30149,
				"method": "rhf"
			},
			{
				"type": "occ",
				"energy": -0.29291,
				"method": "rhf"
			},
			{
				"type": "unocc",
				"energy": -0.07554,
				"method": "rhf"
			},
			{
				"type": "unocc",
				"energy": -0.07022,
				"method": "rhf"
			},
			{
				"type": "unocc",
				"energy": -0.04934,
				"method": "rhf"
			},
			{
				"type": "unocc",
				"energy": -0.04448,
				"method": "rhf"
			},
			{
				"type": "unocc",
				"energy": 0.01296,
				"method": "rhf"
			}
		],
		"cosmo_sigma_profile": { 
			"-0.025": 0.0,
			"-0.024": 0.0,
			"-0.023": 0.0,
			"-0.022": 0.0,
			"-0.021": 0.0,
			"-0.02": 0.0,
			"-0.019": 0.0,
			"-0.018": 0.0,
			"-0.017": 0.0,
			"-0.016": 0.0,
			"-0.015": 0.0,
			"-0.014": 0.0,
			"-0.013": 0.0,
			"-0.012": 0.0,
			"-0.011": 0.0,
			"-0.01": 0.0,
			"-0.009": 0.0,
			"-0.008": 0.923254035006,
			"-0.007": 2.36357172936,
			"-0.006": 3.55374918845,
			"-0.005": 8.27767852741,
			"-0.004": 8.46672263161,
			"-0.003": 10.3883033793,
			"-0.002": 13.9220760843,
			"-0.001": 13.1510366458,
			"0.0": 22.2192319536,
			"0.001": 40.6608102526,
			"0.002": 62.1032354035,
			"0.003": 10.706599805,
			"0.004": 0.0546149702329,
			"0.005": 0.0,
			"0.006": 0.0,
			"0.007": 0.0,
			"0.008": 0.0,
			"0.009": 0.0,
			"0.01": 0.0,
			"0.011": 0.0,
			"0.012": 0.0,
			"0.013": 0.0,
			"0.014": 0.0,
			"0.015": 0.0,
			"0.016": 0.0,
			"0.017": 0.0,
			"0.018": 0.0,
			"0.019": 0.0,
			"0.02": 0.0,
			"0.021": 0.0,
			"0.022": 0.0,
			"0.023": 0.0,
			"0.024": 0.0,
			"0.025": 0.0
		}
	}
}
