{
	 "smiles": "BrC1=C2C=CC(C=O)=CC2=CC=C1", 
	 "Tm": 351.15, 
	 "num_atms": 20, 
	 "gaussian": { 
		 "optdone": 1, 
		 "sigma_profile": "yes", 
		 "theory": "DFT", 
		 "functional": "B3LYP", 
		 "basiset": "6-31G**", 
		 "properties": { 
			 "R2extent": 4307.2085, 
			 "electric_dipole_moment_norm": 3.74887342811, 
			 "electric_quadrupole_moment_norm": 14.8499504201, 
			 "total_energy": -3070.01998927, 
			 "HOMO_LUMO_gap": 0.15542, 
			 "cosmo_polarized_energy": -8.65, 
			 "cosmo_cavitation_energy": 26.76, 
			 "cosmo_dispersion_energy": -20.11, 
			 "cosmo_repulsion_energy": 1.55, 
			 "cosmo_total_nonelectrostatic_energy": 8.2, 
			 "SMD_solvation_energy": 4.29 
		},
		"coords": [
			{
				"x": -2.1267672813,
				"y": 1.9153840519,
				"z": 2.2562679169,
				"element": "Br" 
			},
			{
				"x": -1.7656422451,
				"y": 0.1887489413,
				"z": 1.5109585254,
				"element": "C" 
			},
			{
				"x": -0.4383408915,
				"y": -0.1726686918,
				"z": 1.1449941726,
				"element": "C" 
			},
			{
				"x": 0.6921399405,
				"y": 0.6809921779,
				"z": 1.2938284177,
				"element": "C" 
			},
			{
				"x": 1.9453054407,
				"y": 0.2670313861,
				"z": 0.9194821803,
				"element": "C" 
			},
			{
				"x": 2.1405432596,
				"y": -1.0298220053,
				"z": 0.3725006453,
				"element": "C" 
			},
			{
				"x": 3.4933257135,
				"y": -1.4737370207,
				"z": -0.0305000206,
				"element": "C" 
			},
			{
				"x": 4.4983198257,
				"y": -0.796154013,
				"z": 0.0702489508,
				"element": "O" 
			},
			{
				"x": 1.0635202195,
				"y": -1.8798067321,
				"z": 0.216159821,
				"element": "C" 
			},
			{
				"x": -0.2461515752,
				"y": -1.4866134213,
				"z": 0.5917759833,
				"element": "C" 
			},
			{
				"x": -1.3544199968,
				"y": -2.3590878656,
				"z": 0.4317755399,
				"element": "C" 
			},
			{
				"x": -2.617605372,
				"y": -1.9605428631,
				"z": 0.8016761756,
				"element": "C" 
			},
			{
				"x": -2.8271385913,
				"y": -0.6736146309,
				"z": 1.3470764314,
				"element": "C" 
			},
			{
				"x": 0.5448599134,
				"y": 1.6704472424,
				"z": 1.7108468405,
				"element": "H" 
			},
			{
				"x": 2.8103959513,
				"y": 0.912446234,
				"z": 1.0302903037,
				"element": "H" 
			},
			{
				"x": 3.5372548753,
				"y": -2.5051369109,
				"z": -0.4463160003,
				"element": "H" 
			},
			{
				"x": 1.212454963,
				"y": -2.8732391111,
				"z": -0.2027310067,
				"element": "H" 
			},
			{
				"x": -1.18641468,
				"y": -3.3468683749,
				"z": 0.0119621278,
				"element": "H" 
			},
			{
				"x": -3.4651020246,
				"y": -2.6277427306,
				"z": 0.6793062368,
				"element": "H" 
			},
			{
				"x": -3.8240374445,
				"y": -0.3626156621,
				"z": 1.6375967588,
				"element": "H" 
			}
		],
		 "valence_orbital": [ 
			{
				"type": "occ",
				"energy": -0.29518,
				"method": "rhf"
			},
			{
				"type": "occ",
				"energy": -0.28321,
				"method": "rhf"
			},
			{
				"type": "occ",
				"energy": -0.26513,
				"method": "rhf"
			},
			{
				"type": "occ",
				"energy": -0.25948,
				"method": "rhf"
			},
			{
				"type": "occ",
				"energy": -0.23314,
				"method": "rhf"
			},
			{
				"type": "unocc",
				"energy": -0.07772,
				"method": "rhf"
			},
			{
				"type": "unocc",
				"energy": -0.04922,
				"method": "rhf"
			},
			{
				"type": "unocc",
				"energy": -0.00035,
				"method": "rhf"
			},
			{
				"type": "unocc",
				"energy": 0.0015,
				"method": "rhf"
			},
			{
				"type": "unocc",
				"energy": 0.0204,
				"method": "rhf"
			}
		],
		"cosmo_sigma_profile": { 
			"-0.025": 0.0,
			"-0.024": 0.0,
			"-0.023": 0.0,
			"-0.022": 0.0,
			"-0.021": 0.0,
			"-0.02": 0.0,
			"-0.019": 0.0,
			"-0.018": 0.0,
			"-0.017": 0.0,
			"-0.016": 0.0,
			"-0.015": 0.0,
			"-0.014": 0.0,
			"-0.013": 0.0,
			"-0.012": 0.0,
			"-0.011": 0.0,
			"-0.01": 0.0,
			"-0.009": 0.0771933585558,
			"-0.008": 4.87173447843,
			"-0.007": 10.4990305791,
			"-0.006": 13.5791589697,
			"-0.005": 12.3871430565,
			"-0.004": 12.6564091596,
			"-0.003": 11.2333192196,
			"-0.002": 12.0005521495,
			"-0.001": 13.2885734465,
			"0.0": 17.6994119272,
			"0.001": 29.7972524596,
			"0.002": 30.7503929759,
			"0.003": 17.6033388024,
			"0.004": 11.5199923366,
			"0.005": 4.1892933215,
			"0.006": 1.32462020785,
			"0.007": 1.4369488061,
			"0.008": 1.85456428115,
			"0.009": 2.19393518159,
			"0.01": 2.60637479629,
			"0.011": 4.22779520438,
			"0.012": 2.67421179807,
			"0.013": 0.640877944604,
			"0.014": 0.0,
			"0.015": 0.0,
			"0.016": 0.0,
			"0.017": 0.0,
			"0.018": 0.0,
			"0.019": 0.0,
			"0.02": 0.0,
			"0.021": 0.0,
			"0.022": 0.0,
			"0.023": 0.0,
			"0.024": 0.0,
			"0.025": 0.0
		}
	}
}
