{
	 "smiles": "OC1=CC=C(OC2=NC=CC=C2)C=C1", 
	 "Tm": 416.15, 
	 "num_atms": 23, 
	 "gaussian": { 
		 "optdone": 1, 
		 "sigma_profile": "yes", 
		 "theory": "DFT", 
		 "functional": "B3LYP", 
		 "basiset": "6-31G**", 
		 "properties": { 
			 "R2extent": 3486.7906, 
			 "electric_dipole_moment_norm": 1.96766343921, 
			 "electric_quadrupole_moment_norm": 11.1182912136, 
			 "total_energy": -629.778204974, 
			 "HOMO_LUMO_gap": 0.18628, 
			 "cosmo_polarized_energy": -12.32, 
			 "cosmo_cavitation_energy": 28.01, 
			 "cosmo_dispersion_energy": -20.61, 
			 "cosmo_repulsion_energy": 1.63, 
			 "cosmo_total_nonelectrostatic_energy": 9.02, 
			 "SMD_solvation_energy": 4.57 
		},
		"coords": [
			{
				"x": -2.3456601763,
				"y": -2.122577703,
				"z": 3.3260964864,
				"element": "O" 
			},
			{
				"x": -1.6816253231,
				"y": -1.2812738907,
				"z": 2.4754974585,
				"element": "C" 
			},
			{
				"x": -0.2885736297,
				"y": -1.2223509491,
				"z": 2.5824834568,
				"element": "C" 
			},
			{
				"x": 0.4364943381,
				"y": -0.3852632532,
				"z": 1.737872017,
				"element": "C" 
			},
			{
				"x": -0.2252875738,
				"y": 0.3961891089,
				"z": 0.7926094187,
				"element": "C" 
			},
			{
				"x": 0.5400790861,
				"y": 1.2931683377,
				"z": 0.0486393984,
				"element": "O" 
			},
			{
				"x": 0.5822868128,
				"y": 1.2166331926,
				"z": -1.3139279863,
				"element": "C" 
			},
			{
				"x": -0.042742284,
				"y": 0.2333664121,
				"z": -1.9445239665,
				"element": "N" 
			},
			{
				"x": 0.0490457296,
				"y": 0.203687029,
				"z": -3.2840993275,
				"element": "C" 
			},
			{
				"x": 0.7562583211,
				"y": 1.138593593,
				"z": -4.0310951759,
				"element": "C" 
			},
			{
				"x": 1.4074472911,
				"y": 2.1697722959,
				"z": -3.3413763456,
				"element": "C" 
			},
			{
				"x": 1.3251496914,
				"y": 2.2207680009,
				"z": -1.95814046,
				"element": "C" 
			},
			{
				"x": -1.6135176524,
				"y": 0.3495450362,
				"z": 0.6850720853,
				"element": "C" 
			},
			{
				"x": -2.3402056112,
				"y": -0.4927795435,
				"z": 1.5249127916,
				"element": "C" 
			},
			{
				"x": -3.2928684048,
				"y": -2.0701683468,
				"z": 3.1455276713,
				"element": "H" 
			},
			{
				"x": 0.2085864746,
				"y": -1.8361903322,
				"z": 3.3259266495,
				"element": "H" 
			},
			{
				"x": 1.5176260982,
				"y": -0.3264161712,
				"z": 1.8081217369,
				"element": "H" 
			},
			{
				"x": -0.4733899498,
				"y": -0.616122458,
				"z": -3.7738314631,
				"element": "H" 
			},
			{
				"x": 0.7971762988,
				"y": 1.0655678939,
				"z": -5.1124572414,
				"element": "H" 
			},
			{
				"x": 1.972333809,
				"y": 2.9249680583,
				"z": -3.8804604172,
				"element": "H" 
			},
			{
				"x": 1.8078286013,
				"y": 2.9942767049,
				"z": -1.3719043776,
				"element": "H" 
			},
			{
				"x": -2.1212614389,
				"y": 0.9609335266,
				"z": -0.0519004594,
				"element": "H" 
			},
			{
				"x": -3.4241805082,
				"y": -0.5340265421,
				"z": 1.4403580501,
				"element": "H" 
			}
		],
		 "valence_orbital": [ 
			{
				"type": "occ",
				"energy": -0.28572,
				"method": "rhf"
			},
			{
				"type": "occ",
				"energy": -0.26568,
				"method": "rhf"
			},
			{
				"type": "occ",
				"energy": -0.24985,
				"method": "rhf"
			},
			{
				"type": "occ",
				"energy": -0.2394,
				"method": "rhf"
			},
			{
				"type": "occ",
				"energy": -0.20838,
				"method": "rhf"
			},
			{
				"type": "unocc",
				"energy": -0.0221,
				"method": "rhf"
			},
			{
				"type": "unocc",
				"energy": -0.00234,
				"method": "rhf"
			},
			{
				"type": "unocc",
				"energy": 0.00133,
				"method": "rhf"
			},
			{
				"type": "unocc",
				"energy": 0.02247,
				"method": "rhf"
			},
			{
				"type": "unocc",
				"energy": 0.07184,
				"method": "rhf"
			}
		],
		"cosmo_sigma_profile": { 
			"-0.025": 0.0,
			"-0.024": 0.0,
			"-0.023": 0.0,
			"-0.022": 0.0,
			"-0.021": 0.0,
			"-0.02": 0.0,
			"-0.019": 0.0,
			"-0.018": 0.407971881299,
			"-0.017": 1.32007624803,
			"-0.016": 0.637048842186,
			"-0.015": 1.15350171202,
			"-0.014": 1.09191417716,
			"-0.013": 1.16881688023,
			"-0.012": 1.08494474724,
			"-0.011": 0.251022260644,
			"-0.01": 1.52120618569,
			"-0.009": 1.44353910023,
			"-0.008": 1.16481437547,
			"-0.007": 7.17536295001,
			"-0.006": 14.7194330865,
			"-0.005": 16.411503626,
			"-0.004": 15.6915203981,
			"-0.003": 10.5872767078,
			"-0.002": 12.0462482191,
			"-0.001": 10.1047828033,
			"0.0": 11.6003166304,
			"0.001": 17.0460128489,
			"0.002": 19.4289952433,
			"0.003": 22.0363206688,
			"0.004": 18.5243783789,
			"0.005": 11.3460122873,
			"0.006": 4.74731734702,
			"0.007": 4.56907613951,
			"0.008": 4.65126282474,
			"0.009": 3.44155860058,
			"0.01": 3.00491211408,
			"0.011": 2.68142644303,
			"0.012": 1.59157167819,
			"0.013": 1.04332071959,
			"0.014": 0.982291442956,
			"0.015": 0.125770997742,
			"0.016": 0.0,
			"0.017": 0.0,
			"0.018": 0.0,
			"0.019": 0.0,
			"0.02": 0.0,
			"0.021": 0.0,
			"0.022": 0.0,
			"0.023": 0.0,
			"0.024": 0.0,
			"0.025": 0.0
		}
	}
}
