{
	 "smiles": "SC1=NNC(=N1)C1=NC=CC=C1", 
	 "Tm": 553.15, 
	 "num_atms": 18, 
	 "gaussian": { 
		 "optdone": 1, 
		 "sigma_profile": "yes", 
		 "theory": "DFT", 
		 "functional": "B3LYP", 
		 "basiset": "6-31G**", 
		 "properties": { 
			 "R2extent": 3178.7565, 
			 "electric_dipole_moment_norm": 4.75517420291, 
			 "electric_quadrupole_moment_norm": 7.14239708431, 
			 "total_energy": -887.5417781, 
			 "HOMO_LUMO_gap": 0.16455, 
			 "cosmo_polarized_energy": -11.45, 
			 "cosmo_cavitation_energy": 24.99, 
			 "cosmo_dispersion_energy": -19.4, 
			 "cosmo_repulsion_energy": 1.5, 
			 "cosmo_total_nonelectrostatic_energy": 7.08, 
			 "SMD_solvation_energy": 0.05 
		},
		"coords": [
			{
				"x": 0.6914460255,
				"y": 4.0045481985,
				"z": -0.2600790862,
				"element": "S" 
			},
			{
				"x": 0.2425623128,
				"y": 2.3333256955,
				"z": -0.6297510363,
				"element": "C" 
			},
			{
				"x": 0.718927093,
				"y": 1.7270910025,
				"z": -1.7141571698,
				"element": "N" 
			},
			{
				"x": 0.1423686472,
				"y": 0.5053302229,
				"z": -1.6149359944,
				"element": "N" 
			},
			{
				"x": -0.6314424069,
				"y": 0.4271871765,
				"z": -0.5126293337,
				"element": "C" 
			},
			{
				"x": -0.5902929082,
				"y": 1.5843291076,
				"z": 0.1441070127,
				"element": "N" 
			},
			{
				"x": -1.3765221712,
				"y": -0.7818200828,
				"z": -0.1547843333,
				"element": "C" 
			},
			{
				"x": -1.2401031866,
				"y": -1.8187142501,
				"z": -1.0019521347,
				"element": "N" 
			},
			{
				"x": -1.9026852523,
				"y": -2.9419987069,
				"z": -0.7137542812,
				"element": "C" 
			},
			{
				"x": -2.7191088806,
				"y": -3.0882691288,
				"z": 0.4103965163,
				"element": "C" 
			},
			{
				"x": -2.8515802708,
				"y": -2.0053079028,
				"z": 1.2803620426,
				"element": "C" 
			},
			{
				"x": -2.1692960404,
				"y": -0.82531272,
				"z": 0.998014572,
				"element": "C" 
			},
			{
				"x": -0.0483365121,
				"y": 4.0477689454,
				"z": 0.8632868741,
				"element": "H" 
			},
			{
				"x": 0.2987115533,
				"y": -0.2215586389,
				"z": -2.2985731513,
				"element": "H" 
			},
			{
				"x": -1.7761443266,
				"y": -3.7655731025,
				"z": -1.4137181591,
				"element": "H" 
			},
			{
				"x": -3.2337621625,
				"y": -4.0256865666,
				"z": 0.5939286661,
				"element": "H" 
			},
			{
				"x": -3.4769179127,
				"y": -2.0791390883,
				"z": 2.1651628624,
				"element": "H" 
			},
			{
				"x": -2.232823601,
				"y": 0.0489998386,
				"z": 1.6356761337,
				"element": "H" 
			}
		],
		 "valence_orbital": [ 
			{
				"type": "occ",
				"energy": -0.30143,
				"method": "rhf"
			},
			{
				"type": "occ",
				"energy": -0.28576,
				"method": "rhf"
			},
			{
				"type": "occ",
				"energy": -0.28039,
				"method": "rhf"
			},
			{
				"type": "occ",
				"energy": -0.26323,
				"method": "rhf"
			},
			{
				"type": "occ",
				"energy": -0.22402,
				"method": "rhf"
			},
			{
				"type": "unocc",
				"energy": -0.05947,
				"method": "rhf"
			},
			{
				"type": "unocc",
				"energy": -0.0349,
				"method": "rhf"
			},
			{
				"type": "unocc",
				"energy": 0.0242,
				"method": "rhf"
			},
			{
				"type": "unocc",
				"energy": 0.03095,
				"method": "rhf"
			},
			{
				"type": "unocc",
				"energy": 0.0614,
				"method": "rhf"
			}
		],
		"cosmo_sigma_profile": { 
			"-0.025": 0.0,
			"-0.024": 0.0,
			"-0.023": 0.0,
			"-0.022": 0.0,
			"-0.021": 0.0,
			"-0.02": 0.0,
			"-0.019": 0.0,
			"-0.018": 0.0,
			"-0.017": 0.323609731474,
			"-0.016": 1.13636857768,
			"-0.015": 0.462910441822,
			"-0.014": 0.544232648576,
			"-0.013": 0.756650533836,
			"-0.012": 0.867788938664,
			"-0.011": 2.22418037829,
			"-0.01": 2.13390023599,
			"-0.009": 1.96547144732,
			"-0.008": 3.15372497342,
			"-0.007": 10.0558300632,
			"-0.006": 10.9895103554,
			"-0.005": 10.34425159,
			"-0.004": 7.3292635155,
			"-0.003": 7.68599869603,
			"-0.002": 11.9765108275,
			"-0.001": 14.72347576,
			"0.0": 17.0873203234,
			"0.001": 22.101549766,
			"0.002": 19.6479515722,
			"0.003": 12.2142047149,
			"0.004": 9.27584734678,
			"0.005": 7.57589359418,
			"0.006": 6.68318507883,
			"0.007": 6.44404924259,
			"0.008": 4.61739726527,
			"0.009": 3.13777397193,
			"0.01": 2.8473314625,
			"0.011": 2.06836708607,
			"0.012": 1.99262010615,
			"0.013": 1.08485584828,
			"0.014": 0.73404566577,
			"0.015": 0.0667675913458,
			"0.016": 0.0,
			"0.017": 0.0,
			"0.018": 0.0,
			"0.019": 0.0,
			"0.02": 0.0,
			"0.021": 0.0,
			"0.022": 0.0,
			"0.023": 0.0,
			"0.024": 0.0,
			"0.025": 0.0
		}
	}
}
