{
	 "smiles": "CC(C)(C)OC(=O)NCC1=NC(=NN1)C1=CC=C(N)C=C1", 
	 "Tm": 488.15, 
	 "num_atms": 40, 
	 "gaussian": { 
		 "optdone": 1, 
		 "sigma_profile": "yes", 
		 "theory": "DFT", 
		 "functional": "B3LYP", 
		 "basiset": "6-31G**", 
		 "properties": { 
			 "R2extent": 11059.8098, 
			 "electric_dipole_moment_norm": 3.67644199873, 
			 "electric_quadrupole_moment_norm": 17.8581094901, 
			 "total_energy": -969.196181476, 
			 "HOMO_LUMO_gap": 0.18125, 
			 "cosmo_polarized_energy": -20.15, 
			 "cosmo_cavitation_energy": 43.45, 
			 "cosmo_dispersion_energy": -31.17, 
			 "cosmo_repulsion_energy": 2.41, 
			 "cosmo_total_nonelectrostatic_energy": 14.68, 
			 "SMD_solvation_energy": 4.75 
		},
		"coords": [
			{
				"x": -4.3844993341,
				"y": -4.0862889812,
				"z": 0.6367250711,
				"element": "C" 
			},
			{
				"x": -4.0411981073,
				"y": -2.8083585481,
				"z": -0.1324308731,
				"element": "C" 
			},
			{
				"x": -4.2455798438,
				"y": -1.571270122,
				"z": 0.7474919417,
				"element": "C" 
			},
			{
				"x": -4.8302198881,
				"y": -2.7300136495,
				"z": -1.4429170814,
				"element": "C" 
			},
			{
				"x": -2.6056232279,
				"y": -2.9904388291,
				"z": -0.4231711757,
				"element": "O" 
			},
			{
				"x": -1.9017304388,
				"y": -2.0571741453,
				"z": -1.0921159037,
				"element": "C" 
			},
			{
				"x": -2.3338413785,
				"y": -0.9980983221,
				"z": -1.5419261186,
				"element": "O" 
			},
			{
				"x": -0.6041234274,
				"y": -2.4543708293,
				"z": -1.2265562306,
				"element": "N" 
			},
			{
				"x": 0.3797745208,
				"y": -1.5930412616,
				"z": -1.8750388568,
				"element": "C" 
			},
			{
				"x": 0.7759145558,
				"y": -0.3881198139,
				"z": -1.0699095145,
				"element": "C" 
			},
			{
				"x": 1.9724764651,
				"y": -0.1298646596,
				"z": -0.5692021969,
				"element": "N" 
			},
			{
				"x": 1.7970595813,
				"y": 1.0785083904,
				"z": 0.0615154368,
				"element": "C" 
			},
			{
				"x": 0.5566376363,
				"y": 1.562959881,
				"z": -0.027252502,
				"element": "N" 
			},
			{
				"x": -0.0737331661,
				"y": 0.6163449113,
				"z": -0.7616910409,
				"element": "N" 
			},
			{
				"x": 2.8763735826,
				"y": 1.7733564896,
				"z": 0.770405905,
				"element": "C" 
			},
			{
				"x": 4.1620681131,
				"y": 1.2160263814,
				"z": 0.832681226,
				"element": "C" 
			},
			{
				"x": 5.1913893428,
				"y": 1.8640134989,
				"z": 1.5052056582,
				"element": "C" 
			},
			{
				"x": 4.9680229674,
				"y": 3.0981185765,
				"z": 2.140407411,
				"element": "C" 
			},
			{
				"x": 6.0120939519,
				"y": 3.7790073312,
				"z": 2.7688440575,
				"element": "N" 
			},
			{
				"x": 3.6788423389,
				"y": 3.6584114705,
				"z": 2.0775898118,
				"element": "C" 
			},
			{
				"x": 2.6542938444,
				"y": 3.0062422359,
				"z": 1.4043199427,
				"element": "C" 
			},
			{
				"x": -3.7871042221,
				"y": -4.1606849801,
				"z": 1.5499875546,
				"element": "H" 
			},
			{
				"x": -4.1898398852,
				"y": -4.9706879724,
				"z": 0.023286116,
				"element": "H" 
			},
			{
				"x": -5.4425649631,
				"y": -4.08304644,
				"z": 0.9143070171,
				"element": "H" 
			},
			{
				"x": -3.9955520675,
				"y": -0.6579268747,
				"z": 0.2073397829,
				"element": "H" 
			},
			{
				"x": -3.6237281393,
				"y": -1.6352090778,
				"z": 1.6458878644,
				"element": "H" 
			},
			{
				"x": -5.2923644755,
				"y": -1.516574644,
				"z": 1.0630206525,
				"element": "H" 
			},
			{
				"x": -4.6285503365,
				"y": -3.6100587957,
				"z": -2.0616437845,
				"element": "H" 
			},
			{
				"x": -5.9025952432,
				"y": -2.7077312503,
				"z": -1.2238740662,
				"element": "H" 
			},
			{
				"x": -4.5675772123,
				"y": -1.8335954104,
				"z": -2.0052927264,
				"element": "H" 
			},
			{
				"x": -0.2976643926,
				"y": -3.2519493138,
				"z": -0.6905403419,
				"element": "H" 
			},
			{
				"x": -0.0294048462,
				"y": -1.2777696984,
				"z": -2.840172785,
				"element": "H" 
			},
			{
				"x": 1.2797862825,
				"y": -2.1802119666,
				"z": -2.0615564064,
				"element": "H" 
			},
			{
				"x": -1.0636823969,
				"y": 0.6532703809,
				"z": -0.9756056067,
				"element": "H" 
			},
			{
				"x": 4.3430558788,
				"y": 0.263094552,
				"z": 0.3465484133,
				"element": "H" 
			},
			{
				"x": 6.1823043177,
				"y": 1.4170046326,
				"z": 1.5386974709,
				"element": "H" 
			},
			{
				"x": 5.7281882634,
				"y": 4.4405378112,
				"z": 3.4783085443,
				"element": "H" 
			},
			{
				"x": 6.7783096089,
				"y": 3.1978740646,
				"z": 3.079901659,
				"element": "H" 
			},
			{
				"x": 3.4877554883,
				"y": 4.6147945984,
				"z": 2.5588605571,
				"element": "H" 
			},
			{
				"x": 1.6640302522,
				"y": 3.4484203795,
				"z": 1.3647651175,
				"element": "H" 
			}
		],
		 "valence_orbital": [ 
			{
				"type": "occ",
				"energy": -0.26949,
				"method": "rhf"
			},
			{
				"type": "occ",
				"energy": -0.26136,
				"method": "rhf"
			},
			{
				"type": "occ",
				"energy": -0.25062,
				"method": "rhf"
			},
			{
				"type": "occ",
				"energy": -0.23647,
				"method": "rhf"
			},
			{
				"type": "occ",
				"energy": -0.18433,
				"method": "rhf"
			},
			{
				"type": "unocc",
				"energy": -0.00308,
				"method": "rhf"
			},
			{
				"type": "unocc",
				"energy": 0.01207,
				"method": "rhf"
			},
			{
				"type": "unocc",
				"energy": 0.02288,
				"method": "rhf"
			},
			{
				"type": "unocc",
				"energy": 0.0394,
				"method": "rhf"
			},
			{
				"type": "unocc",
				"energy": 0.07625,
				"method": "rhf"
			}
		],
		"cosmo_sigma_profile": { 
			"-0.025": 0.0,
			"-0.024": 0.0,
			"-0.023": 0.0,
			"-0.022": 0.0,
			"-0.021": 0.0,
			"-0.02": 0.0,
			"-0.019": 0.0,
			"-0.018": 0.0,
			"-0.017": 0.0,
			"-0.016": 0.0,
			"-0.015": 0.596979515472,
			"-0.014": 1.36515389391,
			"-0.013": 1.74352104187,
			"-0.012": 4.10359485567,
			"-0.011": 4.49645202187,
			"-0.01": 4.63519192876,
			"-0.009": 5.06122677542,
			"-0.008": 5.6637396559,
			"-0.007": 7.82799635349,
			"-0.006": 9.51400110166,
			"-0.005": 11.0353721691,
			"-0.004": 24.5431286537,
			"-0.003": 27.952267617,
			"-0.002": 25.7931321615,
			"-0.001": 28.424285385,
			"0.0": 34.1917474013,
			"0.001": 25.2534640787,
			"0.002": 14.2677370578,
			"0.003": 16.3830682683,
			"0.004": 19.1667470621,
			"0.005": 18.7475310822,
			"0.006": 17.698357667,
			"0.007": 7.06299141266,
			"0.008": 4.91014488945,
			"0.009": 4.1828980511,
			"0.01": 4.94644539051,
			"0.011": 4.45283142075,
			"0.012": 3.45215052943,
			"0.013": 2.43017945701,
			"0.014": 2.37132687157,
			"0.015": 0.257604244651,
			"0.016": 0.0,
			"0.017": 0.0,
			"0.018": 0.0,
			"0.019": 0.0,
			"0.02": 0.0,
			"0.021": 0.0,
			"0.022": 0.0,
			"0.023": 0.0,
			"0.024": 0.0,
			"0.025": 0.0
		}
	}
}
