{
	 "smiles": "CC(C)C1=NC(=CC=C1)C(O)=O", 
	 "Tm": 337.15, 
	 "num_atms": 23, 
	 "gaussian": { 
		 "optdone": 1, 
		 "sigma_profile": "yes", 
		 "theory": "DFT", 
		 "functional": "B3LYP", 
		 "basiset": "6-31G**", 
		 "properties": { 
			 "R2extent": 2319.9228, 
			 "electric_dipole_moment_norm": 5.78142155875, 
			 "electric_quadrupole_moment_norm": 12.851530498, 
			 "total_energy": -554.817768642, 
			 "HOMO_LUMO_gap": 0.20046, 
			 "cosmo_polarized_energy": -10.86, 
			 "cosmo_cavitation_energy": 26.76, 
			 "cosmo_dispersion_energy": -18.98, 
			 "cosmo_repulsion_energy": 1.53, 
			 "cosmo_total_nonelectrostatic_energy": 9.31, 
			 "SMD_solvation_energy": 5.64 
		},
		"coords": [
			{
				"x": -2.667749515,
				"y": -1.9421893518,
				"z": 1.0397551735,
				"element": "C" 
			},
			{
				"x": -1.3758888519,
				"y": -2.2712029302,
				"z": 0.2693166138,
				"element": "C" 
			},
			{
				"x": -0.3130822559,
				"y": -2.8863885872,
				"z": 1.1982034932,
				"element": "C" 
			},
			{
				"x": -0.8342128853,
				"y": -1.0389289503,
				"z": -0.4358349555,
				"element": "C" 
			},
			{
				"x": -0.4708304507,
				"y": 0.000390044,
				"z": 0.3317807848,
				"element": "N" 
			},
			{
				"x": 0.0122211302,
				"y": 1.1069515418,
				"z": -0.2510520676,
				"element": "C" 
			},
			{
				"x": 0.1648305718,
				"y": 1.2517722093,
				"z": -1.6284137945,
				"element": "C" 
			},
			{
				"x": -0.2099776212,
				"y": 0.1775707575,
				"z": -2.4323332545,
				"element": "C" 
			},
			{
				"x": -0.7130905686,
				"y": -0.9759772634,
				"z": -1.831859884,
				"element": "C" 
			},
			{
				"x": 0.3954398239,
				"y": 2.2256980785,
				"z": 0.6880157481,
				"element": "C" 
			},
			{
				"x": 0.1893076935,
				"y": 1.9332473867,
				"z": 1.9812412332,
				"element": "O" 
			},
			{
				"x": 0.8449997251,
				"y": 3.2835146401,
				"z": 0.3084422483,
				"element": "O" 
			},
			{
				"x": -3.0606095574,
				"y": -2.8396122449,
				"z": 1.5283328705,
				"element": "H" 
			},
			{
				"x": -2.4744286891,
				"y": -1.1896130033,
				"z": 1.8099691295,
				"element": "H" 
			},
			{
				"x": -3.4427832355,
				"y": -1.5510473338,
				"z": 0.3729150019,
				"element": "H" 
			},
			{
				"x": -1.6188037604,
				"y": -3.007426122,
				"z": -0.5074028442,
				"element": "H" 
			},
			{
				"x": 0.5884366972,
				"y": -3.1670004652,
				"z": 0.6442437987,
				"element": "H" 
			},
			{
				"x": -0.022880006,
				"y": -2.1730123454,
				"z": 1.9753024672,
				"element": "H" 
			},
			{
				"x": -0.7055518271,
				"y": -3.7841817163,
				"z": 1.6864218867,
				"element": "H" 
			},
			{
				"x": 0.5628295088,
				"y": 2.1778225785,
				"z": -2.0259106192,
				"element": "H" 
			},
			{
				"x": -0.1125618223,
				"y": 0.2355444026,
				"z": -3.5125099012,
				"element": "H" 
			},
			{
				"x": -1.0125368418,
				"y": -1.8274582587,
				"z": -2.4350473431,
				"element": "H" 
			},
			{
				"x": -0.1759772625,
				"y": 1.0228269335,
				"z": 1.9931242143,
				"element": "H" 
			}
		],
		 "valence_orbital": [ 
			{
				"type": "occ",
				"energy": -0.30811,
				"method": "rhf"
			},
			{
				"type": "occ",
				"energy": -0.306,
				"method": "rhf"
			},
			{
				"type": "occ",
				"energy": -0.29583,
				"method": "rhf"
			},
			{
				"type": "occ",
				"energy": -0.27248,
				"method": "rhf"
			},
			{
				"type": "occ",
				"energy": -0.26347,
				"method": "rhf"
			},
			{
				"type": "unocc",
				"energy": -0.06301,
				"method": "rhf"
			},
			{
				"type": "unocc",
				"energy": -0.03794,
				"method": "rhf"
			},
			{
				"type": "unocc",
				"energy": 0.05152,
				"method": "rhf"
			},
			{
				"type": "unocc",
				"energy": 0.07387,
				"method": "rhf"
			},
			{
				"type": "unocc",
				"energy": 0.09418,
				"method": "rhf"
			}
		],
		"cosmo_sigma_profile": { 
			"-0.025": 0.0,
			"-0.024": 0.0,
			"-0.023": 0.0,
			"-0.022": 0.0,
			"-0.021": 0.0,
			"-0.02": 0.0,
			"-0.019": 0.0,
			"-0.018": 0.0,
			"-0.017": 0.0,
			"-0.016": 0.0,
			"-0.015": 0.0,
			"-0.014": 0.0,
			"-0.013": 0.0,
			"-0.012": 0.0,
			"-0.011": 0.350352596678,
			"-0.01": 0.946199207035,
			"-0.009": 0.772305833138,
			"-0.008": 2.1602609642,
			"-0.007": 6.72997989166,
			"-0.006": 8.76776196973,
			"-0.005": 8.50362756337,
			"-0.004": 10.9616727171,
			"-0.003": 20.3622146399,
			"-0.002": 23.0244882984,
			"-0.001": 24.5773393025,
			"0.0": 27.5839679927,
			"0.001": 28.4343478566,
			"0.002": 11.0818111195,
			"0.003": 4.56895448365,
			"0.004": 3.29501565931,
			"0.005": 1.94745702948,
			"0.006": 1.96110755369,
			"0.007": 2.66516216309,
			"0.008": 2.87408700505,
			"0.009": 3.65854202201,
			"0.01": 5.46214334442,
			"0.011": 4.79792376238,
			"0.012": 4.67431990211,
			"0.013": 1.49564052882,
			"0.014": 0.0534858354592,
			"0.015": 0.0,
			"0.016": 0.0,
			"0.017": 0.0,
			"0.018": 0.0,
			"0.019": 0.0,
			"0.02": 0.0,
			"0.021": 0.0,
			"0.022": 0.0,
			"0.023": 0.0,
			"0.024": 0.0,
			"0.025": 0.0
		}
	}
}
