{
	 "smiles": "OC(=O)CSC1=C(F)C=C(F)C=C1", 
	 "Tm": 347.15, 
	 "num_atms": 19, 
	 "gaussian": { 
		 "optdone": 1, 
		 "sigma_profile": "yes", 
		 "theory": "DFT", 
		 "functional": "B3LYP", 
		 "basiset": "6-31G**", 
		 "properties": { 
			 "R2extent": 3456.7093, 
			 "electric_dipole_moment_norm": 1.55345160208, 
			 "electric_quadrupole_moment_norm": 6.82044134276, 
			 "total_energy": -1056.77635935, 
			 "HOMO_LUMO_gap": 0.20751, 
			 "cosmo_polarized_energy": -11.47, 
			 "cosmo_cavitation_energy": 26.69, 
			 "cosmo_dispersion_energy": -19.2, 
			 "cosmo_repulsion_energy": 1.45, 
			 "cosmo_total_nonelectrostatic_energy": 8.94, 
			 "SMD_solvation_energy": 6.34 
		},
		"coords": [
			{
				"x": 3.3885369022,
				"y": -2.6256258768,
				"z": 0.2485230106,
				"element": "O" 
			},
			{
				"x": 2.5651923215,
				"y": -2.1918352626,
				"z": -0.7377285155,
				"element": "C" 
			},
			{
				"x": 2.9021792544,
				"y": -1.3840022814,
				"z": -1.5693728851,
				"element": "O" 
			},
			{
				"x": 1.208867853,
				"y": -2.8670448371,
				"z": -0.6058000353,
				"element": "C" 
			},
			{
				"x": 0.002379924,
				"y": -2.4433111863,
				"z": -1.9058307532,
				"element": "S" 
			},
			{
				"x": -0.3539406108,
				"y": -0.7384491499,
				"z": -1.517674101,
				"element": "C" 
			},
			{
				"x": -1.013731021,
				"y": -0.3730445771,
				"z": -0.3378582906,
				"element": "C" 
			},
			{
				"x": -1.3144510895,
				"y": -1.3217464009,
				"z": 0.5712842385,
				"element": "F" 
			},
			{
				"x": -1.3607305292,
				"y": 0.9401752005,
				"z": -0.0484745912,
				"element": "C" 
			},
			{
				"x": -1.0454778099,
				"y": 1.9115528643,
				"z": -0.9925840368,
				"element": "C" 
			},
			{
				"x": -1.379335353,
				"y": 3.1893307787,
				"z": -0.7342784151,
				"element": "F" 
			},
			{
				"x": -0.3940586553,
				"y": 1.6066295946,
				"z": -2.182817592,
				"element": "C" 
			},
			{
				"x": -0.0444108277,
				"y": 0.2798265279,
				"z": -2.4295834259,
				"element": "C" 
			},
			{
				"x": 4.2331485026,
				"y": -2.1613474868,
				"z": 0.1212486554,
				"element": "H" 
			},
			{
				"x": 1.3509521481,
				"y": -3.9512848912,
				"z": -0.6569731923,
				"element": "H" 
			},
			{
				"x": 0.793031235,
				"y": -2.6529023615,
				"z": 0.3823969983,
				"element": "H" 
			},
			{
				"x": -1.8656158892,
				"y": 1.1932069022,
				"z": 0.8758279739,
				"element": "H" 
			},
			{
				"x": -0.1580070236,
				"y": 2.3973996318,
				"z": -2.8854640248,
				"element": "H" 
			},
			{
				"x": 0.4867706685,
				"y": 0.0172728117,
				"z": -3.337441018,
				"element": "H" 
			}
		],
		 "valence_orbital": [ 
			{
				"type": "occ",
				"energy": -0.3282,
				"method": "rhf"
			},
			{
				"type": "occ",
				"energy": -0.28683,
				"method": "rhf"
			},
			{
				"type": "occ",
				"energy": -0.2689,
				"method": "rhf"
			},
			{
				"type": "occ",
				"energy": -0.26172,
				"method": "rhf"
			},
			{
				"type": "occ",
				"energy": -0.23233,
				"method": "rhf"
			},
			{
				"type": "unocc",
				"energy": -0.02482,
				"method": "rhf"
			},
			{
				"type": "unocc",
				"energy": -0.01688,
				"method": "rhf"
			},
			{
				"type": "unocc",
				"energy": 0.00145,
				"method": "rhf"
			},
			{
				"type": "unocc",
				"energy": 0.03437,
				"method": "rhf"
			},
			{
				"type": "unocc",
				"energy": 0.05501,
				"method": "rhf"
			}
		],
		"cosmo_sigma_profile": { 
			"-0.025": 0.0,
			"-0.024": 0.0,
			"-0.023": 0.0,
			"-0.022": 0.0,
			"-0.021": 0.0,
			"-0.02": 0.0,
			"-0.019": 0.233451683396,
			"-0.018": 0.83788925974,
			"-0.017": 0.881971585728,
			"-0.016": 1.12319036112,
			"-0.015": 0.409454847102,
			"-0.014": 0.855901686594,
			"-0.013": 0.774038723096,
			"-0.012": 0.548345794828,
			"-0.011": 0.867211819468,
			"-0.01": 0.837775918262,
			"-0.009": 4.17061574031,
			"-0.008": 5.74150978352,
			"-0.007": 9.13382894158,
			"-0.006": 10.0528980641,
			"-0.005": 11.2034246546,
			"-0.004": 8.24912746178,
			"-0.003": 8.34451125434,
			"-0.002": 9.90062182705,
			"-0.001": 14.3794788144,
			"0.0": 22.3010515561,
			"0.001": 19.0356880048,
			"0.002": 13.5154679039,
			"0.003": 17.8187030487,
			"0.004": 17.6152141242,
			"0.005": 7.14795530102,
			"0.006": 5.01050415178,
			"0.007": 5.35178929281,
			"0.008": 6.06110337811,
			"0.009": 4.64135015268,
			"0.01": 2.8991665318,
			"0.011": 4.77299176006,
			"0.012": 1.14203254601,
			"0.013": 0.0,
			"0.014": 0.0,
			"0.015": 0.0,
			"0.016": 0.0,
			"0.017": 0.0,
			"0.018": 0.0,
			"0.019": 0.0,
			"0.02": 0.0,
			"0.021": 0.0,
			"0.022": 0.0,
			"0.023": 0.0,
			"0.024": 0.0,
			"0.025": 0.0
		}
	}
}
