{
	 "smiles": "IC1=CC2=C(NC(=O)O2)C=C1", 
	 "Tm": 483.15, 
	 "num_atms": 15, 
	 "gaussian": { 
		 "optdone": 1, 
		 "sigma_profile": "yes", 
		 "theory": "DFT", 
		 "functional": "B3LYP", 
		 "basiset": "6-31G**", 
		 "properties": { 
			 "R2extent": 1816.5536, 
			 "electric_dipole_moment_norm": 3.73212074162, 
			 "electric_quadrupole_moment_norm": 15.8524891528, 
			 "total_energy": -485.755143538, 
			 "HOMO_LUMO_gap": 0.1838, 
			 "cosmo_polarized_energy": -12.86, 
			 "cosmo_cavitation_energy": 23.2, 
			 "cosmo_dispersion_energy": -19.11, 
			 "cosmo_repulsion_energy": 1.49, 
			 "cosmo_total_nonelectrostatic_energy": 5.59, 
			 "SMD_solvation_energy": 4.31 
		},
		"coords": [
			{
				"x": -2.9366393917,
				"y": -1.3863462281,
				"z": 2.820752785,
				"element": "I" 
			},
			{
				"x": -1.7356833764,
				"y": -0.6359391794,
				"z": 1.2447398434,
				"element": "C" 
			},
			{
				"x": -0.3989398053,
				"y": -0.3045496637,
				"z": 1.5136027253,
				"element": "C" 
			},
			{
				"x": 0.330934347,
				"y": 0.1791248846,
				"z": 0.4447677728,
				"element": "C" 
			},
			{
				"x": -0.2093428418,
				"y": 0.3371403754,
				"z": -0.8361903289,
				"element": "C" 
			},
			{
				"x": 0.831695753,
				"y": 0.8397647711,
				"z": -1.6090002749,
				"element": "N" 
			},
			{
				"x": 1.9780680715,
				"y": 0.9910235209,
				"z": -0.8450155387,
				"element": "C" 
			},
			{
				"x": 3.0624288055,
				"y": 1.3944576925,
				"z": -1.1680821911,
				"element": "O" 
			},
			{
				"x": 1.6492886259,
				"y": 0.5720022886,
				"z": 0.4443475909,
				"element": "O" 
			},
			{
				"x": -1.5323506096,
				"y": 0.0074000695,
				"z": -1.0952189518,
				"element": "C" 
			},
			{
				"x": -2.2960926599,
				"y": -0.4859395282,
				"z": -0.0281911353,
				"element": "C" 
			},
			{
				"x": 0.0450334559,
				"y": -0.4165415258,
				"z": 2.4945659414,
				"element": "H" 
			},
			{
				"x": 0.8158296104,
				"y": 1.0786827223,
				"z": -2.5875212695,
				"element": "H" 
			},
			{
				"x": -1.9694355704,
				"y": 0.122721612,
				"z": -2.0813038915,
				"element": "H" 
			},
			{
				"x": -3.3325944141,
				"y": -0.7527018118,
				"z": -0.1973530769,
				"element": "H" 
			}
		],
		 "valence_orbital": [ 
			{
				"type": "occ",
				"energy": -0.30068,
				"method": "rhf"
			},
			{
				"type": "occ",
				"energy": -0.286,
				"method": "rhf"
			},
			{
				"type": "occ",
				"energy": -0.27562,
				"method": "rhf"
			},
			{
				"type": "occ",
				"energy": -0.2666,
				"method": "rhf"
			},
			{
				"type": "occ",
				"energy": -0.23096,
				"method": "rhf"
			},
			{
				"type": "unocc",
				"energy": -0.04716,
				"method": "rhf"
			},
			{
				"type": "unocc",
				"energy": -0.03227,
				"method": "rhf"
			},
			{
				"type": "unocc",
				"energy": -0.01786,
				"method": "rhf"
			},
			{
				"type": "unocc",
				"energy": 0.03678,
				"method": "rhf"
			},
			{
				"type": "unocc",
				"energy": 0.03859,
				"method": "rhf"
			}
		],
		"cosmo_sigma_profile": { 
			"-0.025": 0.0,
			"-0.024": 0.0,
			"-0.023": 0.0,
			"-0.022": 0.0,
			"-0.021": 0.0,
			"-0.02": 0.0,
			"-0.019": 0.0,
			"-0.018": 0.489222731886,
			"-0.017": 1.45968291512,
			"-0.016": 1.49801962391,
			"-0.015": 1.21864147737,
			"-0.014": 0.904202346769,
			"-0.013": 0.895881398286,
			"-0.012": 1.12273262495,
			"-0.011": 1.45993891648,
			"-0.01": 1.24864388009,
			"-0.009": 1.47747819893,
			"-0.008": 5.0777027619,
			"-0.007": 6.59172120653,
			"-0.006": 7.47321232338,
			"-0.005": 9.01766293864,
			"-0.004": 9.65022978176,
			"-0.003": 9.4253266676,
			"-0.002": 11.2470804158,
			"-0.001": 11.7396934961,
			"0.0": 14.1306031418,
			"0.001": 14.2028975384,
			"0.002": 18.113252754,
			"0.003": 17.8103041821,
			"0.004": 15.4701667307,
			"0.005": 6.67303121137,
			"0.006": 2.27099922523,
			"0.007": 3.34448432993,
			"0.008": 3.223769094,
			"0.009": 2.20034721678,
			"0.01": 2.14053775358,
			"0.011": 5.24832024404,
			"0.012": 5.20182598218,
			"0.013": 0.429356098348,
			"0.014": 0.0,
			"0.015": 0.0,
			"0.016": 0.0,
			"0.017": 0.0,
			"0.018": 0.0,
			"0.019": 0.0,
			"0.02": 0.0,
			"0.021": 0.0,
			"0.022": 0.0,
			"0.023": 0.0,
			"0.024": 0.0,
			"0.025": 0.0
		}
	}
}
