{
	 "smiles": "CC(=O)OCC1=C(N2C(SC1)C(NC(=O)CC1=CC=CS1)C2=O)C(O)=O", 
	 "Tm": 433.15, 
	 "num_atms": 42, 
	 "gaussian": { 
		 "optdone": 1, 
		 "sigma_profile": "yes", 
		 "theory": "DFT", 
		 "functional": "B3LYP", 
		 "basiset": "6-31G**", 
		 "properties": { 
			 "R2extent": 13741.3787, 
			 "electric_dipole_moment_norm": 6.37181416396, 
			 "electric_quadrupole_moment_norm": 21.4371183301, 
			 "total_energy": -1976.55769426, 
			 "HOMO_LUMO_gap": 0.18178, 
			 "cosmo_polarized_energy": -25.56, 
			 "cosmo_cavitation_energy": 49.71, 
			 "cosmo_dispersion_energy": -34.45, 
			 "cosmo_repulsion_energy": 2.55, 
			 "cosmo_total_nonelectrostatic_energy": 17.82, 
			 "SMD_solvation_energy": 9.94 
		},
		"coords": [
			{
				"x": 2.9164914014,
				"y": 4.6558192023,
				"z": -0.6824598236,
				"element": "C" 
			},
			{
				"x": 3.1445843193,
				"y": 3.2816241401,
				"z": -0.1029388475,
				"element": "C" 
			},
			{
				"x": 4.085944279,
				"y": 2.5599134324,
				"z": -0.3452802815,
				"element": "O" 
			},
			{
				"x": 2.1386187609,
				"y": 2.9482189596,
				"z": 0.7506672436,
				"element": "O" 
			},
			{
				"x": 2.3092850771,
				"y": 1.7391396421,
				"z": 1.5228520387,
				"element": "C" 
			},
			{
				"x": 1.6650728082,
				"y": 0.5241634594,
				"z": 0.864966595,
				"element": "C" 
			},
			{
				"x": 1.4878689804,
				"y": -0.6367396796,
				"z": 1.546487099,
				"element": "C" 
			},
			{
				"x": 1.0261813275,
				"y": -1.784732985,
				"z": 0.8556179988,
				"element": "N" 
			},
			{
				"x": 0.9471399191,
				"y": -1.9407462396,
				"z": -0.6006377061,
				"element": "C" 
			},
			{
				"x": 0.1405656369,
				"y": -0.4900214018,
				"z": -1.3503411253,
				"element": "S" 
			},
			{
				"x": 1.3124228456,
				"y": 0.7059390771,
				"z": -0.596602962,
				"element": "C" 
			},
			{
				"x": 0.0448681463,
				"y": -3.2010596753,
				"z": -0.3583762803,
				"element": "C" 
			},
			{
				"x": -1.253712356,
				"y": -3.2839541733,
				"z": -0.943335359,
				"element": "N" 
			},
			{
				"x": -1.5947240135,
				"y": -4.3343203608,
				"z": -1.7622768998,
				"element": "C" 
			},
			{
				"x": -0.8098520306,
				"y": -5.2177076133,
				"z": -2.0685381039,
				"element": "O" 
			},
			{
				"x": -3.0574247694,
				"y": -4.3676418212,
				"z": -2.2355501544,
				"element": "C" 
			},
			{
				"x": -3.8444312626,
				"y": -3.0925991836,
				"z": -2.1444562546,
				"element": "C" 
			},
			{
				"x": -4.6356949461,
				"y": -2.6545319263,
				"z": -1.1100727041,
				"element": "C" 
			},
			{
				"x": -5.220844531,
				"y": -1.3721336854,
				"z": -1.3425776026,
				"element": "C" 
			},
			{
				"x": -4.8690789674,
				"y": -0.8453276366,
				"z": -2.5538398349,
				"element": "C" 
			},
			{
				"x": -3.8158335001,
				"y": -1.9083989643,
				"z": -3.4299695214,
				"element": "S" 
			},
			{
				"x": 0.1302962657,
				"y": -2.796022824,
				"z": 1.1268192475,
				"element": "C" 
			},
			{
				"x": -0.3759437618,
				"y": -3.1688322969,
				"z": 2.1721679556,
				"element": "O" 
			},
			{
				"x": 1.840411636,
				"y": -0.7726060921,
				"z": 3.0087906645,
				"element": "C" 
			},
			{
				"x": 1.3060262764,
				"y": -1.7747081434,
				"z": 3.7058378683,
				"element": "O" 
			},
			{
				"x": 2.5944920878,
				"y": 0.0206451302,
				"z": 3.5390749747,
				"element": "O" 
			},
			{
				"x": 3.6495393479,
				"y": 4.8460487063,
				"z": -1.465582394,
				"element": "H" 
			},
			{
				"x": 3.0199261831,
				"y": 5.4064892668,
				"z": 0.1074121063,
				"element": "H" 
			},
			{
				"x": 1.902194882,
				"y": 4.7422287594,
				"z": -1.081386571,
				"element": "H" 
			},
			{
				"x": 1.8608769628,
				"y": 1.9492428324,
				"z": 2.4927314035,
				"element": "H" 
			},
			{
				"x": 3.3744055438,
				"y": 1.5568227224,
				"z": 1.6752443055,
				"element": "H" 
			},
			{
				"x": 1.9204110311,
				"y": -2.1249742795,
				"z": -1.062884479,
				"element": "H" 
			},
			{
				"x": 2.2365197338,
				"y": 0.7353657186,
				"z": -1.1857706781,
				"element": "H" 
			},
			{
				"x": 0.833694328,
				"y": 1.6801789057,
				"z": -0.7200120892,
				"element": "H" 
			},
			{
				"x": 0.5654895579,
				"y": -4.1349634249,
				"z": -0.588218832,
				"element": "H" 
			},
			{
				"x": -1.9551651961,
				"y": -2.5874366734,
				"z": -0.7283238832,
				"element": "H" 
			},
			{
				"x": -3.5497642165,
				"y": -5.1370527134,
				"z": -1.6282851434,
				"element": "H" 
			},
			{
				"x": -3.0304567658,
				"y": -4.7606999635,
				"z": -3.2555031586,
				"element": "H" 
			},
			{
				"x": -4.8050441356,
				"y": -3.2411880462,
				"z": -0.2127819091,
				"element": "H" 
			},
			{
				"x": -5.878200714,
				"y": -0.8716366581,
				"z": -0.6410129227,
				"element": "H" 
			},
			{
				"x": -5.1682536225,
				"y": 0.0981268439,
				"z": -2.9888794767,
				"element": "H" 
			},
			{
				"x": 0.6098974511,
				"y": -2.2952303372,
				"z": 3.2314254969,
				"element": "H" 
			}
		],
		 "valence_orbital": [ 
			{
				"type": "occ",
				"energy": -0.27675,
				"method": "rhf"
			},
			{
				"type": "occ",
				"energy": -0.26636,
				"method": "rhf"
			},
			{
				"type": "occ",
				"energy": -0.26054,
				"method": "rhf"
			},
			{
				"type": "occ",
				"energy": -0.2465,
				"method": "rhf"
			},
			{
				"type": "occ",
				"energy": -0.24321,
				"method": "rhf"
			},
			{
				"type": "unocc",
				"energy": -0.06143,
				"method": "rhf"
			},
			{
				"type": "unocc",
				"energy": -0.03119,
				"method": "rhf"
			},
			{
				"type": "unocc",
				"energy": -0.01931,
				"method": "rhf"
			},
			{
				"type": "unocc",
				"energy": -0.00381,
				"method": "rhf"
			},
			{
				"type": "unocc",
				"energy": -0.00096,
				"method": "rhf"
			}
		],
		"cosmo_sigma_profile": { 
			"-0.025": 0.0,
			"-0.024": 0.0,
			"-0.023": 0.0,
			"-0.022": 0.0,
			"-0.021": 0.0,
			"-0.02": 0.0,
			"-0.019": 0.0,
			"-0.018": 0.0,
			"-0.017": 0.0,
			"-0.016": 0.0,
			"-0.015": 0.0,
			"-0.014": 0.0,
			"-0.013": 0.0,
			"-0.012": 0.487780119221,
			"-0.011": 0.81134490763,
			"-0.01": 1.21256588022,
			"-0.009": 5.651309269,
			"-0.008": 12.2311158365,
			"-0.007": 20.9701243033,
			"-0.006": 28.4032717273,
			"-0.005": 31.5511062416,
			"-0.004": 31.1331947256,
			"-0.003": 31.1554302701,
			"-0.002": 30.5750349279,
			"-0.001": 23.1640636017,
			"0.0": 18.6305203187,
			"0.001": 18.2962837847,
			"0.002": 19.4070957644,
			"0.003": 20.3846083717,
			"0.004": 20.4014407176,
			"0.005": 14.6726732215,
			"0.006": 10.3553819942,
			"0.007": 7.74470108161,
			"0.008": 9.25458976398,
			"0.009": 7.86544593639,
			"0.01": 8.62022097531,
			"0.011": 11.7661621748,
			"0.012": 9.04091312515,
			"0.013": 5.82070574289,
			"0.014": 0.972903060096,
			"0.015": 0.0,
			"0.016": 0.0,
			"0.017": 0.0,
			"0.018": 0.0,
			"0.019": 0.0,
			"0.02": 0.0,
			"0.021": 0.0,
			"0.022": 0.0,
			"0.023": 0.0,
			"0.024": 0.0,
			"0.025": 0.0
		}
	}
}
