{
	 "smiles": "CC1=CC=C(C)C2=C1C1=C2N=C2C=CC=CC2=N1", 
	 "Tm": 468.15, 
	 "num_atms": 30, 
	 "gaussian": { 
		 "optdone": 1, 
		 "sigma_profile": "yes", 
		 "theory": "DFT", 
		 "functional": "B3LYP", 
		 "basiset": "6-31G**", 
		 "properties": { 
			 "R2extent": 5703.3407, 
			 "electric_dipole_moment_norm": 2.22662342124, 
			 "electric_quadrupole_moment_norm": 11.9299865377, 
			 "total_energy": -726.400590111, 
			 "HOMO_LUMO_gap": 0.15036, 
			 "cosmo_polarized_energy": -8.8, 
			 "cosmo_cavitation_energy": 34.37, 
			 "cosmo_dispersion_energy": -24.99, 
			 "cosmo_repulsion_energy": 1.9, 
			 "cosmo_total_nonelectrostatic_energy": 11.28, 
			 "SMD_solvation_energy": 1.7 
		},
		"coords": [
			{
				"x": -2.9765287099,
				"y": -0.996163596,
				"z": 0.0256642824,
				"element": "C" 
			},
			{
				"x": -1.9811373453,
				"y": -0.2002583093,
				"z": 0.8290493038,
				"element": "C" 
			},
			{
				"x": -2.1102988979,
				"y": -0.0098645375,
				"z": 2.228835375,
				"element": "C" 
			},
			{
				"x": -1.1968683264,
				"y": 0.7246011791,
				"z": 2.9845958816,
				"element": "C" 
			},
			{
				"x": -0.0534880781,
				"y": 1.3496440363,
				"z": 2.4239353259,
				"element": "C" 
			},
			{
				"x": 0.9248842816,
				"y": 2.1398795435,
				"z": 3.253390457,
				"element": "C" 
			},
			{
				"x": 0.0687678182,
				"y": 1.1619061448,
				"z": 1.0607536538,
				"element": "C" 
			},
			{
				"x": -0.866579837,
				"y": 0.4098744476,
				"z": 0.2868684469,
				"element": "C" 
			},
			{
				"x": -0.0722513544,
				"y": 0.6774383316,
				"z": -0.9552496506,
				"element": "C" 
			},
			{
				"x": 0.8787604974,
				"y": 1.4420464046,
				"z": -0.1684026142,
				"element": "C" 
			},
			{
				"x": 1.934475383,
				"y": 2.032282024,
				"z": -0.6176649459,
				"element": "N" 
			},
			{
				"x": 2.0639610339,
				"y": 1.8444252973,
				"z": -2.004109713,
				"element": "C" 
			},
			{
				"x": 3.168308292,
				"y": 2.4275525676,
				"z": -2.6492175209,
				"element": "C" 
			},
			{
				"x": 3.3533562206,
				"y": 2.2791901444,
				"z": -4.0159480363,
				"element": "C" 
			},
			{
				"x": 2.4329768984,
				"y": 1.5392354058,
				"z": -4.7774411077,
				"element": "C" 
			},
			{
				"x": 1.3341206425,
				"y": 0.9528890392,
				"z": -4.166773267,
				"element": "C" 
			},
			{
				"x": 1.1216428771,
				"y": 1.0867861143,
				"z": -2.7837671234,
				"element": "C" 
			},
			{
				"x": -0.0105568312,
				"y": 0.4684223191,
				"z": -2.2269636651,
				"element": "N" 
			},
			{
				"x": -2.6945695798,
				"y": -1.0254210666,
				"z": -1.0292108968,
				"element": "H" 
			},
			{
				"x": -3.0438590869,
				"y": -2.027786273,
				"z": 0.3896226925,
				"element": "H" 
			},
			{
				"x": -3.9804046267,
				"y": -0.5622365924,
				"z": 0.0983306228,
				"element": "H" 
			},
			{
				"x": -2.9613218061,
				"y": -0.4573577303,
				"z": 2.737504786,
				"element": "H" 
			},
			{
				"x": -1.3701669658,
				"y": 0.8221376336,
				"z": 4.0540308285,
				"element": "H" 
			},
			{
				"x": 0.4307963488,
				"y": 2.9811369433,
				"z": 3.7528166125,
				"element": "H" 
			},
			{
				"x": 1.7313838617,
				"y": 2.5383987939,
				"z": 2.6338277646,
				"element": "H" 
			},
			{
				"x": 1.3723699677,
				"y": 1.5173479904,
				"z": 4.0366740791,
				"element": "H" 
			},
			{
				"x": 3.864844211,
				"y": 2.9941550149,
				"z": -2.0391790378,
				"element": "H" 
			},
			{
				"x": 4.2122559448,
				"y": 2.7365020991,
				"z": -4.4982563325,
				"element": "H" 
			},
			{
				"x": 2.5818375174,
				"y": 1.4256929459,
				"z": -5.8472134747,
				"element": "H" 
			},
			{
				"x": 0.6090896494,
				"y": 0.3765436848,
				"z": -4.7329027266,
				"element": "H" 
			}
		],
		 "valence_orbital": [ 
			{
				"type": "occ",
				"energy": -0.2817,
				"method": "rhf"
			},
			{
				"type": "occ",
				"energy": -0.25572,
				"method": "rhf"
			},
			{
				"type": "occ",
				"energy": -0.23772,
				"method": "rhf"
			},
			{
				"type": "occ",
				"energy": -0.2341,
				"method": "rhf"
			},
			{
				"type": "occ",
				"energy": -0.21512,
				"method": "rhf"
			},
			{
				"type": "unocc",
				"energy": -0.06476,
				"method": "rhf"
			},
			{
				"type": "unocc",
				"energy": -0.05498,
				"method": "rhf"
			},
			{
				"type": "unocc",
				"energy": 0.0071,
				"method": "rhf"
			},
			{
				"type": "unocc",
				"energy": 0.01093,
				"method": "rhf"
			},
			{
				"type": "unocc",
				"energy": 0.03127,
				"method": "rhf"
			}
		],
		"cosmo_sigma_profile": { 
			"-0.025": 0.0,
			"-0.024": 0.0,
			"-0.023": 0.0,
			"-0.022": 0.0,
			"-0.021": 0.0,
			"-0.02": 0.0,
			"-0.019": 0.0,
			"-0.018": 0.0,
			"-0.017": 0.0,
			"-0.016": 0.0,
			"-0.015": 0.0,
			"-0.014": 0.0,
			"-0.013": 0.0,
			"-0.012": 0.0,
			"-0.011": 0.0,
			"-0.01": 0.0,
			"-0.009": 0.0,
			"-0.008": 0.0,
			"-0.007": 1.24747012363,
			"-0.006": 10.4415652551,
			"-0.005": 18.1537241825,
			"-0.004": 24.646429221,
			"-0.003": 25.059333604,
			"-0.002": 25.5630056798,
			"-0.001": 33.3730215724,
			"0.0": 28.879281588,
			"0.001": 20.8541021395,
			"0.002": 20.3693452881,
			"0.003": 25.1562020459,
			"0.004": 17.4554106306,
			"0.005": 6.04779962084,
			"0.006": 3.43911421776,
			"0.007": 2.3133822332,
			"0.008": 2.37676657519,
			"0.009": 2.25972639147,
			"0.01": 1.43112190693,
			"0.011": 2.14335764167,
			"0.012": 2.05989303605,
			"0.013": 1.19506528542,
			"0.014": 1.0906353422,
			"0.015": 0.769291989795,
			"0.016": 0.0,
			"0.017": 0.0,
			"0.018": 0.0,
			"0.019": 0.0,
			"0.02": 0.0,
			"0.021": 0.0,
			"0.022": 0.0,
			"0.023": 0.0,
			"0.024": 0.0,
			"0.025": 0.0
		}
	}
}
