{
	 "smiles": "SC1=NN=CN1CCC1=NC=CC=C1", 
	 "Tm": 478.15, 
	 "num_atms": 24, 
	 "gaussian": { 
		 "optdone": 1, 
		 "sigma_profile": "yes", 
		 "theory": "DFT", 
		 "functional": "B3LYP", 
		 "basiset": "6-31G**", 
		 "properties": { 
			 "R2extent": 4307.1467, 
			 "electric_dipole_moment_norm": 5.21577256406, 
			 "electric_quadrupole_moment_norm": 31.243840017, 
			 "total_energy": -966.146502406, 
			 "HOMO_LUMO_gap": 0.19002, 
			 "cosmo_polarized_energy": -17.32, 
			 "cosmo_cavitation_energy": 29.97, 
			 "cosmo_dispersion_energy": -21.44, 
			 "cosmo_repulsion_energy": 1.65, 
			 "cosmo_total_nonelectrostatic_energy": 10.17, 
			 "SMD_solvation_energy": 2.16 
		},
		"coords": [
			{
				"x": 2.5974801385,
				"y": -0.7766093148,
				"z": 3.0860647585,
				"element": "S" 
			},
			{
				"x": 1.4517790773,
				"y": 0.5710067298,
				"z": 3.1383637158,
				"element": "C" 
			},
			{
				"x": 0.9436932242,
				"y": 1.1092028483,
				"z": 4.2234722084,
				"element": "N" 
			},
			{
				"x": 0.1092913845,
				"y": 2.1345732115,
				"z": 3.8094498809,
				"element": "N" 
			},
			{
				"x": 0.149318338,
				"y": 2.1656185012,
				"z": 2.5027047346,
				"element": "C" 
			},
			{
				"x": 0.9921109358,
				"y": 1.1977488133,
				"z": 2.0083931018,
				"element": "N" 
			},
			{
				"x": 1.2850718754,
				"y": 0.8943272152,
				"z": 0.6089780142,
				"element": "C" 
			},
			{
				"x": 0.4105365655,
				"y": -0.2306695413,
				"z": 0.0353996325,
				"element": "C" 
			},
			{
				"x": -1.0552524633,
				"y": 0.1429560976,
				"z": -0.0773355251,
				"element": "C" 
			},
			{
				"x": -1.3236917666,
				"y": 1.360861378,
				"z": -0.5771906875,
				"element": "N" 
			},
			{
				"x": -2.6054628497,
				"y": 1.7153123487,
				"z": -0.7248792286,
				"element": "C" 
			},
			{
				"x": -3.678781258,
				"y": 0.8902626043,
				"z": -0.387762448,
				"element": "C" 
			},
			{
				"x": -3.3975464656,
				"y": -0.3691126653,
				"z": 0.1390589878,
				"element": "C" 
			},
			{
				"x": -2.0659700468,
				"y": -0.7487503275,
				"z": 0.299138865,
				"element": "C" 
			},
			{
				"x": 2.7224686407,
				"y": -0.8081106791,
				"z": 4.4260148797,
				"element": "H" 
			},
			{
				"x": -0.3951451262,
				"y": 2.8406275598,
				"z": 1.8587931103,
				"element": "H" 
			},
			{
				"x": 1.1185332146,
				"y": 1.8066560663,
				"z": 0.0337612584,
				"element": "H" 
			},
			{
				"x": 2.3439065767,
				"y": 0.629647229,
				"z": 0.53227616,
				"element": "H" 
			},
			{
				"x": 0.7954166513,
				"y": -0.4596306944,
				"z": -0.9675095007,
				"element": "H" 
			},
			{
				"x": 0.5241704156,
				"y": -1.140928652,
				"z": 0.6328411268,
				"element": "H" 
			},
			{
				"x": -2.7823027388,
				"y": 2.7094805906,
				"z": -1.1318858238,
				"element": "H" 
			},
			{
				"x": -4.6994200329,
				"y": 1.2310167208,
				"z": -0.5279807781,
				"element": "H" 
			},
			{
				"x": -4.1996943231,
				"y": -1.0428775569,
				"z": 0.4259364539,
				"element": "H" 
			},
			{
				"x": -1.8097099669,
				"y": -1.7196084832,
				"z": 0.7120971032,
				"element": "H" 
			}
		],
		 "valence_orbital": [ 
			{
				"type": "occ",
				"energy": -0.28582,
				"method": "rhf"
			},
			{
				"type": "occ",
				"energy": -0.26873,
				"method": "rhf"
			},
			{
				"type": "occ",
				"energy": -0.26736,
				"method": "rhf"
			},
			{
				"type": "occ",
				"energy": -0.24892,
				"method": "rhf"
			},
			{
				"type": "occ",
				"energy": -0.22806,
				"method": "rhf"
			},
			{
				"type": "unocc",
				"energy": -0.03804,
				"method": "rhf"
			},
			{
				"type": "unocc",
				"energy": -0.0227,
				"method": "rhf"
			},
			{
				"type": "unocc",
				"energy": 0.00587,
				"method": "rhf"
			},
			{
				"type": "unocc",
				"energy": 0.02342,
				"method": "rhf"
			},
			{
				"type": "unocc",
				"energy": 0.04901,
				"method": "rhf"
			}
		],
		"cosmo_sigma_profile": { 
			"-0.025": 0.0,
			"-0.024": 0.0,
			"-0.023": 0.0,
			"-0.022": 0.0,
			"-0.021": 0.0,
			"-0.02": 0.0,
			"-0.019": 0.0,
			"-0.018": 0.0,
			"-0.017": 0.0,
			"-0.016": 0.0,
			"-0.015": 0.0,
			"-0.014": 0.0,
			"-0.013": 0.0588638090982,
			"-0.012": 1.46407830064,
			"-0.011": 1.32313556068,
			"-0.01": 0.989252162008,
			"-0.009": 2.69033405692,
			"-0.008": 2.43095768371,
			"-0.007": 10.0664594469,
			"-0.006": 19.2635458774,
			"-0.005": 22.5882648795,
			"-0.004": 19.9074971773,
			"-0.003": 16.2793510286,
			"-0.002": 16.2488746823,
			"-0.001": 13.8270419012,
			"0.0": 15.7504996416,
			"0.001": 15.8152262179,
			"0.002": 17.1277481717,
			"0.003": 16.4842106478,
			"0.004": 7.42251061319,
			"0.005": 5.44592136779,
			"0.006": 4.71450989773,
			"0.007": 3.89132674252,
			"0.008": 2.91337700784,
			"0.009": 2.90148264564,
			"0.01": 2.1671259177,
			"0.011": 3.86860400759,
			"0.012": 2.84670568951,
			"0.013": 3.76761785195,
			"0.014": 3.957859506,
			"0.015": 2.33370087793,
			"0.016": 2.86239910413,
			"0.017": 0.711625688302,
			"0.018": 0.0,
			"0.019": 0.0,
			"0.02": 0.0,
			"0.021": 0.0,
			"0.022": 0.0,
			"0.023": 0.0,
			"0.024": 0.0,
			"0.025": 0.0
		}
	}
}
