{
	 "smiles": "CC(C)=CC(=O)NCC1=CC=C(C=C1)C(O)=O", 
	 "Tm": 461.15, 
	 "num_atms": 32, 
	 "gaussian": { 
		 "optdone": 1, 
		 "sigma_profile": "yes", 
		 "theory": "DFT", 
		 "functional": "B3LYP", 
		 "basiset": "6-31G**", 
		 "properties": { 
			 "R2extent": 6435.5952, 
			 "electric_dipole_moment_norm": 3.35202043848, 
			 "electric_quadrupole_moment_norm": 31.7371941892, 
			 "total_energy": -784.862999022, 
			 "HOMO_LUMO_gap": 0.19205, 
			 "cosmo_polarized_energy": -22.21, 
			 "cosmo_cavitation_energy": 36.41, 
			 "cosmo_dispersion_energy": -25.51, 
			 "cosmo_repulsion_energy": 2.02, 
			 "cosmo_total_nonelectrostatic_energy": 12.92, 
			 "SMD_solvation_energy": 8.07 
		},
		"coords": [
			{
				"x": -3.2070357726,
				"y": 1.65452631,
				"z": 3.77602217,
				"element": "C" 
			},
			{
				"x": -2.6693789865,
				"y": 0.7296100911,
				"z": 2.7176708459,
				"element": "C" 
			},
			{
				"x": -3.3983889441,
				"y": -0.5844555687,
				"z": 2.5912128487,
				"element": "C" 
			},
			{
				"x": -1.6242277691,
				"y": 0.9953134386,
				"z": 1.9062824436,
				"element": "C" 
			},
			{
				"x": -0.7951662651,
				"y": 2.2272859211,
				"z": 1.9166286649,
				"element": "C" 
			},
			{
				"x": -0.7755405447,
				"y": 3.062366269,
				"z": 2.8204029395,
				"element": "O" 
			},
			{
				"x": 0.0335237156,
				"y": 2.4078946252,
				"z": 0.8217676786,
				"element": "N" 
			},
			{
				"x": 0.02372805,
				"y": 1.6989248252,
				"z": -0.4444823622,
				"element": "C" 
			},
			{
				"x": 0.9236182493,
				"y": 0.4700602275,
				"z": -0.5269612831,
				"element": "C" 
			},
			{
				"x": 1.8429903299,
				"y": 0.1562888106,
				"z": 0.4766983515,
				"element": "C" 
			},
			{
				"x": 2.6636050715,
				"y": -0.9660479022,
				"z": 0.3592094065,
				"element": "C" 
			},
			{
				"x": 2.5800314133,
				"y": -1.796017845,
				"z": -0.7656080764,
				"element": "C" 
			},
			{
				"x": 1.6709882135,
				"y": -1.4696583171,
				"z": -1.7830956862,
				"element": "C" 
			},
			{
				"x": 0.8484929637,
				"y": -0.3573279554,
				"z": -1.6582377698,
				"element": "C" 
			},
			{
				"x": 3.4395456703,
				"y": -3.0077910143,
				"z": -0.963007109,
				"element": "C" 
			},
			{
				"x": 4.0162780546,
				"y": -3.5398625591,
				"z": 0.1483329328,
				"element": "O" 
			},
			{
				"x": 3.6316787169,
				"y": -3.5154915852,
				"z": -2.0431056888,
				"element": "O" 
			},
			{
				"x": -3.0860596384,
				"y": 1.1913560948,
				"z": 4.7643714737,
				"element": "H" 
			},
			{
				"x": -4.2858733809,
				"y": 1.797499728,
				"z": 3.6336355823,
				"element": "H" 
			},
			{
				"x": -2.6957964709,
				"y": 2.6141657858,
				"z": 3.77998468,
				"element": "H" 
			},
			{
				"x": -2.9634652127,
				"y": -1.2323718088,
				"z": 1.8259027714,
				"element": "H" 
			},
			{
				"x": -3.3876127902,
				"y": -1.1229948142,
				"z": 3.547408342,
				"element": "H" 
			},
			{
				"x": -4.4546235357,
				"y": -0.4172975214,
				"z": 2.3441610138,
				"element": "H" 
			},
			{
				"x": -1.34424441,
				"y": 0.2318895012,
				"z": 1.1857558001,
				"element": "H" 
			},
			{
				"x": 0.5649005954,
				"y": 3.2656620361,
				"z": 0.8842083443,
				"element": "H" 
			},
			{
				"x": 0.3333024251,
				"y": 2.4090474994,
				"z": -1.2209948809,
				"element": "H" 
			},
			{
				"x": -1.0018849762,
				"y": 1.4116708684,
				"z": -0.7031458768,
				"element": "H" 
			},
			{
				"x": 1.9154608724,
				"y": 0.7964423519,
				"z": 1.3495804021,
				"element": "H" 
			},
			{
				"x": 3.394163739,
				"y": -1.1586232265,
				"z": 1.1418328774,
				"element": "H" 
			},
			{
				"x": 1.6265751598,
				"y": -2.1071990388,
				"z": -2.6595060913,
				"element": "H" 
			},
			{
				"x": 0.1392695379,
				"y": -0.1237058425,
				"z": -2.4492626666,
				"element": "H" 
			},
			{
				"x": 3.647545919,
				"y": -3.1325593845,
				"z": 0.9441379219,
				"element": "H" 
			}
		],
		 "valence_orbital": [ 
			{
				"type": "occ",
				"energy": -0.27408,
				"method": "rhf"
			},
			{
				"type": "occ",
				"energy": -0.26439,
				"method": "rhf"
			},
			{
				"type": "occ",
				"energy": -0.2594,
				"method": "rhf"
			},
			{
				"type": "occ",
				"energy": -0.25703,
				"method": "rhf"
			},
			{
				"type": "occ",
				"energy": -0.2462,
				"method": "rhf"
			},
			{
				"type": "unocc",
				"energy": -0.05415,
				"method": "rhf"
			},
			{
				"type": "unocc",
				"energy": -0.03492,
				"method": "rhf"
			},
			{
				"type": "unocc",
				"energy": -0.02431,
				"method": "rhf"
			},
			{
				"type": "unocc",
				"energy": 0.04234,
				"method": "rhf"
			},
			{
				"type": "unocc",
				"energy": 0.05995,
				"method": "rhf"
			}
		],
		"cosmo_sigma_profile": { 
			"-0.025": 0.0,
			"-0.024": 0.0,
			"-0.023": 0.0,
			"-0.022": 0.0,
			"-0.021": 0.0,
			"-0.02": 0.0,
			"-0.019": 0.149254943823,
			"-0.018": 0.748047978153,
			"-0.017": 0.641483946888,
			"-0.016": 0.875732666699,
			"-0.015": 1.29356527615,
			"-0.014": 0.948545724389,
			"-0.013": 1.83034531806,
			"-0.012": 2.81365311107,
			"-0.011": 2.33552633553,
			"-0.01": 2.00100259633,
			"-0.009": 2.67159639745,
			"-0.008": 2.97329050872,
			"-0.007": 6.70205797939,
			"-0.006": 13.5189912323,
			"-0.005": 18.0014343371,
			"-0.004": 24.686872766,
			"-0.003": 21.2078408296,
			"-0.002": 21.7268584893,
			"-0.001": 22.1333306414,
			"0.0": 24.0244056679,
			"0.001": 19.3824599005,
			"0.002": 16.2345012975,
			"0.003": 18.5495835245,
			"0.004": 10.2926182598,
			"0.005": 4.65503678581,
			"0.006": 5.14764118115,
			"0.007": 3.36625517499,
			"0.008": 4.27117217923,
			"0.009": 5.30798238371,
			"0.01": 6.50970816726,
			"0.011": 5.7780758641,
			"0.012": 7.58496586473,
			"0.013": 4.49513179189,
			"0.014": 4.27354835567,
			"0.015": 1.386766514,
			"0.016": 0.0,
			"0.017": 0.0,
			"0.018": 0.0,
			"0.019": 0.0,
			"0.02": 0.0,
			"0.021": 0.0,
			"0.022": 0.0,
			"0.023": 0.0,
			"0.024": 0.0,
			"0.025": 0.0
		}
	}
}
