{
	 "smiles": "CC1=C(SC=N1)C1=NC(CN)=NO1", 
	 "Tm": 433.15, 
	 "num_atms": 21, 
	 "gaussian": { 
		 "optdone": 1, 
		 "sigma_profile": "yes", 
		 "theory": "DFT", 
		 "functional": "B3LYP", 
		 "basiset": "6-31G**", 
		 "properties": { 
			 "R2extent": 3803.9075, 
			 "electric_dipole_moment_norm": 1.84230809041, 
			 "electric_quadrupole_moment_norm": 9.3227582308, 
			 "total_energy": -963.935566399, 
			 "HOMO_LUMO_gap": 0.1752, 
			 "cosmo_polarized_energy": -11.47, 
			 "cosmo_cavitation_energy": 27.47, 
			 "cosmo_dispersion_energy": -20.76, 
			 "cosmo_repulsion_energy": 1.62, 
			 "cosmo_total_nonelectrostatic_energy": 8.33, 
			 "SMD_solvation_energy": 0.69 
		},
		"coords": [
			{
				"x": 1.2980750164,
				"y": 2.3319528066,
				"z": -0.652899523,
				"element": "C" 
			},
			{
				"x": 1.6763001349,
				"y": 1.1975184306,
				"z": -1.5551978688,
				"element": "C" 
			},
			{
				"x": 1.5975591782,
				"y": -0.1567945198,
				"z": -1.2745305818,
				"element": "C" 
			},
			{
				"x": 2.1519822171,
				"y": -1.0895390852,
				"z": -2.6471064696,
				"element": "S" 
			},
			{
				"x": 2.4422931641,
				"y": 0.409133202,
				"z": -3.4762172957,
				"element": "C" 
			},
			{
				"x": 2.1590172311,
				"y": 1.4914827632,
				"z": -2.8108240072,
				"element": "N" 
			},
			{
				"x": 1.1428774108,
				"y": -0.8157258768,
				"z": -0.0717209691,
				"element": "C" 
			},
			{
				"x": 0.7117767349,
				"y": -0.2971618351,
				"z": 1.0500180843,
				"element": "N" 
			},
			{
				"x": 0.426295866,
				"y": -1.4142887176,
				"z": 1.804480237,
				"element": "C" 
			},
			{
				"x": -0.0859456959,
				"y": -1.3213353315,
				"z": 3.2179939193,
				"element": "C" 
			},
			{
				"x": 0.7648070031,
				"y": -0.5513679142,
				"z": 4.1252706342,
				"element": "N" 
			},
			{
				"x": 0.6657499137,
				"y": -2.5563133855,
				"z": 1.2097191169,
				"element": "N" 
			},
			{
				"x": 1.1457120197,
				"y": -2.1646556709,
				"z": -0.0587747919,
				"element": "O" 
			},
			{
				"x": 2.1728680565,
				"y": 2.96573153,
				"z": -0.4702501067,
				"element": "H" 
			},
			{
				"x": 0.906558696,
				"y": 1.9743177236,
				"z": 0.298190708,
				"element": "H" 
			},
			{
				"x": 0.547409919,
				"y": 2.9590072656,
				"z": -1.1455870116,
				"element": "H" 
			},
			{
				"x": 2.8359107437,
				"y": 0.4081465741,
				"z": -4.4863540471,
				"element": "H" 
			},
			{
				"x": -1.0769112298,
				"y": -0.8534223367,
				"z": 3.1961780901,
				"element": "H" 
			},
			{
				"x": -0.2147641983,
				"y": -2.3344768951,
				"z": 3.608139114,
				"element": "H" 
			},
			{
				"x": 1.6836727069,
				"y": -0.9841519432,
				"z": 4.1851592947,
				"element": "H" 
			},
			{
				"x": 0.910555112,
				"y": 0.3788432161,
				"z": 3.739513474,
				"element": "H" 
			}
		],
		 "valence_orbital": [ 
			{
				"type": "occ",
				"energy": -0.30385,
				"method": "rhf"
			},
			{
				"type": "occ",
				"energy": -0.28973,
				"method": "rhf"
			},
			{
				"type": "occ",
				"energy": -0.2895,
				"method": "rhf"
			},
			{
				"type": "occ",
				"energy": -0.25095,
				"method": "rhf"
			},
			{
				"type": "occ",
				"energy": -0.2488,
				"method": "rhf"
			},
			{
				"type": "unocc",
				"energy": -0.0736,
				"method": "rhf"
			},
			{
				"type": "unocc",
				"energy": -0.00648,
				"method": "rhf"
			},
			{
				"type": "unocc",
				"energy": 0.00058,
				"method": "rhf"
			},
			{
				"type": "unocc",
				"energy": 0.0174,
				"method": "rhf"
			},
			{
				"type": "unocc",
				"energy": 0.07073,
				"method": "rhf"
			}
		],
		"cosmo_sigma_profile": { 
			"-0.025": 0.0,
			"-0.024": 0.0,
			"-0.023": 0.0,
			"-0.022": 0.0,
			"-0.021": 0.0,
			"-0.02": 0.0,
			"-0.019": 0.0,
			"-0.018": 0.0,
			"-0.017": 0.0,
			"-0.016": 0.0,
			"-0.015": 0.0,
			"-0.014": 0.0,
			"-0.013": 0.0,
			"-0.012": 0.0,
			"-0.011": 1.90018989828,
			"-0.01": 4.40935267577,
			"-0.009": 4.64118753742,
			"-0.008": 4.76293979206,
			"-0.007": 4.02078468822,
			"-0.006": 8.40307661725,
			"-0.005": 13.2409716135,
			"-0.004": 14.2795918735,
			"-0.003": 17.0752376227,
			"-0.002": 18.4595101043,
			"-0.001": 25.8403530107,
			"0.0": 23.2600279757,
			"0.001": 15.5584671706,
			"0.002": 9.67750452464,
			"0.003": 8.49521954522,
			"0.004": 5.28413636926,
			"0.005": 5.55039279092,
			"0.006": 8.87831519502,
			"0.007": 4.67438596005,
			"0.008": 3.9933854264,
			"0.009": 3.88168547824,
			"0.01": 2.78241665936,
			"0.011": 2.58307982649,
			"0.012": 2.94088598519,
			"0.013": 2.92686701975,
			"0.014": 1.13454509756,
			"0.015": 0.919055006871,
			"0.016": 0.808428826719,
			"0.017": 0.557093536276,
			"0.018": 0.705572130105,
			"0.019": 0.138004047982,
			"0.02": 0.0,
			"0.021": 0.0,
			"0.022": 0.0,
			"0.023": 0.0,
			"0.024": 0.0,
			"0.025": 0.0
		}
	}
}
