{
	 "smiles": "NCCCCCCCN", 
	 "Tm": 301.55, 
	 "num_atms": 27, 
	 "gaussian": { 
		 "optdone": 1, 
		 "sigma_profile": "yes", 
		 "theory": "DFT", 
		 "functional": "B3LYP", 
		 "basiset": "6-31G**", 
		 "properties": { 
			 "R2extent": 2940.9692, 
			 "electric_dipole_moment_norm": 2.01011506387, 
			 "electric_quadrupole_moment_norm": 11.4136703781, 
			 "total_energy": -387.096105418, 
			 "HOMO_LUMO_gap": 0.30284, 
			 "cosmo_polarized_energy": -8.5, 
			 "cosmo_cavitation_energy": 27.61, 
			 "cosmo_dispersion_energy": -19.94, 
			 "cosmo_repulsion_energy": 1.71, 
			 "cosmo_total_nonelectrostatic_energy": 9.38, 
			 "SMD_solvation_energy": 2.04 
		},
		"coords": [
			{
				"x": 1.3382579733,
				"y": 3.1297822877,
				"z": -2.7943612777,
				"element": "N" 
			},
			{
				"x": 0.9099346805,
				"y": 2.80780978,
				"z": -1.4280130664,
				"element": "C" 
			},
			{
				"x": -0.5741546668,
				"y": 2.4382304066,
				"z": -1.2684125056,
				"element": "C" 
			},
			{
				"x": -1.0704598977,
				"y": 2.2025143118,
				"z": 0.1706076683,
				"element": "C" 
			},
			{
				"x": -0.4625727727,
				"y": 0.9927374325,
				"z": 0.9157405332,
				"element": "C" 
			},
			{
				"x": 0.7874059589,
				"y": 1.3143132706,
				"z": 1.7531559302,
				"element": "C" 
			},
			{
				"x": 1.4191225647,
				"y": 0.1117732564,
				"z": 2.4802978729,
				"element": "C" 
			},
			{
				"x": 0.719790281,
				"y": -0.3546571222,
				"z": 3.7643758164,
				"element": "C" 
			},
			{
				"x": -0.6172132876,
				"y": -0.9084429166,
				"z": 3.5132609121,
				"element": "N" 
			},
			{
				"x": 1.1541025584,
				"y": 2.3343711672,
				"z": -3.4032086254,
				"element": "H" 
			},
			{
				"x": 0.7675976979,
				"y": 3.8913582315,
				"z": -3.1575159619,
				"element": "H" 
			},
			{
				"x": 1.5434809145,
				"y": 1.9871465128,
				"z": -1.0727668729,
				"element": "H" 
			},
			{
				"x": 1.1427915189,
				"y": 3.6716346084,
				"z": -0.7912092895,
				"element": "H" 
			},
			{
				"x": -0.7798426481,
				"y": 1.5401380056,
				"z": -1.8702517537,
				"element": "H" 
			},
			{
				"x": -1.1735365115,
				"y": 3.244878737,
				"z": -1.7159418653,
				"element": "H" 
			},
			{
				"x": -2.1586254033,
				"y": 2.0719688042,
				"z": 0.1209558075,
				"element": "H" 
			},
			{
				"x": -0.9109735124,
				"y": 3.114698922,
				"z": 0.7637698963,
				"element": "H" 
			},
			{
				"x": -1.2085859839,
				"y": 0.559819661,
				"z": 1.5878656955,
				"element": "H" 
			},
			{
				"x": -0.2173785534,
				"y": 0.2042131751,
				"z": 0.1879475536,
				"element": "H" 
			},
			{
				"x": 0.5296926585,
				"y": 2.0826188413,
				"z": 2.4963810499,
				"element": "H" 
			},
			{
				"x": 1.5547066213,
				"y": 1.7661737062,
				"z": 1.112949901,
				"element": "H" 
			},
			{
				"x": 2.4497143448,
				"y": 0.3700119127,
				"z": 2.7567763767,
				"element": "H" 
			},
			{
				"x": 1.5038897294,
				"y": -0.7377691092,
				"z": 1.7856209252,
				"element": "H" 
			},
			{
				"x": 1.3937959643,
				"y": -1.059784343,
				"z": 4.2843509362,
				"element": "H" 
			},
			{
				"x": 0.5996953681,
				"y": 0.5065386971,
				"z": 4.434773765,
				"element": "H" 
			},
			{
				"x": -0.5351671006,
				"y": -1.7572770728,
				"z": 2.957098616,
				"element": "H" 
			},
			{
				"x": -1.0480684963,
				"y": -1.1855011638,
				"z": 4.3921519625,
				"element": "H" 
			}
		],
		 "valence_orbital": [ 
			{
				"type": "occ",
				"energy": -0.31199,
				"method": "rhf"
			},
			{
				"type": "occ",
				"energy": -0.30381,
				"method": "rhf"
			},
			{
				"type": "occ",
				"energy": -0.30079,
				"method": "rhf"
			},
			{
				"type": "occ",
				"energy": -0.22898,
				"method": "rhf"
			},
			{
				"type": "occ",
				"energy": -0.22322,
				"method": "rhf"
			},
			{
				"type": "unocc",
				"energy": 0.07962,
				"method": "rhf"
			},
			{
				"type": "unocc",
				"energy": 0.0892,
				"method": "rhf"
			},
			{
				"type": "unocc",
				"energy": 0.10778,
				"method": "rhf"
			},
			{
				"type": "unocc",
				"energy": 0.11394,
				"method": "rhf"
			},
			{
				"type": "unocc",
				"energy": 0.11681,
				"method": "rhf"
			}
		],
		"cosmo_sigma_profile": { 
			"-0.025": 0.0,
			"-0.024": 0.0,
			"-0.023": 0.0,
			"-0.022": 0.0,
			"-0.021": 0.0,
			"-0.02": 0.0,
			"-0.019": 0.0,
			"-0.018": 0.0,
			"-0.017": 0.0,
			"-0.016": 0.0,
			"-0.015": 0.0,
			"-0.014": 0.0,
			"-0.013": 0.0,
			"-0.012": 0.0,
			"-0.011": 0.0,
			"-0.01": 0.235955333207,
			"-0.009": 3.66346972418,
			"-0.008": 5.23154772403,
			"-0.007": 5.44001020032,
			"-0.006": 5.8271836308,
			"-0.005": 6.0748018799,
			"-0.004": 6.3487262916,
			"-0.003": 8.17745236348,
			"-0.002": 24.5839783455,
			"-0.001": 40.5628323773,
			"0.0": 36.8152471934,
			"0.001": 24.4615654257,
			"0.002": 12.6542949671,
			"0.003": 4.91632657772,
			"0.004": 3.15845599916,
			"0.005": 2.78936216467,
			"0.006": 1.68451551029,
			"0.007": 1.23765938032,
			"0.008": 1.90772550678,
			"0.009": 1.56455293589,
			"0.01": 1.92357145415,
			"0.011": 1.58402857561,
			"0.012": 1.23894230146,
			"0.013": 2.15178897819,
			"0.014": 1.44285687813,
			"0.015": 0.736257526559,
			"0.016": 1.03000490196,
			"0.017": 0.928182672123,
			"0.018": 0.558290246488,
			"0.019": 0.620705661028,
			"0.02": 0.758114500415,
			"0.021": 0.093147573575,
			"0.022": 0.0,
			"0.023": 0.0,
			"0.024": 0.0,
			"0.025": 0.0
		}
	}
}
