{
	 "smiles": "NC(=NOC(=O)C=C)C1=CC(Cl)=CC=C1", 
	 "Tm": 388.15, 
	 "num_atms": 24, 
	 "gaussian": { 
		 "optdone": 1, 
		 "sigma_profile": "yes", 
		 "theory": "DFT", 
		 "functional": "B3LYP", 
		 "basiset": "6-31G**", 
		 "properties": { 
			 "R2extent": 5177.7351, 
			 "electric_dipole_moment_norm": 5.96486778646, 
			 "electric_quadrupole_moment_norm": 13.6433534983, 
			 "total_energy": -1106.57043021, 
			 "HOMO_LUMO_gap": 0.18268, 
			 "cosmo_polarized_energy": -17.89, 
			 "cosmo_cavitation_energy": 32.09, 
			 "cosmo_dispersion_energy": -22.8, 
			 "cosmo_repulsion_energy": 1.8, 
			 "cosmo_total_nonelectrostatic_energy": 11.09, 
			 "SMD_solvation_energy": 6.78 
		},
		"coords": [
			{
				"x": 1.5073306176,
				"y": -1.2661652384,
				"z": -0.5417708697,
				"element": "N" 
			},
			{
				"x": 0.4935802082,
				"y": -0.5077386318,
				"z": -0.0046913241,
				"element": "C" 
			},
			{
				"x": 0.6282001309,
				"y": 0.3797018056,
				"z": 0.9300625062,
				"element": "N" 
			},
			{
				"x": 2.0150002647,
				"y": 0.4805237857,
				"z": 1.271477841,
				"element": "O" 
			},
			{
				"x": 2.3267545086,
				"y": 1.668490529,
				"z": 1.8840430685,
				"element": "C" 
			},
			{
				"x": 1.5885314888,
				"y": 2.619654119,
				"z": 1.9604553217,
				"element": "O" 
			},
			{
				"x": 3.7073168501,
				"y": 1.6456343516,
				"z": 2.4324112401,
				"element": "C" 
			},
			{
				"x": 4.4697818778,
				"y": 0.5577008491,
				"z": 2.5679413257,
				"element": "C" 
			},
			{
				"x": -0.8904906787,
				"y": -0.7533258231,
				"z": -0.4872666133,
				"element": "C" 
			},
			{
				"x": -1.8468079848,
				"y": 0.2683904984,
				"z": -0.3845078405,
				"element": "C" 
			},
			{
				"x": -3.1391319665,
				"y": 0.0354083079,
				"z": -0.8416361775,
				"element": "C" 
			},
			{
				"x": -4.3358293052,
				"y": 1.3157465027,
				"z": -0.7215483616,
				"element": "Cl" 
			},
			{
				"x": -3.5072203797,
				"y": -1.1893808916,
				"z": -1.4031937321,
				"element": "C" 
			},
			{
				"x": -2.5517001941,
				"y": -2.2001801616,
				"z": -1.4958457068,
				"element": "C" 
			},
			{
				"x": -1.2499724257,
				"y": -1.9902516835,
				"z": -1.0406062117,
				"element": "C" 
			},
			{
				"x": 2.438085556,
				"y": -0.9512005303,
				"z": -0.3073238986,
				"element": "H" 
			},
			{
				"x": 1.3839810703,
				"y": -1.5654341376,
				"z": -1.4977418562,
				"element": "H" 
			},
			{
				"x": 4.0461088664,
				"y": 2.6224600652,
				"z": 2.7644347779,
				"element": "H" 
			},
			{
				"x": 4.1227908639,
				"y": -0.4233339457,
				"z": 2.2613147803,
				"element": "H" 
			},
			{
				"x": 5.4617913616,
				"y": 0.6198285334,
				"z": 3.0048672317,
				"element": "H" 
			},
			{
				"x": -1.5682516492,
				"y": 1.2219054473,
				"z": 0.0474421061,
				"element": "H" 
			},
			{
				"x": -4.520934905,
				"y": -1.3430036935,
				"z": -1.7558533764,
				"element": "H" 
			},
			{
				"x": -2.8284907087,
				"y": -3.161220896,
				"z": -1.918530035,
				"element": "H" 
			},
			{
				"x": -0.5245234672,
				"y": -2.7959091617,
				"z": -1.0858341956,
				"element": "H" 
			}
		],
		 "valence_orbital": [ 
			{
				"type": "occ",
				"energy": -0.28627,
				"method": "rhf"
			},
			{
				"type": "occ",
				"energy": -0.27536,
				"method": "rhf"
			},
			{
				"type": "occ",
				"energy": -0.26964,
				"method": "rhf"
			},
			{
				"type": "occ",
				"energy": -0.25429,
				"method": "rhf"
			},
			{
				"type": "occ",
				"energy": -0.2362,
				"method": "rhf"
			},
			{
				"type": "unocc",
				"energy": -0.05352,
				"method": "rhf"
			},
			{
				"type": "unocc",
				"energy": -0.03834,
				"method": "rhf"
			},
			{
				"type": "unocc",
				"energy": -0.02117,
				"method": "rhf"
			},
			{
				"type": "unocc",
				"energy": 0.02768,
				"method": "rhf"
			},
			{
				"type": "unocc",
				"energy": 0.04149,
				"method": "rhf"
			}
		],
		"cosmo_sigma_profile": { 
			"-0.025": 0.0,
			"-0.024": 0.0,
			"-0.023": 0.0,
			"-0.022": 0.0,
			"-0.021": 0.0,
			"-0.02": 0.0,
			"-0.019": 0.0,
			"-0.018": 0.0,
			"-0.017": 0.0,
			"-0.016": 0.0,
			"-0.015": 0.19666919038,
			"-0.014": 0.968455463654,
			"-0.013": 2.05044605365,
			"-0.012": 1.77886289251,
			"-0.011": 2.30908526058,
			"-0.01": 3.00398262299,
			"-0.009": 2.25784105627,
			"-0.008": 3.83497459822,
			"-0.007": 11.1239335954,
			"-0.006": 14.0266436438,
			"-0.005": 14.4457129516,
			"-0.004": 11.5098762024,
			"-0.003": 14.4611562246,
			"-0.002": 16.465752815,
			"-0.001": 18.0480922706,
			"0.0": 20.9243574011,
			"0.001": 22.7923161159,
			"0.002": 25.5650254067,
			"0.003": 21.2576509272,
			"0.004": 14.3604012698,
			"0.005": 9.17530323902,
			"0.006": 2.91114316134,
			"0.007": 2.4471658811,
			"0.008": 3.14555491648,
			"0.009": 2.958709106,
			"0.01": 2.25636138207,
			"0.011": 4.77513287499,
			"0.012": 4.95700655951,
			"0.013": 2.52511701816,
			"0.014": 1.47826822891,
			"0.015": 1.21774975024,
			"0.016": 0.608982113363,
			"0.017": 0.0587783456545,
			"0.018": 0.0,
			"0.019": 0.0,
			"0.02": 0.0,
			"0.021": 0.0,
			"0.022": 0.0,
			"0.023": 0.0,
			"0.024": 0.0,
			"0.025": 0.0
		}
	}
}
