{
	 "smiles": "[O-][N+](=O)C1=CC=C(C=C1)C1=C(C(=NO1)C(=O)C1=CC=CC=C1)S(=O)(=O)C1=CC=CC=C1", 
	 "Tm": 438.15, 
	 "num_atms": 45, 
	 "gaussian": { 
		 "optdone": 1, 
		 "sigma_profile": "yes", 
		 "theory": "DFT", 
		 "functional": "B3LYP", 
		 "basiset": "6-31G**", 
		 "properties": { 
			 "R2extent": 16318.2706, 
			 "electric_dipole_moment_norm": 3.51938714409, 
			 "electric_quadrupole_moment_norm": 39.769925064, 
			 "total_energy": -1805.5809749, 
			 "HOMO_LUMO_gap": 0.15891, 
			 "cosmo_polarized_energy": -19.91, 
			 "cosmo_cavitation_energy": 52.93, 
			 "cosmo_dispersion_energy": -36.29, 
			 "cosmo_repulsion_energy": 2.66, 
			 "cosmo_total_nonelectrostatic_energy": 19.3, 
			 "SMD_solvation_energy": 10.66 
		},
		"coords": [
			{
				"x": -0.7397519886,
				"y": -7.6153998973,
				"z": 1.6523051006,
				"element": "O" 
			},
			{
				"x": -0.1789023028,
				"y": -7.0601317505,
				"z": 0.7089189334,
				"element": "N" 
			},
			{
				"x": 0.1653830563,
				"y": -7.6157389856,
				"z": -0.3326441032,
				"element": "O" 
			},
			{
				"x": 0.1003344708,
				"y": -5.6183537191,
				"z": 0.8364933536,
				"element": "C" 
			},
			{
				"x": 0.7414491005,
				"y": -4.9593547063,
				"z": -0.2086815584,
				"element": "C" 
			},
			{
				"x": 1.0026235005,
				"y": -3.5971872904,
				"z": -0.0916158803,
				"element": "C" 
			},
			{
				"x": 0.6168868528,
				"y": -2.9041152537,
				"z": 1.0689310859,
				"element": "C" 
			},
			{
				"x": -0.0210306285,
				"y": -3.5998291965,
				"z": 2.1159630722,
				"element": "C" 
			},
			{
				"x": -0.2841380001,
				"y": -4.9586410569,
				"z": 2.0022900316,
				"element": "C" 
			},
			{
				"x": 0.8828581185,
				"y": -1.470823401,
				"z": 1.2546857802,
				"element": "C" 
			},
			{
				"x": 0.9598801788,
				"y": -0.3361502869,
				"z": 0.470177535,
				"element": "C" 
			},
			{
				"x": 1.1903541212,
				"y": 0.7254700614,
				"z": 1.4054184461,
				"element": "C" 
			},
			{
				"x": 1.2642945191,
				"y": 0.2744746352,
				"z": 2.634308196,
				"element": "N" 
			},
			{
				"x": 1.0646689015,
				"y": -1.1027640003,
				"z": 2.5424663593,
				"element": "O" 
			},
			{
				"x": 1.202822778,
				"y": 2.229125532,
				"z": 1.1834355965,
				"element": "C" 
			},
			{
				"x": 0.159644085,
				"y": 2.7529445878,
				"z": 0.8236627152,
				"element": "O" 
			},
			{
				"x": 2.4406965197,
				"y": 2.9928110535,
				"z": 1.4571424698,
				"element": "C" 
			},
			{
				"x": 2.4074981879,
				"y": 4.3857494923,
				"z": 1.2684312033,
				"element": "C" 
			},
			{
				"x": 3.5450156381,
				"y": 5.1487677911,
				"z": 1.5019265903,
				"element": "C" 
			},
			{
				"x": 4.7268827883,
				"y": 4.5295566277,
				"z": 1.9244949061,
				"element": "C" 
			},
			{
				"x": 4.7678013509,
				"y": 3.1467708713,
				"z": 2.1125993597,
				"element": "C" 
			},
			{
				"x": 3.6294655785,
				"y": 2.3770565552,
				"z": 1.8794373859,
				"element": "C" 
			},
			{
				"x": 0.8418856565,
				"y": -0.0982704032,
				"z": -1.30093752,
				"element": "S" 
			},
			{
				"x": 1.367379479,
				"y": 1.2501702072,
				"z": -1.5396602883,
				"element": "O" 
			},
			{
				"x": 1.4508136691,
				"y": -1.2605777242,
				"z": -1.9689470438,
				"element": "O" 
			},
			{
				"x": -0.9194679227,
				"y": -0.1291431086,
				"z": -1.6461914338,
				"element": "C" 
			},
			{
				"x": -1.4370863607,
				"y": -1.1921341767,
				"z": -2.3885726197,
				"element": "C" 
			},
			{
				"x": -2.8013834237,
				"y": -1.2033392171,
				"z": -2.6821144126,
				"element": "C" 
			},
			{
				"x": -3.6219201222,
				"y": -0.1667511778,
				"z": -2.2329015371,
				"element": "C" 
			},
			{
				"x": -3.0855148339,
				"y": 0.8898428932,
				"z": -1.491081529,
				"element": "C" 
			},
			{
				"x": -1.7238049181,
				"y": 0.9212990588,
				"z": -1.1931201661,
				"element": "C" 
			},
			{
				"x": 1.0333855858,
				"y": -5.5151991901,
				"z": -1.0907412296,
				"element": "H" 
			},
			{
				"x": 1.5082975287,
				"y": -3.0711203339,
				"z": -0.8909873733,
				"element": "H" 
			},
			{
				"x": -0.3135267964,
				"y": -3.0681388884,
				"z": 3.0138098153,
				"element": "H" 
			},
			{
				"x": -0.7793838206,
				"y": -5.5103936721,
				"z": 2.7910992983,
				"element": "H" 
			},
			{
				"x": 1.4804851836,
				"y": 4.8406391452,
				"z": 0.9367305989,
				"element": "H" 
			},
			{
				"x": 3.5170861058,
				"y": 6.224147606,
				"z": 1.3545085671,
				"element": "H" 
			},
			{
				"x": 5.6160086588,
				"y": 5.1267696661,
				"z": 2.1055645785,
				"element": "H" 
			},
			{
				"x": 5.6856165471,
				"y": 2.6681511648,
				"z": 2.4398595861,
				"element": "H" 
			},
			{
				"x": 3.6627370777,
				"y": 1.3044219035,
				"z": 2.0322431085,
				"element": "H" 
			},
			{
				"x": -0.7770986629,
				"y": -1.9793497618,
				"z": -2.7345255631,
				"element": "H" 
			},
			{
				"x": -3.2200158615,
				"y": -2.0196638634,
				"z": -3.262644745,
				"element": "H" 
			},
			{
				"x": -4.683288457,
				"y": -0.1805546915,
				"z": -2.4628719046,
				"element": "H" 
			},
			{
				"x": -3.7273635065,
				"y": 1.6946740204,
				"z": -1.1462590305,
				"element": "H" 
			},
			{
				"x": -1.2945776323,
				"y": 1.7334828808,
				"z": -0.614305735,
				"element": "H" 
			}
		],
		 "valence_orbital": [ 
			{
				"type": "occ",
				"energy": -0.27928,
				"method": "rhf"
			},
			{
				"type": "occ",
				"energy": -0.27552,
				"method": "rhf"
			},
			{
				"type": "occ",
				"energy": -0.27139,
				"method": "rhf"
			},
			{
				"type": "occ",
				"energy": -0.269,
				"method": "rhf"
			},
			{
				"type": "occ",
				"energy": -0.26829,
				"method": "rhf"
			},
			{
				"type": "unocc",
				"energy": -0.10938,
				"method": "rhf"
			},
			{
				"type": "unocc",
				"energy": -0.08052,
				"method": "rhf"
			},
			{
				"type": "unocc",
				"energy": -0.05945,
				"method": "rhf"
			},
			{
				"type": "unocc",
				"energy": -0.04656,
				"method": "rhf"
			},
			{
				"type": "unocc",
				"energy": -0.04016,
				"method": "rhf"
			}
		],
		"cosmo_sigma_profile": { 
			"-0.025": 0.0,
			"-0.024": 0.0,
			"-0.023": 0.0,
			"-0.022": 0.0,
			"-0.021": 0.0,
			"-0.02": 0.0,
			"-0.019": 0.0,
			"-0.018": 0.0,
			"-0.017": 0.0,
			"-0.016": 0.0,
			"-0.015": 0.0,
			"-0.014": 0.0,
			"-0.013": 0.0,
			"-0.012": 0.0,
			"-0.011": 0.0,
			"-0.01": 0.0,
			"-0.009": 0.714032801785,
			"-0.008": 4.53258890486,
			"-0.007": 20.7653790191,
			"-0.006": 29.0592264288,
			"-0.005": 31.8277288829,
			"-0.004": 30.2393797676,
			"-0.003": 27.2144664241,
			"-0.002": 30.5017187519,
			"-0.001": 35.1109427443,
			"0.0": 37.5735160069,
			"0.001": 27.9960912885,
			"0.002": 32.4396189352,
			"0.003": 33.0177671412,
			"0.004": 13.2124717251,
			"0.005": 8.6227753902,
			"0.006": 11.3940219836,
			"0.007": 16.0695099348,
			"0.008": 13.2599851439,
			"0.009": 10.6354917419,
			"0.01": 8.92017619414,
			"0.011": 5.62528137749,
			"0.012": 0.171257631729,
			"0.013": 0.0,
			"0.014": 0.0,
			"0.015": 0.0,
			"0.016": 0.0,
			"0.017": 0.0,
			"0.018": 0.0,
			"0.019": 0.0,
			"0.02": 0.0,
			"0.021": 0.0,
			"0.022": 0.0,
			"0.023": 0.0,
			"0.024": 0.0,
			"0.025": 0.0
		}
	}
}
