{
	 "smiles": "CC1=CC(C)=C(CC(=NOCC(O)=O)C2=CC3=C(O2)C=CC=C3)C(C)=C1", 
	 "Tm": 417.15, 
	 "num_atms": 47, 
	 "gaussian": { 
		 "optdone": 1, 
		 "sigma_profile": "yes", 
		 "theory": "DFT", 
		 "functional": "B3LYP", 
		 "basiset": "6-31G**", 
		 "properties": { 
			 "R2extent": 11099.9146, 
			 "electric_dipole_moment_norm": 1.02957343594, 
			 "electric_quadrupole_moment_norm": 16.5993872104, 
			 "total_energy": -1168.50213371, 
			 "HOMO_LUMO_gap": 0.16015, 
			 "cosmo_polarized_energy": -14.8, 
			 "cosmo_cavitation_energy": 50.61, 
			 "cosmo_dispersion_energy": -33.94, 
			 "cosmo_repulsion_energy": 2.58, 
			 "cosmo_total_nonelectrostatic_energy": 19.25, 
			 "SMD_solvation_energy": 9.68 
		},
		"coords": [
			{
				"x": 5.0799941495,
				"y": -2.2336611091,
				"z": 1.9772311818,
				"element": "C" 
			},
			{
				"x": 3.9074008163,
				"y": -1.2811257427,
				"z": 1.9878928101,
				"element": "C" 
			},
			{
				"x": 3.866497592,
				"y": -0.1743969643,
				"z": 1.1392703317,
				"element": "C" 
			},
			{
				"x": 2.8024947188,
				"y": 0.7353622505,
				"z": 1.1515014363,
				"element": "C" 
			},
			{
				"x": 2.8580376802,
				"y": 1.9143533486,
				"z": 0.2041201861,
				"element": "C" 
			},
			{
				"x": 1.7241500084,
				"y": 0.5304748968,
				"z": 2.0396535662,
				"element": "C" 
			},
			{
				"x": 0.5649229779,
				"y": 1.5216540968,
				"z": 2.0968231603,
				"element": "C" 
			},
			{
				"x": -0.2650205399,
				"y": 1.6918061389,
				"z": 0.8308942113,
				"element": "C" 
			},
			{
				"x": -0.2766609711,
				"y": 2.900849744,
				"z": 0.3667850088,
				"element": "N" 
			},
			{
				"x": -1.069622689,
				"y": 3.0240853331,
				"z": -0.7797212075,
				"element": "O" 
			},
			{
				"x": -1.0599162519,
				"y": 4.3686651909,
				"z": -1.2057697278,
				"element": "C" 
			},
			{
				"x": -1.8326090288,
				"y": 4.4385090891,
				"z": -2.5078223955,
				"element": "C" 
			},
			{
				"x": -1.8846699848,
				"y": 5.717275758,
				"z": -2.9455124021,
				"element": "O" 
			},
			{
				"x": -2.3361315441,
				"y": 3.5098466255,
				"z": -3.0937804412,
				"element": "O" 
			},
			{
				"x": -0.9894302112,
				"y": 0.5611086454,
				"z": 0.2690530571,
				"element": "C" 
			},
			{
				"x": -1.7388485595,
				"y": 0.3679601545,
				"z": -0.8648324046,
				"element": "C" 
			},
			{
				"x": -2.18578768,
				"y": -0.995072421,
				"z": -0.8333622661,
				"element": "C" 
			},
			{
				"x": -1.6623876099,
				"y": -1.5412847895,
				"z": 0.3543363272,
				"element": "C" 
			},
			{
				"x": -0.938762272,
				"y": -0.6028390916,
				"z": 1.0264896591,
				"element": "O" 
			},
			{
				"x": -1.8736155054,
				"y": -2.8561827271,
				"z": 0.7565276626,
				"element": "C" 
			},
			{
				"x": -2.651466539,
				"y": -3.64356789,
				"z": -0.0897510566,
				"element": "C" 
			},
			{
				"x": -3.1912800096,
				"y": -3.1274091818,
				"z": -1.2860253845,
				"element": "C" 
			},
			{
				"x": -2.9681103866,
				"y": -1.8104772809,
				"z": -1.6700629424,
				"element": "C" 
			},
			{
				"x": 1.7593174686,
				"y": -0.5733250222,
				"z": 2.9214354525,
				"element": "C" 
			},
			{
				"x": 0.6661721209,
				"y": -0.8318330587,
				"z": 3.9372963166,
				"element": "C" 
			},
			{
				"x": 2.8428316429,
				"y": -1.4568363536,
				"z": 2.8745531876,
				"element": "C" 
			},
			{
				"x": 4.7689779797,
				"y": -3.2542650509,
				"z": 2.2216070793,
				"element": "H" 
			},
			{
				"x": 5.5699855847,
				"y": -2.2543170307,
				"z": 0.9990712701,
				"element": "H" 
			},
			{
				"x": 5.8381657861,
				"y": -1.9409946253,
				"z": 2.7148941015,
				"element": "H" 
			},
			{
				"x": 4.688176241,
				"y": -0.0057386479,
				"z": 0.4460530114,
				"element": "H" 
			},
			{
				"x": 2.1740951251,
				"y": 1.792268217,
				"z": -0.6428865639,
				"element": "H" 
			},
			{
				"x": 3.8676621943,
				"y": 2.0289777327,
				"z": -0.2000961043,
				"element": "H" 
			},
			{
				"x": 2.5798740739,
				"y": 2.8532787977,
				"z": 0.6923674524,
				"element": "H" 
			},
			{
				"x": 0.9362213626,
				"y": 2.5225252152,
				"z": 2.3427114504,
				"element": "H" 
			},
			{
				"x": -0.1172314039,
				"y": 1.2385483854,
				"z": 2.9015824479,
				"element": "H" 
			},
			{
				"x": -0.0371804343,
				"y": 4.7315118556,
				"z": -1.3719395301,
				"element": "H" 
			},
			{
				"x": -1.5294190635,
				"y": 5.0333529179,
				"z": -0.4683077956,
				"element": "H" 
			},
			{
				"x": -2.3836701513,
				"y": 5.7023207953,
				"z": -3.7794682203,
				"element": "H" 
			},
			{
				"x": -1.9419254259,
				"y": 1.1111186756,
				"z": -1.6185832469,
				"element": "H" 
			},
			{
				"x": -1.4495726411,
				"y": -3.2418794171,
				"z": 1.6771052867,
				"element": "H" 
			},
			{
				"x": -2.8450522711,
				"y": -4.6781084039,
				"z": 0.1775025328,
				"element": "H" 
			},
			{
				"x": -3.7920819727,
				"y": -3.7757826188,
				"z": -1.9167975055,
				"element": "H" 
			},
			{
				"x": -3.386180267,
				"y": -1.4185510921,
				"z": -2.5922374323,
				"element": "H" 
			},
			{
				"x": -0.3130712938,
				"y": -0.9393345725,
				"z": 3.4613282358,
				"element": "H" 
			},
			{
				"x": 0.8719642203,
				"y": -1.749821917,
				"z": 4.4944921257,
				"element": "H" 
			},
			{
				"x": 0.5871949533,
				"y": -0.0200808921,
				"z": 4.6708067916,
				"element": "H" 
			},
			{
				"x": 2.854268011,
				"y": -2.306167964,
				"z": 3.5546712864,
				"element": "H" 
			}
		],
		 "valence_orbital": [ 
			{
				"type": "occ",
				"energy": -0.2627,
				"method": "rhf"
			},
			{
				"type": "occ",
				"energy": -0.23596,
				"method": "rhf"
			},
			{
				"type": "occ",
				"energy": -0.22543,
				"method": "rhf"
			},
			{
				"type": "occ",
				"energy": -0.22006,
				"method": "rhf"
			},
			{
				"type": "occ",
				"energy": -0.21202,
				"method": "rhf"
			},
			{
				"type": "unocc",
				"energy": -0.05187,
				"method": "rhf"
			},
			{
				"type": "unocc",
				"energy": -0.00148,
				"method": "rhf"
			},
			{
				"type": "unocc",
				"energy": 0.00655,
				"method": "rhf"
			},
			{
				"type": "unocc",
				"energy": 0.00961,
				"method": "rhf"
			},
			{
				"type": "unocc",
				"energy": 0.01532,
				"method": "rhf"
			}
		],
		"cosmo_sigma_profile": { 
			"-0.025": 0.0,
			"-0.024": 0.0,
			"-0.023": 0.0,
			"-0.022": 0.0,
			"-0.021": 0.0,
			"-0.02": 0.00322381114513,
			"-0.019": 0.590686419804,
			"-0.018": 0.982570472502,
			"-0.017": 0.784040643513,
			"-0.016": 0.754236605057,
			"-0.015": 1.16496774759,
			"-0.014": 0.1365912738,
			"-0.013": 0.355111210468,
			"-0.012": 0.63265485709,
			"-0.011": 0.952205033939,
			"-0.01": 0.964299242513,
			"-0.009": 0.697344754471,
			"-0.008": 3.49189817348,
			"-0.007": 7.50213894333,
			"-0.006": 11.7824016968,
			"-0.005": 17.2207646438,
			"-0.004": 34.3178078045,
			"-0.003": 35.3195367914,
			"-0.002": 32.2659264871,
			"-0.001": 34.3335580641,
			"0.0": 38.5830137722,
			"0.001": 38.751011332,
			"0.002": 26.860072047,
			"0.003": 27.8027025975,
			"0.004": 24.6948652243,
			"0.005": 19.3177626275,
			"0.006": 13.8813323433,
			"0.007": 10.9373451063,
			"0.008": 5.31540787457,
			"0.009": 3.82640738592,
			"0.01": 3.47467511688,
			"0.011": 3.8176611909,
			"0.012": 0.36515871615,
			"0.013": 0.0,
			"0.014": 0.0,
			"0.015": 0.0,
			"0.016": 0.0,
			"0.017": 0.0,
			"0.018": 0.0,
			"0.019": 0.0,
			"0.02": 0.0,
			"0.021": 0.0,
			"0.022": 0.0,
			"0.023": 0.0,
			"0.024": 0.0,
			"0.025": 0.0
		}
	}
}
