{
	 "smiles": "OC(=O)CC(CC(O)=O)C(O)=O", 
	 "Tm": 439.15, 
	 "num_atms": 20, 
	 "gaussian": { 
		 "optdone": 1, 
		 "sigma_profile": "yes", 
		 "theory": "DFT", 
		 "functional": "B3LYP", 
		 "basiset": "6-31G**", 
		 "properties": { 
			 "R2extent": 2283.0129, 
			 "electric_dipole_moment_norm": 3.57123640354, 
			 "electric_quadrupole_moment_norm": 15.4869859908, 
			 "total_energy": -684.842172702, 
			 "HOMO_LUMO_gap": 0.26452, 
			 "cosmo_polarized_energy": -24.22, 
			 "cosmo_cavitation_energy": 25.44, 
			 "cosmo_dispersion_energy": -17.55, 
			 "cosmo_repulsion_energy": 1.45, 
			 "cosmo_total_nonelectrostatic_energy": 9.33, 
			 "SMD_solvation_energy": 7.58 
		},
		"coords": [
			{
				"x": -1.9453250321,
				"y": 2.3528052314,
				"z": -1.40984737,
				"element": "O" 
			},
			{
				"x": -0.9802509874,
				"y": 1.417717533,
				"z": -1.5930303488,
				"element": "C" 
			},
			{
				"x": -0.605828279,
				"y": 1.139157527,
				"z": -2.7058086931,
				"element": "O" 
			},
			{
				"x": -0.4117018965,
				"y": 0.8062906263,
				"z": -0.318623768,
				"element": "C" 
			},
			{
				"x": 0.5030409873,
				"y": -0.3800400665,
				"z": -0.6281479559,
				"element": "C" 
			},
			{
				"x": 1.3264334525,
				"y": -0.857467817,
				"z": 0.6006270664,
				"element": "C" 
			},
			{
				"x": 0.4430415623,
				"y": -1.2894660849,
				"z": 1.7544661437,
				"element": "C" 
			},
			{
				"x": 0.338467247,
				"y": -2.6343888247,
				"z": 1.8369191087,
				"element": "O" 
			},
			{
				"x": -0.1343739575,
				"y": -0.536570255,
				"z": 2.5093965314,
				"element": "O" 
			},
			{
				"x": -0.3159395675,
				"y": -1.537896299,
				"z": -1.1867268119,
				"element": "C" 
			},
			{
				"x": 0.4528103783,
				"y": -2.4022724948,
				"z": -1.8805889472,
				"element": "O" 
			},
			{
				"x": -1.5026386333,
				"y": -1.7020513383,
				"z": -1.0060964125,
				"element": "O" 
			},
			{
				"x": -2.1615358046,
				"y": 2.4318909538,
				"z": -0.4695666257,
				"element": "H" 
			},
			{
				"x": 0.147008665,
				"y": 1.5835305251,
				"z": 0.2179354307,
				"element": "H" 
			},
			{
				"x": -1.2287233651,
				"y": 0.4936007648,
				"z": 0.3384067988,
				"element": "H" 
			},
			{
				"x": 1.2155090216,
				"y": -0.0876104752,
				"z": -1.4042502099,
				"element": "H" 
			},
			{
				"x": 1.9424604479,
				"y": -0.0251942402,
				"z": 0.952335419,
				"element": "H" 
			},
			{
				"x": 1.9789542632,
				"y": -1.6796154482,
				"z": 0.3006186174,
				"element": "H" 
			},
			{
				"x": -0.2819837094,
				"y": -2.8189918114,
				"z": 2.5630462567,
				"element": "H" 
			},
			{
				"x": -0.1336247924,
				"y": -3.1201280062,
				"z": -2.1737642297,
				"element": "H" 
			}
		],
		 "valence_orbital": [ 
			{
				"type": "occ",
				"energy": -0.32813,
				"method": "rhf"
			},
			{
				"type": "occ",
				"energy": -0.31739,
				"method": "rhf"
			},
			{
				"type": "occ",
				"energy": -0.28816,
				"method": "rhf"
			},
			{
				"type": "occ",
				"energy": -0.28417,
				"method": "rhf"
			},
			{
				"type": "occ",
				"energy": -0.2761,
				"method": "rhf"
			},
			{
				"type": "unocc",
				"energy": -0.01158,
				"method": "rhf"
			},
			{
				"type": "unocc",
				"energy": 3e-05,
				"method": "rhf"
			},
			{
				"type": "unocc",
				"energy": 0.00832,
				"method": "rhf"
			},
			{
				"type": "unocc",
				"energy": 0.05614,
				"method": "rhf"
			},
			{
				"type": "unocc",
				"energy": 0.06605,
				"method": "rhf"
			}
		],
		"cosmo_sigma_profile": { 
			"-0.025": 0.0,
			"-0.024": 0.0,
			"-0.023": 0.0,
			"-0.022": 0.0,
			"-0.021": 0.0,
			"-0.02": 0.062176238251,
			"-0.019": 1.36508279008,
			"-0.018": 3.05360712,
			"-0.017": 3.36231830954,
			"-0.016": 2.17102086928,
			"-0.015": 2.90142657933,
			"-0.014": 1.97878696908,
			"-0.013": 2.48611318156,
			"-0.012": 2.86700428221,
			"-0.011": 3.03944516251,
			"-0.01": 2.30190313771,
			"-0.009": 2.07485201667,
			"-0.008": 6.02566286176,
			"-0.007": 10.4350725835,
			"-0.006": 9.91844673009,
			"-0.005": 9.27888154283,
			"-0.004": 8.82965251183,
			"-0.003": 6.6265047542,
			"-0.002": 5.54252807469,
			"-0.001": 7.1683712391,
			"0.0": 6.78176155966,
			"0.001": 7.2156014785,
			"0.002": 7.54131285817,
			"0.003": 8.4930759365,
			"0.004": 10.7980587272,
			"0.005": 7.57182364315,
			"0.006": 5.47943855522,
			"0.007": 6.95943507777,
			"0.008": 9.40490332326,
			"0.009": 7.14692768558,
			"0.01": 9.75580500623,
			"0.011": 12.5294044595,
			"0.012": 7.2556134916,
			"0.013": 1.0592024505,
			"0.014": 0.0,
			"0.015": 0.0,
			"0.016": 0.0,
			"0.017": 0.0,
			"0.018": 0.0,
			"0.019": 0.0,
			"0.02": 0.0,
			"0.021": 0.0,
			"0.022": 0.0,
			"0.023": 0.0,
			"0.024": 0.0,
			"0.025": 0.0
		}
	}
}
