{
	 "smiles": "COC(=O)C1=C(N)C=C(S1)C(C)(C)C", 
	 "Tm": 367.65, 
	 "num_atms": 29, 
	 "gaussian": { 
		 "optdone": 1, 
		 "sigma_profile": "yes", 
		 "theory": "DFT", 
		 "functional": "B3LYP", 
		 "basiset": "6-31G**", 
		 "properties": { 
			 "R2extent": 4319.1058, 
			 "electric_dipole_moment_norm": 4.03571125454, 
			 "electric_quadrupole_moment_norm": 11.4537107009, 
			 "total_energy": -993.510367717, 
			 "HOMO_LUMO_gap": 0.16798, 
			 "cosmo_polarized_energy": -13.07, 
			 "cosmo_cavitation_energy": 32.66, 
			 "cosmo_dispersion_energy": -23.75, 
			 "cosmo_repulsion_energy": 1.83, 
			 "cosmo_total_nonelectrostatic_energy": 10.73, 
			 "SMD_solvation_energy": 6.9 
		},
		"coords": [
			{
				"x": 2.8511280704,
				"y": 2.2247156883,
				"z": -2.486312386,
				"element": "C" 
			},
			{
				"x": 1.5079662556,
				"y": 1.8574797999,
				"z": -2.1389106432,
				"element": "O" 
			},
			{
				"x": 1.4068763228,
				"y": 0.7653035271,
				"z": -1.3110528257,
				"element": "C" 
			},
			{
				"x": 2.388306768,
				"y": 0.1613013856,
				"z": -0.9134708684,
				"element": "O" 
			},
			{
				"x": 0.0311232569,
				"y": 0.4390411914,
				"z": -0.9954053926,
				"element": "C" 
			},
			{
				"x": -1.1608996195,
				"y": 1.041989177,
				"z": -1.3894262627,
				"element": "C" 
			},
			{
				"x": -1.2740543805,
				"y": 2.1887474591,
				"z": -2.1413241345,
				"element": "N" 
			},
			{
				"x": -2.3036267386,
				"y": 0.3533966384,
				"z": -0.8651715314,
				"element": "C" 
			},
			{
				"x": -1.997052221,
				"y": -0.7354195134,
				"z": -0.090755874,
				"element": "C" 
			},
			{
				"x": -0.2686870723,
				"y": -0.9562841023,
				"z": 0.0267766311,
				"element": "S" 
			},
			{
				"x": -2.9515585676,
				"y": -1.6834845066,
				"z": 0.6239403856,
				"element": "C" 
			},
			{
				"x": -2.6890513008,
				"y": -1.6385404768,
				"z": 2.1483232003,
				"element": "C" 
			},
			{
				"x": -4.4125554176,
				"y": -1.2720415264,
				"z": 0.3581001508,
				"element": "C" 
			},
			{
				"x": -2.7371438589,
				"y": -3.1273396349,
				"z": 0.1103110168,
				"element": "C" 
			},
			{
				"x": 3.3498198262,
				"y": 1.4117764989,
				"z": -3.0202063078,
				"element": "H" 
			},
			{
				"x": 3.4303580201,
				"y": 2.4622175146,
				"z": -1.5907280753,
				"element": "H" 
			},
			{
				"x": 2.761170558,
				"y": 3.1031420214,
				"z": -3.1263486058,
				"element": "H" 
			},
			{
				"x": -0.4324951897,
				"y": 2.4825610322,
				"z": -2.6168377788,
				"element": "H" 
			},
			{
				"x": -2.1335265528,
				"y": 2.309463065,
				"z": -2.6551857048,
				"element": "H" 
			},
			{
				"x": -3.3168510484,
				"y": 0.6840877091,
				"z": -1.0615092289,
				"element": "H" 
			},
			{
				"x": -1.6696690247,
				"y": -1.9542436601,
				"z": 2.3893685277,
				"element": "H" 
			},
			{
				"x": -3.3823114415,
				"y": -2.3074835605,
				"z": 2.670063211,
				"element": "H" 
			},
			{
				"x": -2.8283076142,
				"y": -0.6262882064,
				"z": 2.5405084849,
				"element": "H" 
			},
			{
				"x": -5.0892076482,
				"y": -1.9604870786,
				"z": 0.8741060658,
				"element": "H" 
			},
			{
				"x": -4.6193796868,
				"y": -0.2621260308,
				"z": 0.7263162077,
				"element": "H" 
			},
			{
				"x": -4.6521512355,
				"y": -1.3060434428,
				"z": -0.709569017,
				"element": "H" 
			},
			{
				"x": -2.9125723342,
				"y": -3.1901873367,
				"z": -0.9682558664,
				"element": "H" 
			},
			{
				"x": -1.7183987198,
				"y": -3.4754507526,
				"z": 0.3051104454,
				"element": "H" 
			},
			{
				"x": -3.4298494053,
				"y": -3.8126028792,
				"z": 0.6111461763,
				"element": "H" 
			}
		],
		 "valence_orbital": [ 
			{
				"type": "occ",
				"energy": -0.30684,
				"method": "rhf"
			},
			{
				"type": "occ",
				"energy": -0.29069,
				"method": "rhf"
			},
			{
				"type": "occ",
				"energy": -0.26327,
				"method": "rhf"
			},
			{
				"type": "occ",
				"energy": -0.23569,
				"method": "rhf"
			},
			{
				"type": "occ",
				"energy": -0.2,
				"method": "rhf"
			},
			{
				"type": "unocc",
				"energy": -0.03202,
				"method": "rhf"
			},
			{
				"type": "unocc",
				"energy": 0.03255,
				"method": "rhf"
			},
			{
				"type": "unocc",
				"energy": 0.04547,
				"method": "rhf"
			},
			{
				"type": "unocc",
				"energy": 0.08424,
				"method": "rhf"
			},
			{
				"type": "unocc",
				"energy": 0.09253,
				"method": "rhf"
			}
		],
		"cosmo_sigma_profile": { 
			"-0.025": 0.0,
			"-0.024": 0.0,
			"-0.023": 0.0,
			"-0.022": 0.0,
			"-0.021": 0.0,
			"-0.02": 0.0,
			"-0.019": 0.0,
			"-0.018": 0.0,
			"-0.017": 0.0,
			"-0.016": 0.0,
			"-0.015": 0.0,
			"-0.014": 0.325317997958,
			"-0.013": 1.2737402006,
			"-0.012": 1.76046850818,
			"-0.011": 1.4332927144,
			"-0.01": 1.98714433556,
			"-0.009": 2.37002913341,
			"-0.008": 2.13841425564,
			"-0.007": 3.10698169239,
			"-0.006": 5.96650321631,
			"-0.005": 9.43152805328,
			"-0.004": 15.1826067239,
			"-0.003": 34.3988564766,
			"-0.002": 24.285207798,
			"-0.001": 23.7320716104,
			"0.0": 26.9194661614,
			"0.001": 25.1730679521,
			"0.002": 11.0839975612,
			"0.003": 15.511232496,
			"0.004": 15.9631097441,
			"0.005": 9.19273936419,
			"0.006": 5.39748636004,
			"0.007": 3.21885255415,
			"0.008": 2.14398343812,
			"0.009": 2.19519875634,
			"0.01": 2.23836397902,
			"0.011": 3.30328550788,
			"0.012": 3.33696854431,
			"0.013": 4.62998993322,
			"0.014": 0.127802481285,
			"0.015": 0.0,
			"0.016": 0.0,
			"0.017": 0.0,
			"0.018": 0.0,
			"0.019": 0.0,
			"0.02": 0.0,
			"0.021": 0.0,
			"0.022": 0.0,
			"0.023": 0.0,
			"0.024": 0.0,
			"0.025": 0.0
		}
	}
}
