{
	 "smiles": "CC(C)(C)P(C1=C(C2=CC=CC=C2C=C1)C1=C2C=CC=CC2=CC=C1)C(C)(C)C", 
	 "Tm": 421.15, 
	 "num_atms": 60, 
	 "gaussian": { 
		 "optdone": 1, 
		 "sigma_profile": "yes", 
		 "theory": "DFT", 
		 "functional": "B3LYP", 
		 "basiset": "6-31G**", 
		 "properties": { 
			 "R2extent": 11117.9662, 
			 "electric_dipole_moment_norm": 0.78714589499, 
			 "electric_quadrupole_moment_norm": 4.91818581898, 
			 "total_energy": -1427.04314234, 
			 "HOMO_LUMO_gap": 0.15553, 
			 "cosmo_polarized_energy": -10.22, 
			 "cosmo_cavitation_energy": 57.34, 
			 "cosmo_dispersion_energy": -36.78, 
			 "cosmo_repulsion_energy": 2.71, 
			 "cosmo_total_nonelectrostatic_energy": 23.26, 
			 "SMD_solvation_energy": 9.08 
		},
		"coords": [
			{
				"x": 0.3647199785,
				"y": -1.3543066022,
				"z": -3.0399697013,
				"element": "C" 
			},
			{
				"x": 1.5442629067,
				"y": -0.3726532115,
				"z": -2.8657030254,
				"element": "C" 
			},
			{
				"x": 1.3626709392,
				"y": 0.7718619799,
				"z": -3.8792563562,
				"element": "C" 
			},
			{
				"x": 2.8482295312,
				"y": -1.1325509924,
				"z": -3.1859385478,
				"element": "C" 
			},
			{
				"x": 1.555048859,
				"y": 0.0314787034,
				"z": -0.975371577,
				"element": "P" 
			},
			{
				"x": 0.0962309704,
				"y": 1.1852831999,
				"z": -0.7505601201,
				"element": "C" 
			},
			{
				"x": -0.9314642318,
				"y": 0.8233699568,
				"z": 0.1280006468,
				"element": "C" 
			},
			{
				"x": -2.0553213583,
				"y": 1.7021709881,
				"z": 0.3329015511,
				"element": "C" 
			},
			{
				"x": -3.119301078,
				"y": 1.3843586613,
				"z": 1.2251797365,
				"element": "C" 
			},
			{
				"x": -4.1815619174,
				"y": 2.2429880079,
				"z": 1.4031471291,
				"element": "C" 
			},
			{
				"x": -4.240388411,
				"y": 3.4707950998,
				"z": 0.7025145612,
				"element": "C" 
			},
			{
				"x": -3.2267538287,
				"y": 3.8148269662,
				"z": -0.161942211,
				"element": "C" 
			},
			{
				"x": -2.1182589918,
				"y": 2.9505060144,
				"z": -0.3662917791,
				"element": "C" 
			},
			{
				"x": -1.0568242533,
				"y": 3.2945839681,
				"z": -1.2404511004,
				"element": "C" 
			},
			{
				"x": 0.0054323047,
				"y": 2.4446119406,
				"z": -1.4190146174,
				"element": "C" 
			},
			{
				"x": -0.8949602938,
				"y": -0.4531366136,
				"z": 0.9216241888,
				"element": "C" 
			},
			{
				"x": -1.625625243,
				"y": -1.6142589308,
				"z": 0.5034214004,
				"element": "C" 
			},
			{
				"x": -2.4273554028,
				"y": -1.6353038186,
				"z": -0.6717882033,
				"element": "C" 
			},
			{
				"x": -3.1161978254,
				"y": -2.7680388512,
				"z": -1.0448329285,
				"element": "C" 
			},
			{
				"x": -3.0389586605,
				"y": -3.9450335128,
				"z": -0.2622982595,
				"element": "C" 
			},
			{
				"x": -2.2796305833,
				"y": -3.9584345494,
				"z": 0.8850167722,
				"element": "C" 
			},
			{
				"x": -1.5621347956,
				"y": -2.8047550907,
				"z": 1.3034609836,
				"element": "C" 
			},
			{
				"x": -0.7972737777,
				"y": -2.8017484436,
				"z": 2.4997645242,
				"element": "C" 
			},
			{
				"x": -0.1325594767,
				"y": -1.6663917362,
				"z": 2.8988277565,
				"element": "C" 
			},
			{
				"x": -0.1888970501,
				"y": -0.4945690957,
				"z": 2.1100270663,
				"element": "C" 
			},
			{
				"x": 3.0898239699,
				"y": 1.131828803,
				"z": -0.5349837471,
				"element": "C" 
			},
			{
				"x": 3.5900168479,
				"y": 2.1574399012,
				"z": -1.5678044966,
				"element": "C" 
			},
			{
				"x": 4.23747811,
				"y": 0.1419811063,
				"z": -0.2256912176,
				"element": "C" 
			},
			{
				"x": 2.7480398036,
				"y": 1.8711760432,
				"z": 0.7757302857,
				"element": "C" 
			},
			{
				"x": 0.3336946965,
				"y": -1.7121526463,
				"z": -4.0773695794,
				"element": "H" 
			},
			{
				"x": -0.594716799,
				"y": -0.874727284,
				"z": -2.8270496082,
				"element": "H" 
			},
			{
				"x": 0.4568174652,
				"y": -2.2237733305,
				"z": -2.3828494606,
				"element": "H" 
			},
			{
				"x": 0.3944355444,
				"y": 1.2651429001,
				"z": -3.764454492,
				"element": "H" 
			},
			{
				"x": 2.1457853129,
				"y": 1.530514727,
				"z": -3.8116850527,
				"element": "H" 
			},
			{
				"x": 1.3967096077,
				"y": 0.3598495465,
				"z": -4.8970023132,
				"element": "H" 
			},
			{
				"x": 3.0316040129,
				"y": -1.94337577,
				"z": -2.4732424364,
				"element": "H" 
			},
			{
				"x": 2.7744711898,
				"y": -1.5790935419,
				"z": -4.1858006289,
				"element": "H" 
			},
			{
				"x": 3.7225378653,
				"y": -0.4753072263,
				"z": -3.189332136,
				"element": "H" 
			},
			{
				"x": -3.085651844,
				"y": 0.4494106414,
				"z": 1.7719642873,
				"element": "H" 
			},
			{
				"x": -4.9807777546,
				"y": 1.9763371945,
				"z": 2.088738385,
				"element": "H" 
			},
			{
				"x": -5.0835919375,
				"y": 4.1391104152,
				"z": 0.8517458619,
				"element": "H" 
			},
			{
				"x": -3.2569447524,
				"y": 4.7575104751,
				"z": -0.7025219785,
				"element": "H" 
			},
			{
				"x": -1.0938517938,
				"y": 4.2457805185,
				"z": -1.7660606839,
				"element": "H" 
			},
			{
				"x": 0.7998501745,
				"y": 2.7430155847,
				"z": -2.090211872,
				"element": "H" 
			},
			{
				"x": -2.4984201885,
				"y": -0.7351270632,
				"z": -1.2726167436,
				"element": "H" 
			},
			{
				"x": -3.7243117041,
				"y": -2.7594162256,
				"z": -1.9448816205,
				"element": "H" 
			},
			{
				"x": -3.5837988147,
				"y": -4.8336368075,
				"z": -0.5680188692,
				"element": "H" 
			},
			{
				"x": -2.2199320428,
				"y": -4.8558624673,
				"z": 1.4958020549,
				"element": "H" 
			},
			{
				"x": -0.7554713087,
				"y": -3.70862591,
				"z": 3.0975808754,
				"element": "H" 
			},
			{
				"x": 0.4418381993,
				"y": -1.6618164527,
				"z": 3.8207273018,
				"element": "H" 
			},
			{
				"x": 0.3383752718,
				"y": 0.3948689326,
				"z": 2.4409320254,
				"element": "H" 
			},
			{
				"x": 3.9037419026,
				"y": 1.6865855775,
				"z": -2.5031202925,
				"element": "H" 
			},
			{
				"x": 4.4657825727,
				"y": 2.6828219114,
				"z": -1.1629541487,
				"element": "H" 
			},
			{
				"x": 2.8417931633,
				"y": 2.9194459417,
				"z": -1.8004661553,
				"element": "H" 
			},
			{
				"x": 5.1101354133,
				"y": 0.6938654986,
				"z": 0.1474786764,
				"element": "H" 
			},
			{
				"x": 3.9424034596,
				"y": -0.5828615511,
				"z": 0.5388328861,
				"element": "H" 
			},
			{
				"x": 4.5570365489,
				"y": -0.416573899,
				"z": -1.1091776604,
				"element": "H" 
			},
			{
				"x": 1.9766492118,
				"y": 2.6323372911,
				"z": 0.6326784479,
				"element": "H" 
			},
			{
				"x": 2.4033072242,
				"y": 1.1779133584,
				"z": 1.5498319893,
				"element": "H" 
			},
			{
				"x": 3.6477130614,
				"y": 2.3706597695,
				"z": 1.1574842265,
				"element": "H" 
			}
		],
		 "valence_orbital": [ 
			{
				"type": "occ",
				"energy": -0.24111,
				"method": "rhf"
			},
			{
				"type": "occ",
				"energy": -0.2376,
				"method": "rhf"
			},
			{
				"type": "occ",
				"energy": -0.21526,
				"method": "rhf"
			},
			{
				"type": "occ",
				"energy": -0.21309,
				"method": "rhf"
			},
			{
				"type": "occ",
				"energy": -0.1969,
				"method": "rhf"
			},
			{
				"type": "unocc",
				"energy": -0.04137,
				"method": "rhf"
			},
			{
				"type": "unocc",
				"energy": -0.03514,
				"method": "rhf"
			},
			{
				"type": "unocc",
				"energy": -0.01911,
				"method": "rhf"
			},
			{
				"type": "unocc",
				"energy": -0.00175,
				"method": "rhf"
			},
			{
				"type": "unocc",
				"energy": 0.03073,
				"method": "rhf"
			}
		],
		"cosmo_sigma_profile": { 
			"-0.025": 0.0,
			"-0.024": 0.0,
			"-0.023": 0.0,
			"-0.022": 0.0,
			"-0.021": 0.0,
			"-0.02": 0.0,
			"-0.019": 0.0,
			"-0.018": 0.0,
			"-0.017": 0.0,
			"-0.016": 0.0,
			"-0.015": 0.0,
			"-0.014": 0.0,
			"-0.013": 0.0,
			"-0.012": 0.198384278323,
			"-0.011": 0.108057231677,
			"-0.01": 0.0,
			"-0.009": 0.0,
			"-0.008": 0.0,
			"-0.007": 0.0,
			"-0.006": 12.8813316157,
			"-0.005": 26.3610299956,
			"-0.004": 28.7070260545,
			"-0.003": 40.3683487532,
			"-0.002": 48.3496540019,
			"-0.001": 50.2002254703,
			"0.0": 47.7251492137,
			"0.001": 56.5087417858,
			"0.002": 37.2409968966,
			"0.003": 28.4963374568,
			"0.004": 35.1961142818,
			"0.005": 23.4520613476,
			"0.006": 4.97161449946,
			"0.007": 1.51548820172,
			"0.008": 1.65952521733,
			"0.009": 1.28627757417,
			"0.01": 0.738649585437,
			"0.011": 1.0370018901,
			"0.012": 0.508515957238,
			"0.013": 0.782888541479,
			"0.014": 0.708413414996,
			"0.015": 0.610534370395,
			"0.016": 0.0662057812998,
			"0.017": 0.0,
			"0.018": 0.0,
			"0.019": 0.0,
			"0.02": 0.0,
			"0.021": 0.0,
			"0.022": 0.0,
			"0.023": 0.0,
			"0.024": 0.0,
			"0.025": 0.0
		}
	}
}
