{
	 "smiles": "OC1=C(O)C(F)=CC=C1", 
	 "Tm": 345.15, 
	 "num_atms": 14, 
	 "gaussian": { 
		 "optdone": 1, 
		 "sigma_profile": "yes", 
		 "theory": "DFT", 
		 "functional": "B3LYP", 
		 "basiset": "6-31G**", 
		 "properties": { 
			 "R2extent": 1799.1637, 
			 "electric_dipole_moment_norm": 3.7827738156, 
			 "electric_quadrupole_moment_norm": 10.9362441533, 
			 "total_energy": -481.917767663, 
			 "HOMO_LUMO_gap": 0.22262, 
			 "cosmo_polarized_energy": -10.77, 
			 "cosmo_cavitation_energy": 18.67, 
			 "cosmo_dispersion_energy": -14.16, 
			 "cosmo_repulsion_energy": 1.14, 
			 "cosmo_total_nonelectrostatic_energy": 5.65, 
			 "SMD_solvation_energy": 4.44 
		},
		"coords": [
			{
				"x": -0.0982079421,
				"y": -2.836100659,
				"z": 1.1360485716,
				"element": "O" 
			},
			{
				"x": 0.1668166679,
				"y": -2.2462576161,
				"z": -0.0783230888,
				"element": "C" 
			},
			{
				"x": 1.1560231071,
				"y": -1.250850547,
				"z": -0.032432813,
				"element": "C" 
			},
			{
				"x": 1.7826025209,
				"y": -0.9183245273,
				"z": 1.1276546387,
				"element": "O" 
			},
			{
				"x": 1.4852195327,
				"y": -0.6019233487,
				"z": -1.2227049748,
				"element": "C" 
			},
			{
				"x": 2.4335356745,
				"y": 0.3535487944,
				"z": -1.1831366009,
				"element": "F" 
			},
			{
				"x": 0.8656060667,
				"y": -0.9154895026,
				"z": -2.427748567,
				"element": "C" 
			},
			{
				"x": -0.1141689522,
				"y": -1.9076360774,
				"z": -2.4495767045,
				"element": "C" 
			},
			{
				"x": -0.4669235327,
				"y": -2.5765573398,
				"z": -1.2744318976,
				"element": "C" 
			},
			{
				"x": -0.7838492621,
				"y": -3.5067519321,
				"z": 1.0315197341,
				"element": "H" 
			},
			{
				"x": 1.4104176252,
				"y": -1.4805940863,
				"z": 1.8234115678,
				"element": "H" 
			},
			{
				"x": 1.1607292372,
				"y": -0.3791689512,
				"z": -3.3225109528,
				"element": "H" 
			},
			{
				"x": -0.6057076244,
				"y": -2.1624410606,
				"z": -3.3825365001,
				"element": "H" 
			},
			{
				"x": -1.2300931186,
				"y": -3.3509531465,
				"z": -1.2853324126,
				"element": "H" 
			}
		],
		 "valence_orbital": [ 
			{
				"type": "occ",
				"energy": -0.3613,
				"method": "rhf"
			},
			{
				"type": "occ",
				"energy": -0.35536,
				"method": "rhf"
			},
			{
				"type": "occ",
				"energy": -0.32809,
				"method": "rhf"
			},
			{
				"type": "occ",
				"energy": -0.23474,
				"method": "rhf"
			},
			{
				"type": "occ",
				"energy": -0.21473,
				"method": "rhf"
			},
			{
				"type": "unocc",
				"energy": 0.00789,
				"method": "rhf"
			},
			{
				"type": "unocc",
				"energy": 0.01044,
				"method": "rhf"
			},
			{
				"type": "unocc",
				"energy": 0.04603,
				"method": "rhf"
			},
			{
				"type": "unocc",
				"energy": 0.07923,
				"method": "rhf"
			},
			{
				"type": "unocc",
				"energy": 0.12137,
				"method": "rhf"
			}
		],
		"cosmo_sigma_profile": { 
			"-0.025": 0.0,
			"-0.024": 0.0,
			"-0.023": 0.0,
			"-0.022": 0.0,
			"-0.021": 0.0,
			"-0.02": 0.0,
			"-0.019": 0.0128313730936,
			"-0.018": 1.31927623831,
			"-0.017": 0.875162608199,
			"-0.016": 1.01890224293,
			"-0.015": 2.27993497918,
			"-0.014": 0.87213569434,
			"-0.013": 1.31428077861,
			"-0.012": 1.35124286684,
			"-0.011": 1.73783990082,
			"-0.01": 1.95566831959,
			"-0.009": 1.37907020911,
			"-0.008": 1.39114569907,
			"-0.007": 3.72391509887,
			"-0.006": 6.72423828885,
			"-0.005": 6.1332600813,
			"-0.004": 7.29656080281,
			"-0.003": 5.61387526742,
			"-0.002": 5.43871661287,
			"-0.001": 5.71741022706,
			"0.0": 5.93241271907,
			"0.001": 10.6525656562,
			"0.002": 14.7354027097,
			"0.003": 13.1179328641,
			"0.004": 17.626977198,
			"0.005": 13.7417525655,
			"0.006": 5.6379126663,
			"0.007": 3.21964221206,
			"0.008": 2.29583853343,
			"0.009": 2.12887943514,
			"0.01": 1.78046581856,
			"0.011": 2.13030441836,
			"0.012": 0.0806884223607,
			"0.013": 0.0,
			"0.014": 0.0,
			"0.015": 0.0,
			"0.016": 0.0,
			"0.017": 0.0,
			"0.018": 0.0,
			"0.019": 0.0,
			"0.02": 0.0,
			"0.021": 0.0,
			"0.022": 0.0,
			"0.023": 0.0,
			"0.024": 0.0,
			"0.025": 0.0
		}
	}
}
