{
	 "smiles": "[O-][N+](=O)C1=C(C(Cl)=CC=C1)S(Cl)(=O)=O", 
	 "Tm": 355.15, 
	 "num_atms": 17, 
	 "gaussian": { 
		 "optdone": 1, 
		 "sigma_profile": "yes", 
		 "theory": "DFT", 
		 "functional": "B3LYP", 
		 "basiset": "6-31G**", 
		 "properties": { 
			 "R2extent": 4564.7022, 
			 "electric_dipole_moment_norm": 6.77386639151, 
			 "electric_quadrupole_moment_norm": 11.2692676856, 
			 "total_energy": -1904.45523449, 
			 "HOMO_LUMO_gap": 0.18058, 
			 "cosmo_polarized_energy": -13.92, 
			 "cosmo_cavitation_energy": 27.51, 
			 "cosmo_dispersion_energy": -20.34, 
			 "cosmo_repulsion_energy": 1.54, 
			 "cosmo_total_nonelectrostatic_energy": 8.71, 
			 "SMD_solvation_energy": 5.7 
		},
		"coords": [
			{
				"x": 0.0940366934,
				"y": 0.5763687034,
				"z": 1.5411177274,
				"element": "O" 
			},
			{
				"x": -0.2789258783,
				"y": -0.3404460807,
				"z": 0.8217089511,
				"element": "N" 
			},
			{
				"x": -0.6725315077,
				"y": -1.4428948191,
				"z": 1.1800058987,
				"element": "O" 
			},
			{
				"x": -0.1251839314,
				"y": -0.1314072846,
				"z": -0.6396397227,
				"element": "C" 
			},
			{
				"x": -0.6897582599,
				"y": 0.9573684338,
				"z": -1.327412932,
				"element": "C" 
			},
			{
				"x": -0.3023530486,
				"y": 1.1614116548,
				"z": -2.6656174321,
				"element": "C" 
			},
			{
				"x": -0.8156861914,
				"y": 2.5281966802,
				"z": -3.6110433012,
				"element": "Cl" 
			},
			{
				"x": 0.5647964489,
				"y": 0.2588819284,
				"z": -3.2924361276,
				"element": "C" 
			},
			{
				"x": 1.0508906196,
				"y": -0.8462344444,
				"z": -2.6051476393,
				"element": "C" 
			},
			{
				"x": 0.7096038037,
				"y": -1.0450446959,
				"z": -1.269312243,
				"element": "C" 
			},
			{
				"x": -2.007899176,
				"y": 1.932521157,
				"z": -0.5422818758,
				"element": "S" 
			},
			{
				"x": -0.9434138916,
				"y": 3.6131161438,
				"z": 0.1424439513,
				"element": "Cl" 
			},
			{
				"x": -2.4784699854,
				"y": 1.1923231094,
				"z": 0.6170004238,
				"element": "O" 
			},
			{
				"x": -2.9348779319,
				"y": 2.3990349955,
				"z": -1.5585801129,
				"element": "O" 
			},
			{
				"x": 0.8436366326,
				"y": 0.439311016,
				"z": -4.3240805875,
				"element": "H" 
			},
			{
				"x": 1.7104243139,
				"y": -1.5469392739,
				"z": -3.1062665063,
				"element": "H" 
			},
			{
				"x": 1.0934112903,
				"y": -1.8842672235,
				"z": -0.7015584717,
				"element": "H" 
			}
		],
		 "valence_orbital": [ 
			{
				"type": "occ",
				"energy": -0.3288,
				"method": "rhf"
			},
			{
				"type": "occ",
				"energy": -0.32641,
				"method": "rhf"
			},
			{
				"type": "occ",
				"energy": -0.32058,
				"method": "rhf"
			},
			{
				"type": "occ",
				"energy": -0.30873,
				"method": "rhf"
			},
			{
				"type": "occ",
				"energy": -0.29172,
				"method": "rhf"
			},
			{
				"type": "unocc",
				"energy": -0.11114,
				"method": "rhf"
			},
			{
				"type": "unocc",
				"energy": -0.09097,
				"method": "rhf"
			},
			{
				"type": "unocc",
				"energy": -0.07604,
				"method": "rhf"
			},
			{
				"type": "unocc",
				"energy": -0.05819,
				"method": "rhf"
			},
			{
				"type": "unocc",
				"energy": -0.01211,
				"method": "rhf"
			}
		],
		"cosmo_sigma_profile": { 
			"-0.025": 0.0,
			"-0.024": 0.0,
			"-0.023": 0.0,
			"-0.022": 0.0,
			"-0.021": 0.0,
			"-0.02": 0.0,
			"-0.019": 0.0,
			"-0.018": 0.0,
			"-0.017": 0.0,
			"-0.016": 0.0,
			"-0.015": 0.0,
			"-0.014": 0.0,
			"-0.013": 0.0,
			"-0.012": 0.0,
			"-0.011": 0.46224750825,
			"-0.01": 4.61448976095,
			"-0.009": 9.44643061,
			"-0.008": 7.12577283473,
			"-0.007": 6.12525055163,
			"-0.006": 6.56906687718,
			"-0.005": 6.29040173587,
			"-0.004": 13.2003443061,
			"-0.003": 17.6181577632,
			"-0.002": 17.0149865491,
			"-0.001": 16.9484306499,
			"0.0": 12.2071024954,
			"0.001": 15.0146065962,
			"0.002": 21.8571194202,
			"0.003": 12.9967849403,
			"0.004": 7.79197594304,
			"0.005": 10.4759555648,
			"0.006": 15.3504116237,
			"0.007": 15.9891692127,
			"0.008": 9.05766994448,
			"0.009": 0.696310177209,
			"0.01": 0.0,
			"0.011": 0.0,
			"0.012": 0.0,
			"0.013": 0.0,
			"0.014": 0.0,
			"0.015": 0.0,
			"0.016": 0.0,
			"0.017": 0.0,
			"0.018": 0.0,
			"0.019": 0.0,
			"0.02": 0.0,
			"0.021": 0.0,
			"0.022": 0.0,
			"0.023": 0.0,
			"0.024": 0.0,
			"0.025": 0.0
		}
	}
}
