{
	 "smiles": "BrC1=CC=C(Br)C2=CC=CC=C12", 
	 "Tm": 355.15, 
	 "num_atms": 18, 
	 "gaussian": { 
		 "optdone": 1, 
		 "sigma_profile": "yes", 
		 "theory": "DFT", 
		 "functional": "B3LYP", 
		 "basiset": "6-31G**", 
		 "properties": { 
			 "R2extent": 4825.7838, 
			 "electric_dipole_moment_norm": 0.695639432465, 
			 "electric_quadrupole_moment_norm": 7.82173729295, 
			 "total_energy": -5527.49776873, 
			 "HOMO_LUMO_gap": 0.16471, 
			 "cosmo_polarized_energy": -4.05, 
			 "cosmo_cavitation_energy": 26.07, 
			 "cosmo_dispersion_energy": -20.43, 
			 "cosmo_repulsion_energy": 1.59, 
			 "cosmo_total_nonelectrostatic_energy": 7.23, 
			 "SMD_solvation_energy": 2.06 
		},
		"coords": [
			{
				"x": -0.8401620955,
				"y": -3.4398961839,
				"z": -0.7516546314,
				"element": "Br" 
			},
			{
				"x": 0.2601118484,
				"y": -2.0449221624,
				"z": -0.0384373873,
				"element": "C" 
			},
			{
				"x": 1.242820092,
				"y": -2.399799142,
				"z": 0.8535901429,
				"element": "C" 
			},
			{
				"x": 2.0824561236,
				"y": -1.4110817617,
				"z": 1.4098442284,
				"element": "C" 
			},
			{
				"x": 1.9178535528,
				"y": -0.0928440431,
				"z": 1.0598068328,
				"element": "C" 
			},
			{
				"x": 3.0935621375,
				"y": 1.1922549129,
				"z": 1.8543943484,
				"element": "Br" 
			},
			{
				"x": 0.9118724503,
				"y": 0.3206639603,
				"z": 0.138691947,
				"element": "C" 
			},
			{
				"x": 0.7136652866,
				"y": 1.673245501,
				"z": -0.2453333323,
				"element": "C" 
			},
			{
				"x": -0.2718197227,
				"y": 2.0232512471,
				"z": -1.1389638372,
				"element": "C" 
			},
			{
				"x": -1.1123137702,
				"y": 1.0334923171,
				"z": -1.695826325,
				"element": "C" 
			},
			{
				"x": -0.9517010429,
				"y": -0.2878576285,
				"z": -1.3486966396,
				"element": "C" 
			},
			{
				"x": 0.053485709,
				"y": -0.6901469286,
				"z": -0.4299985367,
				"element": "C" 
			},
			{
				"x": 1.3778066012,
				"y": -3.4378626353,
				"z": 1.1337441106,
				"element": "H" 
			},
			{
				"x": 2.8557366969,
				"y": -1.6975081633,
				"z": 2.1128983559,
				"element": "H" 
			},
			{
				"x": 1.3590809962,
				"y": 2.4310856888,
				"z": 0.1826935516,
				"element": "H" 
			},
			{
				"x": -0.4032562856,
				"y": 3.0647105048,
				"z": -1.4166627152,
				"element": "H" 
			},
			{
				"x": -1.8885274156,
				"y": 1.3156638934,
				"z": -2.4007388885,
				"element": "H" 
			},
			{
				"x": -1.595471162,
				"y": -1.0481493765,
				"z": -1.7748512245,
				"element": "H" 
			}
		],
		 "valence_orbital": [ 
			{
				"type": "occ",
				"energy": -0.29328,
				"method": "rhf"
			},
			{
				"type": "occ",
				"energy": -0.29153,
				"method": "rhf"
			},
			{
				"type": "occ",
				"energy": -0.27267,
				"method": "rhf"
			},
			{
				"type": "occ",
				"energy": -0.26221,
				"method": "rhf"
			},
			{
				"type": "occ",
				"energy": -0.22325,
				"method": "rhf"
			},
			{
				"type": "unocc",
				"energy": -0.05854,
				"method": "rhf"
			},
			{
				"type": "unocc",
				"energy": -0.02817,
				"method": "rhf"
			},
			{
				"type": "unocc",
				"energy": -0.00122,
				"method": "rhf"
			},
			{
				"type": "unocc",
				"energy": 0.00609,
				"method": "rhf"
			},
			{
				"type": "unocc",
				"energy": 0.01756,
				"method": "rhf"
			}
		],
		"cosmo_sigma_profile": { 
			"-0.025": 0.0,
			"-0.024": 0.0,
			"-0.023": 0.0,
			"-0.022": 0.0,
			"-0.021": 0.0,
			"-0.02": 0.0,
			"-0.019": 0.0,
			"-0.018": 0.0,
			"-0.017": 0.0,
			"-0.016": 0.0,
			"-0.015": 0.0,
			"-0.014": 0.0,
			"-0.013": 0.0,
			"-0.012": 0.0,
			"-0.011": 0.0,
			"-0.01": 0.0,
			"-0.009": 0.0,
			"-0.008": 1.75878601684,
			"-0.007": 5.42651522291,
			"-0.006": 9.6626485888,
			"-0.005": 11.5088359892,
			"-0.004": 12.7860858127,
			"-0.003": 11.7214175073,
			"-0.002": 12.0013130208,
			"-0.001": 13.713756392,
			"0.0": 17.8681019246,
			"0.001": 33.1048822634,
			"0.002": 35.9564487033,
			"0.003": 24.5961834731,
			"0.004": 23.2128118006,
			"0.005": 3.6568487584,
			"0.006": 0.0,
			"0.007": 0.0,
			"0.008": 0.0,
			"0.009": 0.0,
			"0.01": 0.0,
			"0.011": 0.0,
			"0.012": 0.0,
			"0.013": 0.0,
			"0.014": 0.0,
			"0.015": 0.0,
			"0.016": 0.0,
			"0.017": 0.0,
			"0.018": 0.0,
			"0.019": 0.0,
			"0.02": 0.0,
			"0.021": 0.0,
			"0.022": 0.0,
			"0.023": 0.0,
			"0.024": 0.0,
			"0.025": 0.0
		}
	}
}
