{
	 "smiles": "OC(=O)C1=C(Cl)C2=CC=CC=C2S1", 
	 "Tm": 539.15, 
	 "num_atms": 18, 
	 "gaussian": { 
		 "optdone": 1, 
		 "sigma_profile": "yes", 
		 "theory": "DFT", 
		 "functional": "B3LYP", 
		 "basiset": "6-31G**", 
		 "properties": { 
			 "R2extent": 4423.383, 
			 "electric_dipole_moment_norm": 5.83471739333, 
			 "electric_quadrupole_moment_norm": 20.2529519216, 
			 "total_energy": -1354.79791443, 
			 "HOMO_LUMO_gap": 0.16364, 
			 "cosmo_polarized_energy": -13.55, 
			 "cosmo_cavitation_energy": 25.88, 
			 "cosmo_dispersion_energy": -20.06, 
			 "cosmo_repulsion_energy": 1.51, 
			 "cosmo_total_nonelectrostatic_energy": 7.33, 
			 "SMD_solvation_energy": 4.84 
		},
		"coords": [
			{
				"x": -4.037044634,
				"y": -0.2445486225,
				"z": -2.7858622753,
				"element": "O" 
			},
			{
				"x": -3.139415241,
				"y": -1.2645867551,
				"z": -2.712372502,
				"element": "C" 
			},
			{
				"x": -3.3616044653,
				"y": -2.2978504938,
				"z": -3.2949182677,
				"element": "O" 
			},
			{
				"x": -1.9170666243,
				"y": -1.0314574198,
				"z": -1.8988622314,
				"element": "C" 
			},
			{
				"x": -0.8803742107,
				"y": -1.9034782536,
				"z": -1.678701857,
				"element": "C" 
			},
			{
				"x": -0.7688175457,
				"y": -3.5069232486,
				"z": -2.3178491044,
				"element": "Cl" 
			},
			{
				"x": 0.1678614653,
				"y": -1.379751896,
				"z": -0.8389608967,
				"element": "C" 
			},
			{
				"x": 1.3595566181,
				"y": -1.997944446,
				"z": -0.4171839776,
				"element": "C" 
			},
			{
				"x": 2.2328820483,
				"y": -1.2963473035,
				"z": 0.3989723368,
				"element": "C" 
			},
			{
				"x": 1.9406120033,
				"y": 0.019623746,
				"z": 0.8068566463,
				"element": "C" 
			},
			{
				"x": 0.7704188918,
				"y": 0.6509693549,
				"z": 0.4033353681,
				"element": "C" 
			},
			{
				"x": -0.1097476755,
				"y": -0.058656198,
				"z": -0.420328724,
				"element": "C" 
			},
			{
				"x": -1.6382873326,
				"y": 0.5032966107,
				"z": -1.0627032722,
				"element": "S" 
			},
			{
				"x": -3.7626022671,
				"y": 0.5357435222,
				"z": -2.2834924427,
				"element": "H" 
			},
			{
				"x": 1.5786504445,
				"y": -3.0116837853,
				"z": -0.7349332539,
				"element": "H" 
			},
			{
				"x": 3.1544382112,
				"y": -1.7652643195,
				"z": 0.7291543204,
				"element": "H" 
			},
			{
				"x": 2.6391318829,
				"y": 0.550542533,
				"z": 1.4463927545,
				"element": "H" 
			},
			{
				"x": 0.545908431,
				"y": 1.665016975,
				"z": 0.7180573789,
				"element": "H" 
			}
		],
		 "valence_orbital": [ 
			{
				"type": "occ",
				"energy": -0.32054,
				"method": "rhf"
			},
			{
				"type": "occ",
				"energy": -0.29408,
				"method": "rhf"
			},
			{
				"type": "occ",
				"energy": -0.2763,
				"method": "rhf"
			},
			{
				"type": "occ",
				"energy": -0.26318,
				"method": "rhf"
			},
			{
				"type": "occ",
				"energy": -0.24035,
				"method": "rhf"
			},
			{
				"type": "unocc",
				"energy": -0.07671,
				"method": "rhf"
			},
			{
				"type": "unocc",
				"energy": -0.02635,
				"method": "rhf"
			},
			{
				"type": "unocc",
				"energy": -0.02531,
				"method": "rhf"
			},
			{
				"type": "unocc",
				"energy": 0.00236,
				"method": "rhf"
			},
			{
				"type": "unocc",
				"energy": 0.0228,
				"method": "rhf"
			}
		],
		"cosmo_sigma_profile": { 
			"-0.025": 0.0,
			"-0.024": 0.0,
			"-0.023": 0.0,
			"-0.022": 0.0,
			"-0.021": 0.0,
			"-0.02": 0.0,
			"-0.019": 0.0,
			"-0.018": 0.392980960149,
			"-0.017": 0.782474421812,
			"-0.016": 0.965801143619,
			"-0.015": 0.989177361998,
			"-0.014": 0.644480319582,
			"-0.013": 0.698662328625,
			"-0.012": 1.12209515405,
			"-0.011": 1.12113538108,
			"-0.01": 0.808976616865,
			"-0.009": 1.57739155782,
			"-0.008": 3.5036855855,
			"-0.007": 6.92216307465,
			"-0.006": 11.5640884398,
			"-0.005": 10.5683344223,
			"-0.004": 10.1811608555,
			"-0.003": 9.80319538462,
			"-0.002": 12.2062407097,
			"-0.001": 21.7493549369,
			"0.0": 21.2117873169,
			"0.001": 18.0989743175,
			"0.002": 19.5892406671,
			"0.003": 19.4944157416,
			"0.004": 8.10101749923,
			"0.005": 3.39566100165,
			"0.006": 2.6309447087,
			"0.007": 2.0912407511,
			"0.008": 3.53762262905,
			"0.009": 4.11981421305,
			"0.01": 5.34875528569,
			"0.011": 6.20378595495,
			"0.012": 3.4936927543,
			"0.013": 0.360143163755,
			"0.014": 0.0,
			"0.015": 0.0,
			"0.016": 0.0,
			"0.017": 0.0,
			"0.018": 0.0,
			"0.019": 0.0,
			"0.02": 0.0,
			"0.021": 0.0,
			"0.022": 0.0,
			"0.023": 0.0,
			"0.024": 0.0,
			"0.025": 0.0
		}
	}
}
