{
	 "smiles": "CCN(CC)S(=O)(=O)C1=CC(NC(=O)CCl)=C(OC(C)C)C=C1", 
	 "Tm": 497.15, 
	 "num_atms": 46, 
	 "gaussian": { 
		 "optdone": 1, 
		 "sigma_profile": "yes", 
		 "theory": "DFT", 
		 "functional": "B3LYP", 
		 "basiset": "6-31G**", 
		 "properties": { 
			 "R2extent": 9989.0072, 
			 "electric_dipole_moment_norm": 6.30038120593, 
			 "electric_quadrupole_moment_norm": 36.7366625124, 
			 "total_energy": -1854.18320887, 
			 "HOMO_LUMO_gap": 0.18792, 
			 "cosmo_polarized_energy": -20.92, 
			 "cosmo_cavitation_energy": 50.16, 
			 "cosmo_dispersion_energy": -32.93, 
			 "cosmo_repulsion_energy": 2.5, 
			 "cosmo_total_nonelectrostatic_energy": 19.73, 
			 "SMD_solvation_energy": 8.19 
		},
		"coords": [
			{
				"x": 2.8644618022,
				"y": -3.6230479702,
				"z": 1.5936932432,
				"element": "C" 
			},
			{
				"x": 2.280925301,
				"y": -2.7793613608,
				"z": 2.7260886032,
				"element": "C" 
			},
			{
				"x": 1.9913046223,
				"y": -1.3931567881,
				"z": 2.2775567317,
				"element": "N" 
			},
			{
				"x": 3.1860169086,
				"y": -0.5140807035,
				"z": 2.2271505049,
				"element": "C" 
			},
			{
				"x": 3.1483326083,
				"y": 0.5308000974,
				"z": 1.1136362887,
				"element": "C" 
			},
			{
				"x": 0.6077043302,
				"y": -0.6718382238,
				"z": 2.974759064,
				"element": "S" 
			},
			{
				"x": 1.0082751551,
				"y": 0.4312335102,
				"z": 3.8616625141,
				"element": "O" 
			},
			{
				"x": -0.2415872724,
				"y": -1.7597042451,
				"z": 3.4738519608,
				"element": "O" 
			},
			{
				"x": -0.238248327,
				"y": 0.0713216119,
				"z": 1.577415299,
				"element": "C" 
			},
			{
				"x": -0.708899075,
				"y": -0.7425563843,
				"z": 0.5405880249,
				"element": "C" 
			},
			{
				"x": -1.4014472542,
				"y": -0.1706444005,
				"z": -0.5235003817,
				"element": "C" 
			},
			{
				"x": -1.9102270037,
				"y": -0.8923612235,
				"z": -1.6205970731,
				"element": "N" 
			},
			{
				"x": -1.4080365307,
				"y": -1.9306614719,
				"z": -2.3773984291,
				"element": "C" 
			},
			{
				"x": -2.0035633885,
				"y": -2.3142331772,
				"z": -3.3715479426,
				"element": "O" 
			},
			{
				"x": -0.0823638753,
				"y": -2.5674716622,
				"z": -1.9765740104,
				"element": "C" 
			},
			{
				"x": -0.3557973222,
				"y": -4.0242797634,
				"z": -0.9292399417,
				"element": "Cl" 
			},
			{
				"x": -1.6939027211,
				"y": 1.2229663863,
				"z": -0.4959984451,
				"element": "C" 
			},
			{
				"x": -2.4381266579,
				"y": 1.6603903344,
				"z": -1.5463120835,
				"element": "O" 
			},
			{
				"x": -2.8506521021,
				"y": 3.044794866,
				"z": -1.6498299844,
				"element": "C" 
			},
			{
				"x": -1.7134134904,
				"y": 3.8910164433,
				"z": -2.2187529006,
				"element": "C" 
			},
			{
				"x": -4.0870438361,
				"y": 3.0385405241,
				"z": -2.539962045,
				"element": "C" 
			},
			{
				"x": -1.2432033228,
				"y": 2.0091832143,
				"z": 0.5645614101,
				"element": "C" 
			},
			{
				"x": -0.5047729127,
				"y": 1.4343849805,
				"z": 1.6024393295,
				"element": "C" 
			},
			{
				"x": 3.0811482213,
				"y": -4.6312177526,
				"z": 1.9626145867,
				"element": "H" 
			},
			{
				"x": 3.8001335283,
				"y": -3.2082268184,
				"z": 1.2040580394,
				"element": "H" 
			},
			{
				"x": 2.1539456725,
				"y": -3.7060859282,
				"z": 0.7669918928,
				"element": "H" 
			},
			{
				"x": 1.3464502218,
				"y": -3.2203113437,
				"z": 3.0713798555,
				"element": "H" 
			},
			{
				"x": 2.9669154259,
				"y": -2.7580262954,
				"z": 3.5857498256,
				"element": "H" 
			},
			{
				"x": 3.3444564883,
				"y": -0.0317807689,
				"z": 3.1993874053,
				"element": "H" 
			},
			{
				"x": 4.0331450688,
				"y": -1.1825810338,
				"z": 2.0541866545,
				"element": "H" 
			},
			{
				"x": 4.1060007852,
				"y": 1.0606954367,
				"z": 1.0781637875,
				"element": "H" 
			},
			{
				"x": 2.3648707295,
				"y": 1.2739252451,
				"z": 1.2768047932,
				"element": "H" 
			},
			{
				"x": 2.978253486,
				"y": 0.0588151651,
				"z": 0.1412374152,
				"element": "H" 
			},
			{
				"x": -0.5588332077,
				"y": -1.814480391,
				"z": 0.5838866701,
				"element": "H" 
			},
			{
				"x": -2.6998540238,
				"y": -0.4520582459,
				"z": -2.0798415576,
				"element": "H" 
			},
			{
				"x": 0.5823357641,
				"y": -1.8978411161,
				"z": -1.4313507427,
				"element": "H" 
			},
			{
				"x": 0.3904344799,
				"y": -2.9259722581,
				"z": -2.8888332575,
				"element": "H" 
			},
			{
				"x": -3.1297821249,
				"y": 3.3982841599,
				"z": -0.6494401411,
				"element": "H" 
			},
			{
				"x": -0.818576154,
				"y": 3.8416167379,
				"z": -1.5929863086,
				"element": "H" 
			},
			{
				"x": -1.4500166177,
				"y": 3.5406182967,
				"z": -3.2213821716,
				"element": "H" 
			},
			{
				"x": -2.022100813,
				"y": 4.9387288158,
				"z": -2.2892533456,
				"element": "H" 
			},
			{
				"x": -4.4705439428,
				"y": 4.0561749432,
				"z": -2.6584825027,
				"element": "H" 
			},
			{
				"x": -4.8756424116,
				"y": 2.4196697808,
				"z": -2.1038817141,
				"element": "H" 
			},
			{
				"x": -3.8432017856,
				"y": 2.6439619792,
				"z": -3.531153168,
				"element": "H" 
			},
			{
				"x": -1.4529324816,
				"y": 3.0709356664,
				"z": 0.5918201678,
				"element": "H" 
			},
			{
				"x": -0.1461419446,
				"y": 2.0365211314,
				"z": 2.429134079,
				"element": "H" 
			}
		],
		 "valence_orbital": [ 
			{
				"type": "occ",
				"energy": -0.2957,
				"method": "rhf"
			},
			{
				"type": "occ",
				"energy": -0.26871,
				"method": "rhf"
			},
			{
				"type": "occ",
				"energy": -0.26506,
				"method": "rhf"
			},
			{
				"type": "occ",
				"energy": -0.24658,
				"method": "rhf"
			},
			{
				"type": "occ",
				"energy": -0.23046,
				"method": "rhf"
			},
			{
				"type": "unocc",
				"energy": -0.04254,
				"method": "rhf"
			},
			{
				"type": "unocc",
				"energy": -0.03284,
				"method": "rhf"
			},
			{
				"type": "unocc",
				"energy": -0.01338,
				"method": "rhf"
			},
			{
				"type": "unocc",
				"energy": 0.05086,
				"method": "rhf"
			},
			{
				"type": "unocc",
				"energy": 0.05652,
				"method": "rhf"
			}
		],
		"cosmo_sigma_profile": { 
			"-0.025": 0.0,
			"-0.024": 0.0,
			"-0.023": 0.0,
			"-0.022": 0.0,
			"-0.021": 0.0,
			"-0.02": 0.0,
			"-0.019": 0.0,
			"-0.018": 0.0,
			"-0.017": 0.0,
			"-0.016": 0.0,
			"-0.015": 0.0,
			"-0.014": 0.0,
			"-0.013": 0.0,
			"-0.012": 0.173086191924,
			"-0.011": 0.579720804815,
			"-0.01": 0.53355472605,
			"-0.009": 2.00148401658,
			"-0.008": 5.90811771736,
			"-0.007": 9.26304770101,
			"-0.006": 12.6219532173,
			"-0.005": 17.2754890033,
			"-0.004": 35.486147162,
			"-0.003": 41.8374258804,
			"-0.002": 42.0644866342,
			"-0.001": 39.8527765231,
			"0.0": 45.9755336446,
			"0.001": 37.3573268017,
			"0.002": 22.8214774816,
			"0.003": 13.3280961295,
			"0.004": 10.3815077079,
			"0.005": 11.422537222,
			"0.006": 6.18812898845,
			"0.007": 2.77928028898,
			"0.008": 3.91649504988,
			"0.009": 4.90599824093,
			"0.01": 8.27925876869,
			"0.011": 10.0114718376,
			"0.012": 9.10132419204,
			"0.013": 3.07260732021,
			"0.014": 0.130173234941,
			"0.015": 0.0,
			"0.016": 0.0,
			"0.017": 0.0,
			"0.018": 0.0,
			"0.019": 0.0,
			"0.02": 0.0,
			"0.021": 0.0,
			"0.022": 0.0,
			"0.023": 0.0,
			"0.024": 0.0,
			"0.025": 0.0
		}
	}
}
