{
	 "smiles": "CCCCC(CC)COC(=O)C=C", 
	 "Tm": 183.15, 
	 "num_atms": 33, 
	 "gaussian": { 
		 "optdone": 1, 
		 "sigma_profile": "yes", 
		 "theory": "DFT", 
		 "functional": "B3LYP", 
		 "basiset": "6-31G**", 
		 "properties": { 
			 "R2extent": 3663.5437, 
			 "electric_dipole_moment_norm": 2.22562648484, 
			 "electric_quadrupole_moment_norm": 11.3334807928, 
			 "total_energy": -581.678855664, 
			 "HOMO_LUMO_gap": 0.2243, 
			 "cosmo_polarized_energy": -6.58, 
			 "cosmo_cavitation_energy": 34.58, 
			 "cosmo_dispersion_energy": -22.96, 
			 "cosmo_repulsion_energy": 1.85, 
			 "cosmo_total_nonelectrostatic_energy": 13.46, 
			 "SMD_solvation_energy": 7.29 
		},
		"coords": [
			{
				"x": -4.1300959733,
				"y": -1.9231518945,
				"z": -0.371872193,
				"element": "C" 
			},
			{
				"x": -3.0682026226,
				"y": -0.9984201874,
				"z": -0.9794471607,
				"element": "C" 
			},
			{
				"x": -2.4777418843,
				"y": 0.0301848364,
				"z": 0.0008760822,
				"element": "C" 
			},
			{
				"x": -1.7231563095,
				"y": -0.5564403618,
				"z": 1.2082864493,
				"element": "C" 
			},
			{
				"x": -0.4607361643,
				"y": -1.4012979731,
				"z": 0.9231718772,
				"element": "C" 
			},
			{
				"x": 0.0574542735,
				"y": -2.0284222599,
				"z": 2.2401864333,
				"element": "C" 
			},
			{
				"x": 1.0551726893,
				"y": -3.1799013123,
				"z": 2.0662565516,
				"element": "C" 
			},
			{
				"x": 0.663365418,
				"y": -0.5973083409,
				"z": 0.2656953044,
				"element": "C" 
			},
			{
				"x": 0.3585892583,
				"y": -0.3845641122,
				"z": -1.1326121061,
				"element": "O" 
			},
			{
				"x": 1.3121733809,
				"y": 0.2618352476,
				"z": -1.8422943831,
				"element": "C" 
			},
			{
				"x": 2.3584423752,
				"y": 0.6526273754,
				"z": -1.3607735616,
				"element": "O" 
			},
			{
				"x": 0.9576427757,
				"y": 0.448959003,
				"z": -3.2715443352,
				"element": "C" 
			},
			{
				"x": -0.1741723341,
				"y": 0.0292720702,
				"z": -3.841901032,
				"element": "C" 
			},
			{
				"x": -3.7168651172,
				"y": -2.5611304356,
				"z": 0.4164829178,
				"element": "H" 
			},
			{
				"x": -4.9515824515,
				"y": -1.3457225658,
				"z": 0.0684034397,
				"element": "H" 
			},
			{
				"x": -4.5597515632,
				"y": -2.5833890747,
				"z": -1.1325801091,
				"element": "H" 
			},
			{
				"x": -3.515186966,
				"y": -0.4510739461,
				"z": -1.819739674,
				"element": "H" 
			},
			{
				"x": -2.2599219309,
				"y": -1.6025220205,
				"z": -1.4100105385,
				"element": "H" 
			},
			{
				"x": -1.8173149288,
				"y": 0.7048728665,
				"z": -0.5532018145,
				"element": "H" 
			},
			{
				"x": -3.2966290602,
				"y": 0.6519111608,
				"z": 0.389103632,
				"element": "H" 
			},
			{
				"x": -2.4159160412,
				"y": -1.1741147961,
				"z": 1.7939087855,
				"element": "H" 
			},
			{
				"x": -1.4345373781,
				"y": 0.2707440599,
				"z": 1.8727485363,
				"element": "H" 
			},
			{
				"x": -0.7201690181,
				"y": -2.2233856111,
				"z": 0.241720302,
				"element": "H" 
			},
			{
				"x": 0.5040498126,
				"y": -1.2409630819,
				"z": 2.8640086442,
				"element": "H" 
			},
			{
				"x": -0.807353559,
				"y": -2.3980701959,
				"z": 2.804286382,
				"element": "H" 
			},
			{
				"x": 1.3429863782,
				"y": -3.5931072727,
				"z": 3.0383727125,
				"element": "H" 
			},
			{
				"x": 0.61770988,
				"y": -3.9933906934,
				"z": 1.4764861531,
				"element": "H" 
			},
			{
				"x": 1.9754162269,
				"y": -2.8656222239,
				"z": 1.5636323807,
				"element": "H" 
			},
			{
				"x": 0.7922658687,
				"y": 0.376603034,
				"z": 0.7529210282,
				"element": "H" 
			},
			{
				"x": 1.6235547446,
				"y": -1.1165426297,
				"z": 0.3236056401,
				"element": "H" 
			},
			{
				"x": 1.7230525345,
				"y": 0.9724885221,
				"z": -3.8364567691,
				"element": "H" 
			},
			{
				"x": -0.9356667792,
				"y": -0.4944839047,
				"z": -3.2741588592,
				"element": "H" 
			},
			{
				"x": -0.3668755351,
				"y": 0.200626718,
				"z": -4.8966607161,
				"element": "H" 
			}
		],
		 "valence_orbital": [ 
			{
				"type": "occ",
				"energy": -0.31163,
				"method": "rhf"
			},
			{
				"type": "occ",
				"energy": -0.30718,
				"method": "rhf"
			},
			{
				"type": "occ",
				"energy": -0.29186,
				"method": "rhf"
			},
			{
				"type": "occ",
				"energy": -0.28288,
				"method": "rhf"
			},
			{
				"type": "occ",
				"energy": -0.26874,
				"method": "rhf"
			},
			{
				"type": "unocc",
				"energy": -0.04444,
				"method": "rhf"
			},
			{
				"type": "unocc",
				"energy": 0.07514,
				"method": "rhf"
			},
			{
				"type": "unocc",
				"energy": 0.08578,
				"method": "rhf"
			},
			{
				"type": "unocc",
				"energy": 0.08921,
				"method": "rhf"
			},
			{
				"type": "unocc",
				"energy": 0.10358,
				"method": "rhf"
			}
		],
		"cosmo_sigma_profile": { 
			"-0.025": 0.0,
			"-0.024": 0.0,
			"-0.023": 0.0,
			"-0.022": 0.0,
			"-0.021": 0.0,
			"-0.02": 0.0,
			"-0.019": 0.0,
			"-0.018": 0.0,
			"-0.017": 0.0,
			"-0.016": 0.0,
			"-0.015": 0.0,
			"-0.014": 0.0,
			"-0.013": 0.0,
			"-0.012": 0.0,
			"-0.011": 0.0,
			"-0.01": 0.0,
			"-0.009": 0.0,
			"-0.008": 0.137767808474,
			"-0.007": 2.34823293996,
			"-0.006": 3.91065879927,
			"-0.005": 5.73217513751,
			"-0.004": 11.1982509884,
			"-0.003": 22.2648560302,
			"-0.002": 42.4663961829,
			"-0.001": 45.3841941647,
			"0.0": 42.4598221142,
			"0.001": 40.2425188851,
			"0.002": 21.1021177287,
			"0.003": 8.47791435176,
			"0.004": 3.29267353583,
			"0.005": 2.12636017718,
			"0.006": 2.47469417937,
			"0.007": 0.990221096408,
			"0.008": 0.935555258764,
			"0.009": 1.0021586119,
			"0.01": 2.04136359347,
			"0.011": 2.75320481713,
			"0.012": 4.76552064997,
			"0.013": 2.20659976816,
			"0.014": 0.140153842671,
			"0.015": 0.0,
			"0.016": 0.0,
			"0.017": 0.0,
			"0.018": 0.0,
			"0.019": 0.0,
			"0.02": 0.0,
			"0.021": 0.0,
			"0.022": 0.0,
			"0.023": 0.0,
			"0.024": 0.0,
			"0.025": 0.0
		}
	}
}
