{
	 "smiles": "CC1=C(C)N=CN1", 
	 "Tm": 377.15, 
	 "num_atms": 15, 
	 "gaussian": { 
		 "optdone": 1, 
		 "sigma_profile": "yes", 
		 "theory": "DFT", 
		 "functional": "B3LYP", 
		 "basiset": "6-31G**", 
		 "properties": { 
			 "R2extent": 979.8343, 
			 "electric_dipole_moment_norm": 3.56297190138, 
			 "electric_quadrupole_moment_norm": 9.75370271794, 
			 "total_energy": -304.862657015, 
			 "HOMO_LUMO_gap": 0.2435, 
			 "cosmo_polarized_energy": -11.46, 
			 "cosmo_cavitation_energy": 18.18, 
			 "cosmo_dispersion_energy": -13.71, 
			 "cosmo_repulsion_energy": 1.17, 
			 "cosmo_total_nonelectrostatic_energy": 5.64, 
			 "SMD_solvation_energy": 2.14 
		},
		"coords": [
			{
				"x": 0.1312793376,
				"y": 2.5582056538,
				"z": 0.5506641019,
				"element": "C" 
			},
			{
				"x": 0.0527294464,
				"y": 1.1709301546,
				"z": 1.0992280976,
				"element": "C" 
			},
			{
				"x": -0.5104461477,
				"y": 0.0028670093,
				"z": 0.6288445648,
				"element": "C" 
			},
			{
				"x": -1.255125461,
				"y": -0.2339134648,
				"z": -0.6486996631,
				"element": "C" 
			},
			{
				"x": -0.3064170936,
				"y": -1.0293728675,
				"z": 1.5289354343,
				"element": "N" 
			},
			{
				"x": 0.3657996475,
				"y": -0.5026713192,
				"z": 2.5253152182,
				"element": "C" 
			},
			{
				"x": 0.6121596182,
				"y": 0.8257869149,
				"z": 2.3212108824,
				"element": "N" 
			},
			{
				"x": -0.3509989432,
				"y": 3.291975276,
				"z": 1.2092741139,
				"element": "H" 
			},
			{
				"x": -0.3723983234,
				"y": 2.6089099671,
				"z": -0.4171743845,
				"element": "H" 
			},
			{
				"x": 1.167883119,
				"y": 2.8849744369,
				"z": 0.3975016469,
				"element": "H" 
			},
			{
				"x": -0.7574795973,
				"y": -0.997589013,
				"z": -1.2567071781,
				"element": "H" 
			},
			{
				"x": -1.3318137615,
				"y": 0.6777030548,
				"z": -1.2481092284,
				"element": "H" 
			},
			{
				"x": -2.2705546754,
				"y": -0.5940647112,
				"z": -0.4494279465,
				"element": "H" 
			},
			{
				"x": 0.699871566,
				"y": -1.0234765715,
				"z": 3.4128706493,
				"element": "H" 
			},
			{
				"x": 1.1089112684,
				"y": 1.44703548,
				"z": 2.9412736913,
				"element": "H" 
			}
		],
		 "valence_orbital": [ 
			{
				"type": "occ",
				"energy": -0.37653,
				"method": "rhf"
			},
			{
				"type": "occ",
				"energy": -0.36604,
				"method": "rhf"
			},
			{
				"type": "occ",
				"energy": -0.26232,
				"method": "rhf"
			},
			{
				"type": "occ",
				"energy": -0.25368,
				"method": "rhf"
			},
			{
				"type": "occ",
				"energy": -0.206,
				"method": "rhf"
			},
			{
				"type": "unocc",
				"energy": 0.0375,
				"method": "rhf"
			},
			{
				"type": "unocc",
				"energy": 0.07742,
				"method": "rhf"
			},
			{
				"type": "unocc",
				"energy": 0.07761,
				"method": "rhf"
			},
			{
				"type": "unocc",
				"energy": 0.10467,
				"method": "rhf"
			},
			{
				"type": "unocc",
				"energy": 0.13426,
				"method": "rhf"
			}
		],
		"cosmo_sigma_profile": { 
			"-0.025": 0.0,
			"-0.024": 0.0,
			"-0.023": 0.0,
			"-0.022": 0.0,
			"-0.021": 0.0,
			"-0.02": 0.0,
			"-0.019": 0.0,
			"-0.018": 0.0,
			"-0.017": 0.0,
			"-0.016": 0.542951283003,
			"-0.015": 1.60846077598,
			"-0.014": 1.44954960002,
			"-0.013": 1.28595224823,
			"-0.012": 0.878064847431,
			"-0.011": 1.11476720743,
			"-0.01": 1.47804162892,
			"-0.009": 1.00586301231,
			"-0.008": 2.99719618963,
			"-0.007": 3.71136280769,
			"-0.006": 2.9435501532,
			"-0.005": 5.58067152978,
			"-0.004": 10.7616163565,
			"-0.003": 11.3318174473,
			"-0.002": 13.2570288338,
			"-0.001": 13.3548804312,
			"0.0": 14.5152746708,
			"0.001": 10.3538300176,
			"0.002": 6.75350026979,
			"0.003": 5.30768644248,
			"0.004": 5.51176208933,
			"0.005": 5.52920825735,
			"0.006": 4.19622755963,
			"0.007": 2.85000912543,
			"0.008": 1.97293235813,
			"0.009": 1.91675944506,
			"0.01": 1.59559703387,
			"0.011": 1.10861688877,
			"0.012": 1.19738450313,
			"0.013": 1.36047063117,
			"0.014": 1.18945014354,
			"0.015": 1.49315190026,
			"0.016": 0.584502512614,
			"0.017": 1.23696343521,
			"0.018": 1.06749005866,
			"0.019": 0.571116243786,
			"0.02": 0.0,
			"0.021": 0.0,
			"0.022": 0.0,
			"0.023": 0.0,
			"0.024": 0.0,
			"0.025": 0.0
		}
	}
}
