{
	 "smiles": "CCN(CC)C1=NC2=C(S1)C=C(S2)C(O)=O", 
	 "Tm": 465.15, 
	 "num_atms": 28, 
	 "gaussian": { 
		 "optdone": 1, 
		 "sigma_profile": "yes", 
		 "theory": "DFT", 
		 "functional": "B3LYP", 
		 "basiset": "6-31G**", 
		 "properties": { 
			 "R2extent": 7918.7229, 
			 "electric_dipole_moment_norm": 8.4019036825, 
			 "electric_quadrupole_moment_norm": 29.1580041647, 
			 "total_energy": -1444.62476856, 
			 "HOMO_LUMO_gap": 0.15119, 
			 "cosmo_polarized_energy": -16.47, 
			 "cosmo_cavitation_energy": 34.85, 
			 "cosmo_dispersion_energy": -25.95, 
			 "cosmo_repulsion_energy": 1.94, 
			 "cosmo_total_nonelectrostatic_energy": 10.85, 
			 "SMD_solvation_energy": 5.17 
		},
		"coords": [
			{
				"x": 0.0633091463,
				"y": -1.3266244763,
				"z": -2.8512489865,
				"element": "C" 
			},
			{
				"x": -0.3174378986,
				"y": -1.4759085366,
				"z": -1.3742181223,
				"element": "C" 
			},
			{
				"x": -0.9506617969,
				"y": -0.2842749252,
				"z": -0.8102802249,
				"element": "N" 
			},
			{
				"x": -2.4121219238,
				"y": -0.1487226063,
				"z": -0.9043940335,
				"element": "C" 
			},
			{
				"x": -3.1427295119,
				"y": -0.6932174286,
				"z": 0.3252331621,
				"element": "C" 
			},
			{
				"x": -0.2432874393,
				"y": 0.6906895189,
				"z": -0.1938109517,
				"element": "C" 
			},
			{
				"x": -0.7926934089,
				"y": 1.7599138434,
				"z": 0.3466467847,
				"element": "N" 
			},
			{
				"x": 0.1841651597,
				"y": 2.5374560365,
				"z": 0.8785150198,
				"element": "C" 
			},
			{
				"x": 1.5103355854,
				"y": 2.1292143508,
				"z": 0.7864426009,
				"element": "C" 
			},
			{
				"x": 1.5540115768,
				"y": 0.5968207594,
				"z": -0.0699645883,
				"element": "S" 
			},
			{
				"x": 2.4347729572,
				"y": 3.0109986148,
				"z": 1.3810383102,
				"element": "C" 
			},
			{
				"x": 1.8119859853,
				"y": 4.1109238983,
				"z": 1.9347400298,
				"element": "C" 
			},
			{
				"x": 0.0538529447,
				"y": 4.054799689,
				"z": 1.7205456029,
				"element": "S" 
			},
			{
				"x": 2.5379495023,
				"y": 5.1953192611,
				"z": 2.6186644164,
				"element": "C" 
			},
			{
				"x": 1.8112610536,
				"y": 6.2318357549,
				"z": 3.1236192443,
				"element": "O" 
			},
			{
				"x": 3.7430542552,
				"y": 5.1927117769,
				"z": 2.7438849381,
				"element": "O" 
			},
			{
				"x": 0.7831289353,
				"y": -0.5154120057,
				"z": -2.9909410225,
				"element": "H" 
			},
			{
				"x": -0.8169206064,
				"y": -1.1116911003,
				"z": -3.4650512832,
				"element": "H" 
			},
			{
				"x": 0.5151229727,
				"y": -2.2532381123,
				"z": -3.2198046102,
				"element": "H" 
			},
			{
				"x": -1.0168441393,
				"y": -2.3087886956,
				"z": -1.2449434013,
				"element": "H" 
			},
			{
				"x": 0.5645768456,
				"y": -1.7250998012,
				"z": -0.7738555688,
				"element": "H" 
			},
			{
				"x": -2.6428939322,
				"y": 0.9097870479,
				"z": -1.0414376696,
				"element": "H" 
			},
			{
				"x": -2.7262460189,
				"y": -0.6790745186,
				"z": -1.8094266582,
				"element": "H" 
			},
			{
				"x": -2.9194390474,
				"y": -1.7527483635,
				"z": 0.4882892863,
				"element": "H" 
			},
			{
				"x": -2.8507493539,
				"y": -0.1340402797,
				"z": 1.2175124808,
				"element": "H" 
			},
			{
				"x": -4.2251143559,
				"y": -0.5920092054,
				"z": 0.1945743757,
				"element": "H" 
			},
			{
				"x": 3.5096876272,
				"y": 2.8910627041,
				"z": 1.4254470976,
				"element": "H" 
			},
			{
				"x": 0.863624886,
				"y": 6.1227167992,
				"z": 2.9610237716,
				"element": "H" 
			}
		],
		 "valence_orbital": [ 
			{
				"type": "occ",
				"energy": -0.29482,
				"method": "rhf"
			},
			{
				"type": "occ",
				"energy": -0.28365,
				"method": "rhf"
			},
			{
				"type": "occ",
				"energy": -0.26567,
				"method": "rhf"
			},
			{
				"type": "occ",
				"energy": -0.24865,
				"method": "rhf"
			},
			{
				"type": "occ",
				"energy": -0.20385,
				"method": "rhf"
			},
			{
				"type": "unocc",
				"energy": -0.05266,
				"method": "rhf"
			},
			{
				"type": "unocc",
				"energy": -0.01195,
				"method": "rhf"
			},
			{
				"type": "unocc",
				"energy": 0.00672,
				"method": "rhf"
			},
			{
				"type": "unocc",
				"energy": 0.00848,
				"method": "rhf"
			},
			{
				"type": "unocc",
				"energy": 0.05263,
				"method": "rhf"
			}
		],
		"cosmo_sigma_profile": { 
			"-0.025": 0.0,
			"-0.024": 0.0,
			"-0.023": 0.0,
			"-0.022": 0.0,
			"-0.021": 0.0,
			"-0.02": 0.0,
			"-0.019": 0.0,
			"-0.018": 0.377974997116,
			"-0.017": 0.614203274096,
			"-0.016": 0.767745774341,
			"-0.015": 1.28525238182,
			"-0.014": 0.591276823639,
			"-0.013": 0.600959092085,
			"-0.012": 1.49533876486,
			"-0.011": 0.849157060688,
			"-0.01": 0.786161162789,
			"-0.009": 0.992040018709,
			"-0.008": 3.03470978066,
			"-0.007": 3.53051007702,
			"-0.006": 9.58391460302,
			"-0.005": 13.5479024501,
			"-0.004": 21.1054179714,
			"-0.003": 26.0951481998,
			"-0.002": 24.7541316572,
			"-0.001": 25.0610666513,
			"0.0": 32.0530018091,
			"0.001": 29.0302864077,
			"0.002": 22.3265012635,
			"0.003": 15.096134798,
			"0.004": 7.63210007984,
			"0.005": 3.74724826712,
			"0.006": 4.83555544855,
			"0.007": 3.84996982079,
			"0.008": 3.86505878182,
			"0.009": 3.69634483253,
			"0.01": 4.6744409329,
			"0.011": 5.56084910476,
			"0.012": 6.09981930499,
			"0.013": 3.05953427193,
			"0.014": 0.40164229402,
			"0.015": 0.0,
			"0.016": 0.0,
			"0.017": 0.0,
			"0.018": 0.0,
			"0.019": 0.0,
			"0.02": 0.0,
			"0.021": 0.0,
			"0.022": 0.0,
			"0.023": 0.0,
			"0.024": 0.0,
			"0.025": 0.0
		}
	}
}
