{
	 "smiles": "BrC1=CC=C(NCC2=CN=CC=C2)C=C1", 
	 "Tm": 362.15, 
	 "num_atms": 26, 
	 "gaussian": { 
		 "optdone": 1, 
		 "sigma_profile": "yes", 
		 "theory": "DFT", 
		 "functional": "B3LYP", 
		 "basiset": "6-31G**", 
		 "properties": { 
			 "R2extent": 6883.6061, 
			 "electric_dipole_moment_norm": 3.83983172678, 
			 "electric_quadrupole_moment_norm": 13.6946271819, 
			 "total_energy": -3144.80698417, 
			 "HOMO_LUMO_gap": 0.1779, 
			 "cosmo_polarized_energy": -12.17, 
			 "cosmo_cavitation_energy": 32.42, 
			 "cosmo_dispersion_energy": -23.71, 
			 "cosmo_repulsion_energy": 1.86, 
			 "cosmo_total_nonelectrostatic_energy": 10.57, 
			 "SMD_solvation_energy": 2.41 
		},
		"coords": [
			{
				"x": -1.8273605467,
				"y": 4.2524692931,
				"z": 2.4368129902,
				"element": "Br" 
			},
			{
				"x": -1.1505621975,
				"y": 2.4949132656,
				"z": 2.097894227,
				"element": "C" 
			},
			{
				"x": -0.6411613322,
				"y": 2.1768935849,
				"z": 0.8427748159,
				"element": "C" 
			},
			{
				"x": -0.1451543092,
				"y": 0.8969605768,
				"z": 0.5936854348,
				"element": "C" 
			},
			{
				"x": -0.1537785334,
				"y": -0.0825662107,
				"z": 1.6024993247,
				"element": "C" 
			},
			{
				"x": 0.3093414269,
				"y": -1.3810128256,
				"z": 1.3854013661,
				"element": "N" 
			},
			{
				"x": 1.1960343001,
				"y": -1.7095325094,
				"z": 0.2791624335,
				"element": "C" 
			},
			{
				"x": 0.4839539663,
				"y": -1.9653146886,
				"z": -1.0405707686,
				"element": "C" 
			},
			{
				"x": 1.1424863315,
				"y": -1.7380062814,
				"z": -2.2551437698,
				"element": "C" 
			},
			{
				"x": 0.6144651954,
				"y": -1.9833711373,
				"z": -3.4593733175,
				"element": "N" 
			},
			{
				"x": -0.6312516077,
				"y": -2.4725783739,
				"z": -3.4924223232,
				"element": "C" 
			},
			{
				"x": -1.3862556895,
				"y": -2.7269614775,
				"z": -2.3461040036,
				"element": "C" 
			},
			{
				"x": -0.8176432523,
				"y": -2.4694783077,
				"z": -1.1005959754,
				"element": "C" 
			},
			{
				"x": -0.6771645002,
				"y": 0.2624231939,
				"z": 2.863843483,
				"element": "C" 
			},
			{
				"x": -1.1711835703,
				"y": 1.5376573968,
				"z": 3.1125484038,
				"element": "C" 
			},
			{
				"x": -0.6293232546,
				"y": 2.9221122831,
				"z": 0.0552340489,
				"element": "H" 
			},
			{
				"x": 0.2311843946,
				"y": 0.6633637334,
				"z": -0.3953991088,
				"element": "H" 
			},
			{
				"x": 0.5009329252,
				"y": -1.889502947,
				"z": 2.2357959777,
				"element": "H" 
			},
			{
				"x": 1.9608722271,
				"y": -0.9311890579,
				"z": 0.1310193417,
				"element": "H" 
			},
			{
				"x": 1.7366668719,
				"y": -2.619391684,
				"z": 0.5661445598,
				"element": "H" 
			},
			{
				"x": 2.1547002999,
				"y": -1.3312746535,
				"z": -2.2536949133,
				"element": "H" 
			},
			{
				"x": -1.0459431953,
				"y": -2.6643129953,
				"z": -4.4805082537,
				"element": "H" 
			},
			{
				"x": -2.3968348182,
				"y": -3.1148093037,
				"z": -2.4305638511,
				"element": "H" 
			},
			{
				"x": -1.368866668,
				"y": -2.640150546,
				"z": -0.1808058103,
				"element": "H" 
			},
			{
				"x": -0.6955174522,
				"y": -0.4806000109,
				"z": 3.6578395488,
				"element": "H" 
			},
			{
				"x": -1.5670370117,
				"y": 1.787259683,
				"z": 4.0906261395,
				"element": "H" 
			}
		],
		 "valence_orbital": [ 
			{
				"type": "occ",
				"energy": -0.27623,
				"method": "rhf"
			},
			{
				"type": "occ",
				"energy": -0.26103,
				"method": "rhf"
			},
			{
				"type": "occ",
				"energy": -0.25703,
				"method": "rhf"
			},
			{
				"type": "occ",
				"energy": -0.25507,
				"method": "rhf"
			},
			{
				"type": "occ",
				"energy": -0.20484,
				"method": "rhf"
			},
			{
				"type": "unocc",
				"energy": -0.02694,
				"method": "rhf"
			},
			{
				"type": "unocc",
				"energy": -0.01795,
				"method": "rhf"
			},
			{
				"type": "unocc",
				"energy": -0.00788,
				"method": "rhf"
			},
			{
				"type": "unocc",
				"energy": 0.00457,
				"method": "rhf"
			},
			{
				"type": "unocc",
				"energy": 0.01486,
				"method": "rhf"
			}
		],
		"cosmo_sigma_profile": { 
			"-0.025": 0.0,
			"-0.024": 0.0,
			"-0.023": 0.0,
			"-0.022": 0.0,
			"-0.021": 0.0,
			"-0.02": 0.0,
			"-0.019": 0.0,
			"-0.018": 0.0,
			"-0.017": 0.0,
			"-0.016": 0.0,
			"-0.015": 0.0,
			"-0.014": 0.0542286618371,
			"-0.013": 1.23076666103,
			"-0.012": 1.68538810349,
			"-0.011": 1.50530341291,
			"-0.01": 2.07699861377,
			"-0.009": 1.43973339637,
			"-0.008": 1.52788974929,
			"-0.007": 5.68689031076,
			"-0.006": 16.0547618362,
			"-0.005": 20.7004236211,
			"-0.004": 20.2026101555,
			"-0.003": 16.295611097,
			"-0.002": 17.1699735163,
			"-0.001": 14.0435132417,
			"0.0": 13.7562915102,
			"0.001": 17.006354284,
			"0.002": 20.956991016,
			"0.003": 26.7795161372,
			"0.004": 22.8380603413,
			"0.005": 25.5771280821,
			"0.006": 4.75520122739,
			"0.007": 1.10512539262,
			"0.008": 1.87135958868,
			"0.009": 1.40552943519,
			"0.01": 0.927697078396,
			"0.011": 0.479530377294,
			"0.012": 1.21879011559,
			"0.013": 1.09853400953,
			"0.014": 0.991820913509,
			"0.015": 0.579430023021,
			"0.016": 1.04388243551,
			"0.017": 0.51752504786,
			"0.018": 0.0129594073553,
			"0.019": 0.0,
			"0.02": 0.0,
			"0.021": 0.0,
			"0.022": 0.0,
			"0.023": 0.0,
			"0.024": 0.0,
			"0.025": 0.0
		}
	}
}
