{
	 "smiles": "CC1=C(O)C(=O)C=CO1", 
	 "Tm": 435.15, 
	 "num_atms": 15, 
	 "gaussian": { 
		 "optdone": 1, 
		 "sigma_profile": "yes", 
		 "theory": "DFT", 
		 "functional": "B3LYP", 
		 "basiset": "6-31G**", 
		 "properties": { 
			 "R2extent": 1246.0331, 
			 "electric_dipole_moment_norm": 3.35509554409, 
			 "electric_quadrupole_moment_norm": 7.92293620762, 
			 "total_energy": -457.903949029, 
			 "HOMO_LUMO_gap": 0.18182, 
			 "cosmo_polarized_energy": -9.35, 
			 "cosmo_cavitation_energy": 19.18, 
			 "cosmo_dispersion_energy": -14.66, 
			 "cosmo_repulsion_energy": 1.21, 
			 "cosmo_total_nonelectrostatic_energy": 5.72, 
			 "SMD_solvation_energy": 5.44 
		},
		"coords": [
			{
				"x": -0.814664937,
				"y": 1.5536563846,
				"z": 0.9825636108,
				"element": "C" 
			},
			{
				"x": 0.1579972388,
				"y": 0.5188809679,
				"z": 0.5301559982,
				"element": "C" 
			},
			{
				"x": 0.653629945,
				"y": 0.3613888404,
				"z": -0.7238382778,
				"element": "C" 
			},
			{
				"x": 0.3092543582,
				"y": 1.1588421682,
				"z": -1.7570612864,
				"element": "O" 
			},
			{
				"x": 1.6116701677,
				"y": -0.6996065928,
				"z": -1.0544443353,
				"element": "C" 
			},
			{
				"x": 2.0232120108,
				"y": -0.7820542093,
				"z": -2.2228243286,
				"element": "O" 
			},
			{
				"x": 1.9754869915,
				"y": -1.5491929198,
				"z": 0.0587309484,
				"element": "C" 
			},
			{
				"x": 1.4326421369,
				"y": -1.3208117818,
				"z": 1.2770479042,
				"element": "C" 
			},
			{
				"x": 0.5556340281,
				"y": -0.3334784509,
				"z": 1.5334928524,
				"element": "O" 
			},
			{
				"x": -0.3845296281,
				"y": 2.1761833999,
				"z": 1.7753529957,
				"element": "H" 
			},
			{
				"x": -1.7234422409,
				"y": 1.0895547209,
				"z": 1.3823247105,
				"element": "H" 
			},
			{
				"x": -1.0859478516,
				"y": 2.192330544,
				"z": 0.1410406012,
				"element": "H" 
			},
			{
				"x": 0.8294687494,
				"y": 0.7871204505,
				"z": -2.5035541979,
				"element": "H" 
			},
			{
				"x": 2.6778727932,
				"y": -2.3610654413,
				"z": -0.087006069,
				"element": "H" 
			},
			{
				"x": 1.643516238,
				"y": -1.9018480805,
				"z": 2.1673188735,
				"element": "H" 
			}
		],
		 "valence_orbital": [ 
			{
				"type": "occ",
				"energy": -0.35908,
				"method": "rhf"
			},
			{
				"type": "occ",
				"energy": -0.35722,
				"method": "rhf"
			},
			{
				"type": "occ",
				"energy": -0.27458,
				"method": "rhf"
			},
			{
				"type": "occ",
				"energy": -0.25799,
				"method": "rhf"
			},
			{
				"type": "occ",
				"energy": -0.2262,
				"method": "rhf"
			},
			{
				"type": "unocc",
				"energy": -0.04438,
				"method": "rhf"
			},
			{
				"type": "unocc",
				"energy": -0.0042,
				"method": "rhf"
			},
			{
				"type": "unocc",
				"energy": 0.09354,
				"method": "rhf"
			},
			{
				"type": "unocc",
				"energy": 0.10591,
				"method": "rhf"
			},
			{
				"type": "unocc",
				"energy": 0.11225,
				"method": "rhf"
			}
		],
		"cosmo_sigma_profile": { 
			"-0.025": 0.0,
			"-0.024": 0.0,
			"-0.023": 0.0,
			"-0.022": 0.0,
			"-0.021": 0.0,
			"-0.02": 0.0,
			"-0.019": 0.0,
			"-0.018": 0.0,
			"-0.017": 0.0,
			"-0.016": 0.0,
			"-0.015": 0.0,
			"-0.014": 0.0,
			"-0.013": 0.0,
			"-0.012": 0.491149049963,
			"-0.011": 0.372949626346,
			"-0.01": 3.00299573073,
			"-0.009": 2.10036573525,
			"-0.008": 4.45664115283,
			"-0.007": 4.34188082689,
			"-0.006": 6.74742272429,
			"-0.005": 8.78406416395,
			"-0.004": 8.91633738249,
			"-0.003": 10.1062894059,
			"-0.002": 17.6927136406,
			"-0.001": 17.8728565819,
			"0.0": 12.5333820639,
			"0.001": 11.9781900686,
			"0.002": 6.17453617157,
			"0.003": 4.76465243653,
			"0.004": 3.44005887629,
			"0.005": 3.76582612285,
			"0.006": 3.22542401518,
			"0.007": 2.27791556248,
			"0.008": 3.56449653916,
			"0.009": 3.07456103855,
			"0.01": 2.65655507281,
			"0.011": 2.3697717643,
			"0.012": 2.71732834913,
			"0.013": 3.23414155124,
			"0.014": 2.06277116384,
			"0.015": 0.532936848492,
			"0.016": 0.0,
			"0.017": 0.0,
			"0.018": 0.0,
			"0.019": 0.0,
			"0.02": 0.0,
			"0.021": 0.0,
			"0.022": 0.0,
			"0.023": 0.0,
			"0.024": 0.0,
			"0.025": 0.0
		}
	}
}
