{
	 "smiles": "OC(=O)C1CC2=C(N1)C=CC=C2", 
	 "Tm": 442.15, 
	 "num_atms": 21, 
	 "gaussian": { 
		 "optdone": 1, 
		 "sigma_profile": "yes", 
		 "theory": "DFT", 
		 "functional": "B3LYP", 
		 "basiset": "6-31G**", 
		 "properties": { 
			 "R2extent": 2628.2988, 
			 "electric_dipole_moment_norm": 1.64532008436, 
			 "electric_quadrupole_moment_norm": 10.3407537955, 
			 "total_energy": -553.594273558, 
			 "HOMO_LUMO_gap": 0.19003, 
			 "cosmo_polarized_energy": -11.37, 
			 "cosmo_cavitation_energy": 24.56, 
			 "cosmo_dispersion_energy": -18.27, 
			 "cosmo_repulsion_energy": 1.47, 
			 "cosmo_total_nonelectrostatic_energy": 7.75, 
			 "SMD_solvation_energy": 3.71 
		},
		"coords": [
			{
				"x": 2.9399193979,
				"y": 1.021897749,
				"z": -0.4119156537,
				"element": "O" 
			},
			{
				"x": 1.8815106471,
				"y": 1.6906869185,
				"z": 0.1065337466,
				"element": "C" 
			},
			{
				"x": 1.2720813973,
				"y": 2.5321610969,
				"z": -0.5134842831,
				"element": "O" 
			},
			{
				"x": 1.6103379278,
				"y": 1.3077338453,
				"z": 1.5676349832,
				"element": "C" 
			},
			{
				"x": 0.0868751799,
				"y": 1.2789412133,
				"z": 1.8642973016,
				"element": "C" 
			},
			{
				"x": -0.225806909,
				"y": -0.1992552062,
				"z": 1.7708584255,
				"element": "C" 
			},
			{
				"x": 0.9832682241,
				"y": -0.9132262239,
				"z": 1.8104572544,
				"element": "C" 
			},
			{
				"x": 2.074856038,
				"y": -0.0360122075,
				"z": 1.9367826264,
				"element": "N" 
			},
			{
				"x": 0.9992019058,
				"y": -2.3069895652,
				"z": 1.7669702929,
				"element": "C" 
			},
			{
				"x": -0.2264495788,
				"y": -2.9774477092,
				"z": 1.6820175837,
				"element": "C" 
			},
			{
				"x": -1.4344611362,
				"y": -2.2768133259,
				"z": 1.6453774329,
				"element": "C" 
			},
			{
				"x": -1.4353518523,
				"y": -0.8753791667,
				"z": 1.6933816693,
				"element": "C" 
			},
			{
				"x": 3.0562226488,
				"y": 1.3540303332,
				"z": -1.3180279632,
				"element": "H" 
			},
			{
				"x": 2.1224015376,
				"y": 2.0707932904,
				"z": 2.1675206428,
				"element": "H" 
			},
			{
				"x": -0.1058760891,
				"y": 1.6591819719,
				"z": 2.8749587,
				"element": "H" 
			},
			{
				"x": -0.4603485996,
				"y": 1.908662857,
				"z": 1.1590338538,
				"element": "H" 
			},
			{
				"x": 2.9383696658,
				"y": -0.3241727092,
				"z": 1.4936562152,
				"element": "H" 
			},
			{
				"x": 1.934831608,
				"y": -2.8582616505,
				"z": 1.7950957764,
				"element": "H" 
			},
			{
				"x": -0.2335519444,
				"y": -4.0631786128,
				"z": 1.6404158552,
				"element": "H" 
			},
			{
				"x": -2.3734819515,
				"y": -2.8172938184,
				"z": 1.5766179145,
				"element": "H" 
			},
			{
				"x": -2.3729481173,
				"y": -0.3262590799,
				"z": 1.6603176258,
				"element": "H" 
			}
		],
		 "valence_orbital": [ 
			{
				"type": "occ",
				"energy": -0.32876,
				"method": "rhf"
			},
			{
				"type": "occ",
				"energy": -0.30995,
				"method": "rhf"
			},
			{
				"type": "occ",
				"energy": -0.27683,
				"method": "rhf"
			},
			{
				"type": "occ",
				"energy": -0.24005,
				"method": "rhf"
			},
			{
				"type": "occ",
				"energy": -0.19698,
				"method": "rhf"
			},
			{
				"type": "unocc",
				"energy": -0.00695,
				"method": "rhf"
			},
			{
				"type": "unocc",
				"energy": 0.00883,
				"method": "rhf"
			},
			{
				"type": "unocc",
				"energy": 0.02021,
				"method": "rhf"
			},
			{
				"type": "unocc",
				"energy": 0.06416,
				"method": "rhf"
			},
			{
				"type": "unocc",
				"energy": 0.10354,
				"method": "rhf"
			}
		],
		"cosmo_sigma_profile": { 
			"-0.025": 0.0,
			"-0.024": 0.0,
			"-0.023": 0.0,
			"-0.022": 0.0,
			"-0.021": 0.0,
			"-0.02": 0.0,
			"-0.019": 0.311758557842,
			"-0.018": 0.864594231345,
			"-0.017": 1.03185040795,
			"-0.016": 0.843597561017,
			"-0.015": 0.583355373653,
			"-0.014": 0.459131293738,
			"-0.013": 0.430318529287,
			"-0.012": 1.03668884912,
			"-0.011": 1.66002893147,
			"-0.01": 1.40975129382,
			"-0.009": 1.19957926139,
			"-0.008": 3.45643625926,
			"-0.007": 5.44968776832,
			"-0.006": 6.09360812059,
			"-0.005": 13.2994472915,
			"-0.004": 14.5172260558,
			"-0.003": 17.5966035469,
			"-0.002": 15.0294750228,
			"-0.001": 13.8824887049,
			"0.0": 10.3308972122,
			"0.001": 9.52569337629,
			"0.002": 9.47408230671,
			"0.003": 8.77399324052,
			"0.004": 10.410647816,
			"0.005": 11.4497836926,
			"0.006": 10.4038704167,
			"0.007": 8.07845149846,
			"0.008": 3.46146518431,
			"0.009": 2.84168776375,
			"0.01": 2.09089368271,
			"0.011": 5.27104296425,
			"0.012": 3.03216627401,
			"0.013": 0.68926933382,
			"0.014": 0.0,
			"0.015": 0.0,
			"0.016": 0.0,
			"0.017": 0.0,
			"0.018": 0.0,
			"0.019": 0.0,
			"0.02": 0.0,
			"0.021": 0.0,
			"0.022": 0.0,
			"0.023": 0.0,
			"0.024": 0.0,
			"0.025": 0.0
		}
	}
}
