{
	 "smiles": "COC1=C(NC2=CC=C(N)C=C2)C=CC=C1", 
	 "Tm": 347.15, 
	 "num_atms": 30, 
	 "gaussian": { 
		 "optdone": 1, 
		 "sigma_profile": "yes", 
		 "theory": "DFT", 
		 "functional": "B3LYP", 
		 "basiset": "6-31G**", 
		 "properties": { 
			 "R2extent": 4505.4783, 
			 "electric_dipole_moment_norm": 1.66970974124, 
			 "electric_quadrupole_moment_norm": 10.6244858633, 
			 "total_energy": -688.53048208, 
			 "HOMO_LUMO_gap": 0.17455, 
			 "cosmo_polarized_energy": -13.33, 
			 "cosmo_cavitation_energy": 33.11, 
			 "cosmo_dispersion_energy": -23.61, 
			 "cosmo_repulsion_energy": 1.85, 
			 "cosmo_total_nonelectrostatic_energy": 11.36, 
			 "SMD_solvation_energy": 6.21 
		},
		"coords": [
			{
				"x": 2.0223602895,
				"y": -1.6221362412,
				"z": 0.086063463,
				"element": "C" 
			},
			{
				"x": 1.2071511023,
				"y": -1.6724132559,
				"z": 1.2597056362,
				"element": "O" 
			},
			{
				"x": 0.0240381572,
				"y": -2.3647357099,
				"z": 1.1229307908,
				"element": "C" 
			},
			{
				"x": -1.0545906033,
				"y": -1.8580471211,
				"z": 0.3601158765,
				"element": "C" 
			},
			{
				"x": -0.9665542607,
				"y": -0.6534628276,
				"z": -0.3574880211,
				"element": "N" 
			},
			{
				"x": -0.6027602158,
				"y": 0.6094430695,
				"z": 0.1798840671,
				"element": "C" 
			},
			{
				"x": -0.4206148205,
				"y": 0.8462884215,
				"z": 1.5481379002,
				"element": "C" 
			},
			{
				"x": -0.0688836724,
				"y": 2.113315561,
				"z": 2.0071475523,
				"element": "C" 
			},
			{
				"x": 0.0940186415,
				"y": 3.1912611496,
				"z": 1.1240465993,
				"element": "C" 
			},
			{
				"x": 0.3803092319,
				"y": 4.4813197803,
				"z": 1.6000368431,
				"element": "N" 
			},
			{
				"x": -0.1015736846,
				"y": 2.9528918622,
				"z": -0.2454895805,
				"element": "C" 
			},
			{
				"x": -0.4316047319,
				"y": 1.6824708566,
				"z": -0.7069958773,
				"element": "C" 
			},
			{
				"x": -2.2189432589,
				"y": -2.639478278,
				"z": 0.2683231045,
				"element": "C" 
			},
			{
				"x": -2.3278264566,
				"y": -3.8662581738,
				"z": 0.9193607667,
				"element": "C" 
			},
			{
				"x": -1.2749053009,
				"y": -4.3337641646,
				"z": 1.7067863251,
				"element": "C" 
			},
			{
				"x": -0.1064626608,
				"y": -3.577582657,
				"z": 1.8007677694,
				"element": "C" 
			},
			{
				"x": 2.9148720881,
				"y": -1.0555112505,
				"z": 0.3589053944,
				"element": "H" 
			},
			{
				"x": 2.3148885513,
				"y": -2.6330187963,
				"z": -0.2266447747,
				"element": "H" 
			},
			{
				"x": 1.5107818913,
				"y": -1.1200192484,
				"z": -0.741077524,
				"element": "H" 
			},
			{
				"x": -1.6620992163,
				"y": -0.5815181238,
				"z": -1.0879363993,
				"element": "H" 
			},
			{
				"x": -0.5524210617,
				"y": 0.0398718312,
				"z": 2.2594339665,
				"element": "H" 
			},
			{
				"x": 0.0670716785,
				"y": 2.2714442088,
				"z": 3.0745187435,
				"element": "H" 
			},
			{
				"x": 0.8615256125,
				"y": 4.4947150879,
				"z": 2.4898609522,
				"element": "H" 
			},
			{
				"x": 0.8526304722,
				"y": 5.0738441677,
				"z": 0.9296053665,
				"element": "H" 
			},
			{
				"x": 0.0118710289,
				"y": 3.7688095956,
				"z": -0.9554511263,
				"element": "H" 
			},
			{
				"x": -0.5572399844,
				"y": 1.5163883174,
				"z": -1.7745010099,
				"element": "H" 
			},
			{
				"x": -3.0541777959,
				"y": -2.2596243201,
				"z": -0.3160386061,
				"element": "H" 
			},
			{
				"x": -3.2435869867,
				"y": -4.4427395577,
				"z": 0.8269495001,
				"element": "H" 
			},
			{
				"x": -1.3552157466,
				"y": -5.2800855462,
				"z": 2.2327175745,
				"element": "H" 
			},
			{
				"x": 0.7410417126,
				"y": -3.9172686371,
				"z": 2.3882247274,
				"element": "H" 
			}
		],
		 "valence_orbital": [ 
			{
				"type": "occ",
				"energy": -0.26542,
				"method": "rhf"
			},
			{
				"type": "occ",
				"energy": -0.2397,
				"method": "rhf"
			},
			{
				"type": "occ",
				"energy": -0.23414,
				"method": "rhf"
			},
			{
				"type": "occ",
				"energy": -0.21888,
				"method": "rhf"
			},
			{
				"type": "occ",
				"energy": -0.17157,
				"method": "rhf"
			},
			{
				"type": "unocc",
				"energy": 0.00298,
				"method": "rhf"
			},
			{
				"type": "unocc",
				"energy": 0.00808,
				"method": "rhf"
			},
			{
				"type": "unocc",
				"energy": 0.01006,
				"method": "rhf"
			},
			{
				"type": "unocc",
				"energy": 0.03921,
				"method": "rhf"
			},
			{
				"type": "unocc",
				"energy": 0.08772,
				"method": "rhf"
			}
		],
		"cosmo_sigma_profile": { 
			"-0.025": 0.0,
			"-0.024": 0.0,
			"-0.023": 0.0,
			"-0.022": 0.0,
			"-0.021": 0.0,
			"-0.02": 0.0,
			"-0.019": 0.0,
			"-0.018": 0.0,
			"-0.017": 0.0,
			"-0.016": 0.0,
			"-0.015": 0.0,
			"-0.014": 0.0,
			"-0.013": 0.69715450212,
			"-0.012": 1.95871564786,
			"-0.011": 4.06761486153,
			"-0.01": 4.78630017265,
			"-0.009": 4.20938147589,
			"-0.008": 4.70958048548,
			"-0.007": 5.24001818774,
			"-0.006": 8.41269201863,
			"-0.005": 17.3240329708,
			"-0.004": 18.0814567092,
			"-0.003": 24.0520044579,
			"-0.002": 20.1868880498,
			"-0.001": 14.8845243472,
			"0.0": 14.2997299179,
			"0.001": 13.2706182182,
			"0.002": 16.0278457984,
			"0.003": 15.770646868,
			"0.004": 15.7490546598,
			"0.005": 15.5376965487,
			"0.006": 15.8700237501,
			"0.007": 12.5508293078,
			"0.008": 4.6798540151,
			"0.009": 1.92710898206,
			"0.01": 2.23824522186,
			"0.011": 1.9866250459,
			"0.012": 1.48873741515,
			"0.013": 1.12482301506,
			"0.014": 0.550842507314,
			"0.015": 0.620034401296,
			"0.016": 0.395410146432,
			"0.017": 0.0,
			"0.018": 0.0,
			"0.019": 0.0,
			"0.02": 0.0,
			"0.021": 0.0,
			"0.022": 0.0,
			"0.023": 0.0,
			"0.024": 0.0,
			"0.025": 0.0
		}
	}
}
