{
	 "smiles": "CN1C=C(Cl)C=C1C(O)=O", 
	 "Tm": 403.15, 
	 "num_atms": 16, 
	 "gaussian": { 
		 "optdone": 1, 
		 "sigma_profile": "yes", 
		 "theory": "DFT", 
		 "functional": "B3LYP", 
		 "basiset": "6-31G**", 
		 "properties": { 
			 "R2extent": 2619.2704, 
			 "electric_dipole_moment_norm": 2.27726159016, 
			 "electric_quadrupole_moment_norm": 22.7730652232, 
			 "total_energy": -897.641759987, 
			 "HOMO_LUMO_gap": 0.19615, 
			 "cosmo_polarized_energy": -13.7, 
			 "cosmo_cavitation_energy": 22.25, 
			 "cosmo_dispersion_energy": -16.67, 
			 "cosmo_repulsion_energy": 1.35, 
			 "cosmo_total_nonelectrostatic_energy": 6.94, 
			 "SMD_solvation_energy": 5.08 
		},
		"coords": [
			{
				"x": 1.6969884612,
				"y": 2.7265227919,
				"z": 0.3671798028,
				"element": "C" 
			},
			{
				"x": 0.8288577951,
				"y": 1.6864718046,
				"z": 0.9192266276,
				"element": "N" 
			},
			{
				"x": -0.4739780461,
				"y": 1.8878457553,
				"z": 1.2679736499,
				"element": "C" 
			},
			{
				"x": -0.9829585614,
				"y": 0.693906294,
				"z": 1.7519112565,
				"element": "C" 
			},
			{
				"x": -2.6019306822,
				"y": 0.4511786667,
				"z": 2.3312359091,
				"element": "Cl" 
			},
			{
				"x": 0.0386993377,
				"y": -0.2698775509,
				"z": 1.694764037,
				"element": "C" 
			},
			{
				"x": 1.1636496238,
				"y": 0.3659392727,
				"z": 1.1684662763,
				"element": "C" 
			},
			{
				"x": 2.5140411784,
				"y": -0.1540276737,
				"z": 0.9120503582,
				"element": "C" 
			},
			{
				"x": 2.662982556,
				"y": -1.500520038,
				"z": 1.0257323905,
				"element": "O" 
			},
			{
				"x": 3.4693218733,
				"y": 0.5354873966,
				"z": 0.6203583035,
				"element": "O" 
			},
			{
				"x": 2.0996937771,
				"y": 2.4164198632,
				"z": -0.597766212,
				"element": "H" 
			},
			{
				"x": 2.5351647427,
				"y": 2.9215075326,
				"z": 1.0366482385,
				"element": "H" 
			},
			{
				"x": 1.0983460458,
				"y": 3.6303156093,
				"z": 0.2433781142,
				"element": "H" 
			},
			{
				"x": -0.9499690906,
				"y": 2.8494406987,
				"z": 1.1511918435,
				"element": "H" 
			},
			{
				"x": -0.0417918145,
				"y": -1.2939952542,
				"z": 2.032340044,
				"element": "H" 
			},
			{
				"x": 1.8040828038,
				"y": -1.9292151688,
				"z": 1.1427093604,
				"element": "H" 
			}
		],
		 "valence_orbital": [ 
			{
				"type": "occ",
				"energy": -0.32067,
				"method": "rhf"
			},
			{
				"type": "occ",
				"energy": -0.31838,
				"method": "rhf"
			},
			{
				"type": "occ",
				"energy": -0.2784,
				"method": "rhf"
			},
			{
				"type": "occ",
				"energy": -0.26059,
				"method": "rhf"
			},
			{
				"type": "occ",
				"energy": -0.23617,
				"method": "rhf"
			},
			{
				"type": "unocc",
				"energy": -0.04002,
				"method": "rhf"
			},
			{
				"type": "unocc",
				"energy": 0.0307,
				"method": "rhf"
			},
			{
				"type": "unocc",
				"energy": 0.03694,
				"method": "rhf"
			},
			{
				"type": "unocc",
				"energy": 0.05899,
				"method": "rhf"
			},
			{
				"type": "unocc",
				"energy": 0.09247,
				"method": "rhf"
			}
		],
		"cosmo_sigma_profile": { 
			"-0.025": 0.0,
			"-0.024": 0.0,
			"-0.023": 0.0,
			"-0.022": 0.0,
			"-0.021": 0.0,
			"-0.02": 0.0,
			"-0.019": 0.160192338293,
			"-0.018": 1.27998149571,
			"-0.017": 0.777878828517,
			"-0.016": 0.989437858943,
			"-0.015": 0.981216166205,
			"-0.014": 1.03543797683,
			"-0.013": 0.806548594867,
			"-0.012": 1.0610020948,
			"-0.011": 1.34615102477,
			"-0.01": 2.72241825715,
			"-0.009": 4.17640121462,
			"-0.008": 4.10136407055,
			"-0.007": 4.82876800268,
			"-0.006": 6.05425831231,
			"-0.005": 8.13751180298,
			"-0.004": 10.2690051137,
			"-0.003": 13.6413652949,
			"-0.002": 10.6671777907,
			"-0.001": 9.4610879293,
			"0.0": 9.07252424918,
			"0.001": 10.705321022,
			"0.002": 12.2222929052,
			"0.003": 16.4047547371,
			"0.004": 14.734108584,
			"0.005": 9.16342354267,
			"0.006": 2.14494096059,
			"0.007": 2.56864868358,
			"0.008": 2.38615096311,
			"0.009": 3.49088803255,
			"0.01": 3.50822330705,
			"0.011": 4.80447073828,
			"0.012": 3.86245466058,
			"0.013": 2.3213817351,
			"0.014": 0.33300678206,
			"0.015": 0.0,
			"0.016": 0.0,
			"0.017": 0.0,
			"0.018": 0.0,
			"0.019": 0.0,
			"0.02": 0.0,
			"0.021": 0.0,
			"0.022": 0.0,
			"0.023": 0.0,
			"0.024": 0.0,
			"0.025": 0.0
		}
	}
}
