{
	 "smiles": "CCN(CC)CC(=O)OCC(=O)C1(O)CCC2C3CCC4=CC(=O)C=CC4(C)C3C(O)CC12C", 
	 "Tm": 449.15, 
	 "num_atms": 73, 
	 "gaussian": { 
		 "optdone": 1, 
		 "sigma_profile": "yes", 
		 "theory": "DFT", 
		 "functional": "B3LYP", 
		 "basiset": "6-31G**", 
		 "properties": { 
			 "R2extent": 25143.861, 
			 "electric_dipole_moment_norm": 5.94575410356, 
			 "electric_quadrupole_moment_norm": 49.5605577611, 
			 "total_energy": -1558.42811733, 
			 "HOMO_LUMO_gap": 0.16599, 
			 "cosmo_polarized_energy": -27.99, 
			 "cosmo_cavitation_energy": 66.89, 
			 "cosmo_dispersion_energy": -44.33, 
			 "cosmo_repulsion_energy": 3.29, 
			 "cosmo_total_nonelectrostatic_energy": 25.85, 
			 "SMD_solvation_energy": 10.64 
		},
		"coords": [
			{
				"x": 5.404582593,
				"y": 0.4584631195,
				"z": 3.3448910878,
				"element": "C" 
			},
			{
				"x": 5.495054941,
				"y": -1.0527695597,
				"z": 3.5620622502,
				"element": "C" 
			},
			{
				"x": 4.1876493775,
				"y": -1.6737545096,
				"z": 3.8030664767,
				"element": "N" 
			},
			{
				"x": 4.2833082648,
				"y": -2.960929716,
				"z": 4.4979757148,
				"element": "C" 
			},
			{
				"x": 2.9428540189,
				"y": -3.4710110213,
				"z": 5.0283886151,
				"element": "C" 
			},
			{
				"x": 3.3484802332,
				"y": -1.7319644486,
				"z": 2.6233646218,
				"element": "C" 
			},
			{
				"x": 1.9000375607,
				"y": -1.3227144713,
				"z": 2.8811630917,
				"element": "C" 
			},
			{
				"x": 1.4704898093,
				"y": -0.6931897451,
				"z": 3.812912163,
				"element": "O" 
			},
			{
				"x": 1.1122449645,
				"y": -1.7490692405,
				"z": 1.8441993593,
				"element": "O" 
			},
			{
				"x": -0.2817520267,
				"y": -1.3636436295,
				"z": 1.9335078864,
				"element": "C" 
			},
			{
				"x": -0.9979883491,
				"y": -2.011293341,
				"z": 0.7437015548,
				"element": "C" 
			},
			{
				"x": -1.8045605948,
				"y": -2.9001676574,
				"z": 0.9411031474,
				"element": "O" 
			},
			{
				"x": -0.6717280084,
				"y": -1.5008182079,
				"z": -0.6670665272,
				"element": "C" 
			},
			{
				"x": 0.5233414938,
				"y": -0.7202864477,
				"z": -0.6481291742,
				"element": "O" 
			},
			{
				"x": -0.5625092871,
				"y": -2.6655682149,
				"z": -1.6994372325,
				"element": "C" 
			},
			{
				"x": -1.0890128965,
				"y": -2.1074945323,
				"z": -3.0532690036,
				"element": "C" 
			},
			{
				"x": -1.3405980772,
				"y": -0.617134766,
				"z": -2.769124508,
				"element": "C" 
			},
			{
				"x": -2.2150677491,
				"y": 0.1926644285,
				"z": -3.7547368286,
				"element": "C" 
			},
			{
				"x": -1.3259044898,
				"y": 0.6003851392,
				"z": -4.9503054514,
				"element": "C" 
			},
			{
				"x": -2.0055578893,
				"y": 1.5550182352,
				"z": -5.9404336605,
				"element": "C" 
			},
			{
				"x": -2.5423002759,
				"y": 2.7601054454,
				"z": -5.2165870687,
				"element": "C" 
			},
			{
				"x": -2.2081972798,
				"y": 4.0148478605,
				"z": -5.5751208716,
				"element": "C" 
			},
			{
				"x": -2.734163394,
				"y": 5.2170173066,
				"z": -4.9032136784,
				"element": "C" 
			},
			{
				"x": -2.4334684074,
				"y": 6.3535303121,
				"z": -5.2626673639,
				"element": "O" 
			},
			{
				"x": -3.6540724091,
				"y": 4.9679804078,
				"z": -3.7739479585,
				"element": "C" 
			},
			{
				"x": -3.9659084347,
				"y": 3.7221388084,
				"z": -3.3778752364,
				"element": "C" 
			},
			{
				"x": -3.4895765548,
				"y": 2.4657225388,
				"z": -4.0669035616,
				"element": "C" 
			},
			{
				"x": -4.792666905,
				"y": 1.8277582329,
				"z": -4.6579599739,
				"element": "C" 
			},
			{
				"x": -2.8764283129,
				"y": 1.4238763439,
				"z": -3.0393658519,
				"element": "C" 
			},
			{
				"x": -1.9000041572,
				"y": 1.9452379939,
				"z": -1.9475844842,
				"element": "C" 
			},
			{
				"x": -2.3315632992,
				"y": 3.1265876841,
				"z": -1.2816619169,
				"element": "O" 
			},
			{
				"x": -1.7716939548,
				"y": 0.8988866656,
				"z": -0.8095633408,
				"element": "C" 
			},
			{
				"x": -1.7966097219,
				"y": -0.5729492432,
				"z": -1.2896333231,
				"element": "C" 
			},
			{
				"x": -3.1861911307,
				"y": -1.2137224275,
				"z": -1.0749297694,
				"element": "C" 
			},
			{
				"x": 4.9014508072,
				"y": 0.9326985953,
				"z": 4.1918409415,
				"element": "H" 
			},
			{
				"x": 6.4077295305,
				"y": 0.8855357061,
				"z": 3.2436450005,
				"element": "H" 
			},
			{
				"x": 4.8495480751,
				"y": 0.7192749976,
				"z": 2.4374176527,
				"element": "H" 
			},
			{
				"x": 6.032592767,
				"y": -1.5260401184,
				"z": 2.7171046395,
				"element": "H" 
			},
			{
				"x": 6.104770946,
				"y": -1.2387698869,
				"z": 4.4523324382,
				"element": "H" 
			},
			{
				"x": 4.9640602434,
				"y": -2.819690203,
				"z": 5.3444013377,
				"element": "H" 
			},
			{
				"x": 4.740597503,
				"y": -3.7374496892,
				"z": 3.8511342257,
				"element": "H" 
			},
			{
				"x": 2.4628482051,
				"y": -2.7137932786,
				"z": 5.6532450442,
				"element": "H" 
			},
			{
				"x": 3.1016677843,
				"y": -4.3753109622,
				"z": 5.6245084547,
				"element": "H" 
			},
			{
				"x": 2.2507594821,
				"y": -3.7364950463,
				"z": 4.2220512477,
				"element": "H" 
			},
			{
				"x": 3.7170508057,
				"y": -1.0309669388,
				"z": 1.865018058,
				"element": "H" 
			},
			{
				"x": 3.3462059256,
				"y": -2.7219288927,
				"z": 2.1360731975,
				"element": "H" 
			},
			{
				"x": -0.3620566028,
				"y": -0.2723793732,
				"z": 1.9143855803,
				"element": "H" 
			},
			{
				"x": -0.7127854833,
				"y": -1.7488781224,
				"z": 2.8583303044,
				"element": "H" 
			},
			{
				"x": 1.1993793864,
				"y": -1.2181859959,
				"z": -0.1674845071,
				"element": "H" 
			},
			{
				"x": 0.4834600509,
				"y": -2.9806067526,
				"z": -1.7616414989,
				"element": "H" 
			},
			{
				"x": -1.1450193762,
				"y": -3.5238288865,
				"z": -1.3579199072,
				"element": "H" 
			},
			{
				"x": -2.01630573,
				"y": -2.6125620738,
				"z": -3.3464489185,
				"element": "H" 
			},
			{
				"x": -0.372587967,
				"y": -2.2608085225,
				"z": -3.8655023171,
				"element": "H" 
			},
			{
				"x": -0.3540028677,
				"y": -0.1399387534,
				"z": -2.7627004622,
				"element": "H" 
			},
			{
				"x": -3.0202926079,
				"y": -0.4518484894,
				"z": -4.1317951699,
				"element": "H" 
			},
			{
				"x": -0.4215654331,
				"y": 1.0921319865,
				"z": -4.5692499823,
				"element": "H" 
			},
			{
				"x": -0.9879313436,
				"y": -0.3023519862,
				"z": -5.4724712715,
				"element": "H" 
			},
			{
				"x": -1.2997203521,
				"y": 1.8671776197,
				"z": -6.7167443165,
				"element": "H" 
			},
			{
				"x": -2.8247114586,
				"y": 1.0321785808,
				"z": -6.4531351564,
				"element": "H" 
			},
			{
				"x": -1.5356005797,
				"y": 4.1987776675,
				"z": -6.409570212,
				"element": "H" 
			},
			{
				"x": -4.0629605865,
				"y": 5.8458486608,
				"z": -3.2812523679,
				"element": "H" 
			},
			{
				"x": -4.6457490616,
				"y": 3.5711220026,
				"z": -2.542723355,
				"element": "H" 
			},
			{
				"x": -5.5300520988,
				"y": 1.6772537691,
				"z": -3.8633216279,
				"element": "H" 
			},
			{
				"x": -4.5993320984,
				"y": 0.8586499772,
				"z": -5.122963977,
				"element": "H" 
			},
			{
				"x": -5.2303349939,
				"y": 2.4897163056,
				"z": -5.4101773974,
				"element": "H" 
			},
			{
				"x": -3.7514988407,
				"y": 1.0680062483,
				"z": -2.4845839516,
				"element": "H" 
			},
			{
				"x": -0.9129223081,
				"y": 2.121073509,
				"z": -2.401391822,
				"element": "H" 
			},
			{
				"x": -2.2305951687,
				"y": 3.8758743985,
				"z": -1.882831378,
				"element": "H" 
			},
			{
				"x": -0.8474344835,
				"y": 1.1117513889,
				"z": -0.2686266739,
				"element": "H" 
			},
			{
				"x": -2.6059883975,
				"y": 1.0945221338,
				"z": -0.1264046439,
				"element": "H" 
			},
			{
				"x": -3.506111132,
				"y": -1.1100187823,
				"z": -0.0347191198,
				"element": "H" 
			},
			{
				"x": -3.9420590525,
				"y": -0.7295411037,
				"z": -1.6965806688,
				"element": "H" 
			},
			{
				"x": -3.2008231391,
				"y": -2.2806390327,
				"z": -1.3047666032,
				"element": "H" 
			}
		],
		 "valence_orbital": [ 
			{
				"type": "occ",
				"energy": -0.26037,
				"method": "rhf"
			},
			{
				"type": "occ",
				"energy": -0.25326,
				"method": "rhf"
			},
			{
				"type": "occ",
				"energy": -0.24997,
				"method": "rhf"
			},
			{
				"type": "occ",
				"energy": -0.23321,
				"method": "rhf"
			},
			{
				"type": "occ",
				"energy": -0.22136,
				"method": "rhf"
			},
			{
				"type": "unocc",
				"energy": -0.05537,
				"method": "rhf"
			},
			{
				"type": "unocc",
				"energy": -0.04787,
				"method": "rhf"
			},
			{
				"type": "unocc",
				"energy": -0.00253,
				"method": "rhf"
			},
			{
				"type": "unocc",
				"energy": -0.00191,
				"method": "rhf"
			},
			{
				"type": "unocc",
				"energy": 0.06583,
				"method": "rhf"
			}
		],
		"cosmo_sigma_profile": { 
			"-0.025": 0.0,
			"-0.024": 0.0,
			"-0.023": 0.0,
			"-0.022": 0.0,
			"-0.021": 0.0,
			"-0.02": 0.0,
			"-0.019": 0.0,
			"-0.018": 0.0,
			"-0.017": 0.0,
			"-0.016": 0.0,
			"-0.015": 0.0,
			"-0.014": 0.0,
			"-0.013": 0.0,
			"-0.012": 0.0,
			"-0.011": 0.846237829167,
			"-0.01": 2.05359213167,
			"-0.009": 2.39466137554,
			"-0.008": 4.55279365667,
			"-0.007": 7.72344725699,
			"-0.006": 16.7674289151,
			"-0.005": 28.1268056381,
			"-0.004": 45.0653971976,
			"-0.003": 60.5896358757,
			"-0.002": 69.5389735756,
			"-0.001": 65.1859646018,
			"0.0": 54.8984373433,
			"0.001": 35.9594877794,
			"0.002": 20.1933412745,
			"0.003": 11.4555748092,
			"0.004": 9.59229159266,
			"0.005": 9.08061499886,
			"0.006": 7.28225005244,
			"0.007": 8.44529350424,
			"0.008": 6.64937726267,
			"0.009": 7.36306151983,
			"0.01": 8.57207852223,
			"0.011": 11.3876259072,
			"0.012": 7.53123204586,
			"0.013": 7.08088769516,
			"0.014": 6.441542656,
			"0.015": 2.12244534708,
			"0.016": 0.566682908722,
			"0.017": 0.396749576839,
			"0.018": 0.0,
			"0.019": 0.0,
			"0.02": 0.0,
			"0.021": 0.0,
			"0.022": 0.0,
			"0.023": 0.0,
			"0.024": 0.0,
			"0.025": 0.0
		}
	}
}
