{
	 "smiles": "CC(C)N1C(Br)=C(Br)C=C1C(O)=O", 
	 "Tm": 401.15, 
	 "num_atms": 22, 
	 "gaussian": { 
		 "optdone": 1, 
		 "sigma_profile": "yes", 
		 "theory": "DFT", 
		 "functional": "B3LYP", 
		 "basiset": "6-31G**", 
		 "properties": { 
			 "R2extent": 5854.3057, 
			 "electric_dipole_moment_norm": 3.81961830685, 
			 "electric_quadrupole_moment_norm": 5.46956354749, 
			 "total_energy": -5658.28461735, 
			 "HOMO_LUMO_gap": 0.18395, 
			 "cosmo_polarized_energy": -9.35, 
			 "cosmo_cavitation_energy": 29.74, 
			 "cosmo_dispersion_energy": -21.88, 
			 "cosmo_repulsion_energy": 1.74, 
			 "cosmo_total_nonelectrostatic_energy": 9.59, 
			 "SMD_solvation_energy": 4.64 
		},
		"coords": [
			{
				"x": 0.7698360946,
				"y": 0.5306426271,
				"z": -1.7253903212,
				"element": "C" 
			},
			{
				"x": 0.3925419918,
				"y": 0.9104910786,
				"z": -0.2876490978,
				"element": "C" 
			},
			{
				"x": 1.406740594,
				"y": 1.8322845539,
				"z": 0.4018032149,
				"element": "C" 
			},
			{
				"x": 0.0834874591,
				"y": -0.2906298579,
				"z": 0.5401604684,
				"element": "N" 
			},
			{
				"x": 0.9482289358,
				"y": -1.2975396751,
				"z": 0.8934392465,
				"element": "C" 
			},
			{
				"x": 2.7614010103,
				"y": -1.3939308176,
				"z": 0.4098998064,
				"element": "Br" 
			},
			{
				"x": 0.2785948887,
				"y": -2.2377207525,
				"z": 1.6661911759,
				"element": "C" 
			},
			{
				"x": 1.0176586802,
				"y": -3.8038299385,
				"z": 2.3973753662,
				"element": "Br" 
			},
			{
				"x": -1.0441835071,
				"y": -1.8024389003,
				"z": 1.7980804805,
				"element": "C" 
			},
			{
				"x": -1.1592135813,
				"y": -0.6047574669,
				"z": 1.1041235568,
				"element": "C" 
			},
			{
				"x": -2.4372969436,
				"y": 0.1136537006,
				"z": 1.0530857373,
				"element": "C" 
			},
			{
				"x": -2.4526130733,
				"y": 1.2826782018,
				"z": 0.3540415565,
				"element": "O" 
			},
			{
				"x": -3.4418470421,
				"y": -0.2988152125,
				"z": 1.6021341663,
				"element": "O" 
			},
			{
				"x": 0.8406971172,
				"y": 1.4435282107,
				"z": -2.3252523302,
				"element": "H" 
			},
			{
				"x": 1.7278416431,
				"y": 0.0115732522,
				"z": -1.7847395187,
				"element": "H" 
			},
			{
				"x": -0.0000553772,
				"y": -0.1071614716,
				"z": -2.1691558926,
				"element": "H" 
			},
			{
				"x": -0.5505708308,
				"y": 1.4457001347,
				"z": -0.3328400946,
				"element": "H" 
			},
			{
				"x": 1.4872193346,
				"y": 2.7613197366,
				"z": -0.1714605949,
				"element": "H" 
			},
			{
				"x": 2.401149503,
				"y": 1.3876760737,
				"z": 0.4670502381,
				"element": "H" 
			},
			{
				"x": 1.0713904521,
				"y": 2.0855152736,
				"z": 1.4116811062,
				"element": "H" 
			},
			{
				"x": -1.8488880024,
				"y": -2.282804062,
				"z": 2.3322047279,
				"element": "H" 
			},
			{
				"x": -3.3652193467,
				"y": 1.6085653113,
				"z": 0.430617002,
				"element": "H" 
			}
		],
		 "valence_orbital": [ 
			{
				"type": "occ",
				"energy": -0.30526,
				"method": "rhf"
			},
			{
				"type": "occ",
				"energy": -0.28674,
				"method": "rhf"
			},
			{
				"type": "occ",
				"energy": -0.28499,
				"method": "rhf"
			},
			{
				"type": "occ",
				"energy": -0.25099,
				"method": "rhf"
			},
			{
				"type": "occ",
				"energy": -0.22602,
				"method": "rhf"
			},
			{
				"type": "unocc",
				"energy": -0.04207,
				"method": "rhf"
			},
			{
				"type": "unocc",
				"energy": -0.01158,
				"method": "rhf"
			},
			{
				"type": "unocc",
				"energy": 0.02573,
				"method": "rhf"
			},
			{
				"type": "unocc",
				"energy": 0.03513,
				"method": "rhf"
			},
			{
				"type": "unocc",
				"energy": 0.06883,
				"method": "rhf"
			}
		],
		"cosmo_sigma_profile": { 
			"-0.025": 0.0,
			"-0.024": 0.0,
			"-0.023": 0.0,
			"-0.022": 0.0,
			"-0.021": 0.0,
			"-0.02": 0.0,
			"-0.019": 0.0685398364069,
			"-0.018": 0.717564126836,
			"-0.017": 1.15123308385,
			"-0.016": 0.761848925409,
			"-0.015": 0.469349127148,
			"-0.014": 0.781615258522,
			"-0.013": 0.676374164203,
			"-0.012": 0.626180329052,
			"-0.011": 1.03245594366,
			"-0.01": 0.662582954847,
			"-0.009": 0.400787168271,
			"-0.008": 1.22373998316,
			"-0.007": 2.1700336364,
			"-0.006": 3.43631920645,
			"-0.005": 6.50764741368,
			"-0.004": 16.8523154308,
			"-0.003": 17.3732389223,
			"-0.002": 23.9492396155,
			"-0.001": 29.9187819924,
			"0.0": 32.8228357546,
			"0.001": 21.1546964577,
			"0.002": 20.0926456558,
			"0.003": 21.6620929298,
			"0.004": 16.7329891254,
			"0.005": 5.55431890577,
			"0.006": 1.7613368783,
			"0.007": 1.7117766602,
			"0.008": 0.796756134568,
			"0.009": 1.84642520277,
			"0.01": 1.81158131642,
			"0.011": 3.4368672009,
			"0.012": 4.51973998988,
			"0.013": 0.0548293139948,
			"0.014": 0.0,
			"0.015": 0.0,
			"0.016": 0.0,
			"0.017": 0.0,
			"0.018": 0.0,
			"0.019": 0.0,
			"0.02": 0.0,
			"0.021": 0.0,
			"0.022": 0.0,
			"0.023": 0.0,
			"0.024": 0.0,
			"0.025": 0.0
		}
	}
}
