{
	 "smiles": "FC1=C(C=CC=C1)C(=O)NC1=CC(=CC=C1)C#N", 
	 "Tm": 406.15, 
	 "num_atms": 27, 
	 "gaussian": { 
		 "optdone": 1, 
		 "sigma_profile": "yes", 
		 "theory": "DFT", 
		 "functional": "B3LYP", 
		 "basiset": "6-31G**", 
		 "properties": { 
			 "R2extent": 7575.6801, 
			 "electric_dipole_moment_norm": 4.40713998076, 
			 "electric_quadrupole_moment_norm": 32.1111414249, 
			 "total_energy": -823.474068845, 
			 "HOMO_LUMO_gap": 0.18479, 
			 "cosmo_polarized_energy": -18.06, 
			 "cosmo_cavitation_energy": 34.09, 
			 "cosmo_dispersion_energy": -23.99, 
			 "cosmo_repulsion_energy": 1.81, 
			 "cosmo_total_nonelectrostatic_energy": 11.91, 
			 "SMD_solvation_energy": 8.08 
		},
		"coords": [
			{
				"x": 3.2201637944,
				"y": 2.4266565271,
				"z": -2.1757346869,
				"element": "F" 
			},
			{
				"x": 2.2079597254,
				"y": 3.2826166472,
				"z": -1.9687818593,
				"element": "C" 
			},
			{
				"x": 1.4115989245,
				"y": 3.1506001179,
				"z": -0.824184698,
				"element": "C" 
			},
			{
				"x": 0.348646059,
				"y": 4.053457561,
				"z": -0.6628279126,
				"element": "C" 
			},
			{
				"x": 0.0940895256,
				"y": 5.0455594773,
				"z": -1.6087029172,
				"element": "C" 
			},
			{
				"x": 0.9027190923,
				"y": 5.1447680592,
				"z": -2.742745679,
				"element": "C" 
			},
			{
				"x": 1.9637589494,
				"y": 4.2584908777,
				"z": -2.9279914242,
				"element": "C" 
			},
			{
				"x": 1.7406758329,
				"y": 2.1150562132,
				"z": 0.2157064017,
				"element": "C" 
			},
			{
				"x": 2.8824218755,
				"y": 1.8969600194,
				"z": 0.5903391687,
				"element": "O" 
			},
			{
				"x": 0.6244044732,
				"y": 1.4576535239,
				"z": 0.7047910743,
				"element": "N" 
			},
			{
				"x": 0.5545696376,
				"y": 0.47557774,
				"z": 1.7101422531,
				"element": "C" 
			},
			{
				"x": -0.707886894,
				"y": -0.0617880479,
				"z": 1.9940705793,
				"element": "C" 
			},
			{
				"x": -0.8529014937,
				"y": -1.0387149187,
				"z": 2.9873152098,
				"element": "C" 
			},
			{
				"x": 0.2644086609,
				"y": -1.4887353735,
				"z": 3.7088627206,
				"element": "C" 
			},
			{
				"x": 1.5131900956,
				"y": -0.9472268858,
				"z": 3.4169511584,
				"element": "C" 
			},
			{
				"x": 1.6750758774,
				"y": 0.0254129534,
				"z": 2.4303203996,
				"element": "C" 
			},
			{
				"x": -2.1548984761,
				"y": -1.5750841437,
				"z": 3.2627803048,
				"element": "C" 
			},
			{
				"x": -3.2109109545,
				"y": -2.0088137768,
				"z": 3.4860224545,
				"element": "N" 
			},
			{
				"x": -0.2627167872,
				"y": 3.9961152088,
				"z": 0.2335166317,
				"element": "H" 
			},
			{
				"x": -0.7246603851,
				"y": 5.7414266745,
				"z": -1.4570682342,
				"element": "H" 
			},
			{
				"x": 0.7109206675,
				"y": 5.9129599018,
				"z": -3.4855543662,
				"element": "H" 
			},
			{
				"x": 2.6047138506,
				"y": 4.3058639351,
				"z": -3.8015506989,
				"element": "H" 
			},
			{
				"x": -0.2465628883,
				"y": 1.6619601475,
				"z": 0.235811853,
				"element": "H" 
			},
			{
				"x": -1.5841487426,
				"y": 0.2743763001,
				"z": 1.4472123216,
				"element": "H" 
			},
			{
				"x": 0.1446165317,
				"y": -2.2450814889,
				"z": 4.4762377893,
				"element": "H" 
			},
			{
				"x": 2.3857918636,
				"y": -1.2873443016,
				"z": 3.9659929014,
				"element": "H" 
			},
			{
				"x": 2.6479611842,
				"y": 0.4370770519,
				"z": 2.2036692546,
				"element": "H" 
			}
		],
		 "valence_orbital": [ 
			{
				"type": "occ",
				"energy": -0.28433,
				"method": "rhf"
			},
			{
				"type": "occ",
				"energy": -0.27099,
				"method": "rhf"
			},
			{
				"type": "occ",
				"energy": -0.26945,
				"method": "rhf"
			},
			{
				"type": "occ",
				"energy": -0.26141,
				"method": "rhf"
			},
			{
				"type": "occ",
				"energy": -0.24198,
				"method": "rhf"
			},
			{
				"type": "unocc",
				"energy": -0.05719,
				"method": "rhf"
			},
			{
				"type": "unocc",
				"energy": -0.04923,
				"method": "rhf"
			},
			{
				"type": "unocc",
				"energy": -0.02427,
				"method": "rhf"
			},
			{
				"type": "unocc",
				"energy": -0.01713,
				"method": "rhf"
			},
			{
				"type": "unocc",
				"energy": 0.03178,
				"method": "rhf"
			}
		],
		"cosmo_sigma_profile": { 
			"-0.025": 0.0,
			"-0.024": 0.0,
			"-0.023": 0.0,
			"-0.022": 0.0,
			"-0.021": 0.0,
			"-0.02": 0.0,
			"-0.019": 0.0,
			"-0.018": 0.0,
			"-0.017": 0.0,
			"-0.016": 0.553292330736,
			"-0.015": 1.16798314222,
			"-0.014": 1.31711094089,
			"-0.013": 1.57796226525,
			"-0.012": 1.21093343322,
			"-0.011": 1.54587736606,
			"-0.01": 1.79083981193,
			"-0.009": 2.73527458733,
			"-0.008": 4.62683950767,
			"-0.007": 13.3767800666,
			"-0.006": 16.4073703795,
			"-0.005": 15.8793461945,
			"-0.004": 15.3114713775,
			"-0.003": 12.3420807865,
			"-0.002": 13.9960816986,
			"-0.001": 20.0705882695,
			"0.0": 21.4096696393,
			"0.001": 24.9826758164,
			"0.002": 26.8100120875,
			"0.003": 21.2870125298,
			"0.004": 12.6472834737,
			"0.005": 5.97415519477,
			"0.006": 4.65994041207,
			"0.007": 4.54448733594,
			"0.008": 5.55696509373,
			"0.009": 5.49612800323,
			"0.01": 5.38702235149,
			"0.011": 5.60683898529,
			"0.012": 5.08058877394,
			"0.013": 2.84089159623,
			"0.014": 0.0447439824739,
			"0.015": 0.0,
			"0.016": 0.0,
			"0.017": 0.0,
			"0.018": 0.0,
			"0.019": 0.0,
			"0.02": 0.0,
			"0.021": 0.0,
			"0.022": 0.0,
			"0.023": 0.0,
			"0.024": 0.0,
			"0.025": 0.0
		}
	}
}
