{
	 "smiles": "BrC1=CC=C(C=C1)C1=CSN=N1", 
	 "Tm": 428.15, 
	 "num_atms": 17, 
	 "gaussian": { 
		 "optdone": 1, 
		 "sigma_profile": "yes", 
		 "theory": "DFT", 
		 "functional": "B3LYP", 
		 "basiset": "6-31G**", 
		 "properties": { 
			 "R2extent": 6453.6584, 
			 "electric_dipole_moment_norm": 2.88066400852, 
			 "electric_quadrupole_moment_norm": 15.4749937467, 
			 "total_energy": -3386.91762554, 
			 "HOMO_LUMO_gap": 0.16534, 
			 "cosmo_polarized_energy": -8.98, 
			 "cosmo_cavitation_energy": 25.97, 
			 "cosmo_dispersion_energy": -20.4, 
			 "cosmo_repulsion_energy": 1.55, 
			 "cosmo_total_nonelectrostatic_energy": 7.11, 
			 "SMD_solvation_energy": 1.57 
		},
		"coords": [
			{
				"x": 2.3862413291,
				"y": -4.2732598506,
				"z": -0.8812720229,
				"element": "Br" 
			},
			{
				"x": 1.90550137,
				"y": -2.645156655,
				"z": -0.0080951609,
				"element": "C" 
			},
			{
				"x": 2.8554623742,
				"y": -1.97094556,
				"z": 0.7585686599,
				"element": "C" 
			},
			{
				"x": 2.5000618566,
				"y": -0.7841955887,
				"z": 1.3934586234,
				"element": "C" 
			},
			{
				"x": 1.2038908266,
				"y": -0.2578610146,
				"z": 1.2737621594,
				"element": "C" 
			},
			{
				"x": 0.2666836916,
				"y": -0.957385565,
				"z": 0.4952749747,
				"element": "C" 
			},
			{
				"x": 0.6114574739,
				"y": -2.1453379219,
				"z": -0.1441286526,
				"element": "C" 
			},
			{
				"x": 0.8143872881,
				"y": 0.9962231004,
				"z": 1.9399703403,
				"element": "C" 
			},
			{
				"x": 1.580280868,
				"y": 1.8196361556,
				"z": 2.7382250688,
				"element": "C" 
			},
			{
				"x": 0.651676405,
				"y": 3.1460363894,
				"z": 3.2604068132,
				"element": "S" 
			},
			{
				"x": -0.7529117532,
				"y": 2.5551702652,
				"z": 2.3857213633,
				"element": "N" 
			},
			{
				"x": -0.4755813661,
				"y": 1.4717145979,
				"z": 1.7892615127,
				"element": "N" 
			},
			{
				"x": 3.8589793017,
				"y": -2.3683849951,
				"z": 0.8576864567,
				"element": "H" 
			},
			{
				"x": 3.2493794315,
				"y": -0.2696198507,
				"z": 1.9871420833,
				"element": "H" 
			},
			{
				"x": -0.737195118,
				"y": -0.5606332194,
				"z": 0.3955583308,
				"element": "H" 
			},
			{
				"x": -0.1189051211,
				"y": -2.6777188046,
				"z": -0.7425863786,
				"element": "H" 
			},
			{
				"x": 2.6146911419,
				"y": 1.6920185169,
				"z": 3.0217458286,
				"element": "H" 
			}
		],
		 "valence_orbital": [ 
			{
				"type": "occ",
				"energy": -0.2927,
				"method": "rhf"
			},
			{
				"type": "occ",
				"energy": -0.28798,
				"method": "rhf"
			},
			{
				"type": "occ",
				"energy": -0.2728,
				"method": "rhf"
			},
			{
				"type": "occ",
				"energy": -0.26996,
				"method": "rhf"
			},
			{
				"type": "occ",
				"energy": -0.23536,
				"method": "rhf"
			},
			{
				"type": "unocc",
				"energy": -0.07002,
				"method": "rhf"
			},
			{
				"type": "unocc",
				"energy": -0.04075,
				"method": "rhf"
			},
			{
				"type": "unocc",
				"energy": -0.02057,
				"method": "rhf"
			},
			{
				"type": "unocc",
				"energy": -0.01985,
				"method": "rhf"
			},
			{
				"type": "unocc",
				"energy": 0.00218,
				"method": "rhf"
			}
		],
		"cosmo_sigma_profile": { 
			"-0.025": 0.0,
			"-0.024": 0.0,
			"-0.023": 0.0,
			"-0.022": 0.0,
			"-0.021": 0.0,
			"-0.02": 0.0,
			"-0.019": 0.0,
			"-0.018": 0.0,
			"-0.017": 0.0,
			"-0.016": 0.0,
			"-0.015": 0.0,
			"-0.014": 0.0,
			"-0.013": 0.0,
			"-0.012": 0.780009203156,
			"-0.011": 2.61691272839,
			"-0.01": 2.65525068062,
			"-0.009": 2.40598151351,
			"-0.008": 3.23954990266,
			"-0.007": 6.34060267739,
			"-0.006": 8.15993118849,
			"-0.005": 8.21170897677,
			"-0.004": 9.15962937461,
			"-0.003": 12.0526303051,
			"-0.002": 14.4920878192,
			"-0.001": 19.5169558093,
			"0.0": 24.7105119267,
			"0.001": 21.1474751042,
			"0.002": 21.5483698765,
			"0.003": 21.638960921,
			"0.004": 14.216546453,
			"0.005": 6.54782802149,
			"0.006": 2.14826706301,
			"0.007": 2.71339253963,
			"0.008": 2.63130621244,
			"0.009": 3.05622086866,
			"0.01": 3.33242040194,
			"0.011": 1.61820743753,
			"0.012": 1.02018509558,
			"0.013": 0.166806441143,
			"0.014": 0.0,
			"0.015": 0.0,
			"0.016": 0.0,
			"0.017": 0.0,
			"0.018": 0.0,
			"0.019": 0.0,
			"0.02": 0.0,
			"0.021": 0.0,
			"0.022": 0.0,
			"0.023": 0.0,
			"0.024": 0.0,
			"0.025": 0.0
		}
	}
}
