{
	 "smiles": "NCC1(CC(O)=O)CCCCC1", 
	 "Tm": 437.15, 
	 "num_atms": 29, 
	 "gaussian": { 
		 "optdone": 1, 
		 "sigma_profile": "yes", 
		 "theory": "DFT", 
		 "functional": "B3LYP", 
		 "basiset": "6-31G**", 
		 "properties": { 
			 "R2extent": 2174.0889, 
			 "electric_dipole_moment_norm": 4.94828552329, 
			 "electric_quadrupole_moment_norm": 11.8577133858, 
			 "total_energy": -558.418605895, 
			 "HOMO_LUMO_gap": 0.25343, 
			 "cosmo_polarized_energy": -15.96, 
			 "cosmo_cavitation_energy": 28.09, 
			 "cosmo_dispersion_energy": -20.51, 
			 "cosmo_repulsion_energy": 1.63, 
			 "cosmo_total_nonelectrostatic_energy": 9.21, 
			 "SMD_solvation_energy": 4.11 
		},
		"coords": [
			{
				"x": 1.9358902468,
				"y": 0.6164480117,
				"z": 1.873509373,
				"element": "N" 
			},
			{
				"x": 1.297869995,
				"y": 1.2167142928,
				"z": 0.7005374764,
				"element": "C" 
			},
			{
				"x": 0.2482120598,
				"y": 0.2795362834,
				"z": 0.0354204692,
				"element": "C" 
			},
			{
				"x": -0.8144424838,
				"y": -0.0032396363,
				"z": 1.1460542481,
				"element": "C" 
			},
			{
				"x": -1.8458593489,
				"y": -1.0932510576,
				"z": 0.9137230952,
				"element": "C" 
			},
			{
				"x": -3.0835643171,
				"y": -0.6864684985,
				"z": 0.5004387307,
				"element": "O" 
			},
			{
				"x": -1.64163358,
				"y": -2.2704435213,
				"z": 1.0884038136,
				"element": "O" 
			},
			{
				"x": -0.344295895,
				"y": 1.0518201897,
				"z": -1.1727583734,
				"element": "C" 
			},
			{
				"x": -1.102958531,
				"y": 0.1925520015,
				"z": -2.1970441246,
				"element": "C" 
			},
			{
				"x": -0.2228102729,
				"y": -0.9575189885,
				"z": -2.7022709249,
				"element": "C" 
			},
			{
				"x": 0.2503122671,
				"y": -1.828661092,
				"z": -1.53218448,
				"element": "C" 
			},
			{
				"x": 0.9782345793,
				"y": -1.0049624756,
				"z": -0.4534547769,
				"element": "C" 
			},
			{
				"x": 2.6268764022,
				"y": -0.0724908681,
				"z": 1.5902348911,
				"element": "H" 
			},
			{
				"x": 2.430880917,
				"y": 1.3241981437,
				"z": 2.4074673371,
				"element": "H" 
			},
			{
				"x": 0.7916441636,
				"y": 2.1333087042,
				"z": 1.0301509356,
				"element": "H" 
			},
			{
				"x": 2.0137765447,
				"y": 1.5188081186,
				"z": -0.0833601135,
				"element": "H" 
			},
			{
				"x": -0.2553304207,
				"y": -0.2970478364,
				"z": 2.0385879767,
				"element": "H" 
			},
			{
				"x": -1.3179768545,
				"y": 0.9452454976,
				"z": 1.3793939424,
				"element": "H" 
			},
			{
				"x": -3.098198134,
				"y": 0.2760940257,
				"z": 0.4100964866,
				"element": "H" 
			},
			{
				"x": -0.9816833158,
				"y": 1.8689707161,
				"z": -0.8054714395,
				"element": "H" 
			},
			{
				"x": 0.4883280984,
				"y": 1.5390717788,
				"z": -1.7006412766,
				"element": "H" 
			},
			{
				"x": -2.0170480901,
				"y": -0.2206871302,
				"z": -1.754375511,
				"element": "H" 
			},
			{
				"x": -1.422758334,
				"y": 0.828009182,
				"z": -3.0318895939,
				"element": "H" 
			},
			{
				"x": -0.7713184365,
				"y": -1.5660397961,
				"z": -3.4306358203,
				"element": "H" 
			},
			{
				"x": 0.6465673489,
				"y": -0.540639379,
				"z": -3.232015774,
				"element": "H" 
			},
			{
				"x": 0.930953387,
				"y": -2.6096795412,
				"z": -1.8923616971,
				"element": "H" 
			},
			{
				"x": -0.6050283137,
				"y": -2.3486400894,
				"z": -1.0921549373,
				"element": "H" 
			},
			{
				"x": 1.944983591,
				"y": -0.6861094176,
				"z": -0.8722545843,
				"element": "H" 
			},
			{
				"x": 1.2009767271,
				"y": -1.6461976179,
				"z": 0.4062546517,
				"element": "H" 
			}
		],
		 "valence_orbital": [ 
			{
				"type": "occ",
				"energy": -0.30201,
				"method": "rhf"
			},
			{
				"type": "occ",
				"energy": -0.29844,
				"method": "rhf"
			},
			{
				"type": "occ",
				"energy": -0.29485,
				"method": "rhf"
			},
			{
				"type": "occ",
				"energy": -0.26126,
				"method": "rhf"
			},
			{
				"type": "occ",
				"energy": -0.24249,
				"method": "rhf"
			},
			{
				"type": "unocc",
				"energy": 0.01094,
				"method": "rhf"
			},
			{
				"type": "unocc",
				"energy": 0.04996,
				"method": "rhf"
			},
			{
				"type": "unocc",
				"energy": 0.07321,
				"method": "rhf"
			},
			{
				"type": "unocc",
				"energy": 0.09449,
				"method": "rhf"
			},
			{
				"type": "unocc",
				"energy": 0.10796,
				"method": "rhf"
			}
		],
		"cosmo_sigma_profile": { 
			"-0.025": 0.0,
			"-0.024": 0.0,
			"-0.023": 0.0,
			"-0.022": 0.0,
			"-0.021": 0.0,
			"-0.02": 0.0,
			"-0.019": 0.0,
			"-0.018": 0.485138846592,
			"-0.017": 0.651873775551,
			"-0.016": 0.882572433655,
			"-0.015": 1.05343934616,
			"-0.014": 0.834152526571,
			"-0.013": 1.21705238764,
			"-0.012": 0.802731682996,
			"-0.011": 1.36806126953,
			"-0.01": 3.14212155382,
			"-0.009": 3.10536831772,
			"-0.008": 4.00106482506,
			"-0.007": 3.88980832552,
			"-0.006": 5.69128661803,
			"-0.005": 5.56677698941,
			"-0.004": 7.31874366955,
			"-0.003": 14.5541004392,
			"-0.002": 26.934771503,
			"-0.001": 26.8590980241,
			"0.0": 30.7155778796,
			"0.001": 20.9905196513,
			"0.002": 9.01794133754,
			"0.003": 3.93013124076,
			"0.004": 3.72885606204,
			"0.005": 3.21321921399,
			"0.006": 3.85653806346,
			"0.007": 3.44890360732,
			"0.008": 3.49826493451,
			"0.009": 3.19137957037,
			"0.01": 4.37426790406,
			"0.011": 5.77599753883,
			"0.012": 5.73677369115,
			"0.013": 3.70850392948,
			"0.014": 1.1818199656,
			"0.015": 0.60899661803,
			"0.016": 0.0456834628955,
			"0.017": 0.0,
			"0.018": 0.0,
			"0.019": 0.0,
			"0.02": 0.0,
			"0.021": 0.0,
			"0.022": 0.0,
			"0.023": 0.0,
			"0.024": 0.0,
			"0.025": 0.0
		}
	}
}
