{
	 "smiles": "CNC(=O)C1=C(Cl)C=C(C=C1)[N+]([O-])=O", 
	 "Tm": 440.15, 
	 "num_atms": 21, 
	 "gaussian": { 
		 "optdone": 1, 
		 "sigma_profile": "yes", 
		 "theory": "DFT", 
		 "functional": "B3LYP", 
		 "basiset": "6-31G**", 
		 "properties": { 
			 "R2extent": 3729.7523, 
			 "electric_dipole_moment_norm": 4.87635167928, 
			 "electric_quadrupole_moment_norm": 16.3848510366, 
			 "total_energy": -1104.34007226, 
			 "HOMO_LUMO_gap": 0.15996, 
			 "cosmo_polarized_energy": -14.81, 
			 "cosmo_cavitation_energy": 28.21, 
			 "cosmo_dispersion_energy": -20.19, 
			 "cosmo_repulsion_energy": 1.6, 
			 "cosmo_total_nonelectrostatic_energy": 9.63, 
			 "SMD_solvation_energy": 7.32 
		},
		"coords": [
			{
				"x": -1.8595406933,
				"y": 1.6110930359,
				"z": 2.5895488414,
				"element": "C" 
			},
			{
				"x": -1.3698462226,
				"y": 0.2859639333,
				"z": 2.9299996853,
				"element": "N" 
			},
			{
				"x": -0.7702415517,
				"y": -0.6371649233,
				"z": 2.1294900801,
				"element": "C" 
			},
			{
				"x": -0.3442408806,
				"y": -1.7034745145,
				"z": 2.5558034714,
				"element": "O" 
			},
			{
				"x": -0.5759141267,
				"y": -0.2957307389,
				"z": 0.66517226,
				"element": "C" 
			},
			{
				"x": -1.6177704376,
				"y": -0.238823167,
				"z": -0.2728258958,
				"element": "C" 
			},
			{
				"x": -3.2843842027,
				"y": -0.4717142949,
				"z": 0.2249662116,
				"element": "Cl" 
			},
			{
				"x": -1.3656907373,
				"y": -0.0218678227,
				"z": -1.6255545222,
				"element": "C" 
			},
			{
				"x": -0.0447669463,
				"y": 0.1371822598,
				"z": -2.0304912164,
				"element": "C" 
			},
			{
				"x": 1.0221220533,
				"y": 0.069648686,
				"z": -1.1377434013,
				"element": "C" 
			},
			{
				"x": 0.7424405539,
				"y": -0.1600632117,
				"z": 0.2042952955,
				"element": "C" 
			},
			{
				"x": 0.2276983816,
				"y": 0.3794804636,
				"z": -3.4590152583,
				"element": "N" 
			},
			{
				"x": 1.4022161868,
				"y": 0.5180802751,
				"z": -3.794583525,
				"element": "O" 
			},
			{
				"x": -0.7355090445,
				"y": 0.4299204984,
				"z": -4.221481639,
				"element": "O" 
			},
			{
				"x": -1.5275210295,
				"y": 2.3345157485,
				"z": 3.3407039183,
				"element": "H" 
			},
			{
				"x": -2.953020171,
				"y": 1.6416620274,
				"z": 2.5280449274,
				"element": "H" 
			},
			{
				"x": -1.4534702777,
				"y": 1.9184360167,
				"z": 1.6249670168,
				"element": "H" 
			},
			{
				"x": -1.478830563,
				"y": -0.0331672872,
				"z": 3.8844216387,
				"element": "H" 
			},
			{
				"x": -2.1656401505,
				"y": 0.0198459382,
				"z": -2.3528617305,
				"element": "H" 
			},
			{
				"x": 2.0347865458,
				"y": 0.1875319822,
				"z": -1.5011368659,
				"element": "H" 
			},
			{
				"x": 1.5528233136,
				"y": -0.2445549047,
				"z": 0.920580708,
				"element": "H" 
			}
		],
		 "valence_orbital": [ 
			{
				"type": "occ",
				"energy": -0.30338,
				"method": "rhf"
			},
			{
				"type": "occ",
				"energy": -0.30208,
				"method": "rhf"
			},
			{
				"type": "occ",
				"energy": -0.2796,
				"method": "rhf"
			},
			{
				"type": "occ",
				"energy": -0.26719,
				"method": "rhf"
			},
			{
				"type": "occ",
				"energy": -0.26257,
				"method": "rhf"
			},
			{
				"type": "unocc",
				"energy": -0.10261,
				"method": "rhf"
			},
			{
				"type": "unocc",
				"energy": -0.04441,
				"method": "rhf"
			},
			{
				"type": "unocc",
				"energy": -0.02284,
				"method": "rhf"
			},
			{
				"type": "unocc",
				"energy": 0.00473,
				"method": "rhf"
			},
			{
				"type": "unocc",
				"energy": 0.01872,
				"method": "rhf"
			}
		],
		"cosmo_sigma_profile": { 
			"-0.025": 0.0,
			"-0.024": 0.0,
			"-0.023": 0.0,
			"-0.022": 0.0,
			"-0.021": 0.0,
			"-0.02": 0.0,
			"-0.019": 0.0,
			"-0.018": 0.0,
			"-0.017": 0.0,
			"-0.016": 0.0,
			"-0.015": 0.182726571649,
			"-0.014": 1.0579409573,
			"-0.013": 1.33958270923,
			"-0.012": 0.94321685297,
			"-0.011": 0.598966506399,
			"-0.01": 1.02655816115,
			"-0.009": 2.62023805098,
			"-0.008": 5.76168440569,
			"-0.007": 7.52108731595,
			"-0.006": 10.8088769652,
			"-0.005": 14.212559005,
			"-0.004": 16.0491351206,
			"-0.003": 20.4014978438,
			"-0.002": 20.6782589251,
			"-0.001": 20.4972902307,
			"0.0": 15.2311443842,
			"0.001": 11.9672041696,
			"0.002": 11.0861815997,
			"0.003": 11.8403173707,
			"0.004": 6.15528857906,
			"0.005": 4.6833445401,
			"0.006": 6.11401095429,
			"0.007": 10.5895789034,
			"0.008": 6.81761417242,
			"0.009": 4.83713715885,
			"0.01": 2.36242209087,
			"0.011": 1.65754568676,
			"0.012": 2.97711823114,
			"0.013": 5.82719218179,
			"0.014": 1.9387382204,
			"0.015": 0.0,
			"0.016": 0.0,
			"0.017": 0.0,
			"0.018": 0.0,
			"0.019": 0.0,
			"0.02": 0.0,
			"0.021": 0.0,
			"0.022": 0.0,
			"0.023": 0.0,
			"0.024": 0.0,
			"0.025": 0.0
		}
	}
}
