{
	 "smiles": "CCC1=NC2=C(C=CC=C2)N1C1CCNCC1", 
	 "Tm": 373.15, 
	 "num_atms": 36, 
	 "gaussian": { 
		 "optdone": 1, 
		 "sigma_profile": "yes", 
		 "theory": "DFT", 
		 "functional": "B3LYP", 
		 "basiset": "6-31G**", 
		 "properties": { 
			 "R2extent": 4590.8303, 
			 "electric_dipole_moment_norm": 4.72425131, 
			 "electric_quadrupole_moment_norm": 5.33648398386, 
			 "total_energy": -709.206620059, 
			 "HOMO_LUMO_gap": 0.20407, 
			 "cosmo_polarized_energy": -12.4, 
			 "cosmo_cavitation_energy": 35.92, 
			 "cosmo_dispersion_energy": -25.68, 
			 "cosmo_repulsion_energy": 1.99, 
			 "cosmo_total_nonelectrostatic_energy": 12.23, 
			 "SMD_solvation_energy": 1.48 
		},
		"coords": [
			{
				"x": -2.4468333225,
				"y": -1.1162067412,
				"z": 1.7221538743,
				"element": "C" 
			},
			{
				"x": -0.969188008,
				"y": -1.5264277266,
				"z": 1.5841234166,
				"element": "C" 
			},
			{
				"x": -0.5157530323,
				"y": -1.5669948428,
				"z": 0.1503292685,
				"element": "C" 
			},
			{
				"x": -0.9068926265,
				"y": -2.5211499749,
				"z": -0.6650645281,
				"element": "N" 
			},
			{
				"x": -0.3379133492,
				"y": -2.2213720263,
				"z": -1.8888968353,
				"element": "C" 
			},
			{
				"x": 0.4261325208,
				"y": -1.0354037383,
				"z": -1.7920046183,
				"element": "C" 
			},
			{
				"x": 1.1174784035,
				"y": -0.5081792761,
				"z": -2.8869961935,
				"element": "C" 
			},
			{
				"x": 1.0197893295,
				"y": -1.2017995131,
				"z": -4.0913281606,
				"element": "C" 
			},
			{
				"x": 0.2601691951,
				"y": -2.3834696254,
				"z": -4.2021724796,
				"element": "C" 
			},
			{
				"x": -0.4231904255,
				"y": -2.9049253138,
				"z": -3.1088571928,
				"element": "C" 
			},
			{
				"x": 0.2985545115,
				"y": -0.6210763185,
				"z": -0.4677672382,
				"element": "N" 
			},
			{
				"x": 0.9637993206,
				"y": 0.566130226,
				"z": 0.0821666378,
				"element": "C" 
			},
			{
				"x": 2.0833057873,
				"y": 0.2193319001,
				"z": 1.0949680266,
				"element": "C" 
			},
			{
				"x": 2.4282566443,
				"y": 1.4579193286,
				"z": 1.9516924098,
				"element": "C" 
			},
			{
				"x": 2.1872878604,
				"y": 2.658857367,
				"z": 1.152798502,
				"element": "N" 
			},
			{
				"x": 0.7552801665,
				"y": 2.9272711351,
				"z": 0.9650100135,
				"element": "C" 
			},
			{
				"x": -0.0039098596,
				"y": 1.6101400605,
				"z": 0.6661656321,
				"element": "C" 
			},
			{
				"x": -2.7655856041,
				"y": -1.1674609873,
				"z": 2.768258604,
				"element": "H" 
			},
			{
				"x": -2.6148478562,
				"y": -0.0950572947,
				"z": 1.365051796,
				"element": "H" 
			},
			{
				"x": -3.0762231455,
				"y": -1.787537067,
				"z": 1.1328116724,
				"element": "H" 
			},
			{
				"x": -0.3369268424,
				"y": -0.8678224347,
				"z": 2.1837789305,
				"element": "H" 
			},
			{
				"x": -0.8441028309,
				"y": -2.5377785104,
				"z": 1.9846144001,
				"element": "H" 
			},
			{
				"x": 1.7092178148,
				"y": 0.3996818269,
				"z": -2.8188517319,
				"element": "H" 
			},
			{
				"x": 1.5426028351,
				"y": -0.8215270051,
				"z": -4.9641446282,
				"element": "H" 
			},
			{
				"x": 0.2108797263,
				"y": -2.8929611781,
				"z": -5.1601524299,
				"element": "H" 
			},
			{
				"x": -1.0102315093,
				"y": -3.8149231282,
				"z": -3.1823413837,
				"element": "H" 
			},
			{
				"x": 1.4452748884,
				"y": 1.0399901284,
				"z": -0.7748864594,
				"element": "H" 
			},
			{
				"x": 2.9620775706,
				"y": -0.1210468901,
				"z": 0.5381733061,
				"element": "H" 
			},
			{
				"x": 1.7772313499,
				"y": -0.608210527,
				"z": 1.7418190449,
				"element": "H" 
			},
			{
				"x": 3.4824627211,
				"y": 1.4325976874,
				"z": 2.2437471788,
				"element": "H" 
			},
			{
				"x": 1.8408251402,
				"y": 1.4427190339,
				"z": 2.8896801346,
				"element": "H" 
			},
			{
				"x": 2.6438581866,
				"y": 3.4669255002,
				"z": 1.5629420024,
				"element": "H" 
			},
			{
				"x": 0.6490952105,
				"y": 3.6227707292,
				"z": 0.1237915985,
				"element": "H" 
			},
			{
				"x": 0.2888765365,
				"y": 3.409479857,
				"z": 1.8423311932,
				"element": "H" 
			},
			{
				"x": -0.8223673783,
				"y": 1.7951983856,
				"z": -0.0359492191,
				"element": "H" 
			},
			{
				"x": -0.4570899294,
				"y": 1.2266169537,
				"z": 1.5850054561,
				"element": "H" 
			}
		],
		 "valence_orbital": [ 
			{
				"type": "occ",
				"energy": -0.282,
				"method": "rhf"
			},
			{
				"type": "occ",
				"energy": -0.25604,
				"method": "rhf"
			},
			{
				"type": "occ",
				"energy": -0.2266,
				"method": "rhf"
			},
			{
				"type": "occ",
				"energy": -0.21297,
				"method": "rhf"
			},
			{
				"type": "occ",
				"energy": -0.20839,
				"method": "rhf"
			},
			{
				"type": "unocc",
				"energy": -0.00432,
				"method": "rhf"
			},
			{
				"type": "unocc",
				"energy": 0.03299,
				"method": "rhf"
			},
			{
				"type": "unocc",
				"energy": 0.05924,
				"method": "rhf"
			},
			{
				"type": "unocc",
				"energy": 0.05968,
				"method": "rhf"
			},
			{
				"type": "unocc",
				"energy": 0.08859,
				"method": "rhf"
			}
		],
		"cosmo_sigma_profile": { 
			"-0.025": 0.0,
			"-0.024": 0.0,
			"-0.023": 0.0,
			"-0.022": 0.0,
			"-0.021": 0.0,
			"-0.02": 0.0,
			"-0.019": 0.0,
			"-0.018": 0.0,
			"-0.017": 0.0,
			"-0.016": 0.0,
			"-0.015": 0.0,
			"-0.014": 0.0,
			"-0.013": 0.0,
			"-0.012": 0.0,
			"-0.011": 0.0,
			"-0.01": 1.34648510572,
			"-0.009": 0.923855636067,
			"-0.008": 1.37720114975,
			"-0.007": 3.63691496956,
			"-0.006": 4.95147028237,
			"-0.005": 13.7080756331,
			"-0.004": 22.6880757058,
			"-0.003": 36.7637462991,
			"-0.002": 44.6576661866,
			"-0.001": 34.7243172889,
			"0.0": 26.3233726504,
			"0.001": 14.1230575146,
			"0.002": 10.273482279,
			"0.003": 8.60694490793,
			"0.004": 10.8247861751,
			"0.005": 12.2890103822,
			"0.006": 11.3284260043,
			"0.007": 6.44570305528,
			"0.008": 2.86773408163,
			"0.009": 1.42529900185,
			"0.01": 1.83912024775,
			"0.011": 2.18988222379,
			"0.012": 1.44190974201,
			"0.013": 1.25967383541,
			"0.014": 1.11347852116,
			"0.015": 1.42419930616,
			"0.016": 1.75732630433,
			"0.017": 0.665794102868,
			"0.018": 0.578229658626,
			"0.019": 0.146349169547,
			"0.02": 0.0,
			"0.021": 0.0,
			"0.022": 0.0,
			"0.023": 0.0,
			"0.024": 0.0,
			"0.025": 0.0
		}
	}
}
