{
	 "smiles": "OCC1(CO)CCC=CC1", 
	 "Tm": 361.65, 
	 "num_atms": 24, 
	 "gaussian": { 
		 "optdone": 1, 
		 "sigma_profile": "yes", 
		 "theory": "DFT", 
		 "functional": "B3LYP", 
		 "basiset": "6-31G**", 
		 "properties": { 
			 "R2extent": 1665.273, 
			 "electric_dipole_moment_norm": 2.13567579468, 
			 "electric_quadrupole_moment_norm": 4.79179248194, 
			 "total_energy": -463.698395816, 
			 "HOMO_LUMO_gap": 0.26756, 
			 "cosmo_polarized_energy": -10.56, 
			 "cosmo_cavitation_energy": 24.28, 
			 "cosmo_dispersion_energy": -18.17, 
			 "cosmo_repulsion_energy": 1.49, 
			 "cosmo_total_nonelectrostatic_energy": 7.61, 
			 "SMD_solvation_energy": 3.98 
		},
		"coords": [
			{
				"x": 2.2564958911,
				"y": -1.7971971473,
				"z": -0.2270559784,
				"element": "O" 
			},
			{
				"x": 1.0486393121,
				"y": -1.5775371186,
				"z": 0.4944860336,
				"element": "C" 
			},
			{
				"x": 0.3410856532,
				"y": -0.3004553179,
				"z": -0.0014096695,
				"element": "C" 
			},
			{
				"x": -1.0525646074,
				"y": -0.2813419293,
				"z": 0.6527861853,
				"element": "C" 
			},
			{
				"x": -0.9169799705,
				"y": -0.3342980096,
				"z": 2.0696745385,
				"element": "O" 
			},
			{
				"x": 1.1049843695,
				"y": 0.9857683442,
				"z": 0.3988581629,
				"element": "C" 
			},
			{
				"x": 2.4235922514,
				"y": 1.1964219012,
				"z": -0.359563496,
				"element": "C" 
			},
			{
				"x": 2.245614515,
				"y": 0.9898987124,
				"z": -1.8391362671,
				"element": "C" 
			},
			{
				"x": 1.2233133097,
				"y": 0.3039792542,
				"z": -2.3545043519,
				"element": "C" 
			},
			{
				"x": 0.131305211,
				"y": -0.3426169244,
				"z": -1.5401356215,
				"element": "C" 
			},
			{
				"x": 2.6966895585,
				"y": -2.5608111017,
				"z": 0.1651986442,
				"element": "H" 
			},
			{
				"x": 1.2367168075,
				"y": -1.4815628422,
				"z": 1.5722245222,
				"element": "H" 
			},
			{
				"x": 0.3605441146,
				"y": -2.4297766795,
				"z": 0.3571250599,
				"element": "H" 
			},
			{
				"x": -1.6398120752,
				"y": -1.1387800814,
				"z": 0.2821515826,
				"element": "H" 
			},
			{
				"x": -1.576190637,
				"y": 0.6360521569,
				"z": 0.3398989472,
				"element": "H" 
			},
			{
				"x": -1.7990755154,
				"y": -0.2995593024,
				"z": 2.4584159839,
				"element": "H" 
			},
			{
				"x": 1.2726314092,
				"y": 0.984056813,
				"z": 1.4806093652,
				"element": "H" 
			},
			{
				"x": 0.4485011771,
				"y": 1.8406907964,
				"z": 0.1859996215,
				"element": "H" 
			},
			{
				"x": 2.7976175308,
				"y": 2.2102470297,
				"z": -0.1630362958,
				"element": "H" 
			},
			{
				"x": 3.1903211857,
				"y": 0.5042692938,
				"z": 0.0100337946,
				"element": "H" 
			},
			{
				"x": 2.9988202211,
				"y": 1.41044336,
				"z": -2.5036092115,
				"element": "H" 
			},
			{
				"x": 1.1431201094,
				"y": 0.185447776,
				"z": -3.4343563818,
				"element": "H" 
			},
			{
				"x": -0.8234998212,
				"y": 0.1473981776,
				"z": -1.7918278319,
				"element": "H" 
			},
			{
				"x": 0.0123299999,
				"y": -1.386437161,
				"z": -1.8621273365,
				"element": "H" 
			}
		],
		 "valence_orbital": [ 
			{
				"type": "occ",
				"energy": -0.29602,
				"method": "rhf"
			},
			{
				"type": "occ",
				"energy": -0.29027,
				"method": "rhf"
			},
			{
				"type": "occ",
				"energy": -0.26716,
				"method": "rhf"
			},
			{
				"type": "occ",
				"energy": -0.25525,
				"method": "rhf"
			},
			{
				"type": "occ",
				"energy": -0.22161,
				"method": "rhf"
			},
			{
				"type": "unocc",
				"energy": 0.04595,
				"method": "rhf"
			},
			{
				"type": "unocc",
				"energy": 0.07225,
				"method": "rhf"
			},
			{
				"type": "unocc",
				"energy": 0.07802,
				"method": "rhf"
			},
			{
				"type": "unocc",
				"energy": 0.10573,
				"method": "rhf"
			},
			{
				"type": "unocc",
				"energy": 0.12803,
				"method": "rhf"
			}
		],
		"cosmo_sigma_profile": { 
			"-0.025": 0.0,
			"-0.024": 0.0,
			"-0.023": 0.0,
			"-0.022": 0.0,
			"-0.021": 0.0,
			"-0.02": 0.0,
			"-0.019": 0.0,
			"-0.018": 0.0,
			"-0.017": 0.0,
			"-0.016": 0.427467083956,
			"-0.015": 2.04670312568,
			"-0.014": 1.8262940494,
			"-0.013": 2.47124791872,
			"-0.012": 1.3972232585,
			"-0.011": 0.935762189673,
			"-0.01": 1.7513811891,
			"-0.009": 2.05096165841,
			"-0.008": 1.77006636175,
			"-0.007": 1.72702539638,
			"-0.006": 1.64618945298,
			"-0.005": 2.01645840257,
			"-0.004": 5.49197425855,
			"-0.003": 22.0543090898,
			"-0.002": 24.9420601894,
			"-0.001": 23.9597807593,
			"0.0": 19.7693755871,
			"0.001": 15.8551725815,
			"0.002": 8.4829105042,
			"0.003": 6.27468858404,
			"0.004": 5.22312460537,
			"0.005": 4.65581694208,
			"0.006": 6.33004271386,
			"0.007": 4.07421114689,
			"0.008": 4.11536606972,
			"0.009": 2.89930573179,
			"0.01": 2.19312097804,
			"0.011": 3.37426175488,
			"0.012": 3.12598155258,
			"0.013": 1.70366563841,
			"0.014": 0.808569007979,
			"0.015": 1.09982360966,
			"0.016": 0.122859364808,
			"0.017": 0.0,
			"0.018": 0.0,
			"0.019": 0.0,
			"0.02": 0.0,
			"0.021": 0.0,
			"0.022": 0.0,
			"0.023": 0.0,
			"0.024": 0.0,
			"0.025": 0.0
		}
	}
}
