{
	 "smiles": "CCC1=NC(N)=NC(Cl)=C1C", 
	 "Tm": 412.15, 
	 "num_atms": 21, 
	 "gaussian": { 
		 "optdone": 1, 
		 "sigma_profile": "yes", 
		 "theory": "DFT", 
		 "functional": "B3LYP", 
		 "basiset": "6-31G**", 
		 "properties": { 
			 "R2extent": 2580.9188, 
			 "electric_dipole_moment_norm": 2.27043462579, 
			 "electric_quadrupole_moment_norm": 11.6818811666, 
			 "total_energy": -897.250493077, 
			 "HOMO_LUMO_gap": 0.19527, 
			 "cosmo_polarized_energy": -9.12, 
			 "cosmo_cavitation_energy": 25.87, 
			 "cosmo_dispersion_energy": -19.35, 
			 "cosmo_repulsion_energy": 1.6, 
			 "cosmo_total_nonelectrostatic_energy": 8.12, 
			 "SMD_solvation_energy": 1.84 
		},
		"coords": [
			{
				"x": -1.6034831244,
				"y": -2.006221745,
				"z": 0.9887319578,
				"element": "C" 
			},
			{
				"x": -1.5446125253,
				"y": -1.2511612774,
				"z": -0.3395206563,
				"element": "C" 
			},
			{
				"x": -0.3703052866,
				"y": -0.2990436517,
				"z": -0.4843943059,
				"element": "C" 
			},
			{
				"x": 0.5028092199,
				"y": -0.267446946,
				"z": 0.5265230022,
				"element": "N" 
			},
			{
				"x": 1.5425768711,
				"y": 0.5742104106,
				"z": 0.412934565,
				"element": "C" 
			},
			{
				"x": 2.4642073378,
				"y": 0.569199328,
				"z": 1.4197067752,
				"element": "N" 
			},
			{
				"x": 1.7712803298,
				"y": 1.4087604739,
				"z": -0.6165916916,
				"element": "N" 
			},
			{
				"x": 0.8891910631,
				"y": 1.3504153296,
				"z": -1.5940381315,
				"element": "C" 
			},
			{
				"x": 1.1857462934,
				"y": 2.4630230629,
				"z": -2.9369078992,
				"element": "Cl" 
			},
			{
				"x": -0.2282970156,
				"y": 0.5089295103,
				"z": -1.6371440478,
				"element": "C" 
			},
			{
				"x": -1.1981840574,
				"y": 0.492847315,
				"z": -2.789998058,
				"element": "C" 
			},
			{
				"x": -1.6737840208,
				"y": -1.316257476,
				"z": 1.8335043041,
				"element": "H" 
			},
			{
				"x": -2.4772884777,
				"y": -2.6651687248,
				"z": 1.0055114339,
				"element": "H" 
			},
			{
				"x": -0.7072496167,
				"y": -2.6124765081,
				"z": 1.1396529448,
				"element": "H" 
			},
			{
				"x": -2.472456063,
				"y": -0.6830772397,
				"z": -0.4880700993,
				"element": "H" 
			},
			{
				"x": -1.5111926365,
				"y": -1.9685431372,
				"z": -1.1712395426,
				"element": "H" 
			},
			{
				"x": 3.1202981954,
				"y": 1.332852398,
				"z": 1.4512456468,
				"element": "H" 
			},
			{
				"x": 2.2007813415,
				"y": 0.1193896969,
				"z": 2.2814056192,
				"element": "H" 
			},
			{
				"x": -0.6713261271,
				"y": 0.5415259637,
				"z": -3.7463493662,
				"element": "H" 
			},
			{
				"x": -1.8782816933,
				"y": 1.3531654993,
				"z": -2.7567056935,
				"element": "H" 
			},
			{
				"x": -1.8092300076,
				"y": -0.4111222822,
				"z": -2.7889567573,
				"element": "H" 
			}
		],
		 "valence_orbital": [ 
			{
				"type": "occ",
				"energy": -0.30884,
				"method": "rhf"
			},
			{
				"type": "occ",
				"energy": -0.30548,
				"method": "rhf"
			},
			{
				"type": "occ",
				"energy": -0.28668,
				"method": "rhf"
			},
			{
				"type": "occ",
				"energy": -0.25187,
				"method": "rhf"
			},
			{
				"type": "occ",
				"energy": -0.22351,
				"method": "rhf"
			},
			{
				"type": "unocc",
				"energy": -0.02824,
				"method": "rhf"
			},
			{
				"type": "unocc",
				"energy": -0.00268,
				"method": "rhf"
			},
			{
				"type": "unocc",
				"energy": 0.03872,
				"method": "rhf"
			},
			{
				"type": "unocc",
				"energy": 0.09006,
				"method": "rhf"
			},
			{
				"type": "unocc",
				"energy": 0.09488,
				"method": "rhf"
			}
		],
		"cosmo_sigma_profile": { 
			"-0.025": 0.0,
			"-0.024": 0.0,
			"-0.023": 0.0,
			"-0.022": 0.0,
			"-0.021": 0.0,
			"-0.02": 0.0,
			"-0.019": 0.0,
			"-0.018": 0.0,
			"-0.017": 0.0,
			"-0.016": 0.0,
			"-0.015": 0.0,
			"-0.014": 0.701913502702,
			"-0.013": 2.05941795206,
			"-0.012": 2.24686653703,
			"-0.011": 2.16504260009,
			"-0.01": 2.01818624524,
			"-0.009": 1.54021800885,
			"-0.008": 1.9604530377,
			"-0.007": 1.45278708416,
			"-0.006": 2.13497330912,
			"-0.005": 6.57621771633,
			"-0.004": 11.7137641704,
			"-0.003": 16.3070828039,
			"-0.002": 20.0498670099,
			"-0.001": 25.8179389461,
			"0.0": 25.5499286959,
			"0.001": 18.3923673906,
			"0.002": 13.2521074523,
			"0.003": 9.66787337987,
			"0.004": 11.0409461364,
			"0.005": 9.02021632405,
			"0.006": 5.01232840553,
			"0.007": 4.03174741217,
			"0.008": 3.36825109004,
			"0.009": 3.90738635679,
			"0.01": 2.05209787896,
			"0.011": 1.85220550177,
			"0.012": 1.33222505256,
			"0.013": 0.7375241734,
			"0.014": 0.348138860133,
			"0.015": 0.0,
			"0.016": 0.0,
			"0.017": 0.0,
			"0.018": 0.0,
			"0.019": 0.0,
			"0.02": 0.0,
			"0.021": 0.0,
			"0.022": 0.0,
			"0.023": 0.0,
			"0.024": 0.0,
			"0.025": 0.0
		}
	}
}
