{
	 "smiles": "FC1=C(F)C(F)=C(OC(=O)C2=CC=C(OC3CCOCC3)C=C2)C(F)=C1F", 
	 "Tm": 385.15, 
	 "num_atms": 40, 
	 "gaussian": { 
		 "optdone": 1, 
		 "sigma_profile": "yes", 
		 "theory": "DFT", 
		 "functional": "B3LYP", 
		 "basiset": "6-31G**", 
		 "properties": { 
			 "R2extent": 19601.1774, 
			 "electric_dipole_moment_norm": 4.16477507796, 
			 "electric_quadrupole_moment_norm": 14.6202705461, 
			 "total_energy": -1493.76094516, 
			 "HOMO_LUMO_gap": 0.18781, 
			 "cosmo_polarized_energy": -11.99, 
			 "cosmo_cavitation_energy": 47.73, 
			 "cosmo_dispersion_energy": -33.03, 
			 "cosmo_repulsion_energy": 2.39, 
			 "cosmo_total_nonelectrostatic_energy": 17.1, 
			 "SMD_solvation_energy": 11.06 
		},
		"coords": [
			{
				"x": -5.7607018326,
				"y": 0.5444170332,
				"z": -5.877943453,
				"element": "F" 
			},
			{
				"x": -4.74698831,
				"y": 0.5220083317,
				"z": -5.0082935723,
				"element": "C" 
			},
			{
				"x": -4.5826410992,
				"y": 1.5698041345,
				"z": -4.1040616985,
				"element": "C" 
			},
			{
				"x": -5.4365200719,
				"y": 2.5986458595,
				"z": -4.1122889845,
				"element": "F" 
			},
			{
				"x": -3.5258431743,
				"y": 1.5410982002,
				"z": -3.1973493319,
				"element": "C" 
			},
			{
				"x": -3.3637884865,
				"y": 2.5520083988,
				"z": -2.3387800319,
				"element": "F" 
			},
			{
				"x": -2.6380045992,
				"y": 0.4660646843,
				"z": -3.1769947451,
				"element": "C" 
			},
			{
				"x": -1.6352621344,
				"y": 0.4098440461,
				"z": -2.2366123948,
				"element": "O" 
			},
			{
				"x": -0.4171899654,
				"y": 0.9827833587,
				"z": -2.600078944,
				"element": "C" 
			},
			{
				"x": -0.2530436864,
				"y": 1.4987000285,
				"z": -3.679729846,
				"element": "O" 
			},
			{
				"x": 0.5804995954,
				"y": 0.8671924318,
				"z": -1.5225251307,
				"element": "C" 
			},
			{
				"x": 0.3105536965,
				"y": 0.2505780416,
				"z": -0.2944011503,
				"element": "C" 
			},
			{
				"x": 1.2900350722,
				"y": 0.1656617073,
				"z": 0.6919641436,
				"element": "C" 
			},
			{
				"x": 2.5638853042,
				"y": 0.7088740208,
				"z": 0.4566332354,
				"element": "C" 
			},
			{
				"x": 3.5918094661,
				"y": 0.7023625703,
				"z": 1.341793168,
				"element": "O" 
			},
			{
				"x": 3.4293778121,
				"y": 0.1217600637,
				"z": 2.6504186794,
				"element": "C" 
			},
			{
				"x": 3.5181147014,
				"y": -1.4211239469,
				"z": 2.6097948599,
				"element": "C" 
			},
			{
				"x": 4.9477073465,
				"y": -1.8917104947,
				"z": 2.8724325437,
				"element": "C" 
			},
			{
				"x": 5.4148618263,
				"y": -1.5089413964,
				"z": 4.1648750152,
				"element": "O" 
			},
			{
				"x": 4.9340528347,
				"y": -0.2512714674,
				"z": 4.6379884359,
				"element": "C" 
			},
			{
				"x": 4.5645948638,
				"y": 0.7060480464,
				"z": 3.5056995702,
				"element": "C" 
			},
			{
				"x": 2.8400902898,
				"y": 1.3259246625,
				"z": -0.7782931188,
				"element": "C" 
			},
			{
				"x": 1.8610633345,
				"y": 1.4036533895,
				"z": -1.751856495,
				"element": "C" 
			},
			{
				"x": -2.8032918085,
				"y": -0.571294257,
				"z": -4.0940011842,
				"element": "C" 
			},
			{
				"x": -1.9451761995,
				"y": -1.5955187092,
				"z": -4.0993244676,
				"element": "F" 
			},
			{
				"x": -3.8572948199,
				"y": -0.5508013111,
				"z": -5.0041869645,
				"element": "C" 
			},
			{
				"x": -4.0163959831,
				"y": -1.5531816275,
				"z": -5.8745975205,
				"element": "F" 
			},
			{
				"x": -0.6715057543,
				"y": -0.1689942644,
				"z": -0.1094424598,
				"element": "H" 
			},
			{
				"x": 1.0551096614,
				"y": -0.3248463496,
				"z": 1.6282837656,
				"element": "H" 
			},
			{
				"x": 2.4591669097,
				"y": 0.4341268569,
				"z": 3.0546747166,
				"element": "H" 
			},
			{
				"x": 2.8582278628,
				"y": -1.8427646332,
				"z": 3.3775104131,
				"element": "H" 
			},
			{
				"x": 3.1668216901,
				"y": -1.7949406173,
				"z": 1.6431756282,
				"element": "H" 
			},
			{
				"x": 5.0116240038,
				"y": -2.9836237788,
				"z": 2.8367473292,
				"element": "H" 
			},
			{
				"x": 5.6146818578,
				"y": -1.497671636,
				"z": 2.0894773074,
				"element": "H" 
			},
			{
				"x": 4.0621386933,
				"y": -0.4071278996,
				"z": 5.2953301522,
				"element": "H" 
			},
			{
				"x": 5.7298334646,
				"y": 0.1767446369,
				"z": 5.2564228994,
				"element": "H" 
			},
			{
				"x": 5.436014993,
				"y": 0.8581204778,
				"z": 2.8599906908,
				"element": "H" 
			},
			{
				"x": 4.2850844797,
				"y": 1.6853765436,
				"z": 3.9063310005,
				"element": "H" 
			},
			{
				"x": 3.8309508269,
				"y": 1.7374331297,
				"z": -0.9377643257,
				"element": "H" 
			},
			{
				"x": 2.0634473385,
				"y": 1.8795817349,
				"z": -2.7053177353,
				"element": "H" 
			}
		],
		 "valence_orbital": [ 
			{
				"type": "occ",
				"energy": -0.27145,
				"method": "rhf"
			},
			{
				"type": "occ",
				"energy": -0.26202,
				"method": "rhf"
			},
			{
				"type": "occ",
				"energy": -0.25817,
				"method": "rhf"
			},
			{
				"type": "occ",
				"energy": -0.2528,
				"method": "rhf"
			},
			{
				"type": "occ",
				"energy": -0.24071,
				"method": "rhf"
			},
			{
				"type": "unocc",
				"energy": -0.0529,
				"method": "rhf"
			},
			{
				"type": "unocc",
				"energy": -0.02486,
				"method": "rhf"
			},
			{
				"type": "unocc",
				"energy": -0.01967,
				"method": "rhf"
			},
			{
				"type": "unocc",
				"energy": -0.01772,
				"method": "rhf"
			},
			{
				"type": "unocc",
				"energy": 0.00204,
				"method": "rhf"
			}
		],
		"cosmo_sigma_profile": { 
			"-0.025": 0.0,
			"-0.024": 0.0,
			"-0.023": 0.0,
			"-0.022": 0.0,
			"-0.021": 0.0,
			"-0.02": 0.0,
			"-0.019": 0.0,
			"-0.018": 0.0,
			"-0.017": 0.0,
			"-0.016": 0.0,
			"-0.015": 0.0,
			"-0.014": 0.0,
			"-0.013": 0.0,
			"-0.012": 0.0,
			"-0.011": 0.0,
			"-0.01": 0.0,
			"-0.009": 0.0557089255729,
			"-0.008": 1.33680543128,
			"-0.007": 4.42472722667,
			"-0.006": 9.64729161408,
			"-0.005": 21.2142053563,
			"-0.004": 41.4106578209,
			"-0.003": 41.5954383857,
			"-0.002": 32.0133171848,
			"-0.001": 27.9752049724,
			"0.0": 28.6228578309,
			"0.001": 28.0838772922,
			"0.002": 66.3364725282,
			"0.003": 39.8998564613,
			"0.004": 6.28038990457,
			"0.005": 5.34420128382,
			"0.006": 3.38303870055,
			"0.007": 4.108524453,
			"0.008": 4.35074710367,
			"0.009": 3.38921336426,
			"0.01": 4.17472613589,
			"0.011": 3.93209859085,
			"0.012": 1.31772238309,
			"0.013": 1.52579205376,
			"0.014": 1.56978293351,
			"0.015": 0.0206802018901,
			"0.016": 0.0,
			"0.017": 0.0,
			"0.018": 0.0,
			"0.019": 0.0,
			"0.02": 0.0,
			"0.021": 0.0,
			"0.022": 0.0,
			"0.023": 0.0,
			"0.024": 0.0,
			"0.025": 0.0
		}
	}
}
