{
	 "smiles": "COC1=C2C3=C(C(=O)OCC3)C(=O)OC2=C2C3C=COC3OC2=C1", 
	 "Tm": 518.15, 
	 "num_atms": 36, 
	 "gaussian": { 
		 "optdone": 1, 
		 "sigma_profile": "yes", 
		 "theory": "DFT", 
		 "functional": "B3LYP", 
		 "basiset": "6-31G**", 
		 "properties": { 
			 "R2extent": 8167.7798, 
			 "electric_dipole_moment_norm": 9.25209440343, 
			 "electric_quadrupole_moment_norm": 34.5110687626, 
			 "total_energy": -1181.56458371, 
			 "HOMO_LUMO_gap": 0.14956, 
			 "cosmo_polarized_energy": -27.08, 
			 "cosmo_cavitation_energy": 39.64, 
			 "cosmo_dispersion_energy": -29.1, 
			 "cosmo_repulsion_energy": 2.16, 
			 "cosmo_total_nonelectrostatic_energy": 12.7, 
			 "SMD_solvation_energy": 9.65 
		},
		"coords": [
			{
				"x": -1.1750736178,
				"y": 2.8497828956,
				"z": 2.6408352676,
				"element": "C" 
			},
			{
				"x": -0.4588197857,
				"y": 2.1908024309,
				"z": 1.600955746,
				"element": "O" 
			},
			{
				"x": -0.814249638,
				"y": 0.9276659239,
				"z": 1.2494604046,
				"element": "C" 
			},
			{
				"x": -0.032202772,
				"y": 0.3060804264,
				"z": 0.2192679239,
				"element": "C" 
			},
			{
				"x": 1.0684909288,
				"y": 0.9059548697,
				"z": -0.5015644477,
				"element": "C" 
			},
			{
				"x": 1.8328015172,
				"y": 0.1464254335,
				"z": -1.3636708834,
				"element": "C" 
			},
			{
				"x": 3.1265865021,
				"y": 0.6619954059,
				"z": -1.9097475992,
				"element": "C" 
			},
			{
				"x": 4.0417375522,
				"y": -0.0391211583,
				"z": -2.2643062739,
				"element": "O" 
			},
			{
				"x": 3.2914511422,
				"y": 2.0181609489,
				"z": -1.9217211334,
				"element": "O" 
			},
			{
				"x": 2.1413757655,
				"y": 2.8230033562,
				"z": -1.6490509892,
				"element": "C" 
			},
			{
				"x": 1.4349316691,
				"y": 2.3688121048,
				"z": -0.3828752506,
				"element": "C" 
			},
			{
				"x": 1.4780345734,
				"y": -1.2323859309,
				"z": -1.7061168848,
				"element": "C" 
			},
			{
				"x": 1.9879377902,
				"y": -1.9640300252,
				"z": -2.5111810959,
				"element": "O" 
			},
			{
				"x": 0.3494836661,
				"y": -1.7382245199,
				"z": -1.0316329408,
				"element": "O" 
			},
			{
				"x": -0.3466106744,
				"y": -1.0416840083,
				"z": -0.1033139154,
				"element": "C" 
			},
			{
				"x": -1.3964507364,
				"y": -1.7104985584,
				"z": 0.5048677438,
				"element": "C" 
			},
			{
				"x": -1.9130283535,
				"y": -3.1218123738,
				"z": 0.3686714211,
				"element": "C" 
			},
			{
				"x": -1.0427996625,
				"y": -4.1927662556,
				"z": 0.9961277316,
				"element": "C" 
			},
			{
				"x": -1.6649446777,
				"y": -4.662775369,
				"z": 2.0746251623,
				"element": "C" 
			},
			{
				"x": -2.9104761284,
				"y": -4.1138774506,
				"z": 2.3194699447,
				"element": "O" 
			},
			{
				"x": -3.1254305417,
				"y": -3.0988606578,
				"z": 1.3584108041,
				"element": "C" 
			},
			{
				"x": -3.132628279,
				"y": -1.8013153201,
				"z": 2.0020425184,
				"element": "O" 
			},
			{
				"x": -2.1310901953,
				"y": -1.0499663391,
				"z": 1.4777507628,
				"element": "C" 
			},
			{
				"x": -1.8692866216,
				"y": 0.2609742535,
				"z": 1.8740310461,
				"element": "C" 
			},
			{
				"x": -2.2321183473,
				"y": 2.9774756495,
				"z": 2.3805819303,
				"element": "H" 
			},
			{
				"x": -1.0945188259,
				"y": 2.3025641542,
				"z": 3.5868701157,
				"element": "H" 
			},
			{
				"x": -0.7065913044,
				"y": 3.8287619913,
				"z": 2.7464921762,
				"element": "H" 
			},
			{
				"x": 1.4532582747,
				"y": 2.7816499976,
				"z": -2.5041825042,
				"element": "H" 
			},
			{
				"x": 2.5119660405,
				"y": 3.8459948183,
				"z": -1.5547323931,
				"element": "H" 
			},
			{
				"x": 2.0749155584,
				"y": 2.5275383528,
				"z": 0.4945759054,
				"element": "H" 
			},
			{
				"x": 0.5421363217,
				"y": 2.9737491211,
				"z": -0.2252817364,
				"element": "H" 
			},
			{
				"x": -2.2028095408,
				"y": -3.3637715042,
				"z": -0.6597544699,
				"element": "H" 
			},
			{
				"x": -0.0704882207,
				"y": -4.4850318519,
				"z": 0.6277690836,
				"element": "H" 
			},
			{
				"x": -1.3697423492,
				"y": -5.4203823211,
				"z": 2.7882353868,
				"element": "H" 
			},
			{
				"x": -4.1195193359,
				"y": -3.2397090392,
				"z": 0.9310763389,
				"element": "H" 
			},
			{
				"x": -2.4657276942,
				"y": 0.718120549,
				"z": 2.6503151038,
				"element": "H" 
			}
		],
		 "valence_orbital": [ 
			{
				"type": "occ",
				"energy": -0.28001,
				"method": "rhf"
			},
			{
				"type": "occ",
				"energy": -0.25231,
				"method": "rhf"
			},
			{
				"type": "occ",
				"energy": -0.24812,
				"method": "rhf"
			},
			{
				"type": "occ",
				"energy": -0.24031,
				"method": "rhf"
			},
			{
				"type": "occ",
				"energy": -0.22667,
				"method": "rhf"
			},
			{
				"type": "unocc",
				"energy": -0.07711,
				"method": "rhf"
			},
			{
				"type": "unocc",
				"energy": -0.02034,
				"method": "rhf"
			},
			{
				"type": "unocc",
				"energy": -0.00299,
				"method": "rhf"
			},
			{
				"type": "unocc",
				"energy": 0.01637,
				"method": "rhf"
			},
			{
				"type": "unocc",
				"energy": 0.02378,
				"method": "rhf"
			}
		],
		"cosmo_sigma_profile": { 
			"-0.025": 0.0,
			"-0.024": 0.0,
			"-0.023": 0.0,
			"-0.022": 0.0,
			"-0.021": 0.0,
			"-0.02": 0.0,
			"-0.019": 0.0,
			"-0.018": 0.0,
			"-0.017": 0.0,
			"-0.016": 0.0,
			"-0.015": 0.0,
			"-0.014": 0.0,
			"-0.013": 0.0,
			"-0.012": 0.0,
			"-0.011": 0.0,
			"-0.01": 0.0201588739627,
			"-0.009": 2.64036261802,
			"-0.008": 7.29820526068,
			"-0.007": 17.2875409173,
			"-0.006": 30.622878737,
			"-0.005": 28.7574850417,
			"-0.004": 26.0988793041,
			"-0.003": 20.3744091674,
			"-0.002": 19.8116905582,
			"-0.001": 21.1512304282,
			"0.0": 25.5967247737,
			"0.001": 18.0577466341,
			"0.002": 13.3531224474,
			"0.003": 9.65343074947,
			"0.004": 8.44759695774,
			"0.005": 7.16269090264,
			"0.006": 5.12348374706,
			"0.007": 5.92552124549,
			"0.008": 6.82629939253,
			"0.009": 7.74285823664,
			"0.01": 7.70067245398,
			"0.011": 8.43403382577,
			"0.012": 10.0662254044,
			"0.013": 5.39097620476,
			"0.014": 2.04470615258,
			"0.015": 1.42249228596,
			"0.016": 0.591052822298,
			"0.017": 0.0,
			"0.018": 0.0,
			"0.019": 0.0,
			"0.02": 0.0,
			"0.021": 0.0,
			"0.022": 0.0,
			"0.023": 0.0,
			"0.024": 0.0,
			"0.025": 0.0
		}
	}
}
