{
	 "smiles": "CC(=CC1=CC(Cl)=CC=C1)C(O)=O", 
	 "Tm": 373.15, 
	 "num_atms": 22, 
	 "gaussian": { 
		 "optdone": 1, 
		 "sigma_profile": "yes", 
		 "theory": "DFT", 
		 "functional": "B3LYP", 
		 "basiset": "6-31G**", 
		 "properties": { 
			 "R2extent": 4333.7933, 
			 "electric_dipole_moment_norm": 4.71134994879, 
			 "electric_quadrupole_moment_norm": 10.6585110855, 
			 "total_energy": -997.124962725, 
			 "HOMO_LUMO_gap": 0.17628, 
			 "cosmo_polarized_energy": -14.98, 
			 "cosmo_cavitation_energy": 28.31, 
			 "cosmo_dispersion_energy": -20.53, 
			 "cosmo_repulsion_energy": 1.63, 
			 "cosmo_total_nonelectrostatic_energy": 9.4, 
			 "SMD_solvation_energy": 5.73 
		},
		"coords": [
			{
				"x": -1.1198376284,
				"y": 1.1700788601,
				"z": 2.2369111614,
				"element": "C" 
			},
			{
				"x": -1.0251585913,
				"y": -0.0259233096,
				"z": 1.3246433101,
				"element": "C" 
			},
			{
				"x": -0.3915785452,
				"y": -0.0818000195,
				"z": 0.1308637751,
				"element": "C" 
			},
			{
				"x": 0.3635452521,
				"y": 0.9490955169,
				"z": -0.5963083593,
				"element": "C" 
			},
			{
				"x": 0.1454905019,
				"y": 2.3315144315,
				"z": -0.4474076023,
				"element": "C" 
			},
			{
				"x": 0.9074761447,
				"y": 3.2358355126,
				"z": -1.1826140826,
				"element": "C" 
			},
			{
				"x": 0.6100632348,
				"y": 4.9571932114,
				"z": -0.9853406657,
				"element": "Cl" 
			},
			{
				"x": 1.891368893,
				"y": 2.812763379,
				"z": -2.075358778,
				"element": "C" 
			},
			{
				"x": 2.0967541916,
				"y": 1.4418378999,
				"z": -2.2389890386,
				"element": "C" 
			},
			{
				"x": 1.3386520748,
				"y": 0.5233887143,
				"z": -1.5194085339,
				"element": "C" 
			},
			{
				"x": -1.8063710799,
				"y": -1.219705322,
				"z": 1.8010575196,
				"element": "C" 
			},
			{
				"x": -1.4113751406,
				"y": -2.4514529166,
				"z": 1.3758834099,
				"element": "O" 
			},
			{
				"x": -2.7633536701,
				"y": -1.1127938202,
				"z": 2.5323150936,
				"element": "O" 
			},
			{
				"x": -1.9835694612,
				"y": 1.7960311865,
				"z": 1.982543277,
				"element": "H" 
			},
			{
				"x": -1.2685481961,
				"y": 0.844227236,
				"z": 3.2679885262,
				"element": "H" 
			},
			{
				"x": -0.2214250144,
				"y": 1.7888652363,
				"z": 2.180996576,
				"element": "H" 
			},
			{
				"x": -0.4320971712,
				"y": -1.0268889526,
				"z": -0.4104762057,
				"element": "H" 
			},
			{
				"x": -0.6308008248,
				"y": 2.7060126517,
				"z": 0.2050855652,
				"element": "H" 
			},
			{
				"x": 2.4711345089,
				"y": 3.5387639381,
				"z": -2.6339157407,
				"element": "H" 
			},
			{
				"x": 2.8509083597,
				"y": 1.0933660728,
				"z": -2.9380260287,
				"element": "H" 
			},
			{
				"x": 1.5049745306,
				"y": -0.5406618901,
				"z": -1.6627554191,
				"element": "H" 
			},
			{
				"x": -0.5340523689,
				"y": -2.3905476168,
				"z": 0.9738122404,
				"element": "H" 
			}
		],
		 "valence_orbital": [ 
			{
				"type": "occ",
				"energy": -0.31917,
				"method": "rhf"
			},
			{
				"type": "occ",
				"energy": -0.30711,
				"method": "rhf"
			},
			{
				"type": "occ",
				"energy": -0.27594,
				"method": "rhf"
			},
			{
				"type": "occ",
				"energy": -0.26498,
				"method": "rhf"
			},
			{
				"type": "occ",
				"energy": -0.24836,
				"method": "rhf"
			},
			{
				"type": "unocc",
				"energy": -0.07208,
				"method": "rhf"
			},
			{
				"type": "unocc",
				"energy": -0.02786,
				"method": "rhf"
			},
			{
				"type": "unocc",
				"energy": 0.0001,
				"method": "rhf"
			},
			{
				"type": "unocc",
				"energy": 0.01943,
				"method": "rhf"
			},
			{
				"type": "unocc",
				"energy": 0.05553,
				"method": "rhf"
			}
		],
		"cosmo_sigma_profile": { 
			"-0.025": 0.0,
			"-0.024": 0.0,
			"-0.023": 0.0,
			"-0.022": 0.0,
			"-0.021": 0.0,
			"-0.02": 0.0,
			"-0.019": 0.0203076146901,
			"-0.018": 0.992485100178,
			"-0.017": 0.877124965435,
			"-0.016": 0.970600925171,
			"-0.015": 0.690549153881,
			"-0.014": 1.25689235766,
			"-0.013": 0.559749828231,
			"-0.012": 1.15200695269,
			"-0.011": 1.3798403701,
			"-0.01": 0.939708014132,
			"-0.009": 1.52951715505,
			"-0.008": 3.00890131341,
			"-0.007": 8.65785528355,
			"-0.006": 11.0363355602,
			"-0.005": 12.5878396981,
			"-0.004": 13.8927212853,
			"-0.003": 13.3559958993,
			"-0.002": 14.3444380669,
			"-0.001": 16.4391032612,
			"0.0": 18.0005343761,
			"0.001": 18.959587598,
			"0.002": 19.8656257219,
			"0.003": 19.1684734301,
			"0.004": 12.202524113,
			"0.005": 8.4823709085,
			"0.006": 2.38563747573,
			"0.007": 2.57136769806,
			"0.008": 2.82732112196,
			"0.009": 2.68125712261,
			"0.01": 4.90859944727,
			"0.011": 5.21070204991,
			"0.012": 5.21777291604,
			"0.013": 2.24506648408,
			"0.014": 0.131904986556,
			"0.015": 0.0,
			"0.016": 0.0,
			"0.017": 0.0,
			"0.018": 0.0,
			"0.019": 0.0,
			"0.02": 0.0,
			"0.021": 0.0,
			"0.022": 0.0,
			"0.023": 0.0,
			"0.024": 0.0,
			"0.025": 0.0
		}
	}
}
