{
	 "smiles": "OC(=O)C1=C(Br)C=CS1", 
	 "Tm": 468.65, 
	 "num_atms": 12, 
	 "gaussian": { 
		 "optdone": 1, 
		 "sigma_profile": "yes", 
		 "theory": "DFT", 
		 "functional": "B3LYP", 
		 "basiset": "6-31G**", 
		 "properties": { 
			 "R2extent": 3386.3841, 
			 "electric_dipole_moment_norm": 5.33017595488, 
			 "electric_quadrupole_moment_norm": 17.1116933572, 
			 "total_energy": -3312.3587112, 
			 "HOMO_LUMO_gap": 0.18536, 
			 "cosmo_polarized_energy": -14.22, 
			 "cosmo_cavitation_energy": 20.57, 
			 "cosmo_dispersion_energy": -16.48, 
			 "cosmo_repulsion_energy": 1.29, 
			 "cosmo_total_nonelectrostatic_energy": 5.38, 
			 "SMD_solvation_energy": 3.77 
		},
		"coords": [
			{
				"x": -2.3119491179,
				"y": 1.09093413,
				"z": -2.641993277,
				"element": "O" 
			},
			{
				"x": -2.1982645484,
				"y": 0.2480624329,
				"z": -1.5788575718,
				"element": "C" 
			},
			{
				"x": -2.8936820124,
				"y": 0.4181797505,
				"z": -0.6075261081,
				"element": "O" 
			},
			{
				"x": -1.2060318601,
				"y": -0.8508704483,
				"z": -1.6867144407,
				"element": "C" 
			},
			{
				"x": -0.9073035463,
				"y": -1.8250669029,
				"z": -0.7546281324,
				"element": "C" 
			},
			{
				"x": -1.7041778174,
				"y": -2.0162578334,
				"z": 0.9430162901,
				"element": "Br" 
			},
			{
				"x": 0.1034241196,
				"y": -2.7382314135,
				"z": -1.173848949,
				"element": "C" 
			},
			{
				"x": 0.574465809,
				"y": -2.4597970418,
				"z": -2.4250493734,
				"element": "C" 
			},
			{
				"x": -0.2062750867,
				"y": -1.0815569805,
				"z": -3.1105330026,
				"element": "S" 
			},
			{
				"x": -1.711141208,
				"y": 0.8664883003,
				"z": -3.3662787889,
				"element": "H" 
			},
			{
				"x": 0.4509669427,
				"y": -3.5582978093,
				"z": -0.5589802208,
				"element": "H" 
			},
			{
				"x": 1.3357683258,
				"y": -2.9843861839,
				"z": -2.9856064255,
				"element": "H" 
			}
		],
		 "valence_orbital": [ 
			{
				"type": "occ",
				"energy": -0.31942,
				"method": "rhf"
			},
			{
				"type": "occ",
				"energy": -0.3033,
				"method": "rhf"
			},
			{
				"type": "occ",
				"energy": -0.27624,
				"method": "rhf"
			},
			{
				"type": "occ",
				"energy": -0.27042,
				"method": "rhf"
			},
			{
				"type": "occ",
				"energy": -0.25688,
				"method": "rhf"
			},
			{
				"type": "unocc",
				"energy": -0.07152,
				"method": "rhf"
			},
			{
				"type": "unocc",
				"energy": -0.02682,
				"method": "rhf"
			},
			{
				"type": "unocc",
				"energy": 0.00586,
				"method": "rhf"
			},
			{
				"type": "unocc",
				"energy": 0.01154,
				"method": "rhf"
			},
			{
				"type": "unocc",
				"energy": 0.06281,
				"method": "rhf"
			}
		],
		"cosmo_sigma_profile": { 
			"-0.025": 0.0,
			"-0.024": 0.0,
			"-0.023": 0.0,
			"-0.022": 0.0,
			"-0.021": 0.0,
			"-0.02": 0.0,
			"-0.019": 0.0,
			"-0.018": 0.324470495908,
			"-0.017": 0.981718013183,
			"-0.016": 0.983014967096,
			"-0.015": 0.783845113916,
			"-0.014": 0.652957397212,
			"-0.013": 1.12205363136,
			"-0.012": 1.66827715862,
			"-0.011": 1.45361771118,
			"-0.01": 3.06593823733,
			"-0.009": 3.97672539458,
			"-0.008": 4.90354069872,
			"-0.007": 4.74186639023,
			"-0.006": 6.34863003291,
			"-0.005": 6.28265500646,
			"-0.004": 6.50073393887,
			"-0.003": 7.12470950929,
			"-0.002": 9.51467811437,
			"-0.001": 11.5055070383,
			"0.0": 19.1588223787,
			"0.001": 18.1176599843,
			"0.002": 12.7619334413,
			"0.003": 9.88592255166,
			"0.004": 7.19913668387,
			"0.005": 3.27634849771,
			"0.006": 3.19629201419,
			"0.007": 2.7000069266,
			"0.008": 2.80830896662,
			"0.009": 4.08594456351,
			"0.01": 5.44803852823,
			"0.011": 5.63627037141,
			"0.012": 4.30752456751,
			"0.013": 0.772064688847,
			"0.014": 0.0,
			"0.015": 0.0,
			"0.016": 0.0,
			"0.017": 0.0,
			"0.018": 0.0,
			"0.019": 0.0,
			"0.02": 0.0,
			"0.021": 0.0,
			"0.022": 0.0,
			"0.023": 0.0,
			"0.024": 0.0,
			"0.025": 0.0
		}
	}
}
