{
	 "smiles": "OCC1=NC=C(O1)C1=CC(Cl)=CC=C1", 
	 "Tm": 375.15, 
	 "num_atms": 22, 
	 "gaussian": { 
		 "optdone": 1, 
		 "sigma_profile": "yes", 
		 "theory": "DFT", 
		 "functional": "B3LYP", 
		 "basiset": "6-31G**", 
		 "properties": { 
			 "R2extent": 5334.0754, 
			 "electric_dipole_moment_norm": 2.74330150549, 
			 "electric_quadrupole_moment_norm": 12.4638276673, 
			 "total_energy": -1051.25526602, 
			 "HOMO_LUMO_gap": 0.17506, 
			 "cosmo_polarized_energy": -11.72, 
			 "cosmo_cavitation_energy": 29.07, 
			 "cosmo_dispersion_energy": -21.39, 
			 "cosmo_repulsion_energy": 1.69, 
			 "cosmo_total_nonelectrostatic_energy": 9.37, 
			 "SMD_solvation_energy": 3.27 
		},
		"coords": [
			{
				"x": 2.4119680828,
				"y": -3.5254952339,
				"z": -3.0819138723,
				"element": "O" 
			},
			{
				"x": 1.0788762137,
				"y": -3.7182763763,
				"z": -3.5300559933,
				"element": "C" 
			},
			{
				"x": 0.0650711071,
				"y": -3.0657711972,
				"z": -2.643575586,
				"element": "C" 
			},
			{
				"x": -0.9336686213,
				"y": -3.5954246355,
				"z": -2.0059033436,
				"element": "N" 
			},
			{
				"x": -1.532651809,
				"y": -2.5334084724,
				"z": -1.3493925059,
				"element": "C" 
			},
			{
				"x": -0.8539067968,
				"y": -1.3773168253,
				"z": -1.6156605335,
				"element": "C" 
			},
			{
				"x": 0.1809740531,
				"y": -1.7180082005,
				"z": -2.4615470397,
				"element": "O" 
			},
			{
				"x": -0.9930386626,
				"y": 0.0170710009,
				"z": -1.2212274933,
				"element": "C" 
			},
			{
				"x": -2.0198535421,
				"y": 0.3929186697,
				"z": -0.3366142805,
				"element": "C" 
			},
			{
				"x": -2.1513380656,
				"y": 1.7256980967,
				"z": 0.0348827264,
				"element": "C" 
			},
			{
				"x": -3.4400975281,
				"y": 2.179764809,
				"z": 1.1409838223,
				"element": "Cl" 
			},
			{
				"x": -1.2863783222,
				"y": 2.7097394827,
				"z": -0.4464930791,
				"element": "C" 
			},
			{
				"x": -0.2691256999,
				"y": 2.3303876516,
				"z": -1.322744675,
				"element": "C" 
			},
			{
				"x": -0.1178097497,
				"y": 1.0012988618,
				"z": -1.7108772115,
				"element": "C" 
			},
			{
				"x": 2.5918373095,
				"y": -2.5762603479,
				"z": -3.0951186855,
				"element": "H" 
			},
			{
				"x": 0.9467773287,
				"y": -3.360513254,
				"z": -4.5637539157,
				"element": "H" 
			},
			{
				"x": 0.8834493698,
				"y": -4.7918255771,
				"z": -3.5179067741,
				"element": "H" 
			},
			{
				"x": -2.4065794708,
				"y": -2.6757869404,
				"z": -0.7308408142,
				"element": "H" 
			},
			{
				"x": -2.7084351013,
				"y": -0.3442237456,
				"z": 0.0599864324,
				"element": "H" 
			},
			{
				"x": -1.4098513047,
				"y": 3.7422767623,
				"z": -0.1406978073,
				"element": "H" 
			},
			{
				"x": 0.4123441928,
				"y": 3.08361005,
				"z": -1.7065410709,
				"element": "H" 
			},
			{
				"x": 0.6750370167,
				"y": 0.7186454213,
				"z": -2.3936882998,
				"element": "H" 
			}
		],
		 "valence_orbital": [ 
			{
				"type": "occ",
				"energy": -0.30051,
				"method": "rhf"
			},
			{
				"type": "occ",
				"energy": -0.29772,
				"method": "rhf"
			},
			{
				"type": "occ",
				"energy": -0.28534,
				"method": "rhf"
			},
			{
				"type": "occ",
				"energy": -0.25915,
				"method": "rhf"
			},
			{
				"type": "occ",
				"energy": -0.22876,
				"method": "rhf"
			},
			{
				"type": "unocc",
				"energy": -0.0537,
				"method": "rhf"
			},
			{
				"type": "unocc",
				"energy": -0.02275,
				"method": "rhf"
			},
			{
				"type": "unocc",
				"energy": 0.01007,
				"method": "rhf"
			},
			{
				"type": "unocc",
				"energy": 0.02248,
				"method": "rhf"
			},
			{
				"type": "unocc",
				"energy": 0.06008,
				"method": "rhf"
			}
		],
		"cosmo_sigma_profile": { 
			"-0.025": 0.0,
			"-0.024": 0.0,
			"-0.023": 0.0,
			"-0.022": 0.0,
			"-0.021": 0.0,
			"-0.02": 0.0,
			"-0.019": 0.0,
			"-0.018": 0.0,
			"-0.017": 0.0,
			"-0.016": 0.322760876171,
			"-0.015": 0.58107536768,
			"-0.014": 0.936683176604,
			"-0.013": 1.12518086047,
			"-0.012": 0.994553668701,
			"-0.011": 0.593064863311,
			"-0.01": 0.493477247603,
			"-0.009": 3.22510907071,
			"-0.008": 5.20204154382,
			"-0.007": 9.12061585959,
			"-0.006": 14.8359127297,
			"-0.005": 13.1451501027,
			"-0.004": 11.7996178977,
			"-0.003": 11.6152546154,
			"-0.002": 11.2311571857,
			"-0.001": 14.8348400461,
			"0.0": 20.277267881,
			"0.001": 23.5886802533,
			"0.002": 23.5766276503,
			"0.003": 22.298203148,
			"0.004": 14.9528673458,
			"0.005": 8.15956928286,
			"0.006": 1.81936033655,
			"0.007": 2.38648327619,
			"0.008": 3.74752115502,
			"0.009": 1.85412428876,
			"0.01": 1.21729234791,
			"0.011": 2.61431980785,
			"0.012": 2.89534583273,
			"0.013": 3.43385767398,
			"0.014": 1.34793027488,
			"0.015": 0.904905337381,
			"0.016": 0.383500935682,
			"0.017": 0.0,
			"0.018": 0.0,
			"0.019": 0.0,
			"0.02": 0.0,
			"0.021": 0.0,
			"0.022": 0.0,
			"0.023": 0.0,
			"0.024": 0.0,
			"0.025": 0.0
		}
	}
}
