{
	 "smiles": "CC(=O)OC1CCCCC1C(C)(C)C", 
	 "Tm": 308.15, 
	 "num_atms": 36, 
	 "gaussian": { 
		 "optdone": 1, 
		 "sigma_profile": "yes", 
		 "theory": "DFT", 
		 "functional": "B3LYP", 
		 "basiset": "6-31G**", 
		 "properties": { 
			 "R2extent": 3173.4188, 
			 "electric_dipole_moment_norm": 1.9391122737, 
			 "electric_quadrupole_moment_norm": 8.90366907853, 
			 "total_energy": -621.021129425, 
			 "HOMO_LUMO_gap": 0.28262, 
			 "cosmo_polarized_energy": -6.24, 
			 "cosmo_cavitation_energy": 34.43, 
			 "cosmo_dispersion_energy": -23.5, 
			 "cosmo_repulsion_energy": 1.85, 
			 "cosmo_total_nonelectrostatic_energy": 12.77, 
			 "SMD_solvation_energy": 6.46 
		},
		"coords": [
			{
				"x": 0.0010851296,
				"y": -3.4104424361,
				"z": -0.8860580012,
				"element": "C" 
			},
			{
				"x": 0.7315230276,
				"y": -2.1093288456,
				"z": -0.6428289219,
				"element": "C" 
			},
			{
				"x": 1.9285142533,
				"y": -2.008833746,
				"z": -0.4713037202,
				"element": "O" 
			},
			{
				"x": -0.1371017829,
				"y": -1.0727637777,
				"z": -0.6378391272,
				"element": "O" 
			},
			{
				"x": 0.3960114289,
				"y": 0.2729096333,
				"z": -0.419619012,
				"element": "C" 
			},
			{
				"x": 0.1290682804,
				"y": 1.0817809227,
				"z": -1.6884662623,
				"element": "C" 
			},
			{
				"x": -1.3730128755,
				"y": 1.2173316814,
				"z": -2.0118481927,
				"element": "C" 
			},
			{
				"x": -2.2298188846,
				"y": 1.3044097888,
				"z": -0.7273107792,
				"element": "C" 
			},
			{
				"x": -1.4192018867,
				"y": 1.8463394966,
				"z": 0.459247849,
				"element": "C" 
			},
			{
				"x": -0.2850718564,
				"y": 0.8675150656,
				"z": 0.8492167059,
				"element": "C" 
			},
			{
				"x": 0.7400635997,
				"y": 1.4359100254,
				"z": 1.8913381685,
				"element": "C" 
			},
			{
				"x": 1.5964343875,
				"y": 0.2778459433,
				"z": 2.4497108824,
				"element": "C" 
			},
			{
				"x": 1.6690036683,
				"y": 2.5025871283,
				"z": 1.2745212283,
				"element": "C" 
			},
			{
				"x": -0.01853369,
				"y": 2.0709351896,
				"z": 3.0762402358,
				"element": "C" 
			},
			{
				"x": -0.7294689586,
				"y": -3.5824229846,
				"z": -0.08984781,
				"element": "H" 
			},
			{
				"x": 0.7183369789,
				"y": -4.2300655223,
				"z": -0.9144308564,
				"element": "H" 
			},
			{
				"x": -0.5513436372,
				"y": -3.3618666322,
				"z": -1.8288808597,
				"element": "H" 
			},
			{
				"x": 1.4696346774,
				"y": 0.1605111303,
				"z": -0.2758961394,
				"element": "H" 
			},
			{
				"x": 0.670425924,
				"y": 0.6328333978,
				"z": -2.5282441353,
				"element": "H" 
			},
			{
				"x": 0.5700411484,
				"y": 2.0738276059,
				"z": -1.5336126105,
				"element": "H" 
			},
			{
				"x": -1.5212313575,
				"y": 2.1108651055,
				"z": -2.6293517227,
				"element": "H" 
			},
			{
				"x": -1.7012543567,
				"y": 0.3657808645,
				"z": -2.6160732592,
				"element": "H" 
			},
			{
				"x": -2.5984973563,
				"y": 0.30507906,
				"z": -0.465485671,
				"element": "H" 
			},
			{
				"x": -3.1146723849,
				"y": 1.9267991317,
				"z": -0.9006919102,
				"element": "H" 
			},
			{
				"x": -1.0121777219,
				"y": 2.8339471893,
				"z": 0.2033149045,
				"element": "H" 
			},
			{
				"x": -2.0795171164,
				"y": 2.0013260733,
				"z": 1.3176498425,
				"element": "H" 
			},
			{
				"x": -0.7711689161,
				"y": 0.0152523949,
				"z": 1.3423990464,
				"element": "H" 
			},
			{
				"x": 0.9684710526,
				"y": -0.4496531301,
				"z": 2.97740197,
				"element": "H" 
			},
			{
				"x": 2.1417937626,
				"y": -0.2622376651,
				"z": 1.6703394645,
				"element": "H" 
			},
			{
				"x": 2.3330217066,
				"y": 0.6590688061,
				"z": 3.1659048242,
				"element": "H" 
			},
			{
				"x": 1.1057508125,
				"y": 3.3438832582,
				"z": 0.8564835229,
				"element": "H" 
			},
			{
				"x": 2.3383338539,
				"y": 2.9083533823,
				"z": 2.0411731536,
				"element": "H" 
			},
			{
				"x": 2.3012872727,
				"y": 2.0905976588,
				"z": 0.481251911,
				"element": "H" 
			},
			{
				"x": -0.7383711088,
				"y": 1.3673676654,
				"z": 3.5108612969,
				"element": "H" 
			},
			{
				"x": -0.5632602996,
				"y": 2.9735393549,
				"z": 2.7837037001,
				"element": "H" 
			},
			{
				"x": 0.6850032254,
				"y": 2.3544177858,
				"z": 3.8668302847,
				"element": "H" 
			}
		],
		 "valence_orbital": [ 
			{
				"type": "occ",
				"energy": -0.30895,
				"method": "rhf"
			},
			{
				"type": "occ",
				"energy": -0.30444,
				"method": "rhf"
			},
			{
				"type": "occ",
				"energy": -0.28849,
				"method": "rhf"
			},
			{
				"type": "occ",
				"energy": -0.27831,
				"method": "rhf"
			},
			{
				"type": "occ",
				"energy": -0.26537,
				"method": "rhf"
			},
			{
				"type": "unocc",
				"energy": 0.01725,
				"method": "rhf"
			},
			{
				"type": "unocc",
				"energy": 0.0718,
				"method": "rhf"
			},
			{
				"type": "unocc",
				"energy": 0.09259,
				"method": "rhf"
			},
			{
				"type": "unocc",
				"energy": 0.09945,
				"method": "rhf"
			},
			{
				"type": "unocc",
				"energy": 0.11505,
				"method": "rhf"
			}
		],
		"cosmo_sigma_profile": { 
			"-0.025": 0.0,
			"-0.024": 0.0,
			"-0.023": 0.0,
			"-0.022": 0.0,
			"-0.021": 0.0,
			"-0.02": 0.0,
			"-0.019": 0.0,
			"-0.018": 0.0,
			"-0.017": 0.0,
			"-0.016": 0.0,
			"-0.015": 0.0,
			"-0.014": 0.0,
			"-0.013": 0.0,
			"-0.012": 0.0,
			"-0.011": 0.0,
			"-0.01": 0.0,
			"-0.009": 0.0,
			"-0.008": 0.0,
			"-0.007": 0.2788739708,
			"-0.006": 3.70855895185,
			"-0.005": 6.24562832215,
			"-0.004": 8.36310221263,
			"-0.003": 20.290543163,
			"-0.002": 51.3394728287,
			"-0.001": 47.9767828811,
			"0.0": 39.5686582992,
			"0.001": 34.2192741613,
			"0.002": 21.3439023012,
			"0.003": 5.3972949181,
			"0.004": 4.06126844096,
			"0.005": 3.40244056711,
			"0.006": 3.75580694392,
			"0.007": 2.59261099927,
			"0.008": 1.10434905546,
			"0.009": 1.64142190689,
			"0.01": 1.78850418844,
			"0.011": 2.07524948216,
			"0.012": 3.59876710769,
			"0.013": 2.11168817947,
			"0.014": 0.118654507549,
			"0.015": 0.0,
			"0.016": 0.0,
			"0.017": 0.0,
			"0.018": 0.0,
			"0.019": 0.0,
			"0.02": 0.0,
			"0.021": 0.0,
			"0.022": 0.0,
			"0.023": 0.0,
			"0.024": 0.0,
			"0.025": 0.0
		}
	}
}
