{
	 "smiles": "CC(C)(N1N=NC2=C1C=CC=C2)C(O)=O", 
	 "Tm": 455.15, 
	 "num_atms": 26, 
	 "gaussian": { 
		 "optdone": 1, 
		 "sigma_profile": "yes", 
		 "theory": "DFT", 
		 "functional": "B3LYP", 
		 "basiset": "6-31G**", 
		 "properties": { 
			 "R2extent": 3451.6738, 
			 "electric_dipole_moment_norm": 4.37304730022, 
			 "electric_quadrupole_moment_norm": 4.25948890009, 
			 "total_energy": -702.376127708, 
			 "HOMO_LUMO_gap": 0.19212, 
			 "cosmo_polarized_energy": -16.15, 
			 "cosmo_cavitation_energy": 29.59, 
			 "cosmo_dispersion_energy": -20.98, 
			 "cosmo_repulsion_energy": 1.62, 
			 "cosmo_total_nonelectrostatic_energy": 10.23, 
			 "SMD_solvation_energy": 4.77 
		},
		"coords": [
			{
				"x": -1.6454710122,
				"y": -1.2238523899,
				"z": 1.3850611491,
				"element": "C" 
			},
			{
				"x": -0.7718332251,
				"y": 0.0120466396,
				"z": 1.1112465556,
				"element": "C" 
			},
			{
				"x": -1.5455083889,
				"y": 1.0607626041,
				"z": 0.30032678,
				"element": "C" 
			},
			{
				"x": 0.4695966459,
				"y": -0.3425351032,
				"z": 0.3955829786,
				"element": "N" 
			},
			{
				"x": 1.3879522465,
				"y": 0.6663339337,
				"z": 0.2722270245,
				"element": "N" 
			},
			{
				"x": 2.4257076857,
				"y": 0.2415301648,
				"z": -0.3609268059,
				"element": "N" 
			},
			{
				"x": 2.2223344953,
				"y": -1.0821990196,
				"z": -0.6817145931,
				"element": "C" 
			},
			{
				"x": 0.9564787097,
				"y": -1.4850750874,
				"z": -0.1958103471,
				"element": "C" 
			},
			{
				"x": 0.4980894574,
				"y": -2.8016419702,
				"z": -0.3964011921,
				"element": "C" 
			},
			{
				"x": 1.3414496833,
				"y": -3.6655697269,
				"z": -1.0794358962,
				"element": "C" 
			},
			{
				"x": 2.6082997265,
				"y": -3.2633160228,
				"z": -1.56398496,
				"element": "C" 
			},
			{
				"x": 3.0622479536,
				"y": -1.9703409401,
				"z": -1.3719272858,
				"element": "C" 
			},
			{
				"x": -0.3821608235,
				"y": 0.6035619906,
				"z": 2.4834493144,
				"element": "C" 
			},
			{
				"x": 0.5455801037,
				"y": -0.1466030204,
				"z": 3.1125928017,
				"element": "O" 
			},
			{
				"x": -0.8980120961,
				"y": 1.5787235362,
				"z": 2.9772127821,
				"element": "O" 
			},
			{
				"x": -1.0968621678,
				"y": -1.9930467675,
				"z": 1.9321407101,
				"element": "H" 
			},
			{
				"x": -2.5020843629,
				"y": -0.9149610144,
				"z": 1.98986212,
				"element": "H" 
			},
			{
				"x": -2.0309816538,
				"y": -1.6391426345,
				"z": 0.4509085012,
				"element": "H" 
			},
			{
				"x": -2.4336677828,
				"y": 1.3779714113,
				"z": 0.8497819761,
				"element": "H" 
			},
			{
				"x": -1.8474688186,
				"y": 0.6316102047,
				"z": -0.6592123048,
				"element": "H" 
			},
			{
				"x": -0.9194053898,
				"y": 1.9349904731,
				"z": 0.1171220252,
				"element": "H" 
			},
			{
				"x": -0.4632770407,
				"y": -3.1465423842,
				"z": -0.0413951543,
				"element": "H" 
			},
			{
				"x": 1.0149867267,
				"y": -4.6877398754,
				"z": -1.2478636303,
				"element": "H" 
			},
			{
				"x": 3.2256190253,
				"y": -3.9829246939,
				"z": -2.0925633764,
				"element": "H" 
			},
			{
				"x": 4.0283061501,
				"y": -1.6353066259,
				"z": -1.7342033974,
				"element": "H" 
			},
			{
				"x": 0.7166841525,
				"y": 0.2873663182,
				"z": 3.9652242247,
				"element": "H" 
			}
		],
		 "valence_orbital": [ 
			{
				"type": "occ",
				"energy": -0.31819,
				"method": "rhf"
			},
			{
				"type": "occ",
				"energy": -0.28564,
				"method": "rhf"
			},
			{
				"type": "occ",
				"energy": -0.26636,
				"method": "rhf"
			},
			{
				"type": "occ",
				"energy": -0.25176,
				"method": "rhf"
			},
			{
				"type": "occ",
				"energy": -0.23576,
				"method": "rhf"
			},
			{
				"type": "unocc",
				"energy": -0.04364,
				"method": "rhf"
			},
			{
				"type": "unocc",
				"energy": -0.00546,
				"method": "rhf"
			},
			{
				"type": "unocc",
				"energy": 0.00867,
				"method": "rhf"
			},
			{
				"type": "unocc",
				"energy": 0.03236,
				"method": "rhf"
			},
			{
				"type": "unocc",
				"energy": 0.06633,
				"method": "rhf"
			}
		],
		"cosmo_sigma_profile": { 
			"-0.025": 0.0,
			"-0.024": 0.0,
			"-0.023": 0.0,
			"-0.022": 0.0,
			"-0.021": 0.0,
			"-0.02": 0.0,
			"-0.019": 0.443590712568,
			"-0.018": 1.26500266834,
			"-0.017": 0.440907158703,
			"-0.016": 1.32306184261,
			"-0.015": 0.330075320277,
			"-0.014": 0.436176954924,
			"-0.013": 0.689318176117,
			"-0.012": 0.924375882209,
			"-0.011": 1.04536271465,
			"-0.01": 0.720459869077,
			"-0.009": 0.548730261505,
			"-0.008": 1.17460093927,
			"-0.007": 7.01377326705,
			"-0.006": 16.0182286646,
			"-0.005": 19.8378201588,
			"-0.004": 18.0760694911,
			"-0.003": 15.8622140008,
			"-0.002": 17.3634858198,
			"-0.001": 16.0522828573,
			"0.0": 12.64872815,
			"0.001": 13.2337955484,
			"0.002": 14.9424785154,
			"0.003": 16.1049624344,
			"0.004": 13.6288996658,
			"0.005": 6.78933507448,
			"0.006": 4.41681016938,
			"0.007": 5.28779069841,
			"0.008": 4.61852270643,
			"0.009": 4.59129616183,
			"0.01": 5.8093923181,
			"0.011": 7.95409156927,
			"0.012": 2.33615514732,
			"0.013": 0.839156033907,
			"0.014": 1.30068405456,
			"0.015": 0.814197262483,
			"0.016": 0.121848242902,
			"0.017": 0.0,
			"0.018": 0.0,
			"0.019": 0.0,
			"0.02": 0.0,
			"0.021": 0.0,
			"0.022": 0.0,
			"0.023": 0.0,
			"0.024": 0.0,
			"0.025": 0.0
		}
	}
}
