{
	 "smiles": "CN(C)C1=CC=C(C=C1)N1C(=O)C=CC1=O", 
	 "Tm": 426.15, 
	 "num_atms": 28, 
	 "gaussian": { 
		 "optdone": 1, 
		 "sigma_profile": "yes", 
		 "theory": "DFT", 
		 "functional": "B3LYP", 
		 "basiset": "6-31G**", 
		 "properties": { 
			 "R2extent": 4961.4435, 
			 "electric_dipole_moment_norm": 1.21046817802, 
			 "electric_quadrupole_moment_norm": 21.6369676503, 
			 "total_energy": -724.449507515, 
			 "HOMO_LUMO_gap": 0.09502, 
			 "cosmo_polarized_energy": -13.04, 
			 "cosmo_cavitation_energy": 31.96, 
			 "cosmo_dispersion_energy": -23.16, 
			 "cosmo_repulsion_energy": 1.77, 
			 "cosmo_total_nonelectrostatic_energy": 10.56, 
			 "SMD_solvation_energy": 6.68 
		},
		"coords": [
			{
				"x": 1.1885081486,
				"y": -3.0759946754,
				"z": 2.0449472186,
				"element": "C" 
			},
			{
				"x": 1.582731092,
				"y": -1.758905048,
				"z": 1.5749991916,
				"element": "N" 
			},
			{
				"x": 2.9920017108,
				"y": -1.514850244,
				"z": 1.3196485357,
				"element": "C" 
			},
			{
				"x": 0.6317693825,
				"y": -0.93482325,
				"z": 0.9853542563,
				"element": "C" 
			},
			{
				"x": 0.9990757555,
				"y": 0.260387756,
				"z": 0.3257273487,
				"element": "C" 
			},
			{
				"x": 0.043990718,
				"y": 1.0941396051,
				"z": -0.2439534928,
				"element": "C" 
			},
			{
				"x": -1.3144335824,
				"y": 0.7746820684,
				"z": -0.1704395021,
				"element": "C" 
			},
			{
				"x": -1.6985203472,
				"y": -0.4045384462,
				"z": 0.4732826304,
				"element": "C" 
			},
			{
				"x": -0.7454420186,
				"y": -1.2506298987,
				"z": 1.0282421624,
				"element": "C" 
			},
			{
				"x": -2.2946191363,
				"y": 1.6370955408,
				"z": -0.7508363167,
				"element": "N" 
			},
			{
				"x": -3.4078145831,
				"y": 1.2105715423,
				"z": -1.5014808466,
				"element": "C" 
			},
			{
				"x": -3.7058058746,
				"y": 0.0640328572,
				"z": -1.7628400037,
				"element": "O" 
			},
			{
				"x": -4.1477463468,
				"y": 2.4543541207,
				"z": -1.9002464863,
				"element": "C" 
			},
			{
				"x": -3.5023991056,
				"y": 3.5154998544,
				"z": -1.411480012,
				"element": "C" 
			},
			{
				"x": -2.2931268119,
				"y": 3.042964617,
				"z": -0.6579439981,
				"element": "C" 
			},
			{
				"x": -1.4704711704,
				"y": 3.7275284639,
				"z": -0.0869398022,
				"element": "O" 
			},
			{
				"x": 0.4180027732,
				"y": -3.00301065,
				"z": 2.8209709622,
				"element": "H" 
			},
			{
				"x": 2.0535750373,
				"y": -3.5701696269,
				"z": 2.4900257215,
				"element": "H" 
			},
			{
				"x": 0.799676542,
				"y": -3.7211657047,
				"z": 1.2413160319,
				"element": "H" 
			},
			{
				"x": 3.2579181364,
				"y": -1.6002965893,
				"z": 0.2540773812,
				"element": "H" 
			},
			{
				"x": 3.2867295718,
				"y": -0.5161973532,
				"z": 1.6615565167,
				"element": "H" 
			},
			{
				"x": 3.5869224641,
				"y": -2.2392861491,
				"z": 1.8781659742,
				"element": "H" 
			},
			{
				"x": 2.0401962938,
				"y": 0.5465357524,
				"z": 0.2468060905,
				"element": "H" 
			},
			{
				"x": 0.3586399537,
				"y": 2.0053990697,
				"z": -0.7383485879,
				"element": "H" 
			},
			{
				"x": -2.7460985695,
				"y": -0.6763129381,
				"z": 0.5230042844,
				"element": "H" 
			},
			{
				"x": -1.0852964716,
				"y": -2.1624794802,
				"z": 1.5026482328,
				"element": "H" 
			},
			{
				"x": -5.0525794824,
				"y": 2.4083805203,
				"z": -2.4918289895,
				"element": "H" 
			},
			{
				"x": -3.7403840793,
				"y": 4.5676882857,
				"z": -1.4955345012,
				"element": "H" 
			}
		],
		 "valence_orbital": [ 
			{
				"type": "occ",
				"energy": -0.29174,
				"method": "rhf"
			},
			{
				"type": "occ",
				"energy": -0.26579,
				"method": "rhf"
			},
			{
				"type": "occ",
				"energy": -0.26276,
				"method": "rhf"
			},
			{
				"type": "occ",
				"energy": -0.24485,
				"method": "rhf"
			},
			{
				"type": "occ",
				"energy": -0.18697,
				"method": "rhf"
			},
			{
				"type": "unocc",
				"energy": -0.09195,
				"method": "rhf"
			},
			{
				"type": "unocc",
				"energy": 0.00479,
				"method": "rhf"
			},
			{
				"type": "unocc",
				"energy": 0.00863,
				"method": "rhf"
			},
			{
				"type": "unocc",
				"energy": 0.06954,
				"method": "rhf"
			},
			{
				"type": "unocc",
				"energy": 0.06976,
				"method": "rhf"
			}
		],
		"cosmo_sigma_profile": { 
			"-0.025": 0.0,
			"-0.024": 0.0,
			"-0.023": 0.0,
			"-0.022": 0.0,
			"-0.021": 0.0,
			"-0.02": 0.0,
			"-0.019": 0.0,
			"-0.018": 0.0,
			"-0.017": 0.0,
			"-0.016": 0.0,
			"-0.015": 0.0,
			"-0.014": 0.0,
			"-0.013": 0.0,
			"-0.012": 0.0,
			"-0.011": 0.0,
			"-0.01": 1.37794702691,
			"-0.009": 4.14975963535,
			"-0.008": 2.67302176338,
			"-0.007": 4.50271441958,
			"-0.006": 9.75575282016,
			"-0.005": 20.4890628621,
			"-0.004": 25.4848805803,
			"-0.003": 29.3751727721,
			"-0.002": 27.576203329,
			"-0.001": 22.8447257624,
			"0.0": 14.118741773,
			"0.001": 9.90364254512,
			"0.002": 7.51658232125,
			"0.003": 8.68964774528,
			"0.004": 10.2125268544,
			"0.005": 12.5038535458,
			"0.006": 12.2412438921,
			"0.007": 5.32330682606,
			"0.008": 4.41119966576,
			"0.009": 4.65322962988,
			"0.01": 6.78271010825,
			"0.011": 8.92798420824,
			"0.012": 1.87296384846,
			"0.013": 0.0,
			"0.014": 0.0,
			"0.015": 0.0,
			"0.016": 0.0,
			"0.017": 0.0,
			"0.018": 0.0,
			"0.019": 0.0,
			"0.02": 0.0,
			"0.021": 0.0,
			"0.022": 0.0,
			"0.023": 0.0,
			"0.024": 0.0,
			"0.025": 0.0
		}
	}
}
