{
	 "smiles": "COC1=C(C=C(C=C1)C(O)=O)S(N)(=O)=O", 
	 "Tm": 557.15, 
	 "num_atms": 24, 
	 "gaussian": { 
		 "optdone": 1, 
		 "sigma_profile": "yes", 
		 "theory": "DFT", 
		 "functional": "B3LYP", 
		 "basiset": "6-31G**", 
		 "properties": { 
			 "R2extent": 4051.1283, 
			 "electric_dipole_moment_norm": 5.03839940259, 
			 "electric_quadrupole_moment_norm": 22.3539318633, 
			 "total_energy": -1139.24670278, 
			 "HOMO_LUMO_gap": 0.19749, 
			 "cosmo_polarized_energy": -30.68, 
			 "cosmo_cavitation_energy": 30.22, 
			 "cosmo_dispersion_energy": -22.15, 
			 "cosmo_repulsion_energy": 1.68, 
			 "cosmo_total_nonelectrostatic_energy": 9.75, 
			 "SMD_solvation_energy": 6.88 
		},
		"coords": [
			{
				"x": 3.3786552551,
				"y": -2.1760843899,
				"z": 0.7924528946,
				"element": "C" 
			},
			{
				"x": 1.9836627036,
				"y": -2.3329788086,
				"z": 1.0964953896,
				"element": "O" 
			},
			{
				"x": 1.1122759713,
				"y": -1.5595306416,
				"z": 0.3975472431,
				"element": "C" 
			},
			{
				"x": 0.3997176537,
				"y": -0.5476359152,
				"z": 1.0703339337,
				"element": "C" 
			},
			{
				"x": -0.5577644489,
				"y": 0.1978573564,
				"z": 0.3962587822,
				"element": "C" 
			},
			{
				"x": -0.8074623804,
				"y": -0.0223765123,
				"z": -0.965008228,
				"element": "C" 
			},
			{
				"x": -0.0989562964,
				"y": -1.0314688891,
				"z": -1.6307333762,
				"element": "C" 
			},
			{
				"x": 0.8521681152,
				"y": -1.7929160417,
				"z": -0.9569576585,
				"element": "C" 
			},
			{
				"x": -1.8568768262,
				"y": 0.833290132,
				"z": -1.6073136519,
				"element": "C" 
			},
			{
				"x": -1.8890288726,
				"y": 0.8626431027,
				"z": -2.9643773117,
				"element": "O" 
			},
			{
				"x": -2.6525252881,
				"y": 1.4840174036,
				"z": -0.9702540551,
				"element": "O" 
			},
			{
				"x": 0.8001585421,
				"y": -0.2558316117,
				"z": 2.8104815229,
				"element": "S" 
			},
			{
				"x": -0.0706947589,
				"y": 1.0869494974,
				"z": 3.2747892105,
				"element": "N" 
			},
			{
				"x": 2.2065657134,
				"y": 0.1460273949,
				"z": 2.8484025897,
				"element": "O" 
			},
			{
				"x": 0.2731694394,
				"y": -1.3655272533,
				"z": 3.5969371927,
				"element": "O" 
			},
			{
				"x": 3.5719857432,
				"y": -2.3086137164,
				"z": -0.2784448846,
				"element": "H" 
			},
			{
				"x": 3.8950081761,
				"y": -2.9545397222,
				"z": 1.354473165,
				"element": "H" 
			},
			{
				"x": 3.7224025019,
				"y": -1.1915737347,
				"z": 1.1227638308,
				"element": "H" 
			},
			{
				"x": -1.1283180252,
				"y": 0.9714906006,
				"z": 0.8960117021,
				"element": "H" 
			},
			{
				"x": -0.3086677186,
				"y": -1.2703016196,
				"z": -2.6706132054,
				"element": "H" 
			},
			{
				"x": 1.378796074,
				"y": -2.5959762333,
				"z": -1.4619091414,
				"element": "H" 
			},
			{
				"x": -1.106087349,
				"y": 0.4335282663,
				"z": -3.3352266486,
				"element": "H" 
			},
			{
				"x": -1.066806871,
				"y": 0.9438737988,
				"z": 3.3908316117,
				"element": "H" 
			},
			{
				"x": 0.2045229462,
				"y": 1.9629775371,
				"z": 2.8473590927,
				"element": "H" 
			}
		],
		 "valence_orbital": [ 
			{
				"type": "occ",
				"energy": -0.31194,
				"method": "rhf"
			},
			{
				"type": "occ",
				"energy": -0.29935,
				"method": "rhf"
			},
			{
				"type": "occ",
				"energy": -0.29031,
				"method": "rhf"
			},
			{
				"type": "occ",
				"energy": -0.28577,
				"method": "rhf"
			},
			{
				"type": "occ",
				"energy": -0.26666,
				"method": "rhf"
			},
			{
				"type": "unocc",
				"energy": -0.06917,
				"method": "rhf"
			},
			{
				"type": "unocc",
				"energy": -0.0502,
				"method": "rhf"
			},
			{
				"type": "unocc",
				"energy": 0.02529,
				"method": "rhf"
			},
			{
				"type": "unocc",
				"energy": 0.0354,
				"method": "rhf"
			},
			{
				"type": "unocc",
				"energy": 0.04796,
				"method": "rhf"
			}
		],
		"cosmo_sigma_profile": { 
			"-0.025": 0.0,
			"-0.024": 0.0,
			"-0.023": 0.0,
			"-0.022": 0.0,
			"-0.021": 0.0,
			"-0.02": 0.0990710437914,
			"-0.019": 0.822070617788,
			"-0.018": 0.879934202131,
			"-0.017": 1.3436234507,
			"-0.016": 2.38410082628,
			"-0.015": 3.59721055057,
			"-0.014": 3.42477021173,
			"-0.013": 4.42307430675,
			"-0.012": 5.69794320343,
			"-0.011": 3.81030626066,
			"-0.01": 2.96059103064,
			"-0.009": 4.04856376151,
			"-0.008": 7.17998120414,
			"-0.007": 7.72560799089,
			"-0.006": 9.82557479619,
			"-0.005": 9.40358494281,
			"-0.004": 13.3524545674,
			"-0.003": 15.4368615813,
			"-0.002": 10.375880146,
			"-0.001": 10.1334702183,
			"0.0": 15.7475351019,
			"0.001": 12.7309718618,
			"0.002": 6.11633910218,
			"0.003": 4.68076300054,
			"0.004": 5.54199032081,
			"0.005": 7.27703022039,
			"0.006": 6.36164669661,
			"0.007": 7.73333157524,
			"0.008": 9.06305598953,
			"0.009": 9.34789789741,
			"0.01": 14.4196460033,
			"0.011": 16.8961052995,
			"0.012": 6.9461776148,
			"0.013": 1.02823840592,
			"0.014": 0.0,
			"0.015": 0.0,
			"0.016": 0.0,
			"0.017": 0.0,
			"0.018": 0.0,
			"0.019": 0.0,
			"0.02": 0.0,
			"0.021": 0.0,
			"0.022": 0.0,
			"0.023": 0.0,
			"0.024": 0.0,
			"0.025": 0.0
		}
	}
}
