{
	 "smiles": "OC(CC1=CC=CC=C1)C1=CC=CC=C1", 
	 "Tm": 340.15, 
	 "num_atms": 29, 
	 "gaussian": { 
		 "optdone": 1, 
		 "sigma_profile": "yes", 
		 "theory": "DFT", 
		 "functional": "B3LYP", 
		 "basiset": "6-31G**", 
		 "properties": { 
			 "R2extent": 4764.8807, 
			 "electric_dipole_moment_norm": 1.55302408545, 
			 "electric_quadrupole_moment_norm": 5.43956909231, 
			 "total_energy": -617.152254092, 
			 "HOMO_LUMO_gap": 0.22374, 
			 "cosmo_polarized_energy": -8.91, 
			 "cosmo_cavitation_energy": 32.39, 
			 "cosmo_dispersion_energy": -23.02, 
			 "cosmo_repulsion_energy": 1.81, 
			 "cosmo_total_nonelectrostatic_energy": 11.17, 
			 "SMD_solvation_energy": 5.24 
		},
		"coords": [
			{
				"x": -1.1484254264,
				"y": 1.5245363703,
				"z": 0.7094965752,
				"element": "O" 
			},
			{
				"x": -1.5394752179,
				"y": 0.4266675943,
				"z": -0.1118106138,
				"element": "C" 
			},
			{
				"x": -0.3651707827,
				"y": -0.5761951576,
				"z": -0.0917262598,
				"element": "C" 
			},
			{
				"x": 0.8903461842,
				"y": -0.0693637794,
				"z": -0.7690529717,
				"element": "C" 
			},
			{
				"x": 1.2301420747,
				"y": -0.5093032264,
				"z": -2.0552669857,
				"element": "C" 
			},
			{
				"x": 2.3780066742,
				"y": -0.0397922879,
				"z": -2.6969720593,
				"element": "C" 
			},
			{
				"x": 3.2078862073,
				"y": 0.8811320914,
				"z": -2.0568598852,
				"element": "C" 
			},
			{
				"x": 2.8805049936,
				"y": 1.3274513168,
				"z": -0.7741649935,
				"element": "C" 
			},
			{
				"x": 1.7327481228,
				"y": 0.8569877558,
				"z": -0.1365885337,
				"element": "C" 
			},
			{
				"x": -2.833341582,
				"y": -0.2129152836,
				"z": 0.3702230226,
				"element": "C" 
			},
			{
				"x": -3.7094172356,
				"y": -0.817517797,
				"z": -0.5398278845,
				"element": "C" 
			},
			{
				"x": -4.8788454657,
				"y": -1.4375497266,
				"z": -0.0983304017,
				"element": "C" 
			},
			{
				"x": -5.1897164464,
				"y": -1.4553066522,
				"z": 1.2631527259,
				"element": "C" 
			},
			{
				"x": -4.3249633202,
				"y": -0.8495708547,
				"z": 2.1769350285,
				"element": "C" 
			},
			{
				"x": -3.1540827935,
				"y": -0.2328609269,
				"z": 1.7333867396,
				"element": "C" 
			},
			{
				"x": -1.8544931629,
				"y": 2.1833812638,
				"z": 0.6778091714,
				"element": "H" 
			},
			{
				"x": -1.6800618561,
				"y": 0.7612722111,
				"z": -1.152350297,
				"element": "H" 
			},
			{
				"x": -0.701628965,
				"y": -1.4980410756,
				"z": -0.5772369411,
				"element": "H" 
			},
			{
				"x": -0.1684263488,
				"y": -0.8215434892,
				"z": 0.9588013059,
				"element": "H" 
			},
			{
				"x": 0.5918806792,
				"y": -1.2330359837,
				"z": -2.5576135516,
				"element": "H" 
			},
			{
				"x": 2.6249307691,
				"y": -0.3974104296,
				"z": -3.6929251812,
				"element": "H" 
			},
			{
				"x": 4.1040342894,
				"y": 1.2458962779,
				"z": -2.5509983775,
				"element": "H" 
			},
			{
				"x": 3.5223320092,
				"y": 2.0434606773,
				"z": -0.2678942504,
				"element": "H" 
			},
			{
				"x": 1.4748282813,
				"y": 1.214101789,
				"z": 0.8550749127,
				"element": "H" 
			},
			{
				"x": -3.476094912,
				"y": -0.7981867316,
				"z": -1.6024092599,
				"element": "H" 
			},
			{
				"x": -5.5506365216,
				"y": -1.8991858235,
				"z": -0.8167019002,
				"element": "H" 
			},
			{
				"x": -6.102138213,
				"y": -1.9331839561,
				"z": 1.6082896999,
				"element": "H" 
			},
			{
				"x": -4.5629923969,
				"y": -0.856082385,
				"z": 3.237135083,
				"element": "H" 
			},
			{
				"x": -2.4821296381,
				"y": 0.2486582189,
				"z": 2.4371260832,
				"element": "H" 
			}
		],
		 "valence_orbital": [ 
			{
				"type": "occ",
				"energy": -0.27777,
				"method": "rhf"
			},
			{
				"type": "occ",
				"energy": -0.25055,
				"method": "rhf"
			},
			{
				"type": "occ",
				"energy": -0.2458,
				"method": "rhf"
			},
			{
				"type": "occ",
				"energy": -0.23998,
				"method": "rhf"
			},
			{
				"type": "occ",
				"energy": -0.23087,
				"method": "rhf"
			},
			{
				"type": "unocc",
				"energy": -0.00713,
				"method": "rhf"
			},
			{
				"type": "unocc",
				"energy": -0.00255,
				"method": "rhf"
			},
			{
				"type": "unocc",
				"energy": 0.00801,
				"method": "rhf"
			},
			{
				"type": "unocc",
				"energy": 0.01085,
				"method": "rhf"
			},
			{
				"type": "unocc",
				"energy": 0.08314,
				"method": "rhf"
			}
		],
		"cosmo_sigma_profile": { 
			"-0.025": 0.0,
			"-0.024": 0.0,
			"-0.023": 0.0,
			"-0.022": 0.0,
			"-0.021": 0.0,
			"-0.02": 0.0,
			"-0.019": 0.0,
			"-0.018": 0.0,
			"-0.017": 0.0,
			"-0.016": 0.133087558385,
			"-0.015": 1.00865550393,
			"-0.014": 0.759012852543,
			"-0.013": 0.851222737445,
			"-0.012": 1.12226304826,
			"-0.011": 0.721209958406,
			"-0.01": 0.460095692348,
			"-0.009": 0.706152821387,
			"-0.008": 0.986696745179,
			"-0.007": 1.1314599123,
			"-0.006": 4.36125350685,
			"-0.005": 19.9400876361,
			"-0.004": 26.4428755725,
			"-0.003": 29.0631962223,
			"-0.002": 21.0107560275,
			"-0.001": 20.1857456626,
			"0.0": 16.7476763879,
			"0.001": 14.7916810835,
			"0.002": 16.5792996239,
			"0.003": 14.4598629839,
			"0.004": 15.9105344453,
			"0.005": 16.8414173379,
			"0.006": 18.0763748434,
			"0.007": 6.88135578864,
			"0.008": 2.16726710168,
			"0.009": 1.64974025351,
			"0.01": 1.93382734527,
			"0.011": 1.38478267817,
			"0.012": 0.541734093413,
			"0.013": 0.00313948222914,
			"0.014": 0.0,
			"0.015": 0.0,
			"0.016": 0.0,
			"0.017": 0.0,
			"0.018": 0.0,
			"0.019": 0.0,
			"0.02": 0.0,
			"0.021": 0.0,
			"0.022": 0.0,
			"0.023": 0.0,
			"0.024": 0.0,
			"0.025": 0.0
		}
	}
}
