{
	 "smiles": "CC1CC(=O)NC(=O)C1", 
	 "Tm": 418.15, 
	 "num_atms": 18, 
	 "gaussian": { 
		 "optdone": 1, 
		 "sigma_profile": "yes", 
		 "theory": "DFT", 
		 "functional": "B3LYP", 
		 "basiset": "6-31G**", 
		 "properties": { 
			 "R2extent": 1278.2882, 
			 "electric_dipole_moment_norm": 3.22445722719, 
			 "electric_quadrupole_moment_norm": 11.4497973327, 
			 "total_energy": -439.302526641, 
			 "HOMO_LUMO_gap": 0.23224, 
			 "cosmo_polarized_energy": -12.65, 
			 "cosmo_cavitation_energy": 20.83, 
			 "cosmo_dispersion_energy": -15.45, 
			 "cosmo_repulsion_energy": 1.29, 
			 "cosmo_total_nonelectrostatic_energy": 6.67, 
			 "SMD_solvation_energy": 4.86 
		},
		"coords": [
			{
				"x": -2.1216619087,
				"y": -1.557560665,
				"z": -1.4370908556,
				"element": "C" 
			},
			{
				"x": -0.808340137,
				"y": -1.7865016274,
				"z": -0.6733246029,
				"element": "C" 
			},
			{
				"x": 0.4151743031,
				"y": -1.2829501836,
				"z": -1.4597145873,
				"element": "C" 
			},
			{
				"x": 0.5142644737,
				"y": 0.2316668438,
				"z": -1.5275638729,
				"element": "C" 
			},
			{
				"x": 1.053769852,
				"y": 0.8388804167,
				"z": -2.4323087978,
				"element": "O" 
			},
			{
				"x": -0.0384907838,
				"y": 0.917877325,
				"z": -0.4436856197,
				"element": "N" 
			},
			{
				"x": -0.7268426282,
				"y": 0.3994939603,
				"z": 0.6557108437,
				"element": "C" 
			},
			{
				"x": -1.1836319685,
				"y": 1.1414175272,
				"z": 1.5037834761,
				"element": "O" 
			},
			{
				"x": -0.8187484667,
				"y": -1.1160285627,
				"z": 0.7120875301,
				"element": "C" 
			},
			{
				"x": -2.9741330673,
				"y": -1.9468022332,
				"z": -0.8713910876,
				"element": "H" 
			},
			{
				"x": -2.1016181181,
				"y": -2.0646828836,
				"z": -2.4069674711,
				"element": "H" 
			},
			{
				"x": -2.3055577307,
				"y": -0.4935959779,
				"z": -1.6232469249,
				"element": "H" 
			},
			{
				"x": -0.6895096257,
				"y": -2.8660314591,
				"z": -0.5228337137,
				"element": "H" 
			},
			{
				"x": 1.3394026666,
				"y": -1.6388504305,
				"z": -0.9836327367,
				"element": "H" 
			},
			{
				"x": 0.4280133885,
				"y": -1.651246905,
				"z": -2.4885250529,
				"element": "H" 
			},
			{
				"x": 0.0347647713,
				"y": 1.9298831304,
				"z": -0.4798387564,
				"element": "H" 
			},
			{
				"x": -1.7159968125,
				"y": -1.3615036797,
				"z": 1.285616213,
				"element": "H" 
			},
			{
				"x": 0.0404417919,
				"y": -1.4627645958,
				"z": 1.3029260165,
				"element": "H" 
			}
		],
		 "valence_orbital": [ 
			{
				"type": "occ",
				"energy": -0.35305,
				"method": "rhf"
			},
			{
				"type": "occ",
				"energy": -0.35249,
				"method": "rhf"
			},
			{
				"type": "occ",
				"energy": -0.28611,
				"method": "rhf"
			},
			{
				"type": "occ",
				"energy": -0.28006,
				"method": "rhf"
			},
			{
				"type": "occ",
				"energy": -0.26,
				"method": "rhf"
			},
			{
				"type": "unocc",
				"energy": -0.02776,
				"method": "rhf"
			},
			{
				"type": "unocc",
				"energy": 0.02752,
				"method": "rhf"
			},
			{
				"type": "unocc",
				"energy": 0.07024,
				"method": "rhf"
			},
			{
				"type": "unocc",
				"energy": 0.10376,
				"method": "rhf"
			},
			{
				"type": "unocc",
				"energy": 0.12363,
				"method": "rhf"
			}
		],
		"cosmo_sigma_profile": { 
			"-0.025": 0.0,
			"-0.024": 0.0,
			"-0.023": 0.0,
			"-0.022": 0.0,
			"-0.021": 0.0,
			"-0.02": 0.0,
			"-0.019": 0.0,
			"-0.018": 0.0,
			"-0.017": 0.0,
			"-0.016": 0.0,
			"-0.015": 0.548073037175,
			"-0.014": 0.964403049002,
			"-0.013": 0.679274490656,
			"-0.012": 0.842018136935,
			"-0.011": 1.02014747493,
			"-0.01": 0.149405741742,
			"-0.009": 1.1323437751,
			"-0.008": 2.15919464298,
			"-0.007": 6.48118190899,
			"-0.006": 7.14850349526,
			"-0.005": 10.9705591918,
			"-0.004": 21.0969043491,
			"-0.003": 21.4561171311,
			"-0.002": 16.4580937299,
			"-0.001": 11.0816325425,
			"0.0": 9.08916792483,
			"0.001": 6.04549549357,
			"0.002": 2.51944086388,
			"0.003": 2.91624596208,
			"0.004": 1.46144989578,
			"0.005": 2.2441575167,
			"0.006": 4.1733854984,
			"0.007": 2.02697866401,
			"0.008": 1.90992147821,
			"0.009": 2.53673922762,
			"0.01": 4.53418354761,
			"0.011": 4.98250967896,
			"0.012": 10.9116274977,
			"0.013": 4.94276746507,
			"0.014": 0.383112048391,
			"0.015": 0.0,
			"0.016": 0.0,
			"0.017": 0.0,
			"0.018": 0.0,
			"0.019": 0.0,
			"0.02": 0.0,
			"0.021": 0.0,
			"0.022": 0.0,
			"0.023": 0.0,
			"0.024": 0.0,
			"0.025": 0.0
		}
	}
}
