{
	 "smiles": "ClC1=CC=CC(=C1)C(=O)CC#N", 
	 "Tm": 354.15, 
	 "num_atms": 18, 
	 "gaussian": { 
		 "optdone": 1, 
		 "sigma_profile": "yes", 
		 "theory": "DFT", 
		 "functional": "B3LYP", 
		 "basiset": "6-31G**", 
		 "properties": { 
			 "R2extent": 2845.1855, 
			 "electric_dipole_moment_norm": 3.44123927387, 
			 "electric_quadrupole_moment_norm": 15.7311427935, 
			 "total_energy": -936.717576553, 
			 "HOMO_LUMO_gap": 0.18133, 
			 "cosmo_polarized_energy": -12.81, 
			 "cosmo_cavitation_energy": 25.75, 
			 "cosmo_dispersion_energy": -18.16, 
			 "cosmo_repulsion_energy": 1.45, 
			 "cosmo_total_nonelectrostatic_energy": 9.05, 
			 "SMD_solvation_energy": 6.03 
		},
		"coords": [
			{
				"x": -1.7247043498,
				"y": 2.5936406197,
				"z": -0.8235766916,
				"element": "Cl" 
			},
			{
				"x": -1.1364029999,
				"y": 1.0649814174,
				"z": -0.1938246589,
				"element": "C" 
			},
			{
				"x": -1.7533826989,
				"y": 0.5051873695,
				"z": 0.9287685805,
				"element": "C" 
			},
			{
				"x": -1.2844500762,
				"y": -0.7099784758,
				"z": 1.4269324253,
				"element": "C" 
			},
			{
				"x": -0.214219939,
				"y": -1.36097811,
				"z": 0.8142650278,
				"element": "C" 
			},
			{
				"x": 0.3989041818,
				"y": -0.791577737,
				"z": -0.3115193586,
				"element": "C" 
			},
			{
				"x": -0.0694885505,
				"y": 0.4323578708,
				"z": -0.8174742974,
				"element": "C" 
			},
			{
				"x": 1.5375822504,
				"y": -1.4309837202,
				"z": -1.0346308401,
				"element": "C" 
			},
			{
				"x": 2.0275060653,
				"y": -0.9383071568,
				"z": -2.0327647445,
				"element": "O" 
			},
			{
				"x": 2.0917451479,
				"y": -2.7900437582,
				"z": -0.5365744296,
				"element": "C" 
			},
			{
				"x": 2.6793888663,
				"y": -2.740891966,
				"z": 0.8016263422,
				"element": "C" 
			},
			{
				"x": 3.1430595768,
				"y": -2.6924049222,
				"z": 1.8647125856,
				"element": "N" 
			},
			{
				"x": -2.5845364425,
				"y": 1.0170762157,
				"z": 1.4011687523,
				"element": "H" 
			},
			{
				"x": -1.7564574533,
				"y": -1.1481681662,
				"z": 2.300524861,
				"element": "H" 
			},
			{
				"x": 0.1403059844,
				"y": -2.2981109154,
				"z": 1.2280092783,
				"element": "H" 
			},
			{
				"x": 0.4110321503,
				"y": 0.8613230559,
				"z": -1.6887907957,
				"element": "H" 
			},
			{
				"x": 2.8531941139,
				"y": -3.0949729986,
				"z": -1.2588176388,
				"element": "H" 
			},
			{
				"x": 1.292224173,
				"y": -3.5411486226,
				"z": -0.5462343978,
				"element": "H" 
			}
		],
		 "valence_orbital": [ 
			{
				"type": "occ",
				"energy": -0.33783,
				"method": "rhf"
			},
			{
				"type": "occ",
				"energy": -0.32603,
				"method": "rhf"
			},
			{
				"type": "occ",
				"energy": -0.28488,
				"method": "rhf"
			},
			{
				"type": "occ",
				"energy": -0.28021,
				"method": "rhf"
			},
			{
				"type": "occ",
				"energy": -0.26766,
				"method": "rhf"
			},
			{
				"type": "unocc",
				"energy": -0.08633,
				"method": "rhf"
			},
			{
				"type": "unocc",
				"energy": -0.03378,
				"method": "rhf"
			},
			{
				"type": "unocc",
				"energy": 0.00485,
				"method": "rhf"
			},
			{
				"type": "unocc",
				"energy": 0.0164,
				"method": "rhf"
			},
			{
				"type": "unocc",
				"energy": 0.02221,
				"method": "rhf"
			}
		],
		"cosmo_sigma_profile": { 
			"-0.025": 0.0,
			"-0.024": 0.0,
			"-0.023": 0.0,
			"-0.022": 0.0,
			"-0.021": 0.0,
			"-0.02": 0.0,
			"-0.019": 0.0,
			"-0.018": 0.0,
			"-0.017": 0.0,
			"-0.016": 0.0,
			"-0.015": 0.0,
			"-0.014": 0.0,
			"-0.013": 0.0,
			"-0.012": 0.183088692261,
			"-0.011": 2.38846206583,
			"-0.01": 4.87986933156,
			"-0.009": 4.48268675594,
			"-0.008": 7.45620919177,
			"-0.007": 11.8752959921,
			"-0.006": 10.8756280793,
			"-0.005": 9.28613290664,
			"-0.004": 8.36683139416,
			"-0.003": 9.71234043615,
			"-0.002": 9.59900694185,
			"-0.001": 13.0567687241,
			"0.0": 17.2341485196,
			"0.001": 23.3374507569,
			"0.002": 15.6546963592,
			"0.003": 10.1817152492,
			"0.004": 13.2509797506,
			"0.005": 6.08870172739,
			"0.006": 3.56026968272,
			"0.007": 4.01011492923,
			"0.008": 4.87854013682,
			"0.009": 6.01057362832,
			"0.01": 6.19074999918,
			"0.011": 4.63563965056,
			"0.012": 2.25067964784,
			"0.013": 1.00400284467,
			"0.014": 0.0,
			"0.015": 0.0,
			"0.016": 0.0,
			"0.017": 0.0,
			"0.018": 0.0,
			"0.019": 0.0,
			"0.02": 0.0,
			"0.021": 0.0,
			"0.022": 0.0,
			"0.023": 0.0,
			"0.024": 0.0,
			"0.025": 0.0
		}
	}
}
