{
	 "smiles": "ClS(=O)(=O)C1=CC2=C(OC(=O)C=C2)C=C1", 
	 "Tm": 391.15, 
	 "num_atms": 20, 
	 "gaussian": { 
		 "optdone": 1, 
		 "sigma_profile": "yes", 
		 "theory": "DFT", 
		 "functional": "B3LYP", 
		 "basiset": "6-31G**", 
		 "properties": { 
			 "R2extent": 5458.484, 
			 "electric_dipole_moment_norm": 2.09438499087, 
			 "electric_quadrupole_moment_norm": 29.0452764268, 
			 "total_energy": -1505.17670575, 
			 "HOMO_LUMO_gap": 0.17248, 
			 "cosmo_polarized_energy": -15.17, 
			 "cosmo_cavitation_energy": 29.0, 
			 "cosmo_dispersion_energy": -21.87, 
			 "cosmo_repulsion_energy": 1.65, 
			 "cosmo_total_nonelectrostatic_energy": 8.77, 
			 "SMD_solvation_energy": 4.82 
		},
		"coords": [
			{
				"x": 3.6084533228,
				"y": 2.3644771371,
				"z": 1.7942288286,
				"element": "Cl" 
			},
			{
				"x": 1.8474254123,
				"y": 1.9993578317,
				"z": 2.9404855722,
				"element": "S" 
			},
			{
				"x": 2.1461967899,
				"y": 0.8517651238,
				"z": 3.7880352818,
				"element": "O" 
			},
			{
				"x": 1.4418822793,
				"y": 3.2901050253,
				"z": 3.4816122112,
				"element": "O" 
			},
			{
				"x": 0.6952343314,
				"y": 1.5071892914,
				"z": 1.671769909,
				"element": "C" 
			},
			{
				"x": 0.5586759975,
				"y": 0.1559815741,
				"z": 1.3826780633,
				"element": "C" 
			},
			{
				"x": -0.3551923742,
				"y": -0.2411690537,
				"z": 0.3957215463,
				"element": "C" 
			},
			{
				"x": -1.1050920277,
				"y": 0.7506054763,
				"z": -0.2727389378,
				"element": "C" 
			},
			{
				"x": -2.0025892538,
				"y": 0.4269183613,
				"z": -1.2350378705,
				"element": "O" 
			},
			{
				"x": -2.2516711705,
				"y": -0.899596504,
				"z": -1.6335524082,
				"element": "C" 
			},
			{
				"x": -3.0687216674,
				"y": -1.0780803574,
				"z": -2.4995743957,
				"element": "O" 
			},
			{
				"x": -1.4789617613,
				"y": -1.927329108,
				"z": -0.9395862739,
				"element": "C" 
			},
			{
				"x": -0.5819638458,
				"y": -1.6171827053,
				"z": 0.0209316515,
				"element": "C" 
			},
			{
				"x": -0.9570916179,
				"y": 2.1094500316,
				"z": 0.0323657485,
				"element": "C" 
			},
			{
				"x": -0.0515674973,
				"y": 2.4934448181,
				"z": 1.0099123182,
				"element": "C" 
			},
			{
				"x": 1.1440034334,
				"y": -0.5830914295,
				"z": 1.919475122,
				"element": "H" 
			},
			{
				"x": -1.6758990542,
				"y": -2.9467282242,
				"z": -1.2487009034,
				"element": "H" 
			},
			{
				"x": -0.0167532346,
				"y": -2.3960090715,
				"z": 0.5257726738,
				"element": "H" 
			},
			{
				"x": -1.5593548344,
				"y": 2.8360918368,
				"z": -0.5010402855,
				"element": "H" 
			},
			{
				"x": 0.0751867726,
				"y": 3.537699946,
				"z": 1.2721421487,
				"element": "H" 
			}
		],
		 "valence_orbital": [ 
			{
				"type": "occ",
				"energy": -0.33504,
				"method": "rhf"
			},
			{
				"type": "occ",
				"energy": -0.3212,
				"method": "rhf"
			},
			{
				"type": "occ",
				"energy": -0.30023,
				"method": "rhf"
			},
			{
				"type": "occ",
				"energy": -0.29354,
				"method": "rhf"
			},
			{
				"type": "occ",
				"energy": -0.2706,
				"method": "rhf"
			},
			{
				"type": "unocc",
				"energy": -0.09812,
				"method": "rhf"
			},
			{
				"type": "unocc",
				"energy": -0.09729,
				"method": "rhf"
			},
			{
				"type": "unocc",
				"energy": -0.05329,
				"method": "rhf"
			},
			{
				"type": "unocc",
				"energy": -0.03051,
				"method": "rhf"
			},
			{
				"type": "unocc",
				"energy": 0.03454,
				"method": "rhf"
			}
		],
		"cosmo_sigma_profile": { 
			"-0.025": 0.0,
			"-0.024": 0.0,
			"-0.023": 0.0,
			"-0.022": 0.0,
			"-0.021": 0.0,
			"-0.02": 0.0,
			"-0.019": 0.0,
			"-0.018": 0.0,
			"-0.017": 0.0,
			"-0.016": 0.0,
			"-0.015": 0.0,
			"-0.014": 0.0,
			"-0.013": 0.0,
			"-0.012": 0.00753399575231,
			"-0.011": 1.07446582328,
			"-0.01": 2.92121709507,
			"-0.009": 7.33023905242,
			"-0.008": 9.78691369269,
			"-0.007": 9.64248563783,
			"-0.006": 10.2369983986,
			"-0.005": 9.90228078527,
			"-0.004": 11.1838480389,
			"-0.003": 15.1597913505,
			"-0.002": 22.8012423255,
			"-0.001": 24.2638941015,
			"0.0": 16.4488334429,
			"0.001": 10.3880869574,
			"0.002": 10.5701045247,
			"0.003": 17.1594807684,
			"0.004": 8.75309332564,
			"0.005": 5.94783271697,
			"0.006": 4.31117246026,
			"0.007": 9.29608352696,
			"0.008": 11.8694832101,
			"0.009": 6.15146213016,
			"0.01": 3.12361898081,
			"0.011": 6.126667922,
			"0.012": 2.77164985401,
			"0.013": 0.0873338833238,
			"0.014": 0.0,
			"0.015": 0.0,
			"0.016": 0.0,
			"0.017": 0.0,
			"0.018": 0.0,
			"0.019": 0.0,
			"0.02": 0.0,
			"0.021": 0.0,
			"0.022": 0.0,
			"0.023": 0.0,
			"0.024": 0.0,
			"0.025": 0.0
		}
	}
}
