{
	 "smiles": "CN(N=O)C(=O)NC1C(O)OC(CO)C(O)C1O", 
	 "Tm": 388.15, 
	 "num_atms": 33, 
	 "gaussian": { 
		 "optdone": 1, 
		 "sigma_profile": "yes", 
		 "theory": "DFT", 
		 "functional": "B3LYP", 
		 "basiset": "6-31G**", 
		 "properties": { 
			 "R2extent": 5463.3989, 
			 "electric_dipole_moment_norm": 4.28385777308, 
			 "electric_quadrupole_moment_norm": 26.1093532496, 
			 "total_energy": -1004.61919019, 
			 "HOMO_LUMO_gap": 0.17507, 
			 "cosmo_polarized_energy": -23.23, 
			 "cosmo_cavitation_energy": 35.21, 
			 "cosmo_dispersion_energy": -25.3, 
			 "cosmo_repulsion_energy": 1.98, 
			 "cosmo_total_nonelectrostatic_energy": 11.89, 
			 "SMD_solvation_energy": 6.76 
		},
		"coords": [
			{
				"x": -2.5157375075,
				"y": -4.3084138755,
				"z": 0.4335449497,
				"element": "C" 
			},
			{
				"x": -2.5313167526,
				"y": -2.8467211793,
				"z": 0.3417818111,
				"element": "N" 
			},
			{
				"x": -3.7440784307,
				"y": -2.2980958078,
				"z": 0.5752654351,
				"element": "N" 
			},
			{
				"x": -3.8396618079,
				"y": -1.0755354714,
				"z": 0.5125481029,
				"element": "O" 
			},
			{
				"x": -1.2576889399,
				"y": -2.2160718014,
				"z": 0.0331822573,
				"element": "C" 
			},
			{
				"x": -0.2962822429,
				"y": -2.9447525513,
				"z": -0.1514361798,
				"element": "O" 
			},
			{
				"x": -1.2735456549,
				"y": -0.8670312493,
				"z": -0.0325749654,
				"element": "N" 
			},
			{
				"x": -0.055121146,
				"y": -0.1051996659,
				"z": -0.2293908796,
				"element": "C" 
			},
			{
				"x": -0.2011101848,
				"y": 0.8264114345,
				"z": -1.4464337401,
				"element": "C" 
			},
			{
				"x": -1.3808266428,
				"y": 1.5839134312,
				"z": -1.2496750628,
				"element": "O" 
			},
			{
				"x": 0.93677723,
				"y": 1.6402934854,
				"z": -1.6578724729,
				"element": "O" 
			},
			{
				"x": 1.4269893346,
				"y": 2.4047453591,
				"z": -0.5453114217,
				"element": "C" 
			},
			{
				"x": 0.556838354,
				"y": 3.6480347034,
				"z": -0.2932564804,
				"element": "C" 
			},
			{
				"x": 1.2893677819,
				"y": 4.4858317108,
				"z": 0.6142811444,
				"element": "O" 
			},
			{
				"x": 1.624177131,
				"y": 1.4910136685,
				"z": 0.6776627398,
				"element": "C" 
			},
			{
				"x": 2.0913770878,
				"y": 2.1673011751,
				"z": 1.8365946412,
				"element": "O" 
			},
			{
				"x": 0.3457519415,
				"y": 0.7085699598,
				"z": 1.0069850239,
				"element": "C" 
			},
			{
				"x": 0.5798682262,
				"y": -0.1704204757,
				"z": 2.087341285,
				"element": "O" 
			},
			{
				"x": -1.8190078195,
				"y": -4.6298346408,
				"z": 1.2097054358,
				"element": "H" 
			},
			{
				"x": -3.5304225072,
				"y": -4.6205490654,
				"z": 0.6777139693,
				"element": "H" 
			},
			{
				"x": -2.1999763952,
				"y": -4.7432462473,
				"z": -0.5164944101,
				"element": "H" 
			},
			{
				"x": -2.1596174344,
				"y": -0.3971864412,
				"z": 0.1299982112,
				"element": "H" 
			},
			{
				"x": 0.7406394934,
				"y": -0.8239413516,
				"z": -0.4381885338,
				"element": "H" 
			},
			{
				"x": -0.2753915701,
				"y": 0.2300005163,
				"z": -2.3632808871,
				"element": "H" 
			},
			{
				"x": -1.5907074058,
				"y": 2.0314892675,
				"z": -2.0799693663,
				"element": "H" 
			},
			{
				"x": 2.4075767406,
				"y": 2.7698563925,
				"z": -0.8681763451,
				"element": "H" 
			},
			{
				"x": -0.420991666,
				"y": 3.377856875,
				"z": 0.1165698426,
				"element": "H" 
			},
			{
				"x": 0.3973702643,
				"y": 4.1546671401,
				"z": -1.2547135922,
				"element": "H" 
			},
			{
				"x": 0.7213866486,
				"y": 5.2174379807,
				"z": 0.8857778856,
				"element": "H" 
			},
			{
				"x": 2.3892437563,
				"y": 0.7484171381,
				"z": 0.4133010886,
				"element": "H" 
			},
			{
				"x": 1.833803659,
				"y": 3.1030770771,
				"z": 1.7595197293,
				"element": "H" 
			},
			{
				"x": -0.4641071403,
				"y": 1.4141365703,
				"z": 1.2562243289,
				"element": "H" 
			},
			{
				"x": 1.0773235992,
				"y": 0.3516459384,
				"z": 2.7358764554,
				"element": "H" 
			}
		],
		 "valence_orbital": [ 
			{
				"type": "occ",
				"energy": -0.28309,
				"method": "rhf"
			},
			{
				"type": "occ",
				"energy": -0.28232,
				"method": "rhf"
			},
			{
				"type": "occ",
				"energy": -0.25507,
				"method": "rhf"
			},
			{
				"type": "occ",
				"energy": -0.2525,
				"method": "rhf"
			},
			{
				"type": "occ",
				"energy": -0.2387,
				"method": "rhf"
			},
			{
				"type": "unocc",
				"energy": -0.06363,
				"method": "rhf"
			},
			{
				"type": "unocc",
				"energy": 0.03878,
				"method": "rhf"
			},
			{
				"type": "unocc",
				"energy": 0.05451,
				"method": "rhf"
			},
			{
				"type": "unocc",
				"energy": 0.05793,
				"method": "rhf"
			},
			{
				"type": "unocc",
				"energy": 0.09073,
				"method": "rhf"
			}
		],
		"cosmo_sigma_profile": { 
			"-0.025": 0.0,
			"-0.024": 0.0,
			"-0.023": 0.0,
			"-0.022": 0.0,
			"-0.021": 0.0,
			"-0.02": 0.0,
			"-0.019": 0.0,
			"-0.018": 0.0,
			"-0.017": 1.22236380013,
			"-0.016": 2.59753474484,
			"-0.015": 1.38251751886,
			"-0.014": 2.32037594701,
			"-0.013": 2.09779233186,
			"-0.012": 1.96161169604,
			"-0.011": 2.29729630577,
			"-0.01": 2.07490778999,
			"-0.009": 2.04534864084,
			"-0.008": 2.6492838237,
			"-0.007": 7.08891883958,
			"-0.006": 14.6389393842,
			"-0.005": 24.6360713151,
			"-0.004": 27.193543231,
			"-0.003": 26.1099991351,
			"-0.002": 16.185284516,
			"-0.001": 11.8794138431,
			"0.0": 12.8272983872,
			"0.001": 10.4550003445,
			"0.002": 9.85297937106,
			"0.003": 8.54345182703,
			"0.004": 9.4254436781,
			"0.005": 9.75431976083,
			"0.006": 8.83411574613,
			"0.007": 10.2524001117,
			"0.008": 10.102659955,
			"0.009": 8.26432487818,
			"0.01": 6.53323932763,
			"0.011": 8.49686276413,
			"0.012": 9.4478862898,
			"0.013": 2.8633154908,
			"0.014": 0.664386973039,
			"0.015": 0.0232325667968,
			"0.016": 0.0,
			"0.017": 0.0,
			"0.018": 0.0,
			"0.019": 0.0,
			"0.02": 0.0,
			"0.021": 0.0,
			"0.022": 0.0,
			"0.023": 0.0,
			"0.024": 0.0,
			"0.025": 0.0
		}
	}
}
