{
	 "smiles": "ClC1=NN=C(C=C1)C1CC1", 
	 "Tm": 377.15, 
	 "num_atms": 17, 
	 "gaussian": { 
		 "optdone": 1, 
		 "sigma_profile": "yes", 
		 "theory": "DFT", 
		 "functional": "B3LYP", 
		 "basiset": "6-31G**", 
		 "properties": { 
			 "R2extent": 4786.3063, 
			 "electric_dipole_moment_norm": 4.47540468226, 
			 "electric_quadrupole_moment_norm": 23.1326821074, 
			 "total_energy": -840.589613678, 
			 "HOMO_LUMO_gap": 0.18312, 
			 "cosmo_polarized_energy": -10.25, 
			 "cosmo_cavitation_energy": 22.89, 
			 "cosmo_dispersion_energy": -17.21, 
			 "cosmo_repulsion_energy": 1.4, 
			 "cosmo_total_nonelectrostatic_energy": 7.08, 
			 "SMD_solvation_energy": 1.79 
		},
		"coords": [
			{
				"x": -0.4865681878,
				"y": 4.8145900499,
				"z": -3.6165614912,
				"element": "Cl" 
			},
			{
				"x": -0.2503189493,
				"y": 3.7275650415,
				"z": -2.2618376267,
				"element": "C" 
			},
			{
				"x": -0.173307156,
				"y": 4.2886612525,
				"z": -1.0670555085,
				"element": "N" 
			},
			{
				"x": 0.0063169511,
				"y": 3.5146750317,
				"z": 0.0042362447,
				"element": "N" 
			},
			{
				"x": 0.1083998837,
				"y": 2.1838543253,
				"z": -0.1226305694,
				"element": "C" 
			},
			{
				"x": 0.0304268312,
				"y": 1.5564709801,
				"z": -1.381262105,
				"element": "C" 
			},
			{
				"x": -0.155309919,
				"y": 2.3493776357,
				"z": -2.4945943025,
				"element": "C" 
			},
			{
				"x": 0.3067028305,
				"y": 1.40206396,
				"z": 1.1227650888,
				"element": "C" 
			},
			{
				"x": -0.3519979415,
				"y": 1.8592183866,
				"z": 2.415204804,
				"element": "C" 
			},
			{
				"x": 1.1291378981,
				"y": 1.9878654427,
				"z": 2.2602058146,
				"element": "C" 
			},
			{
				"x": 0.1148205603,
				"y": 0.4772290657,
				"z": -1.4665633886,
				"element": "H" 
			},
			{
				"x": -0.2255556567,
				"y": 1.9440448374,
				"z": -3.4974339291,
				"element": "H" 
			},
			{
				"x": 0.3837054116,
				"y": 0.3295875112,
				"z": 0.9673181609,
				"element": "H" 
			},
			{
				"x": -0.9407757606,
				"y": 2.768309991,
				"z": 2.3516434237,
				"element": "H" 
			},
			{
				"x": -0.7480725204,
				"y": 1.0893840988,
				"z": 3.0703242654,
				"element": "H" 
			},
			{
				"x": 1.5286337382,
				"y": 2.9827515423,
				"z": 2.0935173667,
				"element": "H" 
			},
			{
				"x": 1.7766619865,
				"y": 1.3084508476,
				"z": 2.8059237522,
				"element": "H" 
			}
		],
		 "valence_orbital": [ 
			{
				"type": "occ",
				"energy": -0.31783,
				"method": "rhf"
			},
			{
				"type": "occ",
				"energy": -0.30887,
				"method": "rhf"
			},
			{
				"type": "occ",
				"energy": -0.30827,
				"method": "rhf"
			},
			{
				"type": "occ",
				"energy": -0.25761,
				"method": "rhf"
			},
			{
				"type": "occ",
				"energy": -0.24383,
				"method": "rhf"
			},
			{
				"type": "unocc",
				"energy": -0.06071,
				"method": "rhf"
			},
			{
				"type": "unocc",
				"energy": -0.03379,
				"method": "rhf"
			},
			{
				"type": "unocc",
				"energy": 0.02594,
				"method": "rhf"
			},
			{
				"type": "unocc",
				"energy": 0.08367,
				"method": "rhf"
			},
			{
				"type": "unocc",
				"energy": 0.10259,
				"method": "rhf"
			}
		],
		"cosmo_sigma_profile": { 
			"-0.025": 0.0,
			"-0.024": 0.0,
			"-0.023": 0.0,
			"-0.022": 0.0,
			"-0.021": 0.0,
			"-0.02": 0.0,
			"-0.019": 0.0,
			"-0.018": 0.0,
			"-0.017": 0.0,
			"-0.016": 0.0,
			"-0.015": 0.0,
			"-0.014": 0.0,
			"-0.013": 0.0,
			"-0.012": 0.0,
			"-0.011": 0.0,
			"-0.01": 0.347916215014,
			"-0.009": 4.05366554412,
			"-0.008": 5.79237948928,
			"-0.007": 5.05796459021,
			"-0.006": 5.32652333261,
			"-0.005": 10.109375669,
			"-0.004": 11.2849742996,
			"-0.003": 13.9370443209,
			"-0.002": 17.2955774564,
			"-0.001": 20.3242922515,
			"0.0": 16.6949122573,
			"0.001": 11.8770371507,
			"0.002": 13.7370241093,
			"0.003": 13.9687575364,
			"0.004": 11.1789733098,
			"0.005": 5.06139613133,
			"0.006": 2.96496117235,
			"0.007": 1.85165966043,
			"0.008": 2.01505299305,
			"0.009": 2.29848228111,
			"0.01": 1.54615839772,
			"0.011": 2.19147106242,
			"0.012": 2.18826430237,
			"0.013": 2.60759498239,
			"0.014": 1.52577082239,
			"0.015": 0.348131063327,
			"0.016": 0.0,
			"0.017": 0.0,
			"0.018": 0.0,
			"0.019": 0.0,
			"0.02": 0.0,
			"0.021": 0.0,
			"0.022": 0.0,
			"0.023": 0.0,
			"0.024": 0.0,
			"0.025": 0.0
		}
	}
}
