{
	 "smiles": "ON=CC1=CC=C(OCC2=CC=NC=C2)C=C1", 
	 "Tm": 437.15, 
	 "num_atms": 29, 
	 "gaussian": { 
		 "optdone": 1, 
		 "sigma_profile": "yes", 
		 "theory": "DFT", 
		 "functional": "B3LYP", 
		 "basiset": "6-31G**", 
		 "properties": { 
			 "R2extent": 5793.4786, 
			 "electric_dipole_moment_norm": 2.11163672302, 
			 "electric_quadrupole_moment_norm": 16.8822943935, 
			 "total_energy": -762.487835826, 
			 "HOMO_LUMO_gap": 0.18065, 
			 "cosmo_polarized_energy": -14.5, 
			 "cosmo_cavitation_energy": 33.82, 
			 "cosmo_dispersion_energy": -24.31, 
			 "cosmo_repulsion_energy": 1.89, 
			 "cosmo_total_nonelectrostatic_energy": 11.39, 
			 "SMD_solvation_energy": 4.63 
		},
		"coords": [
			{
				"x": -4.7893419829,
				"y": 2.8751627599,
				"z": 0.3348797494,
				"element": "O" 
			},
			{
				"x": -5.2337331576,
				"y": 2.5227186078,
				"z": -0.9494669147,
				"element": "N" 
			},
			{
				"x": -4.5358922531,
				"y": 1.5940622305,
				"z": -1.501697353,
				"element": "C" 
			},
			{
				"x": -3.3677708802,
				"y": 0.8176393184,
				"z": -1.0767463549,
				"element": "C" 
			},
			{
				"x": -2.8768473884,
				"y": -0.1434699826,
				"z": -1.9864302281,
				"element": "C" 
			},
			{
				"x": -1.7802036558,
				"y": -0.9352644037,
				"z": -1.6878707491,
				"element": "C" 
			},
			{
				"x": -1.1299969635,
				"y": -0.788502133,
				"z": -0.454016959,
				"element": "C" 
			},
			{
				"x": -0.0631504027,
				"y": -1.6223101132,
				"z": -0.2507729344,
				"element": "O" 
			},
			{
				"x": 0.5554779901,
				"y": -1.6615193042,
				"z": 1.0297341385,
				"element": "C" 
			},
			{
				"x": 1.5320177293,
				"y": -0.5298217644,
				"z": 1.2831488859,
				"element": "C" 
			},
			{
				"x": 2.1610503287,
				"y": 0.1466996987,
				"z": 0.2355403624,
				"element": "C" 
			},
			{
				"x": 3.0885040963,
				"y": 1.1435660829,
				"z": 0.54036374,
				"element": "C" 
			},
			{
				"x": 3.4263523682,
				"y": 1.4967767441,
				"z": 1.7870918178,
				"element": "N" 
			},
			{
				"x": 2.8197632699,
				"y": 0.8411215613,
				"z": 2.7842804008,
				"element": "C" 
			},
			{
				"x": 1.8741694666,
				"y": -0.1657634545,
				"z": 2.5891033299,
				"element": "C" 
			},
			{
				"x": -1.5908195887,
				"y": 0.1634610404,
				"z": 0.4629840283,
				"element": "C" 
			},
			{
				"x": -2.6977544894,
				"y": 0.9530548204,
				"z": 0.1534803814,
				"element": "C" 
			},
			{
				"x": -5.4160549589,
				"y": 3.5681764565,
				"z": 0.5795868102,
				"element": "H" 
			},
			{
				"x": -4.9169258705,
				"y": 1.3534552202,
				"z": -2.4944750963,
				"element": "H" 
			},
			{
				"x": -3.3739196078,
				"y": -0.2692967981,
				"z": -2.9449397295,
				"element": "H" 
			},
			{
				"x": -1.4108340654,
				"y": -1.6780021151,
				"z": -2.38718892,
				"element": "H" 
			},
			{
				"x": -0.2004996,
				"y": -1.7040915729,
				"z": 1.8244340505,
				"element": "H" 
			},
			{
				"x": 1.0955290225,
				"y": -2.6148030771,
				"z": 1.0417612215,
				"element": "H" 
			},
			{
				"x": 1.9260283134,
				"y": -0.0948912489,
				"z": -0.7953621826,
				"element": "H" 
			},
			{
				"x": 3.5861483487,
				"y": 1.6860762805,
				"z": -0.2617307555,
				"element": "H" 
			},
			{
				"x": 3.0985183671,
				"y": 1.1386423395,
				"z": 3.7938748744,
				"element": "H" 
			},
			{
				"x": 1.4137565631,
				"y": -0.6529824397,
				"z": 3.4450184349,
				"element": "H" 
			},
			{
				"x": -1.0869646792,
				"y": 0.3149790999,
				"z": 1.4099838002,
				"element": "H" 
			},
			{
				"x": -3.04170632,
				"y": 1.6857261463,
				"z": 0.868932151,
				"element": "H" 
			}
		],
		 "valence_orbital": [ 
			{
				"type": "occ",
				"energy": -0.26769,
				"method": "rhf"
			},
			{
				"type": "occ",
				"energy": -0.26689,
				"method": "rhf"
			},
			{
				"type": "occ",
				"energy": -0.25758,
				"method": "rhf"
			},
			{
				"type": "occ",
				"energy": -0.25671,
				"method": "rhf"
			},
			{
				"type": "occ",
				"energy": -0.21637,
				"method": "rhf"
			},
			{
				"type": "unocc",
				"energy": -0.03572,
				"method": "rhf"
			},
			{
				"type": "unocc",
				"energy": -0.03012,
				"method": "rhf"
			},
			{
				"type": "unocc",
				"energy": -0.0172,
				"method": "rhf"
			},
			{
				"type": "unocc",
				"energy": -0.00574,
				"method": "rhf"
			},
			{
				"type": "unocc",
				"energy": 0.06223,
				"method": "rhf"
			}
		],
		"cosmo_sigma_profile": { 
			"-0.025": 0.0,
			"-0.024": 0.0,
			"-0.023": 0.0,
			"-0.022": 0.0,
			"-0.021": 0.0,
			"-0.02": 0.0,
			"-0.019": 0.0,
			"-0.018": 0.0662112075651,
			"-0.017": 0.858168975042,
			"-0.016": 0.926107703049,
			"-0.015": 1.19224869315,
			"-0.014": 0.532005338429,
			"-0.013": 0.692506285144,
			"-0.012": 0.777024884542,
			"-0.011": 0.303922792691,
			"-0.01": 0.486155457311,
			"-0.009": 0.948259828366,
			"-0.008": 3.82230350073,
			"-0.007": 14.1491061671,
			"-0.006": 20.8574281711,
			"-0.005": 19.3356735231,
			"-0.004": 16.8376783597,
			"-0.003": 14.4933702135,
			"-0.002": 12.5656133873,
			"-0.001": 14.0633429498,
			"0.0": 15.0085700362,
			"0.001": 17.0666676551,
			"0.002": 26.1077299916,
			"0.003": 23.7841588053,
			"0.004": 21.5082035387,
			"0.005": 9.90215025627,
			"0.006": 6.65926823541,
			"0.007": 6.44004263616,
			"0.008": 5.46225856478,
			"0.009": 4.05222498552,
			"0.01": 2.09712305221,
			"0.011": 1.91274576703,
			"0.012": 1.90541277721,
			"0.013": 2.412469371,
			"0.014": 1.41568388655,
			"0.015": 0.985138230897,
			"0.016": 0.589937370728,
			"0.017": 0.492951676626,
			"0.018": 0.0,
			"0.019": 0.0,
			"0.02": 0.0,
			"0.021": 0.0,
			"0.022": 0.0,
			"0.023": 0.0,
			"0.024": 0.0,
			"0.025": 0.0
		}
	}
}
