{
	 "smiles": "CN1N=CC(Br)=C(Br)C1=O", 
	 "Tm": 388.15, 
	 "num_atms": 14, 
	 "gaussian": { 
		 "optdone": 1, 
		 "sigma_profile": "yes", 
		 "theory": "DFT", 
		 "functional": "B3LYP", 
		 "basiset": "6-31G**", 
		 "properties": { 
			 "R2extent": 3608.321, 
			 "electric_dipole_moment_norm": 2.5322906409, 
			 "electric_quadrupole_moment_norm": 8.11566286079, 
			 "total_energy": -5520.44301206, 
			 "HOMO_LUMO_gap": 0.16777, 
			 "cosmo_polarized_energy": -8.94, 
			 "cosmo_cavitation_energy": 23.16, 
			 "cosmo_dispersion_energy": -18.03, 
			 "cosmo_repulsion_energy": 1.45, 
			 "cosmo_total_nonelectrostatic_energy": 6.58, 
			 "SMD_solvation_energy": 2.04 
		},
		"coords": [
			{
				"x": 2.9403339055,
				"y": 1.4036683788,
				"z": -0.3153182392,
				"element": "C" 
			},
			{
				"x": 1.7140833997,
				"y": 0.6041179793,
				"z": -0.301138389,
				"element": "N" 
			},
			{
				"x": 0.6165578074,
				"y": 1.1859277185,
				"z": -0.7986757348,
				"element": "N" 
			},
			{
				"x": -0.4932843179,
				"y": 0.4998842285,
				"z": -0.8009229857,
				"element": "C" 
			},
			{
				"x": -0.5829213273,
				"y": -0.834095098,
				"z": -0.2985642866,
				"element": "C" 
			},
			{
				"x": -2.2756377329,
				"y": -1.6775480972,
				"z": -0.3820263456,
				"element": "Br" 
			},
			{
				"x": 0.5351794966,
				"y": -1.4294666189,
				"z": 0.2094433766,
				"element": "C" 
			},
			{
				"x": 0.5822924205,
				"y": -3.1717543611,
				"z": 0.905298083,
				"element": "Br" 
			},
			{
				"x": 1.8069709026,
				"y": -0.695667308,
				"z": 0.2327599572,
				"element": "C" 
			},
			{
				"x": 2.8731152006,
				"y": -1.1148793625,
				"z": 0.6589153231,
				"element": "O" 
			},
			{
				"x": 3.7083369561,
				"y": 0.8940581848,
				"z": -0.9017796448,
				"element": "H" 
			},
			{
				"x": 2.6923089114,
				"y": 2.3676112356,
				"z": -0.7549002003,
				"element": "H" 
			},
			{
				"x": 3.3154104714,
				"y": 1.5249717444,
				"z": 0.7035257845,
				"element": "H" 
			},
			{
				"x": -1.3667460937,
				"y": 0.9944713759,
				"z": -1.2092166985,
				"element": "H" 
			}
		],
		 "valence_orbital": [ 
			{
				"type": "occ",
				"energy": -0.31609,
				"method": "rhf"
			},
			{
				"type": "occ",
				"energy": -0.29165,
				"method": "rhf"
			},
			{
				"type": "occ",
				"energy": -0.28204,
				"method": "rhf"
			},
			{
				"type": "occ",
				"energy": -0.26851,
				"method": "rhf"
			},
			{
				"type": "occ",
				"energy": -0.24639,
				"method": "rhf"
			},
			{
				"type": "unocc",
				"energy": -0.07862,
				"method": "rhf"
			},
			{
				"type": "unocc",
				"energy": -0.03481,
				"method": "rhf"
			},
			{
				"type": "unocc",
				"energy": -0.019,
				"method": "rhf"
			},
			{
				"type": "unocc",
				"energy": 0.02757,
				"method": "rhf"
			},
			{
				"type": "unocc",
				"energy": 0.09778,
				"method": "rhf"
			}
		],
		"cosmo_sigma_profile": { 
			"-0.025": 0.0,
			"-0.024": 0.0,
			"-0.023": 0.0,
			"-0.022": 0.0,
			"-0.021": 0.0,
			"-0.02": 0.0,
			"-0.019": 0.0,
			"-0.018": 0.0,
			"-0.017": 0.0,
			"-0.016": 0.0,
			"-0.015": 0.0,
			"-0.014": 0.0,
			"-0.013": 0.0,
			"-0.012": 0.0,
			"-0.011": 0.0,
			"-0.01": 0.478653003272,
			"-0.009": 1.65066434419,
			"-0.008": 1.23985419236,
			"-0.007": 4.53542777281,
			"-0.006": 11.6098617849,
			"-0.005": 13.7592066813,
			"-0.004": 16.3798492152,
			"-0.003": 19.9044932831,
			"-0.002": 17.1662624815,
			"-0.001": 13.8447672951,
			"0.0": 11.2066128512,
			"0.001": 12.5969797696,
			"0.002": 17.633015045,
			"0.003": 16.8696341146,
			"0.004": 7.20117943789,
			"0.005": 2.30549713499,
			"0.006": 3.27239874457,
			"0.007": 2.68657436701,
			"0.008": 2.71934007038,
			"0.009": 2.51726885505,
			"0.01": 2.25112495147,
			"0.011": 2.52143215647,
			"0.012": 4.65090975348,
			"0.013": 3.47568303207,
			"0.014": 0.105242094626,
			"0.015": 0.0,
			"0.016": 0.0,
			"0.017": 0.0,
			"0.018": 0.0,
			"0.019": 0.0,
			"0.02": 0.0,
			"0.021": 0.0,
			"0.022": 0.0,
			"0.023": 0.0,
			"0.024": 0.0,
			"0.025": 0.0
		}
	}
}
