{
	 "smiles": "OC(=O)COC1=CC2=C(OC3=C2CCCC3)C=C1", 
	 "Tm": 462.15, 
	 "num_atms": 32, 
	 "gaussian": { 
		 "optdone": 1, 
		 "sigma_profile": "yes", 
		 "theory": "DFT", 
		 "functional": "B3LYP", 
		 "basiset": "6-31G**", 
		 "properties": { 
			 "R2extent": 6862.1597, 
			 "electric_dipole_moment_norm": 5.44276317324, 
			 "electric_quadrupole_moment_norm": 25.9319621338, 
			 "total_energy": -842.829874368, 
			 "HOMO_LUMO_gap": 0.1914, 
			 "cosmo_polarized_energy": -13.47, 
			 "cosmo_cavitation_energy": 35.19, 
			 "cosmo_dispersion_energy": -26.14, 
			 "cosmo_repulsion_energy": 2.03, 
			 "cosmo_total_nonelectrostatic_energy": 11.07, 
			 "SMD_solvation_energy": 6.85 
		},
		"coords": [
			{
				"x": 1.7261706803,
				"y": -2.453082373,
				"z": 5.0625594526,
				"element": "O" 
			},
			{
				"x": 2.0042332115,
				"y": -1.1987719244,
				"z": 4.6723643721,
				"element": "C" 
			},
			{
				"x": 2.6973514009,
				"y": -0.4473042481,
				"z": 5.3112226447,
				"element": "O" 
			},
			{
				"x": 1.3769387336,
				"y": -0.7691893677,
				"z": 3.3447228283,
				"element": "C" 
			},
			{
				"x": 0.6189284102,
				"y": -1.8494052551,
				"z": 2.8245712355,
				"element": "O" 
			},
			{
				"x": -0.0444310057,
				"y": -1.6929163484,
				"z": 1.6225017285,
				"element": "C" 
			},
			{
				"x": -0.0129347396,
				"y": -0.5165812596,
				"z": 0.87534609,
				"element": "C" 
			},
			{
				"x": -0.7328962314,
				"y": -0.4906464516,
				"z": -0.3313544851,
				"element": "C" 
			},
			{
				"x": -1.4472609399,
				"y": -1.6325073508,
				"z": -0.73617549,
				"element": "C" 
			},
			{
				"x": -2.0792226428,
				"y": -1.4062468187,
				"z": -1.9333941094,
				"element": "O" 
			},
			{
				"x": -1.7605677806,
				"y": -0.1150298853,
				"z": -2.2841807117,
				"element": "C" 
			},
			{
				"x": -0.9603174084,
				"y": 0.4916680364,
				"z": -1.3657395798,
				"element": "C" 
			},
			{
				"x": -0.4830727032,
				"y": 1.9079056617,
				"z": -1.5197794489,
				"element": "C" 
			},
			{
				"x": -1.3116629487,
				"y": 2.631327466,
				"z": -2.6024985862,
				"element": "C" 
			},
			{
				"x": -1.5098637481,
				"y": 1.7631685538,
				"z": -3.8585805589,
				"element": "C" 
			},
			{
				"x": -2.2891717282,
				"y": 0.4662321412,
				"z": -3.5492527141,
				"element": "C" 
			},
			{
				"x": -1.4828798257,
				"y": -2.8078110843,
				"z": 0.003132146,
				"element": "C" 
			},
			{
				"x": -0.767596474,
				"y": -2.825351963,
				"z": 1.1964071078,
				"element": "C" 
			},
			{
				"x": 1.1522557628,
				"y": -2.8537045208,
				"z": 4.3846255833,
				"element": "H" 
			},
			{
				"x": 2.1850803013,
				"y": -0.4769941092,
				"z": 2.6621080787,
				"element": "H" 
			},
			{
				"x": 0.7496970538,
				"y": 0.1119624464,
				"z": 3.5306382788,
				"element": "H" 
			},
			{
				"x": 0.5434377126,
				"y": 0.3535320751,
				"z": 1.2022894932,
				"element": "H" 
			},
			{
				"x": -0.5580386777,
				"y": 2.4480623652,
				"z": -0.5674807487,
				"element": "H" 
			},
			{
				"x": 0.5824268483,
				"y": 1.9207224484,
				"z": -1.7920802509,
				"element": "H" 
			},
			{
				"x": -0.8255928255,
				"y": 3.5748820371,
				"z": -2.8732007635,
				"element": "H" 
			},
			{
				"x": -2.2947541482,
				"y": 2.8901726996,
				"z": -2.1877697146,
				"element": "H" 
			},
			{
				"x": -0.5280483002,
				"y": 1.4995972882,
				"z": -4.2723797076,
				"element": "H" 
			},
			{
				"x": -2.036195958,
				"y": 2.3318364072,
				"z": -4.6323381443,
				"element": "H" 
			},
			{
				"x": -3.363512308,
				"y": 0.6777463066,
				"z": -3.4470409292,
				"element": "H" 
			},
			{
				"x": -2.1947856493,
				"y": -0.2535393837,
				"z": -4.371215684,
				"element": "H" 
			},
			{
				"x": -2.0430956837,
				"y": -3.6727729903,
				"z": -0.3345797781,
				"element": "H" 
			},
			{
				"x": -0.7537183884,
				"y": -3.711660599,
				"z": 1.8214523652,
				"element": "H" 
			}
		],
		 "valence_orbital": [ 
			{
				"type": "occ",
				"energy": -0.30925,
				"method": "rhf"
			},
			{
				"type": "occ",
				"energy": -0.28759,
				"method": "rhf"
			},
			{
				"type": "occ",
				"energy": -0.27329,
				"method": "rhf"
			},
			{
				"type": "occ",
				"energy": -0.22741,
				"method": "rhf"
			},
			{
				"type": "occ",
				"energy": -0.21641,
				"method": "rhf"
			},
			{
				"type": "unocc",
				"energy": -0.02501,
				"method": "rhf"
			},
			{
				"type": "unocc",
				"energy": 0.00803,
				"method": "rhf"
			},
			{
				"type": "unocc",
				"energy": 0.01626,
				"method": "rhf"
			},
			{
				"type": "unocc",
				"energy": 0.05075,
				"method": "rhf"
			},
			{
				"type": "unocc",
				"energy": 0.08022,
				"method": "rhf"
			}
		],
		"cosmo_sigma_profile": { 
			"-0.025": 0.0,
			"-0.024": 0.0,
			"-0.023": 0.0,
			"-0.022": 0.0,
			"-0.021": 0.0,
			"-0.02": 0.0,
			"-0.019": 0.0,
			"-0.018": 0.0,
			"-0.017": 0.0,
			"-0.016": 0.0,
			"-0.015": 0.166358946407,
			"-0.014": 0.437075202926,
			"-0.013": 0.919220244142,
			"-0.012": 0.471381459524,
			"-0.011": 0.354333044192,
			"-0.01": 1.17375977323,
			"-0.009": 1.06279179826,
			"-0.008": 7.97116709302,
			"-0.007": 11.3180030491,
			"-0.006": 10.1883022374,
			"-0.005": 10.8937031989,
			"-0.004": 14.763232648,
			"-0.003": 27.1188882798,
			"-0.002": 30.6564301449,
			"-0.001": 29.736284458,
			"0.0": 21.6519527995,
			"0.001": 13.4164595828,
			"0.002": 15.1541740182,
			"0.003": 17.4238550065,
			"0.004": 19.9596438987,
			"0.005": 10.8480441825,
			"0.006": 3.33563272168,
			"0.007": 3.84459156725,
			"0.008": 3.76203129427,
			"0.009": 6.20115700987,
			"0.01": 4.62230416881,
			"0.011": 4.61581993909,
			"0.012": 5.17972529659,
			"0.013": 1.3160268483,
			"0.014": 0.0,
			"0.015": 0.0,
			"0.016": 0.0,
			"0.017": 0.0,
			"0.018": 0.0,
			"0.019": 0.0,
			"0.02": 0.0,
			"0.021": 0.0,
			"0.022": 0.0,
			"0.023": 0.0,
			"0.024": 0.0,
			"0.025": 0.0
		}
	}
}
