{
	 "smiles": "NC(=S)CC#N", 
	 "Tm": 389.15, 
	 "num_atms": 10, 
	 "gaussian": { 
		 "optdone": 1, 
		 "sigma_profile": "yes", 
		 "theory": "DFT", 
		 "functional": "B3LYP", 
		 "basiset": "6-31G**", 
		 "properties": { 
			 "R2extent": 1298.0013, 
			 "electric_dipole_moment_norm": 1.18047394719, 
			 "electric_quadrupole_moment_norm": 13.5924722821, 
			 "total_energy": -624.404946245, 
			 "HOMO_LUMO_gap": 0.17759, 
			 "cosmo_polarized_energy": -15.71, 
			 "cosmo_cavitation_energy": 16.84, 
			 "cosmo_dispersion_energy": -12.47, 
			 "cosmo_repulsion_energy": 1.04, 
			 "cosmo_total_nonelectrostatic_energy": 5.41, 
			 "SMD_solvation_energy": 3.47 
		},
		"coords": [
			{
				"x": 0.0298548508,
				"y": 1.6226156564,
				"z": 0.3043964265,
				"element": "N" 
			},
			{
				"x": -0.9286938003,
				"y": 0.6987266339,
				"z": 0.1501176321,
				"element": "C" 
			},
			{
				"x": -0.8827949277,
				"y": -0.5201248523,
				"z": -0.9733861196,
				"element": "S" 
			},
			{
				"x": -2.1303158343,
				"y": 0.8197922908,
				"z": 1.1021056681,
				"element": "C" 
			},
			{
				"x": -2.0593469445,
				"y": 1.9339296437,
				"z": 2.049535226,
				"element": "C" 
			},
			{
				"x": -1.9376070247,
				"y": 2.8355277936,
				"z": 2.7714061177,
				"element": "N" 
			},
			{
				"x": 0.8391867298,
				"y": 1.5838758283,
				"z": -0.2983939446,
				"element": "H" 
			},
			{
				"x": -0.0313246825,
				"y": 2.3534500468,
				"z": 1.0018154332,
				"element": "H" 
			},
			{
				"x": -3.0353016236,
				"y": 0.9140795803,
				"z": 0.4941587846,
				"element": "H" 
			},
			{
				"x": -2.222556743,
				"y": -0.1219726215,
				"z": 1.6517447759,
				"element": "H" 
			}
		],
		 "valence_orbital": [ 
			{
				"type": "occ",
				"energy": -0.37838,
				"method": "rhf"
			},
			{
				"type": "occ",
				"energy": -0.3569,
				"method": "rhf"
			},
			{
				"type": "occ",
				"energy": -0.35048,
				"method": "rhf"
			},
			{
				"type": "occ",
				"energy": -0.24917,
				"method": "rhf"
			},
			{
				"type": "occ",
				"energy": -0.22798,
				"method": "rhf"
			},
			{
				"type": "unocc",
				"energy": -0.05039,
				"method": "rhf"
			},
			{
				"type": "unocc",
				"energy": -0.00041,
				"method": "rhf"
			},
			{
				"type": "unocc",
				"energy": 0.01535,
				"method": "rhf"
			},
			{
				"type": "unocc",
				"energy": 0.05944,
				"method": "rhf"
			},
			{
				"type": "unocc",
				"energy": 0.08203,
				"method": "rhf"
			}
		],
		"cosmo_sigma_profile": { 
			"-0.025": 0.0,
			"-0.024": 0.0,
			"-0.023": 0.0,
			"-0.022": 0.0,
			"-0.021": 0.0,
			"-0.02": 0.0,
			"-0.019": 0.0,
			"-0.018": 0.0,
			"-0.017": 0.0,
			"-0.016": 0.870092354857,
			"-0.015": 2.02671109707,
			"-0.014": 2.14725174423,
			"-0.013": 2.29187942143,
			"-0.012": 1.6724397584,
			"-0.011": 3.04581653914,
			"-0.01": 6.49525069656,
			"-0.009": 6.35376099829,
			"-0.008": 6.26249709738,
			"-0.007": 7.39125140356,
			"-0.006": 4.84769246222,
			"-0.005": 4.23483176717,
			"-0.004": 4.74840227108,
			"-0.003": 3.84847830322,
			"-0.002": 3.77611149208,
			"-0.001": 4.10442530638,
			"0.0": 4.03409307512,
			"0.001": 4.02360563984,
			"0.002": 4.94836288622,
			"0.003": 4.11601754391,
			"0.004": 5.32623937544,
			"0.005": 5.45757587977,
			"0.006": 5.66918113358,
			"0.007": 8.17606261158,
			"0.008": 9.32024615231,
			"0.009": 8.32213569328,
			"0.01": 6.53238026833,
			"0.011": 5.25587238345,
			"0.012": 2.3673359464,
			"0.013": 0.237182425712,
			"0.014": 0.0,
			"0.015": 0.0,
			"0.016": 0.0,
			"0.017": 0.0,
			"0.018": 0.0,
			"0.019": 0.0,
			"0.02": 0.0,
			"0.021": 0.0,
			"0.022": 0.0,
			"0.023": 0.0,
			"0.024": 0.0,
			"0.025": 0.0
		}
	}
}
