{
	 "smiles": "CCOC(=O)C1=NC2=C(S1)C=CC=C2", 
	 "Tm": 343.15, 
	 "num_atms": 23, 
	 "gaussian": { 
		 "optdone": 1, 
		 "sigma_profile": "yes", 
		 "theory": "DFT", 
		 "functional": "B3LYP", 
		 "basiset": "6-31G**", 
		 "properties": { 
			 "R2extent": 4093.0203, 
			 "electric_dipole_moment_norm": 2.78579198613, 
			 "electric_quadrupole_moment_norm": 17.6219135686, 
			 "total_energy": -989.890655014, 
			 "HOMO_LUMO_gap": 0.17017, 
			 "cosmo_polarized_energy": -10.51, 
			 "cosmo_cavitation_energy": 29.39, 
			 "cosmo_dispersion_energy": -22.06, 
			 "cosmo_repulsion_energy": 1.7, 
			 "cosmo_total_nonelectrostatic_energy": 9.03, 
			 "SMD_solvation_energy": 4.12 
		},
		"coords": [
			{
				"x": 0.3086677166,
				"y": 3.2557432908,
				"z": -2.6207318975,
				"element": "C" 
			},
			{
				"x": 1.3968774825,
				"y": 3.0587461293,
				"z": -1.5766820266,
				"element": "C" 
			},
			{
				"x": 1.0319580227,
				"y": 2.0268438652,
				"z": -0.6259831886,
				"element": "O" 
			},
			{
				"x": 1.3157168526,
				"y": 0.7540564241,
				"z": -0.97887918,
				"element": "C" 
			},
			{
				"x": 1.8501560978,
				"y": 0.4174135318,
				"z": -2.0100896703,
				"element": "O" 
			},
			{
				"x": 0.8784607005,
				"y": -0.187602529,
				"z": 0.0940949276,
				"element": "C" 
			},
			{
				"x": 1.0354475587,
				"y": -1.4704529234,
				"z": 0.0063707111,
				"element": "N" 
			},
			{
				"x": 0.5452898003,
				"y": -2.103767176,
				"z": 1.1298362025,
				"element": "C" 
			},
			{
				"x": -0.0115594809,
				"y": -1.2476016636,
				"z": 2.1160221385,
				"element": "C" 
			},
			{
				"x": 0.1035733324,
				"y": 0.410043883,
				"z": 1.5760222345,
				"element": "S" 
			},
			{
				"x": -0.5442488689,
				"y": -1.7608335461,
				"z": 3.3035188866,
				"element": "C" 
			},
			{
				"x": -0.5128951377,
				"y": -3.1385687752,
				"z": 3.4918770612,
				"element": "C" 
			},
			{
				"x": 0.037171203,
				"y": -3.9977956156,
				"z": 2.5203750375,
				"element": "C" 
			},
			{
				"x": 0.5661066799,
				"y": -3.4930626369,
				"z": 1.3419740388,
				"element": "C" 
			},
			{
				"x": 0.5769478959,
				"y": 4.0879079904,
				"z": -3.2799957899,
				"element": "H" 
			},
			{
				"x": 0.1949270836,
				"y": 2.3575332169,
				"z": -3.2324272013,
				"element": "H" 
			},
			{
				"x": -0.6495493912,
				"y": 3.4874747251,
				"z": -2.1468940188,
				"element": "H" 
			},
			{
				"x": 1.5354514008,
				"y": 3.9521094322,
				"z": -0.963928068,
				"element": "H" 
			},
			{
				"x": 2.3467618672,
				"y": 2.7831856775,
				"z": -2.0407653383,
				"element": "H" 
			},
			{
				"x": -0.9698255901,
				"y": -1.106492074,
				"z": 4.0573898608,
				"element": "H" 
			},
			{
				"x": -0.9207597336,
				"y": -3.5588626153,
				"z": 4.4063861418,
				"element": "H" 
			},
			{
				"x": 0.0454557487,
				"y": -5.0684443477,
				"z": 2.6999222766,
				"element": "H" 
			},
			{
				"x": 0.9941687594,
				"y": -4.1375742637,
				"z": 0.5815868618,
				"element": "H" 
			}
		],
		 "valence_orbital": [ 
			{
				"type": "occ",
				"energy": -0.30495,
				"method": "rhf"
			},
			{
				"type": "occ",
				"energy": -0.28917,
				"method": "rhf"
			},
			{
				"type": "occ",
				"energy": -0.27929,
				"method": "rhf"
			},
			{
				"type": "occ",
				"energy": -0.24952,
				"method": "rhf"
			},
			{
				"type": "occ",
				"energy": -0.24215,
				"method": "rhf"
			},
			{
				"type": "unocc",
				"energy": -0.07198,
				"method": "rhf"
			},
			{
				"type": "unocc",
				"energy": -0.01341,
				"method": "rhf"
			},
			{
				"type": "unocc",
				"energy": 0.00972,
				"method": "rhf"
			},
			{
				"type": "unocc",
				"energy": 0.01128,
				"method": "rhf"
			},
			{
				"type": "unocc",
				"energy": 0.07647,
				"method": "rhf"
			}
		],
		"cosmo_sigma_profile": { 
			"-0.025": 0.0,
			"-0.024": 0.0,
			"-0.023": 0.0,
			"-0.022": 0.0,
			"-0.021": 0.0,
			"-0.02": 0.0,
			"-0.019": 0.0,
			"-0.018": 0.0,
			"-0.017": 0.0,
			"-0.016": 0.0,
			"-0.015": 0.0,
			"-0.014": 0.0,
			"-0.013": 0.0,
			"-0.012": 0.0,
			"-0.011": 0.0,
			"-0.01": 0.0,
			"-0.009": 0.0,
			"-0.008": 1.3509763781,
			"-0.007": 6.53633394686,
			"-0.006": 11.7872510668,
			"-0.005": 17.4839722048,
			"-0.004": 22.0514200359,
			"-0.003": 19.3472542903,
			"-0.002": 21.0017491801,
			"-0.001": 19.0992090412,
			"0.0": 19.9340020712,
			"0.001": 20.1788335133,
			"0.002": 21.5705779347,
			"0.003": 18.254723088,
			"0.004": 10.4714987526,
			"0.005": 4.66858817211,
			"0.006": 2.94944015877,
			"0.007": 1.89418309566,
			"0.008": 1.66871372343,
			"0.009": 2.6736748557,
			"0.01": 3.58303967166,
			"0.011": 4.82807831814,
			"0.012": 2.21622718507,
			"0.013": 2.03197973729,
			"0.014": 1.68709501666,
			"0.015": 0.339785031508,
			"0.016": 0.0,
			"0.017": 0.0,
			"0.018": 0.0,
			"0.019": 0.0,
			"0.02": 0.0,
			"0.021": 0.0,
			"0.022": 0.0,
			"0.023": 0.0,
			"0.024": 0.0,
			"0.025": 0.0
		}
	}
}
