{
	 "smiles": "ClCC(Cl)CCl", 
	 "Tm": 258.65, 
	 "num_atms": 11, 
	 "gaussian": { 
		 "optdone": 1, 
		 "sigma_profile": "yes", 
		 "theory": "DFT", 
		 "functional": "B3LYP", 
		 "basiset": "6-31G**", 
		 "properties": { 
			 "R2extent": 2096.9628, 
			 "electric_dipole_moment_norm": 2.88434423223, 
			 "electric_quadrupole_moment_norm": 8.19379421086, 
			 "total_energy": -1497.91641049, 
			 "HOMO_LUMO_gap": 0.29635, 
			 "cosmo_polarized_energy": -9.49, 
			 "cosmo_cavitation_energy": 19.42, 
			 "cosmo_dispersion_energy": -14.64, 
			 "cosmo_repulsion_energy": 1.27, 
			 "cosmo_total_nonelectrostatic_energy": 6.05, 
			 "SMD_solvation_energy": 2.3 
		},
		"coords": [
			{
				"x": 0.1493667644,
				"y": 1.7196974479,
				"z": 0.5912352528,
				"element": "Cl" 
			},
			{
				"x": 0.831341811,
				"y": 0.4076050996,
				"z": -0.4496189458,
				"element": "C" 
			},
			{
				"x": -0.0437292942,
				"y": 0.0405092095,
				"z": -1.6455961146,
				"element": "C" 
			},
			{
				"x": -1.5525988452,
				"y": -0.8100050956,
				"z": -1.1046227273,
				"element": "Cl" 
			},
			{
				"x": -0.3733361381,
				"y": 1.2398287943,
				"z": -2.5271084491,
				"element": "C" 
			},
			{
				"x": -1.035722578,
				"y": 0.7538430097,
				"z": -4.1333584346,
				"element": "Cl" 
			},
			{
				"x": 0.9815178113,
				"y": -0.4610119539,
				"z": 0.1907173756,
				"element": "H" 
			},
			{
				"x": 1.799708588,
				"y": 0.7655614577,
				"z": -0.8079330336,
				"element": "H" 
			},
			{
				"x": 0.5115725281,
				"y": -0.7006212725,
				"z": -2.2278678689,
				"element": "H" 
			},
			{
				"x": 0.5398512136,
				"y": 1.8066619192,
				"z": -2.7239533169,
				"element": "H" 
			},
			{
				"x": -1.105571861,
				"y": 1.890131384,
				"z": -2.0510937377,
				"element": "H" 
			}
		],
		 "valence_orbital": [ 
			{
				"type": "occ",
				"energy": -0.32,
				"method": "rhf"
			},
			{
				"type": "occ",
				"energy": -0.31455,
				"method": "rhf"
			},
			{
				"type": "occ",
				"energy": -0.31026,
				"method": "rhf"
			},
			{
				"type": "occ",
				"energy": -0.30356,
				"method": "rhf"
			},
			{
				"type": "occ",
				"energy": -0.30203,
				"method": "rhf"
			},
			{
				"type": "unocc",
				"energy": -0.00568,
				"method": "rhf"
			},
			{
				"type": "unocc",
				"energy": 0.00862,
				"method": "rhf"
			},
			{
				"type": "unocc",
				"energy": 0.02225,
				"method": "rhf"
			},
			{
				"type": "unocc",
				"energy": 0.07271,
				"method": "rhf"
			},
			{
				"type": "unocc",
				"energy": 0.10709,
				"method": "rhf"
			}
		],
		"cosmo_sigma_profile": { 
			"-0.025": 0.0,
			"-0.024": 0.0,
			"-0.023": 0.0,
			"-0.022": 0.0,
			"-0.021": 0.0,
			"-0.02": 0.0,
			"-0.019": 0.0,
			"-0.018": 0.0,
			"-0.017": 0.0,
			"-0.016": 0.0,
			"-0.015": 0.0,
			"-0.014": 0.0,
			"-0.013": 0.0,
			"-0.012": 0.0437516605842,
			"-0.011": 1.21500376535,
			"-0.01": 4.06797327453,
			"-0.009": 8.63592120736,
			"-0.008": 8.16782138136,
			"-0.007": 6.55247317415,
			"-0.006": 7.27543787671,
			"-0.005": 6.40955133064,
			"-0.004": 5.11115119309,
			"-0.003": 3.62468589127,
			"-0.002": 5.34845404758,
			"-0.001": 6.60180202229,
			"0.0": 8.18592770375,
			"0.001": 9.14581703594,
			"0.002": 9.56912871624,
			"0.003": 12.7247583767,
			"0.004": 13.0821599782,
			"0.005": 20.6745295465,
			"0.006": 19.3576990537,
			"0.007": 4.05410567461,
			"0.008": 0.0323722784927,
			"0.009": 0.0,
			"0.01": 0.0,
			"0.011": 0.0,
			"0.012": 0.0,
			"0.013": 0.0,
			"0.014": 0.0,
			"0.015": 0.0,
			"0.016": 0.0,
			"0.017": 0.0,
			"0.018": 0.0,
			"0.019": 0.0,
			"0.02": 0.0,
			"0.021": 0.0,
			"0.022": 0.0,
			"0.023": 0.0,
			"0.024": 0.0,
			"0.025": 0.0
		}
	}
}
