{
	 "smiles": "COC1=CC(F)=C(F)C(F)=C1", 
	 "Tm": 293.15, 
	 "num_atms": 16, 
	 "gaussian": { 
		 "optdone": 1, 
		 "sigma_profile": "yes", 
		 "theory": "DFT", 
		 "functional": "B3LYP", 
		 "basiset": "6-31G**", 
		 "properties": { 
			 "R2extent": 2626.7114, 
			 "electric_dipole_moment_norm": 3.56012734323, 
			 "electric_quadrupole_moment_norm": 3.69759916162, 
			 "total_energy": -644.45414772, 
			 "HOMO_LUMO_gap": 0.21838, 
			 "cosmo_polarized_energy": -5.14, 
			 "cosmo_cavitation_energy": 21.99, 
			 "cosmo_dispersion_energy": -15.89, 
			 "cosmo_repulsion_energy": 1.21, 
			 "cosmo_total_nonelectrostatic_energy": 7.31, 
			 "SMD_solvation_energy": 6.18 
		},
		"coords": [
			{
				"x": 0.8735586321,
				"y": 0.6960676678,
				"z": -2.7034855686,
				"element": "C" 
			},
			{
				"x": 1.8163382734,
				"y": -0.0326455148,
				"z": -1.9300463924,
				"element": "O" 
			},
			{
				"x": 1.6507182878,
				"y": -0.0710841088,
				"z": -0.5803086388,
				"element": "C" 
			},
			{
				"x": 2.614933585,
				"y": -0.8066897059,
				"z": 0.1260347914,
				"element": "C" 
			},
			{
				"x": 2.5199608476,
				"y": -0.8963395198,
				"z": 1.5041788462,
				"element": "C" 
			},
			{
				"x": 3.4322845521,
				"y": -1.595106392,
				"z": 2.1973776971,
				"element": "F" 
			},
			{
				"x": 1.4893558075,
				"y": -0.2738011873,
				"z": 2.2109574636,
				"element": "C" 
			},
			{
				"x": 1.4138818776,
				"y": -0.3720845224,
				"z": 3.5469812078,
				"element": "F" 
			},
			{
				"x": 0.5469402433,
				"y": 0.448595234,
				"z": 1.4903797197,
				"element": "C" 
			},
			{
				"x": -0.4486310734,
				"y": 1.051509772,
				"z": 2.1606856254,
				"element": "F" 
			},
			{
				"x": 0.6063701771,
				"y": 0.5633927706,
				"z": 0.1037130007,
				"element": "C" 
			},
			{
				"x": -0.138758718,
				"y": 0.2864406752,
				"z": -2.5960266579,
				"element": "H" 
			},
			{
				"x": 1.1946280601,
				"y": 0.5937023207,
				"z": -3.7406868552,
				"element": "H" 
			},
			{
				"x": 0.8640253003,
				"y": 1.7589604013,
				"z": -2.4309178356,
				"element": "H" 
			},
			{
				"x": 3.4236955487,
				"y": -1.2984320575,
				"z": -0.4001455134,
				"element": "H" 
			},
			{
				"x": -0.1596014012,
				"y": 1.1409141669,
				"z": -0.3958908901,
				"element": "H" 
			}
		],
		 "valence_orbital": [ 
			{
				"type": "occ",
				"energy": -0.36672,
				"method": "rhf"
			},
			{
				"type": "occ",
				"energy": -0.3508,
				"method": "rhf"
			},
			{
				"type": "occ",
				"energy": -0.31667,
				"method": "rhf"
			},
			{
				"type": "occ",
				"energy": -0.25779,
				"method": "rhf"
			},
			{
				"type": "occ",
				"energy": -0.22962,
				"method": "rhf"
			},
			{
				"type": "unocc",
				"energy": -0.01124,
				"method": "rhf"
			},
			{
				"type": "unocc",
				"energy": 0.00182,
				"method": "rhf"
			},
			{
				"type": "unocc",
				"energy": 0.05009,
				"method": "rhf"
			},
			{
				"type": "unocc",
				"energy": 0.09291,
				"method": "rhf"
			},
			{
				"type": "unocc",
				"energy": 0.10588,
				"method": "rhf"
			}
		],
		"cosmo_sigma_profile": { 
			"-0.025": 0.0,
			"-0.024": 0.0,
			"-0.023": 0.0,
			"-0.022": 0.0,
			"-0.021": 0.0,
			"-0.02": 0.0,
			"-0.019": 0.0,
			"-0.018": 0.0,
			"-0.017": 0.0,
			"-0.016": 0.0,
			"-0.015": 0.0,
			"-0.014": 0.0,
			"-0.013": 0.0,
			"-0.012": 0.0,
			"-0.011": 0.0,
			"-0.01": 0.0,
			"-0.009": 0.168481911186,
			"-0.008": 3.22498213076,
			"-0.007": 4.3905748309,
			"-0.006": 9.52835326177,
			"-0.005": 10.6887614151,
			"-0.004": 9.64377729875,
			"-0.003": 9.24218947959,
			"-0.002": 8.82886381846,
			"-0.001": 16.0013086804,
			"0.0": 17.1868197068,
			"0.001": 15.6010712615,
			"0.002": 17.6001999834,
			"0.003": 27.3096384742,
			"0.004": 20.0470215189,
			"0.005": 1.79188350874,
			"0.006": 0.670448215313,
			"0.007": 1.17680513148,
			"0.008": 1.58844944021,
			"0.009": 1.56275443849,
			"0.01": 0.58032759608,
			"0.011": 0.0,
			"0.012": 0.0,
			"0.013": 0.0,
			"0.014": 0.0,
			"0.015": 0.0,
			"0.016": 0.0,
			"0.017": 0.0,
			"0.018": 0.0,
			"0.019": 0.0,
			"0.02": 0.0,
			"0.021": 0.0,
			"0.022": 0.0,
			"0.023": 0.0,
			"0.024": 0.0,
			"0.025": 0.0
		}
	}
}
