{
	 "smiles": "NC1=C(COC2=CC=C(CC#N)C=C2)C=CC=C1", 
	 "Tm": 382.15, 
	 "num_atms": 32, 
	 "gaussian": { 
		 "optdone": 1, 
		 "sigma_profile": "yes", 
		 "theory": "DFT", 
		 "functional": "B3LYP", 
		 "basiset": "6-31G**", 
		 "properties": { 
			 "R2extent": 6114.6537, 
			 "electric_dipole_moment_norm": 3.56071153002, 
			 "electric_quadrupole_moment_norm": 36.2300650488, 
			 "total_energy": -764.741871724, 
			 "HOMO_LUMO_gap": 0.19106, 
			 "cosmo_polarized_energy": -15.84, 
			 "cosmo_cavitation_energy": 36.59, 
			 "cosmo_dispersion_energy": -25.48, 
			 "cosmo_repulsion_energy": 1.97, 
			 "cosmo_total_nonelectrostatic_energy": 13.08, 
			 "SMD_solvation_energy": 7.4 
		},
		"coords": [
			{
				"x": -0.7190404142,
				"y": -1.6963899258,
				"z": 2.9643929165,
				"element": "N" 
			},
			{
				"x": 0.5838863823,
				"y": -1.8636914251,
				"z": 2.505307473,
				"element": "C" 
			},
			{
				"x": 0.8368617609,
				"y": -2.0588144141,
				"z": 1.1256793261,
				"element": "C" 
			},
			{
				"x": -0.3074653251,
				"y": -2.1075826231,
				"z": 0.1427812762,
				"element": "C" 
			},
			{
				"x": -1.2024540158,
				"y": -0.9756003989,
				"z": 0.1980172567,
				"element": "O" 
			},
			{
				"x": -0.8456502808,
				"y": 0.2136212007,
				"z": -0.3780432237,
				"element": "C" 
			},
			{
				"x": 0.3972890245,
				"y": 0.4872973348,
				"z": -0.9570162819,
				"element": "C" 
			},
			{
				"x": 0.6280310776,
				"y": 1.7434330857,
				"z": -1.524879346,
				"element": "C" 
			},
			{
				"x": -0.3541685741,
				"y": 2.7338915106,
				"z": -1.5297492686,
				"element": "C" 
			},
			{
				"x": -0.0863158633,
				"y": 4.0749955379,
				"z": -2.1998278308,
				"element": "C" 
			},
			{
				"x": -0.555739778,
				"y": 5.2288945931,
				"z": -1.423648587,
				"element": "C" 
			},
			{
				"x": -0.9431593628,
				"y": 6.136660583,
				"z": -0.8129484308,
				"element": "N" 
			},
			{
				"x": -1.5932080721,
				"y": 2.4476082442,
				"z": -0.9390317423,
				"element": "C" 
			},
			{
				"x": -1.8386257097,
				"y": 1.2051200363,
				"z": -0.3700745477,
				"element": "C" 
			},
			{
				"x": 2.1470609126,
				"y": -2.293136995,
				"z": 0.6986418503,
				"element": "C" 
			},
			{
				"x": 3.2146370307,
				"y": -2.3411295934,
				"z": 1.5946246209,
				"element": "C" 
			},
			{
				"x": 2.9600527846,
				"y": -2.1452372628,
				"z": 2.9534886539,
				"element": "C" 
			},
			{
				"x": 1.6648396512,
				"y": -1.9064029072,
				"z": 3.4033585156,
				"element": "C" 
			},
			{
				"x": -1.3469399921,
				"y": -1.2409974207,
				"z": 2.3147344763,
				"element": "H" 
			},
			{
				"x": -0.7993337464,
				"y": -1.3413619045,
				"z": 3.9068116146,
				"element": "H" 
			},
			{
				"x": -0.96963426,
				"y": -2.9496932557,
				"z": 0.3709888306,
				"element": "H" 
			},
			{
				"x": 0.0638454212,
				"y": -2.2351769369,
				"z": -0.880677658,
				"element": "H" 
			},
			{
				"x": 1.193264694,
				"y": -0.2451389879,
				"z": -0.9440303171,
				"element": "H" 
			},
			{
				"x": 1.6013307198,
				"y": 1.9466442489,
				"z": -1.9647624621,
				"element": "H" 
			},
			{
				"x": 0.9872730502,
				"y": 4.1987307092,
				"z": -2.3795576825,
				"element": "H" 
			},
			{
				"x": -0.5708311666,
				"y": 4.1217453231,
				"z": -3.1850467158,
				"element": "H" 
			},
			{
				"x": -2.3702503591,
				"y": 3.2067857735,
				"z": -0.9166561459,
				"element": "H" 
			},
			{
				"x": -2.7976273283,
				"y": 0.977334597,
				"z": 0.0839370979,
				"element": "H" 
			},
			{
				"x": 2.3290071302,
				"y": -2.451757082,
				"z": -0.3628115844,
				"element": "H" 
			},
			{
				"x": 4.2232885027,
				"y": -2.5262624571,
				"z": 1.2398073442,
				"element": "H" 
			},
			{
				"x": 3.7756445006,
				"y": -2.1725885093,
				"z": 3.6708085763,
				"element": "H" 
			},
			{
				"x": 1.4760316054,
				"y": -1.7547006785,
				"z": 4.4635819954,
				"element": "H" 
			}
		],
		 "valence_orbital": [ 
			{
				"type": "occ",
				"energy": -0.3098,
				"method": "rhf"
			},
			{
				"type": "occ",
				"energy": -0.26158,
				"method": "rhf"
			},
			{
				"type": "occ",
				"energy": -0.2492,
				"method": "rhf"
			},
			{
				"type": "occ",
				"energy": -0.22836,
				"method": "rhf"
			},
			{
				"type": "occ",
				"energy": -0.20522,
				"method": "rhf"
			},
			{
				"type": "unocc",
				"energy": -0.01416,
				"method": "rhf"
			},
			{
				"type": "unocc",
				"energy": -0.0064,
				"method": "rhf"
			},
			{
				"type": "unocc",
				"energy": -0.00286,
				"method": "rhf"
			},
			{
				"type": "unocc",
				"energy": 0.01058,
				"method": "rhf"
			},
			{
				"type": "unocc",
				"energy": 0.03452,
				"method": "rhf"
			}
		],
		"cosmo_sigma_profile": { 
			"-0.025": 0.0,
			"-0.024": 0.0,
			"-0.023": 0.0,
			"-0.022": 0.0,
			"-0.021": 0.0,
			"-0.02": 0.0,
			"-0.019": 0.0,
			"-0.018": 0.0,
			"-0.017": 0.0,
			"-0.016": 0.0,
			"-0.015": 0.0,
			"-0.014": 0.0,
			"-0.013": 0.159987043755,
			"-0.012": 1.06681858321,
			"-0.011": 1.56409981779,
			"-0.01": 1.17893300891,
			"-0.009": 4.13590607559,
			"-0.008": 9.52203033969,
			"-0.007": 10.5945864465,
			"-0.006": 19.2227537499,
			"-0.005": 22.9602280406,
			"-0.004": 22.6602981621,
			"-0.003": 19.2684684882,
			"-0.002": 17.1770723388,
			"-0.001": 15.006267032,
			"0.0": 15.2561151074,
			"0.001": 15.1247494698,
			"0.002": 16.111556115,
			"0.003": 17.8927406009,
			"0.004": 20.175118764,
			"0.005": 18.3417219208,
			"0.006": 12.7330246385,
			"0.007": 8.81217377138,
			"0.008": 4.88272775867,
			"0.009": 4.59041877018,
			"0.01": 3.91825996602,
			"0.011": 4.00852262751,
			"0.012": 2.92015682982,
			"0.013": 2.6304144219,
			"0.014": 0.679488296472,
			"0.015": 0.0438428074753,
			"0.016": 0.0,
			"0.017": 0.0,
			"0.018": 0.0,
			"0.019": 0.0,
			"0.02": 0.0,
			"0.021": 0.0,
			"0.022": 0.0,
			"0.023": 0.0,
			"0.024": 0.0,
			"0.025": 0.0
		}
	}
}
