{
	 "smiles": "CCCCCCCOC(=O)C1=CC=C(O)C=C1", 
	 "Tm": 321.15, 
	 "num_atms": 37, 
	 "gaussian": { 
		 "optdone": 1, 
		 "sigma_profile": "yes", 
		 "theory": "DFT", 
		 "functional": "B3LYP", 
		 "basiset": "6-31G**", 
		 "properties": { 
			 "R2extent": 7058.2038, 
			 "electric_dipole_moment_norm": 3.52912851707, 
			 "electric_quadrupole_moment_norm": 11.437363047, 
			 "total_energy": -771.246321997, 
			 "HOMO_LUMO_gap": 0.19836, 
			 "cosmo_polarized_energy": -12.43, 
			 "cosmo_cavitation_energy": 39.82, 
			 "cosmo_dispersion_energy": -27.21, 
			 "cosmo_repulsion_energy": 2.14, 
			 "cosmo_total_nonelectrostatic_energy": 14.75, 
			 "SMD_solvation_energy": 7.4 
		},
		"coords": [
			{
				"x": 2.8333819446,
				"y": 2.539112308,
				"z": -1.8564390988,
				"element": "C" 
			},
			{
				"x": 2.7628308719,
				"y": 3.9273219524,
				"z": -1.2098710963,
				"element": "C" 
			},
			{
				"x": 1.4291480785,
				"y": 4.2778192515,
				"z": -0.5254614454,
				"element": "C" 
			},
			{
				"x": 0.2031075919,
				"y": 4.3639587293,
				"z": -1.4646657547,
				"element": "C" 
			},
			{
				"x": -0.6326922792,
				"y": 3.0774909706,
				"z": -1.6048830819,
				"element": "C" 
			},
			{
				"x": -1.4596474369,
				"y": 2.7386982854,
				"z": -0.3561631286,
				"element": "C" 
			},
			{
				"x": -2.2943113831,
				"y": 1.4746309571,
				"z": -0.496831424,
				"element": "C" 
			},
			{
				"x": -1.3915632131,
				"y": 0.3534014468,
				"z": -0.6212806356,
				"element": "O" 
			},
			{
				"x": -1.9757023593,
				"y": -0.8546039103,
				"z": -0.8101913334,
				"element": "C" 
			},
			{
				"x": -3.1821933726,
				"y": -1.0031134465,
				"z": -0.8766639339,
				"element": "O" 
			},
			{
				"x": -0.9862508886,
				"y": -1.9558548438,
				"z": -0.9233474679,
				"element": "C" 
			},
			{
				"x": -1.4676077177,
				"y": -3.2586890979,
				"z": -1.1311426604,
				"element": "C" 
			},
			{
				"x": -0.5943628426,
				"y": -4.3302589652,
				"z": -1.2454365399,
				"element": "C" 
			},
			{
				"x": 0.7871899069,
				"y": -4.1103663444,
				"z": -1.1516859354,
				"element": "C" 
			},
			{
				"x": 1.6019085431,
				"y": -5.1946073764,
				"z": -1.2704786096,
				"element": "O" 
			},
			{
				"x": 1.2800088598,
				"y": -2.8152771149,
				"z": -0.943510288,
				"element": "C" 
			},
			{
				"x": 0.3963205598,
				"y": -1.7466237324,
				"z": -0.8304055048,
				"element": "C" 
			},
			{
				"x": 2.126219065,
				"y": 2.4373050491,
				"z": -2.6855519604,
				"element": "H" 
			},
			{
				"x": 3.8344951079,
				"y": 2.3450525726,
				"z": -2.2563290615,
				"element": "H" 
			},
			{
				"x": 2.6084210284,
				"y": 1.7503869333,
				"z": -1.1285569471,
				"element": "H" 
			},
			{
				"x": 2.9800738728,
				"y": 4.6897766979,
				"z": -1.9707888486,
				"element": "H" 
			},
			{
				"x": 3.5641453072,
				"y": 4.0106829713,
				"z": -0.4639461127,
				"element": "H" 
			},
			{
				"x": 1.2362225241,
				"y": 3.555493658,
				"z": 0.2793938488,
				"element": "H" 
			},
			{
				"x": 1.5597281591,
				"y": 5.2459719886,
				"z": -0.0262994408,
				"element": "H" 
			},
			{
				"x": 0.5420218834,
				"y": 4.6810754731,
				"z": -2.4600457355,
				"element": "H" 
			},
			{
				"x": -0.4635888926,
				"y": 5.1630225624,
				"z": -1.1134517871,
				"element": "H" 
			},
			{
				"x": -1.32059791,
				"y": 3.1934921455,
				"z": -2.4537024044,
				"element": "H" 
			},
			{
				"x": 0.0111658076,
				"y": 2.2262559876,
				"z": -1.8483013732,
				"element": "H" 
			},
			{
				"x": -2.1485383392,
				"y": 3.5656372312,
				"z": -0.1362011515,
				"element": "H" 
			},
			{
				"x": -0.8108683888,
				"y": 2.6340794941,
				"z": 0.5219131299,
				"element": "H" 
			},
			{
				"x": -2.9410672038,
				"y": 1.5076137112,
				"z": -1.3803210135,
				"element": "H" 
			},
			{
				"x": -2.9369797208,
				"y": 1.3132085555,
				"z": 0.3748136588,
				"element": "H" 
			},
			{
				"x": -2.5399610366,
				"y": -3.4068525275,
				"z": -1.2004285891,
				"element": "H" 
			},
			{
				"x": -0.9540053645,
				"y": -5.3409380991,
				"z": -1.4064095185,
				"element": "H" 
			},
			{
				"x": 2.5228809265,
				"y": -4.9136940102,
				"z": -1.1891128509,
				"element": "H" 
			},
			{
				"x": 2.3525688244,
				"y": -2.6475195863,
				"z": -0.8707127296,
				"element": "H" 
			},
			{
				"x": 0.7761994864,
				"y": -0.7444898774,
				"z": -0.6684031742,
				"element": "H" 
			}
		],
		 "valence_orbital": [ 
			{
				"type": "occ",
				"energy": -0.30745,
				"method": "rhf"
			},
			{
				"type": "occ",
				"energy": -0.29092,
				"method": "rhf"
			},
			{
				"type": "occ",
				"energy": -0.26494,
				"method": "rhf"
			},
			{
				"type": "occ",
				"energy": -0.25999,
				"method": "rhf"
			},
			{
				"type": "occ",
				"energy": -0.23102,
				"method": "rhf"
			},
			{
				"type": "unocc",
				"energy": -0.03266,
				"method": "rhf"
			},
			{
				"type": "unocc",
				"energy": -0.00816,
				"method": "rhf"
			},
			{
				"type": "unocc",
				"energy": 0.06257,
				"method": "rhf"
			},
			{
				"type": "unocc",
				"energy": 0.0695,
				"method": "rhf"
			},
			{
				"type": "unocc",
				"energy": 0.07377,
				"method": "rhf"
			}
		],
		"cosmo_sigma_profile": { 
			"-0.025": 0.0,
			"-0.024": 0.0,
			"-0.023": 0.0,
			"-0.022": 0.0,
			"-0.021": 0.0,
			"-0.02": 0.0,
			"-0.019": 0.0753093997313,
			"-0.018": 0.963274019531,
			"-0.017": 1.18442250942,
			"-0.016": 1.31897262836,
			"-0.015": 0.714542324816,
			"-0.014": 1.0516881141,
			"-0.013": 0.968703945449,
			"-0.012": 0.791318323722,
			"-0.011": 1.29728474405,
			"-0.01": 1.13375873526,
			"-0.009": 0.71144294716,
			"-0.008": 1.36786510023,
			"-0.007": 2.58017249581,
			"-0.006": 4.8363996766,
			"-0.005": 8.41452002845,
			"-0.004": 13.8598627184,
			"-0.003": 22.2213716447,
			"-0.002": 36.512358292,
			"-0.001": 39.716573605,
			"0.0": 42.9238833534,
			"0.001": 38.5967812288,
			"0.002": 25.9313034352,
			"0.003": 18.1497141302,
			"0.004": 16.078097765,
			"0.005": 4.39029769177,
			"0.006": 4.35758627263,
			"0.007": 2.33711478792,
			"0.008": 2.88722949165,
			"0.009": 2.71647308863,
			"0.01": 3.82845505364,
			"0.011": 3.09755574061,
			"0.012": 4.40636911911,
			"0.013": 1.97052157379,
			"0.014": 0.0,
			"0.015": 0.0,
			"0.016": 0.0,
			"0.017": 0.0,
			"0.018": 0.0,
			"0.019": 0.0,
			"0.02": 0.0,
			"0.021": 0.0,
			"0.022": 0.0,
			"0.023": 0.0,
			"0.024": 0.0,
			"0.025": 0.0
		}
	}
}
