{
	 "smiles": "CC12CCC=C1C1CCC3=CC(=O)CCC3(C)C1CC2", 
	 "Tm": 390.15, 
	 "num_atms": 46, 
	 "gaussian": { 
		 "optdone": 1, 
		 "sigma_profile": "yes", 
		 "theory": "DFT", 
		 "functional": "B3LYP", 
		 "basiset": "6-31G**", 
		 "properties": { 
			 "R2extent": 6318.5541, 
			 "electric_dipole_moment_norm": 4.42175624611, 
			 "electric_quadrupole_moment_norm": 21.5203670303, 
			 "total_energy": -814.907851983, 
			 "HOMO_LUMO_gap": 0.18516, 
			 "cosmo_polarized_energy": -9.78, 
			 "cosmo_cavitation_energy": 41.49, 
			 "cosmo_dispersion_energy": -28.83, 
			 "cosmo_repulsion_energy": 2.15, 
			 "cosmo_total_nonelectrostatic_energy": 14.82, 
			 "SMD_solvation_energy": 6.32 
		},
		"coords": [
			{
				"x": 0.2193307429,
				"y": -0.5208967885,
				"z": 4.2543003107,
				"element": "C" 
			},
			{
				"x": 1.3696018362,
				"y": -0.3133719281,
				"z": 3.2390790104,
				"element": "C" 
			},
			{
				"x": 2.6266226727,
				"y": -1.1143570173,
				"z": 3.69075693,
				"element": "C" 
			},
			{
				"x": 2.5019997037,
				"y": -2.5021863671,
				"z": 3.0184731092,
				"element": "C" 
			},
			{
				"x": 1.6488082383,
				"y": -2.192672276,
				"z": 1.8111007714,
				"element": "C" 
			},
			{
				"x": 1.0350285595,
				"y": -1.006999179,
				"z": 1.9103739288,
				"element": "C" 
			},
			{
				"x": 0.1453078796,
				"y": -0.355778369,
				"z": 0.8771252232,
				"element": "C" 
			},
			{
				"x": -1.2961682876,
				"y": -0.9199630838,
				"z": 0.8193621083,
				"element": "C" 
			},
			{
				"x": -2.2456738809,
				"y": 0.0539302861,
				"z": 0.0599393279,
				"element": "C" 
			},
			{
				"x": -1.4686831112,
				"y": 0.9182350921,
				"z": -0.8997499822,
				"element": "C" 
			},
			{
				"x": -1.6466347914,
				"y": 0.8373440286,
				"z": -2.2345124355,
				"element": "C" 
			},
			{
				"x": -0.8672607196,
				"y": 1.6123174744,
				"z": -3.2152852927,
				"element": "C" 
			},
			{
				"x": -1.0731186087,
				"y": 1.5204484266,
				"z": -4.4185397501,
				"element": "O" 
			},
			{
				"x": 0.1995462562,
				"y": 2.5454467828,
				"z": -2.6550760331,
				"element": "C" 
			},
			{
				"x": 0.7047852797,
				"y": 2.1174846411,
				"z": -1.2705866904,
				"element": "C" 
			},
			{
				"x": -0.4382109539,
				"y": 1.8568659874,
				"z": -0.2595791346,
				"element": "C" 
			},
			{
				"x": -1.1397603847,
				"y": 3.1880879257,
				"z": 0.1115322687,
				"element": "C" 
			},
			{
				"x": 0.0881117251,
				"y": 1.1809973319,
				"z": 1.0559391653,
				"element": "C" 
			},
			{
				"x": 1.4284138058,
				"y": 1.7002874449,
				"z": 1.6001115573,
				"element": "C" 
			},
			{
				"x": 1.6367581369,
				"y": 1.2152669633,
				"z": 3.0482257142,
				"element": "C" 
			},
			{
				"x": -0.7126822585,
				"y": -0.0610631789,
				"z": 3.9085791414,
				"element": "H" 
			},
			{
				"x": 0.4726575947,
				"y": -0.0654341774,
				"z": 5.2190431983,
				"element": "H" 
			},
			{
				"x": 0.0247014452,
				"y": -1.5855923833,
				"z": 4.4214308209,
				"element": "H" 
			},
			{
				"x": 2.7217890924,
				"y": -1.1650710542,
				"z": 4.7808456242,
				"element": "H" 
			},
			{
				"x": 3.5244367491,
				"y": -0.6167846857,
				"z": 3.3062623738,
				"element": "H" 
			},
			{
				"x": 3.4769312199,
				"y": -2.929727171,
				"z": 2.7555464617,
				"element": "H" 
			},
			{
				"x": 2.0126789359,
				"y": -3.2361543487,
				"z": 3.6761129064,
				"element": "H" 
			},
			{
				"x": 1.5470833654,
				"y": -2.8745633047,
				"z": 0.9701414707,
				"element": "H" 
			},
			{
				"x": 0.6023036355,
				"y": -0.5505013761,
				"z": -0.1035200082,
				"element": "H" 
			},
			{
				"x": -1.6777508075,
				"y": -1.088357169,
				"z": 1.8319957191,
				"element": "H" 
			},
			{
				"x": -1.2827222699,
				"y": -1.8950096808,
				"z": 0.3216979253,
				"element": "H" 
			},
			{
				"x": -3.0309819096,
				"y": -0.497121074,
				"z": -0.4652256611,
				"element": "H" 
			},
			{
				"x": -2.7502691272,
				"y": 0.7009985716,
				"z": 0.7896066384,
				"element": "H" 
			},
			{
				"x": -2.3915103877,
				"y": 0.1668821165,
				"z": -2.6577443935,
				"element": "H" 
			},
			{
				"x": 1.0146726588,
				"y": 2.6005642467,
				"z": -3.3828959865,
				"element": "H" 
			},
			{
				"x": -0.2400813273,
				"y": 3.5512257031,
				"z": -2.6143126169,
				"element": "H" 
			},
			{
				"x": 1.294337129,
				"y": 1.1989848707,
				"z": -1.3829503396,
				"element": "H" 
			},
			{
				"x": 1.3857191165,
				"y": 2.8783339731,
				"z": -0.8745483459,
				"element": "H" 
			},
			{
				"x": -1.9932157283,
				"y": 3.0120169625,
				"z": 0.77430013,
				"element": "H" 
			},
			{
				"x": -1.5131899506,
				"y": 3.7134460206,
				"z": -0.7712736969,
				"element": "H" 
			},
			{
				"x": -0.4451438103,
				"y": 3.8545101592,
				"z": 0.6344604546,
				"element": "H" 
			},
			{
				"x": -0.6619766246,
				"y": 1.3930515606,
				"z": 1.8331356739,
				"element": "H" 
			},
			{
				"x": 2.2488392047,
				"y": 1.3431728093,
				"z": 0.9645680126,
				"element": "H" 
			},
			{
				"x": 1.4700035715,
				"y": 2.7957361639,
				"z": 1.579664759,
				"element": "H" 
			},
			{
				"x": 2.6546761474,
				"y": 1.46106828,
				"z": 3.3723893987,
				"element": "H" 
			},
			{
				"x": 0.9648902372,
				"y": 1.7874007903,
				"z": 3.7004002329,
				"element": "H" 
			}
		],
		 "valence_orbital": [ 
			{
				"type": "occ",
				"energy": -0.29824,
				"method": "rhf"
			},
			{
				"type": "occ",
				"energy": -0.28833,
				"method": "rhf"
			},
			{
				"type": "occ",
				"energy": -0.25343,
				"method": "rhf"
			},
			{
				"type": "occ",
				"energy": -0.22915,
				"method": "rhf"
			},
			{
				"type": "occ",
				"energy": -0.22787,
				"method": "rhf"
			},
			{
				"type": "unocc",
				"energy": -0.04271,
				"method": "rhf"
			},
			{
				"type": "unocc",
				"energy": 0.01948,
				"method": "rhf"
			},
			{
				"type": "unocc",
				"energy": 0.05931,
				"method": "rhf"
			},
			{
				"type": "unocc",
				"energy": 0.0763,
				"method": "rhf"
			},
			{
				"type": "unocc",
				"energy": 0.08773,
				"method": "rhf"
			}
		],
		"cosmo_sigma_profile": { 
			"-0.025": 0.0,
			"-0.024": 0.0,
			"-0.023": 0.0,
			"-0.022": 0.0,
			"-0.021": 0.0,
			"-0.02": 0.0,
			"-0.019": 0.0,
			"-0.018": 0.0,
			"-0.017": 0.0,
			"-0.016": 0.0,
			"-0.015": 0.0,
			"-0.014": 0.0,
			"-0.013": 0.0,
			"-0.012": 0.0,
			"-0.011": 0.0,
			"-0.01": 0.0,
			"-0.009": 0.0,
			"-0.008": 0.0,
			"-0.007": 0.0,
			"-0.006": 0.704625166354,
			"-0.005": 6.37627584958,
			"-0.004": 18.7676147105,
			"-0.003": 38.5355976596,
			"-0.002": 53.9212336118,
			"-0.001": 55.624343398,
			"0.0": 49.2385485443,
			"0.001": 38.4114554553,
			"0.002": 16.8577132829,
			"0.003": 8.83879231132,
			"0.004": 5.14322388834,
			"0.005": 3.78337256308,
			"0.006": 3.27826492171,
			"0.007": 2.20559974435,
			"0.008": 0.944525230749,
			"0.009": 1.80202571586,
			"0.01": 1.76584400065,
			"0.011": 2.32637327871,
			"0.012": 2.57178489199,
			"0.013": 4.74515236467,
			"0.014": 3.51877145777,
			"0.015": 0.633429350344,
			"0.016": 0.0,
			"0.017": 0.0,
			"0.018": 0.0,
			"0.019": 0.0,
			"0.02": 0.0,
			"0.021": 0.0,
			"0.022": 0.0,
			"0.023": 0.0,
			"0.024": 0.0,
			"0.025": 0.0
		}
	}
}
