{
	 "smiles": "CCOC(=O)C1=CC=CC=C1", 
	 "Tm": 239.15, 
	 "num_atms": 21, 
	 "gaussian": { 
		 "optdone": 1, 
		 "sigma_profile": "yes", 
		 "theory": "DFT", 
		 "functional": "B3LYP", 
		 "basiset": "6-31G**", 
		 "properties": { 
			 "R2extent": 2680.4326, 
			 "electric_dipole_moment_norm": 1.79786492819, 
			 "electric_quadrupole_moment_norm": 9.67833256558, 
			 "total_energy": -499.452680854, 
			 "HOMO_LUMO_gap": 0.2135, 
			 "cosmo_polarized_energy": -6.82, 
			 "cosmo_cavitation_energy": 24.97, 
			 "cosmo_dispersion_energy": -18.33, 
			 "cosmo_repulsion_energy": 1.49, 
			 "cosmo_total_nonelectrostatic_energy": 8.13, 
			 "SMD_solvation_energy": 5.46 
		},
		"coords": [
			{
				"x": -0.5076515629,
				"y": 2.7956289685,
				"z": 0.1215297702,
				"element": "C" 
			},
			{
				"x": -0.2616355668,
				"y": 2.050856798,
				"z": 1.425270353,
				"element": "C" 
			},
			{
				"x": 0.6990803026,
				"y": 0.9835747876,
				"z": 1.2493843457,
				"element": "O" 
			},
			{
				"x": 0.2117099017,
				"y": -0.200569638,
				"z": 0.8111556204,
				"element": "C" 
			},
			{
				"x": -0.9657821424,
				"y": -0.3962007906,
				"z": 0.574019303,
				"element": "O" 
			},
			{
				"x": 1.2783505676,
				"y": -1.2317027205,
				"z": 0.6589088019,
				"element": "C" 
			},
			{
				"x": 2.6259966725,
				"y": -0.9659672046,
				"z": 0.9395192045,
				"element": "C" 
			},
			{
				"x": 3.5797986681,
				"y": -1.9698088232,
				"z": 0.7786200953,
				"element": "C" 
			},
			{
				"x": 3.1950268456,
				"y": -3.2388337487,
				"z": 0.3387261326,
				"element": "C" 
			},
			{
				"x": 1.8521266888,
				"y": -3.5058950868,
				"z": 0.0582209591,
				"element": "C" 
			},
			{
				"x": 0.896113303,
				"y": -2.5058376574,
				"z": 0.2171631936,
				"element": "C" 
			},
			{
				"x": -1.1778308893,
				"y": 3.6434541755,
				"z": 0.2989722008,
				"element": "H" 
			},
			{
				"x": 0.4299503895,
				"y": 3.1793433552,
				"z": -0.2914728185,
				"element": "H" 
			},
			{
				"x": -0.9756666328,
				"y": 2.1365448954,
				"z": -0.6135306867,
				"element": "H" 
			},
			{
				"x": -1.1893100123,
				"y": 1.6280872838,
				"z": 1.8179798837,
				"element": "H" 
			},
			{
				"x": 0.1900897222,
				"y": 2.7006348062,
				"z": 2.1788336118,
				"element": "H" 
			},
			{
				"x": 2.9154273913,
				"y": 0.0214164124,
				"z": 1.2801316079,
				"element": "H" 
			},
			{
				"x": 4.6235595834,
				"y": -1.7629668035,
				"z": 0.9962909737,
				"element": "H" 
			},
			{
				"x": 3.9409837026,
				"y": -4.0188597874,
				"z": 0.214522602,
				"element": "H" 
			},
			{
				"x": 1.552973749,
				"y": -4.4922883022,
				"z": -0.2838522895,
				"element": "H" 
			},
			{
				"x": -0.1523106812,
				"y": -2.6874109198,
				"z": 0.0062071355,
				"element": "H" 
			}
		],
		 "valence_orbital": [ 
			{
				"type": "occ",
				"energy": -0.3363,
				"method": "rhf"
			},
			{
				"type": "occ",
				"energy": -0.29598,
				"method": "rhf"
			},
			{
				"type": "occ",
				"energy": -0.27036,
				"method": "rhf"
			},
			{
				"type": "occ",
				"energy": -0.2578,
				"method": "rhf"
			},
			{
				"type": "occ",
				"energy": -0.25654,
				"method": "rhf"
			},
			{
				"type": "unocc",
				"energy": -0.04304,
				"method": "rhf"
			},
			{
				"type": "unocc",
				"energy": -0.00609,
				"method": "rhf"
			},
			{
				"type": "unocc",
				"energy": 0.06067,
				"method": "rhf"
			},
			{
				"type": "unocc",
				"energy": 0.09276,
				"method": "rhf"
			},
			{
				"type": "unocc",
				"energy": 0.11124,
				"method": "rhf"
			}
		],
		"cosmo_sigma_profile": { 
			"-0.025": 0.0,
			"-0.024": 0.0,
			"-0.023": 0.0,
			"-0.022": 0.0,
			"-0.021": 0.0,
			"-0.02": 0.0,
			"-0.019": 0.0,
			"-0.018": 0.0,
			"-0.017": 0.0,
			"-0.016": 0.0,
			"-0.015": 0.0,
			"-0.014": 0.0,
			"-0.013": 0.0,
			"-0.012": 0.0,
			"-0.011": 0.0,
			"-0.01": 0.0,
			"-0.009": 0.0,
			"-0.008": 0.0,
			"-0.007": 1.01306974789,
			"-0.006": 9.09642623053,
			"-0.005": 15.1428760683,
			"-0.004": 18.9598348563,
			"-0.003": 19.0130302196,
			"-0.002": 18.666532555,
			"-0.001": 16.8546988989,
			"0.0": 18.4557876687,
			"0.001": 16.2807364265,
			"0.002": 13.9618941553,
			"0.003": 13.7067959681,
			"0.004": 16.0965141044,
			"0.005": 6.03811219701,
			"0.006": 2.45491539607,
			"0.007": 1.25530413073,
			"0.008": 1.82071370833,
			"0.009": 1.57501947788,
			"0.01": 1.4185448955,
			"0.011": 2.5023716998,
			"0.012": 4.05080775362,
			"0.013": 0.297812784488,
			"0.014": 0.0,
			"0.015": 0.0,
			"0.016": 0.0,
			"0.017": 0.0,
			"0.018": 0.0,
			"0.019": 0.0,
			"0.02": 0.0,
			"0.021": 0.0,
			"0.022": 0.0,
			"0.023": 0.0,
			"0.024": 0.0,
			"0.025": 0.0
		}
	}
}
