{
	 "smiles": "CC1=NNC(=O)C1=NNC1=CC(F)=CC=C1", 
	 "Tm": 491.15, 
	 "num_atms": 25, 
	 "gaussian": { 
		 "optdone": 1, 
		 "sigma_profile": "yes", 
		 "theory": "DFT", 
		 "functional": "B3LYP", 
		 "basiset": "6-31G**", 
		 "properties": { 
			 "R2extent": 4703.0433, 
			 "electric_dipole_moment_norm": 4.93466335529, 
			 "electric_quadrupole_moment_norm": 19.3997579544, 
			 "total_energy": -780.47778835, 
			 "HOMO_LUMO_gap": 0.12996, 
			 "cosmo_polarized_energy": -18.36, 
			 "cosmo_cavitation_energy": 30.38, 
			 "cosmo_dispersion_energy": -21.42, 
			 "cosmo_repulsion_energy": 1.66, 
			 "cosmo_total_nonelectrostatic_energy": 10.62, 
			 "SMD_solvation_energy": 4.99 
		},
		"coords": [
			{
				"x": -2.4176630021,
				"y": 1.1412068563,
				"z": 0.4926828881,
				"element": "C" 
			},
			{
				"x": -1.8072267026,
				"y": 2.4984128099,
				"z": 0.3188405733,
				"element": "C" 
			},
			{
				"x": -2.4524661667,
				"y": 3.4020677364,
				"z": -0.3657817178,
				"element": "N" 
			},
			{
				"x": -1.7511360288,
				"y": 4.586968952,
				"z": -0.3077463699,
				"element": "N" 
			},
			{
				"x": -0.6769668622,
				"y": 4.5626808733,
				"z": 0.565048166,
				"element": "C" 
			},
			{
				"x": 0.044470643,
				"y": 5.4938931092,
				"z": 0.8690489609,
				"element": "O" 
			},
			{
				"x": -0.6327619152,
				"y": 3.1064242294,
				"z": 0.9723256464,
				"element": "C" 
			},
			{
				"x": 0.282637384,
				"y": 2.7567011616,
				"z": 1.8219708643,
				"element": "N" 
			},
			{
				"x": 0.4969707418,
				"y": 1.4867061597,
				"z": 2.2070383562,
				"element": "N" 
			},
			{
				"x": 0.5500460921,
				"y": 0.3198439288,
				"z": 1.3889042598,
				"element": "C" 
			},
			{
				"x": 0.7986012177,
				"y": 0.3933492481,
				"z": 0.0126741558,
				"element": "C" 
			},
			{
				"x": 0.9181735555,
				"y": -0.7941435694,
				"z": -0.6974727105,
				"element": "C" 
			},
			{
				"x": 1.1580935905,
				"y": -0.7254620128,
				"z": -2.0209339411,
				"element": "F" 
			},
			{
				"x": 0.8181662723,
				"y": -2.0455461856,
				"z": -0.0965992728,
				"element": "C" 
			},
			{
				"x": 0.5889285314,
				"y": -2.0957617959,
				"z": 1.2785987757,
				"element": "C" 
			},
			{
				"x": 0.4488767757,
				"y": -0.9249673637,
				"z": 2.0232705249,
				"element": "C" 
			},
			{
				"x": -1.8656364418,
				"y": 0.3627102077,
				"z": -0.0401484008,
				"element": "H" 
			},
			{
				"x": -3.4394311013,
				"y": 1.1702848079,
				"z": 0.107750686,
				"element": "H" 
			},
			{
				"x": -2.446504318,
				"y": 0.8550727881,
				"z": 1.5492075629,
				"element": "H" 
			},
			{
				"x": -2.1738955736,
				"y": 5.4192447662,
				"z": -0.6884555388,
				"element": "H" 
			},
			{
				"x": 1.1801040219,
				"y": 1.4733259885,
				"z": 2.9547634901,
				"element": "H" 
			},
			{
				"x": 0.9059198319,
				"y": 1.3405114506,
				"z": -0.5014282686,
				"element": "H" 
			},
			{
				"x": 0.9184972637,
				"y": -2.9415237396,
				"z": -0.698246021,
				"element": "H" 
			},
			{
				"x": 0.5062078116,
				"y": -3.0583916228,
				"z": 1.7734906681,
				"element": "H" 
			},
			{
				"x": 0.2522943792,
				"y": -0.9672087838,
				"z": 3.0899966626,
				"element": "H" 
			}
		],
		 "valence_orbital": [ 
			{
				"type": "occ",
				"energy": -0.29013,
				"method": "rhf"
			},
			{
				"type": "occ",
				"energy": -0.26794,
				"method": "rhf"
			},
			{
				"type": "occ",
				"energy": -0.25091,
				"method": "rhf"
			},
			{
				"type": "occ",
				"energy": -0.24365,
				"method": "rhf"
			},
			{
				"type": "occ",
				"energy": -0.21693,
				"method": "rhf"
			},
			{
				"type": "unocc",
				"energy": -0.08697,
				"method": "rhf"
			},
			{
				"type": "unocc",
				"energy": -0.02398,
				"method": "rhf"
			},
			{
				"type": "unocc",
				"energy": -0.01842,
				"method": "rhf"
			},
			{
				"type": "unocc",
				"energy": 0.03856,
				"method": "rhf"
			},
			{
				"type": "unocc",
				"energy": 0.0727,
				"method": "rhf"
			}
		],
		"cosmo_sigma_profile": { 
			"-0.025": 0.0,
			"-0.024": 0.0,
			"-0.023": 0.0,
			"-0.022": 0.0,
			"-0.021": 0.0,
			"-0.02": 0.0,
			"-0.019": 0.0,
			"-0.018": 0.0,
			"-0.017": 0.0,
			"-0.016": 1.7373961371,
			"-0.015": 2.19900175625,
			"-0.014": 2.43374716053,
			"-0.013": 2.64527690463,
			"-0.012": 1.93021428259,
			"-0.011": 1.63311292179,
			"-0.01": 1.72917182856,
			"-0.009": 2.00751617229,
			"-0.008": 3.25374048073,
			"-0.007": 9.20373584065,
			"-0.006": 10.1805332055,
			"-0.005": 11.8128591982,
			"-0.004": 12.247474847,
			"-0.003": 15.9176101659,
			"-0.002": 19.0724247802,
			"-0.001": 20.6623788265,
			"0.0": 20.1579341553,
			"0.001": 15.9782249359,
			"0.002": 16.4933181316,
			"0.003": 16.2807306048,
			"0.004": 14.792215415,
			"0.005": 4.48696430954,
			"0.006": 3.09678916064,
			"0.007": 3.26679888506,
			"0.008": 2.73794494136,
			"0.009": 3.31163999974,
			"0.01": 2.81129223759,
			"0.011": 3.61788605839,
			"0.012": 5.08280788205,
			"0.013": 7.47974506735,
			"0.014": 3.75584628655,
			"0.015": 1.12201224561,
			"0.016": 0.000963585092303,
			"0.017": 0.0,
			"0.018": 0.0,
			"0.019": 0.0,
			"0.02": 0.0,
			"0.021": 0.0,
			"0.022": 0.0,
			"0.023": 0.0,
			"0.024": 0.0,
			"0.025": 0.0
		}
	}
}
