{
	 "smiles": "CC1=CC(=CC(C)=C1)C(=O)CC#N", 
	 "Tm": 414.15, 
	 "num_atms": 24, 
	 "gaussian": { 
		 "optdone": 1, 
		 "sigma_profile": "yes", 
		 "theory": "DFT", 
		 "functional": "B3LYP", 
		 "basiset": "6-31G**", 
		 "properties": { 
			 "R2extent": 3231.7398, 
			 "electric_dipole_moment_norm": 4.20364702253, 
			 "electric_quadrupole_moment_norm": 17.2628288105, 
			 "total_energy": -555.76888471, 
			 "HOMO_LUMO_gap": 0.1819, 
			 "cosmo_polarized_energy": -12.35, 
			 "cosmo_cavitation_energy": 29.04, 
			 "cosmo_dispersion_energy": -19.93, 
			 "cosmo_repulsion_energy": 1.6, 
			 "cosmo_total_nonelectrostatic_energy": 10.7, 
			 "SMD_solvation_energy": 6.97 
		},
		"coords": [
			{
				"x": 1.6439758547,
				"y": -2.0368212332,
				"z": 2.5004248122,
				"element": "C" 
			},
			{
				"x": 1.4242691972,
				"y": -1.1473216131,
				"z": 1.2991521783,
				"element": "C" 
			},
			{
				"x": 0.7655499105,
				"y": 0.0745510467,
				"z": 1.4137655081,
				"element": "C" 
			},
			{
				"x": 0.5666349558,
				"y": 0.8944099056,
				"z": 0.2900145327,
				"element": "C" 
			},
			{
				"x": 1.0353396314,
				"y": 0.4779197347,
				"z": -0.962809087,
				"element": "C" 
			},
			{
				"x": 1.7044349544,
				"y": -0.7436812115,
				"z": -1.1055358775,
				"element": "C" 
			},
			{
				"x": 2.2427960335,
				"y": -1.1756888627,
				"z": -2.4495675037,
				"element": "C" 
			},
			{
				"x": 1.8836887866,
				"y": -1.5385372311,
				"z": 0.0308924381,
				"element": "C" 
			},
			{
				"x": -0.1623517116,
				"y": 2.1759443309,
				"z": 0.4946620014,
				"element": "C" 
			},
			{
				"x": -0.6072750889,
				"y": 2.5102556867,
				"z": 1.5777038927,
				"element": "O" 
			},
			{
				"x": -0.4123467934,
				"y": 3.1153013097,
				"z": -0.7160352206,
				"element": "C" 
			},
			{
				"x": 0.8069593059,
				"y": 3.6689198465,
				"z": -1.3032703643,
				"element": "C" 
			},
			{
				"x": 1.7793584126,
				"y": 4.1063392828,
				"z": -1.7625495577,
				"element": "N" 
			},
			{
				"x": 2.7125965649,
				"y": -2.1826364458,
				"z": 2.6956305607,
				"element": "H" 
			},
			{
				"x": 1.2065346502,
				"y": -3.0295813527,
				"z": 2.3458278,
				"element": "H" 
			},
			{
				"x": 1.1953080801,
				"y": -1.6082392526,
				"z": 3.4000610994,
				"element": "H" 
			},
			{
				"x": 0.3886435947,
				"y": 0.4171826922,
				"z": 2.3719435571,
				"element": "H" 
			},
			{
				"x": 0.8979822994,
				"y": 1.1006542158,
				"z": -1.8411362264,
				"element": "H" 
			},
			{
				"x": 2.3216815863,
				"y": -2.2644467317,
				"z": -2.517981451,
				"element": "H" 
			},
			{
				"x": 1.6039869436,
				"y": -0.8292703541,
				"z": -3.267470071,
				"element": "H" 
			},
			{
				"x": 3.2437273109,
				"y": -0.7621156963,
				"z": -2.6229519676,
				"element": "H" 
			},
			{
				"x": 2.3970069244,
				"y": -2.4929468523,
				"z": -0.071731371,
				"element": "H" 
			},
			{
				"x": -1.0405992686,
				"y": 3.930171843,
				"z": -0.3476653107,
				"element": "H" 
			},
			{
				"x": -0.9689021346,
				"y": 2.5789369424,
				"z": -1.4940743721,
				"element": "H" 
			}
		],
		 "valence_orbital": [ 
			{
				"type": "occ",
				"energy": -0.33884,
				"method": "rhf"
			},
			{
				"type": "occ",
				"energy": -0.32877,
				"method": "rhf"
			},
			{
				"type": "occ",
				"energy": -0.26694,
				"method": "rhf"
			},
			{
				"type": "occ",
				"energy": -0.26161,
				"method": "rhf"
			},
			{
				"type": "occ",
				"energy": -0.253,
				"method": "rhf"
			},
			{
				"type": "unocc",
				"energy": -0.0711,
				"method": "rhf"
			},
			{
				"type": "unocc",
				"energy": -0.01278,
				"method": "rhf"
			},
			{
				"type": "unocc",
				"energy": 0.01757,
				"method": "rhf"
			},
			{
				"type": "unocc",
				"energy": 0.03166,
				"method": "rhf"
			},
			{
				"type": "unocc",
				"energy": 0.04148,
				"method": "rhf"
			}
		],
		"cosmo_sigma_profile": { 
			"-0.025": 0.0,
			"-0.024": 0.0,
			"-0.023": 0.0,
			"-0.022": 0.0,
			"-0.021": 0.0,
			"-0.02": 0.0,
			"-0.019": 0.0,
			"-0.018": 0.0,
			"-0.017": 0.0,
			"-0.016": 0.0,
			"-0.015": 0.0,
			"-0.014": 0.0,
			"-0.013": 0.0,
			"-0.012": 0.0,
			"-0.011": 0.322972605187,
			"-0.01": 3.85464349759,
			"-0.009": 5.11332228988,
			"-0.008": 4.0277180602,
			"-0.007": 5.21002262241,
			"-0.006": 7.52987997525,
			"-0.005": 13.4529208262,
			"-0.004": 20.4083326062,
			"-0.003": 18.4653384768,
			"-0.002": 20.9080242123,
			"-0.001": 22.3059680156,
			"0.0": 19.6367377988,
			"0.001": 13.952796904,
			"0.002": 12.7169872296,
			"0.003": 13.6975939024,
			"0.004": 11.2743002533,
			"0.005": 4.22664059238,
			"0.006": 3.48511899656,
			"0.007": 3.30835908774,
			"0.008": 5.5071403158,
			"0.009": 5.2632661821,
			"0.01": 6.23813679067,
			"0.011": 6.17169897725,
			"0.012": 3.10607037139,
			"0.013": 1.38136674648,
			"0.014": 0.00910325693691,
			"0.015": 0.0,
			"0.016": 0.0,
			"0.017": 0.0,
			"0.018": 0.0,
			"0.019": 0.0,
			"0.02": 0.0,
			"0.021": 0.0,
			"0.022": 0.0,
			"0.023": 0.0,
			"0.024": 0.0,
			"0.025": 0.0
		}
	}
}
