{
	 "smiles": "CCCCCC(C=O)=CC1=CC=CC=C1", 
	 "Tm": 353.15, 
	 "num_atms": 33, 
	 "gaussian": { 
		 "optdone": 1, 
		 "sigma_profile": "yes", 
		 "theory": "DFT", 
		 "functional": "B3LYP", 
		 "basiset": "6-31G**", 
		 "properties": { 
			 "R2extent": 6045.3749, 
			 "electric_dipole_moment_norm": 3.44590397138, 
			 "electric_quadrupole_moment_norm": 14.7115208085, 
			 "total_energy": -619.554606793, 
			 "HOMO_LUMO_gap": 0.16463, 
			 "cosmo_polarized_energy": -8.15, 
			 "cosmo_cavitation_energy": 35.64, 
			 "cosmo_dispersion_energy": -24.69, 
			 "cosmo_repulsion_energy": 1.98, 
			 "cosmo_total_nonelectrostatic_energy": 12.92, 
			 "SMD_solvation_energy": 6.48 
		},
		"coords": [
			{
				"x": 0.271147322,
				"y": 1.8520149595,
				"z": -3.6415769359,
				"element": "C" 
			},
			{
				"x": -0.6016923475,
				"y": 1.9947022,
				"z": -2.3887726255,
				"element": "C" 
			},
			{
				"x": -0.3337751324,
				"y": 0.9424835742,
				"z": -1.2991861956,
				"element": "C" 
			},
			{
				"x": 1.0563956563,
				"y": 1.03722568,
				"z": -0.65783252,
				"element": "C" 
			},
			{
				"x": 1.303669539,
				"y": 0.0092089333,
				"z": 0.471536094,
				"element": "C" 
			},
			{
				"x": 0.4498173816,
				"y": 0.2288297419,
				"z": 1.7011510935,
				"element": "C" 
			},
			{
				"x": 0.8782758897,
				"y": 1.3179151341,
				"z": 2.6079435852,
				"element": "C" 
			},
			{
				"x": 1.7614122615,
				"y": 2.1158216711,
				"z": 2.3335137365,
				"element": "O" 
			},
			{
				"x": -0.5970043536,
				"y": -0.5812078067,
				"z": 2.0004593561,
				"element": "C" 
			},
			{
				"x": -1.5909842003,
				"y": -0.4663990397,
				"z": 3.0792068857,
				"element": "C" 
			},
			{
				"x": -2.126987645,
				"y": 0.7645194018,
				"z": 3.5034841713,
				"element": "C" 
			},
			{
				"x": -3.0747587752,
				"y": 0.8156801512,
				"z": 4.5246238115,
				"element": "C" 
			},
			{
				"x": -3.5160616322,
				"y": -0.3595513679,
				"z": 5.1353216767,
				"element": "C" 
			},
			{
				"x": -3.0157729324,
				"y": -1.5917104602,
				"z": 4.706009594,
				"element": "C" 
			},
			{
				"x": -2.074240419,
				"y": -1.6441843512,
				"z": 3.6818761265,
				"element": "C" 
			},
			{
				"x": 1.3337271229,
				"y": 1.992134304,
				"z": -3.4186659118,
				"element": "H" 
			},
			{
				"x": 0.1552300432,
				"y": 0.8588917521,
				"z": -4.0917680379,
				"element": "H" 
			},
			{
				"x": -0.0039754385,
				"y": 2.5930987868,
				"z": -4.3993965885,
				"element": "H" 
			},
			{
				"x": -0.4650608764,
				"y": 2.997273411,
				"z": -1.9608525333,
				"element": "H" 
			},
			{
				"x": -1.6573577523,
				"y": 1.9325356146,
				"z": -2.6829448863,
				"element": "H" 
			},
			{
				"x": -0.4695445601,
				"y": -0.0622250808,
				"z": -1.7272750467,
				"element": "H" 
			},
			{
				"x": -1.0978335722,
				"y": 1.0439127077,
				"z": -0.518157829,
				"element": "H" 
			},
			{
				"x": 1.8288859867,
				"y": 0.8806974526,
				"z": -1.4203578813,
				"element": "H" 
			},
			{
				"x": 1.2178986716,
				"y": 2.0434214008,
				"z": -0.2551048842,
				"element": "H" 
			},
			{
				"x": 2.357690858,
				"y": 0.0728742912,
				"z": 0.7631498805,
				"element": "H" 
			},
			{
				"x": 1.1295493748,
				"y": -1.0029028179,
				"z": 0.0855994842,
				"element": "H" 
			},
			{
				"x": 0.3891572289,
				"y": 1.3438070704,
				"z": 3.6006921123,
				"element": "H" 
			},
			{
				"x": -0.7335112906,
				"y": -1.454313339,
				"z": 1.360609923,
				"element": "H" 
			},
			{
				"x": -1.8276286707,
				"y": 1.6794303042,
				"z": 3.0026758494,
				"element": "H" 
			},
			{
				"x": -3.4792332824,
				"y": 1.7751439343,
				"z": 4.8335750429,
				"element": "H" 
			},
			{
				"x": -4.2572240769,
				"y": -0.3176617794,
				"z": 5.9280028454,
				"element": "H" 
			},
			{
				"x": -3.3645443898,
				"y": -2.5117085037,
				"z": 5.166086944,
				"element": "H" 
			},
			{
				"x": -1.6905659884,
				"y": -2.6050579303,
				"z": 3.3487736634,
				"element": "H" 
			}
		],
		 "valence_orbital": [ 
			{
				"type": "occ",
				"energy": -0.31064,
				"method": "rhf"
			},
			{
				"type": "occ",
				"energy": -0.29141,
				"method": "rhf"
			},
			{
				"type": "occ",
				"energy": -0.26367,
				"method": "rhf"
			},
			{
				"type": "occ",
				"energy": -0.24836,
				"method": "rhf"
			},
			{
				"type": "occ",
				"energy": -0.23343,
				"method": "rhf"
			},
			{
				"type": "unocc",
				"energy": -0.0688,
				"method": "rhf"
			},
			{
				"type": "unocc",
				"energy": -0.01343,
				"method": "rhf"
			},
			{
				"type": "unocc",
				"energy": -0.00363,
				"method": "rhf"
			},
			{
				"type": "unocc",
				"energy": 0.06447,
				"method": "rhf"
			},
			{
				"type": "unocc",
				"energy": 0.08578,
				"method": "rhf"
			}
		],
		"cosmo_sigma_profile": { 
			"-0.025": 0.0,
			"-0.024": 0.0,
			"-0.023": 0.0,
			"-0.022": 0.0,
			"-0.021": 0.0,
			"-0.02": 0.0,
			"-0.019": 0.0,
			"-0.018": 0.0,
			"-0.017": 0.0,
			"-0.016": 0.0,
			"-0.015": 0.0,
			"-0.014": 0.0,
			"-0.013": 0.0,
			"-0.012": 0.0,
			"-0.011": 0.0,
			"-0.01": 0.0,
			"-0.009": 0.0,
			"-0.008": 0.0,
			"-0.007": 1.49426236706,
			"-0.006": 12.8815181189,
			"-0.005": 16.1147801511,
			"-0.004": 16.6388082374,
			"-0.003": 18.2609279903,
			"-0.002": 29.1718785036,
			"-0.001": 37.4881972817,
			"0.0": 41.8390838788,
			"0.001": 36.040108534,
			"0.002": 20.4480793171,
			"0.003": 10.749697879,
			"0.004": 11.1067602678,
			"0.005": 9.71958135437,
			"0.006": 1.42123054206,
			"0.007": 1.71658320153,
			"0.008": 1.99983143974,
			"0.009": 1.72841161435,
			"0.01": 2.45551885796,
			"0.011": 2.47726793726,
			"0.012": 4.2412526347,
			"0.013": 1.75735350899,
			"0.014": 0.382064643158,
			"0.015": 0.0,
			"0.016": 0.0,
			"0.017": 0.0,
			"0.018": 0.0,
			"0.019": 0.0,
			"0.02": 0.0,
			"0.021": 0.0,
			"0.022": 0.0,
			"0.023": 0.0,
			"0.024": 0.0,
			"0.025": 0.0
		}
	}
}
