{
	 "smiles": "[O-][N+](=O)C1=CC=CN=C1OC1=CC(Cl)=CN=C1", 
	 "Tm": 377.15, 
	 "num_atms": 23, 
	 "gaussian": { 
		 "optdone": 1, 
		 "sigma_profile": "yes", 
		 "theory": "DFT", 
		 "functional": "B3LYP", 
		 "basiset": "6-31G**", 
		 "properties": { 
			 "R2extent": 5958.1684, 
			 "electric_dipole_moment_norm": 4.30323842124, 
			 "electric_quadrupole_moment_norm": 16.9140357402, 
			 "total_energy": -1234.66543116, 
			 "HOMO_LUMO_gap": 0.15913, 
			 "cosmo_polarized_energy": -13.44, 
			 "cosmo_cavitation_energy": 31.67, 
			 "cosmo_dispersion_energy": -22.85, 
			 "cosmo_repulsion_energy": 1.78, 
			 "cosmo_total_nonelectrostatic_energy": 10.6, 
			 "SMD_solvation_energy": 5.48 
		},
		"coords": [
			{
				"x": -3.4771923453,
				"y": 3.2294905224,
				"z": 0.7476803505,
				"element": "O" 
			},
			{
				"x": -2.7402850065,
				"y": 2.5194842649,
				"z": 0.0596471996,
				"element": "N" 
			},
			{
				"x": -2.8211389076,
				"y": 2.3952673691,
				"z": -1.1575510231,
				"element": "O" 
			},
			{
				"x": -1.6785802661,
				"y": 1.7914693374,
				"z": 0.768897783,
				"element": "C" 
			},
			{
				"x": -1.3772802601,
				"y": 2.1913863838,
				"z": 2.0680346965,
				"element": "C" 
			},
			{
				"x": -0.3594484752,
				"y": 1.5467060018,
				"z": 2.7631689344,
				"element": "C" 
			},
			{
				"x": 0.3103921137,
				"y": 0.5106256602,
				"z": 2.1151221606,
				"element": "C" 
			},
			{
				"x": 0.0174092399,
				"y": 0.104313917,
				"z": 0.8758440713,
				"element": "N" 
			},
			{
				"x": -0.9479864928,
				"y": 0.7192817926,
				"z": 0.2049295506,
				"element": "C" 
			},
			{
				"x": -1.2659623313,
				"y": 0.2749931811,
				"z": -1.0316990422,
				"element": "O" 
			},
			{
				"x": -0.5085750315,
				"y": -0.7290447836,
				"z": -1.6245405695,
				"element": "C" 
			},
			{
				"x": -1.1271181694,
				"y": -1.9430081492,
				"z": -1.8956644471,
				"element": "C" 
			},
			{
				"x": -0.3802446263,
				"y": -2.8939346636,
				"z": -2.5877483398,
				"element": "C" 
			},
			{
				"x": -1.080887297,
				"y": -4.4511026949,
				"z": -2.9744358729,
				"element": "Cl" 
			},
			{
				"x": 0.9294081937,
				"y": -2.6017371092,
				"z": -2.9732912527,
				"element": "C" 
			},
			{
				"x": 1.5046367132,
				"y": -1.4245818153,
				"z": -2.7074717454,
				"element": "N" 
			},
			{
				"x": 0.8016883815,
				"y": -0.5019206452,
				"z": -2.0492731959,
				"element": "C" 
			},
			{
				"x": -1.9506078191,
				"y": 3.00280817,
				"z": 2.4994577757,
				"element": "H" 
			},
			{
				"x": -0.093587628,
				"y": 1.8388280614,
				"z": 3.772429688,
				"element": "H" 
			},
			{
				"x": 1.1175047722,
				"y": -0.0260080908,
				"z": 2.6089678758,
				"element": "H" 
			},
			{
				"x": -2.1481209666,
				"y": -2.128931171,
				"z": -1.5839079702,
				"element": "H" 
			},
			{
				"x": 1.5204158569,
				"y": -3.33632298,
				"z": -3.513539849,
				"element": "H" 
			},
			{
				"x": 1.2862603517,
				"y": 0.4500374411,
				"z": -1.849856778,
				"element": "H" 
			}
		],
		 "valence_orbital": [ 
			{
				"type": "occ",
				"energy": -0.29636,
				"method": "rhf"
			},
			{
				"type": "occ",
				"energy": -0.29188,
				"method": "rhf"
			},
			{
				"type": "occ",
				"energy": -0.28366,
				"method": "rhf"
			},
			{
				"type": "occ",
				"energy": -0.27027,
				"method": "rhf"
			},
			{
				"type": "occ",
				"energy": -0.2588,
				"method": "rhf"
			},
			{
				"type": "unocc",
				"energy": -0.09967,
				"method": "rhf"
			},
			{
				"type": "unocc",
				"energy": -0.04949,
				"method": "rhf"
			},
			{
				"type": "unocc",
				"energy": -0.04406,
				"method": "rhf"
			},
			{
				"type": "unocc",
				"energy": -0.02777,
				"method": "rhf"
			},
			{
				"type": "unocc",
				"energy": -0.01906,
				"method": "rhf"
			}
		],
		"cosmo_sigma_profile": { 
			"-0.025": 0.0,
			"-0.024": 0.0,
			"-0.023": 0.0,
			"-0.022": 0.0,
			"-0.021": 0.0,
			"-0.02": 0.0,
			"-0.019": 0.0,
			"-0.018": 0.0,
			"-0.017": 0.0,
			"-0.016": 0.0,
			"-0.015": 0.0,
			"-0.014": 0.0,
			"-0.013": 0.0,
			"-0.012": 0.0,
			"-0.011": 0.0,
			"-0.01": 0.676489899869,
			"-0.009": 3.64486596049,
			"-0.008": 11.367870178,
			"-0.007": 14.4094945859,
			"-0.006": 10.9793120546,
			"-0.005": 12.7978780083,
			"-0.004": 15.2486709714,
			"-0.003": 15.3684512212,
			"-0.002": 19.3020366037,
			"-0.001": 27.473482833,
			"0.0": 22.2050494208,
			"0.001": 14.7023764748,
			"0.002": 12.5275318422,
			"0.003": 14.1257696304,
			"0.004": 13.6921108795,
			"0.005": 5.67110724294,
			"0.006": 6.41204176938,
			"0.007": 10.7968449269,
			"0.008": 10.2930676298,
			"0.009": 7.79718474829,
			"0.01": 4.61625212194,
			"0.011": 1.26501434848,
			"0.012": 1.04557115493,
			"0.013": 1.06496181078,
			"0.014": 0.64504469764,
			"0.015": 0.601745515353,
			"0.016": 0.00850722823262,
			"0.017": 0.0,
			"0.018": 0.0,
			"0.019": 0.0,
			"0.02": 0.0,
			"0.021": 0.0,
			"0.022": 0.0,
			"0.023": 0.0,
			"0.024": 0.0,
			"0.025": 0.0
		}
	}
}
