{
	 "smiles": "OC(=O)C1=CC=CC=C1N1C=CC=C1", 
	 "Tm": 377.15, 
	 "num_atms": 23, 
	 "gaussian": { 
		 "optdone": 1, 
		 "sigma_profile": "yes", 
		 "theory": "DFT", 
		 "functional": "B3LYP", 
		 "basiset": "6-31G**", 
		 "properties": { 
			 "R2extent": 2715.1941, 
			 "electric_dipole_moment_norm": 2.90357973715, 
			 "electric_quadrupole_moment_norm": 8.62281623369, 
			 "total_energy": -629.785984483, 
			 "HOMO_LUMO_gap": 0.15022, 
			 "cosmo_polarized_energy": -12.83, 
			 "cosmo_cavitation_energy": 27.39, 
			 "cosmo_dispersion_energy": -19.83, 
			 "cosmo_repulsion_energy": 1.55, 
			 "cosmo_total_nonelectrostatic_energy": 9.11, 
			 "SMD_solvation_energy": 6.53 
		},
		"coords": [
			{
				"x": 1.3957661131,
				"y": -0.9797214903,
				"z": 2.5443828756,
				"element": "O" 
			},
			{
				"x": 0.5076407871,
				"y": -0.9710668461,
				"z": 1.5122446478,
				"element": "C" 
			},
			{
				"x": 0.3621150316,
				"y": -1.9351072316,
				"z": 0.7925064382,
				"element": "O" 
			},
			{
				"x": -0.2530243829,
				"y": 0.312142473,
				"z": 1.4410863521,
				"element": "C" 
			},
			{
				"x": -0.4069098243,
				"y": 1.0619440075,
				"z": 2.6200139714,
				"element": "C" 
			},
			{
				"x": -1.2347400534,
				"y": 2.1785325578,
				"z": 2.6679625795,
				"element": "C" 
			},
			{
				"x": -1.918547611,
				"y": 2.5739471874,
				"z": 1.5174263243,
				"element": "C" 
			},
			{
				"x": -1.7481329376,
				"y": 1.8698289844,
				"z": 0.3289977341,
				"element": "C" 
			},
			{
				"x": -0.9197738206,
				"y": 0.7404456383,
				"z": 0.2694940517,
				"element": "C" 
			},
			{
				"x": -0.767053406,
				"y": 0.1038201892,
				"z": -0.9853818534,
				"element": "N" 
			},
			{
				"x": 0.4272474769,
				"y": -0.1969431983,
				"z": -1.6181445227,
				"element": "C" 
			},
			{
				"x": 0.1424478603,
				"y": -0.688340612,
				"z": -2.8674050507,
				"element": "C" 
			},
			{
				"x": -1.2783064045,
				"y": -0.6964232489,
				"z": -3.0113438815,
				"element": "C" 
			},
			{
				"x": -1.8113789732,
				"y": -0.1961018405,
				"z": -1.8493945473,
				"element": "C" 
			},
			{
				"x": 1.7844359264,
				"y": -1.8701234136,
				"z": 2.53945281,
				"element": "H" 
			},
			{
				"x": 0.11624538,
				"y": 0.7339084411,
				"z": 3.5102090197,
				"element": "H" 
			},
			{
				"x": -1.3472051849,
				"y": 2.7323247721,
				"z": 3.5946079812,
				"element": "H" 
			},
			{
				"x": -2.5663801934,
				"y": 3.445437739,
				"z": 1.5356252037,
				"element": "H" 
			},
			{
				"x": -2.2310464317,
				"y": 2.2039347985,
				"z": -0.5829546133,
				"element": "H" 
			},
			{
				"x": 1.370308559,
				"y": -0.0128952267,
				"z": -1.1280552603,
				"element": "H" 
			},
			{
				"x": 0.8712112188,
				"y": -1.0060958815,
				"z": -3.599786338,
				"element": "H" 
			},
			{
				"x": -1.8426347268,
				"y": -1.0428394953,
				"z": -3.8658075363,
				"element": "H" 
			},
			{
				"x": -2.8350844027,
				"y": -0.0652083036,
				"z": -1.5332363857,
				"element": "H" 
			}
		],
		 "valence_orbital": [ 
			{
				"type": "occ",
				"energy": -0.28253,
				"method": "rhf"
			},
			{
				"type": "occ",
				"energy": -0.27432,
				"method": "rhf"
			},
			{
				"type": "occ",
				"energy": -0.26833,
				"method": "rhf"
			},
			{
				"type": "occ",
				"energy": -0.2227,
				"method": "rhf"
			},
			{
				"type": "occ",
				"energy": -0.20355,
				"method": "rhf"
			},
			{
				"type": "unocc",
				"energy": -0.05333,
				"method": "rhf"
			},
			{
				"type": "unocc",
				"energy": -0.02057,
				"method": "rhf"
			},
			{
				"type": "unocc",
				"energy": 0.04378,
				"method": "rhf"
			},
			{
				"type": "unocc",
				"energy": 0.04775,
				"method": "rhf"
			},
			{
				"type": "unocc",
				"energy": 0.07516,
				"method": "rhf"
			}
		],
		"cosmo_sigma_profile": { 
			"-0.025": 0.0,
			"-0.024": 0.0,
			"-0.023": 0.0,
			"-0.022": 0.0,
			"-0.021": 0.0,
			"-0.02": 0.0,
			"-0.019": 0.00050393214155,
			"-0.018": 0.522679353491,
			"-0.017": 1.21209925486,
			"-0.016": 0.744458902434,
			"-0.015": 0.446957570602,
			"-0.014": 1.01757825499,
			"-0.013": 0.488041541082,
			"-0.012": 0.865078604338,
			"-0.011": 0.879478372202,
			"-0.01": 0.718713132308,
			"-0.009": 0.502878866358,
			"-0.008": 1.80314616929,
			"-0.007": 8.55003631955,
			"-0.006": 14.027735106,
			"-0.005": 17.4577069657,
			"-0.004": 12.1934195382,
			"-0.003": 14.1073560993,
			"-0.002": 15.4617562335,
			"-0.001": 14.0493109871,
			"0.0": 13.8116658001,
			"0.001": 15.8449960958,
			"0.002": 17.4512903743,
			"0.003": 16.9408227514,
			"0.004": 8.409543347,
			"0.005": 6.32123751603,
			"0.006": 6.59137807242,
			"0.007": 6.81318814334,
			"0.008": 6.33828388101,
			"0.009": 3.30335252652,
			"0.01": 3.09368319408,
			"0.011": 3.47568850136,
			"0.012": 4.94357341296,
			"0.013": 1.47022657722,
			"0.014": 0.0,
			"0.015": 0.0,
			"0.016": 0.0,
			"0.017": 0.0,
			"0.018": 0.0,
			"0.019": 0.0,
			"0.02": 0.0,
			"0.021": 0.0,
			"0.022": 0.0,
			"0.023": 0.0,
			"0.024": 0.0,
			"0.025": 0.0
		}
	}
}
