{
	 "smiles": "ClC1=CC(Cl)=C(I)C=C1Cl", 
	 "Tm": 376.65, 
	 "num_atms": 12, 
	 "gaussian": { 
		 "optdone": 1, 
		 "sigma_profile": "no", 
		 "theory": "DFT", 
		 "functional": "B3LYP", 
		 "basiset": "6-31G**", 
		 "properties": { 
			 "R2extent": 3179.5516, 
			 "electric_dipole_moment_norm": 0.362681140949, 
			 "electric_quadrupole_moment_norm": 4.90335334746, 
			 "total_energy": -1621.79453779, 
			 "HOMO_LUMO_gap": 0.18963, 
			 "cosmo_polarized_energy": -90107.38, 
			 "cosmo_cavitation_energy": 25.03, 
			 "cosmo_dispersion_energy": -20.29, 
			 "cosmo_repulsion_energy": 1.61, 
			 "cosmo_total_nonelectrostatic_energy": 6.36, 
			 "SMD_solvation_energy": 2.66 
		},
		"coords": [
			{
				"x": 3.5883444754,
				"y": 0.8160194484,
				"z": -1.6164918234,
				"element": "Cl" 
			},
			{
				"x": 2.1324216712,
				"y": 0.1874642435,
				"z": -0.8976470079,
				"element": "C" 
			},
			{
				"x": 2.0893501641,
				"y": -1.1596979521,
				"z": -0.5436363036,
				"element": "C" 
			},
			{
				"x": 0.9441955868,
				"y": -1.7084701702,
				"z": 0.0353981715,
				"element": "C" 
			},
			{
				"x": 0.9747746448,
				"y": -3.4019587023,
				"z": 0.4477812042,
				"element": "Cl" 
			},
			{
				"x": -0.1777859263,
				"y": -0.8995836651,
				"z": 0.2654806824,
				"element": "C" 
			},
			{
				"x": -1.952948738,
				"y": -1.6345400782,
				"z": 1.1338193865,
				"element": "I" 
			},
			{
				"x": -0.1312384317,
				"y": 0.4495985668,
				"z": -0.0903404496,
				"element": "C" 
			},
			{
				"x": 1.0127800629,
				"y": 0.9996865153,
				"z": -0.6692833128,
				"element": "C" 
			},
			{
				"x": 1.0069058135,
				"y": 2.6898145184,
				"z": -1.0903278791,
				"element": "Cl" 
			},
			{
				"x": 2.9544441936,
				"y": -1.7868538647,
				"z": -0.7201613741,
				"element": "H" 
			},
			{
				"x": -0.9889435163,
				"y": 1.0877211401,
				"z": 0.080608706,
				"element": "H" 
			}
		],
		 "valence_orbital": [ 
			{
				"type": "occ",
				"energy": -0.32463,
				"method": "rhf"
			},
			{
				"type": "occ",
				"energy": -0.30318,
				"method": "rhf"
			},
			{
				"type": "occ",
				"energy": -0.28056,
				"method": "rhf"
			},
			{
				"type": "occ",
				"energy": -0.27089,
				"method": "rhf"
			},
			{
				"type": "occ",
				"energy": -0.25355,
				"method": "rhf"
			},
			{
				"type": "unocc",
				"energy": -0.06392,
				"method": "rhf"
			},
			{
				"type": "unocc",
				"energy": -0.04897,
				"method": "rhf"
			},
			{
				"type": "unocc",
				"energy": -0.04634,
				"method": "rhf"
			},
			{
				"type": "unocc",
				"energy": -0.00901,
				"method": "rhf"
			},
			{
				"type": "unocc",
				"energy": 0.02149,
				"method": "rhf"
			}
		],
		"cosmo_sigma_profile": { 
			"0.0": 0.0,
			"0.0": 0.0,
			"0.0": 0.0,
			"0.0": 0.0,
			"0.0": 0.0,
			"0.0": 0.0,
			"0.0": 0.0,
			"0.0": 0.0,
			"0.0": 0.0,
			"0.0": 0.0,
			"0.0": 0.0,
			"0.0": 0.0,
			"0.0": 0.0,
			"0.0": 0.0,
			"0.0": 0.0,
			"0.0": 0.0,
			"0.0": 0.0,
			"0.0": 0.0,
			"0.0": 0.0,
			"0.0": 0.0,
			"0.0": 0.0,
			"0.0": 0.0,
			"0.0": 0.0,
			"0.0": 0.0,
			"0.0": 0.0,
			"0.0": 0.0,
			"0.0": 0.0,
			"0.0": 0.0,
			"0.0": 0.0,
			"0.0": 0.0,
			"0.0": 0.0,
			"0.0": 0.0,
			"0.0": 0.0,
			"0.0": 0.0,
			"0.0": 0.0,
			"0.0": 0.0,
			"0.0": 0.0,
			"0.0": 0.0,
			"0.0": 0.0,
			"0.0": 0.0,
			"0.0": 0.0,
			"0.0": 0.0,
			"0.0": 0.0,
			"0.0": 0.0,
			"0.0": 0.0,
			"0.0": 0.0,
			"0.0": 0.0,
			"0.0": 0.0,
			"0.0": 0.0,
			"0.0": 0.0,
			"0.0": 0.0
		}
	}
}
