{
	 "smiles": "CCC1=CC(=C(O)C(CC2=CC(CC)=CC(=C2O)C(C)(C)C)=C1)C(C)(C)C", 
	 "Tm": 393.15, 
	 "num_atms": 63, 
	 "gaussian": { 
		 "optdone": 1, 
		 "sigma_profile": "yes", 
		 "theory": "DFT", 
		 "functional": "B3LYP", 
		 "basiset": "6-31G**", 
		 "properties": { 
			 "R2extent": 13185.1539, 
			 "electric_dipole_moment_norm": 1.04165739569, 
			 "electric_quadrupole_moment_norm": 6.3197756938, 
			 "total_energy": -1124.84138577, 
			 "HOMO_LUMO_gap": 0.20107, 
			 "cosmo_polarized_energy": -12.52, 
			 "cosmo_cavitation_energy": 59.71, 
			 "cosmo_dispersion_energy": -38.28, 
			 "cosmo_repulsion_energy": 2.96, 
			 "cosmo_total_nonelectrostatic_energy": 24.39, 
			 "SMD_solvation_energy": 10.14 
		},
		"coords": [
			{
				"x": -2.9985306301,
				"y": 3.2482988571,
				"z": -2.21750912,
				"element": "C" 
			},
			{
				"x": -3.2092206055,
				"y": 3.4059617565,
				"z": -0.7008920339,
				"element": "C" 
			},
			{
				"x": -2.1349821524,
				"y": 2.7249833684,
				"z": 0.1209668084,
				"element": "C" 
			},
			{
				"x": -0.9653325129,
				"y": 3.3963556126,
				"z": 0.4814540089,
				"element": "C" 
			},
			{
				"x": 0.0848302736,
				"y": 2.8129318921,
				"z": 1.2075973084,
				"element": "C" 
			},
			{
				"x": -0.0803949346,
				"y": 1.4584123398,
				"z": 1.5732120473,
				"element": "C" 
			},
			{
				"x": 0.9263601531,
				"y": 0.8342327956,
				"z": 2.2715799433,
				"element": "O" 
			},
			{
				"x": -1.2518112578,
				"y": 0.7466738524,
				"z": 1.2329517332,
				"element": "C" 
			},
			{
				"x": -1.4343670269,
				"y": -0.7229942512,
				"z": 1.6008780757,
				"element": "C" 
			},
			{
				"x": -1.0676897709,
				"y": -1.6971175184,
				"z": 0.4856176447,
				"element": "C" 
			},
			{
				"x": 0.2760713433,
				"y": -2.0294716265,
				"z": 0.281445505,
				"element": "C" 
			},
			{
				"x": 0.6691273662,
				"y": -2.8935352067,
				"z": -0.7363668016,
				"element": "C" 
			},
			{
				"x": 2.1298544147,
				"y": -3.2119072078,
				"z": -0.9784717067,
				"element": "C" 
			},
			{
				"x": 2.7871937596,
				"y": -2.2782877611,
				"z": -2.0107673638,
				"element": "C" 
			},
			{
				"x": -0.3293185147,
				"y": -3.4330641371,
				"z": -1.5580014693,
				"element": "C" 
			},
			{
				"x": -1.6896590702,
				"y": -3.1435325408,
				"z": -1.4092917295,
				"element": "C" 
			},
			{
				"x": -2.0391726651,
				"y": -2.2523728371,
				"z": -0.3658463362,
				"element": "C" 
			},
			{
				"x": -3.3738109365,
				"y": -1.9466527087,
				"z": -0.2115538179,
				"element": "O" 
			},
			{
				"x": -2.7548799078,
				"y": -3.7690029716,
				"z": -2.3371989935,
				"element": "C" 
			},
			{
				"x": -3.5117347752,
				"y": -2.6575901205,
				"z": -3.1063449427,
				"element": "C" 
			},
			{
				"x": -2.123243032,
				"y": -4.7043980359,
				"z": -3.3888704674,
				"element": "C" 
			},
			{
				"x": -3.7535715619,
				"y": -4.6157959683,
				"z": -1.5095086724,
				"element": "C" 
			},
			{
				"x": -2.2578762842,
				"y": 1.3928511778,
				"z": 0.5138998756,
				"element": "C" 
			},
			{
				"x": 1.3081701729,
				"y": 3.7152533376,
				"z": 1.5252120877,
				"element": "C" 
			},
			{
				"x": 2.4399880858,
				"y": 3.0588693611,
				"z": 2.3448442533,
				"element": "C" 
			},
			{
				"x": 0.8239840877,
				"y": 4.9469497685,
				"z": 2.3316054558,
				"element": "C" 
			},
			{
				"x": 1.9322034348,
				"y": 4.1915607038,
				"z": 0.1892030251,
				"element": "C" 
			},
			{
				"x": -2.9963244308,
				"y": 2.1918763114,
				"z": -2.5048774337,
				"element": "H" 
			},
			{
				"x": -3.7919191276,
				"y": 3.7523647348,
				"z": -2.7799132139,
				"element": "H" 
			},
			{
				"x": -2.0389444473,
				"y": 3.6761987902,
				"z": -2.5256497556,
				"element": "H" 
			},
			{
				"x": -4.1908508534,
				"y": 2.9979385483,
				"z": -0.430249435,
				"element": "H" 
			},
			{
				"x": -3.2395059413,
				"y": 4.4734069867,
				"z": -0.4503825718,
				"element": "H" 
			},
			{
				"x": -0.8709167189,
				"y": 4.4365274161,
				"z": 0.183118438,
				"element": "H" 
			},
			{
				"x": 0.6228315778,
				"y": -0.0372857515,
				"z": 2.549705213,
				"element": "H" 
			},
			{
				"x": -2.4706343217,
				"y": -0.8627780278,
				"z": 1.9362036382,
				"element": "H" 
			},
			{
				"x": -0.8589392989,
				"y": -0.9948659234,
				"z": 2.496077413,
				"element": "H" 
			},
			{
				"x": 1.0331566912,
				"y": -1.5859380017,
				"z": 0.9247656273,
				"element": "H" 
			},
			{
				"x": 2.6804065101,
				"y": -3.1458661868,
				"z": -0.0321827807,
				"element": "H" 
			},
			{
				"x": 2.2263802515,
				"y": -4.2500147068,
				"z": -1.3198546481,
				"element": "H" 
			},
			{
				"x": 3.8403109137,
				"y": -2.5384102363,
				"z": -2.1629634443,
				"element": "H" 
			},
			{
				"x": 2.7380727631,
				"y": -1.23527706,
				"z": -1.6816622322,
				"element": "H" 
			},
			{
				"x": 2.2782264512,
				"y": -2.3436971246,
				"z": -2.9780303308,
				"element": "H" 
			},
			{
				"x": -0.0191952458,
				"y": -4.1130261071,
				"z": -2.3431460046,
				"element": "H" 
			},
			{
				"x": -3.4901965965,
				"y": -1.4170770034,
				"z": 0.5857144214,
				"element": "H" 
			},
			{
				"x": -2.8182654068,
				"y": -2.0747417895,
				"z": -3.7223487146,
				"element": "H" 
			},
			{
				"x": -4.0261195726,
				"y": -1.9746344227,
				"z": -2.4297089406,
				"element": "H" 
			},
			{
				"x": -4.2568802247,
				"y": -3.1067378128,
				"z": -3.7732634343,
				"element": "H" 
			},
			{
				"x": -1.4252392847,
				"y": -4.1752427889,
				"z": -4.0460340089,
				"element": "H" 
			},
			{
				"x": -2.9152377555,
				"y": -5.1210415332,
				"z": -4.0194327824,
				"element": "H" 
			},
			{
				"x": -1.5938064565,
				"y": -5.5454986068,
				"z": -2.9290508113,
				"element": "H" 
			},
			{
				"x": -4.2770116576,
				"y": -4.0123079815,
				"z": -0.7673923294,
				"element": "H" 
			},
			{
				"x": -3.2326976461,
				"y": -5.4274505916,
				"z": -0.9897526143,
				"element": "H" 
			},
			{
				"x": -4.4998209653,
				"y": -5.0673082212,
				"z": -2.1735136076,
				"element": "H" 
			},
			{
				"x": -3.1522556417,
				"y": 0.8371732125,
				"z": 0.2390046324,
				"element": "H" 
			},
			{
				"x": 2.8795909237,
				"y": 2.2024455082,
				"z": 1.8309070197,
				"element": "H" 
			},
			{
				"x": 2.0971667621,
				"y": 2.7200000749,
				"z": 3.3242101544,
				"element": "H" 
			},
			{
				"x": 3.228391704,
				"y": 3.8044740682,
				"z": 2.4996291034,
				"element": "H" 
			},
			{
				"x": 0.0733081849,
				"y": 5.5320552922,
				"z": 1.7931407088,
				"element": "H" 
			},
			{
				"x": 0.385031248,
				"y": 4.6381207894,
				"z": 3.2860908307,
				"element": "H" 
			},
			{
				"x": 1.6692037643,
				"y": 5.610309796,
				"z": 2.5473710348,
				"element": "H" 
			},
			{
				"x": 1.2198533812,
				"y": 4.7442346341,
				"z": -0.4298437261,
				"element": "H" 
			},
			{
				"x": 2.7846601039,
				"y": 4.8517840822,
				"z": 0.3857979568,
				"element": "H" 
			},
			{
				"x": 2.2925829102,
				"y": 3.3394777013,
				"z": -0.3964276893,
				"element": "H" 
			}
		],
		 "valence_orbital": [ 
			{
				"type": "occ",
				"energy": -0.30257,
				"method": "rhf"
			},
			{
				"type": "occ",
				"energy": -0.24135,
				"method": "rhf"
			},
			{
				"type": "occ",
				"energy": -0.23121,
				"method": "rhf"
			},
			{
				"type": "occ",
				"energy": -0.21114,
				"method": "rhf"
			},
			{
				"type": "occ",
				"energy": -0.20881,
				"method": "rhf"
			},
			{
				"type": "unocc",
				"energy": -0.00774,
				"method": "rhf"
			},
			{
				"type": "unocc",
				"energy": 0.00059,
				"method": "rhf"
			},
			{
				"type": "unocc",
				"energy": 0.01598,
				"method": "rhf"
			},
			{
				"type": "unocc",
				"energy": 0.01826,
				"method": "rhf"
			},
			{
				"type": "unocc",
				"energy": 0.04401,
				"method": "rhf"
			}
		],
		"cosmo_sigma_profile": { 
			"-0.025": 0.0,
			"-0.024": 0.0,
			"-0.023": 0.0,
			"-0.022": 0.0,
			"-0.021": 0.0,
			"-0.02": 0.0,
			"-0.019": 0.0,
			"-0.018": 0.0,
			"-0.017": 0.122089418999,
			"-0.016": 1.55902685846,
			"-0.015": 1.53899338494,
			"-0.014": 1.82379866684,
			"-0.013": 1.94259116513,
			"-0.012": 2.04031204407,
			"-0.011": 2.1226200478,
			"-0.01": 1.70624485665,
			"-0.009": 2.477852808,
			"-0.008": 2.19136478806,
			"-0.007": 2.26990574129,
			"-0.006": 2.53351981126,
			"-0.005": 6.1552310697,
			"-0.004": 10.3418910893,
			"-0.003": 35.3140608168,
			"-0.002": 62.8312882193,
			"-0.001": 58.914230593,
			"0.0": 60.2102934578,
			"0.001": 68.0880767306,
			"0.002": 49.4437300455,
			"0.003": 21.9103539175,
			"0.004": 20.2268308397,
			"0.005": 18.201955174,
			"0.006": 18.5658461688,
			"0.007": 8.88524422688,
			"0.008": 2.22896204001,
			"0.009": 0.289933452524,
			"0.01": 0.0,
			"0.011": 0.0,
			"0.012": 0.0,
			"0.013": 0.0,
			"0.014": 0.0,
			"0.015": 0.0,
			"0.016": 0.0,
			"0.017": 0.0,
			"0.018": 0.0,
			"0.019": 0.0,
			"0.02": 0.0,
			"0.021": 0.0,
			"0.022": 0.0,
			"0.023": 0.0,
			"0.024": 0.0,
			"0.025": 0.0
		}
	}
}
