{
	 "smiles": "OC(=O)C1=CC=C(O1)C1=CC=C(F)C=C1", 
	 "Tm": 467.15, 
	 "num_atms": 22, 
	 "gaussian": { 
		 "optdone": 1, 
		 "sigma_profile": "yes", 
		 "theory": "DFT", 
		 "functional": "B3LYP", 
		 "basiset": "6-31G**", 
		 "properties": { 
			 "R2extent": 4780.0638, 
			 "electric_dipole_moment_norm": 4.63854620867, 
			 "electric_quadrupole_moment_norm": 19.2225577551, 
			 "total_energy": -748.889222419, 
			 "HOMO_LUMO_gap": 0.15979, 
			 "cosmo_polarized_energy": -14.1, 
			 "cosmo_cavitation_energy": 28.37, 
			 "cosmo_dispersion_energy": -20.54, 
			 "cosmo_repulsion_energy": 1.56, 
			 "cosmo_total_nonelectrostatic_energy": 9.39, 
			 "SMD_solvation_energy": 6.97 
		},
		"coords": [
			{
				"x": 1.6654284746,
				"y": -0.6663676021,
				"z": -2.6143267937,
				"element": "O" 
			},
			{
				"x": 1.9473425754,
				"y": -1.592066822,
				"z": -1.6632423939,
				"element": "C" 
			},
			{
				"x": 2.4922244738,
				"y": -2.6371732088,
				"z": -1.9356189875,
				"element": "O" 
			},
			{
				"x": 1.5466276858,
				"y": -1.2402610214,
				"z": -0.2938374449,
				"element": "C" 
			},
			{
				"x": 1.667037088,
				"y": -1.913414312,
				"z": 0.8901723914,
				"element": "C" 
			},
			{
				"x": 1.0985865544,
				"y": -1.0788277326,
				"z": 1.8892069711,
				"element": "C" 
			},
			{
				"x": 0.6589479279,
				"y": 0.0648257602,
				"z": 1.260075127,
				"element": "C" 
			},
			{
				"x": 0.9310491905,
				"y": -0.0287728142,
				"z": -0.0783097948,
				"element": "O" 
			},
			{
				"x": 0.0002103743,
				"y": 1.2761102784,
				"z": 1.7312477444,
				"element": "C" 
			},
			{
				"x": -0.343214273,
				"y": 2.3107916955,
				"z": 0.8422906238,
				"element": "C" 
			},
			{
				"x": -0.9722728459,
				"y": 3.4655235618,
				"z": 1.2979268689,
				"element": "C" 
			},
			{
				"x": -1.2588397212,
				"y": 3.5836500833,
				"z": 2.6534571049,
				"element": "C" 
			},
			{
				"x": -1.8673514096,
				"y": 4.6984852039,
				"z": 3.1003591784,
				"element": "F" 
			},
			{
				"x": -0.933969045,
				"y": 2.5807549457,
				"z": 3.5623108402,
				"element": "C" 
			},
			{
				"x": -0.3057140542,
				"y": 1.4313690325,
				"z": 3.0963759874,
				"element": "C" 
			},
			{
				"x": 1.2307310442,
				"y": 0.0985451736,
				"z": -2.2067969964,
				"element": "H" 
			},
			{
				"x": 2.1128733063,
				"y": -2.8893580302,
				"z": 1.0107082347,
				"element": "H" 
			},
			{
				"x": 1.0232789325,
				"y": -1.2962573106,
				"z": 2.9443260758,
				"element": "H" 
			},
			{
				"x": -0.1151846677,
				"y": 2.208339862,
				"z": -0.2124436325,
				"element": "H" 
			},
			{
				"x": -1.2413071202,
				"y": 4.2690412793,
				"z": 0.6212175293,
				"element": "H" 
			},
			{
				"x": -1.1740460748,
				"y": 2.7103176682,
				"z": 4.6117997273,
				"element": "H" 
			},
			{
				"x": -0.0507384159,
				"y": 0.6471443096,
				"z": 3.8017016389,
				"element": "H" 
			}
		],
		 "valence_orbital": [ 
			{
				"type": "occ",
				"energy": -0.30736,
				"method": "rhf"
			},
			{
				"type": "occ",
				"energy": -0.29025,
				"method": "rhf"
			},
			{
				"type": "occ",
				"energy": -0.28005,
				"method": "rhf"
			},
			{
				"type": "occ",
				"energy": -0.27736,
				"method": "rhf"
			},
			{
				"type": "occ",
				"energy": -0.22692,
				"method": "rhf"
			},
			{
				"type": "unocc",
				"energy": -0.06713,
				"method": "rhf"
			},
			{
				"type": "unocc",
				"energy": -0.02965,
				"method": "rhf"
			},
			{
				"type": "unocc",
				"energy": -0.01463,
				"method": "rhf"
			},
			{
				"type": "unocc",
				"energy": 0.05575,
				"method": "rhf"
			},
			{
				"type": "unocc",
				"energy": 0.05619,
				"method": "rhf"
			}
		],
		"cosmo_sigma_profile": { 
			"-0.025": 0.0,
			"-0.024": 0.0,
			"-0.023": 0.0,
			"-0.022": 0.0,
			"-0.021": 0.0,
			"-0.02": 0.0,
			"-0.019": 0.0,
			"-0.018": 0.0,
			"-0.017": 0.0340143431034,
			"-0.016": 0.728484774458,
			"-0.015": 0.450063356217,
			"-0.014": 0.605224838953,
			"-0.013": 1.0464884501,
			"-0.012": 0.553373518069,
			"-0.011": 1.10488171493,
			"-0.01": 1.39048964338,
			"-0.009": 3.47335804238,
			"-0.008": 7.2349914354,
			"-0.007": 10.5838896481,
			"-0.006": 11.5303747209,
			"-0.005": 12.3373448506,
			"-0.004": 9.31530203835,
			"-0.003": 10.5409814835,
			"-0.002": 11.1102389343,
			"-0.001": 13.8278354216,
			"0.0": 24.4177822344,
			"0.001": 22.6603827046,
			"0.002": 22.2722298208,
			"0.003": 19.9654348206,
			"0.004": 12.6667706134,
			"0.005": 3.10026653668,
			"0.006": 1.93747219934,
			"0.007": 3.15690172752,
			"0.008": 2.35084296936,
			"0.009": 3.39952318994,
			"0.01": 5.39965638953,
			"0.011": 4.44577298233,
			"0.012": 5.57413757976,
			"0.013": 1.81849385532,
			"0.014": 0.119235937867,
			"0.015": 0.0,
			"0.016": 0.0,
			"0.017": 0.0,
			"0.018": 0.0,
			"0.019": 0.0,
			"0.02": 0.0,
			"0.021": 0.0,
			"0.022": 0.0,
			"0.023": 0.0,
			"0.024": 0.0,
			"0.025": 0.0
		}
	}
}
