{
	 "smiles": "CC(C)S(=O)(=O)CC1=CC=C(N)C=C1", 
	 "Tm": 408.15, 
	 "num_atms": 29, 
	 "gaussian": { 
		 "optdone": 1, 
		 "sigma_profile": "yes", 
		 "theory": "DFT", 
		 "functional": "B3LYP", 
		 "basiset": "6-31G**", 
		 "properties": { 
			 "R2extent": 3903.6039, 
			 "electric_dipole_moment_norm": 6.13765868227, 
			 "electric_quadrupole_moment_norm": 10.925678243, 
			 "total_energy": -993.44857569, 
			 "HOMO_LUMO_gap": 0.20019, 
			 "cosmo_polarized_energy": -19.58, 
			 "cosmo_cavitation_energy": 32.46, 
			 "cosmo_dispersion_energy": -23.11, 
			 "cosmo_repulsion_energy": 1.78, 
			 "cosmo_total_nonelectrostatic_energy": 11.13, 
			 "SMD_solvation_energy": 4.73 
		},
		"coords": [
			{
				"x": 0.7041948335,
				"y": -2.0338620357,
				"z": 2.9067321346,
				"element": "C" 
			},
			{
				"x": 0.4138616602,
				"y": -1.0940830147,
				"z": 1.7319752215,
				"element": "C" 
			},
			{
				"x": 0.7808235198,
				"y": -1.7063015711,
				"z": 0.3794516469,
				"element": "C" 
			},
			{
				"x": -1.38099459,
				"y": -0.6419569982,
				"z": 1.8043524614,
				"element": "S" 
			},
			{
				"x": -1.7134195545,
				"y": -0.366397204,
				"z": 3.2161743385,
				"element": "O" 
			},
			{
				"x": -2.1520930211,
				"y": -1.6516004846,
				"z": 1.0511890798,
				"element": "O" 
			},
			{
				"x": -1.5532638446,
				"y": 0.9844940218,
				"z": 0.9488210407,
				"element": "C" 
			},
			{
				"x": -1.2183229465,
				"y": 1.0282960523,
				"z": -0.5126153749,
				"element": "C" 
			},
			{
				"x": -0.1062218165,
				"y": 1.7465770545,
				"z": -0.9725385605,
				"element": "C" 
			},
			{
				"x": 0.2154149633,
				"y": 1.7991113245,
				"z": -2.3256288256,
				"element": "C" 
			},
			{
				"x": -0.5765222948,
				"y": 1.1265532136,
				"z": -3.2726601288,
				"element": "C" 
			},
			{
				"x": -0.2979742811,
				"y": 1.2197277215,
				"z": -4.6330764184,
				"element": "N" 
			},
			{
				"x": -1.6952289385,
				"y": 0.4051106457,
				"z": -2.8147326863,
				"element": "C" 
			},
			{
				"x": -2.0087373627,
				"y": 0.3612679867,
				"z": -1.462201379,
				"element": "C" 
			},
			{
				"x": 0.4182085154,
				"y": -1.5847826501,
				"z": 3.8589799918,
				"element": "H" 
			},
			{
				"x": 1.7751711561,
				"y": -2.2593860407,
				"z": 2.9253188385,
				"element": "H" 
			},
			{
				"x": 0.1603632371,
				"y": -2.9763818665,
				"z": 2.7911233541,
				"element": "H" 
			},
			{
				"x": 0.9324897344,
				"y": -0.139760179,
				"z": 1.8846935045,
				"element": "H" 
			},
			{
				"x": 0.6328357638,
				"y": -1.0087959615,
				"z": -0.4464232173,
				"element": "H" 
			},
			{
				"x": 1.8358696032,
				"y": -2.0004073677,
				"z": 0.396705251,
				"element": "H" 
			},
			{
				"x": 0.1746884029,
				"y": -2.5958477238,
				"z": 0.1909168524,
				"element": "H" 
			},
			{
				"x": -2.6081045068,
				"y": 1.2023227109,
				"z": 1.1486806689,
				"element": "H" 
			},
			{
				"x": -0.9525456946,
				"y": 1.6821346206,
				"z": 1.5380955706,
				"element": "H" 
			},
			{
				"x": 0.5203847853,
				"y": 2.2800079243,
				"z": -0.2611748388,
				"element": "H" 
			},
			{
				"x": 1.078450493,
				"y": 2.3715841942,
				"z": -2.6563239431,
				"element": "H" 
			},
			{
				"x": -0.6726422333,
				"y": 0.4793096513,
				"z": -5.2091973123,
				"element": "H" 
			},
			{
				"x": 0.6562137733,
				"y": 1.4493715315,
				"z": -4.8722405246,
				"element": "H" 
			},
			{
				"x": -2.3232965543,
				"y": -0.1181110265,
				"z": -3.53149733,
				"element": "H" 
			},
			{
				"x": -2.8649028021,
				"y": -0.2172945293,
				"z": -1.1298994155,
				"element": "H" 
			}
		],
		 "valence_orbital": [ 
			{
				"type": "occ",
				"energy": -0.29809,
				"method": "rhf"
			},
			{
				"type": "occ",
				"energy": -0.28207,
				"method": "rhf"
			},
			{
				"type": "occ",
				"energy": -0.2699,
				"method": "rhf"
			},
			{
				"type": "occ",
				"energy": -0.25602,
				"method": "rhf"
			},
			{
				"type": "occ",
				"energy": -0.20819,
				"method": "rhf"
			},
			{
				"type": "unocc",
				"energy": -0.008,
				"method": "rhf"
			},
			{
				"type": "unocc",
				"energy": -0.00362,
				"method": "rhf"
			},
			{
				"type": "unocc",
				"energy": 0.06034,
				"method": "rhf"
			},
			{
				"type": "unocc",
				"energy": 0.07071,
				"method": "rhf"
			},
			{
				"type": "unocc",
				"energy": 0.07272,
				"method": "rhf"
			}
		],
		"cosmo_sigma_profile": { 
			"-0.025": 0.0,
			"-0.024": 0.0,
			"-0.023": 0.0,
			"-0.022": 0.0,
			"-0.021": 0.0,
			"-0.02": 0.0,
			"-0.019": 0.0,
			"-0.018": 0.0,
			"-0.017": 0.0,
			"-0.016": 0.0,
			"-0.015": 0.0,
			"-0.014": 0.0,
			"-0.013": 0.543877644677,
			"-0.012": 2.90200029887,
			"-0.011": 2.50351965844,
			"-0.01": 3.95179590541,
			"-0.009": 4.52898360364,
			"-0.008": 7.53420834522,
			"-0.007": 9.23179992934,
			"-0.006": 11.1558126434,
			"-0.005": 15.8270151034,
			"-0.004": 21.1520467373,
			"-0.003": 19.8583059798,
			"-0.002": 17.5039822493,
			"-0.001": 20.5812665709,
			"0.0": 18.2456228299,
			"0.001": 10.2119968952,
			"0.002": 9.49927357617,
			"0.003": 10.1236593512,
			"0.004": 11.5122355977,
			"0.005": 10.6018589172,
			"0.006": 9.17716954844,
			"0.007": 4.27199641959,
			"0.008": 3.13761557404,
			"0.009": 3.29462881598,
			"0.01": 5.250674055,
			"0.011": 6.51502316637,
			"0.012": 9.08009896361,
			"0.013": 6.19607077084,
			"0.014": 0.50591117005,
			"0.015": 0.0,
			"0.016": 0.0,
			"0.017": 0.0,
			"0.018": 0.0,
			"0.019": 0.0,
			"0.02": 0.0,
			"0.021": 0.0,
			"0.022": 0.0,
			"0.023": 0.0,
			"0.024": 0.0,
			"0.025": 0.0
		}
	}
}
