{
	 "smiles": "CN1C2=CC=C(Cl)C=C2C(=NC(O)C1=O)C1=CC=CC=C1", 
	 "Tm": 393.15, 
	 "num_atms": 34, 
	 "gaussian": { 
		 "optdone": 1, 
		 "sigma_profile": "yes", 
		 "theory": "DFT", 
		 "functional": "B3LYP", 
		 "basiset": "6-31G**", 
		 "properties": { 
			 "R2extent": 7244.9872, 
			 "electric_dipole_moment_norm": 4.3101907684, 
			 "electric_quadrupole_moment_norm": 22.9351965285, 
			 "total_energy": -1337.6793677, 
			 "HOMO_LUMO_gap": 0.17555, 
			 "cosmo_polarized_energy": -15.75, 
			 "cosmo_cavitation_energy": 39.0, 
			 "cosmo_dispersion_energy": -27.79, 
			 "cosmo_repulsion_energy": 2.13, 
			 "cosmo_total_nonelectrostatic_energy": 13.33, 
			 "SMD_solvation_energy": 4.49 
		},
		"coords": [
			{
				"x": 3.7325458879,
				"y": -0.687526586,
				"z": 2.2392349558,
				"element": "C" 
			},
			{
				"x": 2.3814869568,
				"y": -0.1605127326,
				"z": 2.0106316377,
				"element": "N" 
			},
			{
				"x": 2.1994969614,
				"y": 0.938704126,
				"z": 1.1335385989,
				"element": "C" 
			},
			{
				"x": 3.1815660512,
				"y": 1.9429035083,
				"z": 1.0962462937,
				"element": "C" 
			},
			{
				"x": 3.0725678773,
				"y": 3.0298925251,
				"z": 0.2384154729,
				"element": "C" 
			},
			{
				"x": 1.9622201182,
				"y": 3.1236749984,
				"z": -0.6019576758,
				"element": "C" 
			},
			{
				"x": 1.7994135475,
				"y": 4.5029270927,
				"z": -1.6743110682,
				"element": "Cl" 
			},
			{
				"x": 0.9893154989,
				"y": 2.1333318764,
				"z": -0.6012014423,
				"element": "C" 
			},
			{
				"x": 1.0912129519,
				"y": 1.0234856676,
				"z": 0.2554752167,
				"element": "C" 
			},
			{
				"x": 0.0261891918,
				"y": -0.023320977,
				"z": 0.2231114965,
				"element": "C" 
			},
			{
				"x": -0.4842872024,
				"y": -0.5441780357,
				"z": 1.2821007085,
				"element": "N" 
			},
			{
				"x": -0.034969323,
				"y": -0.080973737,
				"z": 2.585226873,
				"element": "C" 
			},
			{
				"x": -0.8738460807,
				"y": -0.510002754,
				"z": 3.6051595952,
				"element": "O" 
			},
			{
				"x": 1.370741539,
				"y": -0.6724815566,
				"z": 2.796575402,
				"element": "C" 
			},
			{
				"x": 1.5460690279,
				"y": -1.5791141384,
				"z": 3.599755665,
				"element": "O" 
			},
			{
				"x": -0.492833729,
				"y": -0.4910486879,
				"z": -1.0962452298,
				"element": "C" 
			},
			{
				"x": -1.7902880032,
				"y": -1.0268049765,
				"z": -1.1675939526,
				"element": "C" 
			},
			{
				"x": -2.2918197021,
				"y": -1.5052966017,
				"z": -2.374162702,
				"element": "C" 
			},
			{
				"x": -1.5046828797,
				"y": -1.4658809004,
				"z": -3.5292132321,
				"element": "C" 
			},
			{
				"x": -0.2115269058,
				"y": -0.9461227257,
				"z": -3.467680451,
				"element": "C" 
			},
			{
				"x": 0.2913549738,
				"y": -0.4590084481,
				"z": -2.2605434069,
				"element": "C" 
			},
			{
				"x": 4.2979057264,
				"y": -0.6478588465,
				"z": 1.3067582275,
				"element": "H" 
			},
			{
				"x": 3.6357232123,
				"y": -1.7187634654,
				"z": 2.5763651692,
				"element": "H" 
			},
			{
				"x": 4.2659047135,
				"y": -0.124230383,
				"z": 3.0134171217,
				"element": "H" 
			},
			{
				"x": 4.0347135632,
				"y": 1.8807330816,
				"z": 1.7622073712,
				"element": "H" 
			},
			{
				"x": 3.8323416999,
				"y": 3.8032997094,
				"z": 0.2301203453,
				"element": "H" 
			},
			{
				"x": 0.1404856532,
				"y": 2.2101193691,
				"z": -1.2702484813,
				"element": "H" 
			},
			{
				"x": 0.0097119726,
				"y": 1.0185133074,
				"z": 2.6196203071,
				"element": "H" 
			},
			{
				"x": -0.4768548675,
				"y": -1.3308252009,
				"z": 3.9458028654,
				"element": "H" 
			},
			{
				"x": -2.3858411217,
				"y": -1.0599411496,
				"z": -0.2618981933,
				"element": "H" 
			},
			{
				"x": -3.2995884868,
				"y": -1.9083342379,
				"z": -2.4163831452,
				"element": "H" 
			},
			{
				"x": -1.897891016,
				"y": -1.8393205292,
				"z": -4.470409876,
				"element": "H" 
			},
			{
				"x": 0.4100324415,
				"y": -0.9217512378,
				"z": -4.3580329412,
				"element": "H" 
			},
			{
				"x": 1.3031297517,
				"y": -0.0686873543,
				"z": -2.2219815256,
				"element": "H" 
			}
		],
		 "valence_orbital": [ 
			{
				"type": "occ",
				"energy": -0.27679,
				"method": "rhf"
			},
			{
				"type": "occ",
				"energy": -0.26182,
				"method": "rhf"
			},
			{
				"type": "occ",
				"energy": -0.25671,
				"method": "rhf"
			},
			{
				"type": "occ",
				"energy": -0.24313,
				"method": "rhf"
			},
			{
				"type": "occ",
				"energy": -0.24006,
				"method": "rhf"
			},
			{
				"type": "unocc",
				"energy": -0.06451,
				"method": "rhf"
			},
			{
				"type": "unocc",
				"energy": -0.03782,
				"method": "rhf"
			},
			{
				"type": "unocc",
				"energy": -0.0292,
				"method": "rhf"
			},
			{
				"type": "unocc",
				"energy": -0.00597,
				"method": "rhf"
			},
			{
				"type": "unocc",
				"energy": 0.01024,
				"method": "rhf"
			}
		],
		"cosmo_sigma_profile": { 
			"-0.025": 0.0,
			"-0.024": 0.0,
			"-0.023": 0.0,
			"-0.022": 0.0,
			"-0.021": 0.0,
			"-0.02": 0.0,
			"-0.019": 0.0,
			"-0.018": 0.0,
			"-0.017": 0.0,
			"-0.016": 0.0,
			"-0.015": 0.0,
			"-0.014": 0.0,
			"-0.013": 0.0,
			"-0.012": 0.165054685906,
			"-0.011": 0.506926513154,
			"-0.01": 0.57891338494,
			"-0.009": 0.456711205085,
			"-0.008": 5.13835830867,
			"-0.007": 10.330395708,
			"-0.006": 18.4485510783,
			"-0.005": 25.1204037162,
			"-0.004": 25.7103307698,
			"-0.003": 26.4548025041,
			"-0.002": 23.2650891315,
			"-0.001": 20.8456697691,
			"0.0": 23.0708517966,
			"0.001": 23.9512448247,
			"0.002": 21.1338459351,
			"0.003": 19.6234257882,
			"0.004": 22.8705397379,
			"0.005": 13.8027013912,
			"0.006": 3.13149993261,
			"0.007": 3.83737396112,
			"0.008": 2.99646828028,
			"0.009": 4.02125414608,
			"0.01": 3.41522260761,
			"0.011": 5.95130255627,
			"0.012": 4.03050839508,
			"0.013": 3.03502399533,
			"0.014": 2.25100973848,
			"0.015": 0.298793073812,
			"0.016": 0.0,
			"0.017": 0.0,
			"0.018": 0.0,
			"0.019": 0.0,
			"0.02": 0.0,
			"0.021": 0.0,
			"0.022": 0.0,
			"0.023": 0.0,
			"0.024": 0.0,
			"0.025": 0.0
		}
	}
}
