{
	 "smiles": "[O-][N+](=O)C1=CC=CC=C1N1C(=O)C2ON=C(C2C1=O)C(=O)C1=CC=C(Cl)C=C1", 
	 "Tm": 446.15, 
	 "num_atms": 38, 
	 "gaussian": { 
		 "optdone": 1, 
		 "sigma_profile": "yes", 
		 "theory": "DFT", 
		 "functional": "B3LYP", 
		 "basiset": "6-31G**", 
		 "properties": { 
			 "R2extent": 13913.3561, 
			 "electric_dipole_moment_norm": 5.3351693975, 
			 "electric_quadrupole_moment_norm": 20.9637200616, 
			 "total_energy": -1767.57284367, 
			 "HOMO_LUMO_gap": 0.14933, 
			 "cosmo_polarized_energy": -22.26, 
			 "cosmo_cavitation_energy": 46.87, 
			 "cosmo_dispersion_energy": -31.71, 
			 "cosmo_repulsion_energy": 2.35, 
			 "cosmo_total_nonelectrostatic_energy": 17.51, 
			 "SMD_solvation_energy": 10.92 
		},
		"coords": [
			{
				"x": -0.8152562605,
				"y": -1.2667801877,
				"z": 0.9954751609,
				"element": "O" 
			},
			{
				"x": -0.9823529426,
				"y": -1.5434292361,
				"z": -0.1942300323,
				"element": "N" 
			},
			{
				"x": -0.3662808234,
				"y": -2.4130151854,
				"z": -0.8010125434,
				"element": "O" 
			},
			{
				"x": -2.031550236,
				"y": -0.8169982746,
				"z": -0.932032272,
				"element": "C" 
			},
			{
				"x": -2.5928579114,
				"y": -1.4716025185,
				"z": -2.0273064942,
				"element": "C" 
			},
			{
				"x": -3.6491409248,
				"y": -0.8847646157,
				"z": -2.7182924303,
				"element": "C" 
			},
			{
				"x": -4.131843831,
				"y": 0.3620529529,
				"z": -2.319521224,
				"element": "C" 
			},
			{
				"x": -3.5455213389,
				"y": 1.0296956716,
				"z": -1.2452288833,
				"element": "C" 
			},
			{
				"x": -2.4906071058,
				"y": 0.4521062286,
				"z": -0.5373390804,
				"element": "C" 
			},
			{
				"x": -1.9040811819,
				"y": 1.182115805,
				"z": 0.5324127059,
				"element": "N" 
			},
			{
				"x": -2.6030235263,
				"y": 1.5234496936,
				"z": 1.7015068,
				"element": "C" 
			},
			{
				"x": -3.7829852966,
				"y": 1.357626058,
				"z": 1.8908360599,
				"element": "O" 
			},
			{
				"x": -1.5869440465,
				"y": 2.1378158963,
				"z": 2.6734640564,
				"element": "C" 
			},
			{
				"x": -1.38261545,
				"y": 1.2155131153,
				"z": 3.7867993935,
				"element": "O" 
			},
			{
				"x": -0.0837653154,
				"y": 0.7410703953,
				"z": 3.7697171614,
				"element": "N" 
			},
			{
				"x": 0.5715890921,
				"y": 1.2484684735,
				"z": 2.7887435523,
				"element": "C" 
			},
			{
				"x": -0.2576189187,
				"y": 2.1741104346,
				"z": 1.9233375558,
				"element": "C" 
			},
			{
				"x": -0.54237678,
				"y": 1.537954139,
				"z": 0.5558951884,
				"element": "C" 
			},
			{
				"x": 0.2351506428,
				"y": 1.3516750687,
				"z": -0.3463317159,
				"element": "O" 
			},
			{
				"x": 2.0516382265,
				"y": 1.0997082243,
				"z": 2.6150334956,
				"element": "C" 
			},
			{
				"x": 2.6454735401,
				"y": 2.0577057079,
				"z": 2.1337906709,
				"element": "O" 
			},
			{
				"x": 2.7480269252,
				"y": -0.1375471668,
				"z": 3.0486821842,
				"element": "C" 
			},
			{
				"x": 2.0868042914,
				"y": -1.359935516,
				"z": 3.2468568697,
				"element": "C" 
			},
			{
				"x": 2.8051701414,
				"y": -2.4943074564,
				"z": 3.6181761132,
				"element": "C" 
			},
			{
				"x": 4.1853211683,
				"y": -2.3991134251,
				"z": 3.795782087,
				"element": "C" 
			},
			{
				"x": 5.0905327967,
				"y": -3.8223493132,
				"z": 4.2740478178,
				"element": "Cl" 
			},
			{
				"x": 4.8653023013,
				"y": -1.1941672173,
				"z": 3.5942542538,
				"element": "C" 
			},
			{
				"x": 4.1421766943,
				"y": -0.0718910474,
				"z": 3.212282019,
				"element": "C" 
			},
			{
				"x": -2.1951448566,
				"y": -2.4383265688,
				"z": -2.3094958529,
				"element": "H" 
			},
			{
				"x": -4.0933177653,
				"y": -1.4027589564,
				"z": -3.5617727498,
				"element": "H" 
			},
			{
				"x": -4.9572745017,
				"y": 0.8248960021,
				"z": -2.8507566037,
				"element": "H" 
			},
			{
				"x": -3.898182735,
				"y": 2.0091514713,
				"z": -0.9437475526,
				"element": "H" 
			},
			{
				"x": -1.9577675712,
				"y": 3.080089071,
				"z": 3.0818514574,
				"element": "H" 
			},
			{
				"x": 0.2248162246,
				"y": 3.1447702422,
				"z": 1.791685451,
				"element": "H" 
			},
			{
				"x": 1.0184062094,
				"y": -1.43793335,
				"z": 3.0881365721,
				"element": "H" 
			},
			{
				"x": 2.3023251595,
				"y": -3.4435747671,
				"z": 3.7629942061,
				"element": "H" 
			},
			{
				"x": 5.9394409475,
				"y": -1.1462716206,
				"z": 3.7332795961,
				"element": "H" 
			},
			{
				"x": 4.6417349586,
				"y": 0.8747917717,
				"z": 3.0367270064,
				"element": "H" 
			}
		],
		 "valence_orbital": [ 
			{
				"type": "occ",
				"energy": -0.28532,
				"method": "rhf"
			},
			{
				"type": "occ",
				"energy": -0.275,
				"method": "rhf"
			},
			{
				"type": "occ",
				"energy": -0.27057,
				"method": "rhf"
			},
			{
				"type": "occ",
				"energy": -0.26611,
				"method": "rhf"
			},
			{
				"type": "occ",
				"energy": -0.25521,
				"method": "rhf"
			},
			{
				"type": "unocc",
				"energy": -0.10588,
				"method": "rhf"
			},
			{
				"type": "unocc",
				"energy": -0.08527,
				"method": "rhf"
			},
			{
				"type": "unocc",
				"energy": -0.05285,
				"method": "rhf"
			},
			{
				"type": "unocc",
				"energy": -0.05084,
				"method": "rhf"
			},
			{
				"type": "unocc",
				"energy": -0.03245,
				"method": "rhf"
			}
		],
		"cosmo_sigma_profile": { 
			"-0.025": 0.0,
			"-0.024": 0.0,
			"-0.023": 0.0,
			"-0.022": 0.0,
			"-0.021": 0.0,
			"-0.02": 0.0,
			"-0.019": 0.0,
			"-0.018": 0.0,
			"-0.017": 0.0,
			"-0.016": 0.0,
			"-0.015": 0.0,
			"-0.014": 0.0,
			"-0.013": 0.282056569594,
			"-0.012": 0.791653847531,
			"-0.011": 3.18630467263,
			"-0.01": 8.30845623996,
			"-0.009": 6.83030181574,
			"-0.008": 14.7075630395,
			"-0.007": 19.266534914,
			"-0.006": 17.7022980393,
			"-0.005": 14.8866567748,
			"-0.004": 15.3692197662,
			"-0.003": 16.5598799438,
			"-0.002": 21.444770605,
			"-0.001": 27.2955476981,
			"0.0": 34.3427077598,
			"0.001": 37.6233011985,
			"0.002": 26.4724837961,
			"0.003": 19.1363501576,
			"0.004": 19.7279258992,
			"0.005": 10.414479622,
			"0.006": 12.7764486019,
			"0.007": 15.984483856,
			"0.008": 11.5089388243,
			"0.009": 10.8284713365,
			"0.01": 12.4760128833,
			"0.011": 2.7577806407,
			"0.012": 0.0,
			"0.013": 0.0,
			"0.014": 0.0,
			"0.015": 0.0,
			"0.016": 0.0,
			"0.017": 0.0,
			"0.018": 0.0,
			"0.019": 0.0,
			"0.02": 0.0,
			"0.021": 0.0,
			"0.022": 0.0,
			"0.023": 0.0,
			"0.024": 0.0,
			"0.025": 0.0
		}
	}
}
